BUMPy system
67056
    1BOLB   NC1    1  16.374  14.390  27.411  0.2658 -0.0809 -0.0860
    1BOLB   PO1    2  16.760  14.226  27.452 -0.1292 -0.1008 -0.0681
    1BOLB   GL1    3  16.982  14.072  27.006  0.1078 -0.2167 -0.0042
    1BOLB   GL2    4  17.254  14.124  26.801  0.2426 -0.2240  0.0970
    1BOLB   C1A    5  16.833  14.198  26.631 -0.0323 -0.3247  0.3819
    1BOLB   C2A    6  16.693  14.010  26.213 -0.2758  0.2629 -0.1447
    1BOLB   C3A    7  16.553  13.776  25.906 -0.2927 -0.2739  0.4773
    1BOLB   C4A    8  16.535  13.411  25.766 -0.2631 -0.2308 -0.1086
    1BOLB   C1B    9  17.083  13.842  26.441 -0.0183 -0.0280  0.0964
    1BOLB   C2B   10  16.715  13.504  26.281 -0.1721  0.0032  0.1313
    1BOLB   C3B   11  16.280  13.516  26.474 -0.2481 -0.2275 -0.0855
    1BOLB   C4B   12  16.123  13.604  26.925 -0.0547  0.0868  0.0392
    1BOLB   NC2   13  16.220  12.900  23.587  0.1257 -0.1725 -0.0580
    1BOLB   PO2   14  16.224  13.293  23.460 -0.0241 -0.0178 -0.2227
    1BOLB   GL3   15  16.126  13.471  23.871 -0.1191 -0.0083 -0.1002
    1BOLB   GL4   16  16.434  13.591  23.989  0.2533 -0.0224 -0.0340
    1BOLB   C1C   17  16.123  13.446  24.365 -0.2343 -0.1602 -0.0277
    1BOLB   C2C   18  16.245  13.584  24.726  0.2368  0.1435  0.0645
    1BOLB   C3C   19  16.511  13.441  24.972 -0.3348 -0.3396 -0.0282
    1BOLB   C4C   20  16.459  13.429  25.354 -0.0147 -0.0914  0.0746
    1BOLB   C1D   21  16.595  13.790  24.330  0.1117  0.1179  0.0074
    1BOLB   C2D   22  16.564  13.970  24.750  0.1437  0.0209 -0.2583
    1BOLB   C3D   23  16.586  13.888  25.178  0.1269  0.1260 -0.0677
    1BOLB   C4D   24  16.891  13.764  25.415 -0.2064  0.3491 -0.0619
    2BOLB   NC1   25  20.612  16.995  15.492 -0.1501 -0.1260 -0.1946
    2BOLB   PO1   26  21.058  17.216  15.360 -0.1070  0.1573  0.1773
    2BOLB   GL1   27  21.202  17.652  15.229  0.1881 -0.1191 -0.1279
    2BOLB   GL2   28  21.112  17.907  15.029 -0.2438  0.4079 -0.2932
    2BOLB   C1A   29  21.571  18.069  15.201  0.1745 -0.0410 -0.1693
    2BOLB   C2A   30  21.979  18.371  15.270 -0.1579 -0.0913  0.1265
    2BOLB   C3A   31  22.354  18.355  14.994 -0.1008  0.1084 -0.3214
    2BOLB   C4A   32  22.726  18.409  14.757  0.0050 -0.2526 -0.0734
    2BOLB   C1B   33  21.114  18.345  14.909  0.0165 -0.1158 -0.1706
    2BOLB   C2B   34  21.292  18.748  14.802 -0.0251 -0.1231  0.1144
    2BOLB   C3B   35  21.336  19.074  15.065  0.2827  0.2982  0.6090
    2BOLB   C4B   36  21.635  19.298  14.909  0.0491 -0.3868 -0.1911
    2BOLB   NC2   37  22.928  20.775  14.574  0.1858 -0.1607 -0.0490
    2BOLB   PO2   38  22.966  20.574  14.170  0.1522  0.3062  0.0482
    2BOLB   GL3   39  23.049  20.180  14.358 -0.3561 -0.2673  0.1274
    2BOLB   GL4   40  23.273  19.833  14.353  0.0521 -0.2289  0.2827
    2BOLB   C1C   41  22.780  19.936  14.643  0.1155 -0.2558  0.2265
    2BOLB   C2C   42  22.529  19.559  14.707  0.0364 -0.2078 -0.1866
    2BOLB   C3C   43  22.604  19.206  14.880 -0.2739  0.1268 -0.1683
    2BOLB   C4C   44  22.812  18.849  14.697 -0.1369  0.4802 -0.2359
    2BOLB   C1D   45  23.115  19.577  14.764  0.2291 -0.1618 -0.0844
    2BOLB   C2D   46  23.109  19.187  15.039 -0.0195 -0.0261  0.1237
    2BOLB   C3D   47  23.049  18.935  15.470 -0.1230 -0.1433  0.1540
    2BOLB   C4D   48  22.742  18.805  15.729  0.1801 -0.3699 -0.0616
    3BOLB   NC1   49  18.103  12.526   8.530 -0.2082  0.1557 -0.1014
    3BOLB   PO1   50  17.689  12.275   8.259 -0.0509 -0.2445  0.1254
    3BOLB   GL1   51  17.913  12.096   7.882  0.0333 -0.1422 -0.1682
    3BOLB   GL2   52  18.207  12.237   7.913  0.6501  0.0462  0.1124
    3BOLB   C1A   53  17.840  12.172   7.473  0.0947 -0.0494 -0.5249
    3BOLB   C2A   54  17.822  12.175   7.011 -0.2714  0.2297  0.2355
    3BOLB   C3A   55  18.044  12.391   6.661 -0.3810 -0.1370  0.1096
    3BOLB   C4A   56  18.139  12.730   6.395  0.0690  0.0897  0.1389
    3BOLB   C1B   57  18.395  12.218   7.488  0.0072 -0.0293 -0.0583
    3BOLB   C2B   58  18.657  12.538   7.175  0.0542 -0.1081 -0.1775
    3BOLB   C3B   59  18.812  12.823   6.931  0.1412  0.0695 -0.0464
    3BOLB   C4B   60  19.003  13.025   6.564  0.3479 -0.0612  0.2254
    3BOLB   NC2   61  18.306  12.960   4.086 -0.2601 -0.0417 -0.2981
    3BOLB   PO2   62  17.964  13.084   3.909 -0.1238 -0.0288  0.0518
    3BOLB   GL3   63  17.964  13.062   4.432 -0.0037 -0.1011  0.1421
    3BOLB   GL4   64  17.576  13.140   4.530  0.0733  0.2254  0.1089
    3BOLB   C1C   65  17.899  13.366   4.830  0.3289  0.0909  0.0925
    3BOLB   C2C   66  17.924  13.264   5.296  0.2513 -0.2719 -0.4204
    3BOLB   C3C   67  17.929  13.102   5.638 -0.1239 -0.0276  0.2245
    3BOLB   C4C   68  18.090  13.060   6.033  0.3866  0.2726 -0.1768
    3BOLB   C1D   69  17.593  12.993   4.930  0.0197  0.2094 -0.1175
    3BOLB   C2D   70  17.473  12.815   5.374  0.2508 -0.2525 -0.1559
    3BOLB   C3D   71  17.057  12.694   5.508  0.3664  0.1925  0.2488
    3BOLB   C4D   72  16.766  13.006   5.593  0.2608  0.0738  0.4107
    4BOLB   NC1   73  27.993  13.451  17.762 -0.2166 -0.3291  0.1823
    4BOLB   PO1   74  27.979  13.385  17.295 -0.2050  0.0457 -0.2583
    4BOLB   GL1   75  27.582  13.453  16.976  0.0656 -0.1255 -0.0279
    4BOLB   GL2   76  27.664  13.148  16.822 -0.2048  0.0385 -0.2236
    4BOLB   C1A   77  27.155  13.406  16.841 -0.0196 -0.1575  0.4036
    4BOLB   C2A   78  26.782  13.158  16.859  0.0745  0.0726 -0.1352
    4BOLB   C3A   79  26.589  12.830  16.724 -0.1621 -0.1424  0.1614
    4BOLB   C4A   80  26.613  12.455  16.444 -0.2067 -0.0928 -0.0029
    4BOLB   C1B   81  27.261  12.828  16.730 -0.0364  0.0347 -0.2170
    4BOLB   C2B   82  26.855  12.485  16.950  0.0547 -0.0770  0.0595
    4BOLB   C3B   83  26.422  12.415  16.936 -0.1637  0.1706  0.0250
    4BOLB   C4B   84  26.036  12.431  16.772 -0.0362 -0.0149  0.1590
    4BOLB   NC2   85  28.346  13.230  16.322 -0.3241 -0.2284 -0.4091
    4BOLB   PO2   86  28.419  12.898  16.745 -0.0409 -0.0091  0.0644
    4BOLB   GL3   87  27.978  12.891  16.551 -0.4356 -0.0001  0.2731
    4BOLB   GL4   88  27.880  13.178  16.249  0.2638 -0.2257  0.3080
    4BOLB   C1C   89  27.699  12.660  16.528  0.1680 -0.1466 -0.3471
    4BOLB   C2C   90  27.662  12.225  16.427  0.1057  0.1259 -0.0993
    4BOLB   C3C   91  27.250  11.869  16.371  0.0294  0.1412 -0.1013
    4BOLB   C4C   92  26.724  12.007  16.462  0.0034  0.2039 -0.3107
    4BOLB   C1D   93  27.553  12.974  16.115 -0.2989 -0.0400  0.1554
    4BOLB   C2D   94  27.411  12.502  16.070  0.0186  0.2229 -0.0117
    4BOLB   C3D   95  26.972  12.304  16.055  0.1699 -0.1888  0.1409
    4BOLB   C4D   96  26.616  12.395  15.915  0.2625 -0.1059  0.0207
    5BOLB   NC1   97  23.700  14.405  18.294 -0.0926 -0.1498  0.1441
    5BOLB   PO1   98  23.530  14.901  18.502  0.2387  0.1437  0.0933
    5BOLB   GL1   99  23.829  15.147  18.591  0.1818  0.0271 -0.0321
    5BOLB   GL2  100  23.958  14.900  18.750 -0.1849 -0.0748  0.0102
    5BOLB   C1A  101  23.811  15.543  18.784 -0.0008  0.0267  0.2545
    5BOLB   C2A  102  23.826  15.953  18.953  0.2048  0.0952 -0.0487
    5BOLB   C3A  103  23.814  16.285  19.298  0.2821  0.0843  0.0633
    5BOLB   C4A  104  23.987  16.695  19.256 -0.0747 -0.1645 -0.0702
    5BOLB   C1B  105  24.114  15.125  18.998  0.0282 -0.3097 -0.0104
    5BOLB   C2B  106  24.374  15.249  19.217  0.2830 -0.1820 -0.0051
    5BOLB   C3B  107  24.589  15.551  19.397 -0.2943 -0.2160 -0.0086
    5BOLB   C4B  108  24.687  15.851  19.050  0.0969  0.3021 -0.1675
    5BOLB   NC2  109  24.718  18.709  20.357  0.1803  0.0046  0.2340
    5BOLB   PO2  110  25.098  18.690  20.225  0.2380 -0.1975  0.0226
    5BOLB   GL3  111  24.896  18.329  19.960 -0.0167 -0.1381 -0.1644
    5BOLB   GL4  112  24.894  18.063  19.989 -0.4131  0.0674  0.1285
    5BOLB   C1C  113  24.487  18.171  19.697  0.1263 -0.0084  0.0814
    5BOLB   C2C  114  24.326  17.807  19.486  0.1923  0.0731  0.0981
    5BOLB   C3C  115  24.089  17.436  19.251  0.1522 -0.0210  0.0366
    5BOLB   C4C  116  24.073  17.092  19.113  0.1391  0.1253  0.1163
    5BOLB   C1D  117  24.497  17.823  20.106 -0.2611  0.1070  0.0685
    5BOLB   C2D  118  24.097  17.830  20.145  0.2476 -0.0585 -0.2243
    5BOLB   C3D  119  23.710  17.783  20.104  0.1302  0.3966 -0.1808
    5BOLB   C4D  120  23.333  17.848  19.936 -0.2733  0.0039 -0.0645
    6BOLB   NC1  121   6.445  16.221  18.576 -0.1693  0.2761  0.0651
    6BOLB   PO1  122   6.216  15.865  18.371 -0.3524  0.3905  0.1387
    6BOLB   GL1  123   6.467  15.726  18.055 -0.0458 -0.0719 -0.2286
    6BOLB   GL2  124   6.373  15.416  18.020  0.3501  0.0859 -0.2956
    6BOLB   C1A  125   6.763  15.736  17.594  0.2908  0.1570  0.1581
    6BOLB   C2A  126   7.062  15.747  17.400  0.2590  0.1727 -0.0808
    6BOLB   C3A  127   7.386  15.844  17.049  0.0307 -0.1682 -0.1534
    6BOLB   C4A  128   7.352  15.908  16.606 -0.2094  0.1519 -0.2686
    6BOLB   C1B  129   6.830  15.316  17.918 -0.0617 -0.0361  0.0435
    6BOLB   C2B  130   7.240  15.352  17.678  0.2899  0.3088 -0.1158
    6BOLB   C3B  131   7.452  15.408  17.357  0.0025 -0.0266 -0.0842
    6BOLB   C4B  132   7.631  15.410  16.878  0.4222  0.3213 -0.2849
    6BOLB   NC2  133   5.493  16.599  15.414 -0.0235  0.1327  0.1139
    6BOLB   PO2  134   5.666  17.022  15.256 -0.1567  0.2905 -0.0762
    6BOLB   GL3  135   5.983  16.668  15.203  0.0311 -0.1221 -0.2986
    6BOLB   GL4  136   5.989  16.444  15.051 -0.0421  0.0142  0.0152
    6BOLB   C1C  137   6.369  16.582  15.412  0.1028  0.2871  0.0456
    6BOLB   C2C  138   6.709  16.449  15.598 -0.0043  0.2208  0.0840
    6BOLB   C3C  139   7.068  16.283  15.907  0.1648 -0.0869  0.2247
    6BOLB   C4C  140   7.366  16.094  16.157 -0.3124  0.3094 -0.0868
    6BOLB   C1D  141   6.353  16.213  14.861  0.1021 -0.0636  0.1329
    6BOLB   C2D  142   6.739  16.178  14.794 -0.2557  0.1562 -0.0185
    6BOLB   C3D  143   7.162  16.218  14.927  0.2305 -0.2400  0.0060
    6BOLB   C4D  144   7.498  16.408  14.765  0.0939 -0.2079 -0.1104
    7BOLB   NC1  145  19.838  16.675  14.086  0.1510 -0.0446 -0.4706
    7BOLB   PO1  146  19.995  17.105  13.961 -0.1158  0.0662 -0.1462
    7BOLB   GL1  147  20.007  17.522  13.776  0.0441 -0.3745  0.1910
    7BOLB   GL2  148  19.726  17.800  13.710 -0.3970  0.1659  0.0289
    7BOLB   C1A  149  20.297  17.808  13.673 -0.0938  0.1940  0.1556
    7BOLB   C2A  150  20.214  18.108  13.333  0.3047  0.1625  0.1183
    7BOLB   C3A  151  20.408  18.368  13.198  0.0590  0.0057  0.1666
    7BOLB   C4A  152  20.233  18.808  12.827  0.1298  0.0826 -0.3025
    7BOLB   C1B  153  20.045  18.201  13.844 -0.1628  0.3873 -0.0698
    7BOLB   C2B  154  20.362  18.477  13.975  0.0657 -0.0102  0.3599
    7BOLB   C3B  155  20.453  18.919  14.263  0.1219 -0.1152  0.2565
    7BOLB   C4B  156  20.745  19.209  14.580  0.3982 -0.1659  0.1821
    7BOLB   NC2  157  20.777  21.110  12.868  0.2278  0.1363 -0.4374
    7BOLB   PO2  158  21.220  21.038  12.606 -0.0130 -0.3367  0.0754
    7BOLB   GL3  159  21.023  20.640  12.682 -0.0440 -0.1406  0.0691
    7BOLB   GL4  160  20.859  20.624  12.910  0.1471  0.0708 -0.1080
    7BOLB   C1C  161  20.734  20.283  12.550  0.1888 -0.0489  0.1992
    7BOLB   C2C  162  20.479  20.033  12.703  0.2850  0.0903 -0.0435
    7BOLB   C3C  163  20.424  19.611  12.703 -0.3888  0.0566 -0.0511
    7BOLB   C4C  164  20.318  19.225  12.482 -0.1048 -0.1375 -0.2653
    7BOLB   C1D  165  20.750  20.251  13.070  0.1825 -0.2544 -0.1824
    7BOLB   C2D  166  20.703  19.840  13.248 -0.2663  0.0106  0.1850
    7BOLB   C3D  167  20.588  19.451  13.208 -0.1966  0.2102  0.1394
    7BOLB   C4D  168  20.480  18.961  13.215  0.1975  0.0238 -0.0318
    8BOLB   NC1  169   5.019  13.963   9.878  0.0469 -0.0654 -0.0710
    8BOLB   PO1  170   4.822  14.205   9.545 -0.0652 -0.0217  0.0046
    8BOLB   GL1  171   4.974  13.812   9.389 -0.1332 -0.2157  0.0869
    8BOLB   GL2  172   5.307  13.894   9.152  0.0172 -0.3200 -0.1301
    8BOLB   C1A  173   5.302  13.473   9.507  0.0900 -0.0154 -0.1479
    8BOLB   C2A  174   5.277  13.261   9.892  0.2969  0.2753 -0.1096
    8BOLB   C3A  175   5.481  12.947  10.211  0.3837 -0.0332 -0.0173
    8BOLB   C4A  176   5.871  12.786  10.138 -0.0353  0.1717 -0.2732
    8BOLB   C1B  177   5.678  13.811   9.415  0.0473  0.1965 -0.0903
    8BOLB   C2B  178   5.944  13.690   9.084  0.2091  0.4467  0.1423
    8BOLB   C3B  179   6.283  13.698   8.684 -0.1019 -0.2522 -0.3515
    8BOLB   C4B  180   6.446  13.873   8.338 -0.0055 -0.1125 -0.3591
    8BOLB   NC2  181   5.567  15.001  10.287  0.0199  0.2174 -0.1464
    8BOLB   PO2  182   5.976  14.730  10.376 -0.0595  0.5170  0.0412
    8BOLB   GL3  183   6.059  14.362  10.255 -0.2957  0.0839 -0.2076
    8BOLB   GL4  184   5.794  14.106  10.440 -0.1624 -0.1939  0.1817
    8BOLB   C1C  185   6.234  13.813  10.320  0.5108  0.4869 -0.2544
    8BOLB   C2C  186   6.502  13.477  10.425 -0.1825  0.0972 -0.0372
    8BOLB   C3C  187   6.573  12.998  10.295  0.3669 -0.1706  0.0876
    8BOLB   C4C  188   6.359  12.734  10.079  0.3279  0.0405  0.1526
    8BOLB   C1D  189   5.998  13.800  10.814 -0.1136  0.1608 -0.0953
    8BOLB   C2D  190   5.790  13.511  11.116 -0.1161 -0.0826  0.0776
    8BOLB   C3D  191   5.355  13.343  11.171 -0.2243  0.1265  0.4396
    8BOLB   C4D  192   4.984  13.289  11.327 -0.3054  0.3395  0.0395
    9BOLB   NC1  193  11.970  33.862  17.971  0.6097 -0.0772  0.3131
    9BOLB   PO1  194  11.856  34.256  17.882 -0.1417 -0.0215  0.3337
    9BOLB   GL1  195  11.869  34.447  17.531 -0.1963 -0.1552 -0.0133
    9BOLB   GL2  196  12.101  34.416  17.309  0.0337  0.3441 -0.0165
    9BOLB   C1A  197  11.976  34.847  17.478  0.3211  0.0607  0.3329
    9BOLB   C2A  198  11.776  35.054  17.075  0.1894  0.0153 -0.1184
    9BOLB   C3A  199  11.715  35.058  16.568  0.0387  0.0135 -0.1430
    9BOLB   C4A  200  11.901  34.916  16.162  0.1613 -0.0817  0.3716
    9BOLB   C1B  201  12.525  34.621  17.309 -0.1978 -0.0545 -0.1955
    9BOLB   C2B  202  12.760  34.948  17.429  0.1273  0.1646  0.2441
    9BOLB   C3B  203  12.849  35.081  17.860  0.2237 -0.2515 -0.1638
    9BOLB   C4B  204  12.790  35.421  18.180  0.1405  0.0177 -0.0506
    9BOLB   NC2  205  11.713  33.269  17.496 -0.2172  0.0422 -0.1109
    9BOLB   PO2  206  12.044  33.557  17.578  0.3651 -0.2418 -0.0175
    9BOLB   GL3  207  12.187  33.808  17.168  0.0943 -0.0322 -0.0682
    9BOLB   GL4  208  12.406  33.921  17.117  0.2004 -0.3735  0.2390
    9BOLB   C1C  209  12.122  33.952  16.692 -0.1282 -0.0833 -0.2827
    9BOLB   C2C  210  12.229  34.073  16.314  0.2660 -0.0884  0.1848
    9BOLB   C3C  211  12.115  34.224  15.976  0.2784  0.1937  0.0437
    9BOLB   C4C  212  12.098  34.570  15.777  0.1279 -0.1934 -0.2893
    9BOLB   C1D  213  12.379  34.291  16.895 -0.1279 -0.1690  0.0040
    9BOLB   C2D  214  12.223  34.667  16.913 -0.0596  0.1812  0.0971
    9BOLB   C3D  215  12.310  35.079  17.068 -0.1153 -0.0110  0.2422
    9BOLB   C4D  216  12.775  35.303  17.023 -0.0263  0.3513  0.1547
   10BOLB   NC1  217  13.623   1.611  16.978  0.3671 -0.0248 -0.1445
   10BOLB   PO1  218  13.969   1.443  16.798 -0.0725  0.1507 -0.0503
   10BOLB   GL1  219  14.040   1.097  16.655 -0.0289  0.2341 -0.2502
   10BOLB   GL2  220  14.260   0.848  16.343  0.0234 -0.2625 -0.1594
   10BOLB   C1A  221  13.887   0.644  16.742  0.2498 -0.2195  0.0121
   10BOLB   C2A  222  13.613   0.221  16.772 -0.2483 -0.2257  0.1782
   10BOLB   C3A  223  13.299  -0.106  16.880 -0.1682  0.0884  0.0174
   10BOLB   C4A  224  12.966  -0.456  16.826 -0.3119 -0.0804 -0.1063
   10BOLB   C1B  225  14.319   0.461  16.599 -0.0222  0.2025  0.0819
   10BOLB   C2B  226  14.076   0.156  16.923 -0.3147 -0.0404  0.1256
   10BOLB   C3B  227  13.905  -0.217  17.048 -0.0472  0.1429  0.1621
   10BOLB   C4B  228  13.547  -0.547  17.031 -0.2050  0.0560  0.1021
   10BOLB   NC2  229  12.510  -2.358  18.558  0.1158 -0.1276  0.0295
   10BOLB   PO2  230  12.363  -2.203  18.107 -0.3965 -0.0601  0.0572
   10BOLB   GL3  231  12.263  -1.845  18.023 -0.1256  0.0741 -0.0899
   10BOLB   GL4  232  11.923  -1.646  17.947 -0.1488  0.0726 -0.3155
   10BOLB   C1C  233  12.350  -1.519  17.735 -0.1718 -0.3526  0.0390
   10BOLB   C2C  234  12.459  -1.130  17.516  0.2207  0.1274 -0.1507
   10BOLB   C3C  235  12.333  -0.856  17.247  0.0857 -0.0468 -0.1587
   10BOLB   C4C  236  12.548  -0.629  16.886  0.2657 -0.1261  0.1089
   10BOLB   C1D  237  11.875  -1.301  17.907  0.2812 -0.2566  0.0922
   10BOLB   C2D  238  11.798  -1.002  17.609  0.1287  0.2045 -0.3796
   10BOLB   C3D  239  11.839  -0.717  17.236 -0.0328 -0.1208 -0.0399
   10BOLB   C4D  240  12.201  -0.355  17.197 -0.0936 -0.1554 -0.1594
   11BOLB   NC1  241  14.350  15.264  21.911 -0.1775  0.0484  0.1184
   11BOLB   PO1  242  14.067  15.164  22.120 -0.2417  0.1403 -0.3781
   11BOLB   GL1  243  13.873  15.333  22.498 -0.0402  0.1201 -0.0972
   11BOLB   GL2  244  13.466  15.391  22.528  0.1501  0.1131  0.0570
   11BOLB   C1A  245  13.789  15.542  22.849 -0.0049  0.1111 -0.1580
   11BOLB   C2A  246  13.437  15.812  22.908 -0.0487  0.1362  0.0406
   11BOLB   C3A  247  13.211  15.814  23.193  0.4505 -0.0599 -0.0031
   11BOLB   C4A  248  12.862  15.877  23.481 -0.1826  0.2148  0.1145
   11BOLB   C1B  249  13.217  15.378  22.887 -0.0828  0.0152  0.0006
   11BOLB   C2B  250  12.838  15.427  23.197 -0.0511 -0.0306  0.1008
   11BOLB   C3B  251  12.522  15.408  23.453 -0.0224 -0.0547  0.0220
   11BOLB   C4B  252  12.266  15.485  23.932 -0.5770 -0.0710 -0.1233
   11BOLB   NC2  253  11.957  16.598  25.298  0.1236 -0.0062 -0.3650
   11BOLB   PO2  254  11.712  16.941  25.112 -0.0562  0.0877 -0.1110
   11BOLB   GL3  255  11.851  16.853  24.691 -0.1286 -0.0306  0.3325
   11BOLB   GL4  256  11.895  16.537  24.704  0.0872 -0.0409 -0.0196
   11BOLB   C1C  257  12.218  16.826  24.449 -0.2223 -0.1462  0.1832
   11BOLB   C2C  258  12.247  16.506  24.229 -0.0181 -0.0160 -0.1604
   11BOLB   C3C  259  12.290  16.038  24.029  0.1186 -0.3094  0.2125
   11BOLB   C4C  260  12.621  15.850  23.704 -0.2597 -0.1621  0.1014
   11BOLB   C1D  261  11.911  16.126  24.395 -0.5650 -0.1658 -0.0905
   11BOLB   C2D  262  11.856  15.746  24.193 -0.0479 -0.3160  0.1350
   11BOLB   C3D  263  11.549  15.338  24.195 -0.1723  0.2844  0.1028
   11BOLB   C4D  264  11.108  15.038  24.239  0.2172  0.1158 -0.0069
   12BOLB   NC1  265  21.560  14.779   6.141  0.0361  0.2205  0.1135
   12BOLB   PO1  266  21.173  15.047   6.314 -0.1228 -0.0276 -0.0751
   12BOLB   GL1  267  21.005  14.871   6.603  0.1448  0.2291  0.1253
   12BOLB   GL2  268  20.698  14.805   6.539 -0.1222  0.0222  0.2259
   12BOLB   C1A  269  21.079  14.705   7.093  0.3017 -0.2055  0.1524
   12BOLB   C2A  270  21.106  14.862   7.507  0.2553  0.0303  0.0128
   12BOLB   C3A  271  21.242  15.061   7.846  0.1548  0.2560  0.3224
   12BOLB   C4A  272  21.530  15.102   8.241 -0.2772  0.3667 -0.2192
   12BOLB   C1B  273  20.468  15.113   6.662 -0.0501  0.1735 -0.0175
   12BOLB   C2B  274  20.304  15.150   6.974  0.0801 -0.2160 -0.0377
   12BOLB   C3B  275  19.941  15.337   7.219  0.2169 -0.0414 -0.0658
   12BOLB   C4B  276  19.669  15.334   7.579 -0.1774 -0.0489  0.0472
   12BOLB   NC2  277  20.986  14.083  10.673  0.0611  0.0919  0.0872
   12BOLB   PO2  278  20.861  14.061  10.275  0.3188  0.0979 -0.1148
   12BOLB   GL3  279  20.947  14.348  10.018 -0.3610 -0.2846  0.0083
   12BOLB   GL4  280  21.276  14.209   9.978 -0.0257 -0.2428  0.1487
   12BOLB   C1C  281  21.150  14.593   9.636 -0.1657  0.3989 -0.0939
   12BOLB   C2C  282  21.451  14.610   9.277 -0.1208  0.1524  0.0247
   12BOLB   C3C  283  21.523  14.689   8.910 -0.0408 -0.2801  0.1442
   12BOLB   C4C  284  21.472  15.056   8.675  0.1072  0.1130 -0.0848
   12BOLB   C1D  285  21.513  14.213   9.569  0.0353  0.0440 -0.4018
   12BOLB   C2D  286  21.962  14.416   9.512  0.0556 -0.2696 -0.0862
   12BOLB   C3D  287  22.045  14.836   9.600 -0.1725  0.1770  0.1108
   12BOLB   C4D  288  22.418  15.206   9.597 -0.1598  0.0660  0.1770
   13BOLB   NC1  289  18.021  33.147   6.750  0.0462  0.0360  0.2529
   13BOLB   PO1  290  17.814  33.575   6.759  0.2011 -0.0908  0.1679
   13BOLB   GL1  291  17.480  33.848   6.829  0.1799  0.0347 -0.0357
   13BOLB   GL2  292  17.270  34.008   6.602  0.5641 -0.2707 -0.2402
   13BOLB   C1A  293  17.550  34.235   7.030  0.1257 -0.1155 -0.0327
   13BOLB   C2A  294  17.737  34.719   7.143 -0.0667 -0.0055  0.3955
   13BOLB   C3A  295  17.709  35.137   7.179 -0.0869  0.0787  0.0121
   13BOLB   C4A  296  17.401  35.413   7.146 -0.0775 -0.4077 -0.0050
   13BOLB   C1B  297  16.791  34.187   6.531 -0.1697 -0.2318  0.0203
   13BOLB   C2B  298  16.402  34.245   6.869 -0.0658  0.1508  0.0859
   13BOLB   C3B  299  15.984  33.971   6.928  0.0254  0.1518 -0.0811
   13BOLB   C4B  300  15.613  34.052   7.160  0.2210  0.0513  0.0491
   13BOLB   NC2  301  16.879  33.990   4.894 -0.1489  0.0587  0.0606
   13BOLB   PO2  302  17.338  33.965   5.189 -0.0966 -0.0163 -0.0492
   13BOLB   GL3  303  17.100  34.250   5.553  0.0759 -0.0169  0.0205
   13BOLB   GL4  304  17.044  34.561   5.501 -0.0567  0.1707  0.2166
   13BOLB   C1C  305  17.015  34.448   5.981 -0.2179 -0.3387 -0.0566
   13BOLB   C2C  306  16.969  34.768   6.323 -0.0397  0.2508 -0.2298
   13BOLB   C3C  307  16.902  35.210   6.585 -0.1522  0.0809  0.2217
   13BOLB   C4C  308  17.087  35.399   6.862  0.0025 -0.2990  0.2433
   13BOLB   C1D  309  16.873  34.950   5.822  0.1423 -0.2400  0.1189
   13BOLB   C2D  310  16.982  35.248   6.099  0.1430 -0.2516  0.1822
   13BOLB   C3D  311  17.225  35.545   6.354 -0.0097  0.2664 -0.5601
   13BOLB   C4D  312  17.552  35.398   6.557  0.2539  0.3481  0.1201
   14BOLB   NC1  313   9.353   2.925   3.112 -0.2073  0.1674 -0.1233
   14BOLB   PO1  314   9.627   3.175   3.096  0.0556  0.2406  0.3119
   14BOLB   GL1  315   9.791   3.292   3.435  0.0326 -0.2188 -0.1579
   14BOLB   GL2  316   9.523   3.131   3.731 -0.1424 -0.1134  0.2623
   14BOLB   C1A  317   9.965   3.374   3.840  0.0386  0.1613  0.0052
   14BOLB   C2A  318  10.263   3.301   4.159  0.1223  0.1413 -0.2531
   14BOLB   C3A  319  10.519   3.589   4.301  0.1157 -0.4030 -0.0601
   14BOLB   C4A  320  10.515   3.992   4.385 -0.0194 -0.0328  0.4044
   14BOLB   C1B  321   9.459   3.253   4.096  0.2899 -0.1470 -0.0383
   14BOLB   C2B  322   9.784   3.372   4.388  0.0986 -0.0764 -0.2487
   14BOLB   C3B  323  10.146   3.635   4.581  0.0232  0.0546  0.0340
   14BOLB   C4B  324  10.376   3.882   4.971 -0.1511 -0.0020 -0.2107
   14BOLB   NC2  325   8.723   3.293   3.846 -0.3533  0.1423  0.0113
   14BOLB   PO2  326   8.584   3.694   3.997 -0.1276  0.2741 -0.2322
   14BOLB   GL3  327   8.709   3.912   4.318 -0.0209  0.2106 -0.1138
   14BOLB   GL4  328   8.559   3.981   4.486 -0.0541 -0.0066 -0.0710
   14BOLB   C1C  329   9.026   4.090   4.427  0.1348  0.2544  0.3152
   14BOLB   C2C  330   9.364   4.082   4.708 -0.4003 -0.0167  0.0865
   14BOLB   C3C  331   9.806   4.042   4.659 -0.1106  0.2242 -0.0925
   14BOLB   C4C  332  10.111   4.122   4.461  0.1244 -0.2252 -0.1933
   14BOLB   C1D  333   8.684   4.361   4.734  0.0031 -0.0149  0.1098
   14BOLB   C2D  334   9.093   4.525   4.705  0.0350 -0.1557 -0.0466
   14BOLB   C3D  335   9.484   4.539   4.969  0.1073  0.0070 -0.0174
   14BOLB   C4D  336   9.865   4.462   4.933 -0.1273 -0.0347 -0.1889
   15BOLB   NC1  337  20.206  14.731  21.929  0.1239 -0.1461  0.1945
   15BOLB   PO1  338  19.740  14.670  22.025 -0.2145  0.2380 -0.1043
   15BOLB   GL1  339  19.576  14.846  22.486 -0.3608 -0.4579 -0.0809
   15BOLB   GL2  340  19.392  15.071  22.466 -0.1613 -0.0138 -0.1899
   15BOLB   C1A  341  19.848  14.982  22.857  0.0851  0.5504 -0.0732
   15BOLB   C2A  342  19.891  15.131  23.219 -0.0091  0.0583  0.0961
   15BOLB   C3A  343  20.254  15.180  23.529  0.0538 -0.0701  0.1757
   15BOLB   C4A  344  20.529  14.903  23.799 -0.1353 -0.1341 -0.0465
   15BOLB   C1B  345  19.427  15.302  22.776 -0.1345 -0.2515  0.1509
   15BOLB   C2B  346  19.499  15.382  23.214  0.0250  0.2197  0.2602
   15BOLB   C3B  347  19.800  15.507  23.530 -0.0922 -0.0422  0.1165
   15BOLB   C4B  348  20.011  15.540  23.877 -0.0913  0.2896  0.0888
   15BOLB   NC2  349  22.189  16.023  25.803  0.1968  0.1809 -0.1744
   15BOLB   PO2  350  21.816  15.795  25.941  0.0493 -0.2578  0.1035
   15BOLB   GL3  351  21.651  15.583  25.651  0.1781  0.0624  0.1539
   15BOLB   GL4  352  21.725  15.331  25.700  0.0160 -0.0388  0.2887
   15BOLB   C1C  353  21.414  15.308  25.315  0.2161  0.0448 -0.0368
   15BOLB   C2C  354  21.134  15.154  24.958  0.1620  0.2100 -0.2141
   15BOLB   C3C  355  20.866  15.261  24.638 -0.1630 -0.2377 -0.2414
   15BOLB   C4C  356  20.663  15.014  24.257 -0.0391  0.1945 -0.1627
   15BOLB   C1D  357  21.914  14.947  25.527 -0.0506  0.1900  0.1043
   15BOLB   C2D  358  22.157  14.741  25.166 -0.0034 -0.0727 -0.0830
   15BOLB   C3D  359  22.379  14.849  24.840 -0.4849 -0.2480  0.3599
   15BOLB   C4D  360  22.731  14.710  24.600  0.0626  0.0069  0.1190
   16BOLB   NC1  361  19.325  34.239  15.699  0.4170 -0.1000 -0.2094
   16BOLB   PO1  362  19.720  34.362  15.803 -0.2883 -0.0221  0.0560
   16BOLB   GL1  363  19.312  34.663  15.915  0.3493  0.3437 -0.1618
   16BOLB   GL2  364  19.062  34.662  15.660 -0.0592  0.0566 -0.0861
   16BOLB   C1A  365  19.001  35.051  16.052 -0.1716 -0.1112 -0.1956
   16BOLB   C2A  366  18.672  35.330  16.304  0.0725  0.2586 -0.0100
   16BOLB   C3A  367  18.277  35.691  16.368  0.0349 -0.1690 -0.0520
   16BOLB   C4A  368  17.935  35.771  16.550 -0.1268 -0.2216 -0.0930
   16BOLB   C1B  369  18.668  34.913  15.604 -0.3804 -0.1210  0.4207
   16BOLB   C2B  370  18.462  35.239  15.824 -0.1791 -0.0412 -0.1684
   16BOLB   C3B  371  18.188  35.582  15.822  0.0884  0.0806 -0.1707
   16BOLB   C4B  372  17.846  35.649  16.087  0.1057  0.0577  0.1922
   16BOLB   NC2  373  18.018  34.064  17.644  0.2035 -0.0710 -0.0406
   16BOLB   PO2  374  17.595  33.998  17.726 -0.0459 -0.1539 -0.2823
   16BOLB   GL3  375  17.602  34.398  17.553 -0.2541  0.4433 -0.2718
   16BOLB   GL4  376  17.957  34.463  17.374  0.2718  0.0852  0.0665
   16BOLB   C1C  377  17.530  34.697  17.286  0.1423  0.1104  0.2622
   16BOLB   C2C  378  17.411  35.073  17.195  0.0750  0.4876 -0.3208
   16BOLB   C3C  379  17.516  35.510  17.258 -0.0344 -0.0527 -0.1553
   16BOLB   C4C  380  17.663  35.776  16.976  0.1207  0.0619 -0.2055
   16BOLB   C1D  381  17.990  34.844  17.500  0.1913 -0.1101  0.2500
   16BOLB   C2D  382  18.288  35.073  17.709 -0.1940  0.0731  0.0897
   16BOLB   C3D  383  18.454  35.345  17.996  0.3909  0.0664  0.1317
   16BOLB   C4D  384  18.788  35.504  17.946 -0.0982  0.1007 -0.0848
   17BOLB   NC1  385  11.949  31.742  10.470  0.4302  0.0619 -0.2508
   17BOLB   PO1  386  11.801  31.624  10.921 -0.3225 -0.1780 -0.3380
   17BOLB   GL1  387  11.783  32.108  10.762 -0.3318 -0.0092 -0.1300
   17BOLB   GL2  388  11.406  32.159  10.706  0.1855  0.0057 -0.2402
   17BOLB   C1A  389  11.813  32.612  10.812 -0.2526  0.0308 -0.2019
   17BOLB   C2A  390  12.052  33.044  10.773 -0.3137 -0.0133 -0.0436
   17BOLB   C3A  391  12.188  33.237  10.467  0.1716  0.1368 -0.1442
   17BOLB   C4A  392  12.568  33.509  10.372 -0.5848 -0.2467 -0.2319
   17BOLB   C1B  393  11.498  32.359  11.125  0.0562 -0.0415 -0.0246
   17BOLB   C2B  394  11.855  32.442  11.276  0.6284  0.0312  0.0889
   17BOLB   C3B  395  12.045  32.872  11.270  0.2258 -0.1615  0.1728
   17BOLB   C4B  396  12.196  33.212  11.236 -0.0765 -0.0662 -0.1573
   17BOLB   NC2  397  12.599  32.155   7.964  0.2760 -0.1046 -0.5711
   17BOLB   PO2  398  12.657  32.611   8.154 -0.0504  0.3453 -0.3216
   17BOLB   GL3  399  12.900  32.835   8.456 -0.2632 -0.3159 -0.0615
   17BOLB   GL4  400  13.130  32.619   8.745  0.2526 -0.0008  0.1225
   17BOLB   C1C  401  13.025  33.215   8.713  0.1084 -0.0588  0.1632
   17BOLB   C2C  402  13.139  33.286   9.223 -0.0422  0.2323  0.0624
   17BOLB   C3C  403  12.901  33.258   9.533 -0.2781 -0.2089  0.2485
   17BOLB   C4C  404  12.674  33.404   9.877 -0.2688  0.1342 -0.2750
   17BOLB   C1D  405  13.395  32.795   9.036  0.1041 -0.0006 -0.0585
   17BOLB   C2D  406  13.487  32.969   9.452 -0.1028  0.0556  0.2448
   17BOLB   C3D  407  13.789  33.108   9.655 -0.0822 -0.1225 -0.2069
   17BOLB   C4D  408  14.137  33.217   9.875 -0.0556  0.0243  0.1265
   18BOLB   NC1  409  28.304   9.732  16.730  0.0639 -0.1005 -0.0360
   18BOLB   PO1  410  28.255  10.060  16.405  0.0573  0.0780 -0.2943
   18BOLB   GL1  411  27.796  10.109  16.531  0.2287  0.1992 -0.1916
   18BOLB   GL2  412  27.838  10.384  16.775 -0.2375  0.3431  0.2716
   18BOLB   C1A  413  27.509  10.248  16.275  0.0531 -0.0158  0.1395
   18BOLB   C2A  414  27.378  10.554  15.980 -0.1604 -0.2578 -0.3049
   18BOLB   C3A  415  26.999  10.855  16.089 -0.0195 -0.1415 -0.3503
   18BOLB   C4A  416  26.581  10.990  16.079  0.3031  0.2430  0.0047
   18BOLB   C1B  417  27.884  10.751  16.741  0.0099 -0.0000  0.4498
   18BOLB   C2B  418  27.608  11.061  16.808 -0.1518  0.3772  0.0038
   18BOLB   C3B  419  27.362  11.378  16.699  0.0434 -0.2227 -0.1808
   18BOLB   C4B  420  27.013  11.604  16.838 -0.1071  0.1721 -0.0485
   18BOLB   NC2  421  24.025  10.864  15.747 -0.2014 -0.0719  0.0481
   18BOLB   PO2  422  24.311  11.109  15.815 -0.0654 -0.0232 -0.2369
   18BOLB   GL3  423  24.723  11.303  15.990 -0.2046 -0.0531 -0.1354
   18BOLB   GL4  424  24.720  11.672  16.004  0.0828  0.0229 -0.0406
   18BOLB   C1C  425  25.154  11.239  16.014  0.1272  0.1562 -0.0026
   18BOLB   C2C  426  25.531  11.124  16.012 -0.0069 -0.0535  0.1686
   18BOLB   C3C  427  25.893  11.267  16.114  0.1175 -0.1517  0.1876
   18BOLB   C4C  428  26.283  11.182  16.222  0.1120  0.3636  0.1474
   18BOLB   C1D  429  25.061  11.555  16.413  0.1952 -0.1838 -0.0613
   18BOLB   C2D  430  25.540  11.524  16.443  0.0236  0.1339 -0.0779
   18BOLB   C3D  431  25.938  11.516  16.526 -0.1329  0.0031 -0.0730
   18BOLB   C4D  432  26.366  11.694  16.569  0.2126 -0.0262  0.2701
   19BOLB   NC1  433   6.916   3.958   5.043 -0.0606  0.1018 -0.0460
   19BOLB   PO1  434   7.041   4.306   4.670  0.0843 -0.0432  0.2825
   19BOLB   GL1  435   7.232   4.382   5.019 -0.0837 -0.1211  0.0531
   19BOLB   GL2  436   7.025   4.476   5.166  0.1394  0.0728  0.3069
   19BOLB   C1A  437   7.565   4.610   5.271 -0.1478 -0.1293  0.0531
   19BOLB   C2A  438   7.879   4.326   5.351  0.0833 -0.0123 -0.1203
   19BOLB   C3A  439   8.391   4.380   5.227  0.2948 -0.0380  0.1502
   19BOLB   C4A  440   8.835   4.615   5.194 -0.1075 -0.0276  0.0393
   19BOLB   C1B  441   7.057   4.716   5.509  0.0254 -0.0938 -0.0656
   19BOLB   C2B  442   6.686   4.962   5.510 -0.1207  0.0135  0.0241
   19BOLB   C3B  443   6.397   5.073   5.786  0.0308  0.0447  0.3273
   19BOLB   C4B  444   6.106   5.194   6.059 -0.1630  0.2089  0.1135
   19BOLB   NC2  445   8.095   4.641   4.080  0.6703  0.4225  0.4580
   19BOLB   PO2  446   7.989   5.070   3.848 -0.1326  0.3432 -0.0143
   19BOLB   GL3  447   8.399   5.090   4.015  0.0752 -0.5107  0.1851
   19BOLB   GL4  448   8.603   5.276   3.826 -0.0884 -0.0604 -0.1248
   19BOLB   C1C  449   8.756   5.045   4.317 -0.0565  0.2946  0.1057
   19BOLB   C2C  450   8.812   5.055   4.795  0.1984  0.1079  0.0637
   19BOLB   C3C  451   9.169   5.007   5.023 -0.1356  0.0507 -0.2641
   19BOLB   C4C  452   9.211   4.819   5.288 -0.2357 -0.2862  0.1139
   19BOLB   C1D  453   8.899   5.361   3.973  0.0078 -0.1716  0.2510
   19BOLB   C2D  454   9.146   5.418   4.326  0.2795  0.1642  0.0565
   19BOLB   C3D  455   9.587   5.527   4.453 -0.0047 -0.2924  0.1641
   19BOLB   C4D  456   9.988   5.654   4.742 -0.0339 -0.0491  0.0902
   20BOLB   NC1  457  17.601  16.279  21.156 -0.2218 -0.3077 -0.1503
   20BOLB   PO1  458  17.603  16.603  20.882  0.2387 -0.0095  0.2766
   20BOLB   GL1  459  17.623  17.052  21.104  0.1055 -0.2517 -0.2592
   20BOLB   GL2  460  17.611  17.376  21.116  0.0434  0.3851  0.0135
   20BOLB   C1A  461  18.016  17.194  21.334  0.2678  0.0868  0.1670
   20BOLB   C2A  462  18.260  17.489  21.331 -0.0011 -0.2291 -0.0179
   20BOLB   C3A  463  18.557  17.779  21.636  0.0223 -0.1725  0.0487
   20BOLB   C4A  464  18.772  17.960  21.980  0.1149 -0.2405 -0.0293
   20BOLB   C1B  465  17.583  17.707  21.397 -0.3199 -0.0385  0.3691
   20BOLB   C2B  466  17.728  18.116  21.495 -0.2693 -0.2066  0.2433
   20BOLB   C3B  467  17.744  18.566  21.634 -0.6745 -0.1667  0.2875
   20BOLB   C4B  468  17.889  18.996  21.885  0.5869  0.1871 -0.3077
   20BOLB   NC2  469  19.487  19.902  23.277 -0.0872 -0.0791 -0.1961
   20BOLB   PO2  470  19.393  19.633  23.580  0.0819 -0.2385  0.3340
   20BOLB   GL3  471  19.276  19.376  23.254  0.0270 -0.4079  0.1922
   20BOLB   GL4  472  19.024  19.569  23.097 -0.2688 -0.1247  0.1352
   20BOLB   C1C  473  19.301  19.028  22.973  0.0047 -0.3137  0.0804
   20BOLB   C2C  474  19.022  18.823  22.618 -0.0397  0.1170  0.1451
   20BOLB   C3C  475  18.688  18.702  22.243 -0.0975 -0.3140  0.1087
   20BOLB   C4C  476  18.735  18.450  21.938  0.0248  0.1262 -0.2300
   20BOLB   C1D  477  18.903  19.282  22.742  0.0202 -0.2775 -0.1236
   20BOLB   C2D  478  18.579  19.059  22.607  0.2234 -0.2877 -0.3104
   20BOLB   C3D  479  18.255  18.934  22.468 -0.1228  0.1234  0.0447
   20BOLB   C4D  480  17.846  19.050  22.433 -0.2067  0.2743 -0.0778
   21BOLB   NC1  481  13.077   2.303  16.417  0.1231 -0.2447 -0.2953
   21BOLB   PO1  482  12.833   1.973  16.519  0.1745 -0.1191  0.3651
   21BOLB   GL1  483  12.709   1.550  16.414 -0.0810 -0.2306 -0.3850
   21BOLB   GL2  484  12.876   1.270  16.354 -0.0663 -0.3093 -0.0913
   21BOLB   C1A  485  12.436   1.257  16.481  0.0851 -0.0968  0.3081
   21BOLB   C2A  486  12.462   0.851  16.708  0.0258  0.0597 -0.1314
   21BOLB   C3A  487  12.529   0.455  16.899  0.5045  0.2923  0.0360
   21BOLB   C4A  488  12.359   0.187  17.304 -0.3421  0.1654  0.0199
   21BOLB   C1B  489  12.584   0.911  16.223 -0.1423 -0.0206  0.2343
   21BOLB   C2B  490  12.111   0.967  16.151  0.0955  0.2287  0.3302
   21BOLB   C3B  491  11.876   1.299  15.975 -0.0147  0.0770 -0.2172
   21BOLB   C4B  492  11.617   1.677  15.949 -0.0692  0.3368 -0.1134
   21BOLB   NC2  493  11.846  -1.945  18.313  0.1234 -0.1612  0.0450
   21BOLB   PO2  494  11.859  -1.740  18.757 -0.0992  0.0197 -0.1385
   21BOLB   GL3  495  11.986  -1.491  18.456  0.0898 -0.2281 -0.1177
   21BOLB   GL4  496  11.848  -1.240  18.529  0.3320 -0.0468 -0.1598
   21BOLB   C1C  497  12.278  -1.321  18.208  0.1450  0.2125  0.0227
   21BOLB   C2C  498  12.278  -0.954  17.946  0.2673 -0.0093 -0.0857
   21BOLB   C3C  499  12.163  -0.592  17.670  0.1617  0.0969  0.3613
   21BOLB   C4C  500  12.234  -0.028  17.555  0.1199 -0.0244 -0.0394
   21BOLB   C1D  501  12.184  -0.919  18.508  0.0923  0.5206  0.0642
   21BOLB   C2D  502  12.421  -0.604  18.353 -0.1367  0.2146 -0.3464
   21BOLB   C3D  503  12.665  -0.389  18.129  0.0553  0.0480  0.1253
   21BOLB   C4D  504  13.055  -0.439  17.886  0.0227  0.1015  0.3343
   22BOLB   NC1  505   4.108   1.786  18.379 -0.4999 -0.2093 -0.0025
   22BOLB   PO1  506   3.867   1.429  18.111  0.0670 -0.2637 -0.3037
   22BOLB   GL1  507   4.192   1.564  17.967  0.1613  0.3054 -0.0437
   22BOLB   GL2  508   4.568   1.516  18.083 -0.2954 -0.2417 -0.0692
   22BOLB   C1A  509   4.300   1.832  17.728  0.0769  0.2845  0.0516
   22BOLB   C2A  510   4.654   1.967  17.756  0.1759 -0.1081  0.2299
   22BOLB   C3A  511   4.884   2.324  17.698 -0.0609 -0.1500 -0.3025
   22BOLB   C4A  512   5.126   2.627  17.830 -0.0610  0.0687  0.0444
   22BOLB   C1B  513   4.629   1.510  17.527 -0.1375  0.0693  0.0261
   22BOLB   C2B  514   4.795   1.635  17.109 -0.0469 -0.1120 -0.0759
   22BOLB   C3B  515   4.618   1.949  16.805 -0.0955  0.1785  0.0966
   22BOLB   C4B  516   4.314   2.325  16.812  0.0975  0.1399 -0.2493
   22BOLB   NC2  517   3.675   4.249  18.977  0.0965 -0.0707 -0.1425
   22BOLB   PO2  518   3.345   4.028  18.752 -0.0597 -0.0845  0.2185
   22BOLB   GL3  519   3.632   3.874  18.478  0.1602 -0.1002  0.1176
   22BOLB   GL4  520   3.882   4.020  18.302 -0.0385 -0.0634 -0.0318
   22BOLB   C1C  521   4.061   3.566  18.452 -0.2362  0.0203 -0.0795
   22BOLB   C2C  522   4.297   3.165  18.485  0.0593  0.1542 -0.2659
   22BOLB   C3C  523   4.716   2.952  18.328 -0.1269 -0.4266  0.1931
   22BOLB   C4C  524   5.012   2.909  18.073  0.2508 -0.0759 -0.1559
   22BOLB   C1D  525   3.843   3.555  18.034 -0.0539  0.3549  0.0219
   22BOLB   C2D  526   3.896   3.417  17.591  0.2852 -0.0448 -0.0802
   22BOLB   C3D  527   4.299   3.267  17.396  0.0467 -0.0857 -0.2724
   22BOLB   C4D  528   4.767   3.239  17.257  0.2277 -0.0094  0.0242
   23BOLB   NC1  529  14.913  23.155  16.872  0.0404 -0.0626  0.1737
   23BOLB   PO1  530  14.947  22.938  17.288  0.0995  0.2681  0.0523
   23BOLB   GL1  531  14.805  22.502  17.221 -0.1938  0.0297  0.2476
   23BOLB   GL2  532  14.568  22.543  17.020 -0.1342  0.0731  0.0637
   23BOLB   C1A  533  14.867  22.066  17.230  0.5573  0.1076  0.0592
   23BOLB   C2A  534  14.730  21.627  17.368 -0.1594 -0.0457  0.3468
   23BOLB   C3A  535  14.526  21.213  17.446  0.0447 -0.0528  0.3466
   23BOLB   C4A  536  14.152  20.937  17.324 -0.0823 -0.2531  0.3807
   23BOLB   C1B  537  14.365  22.164  17.143  0.0522 -0.3220  0.1084
   23BOLB   C2B  538  14.316  21.923  17.519  0.0619  0.1322 -0.2008
   23BOLB   C3B  539  14.363  21.542  17.758  0.0536  0.0372 -0.6745
   23BOLB   C4B  540  14.010  21.260  17.713 -0.0096 -0.1569 -0.0296
   23BOLB   NC2  541  12.423  22.175  16.802  0.0075 -0.1767  0.5357
   23BOLB   PO2  542  12.839  22.349  16.660 -0.0409 -0.1870 -0.1459
   23BOLB   GL3  543  12.844  21.934  16.533  0.0181  0.5116 -0.1736
   23BOLB   GL4  544  12.562  21.764  16.417  0.0470 -0.2787 -0.1887
   23BOLB   C1C  545  13.154  21.630  16.333 -0.0247  0.0126 -0.2335
   23BOLB   C2C  546  13.473  21.321  16.460  0.0275  0.1295  0.2079
   23BOLB   C3C  547  13.688  20.902  16.506  0.0654 -0.1560  0.1246
   23BOLB   C4C  548  13.956  20.738  16.871 -0.0054 -0.1762 -0.1378
   23BOLB   C1D  549  12.609  21.401  16.042  0.1563 -0.4493  0.5258
   23BOLB   C2D  550  12.760  20.994  15.893  0.0146 -0.3619  0.3247
   23BOLB   C3D  551  13.132  20.771  15.890 -0.1297  0.1864 -0.0580
   23BOLB   C4D  552  13.486  20.538  15.563 -0.2573  0.0688 -0.2790
   24BOLB   NC1  553  13.217  13.819   3.540  0.1757  0.0651  0.1602
   24BOLB   PO1  554  13.439  13.847   3.814  0.0389  0.4093  0.0953
   24BOLB   GL1  555  13.457  13.504   4.041  0.2892 -0.0594  0.1735
   24BOLB   GL2  556  13.641  13.454   4.272 -0.6139  0.2892  0.0365
   24BOLB   C1A  557  13.144  13.312   4.267 -0.0367  0.0010 -0.0596
   24BOLB   C2A  558  13.173  12.877   4.249 -0.1585  0.2683 -0.0252
   24BOLB   C3A  559  13.134  12.504   4.328 -0.3091  0.0559  0.1116
   24BOLB   C4A  560  13.231  12.023   4.180 -0.1997 -0.0176 -0.0610
   24BOLB   C1B  561  13.578  13.165   4.557  0.1276  0.2679 -0.2970
   24BOLB   C2B  562  13.368  12.833   4.696  0.0802  0.0836  0.2297
   24BOLB   C3B  563  12.985  12.694   4.745 -0.2378 -0.1473 -0.2722
   24BOLB   C4B  564  12.677  12.948   4.535 -0.1969 -0.0041  0.1520
   24BOLB   NC2  565  13.708  11.318   2.085  0.2588  0.4722  0.0224
   24BOLB   PO2  566  14.067  11.533   2.373  0.2298  0.0247 -0.4693
   24BOLB   GL3  567  13.794  11.307   2.665 -0.1289 -0.2545 -0.0730
   24BOLB   GL4  568  13.601  10.976   2.519 -0.1213 -0.1855  0.0319
   24BOLB   C1C  569  13.698  11.461   2.985 -0.1926 -0.1222 -0.0585
   24BOLB   C2C  570  13.482  11.225   3.294  0.1973 -0.4173  0.0302
   24BOLB   C3C  571  13.290  11.336   3.681 -0.2147  0.1616 -0.2508
   24BOLB   C4C  572  13.224  11.608   3.979  0.0890 -0.2313 -0.0891
   24BOLB   C1D  573  13.244  10.932   2.512  0.1771  0.0310 -0.3375
   24BOLB   C2D  574  12.911  11.211   2.464 -0.3085  0.2345 -0.2085
   24BOLB   C3D  575  12.619  11.171   2.754 -0.0759 -0.0484 -0.0555
   24BOLB   C4D  576  12.282  11.076   2.625  0.2745  0.2682  0.2004
   25BOLB   NC1  577  21.978  21.062  14.221 -0.0976  0.0404 -0.2808
   25BOLB   PO1  578  21.918  20.846  13.905 -0.0013 -0.0199 -0.2261
   25BOLB   GL1  579  21.717  20.406  14.083 -0.2879  0.0420  0.1511
   25BOLB   GL2  580  21.908  20.158  13.854  0.0741 -0.2148  0.3487
   25BOLB   C1A  581  21.327  20.118  14.201  0.2464 -0.0952 -0.0715
   25BOLB   C2A  582  21.032  20.035  14.456  0.3068  0.0992  0.0166
   25BOLB   C3A  583  20.945  19.660  14.242  0.0315  0.0330  0.3535
   25BOLB   C4A  584  20.865  19.289  13.933 -0.0111  0.1619 -0.0576
   25BOLB   C1B  585  21.433  20.229  13.698  0.0698  0.1150  0.1369
   25BOLB   C2B  586  21.076  20.268  13.793  0.1300  0.4953 -0.2404
   25BOLB   C3B  587  20.794  19.970  13.771 -0.2615  0.0786  0.0638
   25BOLB   C4B  588  20.585  19.607  13.678  0.1402 -0.0725  0.0512
   25BOLB   NC2  589  21.692  20.887  12.604  0.0044  0.0661 -0.1956
   25BOLB   PO2  590  21.467  20.609  12.418  0.1218 -0.0835  0.0122
   25BOLB   GL3  591  21.218  20.235  12.440  0.1588  0.1846 -0.1528
   25BOLB   GL4  592  21.425  20.095  12.573  0.0336 -0.2158  0.1593
   25BOLB   C1C  593  20.970  19.871  12.606  0.0325  0.0920 -0.1455
   25BOLB   C2C  594  21.046  19.556  12.945 -0.1582  0.0132  0.1501
   25BOLB   C3C  595  21.117  19.292  13.180 -0.0178  0.1631  0.0082
   25BOLB   C4C  596  20.897  19.173  13.513  0.0199  0.3275  0.1418
   25BOLB   C1D  597  21.208  20.097  12.973  0.2095  0.0185 -0.0260
   25BOLB   C2D  598  21.137  19.927  13.380  0.0115  0.1137 -0.2951
   25BOLB   C3D  599  21.141  19.590  13.655  0.3762  0.1485  0.0682
   25BOLB   C4D  600  21.380  19.384  13.982  0.0608  0.3350 -0.2733
   26BOLB   NC1  601   8.523  11.404   2.423  0.2088 -0.1971  0.1662
   26BOLB   PO1  602   8.192  11.483   2.676  0.2393  0.2172 -0.0632
   26BOLB   GL1  603   8.370  11.205   2.967  0.2739 -0.0443  0.1415
   26BOLB   GL2  604   8.595  11.329   3.038  0.0064 -0.1821  0.0851
   26BOLB   C1A  605   8.494  10.743   3.002 -0.2178  0.1712  0.1680
   26BOLB   C2A  606   8.505  10.351   3.192 -0.4899 -0.1109 -0.3065
   26BOLB   C3A  607   8.561   9.855   3.123  0.0906 -0.0984  0.1404
   26BOLB   C4A  608   8.560   9.540   3.509  0.0983  0.1993 -0.1175
   26BOLB   C1B  609   8.863  11.126   3.370  0.1345  0.1963 -0.2507
   26BOLB   C2B  610   8.825  10.947   3.836  0.0155  0.0060  0.1926
   26BOLB   C3B  611   8.573  11.041   4.190 -0.2164  0.1304  0.2398
   26BOLB   C4B  612   8.484  10.732   4.588  0.0184  0.2632 -0.1235
   26BOLB   NC2  613   8.618   7.589   1.852  0.1460 -0.1422  0.4450
   26BOLB   PO2  614   8.595   7.230   2.224  0.0173 -0.0908  0.1139
   26BOLB   GL3  615   8.629   7.380   2.604 -0.1549 -0.0174 -0.1937
   26BOLB   GL4  616   8.683   7.235   2.853  0.0546 -0.3514 -0.1309
   26BOLB   C1C  617   8.648   7.689   3.029 -0.4375  0.0494 -0.1723
   26BOLB   C2C  618   8.806   8.183   3.225  0.2183 -0.2389 -0.1741
   26BOLB   C3C  619   8.612   8.623   3.449 -0.0924  0.0118  0.0238
   26BOLB   C4C  620   8.454   9.092   3.498  0.0319 -0.1013  0.1034
   26BOLB   C1D  621   9.014   7.305   2.998  0.0103  0.0096 -0.2465
   26BOLB   C2D  622   9.216   7.364   3.451 -0.0844  0.1429 -0.4526
   26BOLB   C3D  623   9.564   7.614   3.558  0.0412 -0.0871  0.0442
   26BOLB   C4D  624   9.572   7.994   3.734 -0.0268  0.2782 -0.2092
   27BOLB   NC1  625  23.582  13.697   7.343 -0.0747  0.0424  0.0403
   27BOLB   PO1  626  23.458  14.173   7.240 -0.1419  0.3789 -0.2099
   27BOLB   GL1  627  23.169  14.038   7.490 -0.1138 -0.0694  0.0524
   27BOLB   GL2  628  23.082  13.787   7.445  0.3804  0.0867 -0.1936
   27BOLB   C1A  629  22.692  14.181   7.632  0.0639  0.1215  0.0783
   27BOLB   C2A  630  22.504  14.212   7.987  0.4189  0.2214 -0.0305
   27BOLB   C3A  631  22.243  14.450   8.260  0.1047  0.2086 -0.3100
   27BOLB   C4A  632  22.159  14.480   8.666 -0.1836  0.0164 -0.0819
   27BOLB   C1B  633  22.760  13.722   7.854 -0.1324  0.2818 -0.4760
   27BOLB   C2B  634  22.623  13.331   8.087 -0.1761  0.3537 -0.0610
   27BOLB   C3B  635  22.657  13.238   8.486 -0.0015  0.1388  0.0068
   27BOLB   C4B  636  22.614  12.882   8.698 -0.1088  0.1534 -0.1103
   27BOLB   NC2  637  23.274  15.939   7.907 -0.4375 -0.0169 -0.0260
   27BOLB   PO2  638  23.032  16.157   8.101 -0.1487  0.2369 -0.0151
   27BOLB   GL3  639  22.957  16.033   8.503  0.0110  0.2223 -0.1038
   27BOLB   GL4  640  22.883  16.282   8.758  0.0181 -0.2870  0.0278
   27BOLB   C1C  641  22.769  15.760   8.922  0.2188  0.1937 -0.2631
   27BOLB   C2C  642  22.539  15.369   9.133  0.0267  0.2884  0.3818
   27BOLB   C3C  643  22.238  15.013   9.172  0.1624  0.0532  0.2906
   27BOLB   C4C  644  22.067  14.785   8.916  0.4711  0.0617 -0.2091
   27BOLB   C1D  645  22.482  16.144   8.766 -0.0068  0.0391 -0.2479
   27BOLB   C2D  646  22.069  16.188   8.683 -0.0954 -0.0955  0.2174
   27BOLB   C3D  647  21.710  16.554   8.580 -0.3645 -0.1318  0.0522
   27BOLB   C4D  648  21.288  16.533   8.469  0.0285  0.0556 -0.1702
   28BOLB   NC1  649  21.139  20.733  12.095  0.2443 -0.0098  0.3349
   28BOLB   PO1  650  20.798  20.490  11.865  0.0894 -0.2371  0.0625
   28BOLB   GL1  651  20.814  20.034  11.778  0.2194 -0.1028  0.0006
   28BOLB   GL2  652  21.155  19.950  11.563  0.0928  0.1244  0.2194
   28BOLB   C1A  653  20.889  19.592  11.840 -0.1678  0.1064  0.0276
   28BOLB   C2A  654  20.923  19.131  11.603  0.0808  0.2139 -0.2593
   28BOLB   C3A  655  20.711  18.660  11.264 -0.3214 -0.4177 -0.2231
   28BOLB   C4A  656  20.609  18.185  11.083 -0.3044  0.1626 -0.1197
   28BOLB   C1B  657  21.077  19.553  11.365 -0.1623  0.1514 -0.0320
   28BOLB   C2B  658  21.082  19.266  11.078  0.0431  0.1263 -0.1848
   28BOLB   C3B  659  20.690  19.029  10.853 -0.0378 -0.2565 -0.0770
   28BOLB   C4B  660  20.663  18.597  10.789 -0.0184 -0.0733 -0.1904
   28BOLB   NC2  661  21.915  19.303  10.198 -0.1068 -0.0458 -0.0749
   28BOLB   PO2  662  21.622  19.497   9.965  0.1521  0.1144  0.0243
   28BOLB   GL3  663  21.344  19.096  10.091 -0.0806 -0.0595 -0.3674
   28BOLB   GL4  664  21.258  18.953   9.760 -0.0907 -0.2902 -0.3965
   28BOLB   C1C  665  20.940  18.854  10.104  0.2474 -0.0801  0.0140
   28BOLB   C2C  666  20.497  18.621  10.124 -0.3184 -0.2951 -0.2987
   28BOLB   C3C  667  20.343  18.345  10.436  0.0198 -0.2278  0.1624
   28BOLB   C4C  668  20.367  18.140  10.844  0.2730 -0.0573  0.1678
   28BOLB   C1D  669  21.380  18.607  10.041  0.0190 -0.3812  0.2728
   28BOLB   C2D  670  21.305  18.153  10.237  0.1319 -0.0826 -0.0186
   28BOLB   C3D  671  21.282  17.861  10.566 -0.1330 -0.3110 -0.0013
   28BOLB   C4D  672  20.973  17.531  10.579  0.2196 -0.0222  0.0410
   29BOLB   NC1  673  21.600  12.865  21.089 -0.0936  0.2020 -0.0118
   29BOLB   PO1  674  21.914  13.165  21.145 -0.0681 -0.0166 -0.1468
   29BOLB   GL1  675  22.250  13.166  21.398 -0.1786  0.1116  0.1265
   29BOLB   GL2  676  22.438  13.108  21.235  0.0656  0.1229  0.0774
   29BOLB   C1A  677  22.438  13.391  21.676  0.0206 -0.2788 -0.1614
   29BOLB   C2A  678  22.362  13.767  21.866  0.0112 -0.0887  0.1178
   29BOLB   C3A  679  22.633  14.092  22.097 -0.0291 -0.0487  0.1108
   29BOLB   C4A  680  22.901  14.118  22.449  0.0214 -0.0990 -0.0979
   29BOLB   C1B  681  22.787  13.271  21.356 -0.1076  0.3516  0.2880
   29BOLB   C2B  682  23.203  13.412  21.440 -0.1271  0.0773  0.0498
   29BOLB   C3B  683  23.676  13.501  21.444  0.3498  0.1978 -0.0758
   29BOLB   C4B  684  23.909  13.798  21.560 -0.0682 -0.0582 -0.2074
   29BOLB   NC2  685  23.827  15.845  23.946 -0.2392 -0.1863  0.0756
   29BOLB   PO2  686  23.817  16.024  23.504 -0.1028 -0.2634 -0.0128
   29BOLB   GL3  687  23.513  15.718  23.538  0.3680  0.2885 -0.3895
   29BOLB   GL4  688  23.211  15.810  23.548 -0.1329 -0.0308 -0.0131
   29BOLB   C1C  689  23.537  15.332  23.406  0.1248  0.1852 -0.3390
   29BOLB   C2C  690  23.302  15.086  23.122  0.0658  0.3229 -0.0917
   29BOLB   C3C  691  23.206  14.738  22.973  0.0652 -0.1771  0.1789
   29BOLB   C4C  692  22.943  14.381  22.757 -0.2220  0.1484  0.0175
   29BOLB   C1D  693  23.008  15.497  23.248 -0.3886 -0.5413  0.0262
   29BOLB   C2D  694  22.816  15.356  22.858 -0.0414  0.0272  0.1909
   29BOLB   C3D  695  22.905  15.383  22.474  0.2812  0.5173 -0.0345
   29BOLB   C4D  696  23.216  15.324  22.201 -0.0757 -0.2270  0.1281
   30BOLB   NC1  697   6.193  33.947  14.640 -0.1234  0.0271  0.0920
   30BOLB   PO1  698   6.516  33.677  14.744 -0.4484 -0.0225 -0.0078
   30BOLB   GL1  699   6.600  34.152  14.762 -0.2006  0.0030  0.0617
   30BOLB   GL2  700   6.984  34.115  14.887 -0.2474  0.1254  0.1012
   30BOLB   C1A  701   6.587  34.332  15.154  0.0482  0.1001  0.1821
   30BOLB   C2A  702   6.807  34.531  15.428  0.3024 -0.3096  0.0649
   30BOLB   C3A  703   7.233  34.694  15.574 -0.1836 -0.0994  0.0619
   30BOLB   C4A  704   7.358  35.233  15.663  0.4496 -0.0594 -0.0927
   30BOLB   C1B  705   7.077  34.516  14.937  0.1802 -0.2096  0.0443
   30BOLB   C2B  706   7.419  34.659  15.115 -0.3395  0.0695  0.0413
   30BOLB   C3B  707   7.832  34.685  14.971 -0.0308  0.0083 -0.1510
   30BOLB   C4B  708   7.931  34.782  14.614  0.4407  0.0023 -0.1893
   30BOLB   NC2  709   7.658  34.317  17.655 -0.0330  0.0551 -0.4340
   30BOLB   PO2  710   7.315  34.539  17.587 -0.4033 -0.0279  0.0699
   30BOLB   GL3  711   7.388  34.780  17.242 -0.0590 -0.2173 -0.2946
   30BOLB   GL4  712   7.207  34.762  17.095 -0.0251  0.0554 -0.1139
   30BOLB   C1C  713   7.602  35.101  17.011  0.1525 -0.0493 -0.2142
   30BOLB   C2C  714   7.783  35.391  16.741  0.1198 -0.1161  0.0644
   30BOLB   C3C  715   7.592  35.541  16.423  0.0806  0.2034 -0.1915
   30BOLB   C4C  716   7.377  35.462  16.006 -0.1057 -0.0328  0.1468
   30BOLB   C1D  717   7.258  35.034  16.675 -0.1236 -0.0943  0.1048
   30BOLB   C2D  718   7.235  35.126  16.291  0.1962  0.0356  0.2191
   30BOLB   C3D  719   7.010  35.083  15.943 -0.2171  0.0310 -0.3852
   30BOLB   C4D  720   6.883  35.094  15.540 -0.0784  0.5262  0.1372
   31BOLB   NC1  721  16.794  18.532  18.865  0.0764 -0.0923  0.2198
   31BOLB   PO1  722  16.664  18.708  18.428 -0.1287  0.0292  0.0410
   31BOLB   GL1  723  16.472  19.096  18.367 -0.0904  0.0901  0.0897
   31BOLB   GL2  724  16.759  19.121  18.242  0.1500 -0.3259  0.0444
   31BOLB   C1A  725  16.517  19.626  18.440 -0.0571 -0.2390  0.0357
   31BOLB   C2A  726  16.679  20.021  18.488  0.1479 -0.1121 -0.0765
   31BOLB   C3A  727  16.498  20.451  18.564  0.3987 -0.1346  0.2969
   31BOLB   C4A  728  16.336  20.839  18.602  0.0622  0.1501 -0.2146
   31BOLB   C1B  729  16.853  19.478  18.111  0.0466 -0.2249  0.2644
   31BOLB   C2B  730  16.995  19.896  18.118  0.1902 -0.0794  0.2679
   31BOLB   C3B  731  17.001  20.269  18.040 -0.1083 -0.0266 -0.2534
   31BOLB   C4B  732  16.802  20.651  18.055 -0.1325 -0.1045 -0.4025
   31BOLB   NC2  733  16.594  22.257  20.047 -0.3073  0.2526 -0.1590
   31BOLB   PO2  734  16.991  22.449  19.943 -0.0232 -0.4420  0.0404
   31BOLB   GL3  735  17.097  22.088  19.770  0.0390 -0.1270 -0.0219
   31BOLB   GL4  736  17.336  21.787  19.839 -0.2863 -0.1369 -0.2137
   31BOLB   C1C  737  16.895  21.678  19.578  0.3411 -0.1213  0.0063
   31BOLB   C2C  738  16.633  21.663  19.149  0.2881 -0.4798 -0.1910
   31BOLB   C3C  739  16.241  21.478  19.024  0.1469  0.2290 -0.3238
   31BOLB   C4C  740  16.090  21.160  18.843  0.0784  0.0575  0.1419
   31BOLB   C1D  741  17.158  21.396  19.792 -0.0807 -0.2389 -0.0852
   31BOLB   C2D  742  17.046  21.151  19.409  0.1084  0.0760  0.3136
   31BOLB   C3D  743  16.978  20.940  19.073  0.2479  0.2741 -0.1885
   31BOLB   C4D  744  17.033  20.907  18.583  0.1390 -0.2231 -0.0543
   32BOLB   NC1  745   7.463  14.634   5.487  0.2802  0.1270  0.2787
   32BOLB   PO1  746   7.828  14.439   5.568 -0.1378  0.4351  0.0293
   32BOLB   GL1  747   7.566  14.079   5.349  0.1509 -0.0156  0.1096
   32BOLB   GL2  748   7.690  13.947   5.048 -0.0473 -0.1411 -0.0018
   32BOLB   C1A  749   7.354  13.742   5.402  0.0884 -0.1639  0.3276
   32BOLB   C2A  750   7.032  13.518   5.603  0.0058  0.1936  0.0490
   32BOLB   C3A  751   7.058  13.166   5.927 -0.0842  0.1471 -0.2005
   32BOLB   C4A  752   7.199  12.808   6.132 -0.0526  0.0525  0.1438
   32BOLB   C1B  753   7.920  13.708   5.454 -0.1420  0.2341 -0.0924
   32BOLB   C2B  754   8.127  13.720   5.805  0.1216 -0.1888  0.1090
   32BOLB   C3B  755   8.382  13.668   6.195 -0.2346 -0.1780 -0.2724
   32BOLB   C4B  756   8.610  13.351   6.377  0.4997 -0.4287  0.1888
   32BOLB   NC2  757   5.315  12.530   5.794  0.1603  0.1990  0.0943
   32BOLB   PO2  758   5.396  12.492   5.397 -0.2491 -0.0805 -0.0288
   32BOLB   GL3  759   5.762  12.277   5.694  0.1810  0.2391 -0.0185
   32BOLB   GL4  760   5.574  12.095   5.950 -0.0206 -0.0631  0.1454
   32BOLB   C1C  761   6.115  12.186   6.033  0.1295  0.0625 -0.2291
   32BOLB   C2C  762   6.574  12.051   6.066  0.0952  0.0143 -0.5609
   32BOLB   C3C  763   7.014  11.994   6.111  0.2863  0.0343  0.1226
   32BOLB   C4C  764   7.235  12.386   6.137 -0.1923 -0.1288 -0.0741
   32BOLB   C1D  765   5.698  11.813   6.284 -0.0057  0.1402  0.2211
   32BOLB   C2D  766   5.681  11.350   6.253  0.1701  0.1577 -0.2409
   32BOLB   C3D  767   5.898  10.953   6.441 -0.0391 -0.0602  0.1388
   32BOLB   C4D  768   5.842  10.510   6.458  0.0072  0.1611  0.1724
   33BOLB   NC1  769   8.580   5.908   2.611 -0.5828  0.0671  0.1317
   33BOLB   PO1  770   8.771   6.382   2.542 -0.2933  0.1505 -0.0603
   33BOLB   GL1  771   9.116   6.516   2.623  0.2279  0.0989 -0.1603
   33BOLB   GL2  772   9.385   6.571   2.441 -0.1655  0.0334 -0.1281
   33BOLB   C1A  773   9.238   6.834   2.858 -0.1607 -0.0578 -0.0769
   33BOLB   C2A  774   9.494   7.162   3.064  0.1573  0.1268 -0.0657
   33BOLB   C3A  775   9.542   7.565   2.932  0.0693  0.1043  0.3027
   33BOLB   C4A  776   9.653   7.994   3.198 -0.2450 -0.3138  0.0965
   33BOLB   C1B  777   9.755   6.829   2.808 -0.0799  0.0295 -0.0660
   33BOLB   C2B  778  10.129   6.759   3.030 -0.1637 -0.2047 -0.3419
   33BOLB   C3B  779  10.399   7.133   3.219 -0.1669  0.1372  0.0039
   33BOLB   C4B  780  10.426   7.483   3.532  0.0613 -0.0531  0.2838
   33BOLB   NC2  781   8.667   9.772   2.305  0.1344 -0.1913  0.0143
   33BOLB   PO2  782   8.543   9.478   1.984 -0.2929  0.1540 -0.0043
   33BOLB   GL3  783   8.488   9.332   2.480  0.2173 -0.0484 -0.0628
   33BOLB   GL4  784   8.577   9.572   2.707 -0.1250  0.2286 -0.0094
   33BOLB   C1C  785   8.749   8.979   2.649 -0.0549 -0.2861  0.1983
   33BOLB   C2C  786   8.961   8.852   3.011  0.0411 -0.0023  0.1491
   33BOLB   C3C  787   9.049   8.619   3.272  0.0816 -0.0677  0.1310
   33BOLB   C4C  788   9.360   8.314   3.130 -0.2001 -0.1791  0.2945
   33BOLB   C1D  789   8.744   9.285   3.049  0.1872  0.1349 -0.0598
   33BOLB   C2D  790   8.918   9.102   3.499 -0.1159 -0.0738  0.3354
   33BOLB   C3D  791   8.938   8.861   3.907 -0.0238 -0.2364 -0.0109
   33BOLB   C4D  792   8.935   9.030   4.352  0.2845  0.1727 -0.1514
   34BOLB   NC1  793  19.928   4.106   3.532  0.1118  0.1437  0.1899
   34BOLB   PO1  794  20.105   3.892   3.949 -0.3358  0.3988 -0.0840
   34BOLB   GL1  795  19.936   3.627   4.358  0.2161  0.0608 -0.0162
   34BOLB   GL2  796  20.083   3.341   4.374 -0.2947  0.0070  0.1286
   34BOLB   C1A  797  19.559   3.698   4.613 -0.1506 -0.0078  0.4379
   34BOLB   C2A  798  19.279   3.334   4.791 -0.1802  0.0567  0.2214
   34BOLB   C3A  799  19.149   2.966   4.933  0.1643 -0.0034  0.1101
   34BOLB   C4A  800  19.118   2.637   5.225  0.1594  0.0828  0.0273
   34BOLB   C1B  801  19.926   3.080   4.689  0.3565  0.2296  0.0908
   34BOLB   C2B  802  19.955   3.066   5.236 -0.0134 -0.0204  0.0075
   34BOLB   C3B  803  20.096   2.946   5.636  0.3983  0.1057  0.2020
   34BOLB   C4B  804  20.377   3.016   5.969 -0.2642 -0.1170 -0.2518
   34BOLB   NC2  805  20.008   2.276   4.713  0.2985 -0.4327 -0.1696
   34BOLB   PO2  806  20.378   2.370   4.870 -0.1109  0.0804 -0.1435
   34BOLB   GL3  807  20.152   2.277   5.202  0.0361  0.2366  0.3117
   34BOLB   GL4  808  20.038   2.591   5.158  0.0051 -0.0741 -0.2279
   34BOLB   C1C  809  19.725   2.119   5.473  0.0971 -0.0005  0.2006
   34BOLB   C2C  810  19.452   1.915   5.734 -0.0162  0.3938 -0.0149
   34BOLB   C3C  811  19.048   2.076   5.679 -0.2338 -0.2253 -0.1501
   34BOLB   C4C  812  18.917   2.371   5.487 -0.0094 -0.0918  0.1218
   34BOLB   C1D  813  19.725   2.611   5.456  0.0793 -0.0502 -0.1379
   34BOLB   C2D  814  19.330   2.552   5.677 -0.2574  0.0149 -0.0715
   34BOLB   C3D  815  19.075   2.828   5.771 -0.0366  0.1197 -0.0389
   34BOLB   C4D  816  18.953   3.202   5.895  0.1096 -0.0689  0.2234
   35BOLB   NC1  817  22.576   8.722  20.735 -0.1356 -0.1716 -0.1697
   35BOLB   PO1  818  22.770   8.600  21.205  0.2095  0.0790 -0.0753
   35BOLB   GL1  819  23.105   8.496  21.408 -0.2854  0.0888 -0.2480
   35BOLB   GL2  820  22.980   8.217  21.630  0.0558  0.1274 -0.1055
   35BOLB   C1A  821  23.549   8.431  21.398 -0.0343 -0.0611  0.1660
   35BOLB   C2A  822  23.870   8.742  21.680  0.4912 -0.1623 -0.1824
   35BOLB   C3A  823  24.192   8.769  22.008 -0.0012  0.0879  0.2700
   35BOLB   C4A  824  24.557   8.983  22.082  0.0276 -0.0632  0.2479
   35BOLB   C1B  825  23.251   7.992  21.685 -0.0930  0.2288 -0.0980
   35BOLB   C2B  826  23.545   7.913  21.856  0.1955  0.1168 -0.2382
   35BOLB   C3B  827  23.816   7.767  22.214 -0.1295  0.1710 -0.0567
   35BOLB   C4B  828  23.983   7.862  22.606 -0.1899 -0.2231 -0.1193
   35BOLB   NC2  829  26.340   9.452  22.841 -0.2622  0.1287 -0.0804
   35BOLB   PO2  830  26.314   9.946  23.068 -0.0223  0.0267  0.1342
   35BOLB   GL3  831  25.877   9.830  23.110 -0.0387 -0.1470  0.2111
   35BOLB   GL4  832  25.710   9.481  23.152 -0.0505  0.1252  0.0296
   35BOLB   C1C  833  25.659   9.664  22.676 -0.0460 -0.1252 -0.1197
   35BOLB   C2C  834  25.543   9.524  22.267 -0.0262 -0.2318  0.0277
   35BOLB   C3C  835  25.356   9.184  22.156  0.0572  0.1167  0.2227
   35BOLB   C4C  836  24.915   9.141  22.181  0.3125  0.0591 -0.1098
   35BOLB   C1D  837  25.388   9.197  23.156 -0.0010 -0.0308 -0.4153
   35BOLB   C2D  838  25.293   8.827  23.362 -0.1650  0.4092 -0.0522
   35BOLB   C3D  839  24.985   8.482  23.159  0.0994  0.0600  0.2386
   35BOLB   C4D  840  24.593   8.315  23.110 -0.2747  0.1120 -0.0753
   36BOLB   NC1  841  12.629   8.117  21.868  0.1292  0.0484 -0.1564
   36BOLB   PO1  842  12.418   8.398  22.211 -0.0286  0.4205  0.2561
   36BOLB   GL1  843  12.281   8.180  22.574  0.0371  0.0781 -0.2722
   36BOLB   GL2  844  12.307   7.823  22.651 -0.1788 -0.1492  0.0584
   36BOLB   C1A  845  11.920   8.097  22.925  0.0147 -0.3881 -0.0415
   36BOLB   C2A  846  11.805   8.239  23.257 -0.0373 -0.0528  0.2706
   36BOLB   C3A  847  11.549   8.157  23.659 -0.3000  0.0684  0.1473
   36BOLB   C4A  848  11.404   7.877  23.959 -0.0707 -0.0497  0.3386
   36BOLB   C1B  849  12.036   7.629  23.055 -0.2542 -0.1006  0.1784
   36BOLB   C2B  850  11.802   7.309  23.321 -0.1001  0.1797  0.2001
   36BOLB   C3B  851  11.520   7.161  23.639  0.0503 -0.1877 -0.0876
   36BOLB   C4B  852  11.588   6.670  23.773 -0.1588  0.0887 -0.1602
   36BOLB   NC2  853   9.281   6.886  25.260  0.1866  0.1297  0.3036
   36BOLB   PO2  854   9.523   7.300  25.263  0.0575  0.0851  0.1765
   36BOLB   GL3  855   9.793   7.306  24.947 -0.4072  0.0967  0.1957
   36BOLB   GL4  856   9.591   7.487  24.696  0.2075 -0.1257 -0.0092
   36BOLB   C1C  857  10.193   7.145  24.618  0.2404 -0.0281 -0.2220
   36BOLB   C2C  858  10.431   7.042  24.225 -0.1807 -0.0215  0.2484
   36BOLB   C3C  859  10.853   6.998  23.952  0.3324 -0.1143 -0.0461
   36BOLB   C4C  860  11.110   7.408  23.994 -0.2728  0.0624 -0.1901
   36BOLB   C1D  861   9.588   7.533  24.254 -0.1033 -0.1040  0.0918
   36BOLB   C2D  862   9.742   7.622  23.745  0.0107 -0.5017  0.1703
   36BOLB   C3D  863   9.845   7.277  23.333 -0.4385 -0.0729 -0.0907
   36BOLB   C4D  864   9.859   6.867  23.205  0.0713 -0.0511 -0.0453
   37BOLB   NC1  865  10.915  21.377  17.963  0.0130 -0.3215 -0.0408
   37BOLB   PO1  866  11.242  21.671  18.007 -0.4161  0.1505  0.2820
   37BOLB   GL1  867  11.407  21.276  17.892  0.0376 -0.1098  0.0666
   37BOLB   GL2  868  11.593  21.324  17.556  0.1961 -0.0304  0.0424
   37BOLB   C1A  869  11.558  20.827  17.602  0.2625 -0.1586  0.1411
   37BOLB   C2A  870  11.791  20.573  17.255  0.0140 -0.0095 -0.2477
   37BOLB   C3A  871  11.810  20.203  16.989 -0.0205  0.0222  0.2778
   37BOLB   C4A  872  11.817  19.825  16.712  0.1084 -0.3043  0.0041
   37BOLB   C1B  873  11.985  21.031  17.604 -0.1252 -0.2298  0.2809
   37BOLB   C2B  874  12.270  20.741  17.334  0.0370  0.1207  0.2318
   37BOLB   C3B  875  12.236  20.385  17.117  0.1409 -0.2589  0.3175
   37BOLB   C4B  876  12.331  20.013  17.153  0.0883  0.2799 -0.0891
   37BOLB   NC2  877  10.338  21.945  16.173  0.0869  0.2315 -0.0558
   37BOLB   PO2  878  10.682  21.672  16.220 -0.1071  0.1777  0.1638
   37BOLB   GL3  879  10.667  21.236  16.230 -0.2561 -0.0300  0.0272
   37BOLB   GL4  880  10.495  21.052  16.412 -0.1986 -0.0424  0.3160
   37BOLB   C1C  881  10.901  20.834  16.183 -0.1886  0.1249 -0.3816
   37BOLB   C2C  882  11.035  20.484  16.003 -0.1326 -0.0228 -0.1873
   37BOLB   C3C  883  11.360  20.163  15.994 -0.0784 -0.0032 -0.0658
   37BOLB   C4C  884  11.687  19.965  16.281  0.2532  0.0287  0.0369
   37BOLB   C1D  885  10.763  21.044  16.715  0.0936 -0.0080 -0.0191
   37BOLB   C2D  886  11.177  20.958  16.624  0.1804 -0.0401  0.1075
   37BOLB   C3D  887  11.357  20.803  16.363  0.1350  0.0156  0.4104
   37BOLB   C4D  888  11.389  20.983  15.956  0.2389  0.0151 -0.2308
   38BOLB   NC1  889  20.539  11.155  27.912  0.2055  0.3536  0.2065
   38BOLB   PO1  890  20.270  11.178  27.594  0.2598  0.0010 -0.0915
   38BOLB   GL1  891  20.330  11.336  27.154 -0.0445 -0.1880  0.2560
   38BOLB   GL2  892  20.098  11.240  26.894 -0.0588 -0.2470 -0.0281
   38BOLB   C1A  893  20.569  11.629  26.987  0.3746 -0.1574  0.2087
   38BOLB   C2A  894  20.975  11.775  26.742 -0.0233 -0.2492 -0.1110
   38BOLB   C3A  895  21.386  11.717  26.480  0.0423  0.0741  0.2533
   38BOLB   C4A  896  21.463  11.354  26.315 -0.1807 -0.1303  0.1330
   38BOLB   C1B  897  20.314  11.385  26.640 -0.3618 -0.1697 -0.0202
   38BOLB   C2B  898  20.505  11.705  26.418 -0.1624  0.0416  0.3012
   38BOLB   C3B  899  20.479  12.044  26.201 -0.0734 -0.1907 -0.1603
   38BOLB   C4B  900  20.429  12.108  25.680  0.0178 -0.0794 -0.1343
   38BOLB   NC2  901  23.158   9.939  25.772 -0.2798 -0.1033 -0.1466
   38BOLB   PO2  902  23.261  10.347  25.774 -0.0682 -0.0670 -0.0055
   38BOLB   GL3  903  22.950  10.342  25.531 -0.1502  0.0802 -0.0024
   38BOLB   GL4  904  22.686  10.236  25.634 -0.2145 -0.0924 -0.1054
   38BOLB   C1C  905  22.689  10.710  25.435 -0.2922  0.1311 -0.5556
   38BOLB   C2C  906  22.333  10.992  25.571 -0.0070 -0.0596  0.0933
   38BOLB   C3C  907  22.062  10.894  25.805  0.0550  0.1238 -0.0358
   38BOLB   C4C  908  21.675  11.084  26.032 -0.0581  0.1439 -0.0563
   38BOLB   C1D  909  22.711  10.383  25.064 -0.1166 -0.0927 -0.0974
   38BOLB   C2D  910  22.743  10.463  24.611 -0.0207  0.5453  0.0287
   38BOLB   C3D  911  22.634  10.395  24.197  0.1059  0.4136 -0.0098
   38BOLB   C4D  912  22.298  10.093  23.969 -0.1813 -0.2995  0.0347
   39BOLB   NC1  913   1.430  10.260  14.984 -0.0247 -0.2618 -0.2064
   39BOLB   PO1  914   1.686   9.906  14.885 -0.0319  0.0501  0.0123
   39BOLB   GL1  915   1.902   9.568  14.829 -0.0021 -0.2274  0.1165
   39BOLB   GL2  916   2.232   9.755  14.987  0.2460  0.0730  0.0985
   39BOLB   C1A  917   2.353   9.306  14.780 -0.0880 -0.1947 -0.0602
   39BOLB   C2A  918   2.443   8.850  14.933  0.0183  0.0999  0.0672
   39BOLB   C3A  919   2.487   8.510  15.139  0.0487  0.0474  0.0814
   39BOLB   C4A  920   2.683   8.351  15.517 -0.1650 -0.0936 -0.0079
   39BOLB   C1B  921   2.654   9.814  14.941 -0.1214  0.0580  0.1443
   39BOLB   C2B  922   3.100   9.637  14.812 -0.3245  0.4421 -0.3145
   39BOLB   C3B  923   3.252   9.226  14.531 -0.3851  0.1177 -0.1308
   39BOLB   C4B  924   3.240   9.035  14.104  0.0108  0.1739  0.1046
   39BOLB   NC2  925   1.885   7.553  16.889  0.0275 -0.2534 -0.2592
   39BOLB   PO2  926   1.777   7.338  17.371  0.0988  0.1214 -0.1709
   39BOLB   GL3  927   2.153   7.178  17.055  0.0942 -0.1076  0.2169
   39BOLB   GL4  928   2.177   6.879  17.009 -0.0908  0.0659 -0.1304
   39BOLB   C1C  929   2.546   7.528  16.956 -0.1077 -0.3590 -0.2461
   39BOLB   C2C  930   2.681   7.826  16.594  0.3741 -0.2965  0.2309
   39BOLB   C3C  931   2.498   8.030  16.187 -0.1132 -0.0654 -0.0137
   39BOLB   C4C  932   2.463   8.166  15.805 -0.0215  0.0729 -0.3213
   39BOLB   C1D  933   2.162   6.517  16.738  0.1375  0.0147  0.0212
   39BOLB   C2D  934   2.358   6.047  16.769 -0.1205 -0.2829 -0.0668
   39BOLB   C3D  935   2.772   5.892  16.727  0.1404  0.0002 -0.0598
   39BOLB   C4D  936   3.196   5.908  16.846 -0.2052 -0.0713  0.0096
   40BOLB   NC1  937  12.385  13.655   9.621  0.0933 -0.0162  0.4475
   40BOLB   PO1  938  12.015  13.626   9.912  0.3354  0.3612  0.0567
   40BOLB   GL1  939  11.842  13.590   9.470 -0.1755  0.0971 -0.1783
   40BOLB   GL2  940  11.654  13.248   9.340  0.1828  0.1683 -0.0237
   40BOLB   C1A  941  11.671  13.731   9.025  0.1176 -0.0053 -0.1304
   40BOLB   C2A  942  11.600  13.899   8.705 -0.1606 -0.0399 -0.0596
   40BOLB   C3A  943  11.655  14.283   8.310 -0.0404 -0.1961  0.0752
   40BOLB   C4A  944  11.631  14.657   7.984  0.1437  0.3485 -0.1704
   40BOLB   C1B  945  11.549  13.277   8.988 -0.0317 -0.1080 -0.0330
   40BOLB   C2B  946  11.470  13.290   8.535 -0.1759  0.1494 -0.1794
   40BOLB   C3B  947  11.370  13.650   8.278 -0.0186 -0.0899  0.0908
   40BOLB   C4B  948  11.027  13.591   7.887 -0.0783 -0.1113 -0.1517
   40BOLB   NC2  949   9.821  16.148   6.493 -0.0772  0.0106 -0.2460
   40BOLB   PO2  950  10.079  16.038   6.791  0.0403 -0.1387  0.0866
   40BOLB   GL3  951  10.293  15.685   7.122 -0.0598  0.2236  0.2648
   40BOLB   GL4  952  10.326  15.394   6.962  0.3643  0.1253  0.1837
   40BOLB   C1C  953  10.389  15.514   7.456 -0.5962 -0.2447  0.3019
   40BOLB   C2C  954  10.714  15.289   7.679 -0.0520  0.1775 -0.1406
   40BOLB   C3C  955  11.212  15.357   7.765  0.3081  0.2509 -0.1741
   40BOLB   C4C  956  11.590  15.028   7.673 -0.2864  0.2540 -0.1067
   40BOLB   C1D  957  10.759  15.483   7.131 -0.2354  0.1024 -0.2018
   40BOLB   C2D  958  11.003  15.669   7.509  0.0213 -0.1034  0.2669
   40BOLB   C3D  959  11.369  15.847   7.615 -0.5290 -0.5530  0.1127
   40BOLB   C4D  960  11.717  15.503   7.515 -0.2887 -0.0253 -0.0601
   41BOLB   NC1  961  20.672  17.150  16.425  0.1369 -0.0973  0.0740
   41BOLB   PO1  962  21.090  17.196  16.600  0.1333  0.0212 -0.0391
   41BOLB   GL1  963  21.348  17.561  16.611 -0.1245 -0.3120  0.0647
   41BOLB   GL2  964  21.223  17.895  16.850  0.1282 -0.1572 -0.0601
   41BOLB   C1A  965  21.709  17.832  16.604 -0.0238 -0.0254 -0.2803
   41BOLB   C2A  966  21.840  18.329  16.566 -0.1089  0.2308  0.0623
   41BOLB   C3A  967  22.015  18.753  16.467  0.0035  0.0064 -0.0906
   41BOLB   C4A  968  21.656  19.043  16.378 -0.0587  0.1845  0.0428
   41BOLB   C1B  969  21.516  18.232  16.897  0.3043  0.0242  0.3827
   41BOLB   C2B  970  21.587  18.722  16.807 -0.1649  0.1614 -0.4000
   41BOLB   C3B  971  21.890  19.101  16.871  0.1634 -0.0628 -0.3768
   41BOLB   C4B  972  22.421  19.024  16.717  0.1178  0.1140 -0.1808
   41BOLB   NC2  973  23.212  21.251  17.603 -0.1775 -0.2732  0.1393
   41BOLB   PO2  974  22.771  21.198  17.460 -0.0531 -0.0638  0.0512
   41BOLB   GL3  975  22.463  20.832  17.488  0.1950 -0.0040  0.2016
   41BOLB   GL4  976  22.669  20.574  17.437 -0.1710 -0.2320 -0.2172
   41BOLB   C1C  977  22.172  20.508  17.214  0.2074 -0.0327 -0.1767
   41BOLB   C2C  978  21.991  20.242  16.864 -0.0336 -0.1895  0.2605
   41BOLB   C3C  979  21.686  19.925  16.655 -0.2009  0.1686 -0.1263
   41BOLB   C4C  980  21.712  19.440  16.448 -0.1104 -0.1410 -0.2414
   41BOLB   C1D  981  22.737  20.228  17.180 -0.0814 -0.0299 -0.1621
   41BOLB   C2D  982  22.457  20.001  17.061  0.0978 -0.1505 -0.2868
   41BOLB   C3D  983  22.073  19.779  16.910  0.2363  0.1213  0.0813
   41BOLB   C4D  984  21.797  19.491  17.170 -0.2872 -0.2599  0.2054
   42BOLB   NC1  985  14.229  11.083  22.952  0.0055  0.0113 -0.1190
   42BOLB   PO1  986  14.010  11.406  22.711  0.2068 -0.0746 -0.1084
   42BOLB   GL1  987  13.989  11.500  23.190 -0.0043 -0.2993 -0.0829
   42BOLB   GL2  988  13.994  11.226  23.378 -0.0596 -0.2865  0.3552
   42BOLB   C1A  989  13.831  11.652  23.621 -0.1310 -0.2546 -0.2735
   42BOLB   C2A  990  13.594  11.670  23.933  0.0453 -0.2259  0.1637
   42BOLB   C3A  991  13.408  11.467  24.318 -0.0803  0.1542  0.2888
   42BOLB   C4A  992  13.106  11.647  24.600 -0.1849  0.1389  0.4943
   42BOLB   C1B  993  13.813  11.106  23.673  0.0989 -0.5393  0.1500
   42BOLB   C2B  994  13.468  10.930  23.992  0.0397 -0.0438 -0.4274
   42BOLB   C3B  995  13.158  10.881  24.302  0.1434 -0.2333 -0.0761
   42BOLB   C4B  996  13.112  10.610  24.538  0.2108  0.0573 -0.1673
   42BOLB   NC2  997  11.804  12.386  26.725 -0.2851 -0.0769 -0.4221
   42BOLB   PO2  998  12.098  11.968  26.894  0.0801 -0.2277 -0.0826
   42BOLB   GL3  999  12.307  12.041  26.504 -0.1310  0.3083 -0.0321
   42BOLB   GL4 1000  12.099  12.257  26.385 -0.2577 -0.2835  0.0219
   42BOLB   C1C 1001  12.534  12.127  26.041 -0.3398  0.2028  0.0387
   42BOLB   C2C 1002  12.524  12.268  25.636 -0.0730 -0.0366  0.2062
   42BOLB   C3C 1003  12.773  12.227  25.279 -0.4992  0.4469 -0.1513
   42BOLB   C4C 1004  12.916  11.946  24.916  0.1679 -0.0112 -0.1598
   42BOLB   C1D 1005  12.069  12.036  26.043  0.1912  0.1417  0.0180
   42BOLB   C2D 1006  12.215  11.829  25.716  0.1831 -0.3231 -0.0125
   42BOLB   C3D 1007  12.253  12.000  25.285  0.0733  0.1281 -0.0938
   42BOLB   C4D 1008  12.447  12.142  24.890  0.2490 -0.1161 -0.1163
   43BOLB   NC1 1009  18.291   0.557   2.792 -0.1764 -0.0996 -0.1624
   43BOLB   PO1 1010  18.320   0.872   3.047 -0.2729 -0.3234  0.2365
   43BOLB   GL1 1011  18.248   1.118   3.448 -0.1112  0.0789  0.4876
   43BOLB   GL2 1012  18.149   1.461   3.381 -0.0879 -0.1464 -0.0576
   43BOLB   C1A 1013  18.191   1.013   3.940 -0.0779  0.0464  0.2546
   43BOLB   C2A 1014  18.249   0.997   4.384 -0.0425 -0.1470  0.1211
   43BOLB   C3A 1015  18.307   1.062   4.865  0.0100  0.1794 -0.1608
   43BOLB   C4A 1016  18.292   0.842   5.260  0.2977 -0.1685  0.1424
   43BOLB   C1B 1017  17.736   1.318   3.619  0.1155 -0.3930 -0.4009
   43BOLB   C2B 1018  17.402   1.306   3.882 -0.0079  0.1228  0.0906
   43BOLB   C3B 1019  16.994   1.567   3.864  0.3532  0.0622  0.0350
   43BOLB   C4B 1020  16.686   1.708   3.446  0.3310 -0.1447  0.1048
   43BOLB   NC2 1021  19.463  -0.559   6.762  0.3005 -0.0509 -0.1112
   43BOLB   PO2 1022  19.081  -0.877   6.703 -0.1191 -0.1215 -0.0882
   43BOLB   GL3 1023  18.820  -0.660   6.711 -0.0827 -0.0926 -0.2259
   43BOLB   GL4 1024  18.979  -0.338   6.578 -0.1943  0.1605 -0.3680
   43BOLB   C1C 1025  18.446  -0.449   6.428  0.0940 -0.0170 -0.0874
   43BOLB   C2C 1026  18.243  -0.155   6.273  0.0189 -0.1604 -0.1486
   43BOLB   C3C 1027  18.272   0.263   6.032 -0.0148 -0.1987 -0.0526
   43BOLB   C4C 1028  18.257   0.589   5.666 -0.3959 -0.0363 -0.1596
   43BOLB   C1D 1029  18.755  -0.083   6.869 -0.2066 -0.0949  0.4101
   43BOLB   C2D 1030  18.636   0.384   6.996 -0.0195 -0.1067 -0.1603
   43BOLB   C3D 1031  18.715   0.710   6.915  0.0296 -0.2335  0.0535
   43BOLB   C4D 1032  19.004   1.130   6.787  0.3845 -0.1081  0.4165
   44BOLB   NC1 1033  16.931  14.395  23.314  0.0706 -0.3211  0.0799
   44BOLB   PO1 1034  17.009  14.703  23.424 -0.0262  0.1014  0.0607
   44BOLB   GL1 1035  16.919  15.077  23.561 -0.1059 -0.0836 -0.1021
   44BOLB   GL2 1036  17.225  15.192  23.403  0.2886 -0.0041 -0.3104
   44BOLB   C1A 1037  16.712  15.412  23.826  0.1991  0.1835 -0.3663
   44BOLB   C2A 1038  16.809  15.511  24.291 -0.1107 -0.0503  0.1298
   44BOLB   C3A 1039  16.631  15.529  24.701 -0.1685 -0.0706  0.1097
   44BOLB   C4A 1040  16.538  15.744  25.018 -0.1750  0.0160 -0.0775
   44BOLB   C1B 1041  17.564  15.150  23.777 -0.2305 -0.0741  0.5035
   44BOLB   C2B 1042  17.751  15.431  24.034  0.2361 -0.2906 -0.0404
   44BOLB   C3B 1043  18.018  15.653  24.236 -0.0184 -0.4512 -0.0382
   44BOLB   C4B 1044  18.146  16.047  24.460 -0.1799  0.0187 -0.1366
   44BOLB   NC2 1045  17.648  16.951  26.367  0.0402 -0.0952  0.0253
   44BOLB   PO2 1046  18.001  16.835  26.260 -0.3435 -0.0695  0.2400
   44BOLB   GL3 1047  17.752  16.475  26.023  0.1294  0.1414  0.3635
   44BOLB   GL4 1048  17.583  16.793  25.779 -0.2064 -0.1504  0.0247
   44BOLB   C1C 1049  17.384  16.205  26.046  0.1594  0.0920  0.0217
   44BOLB   C2C 1050  16.936  16.088  25.815 -0.2795 -0.1378 -0.0968
   44BOLB   C3C 1051  16.553  16.158  25.569  0.3376 -0.1631 -0.1413
   44BOLB   C4C 1052  16.537  16.219  25.084  0.5405 -0.0665  0.0517
   44BOLB   C1D 1053  17.431  16.462  25.608  0.3715  0.0486 -0.1646
   44BOLB   C2D 1054  17.447  16.161  25.246 -0.3632  0.0241  0.2414
   44BOLB   C3D 1055  17.266  16.003  24.798 -0.0682 -0.1183 -0.0750
   44BOLB   C4D 1056  16.908  15.990  24.725 -0.1920  0.1568 -0.0790
   45BOLB   NC1 1057  24.085   8.542  16.457  0.2627  0.0369 -0.2727
   45BOLB   PO1 1058  24.040   8.305  16.759 -0.2211 -0.2545 -0.1756
   45BOLB   GL1 1059  24.432   8.333  16.982  0.1800 -0.0778 -0.0292
   45BOLB   GL2 1060  24.256   8.209  17.254 -0.0691 -0.0151  0.3027
   45BOLB   C1A 1061  24.867   8.174  16.967 -0.4577  0.2588  0.0038
   45BOLB   C2A 1062  25.083   7.752  16.898 -0.0111 -0.0190  0.1436
   45BOLB   C3A 1063  25.168   7.302  16.889 -0.2006  0.0092 -0.0049
   45BOLB   C4A 1064  25.532   7.039  16.873  0.0068  0.1108  0.1893
   45BOLB   C1B 1065  24.614   8.134  17.455  0.1850  0.2477 -0.0926
   45BOLB   C2B 1066  25.113   8.114  17.541  0.0309 -0.0646 -0.0715
   45BOLB   C3B 1067  25.248   7.870  17.717 -0.2397 -0.0932 -0.2028
   45BOLB   C4B 1068  25.480   7.777  18.010  0.0012 -0.1845  0.0740
   45BOLB   NC2 1069  27.804   6.221  17.225  0.2954 -0.0623  0.4738
   45BOLB   PO2 1070  27.812   6.647  17.165  0.0659 -0.1330  0.1241
   45BOLB   GL3 1071  27.388   6.718  16.964 -0.2011  0.0720  0.1487
   45BOLB   GL4 1072  27.175   6.900  17.119 -0.1945 -0.0711 -0.0483
   45BOLB   C1C 1073  27.040   6.780  16.704  0.0153  0.1582 -0.1607
   45BOLB   C2C 1074  26.585   6.776  16.548 -0.0860 -0.1000  0.1770
   45BOLB   C3C 1075  26.226   6.812  16.568  0.0137  0.1290  0.1359
   45BOLB   C4C 1076  25.928   6.861  16.813  0.0896 -0.0373 -0.0325
   45BOLB   C1D 1077  26.819   7.147  17.018 -0.0391 -0.3988  0.0636
   45BOLB   C2D 1078  26.435   7.168  16.864  0.1614  0.0340  0.0167
   45BOLB   C3D 1079  26.052   7.381  16.773  0.2491 -0.0559  0.1862
   45BOLB   C4D 1080  25.998   7.640  16.445  0.1660  0.0872 -0.0424
   46BOLB   NC1 1081   3.250   3.459   9.202  0.1342 -0.0943 -0.1109
   46BOLB   PO1 1082   3.326   3.392   9.680  0.2125  0.3127  0.0212
   46BOLB   GL1 1083   3.627   3.314   9.918  0.1732  0.2327 -0.1156
   46BOLB   GL2 1084   3.565   3.125  10.273  0.2925 -0.1937  0.1059
   46BOLB   C1A 1085   3.961   3.367  10.129 -0.1038 -0.3304 -0.0108
   46BOLB   C2A 1086   4.276   3.418  10.439 -0.4720 -0.2887 -0.0491
   46BOLB   C3A 1087   4.375   3.159  10.754 -0.0851  0.0575 -0.2369
   46BOLB   C4A 1088   4.561   2.753  10.765 -0.1260  0.0527  0.0515
   46BOLB   C1B 1089   3.597   3.513  10.439 -0.1712  0.1759  0.1154
   46BOLB   C2B 1090   3.824   3.522  10.682  0.1227  0.0685  0.0198
   46BOLB   C3B 1091   4.083   3.647  10.886 -0.2121 -0.0844 -0.0720
   46BOLB   C4B 1092   4.209   4.054  10.832  0.1701 -0.0861 -0.1160
   46BOLB   NC2 1093   3.652   0.913  10.593 -0.0997 -0.2507  0.2031
   46BOLB   PO2 1094   3.583   0.945  10.997  0.1181 -0.0833  0.0914
   46BOLB   GL3 1095   3.962   0.883  11.024  0.0312 -0.0907  0.1568
   46BOLB   GL4 1096   4.131   0.639  11.192 -0.4349 -0.3358  0.1437
   46BOLB   C1C 1097   4.366   1.132  11.072  0.1529  0.0158 -0.2643
   46BOLB   C2C 1098   4.677   1.557  10.882 -0.3038  0.2389  0.2547
   46BOLB   C3C 1099   4.635   1.939  10.802  0.0486 -0.0761 -0.1960
   46BOLB   C4C 1100   4.517   2.328  10.991  0.1736 -0.0867  0.1127
   46BOLB   C1D 1101   4.281   0.940  11.525 -0.2124 -0.0940  0.2255
   46BOLB   C2D 1102   4.163   1.299  11.842  0.3353 -0.2441  0.4015
   46BOLB   C3D 1103   4.202   1.724  12.028 -0.0126 -0.2434 -0.1091
   46BOLB   C4D 1104   4.369   2.002  11.720 -0.1990 -0.2559  0.1570
   47BOLB   NC1 1105  15.325   3.372  12.703  0.1393 -0.3503 -0.0702
   47BOLB   PO1 1106  15.424   3.146  13.149 -0.4557  0.0738 -0.0095
   47BOLB   GL1 1107  15.219   2.883  12.853 -0.0470  0.2140 -0.1276
   47BOLB   GL2 1108  15.022   2.844  13.060 -0.0899  0.0479 -0.0590
   47BOLB   C1A 1109  14.755   3.056  12.675 -0.1982  0.2968 -0.0410
   47BOLB   C2A 1110  14.515   2.783  12.340  0.1245 -0.1287  0.0147
   47BOLB   C3A 1111  14.772   2.461  12.089  0.4381  0.2746 -0.1993
   47BOLB   C4A 1112  14.967   2.145  12.079  0.1921 -0.0442  0.0475
   47BOLB   C1B 1113  14.926   2.370  13.160  0.1898 -0.0047 -0.2740
   47BOLB   C2B 1114  14.754   1.967  13.216 -0.1354  0.0586 -0.1277
   47BOLB   C3B 1115  14.630   1.593  12.936 -0.3543  0.3098  0.2603
   47BOLB   C4B 1116  14.334   1.301  13.004  0.1749  0.0239  0.0135
   47BOLB   NC2 1117  15.877   3.027  13.368  0.2835 -0.5170  0.1397
   47BOLB   PO2 1118  16.184   2.945  13.103 -0.1299 -0.1117 -0.4226
   47BOLB   GL3 1119  15.874   2.593  13.027  0.3016  0.4278  0.0050
   47BOLB   GL4 1120  15.574   2.663  13.179 -0.2852  0.0054 -0.2240
   47BOLB   C1C 1121  15.750   2.167  13.143  0.3137  0.2397 -0.6316
   47BOLB   C2C 1122  15.648   1.866  12.867  0.1237 -0.1688  0.2254
   47BOLB   C3C 1123  15.520   1.737  12.424 -0.4057 -0.1583 -0.0084
   47BOLB   C4C 1124  15.091   1.780  12.172  0.3388 -0.0108 -0.0788
   47BOLB   C1D 1125  15.353   2.394  12.896  0.2688 -0.3024  0.0725
   47BOLB   C2D 1126  15.316   2.220  12.492  0.1268  0.0332  0.1362
   47BOLB   C3D 1127  15.417   2.366  12.017  0.4240  0.1574 -0.0625
   47BOLB   C4D 1128  15.686   2.589  11.707  0.0779  0.2355 -0.0875
   48BOLB   NC1 1129   7.846   5.264  24.555 -0.0058 -0.2276 -0.1092
   48BOLB   PO1 1130   7.856   5.644  24.191 -0.0451  0.0092 -0.0157
   48BOLB   GL1 1131   7.967   6.019  23.866  0.0514 -0.0546  0.3285
   48BOLB   GL2 1132   8.155   6.154  23.595  0.1928  0.0268 -0.0081
   48BOLB   C1A 1133   7.646   5.991  23.623  0.1039  0.2065  0.0212
   48BOLB   C2A 1134   7.881   5.917  23.234 -0.0242  0.0012  0.2535
   48BOLB   C3A 1135   8.038   5.868  22.897  0.0558  0.1044 -0.0857
   48BOLB   C4A 1136   8.266   5.559  22.673  0.2834 -0.2040 -0.5222
   48BOLB   C1B 1137   8.361   6.226  23.167  0.2888  0.0209 -0.0641
   48BOLB   C2B 1138   8.751   6.347  22.878 -0.0672  0.1476  0.1848
   48BOLB   C3B 1139   9.143   6.316  22.694  0.2035  0.0003 -0.0993
   48BOLB   C4B 1140   9.514   6.505  22.572  0.0365 -0.0094  0.2247
   48BOLB   NC2 1141   8.014   4.234  24.480  0.1879  0.0508  0.1107
   48BOLB   PO2 1142   8.365   4.443  24.205 -0.1710 -0.3361 -0.1074
   48BOLB   GL3 1143   8.580   4.548  23.740 -0.1754  0.0486 -0.2198
   48BOLB   GL4 1144   8.927   4.698  23.727 -0.3003  0.0485  0.0869
   48BOLB   C1C 1145   8.487   4.438  23.285 -0.0968  0.2681 -0.2408
   48BOLB   C2C 1146   8.212   4.407  22.878  0.1118 -0.4253 -0.1221
   48BOLB   C3C 1147   8.018   4.685  22.660 -0.1303 -0.0969  0.0260
   48BOLB   C4C 1148   8.290   5.114  22.769  0.0295 -0.0248  0.3023
   48BOLB   C1D 1149   8.881   4.798  23.300  0.1340  0.2451  0.2258
   48BOLB   C2D 1150   8.617   4.765  22.910 -0.0894  0.0608 -0.3466
   48BOLB   C3D 1151   8.481   4.601  22.515 -0.0714  0.2222  0.0310
   48BOLB   C4D 1152   8.363   4.220  22.442  0.0126 -0.1466 -0.2421
   49BOLB   NC1 1153   9.007  14.439   4.207 -0.1277  0.1649  0.0471
   49BOLB   PO1 1154   9.448  14.319   4.232  0.3049  0.1925  0.0707
   49BOLB   GL1 1155   9.697  13.948   4.131  0.0912 -0.0755  0.0321
   49BOLB   GL2 1156   9.917  13.933   4.359  0.0998  0.1726 -0.1504
   49BOLB   C1A 1157   9.517  13.545   4.234  0.3124  0.0840 -0.4360
   49BOLB   C2A 1158   9.512  13.165   4.593  0.1315  0.0150 -0.0050
   49BOLB   C3A 1159   9.537  13.018   5.068  0.2466  0.1356 -0.2294
   49BOLB   C4A 1160   9.827  12.883   5.442  0.0320 -0.1357 -0.3594
   49BOLB   C1B 1161   9.715  13.894   4.781 -0.1337 -0.0171  0.1110
   49BOLB   C2B 1162   9.886  13.499   4.863  0.0106 -0.0758  0.2728
   49BOLB   C3B 1163   9.772  13.399   5.305 -0.2480  0.1690  0.0745
   49BOLB   C4B 1164   9.684  13.341   5.679 -0.0564  0.1302  0.1230
   49BOLB   NC2 1165  10.585  14.702   5.117 -0.2543 -0.2534  0.3909
   49BOLB   PO2 1166  10.154  14.700   5.130  0.0134  0.1334  0.1919
   49BOLB   GL3 1167  10.275  14.229   5.224 -0.0069  0.1259  0.2250
   49BOLB   GL4 1168  10.638  14.113   5.142  0.0140 -0.1267 -0.1033
   49BOLB   C1C 1169  10.285  13.966   5.529 -0.0244 -0.0162  0.1927
   49BOLB   C2C 1170  10.193  13.627   5.775 -0.0249 -0.7299  0.1365
   49BOLB   C3C 1171  10.230  13.304   5.993 -0.0572  0.2178  0.0307
   49BOLB   C4C 1172  10.096  12.919   5.781  0.0515  0.1421  0.1985
   49BOLB   C1D 1173  10.620  13.683   5.154  0.1705  0.1199 -0.0577
   49BOLB   C2D 1174  10.286  13.422   5.346  0.2249 -0.0500  0.0443
   49BOLB   C3D 1175  10.386  13.006   5.388 -0.2169  0.1961 -0.0249
   49BOLB   C4D 1176  10.563  12.785   5.709  0.1424 -0.0559 -0.2023
   50BOLB   NC1 1177  10.859   9.752  21.171 -0.0356 -0.4100  0.1069
   50BOLB   PO1 1178  10.819   9.361  21.352  0.0460  0.1275  0.1149
   50BOLB   GL1 1179  10.446   9.419  21.598 -0.0695  0.0275  0.3343
   50BOLB   GL2 1180  10.232   9.154  21.549  0.1397  0.1169 -0.1978
   50BOLB   C1A 1181  10.084   9.628  21.632 -0.4706  0.1064  0.1147
   50BOLB   C2A 1182   9.771   9.742  21.823  0.0186 -0.0895 -0.1559
   50BOLB   C3A 1183   9.606   9.910  22.236  0.0252  0.1204 -0.4031
   50BOLB   C4A 1184   9.281  10.087  22.491 -0.0309 -0.2439  0.0119
   50BOLB   C1B 1185  10.131   9.208  21.979 -0.2781 -0.0517 -0.1970
   50BOLB   C2B 1186   9.880   9.427  22.180  0.0929 -0.2438  0.1846
   50BOLB   C3B 1187   9.659   9.423  22.602  0.1009  0.1691  0.1690
   50BOLB   C4B 1188   9.393   9.730  22.794 -0.0120 -0.1646 -0.1807
   50BOLB   NC2 1189   7.929   9.917  24.918  0.0928  0.3035 -0.1108
   50BOLB   PO2 1190   7.986   9.902  24.608  0.2348  0.2564  0.0089
   50BOLB   GL3 1191   8.208   9.893  24.310 -0.1230  0.4131 -0.2300
   50BOLB   GL4 1192   8.205   9.540  24.362  0.0454  0.0248 -0.3883
   50BOLB   C1C 1193   8.441   9.886  23.907 -0.1423  0.1270  0.3549
   50BOLB   C2C 1194   8.672   9.838  23.541 -0.0001  0.2774  0.1577
   50BOLB   C3C 1195   8.883   9.739  23.140 -0.0737  0.1221  0.0287
   50BOLB   C4C 1196   8.950   9.924  22.626 -0.0365  0.0160  0.1694
   50BOLB   C1D 1197   8.281   9.403  23.854 -0.0411  0.2246 -0.1017
   50BOLB   C2D 1198   8.374   9.452  23.434  0.0388 -0.0636  0.2310
   50BOLB   C3D 1199   8.570   9.197  23.163  0.2928 -0.1891 -0.2303
   50BOLB   C4D 1200   8.762   9.010  22.776 -0.1718  0.1115  0.0478
   51BOLB   NC1 1201   5.102  16.277  16.641  0.0782  0.1728  0.1174
   51BOLB   PO1 1202   5.080  15.995  17.017  0.5209 -0.1714 -0.1562
   51BOLB   GL1 1203   5.481  15.692  17.000 -0.1480 -0.0332  0.0741
   51BOLB   GL2 1204   5.469  15.355  16.994  0.2992  0.1990  0.2300
   51BOLB   C1A 1205   5.826  15.642  16.836  0.0495 -0.1021 -0.0799
   51BOLB   C2A 1206   6.185  15.499  16.676  0.3195  0.0198  0.1332
   51BOLB   C3A 1207   6.541  15.198  16.529 -0.1119  0.0400  0.0140
   51BOLB   C4A 1208   6.775  15.174  16.217  0.0114  0.1783  0.0356
   51BOLB   C1B 1209   5.943  15.254  17.120 -0.3506 -0.2169 -0.0971
   51BOLB   C2B 1210   6.299  15.042  17.069 -0.3441  0.1348 -0.0893
   51BOLB   C3B 1211   6.633  14.847  16.869  0.1158  0.4906  0.0641
   51BOLB   C4B 1212   7.039  14.610  16.966  0.0025  0.0120 -0.2723
   51BOLB   NC2 1213   5.302  15.859  15.737 -0.0472 -0.1207  0.1067
   51BOLB   PO2 1214   5.581  16.060  15.420  0.1261 -0.1055 -0.1024
   51BOLB   GL3 1215   6.038  16.096  15.393  0.0058 -0.0412 -0.1646
   51BOLB   GL4 1216   6.106  15.760  15.392  0.0477 -0.0294  0.2563
   51BOLB   C1C 1217   6.471  16.086  15.330  0.1765 -0.2662  0.3067
   51BOLB   C2C 1218   6.906  16.039  15.340  0.0621 -0.4379  0.1244
   51BOLB   C3C 1219   6.997  15.805  15.726  0.1903 -0.1403 -0.0443
   51BOLB   C4C 1220   6.885  15.376  15.923  0.2142 -0.1706 -0.3295
   51BOLB   C1D 1221   6.191  15.613  15.764  0.1487 -0.0348  0.1061
   51BOLB   C2D 1222   6.433  15.458  16.035 -0.2219 -0.0297 -0.1667
   51BOLB   C3D 1223   6.606  15.668  16.375 -0.0834 -0.0479  0.1323
   51BOLB   C4D 1224   6.960  15.483  16.493 -0.0172 -0.2134 -0.0965
   52BOLB   NC1 1225  28.800  11.627  12.684 -0.0385 -0.1478 -0.2719
   52BOLB   PO1 1226  28.318  11.530  12.779 -0.0320 -0.0735  0.1876
   52BOLB   GL1 1227  27.888  11.734  12.884 -0.0282  0.2515 -0.1474
   52BOLB   GL2 1228  27.720  11.854  13.242  0.1514 -0.0612 -0.0324
   52BOLB   C1A 1229  27.552  11.510  12.788  0.2189 -0.2062  0.2934
   52BOLB   C2A 1230  27.070  11.525  12.895 -0.2985 -0.2011  0.0535
   52BOLB   C3A 1231  26.555  11.453  12.942 -0.1376  0.1780  0.1099
   52BOLB   C4A 1232  26.088  11.338  12.656  0.0845 -0.2187  0.2225
   52BOLB   C1B 1233  27.591  11.395  13.282 -0.0790 -0.0348 -0.0958
   52BOLB   C2B 1234  27.416  10.942  13.157  0.4576  0.5317 -0.0993
   52BOLB   C3B 1235  27.127  10.623  13.244  0.0123 -0.1548 -0.1742
   52BOLB   C4B 1236  26.883  10.244  12.913 -0.0225 -0.2671  0.0854
   52BOLB   NC2 1237  26.338  11.148   9.561 -0.2258  0.0130  0.0805
   52BOLB   PO2 1238  26.429  11.123  10.062  0.0046 -0.0496 -0.0388
   52BOLB   GL3 1239  26.295  11.082  10.503 -0.0002 -0.0983  0.3185
   52BOLB   GL4 1240  26.034  11.141  10.645 -0.0724 -0.3866 -0.0548
   52BOLB   C1C 1241  26.303  11.049  11.046  0.1382 -0.2056  0.0665
   52BOLB   C2C 1242  26.141  11.023  11.480  0.0612 -0.1256 -0.0824
   52BOLB   C3C 1243  25.892  11.060  11.868  0.0474  0.2721 -0.0391
   52BOLB   C4C 1244  25.823  11.186  12.272  0.0421  0.0380 -0.1296
   52BOLB   C1D 1245  26.018  10.697  10.819 -0.1424  0.0458 -0.0914
   52BOLB   C2D 1246  25.570  10.534  10.915  0.0976  0.2608 -0.0839
   52BOLB   C3D 1247  25.181  10.567  10.797  0.1392  0.3633  0.3318
   52BOLB   C4D 1248  24.959  10.221  10.807 -0.4935 -0.1530 -0.0781
   53BOLB   NC1 1249  13.599  13.878   2.661  0.2100  0.1242  0.1645
   53BOLB   PO1 1250  13.446  13.576   3.019 -0.0033  0.2198 -0.0232
   53BOLB   GL1 1251  13.243  13.324   3.323  0.0773  0.1482  0.5445
   53BOLB   GL2 1252  13.441  13.142   3.353 -0.0079  0.1552  0.1786
   53BOLB   C1A 1253  13.081  12.802   3.377 -0.1506  0.0548  0.2783
   53BOLB   C2A 1254  13.264  12.404   3.359  0.1950 -0.0200  0.0916
   53BOLB   C3A 1255  13.129  12.141   3.117 -0.0982  0.1614  0.0936
   53BOLB   C4A 1256  12.771  11.896   3.277  0.1363 -0.1253  0.1882
   53BOLB   C1B 1257  13.505  13.072   3.804  0.1072  0.3361  0.1837
   53BOLB   C2B 1258  13.810  13.048   4.140 -0.0181  0.3456  0.0488
   53BOLB   C3B 1259  13.973  12.811   4.517  0.0177 -0.0487  0.0689
   53BOLB   C4B 1260  13.987  12.406   4.734 -0.2174  0.1090 -0.3642
   53BOLB   NC2 1261  13.245  12.215   1.606  0.2427 -0.0173 -0.4997
   53BOLB   PO2 1262  13.331  11.959   1.872  0.0525 -0.1495  0.0405
   53BOLB   GL3 1263  13.478  11.688   2.299  0.0412  0.3698  0.0278
   53BOLB   GL4 1264  13.665  11.778   2.578 -0.1216  0.2449  0.0792
   53BOLB   C1C 1265  13.302  11.428   2.702  0.2601 -0.0767  0.0473
   53BOLB   C2C 1266  13.134  10.997   2.987 -0.0542 -0.0300 -0.0855
   53BOLB   C3C 1267  12.893  11.119   3.341  0.1806  0.3687  0.1175
   53BOLB   C4C 1268  12.679  11.487   3.253  0.0064  0.1300 -0.1057
   53BOLB   C1D 1269  13.498  11.917   2.875 -0.0837 -0.1920 -0.2042
   53BOLB   C2D 1270  13.617  11.990   3.137  0.0822 -0.1068 -0.0026
   53BOLB   C3D 1271  13.866  11.706   3.390 -0.1550  0.0270  0.1050
   53BOLB   C4D 1272  13.940  11.284   3.498  0.0271 -0.0033  0.1246
   54BOLB   NC1 1273  15.432  17.215  11.318 -0.0371  0.0190  0.0984
   54BOLB   PO1 1274  15.368  17.334  11.832 -0.0195 -0.1130 -0.1251
   54BOLB   GL1 1275  15.273  17.632  11.577  0.2223  0.0894 -0.0680
   54BOLB   GL2 1276  15.464  17.859  11.576  0.1112 -0.3815  0.1391
   54BOLB   C1A 1277  15.179  17.928  11.181 -0.3570  0.0447  0.2912
   54BOLB   C2A 1278  15.203  18.243  10.936  0.3060  0.1011  0.3633
   54BOLB   C3A 1279  15.389  18.495  10.577  0.0521 -0.1833 -0.0668
   54BOLB   C4A 1280  15.243  18.797  10.218  0.0406  0.1670  0.0990
   54BOLB   C1B 1281  15.236  18.224  11.621 -0.0169  0.1732 -0.1730
   54BOLB   C2B 1282  15.127  18.618  11.449  0.0218 -0.1002 -0.1338
   54BOLB   C3B 1283  15.237  18.978  11.372  0.2523  0.1355 -0.3783
   54BOLB   C4B 1284  15.513  19.341  11.628  0.2921  0.4009  0.1553
   54BOLB   NC2 1285  14.481  19.805   8.133 -0.0848  0.0939  0.1213
   54BOLB   PO2 1286  14.103  19.857   8.451  0.2667  0.1146 -0.0511
   54BOLB   GL3 1287  14.358  19.544   8.718  0.0152  0.1423 -0.1032
   54BOLB   GL4 1288  14.512  19.475   8.624 -0.1177 -0.1333  0.1927
   54BOLB   C1C 1289  14.563  19.491   9.113 -0.1724 -0.0660 -0.0038
   54BOLB   C2C 1290  14.579  19.608   9.561  0.1236  0.1764 -0.0926
   54BOLB   C3C 1291  14.870  19.468   9.864 -0.3170  0.0387  0.1528
   54BOLB   C4C 1292  15.117  19.099   9.896  0.1577 -0.0437  0.2445
   54BOLB   C1D 1293  14.179  19.135   8.657  0.1005  0.1661  0.1066
   54BOLB   C2D 1294  13.948  18.881   8.475 -0.3990  0.0337  0.2557
   54BOLB   C3D 1295  13.772  18.731   8.087  0.0579  0.1576 -0.0616
   54BOLB   C4D 1296  13.989  18.638   7.670 -0.0857  0.0749 -0.2803
   55BOLB   NC1 1297   6.507  10.478   3.488  0.1582  0.4041 -0.0007
   55BOLB   PO1 1298   6.459  10.834   3.168  0.3088  0.1857  0.0439
   55BOLB   GL1 1299   6.530  10.985   3.620  0.3470  0.2281 -0.2011
   55BOLB   GL2 1300   6.879  10.968   3.719  0.2428 -0.1170  0.1347
   55BOLB   C1A 1301   6.569  11.130   4.050 -0.0178  0.0884  0.1761
   55BOLB   C2A 1302   6.642  10.914   4.374 -0.1727 -0.0006 -0.0110
   55BOLB   C3A 1303   6.659  10.411   4.446 -0.1263 -0.2145 -0.2002
   55BOLB   C4A 1304   6.684   9.993   4.559 -0.0720 -0.1263  0.0674
   55BOLB   C1B 1305   7.049  10.680   4.102  0.1226  0.1492 -0.1166
   55BOLB   C2B 1306   7.159  10.286   4.253  0.1123 -0.1457 -0.2160
   55BOLB   C3B 1307   7.541  10.243   4.576  0.1237 -0.1623 -0.0123
   55BOLB   C4B 1308   7.817  10.001   4.832  0.0051 -0.2614  0.1401
   55BOLB   NC2 1309   5.176   8.879   4.273 -0.1147  0.3027 -0.0705
   55BOLB   PO2 1310   5.494   8.581   4.117 -0.0864 -0.2437 -0.1708
   55BOLB   GL3 1311   5.579   8.659   4.464  0.0563 -0.0866  0.1543
   55BOLB   GL4 1312   5.327   8.465   4.573  0.0647  0.1332 -0.1636
   55BOLB   C1C 1313   5.939   8.816   4.615 -0.1841  0.0513 -0.1179
   55BOLB   C2C 1314   6.320   8.926   4.870 -0.1337 -0.1407 -0.2089
   55BOLB   C3C 1315   6.483   9.317   4.911 -0.0545  0.0763 -0.2695
   55BOLB   C4C 1316   6.477   9.682   4.643 -0.1145 -0.0290  0.0353
   55BOLB   C1D 1317   5.519   8.284   4.808 -0.0349 -0.0913  0.0965
   55BOLB   C2D 1318   5.928   8.268   4.780 -0.1405  0.1693 -0.2697
   55BOLB   C3D 1319   6.345   8.250   4.610  0.0077  0.0654  0.0218
   55BOLB   C4D 1320   6.696   8.373   4.458 -0.0134  0.1391  0.2361
   56BOLB   NC1 1321  14.817  15.960  21.867 -0.2355 -0.1725  0.2350
   56BOLB   PO1 1322  14.397  15.936  21.770 -0.0582 -0.0518  0.0937
   56BOLB   GL1 1323  14.457  16.108  22.178  0.0164  0.0235 -0.0870
   56BOLB   GL2 1324  14.119  16.200  22.241 -0.0335  0.2206  0.1019
   56BOLB   C1A 1325  14.553  16.047  22.502  0.0311 -0.1268 -0.0880
   56BOLB   C2A 1326  14.845  16.143  22.855  0.2539 -0.4557 -0.1424
   56BOLB   C3A 1327  14.913  16.292  23.219 -0.0877  0.1451 -0.1839
   56BOLB   C4A 1328  15.106  16.395  23.698  0.1020  0.1186 -0.0507
   56BOLB   C1B 1329  13.961  16.662  22.239 -0.4050 -0.0637  0.2255
   56BOLB   C2B 1330  13.878  17.076  22.435 -0.0183 -0.0426  0.1632
   56BOLB   C3B 1331  13.777  17.518  22.658 -0.0435  0.0653 -0.0059
   56BOLB   C4B 1332  13.640  17.956  22.685  0.0392  0.2720 -0.0875
   56BOLB   NC2 1333  15.108  18.057  25.654 -0.3192 -0.2986  0.0048
   56BOLB   PO2 1334  14.837  17.733  25.681 -0.0542 -0.1996 -0.1942
   56BOLB   GL3 1335  14.973  17.468  25.410 -0.3280 -0.5908  0.1407
   56BOLB   GL4 1336  14.687  17.281  25.420  0.1114 -0.1794  0.0725
   56BOLB   C1C 1337  14.977  17.408  24.936  0.2327  0.0110 -0.1508
   56BOLB   C2C 1338  15.221  17.105  24.648 -0.4438 -0.1611 -0.1046
   56BOLB   C3C 1339  15.413  16.939  24.379  0.1854  0.0351  0.1275
   56BOLB   C4C 1340  15.126  16.692  24.073  0.0472  0.0469  0.1788
   56BOLB   C1D 1341  14.972  17.013  25.231  0.0620 -0.3411 -0.0285
   56BOLB   C2D 1342  15.082  16.726  24.927 -0.1666  0.2965  0.0809
   56BOLB   C3D 1343  14.937  16.531  24.543 -0.0478 -0.1379  0.0287
   56BOLB   C4D 1344  14.811  16.286  24.148  0.3342 -0.1266 -0.0876
   57BOLB   NC1 1345  18.984   3.050  18.628  0.1141 -0.0326  0.1357
   57BOLB   PO1 1346  18.842   3.506  18.757  0.1165  0.0619  0.2273
   57BOLB   GL1 1347  18.869   3.105  19.114 -0.3226  0.1590  0.0855
   57BOLB   GL2 1348  18.929   2.815  19.048  0.0973  0.0257 -0.1119
   57BOLB   C1A 1349  18.873   2.931  19.510  0.0257 -0.0272 -0.1585
   57BOLB   C2A 1350  18.998   3.011  19.990  0.0243  0.0753  0.1452
   57BOLB   C3A 1351  19.320   2.755  20.251  0.4561 -0.1594  0.2464
   57BOLB   C4A 1352  19.406   2.474  20.563 -0.0729 -0.1660  0.0541
   57BOLB   C1B 1353  18.931   2.424  19.364 -0.0764  0.0058  0.2221
   57BOLB   C2B 1354  19.050   2.093  19.652 -0.1318  0.3593  0.2232
   57BOLB   C3B 1355  19.114   1.660  19.863  0.0076 -0.0038  0.1252
   57BOLB   C4B 1356  19.208   1.196  19.678 -0.2647 -0.4277 -0.2143
   57BOLB   NC2 1357  21.082   1.487  22.393 -0.0467  0.0223  0.0133
   57BOLB   PO2 1358  20.910   1.285  21.970  0.1355 -0.0937  0.0783
   57BOLB   GL3 1359  20.686   1.609  21.822  0.3022  0.1324 -0.1715
   57BOLB   GL4 1360  20.253   1.581  21.904 -0.3302 -0.3346  0.2484
   57BOLB   C1C 1361  20.416   1.878  21.489  0.0306  0.3651 -0.1002
   57BOLB   C2C 1362  20.098   2.124  21.267  0.3499  0.1347  0.2478
   57BOLB   C3C 1363  19.735   2.388  21.405 -0.1415  0.3556  0.2696
   57BOLB   C4C 1364  19.463   2.460  21.037  0.2613 -0.1345  0.1046
   57BOLB   C1D 1365  20.058   2.136  21.833 -0.0489  0.5301  0.4510
   57BOLB   C2D 1366  20.046   2.553  21.780  0.0381 -0.0869 -0.3176
   57BOLB   C3D 1367  19.767   3.007  21.758  0.4236 -0.0790  0.0092
   57BOLB   C4D 1368  19.420   3.336  21.576 -0.0860  0.1646  0.1932
   58BOLB   NC1 1369  14.463   4.676   1.203  0.2802  0.1594 -0.0400
   58BOLB   PO1 1370  14.343   5.054   1.047 -0.0341 -0.3348  0.1787
   58BOLB   GL1 1371  14.236   5.274   1.497 -0.0468  0.1239  0.0207
   58BOLB   GL2 1372  14.124   5.612   1.373  0.2096 -0.1408  0.2624
   58BOLB   C1A 1373  13.924   5.442   1.819 -0.0456  0.0679  0.2194
   58BOLB   C2A 1374  13.801   5.580   2.293  0.4555  0.2220  0.1909
   58BOLB   C3A 1375  13.826   5.261   2.613  0.1879 -0.1327  0.0557
   58BOLB   C4A 1376  14.033   4.843   2.704  0.0300  0.1555 -0.3807
   58BOLB   C1B 1377  14.406   5.637   1.797 -0.2481  0.4440  0.0792
   58BOLB   C2B 1378  14.663   5.915   2.191 -0.2318  0.2311 -0.3227
   58BOLB   C3B 1379  14.780   6.256   2.526 -0.1694  0.0941 -0.3534
   58BOLB   C4B 1380  14.887   6.329   2.972 -0.1749  0.0323  0.0689
   58BOLB   NC2 1381  15.224   3.476   1.156 -0.0955 -0.0743  0.3663
   58BOLB   PO2 1382  15.606   3.410   1.310  0.0237 -0.1143 -0.0695
   58BOLB   GL3 1383  15.497   3.647   1.618  0.1748  0.1063 -0.4182
   58BOLB   GL4 1384  15.535   4.042   1.730 -0.1811  0.3873  0.0218
   58BOLB   C1C 1385  15.262   3.708   1.971  0.3502  0.3602 -0.4563
   58BOLB   C2C 1386  14.886   4.005   2.258 -0.0001 -0.2199 -0.1657
   58BOLB   C3C 1387  14.557   4.221   2.446  0.0908  0.2114 -0.1170
   58BOLB   C4C 1388  14.449   4.605   2.702  0.0447  0.3353 -0.0883
   58BOLB   C1D 1389  15.511   4.506   1.750 -0.3109 -0.1944 -0.5037
   58BOLB   C2D 1390  15.530   4.771   2.055  0.0656 -0.2597  0.0652
   58BOLB   C3D 1391  15.420   4.774   2.558 -0.1184 -0.0207  0.0932
   58BOLB   C4D 1392  15.074   4.756   2.864  0.3561 -0.0610  0.3482
   59BOLB   NC1 1393  13.713   3.618  19.940 -0.0442  0.4524 -0.2026
   59BOLB   PO1 1394  13.769   3.589  20.418 -0.0600  0.2499 -0.0161
   59BOLB   GL1 1395  13.482   3.333  20.577 -0.0989 -0.2334 -0.0782
   59BOLB   GL2 1396  13.711   3.278  20.790  0.1984 -0.2962 -0.0463
   59BOLB   C1A 1397  13.087   3.214  20.708 -0.1586 -0.1476 -0.0615
   59BOLB   C2A 1398  12.903   2.989  20.989 -0.0391 -0.0832 -0.1562
   59BOLB   C3A 1399  13.126   2.877  21.352 -0.2688  0.1587  0.1228
   59BOLB   C4A 1400  13.186   2.551  21.598 -0.0104  0.2112 -0.1004
   59BOLB   C1B 1401  13.824   3.064  21.167 -0.0403  0.0851  0.1263
   59BOLB   C2B 1402  13.599   2.858  21.433  0.0758 -0.0935 -0.0101
   59BOLB   C3B 1403  13.535   2.833  21.889  0.2371 -0.1273 -0.4084
   59BOLB   C4B 1404  13.564   3.215  22.134  0.0997  0.0250  0.1047
   59BOLB   NC2 1405  12.024   0.302  22.837 -0.2106 -0.0967  0.1143
   59BOLB   PO2 1406  12.189   0.683  22.708 -0.3057 -0.0616  0.1582
   59BOLB   GL3 1407  12.071   1.111  22.579  0.0163 -0.0635  0.3338
   59BOLB   GL4 1408  11.786   1.037  22.334 -0.1754 -0.0040  0.1697
   59BOLB   C1C 1409  12.444   1.460  22.556 -0.0418  0.0307  0.1775
   59BOLB   C2C 1410  12.674   1.733  22.433  0.0928 -0.1546 -0.1136
   59BOLB   C3C 1411  13.000   1.960  22.126 -0.0560 -0.3083 -0.0387
   59BOLB   C4C 1412  13.004   2.177  21.747 -0.0696  0.5497  0.1373
   59BOLB   C1D 1413  11.978   1.354  22.138  0.1460 -0.1786  0.0126
   59BOLB   C2D 1414  12.254   1.581  22.108  0.0230 -0.1446  0.0302
   59BOLB   C3D 1415  12.352   1.896  21.890 -0.0745 -0.2104  0.1404
   59BOLB   C4D 1416  12.434   2.211  21.699 -0.1598 -0.2372 -0.1705
   60BOLB   NC1 1417  15.703  34.691   4.787 -0.3932 -0.0184 -0.0662
   60BOLB   PO1 1418  15.931  34.754   4.596 -0.0399 -0.0659 -0.0494
   60BOLB   GL1 1419  15.873  35.129   4.859  0.1210 -0.0569 -0.4364
   60BOLB   GL2 1420  15.539  35.198   5.130 -0.1184  0.1825  0.1415
   60BOLB   C1A 1421  15.825  35.624   4.934  0.0869 -0.0996 -0.0607
   60BOLB   C2A 1422  16.042  35.984   4.819 -0.0353 -0.2034  0.3343
   60BOLB   C3A 1423  16.254  36.056   4.441  0.0907 -0.1908 -0.0389
   60BOLB   C4A 1424  16.628  36.244   4.298  0.1874 -0.0696 -0.2905
   60BOLB   C1B 1425  15.619  35.545   5.449  0.3006  0.4315  0.0585
   60BOLB   C2B 1426  15.726  35.991   5.333 -0.1656  0.3705 -0.2265
   60BOLB   C3B 1427  15.799  36.462   5.461 -0.2141  0.1854 -0.0875
   60BOLB   C4B 1428  15.502  36.535   5.796  0.1411 -0.1997 -0.2296
   60BOLB   NC2 1429  18.620  36.404   3.781  0.1764 -0.1838  0.0883
   60BOLB   PO2 1430  18.552  36.845   3.662  0.4090  0.3135 -0.0300
   60BOLB   GL3 1431  18.106  36.986   3.874  0.0467  0.0996 -0.0193
   60BOLB   GL4 1432  17.889  37.007   3.628  0.2483  0.4254  0.1599
   60BOLB   C1C 1433  17.968  36.996   4.312  0.0310  0.1627  0.2692
   60BOLB   C2C 1434  17.740  36.753   4.575 -0.0032  0.1339 -0.1036
   60BOLB   C3C 1435  17.393  36.478   4.393 -0.3945  0.1024 -0.2167
   60BOLB   C4C 1436  17.074  36.176   4.342  0.2292 -0.2339  0.1993
   60BOLB   C1D 1437  17.676  37.348   3.737  0.0517  0.0231 -0.5609
   60BOLB   C2D 1438  17.646  37.406   4.183 -0.0836  0.0075 -0.1332
   60BOLB   C3D 1439  17.638  37.354   4.618  0.2718 -0.1882  0.1268
   60BOLB   C4D 1440  17.760  37.383   5.058 -0.2533 -0.0016  0.2142
   61BOLB   NC1 1441  18.809  34.100  12.000  0.2238 -0.0791  0.0406
   61BOLB   PO1 1442  18.585  33.952  12.373 -0.2746  0.0571 -0.0686
   61BOLB   GL1 1443  18.287  34.267  12.260 -0.0286  0.1981  0.1527
   61BOLB   GL2 1444  18.116  34.136  12.060 -0.0539  0.5851  0.1330
   61BOLB   C1A 1445  18.036  34.621  12.103  0.0462  0.0838 -0.0814
   61BOLB   C2A 1446  18.013  34.976  11.847  0.2466  0.2601 -0.1689
   61BOLB   C3A 1447  17.796  35.303  11.974 -0.0742  0.2032  0.0783
   61BOLB   C4A 1448  17.459  35.244  12.262  0.3827 -0.2525  0.1980
   61BOLB   C1B 1449  17.920  34.438  11.686 -0.1484 -0.2622 -0.1455
   61BOLB   C2B 1450  17.754  34.500  11.360 -0.0426  0.1282  0.0868
   61BOLB   C3B 1451  17.361  34.256  11.082 -0.3070 -0.1568  0.2615
   61BOLB   C4B 1452  17.009  34.290  10.872 -0.0613  0.0688  0.0072
   61BOLB   NC2 1453  16.849  32.679  11.372  0.2223  0.1250  0.1227
   61BOLB   PO2 1454  16.985  33.042  11.745  0.1673  0.1184  0.1377
   61BOLB   GL3 1455  16.850  33.379  11.827  0.1388  0.0487 -0.0943
   61BOLB   GL4 1456  16.662  33.496  11.991 -0.1425  0.0734 -0.1409
   61BOLB   C1C 1457  16.797  33.897  11.783 -0.5481 -0.1712 -0.4043
   61BOLB   C2C 1458  16.796  34.258  12.061  0.1736 -0.0090  0.0292
   61BOLB   C3C 1459  16.994  34.626  12.088 -0.1431  0.3765 -0.1792
   61BOLB   C4C 1460  17.083  34.976  12.247  0.1280  0.1033  0.0158
   61BOLB   C1D 1461  16.306  33.593  12.048 -0.1558 -0.1833 -0.1082
   61BOLB   C2D 1462  16.065  33.785  12.326  0.0301 -0.0287  0.0370
   61BOLB   C3D 1463  15.779  34.062  12.569 -0.2383 -0.2478 -0.1401
   61BOLB   C4D 1464  15.549  34.474  12.499 -0.0491 -0.1219  0.0924
   62BOLB   NC1 1465   4.728  14.104   7.807  0.0158  0.0113  0.0780
   62BOLB   PO1 1466   5.012  13.968   7.516 -0.2302  0.0284  0.3046
   62BOLB   GL1 1467   5.349  13.660   7.564  0.1978 -0.1698  0.4731
   62BOLB   GL2 1468   5.415  13.746   7.852  0.0041  0.1134 -0.0475
   62BOLB   C1A 1469   5.340  13.204   7.572 -0.0933  0.1531  0.6054
   62BOLB   C2A 1470   5.074  12.997   7.795 -0.1315 -0.1139  0.1719
   62BOLB   C3A 1471   4.689  12.767   7.607 -0.0928  0.0848  0.1224
   62BOLB   C4A 1472   4.527  12.431   7.737  0.3437  0.0241  0.1270
   62BOLB   C1B 1473   5.780  13.341   7.731  0.1693  0.0151 -0.0658
   62BOLB   C2B 1474   6.203  13.040   7.635  0.1363 -0.0403  0.0109
   62BOLB   C3B 1475   6.535  13.129   7.951 -0.2040  0.0171 -0.1321
   62BOLB   C4B 1476   6.377  13.364   8.283  0.0618 -0.1307  0.0084
   62BOLB   NC2 1477   5.294  14.471   8.463 -0.0365 -0.1305  0.1251
   62BOLB   PO2 1478   5.228  14.193   8.035  0.3286 -0.3181 -0.0983
   62BOLB   GL3 1479   5.298  13.785   8.311  0.0680  0.0508 -0.0598
   62BOLB   GL4 1480   5.216  13.796   8.640  0.2288  0.3739  0.2031
   62BOLB   C1C 1481   5.518  13.408   8.159 -0.1536  0.0032  0.0830
   62BOLB   C2C 1482   5.417  13.005   8.136  0.0827  0.0569 -0.0623
   62BOLB   C3C 1483   5.179  12.657   8.137 -0.1994  0.1243  0.5540
   62BOLB   C4C 1484   4.808  12.497   8.060  0.0349 -0.0844 -0.1837
   62BOLB   C1D 1485   5.552  13.613   8.861 -0.0701 -0.1884  0.0727
   62BOLB   C2D 1486   5.834  13.236   9.031 -0.2085  0.3067 -0.3118
   62BOLB   C3D 1487   6.070  13.122   9.309 -0.3209 -0.0230 -0.0947
   62BOLB   C4D 1488   6.269  12.812   9.615 -0.1422  0.3691  0.0466
   63BOLB   NC1 1489   1.999  10.927  15.090  0.1725  0.0696  0.1429
   63BOLB   PO1 1490   2.048  10.876  14.715 -0.2425 -0.0187 -0.1173
   63BOLB   GL1 1491   2.314  10.654  14.442 -0.1616 -0.1125  0.4487
   63BOLB   GL2 1492   2.416  10.749  14.134 -0.0621 -0.2222  0.3318
   63BOLB   C1A 1493   2.656  10.288  14.267 -0.2655 -0.2992  0.1061
   63BOLB   C2A 1494   3.040  10.215  14.137  0.0017 -0.0209 -0.1842
   63BOLB   C3A 1495   3.366  10.247  13.933  0.1847  0.0635 -0.0683
   63BOLB   C4A 1496   3.660  10.376  14.116 -0.4313 -0.1474  0.0475
   63BOLB   C1B 1497   2.657  10.571  13.755 -0.1894 -0.1701 -0.3021
   63BOLB   C2B 1498   2.857  10.179  13.574 -0.2555 -0.0302 -0.2192
   63BOLB   C3B 1499   3.263  10.166  13.414  0.1673  0.1045  0.2375
   63BOLB   C4B 1500   3.722  10.359  13.561 -0.0612  0.1419  0.3863
   63BOLB   NC2 1501   2.782  11.492  14.194 -0.1437  0.0738  0.2888
   63BOLB   PO2 1502   2.662  11.781  14.471 -0.1689  0.0981 -0.0036
   63BOLB   GL3 1503   3.002  11.470  14.654 -0.1229 -0.0057  0.1462
   63BOLB   GL4 1504   3.318  11.649  14.501  0.3335 -0.3249 -0.3774
   63BOLB   C1C 1505   3.347  11.251  14.913 -0.0133 -0.0221  0.1793
   63BOLB   C2C 1506   3.631  11.089  14.955 -0.0336  0.2156 -0.1293
   63BOLB   C3C 1507   3.954  10.753  14.868  0.0691  0.0268  0.3628
   63BOLB   C4C 1508   3.855  10.512  14.465 -0.0269 -0.0649 -0.0145
   63BOLB   C1D 1509   3.654  11.358  14.581 -0.1053 -0.0588  0.1695
   63BOLB   C2D 1510   3.889  11.051  14.506 -0.0086 -0.1755  0.0027
   63BOLB   C3D 1511   4.214  10.864  14.329 -0.1764 -0.1087 -0.0428
   63BOLB   C4D 1512   4.657  10.721  14.367  0.1325  0.1508 -0.2232
   64BOLB   NC1 1513  16.271  11.975   7.556  0.1061 -0.0989 -0.2286
   64BOLB   PO1 1514  15.943  11.760   7.311 -0.2397  0.0145  0.3928
   64BOLB   GL1 1515  16.120  11.981   6.994  0.1959  0.1732  0.1451
   64BOLB   GL2 1516  16.102  12.208   6.914  0.2056  0.5881  0.1090
   64BOLB   C1A 1517  16.135  11.754   6.701  0.2223 -0.4316 -0.0693
   64BOLB   C2A 1518  15.874  11.392   6.531  0.0015 -0.0701 -0.0687
   64BOLB   C3A 1519  15.827  11.334   6.115 -0.1587  0.3848 -0.1423
   64BOLB   C4A 1520  15.801  11.499   5.665  0.1893 -0.2253  0.0144
   64BOLB   C1B 1521  16.499  12.247   6.689 -0.0234  0.1497  0.0540
   64BOLB   C2B 1522  16.581  12.113   6.148 -0.3291  0.1765  0.2180
   64BOLB   C3B 1523  16.493  12.010   5.741 -0.1791 -0.0366 -0.1471
   64BOLB   C4B 1524  16.783  11.857   5.395  0.1621 -0.2009 -0.0160
   64BOLB   NC2 1525  17.064  12.236   3.986 -0.3026  0.3675 -0.3733
   64BOLB   PO2 1526  17.505  12.194   4.011  0.3525  0.1860 -0.0362
   64BOLB   GL3 1527  17.209  11.937   4.353 -0.1201  0.1737  0.0102
   64BOLB   GL4 1528  17.324  11.580   4.420 -0.0690  0.0189  0.2004
   64BOLB   C1C 1529  16.956  11.809   4.639  0.1523  0.1460  0.1149
   64BOLB   C2C 1530  16.588  11.585   4.846  0.0226  0.0558 -0.1158
   64BOLB   C3C 1531  16.323  11.518   5.099  0.0182  0.0051 -0.0621
   64BOLB   C4C 1532  15.913  11.578   5.227 -0.1735 -0.1934 -0.0783
   64BOLB   C1D 1533  17.343  11.643   4.947  0.1115 -0.0752  0.0343
   64BOLB   C2D 1534  17.406  11.787   5.402 -0.1583  0.2575  0.0669
   64BOLB   C3D 1535  17.691  11.601   5.667  0.0617  0.1274 -0.0824
   64BOLB   C4D 1536  17.667  11.176   5.506 -0.0140  0.2496  0.1575
   65BOLB   NC1 1537  10.344   7.957   0.983 -0.2866 -0.0606 -0.0672
   65BOLB   PO1 1538  10.674   8.306   0.998  0.0057  0.0805  0.1940
   65BOLB   GL1 1539  10.440   8.194   1.422 -0.0465  0.1721  0.1290
   65BOLB   GL2 1540  10.344   7.878   1.487  0.1333 -0.2004  0.0730
   65BOLB   C1A 1541  10.293   8.369   1.770 -0.2978  0.2647  0.3206
   65BOLB   C2A 1542  10.200   8.514   2.163 -0.0242 -0.0243 -0.0089
   65BOLB   C3A 1543  10.162   8.172   2.480 -0.0607 -0.0042  0.0108
   65BOLB   C4A 1544  10.493   8.022   2.703 -0.3596 -0.2353  0.1142
   65BOLB   C1B 1545  10.572   7.931   1.892 -0.0591 -0.0700  0.2918
   65BOLB   C2B 1546  10.591   8.235   2.213 -0.0798  0.1710  0.0067
   65BOLB   C3B 1547  10.675   8.544   2.514 -0.3895 -0.2242 -0.0570
   65BOLB   C4B 1548  10.269   8.615   2.696 -0.0808 -0.0268  0.1394
   65BOLB   NC2 1549  11.932   8.786   1.013  0.0064  0.1429 -0.0838
   65BOLB   PO2 1550  12.047   8.408   1.165  0.0839  0.1079 -0.1752
   65BOLB   GL3 1551  11.959   8.315   1.628 -0.2359  0.0874  0.2993
   65BOLB   GL4 1552  12.107   8.042   1.641  0.0544  0.2591 -0.1997
   65BOLB   C1C 1553  11.877   8.250   2.074  0.3482  0.2388 -0.2352
   65BOLB   C2C 1554  11.536   8.174   2.303 -0.0881 -0.0789  0.2915
   65BOLB   C3C 1555  11.407   8.053   2.611 -0.0451  0.4791 -0.1806
   65BOLB   C4C 1556  10.936   8.116   2.683 -0.0441  0.1780 -0.0316
   65BOLB   C1D 1557  12.462   8.161   1.965  0.0515  0.1677  0.1886
   65BOLB   C2D 1558  12.829   7.860   2.088 -0.0805 -0.1075  0.0515
   65BOLB   C3D 1559  12.787   7.448   2.226  0.2238 -0.0759 -0.2178
   65BOLB   C4D 1560  12.867   7.210   2.633  0.0676  0.0561  0.0897
   66BOLB   NC1 1561  12.395   6.196   1.149  0.4216 -0.0009 -0.2375
   66BOLB   PO1 1562  11.938   6.273   1.318  0.0683  0.4966  0.2474
   66BOLB   GL1 1563  12.135   6.094   1.679 -0.1931  0.0054  0.1361
   66BOLB   GL2 1564  11.856   5.870   1.736  0.4723 -0.3506  0.1442
   66BOLB   C1A 1565  12.525   5.861   1.914  0.2180  0.1352 -0.2958
   66BOLB   C2A 1566  12.854   5.958   2.158  0.1482  0.0648  0.3015
   66BOLB   C3A 1567  12.957   6.269   2.367 -0.0656  0.1035  0.1073
   66BOLB   C4A 1568  13.297   6.430   2.464 -0.3391  0.3728  0.4588
   66BOLB   C1B 1569  11.662   6.143   2.073  0.0896  0.3856  0.1566
   66BOLB   C2B 1570  11.571   6.491   1.969  0.1407 -0.0508 -0.1600
   66BOLB   C3B 1571  11.103   6.673   2.196  0.0948  0.1180 -0.1517
   66BOLB   C4B 1572  10.625   6.840   2.282  0.0332  0.2724 -0.1040
   66BOLB   NC2 1573  13.439   8.100   0.912  0.1958 -0.1408  0.1853
   66BOLB   PO2 1574  13.848   8.010   0.985  0.1511  0.1376  0.0937
   66BOLB   GL3 1575  13.650   8.115   1.394  0.2009  0.2623  0.4635
   66BOLB   GL4 1576  13.417   8.367   1.359 -0.2993 -0.0927  0.2278
   66BOLB   C1C 1577  13.402   8.080   1.883 -0.1571  0.1594  0.1701
   66BOLB   C2C 1578  13.325   7.821   2.217  0.1647  0.1263 -0.1302
   66BOLB   C3C 1579  13.235   7.396   2.435  0.0285 -0.1237  0.2710
   66BOLB   C4C 1580  13.318   6.933   2.427 -0.1442  0.2364 -0.0700
   66BOLB   C1D 1581  13.244   8.634   1.706  0.0163 -0.2270  0.0989
   66BOLB   C2D 1582  12.911   8.446   1.985  0.2375  0.1791 -0.0179
   66BOLB   C3D 1583  12.699   8.299   2.382 -0.0354 -0.0206 -0.2050
   66BOLB   C4D 1584  12.385   7.971   2.581  0.0511  0.1058  0.1315
   67BOLB   NC1 1585  17.370  16.703  11.261  0.1338  0.1292  0.2200
   67BOLB   PO1 1586  17.561  17.011  11.285  0.2095  0.1555  0.3014
   67BOLB   GL1 1587  17.393  17.370  11.138  0.0488 -0.2163  0.0309
   67BOLB   GL2 1588  17.267  17.394  10.833  0.2392 -0.1991 -0.3148
   67BOLB   C1A 1589  17.624  17.755  10.983 -0.0995 -0.1076 -0.0770
   67BOLB   C2A 1590  17.597  18.090  10.691  0.0070  0.3160  0.0406
   67BOLB   C3A 1591  17.263  18.237  10.371 -0.0786 -0.0096  0.1582
   67BOLB   C4A 1592  17.004  18.438  10.054  0.0850 -0.1280 -0.3827
   67BOLB   C1B 1593  17.247  17.743  10.572  0.2687 -0.0414 -0.0098
   67BOLB   C2B 1594  17.093  17.772  10.156 -0.2221 -0.2431  0.1934
   67BOLB   C3B 1595  17.168  18.035   9.834  0.0171  0.3445 -0.1056
   67BOLB   C4B 1596  17.122  18.249   9.437 -0.2913 -0.1302  0.3016
   67BOLB   NC2 1597  16.711  20.577   9.452  0.3495 -0.0498  0.0724
   67BOLB   PO2 1598  17.099  20.683   9.200  0.1235 -0.0600  0.0601
   67BOLB   GL3 1599  17.164  20.318   9.258  0.1871  0.4548  0.0262
   67BOLB   GL4 1600  17.389  20.108   9.192  0.0254  0.0853  0.1207
   67BOLB   C1C 1601  16.853  19.942   9.498  0.3117 -0.2119 -0.1270
   67BOLB   C2C 1602  16.695  19.489   9.593  0.1380 -0.0562  0.4743
   67BOLB   C3C 1603  16.782  19.003   9.603 -0.0614 -0.0639  0.0254
   67BOLB   C4C 1604  16.895  18.650   9.662 -0.1266 -0.1738  0.0530
   67BOLB   C1D 1605  17.345  19.711   9.422  0.2803 -0.0684 -0.2758
   67BOLB   C2D 1606  17.172  19.446   9.763  0.0011  0.0985 -0.0421
   67BOLB   C3D 1607  16.756  19.391  10.054 -0.2341  0.5826 -0.0123
   67BOLB   C4D 1608  16.773  19.142  10.453 -0.0086 -0.1889 -0.3553
   68BOLB   NC1 1609  14.159  31.625   7.931 -0.1581  0.1841  0.2769
   68BOLB   PO1 1610  14.318  32.137   7.910  0.2578 -0.0343  0.0904
   68BOLB   GL1 1611  14.272  32.370   8.301 -0.1174 -0.0357  0.4444
   68BOLB   GL2 1612  14.409  32.550   8.548 -0.0536 -0.0010  0.0152
   68BOLB   C1A 1613  13.893  32.591   8.389  0.0921  0.0201 -0.0264
   68BOLB   C2A 1614  13.583  33.019   8.498  0.0024  0.0583  0.1101
   68BOLB   C3A 1615  13.462  33.404   8.513 -0.1061 -0.1323  0.1803
   68BOLB   C4A 1616  13.283  33.811   8.390 -0.4583 -0.1441  0.2721
   68BOLB   C1B 1617  14.087  32.661   8.815 -0.0052  0.3241 -0.3928
   68BOLB   C2B 1618  13.871  33.056   8.914 -0.1474  0.1196 -0.1001
   68BOLB   C3B 1619  13.628  33.355   8.966 -0.1040  0.1708 -0.1871
   68BOLB   C4B 1620  13.593  33.470   9.363 -0.0084  0.0135  0.1464
   68BOLB   NC2 1621  11.203  33.266   8.063 -0.4875 -0.5079  0.2105
   68BOLB   PO2 1622  11.162  33.620   7.706  0.3843  0.1080 -0.3391
   68BOLB   GL3 1623  11.441  33.936   7.976 -0.0695 -0.0216 -0.2353
   68BOLB   GL4 1624  11.264  34.162   7.871  0.1213  0.0994  0.2243
   68BOLB   C1C 1625  11.844  34.111   8.075 -0.2061 -0.5537 -0.0447
   68BOLB   C2C 1626  12.290  34.259   8.040  0.1837 -0.1259 -0.1644
   68BOLB   C3C 1627  12.590  34.242   8.226 -0.1732  0.0989  0.0019
   68BOLB   C4C 1628  13.037  34.144   8.385  0.0853 -0.0781 -0.3854
   68BOLB   C1D 1629  10.994  34.606   7.876  0.2852  0.4020  0.3028
   68BOLB   C2D 1630  10.701  34.944   8.006 -0.3108 -0.1178  0.4676
   68BOLB   C3D 1631  10.462  35.246   8.169  0.4468 -0.1773 -0.1168
   68BOLB   C4D 1632  10.470  35.609   8.175  0.1197 -0.1970  0.0185
   69BOLB   NC1 1633  19.233  16.908  12.011  0.0894  0.3235 -0.0219
   69BOLB   PO1 1634  19.681  16.833  11.891 -0.0744 -0.2067 -0.1078
   69BOLB   GL1 1635  20.036  17.137  11.657  0.0680  0.1262 -0.0525
   69BOLB   GL2 1636  20.073  16.981  11.364 -0.1745 -0.3112 -0.4071
   69BOLB   C1A 1637  20.109  17.513  11.629 -0.0990  0.2167  0.0643
   69BOLB   C2A 1638  20.169  17.837  11.265  0.0583 -0.2605  0.2560
   69BOLB   C3A 1639  19.887  18.146  11.042  0.1640  0.2823  0.0389
   69BOLB   C4A 1640  19.677  18.500  10.990 -0.2040  0.0277 -0.1350
   69BOLB   C1B 1641  20.235  17.348  11.124 -0.4713  0.1014  0.0743
   69BOLB   C2B 1642  20.552  17.678  10.922  0.0936 -0.0260 -0.0883
   69BOLB   C3B 1643  20.747  18.005  10.568 -0.3179 -0.3818  0.2042
   69BOLB   C4B 1644  20.737  17.912  10.206 -0.2326 -0.0437  0.1685
   69BOLB   NC2 1645  19.282  20.565  10.070 -0.3448  0.4018  0.0048
   69BOLB   PO2 1646  18.854  20.719  10.127  0.1424 -0.0412 -0.4364
   69BOLB   GL3 1647  18.957  20.342  10.383 -0.0603  0.3478  0.1326
   69BOLB   GL4 1648  18.747  20.276  10.726  0.2080  0.2629  0.0809
   69BOLB   C1C 1649  19.067  19.952  10.513  0.1227 -0.2505 -0.0410
   69BOLB   C2C 1650  19.201  19.653  10.804 -0.1870  0.0465  0.1428
   69BOLB   C3C 1651  19.225  19.193  10.707  0.2401  0.1598 -0.3037
   69BOLB   C4C 1652  19.459  18.851  10.979  0.3171  0.3011 -0.3261
   69BOLB   C1D 1653  18.718  19.971  10.994 -0.4520  0.1440  0.1048
   69BOLB   C2D 1654  18.458  19.628  11.243  0.2374 -0.1178 -0.1672
   69BOLB   C3D 1655  18.142  19.425  11.518  0.0001  0.1809  0.1888
   69BOLB   C4D 1656  17.997  18.972  11.546 -0.2318  0.2123 -0.0454
   70BOLB   NC1 1657  10.834  36.078   4.690  0.1799  0.4277 -0.1402
   70BOLB   PO1 1658  11.018  36.287   5.004 -0.0705 -0.0541 -0.2435
   70BOLB   GL1 1659  11.207  36.712   5.236  0.4458  0.2309 -0.2300
   70BOLB   GL2 1660  11.081  36.917   5.438 -0.0630 -0.1450  0.0279
   70BOLB   C1A 1661  11.577  36.909   5.402  0.1669 -0.2463 -0.0273
   70BOLB   C2A 1662  11.902  36.905   5.240 -0.3349 -0.3039  0.1601
   70BOLB   C3A 1663  12.315  37.017   5.331  0.2068  0.0258 -0.1528
   70BOLB   C4A 1664  12.583  37.331   5.304 -0.1087  0.0331  0.0938
   70BOLB   C1B 1665  11.160  36.867   5.915  0.2182  0.1443 -0.1227
   70BOLB   C2B 1666  11.452  37.057   6.240 -0.0937  0.0975 -0.0763
   70BOLB   C3B 1667  11.846  37.239   6.192 -0.1525  0.1525 -0.1743
   70BOLB   C4B 1668  12.122  37.439   6.005  0.1456 -0.0820  0.0589
   70BOLB   NC2 1669  14.159  36.414   3.934  0.1384 -0.1382 -0.0977
   70BOLB   PO2 1670  13.814  36.697   3.781  0.5461  0.0787  0.1449
   70BOLB   GL3 1671  13.939  36.684   4.270  0.0864 -0.0763  0.1847
   70BOLB   GL4 1672  14.219  36.596   4.408  0.0910 -0.0287 -0.2149
   70BOLB   C1C 1673  13.890  37.023   4.457  0.1629 -0.0331  0.2497
   70BOLB   C2C 1674  13.708  37.183   4.852 -0.3275 -0.0228 -0.0104
   70BOLB   C3C 1675  13.428  37.359   5.255 -0.1577 -0.2416 -0.1900
   70BOLB   C4C 1676  13.059  37.388   5.257  0.2669 -0.4497  0.2180
   70BOLB   C1D 1677  14.169  36.808   4.864 -0.3688  0.1866 -0.4439
   70BOLB   C2D 1678  14.179  36.716   5.330  0.0664  0.2164 -0.1037
   70BOLB   C3D 1679  13.766  36.526   5.581  0.2446  0.1562  0.0137
   70BOLB   C4D 1680  13.573  36.705   6.002  0.0098 -0.2143 -0.0072
   71BOLB   NC1 1681   2.982   2.173  17.249  0.1076 -0.0492 -0.0012
   71BOLB   PO1 1682   3.168   1.821  17.394 -0.1287 -0.1481  0.0446
   71BOLB   GL1 1683   3.402   2.209  17.603  0.3180  0.2893 -0.0207
   71BOLB   GL2 1684   3.318   2.375  17.799 -0.0449  0.1380  0.1484
   71BOLB   C1A 1685   3.574   2.506  17.358  0.1807  0.0443  0.4111
   71BOLB   C2A 1686   3.798   2.864  16.994 -0.1137  0.1401  0.2424
   71BOLB   C3A 1687   4.050   2.898  16.740  0.1085  0.0552  0.4928
   71BOLB   C4A 1688   4.107   2.960  16.306  0.1809  0.3987 -0.0046
   71BOLB   C1B 1689   3.275   2.870  17.953  0.2591 -0.2377 -0.0818
   71BOLB   C2B 1690   3.422   3.317  17.966  0.1355  0.3708  0.0155
   71BOLB   C3B 1691   3.355   3.597  17.657 -0.1034  0.1056 -0.0207
   71BOLB   C4B 1692   3.137   3.865  17.531 -0.3819  0.2270 -0.0476
   71BOLB   NC2 1693   1.755   2.220  16.832  0.0106  0.1912 -0.1834
   71BOLB   PO2 1694   2.004   2.489  16.560  0.0406  0.2293 -0.1892
   71BOLB   GL3 1695   2.372   2.494  16.265  0.0952  0.1938  0.1440
   71BOLB   GL4 1696   2.586   2.418  16.316  0.1876 -0.1687  0.0678
   71BOLB   C1C 1697   2.628   2.664  15.860  0.1041  0.1622 -0.5908
   71BOLB   C2C 1698   3.049   2.789  15.754  0.0036  0.1047  0.0672
   71BOLB   C3C 1699   3.483   2.886  15.942 -0.0968  0.2156  0.1000
   71BOLB   C4C 1700   3.905   3.005  15.878 -0.0356  0.1165  0.5340
   71BOLB   C1D 1701   3.064   2.566  16.203 -0.1532  0.2426 -0.0896
   71BOLB   C2D 1702   3.476   2.338  16.099  0.2591  0.0560  0.0400
   71BOLB   C3D 1703   3.679   1.957  16.192 -0.1087 -0.0048  0.0153
   71BOLB   C4D 1704   4.072   2.070  16.041 -0.0166  0.1000 -0.2166
   72BOLB   NC1 1705   3.952   7.817  19.291 -0.2218  0.0148 -0.1690
   72BOLB   PO1 1706   4.261   7.946  19.513 -0.6260 -0.2408 -0.4492
   72BOLB   GL1 1707   4.531   7.920  19.241 -0.0708 -0.2258  0.0233
   72BOLB   GL2 1708   4.454   7.852  18.978 -0.1449  0.1744 -0.2327
   72BOLB   C1A 1709   4.924   7.980  19.184  0.3139  0.1035 -0.1377
   72BOLB   C2A 1710   5.322   8.008  18.996  0.0169  0.1885  0.0266
   72BOLB   C3A 1711   5.658   7.805  18.981 -0.0798  0.0793  0.2339
   72BOLB   C4A 1712   6.010   7.483  18.889 -0.2336  0.1426  0.0112
   72BOLB   C1B 1713   4.749   7.990  18.630  0.2166 -0.1308  0.0246
   72BOLB   C2B 1714   5.168   8.192  18.472  0.1259 -0.1317  0.1465
   72BOLB   C3B 1715   5.401   8.547  18.179 -0.1438  0.0276 -0.0748
   72BOLB   C4B 1716   5.787   8.549  18.125 -0.0636  0.2806  0.1116
   72BOLB   NC2 1717   4.794   6.567  20.456  0.0063 -0.1963  0.4361
   72BOLB   PO2 1718   4.669   6.934  20.135 -0.2619  0.0230  0.2397
   72BOLB   GL3 1719   5.041   6.921  19.824 -0.1392  0.0282  0.0219
   72BOLB   GL4 1720   5.276   7.024  19.921 -0.2957  0.1053  0.2672
   72BOLB   C1C 1721   5.071   6.822  19.440  0.0175 -0.1013 -0.1920
   72BOLB   C2C 1722   5.265   6.785  18.992  0.1557 -0.1009 -0.0789
   72BOLB   C3C 1723   5.616   6.753  18.736  0.3041  0.2719 -0.0363
   72BOLB   C4C 1724   5.914   7.081  18.695  0.0838 -0.3272  0.5077
   72BOLB   C1D 1725   5.769   7.018  19.862 -0.0935 -0.1567 -0.0386
   72BOLB   C2D 1726   6.208   7.091  19.746 -0.3230 -0.1473 -0.2698
   72BOLB   C3D 1727   6.650   7.170  20.027  0.0223 -0.3515  0.0850
   72BOLB   C4D 1728   6.783   7.516  20.282  0.0528  0.0741  0.0939
   73BOLB   NC1 1729  11.056   6.652   0.872 -0.0038 -0.1543  0.6127
   73BOLB   PO1 1730  10.731   6.769   0.830  0.3088  0.0730 -0.0447
   73BOLB   GL1 1731  10.860   7.238   1.124 -0.0487  0.0284 -0.1400
   73BOLB   GL2 1732  10.725   7.488   1.114 -0.0408  0.0535 -0.4244
   73BOLB   C1A 1733  11.066   7.389   1.556 -0.0148 -0.1084 -0.0971
   73BOLB   C2A 1734  11.427   7.537   1.793 -0.0485 -0.2409 -0.1261
   73BOLB   C3A 1735  11.444   7.642   2.275  0.1840  0.2012 -0.0667
   73BOLB   C4A 1736  11.102   7.542   2.726 -0.2955  0.2539  0.1462
   73BOLB   C1B 1737  10.912   7.822   1.365 -0.0111 -0.0168 -0.1230
   73BOLB   C2B 1738  11.056   7.934   1.670 -0.0568  0.1646 -0.4769
   73BOLB   C3B 1739  10.916   8.318   1.813  0.1973  0.2847 -0.2680
   73BOLB   C4B 1740  10.817   8.628   2.034 -0.0652  0.2224  0.0843
   73BOLB   NC2 1741  10.226   7.552   1.157 -0.2205  0.0020 -0.3955
   73BOLB   PO2 1742   9.924   7.977   1.258  0.0137 -0.0339 -0.3471
   73BOLB   GL3 1743   9.853   8.173   1.687 -0.2121 -0.1480 -0.2370
   73BOLB   GL4 1744   9.846   8.495   1.805  0.4796 -0.1729  0.1542
   73BOLB   C1C 1745  10.084   7.961   2.030  0.0779  0.0638 -0.3527
   73BOLB   C2C 1746  10.250   7.676   2.374 -0.2427  0.0789  0.0378
   73BOLB   C3C 1747  10.372   7.543   2.879 -0.3301  0.2148  0.0764
   73BOLB   C4C 1748  10.729   7.622   2.952  0.3067  0.0359 -0.3897
   73BOLB   C1D 1749  10.044   8.930   1.828 -0.1250 -0.2252 -0.0319
   73BOLB   C2D 1750  10.254   9.278   1.929  0.0589 -0.3619 -0.1174
   73BOLB   C3D 1751  10.151   9.475   2.222  0.0936  0.3200  0.0085
   73BOLB   C4D 1752   9.795   9.394   2.371  0.2257  0.1961  0.0860
   74BOLB   NC1 1753  12.251  32.770   8.343 -0.0587  0.1317  0.0522
   74BOLB   PO1 1754  12.086  32.558   8.616 -0.4161 -0.1730  0.0875
   74BOLB   GL1 1755  12.110  32.999   8.787 -0.0688 -0.1612 -0.0045
   74BOLB   GL2 1756  12.440  33.142   8.689 -0.1109 -0.1071  0.0170
   74BOLB   C1A 1757  12.131  33.500   8.699 -0.0530  0.1910  0.6169
   74BOLB   C2A 1758  12.223  33.894   8.954 -0.0831  0.2577  0.0591
   74BOLB   C3A 1759  12.505  34.130   9.213 -0.1325  0.0118  0.0376
   74BOLB   C4A 1760  12.707  33.956   9.620 -0.2302  0.0089  0.0102
   74BOLB   C1B 1761  12.554  33.487   8.989 -0.0805  0.0457 -0.0312
   74BOLB   C2B 1762  12.350  33.708   9.407 -0.0985 -0.0611  0.1626
   74BOLB   C3B 1763  12.025  33.941   9.621  0.0214 -0.0032  0.1028
   74BOLB   C4B 1764  11.839  34.371   9.721  0.4488  0.0767 -0.0969
   74BOLB   NC2 1765  11.713  32.327   8.895  0.0572 -0.1068 -0.0780
   74BOLB   PO2 1766  11.691  32.487   9.264  0.1243 -0.0321  0.1548
   74BOLB   GL3 1767  11.551  32.909   9.365 -0.0378  0.2656  0.1911
   74BOLB   GL4 1768  11.871  33.042   9.255 -0.0810 -0.0596 -0.3692
   74BOLB   C1C 1769  11.579  33.161   9.696 -0.1958 -0.0815 -0.1565
   74BOLB   C2C 1770  11.781  33.541   9.952  0.1713 -0.1048  0.2704
   74BOLB   C3C 1771  12.192  33.600  10.071  0.1497  0.1358 -0.1059
   74BOLB   C4C 1772  12.488  33.884   9.956  0.0854  0.1537  0.3301
   74BOLB   C1D 1773  11.877  33.500   9.127 -0.0844  0.0990  0.2406
   74BOLB   C2D 1774  11.761  33.910   9.231 -0.3945 -0.0784  0.0279
   74BOLB   C3D 1775  11.994  34.276   9.149 -0.1172 -0.1665 -0.3499
   74BOLB   C4D 1776  12.209  34.723   8.992 -0.1473  0.1740  0.1981
   75BOLB   NC1 1777   3.192   1.345  16.126  0.1860 -0.2280 -0.1202
   75BOLB   PO1 1778   3.340   0.977  16.308 -0.0217 -0.0452  0.4007
   75BOLB   GL1 1779   3.675   1.157  16.442  0.3169  0.0280 -0.3507
   75BOLB   GL2 1780   3.878   1.138  16.121  0.1069 -0.0059 -0.0365
   75BOLB   C1A 1781   3.706   1.596  16.513 -0.1854  0.0637 -0.0028
   75BOLB   C2A 1782   4.026   2.002  16.609  0.0254  0.0634 -0.0600
   75BOLB   C3A 1783   3.949   2.419  16.448 -0.4471 -0.0768  0.1451
   75BOLB   C4A 1784   3.623   2.723  16.457 -0.3217 -0.1004  0.3033
   75BOLB   C1B 1785   4.081   1.370  16.190  0.0994 -0.0560 -0.0373
   75BOLB   C2B 1786   4.529   1.367  16.157  0.3323 -0.2731 -0.4335
   75BOLB   C3B 1787   4.883   1.012  16.298  0.2113  0.0231  0.0706
   75BOLB   C4B 1788   4.995   0.675  16.678  0.0290 -0.0110  0.0748
   75BOLB   NC2 1789   2.693   3.963  17.942  0.0264  0.0535 -0.0546
   75BOLB   PO2 1790   2.368   4.233  17.874 -0.3298  0.1004 -0.1213
   75BOLB   GL3 1791   2.698   4.092  17.387 -0.0993  0.0277  0.4120
   75BOLB   GL4 1792   2.797   4.389  17.145  0.2291  0.2831 -0.2030
   75BOLB   C1C 1793   2.890   3.916  17.057  0.2620 -0.1573 -0.2637
   75BOLB   C2C 1794   3.089   3.888  16.660  0.1036  0.1384  0.1267
   75BOLB   C3C 1795   3.067   3.478  16.519 -0.2620 -0.5053  0.0376
   75BOLB   C4C 1796   3.225   2.994  16.326 -0.1599 -0.0931  0.0252
   75BOLB   C1D 1797   3.046   4.364  16.779  0.2241 -0.1503 -0.1279
   75BOLB   C2D 1798   2.941   4.347  16.466 -0.2597 -0.2152 -0.1978
   75BOLB   C3D 1799   3.247   4.307  16.129 -0.1112 -0.2473 -0.1863
   75BOLB   C4D 1800   3.468   4.283  15.640  0.0980  0.1777  0.0797
   76BOLB   NC1 1801  21.967  16.291  14.940 -0.0038 -0.3961 -0.2350
   76BOLB   PO1 1802  22.203  16.015  14.754  0.0498 -0.1396  0.1931
   76BOLB   GL1 1803  22.529  16.353  14.744  0.0133 -0.2947 -0.1892
   76BOLB   GL2 1804  22.405  16.540  14.942 -0.0551 -0.2756  0.2987
   76BOLB   C1A 1805  22.909  16.581  14.934 -0.0446 -0.3138  0.0097
   76BOLB   C2A 1806  23.258  16.617  14.644 -0.1423  0.0724 -0.1346
   76BOLB   C3A 1807  23.688  16.689  14.651 -0.1172  0.0565  0.3990
   76BOLB   C4A 1808  24.148  16.721  14.609  0.0804  0.1929 -0.1008
   76BOLB   C1B 1809  22.581  16.972  15.105 -0.0018 -0.2287 -0.1833
   76BOLB   C2B 1810  22.594  17.319  15.503  0.0706 -0.2546  0.0951
   76BOLB   C3B 1811  22.673  17.628  15.531 -0.1206 -0.2403  0.3295
   76BOLB   C4B 1812  22.655  18.016  15.688  0.0468  0.2306  0.0819
   76BOLB   NC2 1813  26.447  17.844  14.423 -0.2317 -0.0578 -0.2105
   76BOLB   PO2 1814  25.966  17.984  14.510 -0.1526 -0.2136  0.1259
   76BOLB   GL3 1815  25.914  17.536  14.581  0.0105 -0.1620 -0.0092
   76BOLB   GL4 1816  25.613  17.437  14.493  0.3605 -0.3751 -0.2136
   76BOLB   C1C 1817  25.720  17.317  14.973 -0.0223  0.1286 -0.0723
   76BOLB   C2C 1818  25.352  17.009  14.947  0.2928  0.2028  0.0034
   76BOLB   C3C 1819  25.041  16.748  14.772  0.1290 -0.1061  0.0653
   76BOLB   C4C 1820  24.577  16.795  14.726 -0.2080  0.2739 -0.4626
   76BOLB   C1D 1821  25.247  17.456  14.665 -0.2606  0.0894 -0.2312
   76BOLB   C2D 1822  24.807  17.331  14.760  0.4249 -0.0464  0.1441
   76BOLB   C3D 1823  24.453  17.286  14.914 -0.2097 -0.2547 -0.0319
   76BOLB   C4D 1824  24.313  16.983  15.109  0.2342  0.0793 -0.2236
   77BOLB   NC1 1825  20.034   2.300  16.191  0.2431  0.4638  0.0783
   77BOLB   PO1 1826  19.605   2.056  16.042 -0.2613 -0.0705  0.2741
   77BOLB   GL1 1827  19.731   1.643  16.135 -0.2661  0.3833  0.0061
   77BOLB   GL2 1828  19.531   1.540  16.439  0.2233 -0.0675  0.3134
   77BOLB   C1A 1829  19.955   1.263  16.280 -0.0617  0.0093  0.3581
   77BOLB   C2A 1830  20.017   0.993  16.573 -0.0190  0.5270  0.2849
   77BOLB   C3A 1831  20.297   0.839  16.851 -0.1617  0.1806  0.1061
   77BOLB   C4A 1832  20.660   0.460  16.914 -0.1651  0.2570  0.3435
   77BOLB   C1B 1833  19.451   1.065  16.541 -0.3056 -0.2221 -0.2775
   77BOLB   C2B 1834  19.584   0.722  16.568  0.3556 -0.0804 -0.3916
   77BOLB   C3B 1835  19.976   0.492  16.656  0.4053  0.0044 -0.2650
   77BOLB   C4B 1836  20.281   0.337  16.584 -0.1055  0.2565 -0.1329
   77BOLB   NC2 1837  21.242  -1.673  17.849 -0.0284 -0.0518  0.1703
   77BOLB   PO2 1838  21.116  -1.479  18.261 -0.1425  0.4905  0.1147
   77BOLB   GL3 1839  20.774  -1.099  18.053 -0.0362  0.1912 -0.2352
   77BOLB   GL4 1840  20.539  -1.000  18.114 -0.0371 -0.2571  0.1413
   77BOLB   C1C 1841  20.889  -0.756  17.734 -0.1498  0.0836  0.0574
   77BOLB   C2C 1842  21.136  -0.494  17.570  0.0928 -0.3083  0.1200
   77BOLB   C3C 1843  20.967  -0.260  17.235 -0.0299 -0.0392 -0.1325
   77BOLB   C4C 1844  20.900   0.158  17.014 -0.2452 -0.0042  0.2246
   77BOLB   C1D 1845  20.372  -0.775  17.828  0.2304 -0.0161  0.0455
   77BOLB   C2D 1846  20.417  -0.469  17.469 -0.1617  0.0016 -0.1751
   77BOLB   C3D 1847  20.105  -0.207  17.370 -0.0771 -0.0018  0.1552
   77BOLB   C4D 1848  19.925   0.216  17.430  0.2643 -0.0872  0.4029
   78BOLB   NC1 1849   4.650  11.448   6.067 -0.0684 -0.0260 -0.1891
   78BOLB   PO1 1850   4.450  11.105   6.167  0.3005 -0.0177  0.2249
   78BOLB   GL1 1851   4.578  11.162   6.512 -0.2018  0.0067 -0.0016
   78BOLB   GL2 1852   4.432  11.399   6.621 -0.1244  0.2729 -0.2277
   78BOLB   C1A 1853   4.570  11.083   6.950 -0.0397  0.3236  0.2195
   78BOLB   C2A 1854   4.596  11.066   7.313  0.1124 -0.1680  0.0515
   78BOLB   C3A 1855   4.384  10.778   7.637  0.2257  0.3314 -0.3750
   78BOLB   C4A 1856   4.182  10.569   7.984  0.2628 -0.0019  0.0751
   78BOLB   C1B 1857   4.561  11.636   7.060  0.0698  0.1968 -0.3860
   78BOLB   C2B 1858   4.807  11.580   7.422  0.1115 -0.3989 -0.0638
   78BOLB   C3B 1859   4.868  11.590   7.962 -0.1126  0.0711  0.0179
   78BOLB   C4B 1860   4.919  11.774   8.420 -0.1545  0.0473  0.2056
   78BOLB   NC2 1861   2.143   8.733   8.475  0.4967 -0.1070 -0.0262
   78BOLB   PO2 1862   2.459   9.135   8.451 -0.1781  0.4036 -0.1541
   78BOLB   GL3 1863   2.838   9.011   8.357  0.1635 -0.0598 -0.0490
   78BOLB   GL4 1864   2.861   8.744   8.519  0.1678 -0.0925  0.0074
   78BOLB   C1C 1865   3.161   9.178   8.455 -0.1451  0.3331  0.5466
   78BOLB   C2C 1866   3.391   9.499   8.467  0.1834 -0.0822 -0.0097
   78BOLB   C3C 1867   3.639   9.854   8.266  0.2520  0.0822  0.0547
   78BOLB   C4C 1868   3.836  10.174   7.936 -0.4292 -0.1090  0.2667
   78BOLB   C1D 1869   3.253   8.724   8.397 -0.2088 -0.1169 -0.0930
   78BOLB   C2D 1870   3.692   8.877   8.383 -0.1421  0.0473  0.0220
   78BOLB   C3D 1871   4.118   8.937   8.550 -0.0605  0.2120 -0.2799
   78BOLB   C4D 1872   4.522   9.070   8.671  0.1667 -0.0471 -0.3410
   79BOLB   NC1 1873  10.844  12.532  10.828 -0.2937 -0.0110 -0.0226
   79BOLB   PO1 1874  10.857  12.951  10.551 -0.0744  0.1039  0.1822
   79BOLB   GL1 1875  10.508  13.068  10.317  0.0999 -0.2274 -0.0399
   79BOLB   GL2 1876  10.679  13.118  10.004  0.1291 -0.1194  0.0534
   79BOLB   C1A 1877  10.276  13.318   9.896  0.1493 -0.0180  0.1069
   79BOLB   C2A 1878   9.958  13.596   9.703 -0.0832  0.1643 -0.0046
   79BOLB   C3A 1879   9.545  13.601   9.518  0.0622  0.2404  0.2156
   79BOLB   C4A 1880   9.246  13.524   9.321 -0.1762  0.1667 -0.1059
   79BOLB   C1B 1881  10.772  13.373   9.553 -0.3737 -0.0841  0.2520
   79BOLB   C2B 1882  10.687  13.583   9.115 -0.3528  0.0810 -0.0490
   79BOLB   C3B 1883  10.519  13.781   8.812 -0.1106 -0.3820 -0.2690
   79BOLB   C4B 1884  10.673  14.101   8.555  0.3413  0.3011 -0.1002
   79BOLB   NC2 1885   7.902  14.803   7.686 -0.1635  0.1706  0.0142
   79BOLB   PO2 1886   8.011  14.971   8.144  0.3406  0.4383 -0.0300
   79BOLB   GL3 1887   8.023  14.750   8.519 -0.1022 -0.2328 -0.0359
   79BOLB   GL4 1888   8.386  14.760   8.763  0.3043 -0.2606  0.3038
   79BOLB   C1C 1889   8.222  14.383   8.588  0.1928 -0.1114 -0.0456
   79BOLB   C2C 1890   8.454  14.123   8.797  0.1704  0.3442  0.3213
   79BOLB   C3C 1891   8.639  13.757   8.729  0.1327  0.2379  0.3413
   79BOLB   C4C 1892   8.996  13.422   8.945 -0.1409  0.0714 -0.3611
   79BOLB   C1D 1893   8.649  14.460   9.112 -0.0672 -0.1278 -0.0635
   79BOLB   C2D 1894   8.548  14.291   9.576  0.1729  0.3674  0.1575
   79BOLB   C3D 1895   8.436  14.001   9.860 -0.4947 -0.4734 -0.1448
   79BOLB   C4D 1896   8.485  14.041  10.347  0.0194  0.0645  0.0822
   80BOLB   NC1 1897   3.477  12.763  12.521  0.0624  0.2253 -0.1867
   80BOLB   PO1 1898   3.306  12.504  12.826  0.1213 -0.2505 -0.1606
   80BOLB   GL1 1899   3.233  12.062  12.843 -0.1126 -0.1801 -0.0753
   80BOLB   GL2 1900   3.440  12.017  13.119  0.0790 -0.1204  0.0994
   80BOLB   C1A 1901   3.304  11.698  12.657  0.0125 -0.2625 -0.0932
   80BOLB   C2A 1902   3.697  11.413  12.805  0.1641 -0.2086  0.2611
   80BOLB   C3A 1903   3.773  11.179  13.105 -0.1012  0.2110 -0.1244
   80BOLB   C4A 1904   3.999  11.155  13.556 -0.1262  0.1276  0.1634
   80BOLB   C1B 1905   3.839  11.645  13.234  0.3237  0.1357 -0.1479
   80BOLB   C2B 1906   4.159  11.481  13.082  0.1846 -0.0470  0.1531
   80BOLB   C3B 1907   4.318  11.057  13.075  0.0620 -0.1558 -0.1066
   80BOLB   C4B 1908   4.362  10.658  12.749 -0.0368  0.1627  0.0214
   80BOLB   NC2 1909   3.266  11.611  15.573  0.0176  0.2279 -0.3170
   80BOLB   PO2 1910   3.486  12.017  15.449 -0.2676 -0.0293 -0.1781
   80BOLB   GL3 1911   3.751  11.629  15.309  0.1064 -0.3831  0.4495
   80BOLB   GL4 1912   4.084  11.529  15.573 -0.0897 -0.0121 -0.1963
   80BOLB   C1C 1913   3.904  11.473  15.006 -0.1909  0.2136 -0.5088
   80BOLB   C2C 1914   4.185  11.368  14.687 -0.0642  0.0277  0.2422
   80BOLB   C3C 1915   4.129  11.383  14.260 -0.1490  0.0050  0.2482
   80BOLB   C4C 1916   4.239  11.185  13.928  0.0256 -0.3395  0.1068
   80BOLB   C1D 1917   4.377  11.534  15.197 -0.0976 -0.3315 -0.1813
   80BOLB   C2D 1918   4.552  11.155  15.000  0.0112  0.1883  0.4074
   80BOLB   C3D 1919   4.438  10.900  14.786  0.2885 -0.1777  0.0005
   80BOLB   C4D 1920   4.327  10.458  14.652 -0.1463  0.1976 -0.0142
   81BOLB   NC1 1921  11.892  15.799  12.342  0.0845  0.1850  0.0529
   81BOLB   PO1 1922  11.601  15.497  12.216  0.1597  0.0186 -0.1057
   81BOLB   GL1 1923  11.416  15.840  11.965  0.2918  0.0199 -0.1241
   81BOLB   GL2 1924  11.150  15.558  11.792  0.0921 -0.3651  0.1697
   81BOLB   C1A 1925  11.280  16.054  11.638  0.1114  0.1361  0.1890
   81BOLB   C2A 1926  11.245  16.285  11.258  0.0882 -0.3844 -0.2355
   81BOLB   C3A 1927  11.069  16.534  10.887  0.2014  0.0999 -0.2186
   81BOLB   C4A 1928  11.079  16.952  11.080 -0.0316 -0.3060 -0.1331
   81BOLB   C1B 1929  10.833  15.786  11.664  0.1505 -0.3193 -0.1012
   81BOLB   C2B 1930  10.557  15.797  11.370 -0.0277 -0.1308 -0.4673
   81BOLB   C3B 1931  10.220  15.965  11.128  0.2300 -0.3934  0.0539
   81BOLB   C4B 1932  10.200  15.977  10.737 -0.0533 -0.0223 -0.0928
   81BOLB   NC2 1933  10.130  18.884   9.954  0.3346 -0.2909 -0.0745
   81BOLB   PO2 1934  10.081  18.550   9.606 -0.1546  0.2757  0.0530
   81BOLB   GL3 1935  10.362  18.236   9.739  0.0220  0.0490 -0.1083
   81BOLB   GL4 1936  10.249  17.879   9.574 -0.3143 -0.1708  0.3134
   81BOLB   C1C 1937  10.343  17.951  10.032  0.0422  0.1036 -0.1098
   81BOLB   C2C 1938  10.687  17.663  10.184  0.0894 -0.3596  0.1930
   81BOLB   C3C 1939  10.963  17.655  10.462  0.2124 -0.0022  0.2630
   81BOLB   C4C 1940  11.015  17.267  10.787  0.2343  0.1376  0.1467
   81BOLB   C1D 1941  10.057  17.484   9.814  0.1932  0.0732  0.3880
   81BOLB   C2D 1942   9.886  17.133  10.048 -0.0004 -0.2358 -0.0773
   81BOLB   C3D 1943   9.667  16.755  10.166  0.5869 -0.0430 -0.0426
   81BOLB   C4D 1944   9.717  16.374  10.000  0.1248 -0.0588 -0.0521
   82BOLB   NC1 1945  19.991  16.546   5.325  0.3327  0.0314 -0.2484
   82BOLB   PO1 1946  20.320  16.364   5.703 -0.3895  0.0454  0.1272
   82BOLB   GL1 1947  20.140  16.403   6.225 -0.1812  0.0345  0.3074
   82BOLB   GL2 1948  20.304  16.449   6.479  0.1757  0.3292  0.2760
   82BOLB   C1A 1949  19.915  16.248   6.616  0.0770  0.3141 -0.0528
   82BOLB   C2A 1950  19.948  16.334   7.054 -0.0822  0.1249  0.1148
   82BOLB   C3A 1951  19.892  16.491   7.499 -0.5664 -0.0755 -0.2496
   82BOLB   C4A 1952  19.770  16.776   7.792  0.0461 -0.0203  0.0990
   82BOLB   C1B 1953  20.245  16.714   6.883  0.0529 -0.1480 -0.1313
   82BOLB   C2B 1954  20.136  16.936   7.230 -0.0839 -0.0181  0.3842
   82BOLB   C3B 1955  20.291  17.300   7.417  0.0078 -0.1292 -0.0143
   82BOLB   C4B 1956  20.539  17.608   7.713 -0.0013  0.0275 -0.1670
   82BOLB   NC2 1957  21.284  18.896   7.794  0.4479  0.0084  0.1959
   82BOLB   PO2 1958  21.374  18.527   8.033 -0.2618 -0.1708 -0.1625
   82BOLB   GL3 1959  21.117  18.101   8.199 -0.0012  0.0727 -0.1171
   82BOLB   GL4 1960  21.283  17.889   8.412 -0.0839 -0.1741  0.0941
   82BOLB   C1C 1961  20.825  17.756   8.116 -0.0428  0.3380 -0.0068
   82BOLB   C2C 1962  20.772  17.327   8.058 -0.0356 -0.0818 -0.1037
   82BOLB   C3C 1963  20.546  17.102   7.883  0.0287  0.1322  0.0066
   82BOLB   C4C 1964  20.186  16.958   7.772  0.0975 -0.1628  0.1363
   82BOLB   C1D 1965  20.947  17.527   8.589  0.4791  0.0750  0.0783
   82BOLB   C2D 1966  20.758  17.131   8.512 -0.3572 -0.1897 -0.2005
   82BOLB   C3D 1967  20.798  16.654   8.651 -0.0272  0.3103 -0.0362
   82BOLB   C4D 1968  20.512  16.275   8.872  0.0992 -0.0552 -0.0387
   83BOLB   NC1 1969  12.749  33.525  16.712  0.4166  0.2099  0.2274
   83BOLB   PO1 1970  12.562  33.096  16.550 -0.3346  0.1441 -0.1426
   83BOLB   GL1 1971  12.459  33.431  16.281  0.1768 -0.2010  0.0990
   83BOLB   GL2 1972  12.868  33.404  16.195  0.0135  0.2921 -0.0942
   83BOLB   C1A 1973  12.369  33.738  16.026  0.4726 -0.1085  0.0688
   83BOLB   C2A 1974  11.980  33.734  15.747 -0.1539  0.0703  0.1136
   83BOLB   C3A 1975  11.734  33.491  15.617  0.1282  0.2938 -0.1107
   83BOLB   C4A 1976  11.520  33.679  15.248  0.1630  0.0724  0.1656
   83BOLB   C1B 1977  12.935  33.574  15.832  0.0430 -0.3407  0.1199
   83BOLB   C2B 1978  12.751  33.970  15.768 -0.0037 -0.2120  0.0007
   83BOLB   C3B 1979  12.617  34.308  16.074 -0.0215 -0.2933 -0.1326
   83BOLB   C4B 1980  12.720  34.436  16.462 -0.1951 -0.1228 -0.2431
   83BOLB   NC2 1981   9.340  31.900  15.111 -0.0858 -0.1018  0.1580
   83BOLB   PO2 1982   9.482  32.371  15.189  0.0923 -0.1326  0.1504
   83BOLB   GL3 1983   9.823  32.588  14.886 -0.0917 -0.0699  0.2656
   83BOLB   GL4 1984  10.127  32.646  15.046 -0.1194  0.2168  0.1476
   83BOLB   C1C 1985   9.964  33.053  14.793 -0.0201  0.1034 -0.1909
   83BOLB   C2C 1986  10.372  33.377  14.831  0.0951  0.4546  0.0623
   83BOLB   C3C 1987  10.775  33.246  14.982  0.0619 -0.0038 -0.2687
   83BOLB   C4C 1988  11.102  33.611  15.019 -0.3192  0.0389 -0.1460
   83BOLB   C1D 1989  10.444  32.834  14.760 -0.1475 -0.3907 -0.2731
   83BOLB   C2D 1990  10.791  33.053  14.489 -0.0204 -0.0068 -0.1360
   83BOLB   C3D 1991  10.876  33.275  14.165 -0.0073 -0.0645  0.1169
   83BOLB   C4D 1992  10.903  33.695  13.844  0.0729  0.2647 -0.0824
   84BOLB   NC1 1993  10.175  31.715  15.119 -0.2885 -0.1149  0.0359
   84BOLB   PO1 1994  10.572  31.854  14.842 -0.0625 -0.2340 -0.2775
   84BOLB   GL1 1995  10.694  32.151  14.580  0.1039 -0.1081 -0.0845
   84BOLB   GL2 1996  10.581  32.169  14.197 -0.0703  0.0452  0.2383
   84BOLB   C1A 1997  10.749  32.540  14.362  0.3212 -0.1525  0.1972
   84BOLB   C2A 1998  10.607  32.863  14.056 -0.0335 -0.2110  0.0071
   84BOLB   C3A 1999  10.581  33.279  13.708 -0.1778 -0.1317  0.2244
   84BOLB   C4A 2000  10.575  33.670  13.497  0.1117  0.2037  0.3161
   84BOLB   C1B 2001  11.068  32.177  14.196  0.1887 -0.3485  0.0873
   84BOLB   C2B 2002  11.292  31.977  13.923 -0.1085 -0.2791 -0.1302
   84BOLB   C3B 2003  11.547  31.985  13.478 -0.1308 -0.2266 -0.0776
   84BOLB   C4B 2004  11.954  32.107  13.401  0.1231  0.0815 -0.0954
   84BOLB   NC2 2005   9.385  31.799  13.017 -0.0289  0.2097  0.3085
   84BOLB   PO2 2006   9.572  32.091  12.743 -0.3226  0.1082  0.0176
   84BOLB   GL3 2007   9.530  32.567  12.985 -0.0646  0.1681 -0.0567
   84BOLB   GL4 2008   9.274  32.482  13.292 -0.4405  0.2537 -0.0794
   84BOLB   C1C 2009   9.635  33.017  13.047 -0.0825 -0.2219 -0.2011
   84BOLB   C2C 2010   9.807  33.342  13.044  0.1423  0.2954 -0.0317
   84BOLB   C3C 2011  10.041  33.716  12.919 -0.2213  0.5338 -0.0931
   84BOLB   C4C 2012  10.429  33.834  13.128 -0.1659  0.3735 -0.0587
   84BOLB   C1D 2013   9.076  32.914  13.354 -0.1519  0.2964  0.4729
   84BOLB   C2D 2014   8.857  33.207  13.195 -0.0861  0.2661 -0.4787
   84BOLB   C3D 2015   8.589  33.549  13.358  0.1428 -0.1670  0.0204
   84BOLB   C4D 2016   8.291  33.744  13.525  0.0331  0.0796 -0.7042
   85BOLB   NC1 2017   8.486  33.930  17.815  0.0140  0.0487 -0.1092
   85BOLB   PO1 2018   8.641  34.257  17.569 -0.0583 -0.2743  0.1060
   85BOLB   GL1 2019   8.927  34.461  17.258  0.1651  0.2246  0.0117
   85BOLB   GL2 2020   9.193  34.194  17.116  0.3422 -0.3078  0.2220
   85BOLB   C1A 2021   9.321  34.684  17.206  0.0458  0.1073  0.3207
   85BOLB   C2A 2022   9.749  34.784  17.020 -0.1520  0.1491  0.1896
   85BOLB   C3A 2023  10.088  34.510  16.857 -0.2417 -0.1080  0.1612
   85BOLB   C4A 2024  10.370  34.346  16.595  0.0400  0.1600 -0.1867
   85BOLB   C1B 2025   8.951  34.407  16.712  0.0204  0.0026 -0.1994
   85BOLB   C2B 2026   8.948  34.657  16.381  0.0575 -0.1544  0.0090
   85BOLB   C3B 2027   9.333  34.741  16.204 -0.0169 -0.1254  0.1183
   85BOLB   C4B 2028   9.469  35.054  15.950 -0.1256 -0.0256  0.0607
   85BOLB   NC2 2029   9.280  32.789  16.153 -0.3194 -0.1973  0.0855
   85BOLB   PO2 2030   9.747  32.832  15.977 -0.0259  0.0993  0.2662
   85BOLB   GL3 2031  10.107  32.839  16.072  0.0066  0.1425  0.1056
   85BOLB   GL4 2032  10.235  32.913  15.778  0.0642 -0.0061 -0.0538
   85BOLB   C1C 2033  10.482  33.102  16.182  0.1903 -0.3507 -0.1207
   85BOLB   C2C 2034  10.750  33.393  16.086  0.1472 -0.1271 -0.1061
   85BOLB   C3C 2035  10.727  33.855  15.919 -0.0376  0.1340  0.0297
   85BOLB   C4C 2036  10.634  34.197  16.171  0.0700 -0.1973 -0.1489
   85BOLB   C1D 2037  10.311  33.376  15.793 -0.2228 -0.2680 -0.2300
   85BOLB   C2D 2038  10.387  33.710  15.549 -0.0760 -0.1524  0.2560
   85BOLB   C3D 2039  10.474  34.142  15.452  0.0539 -0.1319  0.0319
   85BOLB   C4D 2040  10.304  34.462  15.000 -0.0437  0.1368 -0.0616
   86BOLB   NC1 2041   3.155   0.792  14.336 -0.2022  0.2177 -0.2654
   86BOLB   PO1 2042   3.113   1.031  14.756 -0.3834 -0.1094 -0.2260
   86BOLB   GL1 2043   3.458   1.131  14.634  0.1924  0.2318 -0.1440
   86BOLB   GL2 2044   3.658   1.348  14.482 -0.1835 -0.0909  0.3849
   86BOLB   C1A 2045   3.727   1.333  15.019  0.1501  0.2050  0.0592
   86BOLB   C2A 2046   3.658   1.710  15.259 -0.1656  0.1549 -0.1026
   86BOLB   C3A 2047   3.282   1.972  15.300 -0.1650  0.1510  0.1913
   86BOLB   C4A 2048   2.811   2.157  15.315 -0.0629 -0.0053  0.2048
   86BOLB   C1B 2049   3.986   1.356  14.054  0.2961  0.4167 -0.2415
   86BOLB   C2B 2050   3.953   1.014  13.701 -0.5407 -0.3393  0.0746
   86BOLB   C3B 2051   3.471   1.021  13.576  0.0492 -0.0108  0.1314
   86BOLB   C4B 2052   3.588   1.437  13.507  0.1378  0.0176 -0.0474
   86BOLB   NC2 2053   1.551   3.742  16.337 -0.0982 -0.1119 -0.0783
   86BOLB   PO2 2054   1.353   3.776  15.922  0.0429 -0.3578  0.1589
   86BOLB   GL3 2055   1.749   3.894  15.801  0.1533 -0.0953 -0.0737
   86BOLB   GL4 2056   1.908   3.603  16.004 -0.0738  0.1015 -0.3268
   86BOLB   C1C 2057   2.083   3.754  15.467  0.2449  0.0777 -0.3103
   86BOLB   C2C 2058   2.375   3.357  15.459 -0.1944  0.0440  0.0843
   86BOLB   C3C 2059   2.496   2.905  15.479 -0.2090 -0.3044  0.0548
   86BOLB   C4C 2060   2.586   2.416  15.439  0.2032 -0.3179 -0.2636
   86BOLB   C1D 2061   2.248   3.925  16.008 -0.2802 -0.3465  0.0793
   86BOLB   C2D 2062   2.507   4.025  15.646  0.0779 -0.2045  0.0232
   86BOLB   C3D 2063   2.785   4.212  15.329  0.0914  0.0001  0.1660
   86BOLB   C4D 2064   3.156   4.417  15.157  0.1712  0.0452 -0.2369
   87BOLB   NC1 2065   2.091   6.239   8.640 -0.3170 -0.2624  0.4710
   87BOLB   PO1 2066   2.167   6.447   9.016  0.2323  0.2062  0.2089
   87BOLB   GL1 2067   2.556   6.571   9.188 -0.1505  0.1036 -0.0515
   87BOLB   GL2 2068   2.681   6.902   9.303 -0.2387 -0.3629  0.1229
   87BOLB   C1A 2069   3.005   6.504   9.310  0.0802  0.1960  0.0873
   87BOLB   C2A 2070   3.287   6.487   9.488  0.2111 -0.1810  0.2945
   87BOLB   C3A 2071   3.188   6.347   9.876  0.1184  0.0401 -0.3519
   87BOLB   C4A 2072   3.358   6.192  10.218 -0.3299  0.1462  0.1692
   87BOLB   C1B 2073   3.167   6.956   9.292 -0.0196 -0.1034  0.2241
   87BOLB   C2B 2074   3.413   7.093   9.634 -0.0072 -0.3946  0.1124
   87BOLB   C3B 2075   3.784   7.428   9.821 -0.0928 -0.2309 -0.2059
   87BOLB   C4B 2076   4.048   7.732  10.118  0.5316 -0.0161  0.0562
   87BOLB   NC2 2077   2.023   5.817   9.683 -0.0038 -0.2825  0.1282
   87BOLB   PO2 2078   1.969   5.403   9.759  0.1564  0.1985  0.0124
   87BOLB   GL3 2079   2.357   5.385   9.867 -0.2131 -0.0852  0.0635
   87BOLB   GL4 2080   2.322   5.639  10.060 -0.0513  0.0640  0.1732
   87BOLB   C1C 2081   2.680   5.296  10.253 -0.0838  0.2780 -0.0100
   87BOLB   C2C 2082   2.981   5.435  10.599 -0.1927  0.1285  0.1710
   87BOLB   C3C 2083   3.460   5.439  10.516 -0.1389 -0.1388  0.4699
   87BOLB   C4C 2084   3.704   5.885  10.514  0.0539  0.1078 -0.2109
   87BOLB   C1D 2085   2.356   6.010  10.349 -0.0835  0.3802 -0.1227
   87BOLB   C2D 2086   2.763   6.271  10.293  0.0089  0.1334  0.0188
   87BOLB   C3D 2087   3.021   6.586  10.294  0.2209 -0.4092 -0.2891
   87BOLB   C4D 2088   3.466   6.719  10.447  0.0600 -0.3180  0.1197
   88BOLB   NC1 2089  11.978  31.303  13.017  0.0240  0.3092  0.1677
   88BOLB   PO1 2090  12.386  31.275  12.797 -0.0725  0.2326 -0.3553
   88BOLB   GL1 2091  12.387  31.613  13.124 -0.0106  0.2892  0.3386
   88BOLB   GL2 2092  12.809  31.771  13.281  0.0439 -0.1006  0.0595
   88BOLB   C1A 2093  12.360  32.026  13.234  0.1332 -0.3946 -0.1520
   88BOLB   C2A 2094  12.339  32.400  13.081  0.0502 -0.1410  0.0390
   88BOLB   C3A 2095  12.338  32.714  12.829  0.3616  0.4473  0.0221
   88BOLB   C4A 2096  12.424  32.825  12.341 -0.0677 -0.3480 -0.2376
   88BOLB   C1B 2097  12.805  32.033  12.940  0.1431 -0.0783  0.0541
   88BOLB   C2B 2098  12.663  32.338  12.725 -0.1189  0.2872 -0.2113
   88BOLB   C3B 2099  12.740  32.385  12.278 -0.2759 -0.0246 -0.2605
   88BOLB   C4B 2100  12.515  32.383  11.930 -0.1965 -0.1716  0.3435
   88BOLB   NC2 2101  11.361  31.259  11.924  0.4092 -0.1872 -0.1272
   88BOLB   PO2 2102  11.789  31.301  11.979  0.0828 -0.2470  0.0290
   88BOLB   GL3 2103  11.834  31.719  11.832  0.0354  0.1556 -0.0831
   88BOLB   GL4 2104  11.860  31.810  12.115 -0.1802 -0.1375 -0.1247
   88BOLB   C1C 2105  11.989  32.090  11.667  0.0831  0.0392  0.0070
   88BOLB   C2C 2106  12.207  32.500  11.606  0.3038 -0.5897  0.1389
   88BOLB   C3C 2107  12.399  32.930  11.683 -0.0634 -0.2603 -0.1862
   88BOLB   C4C 2108  12.521  33.106  12.039  0.0578  0.1665 -0.2684
   88BOLB   C1D 2109  11.657  32.054  12.416  0.0693  0.3327  0.2991
   88BOLB   C2D 2110  11.392  32.357  12.486  0.3111  0.1330 -0.0968
   88BOLB   C3D 2111  11.415  32.645  12.790 -0.1664  0.0045  0.4719
   88BOLB   C4D 2112  11.543  32.918  13.149  0.0095  0.1862 -0.4497
   89BOLB   NC1 2113  16.123  33.602  15.381  0.0628  0.0064  0.2060
   89BOLB   PO1 2114  16.179  33.548  14.918  0.2430  0.1558 -0.1990
   89BOLB   GL1 2115  15.735  33.580  14.979 -0.1850  0.0471  0.0091
   89BOLB   GL2 2116  15.726  33.781  15.262  0.3082  0.1294 -0.1767
   89BOLB   C1A 2117  15.499  33.913  14.782 -0.0069 -0.0283  0.2384
   89BOLB   C2A 2118  15.165  34.071  14.493  0.1143  0.0022 -0.1835
   89BOLB   C3A 2119  14.804  33.988  14.310  0.2038 -0.3492  0.0555
   89BOLB   C4A 2120  14.478  34.087  14.287  0.1346 -0.1082 -0.0208
   89BOLB   C1B 2121  15.860  34.271  15.440 -0.2148 -0.0594  0.1954
   89BOLB   C2B 2122  15.996  34.720  15.370 -0.0505  0.3248  0.2744
   89BOLB   C3B 2123  15.887  35.102  15.634 -0.3875  0.3193 -0.3758
   89BOLB   C4B 2124  15.934  35.542  15.750  0.2654  0.3089  0.0292
   89BOLB   NC2 2125  14.523  33.255  16.701 -0.0304  0.1552  0.2474
   89BOLB   PO2 2126  14.311  33.446  16.412 -0.0640 -0.1772 -0.0556
   89BOLB   GL3 2127  14.161  33.606  15.982  0.3102  0.4615 -0.1453
   89BOLB   GL4 2128  13.851  33.546  15.940  0.1334 -0.1074  0.2047
   89BOLB   C1C 2129  14.272  33.566  15.579  0.1683 -0.0897 -0.0668
   89BOLB   C2C 2130  14.228  33.731  15.228  0.0958  0.0311  0.2163
   89BOLB   C3C 2131  14.151  33.857  14.790  0.1460  0.0534 -0.2669
   89BOLB   C4C 2132  14.198  33.935  14.370 -0.1519 -0.1323 -0.1667
   89BOLB   C1D 2133  13.752  33.988  16.203  0.0793  0.0453 -0.0198
   89BOLB   C2D 2134  13.779  34.276  16.449 -0.1896 -0.0896  0.0239
   89BOLB   C3D 2135  14.014  34.637  16.546 -0.3468  0.0857  0.1853
   89BOLB   C4D 2136  14.132  34.951  16.827 -0.1255 -0.0444 -0.3650
   90BOLB   NC1 2137  11.025  34.634   6.407  0.0379 -0.0675  0.0731
   90BOLB   PO1 2138  11.147  34.941   6.097 -0.1866 -0.1422  0.2195
   90BOLB   GL1 2139  11.386  35.312   6.282  0.0599  0.0294  0.1071
   90BOLB   GL2 2140  11.453  35.494   6.050 -0.0989 -0.2742  0.1381
   90BOLB   C1A 2141  11.632  35.669   6.582 -0.0878 -0.0459 -0.1165
   90BOLB   C2A 2142  11.819  36.082   6.826  0.1673 -0.2431 -0.2116
   90BOLB   C3A 2143  12.033  36.101   7.120 -0.2532  0.4760  0.2826
   90BOLB   C4A 2144  12.033  35.877   7.521 -0.0554 -0.4817 -0.1594
   90BOLB   C1B 2145  11.766  35.763   6.137  0.1021  0.0337  0.0051
   90BOLB   C2B 2146  12.077  35.915   6.083 -0.2260  0.2911  0.0764
   90BOLB   C3B 2147  12.251  36.334   6.121  0.7437  0.2407 -0.3493
   90BOLB   C4B 2148  12.517  36.521   6.316  0.1420 -0.2528 -0.3867
   90BOLB   NC2 2149  10.743  34.006   7.034 -0.0893 -0.2339 -0.1287
   90BOLB   PO2 2150  10.864  34.281   6.811 -0.1168  0.0416 -0.2237
   90BOLB   GL3 2151  10.874  34.476   7.195 -0.1586 -0.0742  0.3960
   90BOLB   GL4 2152  10.659  34.525   7.413  0.1608  0.1509 -0.2722
   90BOLB   C1C 2153  11.190  34.647   7.347 -0.0903  0.0998  0.1735
   90BOLB   C2C 2154  11.243  35.030   7.673 -0.0540 -0.2009 -0.1097
   90BOLB   C3C 2155  11.563  35.339   7.728  0.1962  0.0658 -0.1576
   90BOLB   C4C 2156  11.815  35.583   7.749 -0.0049  0.1107  0.2197
   90BOLB   C1D 2157  10.750  34.993   7.466 -0.1875  0.0768 -0.2050
   90BOLB   C2D 2158  10.591  35.343   7.700  0.0756  0.2690  0.0943
   90BOLB   C3D 2159  10.730  35.721   7.730  0.1974  0.0621 -0.1355
   90BOLB   C4D 2160  11.227  35.830   7.762  0.1199  0.1274 -0.0398
   91BOLB   NC1 2161  19.849   0.545   4.649 -0.1801 -0.1613  0.2363
   91BOLB   PO1 2162  19.501   0.575   4.460  0.1416 -0.0777  0.1410
   91BOLB   GL1 2163  19.110   0.663   4.508  0.2582  0.1581  0.0624
   91BOLB   GL2 2164  18.926   0.439   4.660  0.0067  0.2155 -0.1306
   91BOLB   C1A 2165  18.905   0.956   4.812  0.1457  0.0923  0.3794
   91BOLB   C2A 2166  18.772   1.287   5.157  0.0774 -0.3313 -0.1530
   91BOLB   C3A 2167  18.488   1.284   5.413 -0.0928  0.0082 -0.1838
   91BOLB   C4A 2168  18.368   1.476   5.801  0.2263 -0.2571  0.0984
   91BOLB   C1B 2169  18.587   0.500   4.944 -0.2025 -0.0397  0.2152
   91BOLB   C2B 2170  18.397   0.285   5.232 -0.1236  0.2210  0.4499
   91BOLB   C3B 2171  18.137   0.126   5.547 -0.2684 -0.0761 -0.0569
   91BOLB   C4B 2172  17.801   0.226   5.846 -0.0384 -0.0005  0.0721
   91BOLB   NC2 2173  20.380   0.316   6.089  0.0859 -0.1452 -0.1251
   91BOLB   PO2 2174  20.063   0.476   6.194  0.3056  0.2693  0.0941
   91BOLB   GL3 2175  19.818   0.795   6.252  0.2613 -0.1002  0.2795
   91BOLB   GL4 2176  20.164   0.966   6.340 -0.1130  0.0713 -0.1901
   91BOLB   C1C 2177  19.433   0.809   6.372 -0.1407 -0.0605 -0.1056
   91BOLB   C2C 2178  19.151   1.008   6.314 -0.1479 -0.1086 -0.0016
   91BOLB   C3C 2179  18.901   1.406   6.367 -0.0131  0.3277 -0.1938
   91BOLB   C4C 2180  18.568   1.454   6.187 -0.2662  0.0421  0.1718
   91BOLB   C1D 2181  19.796   1.089   6.696 -0.3145  0.0292 -0.0094
   91BOLB   C2D 2182  19.498   1.172   7.105  0.3281 -0.0682 -0.3925
   91BOLB   C3D 2183  19.133   1.438   7.128  0.1342  0.0127 -0.1007
   91BOLB   C4D 2184  18.730   1.282   7.155  0.0481  0.3034 -0.2678
   92BOLB   NC1 2185  12.336  21.242  10.684  0.1919 -0.1326  0.1757
   92BOLB   PO1 2186  12.489  20.863  10.633  0.2937 -0.1568 -0.1887
   92BOLB   GL1 2187  12.664  20.563  10.873  0.0091 -0.2023 -0.2163
   92BOLB   GL2 2188  13.003  20.731  11.027  0.0590  0.0972 -0.0533
   92BOLB   C1A 2189  12.630  20.139  10.946  0.0595 -0.1780  0.1014
   92BOLB   C2A 2190  12.620  19.792  11.179  0.2197 -0.1865  0.2247
   92BOLB   C3A 2191  12.791  19.419  11.416 -0.1916  0.0308 -0.0125
   92BOLB   C4A 2192  13.054  19.135  11.640 -0.1705  0.1977  0.1744
   92BOLB   C1B 2193  13.144  20.225  11.006  0.0771  0.0039 -0.3898
   92BOLB   C2B 2194  13.154  19.915  11.302  0.0126 -0.1470 -0.2884
   92BOLB   C3B 2195  13.346  19.797  11.639 -0.1689  0.0821  0.1117
   92BOLB   C4B 2196  13.550  19.435  11.585  0.0112  0.0739  0.2812
   92BOLB   NC2 2197  13.802  17.142  13.286 -0.1232  0.2222  0.1949
   92BOLB   PO2 2198  14.151  17.254  12.842 -0.2246  0.4566  0.0464
   92BOLB   GL3 2199  13.923  17.676  12.842  0.2282  0.0603  0.1287
   92BOLB   GL4 2200  13.961  17.677  12.487  0.0237 -0.1352  0.3044
   92BOLB   C1C 2201  13.844  18.098  12.689 -0.1194 -0.1409  0.0475
   92BOLB   C2C 2202  13.855  18.419  12.424 -0.2907  0.0285  0.3230
   92BOLB   C3C 2203  13.545  18.599  12.060 -0.1411 -0.2117 -0.0590
   92BOLB   C4C 2204  13.414  19.084  11.974 -0.2036 -0.0770 -0.0897
   92BOLB   C1D 2205  14.052  17.972  12.159  0.2710 -0.1295 -0.1065
   92BOLB   C2D 2206  14.007  18.349  11.976  0.2529 -0.1438  0.1403
   92BOLB   C3D 2207  13.892  18.604  11.679 -0.5199  0.2083  0.1162
   92BOLB   C4D 2208  13.553  18.896  11.542 -0.0094 -0.0247  0.1579
   93BOLB   NC1 2209  21.356   7.548  10.394  0.2758  0.1249  0.2553
   93BOLB   PO1 2210  21.114   7.687  10.026  0.0583  0.2558 -0.0066
   93BOLB   GL1 2211  21.609   7.696   9.947 -0.1774 -0.1762 -0.0815
   93BOLB   GL2 2212  21.829   7.595  10.207  0.0671  0.0540 -0.0292
   93BOLB   C1A 2213  21.755   7.671   9.604  0.0280  0.2269  0.3946
   93BOLB   C2A 2214  22.100   7.566   9.309 -0.1658  0.0318 -0.0773
   93BOLB   C3A 2215  22.266   7.689   8.943 -0.0198 -0.0816  0.1990
   93BOLB   C4A 2216  22.562   7.799   8.639 -0.2456 -0.0839 -0.0966
   93BOLB   C1B 2217  22.282   7.584   9.960 -0.0373 -0.1213  0.1344
   93BOLB   C2B 2218  22.606   7.598   9.496  0.0170  0.0257  0.0816
   93BOLB   C3B 2219  22.828   7.778   9.046  0.1402  0.3035 -0.3193
   93BOLB   C4B 2220  23.113   7.507   8.794 -0.0015  0.0616  0.2315
   93BOLB   NC2 2221  24.139   8.819   6.756 -0.0433  0.0463  0.0047
   93BOLB   PO2 2222  24.015   8.437   7.009  0.1214 -0.0315 -0.1323
   93BOLB   GL3 2223  23.917   8.191   7.346 -0.2102 -0.2933  0.1886
   93BOLB   GL4 2224  23.756   7.891   7.361 -0.3581 -0.0738  0.1966
   93BOLB   C1C 2225  23.878   8.174   7.772  0.0071 -0.0942  0.0665
   93BOLB   C2C 2226  23.566   8.105   8.027 -0.1754 -0.0320 -0.0644
   93BOLB   C3C 2227  23.260   8.341   8.186 -0.0694  0.1036 -0.1872
   93BOLB   C4C 2228  22.968   8.048   8.443 -0.2063  0.0479  0.3516
   93BOLB   C1D 2229  23.428   8.009   7.571  0.0090 -0.0338  0.1496
   93BOLB   C2D 2230  23.132   8.400   7.595  0.0382  0.1893  0.1492
   93BOLB   C3D 2231  22.865   8.782   7.649 -0.2648  0.0140 -0.1258
   93BOLB   C4D 2232  22.426   8.918   7.700 -0.0218  0.1480 -0.0619
   94BOLB   NC1 2233   9.059  11.283  19.517 -0.3059  0.2245 -0.4181
   94BOLB   PO1 2234   9.224  11.644  19.389  0.0942  0.1659 -0.0708
   94BOLB   GL1 2235   8.779  11.671  19.353  0.1888  0.0098 -0.1246
   94BOLB   GL2 2236   8.624  11.636  19.631 -0.0569 -0.2135  0.2992
   94BOLB   C1A 2237   8.410  11.428  19.236 -0.2587 -0.1233  0.2366
   94BOLB   C2A 2238   8.132  11.439  19.551  0.0578  0.4270 -0.1858
   94BOLB   C3A 2239   7.943  11.327  19.857 -0.0889 -0.0192 -0.2608
   94BOLB   C4A 2240   7.573  11.510  20.149 -0.2116 -0.2825 -0.0864
   94BOLB   C1B 2241   8.325  11.780  19.961 -0.1053  0.0035 -0.1359
   94BOLB   C2B 2242   8.012  11.668  20.287 -0.0894 -0.1655 -0.0611
   94BOLB   C3B 2243   7.685  11.613  20.642 -0.0091  0.2123 -0.0551
   94BOLB   C4B 2244   7.536  11.287  20.968 -0.0978  0.0900  0.0496
   94BOLB   NC2 2245   5.241  11.630  20.599  0.0969 -0.1907 -0.4638
   94BOLB   PO2 2246   5.101  11.212  20.512 -0.2036 -0.2119 -0.0928
   94BOLB   GL3 2247   5.612  11.261  20.348  0.0049  0.0648 -0.1214
   94BOLB   GL4 2248   5.859  10.989  20.356 -0.0627  0.1159 -0.0483
   94BOLB   C1C 2249   5.906  11.397  20.025  0.1609  0.0544 -0.0698
   94BOLB   C2C 2250   6.369  11.247  20.034 -0.0499  0.1462  0.0931
   94BOLB   C3C 2251   6.762  11.266  20.253 -0.1962  0.0127 -0.1130
   94BOLB   C4C 2252   7.143  11.418  20.199  0.1502 -0.3534  0.3885
   94BOLB   C1D 2253   6.302  10.807  20.425 -0.0858  0.2499 -0.0787
   94BOLB   C2D 2254   6.686  10.735  20.455 -0.0916 -0.1140  0.1671
   94BOLB   C3D 2255   7.072  10.721  20.209  0.0579 -0.0535 -0.0205
   94BOLB   C4D 2256   7.349  10.457  20.045 -0.1405 -0.0035  0.2880
   95BOLB   NC1 2257  20.388   2.565  14.514  0.2740 -0.0385  0.1447
   95BOLB   PO1 2258  20.309   2.758  14.837  0.0351  0.1356 -0.0554
   95BOLB   GL1 2259  20.539   2.428  15.041  0.2455 -0.0555  0.1462
   95BOLB   GL2 2260  20.516   2.298  15.328  0.0388  0.0775 -0.0227
   95BOLB   C1A 2261  20.718   2.014  14.982 -0.0282 -0.0635 -0.0719
   95BOLB   C2A 2262  20.978   1.626  15.131  0.0619 -0.0466 -0.0368
   95BOLB   C3A 2263  21.176   1.337  15.306  0.1771 -0.2340  0.0539
   95BOLB   C4A 2264  21.267   0.882  15.317  0.1528  0.0512  0.0674
   95BOLB   C1B 2265  20.667   1.835  15.558 -0.1405 -0.2549  0.1059
   95BOLB   C2B 2266  20.934   1.628  15.955 -0.2198  0.0412 -0.0982
   95BOLB   C3B 2267  21.228   1.572  16.256  0.2013  0.1608  0.4952
   95BOLB   C4B 2268  21.171   1.267  16.582  0.0660  0.2685 -0.1288
   95BOLB   NC2 2269  23.028  -0.856  16.263 -0.0905 -0.1326  0.0568
   95BOLB   PO2 2270  22.954  -0.696  15.859 -0.0473 -0.0885  0.0725
   95BOLB   GL3 2271  22.741  -0.305  15.769  0.0121  0.1101  0.3797
   95BOLB   GL4 2272  22.711  -0.070  16.107 -0.0478  0.0284  0.1349
   95BOLB   C1C 2273  22.299  -0.269  15.956 -0.0470  0.2478  0.2654
   95BOLB   C2C 2274  21.950  -0.028  15.862 -0.0363 -0.0409 -0.0096
   95BOLB   C3C 2275  21.632   0.290  15.806 -0.1725 -0.1751  0.3038
   95BOLB   C4C 2276  21.434   0.666  15.730 -0.1229  0.0302  0.3926
   95BOLB   C1D 2277  22.333   0.263  16.052  0.0197 -0.0887  0.0466
   95BOLB   C2D 2278  22.121   0.397  16.413  0.1330  0.0170  0.3346
   95BOLB   C3D 2279  22.205   0.703  16.742  0.2357 -0.0782 -0.1196
   95BOLB   C4D 2280  22.224   0.933  17.196  0.0752  0.2295 -0.0938
   96BOLB   NC1 2281   1.737   3.075  12.779 -0.0863 -0.2579  0.4028
   96BOLB   PO1 2282   1.577   3.359  13.042  0.0628  0.3184  0.0861
   96BOLB   GL1 2283   2.078   3.483  13.092  0.0031  0.0215  0.2448
   96BOLB   GL2 2284   2.221   3.174  13.082  0.2303 -0.0367  0.1149
   96BOLB   C1A 2285   2.558   3.578  13.111 -0.1075  0.1170  0.1945
   96BOLB   C2A 2286   2.902   3.840  13.181  0.4375 -0.0273 -0.2199
   96BOLB   C3A 2287   3.224   3.797  13.366 -0.1634  0.2041 -0.0472
   96BOLB   C4A 2288   3.596   3.714  13.258  0.0899 -0.0540 -0.0163
   96BOLB   C1B 2289   2.764   3.118  13.111 -0.3414  0.3437  0.0740
   96BOLB   C2B 2290   3.101   3.148  13.112 -0.0713 -0.1263  0.1513
   96BOLB   C3B 2291   3.404   3.150  13.337 -0.1075 -0.0279  0.0740
   96BOLB   C4B 2292   3.771   3.250  13.468  0.1251 -0.3337 -0.1295
   96BOLB   NC2 2293   2.175   2.191  12.185 -0.1899  0.2795  0.1313
   96BOLB   PO2 2294   2.542   2.034  12.190 -0.1166  0.1266 -0.0045
   96BOLB   GL3 2295   2.965   2.215  12.296  0.0197 -0.1059 -0.1124
   96BOLB   GL4 2296   3.287   2.214  12.142  0.2610 -0.0189 -0.1961
   96BOLB   C1C 2297   2.922   2.608  12.402  0.0463  0.1700 -0.1595
   96BOLB   C2C 2298   3.025   3.037  12.578 -0.0731  0.0456 -0.1780
   96BOLB   C3C 2299   3.483   3.016  12.809  0.0146 -0.0927 -0.0874
   96BOLB   C4C 2300   3.719   3.330  12.972 -0.0755 -0.2057  0.1389
   96BOLB   C1D 2301   3.577   2.370  12.201 -0.0178  0.0039 -0.2360
   96BOLB   C2D 2302   4.009   2.243  12.437 -0.1810  0.1602  0.4447
   96BOLB   C3D 2303   4.436   2.149  12.308  0.1957 -0.1833  0.0991
   96BOLB   C4D 2304   4.703   1.967  12.063  0.0919  0.0208 -0.0027
   97BOLB   NC1 2305  13.047   2.178   2.107  0.1116 -0.3622  0.3689
   97BOLB   PO1 2306  13.208   1.954   2.545  0.0041 -0.1548  0.0567
   97BOLB   GL1 2307  13.406   2.126   2.860 -0.0458 -0.5030  0.0317
   97BOLB   GL2 2308  13.258   2.447   2.786 -0.2121  0.1983 -0.0055
   97BOLB   C1A 2309  13.750   2.313   3.236  0.2746 -0.0155  0.3233
   97BOLB   C2A 2310  13.928   2.500   3.661  0.3644 -0.0772  0.0000
   97BOLB   C3A 2311  14.088   2.859   3.657  0.2014 -0.3013 -0.0707
   97BOLB   C4A 2312  14.429   3.004   3.398 -0.1377 -0.1347  0.0434
   97BOLB   C1B 2313  12.824   2.643   2.821 -0.1404  0.0046 -0.1503
   97BOLB   C2B 2314  12.754   3.084   3.060 -0.0034 -0.3036  0.1176
   97BOLB   C3B 2315  12.489   3.298   3.335  0.0474 -0.1322  0.2347
   97BOLB   C4B 2316  12.508   3.676   3.552  0.1935 -0.0145 -0.0537
   97BOLB   NC2 2317  13.240   3.022   1.655  0.2330  0.0245 -0.1490
   97BOLB   PO2 2318  13.558   3.100   1.690  0.2952 -0.1857  0.0121
   97BOLB   GL3 2319  13.943   3.169   1.849 -0.1281 -0.2136  0.2358
   97BOLB   GL4 2320  13.951   3.486   1.891  0.1801  0.2183 -0.3275
   97BOLB   C1C 2321  14.337   3.195   2.141  0.0848  0.1036  0.0396
   97BOLB   C2C 2322  14.702   3.222   2.453 -0.0777  0.0698  0.0456
   97BOLB   C3C 2323  14.920   3.164   2.817  0.1357  0.1776  0.3280
   97BOLB   C4C 2324  14.843   2.953   3.263  0.1558  0.3275  0.2107
   97BOLB   C1D 2325  13.676   3.580   2.219  0.2970 -0.0037 -0.3008
   97BOLB   C2D 2326  13.552   3.446   2.650  0.1973  0.2919  0.1419
   97BOLB   C3D 2327  13.743   3.623   3.007 -0.0970 -0.1418  0.0447
   97BOLB   C4D 2328  13.671   4.015   3.157  0.1598 -0.3366 -0.3139
   98BOLB   NC1 2329   8.142  13.978  24.055  0.0593  0.2288  0.3200
   98BOLB   PO1 2330   8.393  14.333  23.875 -0.2227  0.1215 -0.1169
   98BOLB   GL1 2331   8.848  14.340  23.976 -0.2277 -0.2093  0.1734
   98BOLB   GL2 2332   8.829  14.031  23.714  0.2219  0.0022  0.1309
   98BOLB   C1A 2333   9.288  14.192  23.872  0.0677  0.1505 -0.2208
   98BOLB   C2A 2334   9.539  13.733  23.749 -0.0931 -0.1334  0.0233
   98BOLB   C3A 2335   9.760  13.357  23.635 -0.2548  0.0467 -0.0116
   98BOLB   C4A 2336  10.025  13.175  23.428  0.0554 -0.2536 -0.1569
   98BOLB   C1B 2337   9.207  14.159  23.418  0.1154  0.2962 -0.0576
   98BOLB   C2B 2338   9.493  14.160  23.033 -0.2984  0.0243 -0.1972
   98BOLB   C3B 2339   9.942  14.194  23.003  0.1173  0.0818  0.0374
   98BOLB   C4B 2340  10.202  14.539  22.992  0.1395 -0.2423  0.1851
   98BOLB   NC2 2341   8.810  11.834  25.139  0.1688  0.2306  0.0778
   98BOLB   PO2 2342   9.002  12.014  24.868 -0.2478 -0.0704  0.1320
   98BOLB   GL3 2343   9.524  12.043  24.751 -0.0186 -0.2307 -0.3095
   98BOLB   GL4 2344   9.865  11.839  24.728 -0.1106 -0.0826 -0.0192
   98BOLB   C1C 2345   9.762  12.378  24.570 -0.0465  0.1479 -0.4032
   98BOLB   C2C 2346  10.042  12.505  24.258 -0.0567 -0.3592 -0.3367
   98BOLB   C3C 2347  10.211  12.512  23.820 -0.3171  0.0497  0.0007
   98BOLB   C4C 2348  10.159  12.840  23.500  0.1266  0.0314 -0.0695
   98BOLB   C1D 2349  10.245  11.524  24.738 -0.2317  0.3379 -0.1171
   98BOLB   C2D 2350  10.723  11.587  24.606 -0.4948 -0.0331  0.0698
   98BOLB   C3D 2351  11.241  11.533  24.599 -0.0941  0.1023  0.1905
   98BOLB   C4D 2352  11.581  11.815  24.680  0.3813 -0.1047 -0.0622
   99BOLB   NC1 2353   8.692  11.844   1.753 -0.1485  0.1043 -0.0789
   99BOLB   PO1 2354   8.769  11.759   2.202 -0.1090 -0.0704  0.0828
   99BOLB   GL1 2355   9.007  11.497   2.521  0.0998 -0.1080  0.2560
   99BOLB   GL2 2356   8.861  11.736   2.789 -0.1824  0.0597  0.0422
   99BOLB   C1A 2357   9.133  11.266   2.881 -0.0104 -0.3805  0.2290
   99BOLB   C2A 2358   9.180  10.764   2.982  0.1166 -0.0271 -0.0560
   99BOLB   C3A 2359   8.998  10.639   3.393  0.2080 -0.1507 -0.0149
   99BOLB   C4A 2360   8.799  10.470   3.679  0.1921 -0.3047  0.1540
   99BOLB   C1B 2361   9.080  11.689   3.184 -0.0378 -0.1138 -0.0960
   99BOLB   C2B 2362   9.258  11.732   3.553 -0.2048  0.5982  0.1868
   99BOLB   C3B 2363   9.504  11.757   3.966 -0.0235 -0.1098  0.0758
   99BOLB   C4B 2364   9.910  11.827   4.041 -0.0020  0.4455 -0.1163
   99BOLB   NC2 2365   7.339  10.937   2.426 -0.1422 -0.0251  0.0758
   99BOLB   PO2 2366   7.321  11.237   2.695 -0.0195 -0.0305 -0.1221
   99BOLB   GL3 2367   7.585  11.267   3.146 -0.0278 -0.2540 -0.2274
   99BOLB   GL4 2368   7.936  11.358   3.108  0.0777  0.1932  0.1704
   99BOLB   C1C 2369   7.708  11.077   3.527  0.0290 -0.0194  0.4195
   99BOLB   C2C 2370   7.825  10.871   3.792 -0.0635  0.1800 -0.5313
   99BOLB   C3C 2371   8.171  10.664   4.045  0.2394  0.0117  0.2512
   99BOLB   C4C 2372   8.576  10.482   3.978  0.0232  0.0016 -0.1489
   99BOLB   C1D 2373   8.020  10.955   3.193 -0.0930 -0.0708 -0.1108
   99BOLB   C2D 2374   7.899  10.536   3.181 -0.0876  0.0349 -0.1240
   99BOLB   C3D 2375   7.542  10.417   3.314 -0.1298 -0.0153  0.2087
   99BOLB   C4D 2376   7.335  10.522   3.666  0.1962 -0.2602 -0.2686
  100BOLB   NC1 2377  22.176  15.920  14.272 -0.0356  0.1511  0.2409
  100BOLB   PO1 2378  22.450  15.808  13.914  0.1118  0.0237  0.0975
  100BOLB   GL1 2379  22.718  16.114  14.058  0.0294  0.2041  0.1722
  100BOLB   GL2 2380  22.533  16.282  14.233 -0.1244  0.1251  0.1561
  100BOLB   C1A 2381  23.043  16.346  14.009 -0.0583 -0.1904 -0.0298
  100BOLB   C2A 2382  23.197  16.334  13.498 -0.2020  0.1686  0.1731
  100BOLB   C3A 2383  23.409  16.467  13.070 -0.0186 -0.1190  0.0691
  100BOLB   C4A 2384  23.639  16.619  12.711 -0.2088  0.1588 -0.0485
  100BOLB   C1B 2385  22.649  16.570  13.882  0.2076 -0.1870 -0.0366
  100BOLB   C2B 2386  22.926  16.816  13.698  0.0619  0.1302  0.0182
  100BOLB   C3B 2387  23.213  16.848  13.460  0.0431  0.1040  0.2004
  100BOLB   C4B 2388  23.418  17.053  13.261  0.1648  0.2416  0.0903
  100BOLB   NC2 2389  24.077  18.529  10.396  0.1168  0.2630  0.1600
  100BOLB   PO2 2390  23.948  18.334  10.836  0.0166 -0.0699  0.0177
  100BOLB   GL3 2391  23.852  18.079  11.118  0.0655 -0.1220  0.1483
  100BOLB   GL4 2392  23.498  18.022  11.158  0.1097  0.2496 -0.1340
  100BOLB   C1C 2393  23.994  17.815  11.411  0.1448  0.0734  0.0420
  100BOLB   C2C 2394  23.929  17.542  11.889  0.4750 -0.0561  0.0133
  100BOLB   C3C 2395  23.818  17.403  12.332 -0.0050  0.1618 -0.2901
  100BOLB   C4C 2396  23.787  17.022  12.522 -0.1077 -0.1869  0.2480
  100BOLB   C1D 2397  23.165  18.068  11.452  0.2695  0.1639 -0.0116
  100BOLB   C2D 2398  22.772  17.886  11.351  0.0003  0.1736  0.2281
  100BOLB   C3D 2399  22.379  17.947  11.126 -0.1697 -0.0787 -0.1135
  100BOLB   C4D 2400  22.051  18.308  11.038  0.0861 -0.2893 -0.1985
  101BOLB   NC1 2401  15.486  32.908   6.946  0.0631 -0.0223  0.4277
  101BOLB   PO1 2402  15.358  32.953   7.423  0.0913  0.2183  0.3385
  101BOLB   GL1 2403  15.334  33.330   7.452  0.2107 -0.0230  0.0420
  101BOLB   GL2 2404  15.341  33.342   7.121  0.3074  0.3487 -0.4200
  101BOLB   C1A 2405  15.480  33.795   7.562  0.1424 -0.0779 -0.3302
  101BOLB   C2A 2406  15.728  34.061   7.834  0.3708 -0.0834 -0.0088
  101BOLB   C3A 2407  15.952  34.383   8.047 -0.1695 -0.1283  0.0526
  101BOLB   C4A 2408  16.275  34.690   7.681 -0.2128 -0.2342 -0.1558
  101BOLB   C1B 2409  15.123  33.731   7.123  0.1192 -0.0637  0.0662
  101BOLB   C2B 2410  15.070  34.099   7.361 -0.2091 -0.1639 -0.0777
  101BOLB   C3B 2411  15.354  34.366   7.429  0.0173 -0.1628  0.0673
  101BOLB   C4B 2412  15.711  34.535   7.605  0.0072  0.1263 -0.1020
  101BOLB   NC2 2413  16.604  33.401   6.526  0.3209 -0.2737 -0.0364
  101BOLB   PO2 2414  16.187  33.282   6.348 -0.0065 -0.0055 -0.2151
  101BOLB   GL3 2415  16.145  33.638   6.642  0.1129 -0.1001 -0.0920
  101BOLB   GL4 2416  16.376  33.707   6.795  0.1218 -0.0397  0.0638
  101BOLB   C1C 2417  16.262  34.085   6.401  0.2368 -0.4224 -0.0615
  101BOLB   C2C 2418  16.144  34.537   6.475  0.2347 -0.0081  0.0901
  101BOLB   C3C 2419  16.128  34.690   6.788 -0.0790 -0.1932 -0.3995
  101BOLB   C4C 2420  16.348  34.761   7.217 -0.1737  0.0008 -0.2042
  101BOLB   C1D 2421  16.605  33.886   7.220  0.2252 -0.2205  0.3336
  101BOLB   C2D 2422  16.642  34.249   7.506  0.4383  0.1489  0.0079
  101BOLB   C3D 2423  16.767  34.656   7.471  0.0107  0.1495 -0.0385
  101BOLB   C4D 2424  16.683  35.058   7.627 -0.4661 -0.3737 -0.1057
  102BOLB   NC1 2425  18.699   5.942   9.680  0.4066 -0.4718 -0.2119
  102BOLB   PO1 2426  18.873   5.944   9.288 -0.1751 -0.1470 -0.1117
  102BOLB   GL1 2427  18.768   5.630   8.999 -0.2828 -0.1701  0.3276
  102BOLB   GL2 2428  18.672   5.239   9.019 -0.1528  0.0354  0.2737
  102BOLB   C1A 2429  18.741   5.561   8.529  0.1976 -0.1346 -0.0543
  102BOLB   C2A 2430  18.777   5.496   8.049 -0.2353 -0.0977  0.2139
  102BOLB   C3A 2431  19.053   5.797   7.740 -0.2983 -0.1882  0.0022
  102BOLB   C4A 2432  19.276   6.097   7.395 -0.0865  0.0912  0.2739
  102BOLB   C1B 2433  18.714   5.008   8.602 -0.0330 -0.1685 -0.0286
  102BOLB   C2B 2434  18.869   4.930   8.167 -0.0476  0.0330  0.1141
  102BOLB   C3B 2435  18.912   5.018   7.731 -0.0294 -0.4467 -0.0007
  102BOLB   C4B 2436  19.080   5.193   7.490 -0.0163  0.2154 -0.2902
  102BOLB   NC2 2437  20.339   6.299   5.147 -0.0152 -0.2410 -0.1151
  102BOLB   PO2 2438  20.431   6.763   5.270 -0.3382  0.0310 -0.2193
  102BOLB   GL3 2439  20.206   6.720   5.597  0.1470  0.1178 -0.1464
  102BOLB   GL4 2440  20.133   6.381   5.631  0.1222  0.0062 -0.0020
  102BOLB   C1C 2441  20.129   6.667   6.049 -0.1959  0.3333  0.0614
  102BOLB   C2C 2442  19.893   6.781   6.306  0.0128  0.3042  0.2817
  102BOLB   C3C 2443  19.706   6.615   6.709 -0.1451  0.0100  0.0528
  102BOLB   C4C 2444  19.427   6.381   7.028  0.1628  0.0422  0.0927
  102BOLB   C1D 2445  19.669   6.490   5.836  0.1376 -0.0982 -0.0474
  102BOLB   C2D 2446  19.369   6.451   6.272 -0.2064 -0.5126 -0.3663
  102BOLB   C3D 2447  19.031   6.565   6.566  0.0786  0.4140  0.1077
  102BOLB   C4D 2448  18.575   6.570   6.673 -0.0589  0.1716 -0.1798
  103BOLB   NC1 2449   9.267   4.813  24.674 -0.0929  0.3332 -0.3485
  103BOLB   PO1 2450   9.089   5.143  24.502  0.1273  0.0585  0.3902
  103BOLB   GL1 2451   9.275   5.346  24.096  0.0537 -0.0620  0.0010
  103BOLB   GL2 2452   9.061   5.126  23.795  0.1685 -0.0603  0.1478
  103BOLB   C1A 2453   9.376   5.527  23.656 -0.0273 -0.2225  0.0049
  103BOLB   C2A 2454   9.354   5.852  23.328  0.0352  0.2848 -0.0095
  103BOLB   C3A 2455   9.458   6.083  22.964 -0.1508  0.0928 -0.0354
  103BOLB   C4A 2456   9.820   6.390  22.909 -0.0090 -0.0957 -0.0206
  103BOLB   C1B 2457   9.154   5.223  23.299  0.5649  0.0455 -0.3631
  103BOLB   C2B 2458   9.313   4.885  22.992 -0.1491  0.2306 -0.3006
  103BOLB   C3B 2459   9.299   5.040  22.547  0.0032  0.2911 -0.0839
  103BOLB   C4B 2460   9.348   4.894  22.094 -0.1115  0.2320 -0.3560
  103BOLB   NC2 2461  11.066   6.436  21.116  0.1805  0.4900 -0.1264
  103BOLB   PO2 2462  10.784   6.749  20.804 -0.1162 -0.0907 -0.0832
  103BOLB   GL3 2463  10.538   6.842  21.152 -0.0872 -0.2357  0.1479
  103BOLB   GL4 2464  10.232   6.713  21.081 -0.0846  0.1500  0.1877
  103BOLB   C1C 2465  10.324   6.912  21.563  0.1406 -0.1184 -0.0067
  103BOLB   C2C 2466  10.324   6.742  21.901  0.0751 -0.0951 -0.3372
  103BOLB   C3C 2467  10.106   6.473  22.120 -0.2402 -0.0141 -0.0449
  103BOLB   C4C 2468   9.960   6.364  22.489 -0.0113 -0.1905  0.2985
  103BOLB   C1D 2469  10.043   6.462  21.394 -0.0744 -0.2515 -0.0760
  103BOLB   C2D 2470   9.789   6.409  21.738  0.0713 -0.0003 -0.3496
  103BOLB   C3D 2471   9.527   6.470  22.022  0.0752 -0.1008  0.3585
  103BOLB   C4D 2472   9.183   6.271  22.228  0.4067  0.1656  0.0534
  104BOLB   NC1 2473  10.396  10.828   1.802  0.1493  0.0330 -0.2826
  104BOLB   PO1 2474   9.973  10.571   1.785 -0.0911  0.0441 -0.3312
  104BOLB   GL1 2475   9.971  10.446   2.200 -0.2545 -0.1113  0.0176
  104BOLB   GL2 2476  10.308  10.587   2.318 -0.0391 -0.1730  0.1298
  104BOLB   C1A 2477  10.092  10.249   2.582 -0.0303 -0.0965  0.0564
  104BOLB   C2A 2478  10.156  10.376   3.009  0.2707 -0.5749 -0.0978
  104BOLB   C3A 2479  10.393  10.272   3.314 -0.0928  0.1523 -0.2160
  104BOLB   C4A 2480  10.726  10.222   3.522  0.0165 -0.0825  0.2102
  104BOLB   C1B 2481  10.552  10.395   2.618 -0.2379 -0.0184 -0.0829
  104BOLB   C2B 2482  10.601  10.135   2.844  0.0665  0.0522 -0.1331
  104BOLB   C3B 2483  10.436   9.827   3.118  0.1180  0.4142  0.1949
  104BOLB   C4B 2484  10.205   9.873   3.533 -0.0260 -0.0616  0.1262
  104BOLB   NC2 2485  10.796  11.019   1.280 -0.0597  0.0559 -0.0548
  104BOLB   PO2 2486  10.899  10.972   1.727 -0.1101  0.1545 -0.1771
  104BOLB   GL3 2487  11.031  10.592   1.883  0.3671  0.1627  0.0086
  104BOLB   GL4 2488  10.721  10.398   1.932  0.1153 -0.0398  0.2589
  104BOLB   C1C 2489  11.284  10.461   2.255  0.3315 -0.1956 -0.1257
  104BOLB   C2C 2490  11.574  10.264   2.625 -0.1823  0.0607  0.1636
  104BOLB   C3C 2491  11.489  10.416   3.131 -0.0024  0.1656 -0.0731
  104BOLB   C4C 2492  11.205  10.352   3.549  0.0415  0.2660 -0.2355
  104BOLB   C1D 2493  10.846  10.279   2.249 -0.2459 -0.0517  0.0351
  104BOLB   C2D 2494  10.931  10.030   2.509  0.0314 -0.2797  0.0628
  104BOLB   C3D 2495  10.833   9.701   2.761 -0.2657  0.0417 -0.3781
  104BOLB   C4D 2496  11.102   9.533   2.993  0.1460 -0.0766 -0.2463
  105BOLB   NC1 2497  18.324  13.437   4.332 -0.1851 -0.1914 -0.3076
  105BOLB   PO1 2498  18.113  13.813   4.126  0.1628 -0.0795 -0.0373
  105BOLB   GL1 2499  18.001  13.938   4.570 -0.1277 -0.0450  0.1551
  105BOLB   GL2 2500  17.913  14.252   4.553  0.0357 -0.2858  0.1915
  105BOLB   C1A 2501  18.053  13.820   4.916 -0.1326  0.0341  0.2435
  105BOLB   C2A 2502  18.291  13.612   5.345  0.1188 -0.1502 -0.0042
  105BOLB   C3A 2503  18.318  13.388   5.764 -0.2186 -0.4749  0.1977
  105BOLB   C4A 2504  18.206  13.578   6.151 -0.1694 -0.2080  0.2528
  105BOLB   C1B 2505  17.774  14.305   4.982 -0.2857 -0.0348  0.0645
  105BOLB   C2B 2506  17.822  14.003   5.375  0.2202 -0.2394 -0.0274
  105BOLB   C3B 2507  17.892  13.772   5.743 -0.3398 -0.0362  0.1318
  105BOLB   C4B 2508  17.762  13.442   5.988  0.0525  0.0767 -0.0308
  105BOLB   NC2 2509  17.512  15.249   4.365  0.2899 -0.2292  0.1556
  105BOLB   PO2 2510  17.952  15.140   4.410 -0.0591 -0.0252 -0.0832
  105BOLB   GL3 2511  17.949  15.065   4.813  0.0122 -0.4254  0.3161
  105BOLB   GL4 2512  18.141  15.290   5.008  0.2213 -0.3913  0.2006
  105BOLB   C1C 2513  17.928  14.797   5.124 -0.1425  0.0213 -0.0141
  105BOLB   C2C 2514  18.010  14.668   5.542 -0.3959  0.1983 -0.0438
  105BOLB   C3C 2515  17.979  14.297   5.783 -0.1126 -0.1416  0.1299
  105BOLB   C4C 2516  18.043  14.007   6.146  0.0523 -0.4437 -0.2431
  105BOLB   C1D 2517  18.158  15.118   5.428  0.0975  0.0220 -0.0193
  105BOLB   C2D 2518  17.921  15.076   5.784  0.2280 -0.0795  0.0587
  105BOLB   C3D 2519  17.786  15.177   6.154  0.1957  0.3755 -0.3217
  105BOLB   C4D 2520  17.553  15.146   6.593  0.0655  0.5068  0.0450
  106BOLB   NC1 2521  13.383  14.499   9.246 -0.1944 -0.1224  0.0330
  106BOLB   PO1 2522  13.358  14.165   8.908  0.2215  0.0039  0.3237
  106BOLB   GL1 2523  13.241  14.196   8.460  0.2312  0.0064 -0.2454
  106BOLB   GL2 2524  12.963  13.937   8.442  0.1041  0.3009  0.3126
  106BOLB   C1A 2525  13.100  14.505   8.313  0.0764  0.2409  0.1081
  106BOLB   C2A 2526  12.879  14.745   8.060 -0.0831 -0.0809 -0.0383
  106BOLB   C3A 2527  12.713  14.923   7.778 -0.1178 -0.1128  0.2743
  106BOLB   C4A 2528  12.603  14.892   7.324  0.0820  0.2524 -0.3067
  106BOLB   C1B 2529  13.007  14.063   8.077 -0.1250 -0.1385 -0.1836
  106BOLB   C2B 2530  13.148  14.386   7.846 -0.0270 -0.2235 -0.0694
  106BOLB   C3B 2531  13.171  14.813   7.582  0.0270  0.0892  0.0728
  106BOLB   C4B 2532  13.036  15.084   7.285  0.0148  0.1060  0.5344
  106BOLB   NC2 2533  10.843  16.111   6.390  0.0362 -0.0544 -0.1941
  106BOLB   PO2 2534  11.177  16.364   6.506  0.1911 -0.1389 -0.2892
  106BOLB   GL3 2535  11.168  16.030   6.830 -0.1795 -0.1163 -0.1956
  106BOLB   GL4 2536  11.048  15.708   6.672 -0.1121  0.0617  0.3050
  106BOLB   C1C 2537  11.382  15.675   7.127  0.0950  0.1265 -0.1739
  106BOLB   C2C 2538  11.588  15.287   7.099  0.0326  0.1305 -0.1778
  106BOLB   C3C 2539  11.922  14.998   6.951  0.2884 -0.0263  0.1421
  106BOLB   C4C 2540  12.360  14.917   6.985 -0.0050 -0.0925 -0.0488
  106BOLB   C1D 2541  11.166  15.294   6.863 -0.2562 -0.0560 -0.2265
  106BOLB   C2D 2542  11.152  15.163   7.278 -0.1354 -0.0661 -0.1530
  106BOLB   C3D 2543  11.072  14.868   7.580 -0.0105 -0.2772 -0.2112
  106BOLB   C4D 2544  10.895  14.721   7.758 -0.1147  0.0834 -0.3277
  107BOLB   NC1 2545   2.287   4.919   9.062  0.3228 -0.1993  0.2195
  107BOLB   PO1 2546   2.723   4.704   9.217  0.0775 -0.2942 -0.2140
  107BOLB   GL1 2547   2.849   5.048   9.346  0.0210 -0.0379 -0.0078
  107BOLB   GL2 2548   2.639   5.247   9.411 -0.1460  0.0191  0.1695
  107BOLB   C1A 2549   3.146   5.382   9.318  0.5015 -0.0308 -0.0444
  107BOLB   C2A 2550   3.585   5.501   9.290  0.0908 -0.2377  0.2686
  107BOLB   C3A 2551   3.867   5.786   9.509  0.0898  0.0132  0.2247
  107BOLB   C4A 2552   4.176   6.011   9.380  0.1387  0.1342  0.4079
  107BOLB   C1B 2553   2.720   5.565   9.586 -0.5065 -0.1283 -0.0688
  107BOLB   C2B 2554   2.796   5.899   9.849 -0.0059 -0.2235 -0.2820
  107BOLB   C3B 2555   2.952   5.784  10.266 -0.0208 -0.2192  0.1970
  107BOLB   C4B 2556   2.743   5.882  10.669  0.3317  0.3329 -0.0073
  107BOLB   NC2 2557   3.753   5.062   7.237  0.2018  0.1459 -0.1934
  107BOLB   PO2 2558   3.904   5.492   7.302  0.3893 -0.0053  0.0203
  107BOLB   GL3 2559   4.184   5.679   7.461 -0.0835 -0.0434  0.2017
  107BOLB   GL4 2560   4.342   5.922   7.327 -0.2387 -0.1115  0.0576
  107BOLB   C1C 2561   4.212   5.732   7.838  0.3630 -0.1162  0.3262
  107BOLB   C2C 2562   4.393   5.596   8.241  0.0749 -0.2261 -0.0241
  107BOLB   C3C 2563   4.661   5.763   8.597 -0.3638 -0.0199 -0.2479
  107BOLB   C4C 2564   4.521   6.006   8.915 -0.0723  0.3192  0.0676
  107BOLB   C1D 2565   4.592   6.125   7.542 -0.0080  0.1638  0.1908
  107BOLB   C2D 2566   4.962   6.137   7.786 -0.1195  0.2614 -0.3698
  107BOLB   C3D 2567   5.260   6.383   8.030 -0.0430 -0.1216 -0.0579
  107BOLB   C4D 2568   5.540   6.750   8.012 -0.3061 -0.1695  0.1384
  108BOLB   NC1 2569  15.681   2.245  14.097  0.0784 -0.2168  0.3748
  108BOLB   PO1 2570  15.940   2.048  14.368  0.0439 -0.0031 -0.1215
  108BOLB   GL1 2571  15.877   1.543  14.338 -0.0075  0.2023  0.1657
  108BOLB   GL2 2572  15.821   1.289  14.583 -0.0052 -0.2111  0.1388
  108BOLB   C1A 2573  15.869   1.099  14.134  0.0389 -0.1350 -0.2508
  108BOLB   C2A 2574  15.631   0.955  13.929 -0.0956 -0.1224 -0.3729
  108BOLB   C3A 2575  15.162   0.868  14.030 -0.0435  0.3150  0.1941
  108BOLB   C4A 2576  14.774   0.992  14.035  0.3437  0.0238  0.3569
  108BOLB   C1B 2577  15.452   0.968  14.462  0.1912  0.2082  0.2296
  108BOLB   C2B 2578  15.106   0.710  14.529 -0.1725  0.2876  0.0800
  108BOLB   C3B 2579  14.911   0.366  14.851 -0.0428  0.0876  0.1797
  108BOLB   C4B 2580  14.861   0.323  15.248 -0.1167  0.3809  0.1100
  108BOLB   NC2 2581  15.166   2.950  14.137  0.0182  0.1637  0.0992
  108BOLB   PO2 2582  15.335   2.680  13.945  0.1026  0.2144 -0.3412
  108BOLB   GL3 2583  14.966   2.412  13.951 -0.0367  0.0634  0.2027
  108BOLB   GL4 2584  15.063   2.235  14.155 -0.0079 -0.1316 -0.0506
  108BOLB   C1C 2585  14.513   2.397  14.092  0.0273  0.4208 -0.0564
  108BOLB   C2C 2586  14.271   2.077  13.883 -0.0358 -0.1025  0.0838
  108BOLB   C3C 2587  14.235   1.619  13.880 -0.1733  0.0251  0.3951
  108BOLB   C4C 2588  14.515   1.347  14.038 -0.1149 -0.0305 -0.0194
  108BOLB   C1D 2589  14.819   1.818  14.083 -0.1328 -0.1311 -0.1399
  108BOLB   C2D 2590  14.987   1.493  13.809  0.1563  0.0067  0.4165
  108BOLB   C3D 2591  15.218   1.174  13.656  0.1217  0.1444 -0.5111
  108BOLB   C4D 2592  15.361   0.729  13.585 -0.2451 -0.0947 -0.5321
  109BOLB   NC1 2593  12.117  11.811   1.833 -0.0878 -0.2072 -0.1181
  109BOLB   PO1 2594  12.109  12.269   2.105 -0.2094 -0.0096 -0.2182
  109BOLB   GL1 2595  12.100  12.356   2.535  0.2661  0.1439  0.3088
  109BOLB   GL2 2596  12.082  12.039   2.576  0.2077  0.1918  0.3262
  109BOLB   C1A 2597  11.840  12.380   2.940 -0.0360 -0.4156 -0.1228
  109BOLB   C2A 2598  11.541  12.126   3.245 -0.3255  0.0822 -0.0772
  109BOLB   C3A 2599  11.345  11.719   3.487 -0.2148  0.0297  0.2800
  109BOLB   C4A 2600  11.144  11.356   3.384  0.2067 -0.3375 -0.0643
  109BOLB   C1B 2601  12.136  11.961   3.016 -0.1396  0.0578  0.0031
  109BOLB   C2B 2602  12.186  11.811   3.393 -0.0034 -0.0132 -0.2591
  109BOLB   C3B 2603  12.392  11.660   3.711  0.2912 -0.0818 -0.3660
  109BOLB   C4B 2604  12.827  11.717   3.702  0.1138 -0.0765  0.0748
  109BOLB   NC2 2605  10.017  11.963   2.032 -0.2415  0.2860 -0.0697
  109BOLB   PO2 2606   9.805  11.532   2.052 -0.2794  0.2883 -0.1802
  109BOLB   GL3 2607  10.157  11.338   2.185  0.1820 -0.0927 -0.1757
  109BOLB   GL4 2608  10.041  10.997   2.179  0.1463 -0.0953 -0.3443
  109BOLB   C1C 2609  10.415  11.204   2.419 -0.0547 -0.0289  0.0895
  109BOLB   C2C 2610  10.583  10.960   2.701 -0.2389  0.0843  0.2918
  109BOLB   C3C 2611  11.010  10.959   2.879  0.0135 -0.0268  0.1724
  109BOLB   C4C 2612  11.169  10.964   3.200 -0.0065 -0.0929  0.2627
  109BOLB   C1D 2613   9.978  10.880   2.615 -0.1786  0.0564 -0.0622
  109BOLB   C2D 2614  10.164  10.834   2.931 -0.0956 -0.1741 -0.0591
  109BOLB   C3D 2615  10.337  10.956   3.309 -0.1981 -0.1573 -0.0192
  109BOLB   C4D 2616  10.143  11.123   3.699 -0.0083  0.1356  0.0414
  110BOLB   NC1 2617  21.313   8.048   5.291 -0.0622 -0.1897 -0.4143
  110BOLB   PO1 2618  21.317   7.814   5.569 -0.1995  0.0318  0.1084
  110BOLB   GL1 2619  21.010   7.869   5.900 -0.2061 -0.0517 -0.1592
  110BOLB   GL2 2620  20.785   7.695   5.934 -0.1700  0.2057 -0.1925
  110BOLB   C1A 2621  20.838   8.212   5.987  0.0374  0.0702 -0.3228
  110BOLB   C2A 2622  20.487   8.229   6.245 -0.2254 -0.0150  0.1809
  110BOLB   C3A 2623  20.037   8.216   6.524 -0.0713 -0.0406 -0.1522
  110BOLB   C4A 2624  19.679   8.161   6.581  0.0338  0.0531 -0.1372
  110BOLB   C1B 2625  20.554   7.561   6.251  0.1940  0.1426 -0.1330
  110BOLB   C2B 2626  20.226   7.306   6.369  0.1099  0.0457 -0.0241
  110BOLB   C3B 2627  19.849   7.216   6.715 -0.2607  0.0345 -0.0358
  110BOLB   C4B 2628  19.711   7.308   7.115  0.4241  0.1137  0.0941
  110BOLB   NC2 2629  19.536   8.193   4.532 -0.2418  0.3602 -0.4286
  110BOLB   PO2 2630  19.857   7.835   4.570  0.4381  0.1789 -0.2727
  110BOLB   GL3 2631  19.490   7.819   4.885  0.2005 -0.1111 -0.3034
  110BOLB   GL4 2632  19.091   7.760   4.839 -0.1502  0.2596 -0.2093
  110BOLB   C1C 2633  19.343   7.857   5.298  0.0988 -0.1002  0.3133
  110BOLB   C2C 2634  19.119   7.767   5.657 -0.2199  0.0469 -0.1062
  110BOLB   C3C 2635  19.124   7.855   6.144 -0.1061  0.2042 -0.0977
  110BOLB   C4C 2636  19.271   8.183   6.366  0.0888  0.1194  0.1092
  110BOLB   C1D 2637  18.863   7.589   5.215  0.3504 -0.2539 -0.3260
  110BOLB   C2D 2638  18.637   7.484   5.519 -0.0549 -0.1208 -0.0740
  110BOLB   C3D 2639  18.550   7.056   5.481 -0.1212 -0.1255 -0.1386
  110BOLB   C4D 2640  18.872   6.776   5.600 -0.0325 -0.1749  0.1194
  111BOLB   NC1 2641  19.779  35.099   8.663 -0.1067  0.1970 -0.0914
  111BOLB   PO1 2642  20.049  35.220   8.406  0.1013  0.0175 -0.0564
  111BOLB   GL1 2643  19.794  35.601   8.327  0.0860 -0.3499  0.2615
  111BOLB   GL2 2644  19.613  35.633   8.552 -0.0700  0.2600  0.0177
  111BOLB   C1A 2645  19.312  35.662   8.182 -0.0238  0.1851  0.1964
  111BOLB   C2A 2646  18.883  35.814   8.292  0.0343 -0.0554 -0.0896
  111BOLB   C3A 2647  18.632  36.146   8.376  0.1260  0.2411  0.1414
  111BOLB   C4A 2648  18.283  36.439   8.191  0.2363  0.0583 -0.1462
  111BOLB   C1B 2649  19.295  35.869   8.675 -0.2004 -0.2137  0.2288
  111BOLB   C2B 2650  18.995  36.263   8.696  0.3156 -0.1379  0.2119
  111BOLB   C3B 2651  18.708  36.318   8.998 -0.1980 -0.2889  0.0450
  111BOLB   C4B 2652  18.406  36.232   8.784  0.1777 -0.0127  0.3809
  111BOLB   NC2 2653  20.793  37.049   7.573  0.1022 -0.0321 -0.1633
  111BOLB   PO2 2654  20.615  36.917   7.190  0.1756  0.0262  0.0470
  111BOLB   GL3 2655  20.244  37.007   7.491 -0.1232  0.0480 -0.0789
  111BOLB   GL4 2656  20.387  37.285   7.727  0.2374 -0.1370 -0.2871
  111BOLB   C1C 2657  19.849  36.909   7.566 -0.0177  0.1290 -0.0202
  111BOLB   C2C 2658  19.465  36.847   7.732  0.2581  0.0327 -0.3221
  111BOLB   C3C 2659  19.015  36.825   7.966  0.3103  0.1416  0.0781
  111BOLB   C4C 2660  18.547  36.710   7.917 -0.1573  0.1583 -0.1642
  111BOLB   C1D 2661  19.963  37.443   7.695  0.1135  0.0058 -0.3322
  111BOLB   C2D 2662  19.622  37.446   7.883 -0.1893  0.4814 -0.0197
  111BOLB   C3D 2663  19.298  37.663   8.044  0.0111  0.3422 -0.3505
  111BOLB   C4D 2664  19.033  37.575   8.349  0.0454 -0.4115  0.1217
  112BOLB   NC1 2665   5.882  36.065   8.140 -0.2387  0.2018  0.0340
  112BOLB   PO1 2666   6.256  36.341   7.997 -0.0817  0.3096 -0.1009
  112BOLB   GL1 2667   6.429  36.283   8.455 -0.1455 -0.0817  0.1460
  112BOLB   GL2 2668   6.241  36.431   8.718 -0.0068 -0.1775 -0.2539
  112BOLB   C1A 2669   6.774  36.340   8.670 -0.0175 -0.2527 -0.2569
  112BOLB   C2A 2670   7.219  36.363   8.562  0.0641 -0.1410 -0.0263
  112BOLB   C3A 2671   7.632  36.305   8.444 -0.0125  0.1237 -0.0774
  112BOLB   C4A 2672   8.015  36.210   8.136 -0.0806  0.0124 -0.2190
  112BOLB   C1B 2673   6.553  36.547   9.043  0.2238 -0.0433 -0.0297
  112BOLB   C2B 2674   6.889  36.691   9.227  0.2651  0.3811 -0.1460
  112BOLB   C3B 2675   7.146  36.942   9.535  0.0273 -0.0769  0.3452
  112BOLB   C4B 2676   7.611  36.979   9.570  0.1022 -0.1656  0.1356
  112BOLB   NC2 2677   8.228  36.844   6.253 -0.0015 -0.1144  0.1661
  112BOLB   PO2 2678   8.601  36.681   6.019  0.0678  0.2990 -0.0149
  112BOLB   GL3 2679   8.644  36.720   6.487  0.1489 -0.1445  0.0282
  112BOLB   GL4 2680   8.430  36.993   6.667 -0.2494 -0.1392  0.2196
  112BOLB   C1C 2681   8.840  36.678   6.899  0.0061 -0.1422 -0.1199
  112BOLB   C2C 2682   8.831  36.740   7.310  0.0920 -0.3159  0.0132
  112BOLB   C3C 2683   8.650  36.568   7.704  0.4289 -0.0111 -0.0847
  112BOLB   C4C 2684   8.342  36.327   7.763  0.0920 -0.0533 -0.1659
  112BOLB   C1D 2685   8.590  37.119   7.039 -0.0220  0.3157  0.4849
  112BOLB   C2D 2686   9.035  37.217   7.188 -0.1352 -0.1537  0.1975
  112BOLB   C3D 2687   9.188  37.497   7.427  0.0883  0.2575  0.4519
  112BOLB   C4D 2688   9.309  37.943   7.423 -0.0010  0.2539 -0.1248
  113BOLB   NC1 2689   4.791  10.918   5.275 -0.2262  0.0373 -0.0989
  113BOLB   PO1 2690   4.923  11.009   5.714 -0.0691 -0.0787  0.0081
  113BOLB   GL1 2691   4.966  10.681   6.033  0.6125  0.0545  0.1156
  113BOLB   GL2 2692   4.767  10.713   6.266  0.1078 -0.0649  0.0758
  113BOLB   C1A 2693   5.293  10.524   6.427  0.1529  0.3070  0.0548
  113BOLB   C2A 2694   5.467  10.730   6.726  0.0108 -0.3512 -0.1939
  113BOLB   C3A 2695   5.700  10.870   6.939  0.0302 -0.0097  0.0040
  113BOLB   C4A 2696   5.788  11.245   6.862  0.1077 -0.0628 -0.2207
  113BOLB   C1B 2697   5.049  10.966   6.535  0.0349 -0.0753 -0.0581
  113BOLB   C2B 2698   5.341  11.236   6.588 -0.2559 -0.2906 -0.1119
  113BOLB   C3B 2699   5.398  11.644   6.638  0.0371  0.2185 -0.4108
  113BOLB   C4B 2700   5.264  12.015   6.483  0.0557 -0.1368 -0.2829
  113BOLB   NC2 2701   4.650  12.315   5.578 -0.1220 -0.3095 -0.1324
  113BOLB   PO2 2702   4.721  11.926   5.995  0.0947 -0.3652  0.1571
  113BOLB   GL3 2703   5.137  11.676   6.125 -0.0496  0.1336 -0.1065
  113BOLB   GL4 2704   5.194  11.288   6.062  0.2538 -0.2209  0.1227
  113BOLB   C1C 2705   5.499  11.478   5.807  0.0596 -0.1087 -0.0782
  113BOLB   C2C 2706   6.002  11.538   5.905 -0.0546 -0.3182 -0.0800
  113BOLB   C3C 2707   6.200  11.676   6.320  0.1410 -0.0242  0.1243
  113BOLB   C4C 2708   5.942  11.543   6.682  0.1150 -0.0160 -0.1205
  113BOLB   C1D 2709   5.414  10.969   6.196 -0.1869  0.1551  0.1606
  113BOLB   C2D 2710   5.421  10.603   5.953  0.0120 -0.1331 -0.0356
  113BOLB   C3D 2711   5.679  10.233   6.040  0.0005 -0.2709 -0.3385
  113BOLB   C4D 2712   5.539   9.974   6.393 -0.1714 -0.2628 -0.0943
  114BOLB   NC1 2713  14.864   3.839   0.958  0.0680 -0.0690 -0.2931
  114BOLB   PO1 2714  15.090   3.912   1.318 -0.2084  0.0320 -0.0455
  114BOLB   GL1 2715  15.048   4.097   1.781  0.0551  0.0886 -0.2957
  114BOLB   GL2 2716  15.018   4.530   1.713 -0.3283 -0.0571  0.0344
  114BOLB   C1A 2717  15.311   4.264   2.213 -0.1952  0.1732  0.2218
  114BOLB   C2A 2718  15.096   4.351   2.547 -0.1831 -0.2961 -0.1519
  114BOLB   C3A 2719  14.794   4.175   2.835 -0.0900 -0.0089  0.1325
  114BOLB   C4A 2720  14.660   3.874   3.190 -0.0150 -0.1874 -0.1811
  114BOLB   C1B 2721  14.990   4.615   2.090 -0.0522 -0.1546 -0.2813
  114BOLB   C2B 2722  14.828   4.934   2.424 -0.0496 -0.2725  0.4219
  114BOLB   C3B 2723  14.471   5.054   2.513 -0.0023 -0.3499 -0.0278
  114BOLB   C4B 2724  14.379   5.440   2.781 -0.0641 -0.1983  0.0591
  114BOLB   NC2 2725  14.819   1.778   2.295  0.0391 -0.0236  0.0295
  114BOLB   PO2 2726  14.704   2.014   2.002 -0.0385  0.2320  0.0659
  114BOLB   GL3 2727  14.501   2.418   2.017  0.2533  0.2952 -0.2121
  114BOLB   GL4 2728  14.686   2.624   2.258  0.0337  0.3203  0.1988
  114BOLB   C1C 2729  14.161   2.642   2.247 -0.3063  0.0283  0.1847
  114BOLB   C2C 2730  14.307   2.853   2.692 -0.0021  0.1173 -0.0157
  114BOLB   C3C 2731  14.454   3.165   2.948  0.0613  0.0157 -0.2615
  114BOLB   C4C 2732  14.629   3.416   3.103  0.2169  0.1264  0.0112
  114BOLB   C1D 2733  14.813   2.637   2.730 -0.0991 -0.0877  0.0735
  114BOLB   C2D 2734  14.532   2.575   3.109 -0.1270  0.1457  0.2714
  114BOLB   C3D 2735  14.053   2.712   3.152  0.0218  0.0047  0.0300
  114BOLB   C4D 2736  13.785   3.007   2.953 -0.1404 -0.1380 -0.1254
  115BOLB   NC1 2737   8.404  14.015   4.376  0.0652 -0.2718  0.1299
  115BOLB   PO1 2738   8.655  14.098   3.969 -0.1463 -0.1423  0.2857
  115BOLB   GL1 2739   8.870  13.838   4.234  0.4771 -0.2746 -0.2465
  115BOLB   GL2 2740   9.152  13.908   4.348 -0.0149 -0.0695 -0.0678
  115BOLB   C1A 2741   8.989  13.432   4.368  0.0186 -0.0753  0.3415
  115BOLB   C2A 2742   9.228  13.178   4.154  0.0398 -0.0627  0.1628
  115BOLB   C3A 2743   9.483  12.887   4.109 -0.1472 -0.0201  0.0384
  115BOLB   C4A 2744   9.793  12.778   3.975 -0.1299 -0.0154 -0.1486
  115BOLB   C1B 2745   9.235  13.794   4.706 -0.1394  0.1457 -0.0207
  115BOLB   C2B 2746   9.391  13.515   4.997 -0.1407  0.2004  0.1466
  115BOLB   C3B 2747   9.229  13.358   5.317  0.0402 -0.1831  0.1309
  115BOLB   C4B 2748   9.200  13.260   5.742 -0.0826 -0.2212 -0.4413
  115BOLB   NC2 2749  12.023  13.980   3.458 -0.1696 -0.3537  0.0502
  115BOLB   PO2 2750  11.735  14.177   3.786 -0.5009  0.1717 -0.0028
  115BOLB   GL3 2751  11.739  13.821   3.973 -0.0317 -0.1826 -0.1236
  115BOLB   GL4 2752  11.819  13.879   4.396 -0.1759  0.0999  0.0530
  115BOLB   C1C 2753  11.305  13.523   4.170  0.0788  0.2669 -0.1174
  115BOLB   C2C 2754  10.838  13.386   4.294  0.0150  0.0022 -0.2470
  115BOLB   C3C 2755  10.586  13.056   4.096  0.1282 -0.0500 -0.0795
  115BOLB   C4C 2756  10.201  12.821   4.064 -0.0686  0.1010  0.0664
  115BOLB   C1D 2757  11.982  13.713   4.709  0.0934  0.1829 -0.2176
  115BOLB   C2D 2758  12.177  13.696   5.050 -0.1442  0.2212  0.2428
  115BOLB   C3D 2759  11.998  13.688   5.526  0.1533  0.0364  0.0514
  115BOLB   C4D 2760  11.834  13.395   5.799 -0.2397 -0.2776  0.1406
  116BOLB   NC1 2761  12.210  35.067   5.015  0.2556  0.2884  0.1331
  116BOLB   PO1 2762  12.260  35.488   4.872  0.0841 -0.4862  0.0327
  116BOLB   GL1 2763  12.112  35.796   5.274  0.0121 -0.1478 -0.0703
  116BOLB   GL2 2764  12.365  36.147   5.138  0.3280 -0.2808 -0.0674
  116BOLB   C1A 2765  12.150  35.900   5.590 -0.0528 -0.1286 -0.0208
  116BOLB   C2A 2766  12.510  36.227   5.663  0.0089  0.0652  0.1547
  116BOLB   C3A 2767  12.632  36.624   5.740  0.0847  0.2320 -0.3089
  116BOLB   C4A 2768  12.818  36.911   5.445  0.2955 -0.2263 -0.1861
  116BOLB   C1B 2769  12.677  35.862   5.363 -0.3732 -0.2110  0.1326
  116BOLB   C2B 2770  12.917  35.655   5.606  0.2389 -0.2246 -0.0903
  116BOLB   C3B 2771  13.037  35.749   6.021  0.5033 -0.3894 -0.1542
  116BOLB   C4B 2772  13.332  35.521   6.159 -0.2436  0.1164 -0.2323
  116BOLB   NC2 2773  12.830  36.823   4.053 -0.2404  0.2859 -0.3809
  116BOLB   PO2 2774  12.856  37.036   3.583  0.1967 -0.5406  0.1155
  116BOLB   GL3 2775  12.734  37.372   3.798  0.0559 -0.0081  0.0782
  116BOLB   GL4 2776  12.520  37.727   3.644  0.2472  0.1861 -0.1211
  116BOLB   C1C 2777  12.894  37.439   4.251  0.1647  0.0836 -0.3743
  116BOLB   C2C 2778  13.033  37.315   4.660 -0.4173 -0.1029 -0.1796
  116BOLB   C3C 2779  13.242  37.044   4.876 -0.1067  0.0733  0.0301
  116BOLB   C4C 2780  13.101  36.829   5.142 -0.2215  0.0813 -0.2413
  116BOLB   C1D 2781  12.579  37.877   4.052 -0.4025  0.0045  0.0133
  116BOLB   C2D 2782  12.842  37.981   4.348 -0.1580 -0.2608  0.3026
  116BOLB   C3D 2783  13.039  37.876   4.825 -0.2843  0.1691  0.1822
  116BOLB   C4D 2784  13.256  37.848   5.300 -0.1689 -0.0834 -0.0412
  117BOLB   NC1 2785  14.990  17.653  13.069 -0.0431 -0.2190  0.2851
  117BOLB   PO1 2786  14.660  17.614  13.415 -0.2585 -0.1933 -0.1997
  117BOLB   GL1 2787  14.749  18.041  13.290 -0.1377 -0.2455  0.0370
  117BOLB   GL2 2788  14.492  18.079  13.157 -0.0490 -0.0245  0.2216
  117BOLB   C1A 2789  14.743  18.430  12.919 -0.2680 -0.0053 -0.1370
  117BOLB   C2A 2790  14.820  18.894  12.842  0.3621 -0.0724 -0.3063
  117BOLB   C3A 2791  14.556  19.178  12.617 -0.1339  0.0549  0.0558
  117BOLB   C4A 2792  14.386  19.216  12.165 -0.3495 -0.0080  0.2747
  117BOLB   C1B 2793  14.189  18.350  13.019 -0.0634 -0.2422  0.1074
  117BOLB   C2B 2794  13.872  18.570  12.933 -0.0772 -0.0536  0.0191
  117BOLB   C3B 2795  13.674  19.032  12.925  0.0037 -0.0149 -0.0342
  117BOLB   C4B 2796  13.699  19.498  12.870 -0.0555  0.1508  0.3456
  117BOLB   NC2 2797  14.625  20.990   9.724  0.2552  0.2947  0.0702
  117BOLB   PO2 2798  14.441  20.654   9.985  0.1327 -0.2476 -0.0628
  117BOLB   GL3 2799  14.682  20.380  10.290  0.0582 -0.5594  0.2839
  117BOLB   GL4 2800  14.787  20.690  10.441 -0.2050 -0.0672  0.0546
  117BOLB   C1C 2801  14.574  20.109  10.581 -0.2348 -0.0876 -0.1022
  117BOLB   C2C 2802  14.640  19.790  10.916  0.0856  0.1722  0.1694
  117BOLB   C3C 2803  14.583  19.588  11.319 -0.0193 -0.2875 -0.2608
  117BOLB   C4C 2804  14.541  19.281  11.717  0.2351  0.3046 -0.0829
  117BOLB   C1D 2805  15.007  20.405  10.773 -0.4160  0.0605  0.1408
  117BOLB   C2D 2806  15.021  20.109  11.088 -0.1127 -0.0871 -0.0606
  117BOLB   C3D 2807  15.050  19.790  11.340  0.3414  0.2322 -0.0199
  117BOLB   C4D 2808  14.972  19.401  11.527 -0.0001  0.1351  0.0577
  118BOLB   NC1 2809  20.667  17.687  15.924  0.1070  0.1973 -0.0556
  118BOLB   PO1 2810  20.503  17.698  16.336 -0.2691  0.1514 -0.0101
  118BOLB   GL1 2811  20.737  18.196  16.096 -0.3179  0.3376  0.1681
  118BOLB   GL2 2812  21.052  18.110  16.006 -0.1461  0.0725 -0.4929
  118BOLB   C1A 2813  20.941  18.532  16.195  0.0065 -0.2556  0.1036
  118BOLB   C2A 2814  21.116  18.801  16.431  0.0631 -0.2962 -0.3723
  118BOLB   C3A 2815  21.265  19.093  16.728  0.3173 -0.4222  0.0101
  118BOLB   C4A 2816  21.384  19.519  16.894 -0.0940  0.1743  0.1484
  118BOLB   C1B 2817  21.415  17.925  16.137  0.1377  0.0323 -0.1621
  118BOLB   C2B 2818  21.850  17.958  16.129  0.1303 -0.3664 -0.4128
  118BOLB   C3B 2819  22.327  18.170  16.175  0.0428  0.1800  0.1688
  118BOLB   C4B 2820  22.692  18.414  16.026  0.4635 -0.1055  0.2900
  118BOLB   NC2 2821  21.958  21.718  17.178 -0.1604  0.2249 -0.0229
  118BOLB   PO2 2822  22.356  21.591  17.164 -0.0265  0.1014 -0.2022
  118BOLB   GL3 2823  22.205  21.265  17.070  0.1002  0.0199  0.3304
  118BOLB   GL4 2824  22.326  21.007  17.022  0.2922 -0.3311 -0.2026
  118BOLB   C1C 2825  21.961  20.930  17.328  0.2567  0.1471  0.1658
  118BOLB   C2C 2826  21.708  20.564  17.377 -0.2441  0.0726  0.0623
  118BOLB   C3C 2827  21.709  20.035  17.332  0.0209 -0.0119  0.3442
  118BOLB   C4C 2828  21.405  19.848  17.157  0.2784  0.3064 -0.2497
  118BOLB   C1D 2829  21.985  20.696  16.746  0.3812  0.0094 -0.2293
  118BOLB   C2D 2830  21.575  20.545  16.729  0.1591 -0.0096 -0.0551
  118BOLB   C3D 2831  21.412  20.349  17.046 -0.0789 -0.1963 -0.3637
  118BOLB   C4D 2832  21.058  20.391  17.181  0.2855 -0.0706  0.2971
  119BOLB   NC1 2833   6.225   7.069  22.793  0.0097  0.1457  0.1901
  119BOLB   PO1 2834   6.508   7.410  22.870 -0.0994 -0.0437  0.2247
  119BOLB   GL1 2835   7.057   7.393  22.777 -0.0614  0.0305  0.1512
  119BOLB   GL2 2836   7.071   7.087  22.544 -0.0924 -0.1627  0.0690
  119BOLB   C1A 2837   7.377   7.448  22.382  0.1173  0.0419  0.3405
  119BOLB   C2A 2838   7.699   7.228  22.106  0.1142 -0.4019  0.0040
  119BOLB   C3A 2839   7.805   7.138  21.631 -0.2588  0.2824 -0.0112
  119BOLB   C4A 2840   7.745   6.721  21.298 -0.1304 -0.1501  0.2348
  119BOLB   C1B 2841   7.441   6.789  22.297 -0.0182  0.0515 -0.4526
  119BOLB   C2B 2842   7.747   6.581  21.823  0.1698  0.2670  0.0222
  119BOLB   C3B 2843   8.163   6.565  21.528  0.1790  0.2482 -0.0024
  119BOLB   C4B 2844   8.301   6.675  21.200  0.1510  0.0403 -0.0716
  119BOLB   NC2 2845   6.605   6.366  22.916  0.1558  0.2151  0.0562
  119BOLB   PO2 2846   6.397   5.957  22.816  0.2232  0.0604 -0.1393
  119BOLB   GL3 2847   6.729   5.838  22.486 -0.2961  0.1038  0.0629
  119BOLB   GL4 2848   7.072   5.875  22.454  0.1363 -0.2935 -0.2258
  119BOLB   C1C 2849   6.838   6.058  22.017  0.1189 -0.3355  0.0052
  119BOLB   C2C 2850   6.773   6.135  21.622 -0.2619 -0.2791  0.3475
  119BOLB   C3C 2851   6.977   6.356  21.293 -0.3344  0.0799 -0.1725
  119BOLB   C4C 2852   7.264   6.518  21.216 -0.0585  0.0493  0.1911
  119BOLB   C1D 2853   7.367   6.003  22.138 -0.1758 -0.0397  0.1477
  119BOLB   C2D 2854   7.717   5.991  21.877  0.1004  0.2342 -0.0275
  119BOLB   C3D 2855   7.994   5.948  21.527 -0.3694  0.0518 -0.0363
  119BOLB   C4D 2856   8.401   5.948  21.250 -0.0943 -0.2812  0.1262
  120BOLB   NC1 2857  21.716  13.556  11.050  0.1651 -0.1365  0.3660
  120BOLB   PO1 2858  21.570  13.176  10.875 -0.2213  0.2240  0.0886
  120BOLB   GL1 2859  22.008  13.400  10.673 -0.2206 -0.1407  0.0424
  120BOLB   GL2 2860  21.960  13.587  10.364  0.1833  0.0455 -0.4575
  120BOLB   C1A 2861  22.406  13.481  10.581 -0.1736 -0.0599 -0.0070
  120BOLB   C2A 2862  22.597  13.503  10.128  0.3360  0.0624 -0.4192
  120BOLB   C3A 2863  22.941  13.551   9.837 -0.0789  0.2676 -0.1099
  120BOLB   C4A 2864  23.266  13.482   9.758  0.0019 -0.6649 -0.1305
  120BOLB   C1B 2865  22.159  13.712  10.065  0.0919  0.2903 -0.1145
  120BOLB   C2B 2866  22.470  13.628   9.661  0.1417  0.1234  0.1729
  120BOLB   C3B 2867  22.687  13.596   9.399 -0.0183  0.2558  0.1485
  120BOLB   C4B 2868  23.102  13.770   9.391  0.0409 -0.0453  0.1450
  120BOLB   NC2 2869  25.132  14.740   9.080  0.4122  0.1812 -0.1659
  120BOLB   PO2 2870  24.921  15.113   8.994  0.1225  0.3762  0.1889
  120BOLB   GL3 2871  24.614  14.830   9.090 -0.0961 -0.1722 -0.0531
  120BOLB   GL4 2872  24.432  14.638   8.838  0.2686 -0.0162 -0.1549
  120BOLB   C1C 2873  24.427  14.470   9.441 -0.1206  0.1059 -0.0799
  120BOLB   C2C 2874  24.283  14.186   9.664  0.3798  0.0839 -0.0431
  120BOLB   C3C 2875  24.067  13.907   9.865 -0.3107  0.3691  0.2297
  120BOLB   C4C 2876  23.649  13.593   9.907  0.1782 -0.3659 -0.1013
  120BOLB   C1D 2877  24.052  14.518   8.956  0.1758 -0.0897 -0.1886
  120BOLB   C2D 2878  23.555  14.545   8.956  0.1933 -0.0485 -0.0673
  120BOLB   C3D 2879  23.088  14.619   8.970  0.0769  0.3558  0.1819
  120BOLB   C4D 2880  22.861  14.875   9.276  0.2540 -0.1952  0.1151
  121BOLB   NC1 2881   0.602   5.686  11.712 -0.0963 -0.0784  0.2858
  121BOLB   PO1 2882   0.842   5.312  11.844  0.1786  0.1739 -0.3458
  121BOLB   GL1 2883   1.271   5.258  11.930 -0.5657 -0.1828 -0.1038
  121BOLB   GL2 2884   1.714   5.466  11.887 -0.1560 -0.0941  0.0349
  121BOLB   C1A 2885   1.598   4.887  12.064 -0.2502 -0.0398 -0.2270
  121BOLB   C2A 2886   1.757   4.874  12.468  0.5295 -0.3443 -0.4598
  121BOLB   C3A 2887   2.097   4.724  12.445 -0.3996  0.3117  0.0772
  121BOLB   C4A 2888   2.367   4.761  12.597 -0.0131 -0.0029 -0.0228
  121BOLB   C1B 2889   2.043   5.269  12.107 -0.0789  0.1436  0.0599
  121BOLB   C2B 2890   2.382   5.185  12.318  0.0590 -0.0787  0.1336
  121BOLB   C3B 2891   2.737   5.427  12.573  0.1221  0.0974  0.0656
  121BOLB   C4B 2892   2.919   5.807  12.628 -0.1650  0.1054 -0.0345
  121BOLB   NC2 2893   1.328   4.654  13.045 -0.3251  0.2635  0.0699
  121BOLB   PO2 2894   1.204   4.536  13.500 -0.0617  0.0196 -0.3256
  121BOLB   GL3 2895   1.593   4.770  13.525 -0.3620  0.1217  0.3582
  121BOLB   GL4 2896   1.948   4.582  13.600  0.0849 -0.1284  0.1705
  121BOLB   C1C 2897   1.921   5.094  13.537 -0.0995 -0.0346 -0.0766
  121BOLB   C2C 2898   2.175   5.256  13.211 -0.1106 -0.0971  0.0845
  121BOLB   C3C 2899   2.432   5.349  12.965 -0.1524  0.1813  0.1385
  121BOLB   C4C 2900   2.575   5.007  12.748  0.0785  0.2731 -0.3910
  121BOLB   C1D 2901   2.350   4.500  13.491  0.1170  0.1621 -0.0081
  121BOLB   C2D 2902   2.552   4.205  13.418  0.0204  0.0874  0.1004
  121BOLB   C3D 2903   2.753   3.844  13.731  0.0984 -0.0524  0.1197
  121BOLB   C4D 2904   3.136   3.733  13.875 -0.0135  0.1843 -0.1298
  122BOLB   NC1 2905  17.442   6.085  10.547  0.2413  0.0641  0.0157
  122BOLB   PO1 2906  17.035   6.152  10.602 -0.3149 -0.3035  0.0926
  122BOLB   GL1 2907  16.750   5.844  10.347  0.0194  0.2826  0.2396
  122BOLB   GL2 2908  16.763   5.824  10.008  0.0953  0.3223 -0.0692
  122BOLB   C1A 2909  16.348   5.567  10.297  0.4290 -0.3336 -0.1241
  122BOLB   C2A 2910  15.944   5.552  10.069  0.0777  0.1523  0.4523
  122BOLB   C3A 2911  15.827   5.388   9.626 -0.3325  0.2745 -0.0415
  122BOLB   C4A 2912  15.387   5.206   9.741  0.3425  0.0392  0.1232
  122BOLB   C1B 2913  16.729   5.695   9.629 -0.0615  0.0208  0.1360
  122BOLB   C2B 2914  16.755   5.501   9.188 -0.2248 -0.0491  0.2843
  122BOLB   C3B 2915  16.567   5.130   8.933  0.0837  0.1295 -0.1667
  122BOLB   C4B 2916  16.722   4.805   8.746 -0.0943  0.4512 -0.1769
  122BOLB   NC2 2917  15.830   5.104  11.567  0.3535 -0.0653 -0.0629
  122BOLB   PO2 2918  16.114   5.184  11.153 -0.1875  0.3097  0.0655
  122BOLB   GL3 2919  16.088   5.095  10.712 -0.0875  0.0690 -0.1336
  122BOLB   GL4 2920  15.874   5.302  10.526 -0.1168  0.1637 -0.0169
  122BOLB   C1C 2921  15.921   4.785  10.431  0.0164 -0.1262 -0.0622
  122BOLB   C2C 2922  15.585   4.420  10.276 -0.1163 -0.0735 -0.2029
  122BOLB   C3C 2923  15.298   4.409   9.998 -0.2849  0.2399  0.1429
  122BOLB   C4C 2924  15.196   4.802   9.901 -0.1225  0.2732 -0.2121
  122BOLB   C1D 2925  15.704   5.097  10.149  0.2392  0.0525  0.0119
  122BOLB   C2D 2926  15.733   4.815   9.876 -0.1167 -0.0527  0.5366
  122BOLB   C3D 2927  16.139   4.550   9.686 -0.0222  0.2214 -0.1461
  122BOLB   C4D 2928  16.266   4.226   9.457  0.0619  0.1414 -0.1644
  123BOLB   NC1 2929  13.448  34.199  18.253  0.1295 -0.0224 -0.2704
  123BOLB   PO1 2930  13.403  34.576  18.592 -0.3977  0.2073 -0.0305
  123BOLB   GL1 2931  13.340  35.045  18.516  0.0396 -0.0419 -0.0244
  123BOLB   GL2 2932  12.980  35.048  18.720 -0.1964  0.0729  0.2431
  123BOLB   C1A 2933  13.267  35.328  18.256 -0.1142  0.1515  0.1774
  123BOLB   C2A 2934  13.173  35.472  17.904 -0.0030 -0.2758  0.2717
  123BOLB   C3A 2935  12.729  35.724  17.718 -0.1065 -0.1643  0.3013
  123BOLB   C4A 2936  12.618  36.089  17.461  0.0142 -0.0609  0.0691
  123BOLB   C1B 2937  12.902  35.522  18.734 -0.0068 -0.3751  0.1279
  123BOLB   C2B 2938  13.017  35.835  18.394 -0.0650 -0.0704  0.2432
  123BOLB   C3B 2939  13.386  36.001  18.342  0.2444 -0.2369  0.0657
  123BOLB   C4B 2940  13.581  36.255  18.052 -0.2598  0.1254  0.0855
  123BOLB   NC2 2941  13.789  38.351  16.053 -0.2618  0.1137  0.2612
  123BOLB   PO2 2942  13.651  38.105  16.401  0.2351  0.0789 -0.2925
  123BOLB   GL3 2943  13.569  37.700  16.566 -0.1774  0.4704  0.1050
  123BOLB   GL4 2944  13.676  37.348  16.343 -0.1302 -0.0411 -0.1000
  123BOLB   C1C 2945  13.411  37.210  16.747  0.0531  0.0516 -0.1557
  123BOLB   C2C 2946  13.119  36.953  16.844 -0.1331 -0.0711 -0.0265
  123BOLB   C3C 2947  13.003  36.774  17.032  0.2116  0.1411 -0.0201
  123BOLB   C4C 2948  12.784  36.434  17.231 -0.0552  0.2948 -0.2546
  123BOLB   C1D 2949  13.449  37.595  16.086 -0.0765  0.1837 -0.0139
  123BOLB   C2D 2950  13.337  37.573  15.727  0.0205 -0.1021  0.1109
  123BOLB   C3D 2951  13.208  37.882  15.479  0.1890 -0.4717 -0.2019
  123BOLB   C4D 2952  13.014  38.272  15.462 -0.0888 -0.0674 -0.3107
  124BOLB   NC1 2953  25.331   6.524  23.109 -0.2131  0.1762  0.2319
  124BOLB   PO1 2954  25.322   6.817  23.524  0.1344 -0.0101  0.0444
  124BOLB   GL1 2955  25.114   7.065  23.298 -0.1379 -0.1817 -0.1170
  124BOLB   GL2 2956  25.207   6.973  22.989  0.2718 -0.0298 -0.0496
  124BOLB   C1A 2957  24.659   7.094  23.096  0.0835 -0.0802 -0.2671
  124BOLB   C2A 2958  24.376   7.056  22.846 -0.0347 -0.4564 -0.2111
  124BOLB   C3A 2959  23.957   6.971  22.738 -0.0231 -0.0937 -0.0808
  124BOLB   C4A 2960  23.706   6.862  22.365  0.0882 -0.0071  0.3512
  124BOLB   C1B 2961  24.836   6.887  22.623 -0.2817  0.0163  0.1084
  124BOLB   C2B 2962  24.458   6.808  22.410 -0.2314  0.0862 -0.1823
  124BOLB   C3B 2963  24.246   6.916  22.145  0.1768  0.2569  0.2861
  124BOLB   C4B 2964  24.094   7.220  22.014 -0.0331  0.0697 -0.1081
  124BOLB   NC2 2965  22.448   8.377  21.561  0.0718  0.0404 -0.1195
  124BOLB   PO2 2966  22.294   8.347  21.105 -0.2193  0.1059 -0.2478
  124BOLB   GL3 2967  22.565   8.074  21.161  0.0792 -0.2468  0.0030
  124BOLB   GL4 2968  22.874   8.155  20.966 -0.1256  0.0631  0.2106
  124BOLB   C1C 2969  22.774   7.810  21.347 -0.2865 -0.3448 -0.1076
  124BOLB   C2C 2970  23.163   7.550  21.397  0.2681 -0.1404  0.4206
  124BOLB   C3C 2971  23.362   7.424  21.838 -0.0169 -0.0143 -0.1271
  124BOLB   C4C 2972  23.634   6.989  21.977  0.1949  0.0589 -0.3912
  124BOLB   C1D 2973  23.328   8.102  21.139  0.5848 -0.4304 -0.2550
  124BOLB   C2D 2974  23.711   7.743  21.362  0.0135 -0.0450  0.0669
  124BOLB   C3D 2975  24.178   7.784  21.290  0.2088 -0.2089  0.1320
  124BOLB   C4D 2976  24.583   7.939  21.180  0.1221  0.2553 -0.0242
  125BOLB   NC1 2977  28.219   7.958  12.674 -0.3395  0.2115  0.1328
  125BOLB   PO1 2978  27.952   8.264  12.383  0.0487  0.3230  0.0637
  125BOLB   GL1 2979  27.615   8.312  12.701 -0.2187  0.0398 -0.0408
  125BOLB   GL2 2980  27.700   8.438  12.882 -0.3531  0.0153 -0.4683
  125BOLB   C1A 2981  27.228   8.478  12.729 -0.3616  0.3075 -0.0504
  125BOLB   C2A 2982  26.849   8.468  12.870  0.0896 -0.3196  0.2416
  125BOLB   C3A 2983  26.384   8.373  12.795 -0.0051  0.0673 -0.3682
  125BOLB   C4A 2984  26.119   7.952  12.903  0.0288 -0.1835  0.1175
  125BOLB   C1B 2985  27.503   8.811  13.062  0.0300 -0.1474 -0.2468
  125BOLB   C2B 2986  27.301   9.228  13.003  0.1254  0.2115 -0.1564
  125BOLB   C3B 2987  27.095   9.520  13.283  0.0995  0.1540 -0.0079
  125BOLB   C4B 2988  27.143   9.939  13.394 -0.1860  0.3757 -0.2398
  125BOLB   NC2 2989  24.232   8.415  13.931 -0.0698  0.1269  0.1157
  125BOLB   PO2 2990  24.007   8.338  13.578  0.0294 -0.1254  0.0485
  125BOLB   GL3 2991  24.340   8.129  13.316 -0.1302  0.2460 -0.0813
  125BOLB   GL4 2992  24.459   7.888  13.549 -0.0940 -0.1367 -0.1067
  125BOLB   C1C 2993  24.841   8.181  13.362 -0.1467  0.1453  0.1236
  125BOLB   C2C 2994  25.111   8.035  13.099  0.1659  0.2789 -0.0752
  125BOLB   C3C 2995  25.411   7.738  13.286  0.0404 -0.1302 -0.4308
  125BOLB   C4C 2996  25.838   7.633  13.102 -0.0635  0.0974 -0.0979
  125BOLB   C1D 2997  24.750   7.677  13.230 -0.1126  0.0443 -0.0816
  125BOLB   C2D 2998  25.128   7.462  13.001 -0.1100  0.2405 -0.0108
  125BOLB   C3D 2999  25.373   7.608  12.870 -0.2501 -0.0357  0.3070
  125BOLB   C4D 3000  25.581   7.842  12.704  0.0324 -0.1124 -0.0648
  126BOLB   NC1 3001   6.651  16.837  21.321  0.3506 -0.1149  0.0001
  126BOLB   PO1 3002   7.038  16.795  21.196 -0.1880 -0.1862 -0.0940
  126BOLB   GL1 3003   7.254  16.429  21.046 -0.1993  0.1751  0.0197
  126BOLB   GL2 3004   7.176  16.514  20.792  0.1213  0.2377  0.0822
  126BOLB   C1A 3005   7.366  16.019  21.082 -0.2351  0.0522  0.1608
  126BOLB   C2A 3006   7.455  15.840  20.733  0.1851 -0.2439 -0.0243
  126BOLB   C3A 3007   7.659  15.605  20.468  0.0163  0.2054 -0.2140
  126BOLB   C4A 3008   7.883  15.301  20.086  0.0046 -0.0875 -0.2404
  126BOLB   C1B 3009   7.570  16.348  20.555  0.3285 -0.2201  0.0030
  126BOLB   C2B 3010   7.868  16.057  20.521  0.3863 -0.0081 -0.2282
  126BOLB   C3B 3011   8.277  15.882  20.726 -0.2503  0.0582  0.0372
  126BOLB   C4B 3012   8.665  15.701  20.544  0.0414  0.1075  0.0796
  126BOLB   NC2 3013   9.574  14.261  19.096  0.1817 -0.1568  0.1386
  126BOLB   PO2 3014   9.642  13.914  19.240  0.1352  0.2610 -0.3002
  126BOLB   GL3 3015   9.320  13.931  19.454 -0.0139  0.2244 -0.0986
  126BOLB   GL4 3016   9.327  14.277  19.536 -0.0310 -0.0225 -0.0549
  126BOLB   C1C 3017   8.854  14.029  19.468  0.2507  0.0692 -0.1578
  126BOLB   C2C 3018   8.563  14.200  19.706  0.1021 -0.0584 -0.4360
  126BOLB   C3C 3019   8.196  14.458  19.750 -0.0974  0.0916 -0.0470
  126BOLB   C4C 3020   8.134  14.968  19.853  0.0343 -0.3996  0.0553
  126BOLB   C1D 3021   8.926  14.527  19.696  0.0875  0.0124  0.0146
  126BOLB   C2D 3022   8.627  14.814  19.710  0.1644 -0.0341 -0.1810
  126BOLB   C3D 3023   8.475  15.037  19.433 -0.1669 -0.2405  0.1290
  126BOLB   C4D 3024   8.455  15.399  19.080  0.0600 -0.1421  0.0254
  127BOLB   NC1 3025   8.423  14.830   7.738 -0.0435 -0.1916 -0.3801
  127BOLB   PO1 3026   8.691  15.001   7.468 -0.1861 -0.0123 -0.0694
  127BOLB   GL1 3027   8.922  14.715   7.613 -0.1929  0.1367 -0.2535
  127BOLB   GL2 3028   8.872  14.426   7.672  0.0362 -0.0383 -0.2550
  127BOLB   C1A 3029   9.278  14.548   7.950  0.1598  0.2689 -0.0223
  127BOLB   C2A 3030   9.368  14.245   8.313 -0.0387  0.0799  0.1952
  127BOLB   C3A 3031   9.586  14.025   8.586  0.1185 -0.2358 -0.0193
  127BOLB   C4A 3032   9.954  14.022   8.808 -0.0337 -0.2604 -0.1283
  127BOLB   C1B 3033   8.723  13.943   7.700  0.1680 -0.2137 -0.2676
  127BOLB   C2B 3034   8.837  13.585   7.715 -0.2018  0.1034  0.1121
  127BOLB   C3B 3035   8.954  13.272   7.332  0.4584 -0.1586  0.0845
  127BOLB   C4B 3036   9.157  13.018   7.003 -0.2378 -0.0479  0.1592
  127BOLB   NC2 3037  11.408  13.626  10.612  0.0758 -0.2017 -0.3781
  127BOLB   PO2 3038  10.944  13.506  10.647 -0.0635  0.0998 -0.0948
  127BOLB   GL3 3039  10.542  13.840  10.654 -0.1534  0.1873 -0.2204
  127BOLB   GL4 3040  10.165  13.771  10.766  0.1033  0.2757 -0.2286
  127BOLB   C1C 3041  10.325  13.852  10.265 -0.2431  0.1135 -0.0130
  127BOLB   C2C 3042  10.140  14.147   9.993  0.1702  0.1488  0.2613
  127BOLB   C3C 3043  10.179  14.217   9.550  0.2618 -0.2156  0.0782
  127BOLB   C4C 3044  10.250  14.222   9.113  0.0428 -0.3310  0.0525
  127BOLB   C1D 3045   9.815  13.890  10.472 -0.0739 -0.2748 -0.2136
  127BOLB   C2D 3046   9.369  13.915  10.383 -0.0755 -0.0177  0.1185
  127BOLB   C3D 3047   8.967  13.703  10.306  0.2169 -0.1677  0.2203
  127BOLB   C4D 3048   8.566  13.570  10.102  0.1794  0.0323  0.1959
  128BOLB   NC1 3049  20.497  10.370  23.190  0.1559  0.0634 -0.0859
  128BOLB   PO1 3050  20.912  10.262  23.041  0.2349  0.0471 -0.2432
  128BOLB   GL1 3051  20.982  10.016  23.363 -0.1738  0.1950 -0.1414
  128BOLB   GL2 3052  21.329   9.933  23.250  0.0968  0.0623  0.1826
  128BOLB   C1A 3053  21.248  10.057  23.869 -0.0343 -0.0744  0.1988
  128BOLB   C2A 3054  21.219  10.265  24.286  0.0226  0.1815  0.1239
  128BOLB   C3A 3055  21.321  10.723  24.254 -0.0045 -0.1253 -0.0765
  128BOLB   C4A 3056  21.345  10.949  24.690  0.0177 -0.1437 -0.2800
  128BOLB   C1B 3057  21.408   9.591  23.553  0.2248 -0.3148  0.0404
  128BOLB   C2B 3058  21.411   9.519  24.004  0.0045 -0.2556 -0.0963
  128BOLB   C3B 3059  21.689   9.424  24.425  0.2553 -0.0803  0.2468
  128BOLB   C4B 3060  22.090   9.297  24.474 -0.4200 -0.3067 -0.1150
  128BOLB   NC2 3061  22.268  11.775  27.049  0.1926  0.0520  0.0420
  128BOLB   PO2 3062  21.925  11.489  26.865 -0.1577 -0.0073  0.0198
  128BOLB   GL3 3063  21.957  11.290  26.490  0.0086 -0.1692 -0.5374
  128BOLB   GL4 3064  21.772  10.900  26.501 -0.1174  0.3301  0.3509
  128BOLB   C1C 3065  22.115  11.320  26.022  0.2012 -0.1378  0.0625
  128BOLB   C2C 3066  21.998  11.395  25.495  0.1695 -0.2432  0.1669
  128BOLB   C3C 3067  21.955  11.270  25.070  0.2632 -0.2262  0.4102
  128BOLB   C4C 3068  21.509  11.065  24.979  0.0983 -0.3367 -0.1818
  128BOLB   C1D 3069  21.780  10.625  26.144 -0.2352  0.1264 -0.0232
  128BOLB   C2D 3070  21.720  10.419  25.848 -0.2946  0.1791 -0.2397
  128BOLB   C3D 3071  21.494  10.403  25.444 -0.3126 -0.0688  0.1118
  128BOLB   C4D 3072  21.218  10.667  25.138  0.0538 -0.0289 -0.1066
  129BOLB   NC1 3073   8.454   1.694  21.883  0.2973  0.0566 -0.1509
  129BOLB   PO1 3074   8.338   2.129  21.742 -0.2390 -0.3371  0.0771
  129BOLB   GL1 3075   8.621   2.356  21.496  0.0756 -0.1387 -0.0445
  129BOLB   GL2 3076   8.725   2.525  21.767  0.1430  0.1408 -0.1849
  129BOLB   C1A 3077   8.851   2.683  21.163 -0.4559 -0.1798  0.2226
  129BOLB   C2A 3078   8.757   2.815  20.797 -0.1883 -0.1799 -0.2718
  129BOLB   C3A 3079   9.002   2.942  20.427  0.1856  0.2432  0.3919
  129BOLB   C4A 3080   9.348   3.042  20.273  0.0145  0.0054  0.2976
  129BOLB   C1B 3081   8.606   2.945  21.614 -0.3421 -0.0277 -0.1415
  129BOLB   C2B 3082   8.728   3.146  21.267 -0.0625  0.1266  0.1912
  129BOLB   C3B 3083   8.990   3.215  20.912  0.3834 -0.0169  0.2059
  129BOLB   C4B 3084   9.074   3.444  20.533  0.1578 -0.2201  0.0919
  129BOLB   NC2 3085  10.701   5.090  19.857  0.2250 -0.0043 -0.3162
  129BOLB   PO2 3086  10.594   4.987  19.525  0.1786 -0.3043 -0.3271
  129BOLB   GL3 3087  10.381   4.618  19.692  0.1759  0.2419 -0.3293
  129BOLB   GL4 3088  10.382   4.677  19.983  0.1599 -0.0100 -0.2121
  129BOLB   C1C 3089   9.934   4.448  19.660  0.1835  0.0077 -0.1726
  129BOLB   C2C 3090   9.648   4.124  19.726 -0.1291 -0.0529  0.5632
  129BOLB   C3C 3091   9.688   3.677  19.959 -0.0492  0.0038 -0.1437
  129BOLB   C4C 3092   9.396   3.462  20.100  0.0944  0.1667  0.2073
  129BOLB   C1D 3093  10.353   4.311  20.338 -0.0636  0.3194  0.0015
  129BOLB   C2D 3094  10.269   4.082  20.663  0.2094  0.0142  0.1920
  129BOLB   C3D 3095  10.108   3.671  20.861  0.1173  0.0887 -0.1602
  129BOLB   C4D 3096  10.356   3.457  21.237 -0.3830  0.0028 -0.1051
  130BOLB   NC1 3097  18.506   4.672  20.648 -0.1871  0.0762  0.2317
  130BOLB   PO1 3098  18.889   4.712  20.399  0.2635  0.3317  0.1972
  130BOLB   GL1 3099  18.907   4.375  20.670 -0.1284  0.0971 -0.0324
  130BOLB   GL2 3100  19.280   4.282  20.538 -0.3010 -0.0962 -0.5505
  130BOLB   C1A 3101  18.950   4.119  20.988 -0.3501 -0.0425 -0.1340
  130BOLB   C2A 3102  19.210   3.790  21.295  0.1932  0.1670  0.1682
  130BOLB   C3A 3103  19.571   3.899  21.473  0.2999  0.1751 -0.2357
  130BOLB   C4A 3104  19.840   3.681  21.745  0.0272  0.1288 -0.0520
  130BOLB   C1B 3105  19.555   4.156  20.902  0.2973  0.0258 -0.1260
  130BOLB   C2B 3106  19.955   4.060  21.113  0.1478  0.1405 -0.0339
  130BOLB   C3B 3107  20.137   3.909  21.347 -0.3310  0.0323  0.2458
  130BOLB   C4B 3108  20.380   3.613  21.432 -0.0553 -0.2500  0.0603
  130BOLB   NC2 3109  21.622   1.867  22.894 -0.0243  0.0153  0.1597
  130BOLB   PO2 3110  21.297   1.730  22.762 -0.0645 -0.3494  0.1178
  130BOLB   GL3 3111  21.086   2.042  22.486 -0.1696 -0.0104  0.2773
  130BOLB   GL4 3112  21.010   2.312  22.683  0.0772  0.0084  0.1174
  130BOLB   C1C 3113  20.875   2.342  22.161 -0.2401 -0.2684  0.2697
  130BOLB   C2C 3114  20.623   2.648  21.939  0.2110 -0.2334  0.0702
  130BOLB   C3C 3115  20.382   2.880  21.710 -0.0797 -0.3545 -0.0023
  130BOLB   C4C 3116  20.118   3.281  21.754  0.0016  0.0160  0.0538
  130BOLB   C1D 3117  20.680   2.674  22.607 -0.0359  0.0405  0.1924
  130BOLB   C2D 3118  20.267   2.679  22.646 -0.0093 -0.1598 -0.1775
  130BOLB   C3D 3119  19.867   2.330  22.640 -0.0595  0.1305 -0.3769
  130BOLB   C4D 3120  19.399   2.308  22.511  0.1640  0.1521 -0.0407
  131BOLB   NC1 3121  11.330   7.544  21.400 -0.0363  0.0223  0.1398
  131BOLB   PO1 3122  11.166   7.967  21.536  0.0876 -0.0147  0.3560
  131BOLB   GL1 3123  10.825   7.928  21.848 -0.0958 -0.3196  0.0192
  131BOLB   GL2 3124  10.907   8.181  22.142  0.2664 -0.0809  0.1383
  131BOLB   C1A 3125  10.411   7.882  22.036  0.3462  0.2281  0.2103
  131BOLB   C2A 3126  10.085   8.181  22.074 -0.1751  0.0309 -0.0512
  131BOLB   C3A 3127   9.610   8.385  22.000  0.0341 -0.0860 -0.1695
  131BOLB   C4A 3128   9.281   8.595  22.358  0.2552 -0.2629  0.2678
  131BOLB   C1B 3129  10.561   8.284  22.388 -0.1342  0.0035 -0.1286
  131BOLB   C2B 3130  10.244   8.257  22.735 -0.0558 -0.3729  0.1908
  131BOLB   C3B 3131  10.090   8.464  23.131  0.0227 -0.1022 -0.0508
  131BOLB   C4B 3132   9.953   8.597  23.611 -0.1283  0.0581 -0.0176
  131BOLB   NC2 3133   7.505   8.362  23.907  0.3483  0.0977 -0.1328
  131BOLB   PO2 3134   7.435   8.822  24.121 -0.0212  0.2024 -0.0754
  131BOLB   GL3 3135   7.785   8.922  23.866  0.3089 -0.0930  0.0630
  131BOLB   GL4 3136   7.788   9.278  23.634 -0.0846 -0.0777  0.3833
  131BOLB   C1C 3137   8.185   8.934  23.538 -0.0905  0.3528 -0.1121
  131BOLB   C2C 3138   8.201   8.869  23.099 -0.2203  0.3444  0.3440
  131BOLB   C3C 3139   8.456   8.648  22.861  0.1010 -0.1507  0.1150
  131BOLB   C4C 3140   8.834   8.546  22.559  0.1073  0.2386  0.0968
  131BOLB   C1D 3141   7.941   9.230  23.275 -0.4209  0.1256  0.2664
  131BOLB   C2D 3142   8.148   9.446  22.983  0.2619 -0.0121  0.0999
  131BOLB   C3D 3143   8.093   9.608  22.513  0.1081  0.3394 -0.2536
  131BOLB   C4D 3144   8.246   9.492  22.164 -0.0357 -0.1350 -0.1865
  132BOLB   NC1 3145  25.931  12.780   9.459  0.1175 -0.0951 -0.0064
  132BOLB   PO1 3146  26.211  12.876   9.824 -0.2541 -0.0689  0.0825
  132BOLB   GL1 3147  25.979  12.963  10.245 -0.2622 -0.0623 -0.1092
  132BOLB   GL2 3148  25.777  12.897  10.072 -0.1588  0.0465  0.1006
  132BOLB   C1A 3149  25.854  12.924  10.605  0.2225 -0.0776 -0.2420
  132BOLB   C2A 3150  25.661  12.629  10.903 -0.2501 -0.1557 -0.0612
  132BOLB   C3A 3151  25.286  12.382  10.967 -0.1118  0.0682 -0.0387
  132BOLB   C4A 3152  25.004  12.345  11.351 -0.1254  0.0276  0.0447
  132BOLB   C1B 3153  25.671  12.537   9.966  0.2091  0.0386  0.3708
  132BOLB   C2B 3154  25.288  12.232  10.006 -0.1776  0.1105  0.1446
  132BOLB   C3B 3155  24.996  12.388  10.383  0.0586 -0.0234 -0.0079
  132BOLB   C4B 3156  24.932  12.606  10.722 -0.0763 -0.3938  0.0968
  132BOLB   NC2 3157  23.492  11.315  12.580 -0.0920  0.1069 -0.1074
  132BOLB   PO2 3158  23.477  10.995  12.253  0.1302 -0.2664  0.1173
  132BOLB   GL3 3159  23.888  10.827  12.108  0.1056 -0.0865 -0.0192
  132BOLB   GL4 3160  24.021  10.583  12.131  0.1188  0.3352 -0.3506
  132BOLB   C1C 3161  24.295  11.026  11.970  0.1408 -0.1677 -0.3348
  132BOLB   C2C 3162  24.320  11.385  11.682  0.1361  0.1623  0.2079
  132BOLB   C3C 3163  24.480  11.765  11.602  0.1647 -0.1147 -0.0402
  132BOLB   C4C 3164  24.760  12.141  11.631 -0.1373  0.2440  0.2073
  132BOLB   C1D 3165  24.242  10.455  11.894 -0.1134  0.3594  0.0125
  132BOLB   C2D 3166  24.482  10.686  11.641 -0.3221  0.0863 -0.0523
  132BOLB   C3D 3167  24.780  11.044  11.435 -0.0392 -0.3391 -0.0393
  132BOLB   C4D 3168  24.801  11.381  11.500  0.3007  0.1346  0.0044
  133BOLB   NC1 3169   5.753  15.148  18.755  0.0717  0.0547 -0.0750
  133BOLB   PO1 3170   6.007  15.392  19.028  0.0683  0.4013 -0.0620
  133BOLB   GL1 3171   6.326  15.057  18.895  0.1197  0.1056 -0.0456
  133BOLB   GL2 3172   6.705  15.189  18.919 -0.1503 -0.0402  0.1323
  133BOLB   C1A 3173   6.488  15.128  18.459  0.1589 -0.4718  0.1839
  133BOLB   C2A 3174   6.872  15.374  18.462 -0.2810 -0.1996  0.0998
  133BOLB   C3A 3175   6.962  15.833  18.591  0.0280  0.2153 -0.1837
  133BOLB   C4A 3176   7.270  16.201  18.642  0.2887 -0.1099  0.2035
  133BOLB   C1B 3177   7.112  15.363  18.928  0.0354  0.4619  0.2916
  133BOLB   C2B 3178   7.419  15.567  18.732 -0.3100 -0.0753  0.1052
  133BOLB   C3B 3179   7.732  16.027  18.490  0.1037 -0.1212  0.2461
  133BOLB   C4B 3180   8.114  16.220  18.243  0.1157 -0.0877 -0.3514
  133BOLB   NC2 3181   6.920  17.320  20.209 -0.0118 -0.1366 -0.1362
  133BOLB   PO2 3182   7.039  17.660  19.990  0.2759 -0.1738 -0.0416
  133BOLB   GL3 3183   7.393  17.411  20.040  0.6580 -0.0822 -0.3223
  133BOLB   GL4 3184   7.691  17.440  20.167  0.2427 -0.1522 -0.0442
  133BOLB   C1C 3185   7.570  17.301  19.698 -0.2743  0.0746 -0.1108
  133BOLB   C2C 3186   7.584  16.859  19.587 -0.2767  0.0874 -0.3124
  133BOLB   C3C 3187   7.501  16.728  19.101  0.0477  0.2275  0.0530
  133BOLB   C4C 3188   7.603  16.436  18.829 -0.0382 -0.1581 -0.0206
  133BOLB   C1D 3189   7.815  17.011  19.983  0.1516 -0.4770  0.1134
  133BOLB   C2D 3190   8.077  16.719  19.895 -0.3417 -0.1611 -0.0612
  133BOLB   C3D 3191   8.381  16.627  19.556 -0.1945  0.2207 -0.2119
  133BOLB   C4D 3192   8.726  16.569  19.354 -0.0680  0.3531 -0.0243
  134BOLB   NC1 3193  21.630   1.800   7.947  0.0283 -0.0499 -0.3364
  134BOLB   PO1 3194  22.108   1.958   8.243 -0.0806  0.0989 -0.0434
  134BOLB   GL1 3195  21.905   2.033   8.502  0.2284  0.2938 -0.0394
  134BOLB   GL2 3196  21.590   1.841   8.484 -0.0945  0.2318 -0.3000
  134BOLB   C1A 3197  21.739   2.241   8.847 -0.0525 -0.1810  0.0718
  134BOLB   C2A 3198  21.475   2.138   9.185 -0.3870  0.1420 -0.1573
  134BOLB   C3A 3199  21.180   2.290   9.590 -0.0847 -0.2717 -0.2138
  134BOLB   C4A 3200  20.839   2.098   9.675 -0.0583  0.0819 -0.0674
  134BOLB   C1B 3201  21.327   2.103   8.674 -0.0030  0.1897  0.1574
  134BOLB   C2B 3202  20.947   2.218   9.016 -0.1339  0.3510  0.1756
  134BOLB   C3B 3203  20.550   2.294   9.240  0.4627  0.4184 -0.0861
  134BOLB   C4B 3204  20.131   1.973   9.144  0.1738 -0.1716 -0.2958
  134BOLB   NC2 3205  21.320  -0.019   9.211 -0.2115 -0.1491  0.1662
  134BOLB   PO2 3206  21.547  -0.021   9.586  0.0433  0.0320  0.0073
  134BOLB   GL3 3207  21.187   0.036   9.817 -0.0695 -0.2941 -0.0875
  134BOLB   GL4 3208  21.069  -0.032  10.155 -0.0238  0.0830 -0.0232
  134BOLB   C1C 3209  20.772   0.362   9.896 -0.1994  0.1791 -0.0544
  134BOLB   C2C 3210  20.577   0.776   9.667  0.2887  0.0951 -0.1755
  134BOLB   C3C 3211  20.568   1.288   9.877  0.0682  0.0584  0.0188
  134BOLB   C4C 3212  20.757   1.690   9.690  0.2725  0.1266  0.1937
  134BOLB   C1D 3213  20.651   0.077  10.341  0.5240 -0.1888  0.0202
  134BOLB   C2D 3214  20.323   0.257  10.487  0.0571  0.3698  0.3662
  134BOLB   C3D 3215  20.039   0.311  10.740  0.0545 -0.2273  0.0147
  134BOLB   C4D 3216  19.784   0.286  11.084  0.2572 -0.2663  0.3177
  135BOLB   NC1 3217  15.164  17.823  20.468  0.0475  0.3163  0.0459
  135BOLB   PO1 3218  15.473  17.459  20.526  0.2959  0.0621 -0.1123
  135BOLB   GL1 3219  15.359  17.798  20.890 -0.0191 -0.1754 -0.2323
  135BOLB   GL2 3220  15.469  18.112  20.692  0.2653 -0.1665  0.0866
  135BOLB   C1A 3221  15.325  18.232  21.161  0.0855 -0.4034 -0.0063
  135BOLB   C2A 3222  15.376  18.570  21.370 -0.1419 -0.1058  0.2988
  135BOLB   C3A 3223  15.330  18.825  21.755 -0.0805 -0.1463  0.4543
  135BOLB   C4A 3224  15.172  19.078  21.981 -0.2982  0.1073 -0.0024
  135BOLB   C1B 3225  15.244  18.506  20.718  0.1418  0.1356 -0.0573
  135BOLB   C2B 3226  15.460  18.762  20.866 -0.2208 -0.0748  0.1127
  135BOLB   C3B 3227  15.758  19.128  20.879 -0.0905 -0.0330 -0.3777
  135BOLB   C4B 3228  16.149  19.247  20.692 -0.1772 -0.2310 -0.1233
  135BOLB   NC2 3229  13.063  20.197  23.144 -0.1837  0.2783  0.2239
  135BOLB   PO2 3230  13.447  20.024  23.435 -0.0553  0.1663  0.3973
  135BOLB   GL3 3231  13.679  19.594  23.330  0.2419  0.1114 -0.0107
  135BOLB   GL4 3232  13.593  19.523  23.060  0.0219  0.1152  0.2431
  135BOLB   C1C 3233  14.088  19.626  23.030  0.2631 -0.1114  0.2568
  135BOLB   C2C 3234  14.471  19.466  22.821 -0.0805 -0.1145  0.0325
  135BOLB   C3C 3235  14.889  19.502  22.665 -0.2210  0.1239  0.1118
  135BOLB   C4C 3236  15.127  19.276  22.355  0.0715  0.1614  0.0651
  135BOLB   C1D 3237  13.761  19.309  22.676 -0.2454 -0.0044  0.1460
  135BOLB   C2D 3238  13.734  19.003  22.287  0.1554  0.0450 -0.2535
  135BOLB   C3D 3239  13.512  19.088  21.868 -0.0380 -0.0701 -0.0777
  135BOLB   C4D 3240  13.409  18.920  21.527 -0.2486 -0.2000 -0.1635
  136BOLB   NC1 3241  11.452   9.110  21.944  0.2816  0.2543  0.0452
  136BOLB   PO1 3242  11.631   9.459  21.881  0.0296 -0.3653 -0.0991
  136BOLB   GL1 3243  11.517   9.502  22.322  0.1592  0.0163  0.0908
  136BOLB   GL2 3244  11.426   9.256  22.468  0.4973 -0.5127  0.0168
  136BOLB   C1A 3245  11.312   9.812  22.504  0.2144 -0.2103  0.1773
  136BOLB   C2A 3246  11.144   9.701  22.887 -0.3183  0.0673  0.1526
  136BOLB   C3A 3247  10.793   9.767  23.145 -0.0806 -0.0455  0.3655
  136BOLB   C4A 3248  10.574   9.683  23.517  0.4987  0.3042 -0.0473
  136BOLB   C1B 3249  11.333   9.108  22.892  0.0009  0.0195  0.3134
  136BOLB   C2B 3250  11.350   8.988  23.404  0.0152  0.0335  0.1901
  136BOLB   C3B 3251  11.231   8.633  23.721  0.0013 -0.1623  0.0816
  136BOLB   C4B 3252  11.148   8.357  23.862 -0.0561 -0.1987 -0.3063
  136BOLB   NC2 3253   9.348   8.837  25.302 -0.4521 -0.0570 -0.4412
  136BOLB   PO2 3254   9.542   8.986  25.699  0.1893  0.3278 -0.0514
  136BOLB   GL3 3255   9.738   9.143  25.273  0.2265 -0.1113  0.0562
  136BOLB   GL4 3256  10.021   9.452  25.288  0.3826  0.1604 -0.1428
  136BOLB   C1C 3257   9.750   9.092  24.801  0.1265 -0.0455  0.0191
  136BOLB   C2C 3258   9.747   9.406  24.458  0.1734 -0.1077  0.1059
  136BOLB   C3C 3259   9.830   9.513  24.092  0.2482 -0.0043  0.2494
  136BOLB   C4C 3260  10.136   9.640  23.848 -0.2727  0.2654  0.0990
  136BOLB   C1D 3261  10.104   9.402  24.801  0.0098 -0.5643  0.0639
  136BOLB   C2D 3262  10.358   9.427  24.354 -0.1942 -0.0657  0.0677
  136BOLB   C3D 3263  10.617   9.457  24.109  0.0622 -0.0579  0.2496
  136BOLB   C4D 3264  11.012   9.236  24.039  0.0910 -0.0567  0.1246
  137BOLB   NC1 3265   5.267   1.842   7.856  0.1635 -0.1947 -0.1448
  137BOLB   PO1 3266   5.750   1.851   7.701  0.0467 -0.1854  0.0009
  137BOLB   GL1 3267   6.176   2.030   7.815  0.1827 -0.1359  0.3249
  137BOLB   GL2 3268   6.152   1.747   8.041  0.0408 -0.1874 -0.1656
  137BOLB   C1A 3269   6.548   2.204   7.895  0.0820  0.2297  0.0776
  137BOLB   C2A 3270   6.868   2.218   7.996 -0.2081 -0.0118 -0.1046
  137BOLB   C3A 3271   7.317   2.412   7.882 -0.4461  0.0263  0.2006
  137BOLB   C4A 3272   7.763   2.391   7.938 -0.1303  0.3037  0.0967
  137BOLB   C1B 3273   5.935   1.929   8.386  0.1085  0.1132 -0.1027
  137BOLB   C2B 3274   5.815   1.665   8.643 -0.3926 -0.0529  0.3971
  137BOLB   C3B 3275   5.754   1.379   8.956  0.0882  0.2394 -0.1439
  137BOLB   C4B 3276   5.498   1.341   9.359  0.4200  0.0622 -0.2989
  137BOLB   NC2 3277   6.785   1.246   6.004  0.2759 -0.4363  0.2436
  137BOLB   PO2 3278   6.987   1.459   6.297  0.2239 -0.2215  0.1307
  137BOLB   GL3 3279   7.125   1.769   6.633 -0.0390 -0.3623 -0.1772
  137BOLB   GL4 3280   6.970   2.038   6.938 -0.0343 -0.0110 -0.2957
  137BOLB   C1C 3281   7.477   1.815   6.929  0.0049 -0.2446  0.3813
  137BOLB   C2C 3282   7.847   1.999   6.961 -0.3667  0.1173  0.0741
  137BOLB   C3C 3283   8.171   2.188   7.250 -0.3246 -0.0057  0.1407
  137BOLB   C4C 3284   8.118   2.201   7.685  0.0001  0.0849 -0.2540
  137BOLB   C1D 3285   7.280   2.289   7.099 -0.2280  0.0572 -0.0875
  137BOLB   C2D 3286   7.421   2.632   7.372  0.4625  0.1843  0.1448
  137BOLB   C3D 3287   7.545   2.875   7.742 -0.2360 -0.2634 -0.0461
  137BOLB   C4D 3288   7.896   2.941   8.063  0.1125 -0.2357 -0.3154
  138BOLB   NC1 3289   5.702  35.257  16.184  0.0340  0.1909 -0.1604
  138BOLB   PO1 3290   5.867  35.347  16.653  0.1391 -0.1194  0.1701
  138BOLB   GL1 3291   6.166  35.433  16.358 -0.0366 -0.0088  0.1726
  138BOLB   GL2 3292   6.070  35.537  15.935  0.1828  0.1452  0.0020
  138BOLB   C1A 3293   6.471  35.761  16.148  0.4048 -0.0929 -0.2834
  138BOLB   C2A 3294   6.363  36.098  15.999  0.1245 -0.2089 -0.5003
  138BOLB   C3A 3295   6.220  36.424  15.642 -0.2243 -0.1031 -0.0397
  138BOLB   C4A 3296   6.136  36.521  15.194  0.0118  0.2272  0.0535
  138BOLB   C1B 3297   6.295  35.651  15.654 -0.4251 -0.1686  0.2904
  138BOLB   C2B 3298   6.388  35.565  15.373 -0.0032  0.0695 -0.0352
  138BOLB   C3B 3299   6.722  35.439  15.247 -0.1526  0.1722 -0.0216
  138BOLB   C4B 3300   7.075  35.611  15.439 -0.0870  0.2356  0.1678
  138BOLB   NC2 3301   5.081  34.626  14.200 -0.1488 -0.3192  0.1958
  138BOLB   PO2 3302   5.109  34.766  13.708 -0.0034  0.3170  0.3828
  138BOLB   GL3 3303   5.400  35.063  13.868 -0.1813 -0.0760 -0.3107
  138BOLB   GL4 3304   5.476  34.913  14.119 -0.1532 -0.0520  0.0341
  138BOLB   C1C 3305   5.601  35.499  13.920  0.2523 -0.0818  0.1028
  138BOLB   C2C 3306   5.678  35.877  14.196  0.0138  0.3451  0.1849
  138BOLB   C3C 3307   5.759  36.317  14.399  0.3892  0.0048 -0.0074
  138BOLB   C4C 3308   5.809  36.400  14.861 -0.0795 -0.1115  0.2559
  138BOLB   C1D 3309   5.903  34.950  14.198  0.4601  0.1411 -0.4103
  138BOLB   C2D 3310   6.222  35.186  14.077 -0.1533  0.3752 -0.0624
  138BOLB   C3D 3311   6.683  35.341  14.205  0.0255  0.0720 -0.2304
  138BOLB   C4D 3312   7.117  35.423  14.395 -0.1801 -0.0458  0.1113
  139BOLB   NC1 3313  20.423   5.634   3.602 -0.0337  0.0413  0.0334
  139BOLB   PO1 3314  20.002   5.403   3.765  0.0449  0.0130 -0.0969
  139BOLB   GL1 3315  19.611   5.277   3.824 -0.0444  0.0058 -0.0207
  139BOLB   GL2 3316  19.571   5.536   4.054 -0.0007  0.0856  0.1185
  139BOLB   C1A 3317  19.119   5.407   3.773 -0.1878  0.2935 -0.0441
  139BOLB   C2A 3318  18.750   5.311   3.539 -0.0207  0.4533  0.1091
  139BOLB   C3A 3319  18.471   4.914   3.508  0.2974 -0.1623  0.0651
  139BOLB   C4A 3320  18.432   4.410   3.701  0.2305  0.0968 -0.0129
  139BOLB   C1B 3321  19.475   5.223   4.373  0.0128 -0.0552  0.1812
  139BOLB   C2B 3322  19.150   5.031   4.676 -0.0507  0.3014  0.0200
  139BOLB   C3B 3323  19.159   4.636   4.931 -0.0807  0.1120 -0.1600
  139BOLB   C4B 3324  19.316   4.366   5.229 -0.0106  0.0403  0.1897
  139BOLB   NC2 3325  18.896   1.739   2.624 -0.2130  0.0284 -0.1683
  139BOLB   PO2 3326  18.638   2.184   2.724 -0.0097 -0.1642  0.2277
  139BOLB   GL3 3327  18.480   2.408   2.968 -0.2081 -0.1766 -0.0196
  139BOLB   GL4 3328  18.632   2.380   3.316 -0.0786  0.0499 -0.0477
  139BOLB   C1C 3329  18.283   2.696   3.368 -0.0506 -0.0311 -0.0971
  139BOLB   C2C 3330  18.334   3.088   3.573  0.2726 -0.2135 -0.0071
  139BOLB   C3C 3331  18.290   3.513   3.621  0.1630 -0.1690 -0.2853
  139BOLB   C4C 3332  18.510   3.876   3.620 -0.0434 -0.0517 -0.0670
  139BOLB   C1D 3333  18.788   2.781   3.466  0.0703  0.0097  0.2154
  139BOLB   C2D 3334  18.806   3.006   3.772 -0.1215 -0.0151 -0.1127
  139BOLB   C3D 3335  18.434   2.873   4.012  0.2208  0.0789 -0.4234
  139BOLB   C4D 3336  18.316   2.921   4.407  0.3036  0.2846  0.1668
  140BOLB   NC1 3337  23.617   7.514  15.884 -0.1025  0.2337  0.0146
  140BOLB   PO1 3338  23.499   7.910  15.935 -0.0418  0.1526 -0.1132
  140BOLB   GL1 3339  23.902   7.774  16.136  0.2022 -0.0742 -0.1694
  140BOLB   GL2 3340  24.125   7.981  16.375  0.0879 -0.0728  0.2736
  140BOLB   C1A 3341  24.393   7.654  16.115 -0.1386  0.0424  0.0870
  140BOLB   C2A 3342  24.769   7.606  15.976 -0.0903  0.1749  0.1256
  140BOLB   C3A 3343  25.146   7.270  15.971  0.0304  0.1466 -0.0873
  140BOLB   C4A 3344  25.587   7.015  16.009 -0.2725 -0.1651  0.2243
  140BOLB   C1B 3345  24.472   7.868  16.635  0.1200 -0.0580 -0.3932
  140BOLB   C2B 3346  24.655   7.522  16.750  0.1733 -0.2453  0.0200
  140BOLB   C3B 3347  25.017   7.460  16.421  0.0268  0.2380 -0.0207
  140BOLB   C4B 3348  25.275   7.085  16.427 -0.1129  0.3012 -0.0859
  140BOLB   NC2 3349  28.224   7.761  16.028 -0.1135  0.2400 -0.0880
  140BOLB   PO2 3350  27.975   7.436  16.015 -0.0753  0.3010  0.2666
  140BOLB   GL3 3351  27.501   7.481  16.082 -0.3015 -0.2758  0.1960
  140BOLB   GL4 3352  27.306   7.700  16.229 -0.0943 -0.2241  0.1313
  140BOLB   C1C 3353  27.208   7.190  16.151 -0.0295 -0.2932  0.2267
  140BOLB   C2C 3354  26.770   6.947  16.068 -0.2859 -0.0984  0.0190
  140BOLB   C3C 3355  26.338   6.862  15.986  0.2424 -0.0053  0.1957
  140BOLB   C4C 3356  25.954   6.858  16.043  0.3580  0.0553 -0.0801
  140BOLB   C1D 3357  26.925   7.784  16.420 -0.0895 -0.1453  0.0497
  140BOLB   C2D 3358  26.502   7.677  16.528  0.0241 -0.0445  0.0555
  140BOLB   C3D 3359  26.289   7.851  16.798 -0.0100 -0.0778  0.0632
  140BOLB   C4D 3360  25.954   7.754  17.108  0.0324  0.2954  0.2742
  141BOLB   NC1 3361  14.381   1.565  17.434 -0.1009  0.0120 -0.0655
  141BOLB   PO1 3362  13.968   1.705  17.304  0.1080 -0.0320 -0.1788
  141BOLB   GL1 3363  13.682   1.223  17.352 -0.0370  0.1965 -0.0018
  141BOLB   GL2 3364  13.701   1.113  17.083 -0.1718  0.3508 -0.3981
  141BOLB   C1A 3365  13.584   0.836  17.585 -0.0627  0.0964  0.1514
  141BOLB   C2A 3366  13.378   0.627  17.760 -0.2512  0.1979 -0.0875
  141BOLB   C3A 3367  13.077   0.343  18.017  0.1369 -0.2173  0.1691
  141BOLB   C4A 3368  12.784   0.068  18.305  0.0791 -0.0551  0.0151
  141BOLB   C1B 3369  13.277   0.946  17.202 -0.2037  0.4186  0.0711
  141BOLB   C2B 3370  13.120   0.630  17.352  0.0845 -0.0958 -0.2043
  141BOLB   C3B 3371  13.020   0.378  17.550 -0.2836 -0.0653  0.0580
  141BOLB   C4B 3372  12.775   0.014  17.752 -0.1593  0.0042  0.1018
  141BOLB   NC2 3373  11.060  -1.700  18.330 -0.0885 -0.0705 -0.2919
  141BOLB   PO2 3374  10.859  -1.336  18.473 -0.0326 -0.0067 -0.3116
  141BOLB   GL3 3375  11.146  -1.185  18.248  0.1290 -0.1083  0.3396
  141BOLB   GL4 3376  11.068  -1.372  17.910 -0.0598 -0.1015 -0.1740
  141BOLB   C1C 3377  11.623  -0.988  18.166 -0.0052  0.0464  0.1284
  141BOLB   C2C 3378  11.962  -0.676  18.181  0.3421 -0.0920  0.1592
  141BOLB   C3C 3379  12.107  -0.263  18.090  0.2049  0.1006  0.0530
  141BOLB   C4C 3380  12.440  -0.104  18.407  0.2638 -0.0468  0.3101
  141BOLB   C1D 3381  11.348  -1.076  17.779  0.1729  0.0212  0.0393
  141BOLB   C2D 3382  11.392  -0.667  17.661  0.0366  0.0922 -0.1265
  141BOLB   C3D 3383  11.213  -0.253  17.408 -0.1201 -0.0896 -0.0949
  141BOLB   C4D 3384  11.120   0.160  17.276  0.1118 -0.0715 -0.3341
  142BOLB   NC1 3385  21.677  17.625   8.079  0.1000  0.1368 -0.0323
  142BOLB   PO1 3386  21.338  17.740   7.745  0.0653 -0.0226  0.3594
  142BOLB   GL1 3387  21.283  17.342   7.935 -0.3675 -0.0726  0.1202
  142BOLB   GL2 3388  21.225  17.380   8.192  0.0987 -0.2575 -0.1550
  142BOLB   C1A 3389  21.089  16.941   8.043 -0.1187 -0.0278 -0.1755
  142BOLB   C2A 3390  20.781  16.719   8.155 -0.3167  0.0496 -0.3485
  142BOLB   C3A 3391  20.515  16.402   8.364  0.0160  0.0530  0.1198
  142BOLB   C4A 3392  20.324  15.967   8.310 -0.0936  0.0271 -0.0053
  142BOLB   C1B 3393  21.314  17.053   8.491  0.0087 -0.2208  0.1889
  142BOLB   C2B 3394  21.112  17.150   8.928  0.0780  0.0064  0.1207
  142BOLB   C3B 3395  21.100  17.056   9.436 -0.0312 -0.2891  0.3446
  142BOLB   C4B 3396  20.762  17.205   9.516 -0.3495  0.4354 -0.1506
  142BOLB   NC2 3397  20.059  15.251  10.512  0.2057 -0.0916 -0.1926
  142BOLB   PO2 3398  19.696  15.139  10.434 -0.2810 -0.3463 -0.0284
  142BOLB   GL3 3399  19.888  15.167  10.054 -0.1130  0.0490  0.2413
  142BOLB   GL4 3400  19.998  15.485  10.008  0.2325 -0.5073  0.0108
  142BOLB   C1C 3401  19.970  15.169   9.581  0.0382 -0.0517  0.0736
  142BOLB   C2C 3402  19.945  15.386   9.201 -0.2627 -0.0212  0.3903
  142BOLB   C3C 3403  19.726  15.389   8.798 -0.1037 -0.1416  0.4709
  142BOLB   C4C 3404  19.985  15.686   8.396 -0.0995  0.0044  0.0982
  142BOLB   C1D 3405  20.332  15.632   9.629  0.3252 -0.3052 -0.1059
  142BOLB   C2D 3406  20.745  15.864   9.596  0.2589 -0.1933 -0.0416
  142BOLB   C3D 3407  20.901  16.271   9.735  0.0862  0.1516  0.1737
  142BOLB   C4D 3408  20.540  16.376   9.998 -0.1357  0.0101  0.0915
  143BOLB   NC1 3409  28.368  11.590  14.285 -0.0625  0.0234 -0.0702
  143BOLB   PO1 3410  28.415  11.279  14.400 -0.0649 -0.1584 -0.2146
  143BOLB   GL1 3411  27.942  11.397  14.530  0.0857 -0.0417  0.1959
  143BOLB   GL2 3412  27.814  11.293  14.742  0.0438  0.0747  0.0957
  143BOLB   C1A 3413  27.616  11.382  14.246  0.0349 -0.1415 -0.0756
  143BOLB   C2A 3414  27.127  11.501  14.276  0.0638 -0.0792  0.1612
  143BOLB   C3A 3415  26.972  11.628  13.809  0.1843  0.1097 -0.1328
  143BOLB   C4A 3416  26.625  11.340  13.681 -0.2196 -0.1905  0.3401
  143BOLB   C1B 3417  27.434  11.148  15.040 -0.3204  0.0336  0.0576
  143BOLB   C2B 3418  27.169  11.202  15.312  0.1344  0.0447  0.0015
  143BOLB   C3B 3419  26.878  11.118  15.601  0.1672 -0.1659 -0.0946
  143BOLB   C4B 3420  26.601  11.407  15.734 -0.0752 -0.0206 -0.2802
  143BOLB   NC2 3421  28.248  10.589  14.351  0.0291  0.2679 -0.0077
  143BOLB   PO2 3422  28.017  10.455  13.985 -0.2807  0.4341 -0.2776
  143BOLB   GL3 3423  27.750  10.543  14.251  0.1742 -0.0306  0.1488
  143BOLB   GL4 3424  27.680  10.787  14.093  0.2334  0.1943  0.1294
  143BOLB   C1C 3425  27.340  10.439  14.311  0.1093 -0.0822 -0.1486
  143BOLB   C2C 3426  27.000  10.624  14.213 -0.1179 -0.2969 -0.0852
  143BOLB   C3C 3427  26.579  10.683  14.069  0.2187 -0.0973 -0.0221
  143BOLB   C4C 3428  26.422  10.992  13.750 -0.1028  0.0735  0.0909
  143BOLB   C1D 3429  27.302  10.997  14.105  0.1123 -0.1366  0.0848
  143BOLB   C2D 3430  26.909  11.118  14.062 -0.0964  0.0268  0.2763
  143BOLB   C3D 3431  26.689  11.249  14.243  0.0801  0.2278 -0.0964
  143BOLB   C4D 3432  26.738  11.529  14.520 -0.0618 -0.2321  0.3111
  144BOLB   NC1 3433  14.503   9.366  22.807  0.2679 -0.2417  0.1806
  144BOLB   PO1 3434  14.879   9.407  23.047  0.0522 -0.0159  0.1677
  144BOLB   GL1 3435  14.748   9.568  23.574 -0.0824  0.0541  0.0608
  144BOLB   GL2 3436  14.731   9.274  23.838 -0.0873  0.0016  0.0762
  144BOLB   C1A 3437  14.721   9.774  23.924  0.1354 -0.3870 -0.4383
  144BOLB   C2A 3438  14.636   9.872  24.356  0.2681  0.1752  0.1301
  144BOLB   C3A 3439  14.858   9.541  24.562 -0.0178 -0.0202  0.2248
  144BOLB   C4A 3440  14.891   9.396  24.988 -0.2390  0.3802  0.0366
  144BOLB   C1B 3441  14.532   9.301  24.192  0.1340  0.0330  0.3902
  144BOLB   C2B 3442  14.380   9.551  24.553  0.2565  0.0638 -0.1674
  144BOLB   C3B 3443  14.516   9.771  24.866 -0.3781 -0.0993  0.0543
  144BOLB   C4B 3444  14.769   9.988  24.993  0.1984 -0.0519 -0.0539
  144BOLB   NC2 3445  13.743   9.418  27.350  0.0512 -0.1397  0.1742
  144BOLB   PO2 3446  13.715   9.108  27.080 -0.0099  0.3768 -0.1628
  144BOLB   GL3 3447  13.950   9.198  26.694  0.0943  0.2575 -0.0173
  144BOLB   GL4 3448  14.096   9.456  26.719 -0.0921 -0.0250 -0.1331
  144BOLB   C1C 3449  14.140   8.993  26.426 -0.0008 -0.0644  0.0036
  144BOLB   C2C 3450  14.500   9.171  26.188 -0.0370 -0.1459 -0.0418
  144BOLB   C3C 3451  14.708   9.337  25.869 -0.3222 -0.3314  0.0026
  144BOLB   C4C 3452  14.886   9.279  25.402  0.1906 -0.0967 -0.2347
  144BOLB   C1D 3453  14.430   9.589  26.517  0.2291 -0.4787 -0.0874
  144BOLB   C2D 3454  14.424   9.807  26.160 -0.0899  0.0747  0.0327
  144BOLB   C3D 3455  14.373   9.969  25.717  0.2639 -0.0767  0.1495
  144BOLB   C4D 3456  14.424   9.996  25.313  0.0399 -0.1861 -0.1141
  145BOLB   NC1 3457  17.135  11.738   3.400 -0.0581 -0.2943 -0.0853
  145BOLB   PO1 3458  17.153  11.706   3.891  0.3488  0.1780 -0.0928
  145BOLB   GL1 3459  16.780  11.672   4.037 -0.3983 -0.3506 -0.1842
  145BOLB   GL2 3460  16.667  11.952   4.162  0.1411  0.0395 -0.3335
  145BOLB   C1A 3461  16.442  11.510   4.334  0.0246  0.0885 -0.0674
  145BOLB   C2A 3462  16.081  11.527   4.693  0.2624 -0.0060  0.0073
  145BOLB   C3A 3463  15.630  11.440   4.861 -0.2036  0.0289  0.1600
  145BOLB   C4A 3464  15.297  11.179   4.848 -0.0491 -0.0856 -0.2372
  145BOLB   C1B 3465  16.268  11.974   4.495 -0.2616  0.0916  0.1662
  145BOLB   C2B 3466  15.941  12.017   4.791 -0.0705 -0.1331 -0.0603
  145BOLB   C3B 3467  15.631  12.036   5.047 -0.3676  0.3014 -0.2063
  145BOLB   C4B 3468  15.137  12.017   5.170  0.4156 -0.2059  0.1809
  145BOLB   NC2 3469  14.801  10.900   2.239 -0.0346 -0.2455 -0.0690
  145BOLB   PO2 3470  15.005  10.899   2.568  0.0136 -0.0212 -0.0140
  145BOLB   GL3 3471  14.970  10.702   2.879 -0.1530  0.0360  0.0275
  145BOLB   GL4 3472  15.003  10.322   2.858 -0.0294 -0.3496  0.0155
  145BOLB   C1C 3473  14.886  10.542   3.394 -0.2860  0.0260 -0.2560
  145BOLB   C2C 3474  14.825  10.789   3.816  0.1164  0.0695 -0.2351
  145BOLB   C3C 3475  14.866  10.878   4.240 -0.1821  0.0980 -0.1278
  145BOLB   C4C 3476  15.000  11.152   4.589 -0.2399  0.0849  0.1511
  145BOLB   C1D 3477  15.059  10.052   3.150  0.2339  0.2129 -0.1077
  145BOLB   C2D 3478  14.763   9.832   3.461 -0.0790  0.2053 -0.1651
  145BOLB   C3D 3479  14.581   9.452   3.557 -0.0655 -0.1337 -0.0512
  145BOLB   C4D 3480  14.535   9.077   3.770  0.0108 -0.2619  0.3225
  146BOLB   NC1 3481  17.746  17.826  19.483  0.2341  0.1439  0.1710
  146BOLB   PO1 3482  17.906  17.968  19.179  0.2484  0.0115 -0.1974
  146BOLB   GL1 3483  18.030  18.303  19.472 -0.2727  0.1299  0.2059
  146BOLB   GL2 3484  18.429  18.219  19.643 -0.1627 -0.1310 -0.0169
  146BOLB   C1A 3485  17.963  18.794  19.602 -0.3153 -0.1246 -0.0275
  146BOLB   C2A 3486  17.931  19.106  19.857  0.1900 -0.4030 -0.1512
  146BOLB   C3A 3487  17.679  19.373  20.133  0.1419 -0.3412  0.0818
  146BOLB   C4A 3488  17.541  19.599  20.496  0.0218 -0.1398 -0.1723
  146BOLB   C1B 3489  18.652  18.484  19.585 -0.1934  0.0640 -0.0448
  146BOLB   C2B 3490  19.034  18.777  19.623  0.0014 -0.2281  0.1365
  146BOLB   C3B 3491  19.095  19.203  19.629  0.1858 -0.1937  0.2304
  146BOLB   C4B 3492  18.996  19.653  19.789  0.0286 -0.0688  0.0205
  146BOLB   NC2 3493  17.991  21.037  22.676  0.6088 -0.1272 -0.0967
  146BOLB   PO2 3494  18.286  20.672  22.533 -0.2179  0.2625 -0.2379
  146BOLB   GL3 3495  18.255  20.260  22.346  0.3248  0.1720 -0.1336
  146BOLB   GL4 3496  18.477  20.020  22.398  0.0875 -0.1271  0.1285
  146BOLB   C1C 3497  18.122  20.078  21.987 -0.0621  0.1258  0.1338
  146BOLB   C2C 3498  18.009  19.903  21.627  0.1505  0.2816 -0.3879
  146BOLB   C3C 3499  17.844  19.804  21.248  0.1303 -0.0678 -0.1645
  146BOLB   C4C 3500  17.662  19.532  20.941  0.0981 -0.2666  0.2941
  146BOLB   C1D 3501  18.900  19.966  22.051 -0.2239 -0.0424  0.1992
  146BOLB   C2D 3502  18.993  19.909  21.601 -0.0331  0.0430  0.1812
  146BOLB   C3D 3503  18.844  19.862  21.334 -0.1811 -0.2291  0.2070
  146BOLB   C4D 3504  18.815  19.734  20.953  0.2923  0.0218  0.2214
  147BOLB   NC1 3505  25.130  10.573   8.073  0.1844  0.0449  0.2973
  147BOLB   PO1 3506  24.917  10.964   7.940  0.1536  0.0141  0.1163
  147BOLB   GL1 3507  24.533  11.009   8.117 -0.0170  0.3334 -0.0748
  147BOLB   GL2 3508  24.554  11.178   8.377  0.2299  0.0398  0.0483
  147BOLB   C1A 3509  24.168  10.708   8.290  0.1746  0.0878 -0.0171
  147BOLB   C2A 3510  23.868  10.769   8.614 -0.2330  0.1112  0.2278
  147BOLB   C3A 3511  23.485  10.893   8.877  0.2481  0.4033  0.3809
  147BOLB   C4A 3512  23.114  11.140   9.018  0.0649  0.0935  0.2221
  147BOLB   C1B 3513  24.283  11.003   8.683 -0.1959  0.0016  0.1299
  147BOLB   C2B 3514  23.875  11.232   8.631  0.1414  0.1457 -0.0079
  147BOLB   C3B 3515  23.523  11.393   8.676  0.1652 -0.2757  0.0009
  147BOLB   C4B 3516  23.107  11.389   8.604  0.0196 -0.0679 -0.1334
  147BOLB   NC2 3517  21.254  10.310  10.659  0.1115 -0.1119 -0.1319
  147BOLB   PO2 3518  21.649  10.158  10.499  0.0289  0.1044  0.1836
  147BOLB   GL3 3519  21.877  10.251  10.186 -0.0007  0.0531  0.3023
  147BOLB   GL4 3520  22.164  10.004  10.322 -0.0975 -0.1507  0.0526
  147BOLB   C1C 3521  22.013  10.399   9.854  0.4785 -0.3009 -0.4411
  147BOLB   C2C 3522  22.389  10.535   9.511 -0.4716 -0.2829  0.1290
  147BOLB   C3C 3523  22.548  10.871   9.262  0.1816 -0.1762  0.1407
  147BOLB   C4C 3524  22.792  11.113   8.989  0.3564 -0.0821 -0.2066
  147BOLB   C1D 3525  22.452  10.185  10.091  0.4023  0.0384  0.2099
  147BOLB   C2D 3526  22.736  10.320   9.894  0.0506 -0.1544 -0.4173
  147BOLB   C3D 3527  23.166  10.348   9.874  0.0636 -0.2408 -0.0487
  147BOLB   C4D 3528  23.561  10.584   9.793 -0.0983  0.1012 -0.0473
  148BOLB   NC1 3529  17.780   4.835  21.485 -0.1748  0.0286  0.1184
  148BOLB   PO1 3530  17.459   4.586  21.211 -0.0489  0.1787  0.0777
  148BOLB   GL1 3531  17.558   4.193  21.406  0.0917  0.5006  0.3783
  148BOLB   GL2 3532  17.282   4.275  21.645  0.0498  0.6114  0.1089
  148BOLB   C1A 3533  17.974   4.089  21.457  0.3346 -0.0340 -0.6283
  148BOLB   C2A 3534  18.415   3.964  21.393  0.1474  0.0390  0.2026
  148BOLB   C3A 3535  18.716   3.641  21.479 -0.3178  0.0027 -0.2304
  148BOLB   C4A 3536  18.972   3.322  21.672  0.3136 -0.0179  0.1413
  148BOLB   C1B 3537  17.511   4.103  21.921 -0.0333 -0.1214  0.1564
  148BOLB   C2B 3538  17.366   3.895  22.400  0.1404  0.0481 -0.1921
  148BOLB   C3B 3539  17.529   4.191  22.765 -0.1114  0.1923 -0.1471
  148BOLB   C4B 3540  17.707   4.051  23.203 -0.1491 -0.0442 -0.1733
  148BOLB   NC2 3541  20.178   1.615  22.931  0.0442 -0.3108 -0.0473
  148BOLB   PO2 3542  20.237   1.296  22.567  0.2330  0.3509  0.0797
  148BOLB   GL3 3543  20.243   1.673  22.396 -0.1176  0.4007 -0.1897
  148BOLB   GL4 3544  20.609   1.696  22.268 -0.3590 -0.4054 -0.2473
  148BOLB   C1C 3545  19.971   1.966  22.303 -0.2188  0.0904 -0.3464
  148BOLB   C2C 3546  19.662   2.265  22.116  0.0994  0.2268 -0.1349
  148BOLB   C3C 3547  19.423   2.673  21.986 -0.1810  0.2132 -0.1333
  148BOLB   C4C 3548  19.144   2.993  21.903  0.2607 -0.1105  0.0010
  148BOLB   C1D 3549  20.511   2.043  21.994  0.0865  0.3154  0.0343
  148BOLB   C2D 3550  20.254   2.414  22.252 -0.0921 -0.0215 -0.0406
  148BOLB   C3D 3551  19.961   2.734  22.249  0.0446  0.4278  0.2127
  148BOLB   C4D 3552  19.698   3.173  22.251 -0.2832  0.0417  0.2490
  149BOLB   NC1 3553  14.891  11.659  27.694  0.0801 -0.2682  0.0415
  149BOLB   PO1 3554  14.777  11.474  27.254  0.2012 -0.0784  0.3828
  149BOLB   GL1 3555  14.959  11.646  26.900 -0.2321  0.0381  0.0968
  149BOLB   GL2 3556  15.041  11.992  26.866 -0.1495  0.0869 -0.0306
  149BOLB   C1A 3557  15.096  11.717  26.416  0.2935  0.0102 -0.0212
  149BOLB   C2A 3558  15.350  11.578  25.988  0.3867 -0.0051 -0.0282
  149BOLB   C3A 3559  15.473  11.552  25.539  0.2600 -0.1717  0.2520
  149BOLB   C4A 3560  15.676  11.317  25.321 -0.1524 -0.0705 -0.1211
  149BOLB   C1B 3561  14.613  11.805  26.639 -0.5528 -0.2920  0.1089
  149BOLB   C2B 3562  14.601  11.685  26.233 -0.3316  0.1114 -0.0098
  149BOLB   C3B 3563  14.541  11.970  25.841  0.0820  0.3470  0.0435
  149BOLB   C4B 3564  14.316  12.182  25.589 -0.2570 -0.0216 -0.1614
  149BOLB   NC2 3565  16.571  10.999  23.347  0.1124  0.1000 -0.2409
  149BOLB   PO2 3566  16.175  10.958  23.220  0.1815  0.0098 -0.1253
  149BOLB   GL3 3567  16.027  10.929  23.669  0.1071  0.0395 -0.0458
  149BOLB   GL4 3568  16.125  10.681  23.891 -0.2221  0.0622  0.0553
  149BOLB   C1C 3569  15.608  10.967  23.832  0.0004 -0.1794 -0.0806
  149BOLB   C2C 3570  15.453  10.916  24.303  0.1642  0.1369 -0.1052
  149BOLB   C3C 3571  15.297  10.808  24.685  0.0193 -0.0153 -0.1708
  149BOLB   C4C 3572  15.443  10.945  25.118 -0.0309  0.0908 -0.2086
  149BOLB   C1D 3573  16.086  10.863  24.299  0.1521 -0.1384  0.2281
  149BOLB   C2D 3574  15.866  10.987  24.600  0.0286 -0.1846  0.2516
  149BOLB   C3D 3575  15.590  11.264  24.686  0.0180 -0.2365  0.1386
  149BOLB   C4D 3576  15.219  11.373  25.040  0.0509 -0.0496  0.0002
  150BOLB   NC1 3577   7.460   4.317   4.402 -0.1866  0.2322  0.1522
  150BOLB   PO1 3578   7.840   4.269   4.298 -0.0456  0.2895  0.1815
  150BOLB   GL1 3579   7.854   4.380   4.797  0.1886  0.0629  0.0690
  150BOLB   GL2 3580   8.171   4.125   4.780 -0.1008 -0.1806 -0.0838
  150BOLB   C1A 3581   7.876   4.747   4.860  0.0888 -0.3883 -0.2345
  150BOLB   C2A 3582   7.834   5.085   5.128  0.1629  0.3434  0.1825
  150BOLB   C3A 3583   7.427   5.251   5.238 -0.0396 -0.0642 -0.1889
  150BOLB   C4A 3584   7.107   5.219   5.621 -0.1677  0.2229  0.1150
  150BOLB   C1B 3585   8.540   3.966   4.963  0.1999  0.0798 -0.3318
  150BOLB   C2B 3586   9.009   4.120   5.135  0.0567 -0.1496 -0.0603
  150BOLB   C3B 3587   9.170   4.361   5.522 -0.1235  0.0767  0.0485
  150BOLB   C4B 3588   8.986   4.684   5.797 -0.3395 -0.2550  0.2212
  150BOLB   NC2 3589   4.847   4.505   5.823 -0.0728 -0.1084 -0.0802
  150BOLB   PO2 3590   5.215   4.257   5.835 -0.1104  0.0620 -0.0609
  150BOLB   GL3 3591   5.614   4.223   5.965 -0.0340 -0.0494  0.0831
  150BOLB   GL4 3592   5.913   4.094   5.909 -0.3114 -0.1178  0.0028
  150BOLB   C1C 3593   5.768   4.525   6.244  0.0036 -0.0864  0.0915
  150BOLB   C2C 3594   6.153   4.791   6.358 -0.1902 -0.0982  0.1080
  150BOLB   C3C 3595   6.525   5.078   6.285 -0.2472 -0.1070  0.2778
  150BOLB   C4C 3596   6.788   5.291   5.962 -0.0171 -0.3488 -0.0827
  150BOLB   C1D 3597   6.188   4.518   5.892 -0.1846 -0.0626  0.0396
  150BOLB   C2D 3598   6.534   4.600   5.780  0.1412  0.1191 -0.2062
  150BOLB   C3D 3599   6.896   4.731   6.000  0.1102  0.1942 -0.0586
  150BOLB   C4D 3600   7.062   5.000   6.208  0.1028  0.0927  0.0393
  151BOLB   NC1 3601  18.456  10.475   4.396 -0.1892  0.4042  0.1591
  151BOLB   PO1 3602  18.286  10.848   4.163  0.0719  0.0513  0.1676
  151BOLB   GL1 3603  18.111  11.117   4.470  0.3550 -0.0829  0.1847
  151BOLB   GL2 3604  17.812  11.319   4.425 -0.0249  0.1534  0.3766
  151BOLB   C1A 3605  18.097  11.120   4.883 -0.0371 -0.1215 -0.1789
  151BOLB   C2A 3606  18.192  11.142   5.299  0.1252 -0.3996  0.1076
  151BOLB   C3A 3607  18.125  11.217   5.662 -0.5021 -0.2955 -0.1037
  151BOLB   C4A 3608  17.906  11.026   5.948  0.0828 -0.1538 -0.0752
  151BOLB   C1B 3609  17.510  11.146   4.641  0.1842 -0.1801  0.1686
  151BOLB   C2B 3610  17.415  11.190   5.069  0.1930  0.1024  0.0758
  151BOLB   C3B 3611  17.167  11.357   5.411 -0.1531  0.0406  0.1662
  151BOLB   C4B 3612  17.184  11.645   5.795  0.1470  0.2480  0.0084
  151BOLB   NC2 3613  16.546  10.729   8.042  0.0156 -0.0198  0.0563
  151BOLB   PO2 3614  16.671  11.107   8.180  0.0028 -0.3779 -0.2259
  151BOLB   GL3 3615  16.977  10.872   7.873  0.2311  0.1940  0.1335
  151BOLB   GL4 3616  16.830  10.912   7.582  0.2708  0.0813 -0.0361
  151BOLB   C1C 3617  17.309  10.779   7.522 -0.2503 -0.0171  0.1285
  151BOLB   C2C 3618  17.515  10.863   7.133 -0.0585  0.2544 -0.0950
  151BOLB   C3C 3619  17.679  10.773   6.711  0.1142  0.1391  0.0455
  151BOLB   C4C 3620  17.698  10.852   6.361  0.0922 -0.0232  0.3484
  151BOLB   C1D 3621  16.993  10.903   7.091 -0.0456 -0.0670  0.3039
  151BOLB   C2D 3622  17.154  10.849   6.671 -0.0391  0.4040 -0.1566
  151BOLB   C3D 3623  17.164  10.898   6.329  0.0549  0.1790  0.0014
  151BOLB   C4D 3624  17.387  11.071   5.986 -0.0014  0.0450 -0.0293
  152BOLB   NC1 3625  22.356   5.978  17.727 -0.1243  0.1657  0.5429
  152BOLB   PO1 3626  22.743   5.719  17.534  0.1153  0.0040 -0.0762
  152BOLB   GL1 3627  23.037   5.519  17.644  0.0198 -0.3030 -0.0543
  152BOLB   GL2 3628  23.259   5.704  17.855  0.1690 -0.0961  0.0488
  152BOLB   C1A 3629  23.276   5.166  17.699 -0.1243 -0.0778  0.2420
  152BOLB   C2A 3630  23.637   4.952  17.600  0.0499  0.0363 -0.0651
  152BOLB   C3A 3631  24.082   4.823  17.360  0.3433 -0.3212  0.0094
  152BOLB   C4A 3632  24.242   4.536  17.292  0.3479  0.1539 -0.0784
  152BOLB   C1B 3633  23.667   5.483  17.930 -0.0529 -0.0286  0.0131
  152BOLB   C2B 3634  23.957   5.395  18.018  0.0121 -0.0275  0.0132
  152BOLB   C3B 3635  24.267   5.135  18.148 -0.1220 -0.1250 -0.1050
  152BOLB   C4B 3636  24.525   5.096  18.483 -0.0368 -0.0030  0.2097
  152BOLB   NC2 3637  26.135   3.236  18.134 -0.0868  0.0754 -0.1494
  152BOLB   PO2 3638  26.239   3.387  17.734  0.1441  0.1018  0.3224
  152BOLB   GL3 3639  25.910   3.600  17.520 -0.3356 -0.0726 -0.0542
  152BOLB   GL4 3640  25.908   3.962  17.531 -0.3892  0.1362  0.2154
  152BOLB   C1C 3641  25.479   3.715  17.436 -0.0023 -0.1733  0.2117
  152BOLB   C2C 3642  25.163   3.824  17.507  0.1762  0.1205  0.2545
  152BOLB   C3C 3643  24.819   3.962  17.317 -0.3209  0.0122  0.2194
  152BOLB   C4C 3644  24.554   4.277  17.192  0.1760 -0.5344 -0.1024
  152BOLB   C1D 3645  25.655   4.117  17.758 -0.0127 -0.0763  0.0045
  152BOLB   C2D 3646  25.257   3.989  18.088  0.0799 -0.2363 -0.1915
  152BOLB   C3D 3647  25.070   3.957  18.458 -0.0606  0.1824 -0.0806
  152BOLB   C4D 3648  25.320   3.764  18.702  0.0249  0.1544  0.1036
  153BOLB   NC1 3649  19.367   4.763  20.352 -0.2606  0.0887  0.1641
  153BOLB   PO1 3650  19.811   4.872  20.167  0.1887 -0.1892  0.1092
  153BOLB   GL1 3651  19.990   4.681  20.518  0.0234 -0.0170  0.2239
  153BOLB   GL2 3652  20.120   4.924  20.713 -0.1018  0.0842  0.0522
  153BOLB   C1A 3653  19.972   4.267  20.641  0.0706 -0.0171  0.1980
  153BOLB   C2A 3654  20.070   3.771  20.637 -0.3194 -0.1213  0.2194
  153BOLB   C3A 3655  20.186   3.541  20.946  0.3174  0.2485  0.2347
  153BOLB   C4A 3656  20.348   3.175  21.174 -0.0481 -0.1477 -0.3268
  153BOLB   C1B 3657  20.173   4.563  20.990  0.3528  0.0149 -0.4211
  153BOLB   C2B 3658  20.291   4.390  21.370  0.1694 -0.3802  0.2545
  153BOLB   C3B 3659  20.488   4.082  21.734  0.1738  0.4816  0.0879
  153BOLB   C4B 3660  20.440   3.758  21.985  0.2656 -0.1426  0.0235
  153BOLB   NC2 3661  21.328   1.113  21.872 -0.2851  0.2871 -0.0287
  153BOLB   PO2 3662  21.629   1.431  22.062 -0.2353  0.0106  0.1382
  153BOLB   GL3 3663  21.444   1.784  21.996 -0.2718 -0.0706 -0.0419
  153BOLB   GL4 3664  21.704   1.957  22.075 -0.1062  0.0063  0.0252
  153BOLB   C1C 3665  21.051   1.945  21.857  0.2478 -0.0239  0.0125
  153BOLB   C2C 3666  20.896   2.224  21.604 -0.1569 -0.1861 -0.0003
  153BOLB   C3C 3667  20.489   2.365  21.521  0.0926 -0.0494  0.1074
  153BOLB   C4C 3668  20.348   2.715  21.251 -0.1549 -0.0982  0.0040
  153BOLB   C1D 3669  21.403   2.387  22.075 -0.0110  0.0864  0.2821
  153BOLB   C2D 3670  21.152   2.698  21.795 -0.0560 -0.2173 -0.0103
  153BOLB   C3D 3671  21.169   2.700  21.341 -0.2428 -0.1504 -0.0188
  153BOLB   C4D 3672  21.208   2.792  20.948  0.1232 -0.2635  0.0371
  154BOLB   NC1 3673  26.854   3.101  15.906 -0.2106  0.2937 -0.0098
  154BOLB   PO1 3674  26.773   3.587  15.791 -0.0181 -0.2071 -0.0722
  154BOLB   GL1 3675  26.369   3.546  15.575 -0.0015  0.2539  0.0306
  154BOLB   GL2 3676  26.180   3.687  15.365  0.0100  0.1251 -0.2247
  154BOLB   C1A 3677  25.920   3.351  15.620 -0.3196 -0.2336  0.1095
  154BOLB   C2A 3678  25.515   3.470  15.754  0.0408  0.0275 -0.0159
  154BOLB   C3A 3679  25.049   3.665  15.667 -0.3197 -0.2152 -0.0033
  154BOLB   C4A 3680  24.631   4.025  15.720  0.0493 -0.1546  0.0454
  154BOLB   C1B 3681  25.772   3.835  15.473  0.0108 -0.1514  0.2203
  154BOLB   C2B 3682  25.447   3.955  15.412 -0.0090  0.0225  0.1333
  154BOLB   C3B 3683  25.144   3.967  15.099  0.3052  0.0598  0.4486
  154BOLB   C4B 3684  24.809   3.898  14.827  0.1156 -0.0933  0.0540
  154BOLB   NC2 3685  22.772   5.068  15.855  0.0940 -0.2591  0.3790
  154BOLB   PO2 3686  22.903   5.514  15.914 -0.0794  0.2584 -0.0331
  154BOLB   GL3 3687  23.240   5.336  16.086  0.0387 -0.1212  0.2152
  154BOLB   GL4 3688  23.576   5.389  16.106  0.1555 -0.0676 -0.0534
  154BOLB   C1C 3689  23.540   5.034  16.381  0.1262 -0.2041 -0.1218
  154BOLB   C2C 3690  23.912   4.819  16.365 -0.0486 -0.4248  0.0171
  154BOLB   C3C 3691  24.133   4.382  16.358 -0.0729  0.0618 -0.1877
  154BOLB   C4C 3692  24.309   4.104  16.002  0.0121  0.0155  0.1520
  154BOLB   C1D 3693  23.849   5.480  16.328  0.2148  0.1999 -0.2713
  154BOLB   C2D 3694  24.141   5.297  16.552  0.0497  0.3122  0.1417
  154BOLB   C3D 3695  24.468   5.208  16.669 -0.0990 -0.1741 -0.4913
  154BOLB   C4D 3696  24.954   5.328  16.581 -0.0031  0.5084  0.1808
  155BOLB   NC1 3697  23.979  11.488  12.691 -0.2286  0.0087  0.0608
  155BOLB   PO1 3698  23.979  11.529  13.167  0.1790  0.2196 -0.0156
  155BOLB   GL1 3699  24.350  11.654  13.127  0.0480 -0.1748 -0.3536
  155BOLB   GL2 3700  24.493  11.583  12.846 -0.1058 -0.0975 -0.0244
  155BOLB   C1A 3701  24.770  11.782  13.320 -0.3406  0.2308  0.2328
  155BOLB   C2A 3702  25.022  11.684  13.053 -0.0166 -0.0480 -0.1246
  155BOLB   C3A 3703  25.419  11.588  13.032  0.1584  0.0193 -0.2692
  155BOLB   C4A 3704  25.645  11.713  12.672  0.0547  0.2098  0.0488
  155BOLB   C1B 3705  24.660  11.493  12.626 -0.0051  0.1630 -0.0756
  155BOLB   C2B 3706  25.012  11.513  12.475 -0.1354  0.1532  0.0237
  155BOLB   C3B 3707  25.334  11.472  12.192 -0.1345 -0.2499  0.1904
  155BOLB   C4B 3708  25.625  11.658  11.923  0.0896  0.2228 -0.1715
  155BOLB   NC2 3709  27.845  12.273  12.771 -0.2696 -0.0748 -0.2730
  155BOLB   PO2 3710  27.795  12.110  12.415  0.2225 -0.0786  0.0295
  155BOLB   GL3 3711  27.461  11.862  12.487  0.0333  0.1973 -0.4405
  155BOLB   GL4 3712  27.315  11.955  12.832 -0.1838 -0.2835  0.1657
  155BOLB   C1C 3713  27.038  11.900  12.388  0.5048 -0.1574  0.2199
  155BOLB   C2C 3714  26.673  11.808  12.200 -0.1166  0.3543 -0.4219
  155BOLB   C3C 3715  26.281  11.952  12.150 -0.0833 -0.0868 -0.2949
  155BOLB   C4C 3716  25.943  11.759  12.355 -0.0521  0.1723  0.2193
  155BOLB   C1D 3717  26.945  12.003  12.998 -0.0343  0.1469  0.0410
  155BOLB   C2D 3718  26.548  11.963  12.743  0.1304 -0.0664  0.1212
  155BOLB   C3D 3719  26.137  11.776  12.831 -0.0405  0.0317  0.0693
  155BOLB   C4D 3720  25.906  11.606  13.153  0.1533  0.3621  0.1494
  156BOLB   NC1 3721  22.582  14.333  13.658 -0.1869 -0.1468 -0.0747
  156BOLB   PO1 3722  22.964  14.651  13.688 -0.0437  0.1848 -0.3982
  156BOLB   GL1 3723  23.088  14.926  13.380 -0.0261  0.1641 -0.1774
  156BOLB   GL2 3724  23.031  15.214  13.312 -0.0645 -0.1142  0.4266
  156BOLB   C1A 3725  23.508  14.975  13.457  0.3645 -0.0787  0.1175
  156BOLB   C2A 3726  23.985  15.096  13.340 -0.1270  0.1671 -0.5910
  156BOLB   C3A 3727  24.214  14.874  13.090 -0.1664 -0.1205  0.2454
  156BOLB   C4A 3728  24.616  14.972  12.874  0.1467 -0.2919  0.0926
  156BOLB   C1B 3729  23.368  15.233  13.026  0.0920 -0.0179  0.1246
  156BOLB   C2B 3730  23.623  15.613  12.837  0.0287 -0.1127  0.2823
  156BOLB   C3B 3731  23.753  15.491  12.412 -0.1056 -0.0975 -0.0309
  156BOLB   C4B 3732  23.640  15.576  11.961 -0.2486 -0.0019 -0.0885
  156BOLB   NC2 3733  26.656  16.611  12.151  0.0439  0.2393 -0.1792
  156BOLB   PO2 3734  26.705  16.357  12.571  0.1846  0.1283 -0.0215
  156BOLB   GL3 3735  26.432  16.020  12.587  0.2050 -0.1263  0.4410
  156BOLB   GL4 3736  26.292  16.118  12.995  0.2327  0.1823 -0.0200
  156BOLB   C1C 3737  26.051  15.726  12.368  0.4456 -0.1111  0.1994
  156BOLB   C2C 3738  25.580  15.742  12.410 -0.2168 -0.3311  0.0414
  156BOLB   C3C 3739  25.323  15.366  12.608  0.1944 -0.0699  0.2823
  156BOLB   C4C 3740  25.065  15.023  12.745 -0.0367 -0.0953  0.2202
  156BOLB   C1D 3741  25.840  16.262  13.176 -0.0632  0.3840  0.0520
  156BOLB   C2D 3742  25.445  16.147  13.315 -0.2412 -0.1491 -0.0096
  156BOLB   C3D 3743  25.060  16.120  13.412  0.1282  0.0282 -0.0243
  156BOLB   C4D 3744  24.857  15.896  13.752 -0.2691  0.2099 -0.0093
  157BOLB   NC1 3745   2.703   4.876  18.038 -0.1650  0.2191 -0.2824
  157BOLB   PO1 3746   2.849   5.302  18.097 -0.1587 -0.1500  0.0711
  157BOLB   GL1 3747   3.003   5.342  17.758  0.0382 -0.0789 -0.1875
  157BOLB   GL2 3748   2.907   5.642  17.595 -0.1476 -0.3442  0.0560
  157BOLB   C1A 3749   3.265   5.281  17.491  0.0651  0.1193 -0.0496
  157BOLB   C2A 3750   3.449   5.294  17.195 -0.1528  0.1938 -0.1466
  157BOLB   C3A 3751   3.502   5.581  16.805  0.2181  0.0656 -0.2046
  157BOLB   C4A 3752   3.426   5.749  16.374 -0.1326 -0.0072 -0.1714
  157BOLB   C1B 3753   3.226   5.755  17.421  0.2092 -0.0703 -0.4036
  157BOLB   C2B 3754   3.540   6.080  17.148 -0.1249 -0.0088  0.3954
  157BOLB   C3B 3755   3.633   6.298  16.745  0.1376  0.2469 -0.1994
  157BOLB   C4B 3756   3.724   6.364  16.394  0.2113  0.1411  0.1947
  157BOLB   NC2 3757   1.154   6.456  15.381 -0.1204  0.2625 -0.0054
  157BOLB   PO2 3758   1.402   6.107  15.591 -0.0228  0.1538  0.2406
  157BOLB   GL3 3759   1.778   6.138  15.451 -0.1475 -0.0326  0.0491
  157BOLB   GL4 3760   1.812   6.017  15.104  0.2416 -0.1985  0.1159
  157BOLB   C1C 3761   2.277   6.179  15.400  0.0016 -0.0467  0.0628
  157BOLB   C2C 3762   2.619   6.386  15.663 -0.1162 -0.3413  0.1775
  157BOLB   C3C 3763   2.869   6.338  15.989 -0.2143  0.0248 -0.1238
  157BOLB   C4C 3764   2.958   5.993  16.243  0.1459 -0.0760  0.3449
  157BOLB   C1D 3765   1.683   6.069  14.655 -0.0222  0.0370  0.2202
  157BOLB   C2D 3766   1.739   6.280  14.304 -0.0106  0.0531 -0.0800
  157BOLB   C3D 3767   1.537   6.599  14.101  0.2982  0.1222 -0.2970
  157BOLB   C4D 3768   1.489   6.796  13.737  0.3993  0.0708 -0.3627
  158BOLB   NC1 3769   5.614   7.132   4.325  0.3146  0.0883  0.1529
  158BOLB   PO1 3770   5.212   7.092   4.485 -0.1921  0.0499 -0.0089
  158BOLB   GL1 3771   5.486   7.135   4.840 -0.0289 -0.1588 -0.0787
  158BOLB   GL2 3772   5.368   7.085   5.153  0.0795 -0.1197  0.0553
  158BOLB   C1A 3773   5.876   7.102   5.013 -0.0458 -0.1661 -0.2088
  158BOLB   C2A 3774   6.230   7.265   5.164 -0.0114 -0.2743  0.0451
  158BOLB   C3A 3775   6.575   7.569   5.096  0.0159 -0.1404  0.3338
  158BOLB   C4A 3776   6.960   7.544   5.240 -0.4517  0.0242  0.3662
  158BOLB   C1B 3777   5.565   7.253   5.537 -0.0350 -0.1950  0.1902
  158BOLB   C2B 3778   5.955   7.262   5.641 -0.0533 -0.1343 -0.0330
  158BOLB   C3B 3779   6.149   7.202   5.874 -0.3081  0.3021 -0.1625
  158BOLB   C4B 3780   6.344   7.183   6.257  0.1655 -0.0140 -0.0192
  158BOLB   NC2 3781   6.797   6.374   3.298  0.1810 -0.0501  0.1740
  158BOLB   PO2 3782   7.193   6.471   3.265 -0.3101 -0.1953 -0.3393
  158BOLB   GL3 3783   7.284   6.774   3.572  0.1226  0.2656 -0.2233
  158BOLB   GL4 3784   7.630   6.771   3.885  0.1011  0.4858 -0.0452
  158BOLB   C1C 3785   7.262   7.153   3.807 -0.0862 -0.0406  0.0803
  158BOLB   C2C 3786   7.545   7.220   4.156 -0.1079 -0.3093  0.2385
  158BOLB   C3C 3787   7.561   7.474   4.590  0.1041 -0.1452  0.0350
  158BOLB   C4C 3788   7.334   7.552   5.092 -0.0073  0.0682 -0.1053
  158BOLB   C1D 3789   8.030   6.715   3.925  0.1500 -0.1088 -0.2099
  158BOLB   C2D 3790   8.362   6.501   4.270 -0.0631 -0.0088 -0.1004
  158BOLB   C3D 3791   8.701   6.413   4.504 -0.0228  0.0266 -0.3196
  158BOLB   C4D 3792   9.159   6.438   4.530 -0.0817  0.0924  0.1675
  159BOLB   NC1 3793  14.829   4.011  21.344  0.1254  0.0070  0.0056
  159BOLB   PO1 3794  14.445   3.919  21.179 -0.3022 -0.0760 -0.2068
  159BOLB   GL1 3795  14.281   3.885  21.646  0.2152  0.0734 -0.0099
  159BOLB   GL2 3796  14.481   3.759  21.806 -0.1998  0.0057  0.2342
  159BOLB   C1A 3797  13.960   3.587  21.895 -0.1526  0.0098  0.0409
  159BOLB   C2A 3798  13.746   3.729  22.188 -0.0014  0.1647 -0.0977
  159BOLB   C3A 3799  13.366   3.595  22.374  0.0412 -0.3231 -0.3717
  159BOLB   C4A 3800  13.083   3.250  22.288 -0.0634  0.0023  0.2802
  159BOLB   C1B 3801  14.761   3.566  22.069  0.1421 -0.0301  0.0476
  159BOLB   C2B 3802  14.925   3.411  22.396  0.1936  0.0109 -0.0513
  159BOLB   C3B 3803  15.148   3.241  22.697 -0.0355 -0.0253 -0.1548
  159BOLB   C4B 3804  15.273   3.092  23.106 -0.0200  0.1084  0.1684
  159BOLB   NC2 3805  12.754   1.112  24.020 -0.5271 -0.2506  0.2741
  159BOLB   PO2 3806  12.969   1.468  23.907  0.1077 -0.2872  0.4395
  159BOLB   GL3 3807  13.173   1.822  23.651  0.1829  0.2145  0.0479
  159BOLB   GL4 3808  13.417   1.852  23.721  0.2130  0.2435 -0.0827
  159BOLB   C1C 3809  13.072   2.130  23.312 -0.0872  0.1599  0.2172
  159BOLB   C2C 3810  13.133   2.422  23.066 -0.1265  0.2596 -0.1916
  159BOLB   C3C 3811  13.138   2.509  22.716  0.2612 -0.0226  0.1570
  159BOLB   C4C 3812  13.077   2.736  22.303  0.0721  0.1436 -0.3573
  159BOLB   C1D 3813  13.686   1.943  23.287 -0.0283 -0.1093 -0.0045
  159BOLB   C2D 3814  13.537   2.124  22.926 -0.0828 -0.1304 -0.0278
  159BOLB   C3D 3815  13.601   2.191  22.499 -0.2764 -0.2286  0.1757
  159BOLB   C4D 3816  13.863   1.976  22.158  0.0848 -0.2483  0.0800
  160BOLB   NC1 3817   7.658  16.387  22.120 -0.1046  0.2649 -0.3212
  160BOLB   PO1 3818   7.934  16.307  22.508 -0.0450 -0.0622  0.1345
  160BOLB   GL1 3819   8.343  16.087  22.525 -0.0571 -0.0188  0.2019
  160BOLB   GL2 3820   8.626  16.140  22.672 -0.0179 -0.1795 -0.0074
  160BOLB   C1A 3821   8.563  15.823  22.217  0.2390 -0.1338 -0.0003
  160BOLB   C2A 3822   8.434  15.833  21.818  0.0838  0.0022  0.1977
  160BOLB   C3A 3823   8.599  15.892  21.389 -0.0572 -0.1893  0.0909
  160BOLB   C4A 3824   8.775  15.747  21.149 -0.5277  0.0368 -0.2621
  160BOLB   C1B 3825   8.966  16.134  22.393 -0.0055  0.0172  0.0606
  160BOLB   C2B 3826   9.263  15.926  22.097 -0.0860  0.1352 -0.1216
  160BOLB   C3B 3827   9.560  15.702  21.851  0.1548 -0.0463 -0.0023
  160BOLB   C4B 3828   9.688  15.284  21.720 -0.2125  0.1162 -0.0252
  160BOLB   NC2 3829  10.336  14.713  19.374 -0.2560  0.1130  0.1488
  160BOLB   PO2 3830  10.424  14.512  19.738  0.0648  0.1745 -0.0325
  160BOLB   GL3 3831  10.324  14.944  19.882 -0.1612 -0.2604 -0.1240
  160BOLB   GL4 3832  10.499  15.111  20.144  0.1668  0.0060  0.1132
  160BOLB   C1C 3833   9.997  15.141  20.206 -0.1406  0.0794  0.0632
  160BOLB   C2C 3834   9.841  15.366  20.550  0.3090  0.0607 -0.0912
  160BOLB   C3C 3835   9.464  15.571  20.711 -0.3435  0.0478 -0.0735
  160BOLB   C4C 3836   9.126  15.623  20.949  0.1243 -0.1502 -0.0598
  160BOLB   C1D 3837  10.421  15.302  20.490  0.0114  0.2242  0.0971
  160BOLB   C2D 3838  10.238  15.398  20.892  0.2499 -0.5079 -0.0860
  160BOLB   C3D 3839  10.224  15.701  21.274 -0.3570  0.1837  0.5337
  160BOLB   C4D 3840  10.251  15.959  21.503  0.2092 -0.2060 -0.1710
  161BOLB   NC1 3841  21.424  11.365  21.366  0.1506 -0.1942  0.0180
  161BOLB   PO1 3842  21.530  11.739  21.714  0.2144  0.2083 -0.0853
  161BOLB   GL1 3843  21.825  11.719  22.039 -0.4321 -0.1012 -0.1476
  161BOLB   GL2 3844  22.111  11.535  21.993  0.1477 -0.2925  0.0876
  161BOLB   C1A 3845  22.151  11.949  22.251 -0.3079  0.4107  0.0602
  161BOLB   C2A 3846  22.456  12.040  22.555  0.1215  0.0623  0.1054
  161BOLB   C3A 3847  22.406  11.929  22.976 -0.1870 -0.4237 -0.1696
  161BOLB   C4A 3848  22.529  11.785  23.344  0.0675 -0.3883 -0.4210
  161BOLB   C1B 3849  22.475  11.521  22.215 -0.0120  0.0843  0.3347
  161BOLB   C2B 3850  22.853  11.712  22.537 -0.1460 -0.4624  0.0789
  161BOLB   C3B 3851  22.936  12.042  22.907  0.0112 -0.0793 -0.2193
  161BOLB   C4B 3852  22.866  12.502  23.240  0.2029 -0.0886  0.1665
  161BOLB   NC2 3853  24.142  12.145  24.864  0.2412 -0.0990 -0.2018
  161BOLB   PO2 3854  23.855  11.843  25.081  0.0384 -0.3173  0.1424
  161BOLB   GL3 3855  23.583  11.495  25.063  0.1116 -0.1451 -0.1896
  161BOLB   GL4 3856  23.300  11.563  25.197 -0.1393  0.0283 -0.1430
  161BOLB   C1C 3857  23.407  11.307  24.630  0.0248 -0.0498  0.1687
  161BOLB   C2C 3858  23.231  11.307  24.234 -0.1236 -0.0748  0.0856
  161BOLB   C3C 3859  22.935  11.322  23.928 -0.0124 -0.2602  0.3244
  161BOLB   C4C 3860  22.846  11.493  23.571 -0.1711  0.0049  0.2724
  161BOLB   C1D 3861  23.073  11.262  24.963 -0.2048  0.1853 -0.2840
  161BOLB   C2D 3862  22.750  10.943  24.804  0.0623 -0.2114  0.2905
  161BOLB   C3D 3863  22.555  10.876  24.500  0.0645 -0.2434  0.1341
  161BOLB   C4D 3864  22.198  10.745  24.198  0.0257  0.4864 -0.2069
  162BOLB   NC1 3865  13.122  31.538   9.181 -0.1001  0.1677  0.4200
  162BOLB   PO1 3866  13.387  31.798   8.901  0.1983 -0.0917 -0.1210
  162BOLB   GL1 3867  13.759  32.090   9.183 -0.0295 -0.0901 -0.1446
  162BOLB   GL2 3868  14.052  32.295   9.245  0.2354 -0.1164 -0.0987
  162BOLB   C1A 3869  13.588  32.462   9.439  0.3695  0.3647  0.0945
  162BOLB   C2A 3870  13.532  32.672   9.850  0.2925  0.2374 -0.2145
  162BOLB   C3A 3871  13.512  32.945  10.156 -0.0339  0.3266  0.1154
  162BOLB   C4A 3872  13.802  33.242  10.357 -0.2948  0.1909 -0.4324
  162BOLB   C1B 3873  13.979  32.812   9.282  0.0632 -0.2057  0.2684
  162BOLB   C2B 3874  14.122  33.260   9.365 -0.1033 -0.0289 -0.0134
  162BOLB   C3B 3875  14.017  33.667   9.687 -0.1602  0.1158 -0.1352
  162BOLB   C4B 3876  13.850  33.966   9.932  0.0420 -0.1547  0.0063
  162BOLB   NC2 3877  15.253  31.230  12.022 -0.1552  0.0115  0.0695
  162BOLB   PO2 3878  14.867  31.450  11.841  0.1311  0.1310  0.1001
  162BOLB   GL3 3879  14.536  31.884  11.594 -0.1264  0.0545  0.4575
  162BOLB   GL4 3880  14.308  31.581  11.739 -0.0032  0.0142  0.0666
  162BOLB   C1C 3881  14.314  32.272  11.485 -0.0486  0.0079  0.0032
  162BOLB   C2C 3882  14.018  32.455  11.290 -0.0610  0.1004 -0.0065
  162BOLB   C3C 3883  13.949  32.776  11.031  0.0310  0.0980  0.0180
  162BOLB   C4C 3884  13.838  33.164  10.820  0.1247  0.2359  0.0907
  162BOLB   C1D 3885  14.063  31.879  11.769 -0.0622 -0.0024 -0.2549
  162BOLB   C2D 3886  13.874  32.268  11.751 -0.1263 -0.0247 -0.1197
  162BOLB   C3D 3887  13.738  32.657  11.629  0.0171  0.2086  0.2597
  162BOLB   C4D 3888  13.883  33.055  11.877 -0.0796 -0.2556 -0.4902
  163BOLB   NC1 3889  16.343  18.057  13.366  0.0848  0.2672 -0.0410
  163BOLB   PO1 3890  16.001  17.852  13.498 -0.0228  0.1051  0.3936
  163BOLB   GL1 3891  15.913  18.314  13.263 -0.0267 -0.3369  0.3996
  163BOLB   GL2 3892  15.676  18.540  13.129 -0.1419 -0.0381 -0.0768
  163BOLB   C1A 3893  16.105  18.561  12.962 -0.0082  0.1794  0.0118
  163BOLB   C2A 3894  16.406  18.839  12.943  0.4487  0.1891  0.0662
  163BOLB   C3A 3895  16.438  19.300  12.773  0.1567 -0.1514  0.2019
  163BOLB   C4A 3896  16.566  19.687  12.594 -0.0431  0.0128 -0.1731
  163BOLB   C1B 3897  15.683  18.674  12.682  0.1730  0.0674 -0.0050
  163BOLB   C2B 3898  15.628  18.986  12.376 -0.1925 -0.0369  0.0913
  163BOLB   C3B 3899  15.823  19.138  12.065 -0.0413 -0.0706  0.3025
  163BOLB   C4B 3900  16.164  19.166  11.765  0.0040  0.0701  0.2778
  163BOLB   NC2 3901  16.925  22.491  12.257  0.0351 -0.0548  0.2808
  163BOLB   PO2 3902  16.870  22.136  12.379 -0.1121 -0.0264 -0.1300
  163BOLB   GL3 3903  16.605  21.741  12.486  0.0422 -0.0911  0.2803
  163BOLB   GL4 3904  16.377  21.651  12.140 -0.2151  0.1254  0.0160
  163BOLB   C1C 3905  16.611  21.413  12.798 -0.0002  0.2350 -0.0975
  163BOLB   C2C 3906  16.541  20.979  12.608 -0.0843  0.2490  0.2099
  163BOLB   C3C 3907  16.647  20.551  12.559  0.0329  0.1748  0.2146
  163BOLB   C4C 3908  16.604  20.146  12.761 -0.2562 -0.1755  0.0716
  163BOLB   C1D 3909  16.242  21.276  12.360 -0.1054 -0.0563  0.0098
  163BOLB   C2D 3910  16.146  20.817  12.277  0.1241 -0.1031  0.2340
  163BOLB   C3D 3911  16.285  20.508  12.239 -0.1928  0.2953 -0.0301
  163BOLB   C4D 3912  16.600  20.131  12.244  0.1624  0.0359  0.1469
  164BOLB   NC1 3913   4.110  13.385  13.335  0.1370  0.3096 -0.3591
  164BOLB   PO1 3914   4.169  13.363  13.817  0.1070  0.2829  0.3159
  164BOLB   GL1 3915   4.327  12.954  13.701 -0.0290  0.0308 -0.0199
  164BOLB   GL2 3916   4.742  12.989  13.721 -0.0040 -0.1109  0.0482
  164BOLB   C1A 3917   4.684  12.516  13.713 -0.0147 -0.0901  0.1779
  164BOLB   C2A 3918   5.048  12.241  13.644  0.1096  0.1090 -0.1149
  164BOLB   C3A 3919   5.545  12.132  13.694 -0.3016 -0.0464  0.1202
  164BOLB   C4A 3920   6.023  12.147  13.519 -0.4447  0.0511 -0.0482
  164BOLB   C1B 3921   5.099  12.819  14.049 -0.0472 -0.1527 -0.1467
  164BOLB   C2B 3922   5.527  12.573  14.301  0.1800 -0.0010 -0.1156
  164BOLB   C3B 3923   5.766  12.310  14.151 -0.4556  0.2256 -0.0793
  164BOLB   C4B 3924   6.039  12.126  13.988 -0.0364  0.0292  0.2712
  164BOLB   NC2 3925   8.491  12.067  13.758 -0.2461 -0.1911  0.1080
  164BOLB   PO2 3926   8.651  12.506  13.899 -0.1008  0.3875 -0.0555
  164BOLB   GL3 3927   8.158  12.505  13.654 -0.1771  0.3236  0.2024
  164BOLB   GL4 3928   8.019  12.182  13.599 -0.0108  0.1804  0.3985
  164BOLB   C1C 3929   7.691  12.658  13.515 -0.1370 -0.1143  0.0797
  164BOLB   C2C 3930   7.335  12.611  13.640  0.1098  0.2656  0.0438
  164BOLB   C3C 3931   6.872  12.471  13.580 -0.0285 -0.0361 -0.0444
  164BOLB   C4C 3932   6.579  12.084  13.510  0.0618 -0.0344  0.2470
  164BOLB   C1D 3933   7.763  12.223  13.304  0.1322 -0.0100 -0.1185
  164BOLB   C2D 3934   7.391  12.336  13.218  0.0282  0.0612 -0.0740
  164BOLB   C3D 3935   7.085  12.231  12.969  0.0496 -0.0233  0.1797
  164BOLB   C4D 3936   6.806  12.214  12.658  0.0392 -0.2336  0.1481
  165BOLB   NC1 3937  21.461  13.041  10.354  0.0184 -0.0787 -0.0822
  165BOLB   PO1 3938  21.778  12.955  10.418  0.1470  0.0574  0.1972
  165BOLB   GL1 3939  22.159  13.137  10.254  0.3481  0.1278 -0.0822
  165BOLB   GL2 3940  21.901  13.195   9.941 -0.3158  0.1835  0.0529
  165BOLB   C1A 3941  22.360  13.119   9.815  0.2488 -0.0782  0.0263
  165BOLB   C2A 3942  22.452  12.925   9.443  0.0947 -0.1767  0.1074
  165BOLB   C3A 3943  22.666  13.031   9.188  0.0985 -0.0252 -0.0273
  165BOLB   C4A 3944  22.848  13.307   8.961 -0.0562  0.0764 -0.2998
  165BOLB   C1B 3945  21.902  12.854   9.611 -0.1941 -0.1568  0.1754
  165BOLB   C2B 3946  22.036  12.692   9.191  0.1307 -0.0634 -0.0297
  165BOLB   C3B 3947  22.478  12.578   9.034  0.1289 -0.0773  0.0203
  165BOLB   C4B 3948  22.888  12.393   8.945 -0.2349  0.1977  0.0491
  165BOLB   NC2 3949  23.158  14.506   7.176  0.0967 -0.1073  0.1516
  165BOLB   PO2 3950  23.256  14.935   7.370  0.2583 -0.0496 -0.0809
  165BOLB   GL3 3951  23.244  14.915   7.790 -0.1759  0.1425 -0.0170
  165BOLB   GL4 3952  22.862  14.992   7.931  0.0224  0.0141 -0.0778
  165BOLB   C1C 3953  23.362  14.734   8.175 -0.1574 -0.3380  0.1525
  165BOLB   C2C 3954  23.236  14.453   8.472 -0.0222  0.3526 -0.0442
  165BOLB   C3C 3955  23.155  14.134   8.660 -0.0107  0.3554  0.2738
  165BOLB   C4C 3956  23.015  13.747   8.914 -0.1199 -0.1396 -0.2429
  165BOLB   C1D 3957  22.413  14.831   7.959 -0.2507  0.1807  0.1970
  165BOLB   C2D 3958  22.087  14.906   8.154  0.0982 -0.5962 -0.1749
  165BOLB   C3D 3959  21.833  14.793   8.475  0.1771 -0.0888  0.0913
  165BOLB   C4D 3960  21.398  14.659   8.417 -0.1407  0.1304  0.3020
  166BOLB   NC1 3961   2.876  12.778  10.791  0.1381  0.0961 -0.0469
  166BOLB   PO1 3962   3.200  13.000  10.960  0.0827  0.0938  0.1401
  166BOLB   GL1 3963   3.387  12.667  10.949 -0.3288  0.3167 -0.1608
  166BOLB   GL2 3964   3.705  12.719  10.909  0.2268  0.0659  0.1602
  166BOLB   C1A 3965   3.580  12.234  10.712 -0.1382 -0.3145 -0.1798
  166BOLB   C2A 3966   3.684  11.757  10.767  0.0224  0.0540 -0.0774
  166BOLB   C3A 3967   3.659  11.580  10.474  0.2364 -0.3863 -0.0393
  166BOLB   C4A 3968   3.920  11.465  10.153 -0.0934 -0.1021 -0.1084
  166BOLB   C1B 3969   4.107  12.497  10.896  0.0726  0.0795  0.1380
  166BOLB   C2B 3970   4.401  12.419  10.631  0.0376 -0.2945 -0.0196
  166BOLB   C3B 3971   4.737  12.476  10.357 -0.0228  0.0413 -0.0433
  166BOLB   C4B 3972   5.222  12.455  10.412 -0.0893 -0.2125 -0.0881
  166BOLB   NC2 3973   2.442  10.430   8.523  0.0958  0.1653 -0.0314
  166BOLB   PO2 3974   2.404  10.837   8.766  0.1655  0.0694 -0.1364
  166BOLB   GL3 3975   2.897  10.699   8.648  0.1683  0.1050  0.1033
  166BOLB   GL4 3976   3.062  10.883   8.412 -0.3115  0.0854 -0.2367
  166BOLB   C1C 3977   3.214  10.470   8.988 -0.0209  0.0321  0.0045
  166BOLB   C2C 3978   3.465  10.537   9.367 -0.0847 -0.1873  0.0474
  166BOLB   C3C 3979   3.644  10.709   9.718 -0.5372  0.0314 -0.1039
  166BOLB   C4C 3980   3.880  11.061   9.966 -0.1872  0.4483 -0.1546
  166BOLB   C1D 3981   3.451  10.898   8.769  0.0577 -0.1074  0.1019
  166BOLB   C2D 3982   3.826  10.849   9.037  0.2390  0.2374 -0.0009
  166BOLB   C3D 3983   4.031  10.651   9.397  0.3659  0.1690  0.0860
  166BOLB   C4D 3984   4.147  10.618   9.770  0.0868  0.0218 -0.0684
  167BOLB   NC1 3985  25.584   3.559  11.450  0.4063 -0.2068  0.2233
  167BOLB   PO1 3986  25.582   3.682  11.776 -0.0883 -0.0327  0.0710
  167BOLB   GL1 3987  25.432   4.026  12.019 -0.1826 -0.0578 -0.0145
  167BOLB   GL2 3988  25.559   4.178  12.291 -0.1863  0.2473 -0.0805
  167BOLB   C1A 3989  25.121   4.162  12.353 -0.0458 -0.0624  0.0580
  167BOLB   C2A 3990  24.963   4.498  12.665  0.0844  0.2257 -0.0399
  167BOLB   C3A 3991  25.015   4.819  12.950 -0.1415  0.3512 -0.0789
  167BOLB   C4A 3992  25.298   5.029  13.162 -0.2655 -0.0210 -0.0804
  167BOLB   C1B 3993  25.416   4.543  12.150 -0.0359 -0.2060  0.1771
  167BOLB   C2B 3994  25.272   4.909  11.910 -0.2609  0.1976  0.0766
  167BOLB   C3B 3995  24.806   4.818  11.721 -0.1235  0.0174  0.2292
  167BOLB   C4B 3996  24.494   4.552  11.714  0.1896  0.0674 -0.2844
  167BOLB   NC2 3997  27.612   4.856  13.640 -0.1642 -0.0136 -0.2218
  167BOLB   PO2 3998  27.310   4.847  13.378 -0.0545 -0.0184  0.2580
  167BOLB   GL3 3999  26.914   5.050  13.575  0.2045 -0.1187 -0.0605
  167BOLB   GL4 4000  26.897   5.287  13.610 -0.0166  0.0715 -0.1177
  167BOLB   C1C 4001  26.609   4.921  13.947 -0.0436 -0.2212  0.1151
  167BOLB   C2C 4002  26.159   5.135  14.030 -0.1161 -0.0439 -0.2703
  167BOLB   C3C 4003  25.782   5.100  13.903  0.0652 -0.1973 -0.1112
  167BOLB   C4C 4004  25.472   5.008  13.521 -0.3030 -0.0774  0.1651
  167BOLB   C1D 4005  26.450   5.369  13.718 -0.0161  0.3356  0.0423
  167BOLB   C2D 4006  26.062   5.375  13.538 -0.0417 -0.2956  0.3664
  167BOLB   C3D 4007  25.880   5.072  13.280  0.0852 -0.0432  0.2197
  167BOLB   C4D 4008  25.803   4.703  13.111  0.0022 -0.3212 -0.0945
  168BOLB   NC1 4009  15.582  32.727   7.757  0.1398 -0.2567 -0.1594
  168BOLB   PO1 4010  15.555  32.597   8.136 -0.1491 -0.1669  0.1323
  168BOLB   GL1 4011  15.374  33.075   8.109 -0.1340  0.1454  0.2826
  168BOLB   GL2 4012  15.444  33.276   7.912 -0.0444 -0.1224  0.2237
  168BOLB   C1A 4013  14.965  33.311   8.143 -0.0945  0.3002 -0.1585
  168BOLB   C2A 4014  14.978  33.691   8.237 -0.1303 -0.0272  0.2120
  168BOLB   C3A 4015  14.675  33.972   8.085 -0.0439 -0.1158  0.1179
  168BOLB   C4A 4016  14.672  34.416   7.902 -0.2329 -0.0388  0.3378
  168BOLB   C1B 4017  15.516  33.624   8.011 -0.2194  0.3512  0.1782
  168BOLB   C2B 4018  15.440  33.966   8.291  0.3032  0.0926  0.4016
  168BOLB   C3B 4019  15.373  34.320   8.529  0.0447  0.2445 -0.1929
  168BOLB   C4B 4020  15.289  34.581   8.839 -0.3699  0.3214 -0.1714
  168BOLB   NC2 4021  13.702  34.056   5.599 -0.3624  0.0713 -0.3907
  168BOLB   PO2 4022  14.109  33.957   5.607 -0.1073  0.0192  0.3812
  168BOLB   GL3 4023  14.088  34.262   5.862 -0.0357 -0.1563 -0.0553
  168BOLB   GL4 4024  14.350  34.387   5.730 -0.3139 -0.3402 -0.4623
  168BOLB   C1C 4025  14.205  34.203   6.351  0.0692 -0.1993 -0.0282
  168BOLB   C2C 4026  14.234  34.200   6.787  0.0259 -0.0728  0.4459
  168BOLB   C3C 4027  14.422  34.379   7.156 -0.3026 -0.2178  0.2433
  168BOLB   C4C 4028  14.714  34.473   7.447 -0.2899 -0.5723 -0.2596
  168BOLB   C1D 4029  14.703  34.102   5.851 -0.1227  0.1669 -0.0192
  168BOLB   C2D 4030  15.128  34.142   6.184 -0.1018  0.1656 -0.0709
  168BOLB   C3D 4031  15.150  34.563   6.410  0.0252  0.1487 -0.1020
  168BOLB   C4D 4032  14.897  35.008   6.547 -0.3776  0.2416 -0.0421
  169BOLB   NC1 4033  19.388   7.542   2.919 -0.1231 -0.3114  0.0592
  169BOLB   PO1 4034  18.946   7.346   3.055  0.0653 -0.2212  0.2985
  169BOLB   GL1 4035  18.713   7.112   3.318 -0.0925  0.3684  0.3585
  169BOLB   GL2 4036  18.561   7.299   3.750  0.1616 -0.5675 -0.0736
  169BOLB   C1A 4037  18.673   6.719   3.532  0.0422  0.0798 -0.0367
  169BOLB   C2A 4038  18.424   6.635   3.922 -0.1989  0.0870 -0.1075
  169BOLB   C3A 4039  18.096   6.562   4.100 -0.4594  0.0749 -0.0620
  169BOLB   C4A 4040  17.762   6.377   4.199 -0.1909 -0.0226  0.3120
  169BOLB   C1B 4041  18.112   7.425   3.508 -0.0524  0.2256  0.0755
  169BOLB   C2B 4042  17.699   7.397   3.456 -0.0841  0.3390  0.2013
  169BOLB   C3B 4043  17.447   7.183   3.786 -0.0379 -0.4511  0.1329
  169BOLB   C4B 4044  17.092   7.001   4.004  0.1549  0.0231  0.1080
  169BOLB   NC2 4045  18.337   5.699   1.740  0.4271  0.0346  0.0925
  169BOLB   PO2 4046  18.241   6.064   1.920  0.1620 -0.1550  0.1507
  169BOLB   GL3 4047  18.238   6.211   2.313 -0.0583  0.2538  0.0788
  169BOLB   GL4 4048  18.350   6.544   2.378  0.0817 -0.0639  0.0828
  169BOLB   C1C 4049  18.088   6.162   2.697  0.1318  0.1446  0.0702
  169BOLB   C2C 4050  18.050   6.003   3.171 -0.0314  0.1489  0.1669
  169BOLB   C3C 4051  17.695   6.100   3.491  0.3806  0.0467  0.4780
  169BOLB   C4C 4052  17.609   6.058   3.906 -0.2325  0.0786  0.0474
  169BOLB   C1D 4053  17.926   6.591   2.215  0.1447 -0.0556  0.3412
  169BOLB   C2D 4054  17.537   6.664   1.909 -0.1190 -0.2274  0.0141
  169BOLB   C3D 4055  17.179   6.893   1.805 -0.1701  0.0611 -0.1384
  169BOLB   C4D 4056  16.719   6.884   1.595  0.1265 -0.6453  0.2136
  170BOLB   NC1 4057  10.229  10.796  20.724  0.4855  0.0607 -0.0768
  170BOLB   PO1 4058  10.533  10.708  21.083  0.0240 -0.1000 -0.0213
  170BOLB   GL1 4059  10.350  10.364  21.249  0.0103  0.1078 -0.0421
  170BOLB   GL2 4060  10.044  10.322  21.034 -0.0137 -0.0365  0.0711
  170BOLB   C1A 4061  10.042  10.158  21.529 -0.3928 -0.1645  0.0170
  170BOLB   C2A 4062   9.762  10.285  21.866  0.3607  0.0915  0.1078
  170BOLB   C3A 4063   9.420  10.469  22.153 -0.2511 -0.0650 -0.4391
  170BOLB   C4A 4064   9.072  10.811  22.294 -0.0667  0.1057  0.0948
  170BOLB   C1B 4065   9.801  10.519  21.342  0.2848  0.0090 -0.1281
  170BOLB   C2B 4066   9.377  10.474  21.612  0.1338 -0.0580  0.0499
  170BOLB   C3B 4067   8.925  10.602  21.793 -0.0586 -0.1088  0.0342
  170BOLB   C4B 4068   8.691  11.006  21.910 -0.0237  0.0315 -0.1386
  170BOLB   NC2 4069   7.054  10.861  23.459  0.0323  0.2048 -0.2881
  170BOLB   PO2 4070   7.396  11.164  23.605 -0.3633 -0.0728 -0.1099
  170BOLB   GL3 4071   7.535  11.410  23.238  0.1313  0.3144  0.2094
  170BOLB   GL4 4072   7.385  11.719  23.180  0.0882  0.2375  0.2331
  170BOLB   C1C 4073   7.800  11.494  22.844  0.0535 -0.2582  0.1343
  170BOLB   C2C 4074   8.009  11.291  22.465 -0.0146  0.2719  0.0239
  170BOLB   C3C 4075   8.219  10.934  22.509 -0.1963  0.0888 -0.1049
  170BOLB   C4C 4076   8.725  10.795  22.516  0.0854 -0.0453  0.0202
  170BOLB   C1D 4077   7.397  11.975  22.888 -0.0954  0.4288 -0.1194
  170BOLB   C2D 4078   7.624  12.223  22.563 -0.2447 -0.2023  0.2621
  170BOLB   C3D 4079   7.936  12.320  22.192  0.0017  0.0135  0.2567
  170BOLB   C4D 4080   8.314  12.256  22.043 -0.2028 -0.0161  0.2869
  171BOLB   NC1 4081  28.454  14.794  15.056  0.3041  0.1281 -0.2545
  171BOLB   PO1 4082  27.946  14.750  15.047  0.1729  0.2957  0.2190
  171BOLB   GL1 4083  27.509  14.776  14.974 -0.0882  0.1398  0.0507
  171BOLB   GL2 4084  27.411  15.124  14.893  0.1306 -0.0403  0.3037
  171BOLB   C1A 4085  27.218  14.589  15.139 -0.0163 -0.1533 -0.1313
  171BOLB   C2A 4086  26.882  14.361  15.226 -0.0490 -0.1434  0.0169
  171BOLB   C3A 4087  26.505  14.097  15.206  0.1542  0.0391 -0.4284
  171BOLB   C4A 4088  26.306  13.698  15.441 -0.0193 -0.1824 -0.1267
  171BOLB   C1B 4089  27.177  15.125  15.229 -0.1202 -0.1799 -0.2957
  171BOLB   C2B 4090  27.142  14.935  15.604 -0.3003  0.1730  0.1107
  171BOLB   C3B 4091  27.034  14.559  15.780 -0.0413 -0.2428 -0.0185
  171BOLB   C4B 4092  26.864  14.176  15.753  0.0075  0.1300  0.2182
  171BOLB   NC2 4093  24.255  13.132  16.067 -0.0968 -0.1516 -0.0119
  171BOLB   PO2 4094  24.459  12.731  16.076  0.1911  0.0374 -0.0120
  171BOLB   GL3 4095  24.672  12.990  16.379 -0.0850  0.0593 -0.0273
  171BOLB   GL4 4096  24.813  13.006  16.247 -0.3286 -0.1767 -0.3647
  171BOLB   C1C 4097  25.104  13.234  16.500  0.1927  0.3752  0.0640
  171BOLB   C2C 4098  25.466  13.228  16.378  0.1541  0.0300 -0.4104
  171BOLB   C3C 4099  25.748  13.292  16.148 -0.1397  0.2299 -0.0526
  171BOLB   C4C 4100  25.922  13.562  15.795 -0.0027 -0.0988  0.0652
  171BOLB   C1D 4101  25.186  12.794  16.352  0.4313 -0.1649 -0.4258
  171BOLB   C2D 4102  25.509  12.680  16.377 -0.1472  0.1791 -0.1351
  171BOLB   C3D 4103  25.721  12.339  16.227 -0.0275 -0.0921 -0.1481
  171BOLB   C4D 4104  26.078  12.282  15.800 -0.0392  0.1760  0.0871
  172BOLB   NC1 4105  20.118   2.221  24.127  0.2063 -0.1974  0.1977
  172BOLB   PO1 4106  19.649   2.068  23.846  0.2220  0.1887 -0.0907
  172BOLB   GL1 4107  19.909   2.335  23.599 -0.0422 -0.1937  0.0015
  172BOLB   GL2 4108  20.243   2.350  23.493 -0.3681 -0.1646 -0.0606
  172BOLB   C1A 4109  19.810   2.488  23.194 -0.0591  0.2830  0.2553
  172BOLB   C2A 4110  19.844   2.919  22.768  0.3787  0.0137 -0.2021
  172BOLB   C3A 4111  20.123   3.232  22.513 -0.2268 -0.0774 -0.0776
  172BOLB   C4A 4112  20.347   3.385  22.209 -0.2289  0.2209 -0.3175
  172BOLB   C1B 4113  20.352   2.684  23.175  0.1358 -0.1387  0.1809
  172BOLB   C2B 4114  20.274   3.081  22.977  0.0257 -0.1057  0.2315
  172BOLB   C3B 4115  19.857   3.429  22.842 -0.3325 -0.1154 -0.0012
  172BOLB   C4B 4116  19.439   3.439  22.639 -0.3529 -0.0415  0.1525
  172BOLB   NC2 4117  22.486   2.176  22.454 -0.0108  0.5484 -0.2336
  172BOLB   PO2 4118  22.044   2.136  22.433 -0.2532 -0.1587  0.1895
  172BOLB   GL3 4119  21.865   2.573  22.252  0.2371  0.1341  0.3488
  172BOLB   GL4 4120  22.007   2.813  22.335  0.1032 -0.2467 -0.2005
  172BOLB   C1C 4121  21.646   2.863  21.959 -0.1273 -0.2553  0.0880
  172BOLB   C2C 4122  21.318   3.222  22.046 -0.2410 -0.5966  0.0323
  172BOLB   C3C 4123  21.099   3.246  21.803  0.0308  0.0640  0.1618
  172BOLB   C4C 4124  20.654   3.258  21.967  0.0376 -0.1900  0.0808
  172BOLB   C1D 4125  21.781   3.200  22.322 -0.0324 -0.1254  0.1014
  172BOLB   C2D 4126  21.519   3.616  22.464  0.1160 -0.3035 -0.1914
  172BOLB   C3D 4127  21.394   3.960  22.230  0.1577  0.0264 -0.3241
  172BOLB   C4D 4128  21.405   4.210  21.841 -0.0102 -0.1102 -0.2443
  173BOLB   NC1 4129   9.059  15.124   6.572  0.0917  0.0289  0.1078
  173BOLB   PO1 4130   9.300  14.814   6.795  0.1492 -0.1854  0.0928
  173BOLB   GL1 4131   9.473  14.484   7.024 -0.2005 -0.1532 -0.1225
  173BOLB   GL2 4132   9.312  14.455   7.310  0.2869 -0.1213 -0.0848
  173BOLB   C1A 4133   9.540  14.044   7.053  0.1493 -0.0688  0.0644
  173BOLB   C2A 4134   9.674  13.789   7.422  0.0670  0.3771 -0.1212
  173BOLB   C3A 4135   9.874  13.518   7.817 -0.1016  0.0746  0.2124
  173BOLB   C4A 4136  10.166  13.215   8.156 -0.3541 -0.0224 -0.1508
  173BOLB   C1B 4137   9.584  14.274   7.597  0.0002  0.1301  0.0878
  173BOLB   C2B 4138   9.807  14.214   8.016 -0.2538  0.0239 -0.1032
  173BOLB   C3B 4139  10.080  13.998   8.231  0.0746 -0.3103 -0.2785
  173BOLB   C4B 4140  10.046  13.647   8.487  0.1717  0.1076 -0.3088
  173BOLB   NC2 4141  12.231  12.336   9.725  0.0393  0.1113 -0.0141
  173BOLB   PO2 4142  11.917  12.674   9.869 -0.1931  0.1190  0.0899
  173BOLB   GL3 4143  11.515  12.761   9.728 -0.0547 -0.1773  0.0580
  173BOLB   GL4 4144  11.278  12.578   9.710  0.1448  0.1651  0.1701
  173BOLB   C1C 4145  11.345  12.863   9.318 -0.0294 -0.2044  0.0214
  173BOLB   C2C 4146  11.106  12.811   8.978  0.1133  0.1572 -0.1134
  173BOLB   C3C 4147  10.725  12.871   8.682 -0.1171 -0.0660 -0.0404
  173BOLB   C4C 4148  10.481  12.974   8.335  0.0339 -0.0163  0.3491
  173BOLB   C1D 4149  11.009  12.474   9.428 -0.1643 -0.0579 -0.1394
  173BOLB   C2D 4150  10.823  12.391   9.080  0.0212 -0.1937 -0.1796
  173BOLB   C3D 4151  10.691  12.414   8.756  0.0943  0.2862 -0.1446
  173BOLB   C4D 4152  10.436  12.347   8.348  0.0784  0.1037 -0.0450
  174BOLB   NC1 4153  18.572  14.967   9.525  0.2496 -0.3738  0.0778
  174BOLB   PO1 4154  18.265  15.074   9.328 -0.0652  0.0453  0.1042
  174BOLB   GL1 4155  18.186  15.084   8.904  0.1650  0.4726 -0.1459
  174BOLB   GL2 4156  17.860  15.161   8.836 -0.0173 -0.2803  0.2377
  174BOLB   C1A 4157  18.421  15.112   8.641 -0.0136  0.0607 -0.2529
  174BOLB   C2A 4158  18.463  15.322   8.173  0.0572  0.2412  0.1677
  174BOLB   C3A 4159  18.364  15.518   7.812 -0.0860 -0.2589 -0.2631
  174BOLB   C4A 4160  18.582  15.285   7.498  0.2843  0.0094 -0.0534
  174BOLB   C1B 4161  17.872  15.127   8.421 -0.2198  0.0240  0.1006
  174BOLB   C2B 4162  17.765  15.102   8.053 -0.3281 -0.1392  0.5784
  174BOLB   C3B 4163  17.872  15.416   7.754 -0.1682 -0.0211 -0.0533
  174BOLB   C4B 4164  17.908  15.673   7.496  0.0293  0.1079  0.0073
  174BOLB   NC2 4165  18.451  15.877   4.865  0.0978 -0.0424  0.1518
  174BOLB   PO2 4166  18.737  16.099   5.175  0.1118  0.3667 -0.3011
  174BOLB   GL3 4167  18.602  16.042   5.637  0.2107 -0.3192 -0.1803
  174BOLB   GL4 4168  18.270  16.030   5.791 -0.1731 -0.1078  0.2543
  174BOLB   C1C 4169  18.692  15.648   5.918 -0.1059 -0.2520 -0.0013
  174BOLB   C2C 4170  18.607  15.506   6.336 -0.0930  0.0726 -0.2535
  174BOLB   C3C 4171  18.701  15.491   6.750 -0.3129  0.2735 -0.5039
  174BOLB   C4C 4172  18.433  15.357   7.074 -0.2330  0.5279 -0.0445
  174BOLB   C1D 4173  18.386  15.924   6.266  0.1455  0.1024 -0.2349
  174BOLB   C2D 4174  18.344  15.797   6.724  0.0201  0.0436 -0.0543
  174BOLB   C3D 4175  18.442  15.823   7.104  0.2513  0.0317 -0.1127
  174BOLB   C4D 4176  18.529  16.264   7.233 -0.1689  0.1322 -0.1246
  175BOLB   NC1 4177  25.155  19.009  14.383  0.1941 -0.0361 -0.2404
  175BOLB   PO1 4178  25.321  18.576  14.352  0.1130 -0.0703 -0.3240
  175BOLB   GL1 4179  24.779  18.680  14.392 -0.0367  0.0957  0.1488
  175BOLB   GL2 4180  24.601  18.651  14.155 -0.2720  0.1429 -0.2083
  175BOLB   C1A 4181  24.320  18.645  14.670 -0.1376 -0.3433 -0.0907
  175BOLB   C2A 4182  24.086  18.321  14.643  0.0354 -0.0247  0.0359
  175BOLB   C3A 4183  23.639  18.311  14.711  0.2646  0.0285 -0.1702
  175BOLB   C4A 4184  23.529  17.938  14.583 -0.2034  0.1095  0.2699
  175BOLB   C1B 4185  24.507  18.197  14.448 -0.0952 -0.2381  0.1286
  175BOLB   C2B 4186  24.510  18.170  14.849 -0.1114  0.1616 -0.0218
  175BOLB   C3B 4187  24.487  18.251  15.363 -0.0359 -0.2243 -0.0433
  175BOLB   C4B 4188  24.517  18.520  15.639  0.2655  0.2683  0.3540
  175BOLB   NC2 4189  21.791  16.285  14.055 -0.2243  0.1541 -0.0937
  175BOLB   PO2 4190  21.756  16.207  14.511  0.1603 -0.0620  0.4477
  175BOLB   GL3 4191  22.117  16.431  14.462 -0.0380  0.0564  0.2944
  175BOLB   GL4 4192  22.072  16.737  14.626 -0.1261  0.0483 -0.1432
  175BOLB   C1C 4193  22.339  16.711  14.189  0.2550 -0.1120  0.1347
  175BOLB   C2C 4194  22.674  17.026  14.122 -0.1010  0.0855 -0.2869
  175BOLB   C3C 4195  23.006  17.379  14.152 -0.1162  0.0891  0.1860
  175BOLB   C4C 4196  23.328  17.564  14.425 -0.0151  0.0891  0.1480
  175BOLB   C1D 4197  22.443  16.990  14.612  0.1688  0.0493  0.1999
  175BOLB   C2D 4198  22.842  17.175  14.613 -0.0987 -0.3237 -0.1239
  175BOLB   C3D 4199  23.114  17.549  14.896  0.2183  0.2672 -0.3769
  175BOLB   C4D 4200  23.540  17.532  14.980 -0.2167 -0.1923 -0.3678
  176BOLB   NC1 4201  10.214   9.127  20.468  0.0303  0.2556 -0.1336
  176BOLB   PO1 4202   9.959   9.407  20.687  0.2853  0.1269 -0.1706
  176BOLB   GL1 4203   9.572   9.439  20.863 -0.1277 -0.2804  0.2226
  176BOLB   GL2 4204   9.370   9.257  20.867  0.3232 -0.0686  0.0142
  176BOLB   C1A 4205   9.371   9.557  21.319  0.2137  0.2206 -0.2354
  176BOLB   C2A 4206   8.951   9.684  21.439  0.1974  0.1905 -0.0194
  176BOLB   C3A 4207   8.522   9.938  21.311  0.0875  0.1049 -0.3224
  176BOLB   C4A 4208   8.132  10.196  21.268 -0.1258  0.2297 -0.0724
  176BOLB   C1B 4209   8.968   9.340  21.015 -0.1114 -0.0010 -0.1644
  176BOLB   C2B 4210   8.521   9.554  20.965 -0.2918  0.2831 -0.0126
  176BOLB   C3B 4211   8.238   9.198  20.987 -0.0235  0.1079 -0.2392
  176BOLB   C4B 4212   7.970   8.901  21.239  0.0744 -0.2050 -0.3833
  176BOLB   NC2 4213   6.365   9.989  22.698 -0.5934 -0.2004  0.0984
  176BOLB   PO2 4214   6.520   9.935  23.178  0.2811 -0.2893  0.3542
  176BOLB   GL3 4215   6.946   9.927  22.929  0.0257 -0.1031 -0.0050
  176BOLB   GL4 4216   7.181  10.111  23.099 -0.0002  0.1426  0.0228
  176BOLB   C1C 4217   7.131  10.135  22.600 -0.1378  0.0182 -0.0837
  176BOLB   C2C 4218   7.457  10.336  22.270 -0.1900 -0.2873  0.1187
  176BOLB   C3C 4219   7.720  10.282  21.964  0.0400 -0.0623 -0.1732
  176BOLB   C4C 4220   7.813  10.319  21.509  0.1893 -0.1858  0.3165
  176BOLB   C1D 4221   7.581  10.122  22.844  0.1043 -0.4934  0.1846
  176BOLB   C2D 4222   8.013  10.131  22.774  0.0215 -0.0485  0.2345
  176BOLB   C3D 4223   8.347  10.341  22.681  0.1317 -0.0438 -0.2506
  176BOLB   C4D 4224   8.613  10.394  22.750 -0.0934 -0.1657  0.1224
  177BOLB   NC1 4225  12.050  18.340   7.382  0.0907  0.3174 -0.0311
  177BOLB   PO1 4226  11.906  18.508   7.727  0.3319  0.0844 -0.0395
  177BOLB   GL1 4227  12.115  18.255   8.012  0.0544  0.1210 -0.0031
  177BOLB   GL2 4228  12.345  18.171   7.825  0.0051  0.1137 -0.2378
  177BOLB   C1A 4229  12.221  18.074   8.442 -0.1227  0.1323  0.0577
  177BOLB   C2A 4230  12.396  17.701   8.598  0.0936  0.2287 -0.0027
  177BOLB   C3A 4231  12.553  17.329   8.766 -0.0839 -0.1883  0.0948
  177BOLB   C4A 4232  12.541  17.013   9.097  0.0388  0.2423  0.2280
  177BOLB   C1B 4233  12.464  17.810   8.073  0.2698  0.1014 -0.0255
  177BOLB   C2B 4234  12.869  17.851   8.334  0.0677 -0.0710  0.0617
  177BOLB   C3B 4235  12.993  17.524   8.655  0.0499  0.0126  0.1085
  177BOLB   C4B 4236  13.451  17.374   8.596 -0.2478 -0.0441  0.1283
  177BOLB   NC2 4237  10.754  18.545   8.574 -0.2916  0.2553 -0.0389
  177BOLB   PO2 4238  11.096  18.534   8.302 -0.1093  0.0135  0.0037
  177BOLB   GL3 4239  11.318  18.267   8.551 -0.1280  0.2452 -0.0701
  177BOLB   GL4 4240  11.610  18.373   8.679  0.3086 -0.1743  0.0804
  177BOLB   C1C 4241  11.379  17.899   8.677  0.1126 -0.1557 -0.0846
  177BOLB   C2C 4242  11.674  17.680   8.812 -0.0055 -0.3396 -0.4503
  177BOLB   C3C 4243  11.759  17.364   9.042  0.0206  0.1982  0.1704
  177BOLB   C4C 4244  12.098  17.070   9.168  0.2814 -0.0253 -0.0516
  177BOLB   C1D 4245  11.817  18.164   9.065 -0.0642  0.3747  0.0582
  177BOLB   C2D 4246  12.020  18.030   9.428  0.1107  0.1613 -0.1591
  177BOLB   C3D 4247  12.372  17.933   9.553 -0.0306  0.3404  0.2854
  177BOLB   C4D 4248  12.857  17.774   9.454 -0.2307 -0.3714  0.1962
  178BOLB   NC1 4249  27.450   8.970  21.137 -0.1662 -0.3433  0.0511
  178BOLB   PO1 4250  27.361   9.418  21.334  0.0303  0.2843 -0.0480
  178BOLB   GL1 4251  27.099   9.345  21.040 -0.1791  0.2640 -0.2081
  178BOLB   GL2 4252  27.063   9.682  21.043  0.0112 -0.0959  0.1299
  178BOLB   C1A 4253  26.965   9.213  20.655 -0.3810  0.0031 -0.3674
  178BOLB   C2A 4254  26.957   8.937  20.358  0.0701 -0.0500  0.2610
  178BOLB   C3A 4255  26.698   8.855  20.013  0.3219 -0.2461  0.2576
  178BOLB   C4A 4256  26.233   8.956  20.036 -0.0853  0.1058  0.1929
  178BOLB   C1B 4257  26.584   9.836  21.006 -0.2400 -0.1627 -0.2080
  178BOLB   C2B 4258  26.310  10.019  20.631 -0.1384 -0.0014  0.1359
  178BOLB   C3B 4259  25.933  10.013  20.449 -0.1815  0.0657 -0.3357
  178BOLB   C4B 4260  25.452   9.887  20.494 -0.2744  0.0678  0.3060
  178BOLB   NC2 4261  23.890   9.862  19.312 -0.1708 -0.1322  0.1622
  178BOLB   PO2 4262  23.822   9.402  19.534 -0.2560  0.1061 -0.0844
  178BOLB   GL3 4263  24.272   9.410  19.586  0.0315 -0.1114 -0.0693
  178BOLB   GL4 4264  24.309   9.760  19.557  0.0336  0.1151  0.0849
  178BOLB   C1C 4265  24.693   9.166  19.765 -0.0182  0.0177 -0.1548
  178BOLB   C2C 4266  25.081   8.928  19.914  0.5458 -0.1791  0.1533
  178BOLB   C3C 4267  25.499   8.827  20.054  0.3266  0.4035  0.0238
  178BOLB   C4C 4268  25.847   8.905  19.953  0.3393 -0.0084  0.1191
  178BOLB   C1D 4269  24.763   9.597  19.574  0.1258 -0.0062  0.1223
  178BOLB   C2D 4270  25.102   9.434  19.787  0.0077 -0.0185 -0.1391
  178BOLB   C3D 4271  25.444   9.260  19.654 -0.2795 -0.1769  0.0108
  178BOLB   C4D 4272  25.820   9.284  19.605  0.0820  0.1009 -0.0752
  179BOLB   NC1 4273  14.873  15.048  22.688  0.1008  0.2527  0.1526
  179BOLB   PO1 4274  15.345  15.325  22.627 -0.1279 -0.0940 -0.1488
  179BOLB   GL1 4275  15.422  15.474  23.011  0.2590  0.1116 -0.0328
  179BOLB   GL2 4276  15.509  15.256  23.217  0.1715  0.0274  0.3235
  179BOLB   C1A 4277  15.325  15.688  23.473  0.3024 -0.1629  0.4067
  179BOLB   C2A 4278  15.374  15.815  23.932 -0.0389  0.0322 -0.0761
  179BOLB   C3A 4279  15.289  16.126  24.180 -0.2024 -0.1904 -0.0786
  179BOLB   C4A 4280  15.438  16.482  24.498  0.0925  0.0587 -0.1147
  179BOLB   C1B 4281  15.050  15.320  23.339  0.3553  0.1555  0.0915
  179BOLB   C2B 4282  14.675  15.623  23.230 -0.0520 -0.0268 -0.0380
  179BOLB   C3B 4283  14.387  15.703  23.595  0.3626  0.1602  0.0175
  179BOLB   C4B 4284  14.567  15.681  24.094 -0.1743 -0.2279 -0.0782
  179BOLB   NC2 4285  14.345  15.952  26.497 -0.0170  0.3684  0.1667
  179BOLB   PO2 4286  14.672  16.188  26.526  0.0472  0.1541  0.2264
  179BOLB   GL3 4287  14.841  16.170  26.136 -0.3251 -0.0438  0.3988
  179BOLB   GL4 4288  14.790  16.408  25.830  0.0261 -0.1448 -0.0815
  179BOLB   C1C 4289  15.238  16.236  25.898 -0.4220  0.1162  0.1420
  179BOLB   C2C 4290  15.628  16.189  25.627  0.1392  0.0283 -0.2373
  179BOLB   C3C 4291  15.684  16.618  25.298  0.1411  0.0068 -0.4088
  179BOLB   C4C 4292  15.784  16.538  24.881  0.0652 -0.4190 -0.0392
  179BOLB   C1D 4293  14.854  16.173  25.533 -0.0632 -0.1719 -0.0596
  179BOLB   C2D 4294  15.015  15.916  25.322 -0.0048 -0.0064 -0.2532
  179BOLB   C3D 4295  15.198  15.691  24.936  0.0434 -0.0221 -0.1525
  179BOLB   C4D 4296  15.036  15.480  24.700  0.0325 -0.0748  0.0009
  180BOLB   NC1 4297  10.965  12.957  20.522 -0.0440  0.0005 -0.0601
  180BOLB   PO1 4298  10.935  13.349  20.778  0.1751 -0.3648 -0.0782
  180BOLB   GL1 4299  10.642  13.346  21.037  0.1512  0.0182 -0.1088
  180BOLB   GL2 4300  10.326  13.233  20.977  0.0847  0.1516  0.4279
  180BOLB   C1A 4301  10.371  13.222  21.504 -0.2149  0.2139 -0.1051
  180BOLB   C2A 4302   9.946  13.380  21.613  0.2364  0.2278  0.2352
  180BOLB   C3A 4303   9.589  13.643  21.802  0.5228 -0.1699  0.0420
  180BOLB   C4A 4304   9.304  13.907  21.712  0.1148 -0.0528  0.4092
  180BOLB   C1B 4305   9.962  13.420  21.012 -0.1731  0.0129 -0.2376
  180BOLB   C2B 4306   9.460  13.578  21.085  0.3234 -0.1078  0.0264
  180BOLB   C3B 4307   9.230  13.958  21.160  0.1399  0.0003  0.0276
  180BOLB   C4B 4308   8.924  14.248  21.045 -0.2577 -0.3111  0.1858
  180BOLB   NC2 4309   7.170  14.280  23.353 -0.2261 -0.0217  0.3014
  180BOLB   PO2 4310   7.252  13.992  23.134 -0.2340  0.3161 -0.0509
  180BOLB   GL3 4311   7.571  13.920  22.816  0.0682 -0.1280  0.1583
  180BOLB   GL4 4312   7.539  13.649  22.431 -0.0921  0.1915  0.0154
  180BOLB   C1C 4313   7.952  14.148  22.658  0.2881  0.3045 -0.0935
  180BOLB   C2C 4314   8.305  14.163  22.402 -0.2145 -0.2958 -0.2837
  180BOLB   C3C 4315   8.736  14.025  22.215 -0.2383 -0.2912 -0.0086
  180BOLB   C4C 4316   8.972  13.983  21.863  0.0488 -0.1893 -0.0608
  180BOLB   C1D 4317   7.987  13.680  22.402 -0.1807  0.1061 -0.1109
  180BOLB   C2D 4318   8.353  13.659  22.133  0.2130  0.2339  0.3029
  180BOLB   C3D 4319   8.643  13.632  21.810 -0.2516  0.2822  0.1413
  180BOLB   C4D 4320   8.986  13.567  21.417  0.0537 -0.0533 -0.2351
  181BOLB   NC1 4321  21.579  21.625  14.257 -0.1339 -0.2779 -0.2620
  181BOLB   PO1 4322  21.736  21.273  14.636  0.1835  0.3928  0.1529
  181BOLB   GL1 4323  21.554  20.864  14.459 -0.4189 -0.1906  0.0563
  181BOLB   GL2 4324  21.475  21.096  14.166  0.4025 -0.1776  0.0068
  181BOLB   C1A 4325  21.335  20.440  14.651  0.0498 -0.2374  0.1958
  181BOLB   C2A 4326  21.263  20.210  14.999 -0.0892 -0.1459 -0.1811
  181BOLB   C3A 4327  21.270  20.036  15.297 -0.3109  0.0923  0.0155
  181BOLB   C4A 4328  21.520  19.605  15.313  0.0178 -0.2856 -0.1106
  181BOLB   C1B 4329  21.177  20.771  14.137  0.0237 -0.0467  0.0457
  181BOLB   C2B 4330  20.909  20.524  14.436  0.1975 -0.0878  0.0652
  181BOLB   C3B 4331  20.800  20.382  14.840  0.2543  0.1173 -0.3006
  181BOLB   C4B 4332  20.772  20.506  15.267  0.0528  0.0084 -0.0074
  181BOLB   NC2 4333  20.735  17.561  15.025 -0.2613  0.1970 -0.0362
  181BOLB   PO2 4334  20.659  17.456  15.455  0.1131  0.2953  0.1424
  181BOLB   GL3 4335  20.786  17.861  15.457  0.2771 -0.0021  0.0259
  181BOLB   GL4 4336  20.665  18.140  15.627 -0.0567  0.4783  0.0637
  181BOLB   C1C 4337  21.172  18.167  15.475 -0.0356  0.2844 -0.0284
  181BOLB   C2C 4338  21.268  18.627  15.380  0.0243  0.2194 -0.5364
  181BOLB   C3C 4339  21.665  18.905  15.434  0.0426 -0.0211 -0.0893
  181BOLB   C4C 4340  21.612  19.308  15.475 -0.2497 -0.0401 -0.1821
  181BOLB   C1D 4341  20.871  18.597  15.690 -0.3932  0.1212  0.1254
  181BOLB   C2D 4342  20.914  18.980  15.980 -0.3306 -0.0840 -0.0877
  181BOLB   C3D 4343  21.216  19.191  16.059 -0.1001 -0.2022 -0.2367
  181BOLB   C4D 4344  21.493  19.445  15.968  0.0655 -0.1064 -0.1251
  182BOLB   NC1 4345  22.611  19.278   9.726  0.0381  0.2196 -0.0701
  182BOLB   PO1 4346  22.280  19.114   9.928 -0.1240  0.2180 -0.3101
  182BOLB   GL1 4347  22.291  18.724  10.127  0.0682 -0.2619  0.1321
  182BOLB   GL2 4348  22.496  18.619  10.446 -0.3480 -0.0549 -0.0911
  182BOLB   C1A 4349  22.091  18.614  10.555 -0.1165  0.0816 -0.1400
  182BOLB   C2A 4350  21.793  18.319  10.527 -0.1976 -0.1366  0.0837
  182BOLB   C3A 4351  21.533  18.211  10.862 -0.0340 -0.2015 -0.1311
  182BOLB   C4A 4352  21.166  18.005  11.046 -0.0263 -0.1003 -0.3740
  182BOLB   C1B 4353  22.280  18.232  10.244  0.1397  0.0372  0.2971
  182BOLB   C2B 4354  22.213  17.818  10.001  0.0215 -0.1373  0.2313
  182BOLB   C3B 4355  21.885  17.498   9.825  0.0240  0.2741 -0.1263
  182BOLB   C4B 4356  21.620  17.151   9.918 -0.0600 -0.1020 -0.0795
  182BOLB   NC2 4357  20.479  15.527  11.856  0.1650 -0.0531 -0.1037
  182BOLB   PO2 4358  20.809  15.637  11.981 -0.1243 -0.1920 -0.0118
  182BOLB   GL3 4359  20.937  15.935  11.715  0.0239  0.3401 -0.2980
  182BOLB   GL4 4360  21.202  16.093  11.881 -0.2972 -0.0765  0.1392
  182BOLB   C1C 4361  21.174  16.219  11.429 -0.1707  0.1848  0.2406
  182BOLB   C2C 4362  21.340  16.601  11.387  0.0788 -0.2183 -0.1878
  182BOLB   C3C 4363  21.246  17.020  11.317  0.2445 -0.0599  0.1524
  182BOLB   C4C 4364  21.088  17.479  11.171  0.2183  0.0169 -0.2669
  182BOLB   C1D 4365  21.559  16.217  12.008 -0.0888  0.0888  0.2080
  182BOLB   C2D 4366  21.690  16.625  12.193 -0.0365  0.0058  0.2724
  182BOLB   C3D 4367  21.806  17.026  12.077  0.1309  0.0152 -0.2306
  182BOLB   C4D 4368  21.972  17.394  11.936  0.1804  0.1412 -0.2453
  183BOLB   NC1 4369  17.215  22.287  18.000 -0.2528 -0.0084 -0.0773
  183BOLB   PO1 4370  17.332  22.384  18.404  0.0009  0.0508 -0.1698
  183BOLB   GL1 4371  16.924  22.132  18.359 -0.1096  0.2126 -0.4507
  183BOLB   GL2 4372  16.921  21.862  18.062  0.0439  0.0057 -0.0741
  183BOLB   C1A 4373  16.802  21.895  18.668 -0.2018  0.2496 -0.2001
  183BOLB   C2A 4374  16.793  21.401  18.601 -0.0059 -0.1618  0.1254
  183BOLB   C3A 4375  16.619  21.153  18.834 -0.1530 -0.3181 -0.1587
  183BOLB   C4A 4376  16.443  21.055  19.213 -0.0047 -0.1271  0.1572
  183BOLB   C1B 4377  16.895  21.401  18.041 -0.0140 -0.1469 -0.0440
  183BOLB   C2B 4378  16.854  21.118  17.695 -0.3796 -0.1204  0.0125
  183BOLB   C3B 4379  16.759  20.953  17.238  0.0432  0.1747  0.1434
  183BOLB   C4B 4380  16.538  20.615  17.001  0.0919 -0.2826  0.0684
  183BOLB   NC2 4381  17.912  22.214  20.247  0.1572 -0.0886  0.1095
  183BOLB   PO2 4382  17.737  22.065  20.619  0.0543 -0.1459  0.2679
  183BOLB   GL3 4383  17.687  21.730  20.475 -0.2125  0.3721 -0.0766
  183BOLB   GL4 4384  17.759  21.736  20.195  0.0536 -0.3834  0.0957
  183BOLB   C1C 4385  17.311  21.571  20.273  0.0306 -0.0905 -0.0063
  183BOLB   C2C 4386  16.923  21.382  20.394 -0.0799  0.0668  0.1827
  183BOLB   C3C 4387  16.654  21.276  19.983  0.1612 -0.1175  0.0602
  183BOLB   C4C 4388  16.409  21.209  19.678  0.3157  0.2533  0.2589
  183BOLB   C1D 4389  17.672  21.391  19.969 -0.1516  0.1121  0.3681
  183BOLB   C2D 4390  17.488  21.050  19.723 -0.0759  0.1701  0.1057
  183BOLB   C3D 4391  17.331  20.783  19.404  0.0827  0.1131  0.0217
  183BOLB   C4D 4392  17.061  20.400  19.484  0.1787  0.0357 -0.2886
  184BOLB   NC1 4393  12.682  15.342  21.407 -0.0618  0.0042 -0.1499
  184BOLB   PO1 4394  12.931  14.991  21.739 -0.0978 -0.3077 -0.0147
  184BOLB   GL1 4395  12.863  15.437  21.938 -0.1067 -0.5181 -0.1008
  184BOLB   GL2 4396  13.076  15.676  21.973  0.0862  0.2187 -0.2480
  184BOLB   C1A 4397  12.551  15.736  22.155  0.1277 -0.0911  0.2378
  184BOLB   C2A 4398  12.603  16.023  22.488 -0.3478  0.1317  0.0198
  184BOLB   C3A 4399  12.865  15.979  22.864 -0.2055 -0.1608  0.0508
  184BOLB   C4A 4400  13.003  16.311  23.183 -0.2114 -0.1222 -0.2511
  184BOLB   C1B 4401  13.116  15.974  22.415  0.0036  0.0110 -0.2793
  184BOLB   C2B 4402  13.311  16.228  22.687  0.3538 -0.0866 -0.1508
  184BOLB   C3B 4403  13.482  16.406  22.966 -0.1104  0.2618 -0.2763
  184BOLB   C4B 4404  13.541  16.862  23.038 -0.4645  0.2815 -0.2308
  184BOLB   NC2 4405  11.536  17.364  25.200  0.0307 -0.0513 -0.1877
  184BOLB   PO2 4406  11.430  17.261  24.769 -0.0605  0.1802  0.0604
  184BOLB   GL3 4407  11.721  17.186  24.404  0.2265  0.0836 -0.1463
  184BOLB   GL4 4408  11.849  17.369  24.093 -0.1814  0.0583  0.1933
  184BOLB   C1C 4409  11.973  16.924  24.034  0.1634  0.0865  0.2115
  184BOLB   C2C 4410  12.360  16.889  23.807  0.0385 -0.1331  0.0064
  184BOLB   C3C 4411  12.599  16.828  23.462 -0.0604 -0.0779 -0.2156
  184BOLB   C4C 4412  12.913  16.685  23.320 -0.3968  0.0580  0.2286
  184BOLB   C1D 4413  11.966  17.340  23.744  0.0894  0.0053  0.3095
  184BOLB   C2D 4414  12.098  17.080  23.393 -0.1710  0.2694 -0.0783
  184BOLB   C3D 4415  12.104  16.646  23.268 -0.2147 -0.1678 -0.0636
  184BOLB   C4D 4416  11.942  16.253  23.243 -0.1032  0.0456 -0.2421
  185BOLB   NC1 4417  11.997  16.018  19.066 -0.1389  0.0502 -0.0409
  185BOLB   PO1 4418  11.783  16.387  18.961  0.2086  0.0834  0.0936
  185BOLB   GL1 4419  11.530  16.623  19.074 -0.0263  0.3696 -0.0269
  185BOLB   GL2 4420  11.376  16.729  19.461  0.0606  0.4472  0.0554
  185BOLB   C1A 4421  11.331  17.033  19.051  0.1241 -0.0253 -0.1853
  185BOLB   C2A 4422  11.150  17.160  19.352  0.0966 -0.0336 -0.0563
  185BOLB   C3A 4423  11.272  17.503  19.452 -0.1321  0.2146  0.0085
  185BOLB   C4A 4424  11.083  17.889  19.637  0.1593  0.0480  0.2601
  185BOLB   C1B 4425  11.470  17.077  19.711  0.1465  0.1554 -0.5035
  185BOLB   C2B 4426  11.265  17.355  19.984 -0.0455  0.1826 -0.2182
  185BOLB   C3B 4427  11.461  17.477  20.312 -0.1161  0.2219  0.0986
  185BOLB   C4B 4428  11.602  17.469  20.660  0.3994 -0.2341 -0.0333
  185BOLB   NC2 4429   9.600  19.614  20.600  0.1640 -0.5655 -0.0433
  185BOLB   PO2 4430   9.265  19.392  20.527 -0.1846 -0.1426  0.0357
  185BOLB   GL3 4431   9.659  19.324  20.206  0.4077  0.0601  0.0412
  185BOLB   GL4 4432   9.616  19.192  19.885  0.2009 -0.0710 -0.1052
  185BOLB   C1C 4433  10.086  19.052  20.196  0.1046  0.3852  0.0741
  185BOLB   C2C 4434  10.407  18.723  20.116  0.4357 -0.1103 -0.1541
  185BOLB   C3C 4435  10.663  18.427  20.042  0.0685 -0.3365  0.0692
  185BOLB   C4C 4436  10.909  18.235  19.799  0.1831 -0.0161  0.0263
  185BOLB   C1D 4437  10.011  19.019  19.698  0.0405  0.0007  0.0701
  185BOLB   C2D 4438  10.122  18.693  19.675 -0.1700 -0.0282  0.3565
  185BOLB   C3D 4439  10.198  18.423  19.415  0.0110 -0.3251 -0.3123
  185BOLB   C4D 4440   9.827  18.316  19.178 -0.0874 -0.0529  0.1761
  186BOLB   NC1 4441  20.107  22.314  15.041  0.1542 -0.3396  0.1956
  186BOLB   PO1 4442  20.305  22.208  15.466 -0.4826 -0.1510 -0.0567
  186BOLB   GL1 4443  20.141  21.835  15.293 -0.2101  0.1045 -0.1681
  186BOLB   GL2 4444  19.809  21.827  15.049  0.1801  0.1412 -0.3768
  186BOLB   C1A 4445  19.936  21.342  15.253 -0.1990  0.0444 -0.1703
  186BOLB   C2A 4446  19.883  20.915  15.257  0.1250  0.1570  0.3329
  186BOLB   C3A 4447  19.794  20.529  15.014 -0.2594  0.5987 -0.3225
  186BOLB   C4A 4448  19.976  20.065  14.874  0.0445  0.0488 -0.1847
  186BOLB   C1B 4449  19.554  21.616  15.385 -0.1620 -0.0807 -0.3177
  186BOLB   C2B 4450  19.132  21.554  15.533  0.0744 -0.0854 -0.1915
  186BOLB   C3B 4451  18.827  21.501  15.208 -0.1010 -0.1883  0.3173
  186BOLB   C4B 4452  18.684  21.761  14.886 -0.1445  0.1898  0.2417
  186BOLB   NC2 4453  19.918  17.455  14.813  0.2430 -0.0483 -0.0027
  186BOLB   PO2 4454  20.284  17.652  15.157 -0.0149  0.0592 -0.0223
  186BOLB   GL3 4455  20.422  18.030  14.980 -0.0897  0.1639 -0.3881
  186BOLB   GL4 4456  20.654  18.168  15.075  0.0285  0.0295  0.1138
  186BOLB   C1C 4457  20.222  18.441  14.962 -0.2787 -0.1823  0.1769
  186BOLB   C2C 4458  20.286  18.905  15.029  0.0546 -0.1313  0.0343
  186BOLB   C3C 4459  20.283  19.352  15.073 -0.2627  0.0194 -0.3774
  186BOLB   C4C 4460  20.135  19.757  14.918  0.3524 -0.1229 -0.1849
  186BOLB   C1D 4461  20.748  18.579  15.171 -0.1119 -0.1458 -0.0082
  186BOLB   C2D 4462  20.789  19.074  15.123  0.1364 -0.1680  0.1209
  186BOLB   C3D 4463  20.970  19.420  15.174  0.1107  0.0879  0.0732
  186BOLB   C4D 4464  20.853  19.865  15.036  0.2730  0.2938  0.2152
  187BOLB   NC1 4465  11.753   9.345  21.244 -0.2505  0.0520 -0.0031
  187BOLB   PO1 4466  11.414   9.425  21.463  0.0648 -0.0392 -0.3749
  187BOLB   GL1 4467  11.131   9.557  21.704  0.2003  0.0747 -0.1397
  187BOLB   GL2 4468  11.175   9.561  21.948 -0.2335  0.0177 -0.1022
  187BOLB   C1A 4469  10.692   9.700  21.938  0.1201  0.3092  0.0620
  187BOLB   C2A 4470  10.348   9.778  22.026  0.1299 -0.2002 -0.0827
  187BOLB   C3A 4471  10.164   9.897  22.358  0.2144  0.1295  0.3263
  187BOLB   C4A 4472  10.105   9.854  22.771 -0.1408  0.0014  0.1274
  187BOLB   C1B 4473  11.013   9.470  22.311 -0.1568  0.1282  0.2315
  187BOLB   C2B 4474  10.907   9.317  22.702  0.3849 -0.2319 -0.0087
  187BOLB   C3B 4475  10.802   9.194  23.121 -0.0674 -0.0060 -0.0452
  187BOLB   C4B 4476  10.828   9.048  23.509 -0.1626 -0.1300  0.0140
  187BOLB   NC2 4477   8.478   9.256  24.664 -0.0921  0.1203  0.1291
  187BOLB   PO2 4478   8.820   9.202  24.779 -0.3805  0.0176 -0.0910
  187BOLB   GL3 4479   9.047   9.323  24.439  0.0942  0.1852 -0.0357
  187BOLB   GL4 4480   9.203   9.606  24.639 -0.1447 -0.1362  0.0724
  187BOLB   C1C 4481   9.276   9.363  24.054 -0.0463  0.0390  0.1438
  187BOLB   C2C 4482   9.475   9.582  23.711 -0.0733  0.1992  0.0628
  187BOLB   C3C 4483   9.448   9.568  23.270 -0.0770 -0.2865 -0.1321
  187BOLB   C4C 4484   9.802   9.759  23.092  0.2235 -0.2012  0.2407
  187BOLB   C1D 4485   9.447   9.761  24.318  0.0341  0.0901  0.0314
  187BOLB   C2D 4486   9.534   9.975  23.965  0.0647 -0.2979  0.0069
  187BOLB   C3D 4487   9.637  10.476  23.886  0.0600 -0.1054 -0.2010
  187BOLB   C4D 4488   9.432  10.837  23.720 -0.2841 -0.0027  0.1387
  188BOLB   NC1 4489  11.180  16.342  13.449 -0.0556 -0.0003 -0.2563
  188BOLB   PO1 4490  11.183  16.055  13.083 -0.1675  0.5234 -0.0249
  188BOLB   GL1 4491  11.042  16.452  12.907 -0.1849  0.0995  0.0684
  188BOLB   GL2 4492  11.121  16.568  12.643  0.3111  0.3844  0.0585
  188BOLB   C1A 4493  10.683  16.585  12.884 -0.0583  0.3043 -0.1919
  188BOLB   C2A 4494  10.388  16.956  12.737  0.4394 -0.0222 -0.0058
  188BOLB   C3A 4495  10.077  17.163  12.520  0.0399  0.3342 -0.0118
  188BOLB   C4A 4496   9.712  17.379  12.377  0.0604 -0.1193  0.0598
  188BOLB   C1B 4497  10.923  16.804  12.295  0.1007 -0.0846 -0.0111
  188BOLB   C2B 4498  10.676  17.119  12.059 -0.1650 -0.0079 -0.2968
  188BOLB   C3B 4499  10.410  17.463  12.102 -0.0466  0.1242  0.1168
  188BOLB   C4B 4500  10.366  17.892  12.179  0.0661 -0.1150  0.0131
  188BOLB   NC2 4501   8.353  19.276  11.238  0.0323 -0.1923 -0.2407
  188BOLB   PO2 4502   8.609  18.926  11.310  0.0065  0.2081  0.1353
  188BOLB   GL3 4503   8.861  18.571  11.383 -0.1933 -0.1467 -0.1473
  188BOLB   GL4 4504   9.182  18.384  11.317 -0.1127 -0.0085  0.4767
  188BOLB   C1C 4505   8.813  18.251  11.653 -0.0370 -0.1952  0.0573
  188BOLB   C2C 4506   8.926  17.945  11.920  0.0475 -0.0433 -0.0803
  188BOLB   C3C 4507   9.045  17.497  11.989  0.0704  0.1175  0.1207
  188BOLB   C4C 4508   9.331  17.219  12.160  0.2180 -0.1716  0.2720
  188BOLB   C1D 4509   9.351  18.185  11.692  0.0658  0.2200  0.1921
  188BOLB   C2D 4510   9.750  18.062  11.819  0.1306 -0.4024 -0.1610
  188BOLB   C3D 4511  10.116  17.836  11.786 -0.2111  0.0412  0.2521
  188BOLB   C4D 4512  10.244  17.494  11.534 -0.0002  0.1168  0.1181
  189BOLB   NC1 4513  23.986  19.784  15.537 -0.2280 -0.0219  0.1460
  189BOLB   PO1 4514  23.820  19.979  15.141  0.1103  0.1302  0.1217
  189BOLB   GL1 4515  23.528  19.620  15.248  0.1134  0.4771 -0.2040
  189BOLB   GL2 4516  23.557  19.520  15.599  0.1500  0.0245  0.2829
  189BOLB   C1A 4517  23.603  19.127  15.295  0.0998 -0.0828  0.1585
  189BOLB   C2A 4518  23.702  18.718  15.308  0.1742 -0.0103 -0.3231
  189BOLB   C3A 4519  23.535  18.325  15.317 -0.0265  0.2555  0.3388
  189BOLB   C4A 4520  23.664  17.917  15.382 -0.2504 -0.3150  0.1826
  189BOLB   C1B 4521  23.099  19.557  15.489 -0.1606  0.0401 -0.0425
  189BOLB   C2B 4522  22.710  19.397  15.385  0.0710  0.1911  0.1604
  189BOLB   C3B 4523  22.378  19.143  15.510  0.0572 -0.0419  0.0579
  189BOLB   C4B 4524  22.148  18.851  15.282 -0.0467  0.1537 -0.0304
  189BOLB   NC2 4525  24.734  19.726  15.096 -0.1304  0.1255  0.0416
  189BOLB   PO2 4526  24.326  19.773  15.211 -0.1852  0.0787 -0.1169
  189BOLB   GL3 4527  24.076  19.387  15.194  0.0740  0.3320  0.0047
  189BOLB   GL4 4528  24.143  19.240  15.533 -0.3035  0.0753 -0.0120
  189BOLB   C1C 4529  24.126  18.999  15.088  0.0214 -0.4873 -0.0073
  189BOLB   C2C 4530  24.173  18.570  15.136  0.2614 -0.4682  0.1438
  189BOLB   C3C 4531  24.025  18.184  15.145 -0.1856 -0.0984  0.1453
  189BOLB   C4C 4532  23.941  17.902  15.309  0.4207  0.0108  0.1529
  189BOLB   C1D 4533  24.054  18.798  15.619  0.0511  0.2647  0.2157
  189BOLB   C2D 4534  23.824  18.442  15.782 -0.0043 -0.1467  0.0059
  189BOLB   C3D 4535  23.571  18.569  16.200 -0.3648  0.0470  0.3218
  189BOLB   C4D 4536  23.564  18.419  16.581  0.0151  0.4452 -0.0022
  190BOLB   NC1 4537  14.934   9.084  10.203 -0.0448  0.1649  0.1115
  190BOLB   PO1 4538  14.685   8.727   9.924  0.3026 -0.3016  0.0811
  190BOLB   GL1 4539  14.390   8.598   9.678  0.1227 -0.0423  0.1480
  190BOLB   GL2 4540  14.102   8.672   9.686 -0.1947  0.2030 -0.0808
  190BOLB   C1A 4541  14.386   8.646   9.246 -0.0639 -0.1449 -0.1811
  190BOLB   C2A 4542  14.460   8.491   8.781  0.3832  0.2050 -0.2146
  190BOLB   C3A 4543  14.664   8.284   8.385  0.0243  0.2708  0.1933
  190BOLB   C4A 4544  14.617   8.493   7.989 -0.2614 -0.2362  0.1118
  190BOLB   C1B 4545  13.897   8.700   9.285  0.1765 -0.0187  0.4293
  190BOLB   C2B 4546  14.055   8.772   8.846  0.0987 -0.2003 -0.2396
  190BOLB   C3B 4547  14.293   8.861   8.500  0.3058  0.3550 -0.0653
  190BOLB   C4B 4548  14.667   8.843   8.492 -0.0094  0.1018  0.1377
  190BOLB   NC2 4549  13.950  10.146   9.328  0.0854 -0.0103 -0.0094
  190BOLB   PO2 4550  14.308   9.812   9.375 -0.1938  0.3253 -0.0778
  190BOLB   GL3 4551  13.976   9.661   9.093 -0.2867 -0.2482  0.0436
  190BOLB   GL4 4552  14.300   9.558   8.892 -0.0935  0.1497  0.1166
  190BOLB   C1C 4553  13.895   9.304   8.782 -0.0532 -0.1204 -0.1713
  190BOLB   C2C 4554  13.844   9.185   8.353 -0.0161  0.2289  0.1512
  190BOLB   C3C 4555  14.059   9.012   8.099  0.1388  0.0747 -0.0689
  190BOLB   C4C 4556  14.498   8.866   8.034 -0.3266  0.0427  0.0806
  190BOLB   C1D 4557  14.288   9.378   8.438  0.0494  0.1341 -0.0919
  190BOLB   C2D 4558  14.475   9.434   8.019  0.0148 -0.0487 -0.1776
  190BOLB   C3D 4559  14.425   9.768   7.727  0.0650 -0.0261  0.2693
  190BOLB   C4D 4560  14.296  10.065   7.465 -0.0712 -0.0508  0.1716
  191BOLB   NC1 4561  21.356  11.838   9.999 -0.4440  0.0878  0.2474
  191BOLB   PO1 4562  21.561  12.240  10.127  0.0992  0.0895 -0.3191
  191BOLB   GL1 4563  21.873  12.203   9.918 -0.0682 -0.0151  0.0828
  191BOLB   GL2 4564  22.091  12.443   9.943 -0.0802 -0.2095 -0.2490
  191BOLB   C1A 4565  21.975  12.240   9.530  0.0696  0.0726  0.0786
  191BOLB   C2A 4566  22.081  12.202   9.159  0.0488  0.3804  0.2380
  191BOLB   C3A 4567  22.078  12.397   8.804  0.0255  0.1668  0.0633
  191BOLB   C4A 4568  22.067  12.815   8.570 -0.0345 -0.0384 -0.0816
  191BOLB   C1B 4569  22.292  12.567   9.767  0.1499  0.0332 -0.0264
  191BOLB   C2B 4570  22.545  12.279   9.539 -0.4113 -0.1899  0.1483
  191BOLB   C3B 4571  22.557  11.938   9.130  0.3408  0.1567  0.0177
  191BOLB   C4B 4572  22.581  11.467   8.737  0.2546  0.0139  0.1806
  191BOLB   NC2 4573  24.037  12.600   7.194 -0.0262  0.1391 -0.2054
  191BOLB   PO2 4574  23.608  12.729   6.927  0.0561 -0.0975  0.2775
  191BOLB   GL3 4575  23.390  12.507   7.298  0.0628  0.0478 -0.1794
  191BOLB   GL4 4576  23.611  12.379   7.489 -0.2696  0.2099  0.0277
  191BOLB   C1C 4577  23.049  12.508   7.483 -0.2621 -0.1722 -0.0603
  191BOLB   C2C 4578  22.808  12.770   7.719  0.1853  0.1518  0.1494
  191BOLB   C3C 4579  22.653  12.868   7.988 -0.1829 -0.0631  0.3646
  191BOLB   C4C 4580  22.336  12.912   8.274 -0.2393  0.0548 -0.0429
  191BOLB   C1D 4581  23.507  12.497   7.813  0.0953  0.3832  0.2239
  191BOLB   C2D 4582  23.174  12.613   8.103  0.1015 -0.3125 -0.3016
  191BOLB   C3D 4583  22.886  12.604   8.375 -0.2739 -0.1346 -0.0618
  191BOLB   C4D 4584  22.613  12.413   8.476  0.1330  0.1649 -0.1258
  192BOLB   NC1 4585   9.727  11.021  19.987  0.0318 -0.2005 -0.0008
  192BOLB   PO1 4586   9.398  10.974  20.199 -0.3162 -0.0406 -0.0247
  192BOLB   GL1 4587   9.322  11.115  20.652 -0.0340  0.1887  0.3861
  192BOLB   GL2 4588   9.113  11.364  20.604 -0.4069 -0.0379 -0.2106
  192BOLB   C1A 4589   9.110  11.068  21.059  0.1025  0.0701 -0.0536
  192BOLB   C2A 4590   8.753  11.127  21.382  0.1006 -0.0194  0.1277
  192BOLB   C3A 4591   8.341  11.070  21.582  0.1036  0.3026  0.1395
  192BOLB   C4A 4592   8.149  11.189  21.941  0.0374  0.0754  0.0421
  192BOLB   C1B 4593   8.703  11.154  20.809 -0.0257 -0.4583 -0.1970
  192BOLB   C2B 4594   8.484  10.782  20.625  0.3359 -0.0984 -0.0902
  192BOLB   C3B 4595   8.227  10.779  20.463 -0.0105 -0.1822 -0.2337
  192BOLB   C4B 4596   7.867  11.223  20.425 -0.0336  0.1784 -0.0739
  192BOLB   NC2 4597   7.590  12.615  23.477 -0.2553 -0.0101  0.0461
  192BOLB   PO2 4598   7.949  12.567  23.719  0.0408 -0.0099  0.1409
  192BOLB   GL3 4599   8.107  12.665  23.346 -0.1071 -0.2007  0.1143
  192BOLB   GL4 4600   8.297  13.018  23.371 -0.3027  0.2882 -0.2638
  192BOLB   C1C 4601   8.345  12.269  23.114 -0.2219  0.2409 -0.1136
  192BOLB   C2C 4602   8.480  11.950  22.900 -0.1310 -0.1789  0.2939
  192BOLB   C3C 4603   8.523  11.757  22.502  0.0902 -0.0830 -0.0815
  192BOLB   C4C 4604   8.500  11.297  22.272 -0.0382 -0.0222  0.0641
  192BOLB   C1D 4605   8.465  12.871  22.931 -0.1116  0.3957  0.0631
  192BOLB   C2D 4606   8.732  12.698  22.657 -0.2441  0.0270 -0.1034
  192BOLB   C3D 4607   9.137  12.670  22.653 -0.2428  0.1582 -0.1182
  192BOLB   C4D 4608   9.521  12.512  22.540 -0.0734 -0.0769  0.0773
  193BOLB   NC1 4609  16.039   2.326  18.746 -0.1368  0.1841 -0.0343
  193BOLB   PO1 4610  16.318   2.115  18.807 -0.1183 -0.1732  0.4170
  193BOLB   GL1 4611  16.454   1.855  19.077 -0.1501  0.0641 -0.2344
  193BOLB   GL2 4612  16.756   1.744  19.090 -0.2563  0.1974  0.0515
  193BOLB   C1A 4613  16.411   1.604  19.396  0.1798 -0.1597 -0.2014
  193BOLB   C2A 4614  16.426   1.205  19.542 -0.4090 -0.0948  0.2481
  193BOLB   C3A 4615  16.098   0.979  19.793  0.1422  0.0022  0.4105
  193BOLB   C4A 4616  16.107   0.735  20.153 -0.0668 -0.4094 -0.1632
  193BOLB   C1B 4617  16.895   1.510  19.374 -0.0340 -0.0162 -0.1143
  193BOLB   C2B 4618  16.918   1.240  19.800 -0.0536 -0.1094  0.0032
  193BOLB   C3B 4619  16.793   1.366  20.179 -0.1832  0.0530  0.0915
  193BOLB   C4B 4620  16.727   1.459  20.566  0.1023  0.2055 -0.0819
  193BOLB   NC2 4621  15.598  -1.428  21.249 -0.1155 -0.1170  0.0656
  193BOLB   PO2 4622  15.983  -1.272  21.116 -0.1598  0.2798  0.3109
  193BOLB   GL3 4623  16.002  -0.847  21.019  0.0857 -0.0688  0.0030
  193BOLB   GL4 4624  15.812  -0.762  20.786 -0.0626  0.1277  0.3550
  193BOLB   C1C 4625  16.104  -0.413  21.048 -0.0254  0.4014  0.1712
  193BOLB   C2C 4626  15.959  -0.060  20.986 -0.3810 -0.0588  0.2007
  193BOLB   C3C 4627  15.942   0.217  20.669  0.1753 -0.2369 -0.0445
  193BOLB   C4C 4628  15.925   0.463  20.443  0.1895  0.0718  0.0505
  193BOLB   C1D 4629  16.080  -0.689  20.470  0.0612 -0.1814  0.1228
  193BOLB   C2D 4630  16.296  -0.678  20.066  0.4230  0.2756  0.0525
  193BOLB   C3D 4631  16.223  -0.272  19.782  0.0837 -0.1042  0.0728
  193BOLB   C4D 4632  16.242   0.047  19.487 -0.1384  0.2615  0.2111
  194BOLB   NC1 4633  25.706  14.869   9.805 -0.1963 -0.0197 -0.1682
  194BOLB   PO1 4634  25.459  15.219   9.958 -0.0455 -0.1063 -0.0596
  194BOLB   GL1 4635  25.440  14.950  10.269  0.0201 -0.1258  0.1037
  194BOLB   GL2 4636  25.622  14.683  10.281 -0.2961  0.1288 -0.4594
  194BOLB   C1A 4637  25.305  14.849  10.634 -0.2321 -0.0065  0.1285
  194BOLB   C2A 4638  24.963  14.682  10.915 -0.0194  0.0395  0.1415
  194BOLB   C3A 4639  24.821  14.397  11.167  0.1330  0.0108 -0.2196
  194BOLB   C4A 4640  24.639  14.083  11.370 -0.0615 -0.0831 -0.1453
  194BOLB   C1B 4641  25.457  14.423  10.458  0.0899  0.0836  0.2725
  194BOLB   C2B 4642  25.403  13.956  10.527  0.2421  0.1059  0.1084
  194BOLB   C3B 4643  25.193  13.577  10.612 -0.3096  0.0338 -0.1270
  194BOLB   C4B 4644  25.016  13.210  10.753 -0.0143 -0.0852 -0.1554
  194BOLB   NC2 4645  23.118  13.963  13.378 -0.0274 -0.1632  0.0698
  194BOLB   PO2 4646  23.031  13.943  12.998 -0.1638  0.1315  0.1373
  194BOLB   GL3 4647  23.403  13.759  12.696  0.1626 -0.1729  0.2744
  194BOLB   GL4 4648  23.464  14.013  12.498 -0.1088 -0.0279 -0.2190
  194BOLB   C1C 4649  23.854  13.614  12.613  0.0835 -0.0720  0.2933
  194BOLB   C2C 4650  24.222  13.652  12.357  0.1401  0.0894  0.1586
  194BOLB   C3C 4651  24.415  13.578  11.947 -0.0804  0.0435 -0.0642
  194BOLB   C4C 4652  24.645  13.640  11.626  0.0669  0.2182 -0.0804
  194BOLB   C1D 4653  23.530  14.185  12.226 -0.1446 -0.0684  0.1063
  194BOLB   C2D 4654  23.870  14.458  12.193  0.1866  0.0171 -0.1779
  194BOLB   C3D 4655  24.007  14.590  11.818  0.0046  0.2548 -0.0138
  194BOLB   C4D 4656  23.781  14.915  11.571  0.1741 -0.0168  0.1101
  195BOLB   NC1 4657  23.837  15.558   8.436 -0.0813  0.0210  0.2154
  195BOLB   PO1 4658  23.981  15.609   8.838 -0.1478 -0.0043  0.3023
  195BOLB   GL1 4659  23.702  15.494   9.204  0.2356 -0.0832  0.0715
  195BOLB   GL2 4660  23.764  15.403   9.520  0.2309  0.2467  0.2205
  195BOLB   C1A 4661  23.286  15.611   9.387  0.0521  0.0957  0.3123
  195BOLB   C2A 4662  22.808  15.563   9.531  0.2728  0.1173  0.2784
  195BOLB   C3A 4663  22.423  15.684   9.606 -0.1302  0.0520  0.1895
  195BOLB   C4A 4664  21.991  15.967   9.572 -0.0724  0.2321  0.0980
  195BOLB   C1B 4665  23.778  15.041   9.685 -0.0512 -0.3045  0.0251
  195BOLB   C2B 4666  23.726  14.827  10.084  0.2375 -0.0532 -0.0078
  195BOLB   C3B 4667  23.440  14.639  10.411  0.2962  0.0258  0.1474
  195BOLB   C4B 4668  23.079  14.336  10.496  0.1570 -0.1406  0.2122
  195BOLB   NC2 4669  22.226  18.273   8.796 -0.3010  0.0609 -0.1680
  195BOLB   PO2 4670  22.011  17.959   8.508 -0.0491  0.3132  0.1027
  195BOLB   GL3 4671  21.781  17.748   8.712 -0.0052 -0.3861 -0.3092
  195BOLB   GL4 4672  21.652  17.402   8.592  0.4114  0.0886  0.0760
  195BOLB   C1C 4673  21.751  17.464   9.082 -0.1480  0.1938 -0.0764
  195BOLB   C2C 4674  21.616  17.170   9.378  0.2700 -0.1725  0.1652
  195BOLB   C3C 4675  21.502  16.731   9.460 -0.1934 -0.1157  0.1511
  195BOLB   C4C 4676  21.889  16.401   9.595 -0.1426  0.1193 -0.0803
  195BOLB   C1D 4677  21.362  17.587   8.890 -0.0400 -0.1229  0.1077
  195BOLB   C2D 4678  21.496  17.733   9.394 -0.0630 -0.2933  0.1207
  195BOLB   C3D 4679  21.265  18.156   9.567  0.1787 -0.1272  0.3163
  195BOLB   C4D 4680  21.086  18.592   9.505  0.1287  0.4139  0.0126
  196BOLB   NC1 4681   3.701  10.632   6.010  0.2665 -0.0217 -0.4545
  196BOLB   PO1 4682   4.089  10.743   6.262  0.0090 -0.2509  0.0699
  196BOLB   GL1 4683   4.315  10.717   6.666 -0.1883  0.0482 -0.2721
  196BOLB   GL2 4684   4.032  10.705   6.925 -0.0759  0.0805 -0.0891
  196BOLB   C1A 4685   4.726  10.651   6.843 -0.2013  0.0550  0.0971
  196BOLB   C2A 4686   5.163  10.661   7.082  0.0507  0.7061 -0.2317
  196BOLB   C3A 4687   5.458  10.608   7.298  0.1161 -0.3432 -0.0841
  196BOLB   C4A 4688   5.985  10.689   7.387 -0.1994 -0.3395 -0.2318
  196BOLB   C1B 4689   4.302  10.557   7.198 -0.0724  0.1928  0.0162
  196BOLB   C2B 4690   4.710  10.520   7.353  0.1163 -0.1633 -0.1642
  196BOLB   C3B 4691   5.093  10.663   7.616 -0.0832  0.0092 -0.2032
  196BOLB   C4B 4692   5.371  10.495   7.903 -0.2529 -0.0367  0.0261
  196BOLB   NC2 4693   4.512  12.447   6.911  0.1356 -0.1082  0.2222
  196BOLB   PO2 4694   4.717  12.316   6.538 -0.1599  0.3045  0.0583
  196BOLB   GL3 4695   4.793  12.015   6.768 -0.2275 -0.1755 -0.1229
  196BOLB   GL4 4696   4.818  11.764   6.562 -0.1364 -0.6607  0.2667
  196BOLB   C1C 4697   5.077  11.800   6.996  0.1537 -0.0297 -0.3167
  196BOLB   C2C 4698   5.405  11.528   7.157 -0.2354 -0.3148 -0.2656
  196BOLB   C3C 4699   5.697  11.311   7.364 -0.2118 -0.4789  0.3264
  196BOLB   C4C 4700   6.025  11.035   7.308 -0.0241  0.1588  0.3201
  196BOLB   C1D 4701   4.917  11.397   6.756 -0.1803  0.0823 -0.0635
  196BOLB   C2D 4702   5.029  11.195   7.077  0.0155  0.0875 -0.5422
  196BOLB   C3D 4703   5.285  11.099   7.368  0.2548  0.2155  0.3618
  196BOLB   C4D 4704   5.592  10.937   7.686  0.0111 -0.0627 -0.0440
  197BOLB   NC1 4705  24.459  10.388  14.223  0.0012  0.1359 -0.0260
  197BOLB   PO1 4706  24.389  10.527  14.613  0.2377  0.0964 -0.2343
  197BOLB   GL1 4707  24.721  10.647  14.703 -0.6024 -0.1238  0.0593
  197BOLB   GL2 4708  24.879  10.479  14.434  0.3288  0.0705  0.3088
  197BOLB   C1A 4709  25.037  10.880  14.704  0.2889 -0.3851 -0.2157
  197BOLB   C2A 4710  25.091  11.303  14.638  0.0375 -0.0857 -0.0443
  197BOLB   C3A 4711  25.453  11.547  14.553 -0.0561 -0.2190 -0.0965
  197BOLB   C4A 4712  25.887  11.650  14.596 -0.1945  0.1012  0.0694
  197BOLB   C1B 4713  25.233  10.351  14.586  0.2202  0.0749  0.0829
  197BOLB   C2B 4714  25.596  10.433  14.755  0.2323 -0.4271 -0.1250
  197BOLB   C3B 4715  25.875  10.732  14.840 -0.1354 -0.0023 -0.1098
  197BOLB   C4B 4716  26.287  10.891  15.028  0.4126  0.2584 -0.0378
  197BOLB   NC2 4717  28.307  12.563  15.724  0.0207 -0.0328 -0.1066
  197BOLB   PO2 4718  27.942  12.349  15.756  0.3820 -0.0802  0.0235
  197BOLB   GL3 4719  27.658  12.183  15.522 -0.2870 -0.1684  0.0030
  197BOLB   GL4 4720  27.388  12.150  15.640 -0.0747 -0.3122  0.3216
  197BOLB   C1C 4721  27.363  12.237  15.145  0.2440  0.1963 -0.1382
  197BOLB   C2C 4722  26.955  12.248  14.922 -0.0807  0.1348  0.1230
  197BOLB   C3C 4723  26.595  12.168  14.666 -0.0019  0.6163  0.2544
  197BOLB   C4C 4724  26.238  11.955  14.581  0.0743  0.0509 -0.0717
  197BOLB   C1D 4725  26.997  12.289  15.552 -0.0573 -0.1168 -0.1604
  197BOLB   C2D 4726  26.505  12.280  15.462  0.0251  0.0739 -0.0263
  197BOLB   C3D 4727  26.071  12.343  15.241 -0.2270  0.1406  0.1700
  197BOLB   C4D 4728  25.977  12.361  14.746 -0.0177  0.1323 -0.1954
  198BOLB   NC1 4729  23.790   8.800  15.769 -0.1121 -0.0186  0.2249
  198BOLB   PO1 4730  24.149   8.905  16.042 -0.2961  0.1533 -0.2808
  198BOLB   GL1 4731  24.529   8.856  16.297  0.0625 -0.0501  0.1136
  198BOLB   GL2 4732  24.434   8.815  16.679  0.5206 -0.2282  0.1432
  198BOLB   C1A 4733  24.978   8.804  16.306  0.0310 -0.4190 -0.2789
  198BOLB   C2A 4734  25.119   8.890  15.857  0.2338 -0.2150 -0.3072
  198BOLB   C3A 4735  25.389   8.780  15.573  0.1642 -0.3996 -0.3498
  198BOLB   C4A 4736  25.910   8.745  15.342 -0.0977 -0.1603  0.2967
  198BOLB   C1B 4737  24.826   8.601  16.745  0.0802  0.0058  0.2283
  198BOLB   C2B 4738  25.215   8.388  16.734  0.0190  0.2547 -0.2274
  198BOLB   C3B 4739  25.421   8.091  17.037  0.3348 -0.2464  0.0184
  198BOLB   C4B 4740  25.472   7.739  17.297 -0.2211  0.0229 -0.1615
  198BOLB   NC2 4741  28.340   8.442  15.492  0.0445  0.0324 -0.1851
  198BOLB   PO2 4742  28.084   8.926  15.457 -0.2728 -0.2220 -0.1425
  198BOLB   GL3 4743  27.623   8.951  15.350  0.0232 -0.1690  0.1184
  198BOLB   GL4 4744  27.573   8.830  15.622  0.0743 -0.0921 -0.1684
  198BOLB   C1C 4745  27.335   8.854  15.018  0.2141  0.1039  0.0834
  198BOLB   C2C 4746  27.023   8.622  14.919 -0.1599 -0.2281  0.0246
  198BOLB   C3C 4747  26.728   8.481  15.105 -0.3662  0.1278 -0.1035
  198BOLB   C4C 4748  26.296   8.408  15.221 -0.1165 -0.0227 -0.2617
  198BOLB   C1D 4749  27.149   9.040  15.490 -0.1191 -0.1771 -0.1795
  198BOLB   C2D 4750  26.717   9.295  15.625 -0.2416  0.0020 -0.3788
  198BOLB   C3D 4751  26.412   9.512  15.752  0.2509 -0.3171  0.0618
  198BOLB   C4D 4752  26.339   9.902  15.847  0.0862 -0.1737  0.0134
  199BOLB   NC1 4753  15.699  12.616   8.224  0.2493 -0.2099 -0.0056
  199BOLB   PO1 4754  16.029  12.408   7.859  0.2193 -0.1948 -0.0925
  199BOLB   GL1 4755  16.427  12.450   7.479  0.3114  0.0392  0.0889
  199BOLB   GL2 4756  16.598  12.327   7.245 -0.2097 -0.1649 -0.1870
  199BOLB   C1A 4757  16.496  12.805   7.258  0.1221 -0.1730 -0.0684
  199BOLB   C2A 4758  16.569  13.025   6.937 -0.1858 -0.1749 -0.1629
  199BOLB   C3A 4759  16.542  13.051   6.490  0.0232 -0.2967 -0.4495
  199BOLB   C4A 4760  16.729  13.113   6.083 -0.2659 -0.0878 -0.2527
  199BOLB   C1B 4761  16.877  12.208   7.013 -0.2846 -0.2326 -0.0752
  199BOLB   C2B 4762  16.957  12.107   6.600 -0.0991  0.3040 -0.0177
  199BOLB   C3B 4763  17.040  12.254   6.195  0.2313 -0.1076 -0.1393
  199BOLB   C4B 4764  17.031  12.129   5.780 -0.1867 -0.3122  0.0006
  199BOLB   NC2 4765  17.113  14.760   3.905 -0.0682  0.1648 -0.3543
  199BOLB   PO2 4766  17.412  14.392   4.072 -0.0088  0.0308  0.0328
  199BOLB   GL3 4767  17.269  14.192   4.501  0.0252 -0.1322 -0.2001
  199BOLB   GL4 4768  17.421  14.218   4.653 -0.0527  0.0998  0.1511
  199BOLB   C1C 4769  17.048  13.877   4.782  0.2184 -0.0869  0.0801
  199BOLB   C2C 4770  17.002  13.667   5.069  0.0946  0.0731  0.0913
  199BOLB   C3C 4771  16.953  13.552   5.462  0.0044 -0.2645 -0.0727
  199BOLB   C4C 4772  16.818  13.464   5.850 -0.0573 -0.1084  0.0334
  199BOLB   C1D 4773  17.582  13.866   4.805 -0.0955  0.3348  0.0977
  199BOLB   C2D 4774  17.530  13.641   5.155 -0.0769  0.1564 -0.0856
  199BOLB   C3D 4775  17.471  13.383   5.523 -0.1952 -0.0333 -0.0508
  199BOLB   C4D 4776  17.290  13.236   5.894  0.1682  0.1507  0.2027
  200BOLB   NC1 4777  15.846  12.272   7.366  0.1547  0.0175 -0.0829
  200BOLB   PO1 4778  15.482  12.575   7.370 -0.0575  0.1697 -0.0265
  200BOLB   GL1 4779  15.575  12.555   6.933 -0.2756  0.3371 -0.2696
  200BOLB   GL2 4780  15.253  12.586   6.774  0.0269  0.0267 -0.4183
  200BOLB   C1A 4781  15.688  12.562   6.519 -0.0358  0.0356 -0.1591
  200BOLB   C2A 4782  15.295  12.764   6.310  0.1422  0.2269  0.1392
  200BOLB   C3A 4783  14.932  12.746   6.003  0.0829 -0.2363  0.2710
  200BOLB   C4A 4784  14.490  12.582   5.839  0.1409 -0.0229 -0.1666
  200BOLB   C1B 4785  15.005  12.439   6.593 -0.2498 -0.1995  0.0815
  200BOLB   C2B 4786  14.825  12.328   6.211  0.2459 -0.1518 -0.0617
  200BOLB   C3B 4787  14.551  12.082   5.936  0.1048  0.3357 -0.3653
  200BOLB   C4B 4788  14.714  11.968   5.603 -0.0301  0.0831 -0.0756
  200BOLB   NC2 4789  14.874  12.897   3.483  0.1092  0.0455 -0.2427
  200BOLB   PO2 4790  15.320  12.785   3.679  0.1164  0.2616 -0.0729
  200BOLB   GL3 4791  15.023  12.668   4.009  0.1778  0.0117  0.0463
  200BOLB   GL4 4792  14.803  12.900   3.950 -0.0879 -0.1385 -0.3475
  200BOLB   C1C 4793  14.898  12.575   4.479  0.2020  0.0785 -0.0108
  200BOLB   C2C 4794  14.471  12.420   4.646  0.1374  0.1353 -0.1391
  200BOLB   C3C 4795  14.257  12.580   5.151 -0.2879 -0.0017  0.3284
  200BOLB   C4C 4796  14.436  12.448   5.514  0.0318  0.0465  0.0105
  200BOLB   C1D 4797  14.547  12.538   3.963  0.4101 -0.0469  0.3590
  200BOLB   C2D 4798  14.554  12.176   4.068  0.0918 -0.0050 -0.2776
  200BOLB   C3D 4799  14.727  11.793   3.999 -0.2687  0.0745  0.1783
  200BOLB   C4D 4800  14.725  11.446   4.222 -0.2688 -0.1130 -0.0204
  201BOLB   NC1 4801  26.662   7.813  22.741 -0.0880  0.2437  0.0059
  201BOLB   PO1 4802  26.840   7.995  22.363 -0.0888 -0.0287  0.0313
  201BOLB   GL1 4803  26.719   8.116  21.961 -0.3625  0.3304 -0.3050
  201BOLB   GL2 4804  26.851   7.982  21.717 -0.1087 -0.2858  0.0561
  201BOLB   C1A 4805  26.807   8.505  21.757  0.3056 -0.1331  0.0951
  201BOLB   C2A 4806  26.561   8.964  21.663  0.0865  0.1060  0.1770
  201BOLB   C3A 4807  26.244   9.285  21.550 -0.2865  0.5072  0.4453
  201BOLB   C4A 4808  26.097   9.286  21.212  0.1296  0.2589 -0.1784
  201BOLB   C1B 4809  26.415   8.145  21.505  0.0228  0.2077  0.1971
  201BOLB   C2B 4810  25.997   8.158  21.375  0.0152  0.2825 -0.1332
  201BOLB   C3B 4811  25.766   8.102  21.063  0.0763  0.3327  0.0365
  201BOLB   C4B 4812  25.449   8.261  20.906  0.0669 -0.2323 -0.0058
  201BOLB   NC2 4813  27.616   9.060  20.115 -0.3566 -0.2385 -0.0178
  201BOLB   PO2 4814  27.987   9.430  20.065 -0.1923  0.1583  0.2951
  201BOLB   GL3 4815  27.541   9.546  20.077  0.0652 -0.0763 -0.3144
  201BOLB   GL4 4816  27.411   9.859  20.139 -0.1581 -0.0283 -0.0645
  201BOLB   C1C 4817  27.109   9.369  20.145  0.2447  0.0808  0.1775
  201BOLB   C2C 4818  26.667   9.287  20.231 -0.0949 -0.1309 -0.0748
  201BOLB   C3C 4819  26.421   9.002  20.482 -0.0355 -0.0726 -0.2162
  201BOLB   C4C 4820  26.058   9.014  20.847 -0.0083  0.0774  0.0677
  201BOLB   C1D 4821  27.022   9.900  20.170 -0.0824  0.0876  0.2580
  201BOLB   C2D 4822  26.577   9.902  20.223 -0.1259  0.2198 -0.0740
  201BOLB   C3D 4823  26.249   9.643  20.194  0.0563 -0.3623 -0.2211
  201BOLB   C4D 4824  25.816   9.571  20.044 -0.2722  0.1885  0.1180
  202BOLB   NC1 4825  18.716  12.956   9.173 -0.2181 -0.3000 -0.1111
  202BOLB   PO1 4826  18.509  13.211   8.934  0.0533 -0.1103  0.0805
  202BOLB   GL1 4827  18.651  13.347   8.496 -0.1431 -0.0247 -0.1510
  202BOLB   GL2 4828  18.715  13.209   8.265  0.1014 -0.1216  0.1076
  202BOLB   C1A 4829  19.116  13.419   8.336 -0.0642 -0.0934  0.2411
  202BOLB   C2A 4830  19.208  13.611   7.971  0.0386 -0.1898  0.0159
  202BOLB   C3A 4831  19.473  13.764   7.787  0.0930  0.2315 -0.3005
  202BOLB   C4A 4832  19.706  13.735   7.382 -0.2935 -0.0651  0.3015
  202BOLB   C1B 4833  18.575  13.198   7.795  0.4421  0.3869 -0.1178
  202BOLB   C2B 4834  18.475  13.408   7.528  0.1949 -0.0896 -0.0019
  202BOLB   C3B 4835  18.925  13.629   7.468 -0.2016 -0.0090  0.0074
  202BOLB   C4B 4836  19.377  13.543   7.156  0.0735  0.0103  0.1645
  202BOLB   NC2 4837  20.812  14.200   5.489  0.1652 -0.0699 -0.1147
  202BOLB   PO2 4838  20.623  13.841   5.302 -0.0962 -0.0816  0.3888
  202BOLB   GL3 4839  20.236  13.789   5.499 -0.0585  0.2404  0.0356
  202BOLB   GL4 4840  20.175  13.444   5.552  0.1498 -0.0451 -0.1518
  202BOLB   C1C 4841  20.089  13.830   5.870  0.1129  0.1254  0.3148
  202BOLB   C2C 4842  20.025  13.778   6.210 -0.0709  0.0819  0.1876
  202BOLB   C3C 4843  19.982  13.751   6.575 -0.1008  0.0065 -0.0637
  202BOLB   C4C 4844  19.807  13.564   6.871 -0.1064  0.0428 -0.2063
  202BOLB   C1D 4845  19.993  13.193   5.838  0.0095  0.1035  0.0251
  202BOLB   C2D 4846  19.787  12.973   6.108 -0.0509 -0.0904 -0.0471
  202BOLB   C3D 4847  19.453  12.944   6.275  0.2460 -0.2473  0.0978
  202BOLB   C4D 4848  19.206  12.614   6.401 -0.0596  0.3251 -0.1435
  203BOLB   NC1 4849  22.714  15.891  15.421  0.2984 -0.1781 -0.0979
  203BOLB   PO1 4850  22.955  15.534  15.107  0.0091 -0.1031 -0.1023
  203BOLB   GL1 4851  23.298  15.808  15.338 -0.2383  0.2759 -0.1678
  203BOLB   GL2 4852  23.532  15.841  15.653  0.0210  0.0974  0.1562
  203BOLB   C1A 4853  23.708  16.151  15.311  0.2602 -0.1088  0.2323
  203BOLB   C2A 4854  24.067  16.394  15.421  0.0653  0.1229  0.3198
  203BOLB   C3A 4855  24.238  16.658  15.706  0.1377 -0.1906  0.1343
  203BOLB   C4A 4856  24.291  17.056  15.809 -0.0582  0.2831  0.0034
  203BOLB   C1B 4857  23.918  15.884  15.627 -0.1509  0.2956 -0.2449
  203BOLB   C2B 4858  24.314  15.971  15.553  0.0000 -0.0021  0.1149
  203BOLB   C3B 4859  24.634  16.063  15.260  0.2510 -0.1397  0.1969
  203BOLB   C4B 4860  24.969  15.922  15.076 -0.2348 -0.3178  0.3474
  203BOLB   NC2 4861  25.732  18.942  16.527  0.1113 -0.1337  0.2282
  203BOLB   PO2 4862  26.019  18.592  16.728  0.0167  0.3205  0.0953
  203BOLB   GL3 4863  25.806  18.193  16.623  0.0073 -0.0933 -0.0233
  203BOLB   GL4 4864  26.033  17.943  16.532 -0.0936  0.0908  0.0977
  203BOLB   C1C 4865  25.625  18.026  16.208 -0.1303 -0.1218  0.2007
  203BOLB   C2C 4866  25.286  17.734  16.216 -0.1672 -0.0013 -0.0117
  203BOLB   C3C 4867  25.022  17.457  16.169  0.2128 -0.0677 -0.2523
  203BOLB   C4C 4868  24.695  17.164  15.947 -0.0888 -0.0724  0.0268
  203BOLB   C1D 4869  25.660  17.734  16.587 -0.2796 -0.0318 -0.1076
  203BOLB   C2D 4870  25.518  17.428  16.870 -0.1085  0.4521 -0.0501
  203BOLB   C3D 4871  25.289  17.113  17.001 -0.2967 -0.2984 -0.2118
  203BOLB   C4D 4872  25.208  16.692  16.891 -0.2685 -0.1986  0.1131
  204BOLB   NC1 4873  19.192  18.335  17.593  0.2241  0.0886 -0.0849
  204BOLB   PO1 4874  18.918  18.055  17.264 -0.4058 -0.0960  0.0278
  204BOLB   GL1 4875  19.026  18.512  17.183  0.0665  0.0349  0.0138
  204BOLB   GL2 4876  19.451  18.478  17.095 -0.0666  0.0576 -0.1263
  204BOLB   C1A 4877  19.167  18.984  17.023  0.0700  0.1473 -0.0247
  204BOLB   C2A 4878  19.286  19.400  17.023  0.1246 -0.1531 -0.2376
  204BOLB   C3A 4879  19.339  19.856  17.010 -0.2113  0.1918 -0.0894
  204BOLB   C4A 4880  19.390  20.259  16.907 -0.2866 -0.1865 -0.1930
  204BOLB   C1B 4881  19.663  18.762  16.923  0.0141 -0.3344  0.2324
  204BOLB   C2B 4882  19.641  19.135  16.728  0.0174  0.0686 -0.2065
  204BOLB   C3B 4883  19.726  19.552  16.680 -0.1007 -0.1121 -0.2034
  204BOLB   C4B 4884  19.505  19.952  16.498 -0.2065  0.0789  0.1987
  204BOLB   NC2 4885  20.624  22.154  16.981 -0.3186 -0.1915  0.3205
  204BOLB   PO2 4886  20.839  22.147  16.539 -0.2517  0.1974  0.0585
  204BOLB   GL3 4887  20.636  21.772  16.405 -0.0790 -0.2941 -0.0376
  204BOLB   GL4 4888  20.766  21.452  16.257  0.3530 -0.1099 -0.2591
  204BOLB   C1C 4889  20.425  21.429  16.631  0.1897 -0.0527 -0.3034
  204BOLB   C2C 4890  20.193  21.134  16.673  0.4581  0.0752  0.0279
  204BOLB   C3C 4891  20.025  20.703  16.745 -0.2001 -0.1830  0.3156
  204BOLB   C4C 4892  19.785  20.392  16.905  0.0163  0.0466  0.3069
  204BOLB   C1D 4893  20.748  21.171  15.811 -0.3754  0.0455  0.1635
  204BOLB   C2D 4894  20.809  20.759  15.718  0.0092  0.0054  0.0988
  204BOLB   C3D 4895  20.504  20.541  15.840  0.0862 -0.0249  0.1592
  204BOLB   C4D 4896  20.146  20.653  15.935 -0.1500  0.0985  0.0339
  205BOLB   NC1 4897   8.335   7.842  18.609  0.0290 -0.1300 -0.2301
  205BOLB   PO1 4898   8.377   8.098  18.205  0.0274 -0.2020  0.1785
  205BOLB   GL1 4899   8.033   8.264  18.435  0.0879 -0.2124 -0.0164
  205BOLB   GL2 4900   7.840   8.192  18.066 -0.0092 -0.1239 -0.2469
  205BOLB   C1A 4901   7.662   8.262  18.713 -0.1357  0.1324  0.2399
  205BOLB   C2A 4902   7.220   8.300  18.868  0.0492  0.0445 -0.0407
  205BOLB   C3A 4903   6.842   8.125  19.018  0.2479  0.1245  0.1090
  205BOLB   C4A 4904   6.532   8.137  19.420  0.0822 -0.0502 -0.1524
  205BOLB   C1B 4905   7.486   8.252  18.230 -0.0679 -0.0424 -0.3876
  205BOLB   C2B 4906   7.068   8.351  18.445  0.5653 -0.1117  0.1576
  205BOLB   C3B 4907   6.721   8.468  18.453  0.1310  0.0715 -0.0196
  205BOLB   C4B 4908   6.433   8.516  18.713 -0.0531 -0.4135 -0.0511
  205BOLB   NC2 4909   4.983   7.390  21.373  0.0561 -0.1693 -0.5222
  205BOLB   PO2 4910   4.924   7.464  20.844  0.3679  0.0419  0.2793
  205BOLB   GL3 4911   5.197   7.508  20.406  0.2153  0.1344 -0.2888
  205BOLB   GL4 4912   5.002   7.386  20.140 -0.0481  0.1772 -0.2603
  205BOLB   C1C 4913   5.222   7.833  20.233  0.0969 -0.1133 -0.2078
  205BOLB   C2C 4914   5.277   8.028  19.895  0.1296  0.1257 -0.2579
  205BOLB   C3C 4915   5.818   8.109  19.831  0.2469  0.0079  0.1455
  205BOLB   C4C 4916   6.196   8.101  19.672  0.2726  0.4487  0.0484
  205BOLB   C1D 4917   5.449   7.445  19.944 -0.0097  0.2466 -0.0263
  205BOLB   C2D 4918   5.854   7.542  19.992  0.0774  0.2176 -0.0522
  205BOLB   C3D 4919   6.211   7.574  19.699 -0.0494  0.1511 -0.0577
  205BOLB   C4D 4920   6.559   7.480  19.605  0.1906  0.1797 -0.1967
  206BOLB   NC1 4921  21.528   6.421  20.341 -0.0341  0.0646 -0.1708
  206BOLB   PO1 4922  21.253   6.590  20.652  0.1145  0.4608  0.2068
  206BOLB   GL1 4923  21.454   6.438  21.046  0.1776  0.2771  0.1295
  206BOLB   GL2 4924  21.516   6.640  21.319  0.2313 -0.4256  0.2447
  206BOLB   C1A 4925  21.639   6.110  21.320 -0.3223  0.0868 -0.4364
  206BOLB   C2A 4926  22.020   5.810  21.502  0.2312  0.3060 -0.1709
  206BOLB   C3A 4927  22.277   5.413  21.671  0.1120 -0.5128  0.1561
  206BOLB   C4A 4928  22.299   5.061  21.980  0.3395 -0.1362  0.1519
  206BOLB   C1B 4929  21.799   6.610  21.478  0.0981  0.2592  0.1300
  206BOLB   C2B 4930  22.141   6.811  21.831  0.2742  0.2454  0.0035
  206BOLB   C3B 4931  22.558   6.815  22.079  0.1405 -0.4887 -0.0096
  206BOLB   C4B 4932  22.544   6.511  22.292 -0.0628 -0.1555 -0.0925
  206BOLB   NC2 4933  22.909   3.846  23.534  0.1793 -0.1815 -0.1532
  206BOLB   PO2 4934  23.294   3.929  23.626  0.0659 -0.0016 -0.0912
  206BOLB   GL3 4935  23.406   4.258  23.352  0.1470 -0.3618  0.2074
  206BOLB   GL4 4936  23.291   4.423  23.472 -0.0957 -0.0161 -0.0581
  206BOLB   C1C 4937  23.282   4.196  22.893  0.0850  0.2387  0.1305
  206BOLB   C2C 4938  23.056   4.481  22.679 -0.1415 -0.0498 -0.0223
  206BOLB   C3C 4939  22.871   4.744  22.378  0.0775  0.0747 -0.2284
  206BOLB   C4C 4940  22.574   4.862  22.131  0.0186 -0.1854 -0.0510
  206BOLB   C1D 4941  23.101   4.834  23.383 -0.0896  0.0602  0.0322
  206BOLB   C2D 4942  22.766   4.955  23.218  0.0393  0.0234 -0.2122
  206BOLB   C3D 4943  22.478   5.263  23.099 -0.0275  0.2576 -0.0219
  206BOLB   C4D 4944  22.096   5.572  23.024 -0.0023 -0.0821 -0.1147
  207BOLB   NC1 4945  16.782  17.718  12.069 -0.2142 -0.2204  0.1471
  207BOLB   PO1 4946  16.801  17.546  11.587  0.0223 -0.4348 -0.2520
  207BOLB   GL1 4947  16.528  17.954  11.533 -0.3114 -0.0021  0.4552
  207BOLB   GL2 4948  16.818  18.189  11.795  0.2133 -0.0951 -0.0521
  207BOLB   C1A 4949  16.573  18.317  11.298 -0.1989  0.0048  0.1406
  207BOLB   C2A 4950  17.028  18.406  11.377  0.0807 -0.3751  0.0390
  207BOLB   C3A 4951  17.363  18.723  11.242  0.0679  0.1060 -0.1721
  207BOLB   C4A 4952  17.377  19.014  10.951 -0.3409 -0.1619 -0.4247
  207BOLB   C1B 4953  16.816  18.651  11.739  0.3927  0.1746  0.1309
  207BOLB   C2B 4954  17.177  18.824  11.749 -0.3308  0.1579  0.1902
  207BOLB   C3B 4955  17.436  19.096  11.572  0.0793  0.0903  0.2486
  207BOLB   C4B 4956  17.665  19.376  11.362 -0.1532  0.3547 -0.0613
  207BOLB   NC2 4957  17.433  21.126   9.424  0.0811  0.0886  0.0817
  207BOLB   PO2 4958  17.524  21.143   9.873 -0.1457 -0.0356  0.1499
  207BOLB   GL3 4959  17.193  20.679   9.868 -0.1347  0.1847  0.0025
  207BOLB   GL4 4960  16.892  20.659   9.886  0.1728 -0.1838 -0.0528
  207BOLB   C1C 4961  17.286  20.478  10.188  0.1597 -0.2029 -0.2362
  207BOLB   C2C 4962  17.583  20.127  10.433  0.0195  0.1560  0.2709
  207BOLB   C3C 4963  17.489  19.741  10.678  0.2506 -0.0201  0.0661
  207BOLB   C4C 4964  17.457  19.422  10.939  0.1059  0.1906  0.1312
  207BOLB   C1D 4965  16.816  20.304  10.150 -0.3113  0.0654 -0.0646
  207BOLB   C2D 4966  16.745  19.908  10.138 -0.0351 -0.2194 -0.2565
  207BOLB   C3D 4967  16.670  19.681  10.557  0.0312 -0.1330 -0.0719
  207BOLB   C4D 4968  16.989  19.484  10.758  0.1341 -0.0596 -0.1000
  208BOLB   NC1 4969  21.805  14.273  12.294  0.1508 -0.1434  0.1654
  208BOLB   PO1 4970  21.754  14.631  12.044 -0.3023  0.1834 -0.1057
  208BOLB   GL1 4971  21.934  15.067  11.944  0.0774 -0.1690  0.3694
  208BOLB   GL2 4972  22.300  15.037  11.975 -0.1773 -0.1599 -0.1795
  208BOLB   C1A 4973  22.042  15.539  11.810  0.0568 -0.0316  0.0315
  208BOLB   C2A 4974  22.276  15.910  11.622  0.1092  0.4191 -0.2161
  208BOLB   C3A 4975  22.554  16.094  11.281  0.2492  0.0909  0.1830
  208BOLB   C4A 4976  22.805  16.270  10.938  0.2780  0.0480 -0.0359
  208BOLB   C1B 4977  22.535  15.290  11.709 -0.0888 -0.2558  0.1033
  208BOLB   C2B 4978  22.744  15.536  11.371  0.1605  0.2188  0.0323
  208BOLB   C3B 4979  23.085  15.487  11.196  0.0172  0.0426 -0.3850
  208BOLB   C4B 4980  23.529  15.507  10.991  0.2964  0.0593  0.0229
  208BOLB   NC2 4981  24.848  17.240  10.917 -0.1643  0.2696  0.0008
  208BOLB   PO2 4982  24.668  17.732  10.828  0.0464 -0.1460 -0.0479
  208BOLB   GL3 4983  24.436  17.519  11.129 -0.1088  0.1034  0.0980
  208BOLB   GL4 4984  24.473  17.130  11.208  0.0583 -0.1519 -0.0869
  208BOLB   C1C 4985  23.967  17.382  11.209 -0.1776 -0.2074 -0.1585
  208BOLB   C2C 4986  23.579  17.186  11.096  0.1977  0.1073  0.0079
  208BOLB   C3C 4987  23.350  16.850  11.099 -0.0303  0.0859  0.0260
  208BOLB   C4C 4988  22.986  16.692  11.083  0.2085  0.2343 -0.1740
  208BOLB   C1D 4989  24.326  16.686  11.349 -0.0637  0.1451  0.3853
  208BOLB   C2D 4990  24.114  16.330  11.507 -0.0224  0.1026  0.4015
  208BOLB   C3D 4991  23.935  16.449  11.845 -0.1671 -0.0950  0.1325
  208BOLB   C4D 4992  23.931  16.517  12.299  0.1453  0.2602 -0.0916
  209BOLB   NC1 4993  18.423  14.346  23.361  0.0612 -0.0774 -0.1468
  209BOLB   PO1 4994  18.708  14.304  22.947 -0.1441 -0.3693 -0.3935
  209BOLB   GL1 4995  19.186  14.350  23.002 -0.1471  0.1330  0.0973
  209BOLB   GL2 4996  19.476  14.569  22.871  0.2459  0.0602  0.1401
  209BOLB   C1A 4997  19.233  14.304  23.432 -0.4416 -0.1798 -0.0854
  209BOLB   C2A 4998  19.293  14.572  23.757 -0.1379 -0.0800  0.0480
  209BOLB   C3A 4999  19.221  14.844  24.099  0.2768 -0.1034 -0.1097
  209BOLB   C4A 5000  19.174  14.778  24.569 -0.1542 -0.3414 -0.3039
  209BOLB   C1B 5001  19.478  14.817  23.244  0.0886 -0.1145  0.1331
  209BOLB   C2B 5002  19.582  14.979  23.576 -0.1391 -0.1845  0.2763
  209BOLB   C3B 5003  19.689  15.154  23.946  0.3739  0.2197 -0.3161
  209BOLB   C4B 5004  19.795  15.256  24.365 -0.1201 -0.0616  0.4129
  209BOLB   NC2 5005  19.758  14.548  26.868 -0.1791 -0.0083 -0.0421
  209BOLB   PO2 5006  20.056  14.873  26.777 -0.0529 -0.2384 -0.0612
  209BOLB   GL3 5007  19.742  14.746  26.359  0.1503  0.0084  0.0860
  209BOLB   GL4 5008  19.434  14.715  26.467  0.0108 -0.3944  0.0517
  209BOLB   C1C 5009  19.535  14.955  26.023 -0.1546  0.1405  0.1724
  209BOLB   C2C 5010  19.507  15.368  25.670 -0.0644  0.0895 -0.0818
  209BOLB   C3C 5011  19.475  15.359  25.234  0.3200  0.0110  0.0267
  209BOLB   C4C 5012  19.333  15.124  24.841 -0.0701  0.0934  0.2216
  209BOLB   C1D 5013  18.969  14.824  26.335 -0.0367  0.2660  0.0336
  209BOLB   C2D 5014  18.617  14.865  26.057 -0.0940  0.1020  0.0362
  209BOLB   C3D 5015  18.114  14.846  25.934  0.0498 -0.0599 -0.0086
  209BOLB   C4D 5016  17.852  14.756  25.607  0.2240 -0.0713 -0.0843
  210BOLB   NC1 5017  24.472  10.083  15.033  0.0809 -0.0252 -0.0815
  210BOLB   PO1 5018  24.561  10.559  15.118  0.2386  0.1316  0.2225
  210BOLB   GL1 5019  24.909  10.362  15.026 -0.4295 -0.0673 -0.4318
  210BOLB   GL2 5020  25.117  10.402  15.406  0.2236 -0.0370  0.1386
  210BOLB   C1A 5021  25.174  10.068  15.012 -0.0386 -0.0661  0.3439
  210BOLB   C2A 5022  25.642   9.959  15.003  0.0251  0.1150 -0.1788
  210BOLB   C3A 5023  25.711   9.603  15.311  0.1623  0.1827  0.0445
  210BOLB   C4A 5024  26.023   9.384  15.428  0.0604  0.0348  0.0830
  210BOLB   C1B 5025  25.257  10.715  15.114 -0.1900  0.2255 -0.0385
  210BOLB   C2B 5026  25.458  11.013  14.911 -0.2527 -0.0412  0.3047
  210BOLB   C3B 5027  25.805  11.315  15.021 -0.1350 -0.0931  0.0039
  210BOLB   C4B 5028  26.209  11.450  14.979  0.1277  0.0306 -0.0898
  210BOLB   NC2 5029  28.523   8.969  13.601  0.1790  0.0124  0.0177
  210BOLB   PO2 5030  28.117   9.072  13.568 -0.1181  0.2045  0.2602
  210BOLB   GL3 5031  27.701   9.013  13.734  0.2373  0.3273  0.0881
  210BOLB   GL4 5032  27.653   8.677  13.652 -0.2241 -0.0382  0.0645
  210BOLB   C1C 5033  27.418   9.005  14.100 -0.1078  0.0704 -0.2594
  210BOLB   C2C 5034  27.253   9.020  14.559  0.0457  0.2348 -0.1978
  210BOLB   C3C 5035  26.774   9.018  14.800 -0.2416  0.3699 -0.0508
  210BOLB   C4C 5036  26.393   9.086  15.118 -0.0606 -0.3353  0.3253
  210BOLB   C1D 5037  27.238   8.636  13.761 -0.2087 -0.1507  0.2784
  210BOLB   C2D 5038  26.910   8.725  13.850 -0.2605  0.0931 -0.0651
  210BOLB   C3D 5039  26.518   8.839  13.744  0.1980  0.1958  0.2139
  210BOLB   C4D 5040  26.199   8.904  13.502  0.2104 -0.0954  0.1751
  211BOLB   NC1 5041  24.153  12.271  16.967  0.1707  0.0160  0.2274
  211BOLB   PO1 5042  24.066  12.563  17.238 -0.1335 -0.0564  0.2287
  211BOLB   GL1 5043  24.408  12.450  17.594  0.1038  0.1458 -0.1439
  211BOLB   GL2 5044  24.568  12.643  17.334 -0.0754  0.0631  0.1129
  211BOLB   C1A 5045  24.757  12.281  17.630  0.0068 -0.0378  0.1411
  211BOLB   C2A 5046  25.194  12.388  17.743 -0.1428 -0.2045 -0.0110
  211BOLB   C3A 5047  25.589  12.418  17.511 -0.0368 -0.1743  0.0285
  211BOLB   C4A 5048  25.773  12.604  17.133  0.0142 -0.1487 -0.2126
  211BOLB   C1B 5049  24.921  12.801  17.646  0.1255  0.2781 -0.2518
  211BOLB   C2B 5050  25.364  12.908  17.927  0.0943 -0.0731 -0.0393
  211BOLB   C3B 5051  25.651  12.592  18.023  0.0966 -0.2200  0.0100
  211BOLB   C4B 5052  26.036  12.581  18.092 -0.1155 -0.0309 -0.1326
  211BOLB   NC2 5053  28.184  12.528  17.453 -0.0949  0.0588 -0.0289
  211BOLB   PO2 5054  28.315  13.044  17.625  0.2777 -0.4476  0.1598
  211BOLB   GL3 5055  27.871  13.012  17.563 -0.0490  0.2459  0.0888
  211BOLB   GL4 5056  27.756  12.670  17.592 -0.2479 -0.4186 -0.1352
  211BOLB   C1C 5057  27.571  12.982  17.259 -0.1310 -0.2020  0.1162
  211BOLB   C2C 5058  27.090  13.039  17.263  0.0276  0.2225  0.2793
  211BOLB   C3C 5059  26.651  12.886  17.243 -0.0662 -0.0414  0.1398
  211BOLB   C4C 5060  26.185  12.878  16.995  0.0885 -0.0072  0.2497
  211BOLB   C1D 5061  27.294  12.848  17.666  0.3315  0.0151  0.0244
  211BOLB   C2D 5062  26.955  12.821  17.808 -0.0204  0.3032 -0.1154
  211BOLB   C3D 5063  26.542  12.666  17.634  0.1477  0.2633  0.0414
  211BOLB   C4D 5064  26.089  12.658  17.597  0.2796 -0.0668  0.3041
  212BOLB   NC1 5065  19.756   3.961  11.385 -0.0385 -0.0844 -0.1909
  212BOLB   PO1 5066  19.548   3.734  11.103  0.0315 -0.0178 -0.5048
  212BOLB   GL1 5067  19.734   3.332  10.883  0.1189 -0.1762  0.2840
  212BOLB   GL2 5068  20.065   3.439  10.816  0.1188 -0.0030 -0.1981
  212BOLB   C1A 5069  19.775   3.055  10.475  0.1219 -0.0156 -0.1584
  212BOLB   C2A 5070  19.823   2.621  10.499  0.1628 -0.3186 -0.2700
  212BOLB   C3A 5071  19.737   2.206  10.379 -0.0107  0.0327 -0.0925
  212BOLB   C4A 5072  19.822   1.760  10.336  0.2971  0.2718 -0.1184
  212BOLB   C1B 5073  20.354   3.161  10.439 -0.0145  0.3328  0.1903
  212BOLB   C2B 5074  20.657   2.855  10.426 -0.0967  0.1421  0.2545
  212BOLB   C3B 5075  20.932   2.460  10.345  0.1432  0.1299 -0.0624
  212BOLB   C4B 5076  20.693   2.219  10.135  0.0239  0.0278 -0.1911
  212BOLB   NC2 5077  20.721  -0.850   9.422 -0.0406 -0.1039  0.0880
  212BOLB   PO2 5078  20.527  -0.430   9.324 -0.1878 -0.0776  0.2212
  212BOLB   GL3 5079  20.287  -0.070   9.374  0.0186  0.0655  0.2894
  212BOLB   GL4 5080  20.091  -0.175   9.162  0.5377 -0.3118  0.1406
  212BOLB   C1C 5081  20.195   0.399   9.532 -0.1224 -0.1831 -0.0367
  212BOLB   C2C 5082  19.978   0.668   9.800  0.0684 -0.0184  0.2577
  212BOLB   C3C 5083  19.781   0.938  10.037 -0.0706  0.1386  0.0078
  212BOLB   C4C 5084  19.766   1.345  10.288  0.1614  0.1660 -0.0071
  212BOLB   C1D 5085  19.716  -0.024   9.428 -0.0335  0.0131  0.2128
  212BOLB   C2D 5086  19.376  -0.154   9.659  0.3608 -0.3152 -0.0903
  212BOLB   C3D 5087  19.190  -0.614   9.586  0.0328  0.0974  0.3341
  212BOLB   C4D 5088  18.749  -0.638   9.642  0.0111 -0.3532 -0.1947
  213BOLB   NC1 5089  11.120  14.383  21.107 -0.1254 -0.4202  0.0762
  213BOLB   PO1 5090  11.437  14.016  21.234 -0.2799 -0.2961 -0.0447
  213BOLB   GL1 5091  11.037  14.106  21.516  0.0942 -0.0293  0.0716
  213BOLB   GL2 5092  10.954  13.934  21.795  0.1553  0.0329  0.2333
  213BOLB   C1A 5093  10.578  14.188  21.541 -0.0481  0.1087  0.0805
  213BOLB   C2A 5094  10.306  14.469  21.606  0.2880 -0.1466 -0.1840
  213BOLB   C3A 5095   9.909  14.517  21.702  0.0504  0.1175 -0.0324
  213BOLB   C4A 5096   9.500  14.505  21.849 -0.2793 -0.0424  0.1196
  213BOLB   C1B 5097  10.462  13.940  21.969  0.0398  0.1171 -0.0378
  213BOLB   C2B 5098  10.143  13.756  22.148 -0.1392 -0.1035  0.0059
  213BOLB   C3B 5099   9.734  13.651  22.281 -0.0831  0.1307 -0.0427
  213BOLB   C4B 5100   9.332  13.418  22.325  0.0246  0.0275  0.2215
  213BOLB   NC2 5101   8.092  14.527  23.423  0.1473  0.4536 -0.1092
  213BOLB   PO2 5102   7.733  14.554  23.173 -0.0769 -0.0902 -0.2592
  213BOLB   GL3 5103   7.837  14.627  22.758  0.0408 -0.2007  0.2480
  213BOLB   GL4 5104   7.613  14.449  22.419  0.0361 -0.1812 -0.0904
  213BOLB   C1C 5105   8.091  14.628  22.506 -0.2700  0.1626  0.3781
  213BOLB   C2C 5106   8.371  14.684  22.165  0.0089 -0.1472 -0.0030
  213BOLB   C3C 5107   8.791  14.539  22.098  0.4617  0.0301  0.2664
  213BOLB   C4C 5108   9.028  14.640  21.903 -0.2201 -0.0284  0.0717
  213BOLB   C1D 5109   7.778  14.744  22.100 -0.1052 -0.0507 -0.0002
  213BOLB   C2D 5110   8.090  14.963  21.881 -0.2721 -0.1105 -0.1695
  213BOLB   C3D 5111   8.284  14.644  21.542  0.1736 -0.2470 -0.5227
  213BOLB   C4D 5112   8.306  14.700  21.157 -0.0756  0.1778 -0.1221
  214BOLB   NC1 5113  22.380  14.752  12.944  0.1232 -0.0756 -0.1157
  214BOLB   PO1 5114  22.626  14.759  13.352  0.2155  0.0136 -0.0803
  214BOLB   GL1 5115  22.807  14.876  12.953  0.0777  0.2036 -0.1739
  214BOLB   GL2 5116  23.118  14.801  12.886  0.1610  0.1089 -0.3479
  214BOLB   C1A 5117  22.961  15.160  12.604 -0.0148  0.1326  0.3633
  214BOLB   C2A 5118  23.233  15.485  12.495 -0.0593 -0.4298  0.0450
  214BOLB   C3A 5119  23.343  15.771  12.277 -0.1218  0.0667 -0.0904
  214BOLB   C4A 5120  23.363  16.076  11.885  0.1328  0.1154  0.2678
  214BOLB   C1B 5121  23.497  14.993  12.541 -0.1481  0.0800 -0.3641
  214BOLB   C2B 5122  23.280  15.092  12.153 -0.2656 -0.2191  0.1860
  214BOLB   C3B 5123  23.316  15.145  11.678  0.3309 -0.0447 -0.0642
  214BOLB   C4B 5124  23.367  15.062  11.268 -0.0859 -0.0377 -0.0375
  214BOLB   NC2 5125  24.720  17.792  11.359 -0.0299 -0.2206 -0.0961
  214BOLB   PO2 5126  25.075  17.759  11.695 -0.1015 -0.6080  0.1399
  214BOLB   GL3 5127  24.723  17.516  11.745 -0.0894 -0.2661  0.1206
  214BOLB   GL4 5128  24.769  17.276  12.039 -0.1291  0.0638 -0.0790
  214BOLB   C1C 5129  24.316  17.358  11.609 -0.4561 -0.1094  0.1835
  214BOLB   C2C 5130  23.947  16.967  11.501  0.2251  0.2001  0.2429
  214BOLB   C3C 5131  23.597  16.724  11.566 -0.2595  0.2585  0.1131
  214BOLB   C4C 5132  23.408  16.484  11.733 -0.1210  0.2797  0.1887
  214BOLB   C1D 5133  24.420  17.576  12.121 -0.0932  0.2231 -0.0552
  214BOLB   C2D 5134  24.113  17.914  12.255 -0.0874  0.0149 -0.0726
  214BOLB   C3D 5135  23.750  17.998  12.154  0.2064 -0.2581 -0.0580
  214BOLB   C4D 5136  23.344  17.932  12.009  0.2391 -0.4684  0.0603
  215BOLB   NC1 5137  10.512   4.915  17.074 -0.0017  0.4432 -0.0839
  215BOLB   PO1 5138  10.556   5.231  16.709  0.1950  0.3003  0.1643
  215BOLB   GL1 5139  10.099   5.078  16.851 -0.0911 -0.1940 -0.1139
  215BOLB   GL2 5140  10.047   4.725  16.943 -0.0437 -0.2165  0.1974
  215BOLB   C1A 5141   9.647   4.967  16.645 -0.2727 -0.1449 -0.0763
  215BOLB   C2A 5142   9.470   4.610  16.369 -0.0505  0.2703  0.3999
  215BOLB   C3A 5143   9.520   4.461  16.017  0.0947 -0.1414  0.0139
  215BOLB   C4A 5144   9.761   4.174  15.829  0.2056  0.0791 -0.2094
  215BOLB   C1B 5145  10.151   4.247  16.879  0.0605 -0.1929 -0.2545
  215BOLB   C2B 5146   9.991   3.870  17.139  0.1164  0.2483  0.0906
  215BOLB   C3B 5147   9.745   3.534  17.113  0.2926  0.0881 -0.0648
  215BOLB   C4B 5148   9.526   3.258  16.795  0.0714  0.2238  0.3680
  215BOLB   NC2 5149  11.790   4.823  16.032 -0.2530  0.2115  0.0571
  215BOLB   PO2 5150  11.793   4.905  15.609  0.0301  0.0829 -0.1046
  215BOLB   GL3 5151  11.463   4.713  15.183 -0.0662  0.0878 -0.1824
  215BOLB   GL4 5152  11.417   4.908  14.866 -0.3112 -0.0062 -0.0774
  215BOLB   C1C 5153  11.154   4.432  15.323 -0.2132  0.0533 -0.0695
  215BOLB   C2C 5154  10.801   4.367  15.502 -0.1227 -0.1840 -0.3254
  215BOLB   C3C 5155  10.588   3.984  15.621  0.3156  0.2209 -0.2207
  215BOLB   C4C 5156  10.172   4.146  15.742 -0.0078 -0.1620  0.0738
  215BOLB   C1D 5157  11.231   4.757  14.589  0.0446  0.1128 -0.0194
  215BOLB   C2D 5158  10.789   4.636  14.465 -0.0573  0.0101 -0.1484
  215BOLB   C3D 5159  10.359   4.499  14.254 -0.1493 -0.0446 -0.0569
  215BOLB   C4D 5160  10.244   4.242  14.024  0.2406 -0.1131  0.1434
  216BOLB   NC1 5161  22.699  15.380  18.498 -0.0096 -0.1646  0.1445
  216BOLB   PO1 5162  22.940  15.671  18.180 -0.1534  0.2740  0.0697
  216BOLB   GL1 5163  23.358  15.803  18.142 -0.0333 -0.0469 -0.0168
  216BOLB   GL2 5164  23.431  15.980  17.923  0.4742 -0.0589 -0.1556
  216BOLB   C1A 5165  23.682  15.935  18.396 -0.2521 -0.1017 -0.0866
  216BOLB   C2A 5166  24.055  16.110  18.410 -0.0411 -0.0479 -0.0927
  216BOLB   C3A 5167  24.183  16.259  18.804 -0.1838  0.1924 -0.0337
  216BOLB   C4A 5168  24.320  16.157  19.262 -0.0250  0.1276  0.0357
  216BOLB   C1B 5169  23.685  16.375  17.876 -0.0488 -0.1416 -0.4358
  216BOLB   C2B 5170  24.036  16.639  17.914 -0.2631  0.0007 -0.0317
  216BOLB   C3B 5171  24.273  16.964  17.911  0.2998  0.0434  0.1820
  216BOLB   C4B 5172  24.479  17.298  18.055  0.3875  0.0902 -0.1420
  216BOLB   NC2 5173  26.497  17.396  20.571 -0.0298  0.0568 -0.1479
  216BOLB   PO2 5174  26.233  17.050  20.562 -0.0756  0.0710 -0.1140
  216BOLB   GL3 5175  25.896  16.860  20.230  0.2416 -0.2709 -0.1344
  216BOLB   GL4 5176  25.686  17.164  20.053 -0.3193  0.0303 -0.1163
  216BOLB   C1C 5177  25.683  16.723  19.816  0.0330  0.1264  0.0931
  216BOLB   C2C 5178  25.374  16.518  19.644  0.2402 -0.1137 -0.2508
  216BOLB   C3C 5179  25.008  16.283  19.673  0.2066 -0.0294  0.0794
  216BOLB   C4C 5180  24.644  16.099  19.501  0.1678  0.0714 -0.3741
  216BOLB   C1D 5181  25.322  17.012  20.050 -0.0919  0.0441  0.2374
  216BOLB   C2D 5182  25.162  16.685  20.082  0.1492  0.2140 -0.0133
  216BOLB   C3D 5183  25.317  16.275  20.078 -0.1214 -0.0676  0.0762
  216BOLB   C4D 5184  25.787  16.402  20.150 -0.0934 -0.3758  0.1606
  217BOLB   NC1 5185  21.153   4.503  17.366 -0.0849 -0.2767 -0.2441
  217BOLB   PO1 5186  21.249   4.117  17.297 -0.2102  0.0062  0.2087
  217BOLB   GL1 5187  21.549   3.698  17.538  0.0957 -0.0831  0.1092
  217BOLB   GL2 5188  21.771   3.782  17.802 -0.1067  0.0059  0.1266
  217BOLB   C1A 5189  21.852   3.413  17.431 -0.4517 -0.2091  0.0675
  217BOLB   C2A 5190  22.144   3.101  17.570 -0.0193 -0.1727  0.0664
  217BOLB   C3A 5191  22.470   2.933  17.842 -0.4033 -0.2799  0.1468
  217BOLB   C4A 5192  22.837   2.699  17.857 -0.1110 -0.0466  0.1630
  217BOLB   C1B 5193  22.109   3.466  17.964 -0.0738 -0.0299 -0.2281
  217BOLB   C2B 5194  22.269   3.085  18.252  0.0353 -0.1156  0.2007
  217BOLB   C3B 5195  22.640   2.787  18.348  0.2662  0.0533 -0.1270
  217BOLB   C4B 5196  22.726   2.350  18.420 -0.0271 -0.1271  0.0655
  217BOLB   NC2 5197  24.949   1.756  17.664 -0.1775 -0.0175  0.0701
  217BOLB   PO2 5198  24.671   1.700  18.015 -0.0718 -0.1219 -0.3079
  217BOLB   GL3 5199  24.399   2.062  18.125  0.0467  0.0725  0.0065
  217BOLB   GL4 5200  24.190   1.901  18.398  0.1128 -0.1862 -0.0875
  217BOLB   C1C 5201  24.261   2.320  17.852  0.2105 -0.1323  0.0342
  217BOLB   C2C 5202  23.848   2.462  17.969 -0.1057  0.2957 -0.1228
  217BOLB   C3C 5203  23.501   2.695  18.066  0.0750  0.0749  0.2927
  217BOLB   C4C 5204  23.138   2.719  17.982 -0.1500 -0.4064 -0.0291
  217BOLB   C1D 5205  23.966   2.246  18.376  0.0021 -0.0996 -0.0164
  217BOLB   C2D 5206  23.754   2.601  18.599  0.0354  0.1658 -0.0340
  217BOLB   C3D 5207  23.451   2.934  18.781 -0.1668 -0.1262 -0.4253
  217BOLB   C4D 5208  23.425   3.266  19.087  0.0038 -0.2818 -0.0888
  218BOLB   NC1 5209  12.331  13.112  26.711  0.0876  0.1388  0.1445
  218BOLB   PO1 5210  11.993  12.824  26.496  0.2775 -0.1689  0.2010
  218BOLB   GL1 5211  12.145  12.710  26.173 -0.0921 -0.6580  0.4383
  218BOLB   GL2 5212  12.120  12.541  25.969 -0.0850  0.0209  0.0114
  218BOLB   C1A 5213  12.417  13.038  25.883  0.0430 -0.1263  0.2131
  218BOLB   C2A 5214  12.475  12.974  25.491  0.0147 -0.1487  0.0182
  218BOLB   C3A 5215  12.918  13.059  25.248 -0.2818  0.3736  0.1096
  218BOLB   C4A 5216  13.221  13.294  25.355  0.3465  0.0808 -0.0534
  218BOLB   C1B 5217  12.119  12.649  25.658  0.1065  0.1196 -0.0448
  218BOLB   C2B 5218  12.210  12.522  25.295  0.0931  0.1487 -0.0640
  218BOLB   C3B 5219  12.571  12.663  25.083  0.1866 -0.1383 -0.1370
  218BOLB   C4B 5220  12.726  12.831  24.682 -0.2611 -0.2786 -0.0358
  218BOLB   NC2 5221  13.981  13.742  26.900 -0.0933  0.1268 -0.0584
  218BOLB   PO2 5222  13.918  14.153  26.855 -0.1111  0.1235 -0.1037
  218BOLB   GL3 5223  14.030  14.056  26.479 -0.1406 -0.0667  0.0296
  218BOLB   GL4 5224  14.244  14.295  26.445  0.3205 -0.3533 -0.0039
  218BOLB   C1C 5225  14.075  13.699  26.262 -0.2363 -0.1922  0.1604
  218BOLB   C2C 5226  14.033  13.471  26.006  0.2384 -0.1768  0.1905
  218BOLB   C3C 5227  13.753  13.511  25.561  0.0467 -0.1541  0.0499
  218BOLB   C4C 5228  13.379  13.591  25.510 -0.2237 -0.1077  0.0405
  218BOLB   C1D 5229  14.301  14.132  25.968  0.2204 -0.2190  0.0813
  218BOLB   C2D 5230  14.218  13.788  25.705 -0.1214 -0.0320  0.0490
  218BOLB   C3D 5231  14.236  13.629  25.433  0.0229  0.1947  0.0004
  218BOLB   C4D 5232  14.340  13.261  25.170  0.0458 -0.1656  0.0020
  219BOLB   NC1 5233  15.032   1.723  14.770  0.0296  0.1449 -0.0017
  219BOLB   PO1 5234  15.419   1.515  14.794 -0.1073  0.2575  0.3711
  219BOLB   GL1 5235  15.157   1.228  14.983 -0.0787  0.1177  0.0203
  219BOLB   GL2 5236  14.837   1.197  14.938  0.1282  0.3091 -0.4327
  219BOLB   C1A 5237  15.126   0.816  15.117 -0.0185  0.1752  0.0345
  219BOLB   C2A 5238  15.355   0.487  15.407 -0.3712 -0.3013 -0.0487
  219BOLB   C3A 5239  15.371   0.051  15.676  0.2057 -0.0173  0.1467
  219BOLB   C4A 5240  15.167  -0.244  15.828  0.0370 -0.0263 -0.0884
  219BOLB   C1B 5241  14.551   0.757  15.032 -0.0896 -0.1049  0.0177
  219BOLB   C2B 5242  14.208   0.458  15.233  0.1330 -0.0279 -0.0155
  219BOLB   C3B 5243  13.943   0.382  15.579 -0.2493 -0.0771 -0.2269
  219BOLB   C4B 5244  13.569   0.555  15.778 -0.1090 -0.0527 -0.3375
  219BOLB   NC2 5245  15.308  -2.857  15.529 -0.1405  0.6684 -0.0569
  219BOLB   PO2 5246  15.644  -2.907  15.841 -0.3078 -0.1051  0.1091
  219BOLB   GL3 5247  15.522  -2.465  15.785 -0.0787  0.0879  0.2061
  219BOLB   GL4 5248  15.319  -2.355  15.499  0.2104 -0.1584 -0.1162
  219BOLB   C1C 5249  15.549  -1.929  15.691  0.0722 -0.1745  0.0061
  219BOLB   C2C 5250  15.353  -1.477  15.693  0.1474 -0.0805  0.0523
  219BOLB   C3C 5251  15.281  -1.014  15.594 -0.1126 -0.2040 -0.1784
  219BOLB   C4C 5252  15.129  -0.638  15.709  0.1461  0.1102  0.1208
  219BOLB   C1D 5253  15.451  -2.070  15.241  0.1765  0.1327  0.4391
  219BOLB   C2D 5254  15.478  -1.653  15.209  0.0134  0.0087  0.0320
  219BOLB   C3D 5255  15.315  -1.240  15.113 -0.2861 -0.2533 -0.1868
  219BOLB   C4D 5256  15.229  -0.748  15.058  0.0315 -0.2014 -0.0647
  220BOLB   NC1 5257  10.929   4.170  17.438  0.2901 -0.1073  0.0886
  220BOLB   PO1 5258  10.924   3.726  17.559  0.0983  0.2955  0.0102
  220BOLB   GL1 5259  10.560   3.393  17.604  0.0409  0.1231  0.2881
  220BOLB   GL2 5260  10.742   3.179  17.795 -0.0819 -0.1323 -0.0214
  220BOLB   C1A 5261  10.231   3.172  17.822 -0.3087  0.3536  0.2958
  220BOLB   C2A 5262  10.083   2.817  18.034 -0.1037  0.0410 -0.0345
  220BOLB   C3A 5263   9.861   2.671  18.343  0.0364  0.3836 -0.1224
  220BOLB   C4A 5264   9.601   2.372  18.470 -0.0720 -0.1278 -0.0679
  220BOLB   C1B 5265  10.606   2.889  18.003 -0.0186 -0.0290 -0.1945
  220BOLB   C2B 5266  10.472   2.814  18.474 -0.2711 -0.0572  0.1437
  220BOLB   C3B 5267  10.461   2.422  18.811  0.4007  0.0789  0.0769
  220BOLB   C4B 5268  10.176   2.235  19.178 -0.1930 -0.0813 -0.0772
  220BOLB   NC2 5269   8.435   1.174  20.181 -0.4038  0.0107 -0.2773
  220BOLB   PO2 5270   8.758   0.895  20.195  0.0025 -0.1680 -0.0541
  220BOLB   GL3 5271   8.873   1.243  19.887  0.1269 -0.0296 -0.1047
  220BOLB   GL4 5272   8.619   1.488  19.746  0.0606 -0.0197  0.3251
  220BOLB   C1C 5273   9.095   1.321  19.517  0.1524 -0.2841 -0.1146
  220BOLB   C2C 5274   9.325   1.461  19.093 -0.0744  0.2917 -0.1689
  220BOLB   C3C 5275   9.278   1.870  18.896  0.2595  0.1740  0.3388
  220BOLB   C4C 5276   9.247   2.292  18.614  0.0987  0.1857  0.0974
  220BOLB   C1D 5277   8.493   1.812  19.521 -0.2408 -0.0492  0.2222
  220BOLB   C2D 5278   8.363   2.142  19.351  0.1574  0.2190  0.1398
  220BOLB   C3D 5279   8.440   2.381  18.915 -0.0364  0.3302  0.0349
  220BOLB   C4D 5280   8.701   2.605  18.677  0.0136  0.2278  0.0342
  221BOLB   NC1 5281  12.110  13.168  10.271 -0.3477 -0.1995  0.0087
  221BOLB   PO1 5282  11.637  13.393  10.172  0.2450 -0.2310  0.0979
  221BOLB   GL1 5283  11.371  13.394   9.758  0.2103 -0.1288  0.1550
  221BOLB   GL2 5284  11.154  13.094   9.717 -0.0744  0.0509  0.1481
  221BOLB   C1A 5285  11.215  13.478   9.314  0.0244  0.2348  0.1533
  221BOLB   C2A 5286  11.032  13.305   8.923  0.3844 -0.1520 -0.1174
  221BOLB   C3A 5287  10.816  13.381   8.506 -0.0118 -0.0815  0.1175
  221BOLB   C4A 5288  10.503  13.596   8.284 -0.0820 -0.1659  0.1572
  221BOLB   C1B 5289  10.841  12.940   9.360 -0.0244 -0.1966 -0.1317
  221BOLB   C2B 5290  10.520  13.098   9.140  0.2591 -0.0719  0.0944
  221BOLB   C3B 5291  10.233  13.209   8.818 -0.0903 -0.1469  0.1651
  221BOLB   C4B 5292   9.983  13.137   8.585 -0.1793 -0.2565 -0.1403
  221BOLB   NC2 5293   9.390  15.334   7.014  0.1555  0.1236 -0.0833
  221BOLB   PO2 5294   9.849  15.461   6.771 -0.2632  0.0315 -0.1545
  221BOLB   GL3 5295   9.766  14.987   6.820 -0.1102  0.0608  0.0751
  221BOLB   GL4 5296   9.730  14.939   7.119  0.1093  0.1717  0.1779
  221BOLB   C1C 5297   9.943  14.481   6.857  0.1834  0.0162 -0.4361
  221BOLB   C2C 5298   9.996  14.128   7.178 -0.1198  0.0802  0.1326
  221BOLB   C3C 5299  10.107  13.953   7.650 -0.2394  0.2477 -0.0187
  221BOLB   C4C 5300  10.462  13.837   7.962  0.0149 -0.0026  0.0862
  221BOLB   C1D 5301   9.876  14.618   7.355  0.0519 -0.1541 -0.4293
  221BOLB   C2D 5302  10.098  14.487   7.578  0.2773  0.2598  0.0003
  221BOLB   C3D 5303  10.371  14.365   7.941  0.1255 -0.1219 -0.1647
  221BOLB   C4D 5304  10.532  14.495   8.236  0.2078 -0.0302  0.1081
  222BOLB   NC1 5305  20.829  12.519  22.588 -0.1263  0.2019 -0.0218
  222BOLB   PO1 5306  20.458  12.847  22.685 -0.0303  0.0097 -0.1719
  222BOLB   GL1 5307  20.999  13.014  22.652 -0.1734 -0.0556  0.0007
  222BOLB   GL2 5308  21.229  13.232  22.489 -0.0354 -0.1354 -0.0092
  222BOLB   C1A 5309  21.305  12.746  22.921 -0.1368 -0.1622 -0.3059
  222BOLB   C2A 5310  21.296  12.909  23.409  0.2062 -0.0920  0.1763
  222BOLB   C3A 5311  21.408  12.899  23.854 -0.1732 -0.2701  0.2186
  222BOLB   C4A 5312  21.641  13.060  24.082  0.0705 -0.2321  0.0269
  222BOLB   C1B 5313  21.581  13.142  22.735 -0.1003 -0.1954 -0.1660
  222BOLB   C2B 5314  21.846  13.362  22.944  0.2073  0.1122 -0.1230
  222BOLB   C3B 5315  22.056  13.256  23.297 -0.1706 -0.0735  0.1957
  222BOLB   C4B 5316  22.063  13.570  23.585 -0.2313  0.1986 -0.3136
  222BOLB   NC2 5317  23.428  14.001  25.492 -0.1733 -0.3651  0.0144
  222BOLB   PO2 5318  23.161  13.650  25.560  0.0003  0.1743  0.3211
  222BOLB   GL3 5319  23.228  13.547  25.084  0.1373  0.1755  0.0649
  222BOLB   GL4 5320  23.237  13.671  24.872 -0.1443 -0.2410  0.3066
  222BOLB   C1C 5321  22.747  13.532  24.965 -0.0417  0.2755  0.0348
  222BOLB   C2C 5322  22.482  13.287  24.715 -0.0479 -0.1179 -0.0861
  222BOLB   C3C 5323  22.281  13.119  24.427 -0.0631  0.0867  0.2634
  222BOLB   C4C 5324  21.883  13.030  24.347 -0.1130  0.2026  0.2023
  222BOLB   C1D 5325  22.974  13.599  24.492 -0.1098  0.3102  0.0974
  222BOLB   C2D 5326  22.755  13.356  24.290  0.2625  0.0825  0.1637
  222BOLB   C3D 5327  22.680  12.986  24.105 -0.1994  0.0881 -0.0290
  222BOLB   C4D 5328  22.449  12.641  23.984 -0.2612 -0.4648 -0.2161
  223BOLB   NC1 5329  12.690  16.417  12.258  0.0227 -0.0336  0.4142
  223BOLB   PO1 5330  12.420  16.153  12.065 -0.0044  0.0235  0.0348
  223BOLB   GL1 5331  12.061  16.394  11.885 -0.0016 -0.2109 -0.0540
  223BOLB   GL2 5332  11.854  16.034  11.799  0.4999 -0.0522 -0.0396
  223BOLB   C1A 5333  11.906  16.824  11.926  0.0395  0.2025  0.1462
  223BOLB   C2A 5334  11.603  17.079  11.767  0.0868 -0.1402 -0.2332
  223BOLB   C3A 5335  11.249  17.165  11.575 -0.1893 -0.1026  0.0608
  223BOLB   C4A 5336  10.949  17.420  11.369  0.1692 -0.1366 -0.0477
  223BOLB   C1B 5337  11.588  16.449  11.690  0.2745  0.3422  0.1850
  223BOLB   C2B 5338  11.280  16.692  11.694 -0.2795  0.0312 -0.0476
  223BOLB   C3B 5339  10.892  16.873  11.584 -0.0655 -0.0639 -0.0304
  223BOLB   C4B 5340  10.673  16.694  11.260 -0.2848 -0.0943  0.1924
  223BOLB   NC2 5341   9.088  18.871   9.988 -0.0766  0.1372 -0.0526
  223BOLB   PO2 5342   9.460  18.875  10.310 -0.0161  0.0672 -0.1531
  223BOLB   GL3 5343   9.718  18.574  10.591  0.1818 -0.0816 -0.4173
  223BOLB   GL4 5344  10.115  18.563  10.672 -0.0936  0.0900 -0.2081
  223BOLB   C1C 5345   9.828  18.166  10.544 -0.1547  0.3887 -0.1351
  223BOLB   C2C 5346  10.159  17.909  10.498 -0.2796 -0.0396  0.1526
  223BOLB   C3C 5347  10.609  17.763  10.727  0.2039  0.1240  0.0588
  223BOLB   C4C 5348  10.751  17.686  11.100 -0.0840  0.2965 -0.1120
  223BOLB   C1D 5349  10.392  18.264  10.735 -0.0378 -0.0799 -0.1239
  223BOLB   C2D 5350  10.215  17.950  10.984  0.0303 -0.0630  0.0891
  223BOLB   C3D 5351   9.934  17.743  11.255 -0.0440  0.2069  0.0205
  223BOLB   C4D 5352   9.664  17.584  11.447 -0.1346 -0.4398 -0.1083
  224BOLB   NC1 5353  14.293   2.788  19.237  0.1564 -0.1027 -0.0178
  224BOLB   PO1 5354  14.046   2.497  19.080 -0.1980  0.0588  0.1434
  224BOLB   GL1 5355  14.205   2.417  19.552 -0.0701  0.0620 -0.3309
  224BOLB   GL2 5356  13.930   2.435  19.764  0.0573 -0.1520  0.1773
  224BOLB   C1A 5357  14.279   2.073  19.752  0.1543 -0.0817  0.1700
  224BOLB   C2A 5358  14.131   1.606  19.896  0.1404  0.0214 -0.0746
  224BOLB   C3A 5359  14.188   1.151  19.979  0.2576 -0.0631  0.3328
  224BOLB   C4A 5360  14.556   0.841  20.101 -0.2297  0.1716  0.0554
  224BOLB   C1B 5361  13.780   2.017  19.895  0.0765  0.0977 -0.0117
  224BOLB   C2B 5362  13.622   1.775  19.971  0.1970  0.0963 -0.4733
  224BOLB   C3B 5363  13.396   1.422  20.171 -0.1772  0.0098  0.0834
  224BOLB   C4B 5364  13.170   1.249  20.558  0.0762 -0.4955  0.0173
  224BOLB   NC2 5365  14.855  -1.038  22.040 -0.0379  0.0704 -0.1175
  224BOLB   PO2 5366  14.646  -0.677  21.946  0.0071 -0.0472  0.0746
  224BOLB   GL3 5367  14.888  -0.341  21.626 -0.1372  0.3181  0.1231
  224BOLB   GL4 5368  15.190  -0.465  21.470  0.0075  0.0257 -0.1469
  224BOLB   C1C 5369  14.871  -0.081  21.338 -0.1859 -0.0305 -0.0467
  224BOLB   C2C 5370  14.886   0.277  21.052 -0.0950  0.0179  0.1701
  224BOLB   C3C 5371  15.038   0.414  20.694  0.0552 -0.0076 -0.1685
  224BOLB   C4C 5372  14.717   0.655  20.386 -0.1882 -0.0861 -0.0044
  224BOLB   C1D 5373  15.371  -0.028  21.335 -0.3105 -0.2534  0.0740
  224BOLB   C2D 5374  15.359   0.352  21.209 -0.3446 -0.5468  0.0650
  224BOLB   C3D 5375  15.333   0.698  21.012 -0.2508 -0.2290 -0.0468
  224BOLB   C4D 5376  15.010   0.919  20.788  0.1009 -0.3558 -0.0120
  225BOLB   NC1 5377   4.561   2.064   8.901 -0.1427 -0.3859  0.1009
  225BOLB   PO1 5378   4.252   1.908   9.000 -0.0392  0.0393 -0.1064
  225BOLB   GL1 5379   4.539   2.194   9.370  0.3715  0.3621  0.2602
  225BOLB   GL2 5380   4.830   2.154   9.371 -0.0864 -0.0100 -0.2735
  225BOLB   C1A 5381   4.707   2.042   9.800 -0.0688 -0.0264 -0.0508
  225BOLB   C2A 5382   5.127   1.890  10.013 -0.2739  0.3535 -0.1546
  225BOLB   C3A 5383   5.504   1.768  10.235 -0.0520 -0.0172 -0.0076
  225BOLB   C4A 5384   5.599   1.826  10.694 -0.1652  0.2571  0.0197
  225BOLB   C1B 5385   5.127   2.291   9.696  0.0934  0.0873  0.0548
  225BOLB   C2B 5386   5.423   2.297   9.944 -0.2823 -0.0600 -0.1405
  225BOLB   C3B 5387   5.869   2.487   9.910  0.2639  0.0690 -0.1946
  225BOLB   C4B 5388   6.034   3.051   9.893  0.3287 -0.0399  0.0766
  225BOLB   NC2 5389   3.503   2.554   9.401  0.3841  0.1400  0.0071
  225BOLB   PO2 5390   3.877   2.411   9.672  0.0207 -0.0269 -0.2270
  225BOLB   GL3 5391   4.276   2.256   9.873  0.0720  0.2765 -0.0061
  225BOLB   GL4 5392   4.274   1.977  10.005  0.1298  0.1867  0.2988
  225BOLB   C1C 5393   4.599   2.468  10.207 -0.0694 -0.0690  0.1360
  225BOLB   C2C 5394   4.829   2.411  10.566 -0.0335  0.0349  0.0318
  225BOLB   C3C 5395   5.150   2.239  10.919 -0.2078 -0.0125  0.1566
  225BOLB   C4C 5396   5.558   2.032  10.985  0.3141  0.3728  0.1517
  225BOLB   C1D 5397   4.654   1.858  10.289 -0.2260 -0.0531  0.2313
  225BOLB   C2D 5398   5.069   1.931  10.540 -0.1222  0.3801 -0.1712
  225BOLB   C3D 5399   5.331   2.188  10.431  0.0464  0.1966  0.2624
  225BOLB   C4D 5400   5.500   2.573  10.393 -0.2269 -0.3696  0.1420
  226BOLB   NC1 5401  16.507  22.471  18.275  0.0978 -0.1382 -0.1745
  226BOLB   PO1 5402  16.820  22.622  18.014  0.1751  0.4066  0.3883
  226BOLB   GL1 5403  16.619  22.326  17.717  0.0579 -0.1126 -0.0534
  226BOLB   GL2 5404  16.308  22.334  17.765 -0.0105  0.0171 -0.0161
  226BOLB   C1A 5405  16.665  21.883  17.589 -0.1913 -0.0431 -0.0144
  226BOLB   C2A 5406  16.483  21.508  17.648  0.3506  0.2982  0.0030
  226BOLB   C3A 5407  16.245  21.304  17.927 -0.0071 -0.1552 -0.1119
  226BOLB   C4A 5408  15.925  21.104  18.208  0.0657  0.2332  0.1764
  226BOLB   C1B 5409  16.278  21.903  17.953 -0.3395  0.1799 -0.0240
  226BOLB   C2B 5410  15.935  21.640  18.161  0.0712  0.0447 -0.0336
  226BOLB   C3B 5411  15.670  21.675  18.384 -0.0655 -0.1757 -0.0630
  226BOLB   C4B 5412  15.292  21.493  18.274 -0.1952 -0.0673  0.0548
  226BOLB   NC2 5413  14.942  22.138  20.090  0.0893 -0.0707 -0.1419
  226BOLB   PO2 5414  15.345  22.345  20.274 -0.4344  0.1171  0.3355
  226BOLB   GL3 5415  15.415  22.069  20.006 -0.0950 -0.3822  0.2502
  226BOLB   GL4 5416  15.503  21.766  20.015  0.2359  0.2249  0.3304
  226BOLB   C1C 5417  15.464  21.865  19.556  0.0144 -0.3509  0.1342
  226BOLB   C2C 5418  15.671  21.787  19.295  0.0367 -0.1091  0.0591
  226BOLB   C3C 5419  15.629  21.529  18.950 -0.1023 -0.0156  0.3133
  226BOLB   C4C 5420  15.667  21.235  18.542  0.2053  0.1856 -0.1396
  226BOLB   C1D 5421  15.644  21.426  19.738 -0.2137  0.4308  0.1669
  226BOLB   C2D 5422  15.544  21.297  19.384  0.1570 -0.2558 -0.1895
  226BOLB   C3D 5423  15.588  21.010  19.011 -0.1688 -0.0999  0.1493
  226BOLB   C4D 5424  15.805  20.731  18.790  0.0122  0.0238  0.0208
  227BOLB   NC1 5425   9.413  14.125  15.790  0.3216 -0.2683  0.1240
  227BOLB   PO1 5426   9.064  14.290  15.742  0.0580  0.2235 -0.2206
  227BOLB   GL1 5427   8.722  14.291  15.618  0.1057 -0.2626 -0.1442
  227BOLB   GL2 5428   8.704  14.147  15.275 -0.2291 -0.3008  0.0421
  227BOLB   C1A 5429   8.289  14.255  15.541  0.0330  0.2353 -0.2477
  227BOLB   C2A 5430   7.917  14.057  15.488  0.2393 -0.1511  0.4252
  227BOLB   C3A 5431   7.447  13.997  15.414 -0.2115  0.0112  0.0007
  227BOLB   C4A 5432   7.051  13.773  15.551 -0.0075 -0.0442  0.1110
  227BOLB   C1B 5433   8.449  14.442  15.114 -0.2771  0.0124 -0.1485
  227BOLB   C2B 5434   8.041  14.536  15.268 -0.0989  0.0864  0.1188
  227BOLB   C3B 5435   7.602  14.645  15.221 -0.2139  0.2635 -0.3108
  227BOLB   C4B 5436   7.511  15.013  15.013 -0.0331  0.1333 -0.1885
  227BOLB   NC2 5437   4.371  14.539  15.005 -0.1295  0.0459  0.0187
  227BOLB   PO2 5438   4.636  14.635  15.348  0.1052 -0.1179 -0.1107
  227BOLB   GL3 5439   5.052  14.569  15.338 -0.1135  0.1338  0.1541
  227BOLB   GL4 5440   5.235  14.607  15.654 -0.0862  0.0986 -0.2748
  227BOLB   C1C 5441   5.453  14.324  15.203 -0.0717  0.1828  0.3309
  227BOLB   C2C 5442   5.971  14.394  15.307  0.4274  0.5421  0.0657
  227BOLB   C3C 5443   6.272  14.143  15.446  0.0154  0.0602  0.1894
  227BOLB   C4C 5444   6.633  13.789  15.448 -0.0235  0.3041 -0.0837
  227BOLB   C1D 5445   5.570  14.519  15.624 -0.0605  0.0159 -0.1209
  227BOLB   C2D 5446   5.894  14.322  15.911  0.2971 -0.0850  0.0476
  227BOLB   C3D 5447   6.140  14.062  15.970  0.1403 -0.2776 -0.0457
  227BOLB   C4D 5448   6.171  13.626  15.724  0.1467  0.0240  0.1386
  228BOLB   NC1 5449  10.175   2.410  23.383 -0.1004  0.1548 -0.0785
  228BOLB   PO1 5450   9.891   2.746  23.669  0.0123  0.0726  0.0151
  228BOLB   GL1 5451  10.227   3.023  23.456  0.1935 -0.2050 -0.1326
  228BOLB   GL2 5452  10.437   3.119  23.737 -0.3936 -0.1544  0.0566
  228BOLB   C1A 5453  10.622   2.998  23.288 -0.0710 -0.2641  0.0540
  228BOLB   C2A 5454  10.818   3.394  23.097  0.2093 -0.3101  0.1588
  228BOLB   C3A 5455  11.187   3.610  23.023  0.2143  0.1431  0.0414
  228BOLB   C4A 5456  11.460   3.517  22.725 -0.1074 -0.0464 -0.1900
  228BOLB   C1B 5457  10.571   3.494  23.510 -0.1670 -0.2644 -0.0203
  228BOLB   C2B 5458  10.952   3.746  23.460 -0.1972 -0.0005 -0.2295
  228BOLB   C3B 5459  11.330   4.033  23.269 -0.0457  0.0466  0.1169
  228BOLB   C4B 5460  11.574   3.936  22.899 -0.2118  0.5955 -0.0250
  228BOLB   NC2 5461  11.566   2.767  24.723 -0.3187 -0.0094  0.3554
  228BOLB   PO2 5462  11.881   2.609  24.764 -0.1410 -0.2659 -0.0620
  228BOLB   GL3 5463  11.928   3.040  24.487  0.1414  0.3117 -0.2314
  228BOLB   GL4 5464  11.875   3.339  24.607 -0.0935 -0.2967 -0.1956
  228BOLB   C1C 5465  11.967   3.259  24.057  0.1799 -0.1647  0.0832
  228BOLB   C2C 5466  12.023   3.488  23.647 -0.0589 -0.1577 -0.2720
  228BOLB   C3C 5467  12.107   3.255  23.208  0.0789  0.0971 -0.3021
  228BOLB   C4C 5468  11.906   3.434  22.887 -0.1973  0.0020 -0.0411
  228BOLB   C1D 5469  11.872   3.661  24.301  0.3473  0.2894  0.0570
  228BOLB   C2D 5470  11.692   3.832  23.968 -0.1938 -0.1558  0.4008
  228BOLB   C3D 5471  11.426   3.638  23.603  0.0890 -0.3683  0.2198
  228BOLB   C4D 5472  11.605   3.523  23.226 -0.2256 -0.1450  0.2011
  229BOLB   NC1 5473   5.198  13.459   6.255 -0.1328 -0.3100 -0.2328
  229BOLB   PO1 5474   5.021  13.228   6.586 -0.1649  0.3351  0.2048
  229BOLB   GL1 5475   5.020  12.809   6.827 -0.0908 -0.0159  0.0041
  229BOLB   GL2 5476   4.980  12.520   6.899  0.0474  0.2945 -0.1120
  229BOLB   C1A 5477   5.056  12.860   7.290  0.0533  0.0142 -0.0120
  229BOLB   C2A 5478   5.346  12.623   7.523  0.1915 -0.2025  0.1038
  229BOLB   C3A 5479   5.324  12.244   7.873 -0.0904 -0.0805  0.0085
  229BOLB   C4A 5480   5.001  12.065   7.969 -0.2697  0.2826 -0.1434
  229BOLB   C1B 5481   5.316  12.245   7.064  0.0914 -0.1974  0.2741
  229BOLB   C2B 5482   5.350  11.925   7.474  0.1834 -0.1903  0.0023
  229BOLB   C3B 5483   5.207  11.514   7.629 -0.1154  0.0133 -0.0373
  229BOLB   C4B 5484   4.875  11.162   7.750 -0.5558  0.1125  0.2645
  229BOLB   NC2 5485   2.368  12.346   8.430  0.3599  0.2662 -0.5046
  229BOLB   PO2 5486   2.733  12.168   8.040 -0.1923  0.1391 -0.0718
  229BOLB   GL3 5487   2.944  12.389   8.273 -0.0989  0.0042 -0.2972
  229BOLB   GL4 5488   2.934  12.310   8.648 -0.0792 -0.4488  0.0125
  229BOLB   C1C 5489   3.437  12.435   8.424  0.2874  0.2886 -0.0979
  229BOLB   C2C 5490   3.819  12.514   8.325  0.3683 -0.1498 -0.2533
  229BOLB   C3C 5491   4.132  12.249   8.097  0.1214  0.0078 -0.0159
  229BOLB   C4C 5492   4.513  12.130   8.163 -0.0538  0.0132 -0.0387
  229BOLB   C1D 5493   3.245  12.126   8.853  0.2982  0.0561  0.1573
  229BOLB   C2D 5494   3.641  12.079   9.018  0.2286 -0.1686  0.0710
  229BOLB   C3D 5495   3.847  11.925   9.279  0.0256  0.3601  0.0157
  229BOLB   C4D 5496   4.193  11.978   9.534 -0.1833  0.0606  0.0341
  230BOLB   NC1 5497   1.291   9.552  11.045 -0.0930  0.0169 -0.3185
  230BOLB   PO1 5498   1.670   9.719  10.813 -0.0331 -0.1983  0.2030
  230BOLB   GL1 5499   2.075   9.725  11.029 -0.0730 -0.2868 -0.3097
  230BOLB   GL2 5500   2.029   9.580  11.396  0.4526  0.2153  0.0305
  230BOLB   C1A 5501   2.424   9.734  11.034  0.0053  0.0068 -0.2286
  230BOLB   C2A 5502   2.820   9.801  11.100 -0.1789  0.1363 -0.0350
  230BOLB   C3A 5503   3.126   9.450  11.105  0.1437 -0.3919 -0.3307
  230BOLB   C4A 5504   3.257   9.169  11.410  0.0503  0.1769  0.1355
  230BOLB   C1B 5505   2.505   9.656  11.489 -0.3514  0.2476  0.0115
  230BOLB   C2B 5506   2.974   9.660  11.585 -0.3611 -0.4468 -0.0474
  230BOLB   C3B 5507   3.448   9.620  11.518  0.0371 -0.4127 -0.0246
  230BOLB   C4B 5508   3.806   9.276  11.487  0.0952  0.0193  0.1564
  230BOLB   NC2 5509   1.155   7.955  11.012 -0.0023 -0.1933  0.0435
  230BOLB   PO2 5510   1.433   8.185  10.766  0.2046  0.0447 -0.3465
  230BOLB   GL3 5511   1.698   8.038  10.997  0.1955  0.1493 -0.2944
  230BOLB   GL4 5512   1.716   8.205  11.224  0.1542  0.0493 -0.1860
  230BOLB   C1C 5513   2.269   8.197  11.017  0.1166 -0.0614 -0.1971
  230BOLB   C2C 5514   2.610   8.250  11.176  0.3052 -0.0962 -0.1842
  230BOLB   C3C 5515   3.057   8.344  11.140  0.1535  0.1928  0.0536
  230BOLB   C4C 5516   3.267   8.675  11.367 -0.2106 -0.0367 -0.2851
  230BOLB   C1D 5517   1.887   8.526  11.113 -0.4498 -0.0433 -0.1623
  230BOLB   C2D 5518   2.189   8.781  11.311 -0.1163 -0.3200  0.2511
  230BOLB   C3D 5519   2.366   8.848  11.691  0.0958  0.0090  0.1583
  230BOLB   C4D 5520   2.505   8.893  12.176 -0.2920  0.0954 -0.0579
  231BOLB   NC1 5521  10.224  13.240  20.041  0.1020  0.0973 -0.1415
  231BOLB   PO1 5522   9.995  12.874  20.123  0.2035  0.0559  0.0266
  231BOLB   GL1 5523   9.652  13.021  20.403 -0.1636 -0.1653  0.2714
  231BOLB   GL2 5524   9.399  13.026  20.271 -0.1473  0.1277  0.0536
  231BOLB   C1A 5525   9.602  13.098  20.851 -0.0901 -0.5026  0.0316
  231BOLB   C2A 5526   9.211  13.166  21.083 -0.1548 -0.0195 -0.2487
  231BOLB   C3A 5527   8.821  13.068  21.396  0.3327  0.0551  0.2696
  231BOLB   C4A 5528   8.610  13.159  21.726 -0.0357  0.4060 -0.0301
  231BOLB   C1B 5529   9.191  12.939  20.616 -0.1435 -0.1282  0.0362
  231BOLB   C2B 5530   8.775  13.176  20.661  0.0496  0.0064 -0.1439
  231BOLB   C3B 5531   8.515  13.139  20.365 -0.0622  0.2866 -0.0357
  231BOLB   C4B 5532   8.352  13.248  19.956 -0.1505  0.0411 -0.2787
  231BOLB   NC2 5533   6.732  13.348  22.847  0.2664  0.0433  0.0044
  231BOLB   PO2 5534   6.676  13.215  22.491 -0.0442  0.2343  0.0097
  231BOLB   GL3 5535   6.867  12.926  22.174 -0.2601 -0.0727 -0.2221
  231BOLB   GL4 5536   7.188  12.833  22.322 -0.0912  0.1199  0.0474
  231BOLB   C1C 5537   7.217  13.039  21.870 -0.5797  0.2177  0.4157
  231BOLB   C2C 5538   7.625  13.235  22.042  0.1008 -0.1059 -0.3298
  231BOLB   C3C 5539   7.983  13.242  22.111 -0.0794  0.1596  0.3520
  231BOLB   C4C 5540   8.398  13.177  22.055 -0.1849 -0.3400  0.3956
  231BOLB   C1D 5541   7.636  12.715  22.230 -0.0890 -0.0212  0.2037
  231BOLB   C2D 5542   7.937  12.847  21.835  0.0099 -0.1998  0.2695
  231BOLB   C3D 5543   7.965  13.115  21.580  0.2888  0.0469 -0.1389
  231BOLB   C4D 5544   7.884  13.388  21.272  0.0468 -0.2335 -0.0267
  232BOLB   NC1 5545  19.223   3.450  19.138  0.2689  0.1373 -0.0018
  232BOLB   PO1 5546  19.422   3.360  18.690  0.0264 -0.0603  0.1558
  232BOLB   GL1 5547  19.642   3.215  19.029 -0.0813 -0.1959  0.1161
  232BOLB   GL2 5548  19.451   3.007  19.014  0.0765 -0.4347  0.2350
  232BOLB   C1A 5549  19.778   2.972  19.444 -0.1617  0.1933 -0.2541
  232BOLB   C2A 5550  20.012   2.788  19.723 -0.1381 -0.1868  0.1431
  232BOLB   C3A 5551  20.182   2.541  20.038 -0.0863  0.0214 -0.2740
  232BOLB   C4A 5552  20.392   2.293  20.366 -0.1119 -0.0642 -0.0458
  232BOLB   C1B 5553  19.332   2.762  19.331  0.2013  0.1752  0.0540
  232BOLB   C2B 5554  19.461   2.659  19.681 -0.2610  0.1119  0.1620
  232BOLB   C3B 5555  19.656   2.491  20.027  0.2292  0.2202 -0.0703
  232BOLB   C4B 5556  19.884   2.063  20.169  0.0103 -0.1376 -0.1431
  232BOLB   NC2 5557  22.378   0.838  20.455 -0.1067 -0.0245  0.1284
  232BOLB   PO2 5558  22.320   1.123  20.720  0.2318  0.0068 -0.0296
  232BOLB   GL3 5559  22.301   1.654  20.642 -0.2399 -0.0207 -0.0249
  232BOLB   GL4 5560  22.603   1.768  20.630 -0.1346  0.0300 -0.1772
  232BOLB   C1C 5561  22.032   2.052  20.472  0.0744  0.1788  0.1367
  232BOLB   C2C 5562  21.647   2.274  20.568 -0.0247 -0.0902  0.0125
  232BOLB   C3C 5563  21.179   2.404  20.640 -0.3904  0.1315  0.1754
  232BOLB   C4C 5564  20.754   2.225  20.628  0.3332  0.2862  0.1942
  232BOLB   C1D 5565  22.572   2.144  20.578  0.1084  0.0876  0.1739
  232BOLB   C2D 5566  22.515   2.560  20.485 -0.0165 -0.0345 -0.2916
  232BOLB   C3D 5567  22.283   3.032  20.552 -0.1405  0.0496 -0.0132
  232BOLB   C4D 5568  22.021   3.438  20.583 -0.0718  0.0877  0.0621
  233BOLB   NC1 5569  15.018  16.530  21.439 -0.3606 -0.0346  0.0073
  233BOLB   PO1 5570  15.106  16.176  21.531 -0.0867  0.0395 -0.5312
  233BOLB   GL1 5571  15.169  16.414  21.907  0.1478 -0.1172 -0.2006
  233BOLB   GL2 5572  15.051  16.307  22.107 -0.1524  0.4714 -0.3298
  233BOLB   C1A 5573  15.366  16.678  22.149 -0.1597  0.0334  0.1412
  233BOLB   C2A 5574  15.315  16.838  22.638 -0.0265 -0.2327  0.0740
  233BOLB   C3A 5575  15.168  17.121  22.904 -0.1524 -0.2572 -0.1255
  233BOLB   C4A 5576  14.875  17.224  23.273 -0.1227  0.0847 -0.1397
  233BOLB   C1B 5577  14.716  16.504  22.483  0.0115  0.2419  0.0167
  233BOLB   C2B 5578  14.395  16.426  22.792  0.0612 -0.3062  0.1460
  233BOLB   C3B 5579  14.383  16.250  23.168  0.0169  0.2679 -0.0258
  233BOLB   C4B 5580  14.123  16.121  23.554 -0.1593 -0.0205  0.3719
  233BOLB   NC2 5581  13.139  16.679  25.636  0.2187 -0.0300 -0.0929
  233BOLB   PO2 5582  13.399  16.944  25.444  0.0293  0.0622  0.3000
  233BOLB   GL3 5583  13.669  16.945  25.205  0.0035  0.1607  0.2200
  233BOLB   GL4 5584  13.913  16.775  25.378  0.1716 -0.6130 -0.0663
  233BOLB   C1C 5585  13.948  16.902  24.805 -0.1010  0.3533 -0.0115
  233BOLB   C2C 5586  14.253  17.167  24.491 -0.0822 -0.0623 -0.1696
  233BOLB   C3C 5587  14.427  17.313  24.036  0.3957  0.2703  0.1493
  233BOLB   C4C 5588  14.581  17.392  23.625  0.1613  0.0846 -0.0230
  233BOLB   C1D 5589  13.730  16.491  25.022  0.1031  0.0181  0.0763
  233BOLB   C2D 5590  13.936  16.490  24.550  0.2499  0.5303  0.2728
  233BOLB   C3D 5591  13.834  16.622  24.080 -0.2431  0.1248 -0.1840
  233BOLB   C4D 5592  13.732  16.396  23.701  0.0523 -0.0820  0.0368
  234BOLB   NC1 5593  22.626  12.928  19.399 -0.0562 -0.2470  0.3355
  234BOLB   PO1 5594  22.495  12.971  19.743 -0.1976 -0.1763  0.1661
  234BOLB   GL1 5595  22.712  13.108  20.148 -0.0852  0.1714 -0.2762
  234BOLB   GL2 5596  22.851  12.970  20.461 -0.1783  0.1467 -0.2984
  234BOLB   C1A 5597  23.127  13.368  20.397  0.1424  0.0206  0.0058
  234BOLB   C2A 5598  23.491  13.539  20.537 -0.0507 -0.0446 -0.1156
  234BOLB   C3A 5599  23.748  13.834  20.920 -0.3030 -0.0304 -0.0544
  234BOLB   C4A 5600  24.097  13.802  21.156  0.1133 -0.2501 -0.0870
  234BOLB   C1B 5601  23.207  12.956  20.676  0.1509 -0.2589  0.0319
  234BOLB   C2B 5602  23.641  12.984  20.726 -0.1729 -0.2157  0.0255
  234BOLB   C3B 5603  24.103  12.936  20.989 -0.0704 -0.2052  0.0539
  234BOLB   C4B 5604  24.255  13.273  21.012 -0.0639  0.1951  0.1361
  234BOLB   NC2 5605  25.431  13.783  23.325  0.2407 -0.0099 -0.0041
  234BOLB   PO2 5606  25.278  13.926  23.018  0.1575  0.1351 -0.3913
  234BOLB   GL3 5607  24.891  13.996  22.781  0.0999 -0.2029  0.0222
  234BOLB   GL4 5608  24.704  14.161  23.007 -0.0988  0.2542  0.1817
  234BOLB   C1C 5609  24.581  13.962  22.481 -0.0361 -0.2156  0.2492
  234BOLB   C2C 5610  24.392  13.562  22.235 -0.2511  0.5161 -0.3381
  234BOLB   C3C 5611  24.415  13.481  21.879 -0.2474  0.0731 -0.4844
  234BOLB   C4C 5612  24.360  13.532  21.440 -0.1425 -0.3235  0.2338
  234BOLB   C1D 5613  24.301  14.379  22.695  0.0791 -0.0026 -0.1383
  234BOLB   C2D 5614  23.977  14.231  22.360  0.0498  0.2920  0.1856
  234BOLB   C3D 5615  23.550  14.105  22.283  0.3394 -0.1287  0.1542
  234BOLB   C4D 5616  23.236  14.081  21.975  0.0691 -0.3456 -0.2672
  235BOLB   NC1 5617   8.755   6.063  18.057 -0.5173  0.0536  0.1190
  235BOLB   PO1 5618   9.014   5.760  18.336  0.4168 -0.1919  0.1650
  235BOLB   GL1 5619   8.682   5.616  18.414 -0.1481  0.2130  0.0165
  235BOLB   GL2 5620   8.364   5.869  18.319 -0.1924 -0.1109 -0.1197
  235BOLB   C1A 5621   8.337   5.490  18.646 -0.0507 -0.1707  0.0486
  235BOLB   C2A 5622   7.955   5.394  18.886 -0.1941 -0.3145  0.0453
  235BOLB   C3A 5623   7.722   5.149  19.141  0.0848  0.0914 -0.0071
  235BOLB   C4A 5624   7.421   4.901  18.999 -0.0389  0.0488 -0.1567
  235BOLB   C1B 5625   8.168   5.769  18.049  0.0326  0.1403 -0.0517
  235BOLB   C2B 5626   7.673   5.645  18.008  0.2451  0.1335 -0.0111
  235BOLB   C3B 5627   7.416   5.691  18.223  0.2493 -0.0784  0.0895
  235BOLB   C4B 5628   7.213   5.871  18.200  0.1010 -0.4479  0.5499
  235BOLB   NC2 5629   6.099   2.890  20.589  0.1190 -0.3677  0.2477
  235BOLB   PO2 5630   6.390   2.970  20.077  0.0942  0.0530 -0.1999
  235BOLB   GL3 5631   6.487   3.024  19.706  0.0448 -0.0912 -0.0302
  235BOLB   GL4 5632   6.414   2.808  19.509 -0.0451  0.2996  0.1208
  235BOLB   C1C 5633   6.747   3.351  19.500  0.0700 -0.3031  0.3005
  235BOLB   C2C 5634   6.925   3.652  19.258 -0.1584 -0.0682  0.0912
  235BOLB   C3C 5635   7.008   4.109  19.252 -0.3856 -0.0338  0.2903
  235BOLB   C4C 5636   7.132   4.504  19.087  0.2767 -0.0137 -0.0987
  235BOLB   C1D 5637   6.659   2.987  19.149 -0.1438  0.2859 -0.1909
  235BOLB   C2D 5638   6.902   3.198  18.905  0.2332  0.3469 -0.0186
  235BOLB   C3D 5639   6.954   3.020  18.538  0.0849  0.1833 -0.0044
  235BOLB   C4D 5640   6.858   3.099  18.137  0.1533  0.0044 -0.1743
  236BOLB   NC1 5641  19.132   5.819  21.679 -0.3159 -0.2665 -0.0943
  236BOLB   PO1 5642  19.210   6.251  21.846  0.1391  0.0326 -0.0892
  236BOLB   GL1 5643  19.298   5.942  22.170 -0.1421  0.0315  0.2247
  236BOLB   GL2 5644  18.990   5.580  22.156 -0.0820 -0.1123  0.1240
  236BOLB   C1A 5645  19.197   5.844  22.631 -0.1097  0.2250  0.1691
  236BOLB   C2A 5646  19.250   5.780  23.022  0.1828 -0.0304  0.2446
  236BOLB   C3A 5647  19.319   5.681  23.445 -0.0191  0.1647 -0.0680
  236BOLB   C4A 5648  19.291   5.750  23.873 -0.1286 -0.0009 -0.0291
  236BOLB   C1B 5649  19.338   5.461  22.404 -0.1025 -0.0586 -0.2423
  236BOLB   C2B 5650  19.577   5.444  22.814 -0.1376 -0.0326  0.1733
  236BOLB   C3B 5651  19.893   5.603  23.170 -0.2566  0.0423  0.1438
  236BOLB   C4B 5652  20.188   5.423  23.461  0.1948  0.2182 -0.0359
  236BOLB   NC2 5653  20.115   4.726  26.021  0.3029 -0.3827  0.3317
  236BOLB   PO2 5654  20.134   5.002  25.656  0.0840 -0.0388 -0.1537
  236BOLB   GL3 5655  20.084   5.437  25.431  0.3395  0.0885 -0.0836
  236BOLB   GL4 5656  19.955   5.694  25.353  0.2394 -0.0137 -0.1049
  236BOLB   C1C 5657  20.323   5.524  24.993  0.0055  0.0789 -0.0650
  236BOLB   C2C 5658  20.261   5.882  24.713 -0.0716  0.3160  0.1731
  236BOLB   C3C 5659  19.816   6.009  24.554  0.2776 -0.2498  0.0689
  236BOLB   C4C 5660  19.663   5.931  24.188  0.2016 -0.0949  0.1309
  236BOLB   C1D 5661  19.497   5.854  25.288  0.2781  0.1559  0.1419
  236BOLB   C2D 5662  19.175   6.153  25.113 -0.1150  0.1709  0.0863
  236BOLB   C3D 5663  18.751   6.244  24.949 -0.0242  0.0383  0.0261
  236BOLB   C4D 5664  18.641   6.546  24.736 -0.1403 -0.2216 -0.1478
  237BOLB   NC1 5665  19.717   5.893  21.160  0.2764 -0.1476 -0.0624
  237BOLB   PO1 5666  20.121   6.118  21.254  0.2754 -0.2171  0.2103
  237BOLB   GL1 5667  20.133   5.893  21.546  0.0412  0.1815 -0.5108
  237BOLB   GL2 5668  20.142   5.638  21.367  0.1524 -0.0507  0.1681
  237BOLB   C1A 5669  20.207   5.510  21.846 -0.1408  0.3843 -0.1333
  237BOLB   C2A 5670  20.167   5.108  22.046 -0.2075  0.1311 -0.2199
  237BOLB   C3A 5671  20.085   4.855  22.400 -0.0938 -0.0533 -0.2176
  237BOLB   C4A 5672  20.103   4.709  22.782 -0.3439  0.0506 -0.0065
  237BOLB   C1B 5673  20.418   5.334  21.412 -0.0134  0.0002  0.1559
  237BOLB   C2B 5674  20.655   5.135  21.765  0.3771  0.1096  0.0153
  237BOLB   C3B 5675  20.609   4.779  22.126  0.2011 -0.1293 -0.2094
  237BOLB   C4B 5676  20.570   4.635  22.496 -0.1829 -0.5115 -0.0431
  237BOLB   NC2 5677  19.436   3.175  24.711  0.2681 -0.0330  0.0040
  237BOLB   PO2 5678  19.751   3.008  24.402  0.1733  0.0410 -0.1721
  237BOLB   GL3 5679  19.661   3.365  24.339 -0.0982  0.0074  0.0110
  237BOLB   GL4 5680  19.377   3.443  24.273  0.0598  0.0570 -0.1522
  237BOLB   C1C 5681  19.897   3.779  24.281  0.1599 -0.1062  0.3130
  237BOLB   C2C 5682  20.005   4.089  23.935  0.0493 -0.0435  0.0003
  237BOLB   C3C 5683  19.900   4.200  23.467  0.0128  0.4050 -0.0300
  237BOLB   C4C 5684  19.929   4.407  23.082 -0.2544  0.0127  0.0277
  237BOLB   C1D 5685  19.213   3.736  23.988 -0.2666 -0.1465  0.1761
  237BOLB   C2D 5686  19.027   3.873  23.605  0.0439  0.1345 -0.2192
  237BOLB   C3D 5687  19.073   4.337  23.684  0.0365  0.1306  0.0606
  237BOLB   C4D 5688  19.107   4.673  23.959  0.0695  0.2465 -0.0119
  238BOLB   NC1 5689  19.485   2.019  13.211  0.4712  0.2289  0.2792
  238BOLB   PO1 5690  19.698   2.306  12.992  0.2635 -0.2668 -0.2753
  238BOLB   GL1 5691  20.029   2.000  13.008  0.1014 -0.2808  0.0113
  238BOLB   GL2 5692  20.029   1.948  13.330  0.1698  0.2039  0.2584
  238BOLB   C1A 5693  20.322   1.819  12.950  0.0577  0.1928  0.1797
  238BOLB   C2A 5694  20.304   1.384  12.783  0.0413 -0.2344 -0.0321
  238BOLB   C3A 5695  20.131   1.099  12.479 -0.1062 -0.2822 -0.0402
  238BOLB   C4A 5696  20.225   0.968  12.107  0.1115  0.0751  0.4365
  238BOLB   C1B 5697  19.940   1.567  13.237  0.0911 -0.2566  0.2215
  238BOLB   C2B 5698  20.156   1.218  13.299  0.1130  0.2626  0.1345
  238BOLB   C3B 5699  20.493   0.946  13.376  0.2331 -0.0093  0.1534
  238BOLB   C4B 5700  20.851   0.652  13.346  0.2273 -0.2619 -0.0659
  238BOLB   NC2 5701  22.029  -0.752  11.264 -0.3584  0.0076 -0.0350
  238BOLB   PO2 5702  22.102  -0.532  10.860  0.3063  0.1351 -0.2271
  238BOLB   GL3 5703  21.692  -0.426  11.009 -0.1715 -0.0478  0.1380
  238BOLB   GL4 5704  21.477  -0.551  10.900 -0.2739 -0.1678  0.0766
  238BOLB   C1C 5705  21.344  -0.292  11.336 -0.2338 -0.0800 -0.2407
  238BOLB   C2C 5706  21.296   0.097  11.630  0.2234 -0.3095 -0.2631
  238BOLB   C3C 5707  20.961   0.451  11.780  0.0978 -0.2637  0.2946
  238BOLB   C4C 5708  20.606   0.734  11.735  0.0416  0.0760  0.2007
  238BOLB   C1D 5709  21.306  -0.077  10.837 -0.2105 -0.3677  0.1002
  238BOLB   C2D 5710  21.292   0.295  11.104  0.0005 -0.2429 -0.0029
  238BOLB   C3D 5711  21.300   0.579  11.346 -0.0084  0.2393  0.1217
  238BOLB   C4D 5712  21.169   0.917  11.659  0.0577  0.0953  0.0145
  239BOLB   NC1 5713  18.782  15.731  21.431  0.2144  0.1962 -0.1821
  239BOLB   PO1 5714  18.460  15.833  21.755  0.3330  0.3219  0.1563
  239BOLB   GL1 5715  18.651  16.029  22.086  0.0294 -0.3668  0.2440
  239BOLB   GL2 5716  18.617  16.100  22.412  0.2171 -0.3966  0.1157
  239BOLB   C1A 5717  18.846  16.417  22.140 -0.0084 -0.2845  0.0095
  239BOLB   C2A 5718  19.221  16.623  22.031  0.1953  0.1933 -0.2345
  239BOLB   C3A 5719  19.494  16.734  22.410  0.4978  0.0368 -0.0914
  239BOLB   C4A 5720  19.486  16.963  22.753 -0.0316 -0.1544  0.0148
  239BOLB   C1B 5721  18.596  16.567  22.569 -0.0435  0.1458  0.2746
  239BOLB   C2B 5722  18.682  17.000  22.720 -0.1607 -0.1527  0.0293
  239BOLB   C3B 5723  18.958  17.354  22.832  0.0693 -0.1629  0.0578
  239BOLB   C4B 5724  19.075  17.665  23.079 -0.1148  0.4126  0.2040
  239BOLB   NC2 5725  20.193  18.851  24.421 -0.1237 -0.4105  0.5177
  239BOLB   PO2 5726  20.547  18.644  24.106  0.3094 -0.2484  0.1907
  239BOLB   GL3 5727  20.480  18.246  23.944  0.0318 -0.1226  0.2348
  239BOLB   GL4 5728  20.850  18.150  23.905 -0.2193  0.0390  0.0611
  239BOLB   C1C 5729  20.425  17.952  23.680  0.1188 -0.3413 -0.0625
  239BOLB   C2C 5730  20.177  17.535  23.498  0.0998  0.2714  0.0538
  239BOLB   C3C 5731  19.957  17.382  23.231  0.1612  0.3294 -0.0972
  239BOLB   C4C 5732  19.811  17.204  22.948  0.0143 -0.0241 -0.0295
  239BOLB   C1D 5733  20.999  17.890  23.590  0.0345  0.0822  0.1583
  239BOLB   C2D 5734  20.920  17.527  23.215  0.1203 -0.1746 -0.2302
  239BOLB   C3D 5735  20.839  17.276  22.900 -0.1497 -0.0609  0.1056
  239BOLB   C4D 5736  20.937  17.124  22.530  0.0875  0.0857  0.0477
  240BOLB   NC1 5737  19.013   9.993  23.592  0.2566 -0.0960  0.3949
  240BOLB   PO1 5738  18.669  10.343  23.421 -0.0773 -0.1287 -0.0975
  240BOLB   GL1 5739  18.727  10.353  23.864  0.0212 -0.0742 -0.1814
  240BOLB   GL2 5740  18.983  10.440  23.925  0.1376  0.0198  0.0887
  240BOLB   C1A 5741  18.444  10.364  24.215  0.0069 -0.1128 -0.0569
  240BOLB   C2A 5742  18.145  10.541  24.511  0.1557 -0.4308 -0.1430
  240BOLB   C3A 5743  17.824  10.658  24.916  0.0556  0.1409 -0.1242
  240BOLB   C4A 5744  17.931  10.917  25.279  0.0282 -0.1090  0.0025
  240BOLB   C1B 5745  18.918  10.318  24.339 -0.1794 -0.0974  0.2764
  240BOLB   C2B 5746  19.178  10.361  24.772  0.3718 -0.2328 -0.2060
  240BOLB   C3B 5747  19.481  10.126  24.987 -0.0184  0.1873 -0.0117
  240BOLB   C4B 5748  19.702   9.853  25.207 -0.1600 -0.0463 -0.1614
  240BOLB   NC2 5749  18.462  10.414  27.834  0.0995 -0.2160 -0.1066
  240BOLB   PO2 5750  18.222  10.710  27.976  0.3254  0.2041  0.0845
  240BOLB   GL3 5751  18.200  10.822  27.504  0.5036 -0.1114 -0.0490
  240BOLB   GL4 5752  18.070  10.580  27.455 -0.0229  0.1442 -0.2024
  240BOLB   C1C 5753  18.180  10.822  27.067  0.2449 -0.1813  0.0817
  240BOLB   C2C 5754  18.216  10.656  26.581 -0.1143  0.0103 -0.0224
  240BOLB   C3C 5755  18.212  10.724  26.050  0.3018 -0.4221 -0.1359
  240BOLB   C4C 5756  18.087  10.897  25.672  0.3480 -0.3092 -0.0046
  240BOLB   C1D 5757  18.190  10.141  27.106  0.1086 -0.0786 -0.0730
  240BOLB   C2D 5758  18.205  10.189  26.699  0.1573  0.0899 -0.0842
  240BOLB   C3D 5759  18.380  10.289  26.288 -0.0541  0.0005  0.6368
  240BOLB   C4D 5760  18.099  10.129  25.908 -0.1944 -0.1130 -0.0961
  241BOLB   NC1 5761   9.651  12.789  12.677 -0.0557 -0.1728  0.0547
  241BOLB   PO1 5762   9.367  12.984  12.317 -0.1886  0.1596 -0.1061
  241BOLB   GL1 5763   9.152  12.995  11.941 -0.0076 -0.2271 -0.1179
  241BOLB   GL2 5764   8.845  12.895  11.800 -0.1153 -0.1961 -0.1636
  241BOLB   C1A 5765   8.847  13.365  11.697 -0.0244 -0.1103 -0.4903
  241BOLB   C2A 5766   8.579  13.473  11.433  0.2471 -0.0859 -0.1004
  241BOLB   C3A 5767   8.279  13.615  11.277 -0.0251 -0.2781 -0.1792
  241BOLB   C4A 5768   8.127  14.010  11.243 -0.0251 -0.0253 -0.3350
  241BOLB   C1B 5769   8.832  12.460  11.479 -0.0861 -0.0414 -0.0977
  241BOLB   C2B 5770   8.504  12.183  11.287 -0.1253 -0.0520  0.0437
  241BOLB   C3B 5771   8.092  11.966  11.333 -0.1658  0.0154  0.1418
  241BOLB   C4B 5772   7.842  11.597  11.414  0.0655  0.1976 -0.2680
  241BOLB   NC2 5773   7.176  16.252   9.714  0.0520  0.0685  0.3266
  241BOLB   PO2 5774   6.885  16.033   9.977  0.0357  0.0079 -0.3320
  241BOLB   GL3 5775   7.198  15.782  10.155  0.0142 -0.2284 -0.3136
  241BOLB   GL4 5776   7.409  15.696   9.902 -0.0377 -0.1393 -0.0901
  241BOLB   C1C 5777   7.353  15.254  10.143  0.3371 -0.2163  0.1983
  241BOLB   C2C 5778   7.449  14.928  10.448 -0.1110  0.1992  0.0723
  241BOLB   C3C 5779   7.507  14.632  10.828 -0.0736 -0.5444  0.4251
  241BOLB   C4C 5780   7.833  14.324  11.054 -0.3463  0.2277 -0.2909
  241BOLB   C1D 5781   7.746  15.656  10.244  0.0497 -0.0061 -0.3118
  241BOLB   C2D 5782   7.620  15.434  10.552 -0.0822  0.0551  0.2244
  241BOLB   C3D 5783   7.603  15.112  10.849 -0.2444 -0.3267  0.4667
  241BOLB   C4D 5784   7.805  14.849  11.220 -0.0493  0.2135 -0.1675
  242BOLB   NC1 5785  14.137  18.166  16.830 -0.0624  0.2539 -0.0543
  242BOLB   PO1 5786  13.835  18.203  17.088 -0.4895 -0.0652  0.0128
  242BOLB   GL1 5787  13.764  18.654  17.137  0.4504  0.0361 -0.3262
  242BOLB   GL2 5788  13.905  18.873  16.948 -0.1622 -0.2223 -0.3301
  242BOLB   C1A 5789  13.564  18.940  17.370 -0.1757  0.4901 -0.3073
  242BOLB   C2A 5790  13.617  19.037  17.881  0.4324 -0.0341 -0.1734
  242BOLB   C3A 5791  13.494  19.442  18.107 -0.0208  0.2330  0.0515
  242BOLB   C4A 5792  13.420  19.792  18.333 -0.1691  0.1024 -0.1814
  242BOLB   C1B 5793  13.531  19.068  16.836 -0.0538  0.1718 -0.0570
  242BOLB   C2B 5794  13.439  19.513  16.692 -0.0390 -0.0331  0.1723
  242BOLB   C3B 5795  13.410  19.800  16.947 -0.2909  0.4175 -0.0124
  242BOLB   C4B 5796  13.522  20.048  17.327 -0.0034  0.3283 -0.1219
  242BOLB   NC2 5797  13.079  21.901  18.051  0.2517  0.4127 -0.0017
  242BOLB   PO2 5798  12.940  21.858  18.543 -0.2956 -0.1785 -0.0381
  242BOLB   GL3 5799  12.975  21.538  18.381 -0.1959 -0.4741  0.2884
  242BOLB   GL4 5800  13.107  21.427  18.155  0.0255  0.0841 -0.1017
  242BOLB   C1C 5801  12.725  21.096  18.332 -0.2328 -0.1301  0.4023
  242BOLB   C2C 5802  12.760  20.715  18.263  0.0808  0.2413 -0.1179
  242BOLB   C3C 5803  12.802  20.238  18.224 -0.1833 -0.2230  0.0419
  242BOLB   C4C 5804  13.196  20.053  18.229  0.1004  0.0803 -0.0107
  242BOLB   C1D 5805  13.290  21.153  17.853 -0.1738  0.0705  0.1450
  242BOLB   C2D 5806  13.281  20.884  17.476  0.0586 -0.1362 -0.1566
  242BOLB   C3D 5807  13.304  20.471  17.293  0.1102  0.1314 -0.1165
  242BOLB   C4D 5808  13.166  20.211  17.029 -0.1074 -0.0498 -0.3324
  243BOLB   NC1 5809  22.105   5.708  19.416 -0.0725 -0.1513  0.0789
  243BOLB   PO1 5810  22.118   5.342  19.189  0.2435  0.1497  0.0777
  243BOLB   GL1 5811  22.520   5.416  19.201 -0.2973  0.2279 -0.0462
  243BOLB   GL2 5812  22.654   5.080  18.997  0.1811 -0.1354 -0.1627
  243BOLB   C1A 5813  22.735   5.452  19.659 -0.1070  0.0277 -0.2546
  243BOLB   C2A 5814  23.116   5.324  19.794  0.0791  0.2158  0.1697
  243BOLB   C3A 5815  23.472   5.060  20.084  0.0643 -0.0569 -0.5319
  243BOLB   C4A 5816  23.593   4.873  20.480  0.4203 -0.3765  0.3066
  243BOLB   C1B 5817  22.664   4.925  19.458  0.1282  0.1575  0.0755
  243BOLB   C2B 5818  22.564   4.559  19.694  0.1913 -0.0053 -0.0774
  243BOLB   C3B 5819  22.459   4.667  20.112  0.1972 -0.2593 -0.4577
  243BOLB   C4B 5820  22.547   4.409  20.439 -0.0620  0.2455 -0.1316
  243BOLB   NC2 5821  25.970   3.932  21.248 -0.3977 -0.2650 -0.0477
  243BOLB   PO2 5822  25.630   3.673  21.280 -0.1088  0.3079  0.1599
  243BOLB   GL3 5823  25.187   3.881  21.214  0.4473 -0.0993 -0.1752
  243BOLB   GL4 5824  25.130   4.169  21.399 -0.2182  0.1338 -0.1624
  243BOLB   C1C 5825  24.752   4.003  21.168  0.0413  0.0788  0.0958
  243BOLB   C2C 5826  24.459   4.314  20.988 -0.0456  0.0620  0.1041
  243BOLB   C3C 5827  24.132   4.470  20.954  0.1619  0.4709  0.2751
  243BOLB   C4C 5828  23.727   4.532  20.630 -0.3122  0.1432  0.0859
  243BOLB   C1D 5829  24.903   4.476  21.199 -0.1272 -0.1923  0.2951
  243BOLB   C2D 5830  24.845   4.936  21.197  0.1518  0.0521  0.0355
  243BOLB   C3D 5831  24.482   5.288  21.045 -0.1708 -0.5671 -0.4929
  243BOLB   C4D 5832  24.034   5.525  20.996  0.4037 -0.2293  0.0949
  244BOLB   NC1 5833  17.665   2.283  11.846 -0.0434  0.0756  0.0529
  244BOLB   PO1 5834  18.013   2.128  11.445 -0.3180  0.4028 -0.2569
  244BOLB   GL1 5835  17.993   1.938  11.087  0.1192 -0.0998  0.1797
  244BOLB   GL2 5836  18.010   2.041  10.827  0.1945 -0.0170 -0.0492
  244BOLB   C1A 5837  17.792   1.631  11.020  0.1382 -0.1892 -0.0905
  244BOLB   C2A 5838  17.951   1.262  10.779 -0.0165 -0.0570 -0.1920
  244BOLB   C3A 5839  17.936   0.725  10.760 -0.0701 -0.0145  0.2011
  244BOLB   C4A 5840  17.600   0.449  10.910  0.1776 -0.0076 -0.1089
  244BOLB   C1B 5841  17.931   1.787  10.568 -0.0822  0.0915  0.0532
  244BOLB   C2B 5842  17.593   1.487  10.384 -0.2509 -0.1979  0.1790
  244BOLB   C3B 5843  17.226   1.573  10.185  0.1704 -0.0028  0.4116
  244BOLB   C4B 5844  17.016   1.643   9.779  0.0243 -0.3234  0.2146
  244BOLB   NC2 5845  17.654   1.658  12.390  0.0695  0.1602  0.1860
  244BOLB   PO2 5846  17.438   2.025  12.230 -0.0587 -0.1675 -0.1164
  244BOLB   GL3 5847  17.289   1.680  11.996  0.2365  0.1683  0.0887
  244BOLB   GL4 5848  16.939   1.620  12.078  0.1325  0.2830 -0.0207
  244BOLB   C1C 5849  17.242   1.302  11.738 -0.0367 -0.2425  0.1204
  244BOLB   C2C 5850  17.035   0.860  11.613 -0.2404 -0.0162 -0.2114
  244BOLB   C3C 5851  17.077   0.518  11.426 -0.0057  0.1916 -0.0597
  244BOLB   C4C 5852  17.340   0.482  11.200  0.2088  0.1607  0.1641
  244BOLB   C1D 5853  16.881   1.203  12.124 -0.0113 -0.1327 -0.0490
  244BOLB   C2D 5854  16.488   0.917  12.043 -0.1385  0.0795  0.1949
  244BOLB   C3D 5855  16.255   0.611  11.733  0.3391 -0.0334 -0.0525
  244BOLB   C4D 5856  16.390   0.298  11.472  0.3528  0.1668 -0.0230
  245BOLB   NC1 5857  19.196   5.489   9.494 -0.2280 -0.1262 -0.1251
  245BOLB   PO1 5858  19.526   5.537   9.724 -0.2652  0.0022 -0.5166
  245BOLB   GL1 5859  19.658   5.301   9.272  0.2049 -0.1426 -0.0506
  245BOLB   GL2 5860  19.508   5.021   9.087 -0.0854 -0.1486  0.1398
  245BOLB   C1A 5861  19.872   5.299   8.863 -0.0190 -0.0172  0.0068
  245BOLB   C2A 5862  19.917   5.086   8.456  0.0180 -0.1246  0.1839
  245BOLB   C3A 5863  19.972   4.906   8.042 -0.0012 -0.1461  0.2920
  245BOLB   C4A 5864  20.004   4.684   7.754  0.2267 -0.0155  0.1348
  245BOLB   C1B 5865  19.441   5.026   8.635 -0.1734 -0.1071  0.3003
  245BOLB   C2B 5866  19.414   4.975   8.243 -0.0152  0.1204  0.2472
  245BOLB   C3B 5867  19.474   4.914   7.811  0.1007 -0.3110 -0.3762
  245BOLB   C4B 5868  19.581   4.751   7.477  0.5379 -0.0372  0.0101
  245BOLB   NC2 5869  21.738   4.721   5.311 -0.1909 -0.3559 -0.0818
  245BOLB   PO2 5870  21.539   4.413   5.583 -0.1174  0.1320  0.0712
  245BOLB   GL3 5871  21.187   4.376   5.801 -0.3882 -0.1147 -0.2459
  245BOLB   GL4 5872  21.364   4.196   6.070  0.3254  0.0513 -0.1306
  245BOLB   C1C 5873  20.889   4.423   6.062  0.0572 -0.3797  0.0143
  245BOLB   C2C 5874  20.625   4.410   6.478  0.0546 -0.3140 -0.0598
  245BOLB   C3C 5875  20.501   4.529   6.869  0.0189 -0.1037  0.0595
  245BOLB   C4C 5876  20.148   4.503   7.298 -0.1733  0.2232 -0.2933
  245BOLB   C1D 5877  21.113   4.255   6.447  0.3463 -0.1831 -0.1068
  245BOLB   C2D 5878  21.038   4.502   6.819  0.2994  0.3310  0.1976
  245BOLB   C3D 5879  20.906   4.820   7.091  0.0198  0.0307  0.0315
  245BOLB   C4D 5880  20.518   4.838   7.399 -0.2155 -0.1683  0.1469
  246BOLB   NC1 5881  22.553   6.162  13.326 -0.2762 -0.3372 -0.2170
  246BOLB   PO1 5882  22.551   6.276  13.000 -0.0895 -0.0366 -0.2593
  246BOLB   GL1 5883  22.954   6.065  12.986  0.2831 -0.0736  0.1402
  246BOLB   GL2 5884  23.279   6.113  13.167 -0.0656  0.0211  0.0831
  246BOLB   C1A 5885  23.316   5.763  12.826  0.2822  0.2029 -0.2214
  246BOLB   C2A 5886  23.658   5.623  12.632  0.0200  0.0778 -0.2116
  246BOLB   C3A 5887  23.906   5.425  12.311 -0.0955 -0.2670  0.1488
  246BOLB   C4A 5888  24.113   5.455  11.878  0.0651 -0.0327 -0.0775
  246BOLB   C1B 5889  23.732   5.949  13.038 -0.0639  0.1961 -0.0114
  246BOLB   C2B 5890  24.119   5.825  12.853 -0.4228 -0.2232  0.4491
  246BOLB   C3B 5891  24.365   5.548  12.694  0.2456  0.1701 -0.1012
  246BOLB   C4B 5892  24.425   5.204  12.319 -0.1533  0.1972 -0.2163
  246BOLB   NC2 5893  25.992   4.489  11.412 -0.0192 -0.0694 -0.0065
  246BOLB   PO2 5894  25.923   4.806  11.077  0.0237  0.1404  0.0324
  246BOLB   GL3 5895  25.472   4.980  11.021  0.0326 -0.2881  0.0400
  246BOLB   GL4 5896  25.288   4.875  11.293  0.1150 -0.2496  0.1450
  246BOLB   C1C 5897  25.094   5.187  10.946 -0.0538 -0.1055 -0.1669
  246BOLB   C2C 5898  24.749   5.549  10.973  0.1609  0.1558  0.0399
  246BOLB   C3C 5899  24.459   5.673  11.234 -0.0957 -0.0222 -0.3757
  246BOLB   C4C 5900  24.146   5.764  11.565  0.0838 -0.3280  0.0453
  246BOLB   C1D 5901  24.985   5.183  11.489 -0.1248 -0.0899 -0.0337
  246BOLB   C2D 5902  24.778   5.411  11.562  0.0625 -0.1080  0.0541
  246BOLB   C3D 5903  24.572   5.620  11.973  0.2241 -0.1367 -0.3455
  246BOLB   C4D 5904  24.357   5.754  12.266  0.2734  0.1363  0.3522
  247BOLB   NC1 5905  19.531   9.171   8.886  0.2957  0.0667  0.0190
  247BOLB   PO1 5906  19.355   8.775   8.948 -0.1777  0.0896  0.0940
  247BOLB   GL1 5907  19.564   8.763   8.495 -0.0116 -0.0268  0.3613
  247BOLB   GL2 5908  19.421   8.490   8.341 -0.3134  0.2251  0.1151
  247BOLB   C1A 5909  19.915   9.003   8.269 -0.0968 -0.0544 -0.1247
  247BOLB   C2A 5910  20.335   8.899   8.082 -0.0718 -0.0568  0.1024
  247BOLB   C3A 5911  20.339   8.873   7.602  0.2604  0.1980  0.0766
  247BOLB   C4A 5912  20.590   8.852   7.406  0.2644  0.3357 -0.2200
  247BOLB   C1B 5913  19.392   8.360   7.868 -0.0928  0.1042 -0.2755
  247BOLB   C2B 5914  19.314   8.552   7.521  0.0454 -0.0912 -0.3256
  247BOLB   C3B 5915  19.306   8.767   7.144 -0.1415  0.0291  0.2457
  247BOLB   C4B 5916  19.134   9.022   6.939 -0.0213  0.0460  0.2294
  247BOLB   NC2 5917  21.894   8.260   6.042  0.0685  0.3445  0.0183
  247BOLB   PO2 5918  21.661   8.682   5.882  0.0462  0.1821  0.2126
  247BOLB   GL3 5919  21.726   8.772   6.280  0.0817  0.0186  0.1176
  247BOLB   GL4 5920  21.572   8.525   6.411  0.0396  0.4303 -0.0026
  247BOLB   C1C 5921  21.879   8.979   6.603 -0.1282 -0.1738  0.3314
  247BOLB   C2C 5922  21.737   9.056   6.938  0.0952  0.1598 -0.1576
  247BOLB   C3C 5923  21.388   8.989   7.234 -0.2136  0.0868  0.1430
  247BOLB   C4C 5924  20.992   8.867   7.304 -0.2524 -0.2281 -0.0207
  247BOLB   C1D 5925  21.349   8.708   6.742  0.2625  0.3181  0.0001
  247BOLB   C2D 5926  20.927   8.747   6.825 -0.2202  0.0917 -0.1431
  247BOLB   C3D 5927  20.480   9.021   6.794  0.0995 -0.0884 -0.1494
  247BOLB   C4D 5928  20.097   8.914   6.728  0.2021 -0.1129  0.0414
  248BOLB   NC1 5929  16.782  14.349   8.419  0.3234 -0.1651  0.2536
  248BOLB   PO1 5930  17.094  14.017   8.443  0.1717  0.1313  0.2845
  248BOLB   GL1 5931  17.086  14.147   8.042 -0.1326 -0.2702 -0.0542
  248BOLB   GL2 5932  17.148  14.397   8.129 -0.0547 -0.1071  0.1000
  248BOLB   C1A 5933  16.933  14.294   7.699 -0.0638  0.2924 -0.0819
  248BOLB   C2A 5934  16.801  14.603   7.363  0.1711  0.0050 -0.1464
  248BOLB   C3A 5935  16.633  14.886   7.075  0.1348 -0.1126  0.4026
  248BOLB   C4A 5936  16.726  15.426   6.975  0.1790 -0.1012  0.2052
  248BOLB   C1B 5937  16.933  14.764   7.843 -0.0413 -0.0983 -0.0706
  248BOLB   C2B 5938  16.834  15.081   7.677  0.1448  0.1979  0.2511
  248BOLB   C3B 5939  17.042  15.134   7.283 -0.0804  0.0016 -0.2363
  248BOLB   C4B 5940  17.117  15.064   6.825  0.2966 -0.2151  0.0902
  248BOLB   NC2 5941  16.686  16.575   5.062  0.0506  0.0628  0.0121
  248BOLB   PO2 5942  17.170  16.699   5.141  0.1782  0.1078  0.0334
  248BOLB   GL3 5943  17.183  16.875   5.533 -0.1927  0.0523  0.0356
  248BOLB   GL4 5944  17.473  16.739   5.595 -0.1949  0.2594  0.1264
  248BOLB   C1C 5945  17.050  16.652   5.937 -0.5722  0.2891 -0.0617
  248BOLB   C2C 5946  16.927  16.378   6.185  0.2412  0.2195  0.2987
  248BOLB   C3C 5947  17.009  16.248   6.611 -0.0846 -0.3674  0.0800
  248BOLB   C4C 5948  16.882  15.853   6.909 -0.2346 -0.1172 -0.1226
  248BOLB   C1D 5949  17.366  16.296   5.802  0.0196  0.0473 -0.1908
  248BOLB   C2D 5950  17.380  15.852   5.794  0.1457 -0.0356  0.1993
  248BOLB   C3D 5951  17.038  15.512   5.884  0.2551  0.0911 -0.0009
  248BOLB   C4D 5952  16.807  15.235   5.919  0.0683 -0.0752 -0.2644
  249BOLB   NC1 5953  20.609   3.583  16.387  0.0191 -0.2310  0.3418
  249BOLB   PO1 5954  20.792   3.187  16.540 -0.1236  0.1314  0.1219
  249BOLB   GL1 5955  21.037   2.790  16.766 -0.0318 -0.0257 -0.2441
  249BOLB   GL2 5956  20.911   2.470  16.639 -0.0929 -0.1800 -0.1055
  249BOLB   C1A 5957  21.456   2.419  16.992 -0.1761 -0.0051  0.0621
  249BOLB   C2A 5958  21.810   2.285  17.287  0.0236 -0.1717  0.1642
  249BOLB   C3A 5959  22.167   2.244  17.292 -0.0850 -0.3275 -0.0795
  249BOLB   C4A 5960  22.607   2.000  17.230 -0.2818 -0.0743 -0.0708
  249BOLB   C1B 5961  21.063   2.161  16.655 -0.1051 -0.1965  0.2065
  249BOLB   C2B 5962  21.216   1.795  16.697  0.2532 -0.0714  0.0262
  249BOLB   C3B 5963  21.632   1.562  16.589  0.1230 -0.0087  0.1679
  249BOLB   C4B 5964  21.840   1.614  16.208 -0.5087  0.2205 -0.0748
  249BOLB   NC2 5965  23.477   0.356  18.639 -0.1407  0.1755  0.2610
  249BOLB   PO2 5966  23.797   0.432  18.330 -0.2078 -0.1118  0.3311
  249BOLB   GL3 5967  23.699   0.752  18.139 -0.1080 -0.4508  0.1805
  249BOLB   GL4 5968  23.882   1.002  18.255 -0.0307 -0.1132 -0.1074
  249BOLB   C1C 5969  23.406   0.856  17.788  0.1562 -0.2296 -0.2703
  249BOLB   C2C 5970  23.361   1.161  17.510  0.0085  0.0874 -0.0925
  249BOLB   C3C 5971  23.110   1.412  17.266 -0.1318 -0.0697  0.2371
  249BOLB   C4C 5972  22.960   1.792  17.045 -0.0940  0.0418 -0.0457
  249BOLB   C1D 5973  23.701   1.240  17.938 -0.1008  0.1472  0.2884
  249BOLB   C2D 5974  23.452   1.541  17.803  0.5007 -0.1033  0.2530
  249BOLB   C3D 5975  23.323   1.864  17.760 -0.0451  0.0565 -0.2777
  249BOLB   C4D 5976  23.057   2.085  17.505  0.2095 -0.3758 -0.1932
  250BOLB   NC1 5977  10.045  14.601  12.117  0.0783  0.4189  0.2258
  250BOLB   PO1 5978   9.781  14.243  12.171 -0.3145  0.1930  0.3243
  250BOLB   GL1 5979   9.515  14.461  11.948  0.0116 -0.3397  0.1391
  250BOLB   GL2 5980   9.341  14.326  11.759  0.1011 -0.1015 -0.1083
  250BOLB   C1A 5981   9.209  14.803  11.950  0.0586 -0.4184  0.0316
  250BOLB   C2A 5982   9.033  15.174  11.757  0.3614  0.5015 -0.3964
  250BOLB   C3A 5983   8.675  15.251  11.633 -0.0553 -0.0707  0.2018
  250BOLB   C4A 5984   8.554  15.315  11.215  0.2482  0.2580 -0.3234
  250BOLB   C1B 5985   8.981  14.502  11.492  0.0343 -0.1911 -0.2105
  250BOLB   C2B 5986   8.607  14.383  11.213  0.1467 -0.1576 -0.0389
  250BOLB   C3B 5987   8.237  14.596  11.038 -0.0669  0.1856 -0.0166
  250BOLB   C4B 5988   7.998  14.609  10.680 -0.3192  0.0784  0.5410
  250BOLB   NC2 5989   7.036  15.237   9.213 -0.1064  0.1341 -0.2663
  250BOLB   PO2 5990   7.251  15.487   9.218  0.2019 -0.2627  0.1655
  250BOLB   GL3 5991   7.598  15.443   9.494 -0.0685  0.1250  0.1311
  250BOLB   GL4 5992   7.777  15.163   9.338  0.0079 -0.2840  0.1849
  250BOLB   C1C 5993   7.860  15.291   9.786 -0.1669  0.4311 -0.1465
  250BOLB   C2C 5994   7.853  15.104  10.195  0.1178 -0.2316 -0.0001
  250BOLB   C3C 5995   8.047  15.076  10.614  0.0687 -0.2874  0.1314
  250BOLB   C4C 5996   8.279  15.115  11.028 -0.0376  0.0933 -0.0715
  250BOLB   C1D 5997   8.092  14.758   9.480 -0.0219  0.3100  0.1905
  250BOLB   C2D 5998   8.075  14.506   9.792  0.1078 -0.1079 -0.6487
  250BOLB   C3D 5999   7.924  14.134   9.778 -0.1903 -0.1667 -0.0131
  250BOLB   C4D 6000   8.115  13.732   9.646 -0.1634 -0.0201  0.1290
  251BOLB   NC1 6001  19.527   2.035  15.561  0.0658  0.1260  0.1090
  251BOLB   PO1 6002  19.814   2.389  15.677  0.0412  0.2278 -0.1106
  251BOLB   GL1 6003  20.033   2.044  15.708 -0.1687 -0.0214  0.0911
  251BOLB   GL2 6004  20.397   2.018  15.874  0.0145  0.0962  0.1045
  251BOLB   C1A 6005  20.057   1.683  15.595 -0.0488  0.3133 -0.0734
  251BOLB   C2A 6006  20.021   1.250  15.604 -0.1538  0.0553 -0.0116
  251BOLB   C3A 6007  20.388   0.868  15.529 -0.0730 -0.0643 -0.0113
  251BOLB   C4A 6008  20.387   0.617  15.301 -0.0574  0.2371  0.6311
  251BOLB   C1B 6009  20.348   1.726  16.064  0.2543  0.1700 -0.1047
  251BOLB   C2B 6010  20.451   1.316  15.998 -0.1002 -0.1869 -0.1050
  251BOLB   C3B 6011  20.170   0.971  15.971  0.0497 -0.0727 -0.1420
  251BOLB   C4B 6012  20.332   0.599  15.999 -0.1367 -0.1298 -0.0219
  251BOLB   NC2 6013  21.105  -1.436  15.565 -0.1189  0.0290  0.1075
  251BOLB   PO2 6014  21.425  -1.461  15.237  0.3052  0.2748 -0.4224
  251BOLB   GL3 6015  21.441  -1.067  15.346  0.0040 -0.1141  0.0556
  251BOLB   GL4 6016  21.595  -0.873  15.258 -0.1961  0.1638 -0.4411
  251BOLB   C1C 6017  21.157  -0.741  15.550 -0.0430  0.0583  0.1124
  251BOLB   C2C 6018  21.002  -0.330  15.432 -0.1539  0.1781 -0.1128
  251BOLB   C3C 6019  20.767  -0.019  15.386  0.0198 -0.6445 -0.1664
  251BOLB   C4C 6020  20.455   0.278  15.563 -0.3167 -0.0970  0.0795
  251BOLB   C1D 6021  21.258  -0.699  14.995 -0.3992 -0.1369 -0.0050
  251BOLB   C2D 6022  21.051  -0.328  14.775  0.0651  0.1210 -0.0226
  251BOLB   C3D 6023  20.750  -0.072  14.720 -0.2128 -0.1138  0.0944
  251BOLB   C4D 6024  20.403   0.177  14.615 -0.2572 -0.2185  0.1247
  252BOLB   NC1 6025  23.227   7.386  13.657  0.0832 -0.2291 -0.2156
  252BOLB   PO1 6026  23.359   7.094  13.345  0.0497 -0.2535 -0.1345
  252BOLB   GL1 6027  23.372   6.892  12.952 -0.1525  0.3147  0.0660
  252BOLB   GL2 6028  23.495   7.048  12.651 -0.4120  0.1690 -0.1751
  252BOLB   C1A 6029  23.550   6.511  12.908  0.1472 -0.1983  0.2165
  252BOLB   C2A 6030  23.868   6.336  12.704 -0.0750  0.1419  0.0331
  252BOLB   C3A 6031  24.244   6.300  12.493 -0.3401 -0.1598  0.0818
  252BOLB   C4A 6032  24.677   6.148  12.539  0.0625  0.1979  0.1772
  252BOLB   C1B 6033  23.722   6.807  12.491  0.0255  0.1742  0.0522
  252BOLB   C2B 6034  23.972   6.576  12.210 -0.2041 -0.2751 -0.4290
  252BOLB   C3B 6035  24.394   6.678  12.135 -0.0668  0.2443 -0.3448
  252BOLB   C4B 6036  24.894   6.755  12.130  0.0298  0.0215 -0.2554
  252BOLB   NC2 6037  26.500   4.249  12.389 -0.2729 -0.1045 -0.1532
  252BOLB   PO2 6038  26.067   4.147  12.310 -0.1952  0.2200  0.4114
  252BOLB   GL3 6039  26.048   4.608  12.157 -0.1124 -0.0455  0.1336
  252BOLB   GL4 6040  26.237   4.642  12.296 -0.2514  0.0361  0.3182
  252BOLB   C1C 6041  25.768   4.895  12.105  0.1135  0.1301  0.2852
  252BOLB   C2C 6042  25.523   5.172  12.343  0.2186 -0.1632 -0.4123
  252BOLB   C3C 6043  25.252   5.473  12.330  0.2314 -0.1968  0.1293
  252BOLB   C4C 6044  24.893   5.754  12.478  0.0093  0.0534 -0.1819
  252BOLB   C1D 6045  26.117   5.056  12.403 -0.0968  0.0253  0.0561
  252BOLB   C2D 6046  25.880   5.427  12.169 -0.0293 -0.2155  0.0155
  252BOLB   C3D 6047  25.560   5.755  12.102 -0.0766 -0.1220 -0.0227
  252BOLB   C4D 6048  25.436   6.099  12.296  0.1035 -0.2693 -0.1189
  253BOLB   NC1 6049  17.589  16.146  10.619  0.1767 -0.0290 -0.3007
  253BOLB   PO1 6050  17.750  16.563  10.438 -0.0046  0.1619 -0.0500
  253BOLB   GL1 6051  17.974  16.940  10.343  0.1177 -0.0563  0.2823
  253BOLB   GL2 6052  18.212  16.819  10.168  0.0613 -0.1369 -0.1212
  253BOLB   C1A 6053  18.067  17.282  10.186  0.0517 -0.0976 -0.2796
  253BOLB   C2A 6054  18.336  17.465   9.968 -0.0827 -0.3228  0.0130
  253BOLB   C3A 6055  18.739  17.586   9.983 -0.1244  0.1066  0.2082
  253BOLB   C4A 6056  19.053  17.938   9.922 -0.1581 -0.1451 -0.2706
  253BOLB   C1B 6057  18.040  16.893   9.843 -0.0341 -0.0308  0.0988
  253BOLB   C2B 6058  18.091  16.944   9.367 -0.0062 -0.1248  0.0518
  253BOLB   C3B 6059  18.165  17.131   9.056 -0.1587 -0.0548  0.0843
  253BOLB   C4B 6060  18.342  17.066   8.709  0.1161  0.0119  0.0566
  253BOLB   NC2 6061  19.898  18.950   8.005  0.1609 -0.2123  0.0515
  253BOLB   PO2 6062  19.535  19.156   8.163 -0.1181 -0.2018  0.2718
  253BOLB   GL3 6063  19.400  18.765   8.216  0.1193  0.1128 -0.0832
  253BOLB   GL4 6064  19.614  18.595   8.258  0.2260 -0.0361 -0.0937
  253BOLB   C1C 6065  19.035  18.422   8.367 -0.1621  0.0634  0.1256
  253BOLB   C2C 6066  18.960  18.432   8.844 -0.0081 -0.1426  0.1434
  253BOLB   C3C 6067  19.315  18.355   9.226  0.3093  0.2815 -0.1025
  253BOLB   C4C 6068  19.219  18.247   9.675  0.2212  0.0311  0.1787
  253BOLB   C1D 6069  19.745  18.414   8.728 -0.0563 -0.0363 -0.3803
  253BOLB   C2D 6070  19.945  18.052   8.949 -0.0135  0.0667  0.1430
  253BOLB   C3D 6071  20.170  18.184   9.389 -0.0756 -0.2109 -0.0237
  253BOLB   C4D 6072  20.292  18.265   9.807 -0.1826 -0.0881  0.1170
  254BOLB   NC1 6073  19.806   2.827  14.939  0.0183  0.1610  0.4972
  254BOLB   PO1 6074  19.965   2.385  14.839  0.5386 -0.0362  0.0470
  254BOLB   GL1 6075  19.950   2.069  14.682 -0.2547  0.1874 -0.1011
  254BOLB   GL2 6076  20.295   1.935  14.683  0.3979  0.3501  0.0151
  254BOLB   C1A 6077  19.929   1.566  14.663 -0.1440  0.0897  0.2184
  254BOLB   C2A 6078  19.957   1.157  14.614 -0.0167 -0.2933 -0.0652
  254BOLB   C3A 6079  20.080   0.849  14.341 -0.1162 -0.1091  0.0229
  254BOLB   C4A 6080  20.186   0.492  14.235 -0.1417 -0.3177 -0.0192
  254BOLB   C1B 6081  20.519   1.571  14.617 -0.0055 -0.0736  0.2513
  254BOLB   C2B 6082  20.850   1.334  14.746 -0.1923 -0.3503 -0.2317
  254BOLB   C3B 6083  21.384   1.305  14.864 -0.1850 -0.0951  0.1049
  254BOLB   C4B 6084  21.719   1.199  15.039 -0.2421 -0.0892 -0.0804
  254BOLB   NC2 6085  21.240  -1.493  14.370  0.4977 -0.2533 -0.0373
  254BOLB   PO2 6086  20.814  -1.627  14.459  0.0718  0.0305 -0.1296
  254BOLB   GL3 6087  20.801  -1.265  14.671 -0.1315  0.0744  0.2459
  254BOLB   GL4 6088  20.751  -1.167  14.922  0.3490 -0.1978 -0.1627
  254BOLB   C1C 6089  20.929  -0.835  14.618  0.0403 -0.1545  0.1372
  254BOLB   C2C 6090  20.842  -0.515  14.333 -0.1135  0.1595  0.0444
  254BOLB   C3C 6091  20.681  -0.126  14.230  0.0845  0.2194  0.1801
  254BOLB   C4C 6092  20.355   0.125  14.138 -0.2251  0.0373 -0.2559
  254BOLB   C1D 6093  20.771  -0.740  15.130 -0.3282 -0.0816  0.0896
  254BOLB   C2D 6094  20.597  -0.415  15.149  0.0170 -0.0589  0.2083
  254BOLB   C3D 6095  20.274  -0.227  14.971  0.2193 -0.0313 -0.0236
  254BOLB   C4D 6096  19.806  -0.205  14.869  0.0171 -0.1291 -0.0293
  255BOLB   NC1 6097  23.220  11.312  18.109  0.0454  0.0936  0.0053
  255BOLB   PO1 6098  23.539  11.245  17.759  0.0212  0.0568  0.0849
  255BOLB   GL1 6099  24.030  11.252  18.025 -0.0364 -0.2958  0.2383
  255BOLB   GL2 6100  24.264  11.535  17.993  0.1304  0.0298 -0.2742
  255BOLB   C1A 6101  24.535  11.035  18.094  0.1253  0.0307  0.3766
  255BOLB   C2A 6102  24.993  11.035  18.073  0.0476  0.2977 -0.1157
  255BOLB   C3A 6103  25.225  11.130  17.878 -0.0076  0.1468  0.1809
  255BOLB   C4A 6104  25.694  11.188  17.944  0.1989 -0.0854 -0.0413
  255BOLB   C1B 6105  24.657  11.552  18.010 -0.5040  0.3609  0.0572
  255BOLB   C2B 6106  25.007  11.517  18.173  0.1407  0.3695 -0.0482
  255BOLB   C3B 6107  25.372  11.411  18.257  0.1542  0.1601 -0.2671
  255BOLB   C4B 6108  25.722  11.607  18.313 -0.2399  0.1315 -0.1984
  255BOLB   NC2 6109  28.020  11.433  18.462  0.1650 -0.0366 -0.0054
  255BOLB   PO2 6110  28.074  11.765  18.139  0.1709 -0.1713  0.1631
  255BOLB   GL3 6111  27.725  11.846  18.312 -0.1793  0.3497  0.0575
  255BOLB   GL4 6112  27.600  11.747  18.590 -0.0717 -0.0565  0.0947
  255BOLB   C1C 6113  27.260  11.694  18.236  0.0874  0.1751  0.0513
  255BOLB   C2C 6114  26.740  11.689  18.171  0.0239 -0.1364  0.3857
  255BOLB   C3C 6115  26.281  11.799  18.229 -0.0702  0.1454  0.1519
  255BOLB   C4C 6116  26.024  11.522  17.953  0.0099  0.2916  0.0191
  255BOLB   C1D 6117  27.366  12.083  18.673 -0.0062 -0.4550  0.2184
  255BOLB   C2D 6118  27.088  12.475  18.611 -0.0105  0.2562  0.2458
  255BOLB   C3D 6119  26.833  12.726  18.430  0.4033  0.0160  0.0416
  255BOLB   C4D 6120  26.528  12.648  18.123  0.2772  0.0467 -0.1441
  256BOLB   NC1 6121  18.292   4.557  10.315 -0.1865 -0.2920 -0.0144
  256BOLB   PO1 6122  18.260   4.075  10.394 -0.1200 -0.1381 -0.2044
  256BOLB   GL1 6123  18.292   4.113   9.985  0.1774 -0.0758 -0.1165
  256BOLB   GL2 6124  18.184   4.153   9.742 -0.2211  0.0273  0.0061
  256BOLB   C1A 6125  18.585   3.829   9.710  0.0625  0.1129 -0.0838
  256BOLB   C2A 6126  18.844   3.420   9.470  0.0693  0.2643  0.3349
  256BOLB   C3A 6127  19.233   3.354   9.427  0.0152  0.0816 -0.0352
  256BOLB   C4A 6128  19.535   3.030   9.188  0.3439 -0.0752  0.2767
  256BOLB   C1B 6129  18.053   3.734   9.622 -0.1607 -0.1643  0.1865
  256BOLB   C2B 6130  18.047   3.381   9.412  0.1613  0.0385 -0.1352
  256BOLB   C3B 6131  17.888   2.960   9.178 -0.2509 -0.2476 -0.0357
  256BOLB   C4B 6132  17.784   2.425   9.266  0.1077  0.0398 -0.2789
  256BOLB   NC2 6133  21.456   1.401   8.426  0.0948 -0.0180  0.0233
  256BOLB   PO2 6134  21.261   1.397   8.078  0.2584 -0.1752 -0.1169
  256BOLB   GL3 6135  21.097   1.717   8.314  0.2416  0.2027 -0.2141
  256BOLB   GL4 6136  20.733   1.638   8.480  0.0741  0.0622 -0.2750
  256BOLB   C1C 6137  20.831   2.152   8.396 -0.0006  0.2429  0.1032
  256BOLB   C2C 6138  20.499   2.152   8.749  0.2661  0.0195  0.2773
  256BOLB   C3C 6139  20.243   2.552   8.989 -0.2847 -0.1532  0.3126
  256BOLB   C4C 6140  19.767   2.733   8.919 -0.0739 -0.2737  0.1790
  256BOLB   C1D 6141  20.331   1.463   8.387 -0.1201 -0.0589  0.0665
  256BOLB   C2D 6142  19.964   1.503   8.506 -0.1842  0.0484 -0.1859
  256BOLB   C3D 6143  19.821   1.727   8.833  0.3684  0.0028  0.2162
  256BOLB   C4D 6144  19.415   1.564   8.934  0.1441 -0.1446  0.1987
  257BOLB   NC1 6145  20.346   3.408  13.557 -0.3002 -0.0823  0.1704
  257BOLB   PO1 6146  20.555   3.078  13.765  0.0318  0.2157 -0.4397
  257BOLB   GL1 6147  20.849   2.758  14.026  0.1077 -0.1391 -0.1788
  257BOLB   GL2 6148  20.717   2.514  14.139  0.1517 -0.0195 -0.2018
  257BOLB   C1A 6149  21.181   2.529  14.109  0.0332 -0.0505 -0.0274
  257BOLB   C2A 6150  21.214   2.149  14.308 -0.0607 -0.2094  0.1747
  257BOLB   C3A 6151  21.571   1.896  14.437 -0.0576  0.2958  0.3302
  257BOLB   C4A 6152  21.786   1.560  14.731 -0.1484  0.0566  0.3624
  257BOLB   C1B 6153  20.834   2.112  13.902 -0.0049  0.0359 -0.0460
  257BOLB   C2B 6154  20.926   1.719  13.644  0.0633  0.0933  0.3870
  257BOLB   C3B 6155  21.213   1.713  13.312 -0.0023  0.3181 -0.5710
  257BOLB   C4B 6156  21.574   1.806  13.078 -0.4469  0.2624  0.2063
  257BOLB   NC2 6157  23.518   0.140  13.867  0.0795  0.2422 -0.0810
  257BOLB   PO2 6158  23.216   0.031  14.227 -0.0383  0.2705  0.1498
  257BOLB   GL3 6159  23.049   0.052  14.722  0.2053 -0.0742  0.4289
  257BOLB   GL4 6160  23.232   0.355  14.824 -0.2291 -0.1674  0.0836
  257BOLB   C1C 6161  22.638   0.109  14.842 -0.1774  0.1270  0.4083
  257BOLB   C2C 6162  22.262   0.464  15.011 -0.2144 -0.1185 -0.2972
  257BOLB   C3C 6163  21.889   0.767  14.883  0.0718 -0.3388 -0.0720
  257BOLB   C4C 6164  21.836   1.074  14.596  0.0244 -0.3109 -0.3936
  257BOLB   C1D 6165  22.923   0.533  14.481 -0.0530  0.0314  0.1929
  257BOLB   C2D 6166  22.513   0.561  14.372 -0.1382  0.0437  0.2836
  257BOLB   C3D 6167  22.182   0.652  14.474  0.1566 -0.1399  0.1845
  257BOLB   C4D 6168  21.771   0.545  14.466  0.2901 -0.1868  0.1024
  258BOLB   NC1 6169  21.477  15.061  11.993 -0.0314 -0.1213  0.0582
  258BOLB   PO1 6170  21.230  15.320  12.236 -0.1126 -0.2844  0.1311
  258BOLB   GL1 6171  21.428  15.619  11.933 -0.1898  0.0832 -0.1852
  258BOLB   GL2 6172  21.699  15.697  12.094  0.3909 -0.0712  0.1760
  258BOLB   C1A 6173  21.694  15.860  11.656  0.0010  0.0270  0.1518
  258BOLB   C2A 6174  21.760  16.279  11.532  0.0400  0.0635  0.1577
  258BOLB   C3A 6175  21.910  16.322  11.133 -0.1800 -0.1631 -0.1010
  258BOLB   C4A 6176  21.938  16.474  10.667  0.3096 -0.2309 -0.1190
  258BOLB   C1B 6177  22.050  15.964  12.086  0.1376  0.0698  0.0157
  258BOLB   C2B 6178  22.455  16.230  11.994 -0.1396  0.2759  0.2690
  258BOLB   C3B 6179  22.610  16.713  12.008 -0.0079  0.0069  0.1563
  258BOLB   C4B 6180  22.874  17.069  12.045 -0.2790 -0.0246  0.2534
  258BOLB   NC2 6181  23.369  18.921  10.160  0.2858 -0.4486  0.2291
  258BOLB   PO2 6182  23.188  18.554   9.949  0.1032  0.0153  0.0283
  258BOLB   GL3 6183  22.945  18.150  10.015 -0.4223  0.2581 -0.2846
  258BOLB   GL4 6184  22.659  18.180   9.940  0.4675 -0.0512 -0.0079
  258BOLB   C1C 6185  22.734  17.746  10.198  0.0799  0.0890  0.0366
  258BOLB   C2C 6186  22.761  17.455  10.425  0.2494 -0.0616  0.1060
  258BOLB   C3C 6187  22.473  17.077  10.373  0.3178  0.2859  0.0571
  258BOLB   C4C 6188  22.158  16.822  10.572 -0.0592  0.0113  0.2004
  258BOLB   C1D 6189  22.325  18.218   9.628 -0.1707 -0.2114  0.0356
  258BOLB   C2D 6190  21.873  17.939   9.670 -0.0107  0.0768  0.1760
  258BOLB   C3D 6191  21.487  17.815   9.930 -0.0312  0.0935  0.1714
  258BOLB   C4D 6192  21.355  17.522  10.205  0.2066 -0.0869 -0.0243
  259BOLB   NC1 6193   8.492  10.749  17.924  0.0839 -0.1004  0.2543
  259BOLB   PO1 6194   8.521  11.069  17.629  0.0334  0.1316  0.0648
  259BOLB   GL1 6195   8.127  11.073  17.686 -0.1179  0.0033 -0.0536
  259BOLB   GL2 6196   8.039  11.176  17.393  0.0425 -0.1008  0.0167
  259BOLB   C1A 6197   7.766  11.370  17.914 -0.1630  0.3371  0.1092
  259BOLB   C2A 6198   7.295  11.464  17.998 -0.0032  0.0745  0.1477
  259BOLB   C3A 6199   6.944  11.681  17.850 -0.2439 -0.0012 -0.4174
  259BOLB   C4A 6200   6.623  11.614  17.486  0.3571  0.1321  0.0290
  259BOLB   C1B 6201   7.713  11.392  17.434 -0.1929  0.1568 -0.0071
  259BOLB   C2B 6202   7.224  11.285  17.403  0.0477 -0.0246  0.0625
  259BOLB   C3B 6203   6.900  11.213  17.575  0.2671  0.0112  0.1903
  259BOLB   C4B 6204   6.910  11.087  17.890 -0.1509  0.1351 -0.0431
  259BOLB   NC2 6205   3.939  11.986  17.161  0.1074  0.0737  0.3388
  259BOLB   PO2 6206   4.284  11.910  17.071  0.0094 -0.1196 -0.0005
  259BOLB   GL3 6207   4.727  11.720  16.933 -0.1381 -0.1849 -0.0426
  259BOLB   GL4 6208   5.084  11.790  17.049  0.0569 -0.0993 -0.1593
  259BOLB   C1C 6209   5.245  11.704  16.618 -0.0659 -0.0494 -0.1378
  259BOLB   C2C 6210   5.720  11.496  16.761  0.1804  0.1068  0.0453
  259BOLB   C3C 6211   6.189  11.563  16.833 -0.0625  0.0522 -0.0422
  259BOLB   C4C 6212   6.496  11.697  17.084  0.1805  0.0995 -0.2656
  259BOLB   C1D 6213   5.555  11.897  17.094  0.1965  0.2261 -0.1989
  259BOLB   C2D 6214   5.987  11.846  17.266 -0.0568  0.1527 -0.4483
  259BOLB   C3D 6215   6.133  11.421  17.475 -0.0912  0.2782  0.3072
  259BOLB   C4D 6216   6.449  11.247  17.845 -0.1108 -0.0969  0.1082
  260BOLB   NC1 6217  13.768  17.194  20.162 -0.1371  0.2353  0.2379
  260BOLB   PO1 6218  14.009  17.110  20.384  0.1111 -0.0273  0.0902
  260BOLB   GL1 6219  13.783  17.303  20.698  0.2484  0.0699  0.0187
  260BOLB   GL2 6220  13.552  17.433  20.618  0.1225  0.2263 -0.0664
  260BOLB   C1A 6221  13.756  17.586  21.027 -0.2907  0.2216 -0.1953
  260BOLB   C2A 6222  13.660  17.383  21.420 -0.1628  0.0544  0.1956
  260BOLB   C3A 6223  13.381  17.470  21.749 -0.2250  0.2463  0.0934
  260BOLB   C4A 6224  13.106  17.753  21.966  0.0402 -0.1772 -0.1166
  260BOLB   C1B 6225  13.268  17.776  20.667  0.2606 -0.0723  0.0464
  260BOLB   C2B 6226  13.035  18.065  20.808  0.0366 -0.2247 -0.0813
  260BOLB   C3B 6227  13.016  18.501  20.933 -0.1517  0.1292 -0.0867
  260BOLB   C4B 6228  12.828  18.785  21.211 -0.1283  0.2936 -0.2570
  260BOLB   NC2 6229  12.002  18.812  23.839 -0.1309 -0.0967 -0.0181
  260BOLB   PO2 6230  11.875  18.717  23.417  0.0131  0.1534  0.0415
  260BOLB   GL3 6231  11.960  18.435  23.190  0.0382 -0.2264  0.5082
  260BOLB   GL4 6232  11.878  18.096  23.208  0.1399  0.1510  0.2813
  260BOLB   C1C 6233  12.154  18.359  22.785  0.2055 -0.4768 -0.1597
  260BOLB   C2C 6234  12.498  18.392  22.574 -0.1221  0.5338  0.2503
  260BOLB   C3C 6235  12.973  18.239  22.487  0.1949  0.1226  0.1726
  260BOLB   C4C 6236  13.117  17.898  22.353  0.2012 -0.3108  0.1943
  260BOLB   C1D 6237  12.125  17.895  22.883  0.2816  0.2258  0.1414
  260BOLB   C2D 6238  12.284  17.895  22.511  0.1639  0.0003 -0.0419
  260BOLB   C3D 6239  12.613  17.766  22.279  0.0771 -0.1042  0.1558
  260BOLB   C4D 6240  12.794  17.466  22.150  0.2560 -0.2533  0.0131
  261BOLB   NC1 6241  18.934  10.632   8.722  0.2667 -0.0923 -0.0971
  261BOLB   PO1 6242  19.356  10.817   8.637 -0.4039 -0.0155  0.0426
  261BOLB   GL1 6243  19.219  10.667   8.284  0.1049  0.2204 -0.2579
  261BOLB   GL2 6244  18.840  10.577   8.196 -0.1528 -0.2993 -0.0315
  261BOLB   C1A 6245  19.238  11.033   7.992 -0.0095 -0.4214  0.1589
  261BOLB   C2A 6246  19.382  11.075   7.570  0.1896  0.0860 -0.0737
  261BOLB   C3A 6247  19.248  11.129   7.161 -0.0296 -0.6983  0.0015
  261BOLB   C4A 6248  19.514  11.302   6.770 -0.3814  0.1902  0.1829
  261BOLB   C1B 6249  18.886  10.730   7.824 -0.1042  0.2894  0.1225
  261BOLB   C2B 6250  18.730  11.085   7.815  0.0050 -0.0023  0.2232
  261BOLB   C3B 6251  18.450  11.361   7.690 -0.0140 -0.0231  0.3219
  261BOLB   C4B 6252  18.224  11.730   7.749  0.1012 -0.0389  0.2122
  261BOLB   NC2 6253  19.513  12.589   4.245  0.0288 -0.0854  0.0164
  261BOLB   PO2 6254  19.548  12.765   4.700  0.1284 -0.0644  0.0097
  261BOLB   GL3 6255  19.521  12.524   5.093  0.1059 -0.1103 -0.1107
  261BOLB   GL4 6256  19.281  12.364   4.942 -0.0062 -0.0415  0.0915
  261BOLB   C1C 6257  19.506  12.213   5.475  0.1528 -0.2966  0.0676
  261BOLB   C2C 6258  19.316  11.856   5.668 -0.0380 -0.1157  0.1586
  261BOLB   C3C 6259  19.269  11.475   5.989  0.2499  0.1105  0.2534
  261BOLB   C4C 6260  19.465  11.440   6.335 -0.4462  0.3127  0.0908
  261BOLB   C1D 6261  19.150  12.772   5.219  0.0492 -0.3219 -0.1196
  261BOLB   C2D 6262  18.890  12.964   5.531  0.1700  0.2236  0.0979
  261BOLB   C3D 6263  18.589  12.952   5.789  0.1012  0.2580 -0.0656
  261BOLB   C4D 6264  18.305  12.608   5.982 -0.1491  0.1476 -0.0271
  262BOLB   NC1 6265  20.924   9.442   9.473 -0.2406 -0.0310 -0.0779
  262BOLB   PO1 6266  20.716   9.106   9.505  0.4210 -0.1858  0.0902
  262BOLB   GL1 6267  20.988   8.723   9.164 -0.2442 -0.0642  0.1855
  262BOLB   GL2 6268  21.178   8.865   9.286 -0.0622  0.1304  0.0227
  262BOLB   C1A 6269  21.146   8.620   8.701  0.1716  0.0926 -0.1649
  262BOLB   C2A 6270  21.134   8.255   8.464 -0.0766 -0.1119  0.2836
  262BOLB   C3A 6271  21.319   7.889   8.229 -0.0405 -0.1174 -0.0094
  262BOLB   C4A 6272  21.209   7.481   8.178 -0.1715  0.2112  0.0408
  262BOLB   C1B 6273  21.534   8.676   9.138 -0.2180 -0.3964 -0.0177
  262BOLB   C2B 6274  21.888   8.536   8.955  0.1247 -0.1617 -0.0836
  262BOLB   C3B 6275  22.295   8.602   8.916 -0.5207 -0.1735 -0.1923
  262BOLB   C4B 6276  22.682   8.857   8.781  0.1923  0.1283  0.0097
  262BOLB   NC2 6277  22.652   7.185   6.296 -0.0310  0.0085  0.2031
  262BOLB   PO2 6278  22.765   6.726   6.366 -0.1661 -0.0217 -0.0352
  262BOLB   GL3 6279  22.506   6.839   6.702 -0.0074 -0.0298 -0.0595
  262BOLB   GL4 6280  22.679   6.936   6.950 -0.0766 -0.0944  0.0178
  262BOLB   C1C 6281  22.093   7.051   6.956  0.4358 -0.1673 -0.1153
  262BOLB   C2C 6282  21.813   7.096   7.265  0.0298  0.1242  0.0208
  262BOLB   C3C 6283  21.391   6.985   7.459 -0.3724  0.4088 -0.0373
  262BOLB   C4C 6284  21.255   7.072   8.001 -0.2094  0.0860  0.1835
  262BOLB   C1D 6285  22.482   7.002   7.317  0.0499 -0.0076 -0.3730
  262BOLB   C2D 6286  22.351   7.364   7.446  0.0521 -0.0926  0.0161
  262BOLB   C3D 6287  22.559   7.615   7.761  0.1304 -0.1769 -0.2811
  262BOLB   C4D 6288  22.587   7.797   8.157 -0.0446  0.0524  0.2790
  263BOLB   NC1 6289   7.132  17.111  11.030 -0.0819  0.0103  0.0704
  263BOLB   PO1 6290   6.856  16.802  11.043 -0.1403  0.0644 -0.3077
  263BOLB   GL1 6291   7.221  16.568  11.322  0.1740 -0.0840 -0.2229
  263BOLB   GL2 6292   7.382  16.820  11.591  0.0393 -0.1108  0.0326
  263BOLB   C1A 6293   7.632  16.269  11.424  0.0844  0.1370 -0.0430
  263BOLB   C2A 6294   7.668  15.842  11.204  0.0586 -0.0625  0.0969
  263BOLB   C3A 6295   7.823  15.460  11.280 -0.1523 -0.0505  0.0522
  263BOLB   C4A 6296   8.091  15.421  11.637 -0.2446  0.1237  0.0079
  263BOLB   C1B 6297   7.809  16.628  11.716 -0.0060 -0.2606  0.0061
  263BOLB   C2B 6298   8.192  16.308  11.699 -0.2053  0.0909 -0.2673
  263BOLB   C3B 6299   8.422  16.013  12.048  0.2767  0.0846 -0.2009
  263BOLB   C4B 6300   8.938  15.912  12.169 -0.1577 -0.0981  0.1061
  263BOLB   NC2 6301   9.986  14.928  13.063 -0.0727  0.0654 -0.0986
  263BOLB   PO2 6302   9.646  14.679  12.836 -0.1543 -0.4129  0.3797
  263BOLB   GL3 6303   9.241  14.775  12.867  0.1395  0.1438 -0.3710
  263BOLB   GL4 6304   8.877  14.536  13.016  0.1114  0.2120  0.1367
  263BOLB   C1C 6305   8.897  14.990  12.809  0.3002  0.0906  0.0347
  263BOLB   C2C 6306   8.570  15.284  12.614 -0.1001  0.0743 -0.4768
  263BOLB   C3C 6307   8.292  15.346  12.369  0.2647 -0.5833 -0.3025
  263BOLB   C4C 6308   8.115  15.485  12.015 -0.0348 -0.0700 -0.1982
  263BOLB   C1D 6309   8.469  14.748  12.895 -0.0196 -0.3423  0.0711
  263BOLB   C2D 6310   8.151  15.090  12.971  0.0618 -0.0026  0.0972
  263BOLB   C3D 6311   7.778  15.303  12.966  0.4017 -0.1330  0.1400
  263BOLB   C4D 6312   7.617  15.455  12.566  0.0712  0.1909  0.1646
  264BOLB   NC1 6313  19.298   2.489  15.549 -0.0662 -0.0008 -0.4264
  264BOLB   PO1 6314  19.540   2.404  15.225  0.1674 -0.2685 -0.1090
  264BOLB   GL1 6315  19.692   1.974  15.106 -0.0290 -0.0795  0.0390
  264BOLB   GL2 6316  20.142   1.986  15.175 -0.0482 -0.2181 -0.1527
  264BOLB   C1A 6317  19.844   1.591  15.209 -0.0517  0.0192 -0.1729
  264BOLB   C2A 6318  19.998   1.203  15.108  0.0940  0.1240  0.1283
  264BOLB   C3A 6319  20.035   0.756  14.909 -0.1787 -0.2595  0.1078
  264BOLB   C4A 6320  20.383   0.643  14.701  0.1717 -0.1444 -0.1266
  264BOLB   C1B 6321  20.402   1.649  15.167 -0.1409  0.0064  0.0614
  264BOLB   C2B 6322  20.470   1.361  15.400  0.0962 -0.1823 -0.2373
  264BOLB   C3B 6323  20.756   1.344  15.602  0.1804  0.0936  0.1506
  264BOLB   C4B 6324  21.125   1.115  15.733  0.0045 -0.2936 -0.1691
  264BOLB   NC2 6325  21.819  -1.687  13.664 -0.1009 -0.1127 -0.0791
  264BOLB   PO2 6326  21.719  -1.248  13.916 -0.0436 -0.0824 -0.2256
  264BOLB   GL3 6327  21.413  -0.915  13.820 -0.0105 -0.1049  0.0799
  264BOLB   GL4 6328  21.323  -0.640  13.515  0.0269 -0.1610 -0.0695
  264BOLB   C1C 6329  21.216  -0.516  13.981  0.3444 -0.0026  0.0098
  264BOLB   C2C 6330  21.104  -0.148  13.973  0.1601 -0.0953 -0.0762
  264BOLB   C3C 6331  20.942   0.308  14.123 -0.4514 -0.3477  0.0200
  264BOLB   C4C 6332  20.684   0.636  14.298  0.2378  0.0785  0.1506
  264BOLB   C1D 6333  20.859  -0.575  13.557  0.0445  0.2184 -0.0522
  264BOLB   C2D 6334  20.598  -0.414  13.819  0.0055 -0.1906 -0.2697
  264BOLB   C3D 6335  20.177  -0.398  13.975  0.3488  0.2640  0.1112
  264BOLB   C4D 6336  19.935  -0.064  14.023  0.1168 -0.1425  0.0186
  265BOLB   NC1 6337  16.625   9.904   8.657 -0.2303 -0.1835 -0.1032
  265BOLB   PO1 6338  16.700   9.932   8.244 -0.0207 -0.1545  0.2037
  265BOLB   GL1 6339  16.617   9.729   7.935  0.0283 -0.0573 -0.3437
  265BOLB   GL2 6340  16.813   9.476   7.931 -0.0500 -0.2260 -0.0816
  265BOLB   C1A 6341  16.624   9.661   7.475 -0.1834 -0.1504  0.1270
  265BOLB   C2A 6342  16.762   9.735   7.094 -0.4851 -0.1918  0.0244
  265BOLB   C3A 6343  17.041   9.705   6.700 -0.0385 -0.2354 -0.2836
  265BOLB   C4A 6344  17.295   9.518   6.359 -0.1670 -0.0046 -0.1094
  265BOLB   C1B 6345  16.828   9.188   7.799  0.0860 -0.1035  0.0803
  265BOLB   C2B 6346  16.620   9.152   7.334  0.0978  0.0317 -0.1441
  265BOLB   C3B 6347  16.416   9.257   7.014  0.0959  0.0585 -0.3728
  265BOLB   C4B 6348  16.026   9.226   6.816 -0.0552  0.1001  0.3323
  265BOLB   NC2 6349  18.344   9.767   4.186  0.3182  0.0461 -0.1034
  265BOLB   PO2 6350  18.574   9.984   4.515 -0.1225 -0.1164  0.0059
  265BOLB   GL3 6351  18.175  10.009   4.585  0.2274  0.1916  0.1707
  265BOLB   GL4 6352  17.978  10.158   4.388 -0.4236 -0.0371 -0.1716
  265BOLB   C1C 6353  18.050   9.792   5.035 -0.0929  0.0429 -0.1504
  265BOLB   C2C 6354  17.852   9.781   5.337  0.0103 -0.1092  0.2652
  265BOLB   C3C 6355  17.659   9.581   5.716 -0.2197 -0.2881 -0.0295
  265BOLB   C4C 6356  17.537   9.607   6.094 -0.0424 -0.1103 -0.3175
  265BOLB   C1D 6357  17.664  10.191   4.717  0.2207 -0.0230  0.2290
  265BOLB   C2D 6358  17.452  10.216   5.036 -0.2721  0.1227 -0.0794
  265BOLB   C3D 6359  17.072  10.352   5.349  0.1881 -0.1540  0.0243
  265BOLB   C4D 6360  16.818  10.200   5.715 -0.1599  0.1338  0.2994
  266BOLB   NC1 6361  20.475   5.437  11.309  0.1388  0.2251  0.2381
  266BOLB   PO1 6362  20.692   5.317  10.853  0.0401 -0.4727 -0.1717
  266BOLB   GL1 6363  20.933   5.111  10.525 -0.0305 -0.0680  0.0770
  266BOLB   GL2 6364  20.827   5.128  10.172 -0.0230 -0.0852 -0.2729
  266BOLB   C1A 6365  21.279   4.986  10.268  0.0595 -0.0569  0.0031
  266BOLB   C2A 6366  21.568   4.816   9.940 -0.1019 -0.1632 -0.1443
  266BOLB   C3A 6367  21.823   4.659   9.636 -0.2036  0.2779 -0.1259
  266BOLB   C4A 6368  21.989   4.661   9.328  0.1965  0.0323 -0.2002
  266BOLB   C1B 6369  21.028   4.864   9.887 -0.1736  0.0265 -0.0344
  266BOLB   C2B 6370  21.106   4.646   9.559 -0.0416 -0.0596 -0.0719
  266BOLB   C3B 6371  21.206   4.347   9.378 -0.0739  0.2650  0.2323
  266BOLB   C4B 6372  21.336   3.927   9.367  0.2873  0.2673 -0.1356
  266BOLB   NC2 6373  23.450   3.166   8.163  0.1388 -0.0548 -0.2095
  266BOLB   PO2 6374  23.731   3.137   8.467 -0.2801 -0.0753 -0.0333
  266BOLB   GL3 6375  23.510   3.363   8.640  0.0912  0.0278 -0.2210
  266BOLB   GL4 6376  23.575   3.600   8.853 -0.1374  0.0495  0.0235
  266BOLB   C1C 6377  23.144   3.589   8.632  0.1436  0.0182 -0.2159
  266BOLB   C2C 6378  22.751   3.834   8.771  0.1530  0.0279  0.1076
  266BOLB   C3C 6379  22.369   4.050   8.879 -0.4756 -0.1560  0.4337
  266BOLB   C4C 6380  22.221   4.265   9.208 -0.0318 -0.0716  0.1393
  266BOLB   C1D 6381  23.333   3.777   9.120  0.1789  0.1352 -0.0573
  266BOLB   C2D 6382  23.191   4.111   9.372 -0.2583  0.1150  0.2426
  266BOLB   C3D 6383  23.085   4.499   9.414 -0.2333  0.2825  0.0131
  266BOLB   C4D 6384  22.919   4.842   9.507  0.0602  0.0114  0.0687
  267BOLB   NC1 6385   9.644   5.315  18.599  0.2892  0.0303  0.1481
  267BOLB   PO1 6386   9.817   5.225  19.000  0.0333 -0.2216  0.2070
  267BOLB   GL1 6387   9.513   4.869  18.845 -0.2371 -0.0132 -0.0975
  267BOLB   GL2 6388   9.330   4.832  18.590  0.0776  0.4222 -0.0009
  267BOLB   C1A 6389   9.145   4.675  19.039 -0.1333  0.1693 -0.1522
  267BOLB   C2A 6390   8.676   4.609  18.979  0.0216  0.1819  0.3649
  267BOLB   C3A 6391   8.371   4.315  19.093 -0.0156  0.3719 -0.0501
  267BOLB   C4A 6392   8.137   3.907  19.151  0.1116 -0.0710  0.2553
  267BOLB   C1B 6393   9.008   4.558  18.607  0.0018  0.1142  0.0239
  267BOLB   C2B 6394   8.738   4.262  18.607 -0.2312 -0.1026  0.0818
  267BOLB   C3B 6395   8.536   3.895  18.691 -0.1641  0.0664  0.1712
  267BOLB   C4B 6396   8.205   3.650  18.637  0.3094  0.1979 -0.0465
  267BOLB   NC2 6397   7.907   2.362  20.878  0.3006 -0.0967  0.3466
  267BOLB   PO2 6398   7.946   2.014  20.723  0.1333  0.3670 -0.0060
  267BOLB   GL3 6399   8.019   2.277  20.387  0.0831  0.1734 -0.0556
  267BOLB   GL4 6400   8.223   2.523  20.538  0.0678 -0.0642  0.0584
  267BOLB   C1C 6401   7.973   2.637  20.068 -0.1933 -0.1507 -0.3266
  267BOLB   C2C 6402   7.795   2.800  19.693 -0.2239  0.1646 -0.2773
  267BOLB   C3C 6403   7.849   3.056  19.390 -0.1560  0.0952 -0.0344
  267BOLB   C4C 6404   7.989   3.420  19.147  0.0887 -0.3515 -0.0923
  267BOLB   C1D 6405   8.252   2.953  20.403 -0.0029 -0.0131 -0.1229
  267BOLB   C2D 6406   8.586   3.189  20.224 -0.1003  0.0815  0.0413
  267BOLB   C3D 6407   8.763   3.560  19.963  0.1301 -0.1421  0.0186
  267BOLB   C4D 6408   9.066   3.902  19.852 -0.0071 -0.0312  0.1067
  268BOLB   NC1 6409  20.540  13.218   9.969  0.0791  0.2664  0.0080
  268BOLB   PO1 6410  20.631  12.804   9.788 -0.1422  0.2986 -0.1262
  268BOLB   GL1 6411  20.958  12.877   9.495 -0.0018  0.0424  0.1989
  268BOLB   GL2 6412  20.794  12.981   9.212  0.0657  0.2040  0.0988
  268BOLB   C1A 6413  21.401  12.884   9.546 -0.3127  0.2675  0.0314
  268BOLB   C2A 6414  21.664  13.017   9.151  0.3815  0.0902 -0.0519
  268BOLB   C3A 6415  22.050  13.154   8.943  0.0792 -0.1869 -0.1804
  268BOLB   C4A 6416  22.196  13.383   8.582  0.2599 -0.0879 -0.0829
  268BOLB   C1B 6417  21.226  12.912   9.087 -0.2334 -0.2632  0.2544
  268BOLB   C2B 6418  21.119  12.564   8.638  0.5620  0.0622  0.3941
  268BOLB   C3B 6419  21.220  12.477   8.197  0.0215  0.2824  0.0391
  268BOLB   C4B 6420  21.296  12.825   7.960  0.1072 -0.0600  0.0216
  268BOLB   NC2 6421  22.863  14.757   6.460 -0.1638 -0.2642  0.1348
  268BOLB   PO2 6422  22.827  14.838   6.863 -0.0296 -0.5119 -0.0618
  268BOLB   GL3 6423  22.542  14.671   7.045  0.1208  0.0460 -0.3001
  268BOLB   GL4 6424  22.267  14.832   7.113  0.0949  0.2174 -0.1533
  268BOLB   C1C 6425  22.379  14.336   7.286  0.1244 -0.1774 -0.0194
  268BOLB   C2C 6426  22.241  14.019   7.532  0.1426 -0.2058 -0.1160
  268BOLB   C3C 6427  22.249  13.848   7.927 -0.0156 -0.0736 -0.0590
  268BOLB   C4C 6428  22.268  13.757   8.298 -0.0850 -0.1163  0.1564
  268BOLB   C1D 6429  22.150  14.668   7.548 -0.1340 -0.2955  0.0305
  268BOLB   C2D 6430  21.939  14.304   7.820 -0.2104  0.0495  0.1795
  268BOLB   C3D 6431  21.846  14.033   8.122 -0.1672 -0.1072  0.1411
  268BOLB   C4D 6432  21.719  14.277   8.505  0.1198  0.1816 -0.2112
  269BOLB   NC1 6433  15.188   2.396  18.943 -0.2866  0.0056 -0.2505
  269BOLB   PO1 6434  15.498   2.136  18.838 -0.1360  0.1101  0.2022
  269BOLB   GL1 6435  15.331   1.928  19.036 -0.1029  0.2303 -0.1250
  269BOLB   GL2 6436  15.573   2.049  19.357  0.2145  0.0233  0.0444
  269BOLB   C1A 6437  15.372   1.488  19.189  0.1535  0.0314 -0.0062
  269BOLB   C2A 6438  15.383   1.100  19.330 -0.0596  0.2163 -0.0533
  269BOLB   C3A 6439  15.484   0.700  19.550 -0.2870  0.0637 -0.0557
  269BOLB   C4A 6440  15.353   0.311  19.587 -0.0937  0.0529  0.0259
  269BOLB   C1B 6441  15.540   1.583  19.692  0.1367  0.1594  0.1779
  269BOLB   C2B 6442  15.580   1.128  19.814  0.2307  0.0500  0.0332
  269BOLB   C3B 6443  15.636   0.834  20.035  0.0607 -0.0550 -0.1403
  269BOLB   C4B 6444  15.527   0.538  20.087  0.3014 -0.4346 -0.0198
  269BOLB   NC2 6445  14.202  -1.387  20.836 -0.1059 -0.0452  0.0560
  269BOLB   PO2 6446  14.715  -1.423  20.932 -0.1072  0.3031 -0.1726
  269BOLB   GL3 6447  14.933  -1.137  20.689  0.2767 -0.3429 -0.2280
  269BOLB   GL4 6448  15.134  -1.163  20.457  0.2015  0.1829  0.1298
  269BOLB   C1C 6449  15.058  -0.741  20.653  0.1083  0.2508 -0.0730
  269BOLB   C2C 6450  14.897  -0.529  20.297 -0.1914 -0.2407  0.2909
  269BOLB   C3C 6451  15.011  -0.295  19.968  0.0518 -0.3198  0.1071
  269BOLB   C4C 6452  15.105  -0.005  19.603 -0.2228 -0.2000  0.0817
  269BOLB   C1D 6453  15.147  -0.913  20.104 -0.0613 -0.1747 -0.0427
  269BOLB   C2D 6454  15.383  -0.650  19.903  0.1777  0.2649 -0.0393
  269BOLB   C3D 6455  15.540  -0.240  19.837  0.0581 -0.1397 -0.2089
  269BOLB   C4D 6456  15.861   0.037  19.811 -0.1715  0.1634  0.0464
  270BOLB   NC1 6457   3.315   5.477   7.783 -0.1775 -0.1011 -0.1842
  270BOLB   PO1 6458   3.176   5.618   8.262 -0.2664  0.0941  0.2893
  270BOLB   GL1 6459   3.487   5.652   8.601 -0.0333 -0.2089 -0.1728
  270BOLB   GL2 6460   3.548   5.352   8.792 -0.0015  0.1114 -0.0492
  270BOLB   C1A 6461   3.791   5.807   8.937  0.1620 -0.0696  0.3046
  270BOLB   C2A 6462   3.681   6.186   9.226 -0.2350  0.2787 -0.3583
  270BOLB   C3A 6463   3.762   6.395   9.613 -0.1995  0.0246 -0.3414
  270BOLB   C4A 6464   3.576   6.634   9.988 -0.3028  0.1497 -0.1176
  270BOLB   C1B 6465   3.904   5.209   9.089  0.2252 -0.0374  0.4314
  270BOLB   C2B 6466   4.278   5.225   9.402  0.0166  0.2073 -0.2271
  270BOLB   C3B 6467   4.264   5.187   9.810 -0.0803 -0.0857  0.2316
  270BOLB   C4B 6468   4.399   5.294  10.289  0.1193  0.0532  0.1547
  270BOLB   NC2 6469   1.671   7.679   9.287  0.3391 -0.1148  0.2723
  270BOLB   PO2 6470   1.788   8.105   9.197 -0.2774 -0.2651 -0.2575
  270BOLB   GL3 6471   2.167   7.810   9.236 -0.0986  0.1783  0.0426
  270BOLB   GL4 6472   2.515   7.863   9.187  0.1098 -0.0562  0.1454
  270BOLB   C1C 6473   2.432   7.693   9.619  0.1504 -0.1399 -0.1081
  270BOLB   C2C 6474   2.832   7.763   9.819 -0.0061  0.1665  0.2279
  270BOLB   C3C 6475   3.228   7.543  10.054 -0.0808  0.3178  0.0152
  270BOLB   C4C 6476   3.533   7.119  10.156 -0.2887 -0.1136 -0.3033
  270BOLB   C1D 6477   2.674   8.261   9.041 -0.1981  0.2340 -0.4342
  270BOLB   C2D 6478   2.952   8.615   8.952  0.3620  0.0628 -0.0092
  270BOLB   C3D 6479   3.281   8.899   8.854  0.3573  0.1000  0.1081
  270BOLB   C4D 6480   3.600   9.170   8.854 -0.1295  0.0134 -0.2359
  271BOLB   NC1 6481  20.570   3.730  18.384 -0.0082 -0.1419 -0.1931
  271BOLB   PO1 6482  20.166   3.676  18.254  0.1600  0.2337 -0.0788
  271BOLB   GL1 6483  20.449   3.298  18.248  0.2423  0.0526 -0.2792
  271BOLB   GL2 6484  20.512   3.150  17.948 -0.1622 -0.0465 -0.2284
  271BOLB   C1A 6485  20.939   3.295  18.161  0.3972  0.0037  0.0511
  271BOLB   C2A 6486  21.285   2.988  18.160 -0.0031 -0.0296  0.0521
  271BOLB   C3A 6487  21.565   2.517  18.074  0.2115  0.2843  0.1066
  271BOLB   C4A 6488  21.568   1.999  18.105 -0.0442 -0.1028 -0.2099
  271BOLB   C1B 6489  20.664   2.770  18.056  0.0824  0.3263 -0.2427
  271BOLB   C2B 6490  20.583   2.382  18.303 -0.1640 -0.0642 -0.0716
  271BOLB   C3B 6491  20.561   1.894  18.388 -0.0303  0.0357  0.2766
  271BOLB   C4B 6492  20.620   1.754  18.826 -0.0308 -0.1054 -0.3120
  271BOLB   NC2 6493  23.075   0.117  18.160 -0.2477 -0.0739 -0.0939
  271BOLB   PO2 6494  22.976   0.237  18.604  0.0065 -0.1994  0.5036
  271BOLB   GL3 6495  22.575   0.557  18.489 -0.3027 -0.0744  0.1435
  271BOLB   GL4 6496  22.517   0.779  18.688  0.0436  0.1387 -0.1263
  271BOLB   C1C 6497  22.184   0.668  18.207  0.0699 -0.0929  0.2559
  271BOLB   C2C 6498  21.726   0.733  18.116  0.3755 -0.0048  0.3624
  271BOLB   C3C 6499  21.528   1.159  18.113  0.1383 -0.0549  0.1995
  271BOLB   C4C 6500  21.386   1.504  18.140 -0.3711 -0.1191 -0.2367
  271BOLB   C1D 6501  22.360   1.229  18.824 -0.0497 -0.0139 -0.0585
  271BOLB   C2D 6502  22.128   1.602  18.756  0.2104  0.0207  0.0007
  271BOLB   C3D 6503  21.904   1.700  18.316  0.2430 -0.0663  0.0115
  271BOLB   C4D 6504  21.833   1.633  17.889 -0.2643  0.1854 -0.1802
  272BOLB   NC1 6505  15.870  12.972   3.582 -0.1791  0.0208 -0.1474
  272BOLB   PO1 6506  16.097  13.323   3.835  0.0075  0.0525  0.0046
  272BOLB   GL1 6507  15.944  13.277   4.167 -0.1008  0.2048 -0.1723
  272BOLB   GL2 6508  15.924  12.970   4.159  0.3929  0.1350 -0.1453
  272BOLB   C1A 6509  15.810  13.367   4.526  0.1715  0.3468  0.0496
  272BOLB   C2A 6510  15.559  13.190   4.745  0.1490  0.0651 -0.0906
  272BOLB   C3A 6511  15.500  13.101   5.180  0.0993  0.1731  0.0165
  272BOLB   C4A 6512  15.512  13.311   5.417  0.0656  0.0558 -0.2318
  272BOLB   C1B 6513  15.878  12.833   4.581 -0.0763 -0.0950  0.1418
  272BOLB   C2B 6514  15.868  12.812   5.009  0.1657  0.1571 -0.0712
  272BOLB   C3B 6515  15.800  12.476   5.310  0.1895 -0.0074  0.2457
  272BOLB   C4B 6516  15.503  12.244   5.577 -0.1837  0.0613  0.1177
  272BOLB   NC2 6517  16.814  15.248   4.636 -0.0528  0.0250 -0.0427
  272BOLB   PO2 6518  16.512  15.217   4.317 -0.1236  0.4428 -0.2081
  272BOLB   GL3 6519  16.258  14.961   4.587 -0.4163  0.0234 -0.0811
  272BOLB   GL4 6520  16.217  14.604   4.542  0.2013 -0.1768  0.3270
  272BOLB   C1C 6521  15.970  14.779   4.936 -0.0475 -0.0625  0.1650
  272BOLB   C2C 6522  15.910  14.393   5.175 -0.0181  0.1825 -0.1118
  272BOLB   C3C 6523  15.897  14.080   5.524 -0.0092 -0.1491 -0.0984
  272BOLB   C4C 6524  15.648  13.754   5.647  0.0170  0.2450 -0.0954
  272BOLB   C1D 6525  16.349  14.481   4.979 -0.3979  0.2577 -0.0135
  272BOLB   C2D 6526  16.365  14.377   5.371  0.1676  0.2020  0.2272
  272BOLB   C3D 6527  16.604  14.684   5.538 -0.1626 -0.0259 -0.1311
  272BOLB   C4D 6528  16.571  15.137   5.524 -0.1114  0.0326  0.5664
  273BOLB   NC1 6529  23.657   8.554  14.478 -0.3573 -0.0701  0.2865
  273BOLB   PO1 6530  23.884   8.320  14.300 -0.1784 -0.1481  0.0837
  273BOLB   GL1 6531  24.212   7.924  14.119  0.3868 -0.0612 -0.1326
  273BOLB   GL2 6532  24.635   8.158  13.911 -0.1316 -0.1832 -0.1339
  273BOLB   C1A 6533  24.503   7.684  14.031  0.1750 -0.4576 -0.1194
  273BOLB   C2A 6534  24.829   7.525  14.190  0.1552 -0.1968  0.0937
  273BOLB   C3A 6535  25.277   7.547  14.231 -0.0395  0.0685 -0.0134
  273BOLB   C4A 6536  25.431   7.864  14.353 -0.0891 -0.1338  0.1346
  273BOLB   C1B 6537  25.007   7.922  13.788  0.0620  0.2905 -0.1028
  273BOLB   C2B 6538  25.129   7.502  13.665 -0.0735 -0.0489  0.0066
  273BOLB   C3B 6539  25.322   7.054  13.442  0.0294 -0.0862 -0.0339
  273BOLB   C4B 6540  25.474   6.696  13.640  0.0722 -0.1611 -0.1103
  273BOLB   NC2 6541  28.290   7.178  14.816  0.1066 -0.1210 -0.0376
  273BOLB   PO2 6542  27.886   7.302  14.776  0.0669 -0.0756  0.2183
  273BOLB   GL3 6543  27.491   7.303  14.886 -0.1861 -0.0224  0.0076
  273BOLB   GL4 6544  27.382   7.352  15.112 -0.1984 -0.0126  0.0431
  273BOLB   C1C 6545  27.067   7.438  14.701  0.2737 -0.0871  0.2102
  273BOLB   C2C 6546  26.588   7.538  14.548 -0.3340 -0.0209  0.1142
  273BOLB   C3C 6547  26.278   7.830  14.613  0.1202 -0.1140 -0.0944
  273BOLB   C4C 6548  25.831   7.900  14.587 -0.0029  0.0600  0.0129
  273BOLB   C1D 6549  27.021   7.600  15.283 -0.0736 -0.0974 -0.1369
  273BOLB   C2D 6550  26.667   7.518  15.506  0.2326 -0.0181 -0.0545
  273BOLB   C3D 6551  26.517   7.295  15.808 -0.0383 -0.0023 -0.2851
  273BOLB   C4D 6552  26.769   7.469  16.097 -0.2004 -0.2427  0.0181
  274BOLB   NC1 6553  22.275  14.125  25.842  0.1485 -0.1866 -0.0459
  274BOLB   PO1 6554  22.666  14.303  25.676 -0.3697 -0.0885  0.0361
  274BOLB   GL1 6555  22.386  14.243  25.337 -0.1602  0.0136  0.2740
  274BOLB   GL2 6556  22.465  13.972  25.099 -0.0207  0.2046  0.4657
  274BOLB   C1A 6557  22.134  14.301  24.968  0.1637 -0.1233 -0.0206
  274BOLB   C2A 6558  22.025  14.608  24.664  0.0161  0.1507  0.1643
  274BOLB   C3A 6559  21.686  14.446  24.392 -0.2819 -0.0911  0.0578
  274BOLB   C4A 6560  21.245  14.244  24.354  0.2553 -0.3901  0.0353
  274BOLB   C1B 6561  22.101  13.746  24.927  0.1223 -0.1109  0.3015
  274BOLB   C2B 6562  21.670  13.735  24.970  0.0766 -0.2649 -0.4465
  274BOLB   C3B 6563  21.337  13.555  25.129  0.2161  0.1586  0.0459
  274BOLB   C4B 6564  20.958  13.547  25.308  0.0269 -0.0889  0.0503
  274BOLB   NC2 6565  20.067  13.205  22.600  0.2013  0.2037 -0.0823
  274BOLB   PO2 6566  19.988  13.624  22.528  0.1448 -0.1192  0.1794
  274BOLB   GL3 6567  20.115  13.810  23.037  0.2465 -0.0086  0.0743
  274BOLB   GL4 6568  20.203  14.049  22.737 -0.1493  0.1511  0.1366
  274BOLB   C1C 6569  20.187  14.143  23.306 -0.1565 -0.0738 -0.2949
  274BOLB   C2C 6570  20.234  14.324  23.749  0.0678 -0.2872  0.2399
  274BOLB   C3C 6571  20.430  14.500  24.157  0.2567 -0.1625 -0.0737
  274BOLB   C4C 6572  20.841  14.515  24.331 -0.1776  0.2059  0.0002
  274BOLB   C1D 6573  20.533  14.391  23.050 -0.1110 -0.0969  0.0817
  274BOLB   C2D 6574  20.959  14.275  23.195 -0.2751  0.0282  0.3795
  274BOLB   C3D 6575  21.348  14.188  23.455 -0.2729 -0.2940  0.1114
  274BOLB   C4D 6576  21.465  14.316  23.911 -0.1755  0.0015 -0.0901
  275BOLB   NC1 6577  20.890   6.407  10.437 -0.0893 -0.2747 -0.1863
  275BOLB   PO1 6578  21.124   6.096  10.235  0.1752 -0.3440 -0.1148
  275BOLB   GL1 6579  21.328   6.199   9.775 -0.2882 -0.5351  0.3132
  275BOLB   GL2 6580  21.179   6.145   9.462 -0.0786  0.2041  0.5191
  275BOLB   C1A 6581  21.646   6.024   9.425 -0.0131  0.0835  0.0805
  275BOLB   C2A 6582  21.559   5.703   9.046  0.3038 -0.2517  0.1240
  275BOLB   C3A 6583  21.741   5.493   8.643 -0.0811  0.4698 -0.1183
  275BOLB   C4A 6584  21.894   5.161   8.459 -0.0737  0.3374  0.2269
  275BOLB   C1B 6585  21.150   5.679   9.402 -0.1537  0.1654  0.0554
  275BOLB   C2B 6586  20.852   5.552   9.252  0.0797 -0.1854  0.3240
  275BOLB   C3B 6587  20.808   5.407   8.816 -0.2115 -0.4732 -0.0158
  275BOLB   C4B 6588  20.854   5.186   8.381  0.1412  0.3553  0.0163
  275BOLB   NC2 6589  23.487   3.455   7.405 -0.1232 -0.2679  0.3428
  275BOLB   PO2 6590  23.605   3.419   7.815 -0.0770  0.3900 -0.0020
  275BOLB   GL3 6591  23.407   3.647   8.158  0.1536 -0.1332 -0.1743
  275BOLB   GL4 6592  23.442   4.034   8.034  0.2321 -0.1502 -0.0350
  275BOLB   C1C 6593  22.972   3.833   8.193 -0.1451 -0.0360 -0.0780
  275BOLB   C2C 6594  22.793   4.210   8.386 -0.0187 -0.0827 -0.4334
  275BOLB   C3C 6595  22.528   4.561   8.598 -0.1392 -0.0350 -0.1132
  275BOLB   C4C 6596  22.233   4.816   8.452 -0.1672 -0.1514 -0.1802
  275BOLB   C1D 6597  23.334   4.287   8.341 -0.0110  0.2014  0.1205
  275BOLB   C2D 6598  23.100   4.605   8.557 -0.0209  0.1668 -0.1263
  275BOLB   C3D 6599  22.778   4.964   8.554 -0.1517  0.1130 -0.1520
  275BOLB   C4D 6600  22.447   5.213   8.597 -0.1682  0.1181  0.0811
  276BOLB   NC1 6601  18.848   8.041   3.260  0.0927 -0.1339  0.0507
  276BOLB   PO1 6602  19.118   8.279   3.557  0.2262  0.0423  0.0426
  276BOLB   GL1 6603  18.740   8.117   3.744  0.1383  0.0006 -0.3397
  276BOLB   GL2 6604  18.551   7.842   3.633  0.1845  0.1609 -0.0293
  276BOLB   C1A 6605  18.504   8.115   4.111 -0.0483  0.3526 -0.0064
  276BOLB   C2A 6606  18.137   7.992   4.410 -0.0895  0.1547  0.0483
  276BOLB   C3A 6607  17.937   7.653   4.526  0.1203 -0.0848  0.1394
  276BOLB   C4A 6608  18.001   7.325   4.416 -0.0013  0.0628  0.0962
  276BOLB   C1B 6609  18.143   7.834   3.877 -0.0783  0.0213 -0.1804
  276BOLB   C2B 6610  18.358   7.591   4.153  0.1359  0.0411 -0.0575
  276BOLB   C3B 6611  18.471   7.501   4.588  0.1118 -0.4920 -0.2469
  276BOLB   C4B 6612  18.505   7.341   5.028 -0.0120 -0.2559 -0.0315
  276BOLB   NC2 6613  19.834   5.882   3.831  0.4303  0.2716  0.1811
  276BOLB   PO2 6614  19.549   6.244   3.754  0.0736  0.3578  0.1138
  276BOLB   GL3 6615  19.298   5.917   3.949 -0.0880 -0.0891 -0.1199
  276BOLB   GL4 6616  19.407   6.058   4.369  0.1683 -0.0817 -0.1166
  276BOLB   C1C 6617  18.849   6.183   4.052  0.1825 -0.3043 -0.0649
  276BOLB   C2C 6618  18.715   6.570   4.319 -0.1076  0.0390  0.0601
  276BOLB   C3C 6619  18.394   6.610   4.496 -0.0574  0.1447  0.2101
  276BOLB   C4C 6620  18.267   7.016   4.631  0.0169 -0.0008 -0.1162
  276BOLB   C1D 6621  19.077   6.252   4.455 -0.0369 -0.0588 -0.0300
  276BOLB   C2D 6622  18.764   6.321   4.797 -0.2752  0.0274 -0.2782
  276BOLB   C3D 6623  18.457   6.211   5.006  0.0601  0.0805  0.0979
  276BOLB   C4D 6624  18.285   5.989   5.334 -0.1153 -0.0923 -0.1875
  277BOLB   NC1 6625  13.565  17.582  18.972 -0.1745  0.2505  0.1153
  277BOLB   PO1 6626  13.756  17.452  19.317  0.0106 -0.2044  0.1832
  277BOLB   GL1 6627  13.714  17.843  19.370 -0.0792 -0.1101 -0.2157
  277BOLB   GL2 6628  13.949  18.143  19.532  0.3199 -0.1452  0.0667
  277BOLB   C1A 6629  13.453  18.190  19.358 -0.1137  0.0737  0.1434
  277BOLB   C2A 6630  13.274  18.576  19.558  0.1743  0.4200  0.0202
  277BOLB   C3A 6631  13.033  18.950  19.582 -0.0577 -0.2436 -0.1769
  277BOLB   C4A 6632  12.826  19.377  19.648  0.0025  0.2090 -0.0395
  277BOLB   C1B 6633  13.805  18.557  19.548  0.0788  0.0934 -0.0138
  277BOLB   C2B 6634  13.649  18.757  19.819 -0.1014 -0.2714 -0.3131
  277BOLB   C3B 6635  13.761  19.043  20.203 -0.3099  0.1219  0.1906
  277BOLB   C4B 6636  13.468  19.335  20.585  0.1873  0.2256 -0.0130
  277BOLB   NC2 6637  12.864  21.807  19.821 -0.0420 -0.0611 -0.0722
  277BOLB   PO2 6638  12.763  21.625  20.160 -0.1927 -0.2316  0.1226
  277BOLB   GL3 6639  13.130  21.317  20.190 -0.0280 -0.2568 -0.0647
  277BOLB   GL4 6640  13.164  21.406  19.938 -0.2331  0.2589 -0.1345
  277BOLB   C1C 6641  13.080  20.853  20.052 -0.1709 -0.0513  0.1265
  277BOLB   C2C 6642  12.805  20.590  20.010 -0.1136 -0.1181  0.1650
  277BOLB   C3C 6643  12.845  20.194  19.750  0.0246 -0.1131 -0.1566
  277BOLB   C4C 6644  12.855  19.773  19.672  0.1318 -0.0884  0.1814
  277BOLB   C1D 6645  13.351  21.026  19.662  0.4136  0.2760  0.1951
  277BOLB   C2D 6646  13.658  20.641  19.689 -0.2145  0.0575  0.1919
  277BOLB   C3D 6647  13.902  20.322  19.744  0.1107  0.0157 -0.0311
  277BOLB   C4D 6648  14.227  20.061  19.864  0.1701  0.5415  0.2012
  278BOLB   NC1 6649  14.587   1.533  16.111 -0.0773 -0.2247  0.1363
  278BOLB   PO1 6650  14.952   1.456  15.736 -0.0628  0.0361  0.2809
  278BOLB   GL1 6651  14.853   1.127  16.041 -0.0004  0.1102 -0.2615
  278BOLB   GL2 6652  15.036   0.930  16.200 -0.1995 -0.0879  0.0334
  278BOLB   C1A 6653  14.658   0.688  16.141 -0.1507 -0.3012  0.0334
  278BOLB   C2A 6654  14.629   0.217  16.213  0.0589  0.2415 -0.1306
  278BOLB   C3A 6655  14.396  -0.102  16.387  0.1444 -0.0295  0.0589
  278BOLB   C4A 6656  14.158  -0.376  16.686  0.0019 -0.0045  0.0418
  278BOLB   C1B 6657  15.087   0.513  16.371 -0.0361 -0.1217  0.0922
  278BOLB   C2B 6658  15.147   0.091  16.207 -0.1028  0.2843  0.0519
  278BOLB   C3B 6659  14.773  -0.217  16.107 -0.3100  0.2414 -0.1882
  278BOLB   C4B 6660  14.592  -0.517  16.046  0.1719 -0.0293  0.3370
  278BOLB   NC2 6661  14.363  -2.772  17.508 -0.1884 -0.0329  0.2063
  278BOLB   PO2 6662  13.990  -2.679  17.222  0.3023 -0.1463 -0.0347
  278BOLB   GL3 6663  14.153  -2.365  16.904 -0.2615  0.1676  0.1303
  278BOLB   GL4 6664  14.164  -2.490  16.601  0.0835  0.0958 -0.2900
  278BOLB   C1C 6665  14.318  -1.982  16.973 -0.0207  0.2794 -0.3693
  278BOLB   C2C 6666  14.416  -1.649  17.279 -0.1625  0.0261  0.2459
  278BOLB   C3C 6667  14.463  -1.175  17.096 -0.0364  0.0953 -0.2063
  278BOLB   C4C 6668  14.420  -0.697  17.043  0.3658 -0.0925 -0.4406
  278BOLB   C1D 6669  14.313  -2.396  16.139  0.0734 -0.2835 -0.1458
  278BOLB   C2D 6670  14.143  -2.089  15.855  0.0601 -0.0228 -0.0292
  278BOLB   C3D 6671  14.106  -1.615  15.714 -0.2178 -0.1822 -0.2110
  278BOLB   C4D 6672  14.263  -1.260  15.471 -0.1931 -0.0158  0.0031
  279BOLB   NC1 6673  10.625   4.168  18.914 -0.1196 -0.0698  0.1772
  279BOLB   PO1 6674  10.551   4.042  18.466 -0.0662 -0.1401 -0.0145
  279BOLB   GL1 6675  10.434   3.642  18.497 -0.2282 -0.0016 -0.3773
  279BOLB   GL2 6676  10.521   3.351  18.355  0.0612  0.0186  0.0601
  279BOLB   C1A 6677  10.221   3.186  18.683  0.1262  0.0191 -0.0677
  279BOLB   C2A 6678   9.955   2.911  18.777  0.1000  0.3680  0.2830
  279BOLB   C3A 6679   9.864   2.505  18.900 -0.1535 -0.2731  0.0609
  279BOLB   C4A 6680   9.643   2.231  19.008 -0.1115  0.3312 -0.2735
  279BOLB   C1B 6681  10.030   3.273  18.237  0.0539  0.0009 -0.1490
  279BOLB   C2B 6682   9.654   3.077  18.142 -0.1058  0.0909 -0.0877
  279BOLB   C3B 6683   9.292   2.839  18.033  0.0631 -0.3790  0.1903
  279BOLB   C4B 6684   9.126   2.575  18.245 -0.2552 -0.0162 -0.1777
  279BOLB   NC2 6685   8.654   0.497  20.449 -0.0090 -0.1516  0.0370
  279BOLB   PO2 6686   9.068   0.492  20.214  0.0180  0.1608  0.2212
  279BOLB   GL3 6687   9.109   0.708  19.871  0.1593 -0.0258 -0.1881
  279BOLB   GL4 6688   8.890   0.761  19.641 -0.0296 -0.0754  0.1591
  279BOLB   C1C 6689   9.349   0.968  19.764 -0.1010 -0.2124 -0.4968
  279BOLB   C2C 6690   9.556   1.229  19.498 -0.0158  0.0283 -0.1032
  279BOLB   C3C 6691   9.780   1.548  19.477  0.0014 -0.0473  0.2121
  279BOLB   C4C 6692   9.588   1.892  19.336 -0.1607 -0.0276 -0.1943
  279BOLB   C1D 6693   8.895   1.000  19.200 -0.0115 -0.3153  0.0173
  279BOLB   C2D 6694   8.900   1.264  18.837  0.0097 -0.0420 -0.1668
  279BOLB   C3D 6695   9.146   1.535  18.499  0.2915  0.0061 -0.0723
  279BOLB   C4D 6696   9.447   1.889  18.445  0.1348 -0.0845 -0.0745
  280BOLB   NC1 6697  12.486   4.017  19.929  0.1252  0.2150 -0.2197
  280BOLB   PO1 6698  12.075   4.330  19.918 -0.0474  0.0588 -0.1589
  280BOLB   GL1 6699  11.862   4.156  20.164  0.1254  0.1894 -0.0229
  280BOLB   GL2 6700  11.877   4.278  20.433 -0.4635 -0.0048  0.0571
  280BOLB   C1A 6701  11.610   3.795  20.423  0.1374  0.1748  0.0987
  280BOLB   C2A 6702  11.492   3.484  20.755  0.0360 -0.1561  0.0025
  280BOLB   C3A 6703  11.433   3.372  21.150  0.0415  0.2742 -0.1069
  280BOLB   C4A 6704  10.985   3.175  21.353 -0.1025 -0.2552 -0.2969
  280BOLB   C1B 6705  11.911   3.928  20.749  0.0298 -0.0159 -0.0380
  280BOLB   C2B 6706  12.016   3.649  21.043  0.1382 -0.1679 -0.4040
  280BOLB   C3B 6707  11.907   3.195  21.257  0.0802 -0.2062  0.2131
  280BOLB   C4B 6708  11.741   2.802  21.526 -0.1750  0.0181  0.1430
  280BOLB   NC2 6709   9.173   1.358  22.366 -0.0189  0.1195  0.0435
  280BOLB   PO2 6710   9.577   1.456  22.345 -0.1777  0.0764 -0.0997
  280BOLB   GL3 6711   9.670   1.821  21.973  0.3161  0.1377  0.0717
  280BOLB   GL4 6712   9.419   1.949  21.675  0.1401 -0.1650  0.3285
  280BOLB   C1C 6713   9.835   2.149  21.819  0.0281 -0.1303 -0.2647
  280BOLB   C2C 6714   9.925   2.412  21.553  0.0294 -0.2254 -0.1198
  280BOLB   C3C 6715  10.289   2.656  21.445 -0.0823 -0.0839  0.2763
  280BOLB   C4C 6716  10.590   3.047  21.386  0.0177 -0.1184  0.0874
  280BOLB   C1D 6717   9.515   2.156  21.266 -0.1380  0.1406  0.1070
  280BOLB   C2D 6718   9.608   1.936  20.831 -0.1969  0.1018  0.0717
  280BOLB   C3D 6719   9.575   2.239  20.518  0.0735 -0.0478  0.0824
  280BOLB   C4D 6720   9.229   2.467  20.322 -0.3751 -0.0468  0.0267
  281BOLB   NC1 6721  19.796  16.500  11.498  0.2682 -0.0211  0.0188
  281BOLB   PO1 6722  19.361  16.315  11.309  0.3430 -0.6677  0.2014
  281BOLB   GL1 6723  19.525  16.539  11.015  0.2625  0.1251  0.0139
  281BOLB   GL2 6724  19.373  16.521  10.718  0.0282  0.1593  0.1250
  281BOLB   C1A 6725  19.814  16.833  10.916  0.0766  0.0628 -0.1646
  281BOLB   C2A 6726  19.887  17.239  10.785 -0.0756 -0.1455  0.3395
  281BOLB   C3A 6727  20.063  17.647  10.735 -0.2058  0.0348  0.0686
  281BOLB   C4A 6728  19.976  18.031  10.550 -0.2094  0.0674 -0.0523
  281BOLB   C1B 6729  19.487  16.908  10.500 -0.3048 -0.0675 -0.1380
  281BOLB   C2B 6730  19.571  17.191  10.072 -0.1656  0.0533 -0.0821
  281BOLB   C3B 6731  19.647  17.130   9.633 -0.1440 -0.0798 -0.0784
  281BOLB   C4B 6732  19.750  17.445   9.363  0.1775 -0.0716 -0.0551
  281BOLB   NC2 6733  21.313  20.054   9.826 -0.0654 -0.0283  0.0645
  281BOLB   PO2 6734  21.056  20.221  10.102 -0.0850  0.0900  0.0929
  281BOLB   GL3 6735  20.704  19.883  10.020 -0.4893  0.0752 -0.2004
  281BOLB   GL4 6736  20.786  19.677  10.326  0.3681 -0.0041  0.1627
  281BOLB   C1C 6737  20.304  19.546  10.077 -0.1505 -0.0037  0.0795
  281BOLB   C2C 6738  20.026  19.201  10.282 -0.2455  0.0609  0.2678
  281BOLB   C3C 6739  19.774  18.909  10.527  0.1759 -0.2373  0.3088
  281BOLB   C4C 6740  19.856  18.373  10.542 -0.1586 -0.1210 -0.1405
  281BOLB   C1D 6741  21.001  19.338  10.464  0.4953  0.0176 -0.1356
  281BOLB   C2D 6742  21.182  19.004  10.604  0.0447 -0.0125 -0.0765
  281BOLB   C3D 6743  21.124  18.698  10.966  0.1861  0.4206  0.1882
  281BOLB   C4D 6744  21.105  18.385  11.356 -0.0743 -0.1309  0.2174
  282BOLB   NC1 6745  10.644   0.594   4.705  0.2212  0.0920 -0.3563
  282BOLB   PO1 6746  10.964   0.584   4.910  0.1420 -0.1029 -0.1453
  282BOLB   GL1 6747  10.649   0.633   5.267  0.0460  0.1684  0.1420
  282BOLB   GL2 6748  10.365   0.534   5.229 -0.1524 -0.0963 -0.3157
  282BOLB   C1A 6749  10.778   0.916   5.566  0.1033  0.1044 -0.2715
  282BOLB   C2A 6750  11.118   0.996   5.976  0.1026 -0.1718  0.0825
  282BOLB   C3A 6751  11.435   1.326   6.004 -0.3976 -0.4407  0.0122
  282BOLB   C4A 6752  11.732   1.346   5.660  0.0826 -0.0141  0.2996
  282BOLB   C1B 6753  10.274   0.683   5.622 -0.0494 -0.2818 -0.2372
  282BOLB   C2B 6754  10.347   0.920   5.938 -0.5092 -0.0314  0.0727
  282BOLB   C3B 6755  10.400   1.346   6.111  0.1817 -0.3012  0.5782
  282BOLB   C4B 6756  10.187   1.702   6.260  0.2702 -0.2801  0.0377
  282BOLB   NC2 6757  11.737   0.881   3.199 -0.2792  0.1047 -0.3169
  282BOLB   PO2 6758  11.870   0.926   3.708  0.2177 -0.2506 -0.1932
  282BOLB   GL3 6759  12.248   0.967   4.041 -0.1540  0.2153  0.1464
  282BOLB   GL4 6760  12.045   1.074   4.140  0.2207 -0.0835  0.2304
  282BOLB   C1C 6761  12.441   1.114   4.450 -0.0882  0.1099 -0.4316
  282BOLB   C2C 6762  12.602   1.198   4.802 -0.0433  0.1333 -0.1952
  282BOLB   C3C 6763  12.296   1.420   5.144  0.1120 -0.2560  0.0835
  282BOLB   C4C 6764  11.877   1.412   5.308 -0.0682  0.1888 -0.2544
  282BOLB   C1D 6765  12.143   1.550   4.238  0.2059  0.0438 -0.0892
  282BOLB   C2D 6766  12.373   1.596   4.631 -0.3417 -0.2594 -0.1029
  282BOLB   C3D 6767  12.676   1.729   4.922  0.1466  0.3151 -0.0174
  282BOLB   C4D 6768  12.818   1.477   5.322 -0.0483 -0.4203 -0.1718
  283BOLB   NC1 6769  17.761   2.998  18.639  0.0826  0.2037  0.0221
  283BOLB   PO1 6770  18.160   2.846  18.873  0.1498  0.1105  0.0233
  283BOLB   GL1 6771  18.161   2.456  18.989  0.6028  0.1263  0.2452
  283BOLB   GL2 6772  18.366   2.413  18.768 -0.3000 -0.0834  0.0952
  283BOLB   C1A 6773  18.147   1.994  19.198  0.0114 -0.0027  0.0262
  283BOLB   C2A 6774  18.254   1.542  19.453  0.1197 -0.0359  0.2836
  283BOLB   C3A 6775  18.208   1.173  19.467  0.4852 -0.0548 -0.0146
  283BOLB   C4A 6776  18.302   0.866  19.702 -0.1005 -0.0463 -0.2352
  283BOLB   C1B 6777  18.625   2.217  18.958  0.0908  0.3298  0.1754
  283BOLB   C2B 6778  18.934   1.958  19.179  0.3193 -0.1922  0.1608
  283BOLB   C3B 6779  18.934   1.572  19.399  0.0540  0.0596  0.0972
  283BOLB   C4B 6780  18.760   1.087  19.397 -0.2453  0.1574 -0.0028
  283BOLB   NC2 6781  18.311  -1.591  19.422  0.1398  0.0545  0.4181
  283BOLB   PO2 6782  18.303  -1.455  19.824 -0.4545 -0.3515 -0.1485
  283BOLB   GL3 6783  18.427  -1.066  19.809  0.0718 -0.2130  0.1283
  283BOLB   GL4 6784  18.525  -1.060  19.482 -0.3934  0.2076 -0.0471
  283BOLB   C1C 6785  18.299  -0.699  19.936  0.2241 -0.0977  0.2004
  283BOLB   C2C 6786  18.272  -0.304  19.930 -0.2086 -0.2506 -0.1112
  283BOLB   C3C 6787  18.178   0.038  20.054 -0.3346  0.0432  0.0054
  283BOLB   C4C 6788  18.227   0.436  19.893  0.2176 -0.0065  0.0256
  283BOLB   C1D 6789  18.673  -0.766  19.218 -0.3630 -0.0475 -0.1046
  283BOLB   C2D 6790  18.671  -0.462  18.910 -0.0731 -0.1404  0.3296
  283BOLB   C3D 6791  18.432  -0.381  18.555  0.0479 -0.0899 -0.0649
  283BOLB   C4D 6792  18.329  -0.019  18.406  0.2140  0.2922  0.2858
  284BOLB   NC1 6793  15.305  14.298   8.603  0.0426 -0.2745 -0.3388
  284BOLB   PO1 6794  15.703  14.119   8.582  0.2786  0.2484 -0.1198
  284BOLB   GL1 6795  16.065  14.272   8.288  0.1610 -0.0428 -0.1145
  284BOLB   GL2 6796  16.191  14.561   8.409  0.0168 -0.2479  0.2382
  284BOLB   C1A 6797  15.911  14.503   7.937 -0.1158  0.3584  0.1772
  284BOLB   C2A 6798  15.892  14.935   7.693 -0.0808 -0.0697  0.1263
  284BOLB   C3A 6799  15.900  15.235   7.512 -0.1476  0.0993  0.0922
  284BOLB   C4A 6800  15.587  15.344   7.322 -0.2165 -0.1871 -0.0042
  284BOLB   C1B 6801  16.055  14.871   8.249 -0.1094  0.3348  0.3198
  284BOLB   C2B 6802  15.669  14.963   8.140  0.3332 -0.0546  0.2799
  284BOLB   C3B 6803  15.518  15.235   7.843  0.1184  0.2013  0.1529
  284BOLB   C4B 6804  15.106  15.329   7.613  0.0372  0.1081 -0.0291
  284BOLB   NC2 6805  16.566  15.718   4.481  0.0099  0.1235  0.0014
  284BOLB   PO2 6806  16.777  15.699   4.928  0.2561  0.0438  0.1500
  284BOLB   GL3 6807  16.499  15.599   5.312 -0.2042  0.0923  0.0848
  284BOLB   GL4 6808  16.637  15.657   5.700 -0.1868 -0.5095  0.0583
  284BOLB   C1C 6809  16.156  15.570   5.573 -0.1715 -0.0404 -0.2969
  284BOLB   C2C 6810  15.896  15.430   6.021 -0.1965 -0.0053  0.1635
  284BOLB   C3C 6811  15.755  15.312   6.464 -0.0266  0.0997 -0.1816
  284BOLB   C4C 6812  15.539  15.458   6.881  0.0552 -0.2467 -0.0758
  284BOLB   C1D 6813  16.389  15.436   6.102  0.2575 -0.3548  0.2232
  284BOLB   C2D 6814  16.233  15.075   6.361  0.2731 -0.0021 -0.0642
  284BOLB   C3D 6815  16.171  14.990   6.784 -0.1172 -0.1008  0.3387
  284BOLB   C4D 6816  15.873  14.919   7.127  0.0198 -0.1138  0.1600
  285BOLB   NC1 6817  20.100   8.018   9.673 -0.0034 -0.2552  0.0694
  285BOLB   PO1 6818  20.463   8.052   9.579  0.0065  0.0700 -0.1343
  285BOLB   GL1 6819  20.445   8.122   9.181  0.0581  0.0336  0.1299
  285BOLB   GL2 6820  20.260   8.313   9.034  0.2615  0.1134 -0.2270
  285BOLB   C1A 6821  20.783   8.330   8.937  0.1632 -0.0356  0.1706
  285BOLB   C2A 6822  21.202   8.295   9.098 -0.1988 -0.0825  0.0123
  285BOLB   C3A 6823  21.492   8.189   8.855 -0.2631 -0.0717 -0.0654
  285BOLB   C4A 6824  21.658   8.245   8.480 -0.1751  0.0569  0.2444
  285BOLB   C1B 6825  20.450   8.143   8.636 -0.0987 -0.0371 -0.0451
  285BOLB   C2B 6826  20.439   8.140   8.172  0.2164 -0.2075 -0.0121
  285BOLB   C3B 6827  20.461   8.362   7.761 -0.1052 -0.0586 -0.1548
  285BOLB   C4B 6828  20.315   8.287   7.448  0.0147  0.1826  0.2221
  285BOLB   NC2 6829  24.126   7.891   6.982  0.0403 -0.3509 -0.0237
  285BOLB   PO2 6830  23.649   7.884   6.881 -0.1291 -0.0875  0.0263
  285BOLB   GL3 6831  23.189   8.026   7.101 -0.1736  0.0238  0.3248
  285BOLB   GL4 6832  22.840   7.955   6.934 -0.1544 -0.3815 -0.2111
  285BOLB   C1C 6833  22.919   7.916   7.456  0.2447  0.2766  0.0708
  285BOLB   C2C 6834  22.584   8.076   7.687 -0.0739  0.1844  0.1844
  285BOLB   C3C 6835  22.246   8.155   7.926 -0.3696 -0.0274 -0.0316
  285BOLB   C4C 6836  22.044   8.073   8.247 -0.2559  0.0012 -0.0708
  285BOLB   C1D 6837  22.448   7.935   7.261 -0.1106 -0.1285 -0.0984
  285BOLB   C2D 6838  22.171   7.874   7.567  0.2554  0.0463  0.0835
  285BOLB   C3D 6839  22.125   7.666   7.921  0.0581 -0.2434 -0.1311
  285BOLB   C4D 6840  21.748   7.560   8.170  0.1752 -0.0226  0.1984
  286BOLB   NC1 6841   8.181  10.507  16.574 -0.0270  0.2609 -0.0950
  286BOLB   PO1 6842   8.196  10.208  16.253 -0.0363  0.2927  0.0264
  286BOLB   GL1 6843   7.833  10.271  16.083  0.0197 -0.1462 -0.1157
  286BOLB   GL2 6844   7.880  10.547  15.949  0.0456  0.1616  0.0226
  286BOLB   C1A 6845   7.475  10.304  16.308 -0.2058  0.0130  0.1365
  286BOLB   C2A 6846   7.097  10.457  16.343 -0.2247 -0.0265 -0.0214
  286BOLB   C3A 6847   6.651  10.530  16.283  0.2065 -0.0634 -0.0944
  286BOLB   C4A 6848   6.294  10.317  16.191  0.0480  0.0455 -0.0201
  286BOLB   C1B 6849   7.485  10.759  16.069  0.1038  0.3899  0.1355
  286BOLB   C2B 6850   7.010  10.787  16.012 -0.0521 -0.0781  0.0254
  286BOLB   C3B 6851   6.662  10.945  15.642 -0.2318 -0.3630  0.1798
  286BOLB   C4B 6852   6.477  11.163  15.742  0.2322  0.0415 -0.1220
  286BOLB   NC2 6853   3.793  10.940  17.213  0.1370 -0.0328 -0.3628
  286BOLB   PO2 6854   4.073  10.956  16.884 -0.0090  0.0213  0.0360
  286BOLB   GL3 6855   4.581  10.955  16.785  0.2163  0.1705 -0.0750
  286BOLB   GL4 6856   4.686  11.009  16.441 -0.0605 -0.1554 -0.3770
  286BOLB   C1C 6857   4.934  10.795  16.881 -0.1243 -0.2537  0.0509
  286BOLB   C2C 6858   5.303  10.662  16.762  0.0621 -0.2126  0.1248
  286BOLB   C3C 6859   5.536  10.410  16.603  0.3546  0.2717  0.2664
  286BOLB   C4C 6860   5.848  10.290  16.333 -0.0173  0.3150 -0.1408
  286BOLB   C1D 6861   4.954  11.308  16.495  0.2427  0.1829  0.1802
  286BOLB   C2D 6862   5.310  11.308  16.319 -0.1562  0.1760 -0.2165
  286BOLB   C3D 6863   5.677  11.174  15.976  0.0389 -0.1843 -0.1401
  286BOLB   C4D 6864   6.018  11.026  15.620  0.1254  0.1005  0.1329
  287BOLB   NC1 6865  13.586  36.385   4.084  0.2558 -0.2830 -0.5293
  287BOLB   PO1 6866  13.909  36.061   4.135 -0.0252  0.1615 -0.0540
  287BOLB   GL1 6867  13.999  36.138   4.526 -0.2222 -0.1108 -0.1064
  287BOLB   GL2 6868  13.784  36.203   4.710  0.1925  0.1393  0.2327
  287BOLB   C1A 6869  14.272  36.312   4.848  0.1148  0.3415  0.0939
  287BOLB   C2A 6870  14.425  36.322   5.265 -0.3918 -0.0171  0.1635
  287BOLB   C3A 6871  14.524  36.380   5.646  0.2193  0.0914  0.0424
  287BOLB   C4A 6872  14.506  36.180   6.006 -0.0304 -0.0110  0.0925
  287BOLB   C1B 6873  13.875  36.375   5.134 -0.1050 -0.1824  0.3176
  287BOLB   C2B 6874  13.755  36.047   5.445  0.0378 -0.0265  0.1128
  287BOLB   C3B 6875  13.974  36.117   5.753 -0.2877 -0.0218 -0.1936
  287BOLB   C4B 6876  14.018  36.366   6.069  0.2772 -0.1162  0.1078
  287BOLB   NC2 6877  15.762  33.932   5.406 -0.0259 -0.1298  0.0986
  287BOLB   PO2 6878  15.701  33.888   5.814 -0.0989  0.0637 -0.1066
  287BOLB   GL3 6879  15.602  34.257   5.972  0.2341 -0.0190  0.3002
  287BOLB   GL4 6880  15.816  34.334   6.140  0.0440  0.4046 -0.0144
  287BOLB   C1C 6881  15.483  34.745   5.946 -0.1986  0.1388 -0.1897
  287BOLB   C2C 6882  15.343  35.281   5.785 -0.0041  0.0189 -0.0946
  287BOLB   C3C 6883  14.996  35.616   5.829 -0.3764  0.1578  0.1936
  287BOLB   C4C 6884  14.780  35.856   6.097 -0.0019  0.0144 -0.0274
  287BOLB   C1D 6885  16.018  34.677   5.843 -0.3823  0.0445 -0.1624
  287BOLB   C2D 6886  16.237  35.140   5.851 -0.0064 -0.2631 -0.2877
  287BOLB   C3D 6887  16.374  35.469   5.954 -0.1771 -0.0754  0.2707
  287BOLB   C4D 6888  16.506  35.853   5.762 -0.1328 -0.2433  0.1870
  288BOLB   NC1 6889  20.640   0.761   6.821  0.2229 -0.0043  0.0256
  288BOLB   PO1 6890  20.462   0.529   6.522 -0.3230  0.1779 -0.2811
  288BOLB   GL1 6891  20.150   0.732   6.848  0.0187  0.1686 -0.1295
  288BOLB   GL2 6892  19.835   0.552   6.714  0.0896 -0.3643 -0.0193
  288BOLB   C1A 6893  19.888   0.786   7.174  0.0739  0.0472 -0.0400
  288BOLB   C2A 6894  19.470   0.752   7.411  0.1321  0.0678  0.3933
  288BOLB   C3A 6895  19.176   0.764   7.704 -0.0353  0.0970 -0.0333
  288BOLB   C4A 6896  18.794   0.786   7.976 -0.1469  0.0045 -0.0810
  288BOLB   C1B 6897  19.400   0.722   6.905  0.4299  0.0819  0.0236
  288BOLB   C2B 6898  19.076   0.839   7.169  0.1504  0.0375 -0.2417
  288BOLB   C3B 6899  18.780   0.832   7.389  0.2319  0.2883 -0.0659
  288BOLB   C4B 6900  18.600   0.563   7.586  0.0370 -0.2216  0.0881
  288BOLB   NC2 6901  20.114  -1.006   7.102 -0.0738  0.0260 -0.0903
  288BOLB   PO2 6902  19.879  -0.852   7.484 -0.2264  0.1229  0.2231
  288BOLB   GL3 6903  19.604  -0.585   7.630 -0.0856  0.2234 -0.1731
  288BOLB   GL4 6904  19.729  -0.528   7.988 -0.1496  0.0651  0.2987
  288BOLB   C1C 6905  19.323  -0.308   7.870  0.5180  0.1231 -0.0540
  288BOLB   C2C 6906  19.051  -0.173   8.165  0.0511  0.0096 -0.1062
  288BOLB   C3C 6907  18.790   0.125   8.343 -0.1261  0.0646 -0.1069
  288BOLB   C4C 6908  18.571   0.522   8.307 -0.5732 -0.0281  0.1855
  288BOLB   C1D 6909  19.626  -0.338   8.448  0.0700  0.0042  0.0418
  288BOLB   C2D 6910  19.606  -0.147   8.783  0.4286 -0.3271 -0.2333
  288BOLB   C3D 6911  19.487   0.186   9.108 -0.0577 -0.0822 -0.0739
  288BOLB   C4D 6912  19.116   0.322   9.390  0.0115  0.3558  0.0110
  289BOLB   NC1 6913  14.272  18.710  24.779 -0.1552 -0.3554  0.1958
  289BOLB   PO1 6914  14.670  18.542  24.736  0.3061 -0.0482  0.1742
  289BOLB   GL1 6915  14.746  18.165  24.439  0.2072  0.1970  0.1360
  289BOLB   GL2 6916  15.030  18.206  24.581 -0.1568 -0.1099 -0.2515
  289BOLB   C1A 6917  14.906  18.104  24.004  0.0727  0.1135 -0.0168
  289BOLB   C2A 6918  15.130  18.036  23.661 -0.1320  0.3366  0.1328
  289BOLB   C3A 6919  15.459  17.912  23.457  0.1946 -0.3281 -0.2586
  289BOLB   C4A 6920  15.458  17.490  23.246  0.1109 -0.0184  0.0635
  289BOLB   C1B 6921  15.171  17.845  24.447 -0.2151 -0.1411  0.0157
  289BOLB   C2B 6922  15.483  17.482  24.328 -0.0496 -0.1246 -0.0573
  289BOLB   C3B 6923  15.802  17.351  24.198 -0.1900  0.0597 -0.0320
  289BOLB   C4B 6924  16.284  17.269  24.128  0.0043 -0.0376 -0.2464
  289BOLB   NC2 6925  16.424  15.909  21.418  0.0805  0.1101 -0.2376
  289BOLB   PO2 6926  16.694  16.072  21.639 -0.2810  0.1249 -0.3347
  289BOLB   GL3 6927  16.651  16.313  22.043 -0.0533 -0.2139  0.1567
  289BOLB   GL4 6928  16.863  16.246  22.362 -0.0143  0.2065 -0.0276
  289BOLB   C1C 6929  16.499  16.725  22.257  0.2572  0.1671 -0.2649
  289BOLB   C2C 6930  16.274  16.959  22.580 -0.0508 -0.2402 -0.1547
  289BOLB   C3C 6931  15.983  17.077  22.870 -0.0304 -0.0768 -0.1304
  289BOLB   C4C 6932  15.617  17.165  23.035 -0.1265 -0.0539  0.0702
  289BOLB   C1D 6933  16.825  16.576  22.596 -0.0833  0.1273  0.5543
  289BOLB   C2D 6934  16.824  16.877  22.869 -0.2131 -0.0377 -0.0842
  289BOLB   C3D 6935  16.928  17.251  23.067 -0.0721 -0.0386  0.2135
  289BOLB   C4D 6936  16.888  17.618  23.359 -0.3177 -0.2691 -0.3452
  290BOLB   NC1 6937   8.328   7.232  17.831 -0.1689  0.0024  0.4083
  290BOLB   PO1 6938   8.534   6.875  17.622 -0.0177  0.0668 -0.0126
  290BOLB   GL1 6939   8.073   6.888  17.619 -0.1468 -0.0529  0.0606
  290BOLB   GL2 6940   7.972   6.787  17.912 -0.4055  0.0508  0.1594
  290BOLB   C1A 6941   7.817   6.541  17.542  0.4500  0.1226 -0.1695
  290BOLB   C2A 6942   7.430   6.465  17.695  0.0555  0.4237  0.1146
  290BOLB   C3A 6943   7.145   6.343  18.009 -0.0552 -0.0245 -0.0707
  290BOLB   C4A 6944   6.821   6.147  18.306  0.0274 -0.5475  0.0428
  290BOLB   C1B 6945   7.592   6.654  18.149  0.0653 -0.0748 -0.0384
  290BOLB   C2B 6946   7.302   6.700  18.455  0.3331  0.2456  0.0500
  290BOLB   C3B 6947   6.823   6.887  18.426 -0.0205 -0.1712  0.2320
  290BOLB   C4B 6948   6.371   6.955  18.394  0.0161 -0.0474 -0.1367
  290BOLB   NC2 6949   4.514   6.620  19.639 -0.1134  0.0097 -0.0914
  290BOLB   PO2 6950   4.887   6.480  19.972  0.0484 -0.0217  0.1862
  290BOLB   GL3 6951   5.307   6.434  19.862  0.1304  0.1271  0.2888
  290BOLB   GL4 6952   5.549   6.614  19.942  0.1442 -0.0281  0.2412
  290BOLB   C1C 6953   5.556   6.407  19.468 -0.2292 -0.1437  0.2377
  290BOLB   C2C 6954   5.686   6.431  19.092 -0.0581  0.3741 -0.2584
  290BOLB   C3C 6955   6.023   6.452  18.770 -0.0950 -0.0883  0.0640
  290BOLB   C4C 6956   6.435   6.195  18.553 -0.0330 -0.0670 -0.2086
  290BOLB   C1D 6957   6.035   6.561  19.821 -0.1997  0.0302  0.3242
  290BOLB   C2D 6958   6.519   6.640  19.510  0.3036  0.3793  0.0362
  290BOLB   C3D 6959   6.932   6.736  19.212  0.0381  0.0650 -0.0533
  290BOLB   C4D 6960   7.359   6.472  19.083 -0.0933  0.0458 -0.1316
  291BOLB   NC1 6961  13.362  17.258  13.366 -0.1270 -0.1730 -0.3612
  291BOLB   PO1 6962  13.464  17.343  12.974  0.1394 -0.2044 -0.2452
  291BOLB   GL1 6963  13.206  17.550  12.701 -0.0007  0.1109 -0.0069
  291BOLB   GL2 6964  13.389  17.735  12.637 -0.2434  0.2074  0.3208
  291BOLB   C1A 6965  12.934  18.015  12.563 -0.3216 -0.3361 -0.0278
  291BOLB   C2A 6966  12.855  18.435  12.762 -0.1887 -0.1397  0.0382
  291BOLB   C3A 6967  12.836  18.917  12.693 -0.1226  0.2056 -0.0924
  291BOLB   C4A 6968  12.801  19.265  12.431  0.0946  0.3466  0.0525
  291BOLB   C1B 6969  13.371  18.045  12.307 -0.1128  0.2202  0.0649
  291BOLB   C2B 6970  13.046  18.448  12.310 -0.2764  0.0282  0.4968
  291BOLB   C3B 6971  12.674  18.643  12.220 -0.2123 -0.1620 -0.0733
  291BOLB   C4B 6972  12.282  18.450  11.988  0.1813  0.2833  0.0178
  291BOLB   NC2 6973  12.844  21.612  12.407  0.1206 -0.0285  0.3204
  291BOLB   PO2 6974  13.247  21.538  12.222  0.4198  0.6272  0.2820
  291BOLB   GL3 6975  13.473  21.119  12.153  0.0483 -0.0743  0.0914
  291BOLB   GL4 6976  13.201  20.942  11.867  0.2646  0.3613  0.3614
  291BOLB   C1C 6977  13.685  20.668  12.286 -0.0117 -0.2634  0.0274
  291BOLB   C2C 6978  13.493  20.459  12.614 -0.1358  0.2490  0.0390
  291BOLB   C3C 6979  13.235  20.129  12.664 -0.0641  0.0793 -0.0675
  291BOLB   C4C 6980  12.857  19.746  12.578 -0.2037  0.1159 -0.0334
  291BOLB   C1D 6981  13.465  20.606  11.784  0.1050  0.0431 -0.0645
  291BOLB   C2D 6982  13.616  20.269  11.681  0.3577 -0.0597  0.4068
  291BOLB   C3D 6983  13.952  19.973  11.668  0.1080  0.0111  0.2683
  291BOLB   C4D 6984  14.076  19.518  11.548 -0.4534  0.0192 -0.3347
  292BOLB   NC1 6985  12.844  17.437  14.027  0.1294  0.0950  0.1440
  292BOLB   PO1 6986  12.776  17.380  13.493 -0.1020  0.2671 -0.3712
  292BOLB   GL1 6987  12.483  17.316  13.126 -0.0500 -0.1168 -0.1615
  292BOLB   GL2 6988  12.625  17.577  13.062  0.0030  0.0649 -0.4472
  292BOLB   C1A 6989  12.183  17.642  12.972 -0.1902 -0.1466 -0.1358
  292BOLB   C2A 6990  11.744  17.740  12.881 -0.2451  0.0818  0.0518
  292BOLB   C3A 6991  11.337  17.933  12.772  0.0854 -0.0335  0.0947
  292BOLB   C4A 6992  11.052  18.290  12.696  0.2037  0.1228 -0.0501
  292BOLB   C1B 6993  12.565  17.960  12.828  0.0307  0.3127 -0.0061
  292BOLB   C2B 6994  12.452  18.240  12.497  0.0743 -0.6002 -0.2064
  292BOLB   C3B 6995  12.386  18.601  12.588  0.1704 -0.0757 -0.0716
  292BOLB   C4B 6996  12.360  19.030  12.470  0.0392 -0.1680 -0.1436
  292BOLB   NC2 6997   9.126  18.946  11.150  0.0621 -0.3247  0.6367
  292BOLB   PO2 6998   9.248  18.872  11.522 -0.1148  0.2460  0.0617
  292BOLB   GL3 6999   9.467  18.664  11.850 -0.3326 -0.0367  0.0527
  292BOLB   GL4 7000   9.694  18.530  11.525  0.1320 -0.0018 -0.0892
  292BOLB   C1C 7001   9.575  18.602  12.184 -0.0340  0.3214 -0.1247
  292BOLB   C2C 7002   9.967  18.651  12.419 -0.1659  0.1717  0.1519
  292BOLB   C3C 7003  10.286  18.672  12.752  0.0344 -0.1557  0.2653
  292BOLB   C4C 7004  10.608  18.399  12.814  0.3743  0.2911 -0.0640
  292BOLB   C1D 7005  10.127  18.233  11.478  0.1017  0.0938 -0.2393
  292BOLB   C2D 7006  10.540  17.924  11.603 -0.2346  0.0948 -0.0801
  292BOLB   C3D 7007  10.837  17.572  11.895  0.0459 -0.0236  0.1719
  292BOLB   C4D 7008  11.295  17.393  12.009 -0.0427 -0.2050  0.0763
  293BOLB   NC1 7009  18.994   2.365  11.025 -0.2739  0.1081  0.2406
  293BOLB   PO1 7010  18.911   1.897  11.034 -0.0410 -0.0543 -0.1670
  293BOLB   GL1 7011  18.749   1.640  10.852 -0.1411 -0.0129 -0.1566
  293BOLB   GL2 7012  18.531   1.826  10.690  0.0214  0.1283 -0.0223
  293BOLB   C1A 7013  18.527   1.232  10.738 -0.0816 -0.1762  0.4888
  293BOLB   C2A 7014  18.428   0.893  10.563 -0.0600  0.1627  0.0132
  293BOLB   C3A 7015  18.406   0.477  10.579 -0.1129  0.2664  0.2136
  293BOLB   C4A 7016  18.667   0.093  10.569  0.4417  0.3570 -0.2002
  293BOLB   C1B 7017  18.611   1.580  10.316  0.0633 -0.0224  0.0494
  293BOLB   C2B 7018  18.795   1.329   9.924 -0.0765  0.0345 -0.0931
  293BOLB   C3B 7019  19.046   1.118   9.485  0.1604 -0.1432 -0.1007
  293BOLB   C4B 7020  19.011   0.793   9.243  0.4549  0.0145  0.1137
  293BOLB   NC2 7021  19.598  -2.432  10.148  0.0840 -0.1255  0.1465
  293BOLB   PO2 7022  19.180  -2.194  10.081  0.2777 -0.1310 -0.0339
  293BOLB   GL3 7023  18.920  -1.897  10.349  0.1360 -0.1747  0.0942
  293BOLB   GL4 7024  18.785  -2.081  10.584 -0.1985  0.1016  0.3046
  293BOLB   C1C 7025  18.809  -1.624  10.611  0.1371  0.0243 -0.0073
  293BOLB   C2C 7026  18.707  -1.155  10.604  0.2360  0.0287 -0.2666
  293BOLB   C3C 7027  18.665  -0.691  10.631 -0.1404 -0.1253 -0.0363
  293BOLB   C4C 7028  18.668  -0.235  10.640 -0.1374 -0.2379  0.4417
  293BOLB   C1D 7029  18.453  -1.961  10.508 -0.2383 -0.0454 -0.0391
  293BOLB   C2D 7030  18.081  -1.760  10.449  0.0065  0.0782  0.0051
  293BOLB   C3D 7031  17.745  -1.409  10.459 -0.2107 -0.1858  0.1483
  293BOLB   C4D 7032  17.424  -1.162  10.392  0.1693  0.3715  0.2450
  294BOLB   NC1 7033  19.729   6.866   9.337  0.4454 -0.1563 -0.0972
  294BOLB   PO1 7034  19.316   6.820   9.167 -0.3579 -0.2340 -0.0364
  294BOLB   GL1 7035  19.441   6.569   8.782  0.1116  0.1111 -0.2293
  294BOLB   GL2 7036  19.614   6.215   8.796 -0.1162 -0.0979 -0.0809
  294BOLB   C1A 7037  19.337   6.478   8.345 -0.2116  0.0949 -0.1562
  294BOLB   C2A 7038  19.256   6.744   8.021 -0.0316  0.2394  0.1390
  294BOLB   C3A 7039  19.664   6.954   7.690 -0.1568 -0.1064  0.1547
  294BOLB   C4A 7040  20.042   7.115   7.441 -0.1053 -0.2904 -0.0464
  294BOLB   C1B 7041  19.765   6.188   8.351  0.1701  0.2560 -0.1518
  294BOLB   C2B 7042  19.724   5.886   7.939 -0.2724  0.0928 -0.1892
  294BOLB   C3B 7043  20.050   5.765   7.607 -0.1885  0.0894  0.1994
  294BOLB   C4B 7044  20.274   6.164   7.447  0.0907  0.3607  0.0440
  294BOLB   NC2 7045  21.403   6.770   6.090 -0.0838  0.0774  0.0107
  294BOLB   PO2 7046  21.914   6.806   5.939  0.0450  0.0915 -0.4009
  294BOLB   GL3 7047  21.831   6.809   6.408  0.0683 -0.5521  0.0643
  294BOLB   GL4 7048  21.909   6.732   6.679 -0.0497 -0.2001 -0.2838
  294BOLB   C1C 7049  21.713   7.213   6.690  0.1178  0.1593  0.2171
  294BOLB   C2C 7050  21.344   7.227   6.986  0.0203  0.1126 -0.0383
  294BOLB   C3C 7051  20.894   7.218   7.169 -0.0184  0.2724  0.2575
  294BOLB   C4C 7052  20.500   7.049   7.364  0.0968 -0.0989  0.0050
  294BOLB   C1D 7053  21.557   6.747   6.966 -0.0648  0.2204  0.0760
  294BOLB   C2D 7054  21.571   6.460   7.288  0.2870  0.6428 -0.1276
  294BOLB   C3D 7055  21.396   6.524   7.756  0.2014  0.1348  0.0316
  294BOLB   C4D 7056  21.217   6.495   8.106 -0.0650 -0.3447  0.3072
  295BOLB   NC1 7057  18.583  16.149  10.838  0.0584 -0.0692  0.0440
  295BOLB   PO1 7058  18.550  16.667  10.906  0.2733 -0.0532 -0.1623
  295BOLB   GL1 7059  18.532  16.971  10.553 -0.0379  0.2556  0.0227
  295BOLB   GL2 7060  18.335  17.203  10.611 -0.0104  0.1748  0.0014
  295BOLB   C1A 7061  18.665  17.078  10.202  0.2318 -0.2805 -0.1317
  295BOLB   C2A 7062  18.494  17.027   9.704 -0.0072  0.0222 -0.3470
  295BOLB   C3A 7063  18.542  17.396   9.478 -0.1963  0.1206  0.2490
  295BOLB   C4A 7064  18.447  17.568   9.028  0.0446  0.2271 -0.0103
  295BOLB   C1B 7065  18.575  17.611  10.509  0.1621  0.0620 -0.0463
  295BOLB   C2B 7066  18.458  18.021  10.506 -0.1326  0.0615 -0.0051
  295BOLB   C3B 7067  18.121  18.184  10.580  0.0882 -0.0005  0.2667
  295BOLB   C4B 7068  17.862  18.305  10.308 -0.0359 -0.2110 -0.1280
  295BOLB   NC2 7069  19.054  19.100   8.044 -0.0341  0.1266  0.2249
  295BOLB   PO2 7070  18.878  18.920   7.609 -0.3648 -0.1107 -0.1378
  295BOLB   GL3 7071  18.965  18.573   7.736 -0.0737 -0.3786  0.0408
  295BOLB   GL4 7072  18.704  18.305   7.553  0.1003  0.1672  0.0244
  295BOLB   C1C 7073  19.228  18.371   7.925  0.2265  0.1996 -0.0350
  295BOLB   C2C 7074  19.240  17.954   8.154  0.1194 -0.1201  0.1477
  295BOLB   C3C 7075  18.989  17.621   8.329  0.0824 -0.0394 -0.1005
  295BOLB   C4C 7076  18.604  17.582   8.570 -0.4034  0.2311  0.0733
  295BOLB   C1D 7077  18.547  18.530   7.979 -0.0398  0.0908  0.0149
  295BOLB   C2D 7078  18.482  18.415   8.375  0.1067  0.1386  0.1344
  295BOLB   C3D 7079  18.393  18.131   8.761  0.3791 -0.0336  0.0207
  295BOLB   C4D 7080  18.357  18.062   9.188  0.1128 -0.2547 -0.3534
  296BOLB   NC1 7081  18.224  35.381   4.312  0.1474 -0.3489 -0.0285
  296BOLB   PO1 7082  18.259  35.493   4.651  0.0382 -0.4784 -0.0859
  296BOLB   GL1 7083  17.983  35.793   4.830 -0.2676 -0.3322  0.1146
  296BOLB   GL2 7084  17.715  35.706   5.139 -0.0480 -0.0144 -0.1140
  296BOLB   C1A 7085  17.869  36.160   5.147  0.0355  0.1720  0.0052
  296BOLB   C2A 7086  17.645  36.390   5.515 -0.0808  0.0177 -0.0823
  296BOLB   C3A 7087  17.314  36.476   5.753 -0.0895 -0.0492 -0.1006
  296BOLB   C4A 7088  17.043  36.200   5.689  0.1344 -0.2485 -0.0854
  296BOLB   C1B 7089  17.384  36.031   5.167 -0.0482 -0.0947 -0.2059
  296BOLB   C2B 7090  17.397  36.518   4.925 -0.1821 -0.2611 -0.0561
  296BOLB   C3B 7091  17.324  37.002   4.830  0.1790  0.0754 -0.0700
  296BOLB   C4B 7092  17.300  37.268   5.179 -0.0602  0.1044  0.1465
  296BOLB   NC2 7093  17.149  33.743   5.565  0.0755 -0.2472  0.2545
  296BOLB   PO2 7094  16.803  33.784   5.712  0.1151 -0.2976  0.1872
  296BOLB   GL3 7095  16.640  34.264   5.747 -0.0289  0.1449 -0.0831
  296BOLB   GL4 7096  16.476  34.304   5.996 -0.0314  0.1526 -0.1661
  296BOLB   C1C 7097  16.507  34.666   5.618 -0.0650  0.2277 -0.1741
  296BOLB   C2C 7098  16.573  35.053   5.415  0.1297  0.2081  0.0036
  296BOLB   C3C 7099  16.775  35.434   5.579  0.0432 -0.0454 -0.1187
  296BOLB   C4C 7100  17.014  35.879   5.605 -0.0748  0.1319  0.0893
  296BOLB   C1D 7101  16.474  34.723   6.165  0.1508  0.0658 -0.0060
  296BOLB   C2D 7102  16.505  35.098   6.279 -0.1215  0.0207  0.0092
  296BOLB   C3D 7103  16.637  35.532   6.359 -0.1645  0.3161 -0.1370
  296BOLB   C4D 7104  16.821  35.764   6.092  0.0257  0.0912  0.1269
  297BOLB   NC1 7105   9.280  12.638  19.365 -0.2542  0.3496  0.1709
  297BOLB   PO1 7106   9.218  12.441  19.017 -0.0605 -0.0898  0.0220
  297BOLB   GL1 7107   8.854  12.339  19.341 -0.0396 -0.4993 -0.1187
  297BOLB   GL2 7108   8.734  12.595  19.520 -0.0786  0.1335 -0.1459
  297BOLB   C1A 7109   8.712  12.112  19.677  0.0932  0.3149 -0.1617
  297BOLB   C2A 7110   8.360  12.311  19.935 -0.2061  0.3078 -0.4053
  297BOLB   C3A 7111   8.076  12.156  20.352 -0.0221 -0.2364  0.0429
  297BOLB   C4A 7112   7.745  12.161  20.671  0.0187  0.2178  0.3180
  297BOLB   C1B 7113   8.387  12.408  19.319 -0.0719  0.1986  0.1410
  297BOLB   C2B 7114   8.166  12.000  19.483 -0.0975  0.2253  0.0149
  297BOLB   C3B 7115   7.871  11.973  19.891  0.0754  0.1882 -0.2114
  297BOLB   C4B 7116   7.576  12.042  20.170 -0.3375  0.1697 -0.1575
  297BOLB   NC2 7117   5.590  12.261  21.903  0.1486 -0.0835  0.4652
  297BOLB   PO2 7118   5.524  12.257  21.327  0.1538 -0.0068 -0.0461
  297BOLB   GL3 7119   5.972  12.137  21.148  0.1849 -0.0994  0.0367
  297BOLB   GL4 7120   5.930  12.143  20.886  0.4097 -0.3319  0.1234
  297BOLB   C1C 7121   6.351  11.986  21.347  0.0114 -0.0532  0.1321
  297BOLB   C2C 7122   6.782  11.817  21.359 -0.0254 -0.1467  0.4561
  297BOLB   C3C 7123   7.184  11.730  21.320  0.1391 -0.1659  0.2674
  297BOLB   C4C 7124   7.507  11.917  20.976  0.0947  0.0901  0.1745
  297BOLB   C1D 7125   6.417  11.861  20.747 -0.0905 -0.0541 -0.0367
  297BOLB   C2D 7126   6.697  11.847  20.414  0.1815  0.0148 -0.0041
  297BOLB   C3D 7127   6.788  12.232  20.090  0.0230  0.3592 -0.2253
  297BOLB   C4D 7128   6.770  12.594  19.766 -0.2248 -0.0766 -0.0579
  298BOLB   NC1 7129  19.846   8.161  21.938  0.0768 -0.0830 -0.0280
  298BOLB   PO1 7130  20.000   7.852  22.225  0.3327 -0.0352 -0.2010
  298BOLB   GL1 7131  20.211   7.537  22.427  0.0854  0.1430  0.4558
  298BOLB   GL2 7132  20.461   7.280  22.336 -0.3808 -0.1270 -0.0718
  298BOLB   C1A 7133  20.349   7.274  22.851  0.2397 -0.1748  0.2169
  298BOLB   C2A 7134  20.519   7.005  23.067 -0.2459  0.0728 -0.3379
  298BOLB   C3A 7135  20.797   6.765  23.239  0.1768  0.0317 -0.1370
  298BOLB   C4A 7136  21.225   6.548  23.361 -0.1115  0.0226 -0.2959
  298BOLB   C1B 7137  20.771   7.106  22.558  0.2649 -0.1362 -0.0810
  298BOLB   C2B 7138  20.994   6.815  22.811 -0.0846  0.1281  0.0874
  298BOLB   C3B 7139  21.379   6.865  23.044  0.1323 -0.1123  0.1690
  298BOLB   C4B 7140  21.641   6.828  23.346 -0.0902 -0.3439 -0.3516
  298BOLB   NC2 7141  21.844   6.369  25.758 -0.3250  0.1148  0.2211
  298BOLB   PO2 7142  21.723   5.913  25.651 -0.0475  0.0073  0.0402
  298BOLB   GL3 7143  21.568   5.899  25.276  0.0114 -0.1044  0.1288
  298BOLB   GL4 7144  21.650   5.616  25.150  0.0433 -0.1714 -0.0371
  298BOLB   C1C 7145  21.629   6.046  24.889 -0.1559  0.0297 -0.0641
  298BOLB   C2C 7146  21.615   6.297  24.524 -0.0090 -0.3990  0.1868
  298BOLB   C3C 7147  21.644   6.321  24.039  0.3243  0.2968  0.3166
  298BOLB   C4C 7148  21.639   6.368  23.607  0.1881 -0.0096 -0.0640
  298BOLB   C1D 7149  21.194   5.679  24.872 -0.1098 -0.2919 -0.1158
  298BOLB   C2D 7150  21.053   5.508  24.551 -0.4744  0.1079  0.2135
  298BOLB   C3D 7151  20.954   5.078  24.332 -0.2954  0.0866  0.2130
  298BOLB   C4D 7152  21.211   4.848  24.023  0.2617  0.1646 -0.3960
  299BOLB   NC1 7153  14.068   5.198  21.571  0.2142 -0.1406 -0.1404
  299BOLB   PO1 7154  14.242   4.807  21.469 -0.0859  0.3568  0.0507
  299BOLB   GL1 7155  14.094   4.549  21.707 -0.0265 -0.2217 -0.2329
  299BOLB   GL2 7156  13.984   4.312  21.812  0.2349  0.0685 -0.0121
  299BOLB   C1A 7157  14.020   4.608  22.182 -0.0544 -0.1509  0.1160
  299BOLB   C2A 7158  13.935   4.581  22.665  0.2151  0.1376  0.1393
  299BOLB   C3A 7159  13.732   4.212  22.963 -0.1433  0.1785  0.2022
  299BOLB   C4A 7160  13.854   4.015  23.289  0.0007 -0.2148  0.1567
  299BOLB   C1B 7161  14.163   4.049  22.078  0.3015 -0.2304  0.0695
  299BOLB   C2B 7162  14.319   3.585  22.280 -0.1995 -0.0896  0.2175
  299BOLB   C3B 7163  14.481   3.511  22.587  0.2606  0.0312 -0.1167
  299BOLB   C4B 7164  14.679   3.106  22.740 -0.2258  0.2729 -0.0393
  299BOLB   NC2 7165  14.403   2.340  25.002 -0.0860 -0.0414 -0.2888
  299BOLB   PO2 7166  13.992   2.623  24.946 -0.0564  0.4063 -0.0231
  299BOLB   GL3 7167  14.253   2.574  24.589  0.0157 -0.2963 -0.2315
  299BOLB   GL4 7168  14.168   2.395  24.382 -0.1027 -0.2828 -0.0079
  299BOLB   C1C 7169  14.325   2.893  24.184 -0.0896 -0.1060 -0.0181
  299BOLB   C2C 7170  14.568   3.273  23.983  0.3573 -0.0273  0.0883
  299BOLB   C3C 7171  14.567   3.621  23.623  0.2361  0.3691 -0.0362
  299BOLB   C4C 7172  14.305   3.861  23.390  0.1231  0.3094 -0.0265
  299BOLB   C1D 7173  14.295   2.364  23.974  0.0799  0.1763 -0.2755
  299BOLB   C2D 7174  14.331   2.491  23.540  0.1022  0.2456  0.1878
  299BOLB   C3D 7175  14.558   2.377  23.156  0.1636  0.3018  0.1311
  299BOLB   C4D 7176  14.615   1.974  22.955 -0.2216 -0.3495 -0.2764
  300BOLB   NC1 7177  12.411   6.768  22.510 -0.3005 -0.2408  0.1312
  300BOLB   PO1 7178  12.105   6.897  22.311  0.4048 -0.1595 -0.0411
  300BOLB   GL1 7179  11.987   6.777  22.755  0.2705 -0.0017  0.3509
  300BOLB   GL2 7180  12.281   6.588  22.938  0.0410 -0.2003  0.1288
  300BOLB   C1A 7181  11.861   6.677  23.190  0.0819 -0.0463 -0.1847
  300BOLB   C2A 7182  11.498   6.394  23.284  0.2072  0.2406  0.1447
  300BOLB   C3A 7183  11.168   5.969  23.192  0.0648  0.4791 -0.0486
  300BOLB   C4A 7184  10.767   5.935  23.276 -0.0635 -0.0005 -0.1180
  300BOLB   C1B 7185  12.235   6.455  23.345 -0.1260  0.1055 -0.1631
  300BOLB   C2B 7186  11.880   6.267  23.547 -0.2415  0.2517 -0.1980
  300BOLB   C3B 7187  11.589   6.154  23.918 -0.1338  0.2220  0.4459
  300BOLB   C4B 7188  11.772   5.933  24.332 -0.0160 -0.1523 -0.1135
  300BOLB   NC2 7189   9.492   5.224  24.830  0.2726 -0.1647 -0.2722
  300BOLB   PO2 7190   9.759   4.870  24.771  0.0456  0.1487 -0.0187
  300BOLB   GL3 7191   9.940   5.165  24.583  0.1656 -0.0926  0.1480
  300BOLB   GL4 7192   9.691   5.267  24.383  0.0669  0.0563 -0.0666
  300BOLB   C1C 7193  10.078   5.070  24.092 -0.0242  0.1158  0.1202
  300BOLB   C2C 7194  10.091   5.084  23.641 -0.0155  0.2598  0.2808
  300BOLB   C3C 7195  10.351   5.236  23.441 -0.0812 -0.0365 -0.1726
  300BOLB   C4C 7196  10.548   5.681  23.565 -0.0724 -0.2214  0.0550
  300BOLB   C1D 7197   9.776   5.397  23.928 -0.0708  0.2921 -0.0724
  300BOLB   C2D 7198  10.105   5.615  23.810  0.0866  0.0577  0.1153
  300BOLB   C3D 7199  10.169   6.001  23.557 -0.0183 -0.0044 -0.2931
  300BOLB   C4D 7200  10.279   6.184  23.100 -0.0075 -0.1381 -0.1729
  301BOLB   NC1 7201  14.631   5.787  21.919  0.0080  0.1907  0.0761
  301BOLB   PO1 7202  14.359   5.569  21.762 -0.2235  0.0895  0.1182
  301BOLB   GL1 7203  14.445   5.206  21.882  0.0878 -0.1080  0.1636
  301BOLB   GL2 7204  14.325   4.946  21.969 -0.5378  0.0486 -0.2037
  301BOLB   C1A 7205  14.800   4.984  22.157 -0.1837 -0.2808  0.0663
  301BOLB   C2A 7206  14.691   4.822  22.506 -0.0940 -0.0583  0.3347
  301BOLB   C3A 7207  14.379   4.846  22.880  0.0306 -0.2027  0.0372
  301BOLB   C4A 7208  14.295   4.742  23.337  0.1599 -0.3875 -0.0291
  301BOLB   C1B 7209  14.265   5.001  22.373  0.0538 -0.1382  0.1167
  301BOLB   C2B 7210  14.086   5.180  22.767 -0.2333 -0.1221 -0.0892
  301BOLB   C3B 7211  13.770   4.994  22.847 -0.0254 -0.2031 -0.1422
  301BOLB   C4B 7212  13.594   4.635  23.175  0.2316 -0.2679  0.3249
  301BOLB   NC2 7213  13.904   3.924  25.148 -0.1326  0.2801 -0.0266
  301BOLB   PO2 7214  14.309   3.693  25.290  0.0457 -0.0881  0.2387
  301BOLB   GL3 7215  14.412   3.926  24.980 -0.0919  0.0962 -0.2781
  301BOLB   GL4 7216  14.241   3.660  24.736  0.2278  0.1387 -0.0018
  301BOLB   C1C 7217  14.560   4.107  24.714 -0.2130  0.1755 -0.1593
  301BOLB   C2C 7218  14.597   4.304  24.360 -0.1642 -0.2046  0.0118
  301BOLB   C3C 7219  14.495   4.549  24.052 -0.2336  0.1434 -0.1066
  301BOLB   C4C 7220  14.423   4.724  23.689 -0.1298 -0.0887 -0.0967
  301BOLB   C1D 7221  14.075   3.590  24.167  0.1741  0.0674 -0.1145
  301BOLB   C2D 7222  13.851   3.948  23.845  0.0734  0.0510  0.0030
  301BOLB   C3D 7223  13.614   4.168  23.728 -0.3286  0.4603  0.0886
  301BOLB   C4D 7224  13.494   4.541  23.802 -0.0722 -0.4893  0.1942
  302BOLB   NC1 7225  21.399  13.761  20.972  0.0439  0.1251  0.0763
  302BOLB   PO1 7226  21.005  13.955  21.116 -0.0163  0.2291 -0.2327
  302BOLB   GL1 7227  21.298  13.931  21.509 -0.6496  0.0227 -0.2425
  302BOLB   GL2 7228  21.073  14.030  21.726  0.0701  0.0452  0.1494
  302BOLB   C1A 7229  21.689  13.938  21.690  0.0523 -0.1743 -0.3056
  302BOLB   C2A 7230  21.866  13.900  22.044  0.0375 -0.1769 -0.1337
  302BOLB   C3A 7231  22.129  14.063  22.242  0.0776 -0.2615  0.3764
  302BOLB   C4A 7232  22.385  14.335  22.494 -0.1048 -0.1296  0.1897
  302BOLB   C1B 7233  21.418  14.142  22.030 -0.1529 -0.4770 -0.1311
  302BOLB   C2B 7234  21.694  14.234  22.397 -0.0882  0.0473  0.2272
  302BOLB   C3B 7235  21.843  14.575  22.800  0.2910  0.0980 -0.0640
  302BOLB   C4B 7236  21.768  14.488  23.331  0.0465  0.3403  0.0785
  302BOLB   NC2 7237  23.527  15.341  24.090 -0.2247  0.1667  0.1000
  302BOLB   PO2 7238  23.373  15.849  24.113 -0.0019  0.2328 -0.0753
  302BOLB   GL3 7239  23.096  15.561  24.197  0.0454 -0.1663 -0.0776
  302BOLB   GL4 7240  22.785  15.683  24.265 -0.4759 -0.1597 -0.0334
  302BOLB   C1C 7241  23.049  15.160  23.815 -0.2957 -0.0231 -0.0712
  302BOLB   C2C 7242  22.772  14.931  23.497 -0.1088  0.2033  0.1009
  302BOLB   C3C 7243  22.548  14.941  23.087  0.1184  0.3587  0.1441
  302BOLB   C4C 7244  22.370  14.650  22.839 -0.2122  0.0238  0.3168
  302BOLB   C1D 7245  22.597  15.248  24.032 -0.2373  0.3568 -0.1076
  302BOLB   C2D 7246  22.363  14.951  23.779 -0.0238 -0.1059  0.0766
  302BOLB   C3D 7247  22.021  14.893  23.649  0.0885 -0.0974 -0.2089
  302BOLB   C4D 7248  21.546  14.758  23.719  0.2801  0.2295 -0.0635
  303BOLB   NC1 7249  15.561   0.377   2.643  0.0305  0.3614 -0.3984
  303BOLB   PO1 7250  15.596   0.717   2.366  0.0503 -0.1509 -0.1436
  303BOLB   GL1 7251  15.617   1.097   2.719  0.1552 -0.0075  0.2025
  303BOLB   GL2 7252  15.359   1.364   2.841 -0.0700 -0.1202  0.1931
  303BOLB   C1A 7253  15.660   1.198   3.199 -0.3066 -0.1562  0.2548
  303BOLB   C2A 7254  15.785   1.287   3.614 -0.0928 -0.0259 -0.0147
  303BOLB   C3A 7255  15.762   1.541   3.984 -0.0500  0.2885 -0.2375
  303BOLB   C4A 7256  15.514   1.450   4.284  0.2141 -0.1490 -0.0003
  303BOLB   C1B 7257  15.193   1.332   3.182 -0.3036  0.0075  0.2001
  303BOLB   C2B 7258  14.805   1.455   3.308  0.0673 -0.2219 -0.6268
  303BOLB   C3B 7259  14.570   1.656   3.640  0.0032  0.2583 -0.2578
  303BOLB   C4B 7260  14.187   1.605   3.736  0.1845  0.0779 -0.2140
  303BOLB   NC2 7261  15.610  -0.374   3.633 -0.0386  0.1447  0.0459
  303BOLB   PO2 7262  15.312  -0.255   3.435 -0.0620 -0.1584 -0.0525
  303BOLB   GL3 7263  15.262  -0.004   3.743  0.0554  0.0285 -0.0656
  303BOLB   GL4 7264  15.336   0.249   3.565  0.0614 -0.2070 -0.1885
  303BOLB   C1C 7265  15.036   0.182   4.212  0.1570 -0.1177  0.2471
  303BOLB   C2C 7266  15.089   0.453   4.439 -0.2076  0.1024  0.3661
  303BOLB   C3C 7267  15.011   0.835   4.586 -0.1176 -0.0747 -0.0479
  303BOLB   C4C 7268  15.310   1.192   4.599  0.1851  0.2563 -0.0215
  303BOLB   C1D 7269  15.340   0.518   3.802  0.1827 -0.3210  0.1441
  303BOLB   C2D 7270  14.964   0.730   4.036 -0.1962  0.0890  0.1636
  303BOLB   C3D 7271  14.946   1.148   4.200 -0.1124 -0.0591 -0.3453
  303BOLB   C4D 7272  15.081   1.596   4.414 -0.3263  0.1792 -0.2169
  304BOLB   NC1 7273  21.568   7.615  10.851  0.1223 -0.0647  0.0910
  304BOLB   PO1 7274  21.851   7.811  11.134  0.1861 -0.0162  0.2141
  304BOLB   GL1 7275  22.283   7.755  10.901 -0.1020 -0.2767 -0.2232
  304BOLB   GL2 7276  22.468   7.627  11.089 -0.2642  0.1351 -0.2589
  304BOLB   C1A 7277  22.609   7.864  10.653  0.1107  0.1043 -0.2983
  304BOLB   C2A 7278  23.004   7.884  10.356 -0.1731 -0.0276 -0.0201
  304BOLB   C3A 7279  23.413   7.615  10.377  0.0631  0.1183 -0.3878
  304BOLB   C4A 7280  23.794   7.448  10.172  0.0344 -0.0761 -0.1161
  304BOLB   C1B 7281  22.788   7.377  10.860  0.2413 -0.1640 -0.2239
  304BOLB   C2B 7282  23.064   7.284  10.701 -0.0202 -0.1281 -0.0181
  304BOLB   C3B 7283  23.563   7.204  10.675 -0.0476 -0.2502 -0.4542
  304BOLB   C4B 7284  24.036   7.263  10.645 -0.0855 -0.0058  0.0045
  304BOLB   NC2 7285  25.735   7.670   8.917 -0.0003  0.0345 -0.1120
  304BOLB   PO2 7286  25.654   8.086   8.766 -0.0771  0.0813 -0.0304
  304BOLB   GL3 7287  25.360   7.996   8.966 -0.0137  0.0892 -0.0517
  304BOLB   GL4 7288  25.211   8.310   9.088 -0.0434 -0.0817  0.0870
  304BOLB   C1C 7289  25.174   7.722   9.326 -0.2946 -0.0051  0.0595
  304BOLB   C2C 7290  24.912   7.650   9.704 -0.0944  0.1020  0.0623
  304BOLB   C3C 7291  24.484   7.608   9.807 -0.1595 -0.1993  0.0698
  304BOLB   C4C 7292  24.066   7.451   9.919 -0.0102  0.0480 -0.1732
  304BOLB   C1D 7293  25.125   8.262   9.514 -0.0774  0.0385  0.4224
  304BOLB   C2D 7294  24.943   8.433   9.899 -0.0899  0.0754  0.0471
  304BOLB   C3D 7295  24.729   8.681  10.271  0.2734  0.1095 -0.0520
  304BOLB   C4D 7296  24.483   8.650  10.544 -0.0649 -0.1719  0.0296
  305BOLB   NC1 7297  18.465  18.113  15.811  0.0392  0.0935 -0.1216
  305BOLB   PO1 7298  18.749  18.412  15.583 -0.0546 -0.0303 -0.1587
  305BOLB   GL1 7299  18.798  18.807  15.793 -0.1196 -0.1803  0.0365
  305BOLB   GL2 7300  19.032  18.788  16.033 -0.2729  0.0868  0.1565
  305BOLB   C1A 7301  18.801  19.257  15.743 -0.5575 -0.0901 -0.1264
  305BOLB   C2A 7302  19.059  19.542  15.559  0.1269  0.0061 -0.1777
  305BOLB   C3A 7303  19.351  19.756  15.262 -0.2370  0.2491  0.0292
  305BOLB   C4A 7304  19.502  20.156  14.990 -0.0327  0.2134 -0.2338
  305BOLB   C1B 7305  19.249  19.163  16.031 -0.1555  0.1539 -0.1198
  305BOLB   C2B 7306  19.357  19.560  16.198  0.2463 -0.0920  0.5993
  305BOLB   C3B 7307  19.164  19.966  16.103 -0.3063  0.3167 -0.1768
  305BOLB   C4B 7308  19.449  20.347  15.832 -0.2231 -0.3496  0.1191
  305BOLB   NC2 7309  20.561  22.344  13.717  0.2884  0.3199  0.0590
  305BOLB   PO2 7310  20.239  21.897  13.708  0.1116  0.4657  0.2662
  305BOLB   GL3 7311  20.081  21.423  13.676  0.1973 -0.0722  0.0015
  305BOLB   GL4 7312  19.742  21.467  13.837  0.0635 -0.0725  0.0551
  305BOLB   C1C 7313  20.109  21.160  14.098  0.0707 -0.1391 -0.0614
  305BOLB   C2C 7314  20.128  20.769  14.319 -0.0900 -0.1923  0.0053
  305BOLB   C3C 7315  20.006  20.430  14.458  0.2540  0.1475 -0.3572
  305BOLB   C4C 7316  19.611  20.222  14.610  0.1033 -0.3248 -0.1356
  305BOLB   C1D 7317  19.495  21.319  13.524  0.0761 -0.0833  0.1363
  305BOLB   C2D 7318  19.523  20.889  13.378 -0.1087  0.2124  0.0438
  305BOLB   C3D 7319  19.473  20.526  13.659 -0.3891 -0.2382  0.1347
  305BOLB   C4D 7320  19.291  20.205  13.694 -0.0645  0.1521  0.2695
  306BOLB   NC1 7321  19.870  14.448  21.607 -0.0247 -0.1661 -0.0626
  306BOLB   PO1 7322  20.133  14.766  21.419 -0.1057  0.1889 -0.3356
  306BOLB   GL1 7323  20.468  15.068  21.620  0.0625 -0.1502 -0.2895
  306BOLB   GL2 7324  20.393  15.250  21.965  0.1150  0.1061 -0.4668
  306BOLB   C1A 7325  20.837  15.133  21.827 -0.2269  0.3452  0.1015
  306BOLB   C2A 7326  21.058  15.409  21.995 -0.0382 -0.2179 -0.0275
  306BOLB   C3A 7327  21.466  15.573  21.967 -0.1251 -0.1249 -0.1728
  306BOLB   C4A 7328  21.612  15.885  22.293  0.0435 -0.0574  0.3063
  306BOLB   C1B 7329  20.268  15.593  22.152 -0.1038 -0.1596 -0.1577
  306BOLB   C2B 7330  20.359  15.885  22.529 -0.1397  0.0768  0.1013
  306BOLB   C3B 7331  20.492  15.955  23.029 -0.1203 -0.5443  0.0787
  306BOLB   C4B 7332  20.688  16.306  23.193 -0.0896  0.0860 -0.0938
  306BOLB   NC2 7333  22.377  17.075  24.147 -0.0815  0.1922 -0.0249
  306BOLB   PO2 7334  22.078  16.938  24.324 -0.0501 -0.0967  0.1828
  306BOLB   GL3 7335  22.057  16.804  23.909  0.0459  0.1023  0.1208
  306BOLB   GL4 7336  22.108  17.119  23.727 -0.1252 -0.1407 -0.2591
  306BOLB   C1C 7337  21.659  16.985  23.708 -0.3516  0.0327 -0.0772
  306BOLB   C2C 7338  21.542  16.773  23.335  0.1958 -0.0497  0.3135
  306BOLB   C3C 7339  21.511  16.523  22.892  0.2801 -0.1633  0.0117
  306BOLB   C4C 7340  21.550  16.205  22.545  0.1534 -0.0088  0.2633
  306BOLB   C1D 7341  21.936  17.132  23.283  0.2272 -0.1092 -0.0887
  306BOLB   C2D 7342  21.597  17.042  22.942  0.2591 -0.2035  0.0302
  306BOLB   C3D 7343  21.302  16.884  22.709 -0.2158 -0.3401  0.0556
  306BOLB   C4D 7344  21.134  16.496  22.539 -0.2859 -0.0539  0.2062
  307BOLB   NC1 7345  19.505  13.190   9.613  0.1607 -0.0774  0.0645
  307BOLB   PO1 7346  20.013  13.341   9.455 -0.0372  0.1306 -0.0522
  307BOLB   GL1 7347  20.147  13.624   9.133 -0.0232 -0.1353  0.2251
  307BOLB   GL2 7348  19.943  13.917   8.951  0.3718 -0.1062  0.1704
  307BOLB   C1A 7349  20.430  13.815   8.760 -0.1339 -0.0348  0.2659
  307BOLB   C2A 7350  20.769  14.095   8.773 -0.2127 -0.2125  0.0815
  307BOLB   C3A 7351  21.161  14.222   8.588 -0.1981 -0.0744 -0.1644
  307BOLB   C4A 7352  21.310  14.089   8.194  0.0887 -0.0059  0.1319
  307BOLB   C1B 7353  19.980  13.950   8.586 -0.0413  0.0596  0.1234
  307BOLB   C2B 7354  20.166  14.154   8.171 -0.3739 -0.1654 -0.0412
  307BOLB   C3B 7355  20.363  14.534   8.201  0.1898  0.1276  0.2543
  307BOLB   C4B 7356  20.156  14.898   8.187 -0.0407 -0.2654 -0.4781
  307BOLB   NC2 7357  21.621  14.067   6.144 -0.3185  0.1624  0.3717
  307BOLB   PO2 7358  21.464  14.373   5.893 -0.1480  0.0731 -0.1946
  307BOLB   GL3 7359  21.259  14.361   6.305 -0.1957 -0.0033  0.1435
  307BOLB   GL4 7360  20.960  14.377   6.331 -0.0195 -0.0243  0.2172
  307BOLB   C1C 7361  21.392  14.554   6.667 -0.1095  0.2835  0.0388
  307BOLB   C2C 7362  21.551  14.683   7.063 -0.2125 -0.1321 -0.0895
  307BOLB   C3C 7363  21.553  14.497   7.505  0.3361 -0.0905 -0.0355
  307BOLB   C4C 7364  21.254  14.460   7.876 -0.2304  0.2644  0.2512
  307BOLB   C1D 7365  20.849  14.321   6.772 -0.2043 -0.2628 -0.1160
  307BOLB   C2D 7366  20.595  14.057   7.105 -0.0574  0.1738  0.0901
  307BOLB   C3D 7367  20.254  13.927   7.401  0.1456 -0.2789 -0.1850
  307BOLB   C4D 7368  20.023  13.807   7.777 -0.2494 -0.2204 -0.0223
  308BOLB   NC1 7369   9.548   8.112  16.673  0.1381 -0.2176  0.0108
  308BOLB   PO1 7370   9.392   7.897  16.368 -0.0540  0.2031 -0.0399
  308BOLB   GL1 7371   9.171   7.652  16.036  0.0708 -0.4350  0.1507
  308BOLB   GL2 7372   9.171   7.398  16.066 -0.0983 -0.2658  0.1237
  308BOLB   C1A 7373   8.970   7.657  15.610  0.0305  0.2699  0.0007
  308BOLB   C2A 7374   8.642   7.556  15.457 -0.0214  0.1285  0.0128
  308BOLB   C3A 7375   8.326   7.837  15.289  0.1058 -0.3211  0.0578
  308BOLB   C4A 7376   8.180   8.250  15.185  0.2855 -0.2257 -0.1021
  308BOLB   C1B 7377   8.974   7.168  15.613 -0.0544 -0.1874  0.0995
  308BOLB   C2B 7378   8.933   6.902  15.419  0.0755 -0.0243  0.0573
  308BOLB   C3B 7379   8.949   6.651  14.974 -0.1964 -0.2598 -0.1257
  308BOLB   C4B 7380   8.837   6.664  14.545 -0.0315  0.1393 -0.1171
  308BOLB   NC2 7381   9.876   9.899  14.083  0.1416 -0.0031  0.2979
  308BOLB   PO2 7382   9.638   9.474  14.273 -0.2488  0.0747  0.0724
  308BOLB   GL3 7383   9.150   9.372  14.149  0.3154  0.0268 -0.3840
  308BOLB   GL4 7384   9.315   9.223  13.864  0.2683 -0.1967  0.0302
  308BOLB   C1C 7385   8.733   9.301  14.255  0.1810  0.0102  0.2053
  308BOLB   C2C 7386   8.335   9.289  14.494 -0.1761  0.1635  0.0213
  308BOLB   C3C 7387   8.253   8.954  14.866  0.0025  0.2864  0.1476
  308BOLB   C4C 7388   8.039   8.583  14.941 -0.1302  0.0389  0.3642
  308BOLB   C1D 7389   8.980   9.287  13.715 -0.2120 -0.1040  0.0256
  308BOLB   C2D 7390   8.820   9.535  13.399 -0.1673 -0.0855 -0.0466
  308BOLB   C3D 7391   8.976   9.368  13.023 -0.3121  0.1824  0.1415
  308BOLB   C4D 7392   8.935   9.459  12.527 -0.0219 -0.0766 -0.2827
  309BOLB   NC1 7393  12.069  11.787  22.529 -0.2715 -0.0134  0.3033
  309BOLB   PO1 7394  11.717  11.610  22.570 -0.0698  0.1931  0.2521
  309BOLB   GL1 7395  11.820  11.362  22.906  0.0958  0.0411 -0.2154
  309BOLB   GL2 7396  11.766  11.132  22.903 -0.2941  0.0266 -0.1035
  309BOLB   C1A 7397  11.708  11.630  23.293  0.0297 -0.1960  0.0313
  309BOLB   C2A 7398  11.434  11.708  23.660 -0.0302  0.1470  0.2320
  309BOLB   C3A 7399  11.419  11.494  24.090  0.1146 -0.1472 -0.3313
  309BOLB   C4A 7400  11.610  11.182  24.483 -0.0961  0.1454 -0.0420
  309BOLB   C1B 7401  11.330  11.265  23.134  0.2367  0.0972  0.2349
  309BOLB   C2B 7402  10.933  11.124  23.133 -0.2901  0.0189 -0.1640
  309BOLB   C3B 7403  10.575  11.190  22.848 -0.0051  0.1455 -0.1141
  309BOLB   C4B 7404  10.500  10.836  22.613  0.2973  0.2218  0.0121
  309BOLB   NC2 7405  10.803  11.904  25.822  0.4172 -0.0339  0.0101
  309BOLB   PO2 7406  10.770  11.464  26.126  0.0663  0.2050  0.2241
  309BOLB   GL3 7407  11.161  11.396  25.726 -0.1214  0.3946  0.4649
  309BOLB   GL4 7408  11.089  11.623  25.485  0.1878 -0.0094 -0.2178
  309BOLB   C1C 7409  11.446  11.147  25.550 -0.1062 -0.2372 -0.1080
  309BOLB   C2C 7410  11.804  11.047  25.543 -0.0518 -0.0390 -0.2131
  309BOLB   C3C 7411  11.988  11.093  25.177 -0.1312 -0.0086  0.0236
  309BOLB   C4C 7412  11.895  11.294  24.788  0.1272  0.1316  0.0085
  309BOLB   C1D 7413  10.938  11.685  25.081  0.0811 -0.4051  0.1901
  309BOLB   C2D 7414  10.968  11.997  24.778 -0.0237 -0.0884  0.2756
  309BOLB   C3D 7415  10.893  12.015  24.331  0.4335 -0.0818  0.2012
  309BOLB   C4D 7416  10.964  11.989  23.842  0.2518 -0.3725  0.1812
  310BOLB   NC1 7417  19.942   8.696  22.920  0.2908  0.0125  0.0090
  310BOLB   PO1 7418  20.038   8.289  22.720 -0.0426 -0.1509  0.1668
  310BOLB   GL1 7419  20.212   7.934  22.973 -0.0380 -0.0572 -0.1823
  310BOLB   GL2 7420  19.917   7.722  22.908  0.0821  0.0092 -0.1389
  310BOLB   C1A 7421  20.347   7.688  23.154  0.1683 -0.1689 -0.2331
  310BOLB   C2A 7422  20.539   7.358  23.405 -0.0968 -0.1660  0.1374
  310BOLB   C3A 7423  20.550   7.007  23.630 -0.0345 -0.0573 -0.3248
  310BOLB   C4A 7424  20.844   6.966  23.944 -0.0384  0.0053  0.2979
  310BOLB   C1B 7425  20.060   7.300  23.276 -0.0409  0.0820  0.0039
  310BOLB   C2B 7426  19.994   7.012  23.569  0.0855  0.1749  0.3212
  310BOLB   C3B 7427  20.232   6.863  23.989 -0.0201 -0.2675  0.2210
  310BOLB   C4B 7428  20.143   6.532  24.396  0.1787  0.0195  0.2380
  310BOLB   NC2 7429  22.133   5.747  25.338  0.0227  0.1530 -0.0158
  310BOLB   PO2 7430  22.321   6.176  25.424  0.0873 -0.2112  0.1127
  310BOLB   GL3 7431  21.962   6.238  25.215 -0.3044  0.0145  0.1627
  310BOLB   GL4 7432  21.727   6.419  25.288  0.2668 -0.1222 -0.0590
  310BOLB   C1C 7433  21.964   6.504  24.830  0.2019  0.4971  0.2989
  310BOLB   C2C 7434  21.777   6.774  24.480 -0.1578  0.1619 -0.4546
  310BOLB   C3C 7435  21.477   7.035  24.392  0.3656 -0.0809 -0.1267
  310BOLB   C4C 7436  21.219   7.188  24.143  0.0205  0.3122 -0.3790
  310BOLB   C1D 7437  21.508   6.678  24.925  0.2228 -0.3664 -0.2502
  310BOLB   C2D 7438  21.174   6.588  24.571  0.1348  0.1690 -0.0685
  310BOLB   C3D 7439  21.050   6.476  24.100  0.0256  0.0657 -0.3865
  310BOLB   C4D 7440  20.943   6.531  23.739  0.2047  0.3060 -0.1575
  311BOLB   NC1 7441  13.639  14.095   9.382  0.0766 -0.0466  0.1210
  311BOLB   PO1 7442  13.111  14.078   9.369  0.0269  0.0952 -0.0186
  311BOLB   GL1 7443  12.827  14.333   9.106 -0.0343 -0.4207  0.1705
  311BOLB   GL2 7444  12.905  14.377   8.789 -0.2765  0.0928 -0.0762
  311BOLB   C1A 7445  12.449  14.400   8.988  0.1012  0.0334  0.0911
  311BOLB   C2A 7446  12.107  14.530   8.549 -0.5437 -0.0517  0.2295
  311BOLB   C3A 7447  11.563  14.668   8.659 -0.2632  0.0458  0.0379
  311BOLB   C4A 7448  11.259  14.590   8.383  0.1775 -0.0869  0.4008
  311BOLB   C1B 7449  12.645  14.420   8.480  0.0439  0.1668  0.3001
  311BOLB   C2B 7450  12.392  14.589   8.146  0.1828  0.0208 -0.1838
  311BOLB   C3B 7451  12.291  14.615   7.665  0.3636 -0.1349  0.2206
  311BOLB   C4B 7452  11.995  14.611   7.300  0.0824 -0.5236 -0.1518
  311BOLB   NC2 7453   9.620  16.445   7.880 -0.0600 -0.3310 -0.0431
  311BOLB   PO2 7454  10.037  16.343   7.625  0.1634 -0.2770  0.0407
  311BOLB   GL3 7455   9.993  16.044   7.903  0.1925  0.0790  0.1117
  311BOLB   GL4 7456  10.037  16.202   8.182  0.2566  0.0319  0.1579
  311BOLB   C1C 7457  10.242  15.665   7.976  0.0517 -0.2400 -0.0980
  311BOLB   C2C 7458  10.452  15.227   8.078  0.1615  0.0631  0.1856
  311BOLB   C3C 7459  10.876  15.115   8.112  0.5277 -0.2185 -0.0324
  311BOLB   C4C 7460  11.213  14.947   8.090 -0.4222  0.0117  0.0288
  311BOLB   C1D 7461  10.490  16.041   8.315 -0.1103 -0.3180 -0.1626
  311BOLB   C2D 7462  10.854  16.075   8.403 -0.2464 -0.0889  0.1351
  311BOLB   C3D 7463  11.165  16.121   8.708  0.0023  0.1391 -0.0604
  311BOLB   C4D 7464  11.380  16.016   9.016 -0.3821 -0.0747 -0.0320
  312BOLB   NC1 7465  21.977   4.509  17.718  0.3292  0.1039  0.0109
  312BOLB   PO1 7466  21.795   4.656  18.074 -0.0136  0.1951  0.2990
  312BOLB   GL1 7467  22.194   4.359  18.124 -0.0876  0.0203 -0.1923
  312BOLB   GL2 7468  22.080   4.108  17.974  0.0686  0.0189 -0.0023
  312BOLB   C1A 7469  22.543   4.234  18.316 -0.0306  0.0276  0.0666
  312BOLB   C2A 7470  22.974   4.206  18.332 -0.4897  0.1837 -0.1078
  312BOLB   C3A 7471  23.445   4.208  18.263  0.1454 -0.5460  0.0650
  312BOLB   C4A 7472  23.925   4.353  18.228 -0.0272 -0.2929  0.0742
  312BOLB   C1B 7473  22.364   3.900  17.994 -0.3578  0.3283 -0.2397
  312BOLB   C2B 7474  22.656   3.552  17.983 -0.0310  0.5430  0.0871
  312BOLB   C3B 7475  22.912   3.257  18.006  0.0755  0.0658  0.0428
  312BOLB   C4B 7476  23.386   3.216  18.064 -0.2180  0.0299  0.0994
  312BOLB   NC2 7477  26.448   4.582  18.512  0.4181  0.0391  0.0741
  312BOLB   PO2 7478  26.391   4.237  18.348 -0.0778 -0.0357  0.1792
  312BOLB   GL3 7479  25.986   4.409  18.481 -0.1348 -0.0845  0.1001
  312BOLB   GL4 7480  25.994   4.738  18.317  0.0514  0.0865  0.2054
  312BOLB   C1C 7481  25.579   4.328  18.330  0.0593  0.1496  0.0376
  312BOLB   C2C 7482  25.148   4.405  18.359 -0.3587  0.3637 -0.1560
  312BOLB   C3C 7483  24.828   4.296  18.044 -0.3094  0.0538 -0.1850
  312BOLB   C4C 7484  24.319   4.303  18.061 -0.1267 -0.0543  0.2545
  312BOLB   C1D 7485  25.876   5.175  18.465  0.0509  0.3082 -0.2679
  312BOLB   C2D 7486  25.411   5.278  18.566 -0.1220  0.0887  0.3199
  312BOLB   C3D 7487  24.975   5.338  18.647  0.1183  0.1129 -0.1761
  312BOLB   C4D 7488  24.784   5.247  19.137  0.1335  0.2765  0.2645
  313BOLB   NC1 7489  23.564   0.259  19.429 -0.0290 -0.1437  0.2124
  313BOLB   PO1 7490  23.435   0.496  19.116  0.1710  0.0645  0.0863
  313BOLB   GL1 7491  23.217   0.730  18.836  0.0924 -0.2576  0.2290
  313BOLB   GL2 7492  22.877   0.707  19.003  0.1255  0.0433 -0.1212
  313BOLB   C1A 7493  22.966   0.934  18.550  0.0612 -0.1905  0.2991
  313BOLB   C2A 7494  22.631   1.132  18.272  0.1054 -0.0429 -0.0212
  313BOLB   C3A 7495  22.417   1.495  18.164 -0.0138  0.2214  0.2387
  313BOLB   C4A 7496  22.250   1.880  17.967 -0.1710 -0.0773 -0.1255
  313BOLB   C1B 7497  22.839   1.136  19.002  0.2885  0.1444 -0.1500
  313BOLB   C2B 7498  22.989   1.329  19.232  0.1742 -0.1717  0.1688
  313BOLB   C3B 7499  23.034   1.558  19.531  0.0422  0.0656 -0.0024
  313BOLB   C4B 7500  22.853   1.963  19.746  0.2148  0.1203  0.1725
  313BOLB   NC2 7501  21.537   3.967  16.207  0.2213 -0.1097  0.1014
  313BOLB   PO2 7502  21.583   3.854  16.554  0.2624  0.3021 -0.1444
  313BOLB   GL3 7503  21.801   3.523  16.769 -0.0576  0.3673 -0.1702
  313BOLB   GL4 7504  22.051   3.688  16.989 -0.1581 -0.0454  0.3968
  313BOLB   C1C 7505  21.936   3.133  17.018  0.0877 -0.0365  0.0691
  313BOLB   C2C 7506  21.926   2.822  17.219 -0.0474 -0.1201 -0.0090
  313BOLB   C3C 7507  22.015   2.589  17.634 -0.1156  0.0291  0.1503
  313BOLB   C4C 7508  21.935   2.205  17.836 -0.0579  0.1768 -0.1039
  313BOLB   C1D 7509  22.412   3.495  17.007 -0.1775 -0.1888 -0.1505
  313BOLB   C2D 7510  22.459   3.091  17.124 -0.0465  0.1614  0.1638
  313BOLB   C3D 7511  22.481   2.760  17.321 -0.0213 -0.0351  0.0900
  313BOLB   C4D 7512  22.762   2.502  17.280  0.3955 -0.0919 -0.0351
  314BOLB   NC1 7513  22.209  16.604  15.495 -0.1242  0.0484  0.2192
  314BOLB   PO1 7514  22.415  16.232  15.757 -0.0775  0.2752 -0.0033
  314BOLB   GL1 7515  22.506  16.590  16.003  0.1932  0.1360  0.0237
  314BOLB   GL2 7516  22.301  16.882  15.886  0.1583  0.0167 -0.2313
  314BOLB   C1A 7517  22.813  16.839  16.383 -0.3987 -0.0311  0.2401
  314BOLB   C2A 7518  23.093  17.071  16.233  0.2389 -0.0854  0.0782
  314BOLB   C3A 7519  23.540  17.280  16.430 -0.2059  0.0499  0.3559
  314BOLB   C4A 7520  23.876  17.604  16.320  0.0512  0.1791 -0.0866
  314BOLB   C1B 7521  22.766  17.036  15.905  0.0393  0.0579 -0.0882
  314BOLB   C2B 7522  23.031  17.434  15.844  0.0725  0.0710 -0.2104
  314BOLB   C3B 7523  23.399  17.730  16.017  0.4209  0.1059  0.0264
  314BOLB   C4B 7524  23.493  18.101  15.887  0.0856 -0.2060  0.2453
  314BOLB   NC2 7525  25.578  19.894  17.150  0.1419  0.0314  0.1498
  314BOLB   PO2 7526  25.266  19.661  17.385  0.2155 -0.0197  0.0018
  314BOLB   GL3 7527  25.026  19.260  17.371 -0.0328  0.3254  0.1464
  314BOLB   GL4 7528  25.214  18.950  17.420 -0.3313 -0.1706 -0.0856
  314BOLB   C1C 7529  24.639  18.944  17.056  0.3293 -0.2170 -0.1138
  314BOLB   C2C 7530  24.652  18.569  16.692  0.1284  0.0934 -0.1183
  314BOLB   C3C 7531  24.450  18.117  16.541 -0.1188 -0.0378 -0.0734
  314BOLB   C4C 7532  24.251  17.866  16.364 -0.3158 -0.0445 -0.2369
  314BOLB   C1D 7533  24.871  18.698  17.451 -0.6104 -0.1917  0.0550
  314BOLB   C2D 7534  24.569  18.404  17.272 -0.1012  0.1305  0.0332
  314BOLB   C3D 7535  24.169  18.572  17.170  0.2542  0.3044  0.2396
  314BOLB   C4D 7536  23.778  18.440  17.024  0.1249 -0.0515  0.1024
  315BOLB   NC1 7537  19.474  15.092  21.956 -0.1663  0.1695 -0.1935
  315BOLB   PO1 7538  19.355  15.442  21.802  0.0320 -0.2313 -0.4150
  315BOLB   GL1 7539  19.517  15.819  22.024  0.0696 -0.1537  0.0401
  315BOLB   GL2 7540  19.911  15.979  22.103 -0.5948  0.1542  0.0401
  315BOLB   C1A 7541  19.417  16.184  22.269  0.1710 -0.0322 -0.2121
  315BOLB   C2A 7542  19.556  16.273  22.721 -0.0261 -0.0643 -0.2133
  315BOLB   C3A 7543  19.504  16.370  23.124 -0.1060  0.2391  0.0492
  315BOLB   C4A 7544  19.325  16.234  23.561 -0.0461  0.1396  0.2236
  315BOLB   C1B 7545  19.872  15.969  22.538  0.0470  0.1497 -0.1363
  315BOLB   C2B 7546  19.970  16.097  22.966  0.4548 -0.1399  0.0549
  315BOLB   C3B 7547  20.054  16.301  23.228 -0.0043 -0.1011 -0.0093
  315BOLB   C4B 7548  20.300  16.719  23.212 -0.1052 -0.2127  0.0817
  315BOLB   NC2 7549  19.748  16.152  26.285  0.0824 -0.1889 -0.1366
  315BOLB   PO2 7550  20.059  16.177  26.006  0.1723 -0.1194 -0.2031
  315BOLB   GL3 7551  19.810  16.347  25.676  0.3787 -0.0114 -0.0077
  315BOLB   GL4 7552  19.555  16.227  25.798 -0.1016 -0.1191 -0.1038
  315BOLB   C1C 7553  19.633  16.411  25.191  0.2009  0.1098  0.1845
  315BOLB   C2C 7554  19.512  16.210  24.801 -0.0051 -0.2301 -0.6722
  315BOLB   C3C 7555  19.527  16.443  24.445  0.2001 -0.2422  0.0730
  315BOLB   C4C 7556  19.399  16.187  24.090 -0.2158 -0.0621 -0.0267
  315BOLB   C1D 7557  19.693  15.880  25.483 -0.0492  0.2420  0.0100
  315BOLB   C2D 7558  19.775  15.857  25.041 -0.0326 -0.1197  0.0991
  315BOLB   C3D 7559  20.047  15.747  24.789 -0.0453 -0.0566 -0.0938
  315BOLB   C4D 7560  20.438  15.395  24.891 -0.0557 -0.1952  0.1623
  316BOLB   NC1 7561  23.604  13.672  14.793 -0.1484  0.0872 -0.0360
  316BOLB   PO1 7562  23.706  13.963  15.120  0.0393 -0.0423  0.0365
  316BOLB   GL1 7563  24.061  14.144  15.027  0.3833 -0.1096  0.0754
  316BOLB   GL2 7564  24.256  13.928  15.181  0.0630  0.2266  0.1371
  316BOLB   C1A 7565  24.470  14.297  14.833  0.3659 -0.1989  0.2473
  316BOLB   C2A 7566  24.811  14.526  14.834  0.0759 -0.1308 -0.0734
  316BOLB   C3A 7567  25.083  14.867  15.041  0.1303 -0.2109 -0.3627
  316BOLB   C4A 7568  25.411  15.108  15.052  0.2116  0.1514 -0.1834
  316BOLB   C1B 7569  24.530  14.173  15.394 -0.0514  0.2371 -0.1597
  316BOLB   C2B 7570  24.580  14.565  15.294 -0.1425  0.1578  0.2779
  316BOLB   C3B 7571  24.593  15.010  15.169 -0.1418 -0.1865  0.2888
  316BOLB   C4B 7572  24.805  15.243  14.803  0.0548 -0.2514  0.1023
  316BOLB   NC2 7573  27.764  16.016  15.015  0.0828 -0.2113 -0.2218
  316BOLB   PO2 7574  27.410  15.949  14.712  0.2100 -0.1393  0.0412
  316BOLB   GL3 7575  27.159  15.611  14.850  0.0570  0.3459  0.0561
  316BOLB   GL4 7576  26.941  15.753  14.577 -0.3810  0.1314 -0.1537
  316BOLB   C1C 7577  26.743  15.492  15.013 -0.0726  0.1577  0.1822
  316BOLB   C2C 7578  26.353  15.456  14.902  0.0825  0.0648 -0.3642
  316BOLB   C3C 7579  26.005  15.361  14.600 -0.0875  0.0624 -0.0276
  316BOLB   C4C 7580  25.632  15.413  14.722 -0.3035 -0.1117 -0.0083
  316BOLB   C1D 7581  26.756  15.395  14.530  0.1373  0.3262 -0.0449
  316BOLB   C2D 7582  26.471  15.027  14.659  0.3834 -0.1173  0.1017
  316BOLB   C3D 7583  26.107  14.922  14.803 -0.2728  0.0983  0.0684
  316BOLB   C4D 7584  25.739  14.706  15.062 -0.0944 -0.1969 -0.1253
  317BOLB   NC1 7585   9.302   7.453  19.911 -0.2337  0.2721  0.2953
  317BOLB   PO1 7586   9.436   7.653  20.219 -0.1983 -0.2252 -0.0579
  317BOLB   GL1 7587   9.356   7.422  20.618  0.0322  0.1267  0.0385
  317BOLB   GL2 7588   9.352   7.561  20.924  0.0359 -0.1854 -0.1764
  317BOLB   C1A 7589   9.140   7.060  20.731  0.0709 -0.1102  0.0385
  317BOLB   C2A 7590   8.669   7.095  20.720 -0.2046 -0.4189  0.2109
  317BOLB   C3A 7591   8.298   6.969  20.760  0.0145  0.0504 -0.3223
  317BOLB   C4A 7592   7.976   6.687  20.777  0.1863  0.2649  0.1124
  317BOLB   C1B 7593   9.035   7.417  21.186 -0.1258  0.1111  0.0934
  317BOLB   C2B 7594   8.903   7.285  21.576  0.0128 -0.1238  0.1934
  317BOLB   C3B 7595   8.795   7.063  21.918  0.0093 -0.0544 -0.0413
  317BOLB   C4B 7596   8.393   7.209  22.126  0.1855 -0.2993 -0.1094
  317BOLB   NC2 7597   5.356   5.735  21.134  0.2632  0.2121  0.4075
  317BOLB   PO2 7598   5.780   5.916  21.249 -0.1905  0.1256 -0.2756
  317BOLB   GL3 7599   6.054   5.893  20.943  0.1535  0.0298  0.1077
  317BOLB   GL4 7600   5.873   5.784  20.687  0.1497  0.2019 -0.2309
  317BOLB   C1C 7601   6.374   6.083  20.686 -0.3078  0.1339  0.0118
  317BOLB   C2C 7602   6.777   6.248  20.750  0.0319  0.3737  0.0456
  317BOLB   C3C 7603   7.133   6.585  20.652 -0.1676 -0.3010  0.1001
  317BOLB   C4C 7604   7.550   6.602  20.767 -0.1338 -0.0635 -0.0385
  317BOLB   C1D 7605   6.177   5.691  20.302  0.3347 -0.4915 -0.2056
  317BOLB   C2D 7606   6.510   5.852  20.208  0.0643 -0.0252  0.0900
  317BOLB   C3D 7607   6.903   6.200  20.164 -0.0952  0.3166 -0.1114
  317BOLB   C4D 7608   7.002   6.751  20.033  0.2366 -0.1672 -0.2597
  318BOLB   NC1 7609  20.266   5.873  20.411  0.3426  0.1582  0.0372
  318BOLB   PO1 7610  20.714   5.797  20.607 -0.1021  0.0804 -0.0890
  318BOLB   GL1 7611  21.009   5.501  20.760  0.1571 -0.2090  0.0887
  318BOLB   GL2 7612  21.152   5.797  20.892 -0.3574  0.0610 -0.1014
  318BOLB   C1A 7613  21.151   5.206  21.000 -0.0588  0.1178 -0.1691
  318BOLB   C2A 7614  21.074   4.940  21.419  0.0014  0.5234  0.1721
  318BOLB   C3A 7615  21.090   4.885  21.738 -0.0232  0.0088 -0.3066
  318BOLB   C4A 7616  21.203   4.651  22.037 -0.3801  0.0384  0.2111
  318BOLB   C1B 7617  21.438   5.678  21.128 -0.1539 -0.1045 -0.4674
  318BOLB   C2B 7618  21.627   5.497  21.389 -0.2883  0.0409 -0.0326
  318BOLB   C3B 7619  21.736   5.095  21.698 -0.0033  0.1291  0.0671
  318BOLB   C4B 7620  21.683   4.799  21.886 -0.0942 -0.0300  0.0651
  318BOLB   NC2 7621  22.656   4.278  24.130  0.0574 -0.0854  0.0947
  318BOLB   PO2 7622  22.567   4.050  23.861  0.0226 -0.2890  0.1034
  318BOLB   GL3 7623  22.511   4.209  23.498  0.1327  0.1473  0.0057
  318BOLB   GL4 7624  22.716   4.530  23.562 -0.0542 -0.1807  0.2415
  318BOLB   C1C 7625  22.292   4.554  23.234  0.3223  0.1205 -0.1135
  318BOLB   C2C 7626  22.010   4.409  22.804 -0.2359 -0.0321  0.0116
  318BOLB   C3C 7627  21.787   4.562  22.461 -0.4826 -0.0195 -0.1037
  318BOLB   C4C 7628  21.589   4.442  22.225 -0.0971 -0.1006  0.0538
  318BOLB   C1D 7629  22.865   4.418  23.131 -0.0450 -0.0750 -0.0483
  318BOLB   C2D 7630  22.587   4.599  22.862 -0.1346  0.1221  0.2545
  318BOLB   C3D 7631  22.277   4.926  22.830 -0.0385  0.0210  0.2271
  318BOLB   C4D 7632  21.866   5.075  22.713  0.4975  0.3601 -0.0541
  319BOLB   NC1 7633  21.875  12.113  21.199  0.0648 -0.2197  0.8771
  319BOLB   PO1 7634  21.857  12.533  21.305  0.0508 -0.0506  0.0451
  319BOLB   GL1 7635  22.164  12.489  21.500 -0.1296 -0.1167  0.2574
  319BOLB   GL2 7636  22.413  12.610  21.384 -0.0635 -0.1155  0.4187
  319BOLB   C1A 7637  22.341  12.397  21.918  0.0479 -0.2303 -0.1167
  319BOLB   C2A 7638  22.589  12.539  22.283 -0.0180  0.1819 -0.2286
  319BOLB   C3A 7639  22.846  12.848  22.334 -0.1735 -0.2830 -0.1749
  319BOLB   C4A 7640  23.139  13.038  22.541 -0.3033  0.1494  0.0663
  319BOLB   C1B 7641  22.676  12.843  21.578  0.1120  0.0368  0.3431
  319BOLB   C2B 7642  23.073  13.050  21.726 -0.0140 -0.2172 -0.0797
  319BOLB   C3B 7643  23.527  13.009  21.679 -0.0859 -0.1775  0.0915
  319BOLB   C4B 7644  23.781  13.213  21.961  0.2273 -0.0010 -0.1802
  319BOLB   NC2 7645  24.906  13.097  24.102 -0.3156  0.0533 -0.0053
  319BOLB   PO2 7646  24.814  13.476  24.007 -0.1269  0.0422  0.1700
  319BOLB   GL3 7647  24.683  13.570  23.626  0.0619  0.2842  0.0604
  319BOLB   GL4 7648  24.779  13.741  23.325 -0.1985  0.1623  0.0029
  319BOLB   C1C 7649  24.478  13.272  23.458  0.2297  0.3863  0.0390
  319BOLB   C2C 7650  24.012  13.101  23.374 -0.2257 -0.2323 -0.0815
  319BOLB   C3C 7651  23.594  13.298  23.201 -0.0545 -0.1018  0.0687
  319BOLB   C4C 7652  23.433  13.274  22.838  0.4496 -0.2300 -0.0987
  319BOLB   C1D 7653  24.454  13.600  22.963  0.0514 -0.1875 -0.3061
  319BOLB   C2D 7654  24.313  13.346  22.685 -0.0169 -0.2520  0.0561
  319BOLB   C3D 7655  23.875  13.276  22.552 -0.0163 -0.0968 -0.0420
  319BOLB   C4D 7656  23.623  12.999  22.510 -0.1497  0.3570  0.0611
  320BOLB   NC1 7657   8.203   8.311  17.686 -0.1491  0.4002 -0.2293
  320BOLB   PO1 7658   7.838   8.578  17.665 -0.0100 -0.0272 -0.1083
  320BOLB   GL1 7659   7.513   8.670  17.837 -0.0040  0.1901  0.0239
  320BOLB   GL2 7660   7.457   8.835  18.122  0.0485  0.1476 -0.0859
  320BOLB   C1A 7661   7.095   8.427  17.967  0.0960 -0.3463 -0.0253
  320BOLB   C2A 7662   6.755   8.237  18.017 -0.0068 -0.0234 -0.3023
  320BOLB   C3A 7663   6.374   7.988  18.057 -0.1101 -0.0690 -0.4039
  320BOLB   C4A 7664   5.866   7.992  18.089  0.1510 -0.0650 -0.1094
  320BOLB   C1B 7665   7.432   9.191  18.291  0.1119 -0.1534 -0.1103
  320BOLB   C2B 7666   7.205   9.508  18.586 -0.1364  0.2871 -0.0229
  320BOLB   C3B 7667   7.063   9.824  18.768  0.0294 -0.1684 -0.1633
  320BOLB   C4B 7668   6.990  10.170  19.118  0.0452  0.1721 -0.3547
  320BOLB   NC2 7669   3.172   7.478  18.647  0.0372 -0.1907  0.0667
  320BOLB   PO2 7670   3.504   7.296  18.836  0.1225  0.0457 -0.1052
  320BOLB   GL3 7671   3.945   7.294  18.910 -0.0880  0.0090 -0.0585
  320BOLB   GL4 7672   4.227   7.038  18.876  0.0659  0.1921  0.3203
  320BOLB   C1C 7673   4.384   7.460  18.709 -0.0100  0.0924  0.0567
  320BOLB   C2C 7674   4.543   7.704  18.274  0.0809  0.2704 -0.1471
  320BOLB   C3C 7675   4.931   7.886  18.140 -0.0472  0.0150 -0.0819
  320BOLB   C4C 7676   5.367   8.051  18.048 -0.0137 -0.1531  0.0083
  320BOLB   C1D 7677   4.109   6.651  18.588  0.0193 -0.1685  0.1795
  320BOLB   C2D 7678   4.253   6.489  18.211  0.1920  0.2323 -0.3281
  320BOLB   C3D 7679   4.152   6.448  17.733 -0.1269  0.1253  0.1161
  320BOLB   C4D 7680   4.397   6.811  17.341  0.4008 -0.0852 -0.2695
  321BOLB   NC1 7681  18.685  11.298   8.777 -0.0400 -0.1181 -0.1349
  321BOLB   PO1 7682  18.715  11.714   8.863 -0.4489  0.1652 -0.0553
  321BOLB   GL1 7683  18.905  11.816   8.491  0.0399  0.1363  0.0439
  321BOLB   GL2 7684  18.889  11.564   8.396  0.1272 -0.1264 -0.3685
  321BOLB   C1A 7685  19.100  11.939   8.135  0.0935  0.1935 -0.4900
  321BOLB   C2A 7686  19.381  12.201   7.875  0.0315  0.1234 -0.0709
  321BOLB   C3A 7687  19.630  12.358   7.738 -0.0047  0.0256 -0.2714
  321BOLB   C4A 7688  19.603  12.557   7.471 -0.1044 -0.0537  0.2881
  321BOLB   C1B 7689  18.961  11.512   7.972  0.0567  0.0894  0.1340
  321BOLB   C2B 7690  19.206  11.730   7.644 -0.0568 -0.2019 -0.0412
  321BOLB   C3B 7691  19.263  12.100   7.442 -0.1078 -0.1242 -0.2573
  321BOLB   C4B 7692  19.071  12.324   7.011 -0.2962  0.0205  0.1315
  321BOLB   NC2 7693  19.950  12.323   5.126  0.1498 -0.2892 -0.1228
  321BOLB   PO2 7694  20.346  12.407   5.225  0.1053 -0.1223  0.2474
  321BOLB   GL3 7695  20.337  12.418   5.649 -0.3160 -0.1935  0.0651
  321BOLB   GL4 7696  20.710  12.462   5.828  0.1092 -0.2780 -0.2346
  321BOLB   C1C 7697  19.955  12.423   5.893  0.0993 -0.0147  0.1250
  321BOLB   C2C 7698  19.736  12.457   6.184 -0.0593 -0.0656  0.1864
  321BOLB   C3C 7699  19.684  12.528   6.668  0.0592 -0.0311  0.1230
  321BOLB   C4C 7700  19.554  12.428   7.068 -0.2196  0.0350  0.0730
  321BOLB   C1D 7701  20.542  12.478   6.254  0.0673  0.1738 -0.3424
  321BOLB   C2D 7702  20.505  12.293   6.653 -0.1837  0.2354 -0.2607
  321BOLB   C3D 7703  20.655  12.156   6.979 -0.0908 -0.1168  0.0010
  321BOLB   C4D 7704  20.920  12.111   7.371 -0.2081  0.2307  0.1535
  322BOLB   NC1 7705  20.169   9.587  22.731  0.2014 -0.1560  0.1986
  322BOLB   PO1 7706  20.137   9.826  23.145  0.0179  0.0186  0.1019
  322BOLB   GL1 7707  20.469   9.893  23.309 -0.0722 -0.0086 -0.2139
  322BOLB   GL2 7708  20.296  10.071  23.542 -0.1142 -0.2043  0.0935
  322BOLB   C1A 7709  20.613   9.635  23.706  0.0327 -0.0200  0.1201
  322BOLB   C2A 7710  20.323   9.459  23.955  0.0119  0.2053  0.0077
  322BOLB   C3A 7711  20.107   9.260  24.398  0.4242 -0.0909 -0.1483
  322BOLB   C4A 7712  20.017   9.315  24.901 -0.0104 -0.1019 -0.2092
  322BOLB   C1B 7713  20.264   9.966  23.968  0.0874 -0.2649 -0.0766
  322BOLB   C2B 7714  20.454   9.903  24.454 -0.1020  0.1436  0.0359
  322BOLB   C3B 7715  20.689   9.949  24.796  0.1176 -0.2386  0.0013
  322BOLB   C4B 7716  20.769   9.873  25.253  0.0922 -0.0221 -0.0187
  322BOLB   NC2 7717  21.039   8.249  26.732 -0.2014 -0.1412  0.0625
  322BOLB   PO2 7718  20.633   8.397  26.800  0.3784  0.2038  0.0522
  322BOLB   GL3 7719  20.546   8.882  26.698 -0.2173 -0.0904  0.2543
  322BOLB   GL4 7720  20.660   9.146  26.582  0.4032  0.2880 -0.2284
  322BOLB   C1C 7721  20.173   8.994  26.455  0.1577  0.0792  0.3055
  322BOLB   C2C 7722  19.888   9.125  26.093  0.0174  0.0113  0.0015
  322BOLB   C3C 7723  19.785   9.261  25.684  0.4124  0.1050  0.1061
  322BOLB   C4C 7724  20.023   9.470  25.367  0.0988  0.1507  0.1932
  322BOLB   C1D 7725  20.580   9.437  26.336  0.3162  0.1547  0.0683
  322BOLB   C2D 7726  20.518   9.804  26.316  0.1184  0.0005 -0.0504
  322BOLB   C3D 7727  20.132   9.993  26.171  0.0694  0.5141  0.2111
  322BOLB   C4D 7728  19.959  10.314  25.863  0.0233 -0.0692  0.1044
  323BOLB   NC1 7729  14.913  11.379  23.260 -0.0262  0.1371 -0.1152
  323BOLB   PO1 7730  14.702  11.056  23.028  0.0625  0.1240 -0.0285
  323BOLB   GL1 7731  14.466  11.191  23.397  0.0648  0.2121 -0.2401
  323BOLB   GL2 7732  14.397  10.873  23.427 -0.1132 -0.1903  0.0059
  323BOLB   C1A 7733  14.685  11.209  23.785  0.1562  0.1425  0.0893
  323BOLB   C2A 7734  14.568  11.427  24.175  0.0581 -0.0773  0.3266
  323BOLB   C3A 7735  14.432  11.339  24.579 -0.2275  0.0822  0.1804
  323BOLB   C4A 7736  14.239  11.668  24.846  0.1636 -0.1374 -0.0812
  323BOLB   C1B 7737  14.216  11.005  23.899 -0.0568  0.2981  0.1133
  323BOLB   C2B 7738  13.937  11.156  24.246 -0.0818  0.0633 -0.3453
  323BOLB   C3B 7739  13.771  11.181  24.690 -0.1512 -0.0072 -0.2586
  323BOLB   C4B 7740  13.310  11.167  24.731  0.0999 -0.1160  0.1684
  323BOLB   NC2 7741  12.747  11.729  26.559  0.0274 -0.0329 -0.2687
  323BOLB   PO2 7742  12.784  12.149  26.726 -0.1414 -0.0519  0.1203
  323BOLB   GL3 7743  13.130  12.109  26.457  0.1857  0.1301 -0.0096
  323BOLB   GL4 7744  13.286  11.801  26.483  0.0060 -0.0464 -0.0263
  323BOLB   C1C 7745  13.249  11.871  26.013  0.1001 -0.0837  0.3010
  323BOLB   C2C 7746  13.429  12.045  25.727 -0.2278 -0.3482 -0.1481
  323BOLB   C3C 7747  13.863  11.933  25.499  0.0808  0.7147  0.4610
  323BOLB   C4C 7748  13.917  11.938  25.054 -0.1744 -0.3085 -0.1803
  323BOLB   C1D 7749  13.772  11.637  26.410  0.0014 -0.1347 -0.1406
  323BOLB   C2D 7750  14.095  11.543  26.205 -0.0743  0.1494 -0.0637
  323BOLB   C3D 7751  14.186  11.462  25.799  0.2454  0.0575  0.0960
  323BOLB   C4D 7752  14.364  11.702  25.396 -0.1401  0.0218  0.1636
  324BOLB   NC1 7753  20.750  14.381  21.019  0.0454 -0.5416  0.4463
  324BOLB   PO1 7754  21.084  14.369  21.367  0.0373 -0.0799 -0.0728
  324BOLB   GL1 7755  21.490  14.459  21.587  0.1714  0.0991  0.0251
  324BOLB   GL2 7756  21.617  14.709  21.475 -0.3615  0.1031 -0.0983
  324BOLB   C1A 7757  21.743  14.574  22.002  0.1806 -0.1428 -0.2978
  324BOLB   C2A 7758  21.998  14.664  22.349 -0.0392 -0.0195  0.0822
  324BOLB   C3A 7759  22.166  15.003  22.584 -0.1131 -0.2501 -0.1357
  324BOLB   C4A 7760  22.328  15.307  22.890  0.1544 -0.0776  0.4006
  324BOLB   C1B 7761  22.059  14.723  21.611  0.0077  0.0459  0.1618
  324BOLB   C2B 7762  22.540  14.863  21.671 -0.0123 -0.2124  0.3527
  324BOLB   C3B 7763  22.941  14.910  21.426  0.0892  0.0056 -0.1391
  324BOLB   C4B 7764  23.146  15.267  21.225 -0.5618  0.2946 -0.0336
  324BOLB   NC2 7765  23.959  17.152  23.895  0.2453 -0.1366  0.0510
  324BOLB   PO2 7766  23.627  16.853  23.692  0.0512  0.1196 -0.0112
  324BOLB   GL3 7767  23.419  16.594  23.444  0.1154  0.1389  0.0170
  324BOLB   GL4 7768  23.493  16.590  23.167  0.4724  0.1674  0.0996
  324BOLB   C1C 7769  23.040  16.262  23.443 -0.0463 -0.0418  0.0537
  324BOLB   C2C 7770  22.673  16.144  23.538 -0.3521  0.1224  0.2466
  324BOLB   C3C 7771  22.691  15.874  23.231  0.2565 -0.1933 -0.1202
  324BOLB   C4C 7772  22.482  15.621  23.063 -0.3346 -0.2398  0.2288
  324BOLB   C1D 7773  23.081  16.498  22.939 -0.3455  0.1289 -0.0599
  324BOLB   C2D 7774  22.690  16.430  22.702  0.2755  0.1347 -0.0846
  324BOLB   C3D 7775  22.490  16.235  22.351  0.0727  0.1018  0.2491
  324BOLB   C4D 7776  22.506  16.107  21.973  0.0418  0.0671 -0.2390
  325BOLB   NC1 7777  12.761  12.629  21.643 -0.1084  0.0185 -0.1996
  325BOLB   PO1 7778  12.363  12.655  21.987  0.5894  0.2832  0.3400
  325BOLB   GL1 7779  11.983  12.702  22.282  0.2700 -0.0041  0.2234
  325BOLB   GL2 7780  11.765  13.038  22.262 -0.3844 -0.2159 -0.0726
  325BOLB   C1A 7781  11.800  12.675  22.640  0.2044 -0.4593 -0.3204
  325BOLB   C2A 7782  11.563  12.875  22.973  0.0619  0.1499 -0.0179
  325BOLB   C3A 7783  11.298  12.737  23.299 -0.0801 -0.4261 -0.1241
  325BOLB   C4A 7784  11.106  12.806  23.594  0.1669 -0.1225  0.2743
  325BOLB   C1B 7785  11.583  13.201  22.606 -0.1137 -0.1676 -0.0502
  325BOLB   C2B 7786  11.423  13.380  22.973  0.1277  0.2830 -0.2034
  325BOLB   C3B 7787  11.452  13.738  23.170  0.1287  0.3283  0.1639
  325BOLB   C4B 7788  11.566  13.970  23.497 -0.0906 -0.2842  0.1056
  325BOLB   NC2 7789   9.883  12.952  25.360  0.0178  0.1185  0.3539
  325BOLB   PO2 7790  10.284  13.085  25.487 -0.2216  0.4885 -0.0733
  325BOLB   GL3 7791  10.239  13.299  25.155  0.0706  0.0456  0.2058
  325BOLB   GL4 7792  10.556  13.530  24.973  0.3074  0.0415  0.0405
  325BOLB   C1C 7793  10.325  13.313  24.636  0.0728 -0.2570 -0.3200
  325BOLB   C2C 7794  10.454  13.412  24.250 -0.1934 -0.0890  0.1666
  325BOLB   C3C 7795  10.719  13.273  24.086 -0.2188  0.0867  0.1432
  325BOLB   C4C 7796  10.818  12.942  23.813 -0.0238 -0.1644  0.0053
  325BOLB   C1D 7797  10.884  13.322  24.601  0.1198 -0.1837  0.3758
  325BOLB   C2D 7798  11.205  13.103  24.674  0.0280  0.1737  0.1494
  325BOLB   C3D 7799  11.485  12.774  24.458  0.0107  0.1073  0.2846
  325BOLB   C4D 7800  11.737  12.474  24.214  0.1714  0.1062  0.0524
  326BOLB   NC1 7801  11.618  21.522  18.344  0.0122 -0.0698 -0.2838
  326BOLB   PO1 7802  11.287  21.140  18.323 -0.0872  0.0374  0.0883
  326BOLB   GL1 7803  11.556  20.829  18.131  0.0574 -0.0709  0.0380
  326BOLB   GL2 7804  11.623  20.745  18.416  0.0552 -0.0266 -0.1300
  326BOLB   C1A 7805  11.973  20.759  17.993  0.0997  0.0356 -0.2001
  326BOLB   C2A 7806  11.999  20.479  17.711  0.1678 -0.2921  0.0839
  326BOLB   C3A 7807  11.915  20.112  17.504 -0.3421 -0.3617  0.1314
  326BOLB   C4A 7808  12.310  19.786  17.567  0.1936 -0.1954 -0.1861
  326BOLB   C1B 7809  11.858  20.366  18.473 -0.0896  0.0921  0.0822
  326BOLB   C2B 7810  12.200  20.204  18.549 -0.3335  0.0804 -0.0841
  326BOLB   C3B 7811  12.508  20.420  18.672 -0.0998  0.2192 -0.2103
  326BOLB   C4B 7812  12.941  20.515  18.678 -0.4991  0.1509  0.2434
  326BOLB   NC2 7813  13.986  18.140  18.448 -0.1356 -0.1017  0.4506
  326BOLB   PO2 7814  14.025  18.332  17.981 -0.2243 -0.1353 -0.1631
  326BOLB   GL3 7815  13.682  18.517  18.076  0.2246 -0.0061  0.0967
  326BOLB   GL4 7816  13.758  18.719  18.189  0.2100 -0.0410  0.0982
  326BOLB   C1C 7817  13.252  18.649  17.920  0.3125 -0.2111 -0.0847
  326BOLB   C2C 7818  13.047  18.939  18.024  0.0827 -0.1088  0.1405
  326BOLB   C3C 7819  12.629  19.207  18.044  0.0149  0.1557  0.0135
  326BOLB   C4C 7820  12.405  19.418  17.862 -0.0117 -0.2897  0.1592
  326BOLB   C1D 7821  13.887  19.066  18.326  0.1559  0.0250 -0.3776
  326BOLB   C2D 7822  13.964  19.380  18.533 -0.3095  0.0080 -0.1248
  326BOLB   C3D 7823  14.130  19.626  19.031  0.0423 -0.1383 -0.1969
  326BOLB   C4D 7824  13.988  19.972  19.214  0.1805 -0.1480  0.0585
  327BOLB   NC1 7825  13.848   2.073  17.054  0.1455  0.0424 -0.1164
  327BOLB   PO1 7826  13.436   2.057  17.204  0.0947  0.2471  0.1772
  327BOLB   GL1 7827  13.525   1.631  17.551  0.3658  0.2748  0.2752
  327BOLB   GL2 7828  13.256   1.551  17.381  0.0912 -0.0161 -0.0614
  327BOLB   C1A 7829  13.444   1.263  17.803  0.1442  0.1713 -0.1971
  327BOLB   C2A 7830  13.324   1.030  18.052  0.1477 -0.2052 -0.2339
  327BOLB   C3A 7831  13.307   0.677  18.305  0.1734 -0.0628 -0.1382
  327BOLB   C4A 7832  13.008   0.418  18.589 -0.6668 -0.0741  0.0749
  327BOLB   C1B 7833  13.029   1.218  17.555  0.0226  0.0992  0.1392
  327BOLB   C2B 7834  12.926   0.932  17.749  0.2871 -0.0067 -0.1080
  327BOLB   C3B 7835  12.793   0.818  18.159  0.1142  0.2606  0.2626
  327BOLB   C4B 7836  12.534   0.559  18.362  0.0627 -0.0136  0.0709
  327BOLB   NC2 7837  12.202  -1.445  19.157  0.1763 -0.1223  0.1759
  327BOLB   PO2 7838  11.866  -1.516  19.374  0.0269 -0.0073  0.0687
  327BOLB   GL3 7839  11.752  -1.182  19.147  0.0074 -0.1219  0.0665
  327BOLB   GL4 7840  11.513  -0.953  19.091 -0.0658 -0.0898 -0.1829
  327BOLB   C1C 7841  11.971  -0.851  18.986 -0.0916 -0.0842 -0.0515
  327BOLB   C2C 7842  12.094  -0.444  18.758  0.0539 -0.0043  0.0847
  327BOLB   C3C 7843  12.302  -0.091  18.967 -0.2578 -0.5018  0.0797
  327BOLB   C4C 7844  12.702   0.263  18.843 -0.3542 -0.3440  0.2318
  327BOLB   C1D 7845  11.316  -0.583  18.981  0.3884 -0.1809  0.1553
  327BOLB   C2D 7846  11.196  -0.163  19.160  0.0686  0.1006  0.1618
  327BOLB   C3D 7847  11.248   0.309  19.199 -0.0983  0.5060  0.5688
  327BOLB   C4D 7848  11.621   0.554  19.266  0.0597 -0.1605  0.0658
  328BOLB   NC1 7849  13.758  14.263   8.610  0.1964  0.0456  0.2296
  328BOLB   PO1 7850  13.952  13.843   8.503 -0.1138  0.2852  0.0046
  328BOLB   GL1 7851  13.723  13.865   8.211  0.0281 -0.1075  0.0318
  328BOLB   GL2 7852  13.472  13.835   8.201 -0.1540 -0.0308 -0.5208
  328BOLB   C1A 7853  13.825  13.677   7.786  0.2231 -0.2499 -0.1063
  328BOLB   C2A 7854  13.631  13.779   7.347  0.0131  0.4825 -0.3612
  328BOLB   C3A 7855  13.304  13.652   6.991 -0.1655  0.0764  0.0922
  328BOLB   C4A 7856  12.955  13.628   6.746  0.3621  0.2617 -0.1284
  328BOLB   C1B 7857  13.465  14.019   7.811  0.0974  0.1239 -0.1129
  328BOLB   C2B 7858  13.088  13.924   7.578  0.3022 -0.1162  0.1148
  328BOLB   C3B 7859  12.904  13.912   7.228  0.2698  0.1877 -0.2494
  328BOLB   C4B 7860  12.591  14.019   6.823 -0.0866 -0.2176  0.1362
  328BOLB   NC2 7861  12.809  15.591   4.713  0.2441 -0.1804  0.0349
  328BOLB   PO2 7862  12.629  15.143   4.796  0.0360  0.0562  0.0499
  328BOLB   GL3 7863  12.550  14.709   5.079  0.1057 -0.1182  0.0043
  328BOLB   GL4 7864  12.814  14.355   4.996  0.1055  0.2613  0.1298
  328BOLB   C1C 7865  12.523  14.612   5.419  0.0440 -0.0398  0.3190
  328BOLB   C2C 7866  12.680  14.532   5.797  0.2490  0.0218 -0.1451
  328BOLB   C3C 7867  12.649  14.194   6.079 -0.0425 -0.3979 -0.0380
  328BOLB   C4C 7868  12.852  13.830   6.335 -0.0282  0.1198 -0.1126
  328BOLB   C1D 7869  12.970  14.205   5.360  0.0757  0.2328  0.2213
  328BOLB   C2D 7870  12.954  14.003   5.751  0.1271 -0.0817 -0.0890
  328BOLB   C3D 7871  13.028  13.687   5.928  0.1328  0.0543  0.0620
  328BOLB   C4D 7872  13.151  13.235   6.019  0.2060 -0.0423  0.2580
  329BOLB   NC1 7873   9.378  14.663  16.642 -0.1830  0.0333 -0.2731
  329BOLB   PO1 7874   9.603  15.193  16.638  0.1295 -0.2182 -0.1788
  329BOLB   GL1 7875   9.278  15.499  16.663  0.0424  0.3923  0.4000
  329BOLB   GL2 7876   8.943  15.505  16.408 -0.0051  0.1586  0.0187
  329BOLB   C1A 7877   9.041  15.794  16.818 -0.1682  0.0380  0.1631
  329BOLB   C2A 7878   8.745  16.018  17.060 -0.1169  0.0411 -0.3431
  329BOLB   C3A 7879   8.654  16.341  17.343  0.1304 -0.0718 -0.0460
  329BOLB   C4A 7880   8.281  16.551  17.414  0.1929  0.2693 -0.1177
  329BOLB   C1B 7881   8.594  15.689  16.118 -0.2325  0.1873 -0.2641
  329BOLB   C2B 7882   8.148  15.681  16.233 -0.1621 -0.2186  0.1630
  329BOLB   C3B 7883   7.914  15.398  15.947  0.1329  0.0940 -0.0317
  329BOLB   C4B 7884   7.456  15.221  15.869  0.1767  0.2942 -0.0600
  329BOLB   NC2 7885   6.857  18.200  17.446 -0.3069 -0.2030  0.2811
  329BOLB   PO2 7886   6.833  18.041  17.053 -0.1334  0.0567  0.2301
  329BOLB   GL3 7887   7.287  17.876  17.062 -0.0940  0.1298 -0.2094
  329BOLB   GL4 7888   7.224  17.802  17.376  0.0278 -0.1715 -0.1376
  329BOLB   C1C 7889   7.607  17.744  16.755 -0.2338  0.0649 -0.2353
  329BOLB   C2C 7890   7.833  17.457  16.756 -0.1584 -0.0419 -0.0392
  329BOLB   C3C 7891   7.913  17.220  16.974  0.0890 -0.0146  0.0400
  329BOLB   C4C 7892   7.991  16.819  17.213  0.1297 -0.2320 -0.3532
  329BOLB   C1D 7893   7.578  17.453  17.335 -0.1563  0.2069 -0.1274
  329BOLB   C2D 7894   7.955  17.188  17.531 -0.0688 -0.0652 -0.0690
  329BOLB   C3D 7895   8.281  17.008  17.563 -0.0855  0.1385 -0.0144
  329BOLB   C4D 7896   8.660  16.808  17.621 -0.0762 -0.3243  0.2331
  330BOLB   NC1 7897  13.172  36.395  22.249 -0.1619 -0.2140  0.1144
  330BOLB   PO1 7898  13.063  36.763  22.347 -0.1365 -0.0665 -0.1316
  330BOLB   GL1 7899  13.295  36.953  22.023  0.0567 -0.3391 -0.1163
  330BOLB   GL2 7900  13.391  37.310  21.982  0.2010 -0.2735  0.1572
  330BOLB   C1A 7901  13.680  36.914  21.825  0.3857 -0.0221  0.1361
  330BOLB   C2A 7902  14.045  37.150  21.841 -0.2055 -0.0897  0.1448
  330BOLB   C3A 7903  14.313  37.454  22.045  0.4377  0.3787 -0.2095
  330BOLB   C4A 7904  14.387  37.549  22.490  0.3268 -0.3533  0.1514
  330BOLB   C1B 7905  13.338  37.611  22.271  0.1410  0.2196 -0.0066
  330BOLB   C2B 7906  13.008  37.930  22.212  0.0719  0.0711 -0.1825
  330BOLB   C3B 7907  12.698  37.972  21.878 -0.0086 -0.0603 -0.3797
  330BOLB   C4B 7908  12.772  38.121  21.470  0.0603  0.1215  0.0388
  330BOLB   NC2 7909  14.223  37.807  23.964  0.1397  0.2853 -0.0501
  330BOLB   PO2 7910  14.096  38.190  24.224 -0.0084 -0.3328  0.0471
  330BOLB   GL3 7911  14.304  38.380  23.970 -0.2446 -0.1693 -0.0267
  330BOLB   GL4 7912  14.605  38.368  24.026  0.4558 -0.0585  0.1871
  330BOLB   C1C 7913  14.318  38.446  23.654  0.0233 -0.3391  0.1422
  330BOLB   C2C 7914  14.230  38.449  23.339  0.2939  0.3624 -0.0533
  330BOLB   C3C 7915  14.240  38.147  23.126 -0.0053 -0.0940 -0.1497
  330BOLB   C4C 7916  14.189  37.783  22.892 -0.0817  0.1490 -0.2815
  330BOLB   C1D 7917  14.785  38.520  23.583  0.2275  0.0689  0.0375
  330BOLB   C2D 7918  14.966  38.626  23.228  0.0723 -0.1737 -0.3174
  330BOLB   C3D 7919  15.009  38.710  22.764  0.2615 -0.0677  0.3520
  330BOLB   C4D 7920  14.566  38.915  22.616  0.1178 -0.5195  0.1239
  331BOLB   NC1 7921  14.225   7.611  22.764  0.0308 -0.2475 -0.0905
  331BOLB   PO1 7922  14.207   7.999  23.038  0.2049 -0.3687  0.3010
  331BOLB   GL1 7923  14.177   8.147  23.442  0.3076  0.1623  0.2430
  331BOLB   GL2 7924  13.885   8.201  23.370 -0.0107  0.1459 -0.0877
  331BOLB   C1A 7925  14.112   7.872  23.704  0.1522  0.1987  0.2611
  331BOLB   C2A 7926  14.296   7.754  24.047  0.1258  0.0233  0.1584
  331BOLB   C3A 7927  14.383   7.955  24.501 -0.0551  0.0449  0.1024
  331BOLB   C4A 7928  14.513   8.168  24.911 -0.1661  0.3748  0.0170
  331BOLB   C1B 7929  13.689   8.124  23.842 -0.2009  0.5037  0.4219
  331BOLB   C2B 7930  13.437   7.922  24.102 -0.1920  0.0897  0.0146
  331BOLB   C3B 7931  13.330   7.583  24.268 -0.5022 -0.1548 -0.2180
  331BOLB   C4B 7932  13.448   7.323  24.591 -0.3343 -0.1662  0.0448
  331BOLB   NC2 7933  15.355   8.576  27.297  0.1738 -0.1834  0.0804
  331BOLB   PO2 7934  15.195   8.281  27.004 -0.0414 -0.3038 -0.3008
  331BOLB   GL3 7935  15.207   8.183  26.626 -0.0727 -0.3835 -0.1467
  331BOLB   GL4 7936  15.092   8.497  26.430 -0.1972  0.1422 -0.0636
  331BOLB   C1C 7937  15.206   8.021  26.168 -0.1049  0.1438 -0.0905
  331BOLB   C2C 7938  15.293   7.885  25.823 -0.2044 -0.1106  0.0225
  331BOLB   C3C 7939  15.046   8.073  25.475 -0.1147  0.1911 -0.0954
  331BOLB   C4C 7940  14.723   8.224  25.278  0.2220 -0.2755 -0.0901
  331BOLB   C1D 7941  14.887   8.385  26.077 -0.1630 -0.2165  0.0594
  331BOLB   C2D 7942  14.687   8.377  25.768 -0.3061  0.0157  0.2270
  331BOLB   C3D 7943  14.425   8.644  25.673 -0.1454  0.0752 -0.0153
  331BOLB   C4D 7944  14.472   9.068  25.566  0.3193 -0.1379 -0.2427
  332BOLB   NC1 7945  18.551  17.973  16.744 -0.0058  0.0592  0.1534
  332BOLB   PO1 7946  18.831  18.053  16.476  0.0088 -0.1736  0.2600
  332BOLB   GL1 7947  18.931  18.481  16.599 -0.2825 -0.2490  0.0491
  332BOLB   GL2 7948  18.665  18.636  16.390 -0.1930 -0.3112 -0.1501
  332BOLB   C1A 7949  19.220  18.786  16.574 -0.0565 -0.0931  0.1922
  332BOLB   C2A 7950  19.182  19.166  16.499 -0.0136  0.4161  0.2889
  332BOLB   C3A 7951  19.060  19.625  16.607  0.0702  0.0205 -0.2350
  332BOLB   C4A 7952  18.945  20.052  16.570 -0.2545 -0.0555  0.0058
  332BOLB   C1B 7953  18.735  18.996  16.692 -0.0214 -0.3895 -0.0466
  332BOLB   C2B 7954  18.507  19.391  16.645 -0.2748 -0.3402  0.2454
  332BOLB   C3B 7955  18.618  19.726  16.957 -0.2229 -0.0110 -0.1051
  332BOLB   C4B 7956  18.728  19.773  17.410 -0.0584  0.1957  0.0842
  332BOLB   NC2 7957  19.019  22.353  17.678  0.4131 -0.3108  0.2289
  332BOLB   PO2 7958  19.452  22.524  17.454  0.2195 -0.0675  0.4624
  332BOLB   GL3 7959  19.238  22.189  17.213  0.0142 -0.0301 -0.0004
  332BOLB   GL4 7960  19.027  22.120  17.017  0.3469 -0.0782 -0.0627
  332BOLB   C1C 7961  19.253  21.692  17.318  0.1539  0.2808  0.1125
  332BOLB   C2C 7962  19.240  21.271  17.166  0.0881 -0.1535 -0.1137
  332BOLB   C3C 7963  19.107  20.892  16.992  0.0893 -0.1521 -0.0455
  332BOLB   C4C 7964  19.015  20.518  16.707  0.0263 -0.1278  0.0706
  332BOLB   C1D 7965  18.854  21.666  16.787 -0.0383 -0.4315  0.0695
  332BOLB   C2D 7966  19.158  21.319  16.615 -0.0504  0.0208  0.1925
  332BOLB   C3D 7967  19.388  21.057  16.237  0.0117  0.0254  0.0302
  332BOLB   C4D 7968  19.389  20.800  15.923  0.0577 -0.2802  0.1083
  333BOLB   NC1 7969  18.371  12.424  24.239 -0.1971  0.0525  0.1128
  333BOLB   PO1 7970  18.487  12.269  23.867  0.0068 -0.1852 -0.2593
  333BOLB   GL1 7971  18.869  12.259  24.063  0.2540 -0.1618 -0.4639
  333BOLB   GL2 7972  18.985  11.878  24.183 -0.3275 -0.2121  0.0416
  333BOLB   C1A 7973  18.913  12.421  24.472  0.1867 -0.1928 -0.2083
  333BOLB   C2A 7974  19.188  12.369  24.715 -0.1785  0.2750 -0.6152
  333BOLB   C3A 7975  19.472  12.341  25.047 -0.0126  0.1803  0.0944
  333BOLB   C4A 7976  19.682  12.366  25.407 -0.3118 -0.0030  0.1519
  333BOLB   C1B 7977  19.266  11.760  24.477  0.2066 -0.2452 -0.2507
  333BOLB   C2B 7978  19.374  11.878  24.836 -0.2771 -0.0080  0.3831
  333BOLB   C3B 7979  19.886  12.023  25.015  0.0974 -0.1590  0.1742
  333BOLB   C4B 7980  19.979  11.872  25.358 -0.3164  0.3351  0.1678
  333BOLB   NC2 7981  20.379  11.771  27.816  0.0009 -0.1038  0.0026
  333BOLB   PO2 7982  20.397  12.110  27.593 -0.0220  0.1730 -0.2818
  333BOLB   GL3 7983  20.454  12.157  27.103 -0.6096  0.0528  0.0662
  333BOLB   GL4 7984  20.413  12.599  27.127  0.1114  0.0949  0.1005
  333BOLB   C1C 7985  20.321  12.208  26.684  0.0626  0.2836  0.2555
  333BOLB   C2C 7986  20.240  12.570  26.367  0.2611 -0.0264 -0.2086
  333BOLB   C3C 7987  20.193  12.463  25.992  0.0076 -0.0506 -0.0446
  333BOLB   C4C 7988  19.940  12.301  25.625 -0.0065  0.0839 -0.0642
  333BOLB   C1D 7989  20.075  12.648  26.822 -0.0183  0.1203  0.0113
  333BOLB   C2D 7990  19.738  12.866  26.691  0.3340 -0.0150 -0.0741
  333BOLB   C3D 7991  19.835  13.314  26.728  0.0733 -0.0397 -0.0799
  333BOLB   C4D 7992  19.926  13.606  26.340  0.0206  0.4414 -0.0524
  334BOLB   NC1 7993  19.495  17.000  19.524 -0.3822  0.1422  0.0556
  334BOLB   PO1 7994  19.869  16.924  19.686 -0.0409 -0.0201  0.1062
  334BOLB   GL1 7995  19.960  17.199  19.971 -0.1182  0.0147 -0.0211
  334BOLB   GL2 7996  20.098  16.996  20.207 -0.3990  0.0790  0.1733
  334BOLB   C1A 7997  19.992  17.534  20.126 -0.3759  0.1416 -0.2782
  334BOLB   C2A 7998  19.995  17.953  20.041  0.1929  0.2025  0.4007
  334BOLB   C3A 7999  19.941  18.416  19.925 -0.0512  0.3972 -0.2638
  334BOLB   C4A 8000  20.051  18.833  19.945  0.1026 -0.0695  0.0874
  334BOLB   C1B 8001  20.470  17.437  20.301  0.3640  0.1992  0.0378
  334BOLB   C2B 8002  20.553  17.757  20.477  0.3221  0.0181 -0.1295
  334BOLB   C3B 8003  20.432  18.124  20.396  0.0224  0.0718  0.1401
  334BOLB   C4B 8004  20.352  18.590  20.251 -0.1552 -0.1207 -0.0645
  334BOLB   NC2 8005  20.854  20.817  21.291 -0.2762 -0.3103  0.1601
  334BOLB   PO2 8006  20.803  21.069  21.004 -0.4820 -0.0608 -0.1402
  334BOLB   GL3 8007  20.700  20.660  20.875  0.1012  0.3521 -0.2370
  334BOLB   GL4 8008  20.358  20.575  20.746 -0.0974  0.2536 -0.3877
  334BOLB   C1C 8009  20.741  20.314  20.680  0.0492  0.0496  0.2753
  334BOLB   C2C 8010  20.415  20.022  20.408 -0.1590 -0.1133  0.0061
  334BOLB   C3C 8011  20.260  19.604  20.242  0.0586  0.2482  0.1331
  334BOLB   C4C 8012  20.130  19.215  20.213 -0.2667 -0.0576 -0.3770
  334BOLB   C1D 8013  20.324  20.524  20.291 -0.1766  0.1364  0.0141
  334BOLB   C2D 8014  20.463  20.341  20.004  0.0860  0.2899  0.1472
  334BOLB   C3D 8015  20.307  20.201  19.537  0.0103 -0.1781  0.1050
  334BOLB   C4D 8016  20.243  20.022  19.287  0.0563  0.2953  0.0309
  335BOLB   NC1 8017  16.354   1.437  14.001  0.0672 -0.2961  0.0889
  335BOLB   PO1 8018  16.682   1.390  13.704  0.0479 -0.1267 -0.1466
  335BOLB   GL1 8019  16.512   0.960  13.689 -0.1266  0.4576  0.2216
  335BOLB   GL2 8020  16.217   0.955  13.781 -0.1038 -0.4495  0.2065
  335BOLB   C1A 8021  16.347   0.429  13.754  0.2177 -0.3157  0.1098
  335BOLB   C2A 8022  16.227  -0.051  13.772  0.1945 -0.0096  0.0326
  335BOLB   C3A 8023  16.095  -0.375  14.050  0.1272 -0.1704 -0.0501
  335BOLB   C4A 8024  16.360  -0.766  14.000 -0.2973 -0.0183  0.0559
  335BOLB   C1B 8025  15.957   0.756  13.413  0.1064  0.1253 -0.2844
  335BOLB   C2B 8026  16.128   0.446  13.251 -0.2179  0.1330 -0.1297
  335BOLB   C3B 8027  16.138   0.156  13.332  0.2537  0.1022  0.0115
  335BOLB   C4B 8028  16.182  -0.199  13.203 -0.0508 -0.2453  0.1609
  335BOLB   NC2 8029  17.246  -3.256  14.171  0.0434  0.2232  0.1652
  335BOLB   PO2 8030  17.694  -3.139  14.364 -0.1225  0.1863  0.0548
  335BOLB   GL3 8031  17.487  -2.720  14.326 -0.0229  0.0344  0.0839
  335BOLB   GL4 8032  17.295  -2.717  14.080 -0.0670  0.1250  0.3164
  335BOLB   C1C 8033  17.344  -2.332  14.398 -0.0665 -0.2571  0.2538
  335BOLB   C2C 8034  17.141  -1.930  14.348 -0.2506 -0.2213 -0.0255
  335BOLB   C3C 8035  16.919  -1.578  14.030 -0.2435 -0.0661  0.1587
  335BOLB   C4C 8036  16.701  -1.156  14.023  0.2372 -0.1571 -0.0193
  335BOLB   C1D 8037  17.068  -2.333  13.909 -0.2323 -0.1615 -0.2974
  335BOLB   C2D 8038  16.887  -2.094  13.798  0.1698 -0.2381 -0.1059
  335BOLB   C3D 8039  16.615  -1.855  13.680 -0.0804 -0.3549 -0.0573
  335BOLB   C4D 8040  16.563  -1.462  13.553 -0.1684  0.3292 -0.2102
  336BOLB   NC1 8041  20.219   6.423   9.531  0.0034  0.0406 -0.0212
  336BOLB   PO1 8042  20.346   6.016   9.716  0.2176  0.0671  0.0627
  336BOLB   GL1 8043  20.630   6.098   9.440 -0.2210  0.0975  0.1478
  336BOLB   GL2 8044  20.772   6.419   9.335  0.1159 -0.2775 -0.0470
  336BOLB   C1A 8045  20.902   5.992   9.016 -0.1485  0.2511  0.2295
  336BOLB   C2A 8046  21.345   6.125   8.923  0.4233  0.0868 -0.1884
  336BOLB   C3A 8047  21.807   6.138   8.821  0.1620  0.3103 -0.1763
  336BOLB   C4A 8048  22.161   6.358   8.575 -0.1643 -0.2606 -0.0878
  336BOLB   C1B 8049  20.519   6.286   8.953  0.2294 -0.5195  0.1005
  336BOLB   C2B 8050  20.155   6.256   8.702  0.0774  0.0164 -0.1305
  336BOLB   C3B 8051  19.923   6.638   8.564 -0.3364  0.0670 -0.2343
  336BOLB   C4B 8052  19.610   6.922   8.334 -0.2737  0.0565  0.1497
  336BOLB   NC2 8053  24.246   5.917   7.972 -0.0281  0.0528  0.2410
  336BOLB   PO2 8054  24.461   6.257   7.800  0.1952 -0.0144 -0.0022
  336BOLB   GL3 8055  23.946   6.381   7.984 -0.1284  0.0879 -0.3006
  336BOLB   GL4 8056  24.036   6.390   8.338  0.1024 -0.0535  0.4867
  336BOLB   C1C 8057  23.548   6.235   8.169 -0.0488 -0.3644 -0.2184
  336BOLB   C2C 8058  23.302   6.013   8.515 -0.3213 -0.0733 -0.0358
  336BOLB   C3C 8059  22.883   5.983   8.504 -0.0296 -0.2927  0.2247
  336BOLB   C4C 8060  22.488   6.139   8.424 -0.1481 -0.2219 -0.2314
  336BOLB   C1D 8061  23.809   6.414   8.611 -0.3899 -0.0529  0.1143
  336BOLB   C2D 8062  23.488   6.281   8.877  0.3097 -0.1540 -0.1696
  336BOLB   C3D 8063  23.212   6.187   9.238 -0.1955 -0.0399  0.0153
  336BOLB   C4D 8064  22.974   6.333   9.514 -0.1059 -0.0482 -0.3141
  337BOLB   NC1 8065  13.151  16.939  19.648  0.0350  0.2256 -0.0021
  337BOLB   PO1 8066  13.308  16.997  20.064  0.0743  0.0015 -0.2902
  337BOLB   GL1 8067  13.237  17.448  20.146 -0.0008  0.0482  0.2389
  337BOLB   GL2 8068  13.413  17.741  20.184  0.3437 -0.2373  0.1914
  337BOLB   C1A 8069  12.974  17.875  20.286 -0.1471 -0.2287  0.1494
  337BOLB   C2A 8070  12.755  18.271  20.254 -0.2073 -0.1277  0.2366
  337BOLB   C3A 8071  12.916  18.541  20.381 -0.0719  0.0847  0.0914
  337BOLB   C4A 8072  13.170  18.971  20.584 -0.1387 -0.1446 -0.1172
  337BOLB   C1B 8073  13.534  18.142  20.362  0.0017  0.1988  0.3636
  337BOLB   C2B 8074  13.443  18.338  20.717  0.0505 -0.1274  0.0521
  337BOLB   C3B 8075  13.403  18.218  21.111  0.4187 -0.0283  0.1285
  337BOLB   C4B 8076  13.496  18.427  21.435 -0.1628 -0.4962 -0.1864
  337BOLB   NC2 8077  11.198  20.190  22.075  0.1230  0.1475 -0.2389
  337BOLB   PO2 8078  11.397  20.176  21.788  0.3314  0.2410 -0.0774
  337BOLB   GL3 8079  11.846  20.194  21.636  0.3086 -0.1606 -0.3472
  337BOLB   GL4 8080  12.109  20.318  21.433 -0.1754  0.1631 -0.2869
  337BOLB   C1C 8081  12.138  19.868  21.593  0.0418  0.1373 -0.0006
  337BOLB   C2C 8082  12.528  19.678  21.377  0.2287 -0.0173  0.1401
  337BOLB   C3C 8083  12.969  19.467  21.158  0.3224 -0.0904  0.0715
  337BOLB   C4C 8084  13.178  19.107  20.992 -0.0671  0.0268 -0.1311
  337BOLB   C1D 8085  12.214  20.011  21.121 -0.0178  0.0619  0.1962
  337BOLB   C2D 8086  12.394  19.710  20.901  0.7168 -0.3149  0.0595
  337BOLB   C3D 8087  12.693  19.434  20.730 -0.1363  0.1486  0.2324
  337BOLB   C4D 8088  12.576  18.910  20.685  0.0048 -0.0663  0.1947
  338BOLB   NC1 8089  23.252   5.902  15.935 -0.0324  0.1662 -0.1537
  338BOLB   PO1 8090  23.363   6.222  16.124 -0.1403 -0.0424 -0.0259
  338BOLB   GL1 8091  23.687   5.870  16.110  0.3686 -0.4018 -0.2609
  338BOLB   GL2 8092  23.782   6.050  16.474 -0.0561 -0.0513  0.0261
  338BOLB   C1A 8093  23.903   5.891  15.823 -0.2791 -0.0764 -0.1731
  338BOLB   C2A 8094  24.219   6.005  15.580 -0.5054  0.2530 -0.4684
  338BOLB   C3A 8095  24.701   6.109  15.560  0.0867  0.3339 -0.0148
  338BOLB   C4A 8096  24.978   5.941  15.352 -0.2405  0.0986 -0.3326
  338BOLB   C1B 8097  24.228   5.854  16.380  0.1187  0.0482  0.1823
  338BOLB   C2B 8098  24.271   5.646  16.031  0.0653 -0.1841 -0.0120
  338BOLB   C3B 8099  24.604   5.629  15.690  0.1588 -0.1253 -0.3751
  338BOLB   C4B 8100  25.041   5.607  15.666  0.0561  0.2062  0.1619
  338BOLB   NC2 8101  27.059   4.878  15.671  0.1588  0.0992  0.1929
  338BOLB   PO2 8102  27.076   4.356  15.707  0.1429 -0.1832 -0.1608
  338BOLB   GL3 8103  26.588   4.516  15.659  0.2576  0.0603 -0.0600
  338BOLB   GL4 8104  26.323   4.456  16.010  0.5090 -0.1908 -0.0416
  338BOLB   C1C 8105  26.286   4.894  15.649 -0.3355  0.0414  0.4601
  338BOLB   C2C 8106  26.134   5.298  15.408 -0.1775  0.4250 -0.1116
  338BOLB   C3C 8107  25.720   5.508  15.446 -0.0813  0.0891 -0.1236
  338BOLB   C4C 8108  25.327   5.804  15.354 -0.0787  0.0435 -0.2482
  338BOLB   C1D 8109  25.949   4.347  16.174  0.0171  0.1675 -0.2302
  338BOLB   C2D 8110  25.496   4.366  16.201 -0.0778 -0.0381 -0.2898
  338BOLB   C3D 8111  25.199   4.710  15.802 -0.0813 -0.1949  0.2705
  338BOLB   C4D 8112  25.068   5.097  15.681 -0.0167 -0.2940 -0.1226
  339BOLB   NC1 8113  20.435  16.880  13.718 -0.0791  0.0282 -0.2820
  339BOLB   PO1 8114  20.488  16.807  13.326  0.0069  0.0443 -0.0455
  339BOLB   GL1 8115  20.582  17.237  13.317 -0.3016  0.0672 -0.2749
  339BOLB   GL2 8116  20.460  17.292  13.008 -0.2478 -0.1050 -0.1169
  339BOLB   C1A 8117  20.734  17.622  13.527 -0.2693 -0.0196 -0.0920
  339BOLB   C2A 8118  20.755  18.014  13.518 -0.0700  0.1864 -0.1826
  339BOLB   C3A 8119  20.695  18.426  13.617  0.0910 -0.1268 -0.3092
  339BOLB   C4A 8120  20.912  18.610  13.312 -0.2695  0.0408  0.0932
  339BOLB   C1B 8121  20.814  17.588  12.967  0.2849  0.1354 -0.1074
  339BOLB   C2B 8122  21.148  17.746  12.938  0.2434 -0.0419 -0.2068
  339BOLB   C3B 8123  21.590  17.835  12.793 -0.0371  0.1501  0.0041
  339BOLB   C4B 8124  21.741  17.641  12.380 -0.1247  0.0844  0.1374
  339BOLB   NC2 8125  23.116  19.623  12.408 -0.3490 -0.0707  0.3168
  339BOLB   PO2 8126  23.177  19.210  12.226  0.5344  0.0016  0.0255
  339BOLB   GL3 8127  22.767  19.196  12.398  0.1999  0.1673  0.0901
  339BOLB   GL4 8128  22.653  18.891  12.173 -0.0851  0.3352  0.0015
  339BOLB   C1C 8129  22.347  19.041  12.511 -0.2300 -0.0008  0.2336
  339BOLB   C2C 8130  21.948  19.135  12.705  0.0252 -0.3622  0.0992
  339BOLB   C3C 8131  21.622  19.123  13.024  0.0949 -0.1046  0.4066
  339BOLB   C4C 8132  21.263  18.748  13.245 -0.1923 -0.2093  0.0199
  339BOLB   C1D 8133  22.504  18.479  12.279  0.0780 -0.2744  0.2799
  339BOLB   C2D 8134  22.189  18.187  12.108 -0.0296 -0.0491  0.0950
  339BOLB   C3D 8135  21.851  18.006  11.916  0.1651 -0.3556  0.2732
  339BOLB   C4D 8136  21.780  17.722  11.606 -0.0194  0.0082 -0.0154
  340BOLB   NC1 8137  15.059  18.769  14.836  0.0152  0.2333  0.3020
  340BOLB   PO1 8138  15.368  18.665  14.563  0.1493  0.1672 -0.0696
  340BOLB   GL1 8139  15.336  19.086  14.608 -0.0098  0.1984 -0.0355
  340BOLB   GL2 8140  15.442  19.281  14.768 -0.0360 -0.1510 -0.2138
  340BOLB   C1A 8141  15.065  19.537  14.572  0.0498  0.3840  0.0138
  340BOLB   C2A 8142  14.928  19.885  14.542 -0.0829  0.2868  0.2189
  340BOLB   C3A 8143  14.523  20.156  14.611 -0.1918 -0.1677  0.0437
  340BOLB   C4A 8144  14.129  20.341  14.793 -0.0811  0.2825  0.0250
  340BOLB   C1B 8145  15.657  19.500  14.580  0.2306  0.1691 -0.0382
  340BOLB   C2B 8146  15.467  19.797  14.284  0.0586 -0.2030 -0.1222
  340BOLB   C3B 8147  15.327  20.137  14.422  0.0686 -0.1676 -0.0885
  340BOLB   C4B 8148  14.999  20.349  14.726 -0.2723 -0.0195 -0.2078
  340BOLB   NC2 8149  13.408  22.135  14.321  0.1786  0.1641  0.0668
  340BOLB   PO2 8150  13.541  22.303  14.736 -0.0303 -0.2159 -0.0970
  340BOLB   GL3 8151  13.576  21.923  14.757  0.2031  0.1696  0.4576
  340BOLB   GL4 8152  13.573  21.645  14.386 -0.1887  0.0117  0.2806
  340BOLB   C1C 8153  13.436  21.530  14.867 -0.0228 -0.0443 -0.0491
  340BOLB   C2C 8154  13.567  21.271  15.160 -0.4365  0.1419 -0.0507
  340BOLB   C3C 8155  13.617  20.947  15.126  0.1247 -0.2384 -0.1460
  340BOLB   C4C 8156  13.889  20.665  14.920 -0.2792 -0.2917 -0.1170
  340BOLB   C1D 8157  13.682  21.594  14.025  0.1352  0.1395  0.1496
  340BOLB   C2D 8158  13.736  21.108  13.983  0.1684 -0.1132  0.0408
  340BOLB   C3D 8159  13.755  20.672  14.268 -0.1297 -0.1423  0.0761
  340BOLB   C4D 8160  13.666  20.301  14.480 -0.0954 -0.0088  0.3466
  341BOLB   NC1 8161  23.426   8.492  19.311 -0.2190  0.2271 -0.0548
  341BOLB   PO1 8162  23.511   8.614  19.673 -0.0502  0.0234  0.0932
  341BOLB   GL1 8163  23.620   8.189  19.855 -0.0794 -0.0241 -0.2202
  341BOLB   GL2 8164  23.553   8.119  20.168  0.1658  0.1283 -0.0677
  341BOLB   C1A 8165  23.953   7.957  19.707  0.0043 -0.3148 -0.0127
  341BOLB   C2A 8166  24.218   7.585  19.747  0.1440  0.1483  0.0638
  341BOLB   C3A 8167  24.572   7.432  19.958  0.2995  0.0453 -0.1966
  341BOLB   C4A 8168  25.014   7.338  19.918  0.0274 -0.3673  0.2090
  341BOLB   C1B 8169  23.803   7.925  20.448  0.0234 -0.0287 -0.4940
  341BOLB   C2B 8170  24.205   7.954  20.677  0.3706  0.4938  0.0131
  341BOLB   C3B 8171  24.601   8.200  20.782 -0.1675 -0.1534  0.0891
  341BOLB   C4B 8172  24.955   8.157  21.041 -0.0716 -0.4981  0.0283
  341BOLB   NC2 8173  26.474   5.352  20.503  0.0668  0.0424 -0.1207
  341BOLB   PO2 8174  26.754   5.690  20.668  0.5157 -0.1063 -0.0120
  341BOLB   GL3 8175  26.244   5.758  20.654 -0.0616  0.1246  0.0237
  341BOLB   GL4 8176  26.129   5.761  20.372 -0.0126 -0.1051  0.0288
  341BOLB   C1C 8177  26.140   6.250  20.562 -0.0441  0.1268 -0.2266
  341BOLB   C2C 8178  26.130   6.677  20.427  0.0345 -0.0529  0.2326
  341BOLB   C3C 8179  25.781   6.903  20.275 -0.0164  0.3021  0.2298
  341BOLB   C4C 8180  25.463   7.079  19.916  0.2579 -0.1180  0.0102
  341BOLB   C1D 8181  25.781   5.883  20.269  0.6325  0.0597 -0.0924
  341BOLB   C2D 8182  25.437   6.023  20.242 -0.1889 -0.1715 -0.3687
  341BOLB   C3D 8183  24.972   5.901  20.191 -0.2550 -0.2795  0.0419
  341BOLB   C4D 8184  24.811   5.517  20.137  0.0799  0.0738 -0.0853
  342BOLB   NC1 8185  24.521  10.287  15.953  0.1904 -0.6310 -0.3237
  342BOLB   PO1 8186  24.281  10.663  16.130 -0.3284 -0.2244  0.1323
  342BOLB   GL1 8187  24.755  10.776  16.036  0.1625 -0.2443  0.1405
  342BOLB   GL2 8188  24.975  10.538  15.846 -0.1567  0.2097  0.1277
  342BOLB   C1A 8189  25.133  10.839  16.335 -0.0079  0.4090 -0.1504
  342BOLB   C2A 8190  25.524  11.008  16.501  0.0584 -0.0508 -0.1179
  342BOLB   C3A 8191  25.885  11.054  16.555  0.0203  0.0692  0.0987
  342BOLB   C4A 8192  26.203  11.237  16.773 -0.1041 -0.1093  0.2267
  342BOLB   C1B 8193  25.464  10.537  15.919  0.1065 -0.2316  0.1962
  342BOLB   C2B 8194  25.844  10.695  16.017  0.1332  0.1856 -0.4541
  342BOLB   C3B 8195  26.097  10.973  15.807 -0.3181  0.0140  0.0497
  342BOLB   C4B 8196  26.461  10.861  15.565  0.0110  0.1346  0.0835
  342BOLB   NC2 8197  28.777  11.825  17.070  0.1119  0.0566 -0.2939
  342BOLB   PO2 8198  28.378  11.789  17.169  0.2078 -0.2756 -0.0108
  342BOLB   GL3 8199  27.906  11.659  17.256 -0.1431  0.1996 -0.0847
  342BOLB   GL4 8200  27.840  11.524  17.577 -0.0942 -0.0507  0.2881
  342BOLB   C1C 8201  27.493  11.537  17.150  0.0594  0.1959  0.0436
  342BOLB   C2C 8202  27.091  11.475  17.396  0.1245 -0.0130  0.2791
  342BOLB   C3C 8203  26.768  11.508  17.280  0.2468  0.1174 -0.2044
  342BOLB   C4C 8204  26.484  11.468  17.060  0.2758  0.0891  0.0428
  342BOLB   C1D 8205  27.399  11.444  17.717 -0.0332 -0.1076 -0.1883
  342BOLB   C2D 8206  26.964  11.381  17.827  0.1390  0.1185 -0.1781
  342BOLB   C3D 8207  26.529  11.215  17.631  0.3348 -0.0176  0.0551
  342BOLB   C4D 8208  26.198  11.045  17.768 -0.1850  0.1541  0.0375
  343BOLB   NC1 8209  16.516  18.248  15.434  0.0220  0.1101  0.0410
  343BOLB   PO1 8210  16.490  18.635  15.507 -0.0472 -0.0006  0.2616
  343BOLB   GL1 8211  16.266  18.967  15.209 -0.2037  0.2941  0.2663
  343BOLB   GL2 8212  16.208  19.155  15.502  0.2823 -0.0843 -0.1465
  343BOLB   C1A 8213  16.341  19.322  14.931 -0.0170  0.0126 -0.3240
  343BOLB   C2A 8214  16.459  19.748  15.086  0.1187  0.2335 -0.0733
  343BOLB   C3A 8215  16.240  20.205  15.214 -0.2003  0.2268  0.1569
  343BOLB   C4A 8216  16.035  20.471  15.078  0.2691 -0.0531 -0.0028
  343BOLB   C1B 8217  16.128  19.596  15.459  0.0169 -0.2921 -0.2590
  343BOLB   C2B 8218  16.195  19.876  15.762  0.2542 -0.1768 -0.0317
  343BOLB   C3B 8219  15.933  20.112  16.001 -0.0512  0.2630 -0.1842
  343BOLB   C4B 8220  15.758  20.187  16.488 -0.0154 -0.3328 -0.0015
  343BOLB   NC2 8221  16.155  23.205  15.499  0.2073  0.1493 -0.1471
  343BOLB   PO2 8222  16.106  22.883  15.230 -0.0822  0.0832  0.2934
  343BOLB   GL3 8223  15.856  22.493  15.333 -0.1068 -0.2730  0.2967
  343BOLB   GL4 8224  15.610  22.323  15.279  0.0506 -0.1702  0.0529
  343BOLB   C1C 8225  16.116  22.115  15.271  0.2733 -0.1031  0.3524
  343BOLB   C2C 8226  16.071  21.659  15.222 -0.2562  0.1538  0.4122
  343BOLB   C3C 8227  15.780  21.280  15.092  0.1003 -0.0252 -0.1583
  343BOLB   C4C 8228  15.780  20.802  15.145 -0.2013 -0.1117 -0.0252
  343BOLB   C1D 8229  15.487  21.808  15.258  0.0452  0.0347 -0.2793
  343BOLB   C2D 8230  15.185  21.679  15.289 -0.1016  0.0998 -0.0456
  343BOLB   C3D 8231  14.901  21.360  15.411  0.0650  0.0997 -0.1805
  343BOLB   C4D 8232  14.801  21.042  15.452 -0.0738  0.2712  0.1857
  344BOLB   NC1 8233  22.005  10.113  21.680  0.1966  0.1424 -0.3220
  344BOLB   PO1 8234  21.992  10.407  21.970  0.1712 -0.1643 -0.5035
  344BOLB   GL1 8235  22.256  10.550  22.235  0.1237  0.0189 -0.3751
  344BOLB   GL2 8236  22.051  10.261  22.420  0.2895  0.3385  0.0564
  344BOLB   C1A 8237  22.653  10.603  22.403  0.1310  0.0169  0.2349
  344BOLB   C2A 8238  22.784  10.682  22.716  0.0653 -0.2834  0.0186
  344BOLB   C3A 8239  22.853  10.804  23.147  0.2342 -0.1838  0.0968
  344BOLB   C4A 8240  22.707  11.030  23.475  0.1912 -0.1084  0.1653
  344BOLB   C1B 8241  22.358  10.346  22.749  0.0080 -0.1010 -0.1401
  344BOLB   C2B 8242  22.450  10.387  23.200  0.5249 -0.3054 -0.1676
  344BOLB   C3B 8243  22.907  10.320  23.396 -0.1644 -0.5482  0.0417
  344BOLB   C4B 8244  23.334  10.051  23.351 -0.0142 -0.1278  0.0680
  344BOLB   NC2 8245  23.343  12.060  25.294  0.1889  0.1446 -0.0071
  344BOLB   PO2 8246  23.694  12.426  25.074  0.0815  0.4121 -0.1112
  344BOLB   GL3 8247  23.415  12.245  24.745  0.0062 -0.1173  0.1901
  344BOLB   GL4 8248  23.118  12.312  24.848  0.2470  0.2893 -0.0927
  344BOLB   C1C 8249  23.323  11.815  24.683  0.5288  0.0933  0.0399
  344BOLB   C2C 8250  22.928  11.567  24.542 -0.0094 -0.0858 -0.0056
  344BOLB   C3C 8251  22.676  11.363  24.353  0.3525  0.1823  0.0838
  344BOLB   C4C 8252  22.560  11.013  24.032  0.0144  0.3786  0.2228
  344BOLB   C1D 8253  22.848  12.122  24.529  0.2478  0.5772  0.1053
  344BOLB   C2D 8254  22.473  11.795  24.459 -0.2404 -0.2077 -0.1305
  344BOLB   C3D 8255  22.002  11.794  24.157  0.0562 -0.1162 -0.0040
  344BOLB   C4D 8256  21.596  11.589  24.044  0.1260 -0.1601 -0.0181
  345BOLB   NC1 8257  20.021  16.569  12.345 -0.0973 -0.1631  0.0759
  345BOLB   PO1 8258  20.277  16.336  12.291  0.2525 -0.2283 -0.1007
  345BOLB   GL1 8259  20.649  16.575  12.071  0.1302 -0.0914  0.0737
  345BOLB   GL2 8260  20.742  16.384  11.866  0.1124  0.1406 -0.1211
  345BOLB   C1A 8261  20.812  17.004  12.255 -0.2128  0.1440  0.0620
  345BOLB   C2A 8262  20.824  17.436  12.185 -0.2071 -0.0251  0.0110
  345BOLB   C3A 8263  20.704  17.831  11.959 -0.0072 -0.0821  0.0349
  345BOLB   C4A 8264  20.964  18.209  12.092  0.1543  0.7001 -0.1068
  345BOLB   C1B 8265  20.894  16.607  11.655 -0.0871  0.2901 -0.0417
  345BOLB   C2B 8266  20.877  17.027  11.735 -0.3529  0.0430 -0.0038
  345BOLB   C3B 8267  21.022  17.463  11.763  0.4135 -0.0835 -0.0104
  345BOLB   C4B 8268  21.313  17.729  11.493  0.0839  0.1914 -0.1410
  345BOLB   NC2 8269  22.170  19.491  11.014  0.1371  0.0380  0.0127
  345BOLB   PO2 8270  22.553  19.485  10.969  0.1214 -0.0091  0.0695
  345BOLB   GL3 8271  22.374  19.052  11.151  0.0368  0.0005 -0.0609
  345BOLB   GL4 8272  22.407  18.753  11.014  0.1673  0.1725  0.0034
  345BOLB   C1C 8273  22.136  18.959  11.540  0.3520  0.0181 -0.1305
  345BOLB   C2C 8274  21.745  18.886  11.751  0.2259 -0.0888 -0.2520
  345BOLB   C3C 8275  21.321  18.689  11.798 -0.1423  0.0477 -0.3818
  345BOLB   C4C 8276  21.042  18.583  12.000  0.1472 -0.1883  0.0323
  345BOLB   C1D 8277  21.970  18.794  11.085  0.0702  0.3931  0.1599
  345BOLB   C2D 8278  21.682  18.744  10.874  0.0045  0.0130  0.1257
  345BOLB   C3D 8279  21.416  18.608  10.562  0.0078 -0.2691 -0.0891
  345BOLB   C4D 8280  21.038  18.527  10.506  0.0394 -0.3264  0.1016
  346BOLB   NC1 8281   9.473  14.984  14.948  0.3303 -0.0005 -0.0144
  346BOLB   PO1 8282   9.239  14.717  14.755  0.2899  0.2077 -0.2881
  346BOLB   GL1 8283   9.041  15.057  14.434 -0.0034 -0.4297 -0.2292
  346BOLB   GL2 8284   9.222  14.907  14.181 -0.0841  0.0661  0.2266
  346BOLB   C1A 8285   8.957  15.326  14.078  0.1013  0.2520 -0.1772
  346BOLB   C2A 8286   8.683  15.593  14.002  0.0543  0.0341  0.4111
  346BOLB   C3A 8287   8.426  15.632  13.729  0.0617  0.0103 -0.0918
  346BOLB   C4A 8288   7.923  15.625  13.702  0.1071 -0.0994 -0.1900
  346BOLB   C1B 8289   8.925  14.590  14.218  0.0472 -0.0188 -0.0385
  346BOLB   C2B 8290   8.512  14.590  14.029 -0.0537  0.1036  0.0084
  346BOLB   C3B 8291   8.231  14.766  13.932 -0.0689 -0.1161  0.1483
  346BOLB   C4B 8292   7.913  15.119  13.817  0.1716 -0.1784 -0.0535
  346BOLB   NC2 8293   5.579  15.716  12.332 -0.1885 -0.0737  0.2194
  346BOLB   PO2 8294   5.654  15.354  12.583  0.1040 -0.0628  0.1602
  346BOLB   GL3 8295   6.096  15.254  12.494 -0.0844 -0.2325  0.2434
  346BOLB   GL4 8296   6.254  15.030  12.345  0.1965  0.0040  0.3098
  346BOLB   C1C 8297   6.534  15.193  12.746 -0.0481 -0.0977  0.3195
  346BOLB   C2C 8298   6.858  15.300  12.944  0.1222 -0.2524 -0.1544
  346BOLB   C3C 8299   7.306  15.317  13.110  0.1046 -0.0041  0.3683
  346BOLB   C4C 8300   7.597  15.325  13.411 -0.0980 -0.0908 -0.0937
  346BOLB   C1D 8301   6.277  14.782  12.795  0.1633 -0.1173  0.2787
  346BOLB   C2D 8302   6.481  14.347  12.870 -0.1892 -0.2505  0.0251
  346BOLB   C3D 8303   6.574  13.909  12.796 -0.3343  0.0766  0.1498
  346BOLB   C4D 8304   6.408  13.471  12.837 -0.1606 -0.3168  0.1428
  347BOLB   NC1 8305  23.256   6.102  16.628  0.0944 -0.0065  0.2317
  347BOLB   PO1 8306  23.175   5.705  16.366  0.1539  0.1655  0.1618
  347BOLB   GL1 8307  23.492   5.619  16.666 -0.1489  0.0604 -0.0424
  347BOLB   GL2 8308  23.513   5.778  16.899  0.0653  0.2118  0.2208
  347BOLB   C1A 8309  23.825   5.337  16.993 -0.0456 -0.2063 -0.0641
  347BOLB   C2A 8310  24.079   5.246  17.105 -0.0070  0.0541 -0.2968
  347BOLB   C3A 8311  24.489   4.983  17.171  0.1494  0.0138 -0.0694
  347BOLB   C4A 8312  24.867   4.730  17.442 -0.1312 -0.1228 -0.4668
  347BOLB   C1B 8313  23.944   5.871  16.974 -0.0791  0.2534 -0.1936
  347BOLB   C2B 8314  24.222   5.692  17.114 -0.4791 -0.1586 -0.3213
  347BOLB   C3B 8315  24.502   5.505  17.042  0.3996  0.1577  0.1908
  347BOLB   C4B 8316  24.896   5.270  17.193 -0.0805  0.0337 -0.1143
  347BOLB   NC2 8317  27.433   5.375  17.296 -0.0211  0.2396  0.1983
  347BOLB   PO2 8318  27.224   5.286  17.729 -0.2755  0.1332  0.2860
  347BOLB   GL3 8319  26.802   5.381  17.910 -0.0566 -0.0098  0.2352
  347BOLB   GL4 8320  26.660   5.723  17.841 -0.1436 -0.1351 -0.1361
  347BOLB   C1C 8321  26.486   5.141  17.599  0.2632  0.1363 -0.0748
  347BOLB   C2C 8322  26.067   5.276  17.489  0.2117 -0.2518  0.1619
  347BOLB   C3C 8323  25.646   5.274  17.434 -0.2194  0.0891  0.0686
  347BOLB   C4C 8324  25.201   5.042  17.617  0.0425 -0.1154 -0.2639
  347BOLB   C1D 8325  26.419   5.702  17.504 -0.2406  0.1247 -0.2937
  347BOLB   C2D 8326  26.211   5.904  17.141  0.0328 -0.0760 -0.0348
  347BOLB   C3D 8327  26.112   5.959  16.799  0.0604  0.0188  0.0646
  347BOLB   C4D 8328  25.708   6.057  16.741  0.0643  0.0226  0.0998
  348BOLB   NC1 8329  21.356  13.970  10.380 -0.1465  0.3091  0.0609
  348BOLB   PO1 8330  21.380  14.353  10.506 -0.2267 -0.0118 -0.0157
  348BOLB   GL1 8331  21.718  14.703  10.642 -0.3319 -0.2321  0.3686
  348BOLB   GL2 8332  21.749  14.491  10.878  0.2603  0.0609 -0.2332
  348BOLB   C1A 8333  22.005  15.066  10.555 -0.0169  0.3043 -0.3474
  348BOLB   C2A 8334  22.233  15.094  10.267  0.1731 -0.2011 -0.0104
  348BOLB   C3A 8335  22.392  14.855  10.013  0.3974 -0.0726 -0.1440
  348BOLB   C4A 8336  22.569  14.510   9.635  0.0310  0.1180  0.2403
  348BOLB   C1B 8337  22.121  14.519  10.580  0.0433 -0.4697  0.0757
  348BOLB   C2B 8338  22.360  14.480  10.353  0.3095  0.2954 -0.1709
  348BOLB   C3B 8339  22.814  14.438  10.120  0.0372  0.1853  0.0277
  348BOLB   C4B 8340  23.177  14.613   9.909 -0.1156 -0.1438 -0.0821
  348BOLB   NC2 8341  23.028  15.250   7.092 -0.1824  0.2649 -0.0713
  348BOLB   PO2 8342  22.766  15.585   7.311 -0.2763 -0.2648 -0.2725
  348BOLB   GL3 8343  22.637  15.344   7.699 -0.1780 -0.1709  0.0683
  348BOLB   GL4 8344  22.710  15.080   7.431  0.0732  0.1417  0.1808
  348BOLB   C1C 8345  22.455  15.359   8.108  0.1027  0.1194 -0.2828
  348BOLB   C2C 8346  22.511  15.161   8.561  0.2410  0.1602  0.1190
  348BOLB   C3C 8347  22.583  14.832   8.832 -0.3683  0.1730  0.0510
  348BOLB   C4C 8348  22.447  14.538   9.191 -0.0667  0.0007  0.1397
  348BOLB   C1D 8349  22.681  14.659   7.597  0.0437 -0.0052  0.1659
  348BOLB   C2D 8350  22.951  14.465   7.977 -0.4223 -0.2244  0.0513
  348BOLB   C3D 8351  23.245  14.129   8.103 -0.1702  0.2384  0.0834
  348BOLB   C4D 8352  23.503  13.789   8.003  0.1847 -0.0530  0.1854
  349BOLB   NC1 8353   2.288   9.530   8.843  0.0281 -0.0750  0.2595
  349BOLB   PO1 8354   2.220   9.929   9.231  0.2784 -0.1412 -0.2755
  349BOLB   GL1 8355   2.478   9.917   9.486 -0.1992 -0.0333 -0.2466
  349BOLB   GL2 8356   2.536   9.580   9.621 -0.1008  0.1309  0.0130
  349BOLB   C1A 8357   2.682  10.120   9.860  0.1279  0.1440 -0.7349
  349BOLB   C2A 8358   2.848  10.331  10.236  0.0563 -0.0707  0.1202
  349BOLB   C3A 8359   2.848  10.727  10.176  0.0254  0.3006  0.0527
  349BOLB   C4A 8360   2.882  11.124  10.223  0.1121  0.0781 -0.1624
  349BOLB   C1B 8361   2.979   9.673   9.800  0.2003  0.1738 -0.0104
  349BOLB   C2B 8362   3.254   9.636  10.233 -0.0535  0.4701  0.3728
  349BOLB   C3B 8363   3.340   9.767  10.735 -0.1321 -0.2271  0.1078
  349BOLB   C4B 8364   3.254   9.933  11.163  0.0488  0.0301 -0.1778
  349BOLB   NC2 8365   1.376  11.096  10.271 -0.1752  0.4353 -0.0995
  349BOLB   PO2 8366   1.516  10.693  10.076 -0.0753 -0.0121 -0.1837
  349BOLB   GL3 8367   1.646  10.594  10.464  0.1090 -0.0439 -0.1132
  349BOLB   GL4 8368   1.734  10.233  10.549  0.0456 -0.2157  0.0284
  349BOLB   C1C 8369   1.958  10.716  10.734  0.2174  0.0533 -0.0926
  349BOLB   C2C 8370   2.210  11.097  10.878  0.2188 -0.1550  0.1755
  349BOLB   C3C 8371   2.489  11.490  10.797 -0.3480 -0.2545 -0.3462
  349BOLB   C4C 8372   2.661  11.475  10.379  0.1114 -0.1956  0.0825
  349BOLB   C1D 8373   2.045  10.253  10.827 -0.4858  0.1710 -0.1803
  349BOLB   C2D 8374   2.076  10.281  11.278 -0.2054  0.2650 -0.1003
  349BOLB   C3D 8375   2.446  10.147  11.591 -0.0334  0.2814 -0.1143
  349BOLB   C4D 8376   2.820  10.152  11.594  0.0820 -0.3452 -0.4261
  350BOLB   NC1 8377  17.734   9.166   8.322 -0.1313  0.0147 -0.7117
  350BOLB   PO1 8378  17.279   9.120   8.339  0.0801  0.1571  0.0945
  350BOLB   GL1 8379  17.491   8.851   8.002 -0.0564  0.0664 -0.3610
  350BOLB   GL2 8380  17.300   8.635   8.175 -0.1885 -0.1167  0.0757
  350BOLB   C1A 8381  17.693   8.800   7.615 -0.0944 -0.2712  0.0108
  350BOLB   C2A 8382  18.132   8.756   7.467 -0.2489 -0.1998 -0.0687
  350BOLB   C3A 8383  18.252   8.697   7.000  0.3477  0.0621 -0.5030
  350BOLB   C4A 8384  18.342   9.065   6.688  0.0388 -0.2316 -0.2578
  350BOLB   C1B 8385  17.400   8.377   7.827  0.1449 -0.3145  0.2337
  350BOLB   C2B 8386  17.408   8.441   7.328  0.1220  0.0091 -0.0221
  350BOLB   C3B 8387  17.198   8.225   6.989 -0.3687  0.1141 -0.0121
  350BOLB   C4B 8388  17.203   8.139   6.550  0.1318 -0.0698  0.0815
  350BOLB   NC2 8389  19.475   9.023   4.608 -0.1037  0.0478  0.1124
  350BOLB   PO2 8390  19.262   8.620   4.574 -0.0153 -0.1060 -0.1914
  350BOLB   GL3 8391  19.056   8.820   4.830 -0.0655 -0.3004  0.5448
  350BOLB   GL4 8392  18.803   8.951   4.707 -0.0300  0.2848 -0.1193
  350BOLB   C1C 8393  19.044   8.849   5.245  0.1357  0.0623 -0.2220
  350BOLB   C2C 8394  18.734   9.030   5.563  0.0274  0.1559  0.0782
  350BOLB   C3C 8395  18.351   9.043   5.863  0.2750 -0.2390 -0.0178
  350BOLB   C4C 8396  18.290   9.046   6.356  0.3377  0.0279  0.0649
  350BOLB   C1D 8397  18.606   9.037   5.082  0.1469  0.2229 -0.1978
  350BOLB   C2D 8398  18.272   8.828   5.304  0.2585 -0.1220 -0.0021
  350BOLB   C3D 8399  18.092   8.714   5.623 -0.0656 -0.0857  0.2330
  350BOLB   C4D 8400  17.730   8.570   5.714  0.1895  0.1047 -0.3123
  351BOLB   NC1 8401  23.977  11.095  13.472  0.2879 -0.4332 -0.2056
  351BOLB   PO1 8402  24.476  11.132  13.451  0.0043  0.0728 -0.0821
  351BOLB   GL1 8403  24.826  11.300  13.266 -0.0351  0.1176 -0.0855
  351BOLB   GL2 8404  24.850  11.223  13.005  0.1039 -0.0834  0.2185
  351BOLB   C1A 8405  25.312  11.074  13.242 -0.0836  0.2121  0.1422
  351BOLB   C2A 8406  25.396  10.772  12.980  0.3041 -0.1729 -0.0326
  351BOLB   C3A 8407  25.632  10.507  12.985 -0.1973 -0.1386  0.2220
  351BOLB   C4A 8408  25.945  10.201  13.118  0.0867 -0.0208 -0.3341
  351BOLB   C1B 8409  25.263  11.233  12.775  0.2239  0.1678  0.1901
  351BOLB   C2B 8410  25.719  11.226  12.946  0.2232  0.0903 -0.1937
  351BOLB   C3B 8411  25.815  10.907  13.313 -0.0606 -0.2606 -0.1093
  351BOLB   C4B 8412  25.965  10.671  13.671  0.1569 -0.4029  0.3706
  351BOLB   NC2 8413  27.909  10.456  12.347 -0.0236  0.0815 -0.3187
  351BOLB   PO2 8414  28.171  10.358  12.790  0.0163  0.0491 -0.1838
  351BOLB   GL3 8415  27.889  10.064  12.702  0.1681 -0.0430 -0.2615
  351BOLB   GL4 8416  27.594  10.146  12.569 -0.2354  0.3539  0.2657
  351BOLB   C1C 8417  27.522   9.674  12.776 -0.4289 -0.0048  0.2642
  351BOLB   C2C 8418  27.065   9.749  12.898 -0.0783  0.3545  0.4627
  351BOLB   C3C 8419  26.676   9.641  13.097  0.2312  0.0455 -0.0492
  351BOLB   C4C 8420  26.233   9.860  13.214  0.2980  0.1007 -0.2017
  351BOLB   C1D 8421  27.115  10.022  12.450 -0.0245  0.1323 -0.5096
  351BOLB   C2D 8422  26.812  10.059  12.201 -0.0348 -0.3130 -0.0608
  351BOLB   C3D 8423  26.332  10.163  12.102  0.0798 -0.2072  0.1159
  351BOLB   C4D 8424  25.897  10.053  12.175 -0.1423  0.1540 -0.1490
  352BOLB   NC1 8425  23.516  10.510  12.120  0.0222  0.0971 -0.2176
  352BOLB   PO1 8426  23.313  10.281  11.854 -0.1675 -0.0275 -0.0357
  352BOLB   GL1 8427  23.743  10.418  11.682 -0.0251  0.1916  0.1717
  352BOLB   GL2 8428  23.843  10.140  11.405  0.1822  0.2565 -0.3097
  352BOLB   C1A 8429  23.933  10.729  11.493 -0.1164  0.1292 -0.2062
  352BOLB   C2A 8430  24.294  10.944  11.232  0.0968  0.2241  0.0083
  352BOLB   C3A 8431  24.367  11.338  11.059 -0.3708  0.2496 -0.0943
  352BOLB   C4A 8432  24.604  11.678  10.899 -0.0371  0.0630 -0.3019
  352BOLB   C1B 8433  24.254  10.370  11.356 -0.0789  0.1156 -0.2793
  352BOLB   C2B 8434  24.733  10.087  11.341  0.3333  0.4110 -0.0844
  352BOLB   C3B 8435  24.951   9.806  11.091  0.1130 -0.0853  0.2325
  352BOLB   C4B 8436  25.148   9.496  10.858 -0.3086  0.1890 -0.1528
  352BOLB   NC2 8437  26.635  12.109   9.930 -0.3847 -0.0476 -0.1548
  352BOLB   PO2 8438  26.323  12.294   9.551 -0.2051 -0.1451 -0.0366
  352BOLB   GL3 8439  25.821  12.103   9.490 -0.0504  0.1279  0.1794
  352BOLB   GL4 8440  25.791  11.836   9.199 -0.1876  0.0075 -0.0920
  352BOLB   C1C 8441  25.682  11.767   9.819 -0.2865 -0.2028 -0.3081
  352BOLB   C2C 8442  25.380  11.740  10.094 -0.1966  0.2553  0.0506
  352BOLB   C3C 8443  24.952  11.889  10.280 -0.1863  0.2563 -0.4082
  352BOLB   C4C 8444  24.662  11.959  10.546  0.0432 -0.0975 -0.0805
  352BOLB   C1D 8445  25.333  11.811   9.224 -0.1793 -0.1459 -0.1369
  352BOLB   C2D 8446  24.868  12.018   9.375 -0.1824 -0.1072  0.1996
  352BOLB   C3D 8447  24.474  11.894   9.441 -0.1424 -0.1276 -0.0713
  352BOLB   C4D 8448  24.188  11.956   9.770  0.2752  0.2253 -0.1383
  353BOLB   NC1 8449  17.662  18.088  15.580 -0.0924 -0.2478 -0.3188
  353BOLB   PO1 8450  17.546  18.491  15.733  0.0964 -0.0312  0.0287
  353BOLB   GL1 8451  17.570  18.976  15.731  0.0343  0.0185 -0.0372
  353BOLB   GL2 8452  17.418  19.117  15.917  0.1871  0.0773 -0.1761
  353BOLB   C1A 8453  17.803  19.312  15.637 -0.2409  0.0796  0.0169
  353BOLB   C2A 8454  17.654  19.736  15.610  0.0945  0.3258 -0.0138
  353BOLB   C3A 8455  17.620  20.211  15.393 -0.0157  0.1855  0.0350
  353BOLB   C4A 8456  17.675  20.661  15.036 -0.0837 -0.0409 -0.0583
  353BOLB   C1B 8457  17.122  19.489  15.696 -0.2515 -0.0140  0.0044
  353BOLB   C2B 8458  17.199  19.866  15.654  0.3662 -0.2021  0.2026
  353BOLB   C3B 8459  17.100  20.319  15.452 -0.0056  0.0554 -0.0182
  353BOLB   C4B 8460  17.152  20.526  15.137  0.4226  0.2226 -0.0430
  353BOLB   NC2 8461  17.437  22.628  13.485 -0.3186 -0.1042  0.0397
  353BOLB   PO2 8462  17.659  22.352  13.723 -0.2961  0.0055  0.1014
  353BOLB   GL3 8463  17.487  21.987  13.631  0.3644 -0.1477 -0.2493
  353BOLB   GL4 8464  17.322  21.991  13.380  0.2269 -0.2092  0.0853
  353BOLB   C1C 8465  17.500  21.613  13.888 -0.2772  0.0256 -0.3288
  353BOLB   C2C 8466  17.472  21.174  13.916  0.1794 -0.0561  0.0459
  353BOLB   C3C 8467  17.455  20.884  14.255  0.0926  0.2432 -0.0285
  353BOLB   C4C 8468  17.532  20.636  14.608 -0.5045  0.1928 -0.0727
  353BOLB   C1D 8469  17.365  21.474  13.435  0.0568 -0.2554 -0.0637
  353BOLB   C2D 8470  17.262  21.010  13.493  0.3585 -0.1821 -0.1142
  353BOLB   C3D 8471  17.195  20.741  13.863  0.0123 -0.1379 -0.3018
  353BOLB   C4D 8472  17.111  20.428  14.195 -0.0752  0.0482 -0.3053
  354BOLB   NC1 8473  19.686   7.501  22.526 -0.1364  0.1559 -0.0279
  354BOLB   PO1 8474  19.282   7.355  22.478  0.0339  0.2097 -0.3147
  354BOLB   GL1 8475  19.329   7.309  22.968 -0.0545 -0.1650  0.1749
  354BOLB   GL2 8476  19.222   7.605  23.144 -0.3901 -0.0142  0.3008
  354BOLB   C1A 8477  19.606   7.087  23.106 -0.3918  0.1432  0.0927
  354BOLB   C2A 8478  20.050   6.882  23.019  0.0863 -0.1315 -0.3289
  354BOLB   C3A 8479  20.263   6.658  23.312 -0.1093 -0.1178 -0.0739
  354BOLB   C4A 8480  20.437   6.428  23.612  0.0063 -0.1395  0.0828
  354BOLB   C1B 8481  19.495   7.367  23.485 -0.3097 -0.2577  0.1805
  354BOLB   C2B 8482  19.407   7.121  23.737 -0.0070 -0.1120 -0.3021
  354BOLB   C3B 8483  19.660   6.771  23.899  0.1496  0.1773 -0.0743
  354BOLB   C4B 8484  19.623   6.487  24.380  0.0848 -0.2170  0.0478
  354BOLB   NC2 8485  21.244   4.958  26.081 -0.2162 -0.1215 -0.0824
  354BOLB   PO2 8486  20.989   5.091  25.714 -0.2691  0.0581  0.1977
  354BOLB   GL3 8487  20.869   5.605  25.497  0.3616  0.2564  0.0581
  354BOLB   GL4 8488  21.046   5.732  25.307 -0.2934  0.0453  0.3023
  354BOLB   C1C 8489  20.619   5.900  25.197 -0.2492  0.2151 -0.2319
  354BOLB   C2C 8490  20.729   6.201  24.858 -0.0803  0.0820  0.2570
  354BOLB   C3C 8491  20.643   6.316  24.407 -0.0550  0.1384  0.1702
  354BOLB   C4C 8492  20.503   6.393  23.983 -0.0199  0.0879 -0.1449
  354BOLB   C1D 8493  20.780   5.385  25.100 -0.0156 -0.2699  0.0192
  354BOLB   C2D 8494  21.053   5.134  24.882  0.1473 -0.0830  0.2288
  354BOLB   C3D 8495  21.450   5.217  24.776 -0.0898  0.1242 -0.0626
  354BOLB   C4D 8496  21.659   5.625  24.609  0.4141 -0.1396 -0.0832
  355BOLB   NC1 8497  12.962  14.926  21.193 -0.1621  0.0083 -0.3636
  355BOLB   PO1 8498  12.556  14.707  21.413  0.1095  0.0280  0.1139
  355BOLB   GL1 8499  12.250  15.064  21.513  0.0574  0.3963  0.0625
  355BOLB   GL2 8500  12.442  15.095  21.791 -0.0273  0.0442  0.0883
  355BOLB   C1A 8501  11.883  15.206  21.690 -0.1621  0.0031 -0.0651
  355BOLB   C2A 8502  11.621  15.489  21.958 -0.0445 -0.0345  0.1848
  355BOLB   C3A 8503  11.624  15.871  22.199  0.1677  0.0562  0.1221
  355BOLB   C4A 8504  11.377  16.158  22.399  0.1278  0.1509  0.0810
  355BOLB   C1B 8505  12.421  15.223  22.099 -0.0599 -0.0526 -0.4055
  355BOLB   C2B 8506  12.259  15.187  22.542  0.0681  0.0546 -0.1153
  355BOLB   C3B 8507  12.350  15.273  22.961  0.2650  0.1812 -0.2634
  355BOLB   C4B 8508  12.093  15.286  23.261 -0.3645 -0.0024  0.1425
  355BOLB   NC2 8509   9.906  16.659  24.076 -0.3274 -0.7203  0.1210
  355BOLB   PO2 8510   9.989  17.099  23.840 -0.2595  0.0201 -0.0522
  355BOLB   GL3 8511   9.887  16.857  23.564  0.1497  0.1407 -0.0267
  355BOLB   GL4 8512   9.762  16.622  23.352  0.1390 -0.5142 -0.1169
  355BOLB   C1C 8513  10.238  16.655  23.320 -0.0343 -0.1146  0.1591
  355BOLB   C2C 8514  10.449  16.427  23.219 -0.1605 -0.1698 -0.1313
  355BOLB   C3C 8515  10.761  16.352  22.748  0.1151 -0.0099 -0.3304
  355BOLB   C4C 8516  11.209  16.447  22.581  0.0530  0.0640 -0.0648
  355BOLB   C1D 8517   9.995  16.275  23.466 -0.0446  0.3416  0.1246
  355BOLB   C2D 8518  10.172  15.935  23.283  0.4457  0.1007  0.1037
  355BOLB   C3D 8519  10.486  15.967  22.865 -0.1808  0.1111 -0.0204
  355BOLB   C4D 8520  10.763  15.896  22.474 -0.0940  0.0494 -0.0536
  356BOLB   NC1 8521  13.936   2.204  18.000 -0.0320  0.2291  0.0572
  356BOLB   PO1 8522  14.101   1.947  18.425 -0.2494  0.1807 -0.3789
  356BOLB   GL1 8523  13.926   1.614  18.596  0.0250  0.1024 -0.4537
  356BOLB   GL2 8524  14.072   1.553  18.827 -0.3327 -0.1864 -0.2768
  356BOLB   C1A 8525  13.629   1.337  18.689 -0.0509  0.4681 -0.1757
  356BOLB   C2A 8526  13.402   1.049  18.914 -0.2713 -0.1462 -0.0929
  356BOLB   C3A 8527  13.360   0.670  19.174 -0.2632  0.2104 -0.0494
  356BOLB   C4A 8528  13.402   0.607  19.694 -0.1878 -0.1779 -0.0031
  356BOLB   C1B 8529  14.149   1.183  18.657  0.2366 -0.5061  0.0102
  356BOLB   C2B 8530  14.238   0.699  18.541 -0.3878 -0.0893 -0.2243
  356BOLB   C3B 8531  14.440   0.358  18.651 -0.1135 -0.0925 -0.0435
  356BOLB   C4B 8532  14.696   0.214  18.960 -0.1234 -0.0494  0.3144
  356BOLB   NC2 8533  13.502  -0.619  21.595  0.1993  0.0251  0.3323
  356BOLB   PO2 8534  13.152  -0.740  21.367  0.4934  0.1589 -0.0782
  356BOLB   GL3 8535  13.142  -0.441  21.004 -0.1477  0.0430 -0.2419
  356BOLB   GL4 8536  13.262  -0.140  20.942  0.1842 -0.1878 -0.0131
  356BOLB   C1C 8537  13.155  -0.372  20.549 -0.0518 -0.0339 -0.1244
  356BOLB   C2C 8538  12.881  -0.028  20.491 -0.1042 -0.2513  0.0548
  356BOLB   C3C 8539  13.153   0.313  20.338  0.0824  0.0460 -0.2647
  356BOLB   C4C 8540  13.428   0.411  20.052  0.2882 -0.0433 -0.1668
  356BOLB   C1D 8541  13.536  -0.015  20.560  0.2258  0.2294  0.1790
  356BOLB   C2D 8542  13.785   0.325  20.414  0.0338  0.1780  0.1421
  356BOLB   C3D 8543  14.194   0.462  20.408 -0.1703 -0.1656 -0.1447
  356BOLB   C4D 8544  14.547   0.226  20.656  0.1825 -0.2552 -0.0052
  357BOLB   NC1 8545  22.154   4.372  17.275 -0.1913  0.4081 -0.1521
  357BOLB   PO1 8546  21.895   4.055  17.382 -0.0364 -0.3794 -0.5932
  357BOLB   GL1 8547  22.242   3.741  17.456  0.1177 -0.2976 -0.2128
  357BOLB   GL2 8548  22.436   3.915  17.263  0.2443  0.1310 -0.0993
  357BOLB   C1A 8549  22.533   3.396  17.540  0.0427 -0.1782  0.0916
  357BOLB   C2A 8550  22.869   3.125  17.523  0.3022 -0.0978 -0.0638
  357BOLB   C3A 8551  23.318   3.086  17.586  0.1118  0.1175 -0.0545
  357BOLB   C4A 8552  23.736   3.209  17.635  0.0581  0.0161  0.0610
  357BOLB   C1B 8553  22.791   3.765  17.207 -0.0422 -0.1395  0.1420
  357BOLB   C2B 8554  23.174   3.508  17.399 -0.0823  0.0922  0.2059
  357BOLB   C3B 8555  23.451   3.288  17.175 -0.5787 -0.2824 -0.1125
  357BOLB   C4B 8556  23.858   3.265  17.116  0.0319  0.2551 -0.1355
  357BOLB   NC2 8557  26.358   1.897  17.085 -0.1546  0.0200  0.5508
  357BOLB   PO2 8558  25.944   2.070  17.116  0.2930  0.3465  0.0614
  357BOLB   GL3 8559  25.548   2.316  17.023  0.0104 -0.2623 -0.1739
  357BOLB   GL4 8560  25.558   2.397  16.688  0.0106 -0.0241 -0.1652
  357BOLB   C1C 8561  25.308   2.769  17.055  0.3238  0.0967 -0.3626
  357BOLB   C2C 8562  24.903   3.019  17.125  0.0080 -0.3767 -0.0173
  357BOLB   C3C 8563  24.578   2.991  17.443 -0.0001  0.1832 -0.2250
  357BOLB   C4C 8564  24.194   3.192  17.576  0.4963 -0.4708 -0.1717
  357BOLB   C1D 8565  25.200   2.765  16.575  0.0117  0.0454  0.1313
  357BOLB   C2D 8566  24.764   3.030  16.510  0.2151  0.1024  0.0863
  357BOLB   C3D 8567  24.535   3.419  16.527 -0.1979  0.3737 -0.1020
  357BOLB   C4D 8568  24.296   3.781  16.379 -0.2243  0.1352 -0.4102
  358BOLB   NC1 8569  19.189   6.265   9.054  0.0885  0.0538 -0.0593
  358BOLB   PO1 8570  19.372   5.969   9.398 -0.0724  0.2476  0.1980
  358BOLB   GL1 8571  19.382   5.673   8.995 -0.0543 -0.2023  0.1719
  358BOLB   GL2 8572  19.199   5.872   8.740 -0.2208 -0.2435  0.0226
  358BOLB   C1A 8573  19.605   5.544   8.515 -0.0756 -0.0267  0.1047
  358BOLB   C2A 8574  19.855   5.438   8.151 -0.1024  0.2427 -0.0363
  358BOLB   C3A 8575  19.892   5.246   7.742 -0.2883 -0.0134 -0.0164
  358BOLB   C4A 8576  20.101   5.057   7.479  0.2036  0.1506  0.0890
  358BOLB   C1B 8577  19.260   5.902   8.321 -0.2110  0.0797 -0.4494
  358BOLB   C2B 8578  19.287   6.189   7.935  0.1207 -0.1191 -0.4183
  358BOLB   C3B 8579  19.556   6.480   7.704 -0.0970  0.3255 -0.0785
  358BOLB   C4B 8580  20.009   6.560   7.532 -0.0367  0.0477  0.2555
  358BOLB   NC2 8581  20.844   4.628   5.095 -0.1777 -0.2889 -0.1240
  358BOLB   PO2 8582  21.228   4.883   5.387  0.2779  0.3555  0.3656
  358BOLB   GL3 8583  20.831   4.706   5.638  0.0855  0.3269  0.2167
  358BOLB   GL4 8584  20.638   4.586   5.641 -0.1861  0.1907 -0.0903
  358BOLB   C1C 8585  20.528   4.803   6.088  0.1591  0.2685 -0.0439
  358BOLB   C2C 8586  20.277   4.744   6.433  0.0024  0.1089 -0.3292
  358BOLB   C3C 8587  20.015   4.850   6.766 -0.4602  0.1227  0.0085
  358BOLB   C4C 8588  19.954   4.963   7.155 -0.0919  0.1127  0.3917
  358BOLB   C1D 8589  20.371   4.970   5.664  0.0976  0.2899  0.0934
  358BOLB   C2D 8590  20.161   5.088   6.015 -0.1503  0.1680  0.0723
  358BOLB   C3D 8591  19.814   5.039   6.234  0.0957  0.1431  0.1316
  358BOLB   C4D 8592  19.494   4.921   6.542 -0.1615  0.3531  0.1054
  359BOLB   NC1 8593  10.171   5.074  18.428  0.1575  0.1432  0.1058
  359BOLB   PO1 8594   9.997   4.835  18.790 -0.1314 -0.0681 -0.1677
  359BOLB   GL1 8595   9.932   4.409  18.862  0.1279  0.0869 -0.0589
  359BOLB   GL2 8596   9.791   4.532  19.176 -0.1113  0.1593  0.1718
  359BOLB   C1A 8597   9.726   4.023  19.008  0.0972 -0.0315  0.2419
  359BOLB   C2A 8598   9.435   3.706  19.066 -0.0767 -0.4467 -0.0957
  359BOLB   C3A 8599   9.108   3.256  19.206  0.0944  0.1170 -0.0260
  359BOLB   C4A 8600   8.908   2.912  19.371 -0.1022  0.0466 -0.2758
  359BOLB   C1B 8601   9.472   4.320  19.265  0.0313 -0.4817  0.1332
  359BOLB   C2B 8602   9.256   4.001  19.430 -0.0924 -0.2308  0.2548
  359BOLB   C3B 8603   9.322   3.528  19.605  0.2062  0.2279  0.0995
  359BOLB   C4B 8604   9.124   3.244  19.760 -0.0686 -0.0974  0.2031
  359BOLB   NC2 8605   7.526   0.261  19.547  0.4065 -0.0651  0.1479
  359BOLB   PO2 8606   7.653   0.757  19.539 -0.0439  0.5178  0.1524
  359BOLB   GL3 8607   8.023   1.091  19.315  0.0780 -0.3159  0.2118
  359BOLB   GL4 8608   7.845   1.399  19.145  0.0721  0.0253 -0.1508
  359BOLB   C1C 8609   8.430   1.276  19.229 -0.3033  0.0372 -0.2745
  359BOLB   C2C 8610   8.879   1.627  19.196  0.2516  0.0413  0.1549
  359BOLB   C3C 8611   8.849   2.076  19.121  0.0336  0.2677 -0.2324
  359BOLB   C4C 8612   8.764   2.446  19.248 -0.5489 -0.0876 -0.0467
  359BOLB   C1D 8613   7.659   1.079  18.947 -0.1530  0.2307 -0.2634
  359BOLB   C2D 8614   7.643   0.775  18.608  0.0188 -0.0151  0.0250
  359BOLB   C3D 8615   7.490   0.641  18.167  0.0066  0.1717 -0.1046
  359BOLB   C4D 8616   7.205   0.565  17.904  0.1616  0.2077  0.0398
  360BOLB   NC1 8617  16.208   1.284  14.968  0.1652 -0.3596  0.5052
  360BOLB   PO1 8618  16.682   1.160  14.915  0.1164 -0.0882  0.1408
  360BOLB   GL1 8619  16.447   0.786  15.021  0.0142 -0.0095  0.2587
  360BOLB   GL2 8620  16.196   0.816  14.789 -0.1247  0.0377 -0.0626
  360BOLB   C1A 8621  16.336   0.419  14.609 -0.1612  0.1428  0.0536
  360BOLB   C2A 8622  16.417  -0.051  14.593  0.0867  0.0745 -0.2317
  360BOLB   C3A 8623  16.441  -0.539  14.428 -0.4599  0.0479 -0.1152
  360BOLB   C4A 8624  16.568  -0.913  14.549 -0.0846  0.1540  0.1938
  360BOLB   C1B 8625  15.949   0.776  14.566  0.3077  0.1737 -0.0420
  360BOLB   C2B 8626  15.719   0.547  14.343 -0.0286  0.1379  0.1642
  360BOLB   C3B 8627  15.430   0.347  14.294  0.0119 -0.1250 -0.1289
  360BOLB   C4B 8628  15.158   0.280  13.950 -0.1344  0.0211 -0.1526
  360BOLB   NC2 8629  17.916  -2.943  12.955 -0.1360  0.0539 -0.1478
  360BOLB   PO2 8630  18.021  -2.870  13.464  0.1866  0.1142 -0.1829
  360BOLB   GL3 8631  17.673  -2.557  13.649 -0.2852  0.0091 -0.0243
  360BOLB   GL4 8632  17.818  -2.316  13.373 -0.0392 -0.0787 -0.2605
  360BOLB   C1C 8633  17.547  -2.228  13.926  0.2802  0.0231  0.1350
  360BOLB   C2C 8634  17.582  -1.755  14.154  0.1941  0.1478  0.3753
  360BOLB   C3C 8635  17.294  -1.396  14.379  0.0545  0.1413 -0.2095
  360BOLB   C4C 8636  16.938  -1.163  14.499 -0.1647 -0.1437 -0.1295
  360BOLB   C1D 8637  17.946  -1.962  13.494  0.0079  0.2248 -0.2284
  360BOLB   C2D 8638  17.763  -1.567  13.568 -0.0569  0.2876 -0.1408
  360BOLB   C3D 8639  17.742  -1.224  13.830  0.3247 -0.2377  0.0860
  360BOLB   C4D 8640  17.967  -0.915  14.030  0.0220 -0.1195  0.2113
  361BOLB   NC1 8641  12.278   4.424  18.960  0.0278  0.0144 -0.0265
  361BOLB   PO1 8642  11.898   4.356  19.268 -0.1130  0.0641  0.0056
  361BOLB   GL1 8643  11.877   4.024  19.583  0.2303  0.4142  0.3384
  361BOLB   GL2 8644  12.072   3.894  19.695 -0.0738 -0.1631 -0.2782
  361BOLB   C1A 8645  11.560   3.718  19.827  0.1917  0.0765  0.3275
  361BOLB   C2A 8646  11.224   3.542  20.135  0.1013  0.0201  0.1050
  361BOLB   C3A 8647  10.785   3.371  20.319 -0.0100 -0.3839 -0.2675
  361BOLB   C4A 8648  10.279   3.280  20.480 -0.2027 -0.1261  0.0076
  361BOLB   C1B 8649  11.993   3.571  19.954 -0.2409  0.0735  0.1293
  361BOLB   C2B 8650  11.678   3.301  20.239 -0.1872 -0.1885 -0.3404
  361BOLB   C3B 8651  11.335   3.154  20.390  0.2265  0.3614 -0.5809
  361BOLB   C4B 8652  11.033   2.840  20.436  0.0757  0.0272 -0.0288
  361BOLB   NC2 8653   8.458   2.200  22.284 -0.1771 -0.1062  0.0789
  361BOLB   PO2 8654   8.799   1.887  22.177 -0.0997 -0.1510  0.2160
  361BOLB   GL3 8655   8.877   2.078  21.804  0.1433 -0.1589  0.0824
  361BOLB   GL4 8656   8.825   1.878  21.581  0.0063  0.1377  0.4489
  361BOLB   C1C 8657   9.193   2.415  21.581  0.1521 -0.0374  0.4254
  361BOLB   C2C 8658   9.544   2.634  21.347 -0.2697 -0.1925 -0.0453
  361BOLB   C3C 8659   9.776   2.879  20.995 -0.0697  0.1637  0.2111
  361BOLB   C4C 8660  10.119   3.043  20.950 -0.0099  0.1289 -0.1230
  361BOLB   C1D 8661   9.002   2.154  21.175  0.1984  0.0030 -0.2324
  361BOLB   C2D 8662   9.174   2.375  20.879 -0.1582 -0.5232  0.1725
  361BOLB   C3D 8663   9.286   2.756  20.815  0.2393  0.3595 -0.1202
  361BOLB   C4D 8664   9.439   3.133  20.779  0.3881  0.0200  0.2367
  362BOLB   NC1 8665  13.512  31.171  10.698 -0.3274 -0.0075 -0.1886
  362BOLB   PO1 8666  13.982  31.253  10.655  0.0304 -0.2298  0.4082
  362BOLB   GL1 8667  13.729  31.567  10.800 -0.1961 -0.0993  0.1283
  362BOLB   GL2 8668  13.506  31.531  11.049  0.2991 -0.0629  0.0504
  362BOLB   C1A 8669  13.796  31.960  10.688  0.3789 -0.3210  0.1789
  362BOLB   C2A 8670  13.836  32.409  10.651  0.0891 -0.1558  0.1631
  362BOLB   C3A 8671  13.778  32.754  10.553  0.0668  0.0152 -0.2547
  362BOLB   C4A 8672  13.342  32.993  10.603 -0.4619  0.1385 -0.0388
  362BOLB   C1B 8673  13.281  31.952  10.927  0.0400 -0.1816 -0.1395
  362BOLB   C2B 8674  13.196  32.374  10.826 -0.0149  0.2488  0.2425
  362BOLB   C3B 8675  13.029  32.789  11.055  0.0956  0.1398 -0.1320
  362BOLB   C4B 8676  13.229  33.209  11.116  0.1237  0.2389 -0.0954
  362BOLB   NC2 8677  12.045  31.533   9.629  0.1767  0.0939 -0.0109
  362BOLB   PO2 8678  12.007  31.825   9.929  0.2014 -0.2200 -0.0511
  362BOLB   GL3 8679  12.384  32.036   9.905  0.3806 -0.4060  0.1373
  362BOLB   GL4 8680  12.775  31.969   9.952 -0.0569  0.0659  0.4534
  362BOLB   C1C 8681  12.442  32.471  10.156 -0.1518 -0.0789  0.0229
  362BOLB   C2C 8682  12.513  32.938  10.111 -0.3189 -0.1170  0.1338
  362BOLB   C3C 8683  12.930  33.195  10.267 -0.2446 -0.2163  0.0620
  362BOLB   C4C 8684  13.078  33.261  10.610  0.0638  0.4091 -0.0457
  362BOLB   C1D 8685  13.016  32.243  10.112  0.2478  0.2166 -0.0331
  362BOLB   C2D 8686  12.958  32.543  10.413  0.0758 -0.0303  0.0074
  362BOLB   C3D 8687  12.645  32.958  10.607 -0.0171  0.0064  0.1744
  362BOLB   C4D 8688  12.527  33.267  10.837 -0.0535  0.0118 -0.3121
  363BOLB   NC1 8689  18.251   1.708  11.584  0.0511 -0.2379 -0.1880
  363BOLB   PO1 8690  18.530   1.797  11.936  0.0474  0.1556  0.2966
  363BOLB   GL1 8691  18.479   1.271  11.749 -0.0897 -0.0969  0.0853
  363BOLB   GL2 8692  18.120   1.236  11.859 -0.4404 -0.0130 -0.0539
  363BOLB   C1A 8693  18.446   0.933  11.572 -0.0445 -0.1592 -0.0303
  363BOLB   C2A 8694  18.436   0.519  11.460  0.0956 -0.1578 -0.0099
  363BOLB   C3A 8695  18.338   0.077  11.475 -0.1645 -0.1592  0.2704
  363BOLB   C4A 8696  18.186  -0.354  11.456  0.1397  0.1750 -0.3163
  363BOLB   C1B 8697  18.063   0.705  11.792  0.1984 -0.1830 -0.4436
  363BOLB   C2B 8698  17.926   0.295  11.794  0.2932 -0.3128  0.0959
  363BOLB   C3B 8699  17.867  -0.086  11.705  0.0248 -0.1953  0.1494
  363BOLB   C4B 8700  17.710  -0.401  11.320 -0.0519 -0.1104  0.0511
  363BOLB   NC2 8701  18.745  -2.504  10.875 -0.1132 -0.4540 -0.1288
  363BOLB   PO2 8702  18.454  -2.578  11.264 -0.4219 -0.0538  0.0292
  363BOLB   GL3 8703  18.302  -2.206  11.408  0.0512 -0.2603  0.1077
  363BOLB   GL4 8704  18.445  -2.211  11.686 -0.0599  0.0169  0.0234
  363BOLB   C1C 8705  18.232  -1.785  11.386 -0.0124 -0.3759  0.1245
  363BOLB   C2C 8706  17.999  -1.558  11.345  0.0482  0.0041  0.1545
  363BOLB   C3C 8707  18.122  -1.164  11.343 -0.1482 -0.3368 -0.0914
  363BOLB   C4C 8708  18.021  -0.763  11.543  0.0088  0.1860  0.0254
  363BOLB   C1D 8709  18.473  -1.745  11.912 -0.0803  0.0899  0.0298
  363BOLB   C2D 8710  18.329  -1.394  12.253  0.1035  0.2593  0.5450
  363BOLB   C3D 8711  18.262  -1.072  12.434 -0.1570 -0.2407 -0.2231
  363BOLB   C4D 8712  18.215  -0.706  12.689  0.0734 -0.1277  0.0307
  364BOLB   NC1 8713  24.279  11.115  17.053 -0.0431 -0.1719 -0.0984
  364BOLB   PO1 8714  24.145  11.504  17.187  0.4515  0.1033  0.1131
  364BOLB   GL1 8715  24.494  11.388  17.360 -0.3133  0.1343  0.2511
  364BOLB   GL2 8716  24.425  11.261  17.592  0.1070 -0.0548 -0.0813
  364BOLB   C1A 8717  24.913  11.413  17.561 -0.2008 -0.2273 -0.1001
  364BOLB   C2A 8718  25.336  11.539  17.633  0.2890  0.3900  0.2518
  364BOLB   C3A 8719  25.743  11.387  17.483 -0.0757  0.1592 -0.0061
  364BOLB   C4A 8720  26.152  11.483  17.422 -0.1858  0.3898  0.3138
  364BOLB   C1B 8721  24.662  10.992  17.583 -0.1788  0.3355  0.2097
  364BOLB   C2B 8722  24.954  10.696  17.715 -0.1171 -0.1215 -0.4308
  364BOLB   C3B 8723  25.338  10.547  17.954  0.1447 -0.0108 -0.0622
  364BOLB   C4B 8724  25.507  10.328  18.095 -0.1348 -0.1229 -0.1235
  364BOLB   NC2 8725  28.309  12.185  18.308 -0.0795 -0.1051 -0.1641
  364BOLB   PO2 8726  28.080  12.577  18.485  0.3848  0.0098  0.0082
  364BOLB   GL3 8727  27.713  12.392  18.213  0.1819  0.1727  0.2569
  364BOLB   GL4 8728  27.640  12.736  18.058 -0.2397  0.3653  0.1754
  364BOLB   C1C 8729  27.598  12.268  17.812  0.0769  0.2552  0.1714
  364BOLB   C2C 8730  27.280  11.984  17.801 -0.2295  0.4659 -0.2211
  364BOLB   C3C 8731  26.849  11.890  17.641  0.2579  0.1269  0.0099
  364BOLB   C4C 8732  26.370  11.763  17.619  0.1024  0.2199  0.1041
  364BOLB   C1D 8733  27.265  12.777  18.268 -0.1861  0.2858 -0.2105
  364BOLB   C2D 8734  27.044  13.133  18.273  0.0840  0.0651 -0.0289
  364BOLB   C3D 8735  26.695  13.182  18.057  0.0607 -0.0148 -0.1070
  364BOLB   C4D 8736  26.384  13.243  17.836  0.0993 -0.0300  0.1115
  365BOLB   NC1 8737   6.466   9.107  22.594 -0.2169  0.1154  0.1228
  365BOLB   PO1 8738   6.163   8.794  22.305  0.0574 -0.0585 -0.0660
  365BOLB   GL1 8739   6.405   8.587  21.970 -0.1920 -0.2614  0.0110
  365BOLB   GL2 8740   6.321   8.325  21.690  0.2691  0.0449 -0.1305
  365BOLB   C1A 8741   6.797   8.538  22.054 -0.0826 -0.1190  0.0139
  365BOLB   C2A 8742   6.988   8.354  21.841 -0.2169  0.1473  0.0003
  365BOLB   C3A 8743   7.431   8.280  21.752 -0.0771 -0.1167 -0.1557
  365BOLB   C4A 8744   7.798   8.126  21.851 -0.3182  0.0520  0.0850
  365BOLB   C1B 8745   6.661   8.315  21.317 -0.4880 -0.0584  0.1029
  365BOLB   C2B 8746   6.865   8.350  20.828 -0.0894 -0.0103 -0.1886
  365BOLB   C3B 8747   7.019   8.565  20.540  0.1364 -0.1469  0.1800
  365BOLB   C4B 8748   7.449   8.588  20.331 -0.1430  0.2221 -0.1767
  365BOLB   NC2 8749   7.587   7.499  24.185  0.0447 -0.1028  0.1174
  365BOLB   PO2 8750   7.821   8.004  24.166 -0.3015  0.0327 -0.0525
  365BOLB   GL3 8751   8.211   7.962  23.910 -0.0865 -0.4403 -0.0874
  365BOLB   GL4 8752   8.208   7.741  23.635 -0.2537  0.0809 -0.1226
  365BOLB   C1C 8753   8.155   8.170  23.471  0.1555 -0.3594 -0.0460
  365BOLB   C2C 8754   8.139   8.188  22.973  0.0173  0.0332  0.1377
  365BOLB   C3C 8755   8.189   8.073  22.516  0.3019  0.3724 -0.0916
  365BOLB   C4C 8756   8.039   8.321  22.112 -0.4395  0.0263  0.0117
  365BOLB   C1D 8757   8.548   7.859  23.459 -0.0653  0.0991 -0.0343
  365BOLB   C2D 8758   8.910   7.673  23.280 -0.0908  0.1627  0.1199
  365BOLB   C3D 8759   9.186   8.032  23.571  0.0438  0.1266  0.1105
  365BOLB   C4D 8760   9.215   8.464  23.817 -0.0529 -0.1608 -0.0443
  366BOLB   NC1 8761  16.591  18.451  14.087  0.1325 -0.3499  0.0782
  366BOLB   PO1 8762  16.195  18.609  14.106  0.1549 -0.2389 -0.7308
  366BOLB   GL1 8763  15.799  18.893  13.839 -0.0656  0.2962  0.0045
  366BOLB   GL2 8764  15.977  18.802  13.530 -0.0550  0.0808 -0.0389
  366BOLB   C1A 8765  15.781  19.255  13.696 -0.0431  0.3473 -0.0316
  366BOLB   C2A 8766  15.977  19.647  13.513 -0.3457 -0.2680  0.0110
  366BOLB   C3A 8767  16.356  19.862  13.593 -0.1841  0.1540  0.1751
  366BOLB   C4A 8768  16.815  19.881  13.661  0.0759 -0.0919 -0.2216
  366BOLB   C1B 8769  16.055  19.066  13.211 -0.4307 -0.1952 -0.0050
  366BOLB   C2B 8770  15.907  19.070  12.878  0.0297  0.0560 -0.0952
  366BOLB   C3B 8771  15.901  19.383  12.536 -0.2766  0.1802 -0.0152
  366BOLB   C4B 8772  15.835  19.766  12.322  0.2159  0.0753 -0.0050
  366BOLB   NC2 8773  17.367  22.152  12.524 -0.0391 -0.1169 -0.0299
  366BOLB   PO2 8774  17.323  22.117  12.919  0.0106  0.0654 -0.2724
  366BOLB   GL3 8775  17.313  21.698  12.969 -0.0056 -0.0969 -0.2378
  366BOLB   GL4 8776  17.676  21.656  12.921  0.2139  0.0446 -0.1115
  366BOLB   C1C 8777  17.090  21.309  13.003  0.0763 -0.2428  0.2291
  366BOLB   C2C 8778  16.991  20.890  13.107  0.2159  0.1245  0.2532
  366BOLB   C3C 8779  17.106  20.530  13.353  0.1553  0.1373 -0.3969
  366BOLB   C4C 8780  17.169  20.141  13.592 -0.0021  0.0206  0.2057
  366BOLB   C1D 8781  17.635  21.169  12.873 -0.1182  0.1867 -0.1307
  366BOLB   C2D 8782  17.442  20.822  13.026 -0.0316  0.3030 -0.3952
  366BOLB   C3D 8783  17.505  20.428  12.792  0.2247  0.2090 -0.0201
  366BOLB   C4D 8784  17.823  20.457  12.530  0.0431 -0.0061 -0.3179
  367BOLB   NC1 8785  17.108   1.332  17.413  0.0038 -0.0765 -0.2627
  367BOLB   PO1 8786  17.459   1.500  17.424 -0.0764  0.1601  0.3435
  367BOLB   GL1 8787  17.584   1.101  17.472  0.2915  0.0130 -0.0698
  367BOLB   GL2 8788  17.845   1.092  17.736 -0.0444 -0.0992 -0.2402
  367BOLB   C1A 8789  17.281   0.663  17.559  0.0410 -0.1404 -0.1435
  367BOLB   C2A 8790  17.178   0.275  17.422  0.0241  0.0517 -0.2616
  367BOLB   C3A 8791  17.272  -0.082  17.353 -0.2538  0.3111 -0.0730
  367BOLB   C4A 8792  17.552  -0.472  17.459 -0.4171  0.2929 -0.0546
  367BOLB   C1B 8793  18.099   0.666  17.827  0.0396  0.0247  0.1262
  367BOLB   C2B 8794  18.165   0.310  18.029  0.2559 -0.3409 -0.0590
  367BOLB   C3B 8795  18.541   0.129  17.979  0.3725  0.1865  0.0767
  367BOLB   C4B 8796  18.852  -0.135  18.116 -0.1465 -0.0498 -0.0114
  367BOLB   NC2 8797  16.232  -2.375  17.277  0.0264 -0.4419 -0.0982
  367BOLB   PO2 8798  16.472  -2.430  17.565 -0.2872 -0.1029 -0.1710
  367BOLB   GL3 8799  16.591  -2.056  17.435  0.0244 -0.3013 -0.0189
  367BOLB   GL4 8800  16.471  -1.788  17.496  0.0820 -0.2039 -0.4792
  367BOLB   C1C 8801  17.015  -1.750  17.375  0.0968 -0.1368 -0.1168
  367BOLB   C2C 8802  17.248  -1.589  17.617 -0.1655 -0.3019 -0.1917
  367BOLB   C3C 8803  17.363  -1.267  17.743  0.1589 -0.0671  0.1069
  367BOLB   C4C 8804  17.582  -0.808  17.749 -0.1856 -0.1304  0.0482
  367BOLB   C1D 8805  16.307  -1.364  17.635 -0.0609  0.2155 -0.0629
  367BOLB   C2D 8806  16.213  -1.059  17.389 -0.0092 -0.0271 -0.3275
  367BOLB   C3D 8807  15.988  -1.005  16.997 -0.2147  0.0294 -0.0440
  367BOLB   C4D 8808  15.917  -0.731  16.687 -0.3038  0.0127 -0.2386
  368BOLB   NC1 8809  17.586  15.352  22.171 -0.2297  0.3338 -0.1854
  368BOLB   PO1 8810  17.334  15.756  22.063 -0.0614  0.4540  0.1415
  368BOLB   GL1 8811  17.336  16.132  22.386  0.1647  0.0152 -0.1600
  368BOLB   GL2 8812  17.592  16.019  22.641 -0.0414 -0.0843 -0.0172
  368BOLB   C1A 8813  17.215  16.389  22.719 -0.2321 -0.5692 -0.0065
  368BOLB   C2A 8814  17.412  16.567  23.046 -0.0192  0.1700 -0.1242
  368BOLB   C3A 8815  17.351  16.801  23.467  0.4202 -0.4079 -0.0732
  368BOLB   C4A 8816  17.337  16.760  23.921 -0.0515  0.3533  0.0833
  368BOLB   C1B 8817  17.695  16.298  22.732 -0.0363  0.0811 -0.0233
  368BOLB   C2B 8818  17.901  16.597  22.908  0.2881  0.2800 -0.3605
  368BOLB   C3B 8819  17.885  17.045  22.959  0.2389  0.0515 -0.0997
  368BOLB   C4B 8820  17.973  17.413  23.174 -0.0870 -0.0395  0.4325
  368BOLB   NC2 8821  19.528  18.052  25.230  0.0078  0.4018  0.0295
  368BOLB   PO2 8822  19.176  17.784  25.404  0.0273 -0.1421 -0.0492
  368BOLB   GL3 8823  18.831  17.663  25.119 -0.3205 -0.0752 -0.2306
  368BOLB   GL4 8824  18.708  17.891  24.905  0.0043 -0.0578  0.1609
  368BOLB   C1C 8825  18.531  17.499  24.762  0.2881  0.0947 -0.0426
  368BOLB   C2C 8826  18.347  17.208  24.554 -0.1029  0.1408 -0.1129
  368BOLB   C3C 8827  17.903  16.959  24.438  0.2632  0.0912 -0.1430
  368BOLB   C4C 8828  17.659  16.823  24.161  0.1318 -0.1272 -0.2953
  368BOLB   C1D 8829  19.000  17.700  24.505  0.3107 -0.4472  0.2983
  368BOLB   C2D 8830  18.805  17.566  24.081  0.0176 -0.0193  0.1518
  368BOLB   C3D 8831  18.693  17.293  23.655 -0.0720 -0.0288  0.0505
  368BOLB   C4D 8832  18.586  16.918  23.554 -0.0894 -0.1052 -0.2701
  369BOLB   NC1 8833  10.530  11.785  20.408  0.3301 -0.0344 -0.0174
  369BOLB   PO1 8834  10.378  11.793  20.904 -0.0041 -0.0758  0.4061
  369BOLB   GL1 8835  10.240  11.857  21.371 -0.2761  0.2374 -0.0720
  369BOLB   GL2 8836  10.354  11.627  21.587  0.1954 -0.0572 -0.4186
  369BOLB   C1A 8837  10.119  12.279  21.680  0.0564 -0.0922  0.0138
  369BOLB   C2A 8838  10.138  12.417  22.012  0.0571 -0.0584 -0.1916
  369BOLB   C3A 8839   9.951  12.269  22.358  0.0974  0.0020 -0.1653
  369BOLB   C4A 8840   9.943  12.317  22.771 -0.2620  0.2378  0.4117
  369BOLB   C1B 8841  10.016  11.796  21.777  0.1358 -0.4412  0.0873
  369BOLB   C2B 8842   9.762  12.063  21.919  0.3642 -0.3231  0.0281
  369BOLB   C3B 8843   9.256  12.283  21.786 -0.0894 -0.2871 -0.1208
  369BOLB   C4B 8844   9.049  12.771  21.802  0.0520  0.2123  0.0565
  369BOLB   NC2 8845   9.332  11.176  25.258  0.0243  0.0002  0.1138
  369BOLB   PO2 8846   9.179  11.480  24.956  0.0410  0.3015 -0.0129
  369BOLB   GL3 8847   9.267  11.605  24.542  0.0659  0.2718 -0.0662
  369BOLB   GL4 8848   9.018  11.944  24.287 -0.0251  0.0186  0.1843
  369BOLB   C1C 8849   9.546  11.692  24.236 -0.3961  0.0815  0.2418
  369BOLB   C2C 8850   9.694  11.515  23.765  0.4050 -0.0625  0.1426
  369BOLB   C3C 8851   9.825  11.619  23.335 -0.1732 -0.0344 -0.0167
  369BOLB   C4C 8852   9.999  11.929  23.140 -0.1789 -0.1332  0.0822
  369BOLB   C1D 8853   9.435  12.157  24.240  0.3119  0.3242  0.1632
  369BOLB   C2D 8854   9.898  12.043  24.247 -0.1052 -0.1316 -0.0699
  369BOLB   C3D 8855  10.170  11.766  24.073  0.0184 -0.2217 -0.2006
  369BOLB   C4D 8856  10.524  11.660  24.076  0.0553 -0.0097  0.0295
  370BOLB   NC1 8857  16.786   1.759  17.619 -0.1758  0.2056  0.2790
  370BOLB   PO1 8858  16.708   1.585  17.162  0.3985 -0.1115  0.1188
  370BOLB   GL1 8859  16.630   1.178  17.314 -0.1300 -0.0847  0.0733
  370BOLB   GL2 8860  16.878   0.903  17.291 -0.2385 -0.1212 -0.0501
  370BOLB   C1A 8861  16.356   0.848  17.532 -0.2281  0.0338  0.0639
  370BOLB   C2A 8862  16.393   0.519  17.792 -0.0340 -0.2064  0.0393
  370BOLB   C3A 8863  16.296   0.181  17.740  0.0583 -0.1892  0.1019
  370BOLB   C4A 8864  16.505  -0.139  17.721 -0.1589  0.1212  0.1115
  370BOLB   C1B 8865  16.809   0.760  17.757  0.0511  0.0985  0.1083
  370BOLB   C2B 8866  16.772   0.664  18.160  0.2619  0.2186  0.0281
  370BOLB   C3B 8867  16.526   0.426  18.392  0.4750  0.0376 -0.0715
  370BOLB   C4B 8868  16.539   0.108  18.637  0.2466 -0.1488 -0.1245
  370BOLB   NC2 8869  17.300  -2.454  18.302  0.0369  0.0570 -0.2426
  370BOLB   PO2 8870  17.486  -2.022  18.538 -0.2797  0.0618  0.0895
  370BOLB   GL3 8871  17.658  -1.706  18.408  0.0732  0.0363 -0.1657
  370BOLB   GL4 8872  17.665  -1.601  18.182 -0.0872  0.3210  0.1632
  370BOLB   C1C 8873  17.526  -1.210  18.474  0.0706 -0.0397 -0.0229
  370BOLB   C2C 8874  17.313  -0.962  18.148 -0.2476 -0.2441  0.0630
  370BOLB   C3C 8875  17.189  -0.578  17.969  0.0051 -0.1763 -0.1499
  370BOLB   C4C 8876  16.958  -0.362  17.724  0.1997  0.1218  0.3423
  370BOLB   C1D 8877  17.767  -1.196  18.023 -0.0411 -0.2956 -0.2845
  370BOLB   C2D 8878  18.063  -0.777  17.963 -0.0394 -0.3215 -0.4076
  370BOLB   C3D 8879  17.930  -0.411  17.904  0.2451  0.0350  0.0240
  370BOLB   C4D 8880  17.905  -0.188  17.662 -0.2898  0.2786 -0.1982
  371BOLB   NC1 8881  20.237  12.836   9.462  0.0447  0.0941 -0.1215
  371BOLB   PO1 8882  19.805  12.811   9.454 -0.1758 -0.3469 -0.0816
  371BOLB   GL1 8883  19.981  12.926   9.046 -0.0400 -0.0006 -0.0404
  371BOLB   GL2 8884  19.931  13.209   8.893 -0.1109 -0.1206 -0.2320
  371BOLB   C1A 8885  20.379  12.874   8.790  0.1613  0.1545  0.5027
  371BOLB   C2A 8886  20.833  13.033   8.731  0.0950 -0.0813  0.0695
  371BOLB   C3A 8887  21.237  13.026   8.521 -0.0399 -0.2390 -0.2114
  371BOLB   C4A 8888  21.417  13.213   8.182  0.0226  0.0622  0.0141
  371BOLB   C1B 8889  20.011  13.465   8.501 -0.0105 -0.0100 -0.3273
  371BOLB   C2B 8890  20.251  13.629   8.200 -0.0318 -0.1885  0.2028
  371BOLB   C3B 8891  20.492  13.897   7.890 -0.3971  0.0717 -0.2474
  371BOLB   C4B 8892  20.919  13.931   7.699  0.3889 -0.0694 -0.0615
  371BOLB   NC2 8893  23.656  13.114   6.664  0.4406 -0.1560  0.0047
  371BOLB   PO2 8894  23.375  13.446   6.821  0.0801  0.2689 -0.2367
  371BOLB   GL3 8895  23.118  13.361   7.139 -0.0927 -0.0862  0.2409
  371BOLB   GL4 8896  23.278  13.123   7.322  0.2052 -0.0171 -0.2058
  371BOLB   C1C 8897  22.832  13.277   7.429 -0.0446  0.3404 -0.2326
  371BOLB   C2C 8898  22.424  13.491   7.483 -0.0313 -0.0601  0.0406
  371BOLB   C3C 8899  22.013  13.538   7.620 -0.2791  0.1596 -0.0891
  371BOLB   C4C 8900  21.640  13.364   7.817 -0.0866  0.0448  0.1366
  371BOLB   C1D 8901  23.180  13.165   7.757  0.0167  0.2702 -0.0574
  371BOLB   C2D 8902  23.145  13.194   8.195 -0.0024 -0.2279 -0.2414
  371BOLB   C3D 8903  23.105  13.676   8.360 -0.2071  0.0876  0.0465
  371BOLB   C4D 8904  22.787  14.033   8.296 -0.2067  0.1588 -0.1297
  372BOLB   NC1 8905  20.182  18.043  16.456 -0.0566 -0.0821  0.1724
  372BOLB   PO1 8906  20.041  18.020  16.975 -0.0565 -0.1554  0.0620
  372BOLB   GL1 8907  20.312  18.282  16.896 -0.1460 -0.0216  0.0870
  372BOLB   GL2 8908  20.120  18.492  16.799  0.2853  0.0666  0.1143
  372BOLB   C1A 8909  20.557  18.692  16.870 -0.0398  0.0576 -0.1044
  372BOLB   C2A 8910  20.695  19.148  16.899  0.0556  0.0346  0.2465
  372BOLB   C3A 8911  20.864  19.571  17.096  0.1711  0.1877  0.1440
  372BOLB   C4A 8912  21.035  19.811  17.546  0.2619 -0.0106  0.2230
  372BOLB   C1B 8913  20.146  18.753  17.148  0.2152 -0.1606 -0.2521
  372BOLB   C2B 8914  20.098  19.149  17.486 -0.1140 -0.2085 -0.0675
  372BOLB   C3B 8915  20.172  19.539  17.394 -0.0796  0.2290 -0.1902
  372BOLB   C4B 8916  20.517  19.849  17.332 -0.1251 -0.0695 -0.1339
  372BOLB   NC2 8917  22.879  20.872  19.266 -0.2479  0.1898  0.1494
  372BOLB   PO2 8918  22.623  21.088  18.867 -0.0265  0.2019  0.1803
  372BOLB   GL3 8919  22.566  20.662  18.775  0.2999  0.0552 -0.0823
  372BOLB   GL4 8920  22.329  20.548  18.883  0.2102 -0.5193  0.2884
  372BOLB   C1C 8921  22.342  20.451  18.393  0.1024  0.0373  0.2450
  372BOLB   C2C 8922  22.201  20.186  17.980  0.1073  0.1010 -0.0443
  372BOLB   C3C 8923  21.720  20.247  17.762 -0.2926  0.0857 -0.0434
  372BOLB   C4C 8924  21.332  20.237  17.577  0.0171 -0.3157 -0.3386
  372BOLB   C1D 8925  22.482  20.202  18.973  0.0431 -0.1159 -0.1834
  372BOLB   C2D 8926  22.626  19.970  18.618  0.0750 -0.2225  0.1274
  372BOLB   C3D 8927  22.413  19.911  18.294 -0.2943  0.1338 -0.1609
  372BOLB   C4D 8928  22.261  19.707  17.974  0.3039 -0.1855  0.0636
  373BOLB   NC1 8929  11.387  16.158  16.147  0.1211 -0.1209  0.0480
  373BOLB   PO1 8930  10.983  16.437  16.305 -0.1307 -0.0783 -0.0343
  373BOLB   GL1 8931  10.699  16.852  16.381 -0.2752  0.0531  0.2415
  373BOLB   GL2 8932  10.657  17.126  16.636 -0.0621  0.0024 -0.2842
  373BOLB   C1A 8933  10.305  17.039  16.220  0.0678  0.2388 -0.0307
  373BOLB   C2A 8934   9.929  17.180  16.400  0.0034  0.1398  0.1036
  373BOLB   C3A 8935   9.587  17.319  16.353  0.2277  0.1701  0.1426
  373BOLB   C4A 8936   9.107  17.371  16.107  0.1380  0.0991  0.1479
  373BOLB   C1B 8937  10.233  17.335  16.787 -0.0190 -0.0489 -0.1016
  373BOLB   C2B 8938   9.892  17.209  16.932 -0.0544 -0.0623  0.0344
  373BOLB   C3B 8939   9.588  17.178  17.159 -0.2220  0.1923 -0.0311
  373BOLB   C4B 8940   9.520  16.865  17.471 -0.2152  0.2080  0.4147
  373BOLB   NC2 8941   7.048  18.477  15.468 -0.1437  0.0734  0.0664
  373BOLB   PO2 8942   7.225  18.907  15.496 -0.0162  0.1889 -0.1675
  373BOLB   GL3 8943   7.573  18.587  15.408 -0.1113 -0.2298 -0.0747
  373BOLB   GL4 8944   7.618  18.391  15.144  0.1525  0.0462  0.0896
  373BOLB   C1C 8945   7.913  18.364  15.605 -0.0832  0.0862 -0.1248
  373BOLB   C2C 8946   8.171  18.066  15.776 -0.0099 -0.2618 -0.1778
  373BOLB   C3C 8947   8.482  17.894  15.606 -0.2925 -0.2912 -0.0787
  373BOLB   C4C 8948   8.723  17.526  15.893  0.4061 -0.1412 -0.1082
  373BOLB   C1D 8949   7.927  18.241  14.894  0.1886 -0.0185 -0.1897
  373BOLB   C2D 8950   8.246  17.975  15.014  0.3180  0.1023 -0.2000
  373BOLB   C3D 8951   8.183  17.492  14.949 -0.0570 -0.4570  0.0634
  373BOLB   C4D 8952   8.012  17.202  15.064 -0.1318 -0.4777  0.0717
  374BOLB   NC1 8953   1.351   8.952  14.841 -0.0269  0.2865  0.0027
  374BOLB   PO1 8954   1.304   8.593  14.697  0.2387 -0.3542  0.0783
  374BOLB   GL1 8955   1.530   8.289  14.382 -0.0846  0.0010 -0.1667
  374BOLB   GL2 8956   1.327   8.014  14.369  0.1823  0.1063 -0.2668
  374BOLB   C1A 8957   1.874   8.096  14.411 -0.1915  0.1821 -0.3097
  374BOLB   C2A 8958   2.265   8.275  14.335 -0.3350 -0.0904  0.2946
  374BOLB   C3A 8959   2.507   8.552  14.471 -0.0943  0.1257  0.0195
  374BOLB   C4A 8960   2.823   8.465  14.760  0.1152 -0.0226 -0.2735
  374BOLB   C1B 8961   1.351   7.995  13.991 -0.1480  0.1784 -0.0095
  374BOLB   C2B 8962   1.438   8.004  13.550  0.0305 -0.1023  0.0557
  374BOLB   C3B 8963   1.565   7.803  13.236  0.4279 -0.1089 -0.1518
  374BOLB   C4B 8964   1.619   7.369  13.019  0.2124 -0.0277 -0.0018
  374BOLB   NC2 8965   1.827  10.136  16.365  0.1145  0.1716 -0.0268
  374BOLB   PO2 8966   2.146  10.049  16.094  0.2998 -0.1260 -0.0570
  374BOLB   GL3 8967   2.401   9.684  16.086 -0.1899  0.2011 -0.1141
  374BOLB   GL4 8968   2.351   9.519  15.820  0.2105  0.0354  0.0216
  374BOLB   C1C 8969   2.807   9.639  15.872  0.3332 -0.2726 -0.2249
  374BOLB   C2C 8970   2.984   9.287  15.655 -0.1482  0.3314  0.0112
  374BOLB   C3C 8971   2.879   8.893  15.461 -0.1380  0.1254 -0.0513
  374BOLB   C4C 8972   2.986   8.667  15.103 -0.0780  0.2138 -0.4705
  374BOLB   C1D 8973   2.514   9.139  15.709  0.1783 -0.2068 -0.1173
  374BOLB   C2D 8974   2.397   8.807  15.567  0.2302 -0.0652  0.1248
  374BOLB   C3D 8975   2.203   8.559  15.740 -0.0066  0.3149  0.0703
  374BOLB   C4D 8976   1.786   8.399  15.673 -0.1463  0.1233  0.1753
  375BOLB   NC1 8977  17.118  18.782  15.706  0.1778  0.0188 -0.2294
  375BOLB   PO1 8978  16.967  18.521  15.425  0.1959  0.2625  0.2506
  375BOLB   GL1 8979  17.257  18.861  15.271 -0.1381  0.1708  0.1680
  375BOLB   GL2 8980  17.626  18.808  15.208  0.2888 -0.0158  0.0923
  375BOLB   C1A 8981  17.362  19.349  15.297 -0.0048  0.1380 -0.2300
  375BOLB   C2A 8982  17.433  19.710  15.095  0.0564 -0.1500 -0.2025
  375BOLB   C3A 8983  17.713  20.040  14.926 -0.0294  0.0759 -0.0799
  375BOLB   C4A 8984  17.969  20.390  14.735 -0.0460  0.0495  0.0818
  375BOLB   C1B 8985  17.608  19.053  14.855  0.3505 -0.1038 -0.1322
  375BOLB   C2B 8986  17.738  19.401  14.797  0.2471 -0.1323  0.1786
  375BOLB   C3B 8987  17.779  19.735  14.600  0.0675 -0.2728  0.1192
  375BOLB   C4B 8988  17.592  20.118  14.455  0.1200  0.0866 -0.2652
  375BOLB   NC2 8989  17.028  22.612  14.232  0.3596 -0.0078  0.0528
  375BOLB   PO2 8990  17.244  22.724  14.551 -0.0190  0.1442 -0.0526
  375BOLB   GL3 8991  17.343  22.239  14.435  0.1361 -0.1238  0.0262
  375BOLB   GL4 8992  17.692  22.190  14.165 -0.0593 -0.2047 -0.2057
  375BOLB   C1C 8993  17.244  21.822  14.280 -0.4189 -0.0535 -0.2590
  375BOLB   C2C 8994  17.540  21.481  14.359 -0.1931 -0.0839  0.3474
  375BOLB   C3C 8995  17.945  21.298  14.652  0.1317  0.2684 -0.1448
  375BOLB   C4C 8996  18.008  20.834  14.709  0.0121 -0.0363 -0.1399
  375BOLB   C1D 8997  17.946  21.789  14.038  0.1395 -0.1682 -0.0075
  375BOLB   C2D 8998  17.996  21.468  14.148  0.0719 -0.0397  0.1387
  375BOLB   C3D 8999  17.889  21.092  14.245 -0.0626 -0.0747  0.0206
  375BOLB   C4D 9000  17.917  20.578  14.290 -0.4585 -0.0914  0.0983
  376BOLB   NC1 9001  11.764   9.904  21.923 -0.0613 -0.0464 -0.0558
  376BOLB   PO1 9002  11.632  10.171  21.693 -0.1912 -0.2220  0.0201
  376BOLB   GL1 9003  11.201  10.123  21.865 -0.0179  0.1951 -0.1039
  376BOLB   GL2 9004  10.921  10.053  21.596  0.0608 -0.1647 -0.1802
  376BOLB   C1A 9005  10.941   9.994  22.272 -0.1000  0.1453  0.2551
  376BOLB   C2A 9006  10.603   9.762  22.565 -0.1650  0.1043  0.1449
  376BOLB   C3A 9007  10.330   9.499  22.964  0.1456  0.1253  0.1348
  376BOLB   C4A 9008  10.026   9.426  23.384  0.2924 -0.1461  0.1504
  376BOLB   C1B 9009  10.460  10.275  21.930  0.1925  0.2995  0.1115
  376BOLB   C2B 9010  10.081  10.376  22.205  0.1107 -0.0030 -0.1610
  376BOLB   C3B 9011   9.791  10.347  22.430 -0.1676 -0.1756  0.0503
  376BOLB   C4B 9012   9.694  10.314  22.792  0.0765  0.1222 -0.2148
  376BOLB   NC2 9013   8.467   8.787  24.664  0.1615 -0.0888 -0.1585
  376BOLB   PO2 9014   8.914   8.746  25.006 -0.3037  0.2545  0.1870
  376BOLB   GL3 9015   9.007   8.747  24.644 -0.0082  0.2096  0.0581
  376BOLB   GL4 9016   8.830   8.723  24.331  0.3666  0.0417 -0.1582
  376BOLB   C1C 9017   9.326   8.939  24.420 -0.3494 -0.2078  0.1161
  376BOLB   C2C 9018   9.611   8.959  24.105 -0.0853  0.0147 -0.0010
  376BOLB   C3C 9019   9.943   8.978  23.981 -0.0030  0.1575 -0.2508
  376BOLB   C4C 9020   9.833   9.210  23.677 -0.0293  0.1067 -0.0152
  376BOLB   C1D 9021   9.049   8.946  24.002  0.2842 -0.0379  0.1699
  376BOLB   C2D 9022   9.357   9.043  23.607 -0.0401 -0.2260 -0.1614
  376BOLB   C3D 9023   9.505   8.695  23.429  0.4455 -0.0069  0.1727
  376BOLB   C4D 9024   9.511   8.335  23.278  0.3060 -0.1077  0.1496
  377BOLB   NC1 9025  17.869   7.061  22.743 -0.3792  0.2716  0.0308
  377BOLB   PO1 9026  17.563   7.379  22.789 -0.1943 -0.0065  0.2476
  377BOLB   GL1 9027  17.598   7.097  23.162 -0.2434 -0.0993  0.1381
  377BOLB   GL2 9028  17.256   7.159  23.286  0.1526 -0.0988 -0.2264
  377BOLB   C1A 9029  17.961   7.004  23.430  0.1319 -0.1042 -0.2493
  377BOLB   C2A 9030  18.067   6.921  23.902  0.1894  0.3441 -0.0389
  377BOLB   C3A 9031  18.278   6.549  24.035 -0.3212  0.1814 -0.2304
  377BOLB   C4A 9032  18.331   6.311  24.315  0.2249  0.2966  0.0701
  377BOLB   C1B 9033  17.474   7.083  23.677 -0.0009  0.2531 -0.0884
  377BOLB   C2B 9034  17.496   6.937  23.993 -0.4204 -0.0660 -0.0679
  377BOLB   C3B 9035  17.788   6.902  24.320 -0.0675 -0.2576  0.0037
  377BOLB   C4B 9036  18.208   6.844  24.420 -0.3650  0.3646 -0.2411
  377BOLB   NC2 9037  18.041   5.380  26.812 -0.2065  0.0931 -0.0040
  377BOLB   PO2 9038  18.350   5.448  26.525  0.1359  0.1199  0.1226
  377BOLB   GL3 9039  18.503   5.606  26.097 -0.0906  0.1652 -0.3084
  377BOLB   GL4 9040  18.794   5.613  26.138 -0.0979 -0.0718  0.0272
  377BOLB   C1C 9041  18.493   5.745  25.662  0.2495  0.0425  0.0251
  377BOLB   C2C 9042  18.519   6.122  25.380 -0.0587 -0.0315 -0.0348
  377BOLB   C3C 9043  18.356   6.398  25.143  0.0295 -0.2429  0.1485
  377BOLB   C4C 9044  18.202   6.193  24.717 -0.0128 -0.0861  0.0291
  377BOLB   C1D 9045  18.892   5.967  25.757  0.0179 -0.2871 -0.0739
  377BOLB   C2D 9046  18.931   6.406  25.586  0.0910  0.3096  0.3293
  377BOLB   C3D 9047  18.899   6.683  25.215  0.0943  0.1843  0.3445
  377BOLB   C4D 9048  18.819   7.092  25.203 -0.5197 -0.1943 -0.2802
  378BOLB   NC1 9049  10.440  13.978  19.126 -0.1207  0.1800  0.4067
  378BOLB   PO1 9050  10.166  14.282  19.299 -0.1866  0.1230 -0.0512
  378BOLB   GL1 9051   9.944  14.482  19.609  0.1010  0.0867  0.0628
  378BOLB   GL2 9052   9.914  14.794  19.651 -0.1742  0.1722 -0.2814
  378BOLB   C1A 9053   9.634  14.505  19.939 -0.1322 -0.0519  0.0580
  378BOLB   C2A 9054   9.257  14.652  20.083 -0.1309  0.1967 -0.1828
  378BOLB   C3A 9055   8.893  14.904  20.282  0.1128  0.3753 -0.1023
  378BOLB   C4A 9056   8.583  15.267  20.350  0.1139 -0.0990  0.0692
  378BOLB   C1B 9057   9.586  15.031  19.983  0.1573 -0.0786 -0.0664
  378BOLB   C2B 9058   9.187  15.107  19.977 -0.0163 -0.2513 -0.2707
  378BOLB   C3B 9059   8.921  15.300  19.906  0.2504 -0.0018 -0.1247
  378BOLB   C4B 9060   8.750  15.464  19.509 -0.2119  0.0922  0.2042
  378BOLB   NC2 9061   6.768  16.185  21.876  0.2001 -0.2161  0.0614
  378BOLB   PO2 9062   7.155  16.362  22.032  0.1835  0.2833  0.1701
  378BOLB   GL3 9063   7.334  16.068  21.876 -0.1670  0.1790  0.2356
  378BOLB   GL4 9064   7.636  16.183  21.583 -0.1185 -0.1680 -0.0783
  378BOLB   C1C 9065   7.327  15.678  21.538 -0.0007  0.1205  0.1210
  378BOLB   C2C 9066   7.638  15.594  21.239 -0.1039  0.0770 -0.3160
  378BOLB   C3C 9067   7.911  15.625  20.931  0.1520 -0.0049  0.3581
  378BOLB   C4C 9068   8.141  15.456  20.514 -0.0544 -0.3693  0.0435
  378BOLB   C1D 9069   7.950  15.901  21.692  0.0381  0.1461  0.1827
  378BOLB   C2D 9070   8.112  15.479  21.848 -0.4801 -0.2198 -0.3227
  378BOLB   C3D 9071   8.517  15.339  21.728 -0.3487 -0.3035 -0.2818
  378BOLB   C4D 9072   8.613  14.946  21.689  0.2221 -0.0823 -0.0314
  379BOLB   NC1 9073  18.003  14.085   9.300  0.2205 -0.1676  0.0613
  379BOLB   PO1 9074  17.769  14.257   8.952 -0.1065 -0.1420  0.0476
  379BOLB   GL1 9075  17.902  14.077   8.559  0.3102 -0.0993 -0.0362
  379BOLB   GL2 9076  17.654  14.104   8.340  0.0091  0.1372  0.2289
  379BOLB   C1A 9077  18.122  14.136   8.192 -0.2785 -0.1138  0.2619
  379BOLB   C2A 9078  18.356  14.479   7.913 -0.3163 -0.3080  0.0954
  379BOLB   C3A 9079  18.296  14.651   7.446  0.2054  0.0753  0.1556
  379BOLB   C4A 9080  18.258  14.846   7.079 -0.3133 -0.1105 -0.1666
  379BOLB   C1B 9081  17.671  14.164   7.884 -0.4304 -0.1033  0.1395
  379BOLB   C2B 9082  17.435  14.420   7.643  0.0442  0.1283  0.4418
  379BOLB   C3B 9083  17.280  14.657   7.205 -0.1648  0.3632 -0.1155
  379BOLB   C4B 9084  17.362  14.565   6.882  0.0359 -0.2258 -0.0490
  379BOLB   NC2 9085  17.390  15.699   5.089  0.1855 -0.0384  0.0154
  379BOLB   PO2 9086  17.322  15.360   4.815 -0.1437 -0.2023  0.4646
  379BOLB   GL3 9087  17.480  15.204   5.152 -0.2285  0.1097  0.0041
  379BOLB   GL4 9088  17.671  15.415   5.373  0.0460 -0.2260 -0.0098
  379BOLB   C1C 9089  17.504  14.858   5.492  0.1324 -0.0296 -0.0099
  379BOLB   C2C 9090  17.580  14.705   5.941 -0.1085 -0.3110  0.0679
  379BOLB   C3C 9091  17.510  14.639   6.379  0.1621 -0.0790  0.3489
  379BOLB   C4C 9092  17.898  14.796   6.702 -0.1243  0.0628 -0.3435
  379BOLB   C1D 9093  17.486  15.342   5.741 -0.2018 -0.1636  0.2938
  379BOLB   C2D 9094  17.321  15.140   6.035  0.0958  0.1803 -0.2635
  379BOLB   C3D 9095  17.106  15.098   6.335  0.0857 -0.2466 -0.0921
  379BOLB   C4D 9096  16.643  15.162   6.532  0.0114 -0.1697 -0.3883
  380BOLB   NC1 9097  18.972  15.052  22.125  0.1636 -0.0028  0.2837
  380BOLB   PO1 9098  18.641  15.167  22.451 -0.1899 -0.3116 -0.1368
  380BOLB   GL1 9099  18.552  15.384  22.827  0.0785 -0.0374 -0.0545
  380BOLB   GL2 9100  18.224  15.567  22.798 -0.0693 -0.0385 -0.2179
  380BOLB   C1A 9101  18.570  15.515  23.218 -0.2375 -0.2590 -0.2018
  380BOLB   C2A 9102  18.438  15.590  23.626  0.0922 -0.1259 -0.3618
  380BOLB   C3A 9103  18.428  15.931  23.849  0.1629 -0.2392 -0.1465
  380BOLB   C4A 9104  18.095  16.136  23.991 -0.0536  0.1630  0.1170
  380BOLB   C1B 9105  18.647  15.916  22.886  0.1406 -0.2147 -0.0805
  380BOLB   C2B 9106  18.789  16.354  22.953 -0.0414  0.1291  0.0186
  380BOLB   C3B 9107  18.933  16.660  23.197  0.2535  0.2828  0.2195
  380BOLB   C4B 9108  18.975  17.085  23.300  0.0741  0.2425  0.1926
  380BOLB   NC2 9109  18.841  16.150  26.304 -0.0994  0.1547 -0.1892
  380BOLB   PO2 9110  19.074  16.386  26.027 -0.4475 -0.0512 -0.2914
  380BOLB   GL3 9111  18.908  16.247  25.714 -0.1980 -0.0277 -0.2223
  380BOLB   GL4 9112  18.614  16.152  25.847 -0.0553 -0.0941  0.1383
  380BOLB   C1C 9113  18.721  16.484  25.306 -0.1498  0.2851 -0.1388
  380BOLB   C2C 9114  18.345  16.481  25.014  0.0444 -0.0113  0.2434
  380BOLB   C3C 9115  18.110  16.510  24.658  0.0803  0.3388  0.1087
  380BOLB   C4C 9116  18.076  16.529  24.209 -0.1494  0.1128  0.2160
  380BOLB   C1D 9117  18.407  16.048  25.426 -0.0456  0.1092  0.1961
  380BOLB   C2D 9118  18.574  15.653  25.165  0.0426 -0.1309  0.2311
  380BOLB   C3D 9119  18.573  15.233  25.146  0.2185 -0.1302 -0.5738
  380BOLB   C4D 9120  18.309  14.946  25.010  0.1119 -0.1393  0.0459
  381BOLB   NC1 9121  13.273   5.570  21.167  0.3303 -0.1145 -0.0042
  381BOLB   PO1 9122  13.609   5.342  21.453  0.1122 -0.2580 -0.1542
  381BOLB   GL1 9123  13.499   5.133  21.861 -0.2519 -0.0163  0.1995
  381BOLB   GL2 9124  13.697   4.938  21.826 -0.1000  0.1932  0.0864
  381BOLB   C1A 9125  13.159   4.913  22.102 -0.2281  0.2752  0.1197
  381BOLB   C2A 9126  12.868   4.773  22.401  0.2495 -0.2855  0.1630
  381BOLB   C3A 9127  12.790   4.635  22.858  0.0027 -0.2615  0.0507
  381BOLB   C4A 9128  12.508   4.449  23.079  0.1407 -0.0086  0.3340
  381BOLB   C1B 9129  13.571   4.596  22.002 -0.1109 -0.2362  0.0805
  381BOLB   C2B 9130  13.731   4.220  22.313  0.1950 -0.1376  0.1691
  381BOLB   C3B 9131  13.408   4.051  22.573 -0.0442 -0.3039 -0.1748
  381BOLB   C4B 9132  13.528   3.706  22.845 -0.4170 -0.2332 -0.1464
  381BOLB   NC2 9133  12.956   4.243  25.525  0.1700  0.3338 -0.1164
  381BOLB   PO2 9134  12.559   3.946  25.445  0.0618  0.1299 -0.0816
  381BOLB   GL3 9135  12.704   3.709  25.012 -0.2016 -0.0712  0.2008
  381BOLB   GL4 9136  12.978   3.711  24.925  0.0659 -0.1381 -0.1297
  381BOLB   C1C 9137  12.616   3.853  24.590 -0.1384  0.0058  0.0215
  381BOLB   C2C 9138  12.699   4.042  24.271  0.0433  0.1035 -0.2452
  381BOLB   C3C 9139  12.644   4.095  23.825 -0.0158 -0.0197 -0.4202
  381BOLB   C4C 9140  12.426   4.262  23.513 -0.1045 -0.0056  0.0477
  381BOLB   C1D 9141  13.190   3.843  24.547 -0.1610 -0.0386  0.3431
  381BOLB   C2D 9142  13.641   3.966  24.466 -0.2264 -0.0528  0.0281
  381BOLB   C3D 9143  13.849   4.411  24.172  0.0320  0.0549  0.1329
  381BOLB   C4D 9144  13.977   4.552  23.912  0.5957 -0.1314  0.2192
  382BOLB   NC1 9145  16.141   3.324  12.134 -0.3322  0.2254  0.1597
  382BOLB   PO1 9146  16.006   3.739  11.983  0.1544  0.2093  0.1923
  382BOLB   GL1 9147  15.681   3.475  12.012 -0.5293  0.0880 -0.1779
  382BOLB   GL2 9148  15.441   3.604  11.759 -0.0271 -0.0136  0.5050
  382BOLB   C1A 9149  15.598   3.114  11.736 -0.1178  0.0019 -0.0621
  382BOLB   C2A 9150  15.797   2.990  11.339 -0.4677 -0.2590 -0.0465
  382BOLB   C3A 9151  15.885   2.565  11.167 -0.0691  0.0209 -0.0230
  382BOLB   C4A 9152  15.638   2.313  11.266 -0.2188  0.0582  0.2387
  382BOLB   C1B 9153  15.303   3.309  11.398  0.0504  0.2576  0.0437
  382BOLB   C2B 9154  15.351   2.850  11.212 -0.1270 -0.0528  0.1002
  382BOLB   C3B 9155  15.164   2.471  11.081 -0.1469 -0.0882 -0.0154
  382BOLB   C4B 9156  14.795   2.208  11.151 -0.2210 -0.1025  0.0469
  382BOLB   NC2 9157  16.586   2.937  12.262 -0.1185  0.1501 -0.0307
  382BOLB   PO2 9158  16.725   3.237  12.009 -0.0513 -0.0931  0.2227
  382BOLB   GL3 9159  16.587   2.968  11.742 -0.0387  0.2435 -0.0326
  382BOLB   GL4 9160  16.342   2.907  11.814  0.1182  0.2445 -0.1534
  382BOLB   C1C 9161  16.701   2.594  11.648 -0.1857  0.0393 -0.1830
  382BOLB   C2C 9162  16.618   2.058  11.546  0.0402 -0.0288 -0.2615
  382BOLB   C3C 9163  16.306   1.766  11.434  0.1256 -0.2657  0.3420
  382BOLB   C4C 9164  15.895   1.837  11.431  0.0845  0.1173 -0.0660
  382BOLB   C1D 9165  16.276   2.741  11.382 -0.4449  0.1715  0.1614
  382BOLB   C2D 9166  16.184   3.040  11.078 -0.0845 -0.2421 -0.0402
  382BOLB   C3D 9167  15.760   2.885  10.849 -0.0782 -0.2064 -0.2128
  382BOLB   C4D 9168  15.458   2.647  10.746 -0.0441  0.1218 -0.2917
  383BOLB   NC1 9169  21.847  16.389  17.277  0.1050  0.1899 -0.1439
  383BOLB   PO1 9170  22.136  16.717  17.523 -0.0762 -0.1685 -0.0337
  383BOLB   GL1 9171  22.509  16.761  17.736 -0.1819  0.0120 -0.3067
  383BOLB   GL2 9172  22.318  16.940  18.023 -0.0773 -0.0502 -0.1062
  383BOLB   C1A 9173  22.921  16.899  17.549 -0.1317 -0.1362 -0.0916
  383BOLB   C2A 9174  23.311  17.112  17.528 -0.1880 -0.0927 -0.3543
  383BOLB   C3A 9175  23.485  17.516  17.421  0.4419  0.0942  0.4711
  383BOLB   C4A 9176  23.636  17.908  17.616 -0.0463  0.1461  0.1918
  383BOLB   C1B 9177  22.687  17.173  17.879  0.1015 -0.3392 -0.0646
  383BOLB   C2B 9178  23.117  17.276  17.946 -0.1547  0.2369  0.1636
  383BOLB   C3B 9179  23.497  17.415  17.945 -0.0905  0.0569 -0.2496
  383BOLB   C4B 9180  23.937  17.380  18.216  0.1190  0.3825 -0.1232
  383BOLB   NC2 9181  24.969  20.007  17.599  0.1053  0.3685 -0.1642
  383BOLB   PO2 9182  24.895  19.608  17.860  0.0807  0.1539  0.0022
  383BOLB   GL3 9183  24.703  19.220  18.024 -0.3440  0.2020  0.0340
  383BOLB   GL4 9184  24.824  19.027  17.856 -0.1065 -0.1580  0.2303
  383BOLB   C1C 9185  24.437  18.852  18.175  0.1582  0.0269 -0.1341
  383BOLB   C2C 9186  24.186  18.577  18.285  0.2547  0.0256  0.0003
  383BOLB   C3C 9187  23.915  18.220  18.269  0.0392  0.1715 -0.1780
  383BOLB   C4C 9188  23.680  17.908  18.066 -0.1928 -0.0397 -0.1882
  383BOLB   C1D 9189  25.173  18.827  17.908  0.1699  0.1040 -0.0493
  383BOLB   C2D 9190  25.291  18.486  18.150  0.0368 -0.2872 -0.2517
  383BOLB   C3D 9191  25.497  18.109  17.914 -0.2251 -0.2099  0.0204
  383BOLB   C4D 9192  25.614  17.855  17.524 -0.2244  0.2906  0.0143
  384BOLB   NC1 9193  19.248  15.618  20.863 -0.4499 -0.0441 -0.1709
  384BOLB   PO1 9194  19.016  15.958  21.109 -0.2050 -0.0327  0.1481
  384BOLB   GL1 9195  19.231  16.402  21.019  0.0191 -0.0784 -0.3101
  384BOLB   GL2 9196  19.530  16.452  21.191  0.3620  0.1064 -0.2220
  384BOLB   C1A 9197  19.404  16.910  20.978 -0.0445 -0.1102 -0.3014
  384BOLB   C2A 9198  19.681  17.277  21.157  0.0164  0.0022  0.0013
  384BOLB   C3A 9199  19.575  17.502  21.448 -0.1985 -0.0822 -0.2928
  384BOLB   C4A 9200  19.677  17.946  21.729 -0.0869  0.1111 -0.0537
  384BOLB   C1B 9201  19.767  16.847  21.326  0.1522  0.2600 -0.1311
  384BOLB   C2B 9202  19.904  17.095  21.707  0.2345  0.0202 -0.1232
  384BOLB   C3B 9203  19.765  17.482  21.964  0.1592  0.0342 -0.0433
  384BOLB   C4B 9204  19.901  17.742  22.250 -0.1051 -0.6923  0.1301
  384BOLB   NC2 9205  21.212  19.274  23.181 -0.3529  0.1403 -0.1055
  384BOLB   PO2 9206  20.730  19.305  23.373 -0.1049  0.0091  0.1197
  384BOLB   GL3 9207  20.360  19.362  23.103  0.0638  0.3771 -0.0636
  384BOLB   GL4 9208  20.443  19.345  22.731 -0.0936 -0.0723  0.0953
  384BOLB   C1C 9209  19.954  19.135  22.904  0.0673  0.2105  0.1688
  384BOLB   C2C 9210  19.668  18.937  22.576 -0.1047 -0.4982  0.0777
  384BOLB   C3C 9211  19.678  18.726  22.161  0.2336 -0.1593  0.3582
  384BOLB   C4C 9212  19.563  18.190  22.055 -0.1624  0.2004 -0.0966
  384BOLB   C1D 9213  20.289  19.108  22.446  0.0142  0.3170 -0.0659
  384BOLB   C2D 9214  20.064  19.005  22.096 -0.0650 -0.0538 -0.0607
  384BOLB   C3D 9215  19.906  19.036  21.776  0.1632 -0.1684 -0.0920
  384BOLB   C4D 9216  19.633  18.918  21.427 -0.0408 -0.0567 -0.3671
  385BOLB   NC1 9217  16.142  13.357   8.178  0.0029 -0.0654 -0.3292
  385BOLB   PO1 9218  16.599  13.212   8.016 -0.3014  0.0332 -0.0361
  385BOLB   GL1 9219  16.383  13.286   7.635  0.0019  0.2654  0.4112
  385BOLB   GL2 9220  16.109  13.451   7.608 -0.1144 -0.3973 -0.0204
  385BOLB   C1A 9221  16.538  13.533   7.251  0.2632 -0.2275 -0.0432
  385BOLB   C2A 9222  16.720  13.511   6.888 -0.1071 -0.2261  0.1212
  385BOLB   C3A 9223  16.599  13.564   6.377 -0.0224  0.4227  0.3877
  385BOLB   C4A 9224  16.521  13.863   5.963  0.1010 -0.1387 -0.1255
  385BOLB   C1B 9225  16.167  13.239   7.163  0.4623 -0.2116  0.1706
  385BOLB   C2B 9226  16.199  13.383   6.748 -0.2599 -0.3218  0.0131
  385BOLB   C3B 9227  16.161  13.297   6.269 -0.2389  0.2911 -0.0180
  385BOLB   C4B 9228  15.941  13.493   5.927  0.0304 -0.0890  0.5426
  385BOLB   NC2 9229  16.185  14.964   3.690  0.1910 -0.1141 -0.0375
  385BOLB   PO2 9230  16.268  14.766   4.067 -0.2897 -0.1345  0.1407
  385BOLB   GL3 9231  16.416  14.402   4.151  0.2729  0.1857 -0.0950
  385BOLB   GL4 9232  16.021  14.248   4.190 -0.1371 -0.1811 -0.1193
  385BOLB   C1C 9233  16.367  13.940   4.407  0.2412 -0.1468  0.1471
  385BOLB   C2C 9234  16.180  13.732   4.706  0.0064 -0.0849 -0.0846
  385BOLB   C3C 9235  16.159  13.810   5.146 -0.2893 -0.0386  0.1811
  385BOLB   C4C 9236  16.333  13.793   5.580  0.0525 -0.2047  0.1884
  385BOLB   C1D 9237  15.926  14.179   4.670 -0.2721  0.0627 -0.2188
  385BOLB   C2D 9238  15.638  13.902   4.728  0.2141  0.1714 -0.0482
  385BOLB   C3D 9239  15.605  13.664   5.070 -0.3128  0.0137  0.0348
  385BOLB   C4D 9240  15.302  13.781   5.297 -0.2522 -0.0560  0.0117
  386BOLB   NC1 9241  17.623  17.828  13.422 -0.2509  0.4048  0.2278
  386BOLB   PO1 9242  18.021  17.724  13.370 -0.1294 -0.1125  0.0070
  386BOLB   GL1 9243  18.285  17.903  13.080  0.1783 -0.0017  0.1364
  386BOLB   GL2 9244  18.493  18.106  13.234  0.0587 -0.0736 -0.0617
  386BOLB   C1A 9245  18.347  18.301  12.851 -0.1653  0.1254  0.3201
  386BOLB   C2A 9246  18.396  18.779  12.782 -0.2124  0.0500  0.2598
  386BOLB   C3A 9247  18.560  19.128  12.479  0.0052  0.1287  0.1627
  386BOLB   C4A 9248  18.737  19.402  12.301  0.2536  0.2111  0.0511
  386BOLB   C1B 9249  18.770  18.359  13.125 -0.1554 -0.0190 -0.0303
  386BOLB   C2B 9250  18.893  18.825  12.913  0.0355  0.2559 -0.1826
  386BOLB   C3B 9251  18.945  19.275  12.780  0.0898 -0.1247 -0.0743
  386BOLB   C4B 9252  19.127  19.584  12.764 -0.0403 -0.1670 -0.4711
  386BOLB   NC2 9253  19.261  21.412  11.442  0.0348  0.2089 -0.1758
  386BOLB   PO2 9254  19.655  21.405  11.620  0.2573  0.0463  0.2091
  386BOLB   GL3 9255  19.384  20.979  11.565  0.1241 -0.0728  0.1695
  386BOLB   GL4 9256  19.346  20.905  11.853 -0.1062 -0.0851 -0.1284
  386BOLB   C1C 9257  19.514  20.538  11.399  0.0072  0.0331  0.0436
  386BOLB   C2C 9258  19.478  20.142  11.555  0.0135 -0.0271 -0.0595
  386BOLB   C3C 9259  19.192  19.883  11.839  0.2299 -0.0659  0.3280
  386BOLB   C4C 9260  19.067  19.708  12.283  0.0079 -0.0533  0.1087
  386BOLB   C1D 9261  19.502  20.597  12.059  0.2088  0.0016  0.0089
  386BOLB   C2D 9262  19.724  20.367  12.393 -0.0011 -0.0139  0.0304
  386BOLB   C3D 9263  20.066  19.999  12.351  0.3822  0.0864 -0.0554
  386BOLB   C4D 9264  20.499  19.907  12.163  0.0955 -0.2922 -0.1811
  387BOLB   NC1 9265  18.400  15.198  21.982 -0.1082  0.4034  0.0803
  387BOLB   PO1 9266  18.820  15.460  21.834 -0.1547 -0.0877  0.1903
  387BOLB   GL1 9267  18.990  15.601  22.202 -0.0575  0.0633  0.2120
  387BOLB   GL2 9268  18.889  15.662  22.546  0.3763  0.0238  0.1333
  387BOLB   C1A 9269  19.401  15.732  22.494  0.0688 -0.0543 -0.0398
  387BOLB   C2A 9270  19.544  15.749  22.912  0.2431  0.1051  0.1487
  387BOLB   C3A 9271  19.522  15.883  23.262 -0.3534  0.3865  0.0271
  387BOLB   C4A 9272  19.846  16.021  23.640  0.1051 -0.4661 -0.1209
  387BOLB   C1B 9273  19.111  16.028  22.830 -0.0498  0.1709 -0.0382
  387BOLB   C2B 9274  19.122  16.460  22.580  0.0431 -0.3137  0.1274
  387BOLB   C3B 9275  18.968  16.860  22.348  0.0300 -0.1978 -0.1139
  387BOLB   C4B 9276  19.137  17.220  22.391 -0.0125  0.0826  0.3362
  387BOLB   NC2 9277  19.194  17.500  25.874  0.0258  0.2195 -0.0244
  387BOLB   PO2 9278  19.605  17.634  25.692 -0.1518  0.1203  0.0459
  387BOLB   GL3 9279  19.536  17.280  25.314  0.0109 -0.2684 -0.0815
  387BOLB   GL4 9280  19.417  17.522  25.086  0.0020 -0.1378  0.1659
  387BOLB   C1C 9281  19.632  17.104  24.972 -0.1764 -0.0434  0.0590
  387BOLB   C2C 9282  19.749  16.894  24.572  0.2713 -0.1560  0.1982
  387BOLB   C3C 9283  19.996  16.550  24.380  0.2331 -0.0688 -0.1070
  387BOLB   C4C 9284  19.912  16.328  23.979  0.1220  0.4393  0.0765
  387BOLB   C1D 9285  19.071  17.246  24.885 -0.0552 -0.0611  0.3884
  387BOLB   C2D 9286  18.856  17.169  24.481 -0.1828 -0.2754 -0.0253
  387BOLB   C3D 9287  18.600  17.049  24.145 -0.4493 -0.1050 -0.0452
  387BOLB   C4D 9288  18.181  17.021  24.005  0.1308  0.4229 -0.1701
  388BOLB   NC1 9289  19.200  12.817   9.399 -0.0475 -0.2608  0.0591
  388BOLB   PO1 9290  18.936  12.496   9.110  0.1629 -0.0730 -0.2858
  388BOLB   GL1 9291  19.175  12.483   8.691  0.2408  0.1231 -0.1674
  388BOLB   GL2 9292  19.059  12.402   8.381  0.2144 -0.0046 -0.0151
  388BOLB   C1A 9293  19.496  12.208   8.386  0.1182  0.0616 -0.1006
  388BOLB   C2A 9294  19.814  12.398   8.160 -0.0301  0.1517 -0.0354
  388BOLB   C3A 9295  20.189  12.594   8.058  0.1537 -0.1081 -0.4506
  388BOLB   C4A 9296  20.508  12.748   7.786 -0.4642  0.1313 -0.1108
  388BOLB   C1B 9297  19.331  12.600   8.130 -0.0460 -0.0981 -0.0629
  388BOLB   C2B 9298  19.685  12.795   7.947 -0.1445 -0.4235  0.4712
  388BOLB   C3B 9299  19.984  12.920   7.625  0.2093  0.2301 -0.0725
  388BOLB   C4B 9300  20.309  12.847   7.325 -0.2160  0.5091 -0.2036
  388BOLB   NC2 9301  22.531  13.694   6.067  0.2149 -0.1299  0.3292
  388BOLB   PO2 9302  22.059  13.732   6.143  0.1469 -0.1647 -0.1989
  388BOLB   GL3 9303  21.830  13.708   6.565  0.2444 -0.0948 -0.1193
  388BOLB   GL4 9304  22.049  13.880   6.909  0.3572  0.1250  0.0834
  388BOLB   C1C 9305  21.576  13.642   6.950 -0.0773  0.1539 -0.1186
  388BOLB   C2C 9306  21.449  13.560   7.401 -0.1283 -0.1634 -0.1164
  388BOLB   C3C 9307  21.196  13.246   7.654 -0.2414 -0.0606 -0.0290
  388BOLB   C4C 9308  20.832  12.960   7.739  0.5590 -0.1502 -0.0119
  388BOLB   C1D 9309  22.096  13.576   7.138  0.0282  0.0892 -0.1743
  388BOLB   C2D 9310  22.193  13.217   7.032 -0.0087  0.1316  0.0870
  388BOLB   C3D 9311  21.994  12.684   7.063  0.1024 -0.2307  0.2752
  388BOLB   C4D 9312  21.847  12.277   6.853 -0.2316  0.4086  0.4993
  389BOLB   NC1 9313  21.459   9.504  22.398 -0.2410  0.1491 -0.0406
  389BOLB   PO1 9314  21.613   9.229  22.180  0.2091 -0.0794 -0.1702
  389BOLB   GL1 9315  22.060   9.517  22.386  0.1390  0.4773  0.0208
  389BOLB   GL2 9316  22.224   9.278  22.507  0.0355 -0.1241  0.0189
  389BOLB   C1A 9317  22.300   9.826  22.618  0.1464 -0.0208  0.0333
  389BOLB   C2A 9318  22.689   9.999  22.892  0.0895 -0.1167  0.2286
  389BOLB   C3A 9319  22.861   9.833  23.318  0.1229  0.1205 -0.1706
  389BOLB   C4A 9320  22.992   9.527  23.480  0.0983  0.0914  0.3755
  389BOLB   C1B 9321  22.560   9.145  22.683  0.1338  0.1346 -0.1233
  389BOLB   C2B 9322  22.978   9.018  22.793 -0.0507 -0.1190 -0.0654
  389BOLB   C3B 9323  23.252   9.040  23.092 -0.1807 -0.0409 -0.0116
  389BOLB   C4B 9324  23.372   9.251  23.551 -0.3699 -0.0683 -0.0045
  389BOLB   NC2 9325  23.583   9.467  26.324  0.0972  0.1380 -0.1518
  389BOLB   PO2 9326  23.435   9.472  25.837  0.1800 -0.1467 -0.1789
  389BOLB   GL3 9327  23.271   9.501  25.467  0.1364  0.0607 -0.4833
  389BOLB   GL4 9328  22.947   9.550  25.579  0.1752 -0.0042 -0.3308
  389BOLB   C1C 9329  23.147   9.564  25.022  0.4072  0.0563  0.0582
  389BOLB   C2C 9330  22.980   9.624  24.594 -0.0153 -0.0661 -0.0951
  389BOLB   C3C 9331  23.082   9.832  24.192 -0.0200  0.0082 -0.3126
  389BOLB   C4C 9332  23.244   9.637  23.852  0.1103 -0.2025  0.1840
  389BOLB   C1D 9333  22.555   9.796  25.566 -0.1526 -0.1367 -0.0237
  389BOLB   C2D 9334  22.311  10.086  25.332  0.0107  0.1173 -0.1311
  389BOLB   C3D 9335  22.255  10.320  24.954  0.0808 -0.2734  0.0760
  389BOLB   C4D 9336  22.294  10.321  24.525  0.0326 -0.1304  0.1603
  390BOLB   NC1 9337  21.293  16.264  14.380  0.1984  0.1770 -0.0714
  390BOLB   PO1 9338  21.350  16.578  14.278 -0.0018 -0.1588  0.2376
  390BOLB   GL1 9339  21.735  16.740  14.222  0.0222 -0.3990 -0.2107
  390BOLB   GL2 9340  21.697  16.729  13.905  0.3542  0.0817 -0.0493
  390BOLB   C1A 9341  21.935  17.018  14.232  0.2408 -0.1829  0.0678
  390BOLB   C2A 9342  22.248  17.238  14.131 -0.1772  0.0453 -0.2208
  390BOLB   C3A 9343  22.346  17.551  13.826 -0.3606  0.1430 -0.1397
  390BOLB   C4A 9344  22.529  17.862  13.665 -0.0834 -0.3403  0.4071
  390BOLB   C1B 9345  22.075  16.792  13.767 -0.2444  0.1573 -0.1874
  390BOLB   C2B 9346  22.367  17.084  13.635 -0.2732 -0.0063 -0.0895
  390BOLB   C3B 9347  22.784  17.283  13.631 -0.3245 -0.0934 -0.2493
  390BOLB   C4B 9348  23.180  17.334  13.648 -0.0081  0.0801  0.0401
  390BOLB   NC2 9349  24.334  19.187  13.408 -0.2642  0.0209  0.1557
  390BOLB   PO2 9350  24.609  18.953  13.733 -0.0963 -0.0912  0.0853
  390BOLB   GL3 9351  24.343  18.487  13.655  0.2849  0.1606  0.1619
  390BOLB   GL4 9352  24.582  18.256  13.423 -0.0821 -0.3084  0.0080
  390BOLB   C1C 9353  24.110  18.141  13.573 -0.4076  0.0578 -0.1371
  390BOLB   C2C 9354  23.681  18.068  13.521 -0.0163  0.1227  0.2020
  390BOLB   C3C 9355  23.321  18.125  13.603  0.2929 -0.1820  0.2020
  390BOLB   C4C 9356  22.903  18.136  13.548  0.1489  0.0726 -0.1685
  390BOLB   C1D 9357  24.770  17.912  13.612 -0.1917  0.0812 -0.1333
  390BOLB   C2D 9358  24.814  17.618  13.998  0.2292 -0.3398  0.1437
  390BOLB   C3D 9359  25.231  17.632  14.214  0.2307 -0.1402 -0.3910
  390BOLB   C4D 9360  25.587  17.372  14.005  0.1412 -0.1159  0.0776
  391BOLB   NC1 9361  14.283  10.539  22.555  0.2817  0.1508  0.2421
  391BOLB   PO1 9362  14.341  10.149  22.880  0.1644 -0.0428  0.1353
  391BOLB   GL1 9363  14.100  10.350  23.215  0.2790  0.0861 -0.2423
  391BOLB   GL2 9364  13.987  10.640  23.081  0.1160 -0.0972 -0.0842
  391BOLB   C1A 9365  13.867  10.168  23.634  0.0489 -0.0705  0.2821
  391BOLB   C2A 9366  13.699  10.065  24.047  0.1404  0.1080 -0.2026
  391BOLB   C3A 9367  13.334  10.278  24.331  0.1445  0.2249 -0.0700
  391BOLB   C4A 9368  13.357  10.278  24.797 -0.0837  0.0048 -0.2865
  391BOLB   C1B 9369  13.983  10.680  23.567  0.0712 -0.1138  0.2073
  391BOLB   C2B 9370  13.957  10.587  23.915  0.0078 -0.2507 -0.1018
  391BOLB   C3B 9371  13.741  10.616  24.358 -0.1427  0.1657 -0.0811
  391BOLB   C4B 9372  13.621  10.747  24.776  0.5101  0.1284 -0.1142
  391BOLB   NC2 9373  13.888  10.883  27.539 -0.0518  0.1048 -0.1867
  391BOLB   PO2 9374  13.854  10.773  27.143 -0.0885  0.1115 -0.2855
  391BOLB   GL3 9375  13.708  10.744  26.830  0.1277  0.0986 -0.1909
  391BOLB   GL4 9376  13.689  10.318  26.739  0.0756 -0.0846 -0.4805
  391BOLB   C1C 9377  13.419  10.673  26.473 -0.2605 -0.0116  0.2936
  391BOLB   C2C 9378  13.591  10.616  26.085  0.2392  0.0815 -0.2062
  391BOLB   C3C 9379  13.580  10.349  25.693  0.4339 -0.1178 -0.2208
  391BOLB   C4C 9380  13.560  10.394  25.172 -0.0330 -0.4402 -0.0894
  391BOLB   C1D 9381  13.927  10.480  26.414  0.0527  0.3436  0.0765
  391BOLB   C2D 9382  14.359  10.264  26.369  0.0624 -0.0699  0.0575
  391BOLB   C3D 9383  14.638  10.286  26.091 -0.0412  0.0281  0.0040
  391BOLB   C4D 9384  15.106  10.333  25.971 -0.1974  0.2503 -0.1908
  392BOLB   NC1 9385  18.262  15.619  20.543  0.4567  0.0277  0.0979
  392BOLB   PO1 9386  18.519  15.828  20.983  0.0578 -0.4066  0.0843
  392BOLB   GL1 9387  18.461  16.173  21.190 -0.0991 -0.2723  0.0608
  392BOLB   GL2 9388  18.724  16.309  21.323 -0.1898 -0.3460  0.2578
  392BOLB   C1A 9389  18.391  16.641  21.332  0.1276  0.1551  0.0453
  392BOLB   C2A 9390  18.383  16.951  21.655  0.0558 -0.0520  0.0390
  392BOLB   C3A 9391  18.354  17.341  21.821  0.0635 -0.0651  0.0937
  392BOLB   C4A 9392  18.302  17.613  22.103 -0.2996 -0.2476  0.3716
  392BOLB   C1B 9393  18.815  16.673  21.696 -0.1580  0.0901 -0.1157
  392BOLB   C2B 9394  18.914  17.087  21.856 -0.1664  0.0417  0.1061
  392BOLB   C3B 9395  18.928  17.422  22.001 -0.3849  0.1063  0.1561
  392BOLB   C4B 9396  19.275  17.729  22.043 -0.1417  0.0997 -0.1870
  392BOLB   NC2 9397  19.183  18.593  24.521 -0.3718  0.0349 -0.2813
  392BOLB   PO2 9398  19.106  18.996  24.199  0.0345 -0.2369 -0.0975
  392BOLB   GL3 9399  19.123  18.496  23.977 -0.2334  0.1194  0.0391
  392BOLB   GL4 9400  19.287  18.278  24.140 -0.0099 -0.0504  0.3285
  392BOLB   C1C 9401  18.848  18.335  23.584 -0.0122 -0.3816 -0.2040
  392BOLB   C2C 9402  18.798  18.182  23.175 -0.1773 -0.4475  0.1134
  392BOLB   C3C 9403  18.643  17.843  22.820  0.1097 -0.1109 -0.4559
  392BOLB   C4C 9404  18.457  17.877  22.433 -0.1338  0.1918 -0.4304
  392BOLB   C1D 9405  19.242  17.967  23.819  0.0018 -0.0136  0.1869
  392BOLB   C2D 9406  19.288  18.003  23.312  0.2742 -0.2269  0.0662
  392BOLB   C3D 9407  19.547  17.734  23.094 -0.0570  0.1669 -0.1806
  392BOLB   C4D 9408  19.435  17.527  22.749  0.3568 -0.1447 -0.1541
  393BOLB   NC1 9409  20.281   3.404  24.640 -0.0133  0.0462 -0.1214
  393BOLB   PO1 9410  20.218   3.657  24.928  0.2386  0.0189 -0.1126
  393BOLB   GL1 9411  20.114   3.956  24.659  0.0106  0.0203  0.0983
  393BOLB   GL2 9412  19.779   4.173  24.626 -0.3260 -0.4221 -0.2393
  393BOLB   C1A 9413  20.306   4.217  24.499 -0.1065 -0.0954 -0.1627
  393BOLB   C2A 9414  20.420   4.551  24.485  0.2569 -0.1917 -0.1052
  393BOLB   C3A 9415  20.358   4.963  24.262 -0.0303  0.2170  0.4538
  393BOLB   C4A 9416  20.141   5.255  24.068  0.1588 -0.0608  0.3380
  393BOLB   C1B 9417  19.912   4.400  24.291  0.1343 -0.7356  0.4305
  393BOLB   C2B 9418  20.108   4.562  23.935 -0.6225 -0.1568 -0.0394
  393BOLB   C3B 9419  20.085   4.885  23.743 -0.0247  0.2065  0.6145
  393BOLB   C4B 9420  20.161   4.800  23.244 -0.0837 -0.1054 -0.0944
  393BOLB   NC2 9421  19.802   5.526  25.823  0.2312  0.2849  0.0837
  393BOLB   PO2 9422  19.385   5.484  25.958  0.2440  0.1634 -0.0006
  393BOLB   GL3 9423  19.354   5.344  25.509  0.1224 -0.0616  0.2294
  393BOLB   GL4 9424  19.699   5.118  25.499  0.3756  0.0926  0.1365
  393BOLB   C1C 9425  19.286   5.435  25.094  0.1485 -0.2390  0.2471
  393BOLB   C2C 9426  19.157   5.372  24.675 -0.3008  0.0144 -0.0019
  393BOLB   C3C 9427  19.391   5.451  24.369 -0.2378  0.0444 -0.0799
  393BOLB   C4C 9428  19.693   5.397  24.265 -0.1037 -0.2020 -0.0552
  393BOLB   C1D 9429  19.745   5.133  25.057  0.1042 -0.1301  0.1861
  393BOLB   C2D 9430  19.518   5.039  24.709 -0.0718  0.0207  0.4368
  393BOLB   C3D 9431  19.034   4.865  24.649  0.2143 -0.1136  0.2888
  393BOLB   C4D 9432  18.680   4.708  24.549 -0.1060 -0.0240 -0.2188
  394BOLB   NC1 9433   9.666  14.728  18.759  0.2477  0.0889  0.1425
  394BOLB   PO1 9434   9.813  14.689  19.162  0.0770 -0.1865  0.2135
  394BOLB   GL1 9435   9.569  15.005  19.402  0.0286 -0.2484 -0.2314
  394BOLB   GL2 9436   9.403  14.806  19.573  0.0040  0.0023  0.2483
  394BOLB   C1A 9437   9.359  15.356  19.488  0.2416  0.4181 -0.0329
  394BOLB   C2A 9438   9.143  15.747  19.668 -0.0397 -0.2763  0.1807
  394BOLB   C3A 9439   8.705  15.795  19.916  0.4447  0.1160 -0.0949
  394BOLB   C4A 9440   8.244  15.738  20.154 -0.1710 -0.3756  0.3191
  394BOLB   C1B 9441   9.037  14.999  19.464 -0.1177  0.0506 -0.2722
  394BOLB   C2B 9442   9.057  15.180  19.079 -0.1657 -0.2538 -0.0065
  394BOLB   C3B 9443   8.962  15.534  18.999  0.1603 -0.0332  0.0962
  394BOLB   C4B 9444   8.795  15.848  18.767 -0.0794 -0.1283  0.1818
  394BOLB   NC2 9445   5.814  17.211  20.792  0.1760 -0.3027 -0.0603
  394BOLB   PO2 9446   6.204  16.968  20.920 -0.2055 -0.3005  0.3174
  394BOLB   GL3 9447   6.480  16.678  20.880  0.1655 -0.1072  0.1433
  394BOLB   GL4 9448   6.647  16.398  21.124  0.1924  0.2011  0.4492
  394BOLB   C1C 9449   6.708  16.371  20.645  0.1428 -0.1827  0.2405
  394BOLB   C2C 9450   7.061  16.174  20.392  0.0150 -0.1720 -0.1204
  394BOLB   C3C 9451   7.453  16.079  20.190  0.1189  0.1579  0.2094
  394BOLB   C4C 9452   7.903  15.841  19.910  0.1654 -0.1855 -0.0551
  394BOLB   C1D 9453   6.816  16.025  21.082 -0.0289 -0.1843 -0.3157
  394BOLB   C2D 9454   6.872  15.878  20.693 -0.2117  0.0706 -0.1938
  394BOLB   C3D 9455   7.112  15.608  20.335  0.0499  0.3563 -0.1271
  394BOLB   C4D 9456   7.384  15.586  20.005 -0.1957  0.1366  0.1055
  395BOLB   NC1 9457  22.686  11.167  20.820 -0.1703  0.1653  0.1667
  395BOLB   PO1 9458  22.447  11.498  21.053 -0.1806  0.2237 -0.0004
  395BOLB   GL1 9459  22.817  11.569  21.269 -0.1725 -0.2320 -0.2770
  395BOLB   GL2 9460  23.126  11.604  21.106  0.0895  0.0501  0.2918
  395BOLB   C1A 9461  22.957  11.782  21.589  0.1966  0.1416  0.1769
  395BOLB   C2A 9462  23.226  12.009  21.924 -0.1516  0.0790  0.0086
  395BOLB   C3A 9463  23.515  12.330  22.178  0.0502  0.1410  0.1085
  395BOLB   C4A 9464  23.595  12.456  22.583  0.0018  0.0203 -0.5402
  395BOLB   C1B 9465  23.455  11.487  21.365 -0.2205  0.0622 -0.0209
  395BOLB   C2B 9466  23.856  11.541  21.258  0.0184  0.2563  0.2073
  395BOLB   C3B 9467  24.323  11.592  21.300  0.0247  0.1768  0.3653
  395BOLB   C4B 9468  24.563  11.648  21.712  0.2224 -0.1579 -0.0698
  395BOLB   NC2 9469  24.105  11.545  24.778  0.0928 -0.1482 -0.3520
  395BOLB   PO2 9470  24.415  11.813  24.630 -0.2473  0.2509  0.1039
  395BOLB   GL3 9471  24.190  11.990  24.293 -0.1807  0.1073 -0.3075
  395BOLB   GL4 9472  23.888  11.917  24.486  0.1946 -0.0516 -0.0223
  395BOLB   C1C 9473  23.922  12.116  24.028  0.1854 -0.2113  0.2085
  395BOLB   C2C 9474  23.655  12.169  23.739  0.0289  0.2645  0.1711
  395BOLB   C3C 9475  23.679  12.114  23.417 -0.0791 -0.0065  0.1133
  395BOLB   C4C 9476  23.562  12.305  23.017  0.1035 -0.1360 -0.0159
  395BOLB   C1D 9477  23.676  11.679  24.281 -0.2356  0.2973 -0.2924
  395BOLB   C2D 9478  23.588  11.652  23.901 -0.3738  0.0675  0.0361
  395BOLB   C3D 9479  23.282  11.753  23.574 -0.1220  0.0210  0.2750
  395BOLB   C4D 9480  23.326  11.774  23.078  0.1013 -0.2265 -0.2082
  396BOLB   NC1 9481  13.125   2.292  16.887  0.0015  0.0929 -0.0011
  396BOLB   PO1 9482  12.739   2.516  16.831 -0.1234 -0.1568  0.0453
  396BOLB   GL1 9483  12.577   2.108  16.902 -0.0947  0.1914 -0.1073
  396BOLB   GL2 9484  12.393   2.170  16.657 -0.3277  0.1200  0.0060
  396BOLB   C1A 9485  12.471   1.655  16.913 -0.0525 -0.0574 -0.2715
  396BOLB   C2A 9486  12.428   1.312  17.020 -0.0290  0.2101  0.0840
  396BOLB   C3A 9487  12.266   0.892  17.159  0.2795  0.0534 -0.0979
  396BOLB   C4A 9488  12.081   0.534  17.519  0.3764  0.0638 -0.0875
  396BOLB   C1B 9489  12.170   1.911  16.653  0.3300 -0.1028 -0.0412
  396BOLB   C2B 9490  11.808   2.069  16.764 -0.0148 -0.3275  0.1720
  396BOLB   C3B 9491  11.470   2.035  16.997  0.1527  0.0869  0.1609
  396BOLB   C4B 9492  11.142   1.804  17.188 -0.0252  0.0375 -0.0465
  396BOLB   NC2 9493  11.480  -1.623  19.078  0.2770 -0.1679 -0.2944
  396BOLB   PO2 9494  11.378  -1.425  18.730 -0.1894  0.2238 -0.1617
  396BOLB   GL3 9495  11.307  -0.992  18.641  0.1288  0.2452  0.0727
  396BOLB   GL4 9496  10.961  -0.890  18.697 -0.1117  0.0085  0.0935
  396BOLB   C1C 9497  11.638  -0.653  18.600 -0.4099 -0.1951  0.0729
  396BOLB   C2C 9498  11.756  -0.295  18.453  0.2182  0.1393  0.1070
  396BOLB   C3C 9499  11.757   0.105  18.162  0.1572  0.1851 -0.4614
  396BOLB   C4C 9500  11.827   0.199  17.743  0.1449  0.0418 -0.3034
  396BOLB   C1D 9501  11.125  -0.648  18.364 -0.3246  0.0090 -0.0600
  396BOLB   C2D 9502  11.394  -0.546  18.187  0.1644 -0.1766  0.1349
  396BOLB   C3D 9503  11.609  -0.291  17.928  0.2541  0.0354 -0.4054
  396BOLB   C4D 9504  11.707  -0.356  17.554 -0.3499 -0.1051  0.2417
  397BOLB   NC1 9505  14.863   2.117  18.710 -0.2993  0.0612 -0.0252
  397BOLB   PO1 9506  15.070   1.925  18.495 -0.0869 -0.0148  0.0027
  397BOLB   GL1 9507  15.071   1.564  18.618 -0.1067  0.1157  0.0360
  397BOLB   GL2 9508  14.917   1.540  18.975  0.1274  0.1676 -0.3295
  397BOLB   C1A 9509  15.253   1.251  18.658 -0.0886 -0.0446 -0.2227
  397BOLB   C2A 9510  15.116   0.825  18.785 -0.2519 -0.2611 -0.0873
  397BOLB   C3A 9511  15.105   0.760  19.194  0.0871 -0.2131  0.1492
  397BOLB   C4A 9512  14.827   0.610  19.282 -0.1175 -0.1437 -0.4166
  397BOLB   C1B 9513  14.892   1.199  19.167  0.0935  0.0462 -0.0851
  397BOLB   C2B 9514  14.546   0.994  19.556  0.2814 -0.0393 -0.0159
  397BOLB   C3B 9515  14.105   0.842  19.565  0.2228  0.0694 -0.1264
  397BOLB   C4B 9516  13.847   0.692  19.336  0.0118  0.1137  0.1058
  397BOLB   NC2 9517  13.796  -1.350  19.764  0.1749  0.1065 -0.2303
  397BOLB   PO2 9518  13.488  -1.319  20.128 -0.3512  0.0183 -0.0921
  397BOLB   GL3 9519  13.810  -0.887  20.049  0.0097 -0.5009 -0.1176
  397BOLB   GL4 9520  14.054  -0.828  20.275 -0.3098  0.2182 -0.1487
  397BOLB   C1C 9521  14.091  -0.624  19.843  0.0961 -0.1707  0.0603
  397BOLB   C2C 9522  14.431  -0.366  19.883  0.0261 -0.0802  0.0693
  397BOLB   C3C 9523  14.626  -0.011  19.688  0.4119  0.0141  0.0640
  397BOLB   C4C 9524  14.644   0.296  19.421  0.2261  0.3548  0.0228
  397BOLB   C1D 9525  14.374  -0.494  20.363 -0.2461  0.1226  0.2088
  397BOLB   C2D 9526  14.561  -0.146  20.294 -0.1040 -0.1135 -0.0789
  397BOLB   C3D 9527  14.553   0.337  20.019  0.0138  0.2676  0.0205
  397BOLB   C4D 9528  14.329   0.448  19.756  0.0788 -0.2892  0.0272
  398BOLB   NC1 9529  10.289   2.645   3.223  0.0519 -0.1366 -0.2102
  398BOLB   PO1 9530  10.277   3.109   3.210 -0.0992  0.0918  0.2215
  398BOLB   GL1 9531  10.605   2.910   3.467  0.3432  0.0740  0.1243
  398BOLB   GL2 9532  10.891   2.673   3.357 -0.1680 -0.1936 -0.2216
  398BOLB   C1A 9533  10.870   2.890   3.832 -0.0535  0.0024  0.3435
  398BOLB   C2A 9534  11.230   2.972   4.013 -0.0075  0.4620 -0.1439
  398BOLB   C3A 9535  11.466   3.081   4.440 -0.0623 -0.2847  0.0418
  398BOLB   C4A 9536  11.467   3.034   4.898  0.0240 -0.1833  0.0275
  398BOLB   C1B 9537  11.221   2.694   3.576  0.1791 -0.1559 -0.0513
  398BOLB   C2B 9538  11.644   2.901   3.758 -0.2053 -0.1623  0.1625
  398BOLB   C3B 9539  11.935   2.956   4.093  0.2951  0.1179 -0.1243
  398BOLB   C4B 9540  12.141   2.683   4.417  0.1909 -0.0068 -0.0318
  398BOLB   NC2 9541   9.530   1.893   3.998 -0.2172  0.2874  0.0213
  398BOLB   PO2 9542   9.708   1.747   4.381 -0.5690  0.1655 -0.1094
  398BOLB   GL3 9543  10.032   1.780   4.706 -0.2507 -0.0888  0.1039
  398BOLB   GL4 9544  10.196   1.517   4.832 -0.1731 -0.0540  0.1119
  398BOLB   C1C 9545  10.050   2.060   5.048 -0.1617 -0.0389  0.2190
  398BOLB   C2C 9546  10.407   2.266   5.056  0.0565 -0.1154  0.0030
  398BOLB   C3C 9547  10.855   2.558   5.124 -0.3110 -0.0370 -0.0684
  398BOLB   C4C 9548  11.233   2.794   5.127 -0.1869 -0.1232 -0.0590
  398BOLB   C1D 9549  10.519   1.669   5.058 -0.1967  0.0968 -0.2839
  398BOLB   C2D 9550  10.859   1.977   5.190 -0.1477  0.1612 -0.0222
  398BOLB   C3D 9551  11.150   2.128   5.363 -0.0260  0.1632  0.0312
  398BOLB   C4D 9552  11.059   2.517   5.565 -0.0154 -0.0361  0.0393
  399BOLB   NC1 9553   9.140  20.189  13.740  0.2462 -0.2301  0.0745
  399BOLB   PO1 9554   9.339  19.877  13.529  0.0715 -0.3117  0.0683
  399BOLB   GL1 9555   9.501  19.845  14.038  0.2261  0.4342 -0.0732
  399BOLB   GL2 9556   9.524  19.829  14.360  0.3083  0.0944 -0.1205
  399BOLB   C1A 9557   9.675  19.401  14.153  0.1787  0.1637 -0.2361
  399BOLB   C2A 9558  10.062  19.303  14.174 -0.2452 -0.1572  0.1564
  399BOLB   C3A 9559  10.218  19.021  13.996 -0.1559 -0.0014 -0.2297
  399BOLB   C4A 9560  10.568  18.874  14.181  0.0180 -0.1974 -0.2804
  399BOLB   C1B 9561   9.249  19.493  14.373  0.4117 -0.0545  0.2422
  399BOLB   C2B 9562   9.027  19.184  14.688 -0.3672 -0.0332 -0.0937
  399BOLB   C3B 9563   9.120  18.946  15.162  0.2462  0.1607  0.1339
  399BOLB   C4B 9564   9.443  18.726  15.337  0.4298  0.2590 -0.1154
  399BOLB   NC2 9565  12.468  17.646  14.964 -0.1710 -0.1401  0.1806
  399BOLB   PO2 9566  12.356  17.192  15.036 -0.0269  0.2337 -0.1059
  399BOLB   GL3 9567  11.982  17.407  14.912 -0.2846 -0.5091 -0.1012
  399BOLB   GL4 9568  11.893  17.641  14.603 -0.1248 -0.3684  0.0724
  399BOLB   C1C 9569  11.592  17.770  14.960 -0.3130 -0.5908 -0.1031
  399BOLB   C2C 9570  11.385  18.027  14.814  0.1482 -0.0602 -0.4059
  399BOLB   C3C 9571  11.015  18.255  14.564 -0.0527 -0.2002 -0.2083
  399BOLB   C4C 9572  10.771  18.518  14.456 -0.3317 -0.4669  0.1798
  399BOLB   C1D 9573  11.490  17.709  14.434 -0.1219 -0.0256  0.0288
  399BOLB   C2D 9574  11.329  18.070  14.164 -0.2802  0.2314 -0.3762
  399BOLB   C3D 9575  11.351  18.480  14.048  0.0660  0.1562  0.0757
  399BOLB   C4D 9576  10.977  18.858  13.954  0.1229 -0.0429  0.1040
  400BOLB   NC1 9577  15.750  17.616  11.959  0.0223  0.0196 -0.1510
  400BOLB   PO1 9578  15.898  17.213  11.716 -0.3149  0.1065  0.1713
  400BOLB   GL1 9579  15.887  17.635  11.479  0.3473  0.2502  0.3353
  400BOLB   GL2 9580  16.058  17.778  11.497  0.2694  0.0385 -0.0853
  400BOLB   C1A 9581  15.637  17.872  11.055  0.1024  0.1157  0.0921
  400BOLB   C2A 9582  15.781  18.270  10.819 -0.1050  0.0475 -0.2164
  400BOLB   C3A 9583  15.801  18.778  10.704  0.3138 -0.0177 -0.0100
  400BOLB   C4A 9584  15.690  19.136  10.740  0.1141  0.3642 -0.0414
  400BOLB   C1B 9585  16.068  18.123  11.229  0.3795  0.0522 -0.1564
  400BOLB   C2B 9586  16.031  18.583  11.127 -0.1647 -0.0087 -0.0800
  400BOLB   C3B 9587  16.173  18.960  11.085  0.1438 -0.0215 -0.1382
  400BOLB   C4B 9588  16.498  19.118  10.878  0.0255 -0.3081 -0.3034
  400BOLB   NC2 9589  15.623  21.011   9.567  0.0145  0.1832 -0.2681
  400BOLB   PO2 9590  16.083  20.843   9.449 -0.2199  0.0925 -0.1408
  400BOLB   GL3 9591  16.333  20.606   9.808  0.0811  0.0396  0.2132
  400BOLB   GL4 9592  16.472  20.285   9.835 -0.3462  0.2540  0.1503
  400BOLB   C1C 9593  16.117  20.464  10.110 -0.0979 -0.0507  0.1348
  400BOLB   C2C 9594  15.866  20.366  10.375  0.1818 -0.0518  0.2228
  400BOLB   C3C 9595  15.651  19.997  10.446  0.0079  0.1176 -0.0356
  400BOLB   C4C 9596  15.722  19.602  10.613 -0.1345 -0.1799 -0.1209
  400BOLB   C1D 9597  16.063  20.062   9.874 -0.3338  0.2733  0.3049
  400BOLB   C2D 9598  15.868  19.638   9.739 -0.0144 -0.2063 -0.1503
  400BOLB   C3D 9599  15.602  19.264   9.745  0.1712  0.0788 -0.1461
  400BOLB   C4D 9600  15.708  18.870   9.761 -0.1988  0.0433  0.1585
  401BOLB   NC1 9601  20.608  16.249  19.741 -0.3290  0.0615 -0.2046
  401BOLB   PO1 9602  20.684  16.628  19.572  0.1650 -0.0390  0.2275
  401BOLB   GL1 9603  20.588  17.057  19.602 -0.0086 -0.1350  0.2887
  401BOLB   GL2 9604  20.521  17.058  19.850  0.2060  0.1621 -0.1325
  401BOLB   C1A 9605  20.782  17.491  19.490 -0.0612  0.2847 -0.1440
  401BOLB   C2A 9606  21.009  17.792  19.669  0.2038 -0.0824  0.1137
  401BOLB   C3A 9607  21.248  18.080  19.745 -0.4139 -0.1392 -0.0776
  401BOLB   C4A 9608  21.174  18.501  19.907  0.2322  0.0188 -0.0475
  401BOLB   C1B 9609  20.824  17.371  19.962 -0.3125  0.1681  0.1354
  401BOLB   C2B 9610  20.926  17.729  20.194 -0.2581 -0.1805  0.0999
  401BOLB   C3B 9611  21.175  18.130  20.197 -0.0503 -0.3040 -0.1061
  401BOLB   C4B 9612  21.573  18.257  20.127 -0.1145 -0.1828 -0.0540
  401BOLB   NC2 9613  22.182  20.477  20.958 -0.2533 -0.1857  0.2155
  401BOLB   PO2 9614  21.957  20.469  20.668 -0.1506 -0.0188  0.2187
  401BOLB   GL3 9615  21.874  20.073  20.692  0.0871  0.3873  0.2935
  401BOLB   GL4 9616  21.616  20.079  20.554 -0.0350 -0.0225 -0.2364
  401BOLB   C1C 9617  22.052  19.664  20.499 -0.0167 -0.0245 -0.1356
  401BOLB   C2C 9618  21.853  19.399  20.383  0.0252 -0.0919 -0.0375
  401BOLB   C3C 9619  21.682  19.075  20.226  0.0719 -0.2126 -0.0947
  401BOLB   C4C 9620  21.409  18.781  20.120 -0.0878 -0.2568 -0.1520
  401BOLB   C1D 9621  21.357  19.620  20.475  0.0755  0.0369  0.2856
  401BOLB   C2D 9622  21.171  19.272  20.304  0.0378  0.0741 -0.1074
  401BOLB   C3D 9623  20.738  19.057  20.125  0.0707  0.5325 -0.1909
  401BOLB   C4D 9624  20.452  19.215  19.850  0.0456  0.1513  0.1640
  402BOLB   NC1 9625  20.422  17.543  17.613  0.0817 -0.2282 -0.3294
  402BOLB   PO1 9626  20.101  17.514  17.829  0.3989  0.1716  0.1890
  402BOLB   GL1 9627  20.197  17.956  17.982 -0.4102 -0.1225 -0.3005
  402BOLB   GL2 9628  20.535  17.988  17.851 -0.2776 -0.2618  0.1828
  402BOLB   C1A 9629  20.358  18.333  18.144 -0.0028 -0.0755 -0.1083
  402BOLB   C2A 9630  20.602  18.650  18.167 -0.1695  0.2088 -0.3580
  402BOLB   C3A 9631  20.811  19.049  18.298 -0.1235 -0.0134  0.0881
  402BOLB   C4A 9632  20.824  19.493  18.455 -0.0751 -0.0316 -0.0428
  402BOLB   C1B 9633  20.824  18.099  18.200 -0.2759  0.0133  0.2779
  402BOLB   C2B 9634  20.995  18.409  18.450  0.1915 -0.2426  0.0401
  402BOLB   C3B 9635  21.171  18.781  18.478 -0.2480  0.0079  0.0554
  402BOLB   C4B 9636  21.279  19.129  18.124 -0.0125  0.0758  0.1047
  402BOLB   NC2 9637  21.333  21.183  19.743  0.2513 -0.3453  0.0916
  402BOLB   PO2 9638  21.704  21.188  19.564  0.0178 -0.2873  0.1767
  402BOLB   GL3 9639  21.452  21.013  19.265  0.4722  0.1685  0.0625
  402BOLB   GL4 9640  21.127  20.815  19.455  0.2833  0.0364 -0.2222
  402BOLB   C1C 9641  21.157  20.920  18.967 -0.0818 -0.3364  0.2593
  402BOLB   C2C 9642  20.942  20.758  18.636 -0.0728 -0.3067 -0.1655
  402BOLB   C3C 9643  20.847  20.343  18.568  0.1142  0.1266 -0.1258
  402BOLB   C4C 9644  20.939  19.874  18.472  0.1580 -0.0020  0.1117
  402BOLB   C1D 9645  21.263  20.480  19.143 -0.0952  0.4688 -0.0337
  402BOLB   C2D 9646  21.565  20.246  19.055 -0.0109  0.3122  0.1599
  402BOLB   C3D 9647  21.660  19.787  19.006  0.4241  0.0479  0.1477
  402BOLB   C4D 9648  21.818  19.466  18.796 -0.2314  0.2372  0.0372
  403BOLB   NC1 9649  18.641   3.746  10.483 -0.1024  0.2670  0.2521
  403BOLB   PO1 9650  18.527   3.221  10.338  0.2939 -0.2612 -0.2723
  403BOLB   GL1 9651  18.640   2.736  10.196 -0.1464 -0.1302 -0.1186
  403BOLB   GL2 9652  18.400   2.700  10.313  0.0390 -0.2162 -0.0616
  403BOLB   C1A 9653  18.882   2.524  10.020  0.1515 -0.2615  0.0795
  403BOLB   C2A 9654  19.317   2.414   9.968 -0.2094  0.0443  0.0682
  403BOLB   C3A 9655  19.350   2.117   9.641 -0.1059 -0.0147  0.1419
  403BOLB   C4A 9656  19.210   1.987   9.306  0.2267 -0.1277  0.0871
  403BOLB   C1B 9657  18.305   2.427   9.988 -0.0805  0.4093  0.0363
  403BOLB   C2B 9658  18.055   2.143   9.616  0.1417 -0.2519 -0.0994
  403BOLB   C3B 9659  17.739   1.877   9.345 -0.1274  0.0857  0.2559
  403BOLB   C4B 9660  17.588   1.634   9.050  0.2736  0.0874  0.1387
  403BOLB   NC2 9661  20.601   1.412   7.192 -0.0116 -0.0507 -0.3505
  403BOLB   PO2 9662  20.764   1.600   7.416  0.0997 -0.2288 -0.1196
  403BOLB   GL3 9663  20.402   1.807   7.641  0.0212  0.1398  0.1017
  403BOLB   GL4 9664  20.341   2.197   7.628  0.2381  0.1680 -0.1634
  403BOLB   C1C 9665  19.991   1.843   7.928  0.1011  0.2605  0.0703
  403BOLB   C2C 9666  19.735   1.929   8.257  0.0049  0.2541 -0.3674
  403BOLB   C3C 9667  19.428   1.953   8.610  0.1471 -0.0482  0.0572
  403BOLB   C4C 9668  19.134   2.020   8.912  0.2775  0.0569 -0.0487
  403BOLB   C1D 9669  20.466   2.136   8.030  0.0048 -0.0963 -0.1913
  403BOLB   C2D 9670  20.203   1.949   8.399 -0.2059 -0.1170 -0.3055
  403BOLB   C3D 9671  19.932   2.160   8.643  0.4178  0.0436  0.0847
  403BOLB   C4D 9672  19.649   2.566   8.435 -0.2010 -0.0847 -0.4126
  404BOLB   NC1 9673  21.611   6.236  11.094 -0.1822 -0.4532  0.0205
  404BOLB   PO1 9674  21.401   5.799  11.160 -0.1534 -0.2961  0.0970
  404BOLB   GL1 9675  21.714   5.607  10.914  0.3988 -0.0222  0.0864
  404BOLB   GL2 9676  21.912   5.863  10.886 -0.0824  0.1730  0.1519
  404BOLB   C1A 9677  21.979   5.432  10.565 -0.2402  0.0415 -0.0942
  404BOLB   C2A 9678  22.203   5.470  10.190  0.4392  0.3806  0.0748
  404BOLB   C3A 9679  22.428   5.448   9.856 -0.0996 -0.2759 -0.2641
  404BOLB   C4A 9680  22.792   5.278   9.716 -0.1046 -0.3441  0.2311
  404BOLB   C1B 9681  22.236   5.875  10.660  0.1633  0.0641 -0.2929
  404BOLB   C2B 9682  22.631   5.888  10.758 -0.0872 -0.0827  0.2243
  404BOLB   C3B 9683  23.004   5.878  10.552  0.0061  0.0434 -0.0471
  404BOLB   C4B 9684  23.346   5.754  10.207 -0.3155  0.0189  0.0223
  404BOLB   NC2 9685  24.887   5.094   8.911  0.2153 -0.0791  0.0529
  404BOLB   PO2 9686  25.054   5.050   9.284  0.1663 -0.0885  0.0464
  404BOLB   GL3 9687  24.843   5.227   9.578  0.0460  0.4037  0.3014
  404BOLB   GL4 9688  24.967   5.517   9.679  0.0303 -0.0888  0.0218
  404BOLB   C1C 9689  24.382   5.271   9.748  0.0687 -0.2831 -0.1714
  404BOLB   C2C 9690  24.051   5.480   9.568 -0.0440 -0.0262  0.0035
  404BOLB   C3C 9691  23.626   5.561   9.760 -0.0076 -0.1631 -0.2344
  404BOLB   C4C 9692  23.262   5.389   9.784  0.2426  0.0051 -0.3491
  404BOLB   C1D 9693  24.756   5.565  10.014 -0.0977 -0.1195  0.2132
  404BOLB   C2D 9694  24.502   5.404  10.185  0.2140 -0.0256 -0.0261
  404BOLB   C3D 9695  23.978   5.443  10.058 -0.0023  0.2302  0.1043
  404BOLB   C4D 9696  23.597   5.291  10.178 -0.2017  0.1380  0.0022
  405BOLB   NC1 9697  18.361   6.439  21.872 -0.1610  0.0761  0.1149
  405BOLB   PO1 9698  18.348   6.442  22.310  0.1292 -0.4169  0.1568
  405BOLB   GL1 9699  18.397   6.580  22.766 -0.5156  0.2320 -0.2197
  405BOLB   GL2 9700  18.127   6.729  23.027 -0.2731 -0.0289 -0.1627
  405BOLB   C1A 9701  18.576   6.492  23.170  0.6327  0.1260 -0.0975
  405BOLB   C2A 9702  18.673   6.302  23.537 -0.0249  0.0969  0.4554
  405BOLB   C3A 9703  18.707   6.337  23.891  0.1967  0.0848 -0.0170
  405BOLB   C4A 9704  18.865   6.474  24.297  0.0165  0.1065 -0.2298
  405BOLB   C1B 9705  18.151   6.513  23.410  0.0163  0.0641 -0.2080
  405BOLB   C2B 9706  18.110   6.127  23.704 -0.2014 -0.0012  0.1933
  405BOLB   C3B 9707  18.018   5.986  24.096 -0.2149  0.2274 -0.0576
  405BOLB   C4B 9708  17.884   5.829  24.502 -0.0760  0.0053 -0.1517
  405BOLB   NC2 9709  19.781   6.228  26.251  0.2912 -0.0735 -0.0236
  405BOLB   PO2 9710  19.916   6.174  25.891  0.1212 -0.1083 -0.0622
  405BOLB   GL3 9711  19.870   6.576  25.736  0.0561 -0.0794 -0.0116
  405BOLB   GL4 9712  19.527   6.614  25.848  0.3167  0.1413  0.2368
  405BOLB   C1C 9713  19.985   6.663  25.379 -0.1930  0.1820  0.1138
  405BOLB   C2C 9714  19.891   6.728  24.992  0.1175 -0.1910  0.1321
  405BOLB   C3C 9715  19.578   6.328  24.857 -0.0136  0.0699 -0.2047
  405BOLB   C4C 9716  19.199   6.362  24.679  0.4224  0.3537 -0.0670
  405BOLB   C1D 9717  19.356   6.606  25.378 -0.2149 -0.3775 -0.0415
  405BOLB   C2D 9718  19.338   6.766  24.948 -0.0582  0.1540  0.0053
  405BOLB   C3D 9719  19.170   7.150  24.737 -0.1307  0.0034 -0.0821
  405BOLB   C4D 9720  18.863   7.473  24.732 -0.2396 -0.1935  0.1729
  406BOLB   NC1 9721  23.571  14.345  14.843 -0.0204 -0.2124  0.2243
  406BOLB   PO1 9722  23.572  14.369  14.202  0.2693 -0.4247 -0.1015
  406BOLB   GL1 9723  23.890  14.546  14.310  0.2889  0.0342  0.1442
  406BOLB   GL2 9724  24.003  14.531  14.610 -0.1126 -0.1201 -0.2478
  406BOLB   C1A 9725  24.155  14.886  14.228 -0.2653  0.0522 -0.1476
  406BOLB   C2A 9726  24.215  15.002  13.781  0.0950  0.1676  0.2192
  406BOLB   C3A 9727  24.564  14.889  13.412 -0.1323  0.0835 -0.2336
  406BOLB   C4A 9728  24.883  14.641  13.391  0.1935 -0.1545 -0.1734
  406BOLB   C1B 9729  24.380  14.442  14.322  0.2408  0.2408 -0.1286
  406BOLB   C2B 9730  24.665  14.167  14.069  0.0607 -0.2381 -0.0099
  406BOLB   C3B 9731  25.103  14.026  14.114  0.3226 -0.2065 -0.1249
  406BOLB   C4B 9732  25.467  13.782  13.983  0.0773  0.0309 -0.1215
  406BOLB   NC2 9733  27.145  15.607  12.114  0.1888  0.0297  0.0962
  406BOLB   PO2 9734  26.706  15.630  12.306  0.0075  0.1864 -0.3456
  406BOLB   GL3 9735  26.494  15.281  12.095  0.0184 -0.0557 -0.1166
  406BOLB   GL4 9736  26.382  15.321  11.892  0.1680 -0.2723  0.0875
  406BOLB   C1C 9737  26.287  14.985  12.250 -0.2197  0.0332 -0.0792
  406BOLB   C2C 9738  26.013  14.743  12.482 -0.0080  0.2185  0.1034
  406BOLB   C3C 9739  25.644  14.871  12.684 -0.1344  0.1222 -0.3782
  406BOLB   C4C 9740  25.309  14.705  13.107 -0.0794  0.2494 -0.0496
  406BOLB   C1D 9741  26.004  15.449  11.932  0.1454 -0.1125  0.0149
  406BOLB   C2D 9742  25.623  15.307  12.014  0.2722 -0.1058 -0.1084
  406BOLB   C3D 9743  25.437  15.009  12.224 -0.3168 -0.2307  0.0660
  406BOLB   C4D 9744  25.039  14.839  12.015  0.1476 -0.0372  0.1746
  407BOLB   NC1 9745   7.697  32.971  12.623 -0.0412  0.0017  0.0888
  407BOLB   PO1 9746   7.917  33.159  12.269 -0.2529 -0.1473 -0.0240
  407BOLB   GL1 9747   8.311  33.343  12.424  0.1514 -0.0899  0.1194
  407BOLB   GL2 9748   8.561  33.133  12.350  0.3495  0.2176  0.1918
  407BOLB   C1A 9749   8.653  33.643  12.230  0.2859 -0.0602  0.1278
  407BOLB   C2A 9750   8.542  34.010  12.321 -0.3393  0.1958  0.1785
  407BOLB   C3A 9751   8.807  34.291  12.530 -0.2289  0.0390 -0.0874
  407BOLB   C4A 9752   8.920  34.266  13.037 -0.0663  0.1848  0.2415
  407BOLB   C1B 9753   8.788  33.360  12.591 -0.0138  0.0203 -0.0520
  407BOLB   C2B 9754   9.210  33.297  12.725  0.1823  0.0963 -0.1749
  407BOLB   C3B 9755   9.496  33.641  12.816 -0.0136 -0.2842  0.2037
  407BOLB   C4B 9756   9.648  33.902  13.136  0.3189 -0.0450  0.0417
  407BOLB   NC2 9757   9.863  31.733  13.895  0.0922 -0.1297 -0.0181
  407BOLB   PO2 9758   9.628  32.043  13.850  0.0808 -0.2385 -0.0457
  407BOLB   GL3 9759   9.627  32.455  13.918  0.2477 -0.0146 -0.0087
  407BOLB   GL4 9760   9.803  32.514  14.159  0.1717 -0.2972 -0.2543
  407BOLB   C1C 9761   9.374  32.860  13.789  0.1829  0.1325 -0.2716
  407BOLB   C2C 9762   9.461  33.119  13.513 -0.1354  0.1670 -0.4855
  407BOLB   C3C 9763   9.305  33.432  13.235 -0.1195  0.3617  0.3105
  407BOLB   C4C 9764   9.091  33.859  13.236  0.5184 -0.0554  0.0313
  407BOLB   C1D 9765  10.156  32.764  14.357  0.2723 -0.1180  0.0066
  407BOLB   C2D 9766  10.348  33.194  14.306  0.0497 -0.0874  0.0182
  407BOLB   C3D 9767  10.204  33.558  14.248  0.1849  0.1517 -0.1733
  407BOLB   C4D 9768  10.218  33.617  13.913  0.0533  0.2622 -0.1353
  408BOLB   NC1 9769  19.191  16.122  10.405  0.1013 -0.0347  0.0147
  408BOLB   PO1 9770  19.456  15.999  10.311  0.0231 -0.0226 -0.1735
  408BOLB   GL1 9771  19.667  16.364  10.301 -0.1336 -0.1652  0.0921
  408BOLB   GL2 9772  19.852  16.417  10.634 -0.0621 -0.1757 -0.1840
  408BOLB   C1A 9773  19.752  16.648  10.054  0.1597 -0.0258 -0.1674
  408BOLB   C2A 9774  20.218  16.799   9.927 -0.2242 -0.0041 -0.0530
  408BOLB   C3A 9775  20.359  17.115   9.726 -0.1640  0.2733 -0.0910
  408BOLB   C4A 9776  20.454  17.488   9.881 -0.2574  0.6235  0.2393
  408BOLB   C1B 9777  20.041  16.874  10.448 -0.3155 -0.3553  0.0165
  408BOLB   C2B 9778  20.190  17.241  10.208  0.1639  0.0062 -0.4126
  408BOLB   C3B 9779  19.984  17.423   9.902 -0.0669  0.1188 -0.0707
  408BOLB   C4B 9780  20.047  17.799   9.646 -0.1331  0.2954  0.1166
  408BOLB   NC2 9781  20.403  19.537   8.727 -0.2496  0.4333 -0.1526
  408BOLB   PO2 9782  20.076  19.371   8.910  0.0950  0.1009 -0.2992
  408BOLB   GL3 9783  20.049  18.927   8.839  0.1276  0.3577 -0.0866
  408BOLB   GL4 9784  20.040  18.768   8.522 -0.0072  0.2204  0.3413
  408BOLB   C1C 9785  20.307  18.688   9.187 -0.0684 -0.0608  0.0402
  408BOLB   C2C 9786  20.693  18.470   9.303  0.1673  0.1096  0.2058
  408BOLB   C3C 9787  20.713  18.112   9.480 -0.1351 -0.4981 -0.0068
  408BOLB   C4C 9788  20.514  17.835   9.707  0.0044 -0.0648 -0.5627
  408BOLB   C1D 9789  20.399  18.543   8.719  0.2226 -0.1515 -0.0802
  408BOLB   C2D 9790  20.498  18.208   8.953 -0.1515 -0.2815  0.1264
  408BOLB   C3D 9791  20.430  17.818   9.091 -0.2227  0.1039  0.1660
  408BOLB   C4D 9792  20.336  17.472   9.281  0.0773  0.1220  0.1751
  409BOLB   NC1 9793  17.421   6.452  22.392 -0.0404  0.1302  0.2306
  409BOLB   PO1 9794  17.320   5.914  22.371  0.0364 -0.1082 -0.0547
  409BOLB   GL1 9795  17.263   5.623  22.546  0.3065  0.0951  0.1639
  409BOLB   GL2 9796  16.944   5.583  22.559  0.0850  0.0646  0.1751
  409BOLB   C1A 9797  17.275   5.227  22.792  0.1064  0.2534  0.1958
  409BOLB   C2A 9798  17.506   5.083  23.170 -0.0555  0.1705  0.1082
  409BOLB   C3A 9799  17.450   4.904  23.557  0.1128  0.2293  0.2968
  409BOLB   C4A 9800  17.310   4.674  24.015  0.0342  0.1180 -0.0998
  409BOLB   C1B 9801  17.276   5.700  23.025 -0.0733  0.6184 -0.0554
  409BOLB   C2B 9802  17.434   5.512  23.398 -0.2595 -0.0404  0.0409
  409BOLB   C3B 9803  17.276   5.474  23.810 -0.2633 -0.0823 -0.3245
  409BOLB   C4B 9804  17.430   5.155  23.978  0.3576  0.2359 -0.4610
  409BOLB   NC2 9805  19.109   3.822  25.379  0.4210 -0.1143 -0.3232
  409BOLB   PO2 9806  18.759   3.560  25.326 -0.0731 -0.1143  0.4222
  409BOLB   GL3 9807  18.402   3.704  25.142 -0.3372 -0.0149  0.0756
  409BOLB   GL4 9808  18.420   3.513  24.890 -0.0675  0.2058 -0.0980
  409BOLB   C1C 9809  18.087   3.837  24.853 -0.2882 -0.1898 -0.3890
  409BOLB   C2C 9810  17.904   4.225  24.816  0.1076  0.2176  0.1492
  409BOLB   C3C 9811  17.804   4.564  24.680 -0.1987 -0.1721  0.0710
  409BOLB   C4C 9812  17.674   4.700  24.361 -0.0064  0.2188 -0.3332
  409BOLB   C1D 9813  18.497   3.925  24.639 -0.2948  0.0324 -0.2158
  409BOLB   C2D 9814  18.358   4.286  24.459  0.1931 -0.3053  0.5448
  409BOLB   C3D 9815  18.186   4.704  24.220 -0.1613 -0.2206 -0.0765
  409BOLB   C4D 9816  18.071   5.044  23.941 -0.0569 -0.1764 -0.0056
  410BOLB   NC1 9817  21.648   9.723  10.191  0.1812 -0.0003  0.1267
  410BOLB   PO1 9818  21.744   9.377  10.106  0.0628 -0.2894  0.2254
  410BOLB   GL1 9819  22.129   9.637   9.970  0.3019 -0.2560  0.1233
  410BOLB   GL2 9820  22.395   9.724   9.874 -0.1765 -0.1943 -0.1288
  410BOLB   C1A 9821  21.969   9.871   9.651 -0.1124  0.0496 -0.1370
  410BOLB   C2A 9822  22.212  10.068   9.299 -0.1227 -0.1333  0.2055
  410BOLB   C3A 9823  22.391  10.021   8.893  0.1693 -0.0957  0.2165
  410BOLB   C4A 9824  22.507   9.865   8.438 -0.2212 -0.0361 -0.0563
  410BOLB   C1B 9825  22.545   9.983   9.630 -0.2911 -0.1145  0.1020
  410BOLB   C2B 9826  22.752  10.154   9.289 -0.0524  0.0240 -0.2395
  410BOLB   C3B 9827  22.689  10.431   9.005  0.3500 -0.2111 -0.0045
  410BOLB   C4B 9828  23.039  10.631   8.745  0.1582 -0.1497 -0.0980
  410BOLB   NC2 9829  22.669  10.333   6.102  0.2866 -0.2205  0.1529
  410BOLB   PO2 9830  23.169  10.360   6.219  0.3574 -0.1527  0.0076
  410BOLB   GL3 9831  23.112  10.290   6.610  0.1040  0.2137  0.2447
  410BOLB   GL4 9832  23.096   9.922   6.699  0.5498 -0.1594 -0.1197
  410BOLB   C1C 9833  23.038  10.171   7.150 -0.2587 -0.1815  0.0231
  410BOLB   C2C 9834  22.721  10.067   7.396 -0.1575  0.0807 -0.0605
  410BOLB   C3C 9835  22.336   9.959   7.585  0.0645 -0.2099 -0.2106
  410BOLB   C4C 9836  22.293   9.918   8.013 -0.0007  0.4351  0.0731
  410BOLB   C1D 9837  22.692  10.114   6.830  0.0812 -0.2961  0.1495
  410BOLB   C2D 9838  22.178  10.093   7.156 -0.1943 -0.1488 -0.1224
  410BOLB   C3D 9839  21.858  10.024   7.528  0.2588 -0.1161  0.3827
  410BOLB   C4D 9840  21.432   9.881   7.650 -0.0876  0.2113 -0.1058
  411BOLB   NC1 9841  25.790  16.608  10.974 -0.4525 -0.0483  0.2045
  411BOLB   PO1 9842  25.895  16.765  11.468 -0.0358 -0.2573  0.1306
  411BOLB   GL1 9843  25.545  16.615  11.609 -0.0126  0.0080 -0.3084
  411BOLB   GL2 9844  25.551  16.244  11.637 -0.0414  0.0001 -0.1118
  411BOLB   C1A 9845  25.140  16.451  11.718 -0.0781 -0.0623 -0.2737
  411BOLB   C2A 9846  24.932  16.065  11.900 -0.0995  0.4019 -0.0048
  411BOLB   C3A 9847  24.642  15.794  11.850 -0.2122 -0.1236  0.1266
  411BOLB   C4A 9848  24.571  15.667  12.247  0.2905  0.0090 -0.1659
  411BOLB   C1B 9849  25.452  15.806  11.799 -0.0937 -0.1023 -0.0478
  411BOLB   C2B 9850  25.193  15.657  12.083  0.1979  0.0694  0.1002
  411BOLB   C3B 9851  24.985  15.787  12.490  0.2979 -0.3015  0.0421
  411BOLB   C4B 9852  24.816  15.448  12.766 -0.2701 -0.0524  0.3476
  411BOLB   NC2 9853  22.804  15.535  14.204 -0.2956 -0.2627  0.1297
  411BOLB   PO2 9854  22.870  15.094  14.024 -0.1640 -0.1788 -0.1536
  411BOLB   GL3 9855  23.288  15.351  13.781  0.2881 -0.0163  0.0504
  411BOLB   GL4 9856  23.229  15.574  13.968 -0.0668  0.0441  0.0737
  411BOLB   C1C 9857  23.497  15.478  13.438  0.0061  0.0869 -0.3208
  411BOLB   C2C 9858  23.893  15.574  13.277  0.1827 -0.2480 -0.0628
  411BOLB   C3C 9859  24.094  15.666  12.944 -0.2400 -0.2454  0.1270
  411BOLB   C4C 9860  24.512  15.759  12.723 -0.0530  0.2500  0.3952
  411BOLB   C1D 9861  23.402  15.950  13.830  0.0147  0.2171 -0.1367
  411BOLB   C2D 9862  23.729  16.019  13.647  0.0720  0.0867 -0.1783
  411BOLB   C3D 9863  24.066  16.370  13.597  0.3357  0.1280  0.1252
  411BOLB   C4D 9864  24.260  16.604  13.680 -0.2319  0.3374  0.2170
  412BOLB   NC1 9865  21.843   4.156  16.878  0.1824  0.1296 -0.1800
  412BOLB   PO1 9866  22.282   4.342  16.767 -0.0758 -0.1101  0.0817
  412BOLB   GL1 9867  22.576   4.117  16.668 -0.1881  0.2534  0.1022
  412BOLB   GL2 9868  22.774   4.390  16.579 -0.3345  0.0958  0.2295
  412BOLB   C1A 9869  22.873   3.689  16.663  0.4267 -0.0957 -0.3830
  412BOLB   C2A 9870  22.984   3.281  16.883  0.0901 -0.1456  0.2108
  412BOLB   C3A 9871  23.083   2.899  17.149 -0.4153 -0.1227  0.2061
  412BOLB   C4A 9872  23.198   2.556  17.489 -0.1423 -0.2973  0.0623
  412BOLB   C1B 9873  23.196   4.317  16.390 -0.1211  0.2960 -0.1121
  412BOLB   C2B 9874  23.619   4.367  16.507 -0.0440 -0.0194  0.0174
  412BOLB   C3B 9875  23.851   4.041  16.700 -0.0484  0.0905  0.2196
  412BOLB   C4B 9876  23.880   3.685  16.835 -0.1117  0.1454 -0.3057
  412BOLB   NC2 9877  24.173   0.666  18.552  0.1438  0.0468 -0.0273
  412BOLB   PO2 9878  24.608   0.731  18.396 -0.0756 -0.0078  0.0469
  412BOLB   GL3 9879  24.388   0.982  18.189  0.0715 -0.1035 -0.0737
  412BOLB   GL4 9880  24.243   0.991  17.868 -0.1268  0.0234 -0.2211
  412BOLB   C1C 9881  24.193   1.366  18.207  0.3167  0.0519  0.6436
  412BOLB   C2C 9882  24.005   1.718  17.982  0.0319 -0.0787  0.0966
  412BOLB   C3C 9883  23.810   2.002  17.793 -0.1955 -0.0227  0.0584
  412BOLB   C4C 9884  23.531   2.315  17.574  0.1929 -0.0827  0.1449
  412BOLB   C1D 9885  24.041   1.384  17.618  0.1159 -0.2456  0.0794
  412BOLB   C2D 9886  23.786   1.591  17.455 -0.2059  0.1337 -0.2366
  412BOLB   C3D 9887  23.468   1.868  17.280 -0.0938  0.0055 -0.0082
  412BOLB   C4D 9888  23.311   2.224  17.125  0.0399  0.0632 -0.2737
  413BOLB   NC1 9889  22.498  15.922   7.089  0.1098  0.0031  0.1837
  413BOLB   PO1 9890  22.177  15.738   7.185  0.1836  0.0546 -0.0450
  413BOLB   GL1 9891  22.039  16.089   7.466 -0.1562  0.0390  0.0748
  413BOLB   GL2 9892  22.394  15.967   7.666 -0.0343 -0.2181  0.2529
  413BOLB   C1A 9893  21.903  16.053   7.916  0.0976  0.1706 -0.1059
  413BOLB   C2A 9894  21.650  16.077   8.213  0.0765 -0.0944 -0.1101
  413BOLB   C3A 9895  21.473  16.101   8.737  0.1918  0.0546  0.2638
  413BOLB   C4A 9896  21.764  15.899   9.108  0.1580  0.0565 -0.1825
  413BOLB   C1B 9897  22.270  15.658   7.830  0.0237 -0.1783  0.1692
  413BOLB   C2B 9898  22.064  15.227   7.621  0.2401 -0.1039 -0.0946
  413BOLB   C3B 9899  21.706  14.993   7.775 -0.2357  0.0749  0.4821
  413BOLB   C4B 9900  21.699  14.639   8.020  0.1204  0.2738 -0.0556
  413BOLB   NC2 9901  20.965  14.776  11.355 -0.1297  0.1690  0.0911
  413BOLB   PO2 9902  20.673  15.091  11.110  0.0440  0.1187 -0.2395
  413BOLB   GL3 9903  20.765  15.366  10.893  0.0098 -0.1289  0.0718
  413BOLB   GL4 9904  20.511  15.513  10.857  0.0623  0.1499  0.1891
  413BOLB   C1C 9905  20.981  15.334  10.501 -0.2759  0.0040 -0.1820
  413BOLB   C2C 9906  21.204  15.394  10.187  0.0907 -0.0868 -0.0524
  413BOLB   C3C 9907  21.502  15.435   9.822  0.1778  0.0461 -0.0142
  413BOLB   C4C 9908  21.646  15.625   9.476  0.2653  0.1469 -0.1210
  413BOLB   C1D 9909  20.670  15.826  10.596  0.0066  0.0916  0.2929
  413BOLB   C2D 9910  20.879  16.093  10.202 -0.0677 -0.1285 -0.2031
  413BOLB   C3D 9911  20.947  16.568  10.159  0.3202  0.1747 -0.1753
  413BOLB   C4D 9912  20.864  16.812   9.898  0.3194 -0.0299  0.0423
  414BOLB   NC1 9913  14.360   1.585  18.174  0.1105  0.1649 -0.1811
  414BOLB   PO1 9914  14.119   1.799  17.781 -0.1207 -0.0225  0.0535
  414BOLB   GL1 9915  13.960   1.418  17.853  0.0682 -0.1154  0.0242
  414BOLB   GL2 9916  13.968   1.280  18.120  0.1237  0.0840  0.1152
  414BOLB   C1A 9917  14.059   0.976  17.669 -0.1114 -0.0686 -0.2188
  414BOLB   C2A 9918  13.931   0.490  17.675  0.1532  0.1118 -0.1547
  414BOLB   C3A 9919  13.717   0.294  17.955  0.2667 -0.0441 -0.1119
  414BOLB   C4A 9920  13.331   0.039  17.744  0.0862 -0.2333 -0.1206
  414BOLB   C1B 9921  13.927   0.854  18.122 -0.3646 -0.0106  0.0408
  414BOLB   C2B 9922  13.760   0.552  18.417  0.2901  0.0118 -0.2501
  414BOLB   C3B 9923  13.478   0.433  18.731 -0.2995 -0.0301 -0.2531
  414BOLB   C4B 9924  13.271   0.155  18.981 -0.2189 -0.1161 -0.1226
  414BOLB   NC2 9925  13.156  -2.297  17.531  0.0070 -0.1170  0.1250
  414BOLB   PO2 9926  13.405  -2.472  17.811  0.0053  0.0217  0.2253
  414BOLB   GL3 9927  13.331  -1.937  17.817  0.0419  0.2861  0.3367
  414BOLB   GL4 9928  13.457  -1.736  18.052  0.0214  0.1077  0.1423
  414BOLB   C1C 9929  13.232  -1.606  17.637  0.3334 -0.0966 -0.2682
  414BOLB   C2C 9930  13.038  -1.167  17.468  0.0430  0.0857  0.2327
  414BOLB   C3C 9931  13.150  -0.720  17.250  0.0308  0.0205  0.1720
  414BOLB   C4C 9932  13.212  -0.284  17.440  0.0561  0.2017  0.1585
  414BOLB   C1D 9933  13.605  -1.309  17.927 -0.0946  0.3234  0.0248
  414BOLB   C2D 9934  13.501  -1.008  17.446  0.0528  0.1041  0.3463
  414BOLB   C3D 9935  13.568  -1.067  16.948 -0.0553  0.3051 -0.0531
  414BOLB   C4D 9936  14.031  -1.040  16.853 -0.1033  0.0458  0.0630
  415BOLB   NC1 9937   8.385  11.214  17.029 -0.0410 -0.1456  0.0137
  415BOLB   PO1 9938   8.272  11.457  16.605 -0.2493  0.2429 -0.0666
  415BOLB   GL1 9939   7.951  11.196  16.738 -0.1269  0.0847  0.2968
  415BOLB   GL2 9940   7.897  10.912  16.579 -0.0582 -0.0770  0.3012
  415BOLB   C1A 9941   7.614  11.269  16.883 -0.1399 -0.2324  0.0488
  415BOLB   C2A 9942   7.257  11.355  16.821  0.3542 -0.1765 -0.2306
  415BOLB   C3A 9943   6.799  11.450  16.706  0.4652 -0.1557  0.0083
  415BOLB   C4A 9944   6.378  11.452  16.347  0.0032 -0.2654  0.0692
  415BOLB   C1B 9945   7.866  11.091  16.164  0.0305  0.1314 -0.1186
  415BOLB   C2B 9946   7.629  11.287  15.967  0.0981  0.0412  0.1413
  415BOLB   C3B 9947   7.432  11.719  15.906  0.0955 -0.1515 -0.2414
  415BOLB   C4B 9948   7.098  11.771  16.238 -0.0391  0.1852  0.0087
  415BOLB   NC2 9949   4.179  12.800  16.465  0.0535 -0.3056 -0.0619
  415BOLB   PO2 9950   4.427  12.526  16.659  0.2589 -0.2454 -0.0371
  415BOLB   GL3 9951   4.776  12.405  16.556  0.2942 -0.2767  0.1492
  415BOLB   GL4 9952   4.919  12.077  16.628  0.1198 -0.1009 -0.0112
  415BOLB   C1C 9953   5.082  12.282  16.192  0.2064  0.4414 -0.0309
  415BOLB   C2C 9954   5.344  11.984  16.131 -0.0715  0.4059 -0.0610
  415BOLB   C3C 9955   5.670  11.655  16.232 -0.1561  0.2382 -0.2224
  415BOLB   C4C 9956   5.989  11.302  16.407 -0.1239  0.0033  0.1644
  415BOLB   C1D 9957   5.313  12.223  16.709  0.1477  0.2916  0.1783
  415BOLB   C2D 9958   5.762  11.994  16.593  0.2035 -0.0523  0.2540
  415BOLB   C3D 9959   6.139  11.872  16.337 -0.0400 -0.2444 -0.1906
  415BOLB   C4D 9960   6.602  11.858  16.131  0.1157  0.1717 -0.1040
  416BOLB   NC1 9961  11.047  13.579  21.386 -0.0943  0.1868  0.0552
  416BOLB   PO1 9962  11.421  13.317  21.626 -0.1032 -0.1957 -0.1346
  416BOLB   GL1 9963  11.187  13.548  21.932  0.4048  0.0442  0.3025
  416BOLB   GL2 9964  11.328  13.672  22.121 -0.2411  0.1120  0.0206
  416BOLB   C1A 9965  10.768  13.621  22.253 -0.4931 -0.1313  0.1464
  416BOLB   C2A 9966  10.445  13.649  22.607 -0.1469 -0.2895  0.0279
  416BOLB   C3A 9967  10.043  13.672  22.757  0.1277 -0.1859  0.1927
  416BOLB   C4A 9968   9.594  13.726  22.828 -0.2435  0.1035 -0.0742
  416BOLB   C1B 9969  11.187  14.056  22.210  0.1219  0.3275 -0.0698
  416BOLB   C2B 9970  11.017  14.419  22.511 -0.0711  0.0916 -0.2312
  416BOLB   C3B 9971  10.646  14.502  22.656 -0.1534  0.2013  0.1722
  416BOLB   C4B 9972  10.177  14.697  22.526  0.0628  0.2786  0.0707
  416BOLB   NC2 9973   7.569  13.579  23.303 -0.0200 -0.0180 -0.1062
  416BOLB   PO2 9974   7.566  13.462  22.946 -0.0343  0.0993 -0.1406
  416BOLB   GL3 9975   7.977  13.637  22.925  0.2440  0.0091 -0.2228
  416BOLB   GL4 9976   8.199  13.546  23.107  0.0862 -0.1904  0.4365
  416BOLB   C1C 9977   8.268  13.336  22.583 -0.0693 -0.0653 -0.1696
  416BOLB   C2C 9978   8.654  13.160  22.540 -0.0015  0.0990 -0.0753
  416BOLB   C3C 9979   9.079  13.158  22.733 -0.2960  0.1037  0.1152
  416BOLB   C4C 9980   9.378  13.435  22.813 -0.0175  0.1485  0.0163
  416BOLB   C1D 9981   8.554  13.326  23.041  0.0290  0.1241  0.0471
  416BOLB   C2D 9982   8.820  12.971  23.266 -0.2349 -0.0531 -0.0491
  416BOLB   C3D 9983   8.856  12.539  23.127  0.0717 -0.1856 -0.4719
  416BOLB   C4D 9984   8.947  12.223  22.761 -0.2392 -0.1394  0.0042
  417BOLB   NC1 9985  20.638   6.185  10.776  0.1967  0.2097  0.0736
  417BOLB   PO1 9986  20.904   5.788  10.598  0.1901 -0.0038 -0.1514
  417BOLB   GL1 9987  21.078   5.626  10.291 -0.0775  0.0229 -0.0406
  417BOLB   GL2 9988  21.407   5.460  10.386  0.4484 -0.2927  0.5833
  417BOLB   C1A 9989  21.135   5.390   9.906 -0.1312 -0.4496 -0.3035
  417BOLB   C2A 9990  21.177   5.154   9.509  0.0105 -0.1580  0.2524
  417BOLB   C3A 9991  21.277   5.243   9.096  0.2906 -0.4862  0.0632
  417BOLB   C4A 9992  21.339   5.136   8.591  0.0985 -0.0784 -0.1767
  417BOLB   C1B 9993  21.647   5.399  10.171 -0.1046  0.0701 -0.0701
  417BOLB   C2B 9994  21.931   5.189   9.842  0.0229 -0.0977  0.0325
  417BOLB   C3B 9995  22.126   5.211   9.518 -0.2348  0.2522 -0.0649
  417BOLB   C4B 9996  22.434   5.013   9.481  0.2819 -0.0213 -0.1051
  417BOLB   NC2 9997  22.062   4.113   6.440 -0.1802  0.1785 -0.0613
  417BOLB   PO2 9998  21.859   4.307   6.101 -0.2002  0.1370 -0.1045
  417BOLB   GL3 9999  21.637   4.425   6.566 -0.1763  0.1589 -0.0934
  417BOLB   GL410000  21.836   4.615   6.812 -0.0752  0.3044 -0.1843
  417BOLB   C1C10001  21.390   4.821   6.733  0.0914 -0.3621  0.2999
  417BOLB   C2C10002  21.472   4.835   7.196  0.0791 -0.0368  0.0426
  417BOLB   C3C10003  21.469   4.977   7.656  0.4267  0.0533  0.1006
  417BOLB   C4C10004  21.404   5.060   8.137  0.0166 -0.1003  0.0029
  417BOLB   C1D10005  21.755   4.392   7.212 -0.0172  0.0158 -0.2044
  417BOLB   C2D10006  21.381   4.443   7.445 -0.1804 -0.1440 -0.0317
  417BOLB   C3D10007  20.977   4.717   7.554 -0.2561  0.1876 -0.1248
  417BOLB   C4D10008  20.996   5.015   7.857 -0.2482 -0.1005 -0.1253
  418BOLB   NC110009  18.066  14.646   9.110 -0.3818 -0.2771 -0.1507
  418BOLB   PO110010  17.565  14.729   8.957  0.0760 -0.0931 -0.2304
  418BOLB   GL110011  17.536  14.854   8.584 -0.0162 -0.0486 -0.0630
  418BOLB   GL210012  17.337  15.118   8.531 -0.1853  0.0540 -0.1883
  418BOLB   C1A10013  17.393  14.788   8.095 -0.3132  0.2153  0.0430
  418BOLB   C2A10014  17.374  15.021   7.717  0.1308 -0.0126 -0.0734
  418BOLB   C3A10015  17.409  15.479   7.458 -0.3818  0.2039 -0.0818
  418BOLB   C4A10016  17.258  15.531   7.018 -0.3146  0.2125 -0.3411
  418BOLB   C1B10017  17.592  15.521   8.597 -0.2073 -0.1469  0.1178
  418BOLB   C2B10018  17.639  16.008   8.450  0.2073 -0.3878  0.0235
  418BOLB   C3B10019  17.903  16.527   8.396  0.2670  0.1107  0.0983
  418BOLB   C4B10020  18.275  16.576   8.455  0.0514 -0.0162  0.1617
  418BOLB   NC210021  16.082  16.906   5.244  0.0297 -0.2438 -0.0192
  418BOLB   PO210022  16.281  16.723   5.409 -0.0012  0.2814  0.1016
  418BOLB   GL310023  16.314  16.451   5.709  0.2006  0.0358 -0.1891
  418BOLB   GL410024  16.125  16.306   5.744  0.0444 -0.1890  0.0727
  418BOLB   C1C10025  16.624  16.162   5.852  0.0179 -0.0528  0.0086
  418BOLB   C2C10026  16.814  15.900   6.083 -0.0612  0.1838  0.0042
  418BOLB   C3C10027  16.894  15.588   6.384 -0.0879  0.2686  0.1364
  418BOLB   C4C10028  17.205  15.509   6.605 -0.0238  0.3538 -0.0278
  418BOLB   C1D10029  16.195  15.941   5.943  0.0382  0.0940  0.2981
  418BOLB   C2D10030  16.096  15.948   6.391  0.2647  0.2257 -0.0424
  418BOLB   C3D10031  16.250  16.069   6.765  0.0160  0.2741  0.0096
  418BOLB   C4D10032  16.555  16.318   6.887 -0.1313 -0.0477  0.2780
  419BOLB   NC110033  15.833  15.762  22.111  0.1129 -0.2757 -0.0172
  419BOLB   PO110034  15.418  15.695  22.084 -0.2745  0.1094 -0.0050
  419BOLB   GL110035  15.496  16.145  22.247 -0.1742 -0.0633  0.0372
  419BOLB   GL210036  15.776  16.230  22.376  0.3126 -0.1273 -0.0301
  419BOLB   C1A10037  15.219  16.354  22.585  0.0815 -0.1081  0.1378
  419BOLB   C2A10038  14.932  16.668  22.919 -0.1345  0.2268  0.0663
  419BOLB   C3A10039  14.823  16.714  23.444  0.2819  0.0999  0.2472
  419BOLB   C4A10040  14.698  16.859  23.861  0.2700 -0.1443 -0.0837
  419BOLB   C1B10041  15.728  16.487  22.657 -0.1834 -0.1142 -0.0005
  419BOLB   C2B10042  15.976  16.611  23.028  0.0198  0.1423 -0.1921
  419BOLB   C3B10043  15.907  16.640  23.565 -0.0042 -0.1457 -0.0097
  419BOLB   C4B10044  15.574  16.482  23.977 -0.0728 -0.5692 -0.0803
  419BOLB   NC210045  14.008  17.996  26.018  0.0727  0.0657 -0.3843
  419BOLB   PO210046  13.821  17.706  25.691  0.1981  0.3549 -0.3501
  419BOLB   GL310047  13.950  17.465  25.373  0.1186 -0.2140  0.2658
  419BOLB   GL410048  13.806  17.471  25.054 -0.0545  0.0175 -0.1340
  419BOLB   C1C10049  14.164  17.189  25.142 -0.1790 -0.0115  0.0657
  419BOLB   C2C10050  14.367  16.942  25.057 -0.0247 -0.0511  0.1760
  419BOLB   C3C10051  14.474  16.610  24.732 -0.1047 -0.0270 -0.1130
  419BOLB   C4C10052  14.466  16.687  24.268  0.1452  0.0309 -0.2272
  419BOLB   C1D10053  13.794  17.307  24.540 -0.3095  0.0155 -0.1009
  419BOLB   C2D10054  13.574  16.945  24.319 -0.0731 -0.2229  0.3309
  419BOLB   C3D10055  13.445  16.759  24.731 -0.0799  0.1661 -0.0985
  419BOLB   C4D10056  13.435  16.351  24.571 -0.1298  0.1685 -0.0049
  420BOLB   NC110057  15.147  11.593   7.512  0.1131  0.2412 -0.0452
  420BOLB   PO110058  14.712  11.821   7.771  0.0427 -0.1585 -0.0111
  420BOLB   GL110059  14.467  11.588   7.412 -0.0890  0.0374  0.1357
  420BOLB   GL210060  14.477  11.322   7.383  0.0673 -0.0686  0.0979
  420BOLB   C1A10061  14.289  11.795   6.988  0.1600 -0.0323  0.0717
  420BOLB   C2A10062  14.141  12.030   6.615  0.1719  0.0612 -0.2722
  420BOLB   C3A10063  14.340  12.358   6.445 -0.1458  0.0920 -0.2694
  420BOLB   C4A10064  14.562  12.786   6.324  0.0523  0.0614 -0.3907
  420BOLB   C1B10065  14.374  10.936   7.243  0.2558 -0.0142  0.0330
  420BOLB   C2B10066  14.012  10.577   7.422  0.6099  0.0158  0.0055
  420BOLB   C3B10067  13.565  10.618   7.281 -0.1165  0.3023 -0.0556
  420BOLB   C4B10068  13.138  10.899   7.196  0.4508 -0.0673 -0.1357
  420BOLB   NC210069  13.575  14.017   4.239  0.1374 -0.1671  0.0392
  420BOLB   PO210070  14.010  14.107   4.284  0.0342  0.3108 -0.0938
  420BOLB   GL310071  14.122  13.833   4.592 -0.0959 -0.0315 -0.2407
  420BOLB   GL410072  13.713  13.798   4.678  0.0587  0.0712  0.0936
  420BOLB   C1C10073  14.268  13.763   4.943  0.1095  0.0442 -0.0038
  420BOLB   C2C10074  14.311  13.608   5.301 -0.1074 -0.1659 -0.0392
  420BOLB   C3C10075  14.271  13.403   5.762  0.0824  0.1796  0.1835
  420BOLB   C4C10076  14.540  13.218   5.960 -0.0731  0.0582 -0.0559
  420BOLB   C1D10077  13.357  13.537   4.680  0.1866  0.0230  0.1835
  420BOLB   C2D10078  13.099  13.243   4.844 -0.0239  0.1667  0.0887
  420BOLB   C3D10079  13.030  13.157   5.240  0.1014 -0.2131 -0.1341
  420BOLB   C4D10080  13.166  12.848   5.657  0.3638 -0.2119 -0.0002
  421BOLB   NC110081  23.491  12.085  19.648 -0.1984 -0.0030  0.2582
  421BOLB   PO110082  23.376  11.653  19.530  0.0712 -0.3736  0.2194
  421BOLB   GL110083  23.805  11.737  19.805  0.2406 -0.1340 -0.0729
  421BOLB   GL210084  24.022  11.560  19.492 -0.4415  0.1843 -0.0026
  421BOLB   C1A10085  24.232  11.916  19.874 -0.1294 -0.2668 -0.2386
  421BOLB   C2A10086  24.633  12.093  20.077 -0.3818  0.2993  0.0061
  421BOLB   C3A10087  24.926  12.116  20.416 -0.0260  0.1582 -0.0595
  421BOLB   C4A10088  25.272  12.028  20.570  0.0098 -0.2323  0.2579
  421BOLB   C1B10089  24.483  11.772  19.429 -0.0201 -0.2862 -0.0316
  421BOLB   C2B10090  24.784  11.907  19.633 -0.1979 -0.0116  0.4296
  421BOLB   C3B10091  25.042  12.187  19.815  0.2823 -0.5420  0.0058
  421BOLB   C4B10092  25.423  12.457  19.678 -0.1468  0.0261  0.1331
  421BOLB   NC210093  27.422  13.817  20.931  0.0326  0.0325 -0.2905
  421BOLB   PO210094  27.260  13.424  21.049 -0.2498 -0.3817 -0.0675
  421BOLB   GL310095  26.812  13.277  20.864 -0.1082  0.2243 -0.1804
  421BOLB   GL410096  26.883  13.337  20.595 -0.2204 -0.1243  0.1794
  421BOLB   C1C10097  26.615  12.832  20.768  0.0432  0.1441  0.3456
  421BOLB   C2C10098  26.386  12.547  20.472 -0.0593  0.0367  0.0863
  421BOLB   C3C10099  26.058  12.379  20.491  0.0054 -0.0510 -0.2753
  421BOLB   C4C10100  25.675  12.266  20.620 -0.2238 -0.0848 -0.1751
  421BOLB   C1D10101  26.444  13.291  20.547  0.1309  0.1570 -0.1890
  421BOLB   C2D10102  26.169  13.056  20.572 -0.0817  0.0798 -0.1593
  421BOLB   C3D10103  26.206  12.953  20.939  0.2015  0.0709 -0.0051
  421BOLB   C4D10104  26.570  12.814  21.211 -0.2066 -0.1855  0.0468
  422BOLB   NC110105  22.675   7.313  19.363  0.2019 -0.2525  0.1189
  422BOLB   PO110106  22.613   7.135  19.763 -0.2731  0.1604 -0.0995
  422BOLB   GL110107  22.792   6.995  20.115  0.0447 -0.2091 -0.2267
  422BOLB   GL210108  22.719   7.163  20.407 -0.1182 -0.0845  0.0853
  422BOLB   C1A10109  23.091   6.760  20.345  0.0280 -0.1548 -0.4212
  422BOLB   C2A10110  23.390   6.555  20.475 -0.2555 -0.0624  0.1922
  422BOLB   C3A10111  23.536   6.268  20.886  0.2526 -0.1122 -0.0911
  422BOLB   C4A10112  23.870   6.290  21.072 -0.1534 -0.0322  0.1280
  422BOLB   C1B10113  23.153   7.250  20.556 -0.0536  0.2717  0.2706
  422BOLB   C2B10114  23.339   7.209  20.924 -0.2844 -0.2775  0.4235
  422BOLB   C3B10115  23.660   7.243  21.191  0.0781  0.0069  0.0793
  422BOLB   C4B10116  23.741   7.272  21.587 -0.1968 -0.2214 -0.0028
  422BOLB   NC210117  24.906   4.900  22.388 -0.0747 -0.2069 -0.0115
  422BOLB   PO210118  24.924   4.592  22.157 -0.0184  0.0826 -0.0890
  422BOLB   GL310119  24.525   4.689  22.081  0.0584  0.1645 -0.2329
  422BOLB   GL410120  24.532   4.931  22.064  0.2467  0.1347 -0.0549
  422BOLB   C1C10121  24.102   4.803  21.811  0.0958 -0.0861 -0.2109
  422BOLB   C2C10122  24.011   5.241  21.606 -0.0799 -0.0900 -0.4352
  422BOLB   C3C10123  24.067   5.656  21.638 -0.0114 -0.0456 -0.2058
  422BOLB   C4C10124  24.094   6.106  21.450 -0.0099 -0.0234 -0.1868
  422BOLB   C1D10125  24.501   5.315  21.877  0.0464 -0.2541  0.0444
  422BOLB   C2D10126  24.563   5.452  21.517  0.4445  0.0435 -0.0718
  422BOLB   C3D10127  24.377   5.753  21.266 -0.1606  0.0289 -0.1227
  422BOLB   C4D10128  24.165   5.998  20.911 -0.2443 -0.1184 -0.3541
  423BOLB   NC110129  24.447  10.633  13.455  0.1472  0.0574  0.0277
  423BOLB   PO110130  24.126  10.245  13.347  0.0438 -0.1229  0.1569
  423BOLB   GL110131  24.406  10.056  12.995  0.1594  0.1847  0.2966
  423BOLB   GL210132  24.465   9.810  13.066  0.1734 -0.0577  0.0701
  423BOLB   C1A10133  24.599  10.120  12.636 -0.2799  0.0585 -0.1299
  423BOLB   C2A10134  24.928   9.918  12.310  0.1469 -0.0161  0.0918
  423BOLB   C3A10135  25.323   9.820  12.206 -0.1470  0.1424  0.1807
  423BOLB   C4A10136  25.575   9.678  11.830 -0.2047  0.1813  0.0841
  423BOLB   C1B10137  24.721   9.632  12.807 -0.0137 -0.3053  0.1141
  423BOLB   C2B10138  25.063   9.558  12.696  0.1254  0.1104 -0.2473
  423BOLB   C3B10139  25.456   9.421  12.596  0.0672  0.2387  0.5288
  423BOLB   C4B10140  25.909   9.323  12.741 -0.0372  0.0151  0.2294
  423BOLB   NC210141  27.407   9.785  10.830 -0.3356 -0.0191 -0.1022
  423BOLB   PO210142  27.302   9.503  10.473  0.0587 -0.3839  0.0755
  423BOLB   GL310143  26.917   9.615  10.640 -0.2439  0.0389 -0.1260
  423BOLB   GL410144  27.025   9.446  10.857  0.1471  0.1891  0.0836
  423BOLB   C1C10145  26.508   9.643  10.718 -0.0771 -0.0757 -0.1403
  423BOLB   C2C10146  26.300   9.469  11.063  0.1433  0.0911  0.2838
  423BOLB   C3C10147  26.227   9.538  11.508  0.2099  0.0536 -0.0637
  423BOLB   C4C10148  25.888   9.658  11.659 -0.0410  0.3053  0.1404
  423BOLB   C1D10149  26.755   9.312  11.186 -0.1278  0.4065  0.0610
  423BOLB   C2D10150  26.542   9.185  11.549  0.1119 -0.3593  0.0804
  423BOLB   C3D10151  26.384   9.156  11.889 -0.1566 -0.0943 -0.1430
  423BOLB   C4D10152  26.269   9.209  12.376 -0.2412  0.0031  0.1277
  424BOLB   NC110153  18.771  16.222  20.781 -0.1015  0.1736 -0.1022
  424BOLB   PO110154  18.981  16.422  20.479 -0.4196 -0.2501 -0.2663
  424BOLB   GL110155  18.914  16.772  20.717 -0.1981  0.1208 -0.1675
  424BOLB   GL210156  18.809  16.725  21.071 -0.0878 -0.0115 -0.0303
  424BOLB   C1A10157  18.914  17.185  20.904 -0.1907  0.1091 -0.0102
  424BOLB   C2A10158  19.204  17.507  21.119  0.2130  0.2765 -0.0140
  424BOLB   C3A10159  19.347  17.979  21.252  0.0926 -0.2836 -0.3146
  424BOLB   C4A10160  19.612  18.301  21.414  0.0935 -0.1198 -0.2276
  424BOLB   C1B10161  19.021  16.863  21.312  0.3952  0.3017  0.1947
  424BOLB   C2B10162  19.340  17.013  21.500  0.0327 -0.1032  0.2370
  424BOLB   C3B10163  19.482  17.080  21.910 -0.1765  0.2778  0.0124
  424BOLB   C4B10164  19.643  17.192  22.337 -0.0106 -0.0915  0.0725
  424BOLB   NC210165  21.828  19.662  22.090  0.1384  0.0387 -0.2340
  424BOLB   PO210166  21.599  19.354  22.304  0.0574 -0.2246  0.0229
  424BOLB   GL310167  21.213  19.216  22.151  0.1345  0.3617 -0.2197
  424BOLB   GL410168  21.044  19.377  22.096  0.1837 -0.0836 -0.2052
  424BOLB   C1C10169  20.998  18.841  21.966  0.1497 -0.0496 -0.0607
  424BOLB   C2C10170  20.600  18.890  21.969 -0.1395 -0.0195  0.1898
  424BOLB   C3C10171  20.403  18.528  21.779  0.1739  0.2377  0.0887
  424BOLB   C4C10172  19.909  18.554  21.653 -0.0666  0.1879  0.2171
  424BOLB   C1D10173  20.562  19.339  22.072  0.3786 -0.0131  0.0145
  424BOLB   C2D10174  20.402  19.300  21.691 -0.2265 -0.2183  0.0653
  424BOLB   C3D10175  20.337  18.945  21.467  0.2084  0.0891  0.0613
  424BOLB   C4D10176  20.115  18.681  21.170  0.1856 -0.3169 -0.1232
  425BOLB   NC110177  13.533   6.974  22.318 -0.3141 -0.1037  0.3072
  425BOLB   PO110178  13.370   6.819  22.771 -0.0207 -0.0694 -0.0173
  425BOLB   GL110179  13.343   6.782  23.194  0.0862 -0.3206 -0.2022
  425BOLB   GL210180  13.664   6.867  23.341 -0.1541 -0.1051  0.0373
  425BOLB   C1A10181  13.144   6.746  23.472 -0.1284 -0.0489  0.0128
  425BOLB   C2A10182  13.359   6.730  23.731 -0.0205 -0.1005  0.1949
  425BOLB   C3A10183  13.635   6.575  23.963 -0.0632 -0.0828  0.0375
  425BOLB   C4A10184  13.563   6.385  24.436  0.2178 -0.1693 -0.0172
  425BOLB   C1B10185  13.787   7.040  23.689  0.1007  0.0147  0.2288
  425BOLB   C2B10186  13.811   7.045  24.202 -0.0598 -0.2037  0.1828
  425BOLB   C3B10187  13.642   6.874  24.599  0.1091 -0.2302 -0.4389
  425BOLB   C4B10188  13.145   6.909  24.746 -0.2020 -0.1445 -0.2079
  425BOLB   NC210189  13.371   4.067  25.832  0.1428  0.0663 -0.1707
  425BOLB   PO210190  13.252   4.481  25.879  0.0256 -0.3249 -0.2823
  425BOLB   GL310191  12.996   4.728  25.487  0.1434  0.0399 -0.3633
  425BOLB   GL410192  12.614   4.855  25.392 -0.0192  0.1939  0.0407
  425BOLB   C1C10193  13.069   5.023  25.138  0.5647 -0.1372 -0.1181
  425BOLB   C2C10194  13.329   5.146  24.920 -0.1292 -0.0893 -0.4484
  425BOLB   C3C10195  13.256   5.574  24.629 -0.1052  0.3429  0.1530
  425BOLB   C4C10196  13.222   6.010  24.472  0.1752 -0.0778  0.3500
  425BOLB   C1D10197  12.560   5.027  24.981  0.1554 -0.2312  0.0129
  425BOLB   C2D10198  12.819   5.235  24.733  0.0012  0.1861  0.1918
  425BOLB   C3D10199  12.946   5.355  24.282 -0.2157 -0.0725  0.0525
  425BOLB   C4D10200  13.231   5.361  23.905  0.2837 -0.3007  0.0475
  426BOLB   NC110201  22.011  10.836  20.719  0.0848 -0.3131 -0.0743
  426BOLB   PO110202  22.326  10.870  21.043 -0.3748  0.1804  0.3207
  426BOLB   GL110203  22.435  11.073  21.510  0.1670 -0.1403  0.0940
  426BOLB   GL210204  22.758  11.105  21.340 -0.2115 -0.0516  0.4047
  426BOLB   C1A10205  22.710  11.329  21.799 -0.1545 -0.0316  0.3023
  426BOLB   C2A10206  22.983  11.478  22.121 -0.3911  0.0250  0.2520
  426BOLB   C3A10207  23.325  11.756  22.335  0.0848  0.4718 -0.1671
  426BOLB   C4A10208  23.612  11.985  22.527 -0.0494 -0.1035  0.1160
  426BOLB   C1B10209  23.159  11.129  21.633  0.1788  0.0146 -0.1841
  426BOLB   C2B10210  23.431  11.510  21.867 -0.0581  0.0959  0.0200
  426BOLB   C3B10211  23.757  11.783  22.008 -0.0954 -0.1641  0.0697
  426BOLB   C4B10212  24.285  11.918  22.002 -0.2939 -0.0575  0.1087
  426BOLB   NC210213  25.383  11.790  23.767 -0.0625 -0.2869  0.2846
  426BOLB   PO210214  25.620  11.460  23.529 -0.0338 -0.4031 -0.4125
  426BOLB   GL310215  25.445  11.703  23.269 -0.4180  0.0389 -0.1020
  426BOLB   GL410216  25.750  11.856  23.126 -0.2832  0.0875  0.3546
  426BOLB   C1C10217  25.049  11.844  23.026  0.1050  0.3833  0.0145
  426BOLB   C2C10218  24.769  12.031  22.795  0.0740 -0.0150  0.1503
  426BOLB   C3C10219  24.445  12.118  22.457  0.1930  0.1382 -0.2133
  426BOLB   C4C10220  23.953  12.106  22.344  0.0490 -0.1795 -0.0038
  426BOLB   C1D10221  25.448  12.253  22.955  0.1532  0.1739  0.0922
  426BOLB   C2D10222  25.227  12.127  22.642  0.3973 -0.0875 -0.0974
  426BOLB   C3D10223  24.989  12.098  22.303  0.2378  0.3299 -0.2109
  426BOLB   C4D10224  24.837  12.068  21.930  0.0966  0.0264  0.2689
  427BOLB   NC110225   9.463   5.508  19.275 -0.3192  0.0532 -0.1359
  427BOLB   PO110226   9.513   5.861  19.438  0.1238  0.0957 -0.0138
  427BOLB   GL110227   9.207   5.617  19.751  0.0792 -0.1970 -0.0743
  427BOLB   GL210228   9.403   5.455  20.084 -0.1004  0.1365 -0.2111
  427BOLB   C1A10229   9.022   5.244  19.777  0.2544  0.4130 -0.1292
  427BOLB   C2A10230   9.131   4.869  19.556  0.0118  0.1990 -0.0132
  427BOLB   C3A10231   9.014   4.405  19.477  0.2694 -0.0306 -0.0785
  427BOLB   C4A10232   8.654   4.111  19.508  0.0198  0.0176  0.0215
  427BOLB   C1B10233   9.195   5.001  20.213 -0.2887 -0.0187  0.1964
  427BOLB   C2B10234   8.879   4.735  19.972  0.2192 -0.0517  0.2228
  427BOLB   C3B10235   8.696   4.294  19.959  0.0633  0.0096 -0.3416
  427BOLB   C4B10236   8.443   3.970  20.067  0.0681 -0.0074 -0.0276
  427BOLB   NC210237   6.671   2.880  20.619 -0.0119 -0.2119  0.0925
  427BOLB   PO210238   7.004   2.935  20.902  0.0200 -0.1660 -0.0950
  427BOLB   GL310239   7.477   3.074  20.726  0.0757 -0.0292 -0.1936
  427BOLB   GL410240   7.560   3.337  20.749  0.0966 -0.0515 -0.0540
  427BOLB   C1C10241   7.733   3.107  20.258  0.1712 -0.1481  0.4066
  427BOLB   C2C10242   8.139   3.150  19.964 -0.2167  0.1808  0.0461
  427BOLB   C3C10243   8.194   3.414  19.614  0.2694 -0.0707 -0.3159
  427BOLB   C4C10244   8.401   3.780  19.600  0.0876 -0.1494 -0.1119
  427BOLB   C1D10245   7.686   3.666  20.511 -0.3309  0.0020  0.0339
  427BOLB   C2D10246   7.596   3.767  20.035  0.0811 -0.3088 -0.3573
  427BOLB   C3D10247   7.936   3.899  19.759 -0.1367  0.2342  0.1295
  427BOLB   C4D10248   8.115   4.217  19.534  0.1324  0.1332  0.0557
  428BOLB   NC110249   6.077   6.026   3.815  0.0215  0.3361 -0.4029
  428BOLB   PO110250   6.381   6.426   3.962 -0.1370 -0.2385  0.2253
  428BOLB   GL110251   6.674   6.322   4.290 -0.1485 -0.1426 -0.1977
  428BOLB   GL210252   6.392   6.266   4.625  0.0136 -0.1133 -0.3392
  428BOLB   C1A10253   6.753   6.658   4.592 -0.2023  0.0519 -0.2634
  428BOLB   C2A10254   6.916   6.687   5.025  0.2667 -0.1593 -0.2456
  428BOLB   C3A10255   7.298   6.581   5.260  0.2869 -0.0366  0.0610
  428BOLB   C4A10256   7.230   6.319   5.654 -0.2246  0.1709 -0.2544
  428BOLB   C1B10257   6.524   6.428   4.989 -0.1410  0.1136 -0.2211
  428BOLB   C2B10258   6.826   6.244   5.387  0.1518  0.0228  0.0427
  428BOLB   C3B10259   6.719   6.368   5.744  0.0276 -0.0290  0.2621
  428BOLB   C4B10260   6.926   6.516   6.059 -0.0506 -0.3531  0.1525
  428BOLB   NC210261   5.102   5.681   6.078  0.0748 -0.3553 -0.0294
  428BOLB   PO210262   5.021   5.393   5.691  0.0944  0.2703 -0.0762
  428BOLB   GL310263   5.455   5.474   5.611 -0.3643  0.2257 -0.2310
  428BOLB   GL410264   5.553   5.673   5.919 -0.1008  0.1629 -0.2086
  428BOLB   C1C10265   5.828   5.475   5.551 -0.1892  0.1304  0.2905
  428BOLB   C2C10266   6.276   5.507   5.665  0.1478 -0.1588  0.0678
  428BOLB   C3C10267   6.667   5.771   5.610  0.0765  0.1392 -0.2059
  428BOLB   C4C10268   6.952   5.932   5.754  0.0090 -0.0976  0.1579
  428BOLB   C1D10269   6.041   5.709   6.075  0.2576 -0.2495  0.3667
  428BOLB   C2D10270   6.128   5.899   6.492 -0.1764  0.1343  0.0834
  428BOLB   C3D10271   6.507   6.268   6.603  0.1492 -0.0738 -0.1836
  428BOLB   C4D10272   6.920   6.346   6.486  0.3105  0.1167  0.1184
  429BOLB   NC110273   1.461   7.017  11.034 -0.1019  0.2894  0.1784
  429BOLB   PO110274   1.514   6.592  11.173  0.0365 -0.0510 -0.0462
  429BOLB   GL110275   1.765   6.827  11.359  0.2775 -0.2420 -0.0660
  429BOLB   GL210276   1.811   7.186  11.329  0.1996 -0.1792  0.0792
  429BOLB   C1A10277   2.033   6.892  11.750  0.2148  0.0085 -0.0551
  429BOLB   C2A10278   2.485   7.133  11.884 -0.1903 -0.1101  0.1255
  429BOLB   C3A10279   2.636   7.557  11.763  0.1407 -0.2506 -0.1132
  429BOLB   C4A10280   2.707   8.012  11.699 -0.1214  0.0111  0.4482
  429BOLB   C1B10281   2.221   7.080  11.288 -0.0543 -0.1509  0.2039
  429BOLB   C2B10282   2.602   7.018  11.431 -0.1021 -0.0000 -0.4349
  429BOLB   C3B10283   2.991   6.895  11.505 -0.3451  0.0636 -0.0663
  429BOLB   C4B10284   3.401   6.924  11.612  0.1211  0.0105  0.3402
  429BOLB   NC210285   1.900   8.421  10.021 -0.3440  0.1507 -0.0407
  429BOLB   PO210286   1.904   8.900   9.924  0.1428  0.0843 -0.1649
  429BOLB   GL310287   2.011   8.903  10.372 -0.0428 -0.0685 -0.4578
  429BOLB   GL410288   1.991   9.192  10.553  0.0406  0.0241 -0.0511
  429BOLB   C1C10289   2.233   8.695  10.688 -0.3569  0.0688 -0.1560
  429BOLB   C2C10290   2.566   8.708  10.969 -0.0338 -0.2696  0.1309
  429BOLB   C3C10291   2.712   8.725  11.308 -0.3086  0.1883  0.0590
  429BOLB   C4C10292   2.745   8.473  11.648 -0.1498  0.1074 -0.0359
  429BOLB   C1D10293   2.281   9.120  10.934  0.0707  0.0376 -0.1000
  429BOLB   C2D10294   2.612   9.277  11.153 -0.2049 -0.0854  0.2346
  429BOLB   C3D10295   2.709   9.235  11.587 -0.1108  0.0302  0.1407
  429BOLB   C4D10296   2.953   9.082  11.966 -0.3002 -0.2266 -0.0518
  430BOLB   NC110297  15.960  17.208  25.895 -0.2487  0.2357  0.2512
  430BOLB   PO110298  16.274  17.439  26.021 -0.0023 -0.4162  0.0778
  430BOLB   GL110299  16.398  17.345  25.486 -0.0583  0.1903 -0.1182
  430BOLB   GL210300  16.774  17.364  25.638  0.0563 -0.2110 -0.0907
  430BOLB   C1A10301  16.590  17.247  25.094 -0.0192  0.2173 -0.0895
  430BOLB   C2A10302  16.874  17.044  24.756 -0.0802 -0.0556 -0.1505
  430BOLB   C3A10303  16.805  16.731  24.483  0.4580  0.0136  0.1347
  430BOLB   C4A10304  17.121  16.394  24.473 -0.2679 -0.3445 -0.0483
  430BOLB   C1B10305  16.730  16.997  25.501 -0.4029 -0.2625  0.2264
  430BOLB   C2B10306  16.458  16.613  25.495  0.0248  0.2189 -0.1431
  430BOLB   C3B10307  16.071  16.321  25.418 -0.2171  0.1398  0.2536
  430BOLB   C4B10308  16.099  15.888  25.335 -0.0672  0.4710  0.0369
  430BOLB   NC210309  17.079  14.797  22.910 -0.1864 -0.3365 -0.3136
  430BOLB   PO210310  16.866  15.029  23.066  0.2473 -0.2355 -0.0471
  430BOLB   GL310311  16.618  15.340  23.251 -0.2104  0.0333 -0.0857
  430BOLB   GL410312  16.668  15.592  23.088 -0.3820  0.0344  0.3751
  430BOLB   C1C10313  16.314  15.613  23.489  0.0574  0.0365  0.1585
  430BOLB   C2C10314  16.452  15.848  23.770  0.0653 -0.1096 -0.0685
  430BOLB   C3C10315  16.866  15.872  23.935 -0.2111  0.0574 -0.1183
  430BOLB   C4C10316  17.122  16.124  24.128 -0.0178  0.1122 -0.2100
  430BOLB   C1D10317  16.787  15.734  23.454 -0.4029  0.1528 -0.0562
  430BOLB   C2D10318  17.010  16.076  23.461  0.0039  0.0890 -0.7231
  430BOLB   C3D10319  17.327  16.327  23.678 -0.3384 -0.2370  0.2917
  430BOLB   C4D10320  17.773  16.476  23.824 -0.1970 -0.1643 -0.1221
  431BOLB   NC110321   9.213  14.184  15.236 -0.1417 -0.3040  0.0559
  431BOLB   PO110322   9.331  14.579  15.306  0.0963 -0.2210 -0.1217
  431BOLB   GL110323   8.950  14.624  15.267  0.3549 -0.1388 -0.0030
  431BOLB   GL210324   8.790  14.863  15.123  0.1097  0.1253 -0.1109
  431BOLB   C1A10325   8.530  14.714  15.553 -0.1694 -0.0946 -0.0037
  431BOLB   C2A10326   8.185  14.725  15.816 -0.3613  0.1959  0.1112
  431BOLB   C3A10327   7.854  15.037  15.652 -0.1487 -0.2250  0.4694
  431BOLB   C4A10328   7.539  15.249  15.389 -0.0850  0.2397 -0.1329
  431BOLB   C1B10329   8.416  15.104  15.314 -0.1998  0.2179  0.0229
  431BOLB   C2B10330   8.087  15.351  15.299 -0.4404  0.1971  0.0942
  431BOLB   C3B10331   7.823  15.676  15.518 -0.0341 -0.1596  0.1383
  431BOLB   C4B10332   7.562  16.075  15.712 -0.2887  0.1603 -0.3518
  431BOLB   NC210333   5.395  15.277  15.125 -0.0872 -0.0566 -0.2956
  431BOLB   PO210334   5.100  15.471  15.561 -0.1682 -0.1734 -0.2211
  431BOLB   GL310335   5.547  15.500  15.521 -0.1023 -0.2176  0.0869
  431BOLB   GL410336   5.643  15.458  15.900 -0.0106  0.1468 -0.1437
  431BOLB   C1C10337   5.966  15.305  15.454  0.0260  0.0089 -0.2307
  431BOLB   C2C10338   6.329  15.348  15.282 -0.0577  0.1477  0.2779
  431BOLB   C3C10339   6.632  15.502  15.492  0.6510 -0.2754  0.0516
  431BOLB   C4C10340   7.157  15.418  15.436 -0.0523  0.2541 -0.3025
  431BOLB   C1D10341   5.994  15.217  16.112  0.1808  0.1804 -0.1572
  431BOLB   C2D10342   6.344  14.962  16.122  0.2553 -0.1090 -0.1678
  431BOLB   C3D10343   6.500  14.821  15.629  0.0764 -0.2469 -0.1128
  431BOLB   C4D10344   6.638  14.763  15.217 -0.0121 -0.0952  0.0484
  432BOLB   NC110345  16.751  11.708   8.244  0.2350 -0.0555  0.0186
  432BOLB   PO110346  16.412  11.548   7.925 -0.4395  0.0143  0.1324
  432BOLB   GL110347  16.566  11.471   7.492 -0.1003  0.3910 -0.0420
  432BOLB   GL210348  16.474  11.691   7.223  0.2215 -0.3322 -0.3077
  432BOLB   C1A10349  16.739  11.323   7.146  0.1346  0.0004  0.1041
  432BOLB   C2A10350  16.825  11.262   6.649 -0.2411  0.0303  0.0807
  432BOLB   C3A10351  17.165  11.358   6.357 -0.0057 -0.3357  0.0244
  432BOLB   C4A10352  17.151  11.753   6.267  0.1359 -0.1420  0.1350
  432BOLB   C1B10353  16.649  11.774   6.912  0.0219 -0.1378 -0.1653
  432BOLB   C2B10354  16.612  11.722   6.464 -0.1723  0.1119 -0.0107
  432BOLB   C3B10355  16.744  11.579   6.062  0.1369  0.1690  0.2353
  432BOLB   C4B10356  16.892  11.187   5.842  0.0049  0.0973 -0.1591
  432BOLB   NC210357  18.161  12.012   4.026  0.0113 -0.2680 -0.1275
  432BOLB   PO210358  18.210  11.662   4.415 -0.1876 -0.2362 -0.0829
  432BOLB   GL310359  17.893  11.710   4.797  0.2045  0.1166  0.0414
  432BOLB   GL410360  17.865  11.537   5.216 -0.1427 -0.0124 -0.0084
  432BOLB   C1C10361  17.670  12.063   4.949 -0.0897 -0.2031 -0.0159
  432BOLB   C2C10362  17.832  12.179   5.309 -0.3502 -0.0295  0.0804
  432BOLB   C3C10363  17.833  12.086   5.794 -0.1123  0.0652 -0.0039
  432BOLB   C4C10364  17.531  11.908   6.007 -0.0548  0.1777 -0.5283
  432BOLB   C1D10365  18.128  11.791   5.505 -0.0004  0.0573  0.1480
  432BOLB   C2D10366  18.281  12.210   5.590 -0.0813 -0.0369 -0.3168
  432BOLB   C3D10367  18.322  12.676   5.432 -0.0867 -0.0587 -0.2293
  432BOLB   C4D10368  18.421  13.099   5.354  0.1021 -0.1649 -0.0628
  433BOLB   NC110369   8.405  12.138  15.585 -0.1585 -0.0512 -0.0419
  433BOLB   PO110370   8.645  12.204  15.218  0.0393  0.0834  0.0039
  433BOLB   GL110371   8.169  12.262  15.215 -0.2634 -0.1376  0.2466
  433BOLB   GL210372   8.018  11.968  15.373 -0.0991  0.1436  0.0311
  433BOLB   C1A10373   7.794  12.325  15.089  0.0364 -0.4581  0.0152
  433BOLB   C2A10374   7.345  12.403  14.910 -0.1804 -0.0905  0.0516
  433BOLB   C3A10375   6.821  12.542  14.868  0.1586  0.1012 -0.2466
  433BOLB   C4A10376   6.373  12.516  14.838 -0.3106  0.0038  0.0888
  433BOLB   C1B10377   7.616  12.139  15.510  0.0056  0.1652 -0.2150
  433BOLB   C2B10378   7.172  12.249  15.487 -0.2511 -0.0102 -0.0262
  433BOLB   C3B10379   6.943  12.489  15.342  0.1640  0.2305 -0.2344
  433BOLB   C4B10380   6.874  12.884  15.348  0.0397 -0.1468 -0.0372
  433BOLB   NC210381   4.489  13.131  14.173 -0.3426 -0.0566  0.2003
  433BOLB   PO210382   4.637  13.464  13.885 -0.0240 -0.0561 -0.1924
  433BOLB   GL310383   4.940  13.332  14.202 -0.2733  0.0508 -0.2134
  433BOLB   GL410384   5.081  13.610  14.252 -0.0787  0.2252  0.3632
  433BOLB   C1C10385   5.013  12.962  14.506 -0.0723 -0.0885  0.0054
  433BOLB   C2C10386   5.214  12.593  14.684  0.1119 -0.0415 -0.1843
  433BOLB   C3C10387   5.625  12.651  14.816 -0.0513  0.2243  0.0134
  433BOLB   C4C10388   6.020  12.698  14.640 -0.2714  0.1445 -0.1310
  433BOLB   C1D10389   5.431  13.341  14.331  0.2984 -0.1989  0.0212
  433BOLB   C2D10390   5.727  13.054  14.540  0.0383  0.1103 -0.0303
  433BOLB   C3D10391   5.901  12.992  15.020  0.0740  0.4144 -0.2011
  433BOLB   C4D10392   5.997  12.617  15.179 -0.2356  0.2524 -0.0292
  434BOLB   NC110393  21.952  12.870  10.964 -0.1545 -0.2836 -0.0517
  434BOLB   PO110394  22.033  12.466  10.911 -0.2133 -0.1727 -0.0758
  434BOLB   GL110395  22.449  12.278  10.745 -0.0379 -0.2425  0.5540
  434BOLB   GL210396  22.713  12.428  10.788 -0.2314  0.0329 -0.0231
  434BOLB   C1A10397  22.650  11.916  10.615  0.2873  0.2007 -0.1323
  434BOLB   C2A10398  22.954  11.925  10.257 -0.0481  0.2202 -0.0161
  434BOLB   C3A10399  23.275  11.943   9.958  0.0223 -0.1758  0.0234
  434BOLB   C4A10400  23.706  12.039   9.902 -0.1601  0.1665  0.0766
  434BOLB   C1B10401  23.196  12.249  10.677  0.0169 -0.1637 -0.2879
  434BOLB   C2B10402  23.485  12.414  10.511 -0.0606 -0.1184 -0.0376
  434BOLB   C3B10403  23.945  12.328  10.392  0.0583  0.0588  0.0422
  434BOLB   C4B10404  24.440  12.506  10.383  0.1099  0.2601  0.1046
  434BOLB   NC210405  25.563  11.930   8.543  0.0455 -0.1267 -0.0900
  434BOLB   PO210406  25.896  12.023   8.691 -0.0987 -0.0403 -0.0814
  434BOLB   GL310407  25.561  12.270   8.961  0.3970  0.3085  0.1756
  434BOLB   GL410408  25.581  12.460   9.177  0.2809 -0.1062 -0.1359
  434BOLB   C1C10409  25.113  12.203   8.978 -0.1891 -0.0850 -0.1077
  434BOLB   C2C10410  24.687  12.357   9.054 -0.0886 -0.2156 -0.0400
  434BOLB   C3C10411  24.430  12.395   9.478 -0.0149 -0.1239 -0.0853
  434BOLB   C4C10412  24.069  12.388   9.607 -0.0832 -0.1719 -0.2511
  434BOLB   C1D10413  25.243  12.285   9.476  0.3360  0.3811 -0.3328
  434BOLB   C2D10414  24.913  12.446   9.599 -0.0882  0.0461  0.0810
  434BOLB   C3D10415  24.728  12.811   9.403  0.3651  0.1419  0.0696
  434BOLB   C4D10416  24.759  13.061   9.109 -0.2953  0.1958  0.5036
  435BOLB   NC110417  11.873  13.140   9.786  0.2224 -0.1664  0.1160
  435BOLB   PO110418  12.184  13.268   9.424 -0.0087  0.0605  0.2647
  435BOLB   GL110419  12.099  13.088   9.077 -0.0999  0.2082  0.1742
  435BOLB   GL210420  11.899  12.846   9.304 -0.0750 -0.0054  0.0429
  435BOLB   C1A10421  11.968  13.242   8.788  0.2908 -0.0064  0.2095
  435BOLB   C2A10422  12.016  13.623   8.585 -0.1344  0.0774  0.0339
  435BOLB   C3A10423  11.834  13.787   8.147  0.0492 -0.3259  0.1950
  435BOLB   C4A10424  11.580  13.932   7.915 -0.0286  0.2145  0.0979
  435BOLB   C1B10425  11.759  12.749   8.941  0.3026 -0.1275 -0.0237
  435BOLB   C2B10426  11.499  12.822   8.621 -0.0316  0.2308 -0.0189
  435BOLB   C3B10427  11.214  12.789   8.252 -0.0288 -0.2837 -0.2262
  435BOLB   C4B10428  10.804  12.638   8.113 -0.0976 -0.0229  0.0401
  435BOLB   NC210429  10.001  15.149   6.408 -0.2791 -0.1386  0.0706
  435BOLB   PO210430  10.074  14.886   6.066 -0.2136 -0.0094  0.3682
  435BOLB   GL310431  10.262  14.739   6.434 -0.0575  0.0381  0.1326
  435BOLB   GL410432  10.442  15.035   6.568 -0.3149 -0.1585 -0.0922
  435BOLB   C1C10433  10.714  14.594   6.568 -0.1010 -0.2645 -0.2084
  435BOLB   C2C10434  10.902  14.538   6.866 -0.1357 -0.0373  0.0417
  435BOLB   C3C10435  11.025  14.383   7.308  0.1515  0.1493 -0.1525
  435BOLB   C4C10436  11.291  14.045   7.503 -0.1526 -0.0137 -0.0555
  435BOLB   C1D10437  10.326  14.805   6.893 -0.0521  0.1115  0.1629
  435BOLB   C2D10438  10.413  14.519   7.075  0.0355  0.3771  0.0360
  435BOLB   C3D10439  10.533  14.371   7.450  0.3052  0.1490 -0.2476
  435BOLB   C4D10440  10.770  13.992   7.526 -0.0355 -0.0814 -0.0021
  436BOLB   NC110441  15.868   1.678  14.881 -0.1168  0.2725  0.4140
  436BOLB   PO110442  15.683   1.336  15.158 -0.2452 -0.2752 -0.1618
  436BOLB   GL110443  15.572   0.937  14.964 -0.3507 -0.1924 -0.1582
  436BOLB   GL210444  15.894   0.817  15.167 -0.2170 -0.0609  0.0437
  436BOLB   C1A10445  15.499   0.525  14.814 -0.0016 -0.4067  0.3622
  436BOLB   C2A10446  15.770   0.107  14.602  0.0502 -0.2562 -0.1024
  436BOLB   C3A10447  15.995  -0.246  14.537  0.0229 -0.0226  0.2242
  436BOLB   C4A10448  16.013  -0.722  14.598 -0.0380 -0.2521 -0.1578
  436BOLB   C1B10449  15.986   0.474  14.982 -0.0592  0.5281 -0.1594
  436BOLB   C2B10450  16.112   0.026  14.929  0.2871 -0.2768 -0.1767
  436BOLB   C3B10451  16.292  -0.361  14.962  0.2342  0.0888 -0.2261
  436BOLB   C4B10452  16.355  -0.804  15.050 -0.0623 -0.0676  0.1006
  436BOLB   NC210453  15.783  -3.562  14.283  0.1730  0.0401  0.1297
  436BOLB   PO210454  16.059  -3.213  14.221  0.1336 -0.2016  0.1317
  436BOLB   GL310455  16.130  -2.788  14.147 -0.0163 -0.1397  0.1009
  436BOLB   GL410456  16.133  -2.827  13.807 -0.0752  0.0167  0.0487
  436BOLB   C1C10457  16.205  -2.414  14.257  0.0006 -0.0654  0.1612
  436BOLB   C2C10458  16.214  -2.077  14.566 -0.1228 -0.0681 -0.3622
  436BOLB   C3C10459  16.046  -1.648  14.490 -0.0917  0.0229  0.0078
  436BOLB   C4C10460  16.097  -1.118  14.606  0.1814 -0.1275  0.0631
  436BOLB   C1D10461  16.320  -2.527  13.446 -0.1489 -0.0874 -0.2036
  436BOLB   C2D10462  16.327  -2.089  13.345  0.1285 -0.2460 -0.3443
  436BOLB   C3D10463  16.201  -1.660  13.236 -0.0422  0.2745 -0.1293
  436BOLB   C4D10464  16.480  -1.413  13.055 -0.5613 -0.1121 -0.3230
  437BOLB   NC110465  19.534  15.495  10.109  0.3391  0.0198 -0.1166
  437BOLB   PO110466  19.067  15.520  10.109  0.5631 -0.1457  0.2099
  437BOLB   GL110467  19.266  15.937   9.855 -0.0956 -0.0654 -0.2455
  437BOLB   GL210468  19.652  15.879   9.857 -0.1277  0.2088 -0.0772
  437BOLB   C1A10469  19.063  16.334   9.638 -0.2800  0.0555  0.3097
  437BOLB   C2A10470  19.057  16.494   9.244 -0.2347  0.0810 -0.0043
  437BOLB   C3A10471  19.094  16.749   8.889 -0.2019  0.2382 -0.2272
  437BOLB   C4A10472  19.236  17.011   8.514  0.0838 -0.1366 -0.1637
  437BOLB   C1B10473  19.639  16.217   9.691  0.0637 -0.0279  0.2792
  437BOLB   C2B10474  19.805  16.261   9.276  0.1130  0.3560  0.0090
  437BOLB   C3B10475  20.010  16.511   8.921  0.3646  0.1686 -0.2699
  437BOLB   C4B10476  20.319  16.793   8.735  0.1154 -0.1430 -0.2165
  437BOLB   NC210477  19.918  17.913   6.150  0.0805  0.0387 -0.1467
  437BOLB   PO210478  19.672  17.567   6.424  0.0047 -0.3182  0.0710
  437BOLB   GL310479  19.692  17.405   6.818 -0.1744 -0.1124 -0.0200
  437BOLB   GL410480  19.912  17.077   6.800  0.0705 -0.1843  0.0660
  437BOLB   C1C10481  19.795  17.333   7.210 -0.2706  0.1640  0.0696
  437BOLB   C2C10482  19.529  17.107   7.523 -0.0513 -0.0934  0.0963
  437BOLB   C3C10483  19.282  16.975   7.782 -0.0754  0.0004 -0.0288
  437BOLB   C4C10484  19.290  17.154   8.209  0.1589  0.0450 -0.0925
  437BOLB   C1D10485  19.731  16.822   7.043  0.1111 -0.0063  0.1701
  437BOLB   C2D10486  19.435  16.664   7.265 -0.1223  0.3090  0.0250
  437BOLB   C3D10487  19.370  16.394   7.638  0.0248  0.5456 -0.0895
  437BOLB   C4D10488  19.244  16.114   8.093 -0.0350  0.0557  0.1551
  438BOLB   NC110489  15.646  13.697   8.287  0.1001 -0.1385 -0.2470
  438BOLB   PO110490  15.996  13.799   8.045 -0.0649  0.2373 -0.1992
  438BOLB   GL110491  16.053  14.074   7.751 -0.2870  0.1939  0.1375
  438BOLB   GL210492  15.919  13.925   7.555  0.1963 -0.3637 -0.1057
  438BOLB   C1A10493  15.846  14.407   7.432  0.1636  0.0779  0.2538
  438BOLB   C2A10494  15.798  14.254   6.963  0.1839  0.3534 -0.1837
  438BOLB   C3A10495  15.849  14.277   6.478 -0.2891  0.0607 -0.2935
  438BOLB   C4A10496  16.092  14.139   6.057 -0.0387 -0.0564 -0.1084
  438BOLB   C1B10497  16.183  14.026   7.215  0.0788 -0.1535  0.1327
  438BOLB   C2B10498  16.405  14.017   6.793 -0.1206  0.1166 -0.0175
  438BOLB   C3B10499  16.687  14.089   6.462 -0.1111  0.1616  0.0230
  438BOLB   C4B10500  16.953  13.826   6.228  0.0425  0.1569 -0.0614
  438BOLB   NC210501  15.249  15.512   4.404 -0.0884 -0.0765 -0.1488
  438BOLB   PO210502  15.021  15.642   4.666 -0.0135 -0.2741  0.1744
  438BOLB   GL310503  15.307  15.462   4.975 -0.2710 -0.2802 -0.2265
  438BOLB   GL410504  15.072  15.345   5.212 -0.0298 -0.1420  0.0511
  438BOLB   C1C10505  15.513  15.114   5.133  0.1878  0.1697 -0.0127
  438BOLB   C2C10506  15.654  14.786   5.309 -0.0816  0.3674  0.1472
  438BOLB   C3C10507  15.945  14.615   5.636 -0.0157 -0.0549 -0.1569
  438BOLB   C4C10508  16.174  14.473   5.831  0.0410  0.0725 -0.1277
  438BOLB   C1D10509  15.166  15.110   5.531 -0.3022 -0.2502 -0.2902
  438BOLB   C2D10510  15.331  14.709   5.744  0.1154  0.0466  0.0799
  438BOLB   C3D10511  15.624  14.322   5.894  0.1531 -0.1221 -0.3321
  438BOLB   C4D10512  15.656  13.888   6.112 -0.2624  0.1506 -0.1069
  439BOLB   NC110513  23.845  11.109  18.656  0.1869 -0.2184  0.1482
  439BOLB   PO110514  23.897  10.736  18.804  0.2490  0.1875  0.0860
  439BOLB   GL110515  24.283  10.990  18.885  0.1814  0.5062  0.0471
  439BOLB   GL210516  24.224  11.320  18.934 -0.1699 -0.1871 -0.0543
  439BOLB   C1A10517  24.709  10.898  19.030 -0.1670  0.1274  0.0958
  439BOLB   C2A10518  24.932  10.845  19.461  0.1958  0.2023  0.1042
  439BOLB   C3A10519  25.125  11.086  19.643 -0.1552  0.1029  0.3323
  439BOLB   C4A10520  25.533  11.257  19.733  0.0320 -0.0459 -0.0613
  439BOLB   C1B10521  24.466  11.267  19.333  0.2118 -0.4743 -0.1863
  439BOLB   C2B10522  24.772  11.405  19.533 -0.0728  0.2349  0.0029
  439BOLB   C3B10523  25.165  11.584  19.649 -0.1374  0.1145 -0.0565
  439BOLB   C4B10524  25.424  11.929  19.629 -0.4022  0.0577  0.0925
  439BOLB   NC210525  27.662  11.624  19.502  0.1906  0.0133  0.1931
  439BOLB   PO210526  27.553  12.120  19.564 -0.1528 -0.3245 -0.3067
  439BOLB   GL310527  27.142  11.916  19.545 -0.0050 -0.1161 -0.1184
  439BOLB   GL410528  27.207  11.830  19.845 -0.1880 -0.0590 -0.0801
  439BOLB   C1C10529  26.753  12.064  19.684  0.1880  0.1294 -0.0919
  439BOLB   C2C10530  26.329  12.081  19.615  0.2568 -0.2942  0.0601
  439BOLB   C3C10531  25.937  12.040  19.612  0.4051  0.2958  0.1557
  439BOLB   C4C10532  25.765  11.559  19.711  0.2807 -0.5046  0.1077
  439BOLB   C1D10533  26.914  11.511  19.894 -0.1190  0.2593 -0.2840
  439BOLB   C2D10534  26.755  11.217  19.721 -0.4336  0.1781  0.1182
  439BOLB   C3D10535  26.603  11.057  19.394 -0.2071  0.5959  0.3510
  439BOLB   C4D10536  26.401  11.266  19.173 -0.1667  0.1303  0.1148
  440BOLB   NC110537  11.588  11.597  22.099  0.2039  0.0009 -0.0366
  440BOLB   PO110538  11.187  11.553  22.035 -0.0625 -0.1168 -0.0215
  440BOLB   GL110539  11.042  11.841  22.444  0.1886  0.3009  0.1815
  440BOLB   GL210540  11.299  11.830  22.472 -0.2868 -0.2915  0.0552
  440BOLB   C1A10541  10.876  12.035  22.753  0.1074  0.0200 -0.6161
  440BOLB   C2A10542  10.805  12.181  23.010 -0.0812 -0.0465 -0.0905
  440BOLB   C3A10543  10.930  12.294  23.437  0.0136 -0.1086  0.3221
  440BOLB   C4A10544  10.684  12.511  23.646  0.1610 -0.1553 -0.1018
  440BOLB   C1B10545  11.179  12.300  22.389 -0.2099 -0.2344  0.0695
  440BOLB   C2B10546  11.369  12.784  22.444  0.2951  0.1058  0.1251
  440BOLB   C3B10547  11.131  12.998  22.792 -0.2106 -0.1353  0.2403
  440BOLB   C4B10548  11.015  13.181  23.225  0.0393 -0.2628  0.0920
  440BOLB   NC210549  10.085  11.898  25.740  0.0705 -0.3040  0.2726
  440BOLB   PO210550  10.458  12.197  25.632 -0.0177 -0.0124 -0.1197
  440BOLB   GL310551  10.656  12.054  25.291  0.0216 -0.5628  0.2080
  440BOLB   GL410552  10.808  12.296  25.139  0.0919 -0.0276  0.2275
  440BOLB   C1C10553  10.483  11.913  24.900 -0.2905 -0.0084 -0.0935
  440BOLB   C2C10554  10.368  11.946  24.497 -0.1559 -0.0731  0.2174
  440BOLB   C3C10555  10.463  12.261  24.292  0.0805  0.2236 -0.0109
  440BOLB   C4C10556  10.662  12.515  24.122  0.0586 -0.1370 -0.0983
  440BOLB   C1D10557  10.571  12.411  24.804  0.0627  0.3271 -0.0859
  440BOLB   C2D10558  10.368  12.746  24.552  0.1377  0.3402 -0.0717
  440BOLB   C3D10559  10.337  12.925  24.114  0.3776 -0.0943 -0.0364
  440BOLB   C4D10560  10.242  13.170  23.849 -0.0391 -0.1528 -0.0512
  441BOLB   NC110561  14.509  11.444  22.731 -0.1717  0.1802  0.1648
  441BOLB   PO110562  14.430  11.717  23.074 -0.0047  0.2850 -0.2045
  441BOLB   GL110563  14.544  11.683  23.553  0.1682 -0.0601  0.1462
  441BOLB   GL210564  14.294  11.572  23.661  0.2361 -0.1762 -0.1270
  441BOLB   C1A10565  14.378  11.981  23.883  0.1723 -0.0817 -0.2732
  441BOLB   C2A10566  14.300  12.107  24.322  0.1974 -0.2791  0.1752
  441BOLB   C3A10567  14.319  12.130  24.760  0.1488 -0.1771 -0.1823
  441BOLB   C4A10568  14.239  12.365  25.160  0.0711 -0.1077  0.0800
  441BOLB   C1B10569  14.120  11.589  24.105 -0.2152 -0.0276 -0.4118
  441BOLB   C2B10570  13.881  11.757  24.442  0.0582  0.2998 -0.0425
  441BOLB   C3B10571  13.539  11.779  24.792  0.0934 -0.1048 -0.1482
  441BOLB   C4B10572  13.363  12.086  25.099  0.1659  0.1608  0.0517
  441BOLB   NC210573  14.677  13.233  27.284  0.1576 -0.0607 -0.0149
  441BOLB   PO210574  14.347  13.495  27.039 -0.2957 -0.0135  0.2579
  441BOLB   GL310575  14.421  13.576  26.603  0.2945 -0.0137 -0.2697
  441BOLB   GL410576  14.493  13.872  26.435  0.0298  0.5387 -0.2653
  441BOLB   C1C10577  14.525  13.441  26.186 -0.1366  0.2525 -0.2261
  441BOLB   C2C10578  14.434  13.247  25.792 -0.0636 -0.1321  0.3182
  441BOLB   C3C10579  14.165  13.014  25.598  0.2095  0.0803 -0.2035
  441BOLB   C4C10580  14.207  12.629  25.424 -0.0565  0.2823 -0.2095
  441BOLB   C1D10581  14.724  13.931  26.034  0.0378 -0.0060  0.0925
  441BOLB   C2D10582  14.684  13.690  25.583 -0.1451  0.0462 -0.0452
  441BOLB   C3D10583  14.743  13.540  25.100 -0.1378 -0.1516 -0.0676
  441BOLB   C4D10584  14.754  13.307  24.647 -0.0190  0.1462  0.1468
  442BOLB   NC110585   8.744  14.552   5.483  0.0683  0.1705 -0.1141
  442BOLB   PO110586   9.052  14.640   5.668 -0.0569 -0.1813 -0.0111
  442BOLB   GL110587   9.229  14.274   5.725  0.0131 -0.0793  0.2616
  442BOLB   GL210588   9.493  14.268   5.806  0.4850  0.2746  0.1572
  442BOLB   C1A10589   9.201  13.870   5.936 -0.2593  0.0049  0.2911
  442BOLB   C2A10590   9.463  13.538   6.060  0.2163 -0.3197 -0.0201
  442BOLB   C3A10591   9.884  13.617   6.250  0.2699 -0.2687  0.1254
  442BOLB   C4A10592  10.316  13.784   6.237  0.0561 -0.3486 -0.1157
  442BOLB   C1B10593   9.862  14.237   5.479  0.0874 -0.0210 -0.2927
  442BOLB   C2B10594   9.922  13.842   5.210  0.1044 -0.0664 -0.1646
  442BOLB   C3B10595  10.177  13.862   4.829 -0.0008  0.0105 -0.3146
  442BOLB   C4B10596  10.609  13.814   4.672 -0.0370 -0.2342  0.0758
  442BOLB   NC210597  11.049  14.401   4.550  0.3343  0.0066 -0.1576
  442BOLB   PO210598  11.006  14.484   4.996 -0.1095 -0.3364  0.0159
  442BOLB   GL310599  11.275  14.485   5.187 -0.2624 -0.0511  0.0507
  442BOLB   GL410600  11.463  14.372   5.217 -0.1436  0.1574  0.0088
  442BOLB   C1C10601  11.330  14.425   5.665  0.2000 -0.3041  0.1916
  442BOLB   C2C10602  11.206  14.164   5.942  0.1906 -0.3634 -0.0859
  442BOLB   C3C10603  11.115  13.759   6.092  0.1866  0.0694 -0.0812
  442BOLB   C4C10604  10.623  13.548   6.169  0.0563 -0.0522  0.0547
  442BOLB   C1D10605  11.504  13.944   5.537  0.1190 -0.0781  0.1810
  442BOLB   C2D10606  11.586  13.702   6.047 -0.0390  0.1350 -0.2334
  442BOLB   C3D10607  11.539  13.327   6.364  0.0512 -0.1996 -0.0702
  442BOLB   C4D10608  11.519  13.081   6.591 -0.3101  0.0152  0.1975
  443BOLB   NC110609   8.544   9.436  18.676  0.1416  0.2022 -0.1711
  443BOLB   PO110610   8.763   9.318  19.116 -0.1113 -0.1399 -0.0330
  443BOLB   GL110611   8.353   9.111  19.205  0.2016 -0.1325  0.0079
  443BOLB   GL210612   8.064   9.186  18.978  0.0478 -0.0503  0.1400
  443BOLB   C1A10613   7.940   8.972  19.386  0.2705 -0.3828 -0.0339
  443BOLB   C2A10614   7.654   8.797  19.694  0.0967 -0.0788  0.2623
  443BOLB   C3A10615   7.210   8.688  19.900  0.1887 -0.1081  0.0691
  443BOLB   C4A10616   7.094   8.963  20.202  0.0365  0.1131  0.0479
  443BOLB   C1B10617   7.655   9.128  18.698  0.0515  0.0994 -0.0679
  443BOLB   C2B10618   7.330   9.168  18.875 -0.3810 -0.2485 -0.3039
  443BOLB   C3B10619   7.014   8.796  18.913 -0.1587 -0.2992 -0.0778
  443BOLB   C4B10620   6.711   8.633  19.107  0.3645 -0.2729 -0.1847
  443BOLB   NC210621   4.782  10.169  20.863  0.1791  0.1759 -0.1501
  443BOLB   PO210622   4.867   9.683  20.884  0.1705  0.1708  0.0040
  443BOLB   GL310623   5.346   9.536  20.879 -0.1640 -0.0586  0.0549
  443BOLB   GL410624   5.399   9.591  20.580  0.0596  0.0536 -0.1634
  443BOLB   C1C10625   5.796   9.640  20.854 -0.1672  0.1129  0.0336
  443BOLB   C2C10626   6.101   9.434  20.789 -0.0422 -0.0078  0.2474
  443BOLB   C3C10627   6.391   9.308  20.516  0.1830 -0.2674  0.1109
  443BOLB   C4C10628   6.765   9.074  20.480  0.1141  0.1061  0.0321
  443BOLB   C1D10629   5.855   9.725  20.357 -0.1925 -0.2171 -0.0655
  443BOLB   C2D10630   6.054  10.012  20.022 -0.0730  0.2440 -0.0364
  443BOLB   C3D10631   6.080  10.157  19.627  0.3501 -0.1980  0.2381
  443BOLB   C4D10632   6.293  10.085  19.265 -0.1123  0.2126  0.2348
  444BOLB   NC110633  24.316  13.343  15.130 -0.0168 -0.3096 -0.1319
  444BOLB   PO110634  24.263  13.454  15.583  0.2186 -0.2497 -0.0262
  444BOLB   GL110635  24.637  13.586  15.430 -0.1047 -0.0865 -0.0059
  444BOLB   GL210636  24.701  13.727  15.125  0.2528  0.3314 -0.0488
  444BOLB   C1A10637  25.020  13.477  15.588  0.0999 -0.2538 -0.0524
  444BOLB   C2A10638  25.436  13.581  15.924  0.0882 -0.2476 -0.0425
  444BOLB   C3A10639  25.693  13.852  16.137  0.1031  0.1693  0.0708
  444BOLB   C4A10640  26.013  14.164  16.072 -0.2540  0.0114 -0.0772
  444BOLB   C1B10641  24.938  14.059  15.123  0.0341  0.0079  0.2202
  444BOLB   C2B10642  25.305  14.152  14.804  0.3221 -0.0224  0.1464
  444BOLB   C3B10643  25.504  14.210  14.413  0.2857 -0.1157  0.1544
  444BOLB   C4B10644  25.605  14.420  14.098  0.1783  0.1937 -0.0265
  444BOLB   NC210645  27.923  14.813  15.783  0.0669 -0.2975  0.2076
  444BOLB   PO210646  28.161  14.459  15.997 -0.0469  0.0862  0.1224
  444BOLB   GL310647  27.867  14.215  15.832  0.1574 -0.0841  0.2729
  444BOLB   GL410648  27.742  14.342  15.510  0.2348  0.0798 -0.1744
  444BOLB   C1C10649  27.426  14.184  15.963 -0.0891 -0.1118 -0.1930
  444BOLB   C2C10650  27.068  14.156  16.230  0.1466 -0.2113 -0.0997
  444BOLB   C3C10651  26.676  14.147  16.364 -0.2156  0.1201  0.1903
  444BOLB   C4C10652  26.396  14.076  16.197  0.1963  0.0480 -0.0562
  444BOLB   C1D10653  27.328  14.098  15.444 -0.2446  0.1025  0.1216
  444BOLB   C2D10654  27.052  13.973  15.008  0.2618  0.3023 -0.0868
  444BOLB   C3D10655  26.705  13.882  14.802  0.2730  0.0790  0.0520
  444BOLB   C4D10656  26.221  13.910  14.804 -0.0821 -0.2719 -0.3433
  445BOLB   NC110657  16.865  11.356   7.842  0.1351 -0.0118  0.5033
  445BOLB   PO110658  17.260  11.508   7.937 -0.1319  0.0795  0.3438
  445BOLB   GL110659  17.140  11.453   7.456  0.3118 -0.1369  0.1754
  445BOLB   GL210660  17.297  11.250   7.287  0.2703 -0.0485  0.0738
  445BOLB   C1A10661  17.124  11.742   7.127  0.1144  0.0305 -0.0112
  445BOLB   C2A10662  17.401  11.760   6.859  0.0002  0.0667  0.1633
  445BOLB   C3A10663  17.654  11.963   6.549 -0.2119 -0.0798 -0.1636
  445BOLB   C4A10664  17.787  12.158   6.317 -0.3654 -0.0811 -0.3287
  445BOLB   C1B10665  17.322  11.316   6.896 -0.2716  0.2873 -0.2513
  445BOLB   C2B10666  17.575  11.302   6.591  0.0089 -0.1302 -0.2041
  445BOLB   C3B10667  17.797  11.449   6.159 -0.0450  0.0427  0.2446
  445BOLB   C4B10668  18.199  11.624   6.013  0.0338  0.0707 -0.0625
  445BOLB   NC210669  19.087  12.775   3.948 -0.1730  0.0849  0.1922
  445BOLB   PO210670  18.736  12.878   4.287  0.0327  0.0439 -0.2746
  445BOLB   GL310671  18.454  12.979   4.596 -0.0152  0.0329 -0.1595
  445BOLB   GL410672  18.550  12.638   4.855  0.2291 -0.0331 -0.0167
  445BOLB   C1C10673  18.176  12.974   4.916 -0.1343  0.0986  0.0422
  445BOLB   C2C10674  17.894  12.682   5.169 -0.1245  0.1066 -0.1996
  445BOLB   C3C10675  17.814  12.574   5.628 -0.2021  0.0612  0.1877
  445BOLB   C4C10676  17.837  12.507   6.045  0.0854  0.0493 -0.1672
  445BOLB   C1D10677  18.277  12.277   5.090  0.2643 -0.0754  0.2453
  445BOLB   C2D10678  18.237  11.924   5.038 -0.4105 -0.1776 -0.1124
  445BOLB   C3D10679  18.477  11.634   5.168 -0.0172 -0.1503 -0.1156
  445BOLB   C4D10680  18.553  11.493   5.666  0.2566 -0.1802  0.1365
  446BOLB   NC110681   9.070  34.507   7.168  0.0709  0.0399  0.1942
  446BOLB   PO110682   9.284  34.424   7.479 -0.0931  0.0084  0.0533
  446BOLB   GL110683   9.284  34.450   7.918 -0.2132 -0.0750 -0.1717
  446BOLB   GL210684   9.046  34.241   8.070  0.1180  0.2654 -0.3081
  446BOLB   C1A10685   9.347  34.725   8.287  0.3650 -0.0679  0.0974
  446BOLB   C2A10686   9.615  34.905   8.525  0.1762  0.1424  0.0627
  446BOLB   C3A10687   9.759  35.153   8.799 -0.0080  0.0014 -0.0067
  446BOLB   C4A10688   9.667  35.510   8.876  0.1705  0.1176 -0.2516
  446BOLB   C1B10689   8.927  34.417   8.459 -0.2925 -0.2658 -0.0343
  446BOLB   C2B10690   9.068  34.672   8.730  0.1212  0.1644  0.3860
  446BOLB   C3B10691   9.288  35.028   8.891 -0.0781 -0.2411 -0.2606
  446BOLB   C4B10692   9.212  35.327   9.150  0.2258  0.1145 -0.2239
  446BOLB   NC210693   8.494  35.028   7.869  0.0761  0.2121  0.0519
  446BOLB   PO210694   8.548  34.985   7.420 -0.2613 -0.2415 -0.2877
  446BOLB   GL310695   8.788  35.341   7.514 -0.4686 -0.0895 -0.1403
  446BOLB   GL410696   9.071  35.372   7.460  0.2155 -0.2138 -0.0119
  446BOLB   C1C10697   8.893  35.512   7.954 -0.0560  0.3960 -0.0363
  446BOLB   C2C10698   8.813  35.565   8.376 -0.0077 -0.1003  0.0678
  446BOLB   C3C10699   8.968  35.673   8.808 -0.0136 -0.1408  0.3992
  446BOLB   C4C10700   9.349  35.812   8.905 -0.3141 -0.1620  0.1040
  446BOLB   C1D10701   9.147  35.820   7.606  0.0310 -0.4126  0.0056
  446BOLB   C2D10702   9.498  36.106   7.634  0.0288  0.1846  0.0501
  446BOLB   C3D10703   9.900  36.306   7.659 -0.0090  0.1509  0.0559
  446BOLB   C4D10704  10.310  36.025   7.860 -0.0764  0.0734 -0.0459
  447BOLB   NC110705  19.463   6.579  21.553  0.2170  0.0892 -0.1344
  447BOLB   PO110706  19.362   6.681  21.972  0.1267  0.3592  0.1418
  447BOLB   GL110707  19.475   6.474  22.326  0.2085  0.0372 -0.0006
  447BOLB   GL210708  19.187   6.368  22.556  0.0273  0.0560  0.0389
  447BOLB   C1A10709  19.628   6.172  22.499  0.1839  0.0420 -0.0638
  447BOLB   C2A10710  19.756   5.858  22.781  0.0107 -0.0223 -0.2357
  447BOLB   C3A10711  20.158   5.600  22.772 -0.1013  0.1340  0.0515
  447BOLB   C4A10712  20.475   5.424  23.054  0.0432 -0.1029 -0.1464
  447BOLB   C1B10713  19.339   6.268  22.979 -0.1815 -0.0619 -0.0799
  447BOLB   C2B10714  19.532   6.100  23.262  0.2182  0.0259 -0.4374
  447BOLB   C3B10715  19.723   6.039  23.733 -0.2096  0.1979  0.1787
  447BOLB   C4B10716  19.752   5.578  23.801 -0.1719  0.3580 -0.0867
  447BOLB   NC210717  21.328   4.167  25.217  0.2728 -0.1854 -0.1962
  447BOLB   PO210718  21.509   4.281  24.810 -0.3323  0.2235 -0.0033
  447BOLB   GL310719  21.298   4.360  24.530 -0.0330  0.3260  0.1623
  447BOLB   GL410720  21.276   4.202  24.238  0.0373  0.3025 -0.2047
  447BOLB   C1C10721  20.975   4.573  24.388 -0.2927 -0.0431  0.1403
  447BOLB   C2C10722  20.693   4.773  23.992 -0.1066 -0.1796 -0.1177
  447BOLB   C3C10723  20.581   5.095  23.775  0.1459 -0.0074 -0.2996
  447BOLB   C4C10724  20.495   5.055  23.417  0.0487  0.0609 -0.1842
  447BOLB   C1D10725  21.021   4.313  23.971 -0.1202 -0.1093 -0.0211
  447BOLB   C2D10726  21.059   4.567  23.627  0.0487  0.1755  0.1752
  447BOLB   C3D10727  21.164   4.721  23.177 -0.0261  0.1788  0.1194
  447BOLB   C4D10728  21.433   5.093  22.964 -0.1266  0.1444  0.2263
  448BOLB   NC110729  15.670   1.342  16.936  0.1061 -0.1003 -0.0568
  448BOLB   PO110730  15.832   1.605  17.139  0.4575  0.3309  0.0923
  448BOLB   GL110731  15.858   1.200  17.381 -0.1321 -0.0943 -0.2594
  448BOLB   GL210732  16.053   1.224  17.729 -0.0964  0.0307 -0.2902
  448BOLB   C1A10733  15.796   0.786  17.473 -0.2360  0.0011 -0.1216
  448BOLB   C2A10734  15.816   0.284  17.669  0.1889  0.3014  0.1884
  448BOLB   C3A10735  15.908  -0.090  17.400 -0.2285 -0.2926  0.3032
  448BOLB   C4A10736  15.699  -0.318  17.055 -0.6735  0.0768  0.3313
  448BOLB   C1B10737  15.812   0.936  17.999 -0.1649 -0.2281 -0.3393
  448BOLB   C2B10738  15.800   0.484  18.206  0.1231 -0.1971  0.0261
  448BOLB   C3B10739  16.118   0.267  18.211 -0.1259 -0.1055  0.0916
  448BOLB   C4B10740  16.368  -0.023  18.201  0.0377  0.3216 -0.0616
  448BOLB   NC210741  16.134  -2.023  18.876  0.0230  0.0169 -0.2092
  448BOLB   PO210742  15.785  -1.851  18.687  0.1335  0.1287  0.4004
  448BOLB   GL310743  15.500  -1.532  18.583  0.0531 -0.2828  0.2918
  448BOLB   GL410744  15.199  -1.319  18.725 -0.0566  0.1636  0.3179
  448BOLB   C1C10745  15.418  -1.461  18.110 -0.1620 -0.1539 -0.1935
  448BOLB   C2C10746  15.304  -1.275  17.685 -0.0348 -0.2747  0.3118
  448BOLB   C3C10747  15.474  -1.142  17.309  0.1815  0.1697 -0.5724
  448BOLB   C4C10748  15.566  -0.753  17.105  0.2754 -0.2802 -0.0447
  448BOLB   C1D10749  15.398  -1.052  18.489  0.1544  0.2310  0.2331
  448BOLB   C2D10750  15.328  -0.769  18.227  0.3154  0.0688  0.1786
  448BOLB   C3D10751  15.286  -0.639  17.823 -0.0925 -0.1476 -0.0646
  448BOLB   C4D10752  15.428  -0.435  17.431 -0.1920  0.0244  0.0919
  449BOLB   NC110753  24.287  11.533  16.187  0.1771  0.2975  0.2414
  449BOLB   PO110754  24.169  11.417  16.639  0.0560 -0.1231 -0.0724
  449BOLB   GL110755  24.630  11.458  16.710  0.0564 -0.0261  0.1695
  449BOLB   GL210756  24.729  11.806  16.590 -0.0142 -0.0682  0.0711
  449BOLB   C1A10757  25.072  11.242  16.826 -0.1888  0.3010  0.2113
  449BOLB   C2A10758  25.543  11.100  16.951 -0.0479 -0.2621  0.1288
  449BOLB   C3A10759  25.959  11.017  17.175  0.0151  0.1358  0.2345
  449BOLB   C4A10760  26.445  10.979  17.160 -0.0033 -0.2753 -0.0448
  449BOLB   C1B10761  25.041  11.959  16.783 -0.0093 -0.1104  0.1610
  449BOLB   C2B10762  25.415  11.879  16.769  0.0214 -0.2889 -0.1604
  449BOLB   C3B10763  25.819  12.000  16.567 -0.2254 -0.0457  0.2043
  449BOLB   C4B10764  26.201  12.137  16.358 -0.0613 -0.0460 -0.0253
  449BOLB   NC210765  28.372  11.969  15.144  0.0072  0.0049 -0.2055
  449BOLB   PO210766  28.408  11.565  15.423  0.0220 -0.1455  0.0989
  449BOLB   GL310767  28.101  11.430  15.738 -0.1053 -0.1759 -0.0565
  449BOLB   GL410768  28.300  11.556  15.998 -0.0840  0.0886  0.0679
  449BOLB   C1C10769  27.769  11.283  15.953  0.1623  0.1176  0.1619
  449BOLB   C2C10770  27.388  11.108  16.247  0.1647  0.1526 -0.0608
  449BOLB   C3C10771  27.044  10.995  16.548 -0.1396  0.1450  0.0197
  449BOLB   C4C10772  26.878  11.139  16.948 -0.1815 -0.3161 -0.3645
  449BOLB   C1D10773  27.958  11.826  16.163  0.0895  0.0127  0.1027
  449BOLB   C2D10774  27.544  11.768  15.920 -0.3146 -0.2765 -0.2432
  449BOLB   C3D10775  27.030  11.770  15.881 -0.3422  0.0429  0.3570
  449BOLB   C4D10776  26.622  11.911  16.016 -0.2880 -0.4048 -0.2295
  450BOLB   NC110777  10.801  15.292  12.071  0.0128 -0.0772 -0.1419
  450BOLB   PO110778  10.900  14.836  11.780 -0.0450  0.1091 -0.2302
  450BOLB   GL110779  10.909  15.178  11.468 -0.0034 -0.1285 -0.0998
  450BOLB   GL210780  10.609  15.307  11.607  0.1441  0.1176  0.0897
  450BOLB   C1A10781  10.689  15.367  11.100 -0.1517 -0.2161 -0.0867
  450BOLB   C2A10782  10.441  15.577  10.882 -0.1069  0.0985  0.1921
  450BOLB   C3A10783  10.272  15.599  10.420 -0.0697  0.0794 -0.1313
  450BOLB   C4A10784  10.187  15.563   9.993  0.0709  0.2680 -0.0041
  450BOLB   C1B10785  10.236  15.406  11.459 -0.2164 -0.0708 -0.0995
  450BOLB   C2B10786   9.928  15.579  11.168 -0.3147 -0.4744  0.0795
  450BOLB   C3B10787   9.899  15.587  10.788  0.0840  0.0363  0.2997
  450BOLB   C4B10788   9.744  15.599  10.330  0.0042 -0.2227 -0.1396
  450BOLB   NC210789   8.759  16.714   8.767 -0.0539  0.0182  0.1804
  450BOLB   PO210790   8.599  16.347   8.774  0.0382  0.0415  0.0881
  450BOLB   GL310791   8.758  16.062   9.104 -0.1389  0.0040  0.1050
  450BOLB   GL410792   8.487  15.774   9.126  0.1393  0.2182 -0.2327
  450BOLB   C1C10793   9.140  15.878   9.298 -0.0784 -0.0806  0.2008
  450BOLB   C2C10794   9.282  15.418   9.357 -0.3482  0.0291 -0.2354
  450BOLB   C3C10795   9.675  15.179   9.490 -0.1578 -0.1806 -0.2678
  450BOLB   C4C10796  10.092  15.425   9.515 -0.0780  0.1156  0.1668
  450BOLB   C1D10797   8.840  15.414   9.148 -0.0135 -0.4569 -0.3995
  450BOLB   C2D10798   8.899  15.202   9.477  0.2935  0.1314  0.0047
  450BOLB   C3D10799   9.203  15.010   9.692 -0.4261  0.1252 -0.1876
  450BOLB   C4D10800   9.308  14.758  10.065  0.1838 -0.0291 -0.2452
  451BOLB   NC110801  16.111  15.710   9.288  0.0686  0.1820  0.2251
  451BOLB   PO110802  16.515  15.422   9.327 -0.1843 -0.1468  0.0630
  451BOLB   GL110803  16.507  15.532   9.007 -0.2420 -0.4085 -0.3178
  451BOLB   GL210804  16.269  15.608   8.822  0.1337 -0.0849 -0.0133
  451BOLB   C1A10805  16.749  15.846   8.874  0.0471  0.2688 -0.0459
  451BOLB   C2A10806  16.832  16.047   8.508  0.2112 -0.1853 -0.0513
  451BOLB   C3A10807  17.251  16.131   8.221  0.2885  0.1307  0.0561
  451BOLB   C4A10808  17.506  16.524   8.084 -0.2629  0.0766 -0.1208
  451BOLB   C1B10809  16.372  16.145   8.818  0.2228  0.1415 -0.3713
  451BOLB   C2B10810  16.464  16.365   8.385  0.2115 -0.0796 -0.1871
  451BOLB   C3B10811  16.240  16.449   8.043 -0.1440 -0.2485 -0.0271
  451BOLB   C4B10812  15.983  16.488   7.678  0.0374 -0.1881 -0.1688
  451BOLB   NC210813  18.205  18.431   6.834 -0.0049  0.1567  0.3548
  451BOLB   PO210814  17.781  18.258   6.579  0.0159 -0.1631 -0.1511
  451BOLB   GL310815  17.994  17.973   6.916 -0.1177  0.0387  0.2624
  451BOLB   GL410816  17.698  17.735   6.917 -0.1955 -0.1271  0.1691
  451BOLB   C1C10817  17.956  17.899   7.376  0.0464  0.0582 -0.0975
  451BOLB   C2C10818  17.734  17.567   7.459  0.2779  0.1828  0.0182
  451BOLB   C3C10819  17.563  17.231   7.753 -0.2829  0.2648 -0.1906
  451BOLB   C4C10820  17.510  16.859   7.867 -0.0967  0.4701 -0.2854
  451BOLB   C1D10821  17.617  17.283   7.045 -0.2970  0.1793  0.1814
  451BOLB   C2D10822  17.575  16.904   7.198  0.0945  0.0379 -0.4311
  451BOLB   C3D10823  17.531  16.494   7.323 -0.1917  0.1683 -0.0957
  451BOLB   C4D10824  17.385  15.968   7.217  0.2950  0.1354 -0.0965
  452BOLB   NC110825  18.708   2.054  16.005 -0.0570  0.0554 -0.0911
  452BOLB   PO110826  19.136   2.067  15.851  0.0370  0.1398  0.0710
  452BOLB   GL110827  19.291   1.647  15.840 -0.0272 -0.1950 -0.1189
  452BOLB   GL210828  19.596   1.568  15.682 -0.0842 -0.1249 -0.0206
  452BOLB   C1A10829  19.430   1.263  16.079  0.1601 -0.0657 -0.2090
  452BOLB   C2A10830  19.505   0.880  16.007  0.2443  0.1128  0.2040
  452BOLB   C3A10831  19.848   0.630  16.083  0.0089  0.0657 -0.1379
  452BOLB   C4A10832  19.998   0.182  16.219  0.1982 -0.2702  0.0555
  452BOLB   C1B10833  19.445   1.320  15.469  0.1703  0.1776  0.2369
  452BOLB   C2B10834  19.608   1.046  15.402 -0.2025  0.1031  0.0560
  452BOLB   C3B10835  19.905   0.756  15.421  0.0995  0.0351  0.0081
  452BOLB   C4B10836  19.995   0.440  15.666 -0.0877  0.0783  0.0534
  452BOLB   NC210837  22.191  -1.578  16.484  0.0304 -0.0034  0.2035
  452BOLB   PO210838  21.779  -1.596  16.279  0.0803 -0.0612 -0.3305
  452BOLB   GL310839  21.820  -1.122  16.201 -0.2631  0.3546 -0.2971
  452BOLB   GL410840  21.994  -0.909  16.098 -0.0155  0.0959  0.0696
  452BOLB   C1C10841  21.454  -0.872  15.921 -0.1820 -0.0471  0.0993
  452BOLB   C2C10842  21.080  -0.505  16.009  0.1971 -0.1592  0.0898
  452BOLB   C3C10843  20.673  -0.296  15.920 -0.2757  0.2030 -0.2585
  452BOLB   C4C10844  20.246  -0.212  16.118  0.1124 -0.1019  0.0411
  452BOLB   C1D10845  21.783  -0.501  16.054 -0.2032  0.1038  0.0068
  452BOLB   C2D10846  21.478  -0.178  15.859  0.0232 -0.0296 -0.1781
  452BOLB   C3D10847  21.126   0.181  15.745 -0.1769  0.1026  0.2176
  452BOLB   C4D10848  20.720   0.305  16.002  0.0133  0.0170 -0.1135
  453BOLB   NC110849  13.367  16.037  11.001 -0.0288  0.0466  0.1045
  453BOLB   PO110850  13.231  15.986  10.582 -0.1136 -0.2278 -0.1209
  453BOLB   GL110851  13.366  16.357  10.153  0.0943 -0.0282  0.2211
  453BOLB   GL210852  13.659  16.116   9.931  0.0827  0.1188  0.2154
  453BOLB   C1A10853  13.707  16.568   9.913 -0.2102 -0.0761 -0.1217
  453BOLB   C2A10854  13.765  16.853   9.591 -0.1528  0.0648 -0.0413
  453BOLB   C3A10855  13.464  17.041   9.281  0.0977  0.1732 -0.3429
  453BOLB   C4A10856  13.380  17.319   9.045  0.1489  0.2908  0.1393
  453BOLB   C1B10857  13.610  16.236   9.523  0.0670 -0.2133  0.3161
  453BOLB   C2B10858  13.579  16.437   9.113  0.1285 -0.0284 -0.0568
  453BOLB   C3B10859  13.853  16.498   8.721 -0.0180  0.0247 -0.1917
  453BOLB   C4B10860  13.593  16.342   8.338 -0.0213  0.0274  0.0097
  453BOLB   NC210861  12.008  19.782   8.922  0.0817 -0.1816  0.0779
  453BOLB   PO210862  11.989  19.378   9.169  0.0734 -0.3081  0.0615
  453BOLB   GL310863  12.039  18.961   9.287  0.0348  0.1046  0.5086
  453BOLB   GL410864  11.883  18.810   9.479  0.0246 -0.0640  0.2456
  453BOLB   C1C10865  12.359  18.640   9.226  0.1644 -0.0383  0.3042
  453BOLB   C2C10866  12.677  18.283   9.242 -0.1089  0.2164  0.4945
  453BOLB   C3C10867  13.055  17.997   9.092 -0.0622  0.0060  0.1147
  453BOLB   C4C10868  13.265  17.662   9.039  0.1296  0.0296  0.0766
  453BOLB   C1D10869  12.116  18.507   9.677 -0.0992 -0.1241  0.0292
  453BOLB   C2D10870  12.378  18.230   9.946 -0.1718  0.2155  0.0700
  453BOLB   C3D10871  12.612  17.962  10.098 -0.0431  0.4584  0.0441
  453BOLB   C4D10872  12.912  17.858  10.432  0.1513  0.0793  0.1876
  454BOLB   NC110873   8.452   9.356  17.370  0.0809  0.1929 -0.0369
  454BOLB   PO110874   8.332   9.631  17.710 -0.4128 -0.0064  0.0280
  454BOLB   GL110875   8.070   9.811  17.807  0.1176  0.3071  0.0849
  454BOLB   GL210876   7.805   9.816  17.604  0.0952  0.0353 -0.0158
  454BOLB   C1A10877   7.593   9.801  18.140 -0.0068  0.1011 -0.2045
  454BOLB   C2A10878   7.225   9.890  18.226 -0.1772  0.1206  0.2335
  454BOLB   C3A10879   6.866   9.964  18.283  0.0204  0.1500 -0.0839
  454BOLB   C4A10880   6.547  10.186  18.269 -0.1701 -0.2448  0.0917
  454BOLB   C1B10881   7.345   9.822  17.673 -0.1706 -0.1668  0.3182
  454BOLB   C2B10882   6.974   9.575  17.588 -0.2945  0.2376 -0.1343
  454BOLB   C3B10883   6.641   9.271  17.732  0.0959 -0.0494  0.1013
  454BOLB   C4B10884   6.333   9.233  18.050 -0.3848 -0.0941  0.4960
  454BOLB   NC210885   4.201  10.020  19.041 -0.3235 -0.4292  0.0319
  454BOLB   PO210886   4.369  10.451  18.978 -0.2608  0.0073 -0.2562
  454BOLB   GL310887   4.669  10.076  18.898 -0.2057  0.1662 -0.1306
  454BOLB   GL410888   4.965  10.264  19.103  0.3400 -0.3226 -0.1976
  454BOLB   C1C10889   4.959   9.927  18.629 -0.1761  0.2749  0.3850
  454BOLB   C2C10890   5.287   9.785  18.490 -0.2173  0.1102  0.2087
  454BOLB   C3C10891   5.683   9.907  18.228  0.1377  0.1011 -0.0680
  454BOLB   C4C10892   6.118  10.106  18.138  0.0631 -0.0545 -0.1298
  454BOLB   C1D10893   5.373  10.043  19.023  0.1371  0.2476 -0.1971
  454BOLB   C2D10894   5.604   9.903  18.923  0.2386  0.1762 -0.1003
  454BOLB   C3D10895   5.778   9.628  18.637 -0.1321  0.0159 -0.0692
  454BOLB   C4D10896   6.164   9.613  18.275  0.3408  0.0720  0.0056
  455BOLB   NC110897  17.041   7.206  22.793  0.0300 -0.5150 -0.1096
  455BOLB   PO110898  17.030   7.570  23.044 -0.0073  0.0454  0.0481
  455BOLB   GL110899  16.865   7.470  23.366  0.2204  0.1767  0.1598
  455BOLB   GL210900  16.704   7.719  23.587 -0.0062  0.0939  0.1351
  455BOLB   C1A10901  16.894   7.022  23.598  0.1889 -0.0564  0.0231
  455BOLB   C2A10902  16.871   6.974  23.978  0.1340 -0.3765  0.0782
  455BOLB   C3A10903  16.960   6.848  24.364  0.2842  0.1356  0.0065
  455BOLB   C4A10904  16.858   6.446  24.705  0.1296  0.1074 -0.1512
  455BOLB   C1B10905  16.755   7.558  23.910  0.0116  0.0103  0.0398
  455BOLB   C2B10906  16.616   7.326  24.278  0.0327 -0.0716  0.3057
  455BOLB   C3B10907  16.550   7.025  24.617  0.0768  0.2465 -0.0585
  455BOLB   C4B10908  16.390   6.710  24.779 -0.0635 -0.0012  0.1048
  455BOLB   NC210909  17.788   4.572  26.245 -0.0102  0.0561  0.1648
  455BOLB   PO210910  17.432   4.605  26.320  0.2584 -0.1334 -0.1243
  455BOLB   GL310911  17.427   5.080  26.169  0.0701 -0.2145  0.0480
  455BOLB   GL410912  17.662   5.061  26.151  0.1538  0.0965 -0.1339
  455BOLB   C1C10913  17.106   5.229  25.860 -0.1094 -0.0062 -0.0229
  455BOLB   C2C10914  16.902   5.426  25.448 -0.1316  0.1736  0.1044
  455BOLB   C3C10915  17.024   5.691  25.041 -0.0135 -0.0792 -0.0283
  455BOLB   C4C10916  17.034   6.097  24.928  0.0875 -0.3644  0.2804
  455BOLB   C1D10917  17.634   5.296  25.768 -0.1300 -0.0430  0.0710
  455BOLB   C2D10918  17.892   5.492  25.357  0.4416  0.1262  0.0827
  455BOLB   C3D10919  17.966   5.545  24.924  0.1201 -0.2351 -0.1031
  455BOLB   C4D10920  18.333   5.512  24.627  0.0232 -0.0739 -0.2214
  456BOLB   NC110921  13.838  17.010  19.253  0.2311  0.0865  0.1817
  456BOLB   PO110922  13.607  17.035  19.623  0.0143  0.0378  0.1493
  456BOLB   GL110923  13.290  17.388  19.634  0.0295 -0.6118  0.2621
  456BOLB   GL210924  13.304  17.765  19.657  0.0988 -0.0368  0.1991
  456BOLB   C1A10925  12.852  17.646  19.648  0.3049  0.1968 -0.1581
  456BOLB   C2A10926  12.575  17.848  19.992  0.3038  0.1158 -0.3335
  456BOLB   C3A10927  12.284  18.059  20.265  0.1409  0.1039  0.2771
  456BOLB   C4A10928  11.946  18.379  20.343 -0.0583 -0.0902 -0.1389
  456BOLB   C1B10929  13.021  18.098  19.837 -0.2011 -0.0083  0.1107
  456BOLB   C2B10930  12.803  18.467  19.695 -0.0167 -0.3350 -0.1415
  456BOLB   C3B10931  12.555  18.783  19.570  0.1720  0.1147 -0.1524
  456BOLB   C4B10932  12.378  19.136  19.711  0.2071  0.1910 -0.0406
  456BOLB   NC210933  10.945  19.900  21.601  0.2207 -0.2345  0.1047
  456BOLB   PO210934  11.027  20.328  21.499  0.2999 -0.3396  0.2207
  456BOLB   GL310935  11.384  20.033  21.306  0.3705  0.4003 -0.1978
  456BOLB   GL410936  11.225  19.813  21.206  0.2650 -0.0210  0.2103
  456BOLB   C1C10937  11.749  19.746  21.244  0.0419  0.0075 -0.2632
  456BOLB   C2C10938  12.080  19.459  21.142  0.2519 -0.1387 -0.2188
  456BOLB   C3C10939  12.039  19.033  21.040  0.2545 -0.0703  0.5606
  456BOLB   C4C10940  11.921  18.761  20.650  0.0164  0.3141  0.0003
  456BOLB   C1D10941  11.408  19.512  20.980  0.1838 -0.3581 -0.1083
  456BOLB   C2D10942  11.721  19.381  20.784 -0.0573  0.0880  0.0355
  456BOLB   C3D10943  11.783  19.234  20.279  0.2289 -0.0669  0.1753
  456BOLB   C4D10944  12.018  18.833  20.015 -0.0229  0.2087  0.0086
  457BOLB   NC110945  13.956  17.778  15.029 -0.2393 -0.0088 -0.0486
  457BOLB   PO110946  13.966  18.119  14.920  0.1333  0.1535 -0.1447
  457BOLB   GL110947  13.560  18.442  14.726 -0.2875 -0.2543  0.1781
  457BOLB   GL210948  13.229  18.557  14.785  0.1208 -0.0664 -0.0442
  457BOLB   C1A10949  13.453  18.878  14.522  0.0786  0.0992 -0.3359
  457BOLB   C2A10950  13.347  19.048  14.045  0.0678  0.2107 -0.1128
  457BOLB   C3A10951  13.057  19.294  13.771 -0.0883 -0.4296 -0.2212
  457BOLB   C4A10952  12.736  19.502  13.668  0.0588  0.2480 -0.2726
  457BOLB   C1B10953  13.223  19.001  14.953  0.0351 -0.0946  0.1290
  457BOLB   C2B10954  13.065  19.290  15.218 -0.3266 -0.2138  0.1095
  457BOLB   C3B10955  12.896  19.653  15.260 -0.1210 -0.3978  0.0724
  457BOLB   C4B10956  12.674  20.053  15.340  0.0100  0.2735  0.4028
  457BOLB   NC210957  11.639  21.657  14.223  0.0702  0.1158  0.1724
  457BOLB   PO210958  11.930  21.914  13.982  0.0162 -0.0418 -0.2825
  457BOLB   GL310959  12.023  21.394  14.034  0.1738 -0.1702 -0.2393
  457BOLB   GL410960  12.124  21.463  14.312 -0.0270 -0.0354 -0.1736
  457BOLB   C1C10961  12.063  20.964  13.904 -0.2463 -0.1611 -0.1642
  457BOLB   C2C10962  12.245  20.597  13.689  0.1137 -0.1511  0.4104
  457BOLB   C3C10963  12.400  20.322  13.486 -0.1412  0.0764 -0.1871
  457BOLB   C4C10964  12.511  19.890  13.521  0.0892  0.2414 -0.0061
  457BOLB   C1D10965  12.025  21.180  14.551 -0.0599 -0.2773  0.0741
  457BOLB   C2D10966  12.261  20.823  14.723  0.0523  0.2926  0.1425
  457BOLB   C3D10967  12.156  20.378  14.957 -0.1840 -0.1051 -0.1332
  457BOLB   C4D10968  11.913  20.117  15.164  0.1092  0.2568  0.2260
  458BOLB   NC110969  17.306  16.685  21.375 -0.0161  0.1235  0.1124
  458BOLB   PO110970  17.515  16.396  21.663 -0.3578 -0.2824  0.4204
  458BOLB   GL110971  17.448  16.555  22.021  0.0179  0.3491 -0.0196
  458BOLB   GL210972  17.140  16.641  22.213 -0.1158 -0.1701  0.0077
  458BOLB   C1A10973  17.682  16.680  22.367  0.0713 -0.0862 -0.0037
  458BOLB   C2A10974  17.667  17.090  22.552 -0.1391  0.4026  0.1233
  458BOLB   C3A10975  17.666  17.476  22.762 -0.0591 -0.0281 -0.0986
  458BOLB   C4A10976  17.697  17.878  23.085  0.3331  0.0824 -0.1371
  458BOLB   C1B10977  17.191  16.928  22.565 -0.0439 -0.0022  0.2597
  458BOLB   C2B10978  17.376  17.054  22.994 -0.0139  0.0121 -0.2290
  458BOLB   C3B10979  17.444  17.299  23.351  0.2048 -0.2713 -0.0765
  458BOLB   C4B10980  17.669  17.620  23.479  0.1198  0.0238 -0.0473
  458BOLB   NC210981  17.024  19.864  24.725 -0.0310 -0.3707 -0.0205
  458BOLB   PO210982  17.194  19.875  24.223 -0.1254 -0.0526  0.1751
  458BOLB   GL310983  17.373  19.601  24.082  0.0604  0.0368  0.2478
  458BOLB   GL410984  17.337  19.352  24.232 -0.3768  0.1552 -0.1402
  458BOLB   C1C10985  17.679  19.299  23.870 -0.0240 -0.3818  0.4160
  458BOLB   C2C10986  17.729  19.036  23.555  0.1806 -0.0771 -0.0892
  458BOLB   C3C10987  17.880  18.700  23.343  0.1749  0.0737 -0.0453
  458BOLB   C4C10988  17.781  18.295  23.151 -0.3543 -0.1575  0.0087
  458BOLB   C1D10989  17.153  19.237  23.839  0.0816  0.3150 -0.2008
  458BOLB   C2D10990  16.779  19.286  23.655  0.0876  0.1042 -0.1416
  458BOLB   C3D10991  16.512  19.624  23.445  0.0097  0.1155  0.0919
  458BOLB   C4D10992  16.578  20.057  23.179  0.2002  0.0304  0.0052
  459BOLB   NC110993  15.315   9.118  22.997 -0.0600  0.1707  0.3222
  459BOLB   PO110994  15.021   9.050  23.416  0.3687  0.0200  0.0518
  459BOLB   GL110995  14.726   8.770  23.700  0.0774 -0.3010 -0.3710
  459BOLB   GL210996  14.743   8.458  23.821  0.0430  0.0730  0.2313
  459BOLB   C1A10997  14.527   8.820  24.230 -0.1802 -0.1046  0.1631
  459BOLB   C2A10998  14.556   8.550  24.585  0.1435 -0.3708  0.1533
  459BOLB   C3A10999  14.374   8.655  24.967 -0.0782 -0.0890  0.2597
  459BOLB   C4A11000  14.089   8.699  25.345  0.1008  0.0841 -0.3628
  459BOLB   C1B11001  14.456   8.318  24.174 -0.1578 -0.2018  0.2512
  459BOLB   C2B11002  14.022   8.138  24.274  0.0717 -0.2580 -0.0982
  459BOLB   C3B11003  13.667   7.961  24.515  0.0578  0.0142 -0.2503
  459BOLB   C4B11004  13.208   7.697  24.791  0.0894 -0.1470 -0.0960
  459BOLB   NC211005  12.745   8.286  26.875  0.0339 -0.0651 -0.1143
  459BOLB   PO211006  13.147   8.179  26.845 -0.0624  0.1151  0.0828
  459BOLB   GL311007  13.343   8.284  26.465  0.0348 -0.0301  0.0521
  459BOLB   GL411008  13.584   8.360  26.319  0.1480  0.4293  0.0035
  459BOLB   C1C11009  13.217   8.671  26.208  0.0195  0.1081 -0.1944
  459BOLB   C2C11010  13.347   9.038  26.004  0.0335  0.0284  0.0685
  459BOLB   C3C11011  13.501   9.024  25.632 -0.0143 -0.0333 -0.1589
  459BOLB   C4C11012  13.628   8.755  25.359  0.2767  0.2336  0.3161
  459BOLB   C1D11013  13.820   8.141  25.987 -0.2716 -0.3009 -0.0597
  459BOLB   C2D11014  14.214   8.186  25.756 -0.0777  0.1618  0.4593
  459BOLB   C3D11015  14.176   8.095  25.366  0.2324 -0.0240  0.2580
  459BOLB   C4D11016  13.841   7.894  25.211 -0.1558  0.0562  0.0141
  460BOLB   NC111017  22.854  15.946  14.863 -0.0071 -0.1925 -0.1063
  460BOLB   PO111018  22.688  15.861  14.539  0.2354  0.4149 -0.0975
  460BOLB   GL111019  23.083  15.970  14.343 -0.0212 -0.2601 -0.1260
  460BOLB   GL211020  22.973  16.266  14.477 -0.0457 -0.2668  0.1093
  460BOLB   C1A11021  23.470  16.147  14.365 -0.1243 -0.0903 -0.3957
  460BOLB   C2A11022  23.587  16.457  14.152 -0.2788 -0.0304  0.0385
  460BOLB   C3A11023  23.621  16.526  13.730 -0.0914 -0.0374  0.1067
  460BOLB   C4A11024  23.773  16.686  13.372 -0.2568 -0.2002 -0.1967
  460BOLB   C1B11025  22.806  16.666  14.450  0.5476 -0.3098 -0.1885
  460BOLB   C2B11026  23.130  16.912  14.281  0.0597 -0.1201  0.1329
  460BOLB   C3B11027  23.393  16.952  13.932 -0.1833  0.0708  0.3211
  460BOLB   C4B11028  23.763  17.135  13.635  0.0375 -0.0013 -0.1554
  460BOLB   NC211029  25.226  17.266  11.771  0.0324  0.1871 -0.0310
  460BOLB   PO211030  25.560  16.916  12.008  0.1866 -0.2897  0.0884
  460BOLB   GL311031  25.234  16.686  12.165  0.1060  0.2220 -0.2543
  460BOLB   GL411032  24.809  16.654  12.058  0.2612  0.2576 -0.3409
  460BOLB   C1C11033  24.938  16.643  12.545 -0.3434 -0.1658  0.1510
  460BOLB   C2C11034  24.600  16.658  12.797  0.1290 -0.0591 -0.3071
  460BOLB   C3C11035  24.196  16.735  12.746 -0.0298 -0.0184 -0.1997
  460BOLB   C4C11036  23.887  16.900  13.039 -0.0271 -0.0409  0.3340
  460BOLB   C1D11037  24.494  16.526  12.364  0.0020  0.0272 -0.1483
  460BOLB   C2D11038  24.322  16.215  12.642 -0.0818  0.1907 -0.2506
  460BOLB   C3D11039  24.620  16.122  13.066  0.3419  0.0242  0.1501
  460BOLB   C4D11040  24.791  15.724  13.210 -0.1353  0.0388 -0.0986
  461BOLB   NC111041   4.432  36.064  11.190  0.0217  0.2671 -0.2273
  461BOLB   PO111042   4.778  35.789  10.980  0.0315 -0.1677 -0.2222
  461BOLB   GL111043   5.132  35.792  11.182  0.2887  0.1490 -0.0188
  461BOLB   GL211044   5.456  35.791  11.069  0.0424  0.1428  0.0108
  461BOLB   C1A11045   5.479  35.777  11.559 -0.0804  0.2237 -0.0665
  461BOLB   C2A11046   5.807  35.970  11.765 -0.0080  0.0791  0.1758
  461BOLB   C3A11047   6.047  36.323  11.892  0.0481  0.4358 -0.0152
  461BOLB   C4A11048   6.219  36.669  11.898 -0.0541 -0.1593 -0.1419
  461BOLB   C1B11049   5.884  35.891  11.217 -0.3594  0.0622  0.0136
  461BOLB   C2B11050   6.219  36.118  11.474  0.0464  0.1363  0.0315
  461BOLB   C3B11051   6.578  36.299  11.753  0.0517  0.1482 -0.1277
  461BOLB   C4B11052   7.020  36.394  11.754  0.1373 -0.1157  0.1572
  461BOLB   NC211053   4.292  36.647  11.355  0.1757 -0.0168  0.1379
  461BOLB   PO211054   4.424  36.515  10.939  0.3185  0.1669  0.2719
  461BOLB   GL311055   4.586  36.883  10.970 -0.2741  0.2115  0.2250
  461BOLB   GL411056   4.808  36.882  10.805  0.0212 -0.1149 -0.1203
  461BOLB   C1C11057   4.774  37.186  11.191 -0.1982 -0.0852  0.0133
  461BOLB   C2C11058   5.114  37.133  11.497 -0.1318 -0.0526  0.2412
  461BOLB   C3C11059   5.451  36.971  11.854 -0.0679  0.0548 -0.0163
  461BOLB   C4C11060   5.902  37.048  11.891 -0.4092 -0.2535  0.0911
  461BOLB   C1D11061   5.177  36.999  10.931 -0.0351 -0.4541 -0.0066
  461BOLB   C2D11062   5.515  37.159  10.685  0.0186 -0.0803  0.4036
  461BOLB   C3D11063   5.904  37.486  10.721 -0.3459  0.1056 -0.1852
  461BOLB   C4D11064   5.891  37.838  10.681  0.2986 -0.4497 -0.4455
  462BOLB   NC111065   5.888  17.432  17.756  0.2873  0.0659  0.0225
  462BOLB   PO111066   6.210  17.671  17.527  0.0720  0.0970 -0.0401
  462BOLB   GL111067   6.373  17.312  17.564  0.0105 -0.2365  0.0685
  462BOLB   GL211068   6.257  16.980  17.478 -0.1374 -0.2130  0.1767
  462BOLB   C1A11069   6.783  17.116  17.512 -0.2182  0.1104 -0.0291
  462BOLB   C2A11070   7.070  16.807  17.431 -0.0537 -0.0119  0.1969
  462BOLB   C3A11071   7.434  16.792  17.077  0.1374  0.4971 -0.1159
  462BOLB   C4A11072   7.670  16.883  16.745  0.1753  0.0968 -0.1475
  462BOLB   C1B11073   6.590  16.653  17.289  0.0261  0.2260  0.0066
  462BOLB   C2B11074   6.979  16.612  16.942  0.0583  0.2725 -0.1026
  462BOLB   C3B11075   7.098  16.841  16.671  0.0244  0.1754  0.0199
  462BOLB   C4B11076   6.891  17.181  16.676  0.2861  0.2824 -0.0213
  462BOLB   NC211077   6.429  17.629  14.933 -0.1466  0.2331  0.1018
  462BOLB   PO211078   6.911  17.652  15.021  0.3486 -0.2753  0.1483
  462BOLB   GL311079   7.357  17.616  15.200  0.3078 -0.1892  0.3116
  462BOLB   GL411080   7.568  17.488  14.953  0.1272 -0.2378 -0.3415
  462BOLB   C1C11081   7.679  17.379  15.495 -0.1714 -0.2249 -0.1108
  462BOLB   C2C11082   7.916  16.996  15.633 -0.3187  0.2221  0.0313
  462BOLB   C3C11083   7.985  16.882  16.015 -0.2690 -0.0144 -0.0561
  462BOLB   C4C11084   7.915  16.913  16.428 -0.0747 -0.0491  0.3391
  462BOLB   C1D11085   7.808  17.272  14.547  0.1707 -0.0431  0.0350
  462BOLB   C2D11086   8.233  17.122  14.474 -0.0162 -0.1479 -0.1377
  462BOLB   C3D11087   8.453  17.107  14.857  0.0655  0.0837 -0.0809
  462BOLB   C4D11088   8.894  17.321  14.992  0.1659 -0.1461  0.0383
  463BOLB   NC111089  13.721  16.528  11.197 -0.0701  0.0800 -0.0833
  463BOLB   PO111090  13.729  16.484  10.815  0.0777 -0.0669 -0.0921
  463BOLB   GL111091  13.383  16.741  10.631 -0.1275  0.2737  0.1257
  463BOLB   GL211092  13.164  16.444  10.565  0.0381  0.1783 -0.4113
  463BOLB   C1A11093  13.293  16.789  10.229  0.1128  0.0304 -0.1231
  463BOLB   C2A11094  13.416  16.996   9.872  0.6462 -0.3807 -0.0478
  463BOLB   C3A11095  13.719  17.429   9.785  0.1836  0.1584 -0.2117
  463BOLB   C4A11096  13.572  17.788   9.729 -0.0688 -0.0568 -0.3584
  463BOLB   C1B11097  12.816  16.710  10.328 -0.0353 -0.1979  0.0264
  463BOLB   C2B11098  12.593  16.996  10.099  0.1638 -0.3649 -0.1768
  463BOLB   C3B11099  12.208  16.725   9.930  0.0818  0.0036 -0.0393
  463BOLB   C4B11100  11.777  16.728   9.709  0.0376 -0.5873 -0.0123
  463BOLB   NC211101  12.273  19.225   8.414  0.0534 -0.1385 -0.0972
  463BOLB   PO211102  12.128  19.636   8.484 -0.1372  0.1021 -0.3079
  463BOLB   GL311103  12.483  19.457   8.876  0.1995 -0.1167 -0.0263
  463BOLB   GL411104  12.754  19.573   8.999  0.4801  0.0201  0.1228
  463BOLB   C1C11105  12.669  19.046   9.090  0.3194 -0.3685 -0.0495
  463BOLB   C2C11106  12.914  18.730   9.331 -0.2520 -0.0604 -0.1546
  463BOLB   C3C11107  13.134  18.451   9.299 -0.3649  0.0326  0.2271
  463BOLB   C4C11108  13.387  18.055   9.582 -0.1609  0.0590  0.5075
  463BOLB   C1D11109  13.065  19.343   9.105  0.0659 -0.0902  0.1056
  463BOLB   C2D11110  13.378  18.969   9.358 -0.1789  0.0560  0.1681
  463BOLB   C3D11111  13.621  18.575   9.430 -0.1168  0.3558  0.0381
  463BOLB   C4D11112  13.712  18.136   9.205 -0.0648 -0.0846  0.1705
  464BOLB   NC111113  21.146  16.990  17.314  0.2461 -0.0456 -0.0125
  464BOLB   PO111114  21.351  17.408  17.558  0.1555  0.2240 -0.3011
  464BOLB   GL111115  21.746  17.596  17.700  0.1077 -0.1623 -0.0180
  464BOLB   GL211116  21.849  17.440  18.006 -0.3075 -0.3624  0.2575
  464BOLB   C1A11117  22.031  17.909  17.733 -0.2893  0.1257  0.1609
  464BOLB   C2A11118  22.231  18.278  17.862 -0.0246  0.2610 -0.0049
  464BOLB   C3A11119  22.530  18.487  18.143  0.2937  0.0957  0.0137
  464BOLB   C4A11120  22.942  18.767  18.342 -0.0464 -0.3609  0.1575
  464BOLB   C1B11121  21.981  17.834  18.217 -0.3147 -0.1121 -0.1723
  464BOLB   C2B11122  21.828  18.176  18.332  0.1082 -0.0214 -0.1821
  464BOLB   C3B11123  21.996  18.549  18.615 -0.1067 -0.1046 -0.1543
  464BOLB   C4B11124  21.909  19.001  18.485 -0.0650  0.1040  0.2004
  464BOLB   NC211125  24.076  19.125  20.405  0.0503  0.0603  0.3145
  464BOLB   PO211126  23.886  19.557  20.206 -0.0828 -0.1088  0.1755
  464BOLB   GL311127  23.520  19.249  20.007  0.1658  0.3457  0.1303
  464BOLB   GL411128  23.806  19.041  20.024 -0.0003 -0.1618 -0.0538
  464BOLB   C1C11129  23.385  19.190  19.655  0.0298 -0.1102 -0.2294
  464BOLB   C2C11130  23.433  19.272  19.201 -0.0434 -0.2079  0.1464
  464BOLB   C3C11131  23.164  19.304  18.788 -0.2586 -0.1580  0.1269
  464BOLB   C4C11132  22.986  19.132  18.480 -0.0346 -0.1351  0.0470
  464BOLB   C1D11133  23.701  18.757  19.793  0.1784  0.1837  0.1844
  464BOLB   C2D11134  23.527  18.416  19.586  0.0083  0.0578 -0.0207
  464BOLB   C3D11135  23.266  18.255  19.412 -0.2047 -0.4760 -0.0902
  464BOLB   C4D11136  23.428  17.974  19.068 -0.1748  0.2522  0.0510
  465BOLB   NC111137  21.447  10.334  22.141 -0.0181 -0.2747 -0.0324
  465BOLB   PO111138  21.532   9.970  22.319  0.0257 -0.2542 -0.0959
  465BOLB   GL111139  21.747   9.857  22.674 -0.4224 -0.2665  0.4470
  465BOLB   GL211140  21.714  10.142  22.802 -0.2682 -0.1978  0.0916
  465BOLB   C1A11141  21.908   9.775  23.025 -0.3148  0.1648 -0.3305
  465BOLB   C2A11142  21.926   9.494  23.440  0.3830  0.2422  0.1592
  465BOLB   C3A11143  22.101   9.086  23.536  0.1307 -0.0949 -0.0931
  465BOLB   C4A11144  22.316   8.836  23.586  0.1952  0.1270 -0.1894
  465BOLB   C1B11145  21.973  10.232  23.177  0.0358  0.2973  0.0403
  465BOLB   C2B11146  21.963  10.097  23.483 -0.0366 -0.2640 -0.1131
  465BOLB   C3B11147  21.821  10.023  23.917 -0.0268 -0.2085  0.2280
  465BOLB   C4B11148  21.575   9.898  24.218  0.4241 -0.1438  0.1727
  465BOLB   NC211149  24.390   8.702  25.294  0.0639  0.1216 -0.0831
  465BOLB   PO211150  24.123   8.945  25.100 -0.0055  0.0609  0.3101
  465BOLB   GL311151  23.733   8.903  24.936 -0.0593  0.0070 -0.3375
  465BOLB   GL411152  23.741   8.809  24.614  0.0407  0.1028  0.1335
  465BOLB   C1C11153  23.285   8.828  24.720  0.0601  0.0916  0.1547
  465BOLB   C2C11154  23.103   8.765  24.403  0.2686  0.1489  0.0801
  465BOLB   C3C11155  22.871   8.694  23.983 -0.1153  0.2692  0.0485
  465BOLB   C4C11156  22.587   8.558  23.667 -0.0312  0.1305  0.1050
  465BOLB   C1D11157  23.608   8.961  24.281  0.0608  0.0196 -0.1353
  465BOLB   C2D11158  23.485   9.266  24.024 -0.1402 -0.1909  0.0858
  465BOLB   C3D11159  23.756   9.508  23.744  0.0955 -0.1188 -0.1858
  465BOLB   C4D11160  23.766   9.866  23.537  0.1713  0.0571 -0.2661
  466BOLB   NC111161  19.833   2.208  12.536  0.0196  0.1394  0.3005
  466BOLB   PO111162  19.361   2.045  12.686 -0.3658 -0.2169 -0.0204
  466BOLB   GL111163  19.550   1.729  12.822  0.2372 -0.1746  0.1130
  466BOLB   GL211164  19.350   1.403  12.846  0.4588 -0.1642  0.1211
  466BOLB   C1A11165  19.936   1.611  12.559  0.2051  0.1679  0.3596
  466BOLB   C2A11166  20.214   1.491  12.244 -0.0080  0.3234 -0.0881
  466BOLB   C3A11167  20.386   1.420  11.881 -0.1590 -0.0742 -0.4099
  466BOLB   C4A11168  20.368   1.222  11.560 -0.1395  0.1722  0.1386
  466BOLB   C1B11169  19.330   0.961  12.652 -0.1310  0.0458  0.1365
  466BOLB   C2B11170  19.636   0.573  12.657  0.2149  0.1205 -0.1142
  466BOLB   C3B11171  20.033   0.251  12.715  0.1717 -0.0781 -0.1046
  466BOLB   C4B11172  20.553   0.169  12.604  0.1254  0.1251  0.0069
  466BOLB   NC211173  20.585  -0.973  10.178  0.0246 -0.3464 -0.1850
  466BOLB   PO211174  20.508  -0.996  10.615 -0.1491  0.1685 -0.0517
  466BOLB   GL311175  20.225  -0.621  10.637 -0.0082 -0.0006  0.3215
  466BOLB   GL411176  19.946  -0.618  10.895  0.0707  0.3602  0.2185
  466BOLB   C1C11177  20.325  -0.263  10.675  0.1485  0.2084  0.1942
  466BOLB   C2C11178  20.398   0.034  11.034 -0.0768 -0.1740  0.1030
  466BOLB   C3C11179  20.248   0.440  11.223  0.0051 -0.0442 -0.5018
  466BOLB   C4C11180  20.331   0.914  11.280 -0.0741 -0.0051 -0.0881
  466BOLB   C1D11181  19.967  -0.200  11.044 -0.0082  0.2727 -0.2610
  466BOLB   C2D11182  20.028   0.034  11.436  0.3067 -0.2565  0.0260
  466BOLB   C3D11183  19.754   0.315  11.570 -0.6180  0.2511 -0.4756
  466BOLB   C4D11184  19.456   0.542  11.566 -0.2267  0.0980  0.0039
  467BOLB   NC111185  16.644  12.313  23.737  0.0089  0.0802 -0.1915
  467BOLB   PO111186  16.632  12.689  23.833  0.2543  0.0011  0.0387
  467BOLB   GL111187  16.518  12.768  24.099  0.3372 -0.1763  0.1766
  467BOLB   GL211188  16.256  12.993  24.056 -0.1361  0.1432 -0.1420
  467BOLB   C1A11189  16.502  12.854  24.440  0.2244 -0.2890  0.1486
  467BOLB   C2A11190  16.286  13.076  24.771 -0.2058 -0.1491 -0.2140
  467BOLB   C3A11191  16.072  13.277  25.090 -0.2684  0.0600  0.1014
  467BOLB   C4A11192  15.831  13.477  25.378 -0.2575 -0.1863 -0.0236
  467BOLB   C1B11193  15.938  12.995  24.298 -0.2673 -0.0563 -0.1398
  467BOLB   C2B11194  15.760  13.067  24.721 -0.1100  0.0436 -0.4977
  467BOLB   C3B11195  15.613  13.332  24.922 -0.0132  0.0255  0.1700
  467BOLB   C4B11196  15.775  13.673  24.886  0.3124  0.2097  0.1040
  467BOLB   NC211197  15.386  13.535  27.797 -0.2353  0.1146 -0.0559
  467BOLB   PO211198  15.814  13.594  27.724 -0.0487 -0.0080 -0.2396
  467BOLB   GL311199  15.811  13.318  27.303  0.0205  0.0504  0.1871
  467BOLB   GL411200  15.549  13.088  27.383 -0.1789  0.4544 -0.1038
  467BOLB   C1C11201  15.511  13.443  26.941 -0.0235  0.1250  0.0390
  467BOLB   C2C11202  15.522  13.684  26.625 -0.0168 -0.0900 -0.1109
  467BOLB   C3C11203  15.462  13.698  26.081 -0.0638  0.0018 -0.0251
  467BOLB   C4C11204  15.539  13.602  25.764 -0.0927 -0.0631 -0.2660
  467BOLB   C1D11205  15.705  12.942  26.992  0.2667  0.3647  0.0064
  467BOLB   C2D11206  15.648  12.739  26.561 -0.2127 -0.1439 -0.2629
  467BOLB   C3D11207  15.267  12.614  26.263  0.0158 -0.2108 -0.3174
  467BOLB   C4D11208  14.906  12.600  26.159  0.2798 -0.1495  0.0420
  468BOLB   NC111209  19.232  18.168  16.830  0.1009  0.1241 -0.1464
  468BOLB   PO111210  19.551  18.005  17.110 -0.2836  0.0695 -0.2429
  468BOLB   GL111211  19.824  18.333  17.321 -0.2235  0.1004  0.0497
  468BOLB   GL211212  19.863  18.145  17.695 -0.0406 -0.0805 -0.0927
  468BOLB   C1A11213  19.811  18.748  17.519  0.0338 -0.1613  0.2030
  468BOLB   C2A11214  19.624  19.173  17.261  0.0759  0.3605 -0.1186
  468BOLB   C3A11215  19.754  19.445  17.157  0.0778  0.4212  0.3844
  468BOLB   C4A11216  19.915  19.868  17.016  0.0249 -0.0385 -0.2053
  468BOLB   C1B11217  20.190  18.423  17.662 -0.1386 -0.0897 -0.2567
  468BOLB   C2B11218  20.605  18.499  17.717  0.1132 -0.0570 -0.0460
  468BOLB   C3B11219  21.077  18.606  17.687  0.0996  0.1932  0.2748
  468BOLB   C4B11220  21.438  18.751  17.748 -0.4745 -0.0937 -0.1128
  468BOLB   NC211221  21.188  21.886  17.926  0.2767 -0.1141  0.0010
  468BOLB   PO211222  21.595  21.804  17.538 -0.1046 -0.1585  0.0194
  468BOLB   GL311223  21.240  21.511  17.597  0.0359  0.0588  0.3359
  468BOLB   GL411224  21.200  21.251  17.732  0.0716  0.1992 -0.0559
  468BOLB   C1C11225  21.028  21.294  17.277 -0.1407 -0.1975  0.0268
  468BOLB   C2C11226  20.651  21.037  17.112  0.3010 -0.2847  0.0045
  468BOLB   C3C11227  20.521  20.594  17.008 -0.0436  0.1682 -0.1432
  468BOLB   C4C11228  20.262  20.202  16.940 -0.0269 -0.1219 -0.1630
  468BOLB   C1D11229  21.276  20.832  17.445  0.1785  0.2170  0.4373
  468BOLB   C2D11230  21.112  20.829  16.947 -0.1165 -0.0832  0.1729
  468BOLB   C3D11231  21.064  20.497  16.578 -0.0714  0.0629  0.1203
  468BOLB   C4D11232  20.900  20.337  16.207  0.1880 -0.0381 -0.0822
  469BOLB   NC111233  23.679  11.609  18.061  0.3884  0.0440 -0.0153
  469BOLB   PO111234  23.578  11.513  18.442 -0.0991  0.3677  0.0189
  469BOLB   GL111235  23.976  11.584  18.476  0.0635  0.1179 -0.1074
  469BOLB   GL211236  24.310  11.834  18.384  0.1171 -0.4362  0.0053
  469BOLB   C1A11237  24.421  11.407  18.512 -0.2418 -0.2606  0.1409
  469BOLB   C2A11238  24.830  11.182  18.517  0.0514  0.1287 -0.1941
  469BOLB   C3A11239  25.142  10.922  18.736 -0.1724 -0.2560 -0.1943
  469BOLB   C4A11240  25.542  10.735  18.833  0.1358 -0.0999  0.0108
  469BOLB   C1B11241  24.742  11.788  18.477 -0.2741 -0.0020  0.2053
  469BOLB   C2B11242  25.154  11.521  18.720 -0.1033  0.0268 -0.0107
  469BOLB   C3B11243  25.562  11.377  18.778 -0.0463  0.0050  0.0734
  469BOLB   C4B11244  25.913  11.228  18.843 -0.0058 -0.5922 -0.2281
  469BOLB   NC211245  28.139  10.096  19.420 -0.2760  0.0989  0.1079
  469BOLB   PO211246  27.832  10.330  19.461  0.1210 -0.0199 -0.2734
  469BOLB   GL311247  27.436  10.179  19.304 -0.2642 -0.1022  0.2830
  469BOLB   GL411248  27.478   9.941  19.078  0.0537  0.2490  0.0924
  469BOLB   C1C11249  26.995  10.219  19.309 -0.0265  0.0587 -0.0402
  469BOLB   C2C11250  26.679  10.494  19.275 -0.1028 -0.0077 -0.2919
  469BOLB   C3C11251  26.406  10.739  19.015  0.0518  0.1183 -0.1495
  469BOLB   C4C11252  25.920  10.763  18.997 -0.0879 -0.0662 -0.4279
  469BOLB   C1D11253  27.210   9.750  19.293 -0.1592  0.0431 -0.0529
  469BOLB   C2D11254  26.792   9.576  19.341  0.1516  0.0269  0.0965
  469BOLB   C3D11255  26.451   9.533  19.233 -0.1248 -0.1386  0.0670
  469BOLB   C4D11256  26.102   9.721  19.089  0.2195  0.0161  0.0711
  470BOLB   NC111257  18.265  10.561  23.621  0.1050 -0.0901  0.2573
  470BOLB   PO111258  17.887  10.417  23.701  0.1779  0.2037  0.1503
  470BOLB   GL111259  17.576  10.273  24.022 -0.0288 -0.1398 -0.0240
  470BOLB   GL211260  17.675  10.443  24.322  0.0305  0.0491 -0.0880
  470BOLB   C1A11261  17.423  10.026  24.456  0.0943  0.2180 -0.1319
  470BOLB   C2A11262  17.133  10.036  24.734  0.0552 -0.0530  0.1577
  470BOLB   C3A11263  17.277  10.097  25.134 -0.2126 -0.3354  0.0142
  470BOLB   C4A11264  17.579  10.372  25.286 -0.0373 -0.1099 -0.1558
  470BOLB   C1B11265  17.632  10.959  24.537 -0.1055  0.1732  0.2138
  470BOLB   C2B11266  17.569  11.134  24.939 -0.1318  0.1789  0.1508
  470BOLB   C3B11267  17.565  11.517  25.220  0.2000  0.1160 -0.2385
  470BOLB   C4B11268  17.736  11.807  25.639 -0.2212  0.0737 -0.0804
  470BOLB   NC211269  18.148   9.293  27.453 -0.2351  0.0783  0.1105
  470BOLB   PO211270  17.744   9.239  27.609 -0.3118  0.3412 -0.0429
  470BOLB   GL311271  17.609   9.300  27.201  0.2571  0.1356 -0.3061
  470BOLB   GL411272  17.890   9.225  26.888  0.1670 -0.2016 -0.0848
  470BOLB   C1C11273  17.518   9.661  26.913  0.1676  0.1752 -0.0822
  470BOLB   C2C11274  17.246   9.812  26.540  0.1668  0.3724  0.1599
  470BOLB   C3C11275  17.418  10.187  26.192  0.1371 -0.0436  0.2284
  470BOLB   C4C11276  17.635  10.296  25.757 -0.2183 -0.2230  0.2738
  470BOLB   C1D11277  17.906   9.636  26.617 -0.0283 -0.1810 -0.5223
  470BOLB   C2D11278  17.699   9.763  26.229 -0.0271  0.2450 -0.2127
  470BOLB   C3D11279  17.628   9.798  25.809  0.1169  0.1724 -0.0198
  470BOLB   C4D11280  17.243   9.704  25.506  0.1039  0.0733 -0.1112
  471BOLB   NC111281  21.489   4.160  17.707 -0.1377 -0.3201  0.1569
  471BOLB   PO111282  21.611   4.192  18.111  0.3016  0.0153 -0.5495
  471BOLB   GL111283  21.777   3.927  18.334  0.0565  0.1297  0.3473
  471BOLB   GL211284  21.886   4.130  18.623 -0.1259  0.3093  0.0532
  471BOLB   C1A11285  22.078   3.744  18.414 -0.3437  0.0054 -0.0685
  471BOLB   C2A11286  22.504   3.611  18.447 -0.2900 -0.0268 -0.1028
  471BOLB   C3A11287  22.825   3.786  18.439  0.0676 -0.1763 -0.1880
  471BOLB   C4A11288  23.273   3.748  18.338 -0.1590 -0.3528  0.0804
  471BOLB   C1B11289  22.177   3.923  18.893 -0.1273  0.0036  0.0968
  471BOLB   C2B11290  22.563   3.651  18.910 -0.1382  0.0064  0.0451
  471BOLB   C3B11291  22.941   3.583  18.908 -0.0199  0.2019 -0.0584
  471BOLB   C4B11292  23.316   3.710  18.843 -0.2434 -0.0743 -0.2344
  471BOLB   NC211293  25.746   3.032  19.225  0.2422 -0.2224  0.0817
  471BOLB   PO211294  25.441   2.835  19.085  0.3317  0.1029 -0.2870
  471BOLB   GL311295  25.046   3.077  19.113 -0.3789  0.1546  0.0972
  471BOLB   GL411296  24.991   3.479  19.289  0.0577  0.2248  0.1023
  471BOLB   C1C11297  24.658   3.269  18.850 -0.1207 -0.0301  0.4279
  471BOLB   C2C11298  24.289   3.587  18.757  0.3238  0.0165  0.3405
  471BOLB   C3C11299  24.147   3.734  18.370  0.2974 -0.2363  0.2697
  471BOLB   C4C11300  23.732   3.870  18.463  0.1262  0.0979  0.2327
  471BOLB   C1D11301  24.728   3.800  19.479 -0.1219 -0.1920 -0.3124
  471BOLB   C2D11302  24.327   3.720  19.554  0.0319 -0.0656  0.0891
  471BOLB   C3D11303  23.873   3.835  19.712 -0.1572  0.2544  0.0875
  471BOLB   C4D11304  23.983   4.330  19.731 -0.3407 -0.1761  0.0264
  472BOLB   NC111305  22.077  11.963  10.900  0.1593 -0.0514 -0.4929
  472BOLB   PO111306  22.191  11.752  11.261  0.1039 -0.0014 -0.1581
  472BOLB   GL111307  22.550  11.630  11.019 -0.1956  0.1092 -0.0774
  472BOLB   GL211308  22.899  11.624  11.235  0.0194  0.2423 -0.0695
  472BOLB   C1A11309  23.035  11.653  10.710  0.0440  0.0619 -0.1097
  472BOLB   C2A11310  23.396  11.794  10.604  0.2492 -0.0084  0.2075
  472BOLB   C3A11311  23.728  11.838  10.400  0.0069 -0.1617  0.0141
  472BOLB   C4A11312  24.024  11.557  10.106 -0.0862  0.2216 -0.2232
  472BOLB   C1B11313  23.060  11.970  11.135  0.0232 -0.1246 -0.0566
  472BOLB   C2B11314  23.459  12.007  11.051  0.4286  0.0592 -0.0041
  472BOLB   C3B11315  23.791  12.042  10.871 -0.3426 -0.1654  0.0226
  472BOLB   C4B11316  24.240  12.154  10.794 -0.2571 -0.2763 -0.0792
  472BOLB   NC211317  25.823  11.009   8.530  0.0198 -0.2751  0.0445
  472BOLB   PO211318  25.433  10.935   8.191  0.0282 -0.2124 -0.3926
  472BOLB   GL311319  25.236  10.991   8.627 -0.2360  0.3319 -0.1491
  472BOLB   GL411320  25.039  11.196   8.475 -0.0916  0.0440 -0.2027
  472BOLB   C1C11321  25.107  10.872   9.124  0.2226 -0.0714  0.0470
  472BOLB   C2C11322  24.868  10.956   9.581 -0.0959 -0.1733  0.0610
  472BOLB   C3C11323  24.677  10.985   9.934 -0.2084 -0.0740 -0.0138
  472BOLB   C4C11324  24.223  11.081   9.950 -0.0381  0.2297 -0.1613
  472BOLB   C1D11325  24.733  11.112   8.817  0.1696  0.3459 -0.1780
  472BOLB   C2D11326  24.614  11.046   9.180  0.5422  0.2461 -0.0209
  472BOLB   C3D11327  24.380  10.845   9.539 -0.0464  0.0599 -0.0299
  472BOLB   C4D11328  23.968  10.778   9.591  0.0494  0.2084 -0.4582
  473BOLB   NC111329  13.519  13.068   9.138  0.0242  0.1518 -0.2186
  473BOLB   PO111330  13.442  13.180   8.730  0.0442 -0.1550  0.0214
  473BOLB   GL111331  13.170  13.422   8.351 -0.2109  0.3627 -0.2944
  473BOLB   GL211332  13.385  13.337   7.990 -0.0971  0.0578  0.2681
  473BOLB   C1A11333  12.968  13.588   8.034 -0.0842  0.2085  0.2297
  473BOLB   C2A11334  12.711  13.655   7.614 -0.2728  0.0952  0.1398
  473BOLB   C3A11335  12.451  13.656   7.206 -0.0856  0.3079 -0.0555
  473BOLB   C4A11336  12.173  13.457   7.007  0.2083  0.0958  0.1878
  473BOLB   C1B11337  12.921  13.187   7.735 -0.0382  0.1811  0.0479
  473BOLB   C2B11338  12.632  12.831   7.578 -0.2455 -0.0459  0.1865
  473BOLB   C3B11339  12.339  12.558   7.650  0.3217  0.0187  0.0093
  473BOLB   C4B11340  12.210  12.241   7.449  0.0218  0.1071  0.1880
  473BOLB   NC211341  11.560  14.895   5.199  0.4459  0.4091  0.3247
  473BOLB   PO211342  11.506  15.154   5.536 -0.0106  0.0364 -0.1658
  473BOLB   GL311343  11.565  14.836   5.669  0.5234 -0.2219 -0.1175
  473BOLB   GL411344  11.270  14.850   5.856 -0.0534  0.2015 -0.0982
  473BOLB   C1C11345  11.657  14.630   6.028 -0.2643 -0.0674 -0.3481
  473BOLB   C2C11346  11.681  14.234   6.290  0.1628  0.0225  0.2400
  473BOLB   C3C11347  11.634  13.956   6.579  0.2147  0.1392 -0.0468
  473BOLB   C4C11348  11.887  13.633   6.682  0.0985 -0.2838 -0.0698
  473BOLB   C1D11349  11.434  15.003   6.211 -0.1787 -0.2465  0.3210
  473BOLB   C2D11350  11.537  15.048   6.620 -0.1209 -0.2345  0.6226
  473BOLB   C3D11351  11.302  14.795   6.922  0.0835 -0.0803  0.4340
  473BOLB   C4D11352  11.435  14.661   7.374 -0.1491 -0.0479 -0.0433
  474BOLB   NC111353  10.284  16.310  17.344 -0.0793  0.2110  0.0518
  474BOLB   PO111354  10.164  16.250  16.942  0.1359  0.1134 -0.0436
  474BOLB   GL111355   9.790  16.156  17.073 -0.1791 -0.0943  0.2143
  474BOLB   GL211356   9.652  16.258  17.461  0.1340  0.2360 -0.1474
  474BOLB   C1A11357   9.407  16.184  16.857 -0.2740  0.1822  0.0070
  474BOLB   C2A11358   9.086  16.289  16.794  0.2319 -0.3354  0.3129
  474BOLB   C3A11359   8.914  16.589  16.505  0.0981 -0.1903 -0.4421
  474BOLB   C4A11360   8.845  17.011  16.633 -0.2155  0.3913 -0.0268
  474BOLB   C1B11361   9.418  16.522  17.779 -0.2697 -0.3188 -0.3065
  474BOLB   C2B11362   9.196  16.843  17.951 -0.0909  0.0525  0.0206
  474BOLB   C3B11363   9.125  17.383  18.071  0.0870  0.1118 -0.5460
  474BOLB   C4B11364   8.946  17.678  18.148  0.1282  0.3465  0.0934
  474BOLB   NC211365   7.346  18.973  17.217  0.0950  0.4161 -0.0908
  474BOLB   PO211366   7.347  18.889  16.797  0.2239  0.1160  0.3846
  474BOLB   GL311367   7.496  18.539  16.682  0.2548  0.0160  0.2011
  474BOLB   GL411368   7.535  18.209  16.689  0.2925  0.1563  0.0418
  474BOLB   C1C11369   7.979  18.460  16.738 -0.0408 -0.0248 -0.3034
  474BOLB   C2C11370   8.306  18.119  16.705  0.1196  0.5129  0.1348
  474BOLB   C3C11371   8.657  17.785  16.685  0.1213  0.0847 -0.1134
  474BOLB   C4C11372   8.868  17.437  16.535  0.1407  0.0948  0.0684
  474BOLB   C1D11373   7.845  18.004  16.417 -0.0754  0.0789  0.2454
  474BOLB   C2D11374   8.253  17.753  16.364 -0.3246  0.0916  0.2067
  474BOLB   C3D11375   8.357  17.412  16.681 -0.3917  0.1692 -0.1059
  474BOLB   C4D11376   8.339  16.956  16.771  0.1836  0.1494  0.3095
  475BOLB   NC111377  18.856  13.787  22.872 -0.2006 -0.1424 -0.0871
  475BOLB   PO111378  19.214  14.029  22.658  0.0605  0.1471  0.1938
  475BOLB   GL111379  19.599  13.891  22.879  0.2152  0.0822 -0.4037
  475BOLB   GL211380  19.705  14.127  22.798 -0.0984  0.2033  0.3495
  475BOLB   C1A11381  19.694  14.027  23.301  0.0398  0.0770  0.0446
  475BOLB   C2A11382  19.750  14.486  23.438 -0.0496  0.1324  0.0197
  475BOLB   C3A11383  19.961  14.714  23.840  0.3089  0.2957 -0.0218
  475BOLB   C4A11384  19.972  14.395  24.251  0.0217  0.1086 -0.3115
  475BOLB   C1B11385  19.950  14.429  22.977  0.0606  0.0518 -0.2035
  475BOLB   C2B11386  20.209  14.677  23.304 -0.0916 -0.2219 -0.4026
  475BOLB   C3B11387  20.691  14.568  23.491 -0.0760  0.1924 -0.1876
  475BOLB   C4B11388  21.021  14.670  23.492 -0.5778  0.2675 -0.1115
  475BOLB   NC211389  21.220  14.842  26.183  0.1872  0.2766 -0.0698
  475BOLB   PO211390  20.777  14.832  26.277 -0.0557  0.1232 -0.0683
  475BOLB   GL311391  20.787  14.503  26.021  0.0759  0.2247 -0.1999
  475BOLB   GL411392  20.681  14.204  26.075  0.1432 -0.1643  0.3680
  475BOLB   C1C11393  20.807  14.423  25.585  0.1263 -0.1644 -0.0075
  475BOLB   C2C11394  20.548  14.472  25.114  0.1538 -0.0070 -0.1209
  475BOLB   C3C11395  20.431  14.114  24.909  0.0807 -0.2065  0.0832
  475BOLB   C4C11396  20.156  14.090  24.424 -0.0907  0.2680 -0.0826
  475BOLB   C1D11397  20.362  14.156  25.651  0.2107 -0.1214  0.1860
  475BOLB   C2D11398  20.044  14.137  25.545 -0.0759  0.0603 -0.0665
  475BOLB   C3D11399  19.770  13.855  25.398 -0.3326  0.0331  0.0205
  475BOLB   C4D11400  19.475  13.628  25.435 -0.0539  0.0425  0.2344
  476BOLB   NC111401  18.976   9.615   8.542 -0.0134 -0.1570 -0.0257
  476BOLB   PO111402  19.111   9.455   8.847  0.0363  0.3883  0.2114
  476BOLB   GL111403  19.498   9.541   8.568  0.0608 -0.2389 -0.0798
  476BOLB   GL211404  19.527   9.310   8.244 -0.0893  0.3913 -0.1732
  476BOLB   C1A11405  19.555   9.847   8.204  0.0058  0.2636 -0.2650
  476BOLB   C2A11406  19.523  10.003   7.793  0.3217 -0.0366 -0.1604
  476BOLB   C3A11407  19.424  10.040   7.413  0.3317  0.0307  0.1489
  476BOLB   C4A11408  19.708  10.025   7.044  0.0651  0.3735 -0.3981
  476BOLB   C1B11409  19.525   9.454   7.845 -0.0941 -0.0369 -0.2842
  476BOLB   C2B11410  19.793   9.645   7.497  0.3302 -0.2329  0.0065
  476BOLB   C3B11411  20.188   9.893   7.316 -0.0661  0.1409  0.0343
  476BOLB   C4B11412  20.609   9.854   7.203 -0.1082  0.3356 -0.1140
  476BOLB   NC211413  20.740  10.474   5.167 -0.0440  0.1205  0.0650
  476BOLB   PO211414  20.433  10.701   4.948 -0.0653 -0.1744  0.2829
  476BOLB   GL311415  20.217  10.777   5.302  0.0916  0.1509  0.2049
  476BOLB   GL411416  20.488  10.637   5.542  0.0872  0.0711 -0.2253
  476BOLB   C1C11417  19.995  10.602   5.579 -0.0611 -0.1181  0.2857
  476BOLB   C2C11418  19.873  10.586   6.086  0.0419  0.1255  0.1155
  476BOLB   C3C11419  19.873  10.476   6.524  0.2065 -0.0273  0.1973
  476BOLB   C4C11420  19.959  10.274   6.917  0.1329  0.1506 -0.2878
  476BOLB   C1D11421  20.303  10.375   5.901  0.1680 -0.0476 -0.0995
  476BOLB   C2D11422  20.281  10.622   6.451  0.0743 -0.1173 -0.0942
  476BOLB   C3D11423  20.478  10.762   6.817 -0.0201  0.2041  0.1376
  476BOLB   C4D11424  20.610  10.763   7.297  0.2673 -0.0735 -0.0070
  477BOLB   NC111425  22.599  12.752  20.886 -0.0315 -0.1299 -0.0278
  477BOLB   PO111426  22.735  12.563  20.704 -0.0296 -0.0129  0.0807
  477BOLB   GL111427  22.929  12.608  21.215  0.1221 -0.0285  0.1393
  477BOLB   GL211428  23.056  12.885  21.179  0.1412 -0.1669 -0.1494
  477BOLB   C1A11429  23.235  12.531  21.482  0.1588  0.2054 -0.2937
  477BOLB   C2A11430  23.537  12.451  21.693 -0.1784  0.2104 -0.3857
  477BOLB   C3A11431  23.882  12.328  21.886 -0.5453 -0.1770  0.1453
  477BOLB   C4A11432  24.274  12.434  22.067  0.2559 -0.1449 -0.1206
  477BOLB   C1B11433  23.364  13.240  20.989  0.2002 -0.0099 -0.0603
  477BOLB   C2B11434  23.781  13.393  20.959 -0.1314 -0.0216 -0.2226
  477BOLB   C3B11435  23.995  13.448  20.608 -0.1316 -0.3428  0.0005
  477BOLB   C4B11436  24.155  13.525  20.192  0.2445 -0.1210 -0.0141
  477BOLB   NC211437  25.793  13.479  22.911  0.2151 -0.0806  0.1895
  477BOLB   PO211438  26.022  13.161  23.010  0.1317 -0.2037 -0.0411
  477BOLB   GL311439  25.804  13.032  22.599  0.1479 -0.1120  0.1142
  477BOLB   GL411440  26.138  12.876  22.581 -0.2403 -0.2120  0.0713
  477BOLB   C1C11441  25.622  13.050  22.319  0.0729 -0.3832 -0.0387
  477BOLB   C2C11442  25.277  12.866  22.123 -0.0585 -0.1752 -0.0749
  477BOLB   C3C11443  25.046  12.530  22.080 -0.0499 -0.2108  0.0747
  477BOLB   C4C11444  24.652  12.537  22.147 -0.1057 -0.0477 -0.1104
  477BOLB   C1D11445  25.834  12.485  22.340 -0.0678  0.1401 -0.0538
  477BOLB   C2D11446  25.515  12.376  22.179  0.1409 -0.2187  0.1143
  477BOLB   C3D11447  25.457  11.946  21.866  0.3802  0.1924  0.1356
  477BOLB   C4D11448  25.316  11.855  21.446 -0.0462  0.0215  0.0429
  478BOLB   NC111449  13.240  16.623  20.386  0.0653 -0.1285 -0.0082
  478BOLB   PO111450  13.675  16.795  20.572 -0.0333  0.1515 -0.0247
  478BOLB   GL111451  13.313  16.994  20.672 -0.1711  0.3200 -0.0266
  478BOLB   GL211452  13.313  17.172  20.991 -0.1020  0.3351  0.0599
  478BOLB   C1A11453  13.048  17.330  20.636  0.0591 -0.0792 -0.1458
  478BOLB   C2A11454  12.831  17.628  20.924 -0.0759  0.1201  0.2316
  478BOLB   C3A11455  12.673  18.076  21.139 -0.1748  0.2365  0.2019
  478BOLB   C4A11456  12.232  18.009  21.146 -0.1736  0.0385 -0.3339
  478BOLB   C1B11457  13.278  17.650  21.151 -0.2036  0.2759 -0.1847
  478BOLB   C2B11458  13.227  17.965  21.459  0.0298 -0.0505  0.1047
  478BOLB   C3B11459  12.954  18.326  21.475 -0.1894 -0.3869  0.3364
  478BOLB   C4B11460  12.529  18.359  21.531 -0.1826 -0.1719 -0.3304
  478BOLB   NC211461  11.195  19.539  22.749  0.2783 -0.3609 -0.4872
  478BOLB   PO211462  10.950  19.141  22.890 -0.0356  0.2322  0.1963
  478BOLB   GL311463  11.295  18.886  22.602  0.2062  0.0566  0.4072
  478BOLB   GL411464  11.201  18.541  22.662 -0.2982  0.1164 -0.0385
  478BOLB   C1C11465  11.340  18.822  22.238 -0.1406  0.0236 -0.0703
  478BOLB   C2C11466  11.488  18.495  21.901  0.3504 -0.1315 -0.2086
  478BOLB   C3C11467  11.499  18.355  21.493 -0.2380  0.1027 -0.1753
  478BOLB   C4C11468  11.825  18.114  21.243 -0.1597  0.5179  0.1098
  478BOLB   C1D11469  11.613  18.450  22.515 -0.0358 -0.1275  0.2961
  478BOLB   C2D11470  11.852  18.102  22.171  0.1591  0.0140 -0.2323
  478BOLB   C3D11471  12.300  18.081  21.964 -0.2628  0.2071  0.3651
  478BOLB   C4D11472  12.255  17.980  21.636 -0.0214  0.1040 -0.1486
  479BOLB   NC111473  24.435  10.301  16.480 -0.0746  0.0909  0.1910
  479BOLB   PO111474  24.370   9.899  16.287 -0.0465 -0.3224  0.1175
  479BOLB   GL111475  24.801   9.984  16.281  0.2692 -0.4751 -0.0454
  479BOLB   GL211476  24.930  10.324  16.258  0.0457  0.2120  0.1314
  479BOLB   C1A11477  25.159   9.918  16.478  0.0130  0.1936 -0.0855
  479BOLB   C2A11478  25.559   9.908  16.495  0.1680 -0.3240 -0.1208
  479BOLB   C3A11479  25.958   9.895  16.674 -0.1167 -0.1759  0.1975
  479BOLB   C4A11480  26.048   9.563  17.024  0.1071 -0.1782 -0.0484
  479BOLB   C1B11481  25.378  10.413  16.400  0.3155 -0.3091 -0.1664
  479BOLB   C2B11482  25.771  10.552  16.536  0.1457 -0.4274  0.1980
  479BOLB   C3B11483  26.222  10.749  16.403  0.0988 -0.0921 -0.0524
  479BOLB   C4B11484  26.636  10.737  16.542 -0.0539 -0.0090  0.1534
  479BOLB   NC211485  28.387  10.230  16.870 -0.0035 -0.1104  0.0563
  479BOLB   PO211486  28.231  10.398  17.312  0.1185  0.0587  0.0712
  479BOLB   GL311487  27.988  10.059  17.340 -0.1635  0.1649 -0.0846
  479BOLB   GL411488  27.977   9.984  17.036  0.3974 -0.0898 -0.1232
  479BOLB   C1C11489  27.639   9.694  17.469  0.0028  0.2556  0.2149
  479BOLB   C2C11490  27.338   9.459  17.240  0.1041  0.1958 -0.0486
  479BOLB   C3C11491  26.867   9.599  17.197  0.1859 -0.0565 -0.1160
  479BOLB   C4C11492  26.426   9.387  17.175  0.0408 -0.1527  0.0135
  479BOLB   C1D11493  27.565   9.761  16.820 -0.0488  0.1201 -0.0156
  479BOLB   C2D11494  27.121   9.590  16.798 -0.0157 -0.1545  0.2792
  479BOLB   C3D11495  26.784   9.650  16.598  0.2722  0.1057 -0.1637
  479BOLB   C4D11496  26.436   9.924  16.328 -0.2309  0.0157 -0.0610
  480BOLB   NC111497  10.071  15.301  16.775 -0.0692  0.2280  0.0434
  480BOLB   PO111498   9.716  15.634  16.879 -0.2483 -0.1618 -0.1062
  480BOLB   GL111499   9.380  15.802  17.151 -0.2078  0.0456 -0.1260
  480BOLB   GL211500   9.383  15.679  17.392  0.2061 -0.1556 -0.1189
  480BOLB   C1A11501   9.149  16.205  17.295 -0.1279 -0.1122 -0.1294
  480BOLB   C2A11502   9.097  16.594  17.404  0.0682  0.1950 -0.2694
  480BOLB   C3A11503   9.083  17.057  17.405  0.3951  0.3077 -0.3018
  480BOLB   C4A11504   8.709  17.335  17.651 -0.2542  0.2293 -0.2158
  480BOLB   C1B11505   8.989  15.819  17.531 -0.1679  0.1002 -0.0153
  480BOLB   C2B11506   8.674  15.775  17.811  0.1731  0.0327  0.0749
  480BOLB   C3B11507   8.416  15.756  18.197 -0.2638 -0.1040  0.2146
  480BOLB   C4B11508   8.495  15.448  18.518  0.0091  0.0031 -0.0862
  480BOLB   NC211509   6.978  17.503  19.384 -0.0836 -0.0747  0.2017
  480BOLB   PO211510   6.804  17.405  18.956 -0.0868 -0.6364 -0.3302
  480BOLB   GL311511   7.240  17.463  18.922 -0.0279 -0.2471  0.1435
  480BOLB   GL411512   7.507  17.570  19.216  0.1052  0.0661  0.4813
  480BOLB   C1C11513   7.622  17.490  18.713  0.1040 -0.4416  0.1511
  480BOLB   C2C11514   7.929  17.554  18.375  0.1354 -0.0912  0.3615
  480BOLB   C3C11515   7.955  17.499  17.960 -0.3682 -0.3229 -0.4044
  480BOLB   C4C11516   8.286  17.519  17.682  0.3162  0.0265  0.1510
  480BOLB   C1D11517   7.646  17.197  19.122 -0.0594  0.3498 -0.1319
  480BOLB   C2D11518   7.912  17.083  18.809  0.1266 -0.0772  0.0947
  480BOLB   C3D11519   8.223  17.134  18.478  0.0689 -0.1905  0.1232
  480BOLB   C4D11520   8.537  17.081  18.066 -0.2473  0.1547  0.1213
  481BOLB   NC111521  20.675   9.394  22.257 -0.2065  0.1942  0.0282
  481BOLB   PO111522  20.638   9.604  22.569 -0.1558 -0.1595 -0.1390
  481BOLB   GL111523  20.468   9.405  23.057 -0.1623  0.1520  0.1955
  481BOLB   GL211524  20.768   9.258  23.194 -0.0304  0.0550  0.1222
  481BOLB   C1A11525  20.404   9.237  23.486  0.0300  0.0956 -0.1761
  481BOLB   C2A11526  20.589   9.084  23.727 -0.1410  0.0488  0.1493
  481BOLB   C3A11527  20.862   8.836  24.042  0.2343 -0.0732 -0.0789
  481BOLB   C4A11528  21.106   8.728  24.517 -0.1389 -0.2534  0.0871
  481BOLB   C1B11529  20.959   9.383  23.523 -0.2901  0.0463  0.0876
  481BOLB   C2B11530  20.932   9.360  23.983 -0.0123  0.0154  0.2310
  481BOLB   C3B11531  20.657   9.496  24.309 -0.0715 -0.2519  0.2437
  481BOLB   C4B11532  20.649   9.471  24.776  0.0051 -0.3101  0.2363
  481BOLB   NC211533  22.754   8.823  26.002  0.0425 -0.0865 -0.0466
  481BOLB   PO211534  22.367   8.778  26.142  0.2466 -0.0701 -0.0237
  481BOLB   GL311535  22.108   8.857  25.769  0.1812  0.1183 -0.1323
  481BOLB   GL411536  22.227   9.072  25.496 -0.0980 -0.0255 -0.0840
  481BOLB   C1C11537  21.783   8.820  25.614 -0.2500  0.1771 -0.4485
  481BOLB   C2C11538  21.379   9.045  25.530  0.0788  0.5767  0.2653
  481BOLB   C3C11539  21.012   9.103  25.286  0.2036 -0.0253  0.2346
  481BOLB   C4C11540  21.043   9.057  24.776 -0.4277  0.0579  0.1990
  481BOLB   C1D11541  21.784   9.303  25.526  0.3572  0.1019  0.0530
  481BOLB   C2D11542  21.565   9.638  25.340 -0.2500  0.0174  0.1677
  481BOLB   C3D11543  21.302  10.021  25.152  0.0353  0.2300 -0.1188
  481BOLB   C4D11544  21.035  10.280  24.875 -0.3195 -0.0615  0.1241
  482BOLB   NC111545  20.425  13.600  22.185 -0.2148  0.0009  0.0975
  482BOLB   PO111546  20.683  13.812  21.877  0.0596 -0.2156 -0.2607
  482BOLB   GL111547  20.912  14.072  22.228 -0.1727  0.0058  0.1686
  482BOLB   GL211548  20.689  13.973  22.559 -0.3364 -0.3302  0.6306
  482BOLB   C1A11549  21.167  14.437  22.305 -0.0592  0.1156 -0.0455
  482BOLB   C2A11550  21.439  14.694  22.399  0.0974  0.1662 -0.1234
  482BOLB   C3A11551  21.706  15.068  22.427 -0.2987 -0.1010  0.1715
  482BOLB   C4A11552  21.930  15.450  22.440 -0.2761  0.2289 -0.0123
  482BOLB   C1B11553  21.085  14.108  22.714 -0.1957 -0.1254 -0.0852
  482BOLB   C2B11554  21.435  14.384  22.963 -0.1094 -0.3004 -0.0651
  482BOLB   C3B11555  21.344  14.852  22.877  0.0293  0.1515  0.1031
  482BOLB   C4B11556  21.665  15.277  22.956  0.1055  0.2034  0.3620
  482BOLB   NC211557  23.171  17.046  23.717  0.2884 -0.0435 -0.0014
  482BOLB   PO211558  23.193  17.503  23.552  0.2048  0.1172  0.4630
  482BOLB   GL311559  22.976  17.245  23.207  0.1440 -0.0126 -0.1229
  482BOLB   GL411560  22.668  17.268  23.261 -0.0045  0.0883 -0.2057
  482BOLB   C1C11561  22.857  16.819  23.171 -0.2327 -0.0448  0.3165
  482BOLB   C2C11562  22.648  16.479  23.165 -0.1787 -0.3241 -0.2583
  482BOLB   C3C11563  22.363  16.134  22.981  0.0824  0.0080 -0.0187
  482BOLB   C4C11564  22.069  15.737  22.748 -0.5400 -0.1360  0.0354
  482BOLB   C1D11565  22.433  17.227  22.984  0.5340 -0.1595 -0.2332
  482BOLB   C2D11566  22.145  17.008  22.875 -0.0664  0.1332 -0.1323
  482BOLB   C3D11567  21.983  16.593  22.715  0.2161 -0.1829  0.0501
  482BOLB   C4D11568  22.041  16.215  22.582  0.3278  0.1743  0.0841
  483BOLB   NC111569  20.885  12.184  10.180  0.4045 -0.0697  0.2834
  483BOLB   PO111570  20.953  12.441  10.069 -0.1067 -0.0959  0.2424
  483BOLB   GL111571  21.305  12.384   9.730 -0.0101 -0.3117  0.2762
  483BOLB   GL211572  21.181  12.439   9.466 -0.2967  0.2175  0.2256
  483BOLB   C1A11573  21.517  12.068   9.435  0.0677  0.0862  0.0170
  483BOLB   C2A11574  21.709  11.875   9.004  0.1441 -0.0349  0.0344
  483BOLB   C3A11575  21.757  11.721   8.538 -0.1588  0.0097 -0.0737
  483BOLB   C4A11576  21.698  11.688   8.049 -0.2595 -0.2613 -0.0031
  483BOLB   C1B11577  21.524  12.512   9.202  0.2838  0.0605 -0.2541
  483BOLB   C2B11578  21.594  12.649   8.744 -0.0766 -0.0520  0.2778
  483BOLB   C3B11579  21.610  12.729   8.360 -0.1972  0.2919 -0.1084
  483BOLB   C4B11580  21.873  12.889   8.109  0.2106 -0.0911  0.0681
  483BOLB   NC211581  22.467  12.484   6.071 -0.1678  0.2411  0.4599
  483BOLB   PO211582  22.509  11.956   6.001  0.3425 -0.0843  0.2009
  483BOLB   GL311583  22.652  12.144   6.419  0.3878  0.0623  0.0760
  483BOLB   GL411584  22.893  12.466   6.364 -0.2386  0.0079  0.0475
  483BOLB   C1C11585  22.420  12.257   6.722 -0.0784  0.2649 -0.2071
  483BOLB   C2C11586  22.223  12.091   7.130  0.0460 -0.1426  0.3022
  483BOLB   C3C11587  21.849  12.205   7.339  0.1877 -0.0167  0.0376
  483BOLB   C4C11588  21.755  11.919   7.641 -0.3975  0.1040 -0.2293
  483BOLB   C1D11589  22.794  12.674   6.764 -0.0022  0.1336 -0.2526
  483BOLB   C2D11590  22.704  12.971   7.042 -0.0245  0.7195 -0.1884
  483BOLB   C3D11591  22.678  13.447   6.988 -0.0168 -0.3385  0.1072
  483BOLB   C4D11592  22.546  13.886   7.096  0.4068 -0.2106 -0.2096
  484BOLB   NC111593  22.869  15.476  16.569  0.1469 -0.1016  0.0119
  484BOLB   PO111594  22.931  15.806  16.839  0.1300 -0.2705  0.3333
  484BOLB   GL111595  23.173  15.902  16.474  0.0086 -0.0967  0.1918
  484BOLB   GL211596  23.560  15.924  16.503  0.2098  0.0854  0.1540
  484BOLB   C1A11597  23.139  16.344  16.313 -0.0584  0.1599 -0.2422
  484BOLB   C2A11598  23.470  16.770  16.265 -0.1096  0.2411  0.2052
  484BOLB   C3A11599  23.782  16.936  16.093  0.1566  0.1147 -0.0955
  484BOLB   C4A11600  24.134  17.146  16.290 -0.2703  0.1607  0.0399
  484BOLB   C1B11601  24.025  16.013  16.387 -0.1204  0.0763 -0.1818
  484BOLB   C2B11602  24.317  16.208  16.585 -0.0339 -0.0777 -0.1861
  484BOLB   C3B11603  24.695  16.147  16.442  0.2615 -0.0352  0.0008
  484BOLB   C4B11604  24.976  15.679  16.589 -0.0946 -0.2081  0.0954
  484BOLB   NC211605  26.108  19.000  16.132  0.0630  0.1153  0.2380
  484BOLB   PO211606  25.782  18.925  15.776  0.0073  0.2637 -0.0450
  484BOLB   GL311607  25.360  18.739  15.963 -0.2762 -0.3131 -0.2674
  484BOLB   GL411608  25.083  18.909  16.189  0.0773 -0.0017  0.2307
  484BOLB   C1C11609  25.029  18.495  15.814  0.0750  0.0039 -0.0288
  484BOLB   C2C11610  24.810  18.080  15.837  0.0461 -0.1526 -0.1532
  484BOLB   C3C11611  24.694  17.814  16.073 -0.0031  0.2649 -0.0361
  484BOLB   C4C11612  24.412  17.507  16.116 -0.3633  0.0194  0.1271
  484BOLB   C1D11613  24.682  18.640  16.211  0.0898  0.2535  0.2547
  484BOLB   C2D11614  24.417  18.338  16.099 -0.0801 -0.0014 -0.1691
  484BOLB   C3D11615  24.239  18.096  15.797  0.2835 -0.2833  0.1274
  484BOLB   C4D11616  23.926  17.782  15.881 -0.0510 -0.1888 -0.2103
  485BOLB   NC111617  23.004   7.166  18.618 -0.0360 -0.0922  0.2280
  485BOLB   PO111618  22.961   7.386  18.975 -0.0109  0.2055  0.2087
  485BOLB   GL111619  23.289   7.180  19.132 -0.0201 -0.1190 -0.2876
  485BOLB   GL211620  23.373   6.947  18.809 -0.0430  0.0753 -0.0039
  485BOLB   C1A11621  23.660   6.929  19.210 -0.3295  0.4420 -0.3406
  485BOLB   C2A11622  23.708   6.557  19.352 -0.3548 -0.0906 -0.0425
  485BOLB   C3A11623  24.005   6.341  19.235  0.2676  0.2446  0.2682
  485BOLB   C4A11624  24.327   6.042  19.476  0.1842  0.0571  0.1515
  485BOLB   C1B11625  23.840   6.773  18.753  0.1019  0.1667 -0.0041
  485BOLB   C2B11626  24.301   6.621  18.888 -0.1277  0.0656 -0.1205
  485BOLB   C3B11627  24.495   6.381  19.165  0.0011  0.0834 -0.0003
  485BOLB   C4B11628  24.921   6.302  19.402  0.1451 -0.1542 -0.0600
  485BOLB   NC211629  26.488   5.694  21.141  0.0252 -0.0687 -0.1019
  485BOLB   PO211630  26.227   5.295  20.964  0.1386  0.0746 -0.0536
  485BOLB   GL311631  25.924   5.379  20.610 -0.0674  0.1185 -0.0489
  485BOLB   GL411632  25.716   5.583  20.705 -0.1111  0.0568  0.0814
  485BOLB   C1C11633  25.654   5.289  20.149 -0.0879 -0.2138  0.0628
  485BOLB   C2C11634  25.233   5.191  19.971 -0.1593  0.0340  0.2296
  485BOLB   C3C11635  24.877   5.410  19.696 -0.1631  0.1070 -0.1410
  485BOLB   C4C11636  24.594   5.630  19.381  0.0025 -0.1517 -0.0224
  485BOLB   C1D11637  25.729   6.019  20.796  0.0695 -0.0157  0.1427
  485BOLB   C2D11638  25.638   6.422  20.506  0.4378  0.0720 -0.1711
  485BOLB   C3D11639  25.378   6.791  20.578  0.0776 -0.3005 -0.0708
  485BOLB   C4D11640  25.403   7.243  20.415  0.2571  0.5243  0.0505
  486BOLB   NC111641  22.793   7.070  12.601 -0.2805 -0.4175  0.0688
  486BOLB   PO111642  22.901   7.455  12.678  0.2042 -0.0912  0.1438
  486BOLB   GL111643  23.233   7.305  12.361  0.1506  0.1783  0.0984
  486BOLB   GL211644  23.181   7.425  12.164 -0.0043  0.2516  0.0137
  486BOLB   C1A11645  23.605   7.227  12.112 -0.3043  0.3683 -0.0107
  486BOLB   C2A11646  23.869   7.384  11.842 -0.1065  0.1791  0.1481
  486BOLB   C3A11647  24.125   7.479  11.517  0.3720  0.2266 -0.1357
  486BOLB   C4A11648  24.337   7.356  11.105 -0.0484  0.3536  0.1646
  486BOLB   C1B11649  23.435   7.624  11.811  0.1261  0.1402  0.0142
  486BOLB   C2B11650  23.602   7.914  11.454  0.1437 -0.1512  0.1464
  486BOLB   C3B11651  23.765   7.847  11.234 -0.1258  0.0419 -0.1366
  486BOLB   C4B11652  24.142   7.939  11.128  0.0077  0.1191 -0.1138
  486BOLB   NC211653  25.848   6.203   9.653  0.1426  0.0261 -0.0880
  486BOLB   PO211654  26.175   6.538   9.663  0.0566  0.2021  0.1416
  486BOLB   GL311655  25.914   6.794   9.895 -0.0671  0.0530 -0.1712
  486BOLB   GL411656  26.086   6.910  10.021 -0.1227  0.1389 -0.3554
  486BOLB   C1C11657  25.529   6.869  10.075 -0.1219  0.1679  0.1774
  486BOLB   C2C11658  25.223   7.111  10.144 -0.2089  0.1091  0.1993
  486BOLB   C3C11659  24.868   7.333  10.311  0.0436  0.2690 -0.0882
  486BOLB   C4C11660  24.518   7.220  10.611 -0.0186  0.1698  0.1891
  486BOLB   C1D11661  25.904   7.331   9.888 -0.0168  0.1083  0.2838
  486BOLB   C2D11662  25.661   7.630   9.811 -0.1273 -0.0036 -0.0327
  486BOLB   C3D11663  25.559   8.022   9.517 -0.0447  0.0363 -0.0091
  486BOLB   C4D11664  25.510   8.540   9.552 -0.0478 -0.1985  0.0437
  487BOLB   NC111665  19.275  17.702  13.561  0.1465  0.2253  0.0013
  487BOLB   PO111666  18.845  17.794  13.645 -0.0853 -0.1526 -0.1778
  487BOLB   GL111667  19.141  18.115  13.386  0.0250  0.1009 -0.2396
  487BOLB   GL211668  19.415  18.164  13.452  0.4318 -0.1161 -0.0810
  487BOLB   C1A11669  19.254  18.457  13.108  0.1292  0.2823 -0.1604
  487BOLB   C2A11670  19.635  18.659  13.034  0.1374 -0.1508 -0.2583
  487BOLB   C3A11671  19.815  19.068  12.694 -0.1132  0.2612  0.1235
  487BOLB   C4A11672  19.802  19.010  12.206  0.0424  0.1077 -0.2275
  487BOLB   C1B11673  19.770  18.476  13.583  0.2583  0.2484  0.0372
  487BOLB   C2B11674  20.221  18.661  13.540 -0.1013 -0.2502 -0.2574
  487BOLB   C3B11675  20.558  18.894  13.711  0.1065 -0.1926 -0.1299
  487BOLB   C4B11676  20.905  18.770  13.962  0.0555 -0.1562  0.0102
  487BOLB   NC211677  20.905  20.590  11.337  0.1754  0.0011 -0.1028
  487BOLB   PO211678  20.760  20.656  10.934 -0.0568  0.0996 -0.0318
  487BOLB   GL311679  20.455  20.325  10.829  0.0172 -0.2589  0.2655
  487BOLB   GL411680  20.593  20.035  10.693 -0.0735 -0.1962  0.0082
  487BOLB   C1C11681  20.273  19.973  11.135 -0.3924 -0.1664  0.2245
  487BOLB   C2C11682  20.145  19.604  11.152 -0.0671  0.0699  0.1665
  487BOLB   C3C11683  19.950  19.368  11.401  0.0680  0.0970  0.1218
  487BOLB   C4C11684  19.754  19.017  11.755  0.6644 -0.0242  0.1519
  487BOLB   C1D11685  20.692  19.580  10.988  0.1363  0.1909 -0.1159
  487BOLB   C2D11686  20.518  19.209  11.243 -0.0657 -0.1697 -0.0861
  487BOLB   C3D11687  20.327  18.927  11.444 -0.0601 -0.4052 -0.0972
  487BOLB   C4D11688  20.556  18.584  11.773 -0.1205 -0.0783  0.1569
  488BOLB   NC111689  22.380   7.740  12.396  0.2064  0.1384 -0.1044
  488BOLB   PO111690  22.671   7.483  12.226  0.2701  0.3778  0.0385
  488BOLB   GL111691  22.759   7.028  12.109  0.0903 -0.0893  0.2169
  488BOLB   GL211692  22.571   6.705  12.192 -0.2219  0.1329  0.0364
  488BOLB   C1A11693  23.132   6.850  12.063 -0.1921 -0.1399  0.0824
  488BOLB   C2A11694  23.568   6.733  11.937  0.1716 -0.1069  0.1951
  488BOLB   C3A11695  23.945   6.901  11.630 -0.1128  0.0265 -0.0370
  488BOLB   C4A11696  24.297   6.940  11.581  0.1353  0.3311 -0.1463
  488BOLB   C1B11697  22.852   6.503  11.942  0.0134  0.0916 -0.0212
  488BOLB   C2B11698  23.245   6.374  11.880  0.1595  0.2284 -0.0149
  488BOLB   C3B11699  23.658   6.203  11.750 -0.1652 -0.1656  0.1386
  488BOLB   C4B11700  24.102   6.424  11.641  0.2013 -0.1338  0.1175
  488BOLB   NC211701  26.282   5.885  10.928  0.2155  0.0768  0.1787
  488BOLB   PO211702  26.161   5.574  10.517  0.2816  0.3431 -0.2307
  488BOLB   GL311703  25.823   5.581  10.846  0.1717 -0.2190 -0.0391
  488BOLB   GL411704  25.895   5.357  11.010  0.0057 -0.1399  0.1032
  488BOLB   C1C11705  25.610   5.870  11.141 -0.0617  0.0595 -0.0338
  488BOLB   C2C11706  25.354   6.172  11.288 -0.0180  0.0631  0.0670
  488BOLB   C3C11707  25.021   6.507  11.546 -0.1280 -0.1500 -0.3326
  488BOLB   C4C11708  24.678   6.704  11.647 -0.0717 -0.2783 -0.1455
  488BOLB   C1D11709  25.567   5.394  11.289  0.0888  0.3115 -0.0755
  488BOLB   C2D11710  25.112   5.699  11.317 -0.0189  0.2097  0.0757
  488BOLB   C3D11711  24.854   6.045  11.077  0.2651 -0.0632 -0.1907
  488BOLB   C4D11712  24.444   6.084  10.848  0.0016  0.0000  0.0154
  489BOLB   NC111713  17.815  18.137  16.483  0.0169  0.1448  0.0373
  489BOLB   PO111714  18.038  18.417  16.652  0.0795  0.4133  0.1407
  489BOLB   GL111715  18.223  18.797  16.670 -0.5596 -0.2373 -0.0864
  489BOLB   GL211716  18.281  19.009  16.382 -0.0697 -0.0588 -0.0873
  489BOLB   C1A11717  17.965  19.215  16.682  0.1974  0.0736  0.6236
  489BOLB   C2A11718  17.948  19.658  16.563  0.1214  0.1730 -0.2904
  489BOLB   C3A11719  17.850  19.955  16.290  0.4886 -0.2237 -0.0126
  489BOLB   C4A11720  18.007  20.329  16.214 -0.2801  0.1321 -0.0622
  489BOLB   C1B11721  18.737  19.167  16.204  0.1811 -0.0748 -0.0261
  489BOLB   C2B11722  18.851  19.619  16.086  0.0577  0.0767  0.3966
  489BOLB   C3B11723  18.698  19.987  15.960 -0.0879  0.1995  0.2495
  489BOLB   C4B11724  18.483  20.345  15.793 -0.0296  0.0932 -0.1508
  489BOLB   NC211725  17.804  22.885  15.906 -0.0466  0.2318 -0.3753
  489BOLB   PO211726  18.071  22.658  15.554 -0.0608  0.0507  0.0180
  489BOLB   GL311727  18.305  22.276  15.398 -0.2731  0.1104 -0.0690
  489BOLB   GL411728  18.206  22.049  15.678 -0.1827 -0.2609 -0.1509
  489BOLB   C1C11729  18.500  21.822  15.338  0.0454 -0.1305 -0.1560
  489BOLB   C2C11730  18.407  21.299  15.437  0.0522 -0.0421  0.0515
  489BOLB   C3C11731  18.358  20.860  15.619 -0.2187  0.0369  0.2612
  489BOLB   C4C11732  18.117  20.735  15.975  0.1812 -0.1331 -0.0054
  489BOLB   C1D11733  18.045  21.653  15.584  0.3277  0.4376 -0.0288
  489BOLB   C2D11734  17.686  21.420  15.597 -0.1577  0.2648  0.0665
  489BOLB   C3D11735  17.436  21.051  15.360  0.1327  0.0053  0.2825
  489BOLB   C4D11736  17.313  21.004  14.973 -0.0188  0.1619  0.2672
  490BOLB   NC111737  12.738  14.950  10.428 -0.2098  0.1285  0.2491
  490BOLB   PO111738  12.667  15.338  10.138 -0.0744 -0.0225  0.1924
  490BOLB   GL111739  12.424  15.758   9.976 -0.0929  0.1625 -0.0498
  490BOLB   GL211740  12.663  15.781   9.771  0.1069 -0.0397 -0.1538
  490BOLB   C1A11741  12.185  16.028   9.951 -0.4234  0.2334  0.1378
  490BOLB   C2A11742  12.127  16.394   9.640  0.0657 -0.2002 -0.3207
  490BOLB   C3A11743  12.360  16.707   9.417  0.0767  0.0035 -0.3016
  490BOLB   C4A11744  12.458  17.040   9.596  0.0400  0.2039  0.0426
  490BOLB   C1B11745  12.546  16.121   9.573  0.1715 -0.1997  0.0435
  490BOLB   C2B11746  12.439  16.272   9.173  0.2613 -0.1665  0.5206
  490BOLB   C3B11747  12.570  16.498   8.911  0.1706  0.1087 -0.2634
  490BOLB   C4B11748  12.687  16.702   8.662  0.1531 -0.0734 -0.1050
  490BOLB   NC211749  11.535  18.840   7.881  0.0349  0.2757  0.3103
  490BOLB   PO211750  12.028  18.812   8.077  0.1297 -0.1284 -0.0240
  490BOLB   GL311751  12.036  18.703   8.495 -0.1287  0.4090  0.2195
  490BOLB   GL411752  12.414  18.715   8.425  0.2870  0.1602 -0.0285
  490BOLB   C1C11753  12.226  18.452   8.773 -0.1259  0.1567 -0.2257
  490BOLB   C2C11754  12.286  18.061   8.947  0.0501 -0.1636 -0.0533
  490BOLB   C3C11755  12.225  17.671   9.092  0.0414  0.3066 -0.1938
  490BOLB   C4C11756  12.448  17.459   9.381  0.0108  0.1551  0.0710
  490BOLB   C1D11757  12.700  18.613   8.761  0.1757 -0.1874 -0.2366
  490BOLB   C2D11758  13.045  18.828   8.844 -0.3053  0.0684  0.0914
  490BOLB   C3D11759  13.485  18.605   8.898 -0.4582 -0.1282 -0.2258
  490BOLB   C4D11760  13.681  18.465   8.579 -0.0769  0.0667 -0.2157
  491BOLB   NC111761  13.604  17.894  18.024 -0.1263 -0.0212  0.3515
  491BOLB   PO111762  13.526  18.125  18.351  0.2025  0.2047 -0.2349
  491BOLB   GL111763  13.522  18.472  18.576 -0.0181  0.2423  0.3170
  491BOLB   GL211764  13.265  18.529  18.804 -0.1050 -0.0535 -0.3107
  491BOLB   C1A11765  13.339  18.944  18.379 -0.1716  0.1386  0.2194
  491BOLB   C2A11766  13.064  19.371  18.380  0.0948  0.1088 -0.3496
  491BOLB   C3A11767  12.871  19.687  18.359 -0.0677 -0.0924 -0.2679
  491BOLB   C4A11768  12.628  19.904  18.615 -0.2003  0.1151 -0.0757
  491BOLB   C1B11769  13.087  18.996  18.754 -0.0454 -0.0149 -0.2581
  491BOLB   C2B11770  13.009  19.388  18.915  0.0366 -0.4857  0.1298
  491BOLB   C3B11771  13.179  19.298  19.278  0.1281 -0.3308 -0.0625
  491BOLB   C4B11772  13.321  19.407  19.605  0.0712  0.0673  0.0332
  491BOLB   NC211773  11.724  21.199  20.396  0.0715 -0.0568  0.1329
  491BOLB   PO211774  11.736  20.708  20.499 -0.0501 -0.0784 -0.1449
  491BOLB   GL311775  11.856  20.659  20.161  0.1467 -0.1064 -0.1441
  491BOLB   GL411776  12.201  20.881  20.080 -0.3725  0.1634 -0.0658
  491BOLB   C1C11777  11.888  20.434  19.805 -0.1578  0.0107  0.1215
  491BOLB   C2C11778  12.140  20.311  19.542  0.0143 -0.2076 -0.2886
  491BOLB   C3C11779  12.429  20.049  19.331 -0.1261  0.1291  0.1573
  491BOLB   C4C11780  12.635  20.088  19.009  0.2121 -0.0546 -0.1535
  491BOLB   C1D11781  12.335  20.518  20.020  0.1148 -0.3136 -0.2199
  491BOLB   C2D11782  12.181  20.164  20.070 -0.3500  0.0879 -0.1063
  491BOLB   C3D11783  11.773  20.026  20.164  0.2250 -0.0059  0.1729
  491BOLB   C4D11784  11.442  20.299  20.160  0.0430  0.1943  0.1614
  492BOLB   NC111785  22.139   9.357  21.919 -0.3797 -0.2848 -0.1374
  492BOLB   PO111786  22.083   9.657  21.514 -0.1106 -0.1363 -0.1581
  492BOLB   GL111787  22.397   9.794  21.731 -0.2446  0.0459  0.1360
  492BOLB   GL211788  22.288   9.955  22.088 -0.0713 -0.3674 -0.2347
  492BOLB   C1A11789  22.802   9.892  22.002 -0.0352 -0.1480  0.3168
  492BOLB   C2A11790  23.127   9.895  22.222 -0.0846  0.0861  0.0499
  492BOLB   C3A11791  23.444  10.181  22.421  0.1517  0.2340 -0.0588
  492BOLB   C4A11792  23.669  10.395  22.523 -0.0621 -0.2481  0.1383
  492BOLB   C1B11793  22.688  10.105  22.404  0.0181  0.0933 -0.1005
  492BOLB   C2B11794  23.027  10.264  22.622 -0.0527  0.1148  0.4049
  492BOLB   C3B11795  23.192  10.407  22.950 -0.1004 -0.0771 -0.1495
  492BOLB   C4B11796  23.299  10.661  23.304 -0.3801  0.2148 -0.0638
  492BOLB   NC211797  24.247   9.929  24.798  0.1477 -0.1847 -0.1959
  492BOLB   PO211798  24.647   9.883  24.660  0.1492 -0.1063  0.1034
  492BOLB   GL311799  24.323   9.775  24.351 -0.2330  0.2614 -0.0136
  492BOLB   GL411800  24.417   9.444  24.255 -0.2267 -0.3197 -0.2006
  492BOLB   C1C11801  24.222  10.033  23.946 -0.0443 -0.1327  0.3467
  492BOLB   C2C11802  24.100  10.254  23.645  0.2225 -0.1626  0.0786
  492BOLB   C3C11803  23.742  10.388  23.398 -0.0035  0.5374  0.1450
  492BOLB   C4C11804  23.698  10.570  23.006  0.1972  0.1855 -0.3629
  492BOLB   C1D11805  24.305   9.549  23.833  0.0050 -0.0834  0.1504
  492BOLB   C2D11806  24.144   9.467  23.400 -0.1586  0.2270  0.3082
  492BOLB   C3D11807  23.721   9.442  23.152  0.0056  0.1233  0.2546
  492BOLB   C4D11808  23.319   9.634  23.098  0.1257 -0.1826  0.0482
  493BOLB   NC111809  23.998  20.407  16.060  0.0797  0.0945 -0.0643
  493BOLB   PO111810  23.632  20.355  16.303  0.1188 -0.0634 -0.4060
  493BOLB   GL111811  23.306  20.205  16.410  0.2479  0.1155  0.1275
  493BOLB   GL211812  23.302  19.988  16.185 -0.1606 -0.1733 -0.0648
  493BOLB   C1A11813  23.102  19.757  16.527  0.1982 -0.2872  0.0402
  493BOLB   C2A11814  22.926  19.360  16.364 -0.0071  0.1189 -0.3115
  493BOLB   C3A11815  22.651  19.005  16.203  0.1791  0.0877  0.0961
  493BOLB   C4A11816  22.328  18.776  16.031 -0.0425 -0.1163  0.0745
  493BOLB   C1B11817  23.041  19.674  16.039  0.0617  0.1516 -0.0883
  493BOLB   C2B11818  22.827  19.358  15.875  0.2465  0.0121  0.3222
  493BOLB   C3B11819  22.463  19.383  15.904 -0.1471 -0.1403 -0.3773
  493BOLB   C4B11820  22.200  19.216  16.307  0.0919  0.0443  0.3453
  493BOLB   NC211821  22.385  21.057  15.118  0.1092 -0.0291 -0.2956
  493BOLB   PO211822  22.480  20.791  14.788  0.0414  0.1617  0.3797
  493BOLB   GL311823  22.211  20.430  14.923 -0.2593  0.1579  0.0853
  493BOLB   GL411824  22.169  20.554  15.296 -0.1993 -0.0090  0.1990
  493BOLB   C1C11825  22.265  20.081  15.221 -0.0584 -0.1253  0.1583
  493BOLB   C2C11826  21.955  19.844  15.528  0.0245  0.2775  0.1255
  493BOLB   C3C11827  22.059  19.461  15.702  0.1809  0.1493 -0.3168
  493BOLB   C4C11828  22.020  19.091  15.779  0.0929 -0.1631 -0.0879
  493BOLB   C1D11829  21.823  20.373  15.519  0.0861 -0.2450 -0.1909
  493BOLB   C2D11830  21.536  20.101  15.769  0.3781  0.2012  0.2174
  493BOLB   C3D11831  21.189  19.924  16.012 -0.3112  0.0795 -0.2820
  493BOLB   C4D11832  20.728  19.754  16.073  0.3466 -0.2775  0.0918
  494BOLB   NC111833  23.231  15.381   7.706 -0.0532 -0.0913  0.0713
  494BOLB   PO111834  23.540  15.567   8.044 -0.0196 -0.0355 -0.0774
  494BOLB   GL111835  23.255  15.270   8.243 -0.0130 -0.1045 -0.3770
  494BOLB   GL211836  23.040  15.472   8.250  0.1059  0.0966  0.3504
  494BOLB   C1A11837  22.947  14.948   8.390 -0.1541  0.1357  0.1965
  494BOLB   C2A11838  22.692  14.651   8.339  0.0667 -0.0288 -0.1269
  494BOLB   C3A11839  22.643  14.339   8.723 -0.0981 -0.0049 -0.1790
  494BOLB   C4A11840  22.838  14.219   9.191 -0.0327  0.1925 -0.0474
  494BOLB   C1B11841  22.712  15.593   8.482  0.1989  0.0804  0.2151
  494BOLB   C2B11842  22.307  15.723   8.557 -0.1800 -0.0148 -0.1586
  494BOLB   C3B11843  21.894  15.745   8.561 -0.1028  0.1156  0.0113
  494BOLB   C4B11844  21.431  15.621   8.487 -0.0666 -0.0678 -0.0023
  494BOLB   NC211845  24.179  15.611   9.282 -0.1889 -0.3737 -0.0793
  494BOLB   PO211846  24.694  15.743   9.296  0.0814  0.2283 -0.0010
  494BOLB   GL311847  24.505  15.255   9.412 -0.1245  0.1543 -0.0035
  494BOLB   GL411848  24.572  14.983   9.677  0.1458  0.1551 -0.1801
  494BOLB   C1C11849  24.191  14.926   9.336 -0.0220 -0.2467 -0.1171
  494BOLB   C2C11850  23.825  14.676   9.352  0.2559 -0.1912 -0.0890
  494BOLB   C3C11851  23.440  14.588   9.462  0.3924 -0.0590 -0.1685
  494BOLB   C4C11852  23.120  14.392   9.442 -0.2253 -0.2193  0.2521
  494BOLB   C1D11853  24.170  14.721   9.789  0.1619  0.0403  0.2485
  494BOLB   C2D11854  23.815  14.374   9.828 -0.0576 -0.0322 -0.1297
  494BOLB   C3D11855  23.544  14.134   9.899  0.2629  0.2012 -0.0130
  494BOLB   C4D11856  23.175  14.106   9.944  0.1857  0.0720 -0.0866
  495BOLB   NC111857  21.048  12.971  10.061 -0.0054 -0.1186 -0.1703
  495BOLB   PO111858  20.951  13.351   9.738  0.1100 -0.1899  0.1683
  495BOLB   GL111859  21.154  13.321   9.374 -0.0658  0.1492  0.3053
  495BOLB   GL211860  21.338  13.584   9.424  0.0431  0.3674  0.2847
  495BOLB   C1A11861  21.126  13.419   8.854  0.4628  0.2449  0.0037
  495BOLB   C2A11862  21.324  13.665   8.515  0.1389  0.0571  0.1074
  495BOLB   C3A11863  21.773  13.621   8.287  0.0458  0.3031 -0.1302
  495BOLB   C4A11864  22.110  13.315   8.076 -0.0296 -0.0343 -0.2021
  495BOLB   C1B11865  21.681  13.385   9.509 -0.1240  0.3763 -0.3405
  495BOLB   C2B11866  22.104  13.351   9.432 -0.0809 -0.0815  0.1158
  495BOLB   C3B11867  22.274  13.577   9.087 -0.0179  0.4677 -0.1142
  495BOLB   C4B11868  22.546  13.739   8.725 -0.1056 -0.2039  0.4013
  495BOLB   NC211869  22.993  11.131   6.908  0.1663  0.0971 -0.0590
  495BOLB   PO211870  22.968  11.541   6.792 -0.2242 -0.1651  0.1159
  495BOLB   GL311871  22.820  11.868   6.991 -0.1107 -0.2170  0.0529
  495BOLB   GL411872  23.203  12.043   7.160 -0.3130 -0.0876 -0.0034
  495BOLB   C1C11873  22.802  12.286   7.074  0.0661 -0.1669  0.2309
  495BOLB   C2C11874  22.533  12.513   7.163 -0.2553  0.3019 -0.1854
  495BOLB   C3C11875  22.358  12.711   7.518  0.3720  0.2898 -0.0420
  495BOLB   C4C11876  22.248  13.050   7.751  0.1388  0.1101  0.1595
  495BOLB   C1D11877  22.977  12.010   7.432  0.0046  0.1828  0.2019
  495BOLB   C2D11878  22.530  12.116   7.549 -0.1523 -0.1004  0.3434
  495BOLB   C3D11879  22.199  12.306   7.787  0.0362 -0.1079 -0.1848
  495BOLB   C4D11880  22.187  12.438   8.202 -0.1158 -0.1385  0.1871
  496BOLB   NC111881  21.475   5.912  11.657  0.1591  0.3147 -0.1508
  496BOLB   PO111882  21.811   6.055  11.546  0.1091 -0.1507 -0.1457
  496BOLB   GL111883  22.108   5.754  11.526  0.0592 -0.0040  0.0142
  496BOLB   GL211884  22.237   5.474  11.757  0.0251  0.2739  0.0742
  496BOLB   C1A11885  22.499   5.782  11.271  0.0696  0.1146  0.0069
  496BOLB   C2A11886  22.913   5.646  11.153  0.2188  0.0160 -0.0055
  496BOLB   C3A11887  23.250   5.706  10.935  0.1035  0.2260  0.2308
  496BOLB   C4A11888  23.667   5.831  10.647  0.2281  0.2988  0.1073
  496BOLB   C1B11889  22.654   5.460  11.581  0.1076 -0.1420 -0.1848
  496BOLB   C2B11890  23.073   5.218  11.756 -0.1326 -0.1280 -0.0214
  496BOLB   C3B11891  23.395   4.865  11.615 -0.0175 -0.0540 -0.2755
  496BOLB   C4B11892  23.581   4.734  11.232 -0.0255 -0.0957 -0.0366
  496BOLB   NC211893  26.245   5.621   9.986  0.0154  0.2914  0.2117
  496BOLB   PO211894  25.882   5.648   9.712 -0.0088 -0.1446  0.2725
  496BOLB   GL311895  25.536   5.729   9.830 -0.0386  0.1741  0.3190
  496BOLB   GL411896  25.318   5.936   9.589 -0.0384 -0.0656 -0.3057
  496BOLB   C1C11897  25.204   5.841  10.154 -0.0077 -0.2518  0.0387
  496BOLB   C2C11898  24.920   5.704  10.433  0.1324 -0.2382 -0.1643
  496BOLB   C3C11899  24.465   5.721  10.533 -0.0462 -0.1538 -0.1586
  496BOLB   C4C11900  24.135   5.721  10.540  0.1069  0.0706 -0.2535
  496BOLB   C1D11901  24.933   5.985   9.719 -0.0935  0.2543  0.2504
  496BOLB   C2D11902  24.537   5.746   9.596  0.1316 -0.2805  0.0777
  496BOLB   C3D11903  24.295   5.873   9.964 -0.0091  0.3953  0.2162
  496BOLB   C4D11904  23.825   5.898  10.141 -0.1950  0.1669  0.0143
  497BOLB   NC111905  18.748   1.796  16.691  0.0182  0.2917 -0.0507
  497BOLB   PO111906  18.485   1.718  16.375  0.2426  0.1022 -0.0055
  497BOLB   GL111907  18.489   1.257  16.357  0.1204  0.1390  0.1310
  497BOLB   GL211908  18.418   1.303  16.660  0.0154 -0.4983 -0.0531
  497BOLB   C1A11909  18.322   0.806  16.355  0.1240 -0.3312 -0.0881
  497BOLB   C2A11910  18.650   0.507  16.404 -0.0414  0.0975 -0.0633
  497BOLB   C3A11911  18.928   0.052  16.378  0.3638 -0.1256  0.2428
  497BOLB   C4A11912  19.187  -0.207  16.222  0.1950 -0.2583 -0.1681
  497BOLB   C1B11913  18.469   1.031  16.932  0.0014 -0.0418 -0.0931
  497BOLB   C2B11914  18.346   0.594  16.830  0.2034 -0.2201 -0.0373
  497BOLB   C3B11915  18.175   0.227  17.093  0.0433  0.0570 -0.1237
  497BOLB   C4B11916  18.045   0.248  17.487  0.1598  0.0276  0.0595
  497BOLB   NC211917  19.673  -2.625  17.379  0.0141  0.0115 -0.2023
  497BOLB   PO211918  19.670  -2.224  17.239  0.1372 -0.1819 -0.3155
  497BOLB   GL311919  19.640  -1.775  17.289  0.0872  0.0108 -0.0907
  497BOLB   GL411920  19.464  -1.692  16.996  0.0521 -0.4341  0.1567
  497BOLB   C1C11921  19.807  -1.379  17.325  0.1462 -0.1028 -0.3628
  497BOLB   C2C11922  19.670  -1.193  16.897 -0.1096 -0.0884  0.3506
  497BOLB   C3C11923  19.572  -0.925  16.674 -0.2336 -0.1217  0.0034
  497BOLB   C4C11924  19.335  -0.703  16.352  0.0520 -0.0006  0.2268
  497BOLB   C1D11925  19.953  -1.637  16.899  0.0339 -0.0908  0.1978
  497BOLB   C2D11926  20.030  -1.389  16.544  0.0606 -0.2413  0.2849
  497BOLB   C3D11927  20.145  -1.433  16.200  0.1029 -0.1398 -0.0403
  497BOLB   C4D11928  20.322  -1.164  15.842 -0.1054  0.1554 -0.0176
  498BOLB   NC111929  23.740  13.746  17.963  0.0563  0.1392  0.0778
  498BOLB   PO111930  23.934  13.820  17.603 -0.2835 -0.6252 -0.5416
  498BOLB   GL111931  24.329  13.970  17.605  0.1468 -0.1849  0.0444
  498BOLB   GL211932  24.340  14.085  17.305  0.1768  0.0164  0.0548
  498BOLB   C1A11933  24.772  13.846  17.677 -0.0628  0.2351  0.3605
  498BOLB   C2A11934  25.164  14.084  17.844  0.0155 -0.3034 -0.0193
  498BOLB   C3A11935  25.474  14.359  17.818  0.0913 -0.0024  0.0034
  498BOLB   C4A11936  25.642  14.645  18.043  0.3839  0.2651  0.2744
  498BOLB   C1B11937  24.621  14.107  17.017  0.0371  0.1350  0.0950
  498BOLB   C2B11938  24.844  14.309  16.719  0.3272  0.1513 -0.3244
  498BOLB   C3B11939  24.989  14.616  16.901  0.1103 -0.1524 -0.0847
  498BOLB   C4B11940  25.112  15.027  17.191 -0.4031  0.1256  0.0153
  498BOLB   NC211941  27.866  15.019  17.784 -0.0342 -0.4363  0.2489
  498BOLB   PO211942  27.711  15.155  18.170 -0.0776  0.0970  0.4427
  498BOLB   GL311943  27.305  15.264  17.928  0.0083  0.1461 -0.0128
  498BOLB   GL411944  27.366  15.092  17.680  0.2339 -0.3648 -0.0820
  498BOLB   C1C11945  26.898  15.430  17.875 -0.0998 -0.1716 -0.1580
  498BOLB   C2C11946  26.502  15.415  18.001  0.0652  0.3125  0.1248
  498BOLB   C3C11947  26.092  15.217  18.076  0.0352  0.2456 -0.2029
  498BOLB   C4C11948  25.898  14.891  18.100  0.2086 -0.2511 -0.1879
  498BOLB   C1D11949  26.945  14.901  17.774 -0.1135  0.0724  0.2560
  498BOLB   C2D11950  26.632  14.684  17.977  0.1134 -0.0862  0.4027
  498BOLB   C3D11951  26.196  14.545  18.049 -0.1907  0.0071 -0.0455
  498BOLB   C4D11952  25.965  14.403  17.757  0.2665  0.0912 -0.0212
  499BOLB   NC111953  27.977  10.947  19.733  0.0236 -0.4623  0.2301
  499BOLB   PO111954  27.830  11.129  19.391 -0.1986  0.0353 -0.2532
  499BOLB   GL111955  27.422  11.199  19.287  0.0138  0.1836 -0.1752
  499BOLB   GL211956  27.276  11.610  18.996  0.3209 -0.2138  0.0145
  499BOLB   C1A11957  26.975  11.436  19.379  0.3681  0.0768  0.1747
  499BOLB   C2A11958  26.664  11.689  19.318 -0.1485  0.1352  0.3078
  499BOLB   C3A11959  26.158  11.680  19.347  0.2604  0.0178  0.2202
  499BOLB   C4A11960  25.704  11.543  19.200  0.0890 -0.1618 -0.1162
  499BOLB   C1B11961  26.934  11.584  18.755  0.1108 -0.2043 -0.1045
  499BOLB   C2B11962  26.554  11.686  18.770 -0.0123 -0.0274  0.2268
  499BOLB   C3B11963  26.195  11.776  18.842  0.3617  0.3994  0.2700
  499BOLB   C4B11964  25.738  11.920  18.796  0.3023  0.2594 -0.0546
  499BOLB   NC211965  23.808  12.217  18.525  0.1325 -0.1177 -0.1746
  499BOLB   PO211966  23.867  12.020  18.181  0.1335 -0.2532 -0.1271
  499BOLB   GL311967  24.201  12.305  18.258 -0.5751  0.0756  0.2900
  499BOLB   GL411968  24.448  12.507  18.146  0.4182 -0.1455 -0.2842
  499BOLB   C1C11969  24.511  12.263  18.643 -0.2860  0.0410  0.2072
  499BOLB   C2C11970  24.820  12.008  18.924  0.2213  0.1162 -0.1183
  499BOLB   C3C11971  25.049  11.790  19.152 -0.0411  0.2492 -0.1336
  499BOLB   C4C11972  25.356  11.710  19.181 -0.2262  0.4255 -0.3871
  499BOLB   C1D11973  24.858  12.791  18.195 -0.1071  0.0332 -0.1928
  499BOLB   C2D11974  25.044  13.068  18.533  0.0591 -0.2070  0.2213
  499BOLB   C3D11975  25.361  13.443  18.643 -0.0071 -0.0867  0.3467
  499BOLB   C4D11976  25.589  13.693  18.843 -0.0411 -0.0729 -0.0358
  500BOLB   NC111977  18.571  13.407   9.844 -0.0703 -0.1379  0.0256
  500BOLB   PO111978  18.980  13.301   9.446 -0.0150  0.0410  0.0084
  500BOLB   GL111979  19.459  13.283   9.152  0.2823  0.0290  0.0026
  500BOLB   GL211980  19.615  13.535   9.067 -0.1312 -0.0228 -0.6005
  500BOLB   C1A11981  19.452  13.181   8.715  0.0612 -0.0926 -0.1053
  500BOLB   C2A11982  19.574  13.219   8.286 -0.1559 -0.0173  0.0067
  500BOLB   C3A11983  19.902  13.271   7.993  0.0260  0.2202 -0.3013
  500BOLB   C4A11984  20.386  13.274   7.800  0.0612  0.1953  0.1541
  500BOLB   C1B11985  19.511  13.657   8.760  0.0604 -0.1904  0.1494
  500BOLB   C2B11986  19.604  13.752   8.310  0.3195 -0.1363  0.0328
  500BOLB   C3B11987  19.552  14.137   8.145 -0.0578 -0.0791 -0.2223
  500BOLB   C4B11988  19.738  14.243   7.705 -0.2571  0.0270  0.5053
  500BOLB   NC211989  21.130  13.987   5.226  0.0647 -0.0193 -0.2064
  500BOLB   PO211990  21.455  14.066   5.520  0.1712  0.0821 -0.1520
  500BOLB   GL311991  21.136  13.972   5.895 -0.0427 -0.2346 -0.1661
  500BOLB   GL411992  20.971  13.804   5.815  0.2105  0.1557  0.1989
  500BOLB   C1C11993  21.036  13.849   6.338  0.2152 -0.3658 -0.2674
  500BOLB   C2C11994  20.930  13.813   6.826 -0.0022  0.1385  0.0669
  500BOLB   C3C11995  20.979  13.582   7.206 -0.2506  0.0875  0.2128
  500BOLB   C4C11996  20.754  13.458   7.663  0.0842 -0.0026  0.0132
  500BOLB   C1D11997  20.535  13.755   5.914  0.1168 -0.1289 -0.1465
  500BOLB   C2D11998  20.436  13.339   6.027 -0.0840 -0.0420  0.0406
  500BOLB   C3D11999  20.102  13.255   6.333 -0.1842 -0.1031  0.3232
  500BOLB   C4D12000  19.839  13.041   6.672 -0.0984 -0.0048  0.2191
  501BOLB   NC112001  21.028  10.743  22.892  0.2825 -0.0297  0.0799
  501BOLB   PO112002  20.656  10.855  23.115 -0.1303 -0.1088 -0.0019
  501BOLB   GL112003  20.918  11.170  23.373 -0.0601  0.0295  0.1938
  501BOLB   GL212004  20.768  11.255  23.584 -0.2404  0.0125 -0.3967
  501BOLB   C1A12005  21.398  11.370  23.364  0.0888 -0.0986 -0.0584
  501BOLB   C2A12006  21.794  11.309  23.535  0.0822  0.6082 -0.1465
  501BOLB   C3A12007  22.092  11.584  23.709  0.3767  0.1183  0.0350
  501BOLB   C4A12008  22.474  11.618  23.878  0.1296  0.0732 -0.0974
  501BOLB   C1B12009  21.149  11.376  23.840  0.1875  0.1642  0.0010
  501BOLB   C2B12010  21.333  11.211  24.262 -0.1172 -0.0400  0.1698
  501BOLB   C3B12011  21.645  11.387  24.654  0.1460  0.3402 -0.2074
  501BOLB   C4B12012  21.985  11.750  24.728  0.2415  0.2074  0.0383
  501BOLB   NC212013  24.453  13.327  24.714  0.1016  0.2946 -0.0479
  501BOLB   PO212014  24.073  13.054  24.648 -0.0339  0.1965 -0.3996
  501BOLB   GL312015  23.698  12.848  24.398  0.3640  0.1300  0.1947
  501BOLB   GL412016  23.352  12.949  24.459 -0.0976 -0.1279  0.2228
  501BOLB   C1C12017  23.649  12.450  24.317 -0.0674  0.2587  0.0966
  501BOLB   C2C12018  23.400  12.174  24.255 -0.2138 -0.0481  0.5051
  501BOLB   C3C12019  23.236  11.864  24.105  0.0072 -0.0830  0.2957
  501BOLB   C4C12020  22.885  11.838  24.066  0.0280  0.0982 -0.1316
  501BOLB   C1D12021  23.102  12.614  24.416  0.4325 -0.0954 -0.0791
  501BOLB   C2D12022  22.937  12.457  24.114 -0.0725  0.0317 -0.0521
  501BOLB   C3D12023  23.182  12.222  23.790 -0.0114  0.2776  0.0572
  501BOLB   C4D12024  23.157  12.143  23.349 -0.0482  0.0815  0.0913
  502BOLB   NC112025   8.257  10.605  17.463 -0.1385  0.0705 -0.1937
  502BOLB   PO112026   8.106  10.785  17.044  0.0215  0.1539 -0.1416
  502BOLB   GL112027   7.738  10.771  17.056 -0.2825  0.0475 -0.2310
  502BOLB   GL212028   7.606  10.595  16.774  0.1312 -0.0795  0.5248
  502BOLB   C1A12029   7.381  10.876  17.157 -0.0823 -0.0360 -0.0227
  502BOLB   C2A12030   6.913  10.981  17.105 -0.2207 -0.6163  0.0077
  502BOLB   C3A12031   6.659  10.603  17.083 -0.1474 -0.0803 -0.0252
  502BOLB   C4A12032   6.247  10.495  17.296  0.0343 -0.0210  0.0142
  502BOLB   C1B12033   7.255  10.888  16.677 -0.1953  0.1124 -0.2535
  502BOLB   C2B12034   6.838  10.847  16.640 -0.0664  0.0730  0.0476
  502BOLB   C3B12035   6.381  11.079  16.723  0.1649  0.1382 -0.1165
  502BOLB   C4B12036   6.116  11.134  16.979 -0.1008  0.3593  0.0091
  502BOLB   NC212037   4.284  10.662  18.540 -0.0412 -0.2632  0.1492
  502BOLB   PO212038   4.026  10.791  18.311 -0.2317  0.2900 -0.1028
  502BOLB   GL312039   4.369  10.491  17.979 -0.2210 -0.4401 -0.1365
  502BOLB   GL412040   4.316  10.342  17.626 -0.1050 -0.2115  0.1757
  502BOLB   C1C12041   4.777  10.451  18.007 -0.0577 -0.2216 -0.0474
  502BOLB   C2C12042   5.180  10.365  17.805  0.1042  0.1125 -0.4600
  502BOLB   C3C12043   5.605  10.212  17.717 -0.0469  0.0238  0.1352
  502BOLB   C4C12044   5.821  10.453  17.439  0.0858  0.1473 -0.1003
  502BOLB   C1D12045   4.675  10.424  17.515  0.3077  0.0736  0.3564
  502BOLB   C2D12046   4.902  10.759  17.354  0.3091 -0.1619 -0.1266
  502BOLB   C3D12047   5.285  11.195  17.446  0.1515  0.0694  0.1007
  502BOLB   C4D12048   5.646  11.367  17.254  0.2761 -0.0430 -0.0193
  503BOLB   NC112049   9.797  13.357  12.516 -0.1589 -0.1184 -0.1518
  503BOLB   PO112050   9.596  13.477  12.145 -0.1018 -0.0368  0.2037
  503BOLB   GL112051   9.210  13.715  12.001 -0.1127 -0.0531  0.3850
  503BOLB   GL212052   9.062  13.462  12.148 -0.2343  0.3787 -0.0753
  503BOLB   C1A12053   8.941  14.006  11.681  0.2218 -0.0545 -0.1447
  503BOLB   C2A12054   8.478  13.985  11.618  0.1639 -0.1255  0.1354
  503BOLB   C3A12055   8.101  14.000  11.796  0.2317 -0.0539  0.0575
  503BOLB   C4A12056   7.771  14.008  11.826  0.3407 -0.1255 -0.0060
  503BOLB   C1B12057   8.636  13.671  11.963 -0.0827 -0.0991 -0.1733
  503BOLB   C2B12058   8.574  13.998  12.154  0.3578  0.1021  0.0617
  503BOLB   C3B12059   8.316  14.333  12.166 -0.2587  0.0035 -0.0787
  503BOLB   C4B12060   8.029  14.589  11.976 -0.1836  0.3960 -0.0948
  503BOLB   NC212061   5.502  14.795  11.635  0.2304  0.1434  0.1422
  503BOLB   PO212062   5.812  15.202  11.564  0.0023 -0.0585 -0.0392
  503BOLB   GL312063   6.053  14.824  11.421  0.1595  0.1893  0.2823
  503BOLB   GL412064   5.945  14.437  11.470 -0.0460 -0.2917 -0.3301
  503BOLB   C1C12065   6.367  14.733  11.635 -0.2561  0.0619  0.0051
  503BOLB   C2C12066   6.728  14.483  11.865 -0.1143 -0.0345 -0.2088
  503BOLB   C3C12067   7.036  14.406  12.054 -0.0021 -0.1181  0.2393
  503BOLB   C4C12068   7.349  14.105  11.951  0.1612 -0.2078  0.0161
  503BOLB   C1D12069   6.327  14.316  11.309  0.2252  0.3483  0.0257
  503BOLB   C2D12070   6.571  14.003  11.107 -0.1095 -0.1324 -0.5884
  503BOLB   C3D12071   6.395  13.669  11.235  0.0381  0.0499 -0.1620
  503BOLB   C4D12072   6.520  13.336  11.351 -0.0816  0.0847 -0.0737
  504BOLB   NC112073  22.508   8.973  11.192  0.0255 -0.0834  0.0444
  504BOLB   PO112074  22.511   9.345  11.189  0.1895  0.3210 -0.0813
  504BOLB   GL112075  22.735   9.377  10.864 -0.1815 -0.0005  0.2083
  504BOLB   GL212076  22.526   9.180  10.698  0.1142  0.1934  0.0787
  504BOLB   C1A12077  23.005   9.627  10.556 -0.1698  0.1766 -0.5294
  504BOLB   C2A12078  23.238   9.988  10.306 -0.0741  0.0213  0.2341
  504BOLB   C3A12079  23.493  10.291  10.230 -0.2953  0.2034  0.0990
  504BOLB   C4A12080  23.882  10.378  10.141 -0.0392 -0.0064 -0.3054
  504BOLB   C1B12081  22.783   9.153  10.386 -0.1363  0.1213  0.5322
  504BOLB   C2B12082  22.863   8.967  10.006 -0.0230 -0.1041 -0.1692
  504BOLB   C3B12083  23.006   8.708   9.711  0.1804  0.1250 -0.3496
  504BOLB   C4B12084  23.374   8.560   9.632  0.1388  0.0126 -0.2140
  504BOLB   NC212085  26.790  11.066   9.301  0.3213 -0.0335  0.3140
  504BOLB   PO212086  26.484  10.736   9.315  0.1760  0.0884 -0.1087
  504BOLB   GL312087  25.974  10.698   9.412 -0.2228  0.0106 -0.0494
  504BOLB   GL412088  25.691  11.015   9.282 -0.1214  0.0609  0.0211
  504BOLB   C1C12089  25.455  10.625   9.343 -0.1133  0.2139 -0.1611
  504BOLB   C2C12090  25.063  10.514   9.523  0.1137 -0.2882 -0.1710
  504BOLB   C3C12091  24.790  10.418   9.838  0.0549  0.1255 -0.0469
  504BOLB   C4C12092  24.359  10.503  10.048 -0.4150 -0.0450 -0.0775
  504BOLB   C1D12093  25.351  11.295   9.361 -0.1155 -0.2211 -0.0603
  504BOLB   C2D12094  25.246  11.495   9.716  0.1959  0.2548  0.1634
  504BOLB   C3D12095  25.000  11.790   9.784  0.3750  0.1298  0.0889
  504BOLB   C4D12096  24.726  12.140   9.932  0.1176  0.3100  0.1688
  505BOLB   NC112097  14.195  12.803  22.848 -0.1901  0.0818 -0.2784
  505BOLB   PO112098  13.767  12.612  22.959 -0.1239  0.0255 -0.1301
  505BOLB   GL112099  13.530  12.822  23.234 -0.1964 -0.3472  0.1177
  505BOLB   GL212100  13.209  12.721  23.244 -0.0492 -0.1078 -0.2715
  505BOLB   C1A12101  13.398  12.918  23.624 -0.1904 -0.2172 -0.1195
  505BOLB   C2A12102  13.417  13.082  24.075 -0.3783 -0.0438 -0.0439
  505BOLB   C3A12103  13.405  13.463  24.379  0.2491 -0.0066  0.2169
  505BOLB   C4A12104  13.332  13.785  24.576  0.1104  0.0335 -0.2001
  505BOLB   C1B12105  12.899  12.369  23.224 -0.2170  0.2936  0.2335
  505BOLB   C2B12106  12.499  12.234  22.991 -0.3192  0.0466  0.1504
  505BOLB   C3B12107  12.017  12.351  23.165  0.1021  0.0852  0.1088
  505BOLB   C4B12108  11.583  12.191  23.292 -0.1335 -0.1000  0.0645
  505BOLB   NC212109  13.055  15.087  26.512  0.0683 -0.2968  0.0515
  505BOLB   PO212110  13.388  14.989  26.759 -0.2005  0.1367 -0.0559
  505BOLB   GL312111  13.529  14.956  26.273 -0.0337 -0.1983 -0.0215
  505BOLB   GL412112  13.726  15.187  26.223 -0.0985 -0.2263 -0.1730
  505BOLB   C1C12113  13.525  14.638  25.913  0.4071 -0.1790 -0.0473
  505BOLB   C2C12114  13.190  14.496  25.704 -0.0180 -0.3602  0.1081
  505BOLB   C3C12115  13.347  14.237  25.472  0.1132 -0.1118  0.2749
  505BOLB   C4C12116  13.246  14.129  24.993  0.2249  0.0529 -0.1198
  505BOLB   C1D12117  13.916  14.987  25.880  0.2676 -0.0262  0.1535
  505BOLB   C2D12118  14.247  15.082  25.694  0.0429 -0.0865  0.3122
  505BOLB   C3D12119  14.595  15.449  25.660  0.1436  0.0107  0.2114
  505BOLB   C4D12120  14.962  15.371  25.348  0.1651 -0.0241 -0.1159
  506BOLB   NC112121  14.993  15.117   9.491 -0.1779  0.1199 -0.3527
  506BOLB   PO112122  15.159  15.280   9.226  0.0503  0.2929  0.3142
  506BOLB   GL112123  15.021  15.436   8.821 -0.0170  0.2205 -0.0500
  506BOLB   GL212124  15.275  15.323   8.626 -0.1232 -0.0782  0.0977
  506BOLB   C1A12125  15.145  15.844   8.623  0.1502 -0.0137  0.1458
  506BOLB   C2A12126  15.346  16.039   8.209  0.2606 -0.0301  0.0420
  506BOLB   C3A12127  15.693  16.150   7.851  0.0460  0.3530 -0.2773
  506BOLB   C4A12128  15.586  16.306   7.454 -0.1318  0.1544  0.2027
  506BOLB   C1B12129  15.195  15.539   8.138  0.0580 -0.0196 -0.0561
  506BOLB   C2B12130  14.930  15.941   7.965  0.1796  0.0674  0.0044
  506BOLB   C3B12131  15.128  16.196   7.665 -0.2333 -0.0828 -0.1310
  506BOLB   C4B12132  15.129  16.437   7.322  0.1430  0.0201 -0.0123
  506BOLB   NC212133  16.816  17.366   5.624 -0.2520  0.0740  0.0447
  506BOLB   PO212134  16.663  17.445   5.999  0.2141  0.1304 -0.1669
  506BOLB   GL312135  16.328  17.273   6.187 -0.3509  0.1547  0.0048
  506BOLB   GL412136  16.142  17.142   6.013  0.2246 -0.3535  0.1713
  506BOLB   C1C12137  16.251  17.082   6.536 -0.2789 -0.0194  0.1005
  506BOLB   C2C12138  16.183  16.989   6.930 -0.0681 -0.0404  0.0205
  506BOLB   C3C12139  15.759  17.014   7.176  0.2570  0.0555  0.1172
  506BOLB   C4C12140  15.561  16.705   7.424  0.0691  0.5463  0.0553
  506BOLB   C1D12141  16.191  16.775   6.145 -0.1304  0.2572  0.2148
  506BOLB   C2D12142  16.367  16.452   6.167 -0.3094  0.2646  0.0850
  506BOLB   C3D12143  16.533  16.170   6.410 -0.1538 -0.0384  0.2279
  506BOLB   C4D12144  16.457  15.652   6.562 -0.1520 -0.0807 -0.0313
  507BOLB   NC112145   9.767   7.298  19.751  0.2097  0.1323  0.0516
  507BOLB   PO112146   9.597   7.198  20.193 -0.0801  0.1589 -0.2562
  507BOLB   GL112147   9.229   6.840  20.239  0.3702 -0.0758  0.0791
  507BOLB   GL212148   9.322   6.520  20.218  0.3490  0.2634  0.1060
  507BOLB   C1A12149   8.856   6.748  20.327  0.0606 -0.1288 -0.0580
  507BOLB   C2A12150   8.608   6.567  20.762  0.2910  0.2142  0.2845
  507BOLB   C3A12151   8.710   6.428  21.083 -0.1499  0.1652  0.3926
  507BOLB   C4A12152   8.589   6.309  21.546  0.2301  0.3166  0.3434
  507BOLB   C1B12153   9.007   6.291  20.459  0.2898 -0.0303 -0.0468
  507BOLB   C2B12154   8.782   5.918  20.695  0.3720 -0.2882  0.2687
  507BOLB   C3B12155   8.670   5.490  20.727  0.1382  0.1994  0.1306
  507BOLB   C4B12156   8.672   5.055  20.948 -0.3238 -0.3535 -0.1314
  507BOLB   NC212157   7.113   5.145  24.072 -0.0361  0.0474 -0.2518
  507BOLB   PO212158   7.511   5.304  23.683  0.3398  0.2809 -0.0417
  507BOLB   GL312159   7.425   5.533  23.382 -0.0596  0.2180 -0.1839
  507BOLB   GL412160   7.701   5.422  22.996 -0.0137  0.0967  0.0117
  507BOLB   C1C12161   7.421   5.857  22.969 -0.0096 -0.0044 -0.0657
  507BOLB   C2C12162   7.476   6.112  22.616  0.1133  0.1086 -0.2504
  507BOLB   C3C12163   7.805   6.235  22.329  0.1987  0.2739  0.0947
  507BOLB   C4C12164   8.157   6.238  21.946 -0.1261 -0.2597 -0.1745
  507BOLB   C1D12165   8.091   5.428  23.160 -0.3177 -0.2393 -0.2280
  507BOLB   C2D12166   8.354   5.787  23.298 -0.0149 -0.0089  0.1860
  507BOLB   C3D12167   8.803   5.842  23.149  0.0883 -0.0384  0.0961
  507BOLB   C4D12168   8.939   5.896  22.771 -0.0168  0.3000 -0.0431
  508BOLB   NC112169  21.091  13.527  21.656 -0.1973  0.0352 -0.0575
  508BOLB   PO112170  21.163  13.088  21.718 -0.1348 -0.1577 -0.0474
  508BOLB   GL112171  21.449  13.280  22.009  0.0258  0.0667  0.1721
  508BOLB   GL212172  21.426  13.644  22.005 -0.3802  0.1090  0.2589
  508BOLB   C1A12173  21.731  13.401  22.342 -0.0491  0.3389 -0.1008
  508BOLB   C2A12174  21.962  13.719  22.541  0.1637 -0.2229  0.0941
  508BOLB   C3A12175  22.114  14.072  22.837  0.0031 -0.1231  0.1060
  508BOLB   C4A12176  22.452  14.212  23.084 -0.2335 -0.1081 -0.0762
  508BOLB   C1B12177  21.286  13.727  22.399 -0.3402  0.1075 -0.1520
  508BOLB   C2B12178  21.468  13.704  22.800 -0.1047  0.1067 -0.1555
  508BOLB   C3B12179  21.745  13.814  23.096  0.1192  0.1229 -0.0718
  508BOLB   C4B12180  22.087  14.059  23.388 -0.3317 -0.0547 -0.1312
  508BOLB   NC212181  23.800  14.813  24.986  0.0164  0.3892 -0.0189
  508BOLB   PO212182  24.113  14.821  24.721  0.2335 -0.1995  0.1198
  508BOLB   GL312183  23.818  14.533  24.462  0.3179  0.1828  0.4121
  508BOLB   GL412184  24.006  14.551  24.201 -0.1286  0.0797  0.0122
  508BOLB   C1C12185  23.460  14.580  24.154  0.2177 -0.3787 -0.0616
  508BOLB   C2C12186  23.144  14.659  23.755 -0.3278  0.1035  0.0928
  508BOLB   C3C12187  22.921  14.498  23.590  0.2288  0.1986 -0.1661
  508BOLB   C4C12188  22.748  14.415  23.264 -0.0978 -0.3729 -0.0775
  508BOLB   C1D12189  23.888  14.459  23.793  0.0985  0.0814  0.1013
  508BOLB   C2D12190  23.987  14.568  23.326 -0.3204  0.1088  0.4055
  508BOLB   C3D12191  23.732  14.678  23.024  0.2961  0.1224  0.1569
  508BOLB   C4D12192  23.581  14.890  22.590  0.0279 -0.0639 -0.2725
  509BOLB   NC112193  15.403  13.385  23.189  0.2765  0.1266  0.1034
  509BOLB   PO112194  15.163  13.634  22.964 -0.0016 -0.2253  0.1067
  509BOLB   GL112195  14.963  13.771  23.383  0.0776 -0.0179 -0.0497
  509BOLB   GL212196  15.046  13.444  23.595 -0.0978  0.0133 -0.1671
  509BOLB   C1A12197  14.866  13.904  23.728  0.0617 -0.3747  0.1064
  509BOLB   C2A12198  14.835  14.128  23.997  0.0667  0.2467 -0.0373
  509BOLB   C3A12199  14.453  14.510  24.143 -0.1473 -0.1998  0.0275
  509BOLB   C4A12200  14.045  14.600  24.404  0.0333 -0.1881 -0.1800
  509BOLB   C1B12201  14.823  13.479  23.986 -0.0579 -0.5319 -0.1351
  509BOLB   C2B12202  14.614  13.765  24.344  0.0505  0.0332  0.1536
  509BOLB   C3B12203  14.682  13.834  24.671  0.0655  0.0995 -0.0991
  509BOLB   C4B12204  14.583  14.111  24.967 -0.0016 -0.3551  0.0194
  509BOLB   NC212205  12.591  15.370  26.798 -0.0160  0.1476  0.0852
  509BOLB   PO212206  12.703  15.451  26.292  0.1409  0.2589 -0.1492
  509BOLB   GL312207  13.011  15.277  25.894 -0.1405  0.1191  0.1991
  509BOLB   GL412208  13.107  14.958  26.028 -0.3903 -0.0341  0.1148
  509BOLB   C1C12209  13.273  15.000  25.592  0.0794 -0.3595  0.1404
  509BOLB   C2C12210  13.527  14.701  25.418 -0.0857 -0.1398 -0.1152
  509BOLB   C3C12211  13.693  14.427  25.149  0.4580  0.1907  0.2249
  509BOLB   C4C12212  13.829  14.648  24.739 -0.0826  0.1565 -0.0386
  509BOLB   C1D12213  12.761  14.806  25.723 -0.1958  0.1019  0.2309
  509BOLB   C2D12214  12.921  14.603  25.299 -0.1369 -0.1790 -0.3531
  509BOLB   C3D12215  13.225  14.660  24.973 -0.0844 -0.0471 -0.0065
  509BOLB   C4D12216  13.444  14.383  24.678  0.3051  0.3092 -0.0798
  510BOLB   NC112217  17.410  14.361   8.638 -0.0972  0.0339  0.2841
  510BOLB   PO112218  17.086  14.631   8.707 -0.0935 -0.0372  0.1755
  510BOLB   GL112219  16.972  14.843   8.371  0.0515  0.0519  0.1089
  510BOLB   GL212220  16.617  14.938   8.359 -0.1513 -0.1367  0.0333
  510BOLB   C1A12221  17.048  15.137   8.127 -0.0817 -0.1508  0.0815
  510BOLB   C2A12222  16.811  15.420   7.979  0.2456 -0.1872  0.1835
  510BOLB   C3A12223  16.738  15.912   8.017  0.1810 -0.0136  0.1646
  510BOLB   C4A12224  16.686  16.249   7.915  0.1971 -0.0713  0.0997
  510BOLB   C1B12225  16.493  14.916   7.988 -0.1713 -0.1516 -0.0473
  510BOLB   C2B12226  16.385  15.001   7.504 -0.0533  0.1603 -0.2415
  510BOLB   C3B12227  16.292  15.254   7.220  0.1024 -0.2433 -0.4329
  510BOLB   C4B12228  16.001  15.420   6.901 -0.1310 -0.0452  0.1134
  510BOLB   NC212229  16.632  17.907   6.762  0.3743  0.0637  0.1213
  510BOLB   PO212230  16.366  17.751   6.316 -0.0199  0.0204  0.1647
  510BOLB   GL312231  16.548  17.483   6.635  0.3097  0.0412 -0.0707
  510BOLB   GL412232  16.646  17.481   7.052 -0.1190  0.0042  0.1389
  510BOLB   C1C12233  16.761  17.154   6.691  0.0739 -0.0762  0.1512
  510BOLB   C2C12234  16.839  16.851   6.978  0.0823 -0.0147  0.1414
  510BOLB   C3C12235  16.664  16.596   7.281  0.1190  0.1889  0.1483
  510BOLB   C4C12236  16.648  16.657   7.695  0.4736  0.0307  0.1911
  510BOLB   C1D12237  16.622  17.108   7.397  0.2403  0.1364  0.3640
  510BOLB   C2D12238  16.249  16.783   7.349  0.0082 -0.1660 -0.2204
  510BOLB   C3D12239  16.291  16.281   7.355 -0.0517 -0.0346 -0.1696
  510BOLB   C4D12240  16.342  15.780   7.125 -0.0932  0.2031 -0.0928
  511BOLB   NC112241  12.621  16.865  13.052  0.1596 -0.2479 -0.1137
  511BOLB   PO112242  13.014  17.137  13.035  0.1274  0.0926 -0.2674
  511BOLB   GL112243  12.645  17.272  12.669 -0.3134  0.0309  0.6476
  511BOLB   GL212244  12.398  17.127  12.659  0.3107  0.2740 -0.1438
  511BOLB   C1A12245  12.575  17.603  12.450 -0.3154 -0.0417  0.2137
  511BOLB   C2A12246  12.245  17.786  12.370 -0.2301 -0.1704 -0.0445
  511BOLB   C3A12247  11.899  18.035  12.520  0.0089 -0.0232  0.2820
  511BOLB   C4A12248  11.560  18.349  12.598 -0.1237  0.0073 -0.2158
  511BOLB   C1B12249  12.162  17.312  12.365  0.0362  0.1412  0.0611
  511BOLB   C2B12250  11.930  17.380  12.001 -0.0964  0.0249 -0.2794
  511BOLB   C3B12251  11.577  17.739  11.812  0.3055 -0.0715  0.0296
  511BOLB   C4B12252  11.263  17.769  11.598 -0.1445  0.2073  0.1126
  511BOLB   NC212253  11.353  20.942  11.232  0.0719 -0.0462  0.0377
  511BOLB   PO212254  11.190  20.476  11.225 -0.1613  0.1599 -0.0643
  511BOLB   GL312255  11.267  20.067  11.484  0.1277  0.0081 -0.0577
  511BOLB   GL412256  11.358  20.067  11.751  0.2629 -0.1059  0.2345
  511BOLB   C1C12257  11.360  19.609  11.576 -0.0691 -0.1830 -0.1732
  511BOLB   C2C12258  11.510  19.253  11.774  0.1555  0.2146 -0.1965
  511BOLB   C3C12259  11.421  18.844  12.063  0.2623  0.1369 -0.2207
  511BOLB   C4C12260  11.321  18.615  12.431  0.1610 -0.3174  0.0399
  511BOLB   C1D12261  11.388  20.027  12.262 -0.1403  0.1119  0.1264
  511BOLB   C2D12262  11.272  19.668  12.567  0.0697 -0.0004  0.1297
  511BOLB   C3D12263  11.520  19.511  12.962  0.2249  0.1218 -0.1394
  511BOLB   C4D12264  11.640  19.188  13.174  0.2717 -0.1361  0.3523
  512BOLB   NC112265  22.979   7.616  16.175  0.1285  0.1179  0.1901
  512BOLB   PO112266  23.275   7.237  16.106 -0.0162  0.2388 -0.1124
  512BOLB   GL112267  23.786   7.023  15.949  0.1272 -0.2283 -0.0947
  512BOLB   GL212268  23.965   7.263  16.094  0.3740  0.1705 -0.0709
  512BOLB   C1A12269  24.179   6.919  15.847 -0.2352  0.1806  0.2256
  512BOLB   C2A12270  24.578   6.534  15.853  0.1452 -0.0392  0.5077
  512BOLB   C3A12271  24.954   6.438  16.052 -0.1568 -0.1170  0.0851
  512BOLB   C4A12272  25.313   6.243  16.251  0.3674  0.0424 -0.0401
  512BOLB   C1B12273  24.448   7.194  16.239 -0.2127  0.3548 -0.2333
  512BOLB   C2B12274  24.787   6.903  16.486  0.0573  0.0480 -0.2296
  512BOLB   C3B12275  25.201   6.622  16.672  0.1421 -0.1283  0.1119
  512BOLB   C4B12276  25.517   6.560  16.955 -0.2271  0.2248 -0.1811
  512BOLB   NC212277  27.690   5.991  16.717  0.0046  0.2658 -0.1973
  512BOLB   PO212278  27.514   6.067  16.251  0.1513  0.1373  0.0274
  512BOLB   GL312279  27.151   5.905  16.042 -0.3087 -0.0354 -0.0064
  512BOLB   GL412280  27.091   6.066  15.646  0.1534  0.1912  0.0443
  512BOLB   C1C12281  26.776   5.936  16.235 -0.0411  0.0579 -0.0912
  512BOLB   C2C12282  26.359   5.775  16.205 -0.0133 -0.1046  0.0879
  512BOLB   C3C12283  26.012   5.904  16.318 -0.2092  0.3613 -0.1464
  512BOLB   C4C12284  25.634   5.964  16.237  0.0165  0.1275 -0.0635
  512BOLB   C1D12285  26.744   5.856  15.733  0.2892 -0.0449  0.0770
  512BOLB   C2D12286  26.227   5.846  15.735 -0.0071 -0.3043  0.1289
  512BOLB   C3D12287  25.689   6.010  15.729  0.1700  0.0240  0.2300
  512BOLB   C4D12288  25.186   6.065  15.775  0.2207  0.1529 -0.2673
  513BOLB   NC112289  18.617  16.757  11.423  0.1433 -0.2185 -0.1119
  513BOLB   PO112290  19.024  16.771  11.547 -0.1234  0.1406  0.2076
  513BOLB   GL112291  19.207  17.010  11.251  0.1083 -0.0951 -0.1826
  513BOLB   GL212292  19.539  17.076  11.447  0.0990 -0.0248 -0.0006
  513BOLB   C1A12293  19.396  17.220  10.935  0.0907 -0.2035 -0.0556
  513BOLB   C2A12294  19.527  17.405  10.544 -0.1770 -0.4203  0.2149
  513BOLB   C3A12295  19.765  17.597  10.281 -0.0713 -0.0733 -0.0918
  513BOLB   C4A12296  19.716  18.029  10.160  0.2894 -0.1845  0.1581
  513BOLB   C1B12297  19.720  17.421  11.279 -0.0976  0.2159 -0.1236
  513BOLB   C2B12298  19.671  17.715  11.028 -0.1132  0.0509 -0.0704
  513BOLB   C3B12299  19.498  17.903  10.659 -0.1419 -0.2278  0.2452
  513BOLB   C4B12300  19.324  18.223  10.389  0.3465  0.0583 -0.2565
  513BOLB   NC212301  19.624  20.100   8.463 -0.1697  0.3007  0.0813
  513BOLB   PO212302  19.692  20.198   8.919  0.1500  0.3445 -0.0273
  513BOLB   GL312303  19.546  19.746   9.215 -0.0060  0.2360  0.0298
  513BOLB   GL412304  19.472  19.741   9.473  0.1711  0.0721  0.3014
  513BOLB   C1C12305  19.343  19.346   9.144  0.1530  0.2488  0.4712
  513BOLB   C2C12306  19.358  18.969   9.432 -0.1479  0.2763  0.1612
  513BOLB   C3C12307  19.529  18.610   9.617 -0.0195 -0.1530 -0.0178
  513BOLB   C4C12308  19.755  18.271   9.882  0.2038 -0.0663  0.1479
  513BOLB   C1D12309  19.088  19.449   9.638 -0.3801  0.0759 -0.0799
  513BOLB   C2D12310  19.259  19.132   9.847  0.2389  0.0160 -0.0354
  513BOLB   C3D12311  19.549  18.981  10.061 -0.1085 -0.3041 -0.3162
  513BOLB   C4D12312  19.984  18.726  10.074  0.1090 -0.1442  0.0087
  514BOLB   NC112313  19.909   9.123   9.451 -0.0363 -0.0261 -0.2363
  514BOLB   PO112314  19.824   8.871   9.153 -0.2859  0.1825  0.1036
  514BOLB   GL112315  20.003   8.858   8.818  0.0471  0.0533  0.0512
  514BOLB   GL212316  20.080   9.132   8.716 -0.2650  0.0408  0.1060
  514BOLB   C1A12317  20.114   8.565   8.462 -0.1560 -0.1786 -0.0881
  514BOLB   C2A12318  19.977   8.371   8.213  0.0571 -0.0172 -0.0323
  514BOLB   C3A12319  19.933   8.378   7.773 -0.2902  0.1449 -0.0345
  514BOLB   C4A12320  19.895   8.653   7.525 -0.2014 -0.1034 -0.1823
  514BOLB   C1B12321  20.451   9.142   8.501  0.0293 -0.0514 -0.1865
  514BOLB   C2B12322  20.857   9.081   8.270 -0.3062  0.1819 -0.2126
  514BOLB   C3B12323  21.169   8.744   8.189 -0.1317 -0.0622  0.1370
  514BOLB   C4B12324  21.407   8.361   8.035  0.1629  0.0267 -0.1245
  514BOLB   NC212325  20.992   8.931   5.503 -0.0754 -0.0722  0.2732
  514BOLB   PO212326  20.690   9.147   5.528 -0.2244 -0.6895  0.2551
  514BOLB   GL312327  20.586   8.770   5.711 -0.1468  0.4756 -0.1145
  514BOLB   GL412328  20.278   8.524   5.621  0.1362 -0.1089 -0.2907
  514BOLB   C1C12329  20.619   8.710   6.125  0.1593  0.1145  0.1048
  514BOLB   C2C12330  20.553   8.653   6.519  0.0352 -0.0906 -0.1586
  514BOLB   C3C12331  20.363   8.508   6.934 -0.3130  0.5118 -0.1916
  514BOLB   C4C12332  20.091   8.621   7.155  0.0132  0.0410 -0.0727
  514BOLB   C1D12333  20.043   8.891   5.752 -0.0351 -0.1121 -0.0773
  514BOLB   C2D12334  19.722   9.002   5.975 -0.2934 -0.1323  0.2996
  514BOLB   C3D12335  19.685   9.089   6.407 -0.1134 -0.2105  0.0333
  514BOLB   C4D12336  19.616   9.001   6.837  0.0372  0.1387  0.1361
  515BOLB   NC112337  15.856  14.130  23.228 -0.0005 -0.1738 -0.3046
  515BOLB   PO112338  16.175  13.865  23.543 -0.1427  0.3574  0.3568
  515BOLB   GL112339  16.017  14.131  23.718  0.0627 -0.1838 -0.1245
  515BOLB   GL212340  15.758  14.259  23.705 -0.1351 -0.1537 -0.2246
  515BOLB   C1A12341  16.096  13.989  24.147 -0.0659  0.1838 -0.2771
  515BOLB   C2A12342  16.105  14.122  24.478  0.1530  0.0246 -0.1682
  515BOLB   C3A12343  16.046  14.072  24.870  0.0193  0.1242 -0.2143
  515BOLB   C4A12344  16.074  13.921  25.270 -0.5470  0.1612  0.2846
  515BOLB   C1B12345  15.712  14.275  24.116 -0.0538 -0.1821 -0.3011
  515BOLB   C2B12346  15.718  14.419  24.568  0.2051 -0.0395 -0.0193
  515BOLB   C3B12347  15.683  14.378  25.000  0.0311  0.0482  0.2598
  515BOLB   C4B12348  15.471  14.091  25.318  0.2149  0.0505 -0.2382
  515BOLB   NC212349  15.154  14.313  27.381  0.1624 -0.0930 -0.0037
  515BOLB   PO212350  15.403  13.888  27.418  0.0801 -0.1962  0.3313
  515BOLB   GL312351  15.443  14.134  27.015  0.2176 -0.3360 -0.3806
  515BOLB   GL412352  15.151  14.278  26.886  0.3110  0.1244  0.0033
  515BOLB   C1C12353  15.809  14.062  26.820 -0.1423  0.1625  0.1053
  515BOLB   C2C12354  15.906  13.867  26.371 -0.1471 -0.0176  0.3147
  515BOLB   C3C12355  16.043  13.678  25.980 -0.3045 -0.0797  0.0674
  515BOLB   C4C12356  16.058  13.862  25.638 -0.1088  0.0534  0.1906
  515BOLB   C1D12357  15.413  14.383  26.561 -0.0155 -0.2134  0.0743
  515BOLB   C2D12358  15.746  14.456  26.422 -0.1210  0.0299 -0.2182
  515BOLB   C3D12359  15.997  14.431  26.126  0.0250 -0.0220 -0.2412
  515BOLB   C4D12360  16.318  14.182  25.861 -0.1397 -0.0824 -0.3904
  516BOLB   NC112361  14.340  14.331  22.739 -0.2389  0.0315  0.0383
  516BOLB   PO112362  14.580  14.666  22.791  0.0627  0.1056 -0.0154
  516BOLB   GL112363  14.495  14.774  23.120  0.1842 -0.2880  0.1735
  516BOLB   GL212364  14.754  14.921  23.242 -0.2896 -0.1159  0.0631
  516BOLB   C1A12365  14.056  14.853  23.263 -0.1855 -0.4106  0.2855
  516BOLB   C2A12366  13.837  15.095  23.568 -0.4120 -0.2730 -0.1738
  516BOLB   C3A12367  13.912  15.497  23.634 -0.2971 -0.1201  0.3560
  516BOLB   C4A12368  13.842  15.898  23.845  0.3167  0.2657  0.2446
  516BOLB   C1B12369  14.709  15.006  23.672  0.1690 -0.0669 -0.1702
  516BOLB   C2B12370  14.669  14.948  24.101 -0.0729  0.2571  0.2656
  516BOLB   C3B12371  14.878  15.130  24.370  0.0141 -0.5612 -0.2109
  516BOLB   C4B12372  15.355  15.157  24.207  0.2411  0.1130  0.0834
  516BOLB   NC212373  12.460  16.104  26.104  0.3917  0.1541  0.1234
  516BOLB   PO212374  12.849  16.298  25.748 -0.1230  0.0585 -0.1936
  516BOLB   GL312375  12.911  16.362  25.252 -0.0292  0.2579  0.2439
  516BOLB   GL412376  13.187  16.498  25.131 -0.1156  0.1798  0.0261
  516BOLB   C1C12377  12.909  16.017  25.072  0.0415  0.0475  0.1265
  516BOLB   C2C12378  12.941  15.886  24.729 -0.1843  0.0158 -0.1953
  516BOLB   C3C12379  13.248  15.914  24.457 -0.0345  0.1599  0.0180
  516BOLB   C4C12380  13.599  16.046  24.162  0.2138 -0.0280 -0.1667
  516BOLB   C1D12381  13.351  16.131  24.969  0.0682  0.1257  0.3912
  516BOLB   C2D12382  13.770  16.091  24.729 -0.3272  0.3345 -0.0815
  516BOLB   C3D12383  14.101  15.949  24.895  0.1094 -0.0170 -0.2428
  516BOLB   C4D12384  14.212  16.346  25.064 -0.0417  0.0176 -0.1995
  517BOLB   NC112385   9.758   6.701  20.101  0.0275 -0.1816 -0.0668
  517BOLB   PO112386   9.431   6.963  19.821 -0.0766 -0.1268 -0.1121
  517BOLB   GL112387   9.164   6.549  19.678  0.1260  0.5724  0.0342
  517BOLB   GL212388   9.230   6.237  19.592 -0.0755 -0.3910  0.0006
  517BOLB   C1A12389   8.758   6.465  19.908 -0.1402 -0.2720 -0.0004
  517BOLB   C2A12390   8.487   6.499  20.239  0.1927  0.2649 -0.1312
  517BOLB   C3A12391   8.201   6.346  20.518  0.3297 -0.2487  0.0070
  517BOLB   C4A12392   8.092   6.247  20.865  0.2218 -0.2175  0.0009
  517BOLB   C1B12393   8.815   5.927  19.625 -0.0548  0.2199 -0.0515
  517BOLB   C2B12394   8.547   5.578  19.699 -0.0565  0.1850 -0.2207
  517BOLB   C3B12395   8.108   5.392  19.807  0.0476  0.1423 -0.1271
  517BOLB   C4B12396   7.658   5.264  19.757 -0.0618 -0.0138  0.0761
  517BOLB   NC212397   5.899   5.356  22.519 -0.0188  0.0997  0.0155
  517BOLB   PO212398   6.138   5.359  22.077 -0.3152 -0.2182 -0.1037
  517BOLB   GL312399   6.608   5.519  22.042  0.0720  0.1618 -0.1308
  517BOLB   GL412400   6.524   5.622  21.772  0.1383 -0.1857 -0.1244
  517BOLB   C1C12401   7.020   5.606  22.051 -0.1190  0.0639  0.0736
  517BOLB   C2C12402   7.313   5.767  21.719 -0.3812  0.2657 -0.1983
  517BOLB   C3C12403   7.482   5.963  21.357 -0.0612  0.0469  0.1315
  517BOLB   C4C12404   7.862   6.247  21.186  0.1309 -0.2321 -0.4169
  517BOLB   C1D12405   6.851   5.616  21.471  0.2362 -0.0686 -0.0752
  517BOLB   C2D12406   7.171   5.514  21.253 -0.0370  0.1004 -0.1694
  517BOLB   C3D12407   7.514   5.502  20.986  0.2782  0.3674 -0.0772
  517BOLB   C4D12408   7.747   5.451  20.574 -0.2134 -0.0524  0.2218
  518BOLB   NC112409  21.654   8.685  10.788  0.0092 -0.0154 -0.3021
  518BOLB   PO112410  21.722   8.938  10.428 -0.0656  0.3403  0.0920
  518BOLB   GL112411  21.946   8.868  10.039 -0.2586 -0.0980 -0.1509
  518BOLB   GL212412  22.061   9.090   9.807  0.0749 -0.3268  0.1542
  518BOLB   C1A12413  22.344   8.717   9.900  0.0886 -0.1295 -0.3148
  518BOLB   C2A12414  22.479   8.327   9.862  0.3179  0.0129  0.0385
  518BOLB   C3A12415  22.803   8.004   9.582 -0.3818  0.2083 -0.0485
  518BOLB   C4A12416  23.113   8.176   9.252 -0.1252 -0.1017  0.1671
  518BOLB   C1B12417  22.534   8.989   9.499 -0.0592 -0.0534 -0.0780
  518BOLB   C2B12418  22.851   9.115   9.158  0.0558  0.2143  0.4419
  518BOLB   C3B12419  23.054   9.214   8.732  0.1558 -0.1421  0.0363
  518BOLB   C4B12420  23.125   9.316   8.318  0.0899  0.2885 -0.0692
  518BOLB   NC212421  24.282   6.723   7.598 -0.0342 -0.2049  0.4535
  518BOLB   PO212422  24.608   7.004   7.861  0.3015 -0.1089  0.0459
  518BOLB   GL312423  24.217   7.233   8.049 -0.1814 -0.1086 -0.0512
  518BOLB   GL412424  24.418   7.360   8.366  0.2863 -0.1105  0.0443
  518BOLB   C1C12425  23.753   7.252   8.163  0.0998 -0.0064 -0.0950
  518BOLB   C2C12426  23.607   7.573   8.331 -0.3827 -0.0458  0.0091
  518BOLB   C3C12427  23.373   7.824   8.437 -0.1308 -0.0343 -0.3507
  518BOLB   C4C12428  23.319   8.082   8.852 -0.2307  0.0105  0.2266
  518BOLB   C1D12429  24.052   7.415   8.540 -0.3813  0.2828 -0.2000
  518BOLB   C2D12430  23.852   7.743   8.776  0.1773  0.1843  0.0978
  518BOLB   C3D12431  23.796   8.082   9.010 -0.1185  0.0269 -0.1275
  518BOLB   C4D12432  23.667   8.179   9.375  0.1529  0.0058 -0.1978
  519BOLB   NC112433  18.255  15.496  10.319  0.1071 -0.0112 -0.2331
  519BOLB   PO112434  18.390  15.916  10.379 -0.0123 -0.0970  0.1323
  519BOLB   GL112435  18.655  16.240  10.145  0.3538  0.6760  0.0254
  519BOLB   GL212436  18.449  16.248   9.927 -0.0299  0.1264 -0.3018
  519BOLB   C1A12437  18.807  16.663   9.870  0.1066 -0.2828  0.1966
  519BOLB   C2A12438  18.985  16.909   9.532  0.1390 -0.2182 -0.4695
  519BOLB   C3A12439  19.269  17.029   9.288 -0.3114 -0.1098 -0.2118
  519BOLB   C4A12440  19.485  17.142   8.939  0.2330 -0.1234  0.0777
  519BOLB   C1B12441  18.139  16.399   9.598  0.1428  0.0105  0.0783
  519BOLB   C2B12442  17.855  16.473   9.292 -0.1587 -0.0464  0.0578
  519BOLB   C3B12443  17.826  16.745   8.896 -0.0611  0.0347  0.1550
  519BOLB   C4B12444  17.820  17.044   8.564 -0.0137 -0.1234 -0.2996
  519BOLB   NC212445  21.082  18.245   7.729 -0.0823  0.1579  0.2139
  519BOLB   PO212446  20.868  18.149   7.396  0.3767  0.1846  0.0355
  519BOLB   GL312447  20.380  18.008   7.594 -0.1025  0.2028 -0.4701
  519BOLB   GL412448  20.263  18.215   7.754  0.3137  0.0281 -0.2290
  519BOLB   C1C12449  20.036  17.755   7.516 -0.0222  0.1768  0.2649
  519BOLB   C2C12450  19.891  17.349   7.721  0.0840  0.1795  0.1076
  519BOLB   C3C12451  19.790  17.233   8.148  0.2858 -0.1415 -0.1467
  519BOLB   C4C12452  19.723  17.199   8.510  0.1695  0.2986 -0.1275
  519BOLB   C1D12453  20.333  17.847   8.075 -0.1178  0.1719  0.1632
  519BOLB   C2D12454  20.281  17.389   8.166  0.2583  0.0058  0.2277
  519BOLB   C3D12455  20.123  16.897   8.272  0.1056  0.0325  0.1930
  519BOLB   C4D12456  20.005  16.454   8.434  0.2042  0.2456  0.2701
  520BOLB   NC112457  12.205  32.749  16.234  0.0276 -0.4141  0.0776
  520BOLB   PO112458  11.666  32.783  16.324 -0.2326  0.4675 -0.0015
  520BOLB   GL112459  11.648  33.149  16.049  0.1214  0.1091 -0.1520
  520BOLB   GL212460  11.923  33.135  16.105 -0.3375 -0.1615 -0.2079
  520BOLB   C1A12461  11.519  33.078  15.669  0.1515  0.1126 -0.1569
  520BOLB   C2A12462  11.138  33.113  15.327  0.0688  0.1625  0.1535
  520BOLB   C3A12463  11.131  32.903  14.911 -0.0155 -0.2018  0.0919
  520BOLB   C4A12464  11.302  32.982  14.505 -0.1225  0.1630 -0.0956
  520BOLB   C1B12465  11.939  33.598  16.297 -0.2259  0.1107  0.0383
  520BOLB   C2B12466  11.695  33.993  16.158  0.0327 -0.2496 -0.1417
  520BOLB   C3B12467  11.675  34.497  16.096  0.0197  0.1626 -0.1893
  520BOLB   C4B12468  11.445  34.708  16.350  0.1168  0.1504  0.0687
  520BOLB   NC212469  11.267  31.277  13.313 -0.1909 -0.4434 -0.2307
  520BOLB   PO212470  11.324  31.376  12.913  0.2053  0.2978  0.0086
  520BOLB   GL312471  11.606  31.676  12.926  0.0048 -0.0566 -0.2342
  520BOLB   GL412472  11.913  31.837  13.002  0.1798  0.1948  0.4749
  520BOLB   C1C12473  11.551  32.186  12.996  0.0080  0.0772 -0.3786
  520BOLB   C2C12474  11.509  32.452  13.351 -0.0454 -0.0685  0.0313
  520BOLB   C3C12475  11.283  32.483  13.819 -0.0252  0.1292  0.3330
  520BOLB   C4C12476  11.156  32.716  14.158 -0.0685  0.1647 -0.1148
  520BOLB   C1D12477  12.237  32.033  12.771 -0.0019 -0.2156 -0.1185
  520BOLB   C2D12478  12.544  31.800  12.531 -0.3055 -0.0887 -0.1341
  520BOLB   C3D12479  12.963  31.943  12.237 -0.1988 -0.1523  0.0044
  520BOLB   C4D12480  12.926  32.059  11.800 -0.0260 -0.2703  0.4169
  521BOLB   NC112481  12.086   2.585  17.617 -0.2639  0.4929 -0.0657
  521BOLB   PO112482  12.533   2.545  17.683 -0.0994 -0.0736 -0.2885
  521BOLB   GL112483  12.740   2.088  17.922 -0.1659  0.0816 -0.1780
  521BOLB   GL212484  12.938   2.166  18.157 -0.0587 -0.0223 -0.1970
  521BOLB   C1A12485  12.496   1.807  18.099  0.2661 -0.2387  0.3670
  521BOLB   C2A12486  12.201   1.550  18.407  0.0245 -0.0365 -0.2073
  521BOLB   C3A12487  12.018   1.190  18.581 -0.1972  0.3377  0.1909
  521BOLB   C4A12488  11.700   0.908  18.795  0.0149 -0.1633 -0.0448
  521BOLB   C1B12489  12.915   1.849  18.367  0.2728 -0.0839  0.1205
  521BOLB   C2B12490  12.731   1.578  18.607  0.1491 -0.3803  0.4061
  521BOLB   C3B12491  12.644   1.281  18.505  0.1955 -0.0041  0.0250
  521BOLB   C4B12492  12.454   0.939  18.637  0.0626  0.1616  0.1552
  521BOLB   NC212493   9.760  -0.399  19.450 -0.2179 -0.1317  0.1851
  521BOLB   PO212494  10.052  -0.331  19.833 -0.0317 -0.0693  0.0627
  521BOLB   GL312495  10.219  -0.050  19.566 -0.1627  0.0399  0.1496
  521BOLB   GL412496  10.158  -0.051  19.163 -0.2087 -0.1702 -0.0899
  521BOLB   C1C12497  10.602   0.185  19.485 -0.3022  0.0448 -0.1167
  521BOLB   C2C12498  10.897   0.508  19.522 -0.0821 -0.1241  0.2344
  521BOLB   C3C12499  11.218   0.836  19.416  0.3320 -0.0525  0.3833
  521BOLB   C4C12500  11.400   0.997  19.072 -0.3350 -0.0986 -0.2057
  521BOLB   C1D12501  10.339   0.254  19.036 -0.1178 -0.1395  0.2554
  521BOLB   C2D12502  10.440   0.501  18.705  0.0982  0.1025  0.1431
  521BOLB   C3D12503  10.455   0.905  18.413 -0.1816 -0.0660  0.2609
  521BOLB   C4D12504  10.608   1.091  17.944 -0.2655 -0.2018  0.2301
  522BOLB   NC112505  23.914   9.538  16.615  0.2293 -0.1341  0.0678
  522BOLB   PO112506  24.149   9.892  16.753 -0.0394 -0.1131  0.1576
  522BOLB   GL112507  24.463   9.549  16.740 -0.1047  0.0443  0.0776
  522BOLB   GL212508  24.617   9.758  16.867 -0.0514 -0.2967  0.2230
  522BOLB   C1A12509  24.761   9.215  16.543  0.0064  0.0108 -0.3936
  522BOLB   C2A12510  25.151   9.371  16.393  0.0654 -0.1914  0.1916
  522BOLB   C3A12511  25.491   9.555  16.104  0.0747  0.1449  0.2090
  522BOLB   C4A12512  25.866   9.759  15.859  0.2787  0.0824  0.2146
  522BOLB   C1B12513  24.958   9.540  16.862 -0.0732 -0.0982 -0.2970
  522BOLB   C2B12514  25.446   9.552  16.844  0.0827 -0.0309  0.0237
  522BOLB   C3B12515  25.763   9.400  16.651 -0.0362 -0.1224 -0.2970
  522BOLB   C4B12516  25.989   9.043  16.495  0.0067  0.1731 -0.1494
  522BOLB   NC212517  28.206   9.788  14.799  0.3737 -0.1188 -0.0613
  522BOLB   PO212518  28.322   9.403  15.004  0.1983  0.3493 -0.3255
  522BOLB   GL312519  27.775   9.412  14.932 -0.0216 -0.0050  0.0095
  522BOLB   GL412520  27.621   9.246  14.653  0.2292  0.1687 -0.4987
  522BOLB   C1C12521  27.355   9.335  15.121  0.5229 -0.0426 -0.1304
  522BOLB   C2C12522  26.933   9.456  15.216 -0.3886 -0.2504  0.2251
  522BOLB   C3C12523  26.466   9.737  15.325 -0.1561  0.0393 -0.2719
  522BOLB   C4C12524  26.105   9.883  15.401 -0.1812  0.1033  0.2589
  522BOLB   C1D12525  27.229   9.533  14.403 -0.4100 -0.0619  0.2914
  522BOLB   C2D12526  26.811   9.532  14.554  0.1386  0.0896 -0.1387
  522BOLB   C3D12527  26.440   9.562  14.828 -0.0242 -0.1541  0.4030
  522BOLB   C4D12528  26.136   9.692  14.744  0.1238 -0.2873 -0.1157
  523BOLB   NC112529  18.683   2.892  11.490  0.1441  0.0012 -0.1080
  523BOLB   PO112530  18.985   2.912  11.144  0.3855  0.3131  0.2416
  523BOLB   GL112531  19.267   2.765  10.792  0.2637  0.5352 -0.0620
  523BOLB   GL212532  19.335   3.007  10.680  0.0860  0.1658 -0.1821
  523BOLB   C1A12533  19.266   2.345  10.456  0.0751  0.1682 -0.1394
  523BOLB   C2A12534  19.407   1.915  10.185  0.0797 -0.5339 -0.1861
  523BOLB   C3A12535  19.703   1.942   9.898 -0.2857 -0.0730  0.4263
  523BOLB   C4A12536  19.853   1.817   9.540 -0.0497  0.0503 -0.2169
  523BOLB   C1B12537  19.245   2.865  10.266 -0.0331 -0.1769  0.0882
  523BOLB   C2B12538  19.574   2.810  10.047  0.1267 -0.0724 -0.0335
  523BOLB   C3B12539  19.778   2.440   9.803 -0.1697  0.1194  0.0543
  523BOLB   C4B12540  19.904   2.431   9.402  0.0376 -0.1147 -0.0061
  523BOLB   NC212541  20.996  -0.285   8.274  0.1771  0.0528  0.1052
  523BOLB   PO212542  20.674  -0.097   8.411 -0.1337  0.1000  0.0417
  523BOLB   GL312543  20.365   0.302   8.317  0.0516 -0.0268  0.0985
  523BOLB   GL412544  20.195   0.491   8.062  0.1501  0.4065 -0.2306
  523BOLB   C1C12545  20.188   0.500   8.534 -0.2140 -0.0903 -0.2646
  523BOLB   C2C12546  20.095   0.820   8.745 -0.0836  0.0591  0.0663
  523BOLB   C3C12547  19.988   1.196   8.895 -0.1635 -0.1921 -0.0972
  523BOLB   C4C12548  19.943   1.463   9.235 -0.2398  0.2402 -0.1004
  523BOLB   C1D12549  19.816   0.528   8.105 -0.2653 -0.3095 -0.1335
  523BOLB   C2D12550  19.359   0.616   8.179  0.0675  0.1324 -0.0563
  523BOLB   C3D12551  19.032   0.552   8.421 -0.2662  0.0756  0.1240
  523BOLB   C4D12552  18.769   0.660   8.799 -0.4835 -0.1444  0.2668
  524BOLB   NC112553  17.793  16.556  11.453  0.1163 -0.3062  0.1420
  524BOLB   PO112554  18.115  16.804  11.574 -0.0036 -0.1750 -0.3618
  524BOLB   GL112555  18.138  17.094  11.239  0.1515 -0.1246 -0.0967
  524BOLB   GL212556  18.424  17.094  11.112 -0.1514 -0.0009  0.1698
  524BOLB   C1A12557  18.169  17.488  10.970  0.4885 -0.2187  0.0356
  524BOLB   C2A12558  18.543  17.759  11.037  0.0209  0.3302 -0.3339
  524BOLB   C3A12559  18.768  18.048  10.993 -0.0247  0.1025 -0.1897
  524BOLB   C4A12560  18.498  18.371  10.925  0.0844 -0.2343 -0.1503
  524BOLB   C1B12561  18.742  17.304  10.917 -0.2219  0.0948  0.0705
  524BOLB   C2B12562  19.023  17.417  10.487  0.1497 -0.0533  0.2736
  524BOLB   C3B12563  19.311  17.589  10.115 -0.6231 -0.3082 -0.2852
  524BOLB   C4B12564  19.559  17.738   9.741  0.0029  0.1155 -0.1029
  524BOLB   NC212565  18.499  20.716  10.569 -0.2674  0.3941  0.1667
  524BOLB   PO212566  18.256  20.692  10.149 -0.2458  0.1870 -0.0091
  524BOLB   GL312567  18.461  20.294  10.238 -0.1222 -0.2452 -0.1602
  524BOLB   GL412568  18.384  20.014  10.092  0.0875 -0.3057  0.1840
  524BOLB   C1C12569  18.473  19.911  10.561 -0.1727 -0.1034 -0.1413
  524BOLB   C2C12570  18.723  19.517  10.618 -0.0435  0.1247 -0.0056
  524BOLB   C3C12571  18.664  19.012  10.587 -0.1239  0.0857  0.0123
  524BOLB   C4C12572  18.475  18.614  10.539  0.1433 -0.0231 -0.3646
  524BOLB   C1D12573  17.918  20.011   9.959  0.4162  0.0553 -0.2439
  524BOLB   C2D12574  17.638  19.672   9.984  0.2444 -0.2041 -0.0788
  524BOLB   C3D12575  17.678  19.172  10.031  0.2053 -0.0514 -0.3001
  524BOLB   C4D12576  17.545  18.764  10.132 -0.2689  0.0789  0.1625
  525BOLB   NC112577  19.945  16.527  19.067 -0.3577 -0.1244 -0.3103
  525BOLB   PO112578  19.871  16.972  19.176  0.0099 -0.0416  0.0290
  525BOLB   GL112579  19.800  17.331  19.352  0.0930 -0.1111 -0.2129
  525BOLB   GL212580  19.745  17.573  19.196 -0.0121  0.0264 -0.0252
  525BOLB   C1A12581  19.701  17.651  19.708  0.0194 -0.3242  0.0712
  525BOLB   C2A12582  19.663  18.051  19.605  0.0952  0.1009 -0.1233
  525BOLB   C3A12583  19.453  18.450  19.705  0.2976 -0.0633  0.0270
  525BOLB   C4A12584  19.441  18.867  19.910 -0.3278 -0.3082 -0.3004
  525BOLB   C1B12585  20.060  17.800  19.408  0.1110  0.1110 -0.1593
  525BOLB   C2B12586  20.087  18.199  19.452 -0.0327 -0.1361  0.1960
  525BOLB   C3B12587  20.394  18.436  19.664  0.1481  0.0674  0.3889
  525BOLB   C4B12588  20.675  18.668  19.830 -0.2155  0.3773 -0.0961
  525BOLB   NC212589  21.549  20.539  20.943  0.2158  0.0829  0.1829
  525BOLB   PO212590  21.146  20.452  21.169  0.1088 -0.0728 -0.0891
  525BOLB   GL312591  20.884  20.115  21.114  0.1077  0.0980 -0.0655
  525BOLB   GL412592  21.080  19.884  21.377  0.0225  0.0379 -0.0009
  525BOLB   C1C12593  20.674  19.765  20.801  0.0583  0.4675 -0.1005
  525BOLB   C2C12594  20.237  19.526  20.786  0.0731  0.0876 -0.4157
  525BOLB   C3C12595  19.766  19.428  20.525  0.0636 -0.1284  0.2595
  525BOLB   C4C12596  19.668  19.128  20.178  0.1554 -0.0220 -0.4660
  525BOLB   C1D12597  20.822  19.596  21.410  0.0152 -0.0332  0.1669
  525BOLB   C2D12598  20.936  19.275  21.616  0.1098 -0.2078 -0.2487
  525BOLB   C3D12599  20.847  18.810  21.523 -0.0219  0.0993 -0.0555
  525BOLB   C4D12600  20.933  18.304  21.658  0.0792 -0.0914 -0.3156
  526BOLB   NC112601  18.004  18.562  15.540  0.1458 -0.4502  0.0851
  526BOLB   PO112602  18.283  18.444  15.495 -0.0826  0.0213  0.0946
  526BOLB   GL112603  18.412  18.833  15.346  0.0758 -0.2383  0.1044
  526BOLB   GL212604  18.646  18.928  15.234 -0.0954 -0.1162  0.0281
  526BOLB   C1A12605  18.431  19.309  15.432  0.0190 -0.0614 -0.0568
  526BOLB   C2A12606  18.541  19.706  15.596  0.1642 -0.0170  0.2345
  526BOLB   C3A12607  18.611  20.068  15.429  0.1011  0.2794  0.1408
  526BOLB   C4A12608  18.648  20.552  15.332 -0.0708 -0.0723  0.1250
  526BOLB   C1B12609  19.023  18.957  15.335 -0.0312  0.3289 -0.1709
  526BOLB   C2B12610  19.270  19.295  15.142 -0.0038 -0.2398 -0.2742
  526BOLB   C3B12611  19.300  19.431  14.778  0.3462 -0.2645  0.0208
  526BOLB   C4B12612  19.299  19.839  14.660 -0.1587  0.0881  0.3414
  526BOLB   NC212613  19.868  21.975  14.041  0.1393 -0.1231  0.1555
  526BOLB   PO212614  19.573  22.196  14.235  0.1529  0.0256  0.1921
  526BOLB   GL312615  19.562  21.783  14.461 -0.0556 -0.0030 -0.2076
  526BOLB   GL412616  19.748  21.559  14.317  0.4710 -0.3608 -0.0755
  526BOLB   C1C12617  19.573  21.511  14.831  0.0316 -0.0682  0.4240
  526BOLB   C2C12618  19.467  21.181  15.062  0.2521 -0.1030 -0.0063
  526BOLB   C3C12619  19.006  21.079  15.251 -0.1237  0.2271 -0.0051
  526BOLB   C4C12620  18.717  20.919  15.255 -0.1598 -0.0210  0.1042
  526BOLB   C1D12621  19.603  21.140  14.154  0.2298 -0.0974 -0.2046
  526BOLB   C2D12622  19.358  20.973  13.860  0.3706 -0.1158  0.1193
  526BOLB   C3D12623  19.056  20.593  13.902  0.0823 -0.2262 -0.2949
  526BOLB   C4D12624  18.691  20.230  13.991 -0.0320 -0.1490 -0.0405
  527BOLB   NC112625  15.094   7.324  22.754  0.1491 -0.0700 -0.1737
  527BOLB   PO112626  15.326   7.601  22.955  0.0279  0.0187 -0.0878
  527BOLB   GL112627  15.330   7.238  23.271  0.0486 -0.1086  0.0390
  527BOLB   GL212628  15.147   6.965  23.200  0.1907  0.1445 -0.0174
  527BOLB   C1A12629  15.456   7.042  23.594  0.2384  0.0360  0.1943
  527BOLB   C2A12630  15.501   7.062  24.051  0.1598  0.1869 -0.1430
  527BOLB   C3A12631  15.562   6.984  24.519  0.2189 -0.2018  0.0026
  527BOLB   C4A12632  15.664   6.745  24.864  0.0274  0.2097  0.0933
  527BOLB   C1B12633  14.938   6.696  23.445 -0.0321 -0.2137  0.1176
  527BOLB   C2B12634  15.039   6.252  23.635  0.0019 -0.0810  0.1463
  527BOLB   C3B12635  15.324   5.972  23.813  0.0787  0.1090 -0.0770
  527BOLB   C4B12636  15.846   5.897  23.836  0.0373  0.0518 -0.0393
  527BOLB   NC212637  15.369   5.011  26.890 -0.0645 -0.4322  0.0597
  527BOLB   PO212638  15.012   4.967  26.686  0.1034 -0.1174 -0.0303
  527BOLB   GL312639  14.992   5.195  26.285 -0.0675 -0.0358 -0.1721
  527BOLB   GL412640  15.182   5.047  26.171 -0.0836  0.0492 -0.0238
  527BOLB   C1C12641  15.160   5.637  26.095  0.0282 -0.1227  0.0296
  527BOLB   C2C12642  15.420   6.050  25.933  0.0475 -0.3542  0.1638
  527BOLB   C3C12643  15.485   6.234  25.511 -0.2339 -0.0875 -0.0615
  527BOLB   C4C12644  15.477   6.399  25.113  0.0404 -0.1491  0.0087
  527BOLB   C1D12645  15.133   5.195  25.715  0.1036  0.1353  0.0035
  527BOLB   C2D12646  15.163   5.374  25.246 -0.0342 -0.3853  0.2199
  527BOLB   C3D12647  15.264   5.449  24.864  0.2664  0.1600  0.0333
  527BOLB   C4D12648  15.321   5.298  24.461  0.1047 -0.0344 -0.2323
  528BOLB   NC112649   6.932  12.907   4.303  0.0703  0.0856 -0.1913
  528BOLB   PO112650   6.686  12.591   4.597  0.0524  0.0044 -0.2750
  528BOLB   GL112651   6.722  12.107   4.389  0.0431 -0.1724 -0.2994
  528BOLB   GL212652   6.707  11.949   4.737 -0.0143 -0.3526  0.3384
  528BOLB   C1A12653   7.195  12.033   4.253 -0.0071 -0.0913 -0.4509
  528BOLB   C2A12654   7.574  11.758   4.284  0.1031 -0.2393 -0.0117
  528BOLB   C3A12655   7.574  11.362   4.357  0.1348  0.0708 -0.1788
  528BOLB   C4A12656   7.174  11.109   4.413 -0.0260 -0.0380  0.1759
  528BOLB   C1B12657   6.860  12.022   5.200 -0.0072  0.2277 -0.0152
  528BOLB   C2B12658   6.766  12.193   5.570 -0.3868 -0.0395  0.0339
  528BOLB   C3B12659   6.841  12.481   5.916  0.1016  0.0660  0.1854
  528BOLB   C4B12660   6.715  12.831   6.238  0.1002 -0.0289  0.0665
  528BOLB   NC212661   5.599  12.037   5.265 -0.1490 -0.2123 -0.2943
  528BOLB   PO212662   5.725  11.823   4.947 -0.2709 -0.0389  0.3797
  528BOLB   GL312663   5.953  11.673   5.309 -0.2478  0.1440  0.3175
  528BOLB   GL412664   6.067  11.859   5.392  0.0130  0.0700  0.3835
  528BOLB   C1C12665   6.249  11.314   5.543  0.1515 -0.2364 -0.2431
  528BOLB   C2C12666   6.589  11.029   5.333  0.1196  0.1051  0.2648
  528BOLB   C3C12667   6.766  11.195   5.067 -0.3745  0.0274  0.4666
  528BOLB   C4C12668   6.954  11.100   4.791  0.0510  0.1360  0.0809
  528BOLB   C1D12669   6.351  11.771   5.696 -0.1210  0.1033  0.1803
  528BOLB   C2D12670   6.545  11.555   5.956  0.1047  0.2086 -0.2909
  528BOLB   C3D12671   6.901  11.555   5.910  0.1451 -0.1827 -0.1084
  528BOLB   C4D12672   7.376  11.331   5.911  0.1193  0.1012 -0.2025
  529BOLB   NC112673  13.415  10.786  22.821  0.3679  0.2483  0.1180
  529BOLB   PO112674  13.649  10.325  22.964  0.0777  0.1769  0.1396
  529BOLB   GL112675  13.542  10.532  23.267 -0.1496  0.0664  0.6210
  529BOLB   GL212676  13.534  10.858  23.360  0.1029 -0.0520 -0.0784
  529BOLB   C1A12677  13.449  10.501  23.764  0.2850  0.1187  0.0673
  529BOLB   C2A12678  13.079  10.529  23.973  0.2469  0.6175  0.0114
  529BOLB   C3A12679  12.733  10.817  24.029  0.2495 -0.2837 -0.3366
  529BOLB   C4A12680  12.272  10.912  24.106  0.0508 -0.0970 -0.0970
  529BOLB   C1B12681  13.149  10.818  23.559 -0.2668  0.0919  0.2198
  529BOLB   C2B12682  12.838  10.587  23.494  0.0626  0.2447 -0.3877
  529BOLB   C3B12683  12.653  10.259  23.777  0.0663  0.4082 -0.2458
  529BOLB   C4B12684  12.476   9.919  24.040  0.1913  0.2547 -0.4016
  529BOLB   NC212685  11.303  10.591  26.715 -0.0157 -0.1132  0.0549
  529BOLB   PO212686  11.416  10.434  26.293  0.0110  0.4889 -0.1439
  529BOLB   GL312687  11.375  10.219  25.903 -0.0370 -0.0230 -0.1014
  529BOLB   GL412688  11.770  10.190  25.718 -0.0847  0.0747 -0.3360
  529BOLB   C1C12689  11.431  10.580  25.559  0.2192 -0.1689 -0.0057
  529BOLB   C2C12690  11.652  10.687  25.278 -0.3336 -0.1764  0.1646
  529BOLB   C3C12691  11.830  10.729  24.801  0.0995  0.2260 -0.1775
  529BOLB   C4C12692  11.972  10.825  24.369 -0.0026  0.0318 -0.1684
  529BOLB   C1D12693  11.777  10.145  25.265  0.1011  0.3010 -0.1677
  529BOLB   C2D12694  11.490  10.341  25.020 -0.0255 -0.1809  0.0891
  529BOLB   C3D12695  11.211  10.679  24.931  0.2327  0.3517 -0.2329
  529BOLB   C4D12696  10.822  10.766  25.112  0.2216  0.1594  0.0414
  530BOLB   NC112697   8.907  13.095  13.305  0.0436 -0.0191 -0.1888
  530BOLB   PO112698   8.902  12.745  13.085  0.0176  0.2080  0.0747
  530BOLB   GL112699   8.567  12.786  12.877  0.0632 -0.0472 -0.2158
  530BOLB   GL212700   8.409  12.762  12.598 -0.1244  0.0930  0.0237
  530BOLB   C1A12701   8.182  12.990  12.898  0.2420 -0.2242 -0.3097
  530BOLB   C2A12702   8.062  13.298  12.836 -0.2262 -0.2433  0.1535
  530BOLB   C3A12703   7.681  13.527  12.758 -0.1678 -0.0074 -0.3175
  530BOLB   C4A12704   7.275  13.821  12.582 -0.2779 -0.0256 -0.0158
  530BOLB   C1B12705   8.070  12.955  12.413 -0.0125 -0.0458  0.0040
  530BOLB   C2B12706   7.726  13.179  12.166 -0.0717 -0.0329  0.3720
  530BOLB   C3B12707   7.586  13.205  11.798  0.1284 -0.1666 -0.1058
  530BOLB   C4B12708   7.605  13.168  11.340 -0.2001 -0.1778  0.4013
  530BOLB   NC212709   5.120  14.049  11.918  0.0048  0.2232  0.0440
  530BOLB   PO212710   5.255  14.354  11.742 -0.2859  0.0621 -0.0375
  530BOLB   GL312711   5.581  14.131  11.806  0.0885 -0.2416 -0.3977
  530BOLB   GL412712   5.518  13.803  12.014 -0.1679 -0.0011  0.1664
  530BOLB   C1C12713   6.040  14.284  11.961  0.0590  0.3311  0.2177
  530BOLB   C2C12714   6.266  14.436  12.211 -0.1185  0.2425  0.0917
  530BOLB   C3C12715   6.624  14.299  12.398 -0.1842  0.1148 -0.3043
  530BOLB   C4C12716   6.978  14.053  12.399  0.1638  0.1042 -0.1591
  530BOLB   C1D12717   5.996  13.699  12.025  0.1200  0.1269  0.1146
  530BOLB   C2D12718   6.482  13.459  11.901  0.1854  0.1055 -0.0551
  530BOLB   C3D12719   6.696  13.047  12.147  0.0143 -0.0861 -0.0721
  530BOLB   C4D12720   7.044  12.953  12.369  0.0913 -0.0062 -0.3161
  531BOLB   NC112721  22.587  11.662  11.605 -0.1865  0.0643  0.0390
  531BOLB   PO112722  23.005  11.767  11.924 -0.0700 -0.1900  0.2014
  531BOLB   GL112723  23.322  11.753  11.575 -0.0036 -0.0441 -0.1235
  531BOLB   GL212724  23.442  11.393  11.427  0.0050 -0.1163 -0.2267
  531BOLB   C1A12725  23.711  11.891  11.509 -0.2012 -0.4727 -0.4330
  531BOLB   C2A12726  24.034  12.211  11.537 -0.0162 -0.2375  0.1187
  531BOLB   C3A12727  24.398  12.438  11.587 -0.0244 -0.1102  0.0501
  531BOLB   C4A12728  24.583  12.765  11.596  0.1618  0.4200  0.2320
  531BOLB   C1B12729  23.441  11.504  11.041 -0.4244 -0.0696  0.1010
  531BOLB   C2B12730  23.838  11.563  10.774 -0.1668 -0.1140  0.0450
  531BOLB   C3B12731  24.169  11.714  10.581 -0.0292  0.0015  0.1332
  531BOLB   C4B12732  24.319  12.002  10.248 -0.1242  0.1835  0.0555
  531BOLB   NC212733  27.072  13.535  10.628  0.0357 -0.2975  0.0041
  531BOLB   PO212734  26.684  13.328  10.612  0.3294  0.0442 -0.4873
  531BOLB   GL312735  26.297  13.347  10.694  0.0942  0.0481  0.0428
  531BOLB   GL412736  26.077  13.390  10.472  0.1099 -0.6292  0.3721
  531BOLB   C1C12737  26.048  13.123  10.969 -0.0724  0.3063 -0.2988
  531BOLB   C2C12738  25.803  12.851  11.279 -0.0284 -0.0701 -0.2789
  531BOLB   C3C12739  25.481  12.612  11.520 -0.4660 -0.3214  0.2518
  531BOLB   C4C12740  25.052  12.771  11.557 -0.3807  0.0438  0.1211
  531BOLB   C1D12741  25.679  13.459  10.432 -0.1091 -0.0883  0.0716
  531BOLB   C2D12742  25.552  13.203  10.866  0.1994 -0.1663  0.1855
  531BOLB   C3D12743  25.271  12.931  11.082  0.0456  0.0825  0.0179
  531BOLB   C4D12744  24.847  12.832  11.165 -0.2613 -0.1893 -0.0148
  532BOLB   NC112745  21.020   7.126  10.492 -0.3576 -0.0869  0.2149
  532BOLB   PO112746  21.001   6.833  10.187 -0.2588 -0.1333 -0.1966
  532BOLB   GL112747  21.415   6.555  10.206 -0.0949 -0.1537  0.1882
  532BOLB   GL212748  21.802   6.679  10.230  0.1987  0.0627  0.3763
  532BOLB   C1A12749  21.822   6.323   9.905 -0.1087  0.2497  0.1523
  532BOLB   C2A12750  22.161   6.295   9.767  0.2110 -0.2044 -0.1150
  532BOLB   C3A12751  22.583   6.307   9.927 -0.0628  0.3354 -0.1078
  532BOLB   C4A12752  23.036   6.146  10.018  0.3088 -0.0547  0.1713
  532BOLB   C1B12753  22.153   6.589  10.205  0.1984  0.3327  0.3428
  532BOLB   C2B12754  22.215   6.176  10.275  0.3641  0.0782 -0.1314
  532BOLB   C3B12755  22.506   5.901  10.251 -0.2283 -0.1866  0.1573
  532BOLB   C4B12756  22.832   5.689  10.123  0.0882 -0.2947  0.1396
  532BOLB   NC212757  25.038   6.728   8.141 -0.2685 -0.0635 -0.1233
  532BOLB   PO212758  24.864   6.301   8.223  0.1900 -0.1010  0.1649
  532BOLB   GL312759  24.498   6.180   8.419  0.1550 -0.1499  0.0651
  532BOLB   GL412760  24.384   5.925   8.469  0.3279 -0.4015  0.1172
  532BOLB   C1C12761  24.298   6.382   8.787 -0.1433  0.2086 -0.0532
  532BOLB   C2C12762  23.951   6.308   9.084  0.0162  0.1730  0.5328
  532BOLB   C3C12763  23.649   6.049   9.310  0.0374 -0.2391  0.1249
  532BOLB   C4C12764  23.371   6.137   9.742  0.0501 -0.2820 -0.0560
  532BOLB   C1D12765  24.085   5.912   8.783  0.0293 -0.1446  0.0250
  532BOLB   C2D12766  23.895   5.712   9.108 -0.0291 -0.3860 -0.1321
  532BOLB   C3D12767  23.556   5.353   9.198 -0.1526 -0.0425 -0.0195
  532BOLB   C4D12768  23.174   5.226   9.335  0.2935  0.0480  0.2833
  533BOLB   NC112769  20.031   9.194  22.977  0.3095 -0.0723 -0.2794
  533BOLB   PO112770  19.743   9.478  22.981 -0.0063 -0.3034 -0.4589
  533BOLB   GL112771  19.898   9.234  23.441  0.1167  0.0495  0.4252
  533BOLB   GL212772  20.111   9.579  23.567  0.2367 -0.2439 -0.0557
  533BOLB   C1A12773  20.063   8.953  23.760 -0.1957 -0.3074  0.1303
  533BOLB   C2A12774  20.272   8.847  24.166  0.1403  0.2010  0.1773
  533BOLB   C3A12775  20.587   8.530  24.429  0.2694 -0.1933  0.2423
  533BOLB   C4A12776  20.625   8.043  24.375  0.0875 -0.0793 -0.3227
  533BOLB   C1B12777  19.832   9.455  24.004 -0.0277  0.1871  0.0022
  533BOLB   C2B12778  19.643   9.338  24.528 -0.1098 -0.3791  0.1974
  533BOLB   C3B12779  19.644   9.013  24.808 -0.0715 -0.0490  0.0274
  533BOLB   C4B12780  19.837   8.993  25.270 -0.0477 -0.2619  0.0865
  533BOLB   NC212781  22.194   6.982  26.365  0.0396  0.2695  0.0801
  533BOLB   PO212782  21.907   7.294  26.195  0.0789 -0.1413 -0.2853
  533BOLB   GL312783  21.651   7.431  25.929 -0.0524 -0.0075 -0.0577
  533BOLB   GL412784  21.783   7.672  25.705  0.4668  0.2010 -0.0477
  533BOLB   C1C12785  21.336   7.396  25.614 -0.0947 -0.0778 -0.0846
  533BOLB   C2C12786  21.184   7.606  25.150  0.0784 -0.0751 -0.1860
  533BOLB   C3C12787  20.991   7.852  24.989  0.1557  0.1593 -0.2950
  533BOLB   C4C12788  20.779   7.859  24.716 -0.1868 -0.2108  0.0995
  533BOLB   C1D12789  21.751   7.751  25.306  0.1113 -0.1254 -0.0426
  533BOLB   C2D12790  21.900   8.149  25.129 -0.1294  0.0577  0.0540
  533BOLB   C3D12791  21.873   8.488  24.819  0.1275  0.0018  0.2816
  533BOLB   C4D12792  22.089   8.801  24.649 -0.2981  0.1042 -0.1552
  534BOLB   NC112793  23.230   5.717  14.505  0.2728  0.0535  0.0211
  534BOLB   PO112794  23.455   6.100  14.180 -0.0575  0.1092 -0.3199
  534BOLB   GL112795  23.686   5.869  14.073 -0.1773  0.1482  0.2367
  534BOLB   GL212796  23.849   6.047  13.875  0.0373  0.1094 -0.0364
  534BOLB   C1A12797  23.924   5.567  14.047 -0.1292 -0.1587  0.3784
  534BOLB   C2A12798  24.219   5.328  13.901 -0.2092  0.1616 -0.0611
  534BOLB   C3A12799  24.408   5.264  13.492  0.2950  0.1094  0.0349
  534BOLB   C4A12800  24.562   5.385  13.136  0.2234 -0.1195 -0.0367
  534BOLB   C1B12801  24.268   5.984  13.774 -0.2626 -0.3752  0.0160
  534BOLB   C2B12802  24.673   6.013  13.919  0.0286  0.0219 -0.1998
  534BOLB   C3B12803  25.072   5.979  13.750 -0.3338 -0.0109  0.0590
  534BOLB   C4B12804  25.586   5.826  13.721 -0.1883  0.3599  0.3660
  534BOLB   NC212805  26.905   4.771  12.944  0.0088  0.4350 -0.2855
  534BOLB   PO212806  26.817   4.398  12.741  0.1432  0.1648  0.3476
  534BOLB   GL312807  26.466   4.599  12.814  0.0208  0.1446 -0.0362
  534BOLB   GL412808  26.177   4.370  12.747  0.5055  0.1447  0.2540
  534BOLB   C1C12809  26.176   4.984  12.897 -0.1385 -0.0934  0.0227
  534BOLB   C2C12810  25.694   5.125  12.822 -0.4952  0.0275  0.0741
  534BOLB   C3C12811  25.335   5.297  12.775 -0.0772  0.1631 -0.0200
  534BOLB   C4C12812  24.815   5.322  12.702 -0.1832  0.0638 -0.3634
  534BOLB   C1D12813  25.779   4.599  12.573 -0.1711 -0.0988 -0.2974
  534BOLB   C2D12814  25.399   4.740  12.607 -0.2043 -0.1145  0.0956
  534BOLB   C3D12815  25.032   4.944  12.423 -0.2503 -0.0910  0.1138
  534BOLB   C4D12816  24.900   5.244  12.102 -0.0368 -0.2560  0.0073
  535BOLB   NC112817  14.501  17.265  12.506  0.4066 -0.0803 -0.0287
  535BOLB   PO112818  14.964  17.336  12.578  0.1500  0.0276 -0.3588
  535BOLB   GL112819  15.028  17.755  12.558  0.1100 -0.0564  0.2195
  535BOLB   GL212820  15.214  17.925  12.271 -0.1990 -0.1215 -0.1768
  535BOLB   C1A12821  14.838  18.206  12.491  0.0517 -0.0384 -0.2507
  535BOLB   C2A12822  14.779  18.530  12.334  0.0580  0.1221  0.1512
  535BOLB   C3A12823  14.801  18.963  12.223 -0.0595 -0.3727  0.6406
  535BOLB   C4A12824  14.871  19.451  12.031 -0.1222  0.2720 -0.0528
  535BOLB   C1B12825  15.193  18.284  12.089  0.1076  0.0937  0.0186
  535BOLB   C2B12826  15.287  18.666  12.063  0.0030 -0.0596 -0.0741
  535BOLB   C3B12827  15.276  19.051  11.984  0.2229 -0.1324 -0.2255
  535BOLB   C4B12828  15.462  19.503  12.086 -0.2311 -0.1000  0.0222
  535BOLB   NC212829  14.671  21.547  11.626  0.1095  0.2681 -0.0887
  535BOLB   PO212830  14.237  21.366  11.495 -0.0084 -0.0223  0.1697
  535BOLB   GL312831  14.347  21.178  11.920 -0.2944 -0.0881  0.2554
  535BOLB   GL412832  14.048  21.188  12.002  0.1831  0.0296 -0.0404
  535BOLB   C1C12833  14.388  20.770  12.168  0.1287 -0.0201  0.3303
  535BOLB   C2C12834  14.352  20.382  12.398  0.3036  0.1900  0.1384
  535BOLB   C3C12835  14.400  19.949  12.527  0.0027 -0.2552  0.0999
  535BOLB   C4C12836  14.689  19.775  12.202  0.1261  0.1237 -0.0820
  535BOLB   C1D12837  13.896  21.178  12.520 -0.0430  0.0696 -0.2414
  535BOLB   C2D12838  13.469  20.949  12.695  0.1349 -0.0138 -0.1430
  535BOLB   C3D12839  13.070  20.943  13.022  0.1475  0.0523  0.0860
  535BOLB   C4D12840  12.633  21.041  13.063  0.1777  0.0315  0.2921
  536BOLB   NC112841  17.990   1.219  15.263  0.3516  0.0478 -0.1108
  536BOLB   PO112842  17.799   1.014  14.926  0.0113  0.1059  0.0191
  536BOLB   GL112843  17.774   0.588  14.935  0.3724 -0.0578 -0.1899
  536BOLB   GL212844  17.839   0.521  14.721  0.2494  0.0820  0.3373
  536BOLB   C1A12845  17.752   0.045  14.888  0.0483  0.0817 -0.1881
  536BOLB   C2A12846  17.941  -0.298  14.820 -0.0653 -0.1829 -0.2622
  536BOLB   C3A12847  18.191  -0.574  14.671  0.0672 -0.0844 -0.0962
  536BOLB   C4A12848  18.296  -0.847  14.348  0.0572 -0.2906 -0.0157
  536BOLB   C1B12849  18.070   0.145  14.581 -0.2139 -0.0671  0.0065
  536BOLB   C2B12850  17.913  -0.151  14.353  0.1616 -0.0761 -0.1083
  536BOLB   C3B12851  17.782  -0.589  14.352  0.0812 -0.5241  0.0112
  536BOLB   C4B12852  17.455  -0.878  14.498 -0.2093  0.1078 -0.1065
  536BOLB   NC212853  19.257  -2.820  13.525  0.1027 -0.1486  0.0769
  536BOLB   PO212854  19.553  -2.745  13.261  0.0934  0.3212  0.3825
  536BOLB   GL312855  19.244  -2.435  13.240 -0.0175 -0.0101  0.0478
  536BOLB   GL412856  19.373  -2.117  13.036  0.0640  0.1308  0.0025
  536BOLB   C1C12857  19.020  -2.183  13.553 -0.1406  0.0114  0.0028
  536BOLB   C2C12858  19.018  -1.886  13.901  0.2259  0.2658  0.3031
  536BOLB   C3C12859  18.726  -1.504  14.075  0.2227  0.0914  0.2310
  536BOLB   C4C12860  18.429  -1.226  14.190  0.2962 -0.1512  0.1168
  536BOLB   C1D12861  19.149  -1.752  12.992  0.0738 -0.1484  0.5454
  536BOLB   C2D12862  18.956  -1.370  13.024  0.2767  0.0345 -0.1885
  536BOLB   C3D12863  18.715  -1.117  13.391  0.1877  0.2399  0.0681
  536BOLB   C4D12864  18.473  -0.988  13.729  0.2088  0.0968  0.1610
  537BOLB   NC112865   8.063   9.432  16.692  0.0231  0.1327 -0.3197
  537BOLB   PO112866   7.994   9.721  16.506 -0.0122  0.0184  0.1203
  537BOLB   GL112867   7.558   9.816  16.343 -0.3777 -0.0469 -0.1250
  537BOLB   GL212868   7.636   9.828  15.968  0.1063  0.1245 -0.1873
  537BOLB   C1A12869   7.210  10.023  16.007  0.2271 -0.0596 -0.1470
  537BOLB   C2A12870   6.820  10.335  15.836  0.0825  0.0045  0.0652
  537BOLB   C3A12871   6.389  10.601  15.799  0.1735 -0.2734 -0.0487
  537BOLB   C4A12872   5.953  10.627  16.022 -0.0266  0.1168  0.0447
  537BOLB   C1B12873   7.428   9.516  15.694  0.1257 -0.1774 -0.5110
  537BOLB   C2B12874   7.103   9.416  15.482 -0.0852 -0.2482  0.0415
  537BOLB   C3B12875   6.632   9.362  15.436  0.0065 -0.0779 -0.0835
  537BOLB   C4B12876   6.475   9.757  15.249  0.2009  0.0685 -0.1354
  537BOLB   NC212877   3.600  11.179  16.255  0.5101  0.2916  0.2225
  537BOLB   PO212878   3.634  10.888  16.473 -0.1041 -0.0383  0.0373
  537BOLB   GL312879   4.019  10.571  16.351 -0.0575  0.1047 -0.5487
  537BOLB   GL412880   4.252  10.531  16.629 -0.1074  0.1008 -0.0835
  537BOLB   C1C12881   4.414  10.769  16.158 -0.0881 -0.2486  0.2291
  537BOLB   C2C12882   4.877  10.719  16.094  0.1503 -0.1172 -0.1219
  537BOLB   C3C12883   5.324  10.809  16.299  0.0843 -0.1079 -0.0254
  537BOLB   C4C12884   5.626  10.737  16.231  0.2838 -0.0518 -0.0000
  537BOLB   C1D12885   4.684  10.534  16.553 -0.1314 -0.0251 -0.2260
  537BOLB   C2D12886   5.001  10.316  16.336 -0.2020 -0.0589  0.1149
  537BOLB   C3D12887   5.365   9.967  16.325  0.0588 -0.0393 -0.1685
  537BOLB   C4D12888   5.679   9.797  16.562 -0.2083  0.0148  0.1177
  538BOLB   NC112889  23.150  14.877  18.804 -0.2633 -0.0241 -0.2461
  538BOLB   PO112890  22.673  15.082  18.884  0.0466  0.4221  0.0788
  538BOLB   GL112891  22.911  15.240  19.063  0.0844 -0.0013 -0.1016
  538BOLB   GL212892  22.896  15.595  19.074  0.1430  0.0388  0.3281
  538BOLB   C1A12893  23.315  15.359  19.320  0.0773  0.0272 -0.0725
  538BOLB   C2A12894  23.734  15.421  19.258  0.0865  0.3480 -0.0923
  538BOLB   C3A12895  24.128  15.402  19.554 -0.4090 -0.1237 -0.3783
  538BOLB   C4A12896  24.353  15.717  19.840  0.5744  0.1623 -0.2204
  538BOLB   C1B12897  22.900  15.911  19.392  0.0709 -0.0636 -0.4064
  538BOLB   C2B12898  23.020  16.324  19.522  0.0909  0.0064 -0.3918
  538BOLB   C3B12899  23.440  16.577  19.607 -0.0154 -0.2653 -0.1347
  538BOLB   C4B12900  23.541  16.969  19.515  0.0045  0.1504 -0.0917
  538BOLB   NC212901  26.879  16.463  19.714  0.2207  0.0566 -0.0180
  538BOLB   PO212902  26.736  16.684  20.104 -0.0105 -0.0483 -0.2062
  538BOLB   GL312903  26.456  16.441  19.990 -0.4106 -0.1912 -0.0683
  538BOLB   GL412904  26.281  16.191  20.195 -0.2398 -0.1319  0.2930
  538BOLB   C1C12905  26.097  16.278  19.696  0.0371 -0.0131 -0.2190
  538BOLB   C2C12906  25.635  16.130  19.633 -0.0410  0.2094 -0.1845
  538BOLB   C3C12907  25.355  15.879  19.810 -0.0018 -0.3316 -0.1870
  538BOLB   C4C12908  24.826  15.769  19.890 -0.1937 -0.3273 -0.0348
  538BOLB   C1D12909  26.395  15.849  19.917  0.1943 -0.0059 -0.1154
  538BOLB   C2D12910  26.392  15.799  19.440  0.2236 -0.0938  0.1729
  538BOLB   C3D12911  26.287  15.557  18.970 -0.1976 -0.3870  0.1930
  538BOLB   C4D12912  26.130  15.862  18.780 -0.0359 -0.0467  0.0130
  539BOLB   NC112913  27.844   7.688  15.098 -0.2764 -0.1583 -0.4063
  539BOLB   PO112914  28.005   7.652  15.532 -0.0352 -0.0567  0.0026
  539BOLB   GL112915  27.570   7.776  15.675  0.4502 -0.0249 -0.2072
  539BOLB   GL212916  27.434   8.036  15.386 -0.0331 -0.1230  0.2285
  539BOLB   C1A12917  27.185   7.577  15.758  0.2080 -0.1691  0.0983
  539BOLB   C2A12918  26.974   7.193  15.672  0.2372  0.2399 -0.2946
  539BOLB   C3A12919  26.611   6.854  15.540  0.3045  0.0884  0.0027
  539BOLB   C4A12920  26.150   6.734  15.502 -0.2920  0.2468 -0.1842
  539BOLB   C1B12921  26.835   8.054  15.465 -0.1023 -0.0598 -0.0201
  539BOLB   C2B12922  26.473   7.935  15.270  0.4210 -0.3941 -0.1076
  539BOLB   C3B12923  26.059   7.957  15.037 -0.0216  0.1661  0.1905
  539BOLB   C4B12924  25.760   8.303  14.954  0.0247  0.0027  0.0284
  539BOLB   NC212925  27.736   5.437  15.177 -0.2101  0.1086  0.0444
  539BOLB   PO212926  27.372   5.219  15.417 -0.0071  0.0904 -0.4596
  539BOLB   GL312927  26.900   5.455  15.502  0.0778 -0.1189 -0.0798
  539BOLB   GL412928  26.735   5.175  15.367 -0.0059  0.2423 -0.0728
  539BOLB   C1C12929  26.651   5.624  15.226  0.0684  0.0542 -0.0704
  539BOLB   C2C12930  26.241   5.703  14.915 -0.1974 -0.3053 -0.1986
  539BOLB   C3C12931  25.986   5.981  15.274  0.0533  0.7578  0.0172
  539BOLB   C4C12932  25.864   6.393  15.375  0.2678  0.0823 -0.3882
  539BOLB   C1D12933  26.713   5.108  14.881  0.1102 -0.1253 -0.0475
  539BOLB   C2D12934  26.489   5.422  14.634  0.0768  0.2298 -0.0573
  539BOLB   C3D12935  26.090   5.384  14.427 -0.1168  0.2759 -0.0840
  539BOLB   C4D12936  25.873   5.777  14.517 -0.0513 -0.2812 -0.0711
  540BOLB   NC112937  13.317   2.944  19.265  0.0824 -0.0251 -0.0063
  540BOLB   PO112938  13.016   3.138  19.100  0.1739 -0.1244  0.1700
  540BOLB   GL112939  12.781   2.895  19.394 -0.0792 -0.0967  0.1192
  540BOLB   GL212940  12.790   2.614  19.143 -0.1610 -0.4340 -0.2104
  540BOLB   C1A12941  12.630   2.526  19.610 -0.0322  0.0134 -0.1603
  540BOLB   C2A12942  12.195   2.384  19.671  0.1225  0.0172  0.1275
  540BOLB   C3A12943  12.042   1.953  19.883 -0.3242  0.1971 -0.0349
  540BOLB   C4A12944  11.739   1.584  19.864  0.2159 -0.1501  0.2134
  540BOLB   C1B12945  13.010   2.340  19.401  0.0483 -0.2919 -0.0659
  540BOLB   C2B12946  12.934   1.976  19.637 -0.3146  0.1604  0.2030
  540BOLB   C3B12947  12.648   1.979  19.962 -0.8557  0.2245  0.0238
  540BOLB   C4B12948  12.356   1.916  20.316  0.0234  0.1852 -0.0045
  540BOLB   NC212949  10.910  -1.045  19.510 -0.0348  0.2272 -0.1668
  540BOLB   PO212950  10.857  -0.737  19.842 -0.1096 -0.0202  0.0199
  540BOLB   GL312951  10.985  -0.393  19.577 -0.1221 -0.1738  0.1266
  540BOLB   GL412952  10.764  -0.334  19.356  0.0205 -0.0490 -0.1466
  540BOLB   C1C12953  11.082   0.014  19.710 -0.0198 -0.0217  0.0670
  540BOLB   C2C12954  11.369   0.425  19.700  0.3325  0.0227 -0.0478
  540BOLB   C3C12955  11.492   0.798  19.838  0.1338  0.0947 -0.1108
  540BOLB   C4C12956  11.666   1.171  20.045 -0.2123  0.0669  0.0276
  540BOLB   C1D12957  10.739   0.025  19.045 -0.1159 -0.1006  0.2376
  540BOLB   C2D12958  10.961   0.159  18.662  0.1810 -0.3073  0.0782
  540BOLB   C3D12959  10.863   0.465  18.370 -0.1140 -0.0827 -0.0845
  540BOLB   C4D12960  11.024   0.672  17.944  0.0083  0.1079 -0.3426
  541BOLB   NC112961  23.691   9.115  17.814 -0.3743 -0.0802  0.3620
  541BOLB   PO112962  23.785   9.135  17.410 -0.2669  0.2336 -0.1123
  541BOLB   GL112963  24.220   9.068  17.605  0.0439 -0.1279 -0.1483
  541BOLB   GL212964  24.269   9.050  17.942 -0.1608 -0.0230  0.1034
  541BOLB   C1A12965  24.654   9.089  17.601  0.1240 -0.0007 -0.0924
  541BOLB   C2A12966  25.149   8.904  17.588  0.0148 -0.4869  0.3031
  541BOLB   C3A12967  25.567   8.722  17.584 -0.3147 -0.0719  0.3248
  541BOLB   C4A12968  25.986   8.697  17.591 -0.0664  0.3548 -0.0138
  541BOLB   C1B12969  24.570   9.029  18.160 -0.1466  0.1548 -0.6318
  541BOLB   C2B12970  25.009   8.960  18.042 -0.1741  0.4670  0.0577
  541BOLB   C3B12971  25.295   9.138  18.290  0.1486  0.0928  0.4515
  541BOLB   C4B12972  25.751   9.400  18.287 -0.0203  0.2308  0.2567
  541BOLB   NC212973  27.683   7.812  18.833 -0.1105  0.0002 -0.5576
  541BOLB   PO212974  27.819   8.260  18.904  0.1091 -0.1665 -0.1687
  541BOLB   GL312975  27.482   8.475  18.705 -0.1249  0.1205 -0.3481
  541BOLB   GL412976  27.562   8.709  18.772 -0.0964 -0.1668  0.0868
  541BOLB   C1C12977  27.113   8.234  18.655 -0.1557 -0.1765 -0.0046
  541BOLB   C2C12978  26.711   8.250  18.314 -0.1493  0.0391  0.2611
  541BOLB   C3C12979  26.394   8.094  18.006 -0.0911  0.0237  0.0289
  541BOLB   C4C12980  26.458   8.479  17.669  0.0589  0.0316 -0.3316
  541BOLB   C1D12981  27.173   8.821  18.897  0.0640  0.3544 -0.0389
  541BOLB   C2D12982  26.806   8.653  18.612 -0.0782  0.1195  0.2387
  541BOLB   C3D12983  26.311   8.553  18.534 -0.4196 -0.1085 -0.3875
  541BOLB   C4D12984  25.864   8.517  18.485 -0.1722  0.0848 -0.2919
  542BOLB   NC112985  10.480  15.367  14.271  0.0773  0.2961 -0.1500
  542BOLB   PO112986  10.453  15.804  14.238 -0.1653 -0.3233 -0.0225
  542BOLB   GL112987  10.136  16.030  13.888  0.1012  0.0868  0.1345
  542BOLB   GL212988  10.043  15.892  13.628  0.0079 -0.2007 -0.1200
  542BOLB   C1A12989  10.036  16.392  13.715 -0.2129 -0.1767  0.1301
  542BOLB   C2A12990   9.806  16.682  13.498 -0.0923 -0.1354  0.1183
  542BOLB   C3A12991   9.574  16.886  13.313  0.2031  0.2542  0.0750
  542BOLB   C4A12992   9.211  17.125  13.185  0.0001  0.1012 -0.3443
  542BOLB   C1B12993   9.586  16.137  13.596  0.1242  0.1253 -0.1127
  542BOLB   C2B12994   9.383  16.445  13.586 -0.1791 -0.1437 -0.3232
  542BOLB   C3B12995   9.092  16.673  13.375 -0.1381 -0.3227  0.0736
  542BOLB   C4B12996   8.681  16.741  13.200  0.0964 -0.0980  0.1459
  542BOLB   NC212997   6.555  17.333  12.723  0.2513 -0.2339 -0.0577
  542BOLB   PO212998   6.810  17.626  12.746  0.2406  0.1225  0.3293
  542BOLB   GL312999   7.120  17.416  12.984 -0.4463 -0.1370 -0.3439
  542BOLB   GL413000   7.132  17.093  12.825  0.1379  0.3557 -0.0780
  542BOLB   C1C13001   7.614  17.244  12.802 -0.1092 -0.2083  0.4262
  542BOLB   C2C13002   8.030  17.248  12.773  0.2890 -0.0983 -0.2643
  542BOLB   C3C13003   8.512  17.101  12.894 -0.1065 -0.1753 -0.2077
  542BOLB   C4C13004   8.747  17.296  13.111  0.3024 -0.0567  0.4230
  542BOLB   C1D13005   7.368  16.794  12.707  0.1141  0.0272 -0.1791
  542BOLB   C2D13006   7.483  16.452  12.968 -0.0458  0.3864 -0.0145
  542BOLB   C3D13007   7.438  16.083  13.400  0.2250 -0.1801 -0.1421
  542BOLB   C4D13008   7.263  15.624  13.625  0.0110 -0.6152 -0.1156
  543BOLB   NC113009  12.585  17.666  17.061  0.0116 -0.0039  0.0316
  543BOLB   PO113010  12.466  17.676  16.644  0.0231 -0.3798 -0.1804
  543BOLB   GL113011  12.393  17.987  16.749 -0.1126 -0.1551  0.0994
  543BOLB   GL213012  12.029  18.001  16.730 -0.1458 -0.0122  0.3137
  543BOLB   C1A13013  12.197  18.418  16.984 -0.3144  0.2901  0.1698
  543BOLB   C2A13014  12.037  18.759  17.184  0.0349  0.3638  0.1950
  543BOLB   C3A13015  11.694  19.048  17.333  0.3285  0.0269 -0.0663
  543BOLB   C4A13016  11.275  19.102  17.578 -0.0287  0.3583  0.0878
  543BOLB   C1B13017  12.013  18.308  16.463 -0.0778  0.0657 -0.0174
  543BOLB   C2B13018  11.662  18.490  16.288  0.0744  0.1645  0.2713
  543BOLB   C3B13019  11.163  18.534  16.336 -0.2186 -0.1026  0.0861
  543BOLB   C4B13020  10.922  18.615  16.720 -0.0691 -0.0799  0.0771
  543BOLB   NC213021   9.483  21.029  18.319  0.1103  0.0121  0.0576
  543BOLB   PO213022   9.776  20.916  18.169 -0.0798 -0.3612  0.3334
  543BOLB   GL313023  10.031  20.535  18.057 -0.1052 -0.0157  0.0901
  543BOLB   GL413024  10.251  20.624  17.812  0.4218 -0.3921  0.0410
  543BOLB   C1C13025  10.291  20.162  18.063 -0.1264  0.2231 -0.1472
  543BOLB   C2C13026  10.313  19.795  17.810 -0.1754  0.1655 -0.1178
  543BOLB   C3C13027  10.593  19.520  17.837  0.2054  0.1860  0.3006
  543BOLB   C4C13028  10.993  19.485  17.749 -0.0918  0.0419  0.0871
  543BOLB   C1D13029  10.611  20.419  17.716  0.2703 -0.1019 -0.0831
  543BOLB   C2D13030  10.999  20.289  17.778  0.1119 -0.0649  0.4390
  543BOLB   C3D13031  11.302  19.876  17.851 -0.0003 -0.2262  0.1482
  543BOLB   C4D13032  11.469  19.607  17.595  0.0773  0.4526 -0.2115
  544BOLB   NC113033  19.577   3.463  18.080 -0.0568 -0.2358 -0.3217
  544BOLB   PO113034  19.403   3.106  18.279 -0.2029 -0.1772 -0.1141
  544BOLB   GL113035  19.441   2.855  18.576  0.0113 -0.0243  0.0206
  544BOLB   GL213036  19.765   2.742  18.695 -0.0609 -0.0452 -0.2121
  544BOLB   C1A13037  19.314   2.531  18.892  0.1283  0.2399 -0.3207
  544BOLB   C2A13038  19.373   2.156  19.153  0.0393  0.3271  0.3742
  544BOLB   C3A13039  19.462   1.785  19.379  0.0309  0.0857 -0.3235
  544BOLB   C4A13040  19.666   1.596  19.723  0.0498 -0.2362 -0.1005
  544BOLB   C1B13041  19.885   2.499  18.946  0.4626 -0.0692 -0.2964
  544BOLB   C2B13042  19.867   2.416  19.316 -0.4042  0.1869  0.2053
  544BOLB   C3B13043  19.925   2.194  19.599  0.1160  0.1557 -0.0105
  544BOLB   C4B13044  19.523   2.110  19.769  0.2015  0.1678 -0.1200
  544BOLB   NC213045  20.282  -0.455  20.386 -0.0012  0.1379  0.0017
  544BOLB   PO213046  20.721  -0.489  20.225  0.0049 -0.2245  0.2229
  544BOLB   GL313047  20.476  -0.087  20.160 -0.0438  0.1332 -0.0534
  544BOLB   GL413048  20.138   0.019  20.261 -0.1383 -0.0287 -0.0643
  544BOLB   C1C13049  20.540   0.330  19.956  0.0417 -0.1448 -0.1490
  544BOLB   C2C13050  20.367   0.752  20.018 -0.1284  0.0225  0.4456
  544BOLB   C3C13051  20.065   1.045  20.028 -0.2292  0.0627  0.0915
  544BOLB   C4C13052  19.659   1.273  19.904 -0.2534 -0.3152 -0.3103
  544BOLB   C1D13053  20.041   0.427  20.347 -0.0056 -0.0668 -0.2833
  544BOLB   C2D13054  19.721   0.721  20.313  0.6059 -0.2246  0.0371
  544BOLB   C3D13055  19.435   1.079  20.321  0.1573 -0.3170  0.0350
  544BOLB   C4D13056  19.368   1.333  20.627  0.2185  0.1665  0.0997
  545BOLB   NC113057  24.040  14.172  16.303 -0.2547 -0.1150 -0.1871
  545BOLB   PO113058  24.089  13.645  16.099  0.2733  0.0442 -0.0922
  545BOLB   GL113059  24.580  13.528  16.138 -0.0751  0.1448  0.0492
  545BOLB   GL213060  24.674  13.274  15.883 -0.4641  0.0221  0.0730
  545BOLB   C1A13061  25.012  13.558  16.180  0.3357 -0.2217  0.3222
  545BOLB   C2A13062  25.300  13.902  16.426  0.0729 -0.1754 -0.1635
  545BOLB   C3A13063  25.714  14.095  16.629 -0.0397 -0.2670  0.1948
  545BOLB   C4A13064  26.017  14.307  16.941 -0.0731 -0.1169 -0.2264
  545BOLB   C1B13065  25.087  13.070  15.878  0.1176  0.0060  0.2485
  545BOLB   C2B13066  25.433  12.947  15.804  0.2647 -0.2047  0.1519
  545BOLB   C3B13067  25.813  12.828  15.960  0.1200 -0.1823 -0.2055
  545BOLB   C4B13068  26.131  12.591  16.216  0.0971 -0.3736 -0.0848
  545BOLB   NC213069  28.054  14.942  16.947 -0.1549  0.0727 -0.1515
  545BOLB   PO213070  27.904  14.742  17.316 -0.2465 -0.1436  0.2179
  545BOLB   GL313071  27.558  14.471  17.434  0.0846 -0.0807 -0.1795
  545BOLB   GL413072  27.354  14.575  17.760  0.3654 -0.1721 -0.1901
  545BOLB   C1C13073  27.185  14.107  17.578 -0.0025 -0.3822  0.2380
  545BOLB   C2C13074  26.770  14.272  17.750  0.1767 -0.2506 -0.3349
  545BOLB   C3C13075  26.391  14.520  17.501 -0.3128  0.1365  0.3521
  545BOLB   C4C13076  26.405  14.455  17.137 -0.2099 -0.0294 -0.3822
  545BOLB   C1D13077  27.039  14.744  17.307 -0.2846 -0.0290 -0.0056
  545BOLB   C2D13078  26.663  14.958  17.044 -0.1308 -0.2309 -0.1071
  545BOLB   C3D13079  26.163  14.967  17.071  0.4776  0.0266 -0.4922
  545BOLB   C4D13080  25.802  14.614  17.246  0.2037  0.2005 -0.0864
  546BOLB   NC113081  24.274  12.255  15.421 -0.2412 -0.1539  0.0766
  546BOLB   PO113082  24.422  11.938  15.232 -0.1413  0.0361  0.0765
  546BOLB   GL113083  24.830  11.714  15.176  0.0401 -0.0584  0.0728
  546BOLB   GL213084  25.065  11.661  15.453 -0.0675 -0.1914 -0.0118
  546BOLB   C1A13085  25.186  11.716  14.949  0.1895 -0.1453  0.0464
  546BOLB   C2A13086  25.620  11.791  15.043  0.2103 -0.0680 -0.0177
  546BOLB   C3A13087  26.011  11.915  15.092 -0.0853 -0.0991 -0.1095
  546BOLB   C4A13088  26.394  11.934  15.080 -0.1656 -0.0765 -0.0077
  546BOLB   C1B13089  25.418  11.705  15.884 -0.0639 -0.0406  0.2389
  546BOLB   C2B13090  25.317  11.935  16.227  0.0908 -0.1792 -0.4890
  546BOLB   C3B13091  25.262  12.251  16.444 -0.2879  0.1589  0.0396
  546BOLB   C4B13092  25.410  12.440  16.795 -0.1225  0.2052  0.1491
  546BOLB   NC213093  28.999  12.524  14.981 -0.0235 -0.0694 -0.1445
  546BOLB   PO213094  28.517  12.381  14.928 -0.4688 -0.1777  0.2681
  546BOLB   GL313095  28.043  12.346  14.838 -0.0562  0.1124  0.3434
  546BOLB   GL413096  27.722  12.519  14.915  0.4654 -0.4036  0.2032
  546BOLB   C1C13097  27.665  12.079  14.761 -0.1401  0.0813  0.0041
  546BOLB   C2C13098  27.493  11.678  14.704  0.0229  0.1294 -0.0657
  546BOLB   C3C13099  27.147  11.497  14.884  0.0583 -0.1092  0.0907
  546BOLB   C4C13100  26.739  11.802  14.993 -0.0140  0.3528  0.2516
  546BOLB   C1D13101  27.355  12.675  14.819  0.1122 -0.0376  0.1005
  546BOLB   C2D13102  27.018  12.973  14.633  0.0053 -0.2108 -0.2521
  546BOLB   C3D13103  26.709  12.879  14.922  0.2007  0.1309 -0.1656
  546BOLB   C4D13104  26.502  12.512  15.006  0.2010 -0.2619  0.1621
  547BOLB   NC113105  13.802  18.401  16.614 -0.3189 -0.0571 -0.0037
  547BOLB   PO113106  14.191  18.615  16.585  0.1392  0.1671 -0.0588
  547BOLB   GL113107  14.199  19.072  16.446  0.1796  0.0241 -0.2444
  547BOLB   GL213108  14.167  19.242  16.754  0.2747 -0.3874  0.3388
  547BOLB   C1A13109  14.089  19.385  16.244 -0.2103 -0.1616  0.3448
  547BOLB   C2A13110  13.911  19.637  16.420 -0.2116  0.2077 -0.0039
  547BOLB   C3A13111  13.665  20.000  16.520  0.0023  0.1160 -0.0016
  547BOLB   C4A13112  13.392  20.273  16.520 -0.1680 -0.2780  0.2522
  547BOLB   C1B13113  14.013  19.448  17.045 -0.5057  0.2706  0.1527
  547BOLB   C2B13114  13.882  19.763  17.021  0.1530  0.2954  0.1333
  547BOLB   C3B13115  14.031  20.100  17.241 -0.0522  0.1881  0.1165
  547BOLB   C4B13116  13.911  20.447  17.329  0.0877 -0.0740 -0.1951
  547BOLB   NC213117  12.295  21.990  17.751  0.3364  0.2667  0.5167
  547BOLB   PO213118  12.347  22.138  17.288  0.1457 -0.0608 -0.0165
  547BOLB   GL313119  12.530  21.705  17.351  0.2839  0.1069 -0.0654
  547BOLB   GL413120  12.551  21.617  17.029 -0.2289 -0.1200  0.3512
  547BOLB   C1C13121  12.921  21.625  17.396 -0.0602  0.1602 -0.4322
  547BOLB   C2C13122  13.327  21.330  17.255  0.1673  0.2164 -0.1877
  547BOLB   C3C13123  13.459  20.915  17.022  0.0609 -0.2755  0.1019
  547BOLB   C4C13124  13.332  20.644  16.831 -0.0530 -0.1966  0.2288
  547BOLB   C1D13125  12.583  21.338  16.706 -0.2097  0.0410  0.0892
  547BOLB   C2D13126  12.944  21.226  16.386  0.0163  0.1200  0.0142
  547BOLB   C3D13127  13.163  20.859  16.358  0.0698  0.1984  0.0779
  547BOLB   C4D13128  13.586  20.683  16.031 -0.3372 -0.1472  0.2458
  548BOLB   NC113129  15.102  10.971   7.980 -0.2364  0.1180  0.0380
  548BOLB   PO113130  14.955  11.160   7.569 -0.0623 -0.4448 -0.2859
  548BOLB   GL113131  14.884  11.140   7.193 -0.0867  0.0465 -0.0369
  548BOLB   GL213132  15.135  11.226   7.028 -0.0643  0.0472 -0.1894
  548BOLB   C1A13133  14.737  11.518   6.881  0.3070 -0.2616  0.2370
  548BOLB   C2A13134  14.964  11.489   6.474 -0.3471  0.0632  0.3617
  548BOLB   C3A13135  15.083  11.743   6.120  0.0977  0.0216 -0.2044
  548BOLB   C4A13136  15.094  12.152   5.866  0.0638 -0.2202 -0.2864
  548BOLB   C1B13137  14.969  11.060   6.723  0.1653 -0.3906  0.0112
  548BOLB   C2B13138  15.028  10.754   6.410 -0.0278 -0.4768 -0.3988
  548BOLB   C3B13139  15.475  10.641   6.323  0.3417  0.3002  0.2354
  548BOLB   C4B13140  15.808  10.476   6.191  0.3359  0.1170 -0.2137
  548BOLB   NC213141  14.973  13.869   3.095 -0.2391 -0.2098 -0.0803
  548BOLB   PO213142  14.841  13.669   3.505  0.0885  0.0878 -0.2174
  548BOLB   GL313143  14.773  13.439   3.980 -0.1293 -0.0370 -0.0926
  548BOLB   GL413144  14.522  13.460   3.993  0.1730 -0.1009  0.0746
  548BOLB   C1C13145  14.988  13.152   4.432  0.0407 -0.0381 -0.1727
  548BOLB   C2C13146  14.823  12.977   4.778  0.2221 -0.3074  0.0688
  548BOLB   C3C13147  14.819  12.649   5.132 -0.2947  0.3575  0.0992
  548BOLB   C4C13148  14.961  12.463   5.560 -0.1965  0.3453  0.1388
  548BOLB   C1D13149  14.171  13.467   4.233  0.1152  0.1079 -0.3556
  548BOLB   C2D13150  14.051  13.365   4.541 -0.2296 -0.0242 -0.2486
  548BOLB   C3D13151  13.893  13.428   4.886  0.2706  0.0951 -0.2446
  548BOLB   C4D13152  13.846  13.720   5.213  0.2197  0.0252 -0.1714
  549BOLB   NC113153  16.193   9.321  23.265  0.2997 -0.0528 -0.1647
  549BOLB   PO113154  16.385   9.756  23.420 -0.2431  0.0612  0.2581
  549BOLB   GL113155  16.103   9.609  23.657  0.0107  0.0573  0.0108
  549BOLB   GL213156  15.979   9.172  23.691 -0.1910 -0.2151 -0.1281
  549BOLB   C1A13157  16.044   9.725  24.105 -0.2061 -0.1097  0.1869
  549BOLB   C2A13158  16.028   9.386  24.503 -0.2439  0.2659 -0.0210
  549BOLB   C3A13159  16.281   9.302  24.912 -0.2896 -0.1708 -0.1047
  549BOLB   C4A13160  16.531   9.076  25.228  0.2533 -0.4946 -0.1801
  549BOLB   C1B13161  16.007   8.983  24.094  0.1730 -0.0763  0.1541
  549BOLB   C2B13162  16.237   8.753  24.366  0.0408 -0.1078 -0.2340
  549BOLB   C3B13163  16.483   8.873  24.773 -0.2201  0.0183 -0.2896
  549BOLB   C4B13164  16.807   9.143  24.840  0.0764 -0.0438  0.0449
  549BOLB   NC213165  15.948  10.204  27.481 -0.1273  0.1089 -0.1971
  549BOLB   PO213166  16.049   9.812  27.480 -0.0625 -0.0460  0.0651
  549BOLB   GL313167  16.030   9.409  27.212 -0.0812 -0.0485  0.0781
  549BOLB   GL413168  15.842   9.396  27.010 -0.3084  0.1138 -0.2980
  549BOLB   C1C13169  16.299   9.183  26.822  0.4353  0.1518 -0.0452
  549BOLB   C2C13170  16.296   8.845  26.487  0.0051 -0.2755 -0.0438
  549BOLB   C3C13171  16.388   9.037  26.057  0.1691  0.0824  0.0018
  549BOLB   C4C13172  16.522   9.045  25.592  0.1415  0.1154  0.0923
  549BOLB   C1D13173  15.519   9.435  26.633 -0.0140  0.0380 -0.1438
  549BOLB   C2D13174  15.476   9.458  26.196  0.2758  0.1047 -0.0290
  549BOLB   C3D13175  15.650   9.576  25.915 -0.0371  0.1401 -0.2087
  549BOLB   C4D13176  15.668   9.438  25.524 -0.0936 -0.0496 -0.0201
  550BOLB   NC113177  24.630   1.804  18.564 -0.1850  0.0340 -0.0305
  550BOLB   PO113178  24.310   1.920  18.898 -0.0307  0.0996 -0.1336
  550BOLB   GL113179  23.969   2.113  19.085  0.1932  0.1424  0.3043
  550BOLB   GL213180  23.753   1.959  19.040 -0.0104 -0.1625  0.0807
  550BOLB   C1A13181  23.681   2.451  19.143 -0.0151  0.0911 -0.1916
  550BOLB   C2A13182  23.383   2.762  19.231 -0.0157 -0.2470  0.4797
  550BOLB   C3A13183  23.040   2.804  19.002  0.2826  0.1238  0.0150
  550BOLB   C4A13184  22.616   2.662  18.998  0.1599 -0.0227  0.2636
  550BOLB   C1B13185  23.454   1.815  18.778 -0.0074 -0.1121  0.0719
  550BOLB   C2B13186  23.010   1.941  18.464 -0.3995 -0.3863 -0.2030
  550BOLB   C3B13187  22.933   1.614  18.034  0.0646 -0.2224 -0.1332
  550BOLB   C4B13188  22.643   1.550  17.655  0.0657  0.1904  0.3984
  550BOLB   NC213189  22.625   0.458  19.795 -0.1611 -0.0180 -0.1979
  550BOLB   PO213190  22.314   0.596  20.018  0.0812  0.0161  0.0575
  550BOLB   GL313191  22.098   0.925  19.884 -0.0634  0.0289 -0.0383
  550BOLB   GL413192  21.807   0.811  19.653 -0.0097  0.0514 -0.1626
  550BOLB   C1C13193  22.115   1.382  19.821  0.2100 -0.1515  0.2799
  550BOLB   C2C13194  22.302   1.738  19.631 -0.0053 -0.0191 -0.0830
  550BOLB   C3C13195  22.418   2.004  19.369 -0.2028  0.3749 -0.1208
  550BOLB   C4C13196  22.346   2.269  19.178  0.0090 -0.0045 -0.2154
  550BOLB   C1D13197  21.702   1.273  19.565 -0.1217  0.0413  0.0642
  550BOLB   C2D13198  21.770   1.759  19.702  0.0542  0.1594  0.0996
  550BOLB   C3D13199  21.800   2.102  19.545 -0.0662 -0.3830 -0.0462
  550BOLB   C4D13200  21.901   2.488  19.297 -0.0541  0.1845 -0.1154
  551BOLB   NC113201  16.324   4.811  20.983 -0.0228  0.1673 -0.1580
  551BOLB   PO113202  16.056   4.669  21.329 -0.0717  0.3197  0.2586
  551BOLB   GL113203  16.047   4.569  21.795 -0.0609 -0.0952  0.0911
  551BOLB   GL213204  15.808   4.350  21.709 -0.1322  0.2173 -0.4001
  551BOLB   C1A13205  16.102   4.582  22.133  0.1126  0.0155 -0.1694
  551BOLB   C2A13206  16.302   4.451  22.546 -0.4312  0.2637  0.3482
  551BOLB   C3A13207  16.522   4.244  22.802  0.2234  0.2379 -0.1652
  551BOLB   C4A13208  16.632   4.059  23.087 -0.1588  0.1411 -0.2157
  551BOLB   C1B13209  16.077   4.031  21.864  0.1524  0.0186  0.1048
  551BOLB   C2B13210  16.078   4.063  22.290  0.1826 -0.0568  0.0709
  551BOLB   C3B13211  15.835   3.877  22.511 -0.2551  0.0606 -0.3715
  551BOLB   C4B13212  15.939   3.413  22.634 -0.1610  0.2713 -0.0706
  551BOLB   NC213213  17.130   1.720  24.989 -0.0690  0.2453  0.2399
  551BOLB   PO213214  17.300   2.093  24.699 -0.1860  0.1052  0.1047
  551BOLB   GL313215  17.382   2.404  24.323  0.2455 -0.2245  0.0837
  551BOLB   GL413216  17.217   2.657  24.536 -0.1506  0.0921  0.1699
  551BOLB   C1C13217  17.207   2.540  23.865 -0.2191  0.1853 -0.1040
  551BOLB   C2C13218  16.932   2.875  23.548  0.3158  0.1195  0.0423
  551BOLB   C3C13219  16.640   3.162  23.409 -0.1303 -0.3089 -0.2657
  551BOLB   C4C13220  16.722   3.681  23.303 -0.1260  0.1414 -0.0012
  551BOLB   C1D13221  16.751   2.616  24.341  0.0682 -0.1197 -0.1793
  551BOLB   C2D13222  16.540   2.635  23.908 -0.1507 -0.1305  0.0203
  551BOLB   C3D13223  16.218   2.741  23.685  0.1887  0.1563  0.1496
  551BOLB   C4D13224  16.178   3.010  23.384  0.1124  0.0455 -0.1639
  552BOLB   NC113225  15.350  31.475  10.818  0.0829 -0.0541 -0.2192
  552BOLB   PO113226  15.246  31.888  10.908  0.0379 -0.4545 -0.0265
  552BOLB   GL113227  15.388  32.247  10.855 -0.1266 -0.0741  0.1542
  552BOLB   GL213228  15.422  32.377  11.168 -0.4712 -0.3087  0.1061
  552BOLB   C1A13229  15.408  32.665  10.797  0.1610 -0.1911  0.2452
  552BOLB   C2A13230  15.591  32.864  10.521 -0.3240 -0.0335 -0.2976
  552BOLB   C3A13231  15.884  33.044  10.197  0.0427  0.1124 -0.0015
  552BOLB   C4A13232  16.118  33.458  10.128  0.0619  0.0633  0.0580
  552BOLB   C1B13233  15.140  32.689  11.143 -0.0064 -0.0271  0.1692
  552BOLB   C2B13234  14.876  32.832  10.876 -0.0238 -0.1814  0.0099
  552BOLB   C3B13235  14.782  33.111  10.582  0.4453  0.1484 -0.0690
  552BOLB   C4B13236  14.792  33.508  10.672 -0.0542  0.3131 -0.0865
  552BOLB   NC213237  18.185  33.299  10.892  0.0551  0.3702 -0.6595
  552BOLB   PO213238  17.811  33.240  10.735 -0.3884 -0.2768 -0.4386
  552BOLB   GL313239  17.442  33.440  10.957 -0.2414  0.1741 -0.1686
  552BOLB   GL413240  17.434  33.740  11.184 -0.0182  0.0284 -0.1426
  552BOLB   C1C13241  17.103  33.702  10.809 -0.2401 -0.0593  0.3201
  552BOLB   C2C13242  16.969  33.913  10.506  0.1077 -0.1519 -0.2528
  552BOLB   C3C13243  16.558  34.024  10.356  0.0288 -0.3027 -0.0096
  552BOLB   C4C13244  16.219  33.891  10.097 -0.2282 -0.1654 -0.1459
  552BOLB   C1D13245  17.460  34.076  11.604 -0.0452 -0.0242  0.0989
  552BOLB   C2D13246  17.327  34.516  11.561  0.0588 -0.0136 -0.1480
  552BOLB   C3D13247  17.025  34.885  11.567  0.1318  0.1645 -0.1781
  552BOLB   C4D13248  16.637  34.933  11.924  0.0239  0.3155 -0.0793
  553BOLB   NC113249  15.441   5.599  21.101 -0.0273  0.1033 -0.3983
  553BOLB   PO113250  15.132   5.309  21.485  0.0970 -0.1914 -0.5542
  553BOLB   GL113251  15.211   4.810  21.745 -0.1787 -0.3599  0.0008
  553BOLB   GL213252  15.479   4.686  21.701  0.3154 -0.2339 -0.2387
  553BOLB   C1A13253  15.034   4.510  21.994  0.1755  0.0385 -0.1437
  553BOLB   C2A13254  14.954   4.409  22.366  0.0662  0.3109  0.0717
  553BOLB   C3A13255  15.028   4.247  22.706  0.2560  0.0758  0.0589
  553BOLB   C4A13256  15.043   3.800  22.762 -0.0664  0.2371  0.1506
  553BOLB   C1B13257  15.533   4.475  22.090 -0.0289 -0.0379 -0.2584
  553BOLB   C2B13258  15.447   4.237  22.451 -0.0715 -0.1050 -0.3336
  553BOLB   C3B13259  15.499   4.006  22.858 -0.1258 -0.1078 -0.0118
  553BOLB   C4B13260  15.352   3.963  23.221  0.0493 -0.0317  0.3601
  553BOLB   NC213261  15.548   3.336  24.870  0.0421 -0.1825  0.0742
  553BOLB   PO213262  15.542   2.842  24.840  0.0112 -0.1419 -0.4565
  553BOLB   GL313263  15.516   2.983  24.503  0.1684 -0.1781  0.3044
  553BOLB   GL413264  15.793   2.923  24.172 -0.2931 -0.0029 -0.0683
  553BOLB   C1C13265  15.274   2.830  24.035  0.3476  0.0337  0.3436
  553BOLB   C2C13266  15.136   3.046  23.622  0.0768  0.1734 -0.3317
  553BOLB   C3C13267  14.974   3.280  23.446  0.5103  0.1152  0.0311
  553BOLB   C4C13268  14.968   3.505  23.066 -0.3209  0.0210  0.1167
  553BOLB   C1D13269  16.061   3.199  23.887 -0.0471 -0.2669  0.0429
  553BOLB   C2D13270  16.168   3.523  23.619 -0.0458  0.0555  0.1485
  553BOLB   C3D13271  15.816   3.781  23.460  0.1834  0.2657 -0.0296
  553BOLB   C4D13272  15.755   4.195  23.278 -0.1278  0.0481 -0.2913
  554BOLB   NC113273  24.637   9.231  15.096 -0.0792  0.4194 -0.4537
  554BOLB   PO113274  24.371   8.865  15.358 -0.3545  0.2207  0.3023
  554BOLB   GL113275  24.812   8.785  15.435  0.1925 -0.0842 -0.0617
  554BOLB   GL213276  25.008   8.871  15.019 -0.0324 -0.3888 -0.1256
  554BOLB   C1A13277  25.126   8.498  15.288 -0.1848  0.0476  0.0691
  554BOLB   C2A13278  25.466   8.243  15.375 -0.1615 -0.1546 -0.3837
  554BOLB   C3A13279  25.851   8.199  15.463 -0.1820 -0.0883  0.0065
  554BOLB   C4A13280  26.065   7.863  15.594  0.0551  0.0075 -0.0839
  554BOLB   C1B13281  25.344   8.638  14.840 -0.3104 -0.4275  0.4462
  554BOLB   C2B13282  25.637   8.518  14.517  0.0856 -0.2656  0.0152
  554BOLB   C3B13283  25.752   8.255  14.228 -0.0200 -0.1314  0.2169
  554BOLB   C4B13284  26.049   7.906  14.137  0.0509  0.1665  0.0854
  554BOLB   NC213285  27.875   6.277  14.904  0.1212  0.4074 -0.1955
  554BOLB   PO213286  27.813   6.146  15.354 -0.2050  0.1841  0.0621
  554BOLB   GL313287  27.443   6.323  15.146  0.2530  0.0676 -0.2612
  554BOLB   GL413288  27.442   6.651  14.920  0.0767 -0.2368  0.1838
  554BOLB   C1C13289  26.893   6.440  15.189 -0.1437 -0.0675  0.1386
  554BOLB   C2C13290  26.473   6.629  15.125 -0.0214 -0.3237 -0.0407
  554BOLB   C3C13291  26.338   7.060  15.169  0.1336 -0.2890  0.2669
  554BOLB   C4C13292  26.175   7.491  15.417 -0.1731 -0.3023 -0.0584
  554BOLB   C1D13293  27.160   6.846  14.824  0.1404  0.1887 -0.5452
  554BOLB   C2D13294  26.721   7.028  14.683 -0.2376 -0.0810 -0.0171
  554BOLB   C3D13295  26.263   6.939  14.579  0.1474 -0.0906 -0.0932
  554BOLB   C4D13296  26.048   6.615  14.583  0.0715 -0.1304 -0.1203
  555BOLB   NC113297  20.820   3.754  13.231  0.1880  0.0769 -0.0275
  555BOLB   PO113298  21.145   4.132  13.101  0.1037 -0.3019 -0.1814
  555BOLB   GL113299  21.494   3.881  13.159  0.1028  0.0351  0.1047
  555BOLB   GL213300  21.272   3.645  13.178  0.0717 -0.0470 -0.1445
  555BOLB   C1A13301  21.723   3.567  12.843 -0.1575 -0.0865  0.0794
  555BOLB   C2A13302  21.964   3.156  12.806  0.0422 -0.1363  0.0159
  555BOLB   C3A13303  22.306   2.991  12.783  0.0880  0.2358 -0.2903
  555BOLB   C4A13304  22.587   2.634  12.874  0.1507  0.0093  0.3003
  555BOLB   C1B13305  21.459   3.243  13.200  0.0887  0.2773  0.0808
  555BOLB   C2B13306  21.786   2.901  13.264 -0.0406 -0.0058 -0.3889
  555BOLB   C3B13307  22.176   2.746  13.209  0.0463 -0.4375  0.2486
  555BOLB   C4B13308  22.457   2.322  13.300 -0.0021 -0.1531 -0.2804
  555BOLB   NC213309  23.754   0.213  12.270  0.0485 -0.0020 -0.1233
  555BOLB   PO213310  23.273   0.224  12.199 -0.2274 -0.1618  0.2366
  555BOLB   GL313311  23.007   0.558  12.230  0.0679 -0.0859 -0.2713
  555BOLB   GL413312  22.665   0.532  12.282 -0.2443  0.1276 -0.1121
  555BOLB   C1C13313  23.015   0.914  12.568  0.0799  0.0495 -0.1967
  555BOLB   C2C13314  22.868   1.297  12.766 -0.3284 -0.2666 -0.1661
  555BOLB   C3C13315  22.818   1.774  12.977 -0.0511  0.0115  0.0049
  555BOLB   C4C13316  22.975   2.252  12.873 -0.0964  0.2471  0.1696
  555BOLB   C1D13317  22.334   0.513  12.559 -0.0977 -0.2235  0.2933
  555BOLB   C2D13318  22.020   0.640  12.825  0.0589  0.0851  0.2536
  555BOLB   C3D13319  21.892   1.072  13.035  0.0760  0.2195  0.0231
  555BOLB   C4D13320  21.653   1.290  13.189  0.0152 -0.2272  0.1102
  556BOLB   NC113321   7.378  34.648   9.421  0.1610  0.0621  0.0704
  556BOLB   PO113322   7.452  34.367   9.637  0.1251  0.3703 -0.1584
  556BOLB   GL113323   7.707  34.678   9.956 -0.0872  0.0295 -0.5212
  556BOLB   GL213324   7.719  34.878   9.720 -0.1467  0.2507  0.0891
  556BOLB   C1A13325   7.703  34.936  10.249 -0.0273 -0.0033  0.2146
  556BOLB   C2A13326   7.887  35.180  10.518 -0.0063  0.0915  0.0957
  556BOLB   C3A13327   8.247  35.499  10.660  0.0908 -0.1535 -0.1151
  556BOLB   C4A13328   8.519  35.835  10.615 -0.1532  0.1535 -0.3335
  556BOLB   C1B13329   7.820  35.257   9.906  0.0632 -0.1259  0.2634
  556BOLB   C2B13330   7.861  35.623  10.286 -0.1170 -0.1538  0.0113
  556BOLB   C3B13331   7.611  35.918  10.249 -0.1484 -0.1892  0.0448
  556BOLB   C4B13332   7.780  36.301  10.209 -0.2006 -0.2316 -0.0355
  556BOLB   NC213333   7.903  34.181   9.846 -0.2382 -0.1702  0.1900
  556BOLB   PO213334   8.256  34.256   9.698  0.4404  0.1980 -0.0092
  556BOLB   GL313335   8.508  34.433   9.543 -0.0661 -0.0140  0.0173
  556BOLB   GL413336   8.767  34.302   9.551 -0.1665 -0.0049  0.0221
  556BOLB   C1C13337   8.714  34.771   9.674  0.3272  0.2339  0.1315
  556BOLB   C2C13338   8.760  35.152   9.957  0.1210 -0.1084 -0.0163
  556BOLB   C3C13339   8.995  35.447  10.093 -0.3198 -0.1523 -0.1632
  556BOLB   C4C13340   8.924  35.935  10.355 -0.2206 -0.1042 -0.2890
  556BOLB   C1D13341   9.115  34.406   9.772  0.0964 -0.2002  0.1727
  556BOLB   C2D13342   9.238  34.734   9.977  0.0157  0.1115 -0.2197
  556BOLB   C3D13343   9.059  35.038  10.287 -0.0943 -0.1833  0.3172
  556BOLB   C4D13344   9.255  35.168  10.637  0.1550  0.0620  0.0665
  557BOLB   NC113345  20.727   4.506  19.370  0.2107 -0.0645 -0.0374
  557BOLB   PO113346  21.150   4.589  19.401 -0.2196 -0.2085 -0.3236
  557BOLB   GL113347  21.295   4.386  19.680  0.1117 -0.2573 -0.0007
  557BOLB   GL213348  20.964   4.477  19.883  0.0879  0.1988 -0.0893
  557BOLB   C1A13349  21.526   4.116  19.784 -0.2456 -0.1376  0.0231
  557BOLB   C2A13350  21.781   3.773  19.704  0.2824  0.0967  0.2493
  557BOLB   C3A13351  21.898   3.562  19.371  0.0945 -0.0849 -0.1302
  557BOLB   C4A13352  22.234   3.299  19.438 -0.3326  0.1275 -0.2972
  557BOLB   C1B13353  21.108   4.177  20.103 -0.3573  0.2852 -0.1547
  557BOLB   C2B13354  21.280   3.749  20.297 -0.3866  0.1542  0.0413
  557BOLB   C3B13355  21.538   3.501  20.590 -0.0773  0.2643 -0.3680
  557BOLB   C4B13356  21.607   3.181  20.527 -0.2220 -0.0454  0.1460
  557BOLB   NC213357  24.094   3.017  20.887  0.0642  0.2770 -0.0335
  557BOLB   PO213358  23.627   2.913  21.080  0.0029  0.0842 -0.1298
  557BOLB   GL313359  23.615   3.303  20.884  0.0655  0.2046 -0.0163
  557BOLB   GL413360  23.968   3.449  20.813  0.1122  0.1164 -0.0156
  557BOLB   C1C13361  23.310   3.676  20.773  0.1567 -0.0775  0.3072
  557BOLB   C2C13362  22.977   3.662  20.483  0.0835  0.0765  0.1129
  557BOLB   C3C13363  22.664   3.362  20.217 -0.0598 -0.0355 -0.1098
  557BOLB   C4C13364  22.579   3.178  19.780 -0.0395  0.0945 -0.1328
  557BOLB   C1D13365  23.731   3.763  21.067  0.0469  0.0267  0.1262
  557BOLB   C2D13366  23.281   3.933  21.211  0.0644 -0.1761  0.0670
  557BOLB   C3D13367  23.059   4.159  20.880 -0.1468 -0.2461  0.0791
  557BOLB   C4D13368  22.717   4.062  20.664  0.1970  0.0717 -0.2369
  558BOLB   NC113369  23.370   9.149  20.262 -0.0309 -0.0618 -0.1220
  558BOLB   PO113370  23.383   8.899  20.632 -0.3727  0.2191 -0.1037
  558BOLB   GL113371  23.658   8.945  20.896 -0.0053 -0.2351 -0.2034
  558BOLB   GL213372  23.583   8.970  21.254  0.1804  0.2765 -0.2085
  558BOLB   C1A13373  23.974   8.724  21.112 -0.1094  0.2166 -0.3000
  558BOLB   C2A13374  24.315   8.855  21.445  0.2913 -0.1183  0.1259
  558BOLB   C3A13375  24.512   9.123  21.603 -0.0931 -0.3195 -0.1419
  558BOLB   C4A13376  24.816   9.497  21.360 -0.0923  0.1736 -0.0208
  558BOLB   C1B13377  23.931   9.186  21.361 -0.0895  0.2236  0.2538
  558BOLB   C2B13378  24.355   9.386  21.189 -0.0248  0.0693 -0.0944
  558BOLB   C3B13379  24.742   9.473  20.827  0.2839  0.0740 -0.1193
  558BOLB   C4B13380  24.884   9.793  20.584  0.0899  0.1424  0.2200
  558BOLB   NC213381  26.928   9.678  22.232 -0.1477 -0.0247 -0.2227
  558BOLB   PO213382  26.747   9.505  22.573  0.2511  0.0275 -0.0765
  558BOLB   GL313383  26.398   9.629  22.320  0.2629  0.1190 -0.0927
  558BOLB   GL413384  26.079   9.686  22.465  0.1402  0.1504 -0.2424
  558BOLB   C1C13385  26.215   9.760  21.850  0.1275 -0.0159 -0.3040
  558BOLB   C2C13386  25.870   9.706  21.648 -0.0935  0.0269  0.1300
  558BOLB   C3C13387  25.568   9.489  21.344  0.0214  0.0707  0.1555
  558BOLB   C4C13388  25.224   9.510  21.288  0.0789  0.2429  0.0991
  558BOLB   C1D13389  25.872   9.243  22.449 -0.1240 -0.0630 -0.4008
  558BOLB   C2D13390  25.606   9.044  22.619  0.0002 -0.2060 -0.0483
  558BOLB   C3D13391  25.255   8.806  22.817  0.1584  0.2659  0.0162
  558BOLB   C4D13392  24.880   8.829  22.685 -0.0526 -0.1287 -0.1363
  559BOLB   NC113393  21.698   5.065  18.703 -0.2681 -0.2647  0.0864
  559BOLB   PO113394  21.641   5.110  19.149  0.0566 -0.1232 -0.0516
  559BOLB   GL113395  21.636   4.597  19.386 -0.1850 -0.1462 -0.0677
  559BOLB   GL213396  21.463   4.285  19.195 -0.2089 -0.1726 -0.0926
  559BOLB   C1A13397  21.904   4.220  19.427 -0.1118 -0.0734  0.2535
  559BOLB   C2A13398  22.324   4.103  19.330 -0.0426  0.0686 -0.1242
  559BOLB   C3A13399  22.744   4.146  19.363  0.1671  0.0434  0.2344
  559BOLB   C4A13400  23.136   3.916  19.391  0.2748  0.0444 -0.0607
  559BOLB   C1B13401  21.700   3.883  19.058  0.1946  0.0472  0.2963
  559BOLB   C2B13402  21.899   3.521  18.864  0.2395 -0.0739 -0.0804
  559BOLB   C3B13403  22.270   3.202  18.887 -0.2233  0.3277 -0.1802
  559BOLB   C4B13404  22.739   3.129  18.760 -0.1094  0.1688  0.0133
  559BOLB   NC213405  25.309   2.981  20.390  0.0088 -0.1148  0.3243
  559BOLB   PO213406  25.141   2.999  20.026 -0.0421  0.6162  0.0054
  559BOLB   GL313407  25.029   3.347  19.962  0.2129  0.3733 -0.2369
  559BOLB   GL413408  25.013   3.642  19.884  0.0242  0.0388  0.0347
  559BOLB   C1C13409  24.693   3.320  19.605  0.0948 -0.5695  0.2123
  559BOLB   C2C13410  24.362   3.262  19.276 -0.2306  0.1538  0.1845
  559BOLB   C3C13411  23.898   3.417  19.338 -0.4887  0.0637 -0.2578
  559BOLB   C4C13412  23.521   3.687  19.386  0.0733 -0.1890  0.0216
  559BOLB   C1D13413  24.610   3.930  20.020 -0.2697 -0.3158 -0.0948
  559BOLB   C2D13414  24.251   4.075  20.096  0.0613  0.0580 -0.0022
  559BOLB   C3D13415  23.748   4.193  20.154 -0.1330 -0.1623 -0.0947
  559BOLB   C4D13416  23.496   4.520  20.146 -0.0417 -0.2365 -0.1818
  560BOLB   NC113417  24.318  10.150   7.772  0.0375  0.1431 -0.2677
  560BOLB   PO113418  24.404   9.860   7.420 -0.0415  0.2489 -0.2106
  560BOLB   GL113419  24.177   9.706   7.749  0.1503 -0.0581 -0.1212
  560BOLB   GL213420  23.859   9.849   7.781  0.0711 -0.1946  0.0868
  560BOLB   C1A13421  23.987   9.543   8.170 -0.1372 -0.0753 -0.0241
  560BOLB   C2A13422  23.908   9.308   8.441  0.1048 -0.0238  0.2034
  560BOLB   C3A13423  23.701   9.153   8.795  0.2223  0.1764 -0.0795
  560BOLB   C4A13424  23.833   9.088   9.194 -0.0510 -0.2077 -0.2058
  560BOLB   C1B13425  23.396   9.889   7.658 -0.0697 -0.1463 -0.0914
  560BOLB   C2B13426  23.117  10.096   7.750 -0.0684 -0.1316 -0.0070
  560BOLB   C3B13427  22.695  10.278   7.922  0.1780  0.3654  0.1662
  560BOLB   C4B13428  22.443  10.585   7.887 -0.2579  0.0041 -0.3826
  560BOLB   NC213429  22.956   8.384  11.407 -0.1562 -0.3845 -0.0137
  560BOLB   PO213430  22.761   8.768  11.522  0.0327  0.1228 -0.0796
  560BOLB   GL313431  23.039   8.774  11.102 -0.1600 -0.0147  0.0358
  560BOLB   GL413432  23.255   8.558  10.972  0.0246  0.2524  0.3053
  560BOLB   C1C13433  23.164   9.082  10.771 -0.3205  0.2916 -0.2382
  560BOLB   C2C13434  23.291   9.197  10.340 -0.5033 -0.2771  0.1125
  560BOLB   C3C13435  23.420   9.006   9.953  0.2637 -0.1607  0.1593
  560BOLB   C4C13436  23.652   8.974   9.578  0.4422  0.3501  0.0698
  560BOLB   C1D13437  23.468   8.630  10.653 -0.1219 -0.0049 -0.1118
  560BOLB   C2D13438  23.917   8.812  10.498 -0.4312  0.0630  0.1198
  560BOLB   C3D13439  23.820   9.121  10.224 -0.3561 -0.4371  0.0605
  560BOLB   C4D13440  23.781   9.359   9.915 -0.0863  0.2360  0.1919
  561BOLB   NC113441  17.871  18.211  18.114  0.2777  0.3488 -0.2243
  561BOLB   PO113442  17.817  18.308  18.573 -0.2671  0.1752 -0.0543
  561BOLB   GL113443  17.889  18.786  18.710  0.2019  0.0173  0.1263
  561BOLB   GL213444  17.854  18.794  19.065 -0.4269 -0.0636 -0.4392
  561BOLB   C1A13445  18.019  19.281  18.728  0.1201 -0.0542  0.2826
  561BOLB   C2A13446  18.282  19.539  18.848 -0.0291 -0.2099  0.1457
  561BOLB   C3A13447  18.509  19.929  18.854  0.2133 -0.4089 -0.2895
  561BOLB   C4A13448  18.706  20.220  18.705 -0.1741  0.0055  0.1536
  561BOLB   C1B13449  17.510  19.227  19.087  0.1758 -0.1038  0.1863
  561BOLB   C2B13450  17.505  19.633  19.002 -0.0151  0.2146 -0.2466
  561BOLB   C3B13451  17.213  20.118  18.998  0.1688 -0.2266  0.2498
  561BOLB   C4B13452  17.199  20.467  18.980  0.0698 -0.1047  0.0714
  561BOLB   NC213453  19.988  21.893  18.871 -0.2690 -0.2223  0.1322
  561BOLB   PO213454  20.349  21.729  18.723  0.0003 -0.2426  0.2085
  561BOLB   GL313455  20.198  21.411  18.559 -0.0796  0.1417  0.5059
  561BOLB   GL413456  20.410  21.432  18.253 -0.2230  0.2771  0.2196
  561BOLB   C1C13457  19.987  21.069  18.562 -0.1508  0.1498  0.3271
  561BOLB   C2C13458  19.848  20.712  18.668  0.1764 -0.3616 -0.3255
  561BOLB   C3C13459  19.492  20.567  18.657  0.0478 -0.1053 -0.0113
  561BOLB   C4C13460  19.047  20.414  18.607  0.0163  0.1631 -0.1501
  561BOLB   C1D13461  20.371  21.038  18.107  0.2056 -0.0781  0.0465
  561BOLB   C2D13462  20.220  20.706  17.948  0.0239  0.0043  0.0508
  561BOLB   C3D13463  20.137  20.291  17.941 -0.0032  0.0784  0.1082
  561BOLB   C4D13464  19.905  19.935  17.719 -0.2921 -0.0904  0.2576
  562BOLB   NC113465  16.091   8.488   1.053  0.2645 -0.0591 -0.1136
  562BOLB   PO113466  15.900   8.687   1.259  0.3014 -0.0235  0.1978
  562BOLB   GL113467  15.802   8.386   1.518  0.2166 -0.0083  0.1156
  562BOLB   GL213468  15.509   8.343   1.677 -0.0494  0.0449 -0.0975
  562BOLB   C1A13469  15.995   8.022   1.737  0.1716 -0.1423 -0.2866
  562BOLB   C2A13470  16.008   7.785   2.020  0.1026 -0.2217  0.0974
  562BOLB   C3A13471  15.852   7.467   2.323 -0.2786 -0.0219  0.1152
  562BOLB   C4A13472  15.604   7.185   2.579  0.2643  0.0883  0.0517
  562BOLB   C1B13473  15.127   8.253   1.890 -0.2280  0.1121 -0.0385
  562BOLB   C2B13474  14.643   8.286   1.912  0.3073 -0.0829 -0.1107
  562BOLB   C3B13475  14.230   8.277   1.778 -0.1068 -0.1482 -0.2885
  562BOLB   C4B13476  13.993   8.593   1.522 -0.1252  0.2486 -0.1834
  562BOLB   NC213477  14.925   6.417   0.701 -0.0416  0.1038 -0.2258
  562BOLB   PO213478  14.558   6.753   0.820 -0.0733 -0.1137 -0.0767
  562BOLB   GL313479  14.783   6.490   1.244 -0.1252 -0.2958  0.2476
  562BOLB   GL413480  14.867   6.128   1.173  0.2581  0.3062 -0.1519
  562BOLB   C1C13481  14.867   6.564   1.694 -0.1540 -0.2117  0.0686
  562BOLB   C2C13482  14.718   6.632   2.113 -0.1434  0.3289  0.2033
  562BOLB   C3C13483  14.928   6.810   2.425 -0.2881 -0.0980 -0.1845
  562BOLB   C4C13484  15.262   6.984   2.617  0.0094  0.3162 -0.1067
  562BOLB   C1D13485  14.909   5.963   1.567  0.0714 -0.0350 -0.2618
  562BOLB   C2D13486  15.036   6.122   1.977 -0.1017  0.0164  0.0924
  562BOLB   C3D13487  15.207   6.485   2.098 -0.1381  0.2120 -0.3581
  562BOLB   C4D13488  15.169   6.897   1.922 -0.0239 -0.3021  0.0352
  563BOLB   NC113489  22.116   5.187  17.208  0.1975 -0.2076  0.0417
  563BOLB   PO113490  22.192   4.815  17.390 -0.0788 -0.3716 -0.3342
  563BOLB   GL113491  22.499   4.600  17.653 -0.2192 -0.1800 -0.2314
  563BOLB   GL213492  22.458   4.340  17.691 -0.3333  0.2691 -0.0126
  563BOLB   C1A13493  22.828   4.323  17.356  0.0531  0.0222  0.2265
  563BOLB   C2A13494  23.201   4.065  17.417  0.3578  0.1392  0.0578
  563BOLB   C3A13495  23.567   3.812  17.395 -0.0861  0.0154  0.0791
  563BOLB   C4A13496  23.848   3.637  17.428  0.1780  0.0221  0.1204
  563BOLB   C1B13497  22.765   4.041  17.749 -0.0256  0.0814 -0.0858
  563BOLB   C2B13498  23.081   3.939  17.949  0.0758  0.0886  0.2328
  563BOLB   C3B13499  23.432   3.663  17.831  0.0845 -0.0569 -0.1604
  563BOLB   C4B13500  23.774   3.490  18.034 -0.0865  0.0840 -0.3281
  563BOLB   NC213501  25.214   2.454  18.125 -0.2137  0.1311 -0.0246
  563BOLB   PO213502  25.301   2.076  17.829 -0.2500 -0.3372 -0.1697
  563BOLB   GL313503  25.327   2.424  17.477 -0.2104 -0.0357 -0.3425
  563BOLB   GL413504  25.067   2.161  17.307 -0.0032 -0.0644 -0.0775
  563BOLB   C1C13505  25.188   2.838  17.625  0.0713  0.0833  0.0211
  563BOLB   C2C13506  25.014   3.236  17.607  0.2058  0.1795  0.2889
  563BOLB   C3C13507  24.668   3.468  17.509  0.4038 -0.2449  0.0065
  563BOLB   C4C13508  24.282   3.675  17.406 -0.0940  0.0747 -0.2109
  563BOLB   C1D13509  24.778   2.517  17.456  0.2699 -0.0319  0.1048
  563BOLB   C2D13510  24.287   2.553  17.425  0.3599 -0.1095  0.0316
  563BOLB   C3D13511  24.008   2.189  17.356  0.1558 -0.4207 -0.5184
  563BOLB   C4D13512  23.983   1.833  17.062 -0.1913 -0.0630 -0.1077
  564BOLB   NC113513  17.470  13.659  23.666 -0.2273  0.0023 -0.2118
  564BOLB   PO113514  17.175  13.340  23.515  0.2906  0.0127 -0.1069
  564BOLB   GL113515  16.985  13.511  23.962  0.2308  0.4920 -0.1236
  564BOLB   GL213516  17.045  13.802  24.054 -0.3960  0.2435  0.1801
  564BOLB   C1A13517  16.716  13.346  24.315 -0.3667  0.0215  0.1124
  564BOLB   C2A13518  16.839  13.180  24.653 -0.0185 -0.0145  0.1164
  564BOLB   C3A13519  16.894  12.838  25.041 -0.1294 -0.1065 -0.0525
  564BOLB   C4A13520  16.840  13.071  25.460  0.3928  0.1233 -0.1490
  564BOLB   C1B13521  17.030  13.957  24.514  0.3050  0.0290  0.3142
  564BOLB   C2B13522  16.934  13.656  24.851  0.4268 -0.1338 -0.1391
  564BOLB   C3B13523  17.025  13.371  25.110  0.1011 -0.1909  0.3731
  564BOLB   C4B13524  17.192  13.402  25.609 -0.0106 -0.1779  0.0018
  564BOLB   NC213525  16.157  14.108  27.823 -0.1882  0.1012 -0.1301
  564BOLB   PO213526  16.359  13.854  27.540  0.4948  0.4398  0.0287
  564BOLB   GL313527  16.445  13.964  27.112  0.2408  0.0581 -0.0207
  564BOLB   GL413528  16.454  14.256  26.955  0.0276 -0.0750  0.1021
  564BOLB   C1C13529  16.660  13.749  26.809 -0.3532 -0.0830  0.4157
  564BOLB   C2C13530  16.976  13.484  26.752  0.1057  0.0446 -0.1189
  564BOLB   C3C13531  16.952  13.102  26.427 -0.2576  0.1233  0.0335
  564BOLB   C4C13532  16.906  13.036  26.030 -0.3785 -0.0571 -0.0555
  564BOLB   C1D13533  16.242  14.641  26.804 -0.3798 -0.1400 -0.0588
  564BOLB   C2D13534  15.989  14.856  26.615 -0.2443 -0.3768  0.1061
  564BOLB   C3D13535  15.811  14.973  26.271 -0.0317 -0.1632 -0.2579
  564BOLB   C4D13536  15.768  14.915  25.827  0.0492 -0.0646  0.0758
  565BOLB   NC113537   8.396   8.910  16.581 -0.0166 -0.0159  0.0857
  565BOLB   PO113538   7.887   8.960  16.598  0.3182 -0.3005 -0.0638
  565BOLB   GL113539   7.491   8.911  16.650  0.3567 -0.2580 -0.3915
  565BOLB   GL213540   7.399   8.762  16.858 -0.0056 -0.2029 -0.3135
  565BOLB   C1A13541   6.932   8.930  16.750  0.0310 -0.3681 -0.3103
  565BOLB   C2A13542   6.615   8.731  16.961  0.2173  0.2521 -0.1537
  565BOLB   C3A13543   6.193   8.621  17.148 -0.0360  0.0029 -0.1735
  565BOLB   C4A13544   5.844   8.676  17.342 -0.0432  0.2350  0.2506
  565BOLB   C1B13545   7.277   8.341  16.552 -0.0174 -0.1047 -0.0887
  565BOLB   C2B13546   7.128   8.348  16.057 -0.0805  0.1460 -0.1016
  565BOLB   C3B13547   6.862   8.053  15.849  0.1853 -0.0412 -0.1718
  565BOLB   C4B13548   6.707   7.761  15.610  0.1812  0.1458 -0.0034
  565BOLB   NC213549   3.686   9.287  18.788  0.1419  0.1977 -0.0674
  565BOLB   PO213550   4.046   9.351  18.990  0.0598 -0.1751  0.1574
  565BOLB   GL313551   4.311   9.228  18.786 -0.1228  0.1101  0.0836
  565BOLB   GL413552   4.083   9.321  18.456  0.3220  0.2691 -0.2848
  565BOLB   C1C13553   4.705   9.349  18.691 -0.2064 -0.1034 -0.3343
  565BOLB   C2C13554   4.995   9.252  18.370  0.3594 -0.2113  0.2554
  565BOLB   C3C13555   5.223   8.990  18.061  0.3423 -0.0891 -0.2109
  565BOLB   C4C13556   5.530   8.676  17.733 -0.0455  0.1421  0.1070
  565BOLB   C1D13557   4.472   9.084  18.313  0.0663  0.1923  0.1956
  565BOLB   C2D13558   4.784   8.815  18.049 -0.0904  0.0582 -0.1503
  565BOLB   C3D13559   5.044   8.479  17.845  0.0047  0.0587 -0.2668
  565BOLB   C4D13560   5.152   8.358  17.470 -0.0922  0.0897 -0.1268
  566BOLB   NC113561  23.889  10.634  19.332 -0.0804 -0.0409  0.1225
  566BOLB   PO113562  23.747  10.312  19.428 -0.2232 -0.0722 -0.0680
  566BOLB   GL113563  24.153  10.259  19.518 -0.2014 -0.0108 -0.1379
  566BOLB   GL213564  24.134  10.372  19.831  0.1459  0.2165  0.0023
  566BOLB   C1A13565  24.521  10.066  19.863  0.0822  0.0887  0.2466
  566BOLB   C2A13566  24.576  10.268  20.251  0.0069  0.2720  0.4654
  566BOLB   C3A13567  24.940  10.312  20.478 -0.0581  0.0257  0.3408
  566BOLB   C4A13568  25.252  10.270  20.767 -0.1057 -0.0873 -0.2875
  566BOLB   C1B13569  24.677  10.583  19.841  0.0019  0.0749  0.4685
  566BOLB   C2B13570  24.878  10.774  20.202  0.0105  0.0236  0.0462
  566BOLB   C3B13571  25.206  10.732  20.414 -0.3645 -0.0767  0.0962
  566BOLB   C4B13572  25.497  10.386  20.324  0.2755  0.1317 -0.2419
  566BOLB   NC213573  27.591  10.630  21.319 -0.0459 -0.2321 -0.1171
  566BOLB   PO213574  27.505  10.256  21.112 -0.1092 -0.0661  0.1534
  566BOLB   GL313575  27.102  10.384  21.240 -0.1205  0.0234  0.0440
  566BOLB   GL413576  27.046  10.764  21.116  0.3043  0.2525 -0.1460
  566BOLB   C1C13577  26.713  10.247  21.245 -0.2781  0.1125  0.1016
  566BOLB   C2C13578  26.278  10.330  21.180 -0.0249  0.3704 -0.0701
  566BOLB   C3C13579  26.041  10.311  20.980  0.0693  0.1619 -0.1405
  566BOLB   C4C13580  25.627  10.282  20.849  0.1552  0.1819  0.1689
  566BOLB   C1D13581  26.654  10.742  21.091  0.1362 -0.2081  0.1053
  566BOLB   C2D13582  26.222  10.777  21.092  0.0323 -0.0218 -0.2276
  566BOLB   C3D13583  25.861  11.026  21.125 -0.2834 -0.1267  0.1380
  566BOLB   C4D13584  25.445  11.085  21.365 -0.0587  0.1454 -0.1419
  567BOLB   NC113585  17.052  11.031  23.705 -0.2107 -0.2768 -0.0941
  567BOLB   PO113586  16.762  11.355  23.601  0.0568  0.1597 -0.2438
  567BOLB   GL113587  17.035  11.425  24.016  0.4125  0.0203  0.0548
  567BOLB   GL213588  17.210  11.531  23.925 -0.1325  0.2653 -0.3247
  567BOLB   C1A13589  16.855  11.374  24.516 -0.1269  0.2375 -0.0458
  567BOLB   C2A13590  16.702  11.485  24.883 -0.4178  0.1806 -0.0623
  567BOLB   C3A13591  16.767  11.598  25.247 -0.2153  0.0333 -0.2151
  567BOLB   C4A13592  16.698  11.311  25.589  0.0275 -0.0558  0.0801
  567BOLB   C1B13593  17.034  11.814  24.315 -0.1151  0.0794  0.2101
  567BOLB   C2B13594  16.881  12.036  24.733  0.1604 -0.0589 -0.2125
  567BOLB   C3B13595  16.474  11.933  24.936  0.3113  0.0893  0.2300
  567BOLB   C4B13596  16.115  12.125  24.876 -0.3402  0.1301  0.1732
  567BOLB   NC213597  17.573  11.686  27.452 -0.2283 -0.0978 -0.4563
  567BOLB   PO213598  18.025  11.720  27.476 -0.0288 -0.1341 -0.1378
  567BOLB   GL313599  17.922  11.745  27.071  0.0649 -0.1979  0.2389
  567BOLB   GL413600  18.108  11.665  26.837 -0.0342 -0.1218  0.0602
  567BOLB   C1C13601  17.700  11.816  26.691 -0.0095  0.1990 -0.1776
  567BOLB   C2C13602  17.244  11.760  26.648 -0.5783  0.0157  0.2402
  567BOLB   C3C13603  16.956  11.557  26.417 -0.1638 -0.2017  0.0668
  567BOLB   C4C13604  16.880  11.446  25.957 -0.0307  0.1860 -0.0584
  567BOLB   C1D13605  18.099  11.528  26.398  0.0199 -0.0803  0.1755
  567BOLB   C2D13606  18.138  11.547  25.980 -0.0925 -0.3375  0.0049
  567BOLB   C3D13607  18.253  11.760  25.631 -0.2913 -0.1455 -0.0301
  567BOLB   C4D13608  18.169  12.151  25.407 -0.1359  0.0470  0.0307
  568BOLB   NC113609  11.962   3.126  18.631 -0.0914 -0.0220 -0.1437
  568BOLB   PO113610  12.296   3.414  18.831 -0.2203  0.0950 -0.4665
  568BOLB   GL113611  12.129   3.186  19.230  0.0328  0.0032  0.1364
  568BOLB   GL213612  11.959   2.899  19.047  0.0801 -0.3270 -0.2909
  568BOLB   C1A13613  12.227   2.865  19.516  0.1426  0.1415 -0.0731
  568BOLB   C2A13614  12.049   2.766  19.876 -0.0869 -0.1171  0.1299
  568BOLB   C3A13615  11.721   2.495  19.908 -0.4837  0.1215  0.3243
  568BOLB   C4A13616  11.556   2.066  19.888  0.1270  0.0912  0.2110
  568BOLB   C1B13617  11.741   2.770  19.373  0.1914  0.0058 -0.0810
  568BOLB   C2B13618  11.497   2.368  19.463 -0.0289 -0.0064 -0.2297
  568BOLB   C3B13619  11.289   2.014  19.465  0.0570  0.2998 -0.2411
  568BOLB   C4B13620  11.147   1.746  19.803 -0.2902 -0.2988 -0.1648
  568BOLB   NC213621  11.733  -0.074  21.054  0.0103  0.2574 -0.0995
  568BOLB   PO213622  11.414   0.038  21.298 -0.4290 -0.2837  0.0383
  568BOLB   GL313623  11.366   0.523  21.239  0.1887 -0.0375  0.0573
  568BOLB   GL413624  11.610   0.802  21.241  0.1028  0.1106  0.0270
  568BOLB   C1C13625  11.377   0.727  20.827 -0.1668 -0.1450 -0.0080
  568BOLB   C2C13626  11.282   1.013  20.373 -0.1374 -0.2659  0.3302
  568BOLB   C3C13627  11.246   1.408  20.274  0.1046 -0.3306 -0.0715
  568BOLB   C4C13628  11.453   1.749  20.256 -0.1733 -0.0715 -0.0716
  568BOLB   C1D13629  11.821   1.219  21.114 -0.2005  0.1811 -0.0964
  568BOLB   C2D13630  11.946   1.668  21.093 -0.1528  0.2163 -0.0835
  568BOLB   C3D13631  11.874   2.105  20.932  0.0004 -0.0248  0.2285
  568BOLB   C4D13632  11.911   2.492  20.689  0.2010  0.2900 -0.1391
  569BOLB   NC113633  20.279   9.385   9.665  0.1777 -0.1869  0.0409
  569BOLB   PO113634  20.344   9.471   9.333 -0.2694 -0.0754  0.1554
  569BOLB   GL113635  20.710   9.486   9.048  0.0606  0.0576  0.2227
  569BOLB   GL213636  21.093   9.608   8.991  0.0264  0.0301  0.1431
  569BOLB   C1A13637  20.691   9.615   8.712 -0.2000  0.1322  0.5482
  569BOLB   C2A13638  21.026   9.489   8.520 -0.2321 -0.3568 -0.0215
  569BOLB   C3A13639  21.184   9.489   8.189  0.0689  0.4150  0.0428
  569BOLB   C4A13640  21.369   9.163   7.995 -0.0597 -0.1116  0.3976
  569BOLB   C1B13641  21.420   9.662   8.872  0.1386 -0.1996  0.2068
  569BOLB   C2B13642  21.721   9.488   8.591  0.1009 -0.0640 -0.2228
  569BOLB   C3B13643  21.811   9.239   8.283  0.1637  0.3264 -0.0160
  569BOLB   C4B13644  21.980   9.049   7.903  0.0121  0.0156  0.1704
  569BOLB   NC213645  22.713   8.532   6.187 -0.3406 -0.2368  0.1871
  569BOLB   PO213646  22.407   8.190   6.227  0.1458 -0.0468 -0.2065
  569BOLB   GL313647  22.119   8.370   6.525  0.0121  0.0748 -0.1831
  569BOLB   GL413648  21.922   8.139   6.658  0.0980  0.3146  0.1490
  569BOLB   C1C13649  21.833   8.562   6.844 -0.1429 -0.0802  0.1827
  569BOLB   C2C13650  21.651   8.470   7.184  0.1997 -0.0473  0.0056
  569BOLB   C3C13651  21.469   8.441   7.512 -0.0993 -0.3658  0.0760
  569BOLB   C4C13652  21.408   8.841   7.728 -0.1744  0.1207 -0.0830
  569BOLB   C1D13653  21.565   8.049   6.919  0.1906 -0.0650 -0.2178
  569BOLB   C2D13654  21.202   8.155   7.230  0.0302  0.1400 -0.0990
  569BOLB   C3D13655  20.988   8.430   7.574  0.0394 -0.0513  0.1043
  569BOLB   C4D13656  20.814   8.664   7.851 -0.0998  0.2501  0.2391
  570BOLB   NC113657  11.723  16.792  18.495 -0.2091 -0.3358 -0.0979
  570BOLB   PO113658  11.330  16.998  18.362 -0.1236 -0.2952  0.0631
  570BOLB   GL113659  11.145  17.355  18.504  0.1397 -0.1127 -0.1646
  570BOLB   GL213660  11.037  17.295  18.790  0.1298 -0.1205 -0.0056
  570BOLB   C1A13661  10.864  17.722  18.435 -0.1248 -0.1059  0.1439
  570BOLB   C2A13662  10.705  18.129  18.572  0.3050  0.0593 -0.0412
  570BOLB   C3A13663  10.501  18.504  18.598 -0.2689 -0.0708  0.0682
  570BOLB   C4A13664  10.233  18.787  18.666 -0.1047  0.0092  0.0157
  570BOLB   C1B13665  10.806  17.533  19.075 -0.1191  0.0538 -0.2235
  570BOLB   C2B13666  10.434  17.623  19.194 -0.0183  0.2101 -0.0968
  570BOLB   C3B13667  10.286  17.483  19.677 -0.2382  0.1743  0.2221
  570BOLB   C4B13668  10.389  17.205  19.982  0.0683  0.2426 -0.3530
  570BOLB   NC213669  11.384  21.081  19.312 -0.3147  0.2125 -0.0943
  570BOLB   PO213670  10.869  21.092  19.242  0.1007 -0.1236 -0.0732
  570BOLB   GL313671  10.905  20.626  19.230 -0.1643 -0.1999  0.0165
  570BOLB   GL413672  11.048  20.664  19.559  0.2310  0.2775  0.0760
  570BOLB   C1C13673  10.932  20.181  19.176 -0.0817 -0.3540 -0.2632
  570BOLB   C2C13674  10.758  19.689  19.153  0.1607 -0.1394  0.5084
  570BOLB   C3C13675  10.351  19.571  18.933  0.1229 -0.1273  0.3545
  570BOLB   C4C13676  10.307  19.154  18.742  0.0332  0.1650  0.0227
  570BOLB   C1D13677  11.408  20.439  19.690 -0.2794 -0.2259  0.0050
  570BOLB   C2D13678  11.611  20.140  19.572  0.0618  0.0026  0.2705
  570BOLB   C3D13679  11.965  19.835  19.593  0.0234  0.1636 -0.1716
  570BOLB   C4D13680  12.331  19.714  19.685 -0.4718 -0.1852 -0.0666
  571BOLB   NC113681  23.311  10.130  12.358 -0.2449  0.0743  0.0891
  571BOLB   PO113682  23.423   9.788  12.018  0.0111 -0.0812  0.1863
  571BOLB   GL113683  23.631   9.765  11.697  0.2825  0.2436  0.2837
  571BOLB   GL213684  23.341   9.904  11.420  0.1140 -0.3835  0.0176
  571BOLB   C1A13685  23.930   9.569  11.399 -0.0483 -0.2723  0.2519
  571BOLB   C2A13686  24.102   9.284  11.125  0.1346  0.0252  0.0371
  571BOLB   C3A13687  24.216   9.069  10.759 -0.3103 -0.0630 -0.1157
  571BOLB   C4A13688  24.358   9.066  10.244 -0.2599 -0.0753 -0.2469
  571BOLB   C1B13689  23.624   9.814  11.074 -0.3351  0.1373  0.0732
  571BOLB   C2B13690  24.040   9.946  10.976 -0.2042  0.1196 -0.2165
  571BOLB   C3B13691  24.505   9.914  10.882 -0.2873 -0.0185 -0.0281
  571BOLB   C4B13692  24.843   9.739  10.586  0.0517  0.0541 -0.2461
  571BOLB   NC213693  26.225   8.683   8.678  0.0356  0.0834 -0.2155
  571BOLB   PO213694  25.839   8.986   8.513  0.1616 -0.1086 -0.0721
  571BOLB   GL313695  25.740   9.160   8.897 -0.0539  0.2581 -0.2017
  571BOLB   GL413696  25.430   8.838   8.920 -0.0872 -0.4343  0.2949
  571BOLB   C1C13697  25.716   9.006   9.345  0.0482  0.1588  0.0787
  571BOLB   C2C13698  25.414   9.020   9.667  0.3816 -0.2281  0.1510
  571BOLB   C3C13699  25.089   9.087   9.949  0.0448 -0.0900 -0.1567
  571BOLB   C4C13700  24.648   9.115   9.911 -0.0509 -0.2090 -0.2101
  571BOLB   C1D13701  25.193   8.790   9.277 -0.2182 -0.1479 -0.3163
  571BOLB   C2D13702  24.775   8.739   9.542  0.1030 -0.1178 -0.1549
  571BOLB   C3D13703  24.389   8.630   9.531 -0.1201 -0.1637 -0.1224
  571BOLB   C4D13704  24.271   8.218   9.313 -0.2070  0.3051  0.2408
  572BOLB   NC113705  15.716  17.197  13.036  0.1813  0.1792  0.0834
  572BOLB   PO113706  15.521  17.594  13.245 -0.0218  0.0528 -0.2397
  572BOLB   GL113707  15.304  18.000  12.993 -0.1833 -0.4219 -0.0641
  572BOLB   GL213708  15.166  18.285  13.201 -0.3537  0.2284  0.1945
  572BOLB   C1A13709  15.319  18.282  12.707  0.0379 -0.2589 -0.0664
  572BOLB   C2A13710  15.188  18.734  12.580  0.1232 -0.0188 -0.0273
  572BOLB   C3A13711  15.143  19.262  12.456 -0.1550 -0.0387  0.3907
  572BOLB   C4A13712  14.988  19.726  12.562  0.0790  0.3492  0.1967
  572BOLB   C1B13713  15.180  18.722  13.080 -0.0366 -0.4012 -0.3237
  572BOLB   C2B13714  15.384  19.078  12.874 -0.2458  0.2181  0.0144
  572BOLB   C3B13715  15.465  19.518  12.765 -0.1675  0.1130 -0.1352
  572BOLB   C4B13716  15.464  19.880  12.630  0.0743 -0.2627  0.0501
  572BOLB   NC213717  15.469  21.619  11.566  0.0360  0.1157  0.2035
  572BOLB   PO213718  15.143  21.427  11.412  0.4076  0.0392 -0.1585
  572BOLB   GL313719  15.260  21.033  11.663 -0.1950  0.0960  0.0790
  572BOLB   GL413720  15.529  21.210  11.737  0.2173  0.1738 -0.3054
  572BOLB   C1C13721  15.296  20.707  11.847 -0.0597 -0.1851 -0.1250
  572BOLB   C2C13722  15.341  20.531  12.199 -0.0311 -0.0030  0.0263
  572BOLB   C3C13723  15.289  20.481  12.570  0.3992 -0.1705 -0.0487
  572BOLB   C4C13724  14.960  20.101  12.709 -0.1058 -0.1357  0.2699
  572BOLB   C1D13725  15.802  20.927  11.752  0.1800 -0.0674  0.0097
  572BOLB   C2D13726  15.955  20.509  11.913  0.2239 -0.0583 -0.0233
  572BOLB   C3D13727  15.885  20.212  11.614  0.0101  0.1051  0.0602
  572BOLB   C4D13728  15.757  20.442  11.219  0.1665 -0.2165  0.1145
  573BOLB   NC113729  17.629  18.337  19.027 -0.0186 -0.1354  0.3154
  573BOLB   PO113730  17.270  18.512  18.871 -0.0383  0.1229  0.2204
  573BOLB   GL113731  17.403  18.877  18.771 -0.1126 -0.0285 -0.1463
  573BOLB   GL213732  17.078  18.909  18.606 -0.1544 -0.1718 -0.3674
  573BOLB   C1A13733  17.532  19.197  18.645 -0.0621  0.0087  0.2766
  573BOLB   C2A13734  17.640  19.584  18.552  0.1301 -0.1777  0.2172
  573BOLB   C3A13735  17.940  19.848  18.747 -0.2395  0.0986  0.2494
  573BOLB   C4A13736  18.111  20.251  18.904 -0.1326 -0.5378  0.0615
  573BOLB   C1B13737  16.940  19.384  18.583 -0.2982  0.0679  0.1643
  573BOLB   C2B13738  17.180  19.726  18.542  0.1572 -0.0803  0.0584
  573BOLB   C3B13739  17.296  20.109  18.464  0.3312 -0.0632  0.2780
  573BOLB   C4B13740  17.187  20.338  18.488 -0.0989 -0.0217 -0.1304
  573BOLB   NC213741  16.912  22.646  18.570 -0.0230  0.4001  0.0844
  573BOLB   PO213742  17.162  22.428  18.916  0.0973  0.0158  0.2434
  573BOLB   GL313743  17.277  22.000  19.005  0.1294 -0.2982  0.0120
  573BOLB   GL413744  17.091  21.909  19.236 -0.0821 -0.3200  0.1152
  573BOLB   C1C13745  17.532  21.747  18.872  0.0970 -0.1246 -0.2064
  573BOLB   C2C13746  17.865  21.496  18.878 -0.4421 -0.1169  0.2305
  573BOLB   C3C13747  17.981  21.093  18.778 -0.2531  0.3043 -0.0894
  573BOLB   C4C13748  18.017  20.650  18.860  0.0469  0.1308 -0.3962
  573BOLB   C1D13749  17.136  21.446  19.024  0.1623  0.4202 -0.0243
  573BOLB   C2D13750  17.415  21.171  18.898 -0.1160  0.4946 -0.0608
  573BOLB   C3D13751  17.484  20.774  18.706  0.2280 -0.2060 -0.0905
  573BOLB   C4D13752  17.649  20.269  18.789 -0.0489  0.1949  0.1783
  574BOLB   NC113753  10.637  16.136  13.892  0.1875  0.1026 -0.3646
  574BOLB   PO113754  10.908  16.517  13.853  0.1919  0.3001 -0.2448
  574BOLB   GL113755  10.457  16.571  13.873  0.2435 -0.1716 -0.2247
  574BOLB   GL213756  10.381  16.779  13.651  0.1271  0.2714  0.0917
  574BOLB   C1A13757  10.152  16.684  14.151 -0.1120 -0.0209  0.0003
  574BOLB   C2A13758   9.924  16.909  13.976  0.5922 -0.0950 -0.1130
  574BOLB   C3A13759   9.754  17.168  13.752  0.2261 -0.0248 -0.1104
  574BOLB   C4A13760   9.438  17.443  13.634 -0.0716  0.0055 -0.1879
  574BOLB   C1B13761  10.102  17.092  13.438  0.1727 -0.0041  0.2703
  574BOLB   C2B13762   9.782  17.330  13.307 -0.2073  0.0478 -0.1170
  574BOLB   C3B13763   9.401  17.542  13.076 -0.0083  0.1297 -0.0583
  574BOLB   C4B13764   9.280  17.678  12.558  0.0015  0.4295  0.1698
  574BOLB   NC213765   7.270  17.834  12.686 -0.0011  0.1333  0.0116
  574BOLB   PO213766   7.465  17.805  12.286  0.2788  0.2319 -0.1453
  574BOLB   GL313767   7.739  17.773  12.456 -0.1433  0.0946 -0.4884
  574BOLB   GL413768   8.023  17.794  12.268 -0.0127  0.2199 -0.0727
  574BOLB   C1C13769   8.019  17.718  12.832  0.1750 -0.1203  0.0186
  574BOLB   C2C13770   8.292  17.822  13.109  0.3224  0.0058  0.0063
  574BOLB   C3C13771   8.548  17.684  13.348 -0.0597  0.1255 -0.1427
  574BOLB   C4C13772   8.921  17.553  13.514  0.0164 -0.1619 -0.2253
  574BOLB   C1D13773   7.910  17.324  12.298  0.0860  0.1190 -0.2666
  574BOLB   C2D13774   7.967  16.951  12.128 -0.0689  0.1828  0.1011
  574BOLB   C3D13775   8.074  16.484  12.293  0.0014  0.1937 -0.2590
  574BOLB   C4D13776   8.019  16.151  12.558 -0.2670  0.0089  0.0479
  575BOLB   NC113777  19.328  10.090   9.054  0.3072 -0.1127  0.1897
  575BOLB   PO113778  19.080  10.086   8.575 -0.0299 -0.0748  0.1289
  575BOLB   GL113779  18.924   9.936   8.182  0.0550 -0.0447  0.0895
  575BOLB   GL213780  19.138   9.705   8.015 -0.1868 -0.0600 -0.1093
  575BOLB   C1A13781  19.072  10.186   7.895 -0.1252  0.0199 -0.0659
  575BOLB   C2A13782  19.269  10.490   7.758 -0.4027 -0.0246  0.0408
  575BOLB   C3A13783  19.186  10.617   7.353  0.4177 -0.3437 -0.1247
  575BOLB   C4A13784  18.947  10.799   6.933  0.3108  0.0024 -0.2064
  575BOLB   C1B13785  18.981   9.774   7.603 -0.4756  0.0991 -0.3143
  575BOLB   C2B13786  19.232   9.512   7.246  0.2721 -0.1392 -0.2952
  575BOLB   C3B13787  19.333   9.503   6.806  0.0433 -0.1511  0.0412
  575BOLB   C4B13788  19.346   9.465   6.484  0.0488 -0.0497  0.0935
  575BOLB   NC213789  19.323  10.067   4.334  0.1317  0.2097  0.0659
  575BOLB   PO213790  19.504  10.364   4.545  0.2024  0.1485 -0.1375
  575BOLB   GL313791  19.484  10.313   4.944  0.1621 -0.3810 -0.1934
  575BOLB   GL413792  19.149  10.268   5.167  0.0751  0.0408 -0.1431
  575BOLB   C1C13793  19.515  10.232   5.441 -0.1346  0.0728 -0.2749
  575BOLB   C2C13794  19.423  10.421   5.817  0.0459 -0.1103 -0.0445
  575BOLB   C3C13795  19.351  10.445   6.172 -0.0907  0.1738 -0.0853
  575BOLB   C4C13796  19.022  10.572   6.533  0.1435  0.0395  0.0889
  575BOLB   C1D13797  19.013  10.152   5.628 -0.0614 -0.2114  0.2209
  575BOLB   C2D13798  18.884  10.430   5.929  0.1642  0.0584 -0.1396
  575BOLB   C3D13799  18.602  10.544   6.276  0.3222 -0.0175 -0.2125
  575BOLB   C4D13800  18.602  10.827   6.560  0.2695 -0.1852 -0.0295
  576BOLB   NC113801  18.956   7.140   9.160  0.0722  0.1840  0.2687
  576BOLB   PO113802  19.035   7.679   9.181  0.0473 -0.1282 -0.0188
  576BOLB   GL113803  19.041   7.455   8.806 -0.0588 -0.1008  0.1125
  576BOLB   GL213804  18.802   7.532   8.523 -0.1561  0.4770  0.1283
  576BOLB   C1A13805  19.417   7.465   8.472 -0.0950  0.0190  0.0951
  576BOLB   C2A13806  19.691   7.444   8.156 -0.1306  0.0050  0.2402
  576BOLB   C3A13807  19.976   7.500   7.828  0.1170  0.2955 -0.3160
  576BOLB   C4A13808  20.155   7.834   7.527  0.0991  0.1954 -0.2886
  576BOLB   C1B13809  19.042   7.808   8.203 -0.0881  0.0039 -0.1500
  576BOLB   C2B13810  19.460   7.953   8.158  0.1248  0.0130  0.1434
  576BOLB   C3B13811  19.658   7.951   7.794 -0.1277  0.3524  0.2979
  576BOLB   C4B13812  19.648   7.649   7.476 -0.1027 -0.3711  0.0493
  576BOLB   NC213813  21.578   7.641   5.950 -0.1876  0.2494  0.1395
  576BOLB   PO213814  21.974   7.725   6.119  0.0421  0.0971 -0.2718
  576BOLB   GL313815  21.600   7.982   6.310  0.0698 -0.2638 -0.0978
  576BOLB   GL413816  21.307   8.083   6.349  0.0806  0.3923 -0.2005
  576BOLB   C1C13817  21.379   7.638   6.627 -0.0012 -0.1559 -0.3222
  576BOLB   C2C13818  21.135   7.783   6.872 -0.3986  0.0786  0.2519
  576BOLB   C3C13819  20.817   7.667   7.096  0.3777  0.2632  0.3878
  576BOLB   C4C13820  20.471   7.700   7.205  0.2172 -0.1599  0.2308
  576BOLB   C1D13821  20.967   7.847   6.405 -0.2217 -0.2011  0.2253
  576BOLB   C2D13822  20.511   7.849   6.679 -0.1207 -0.3644 -0.0264
  576BOLB   C3D13823  20.057   7.698   6.540  0.2299  0.2088  0.2338
  576BOLB   C4D13824  19.615   7.745   6.328 -0.3930  0.1214 -0.0354
  577BOLB   NC113825   9.838  15.085  18.337  0.0033 -0.1746  0.0867
  577BOLB   PO113826  10.056  15.015  18.822  0.0286 -0.0672  0.1398
  577BOLB   GL113827  10.048  15.216  19.141  0.3959 -0.1479  0.0512
  577BOLB   GL213828  10.273  15.220  19.388 -0.1243  0.0955 -0.1536
  577BOLB   C1A13829   9.785  15.469  19.295 -0.0164  0.0001  0.0991
  577BOLB   C2A13830   9.662  15.797  19.583  0.0299 -0.1987  0.2885
  577BOLB   C3A13831   9.479  16.131  19.667  0.3100  0.0138 -0.0389
  577BOLB   C4A13832   9.417  16.425  20.030 -0.1944  0.3169  0.0920
  577BOLB   C1B13833   9.979  15.276  19.689  0.2098  0.1010  0.0004
  577BOLB   C2B13834   9.772  15.481  19.890 -0.1937 -0.2127 -0.0910
  577BOLB   C3B13835   9.477  15.491  20.183  0.2800 -0.2164  0.0273
  577BOLB   C4B13836   9.102  15.498  20.296 -0.0860 -0.1316 -0.0459
  577BOLB   NC213837   8.343  17.390  22.093 -0.0726 -0.3046 -0.0659
  577BOLB   PO213838   8.102  17.199  21.921 -0.0863 -0.0271  0.3770
  577BOLB   GL313839   8.379  17.175  21.568  0.3023 -0.1290 -0.0577
  577BOLB   GL413840   8.605  17.284  21.693 -0.1748 -0.3181  0.0395
  577BOLB   C1C13841   8.505  16.846  21.340  0.0325  0.0215  0.0266
  577BOLB   C2C13842   8.671  16.755  20.906  0.0595  0.2072  0.0539
  577BOLB   C3C13843   8.783  16.587  20.664 -0.1594 -0.0314 -0.2467
  577BOLB   C4C13844   9.120  16.599  20.291  0.1155 -0.2812  0.1963
  577BOLB   C1D13845   9.070  17.395  21.553 -0.2782  0.1492  0.3941
  577BOLB   C2D13846   9.542  17.149  21.479  0.0117 -0.1561  0.0157
  577BOLB   C3D13847   9.833  16.805  21.313 -0.2019  0.1880  0.0752
  577BOLB   C4D13848   9.824  16.273  21.451 -0.0533 -0.1352  0.2671
  578BOLB   NC113849  20.206   4.675  10.536  0.0128  0.0260  0.1462
  578BOLB   PO113850  20.223   4.243  10.614 -0.1078  0.4349 -0.2042
  578BOLB   GL113851  20.275   3.789  10.406  0.0019 -0.0336  0.1146
  578BOLB   GL213852  20.498   3.699  10.618  0.1029 -0.1020 -0.3602
  578BOLB   C1A13853  20.432   3.452  10.058  0.0818 -0.2068  0.0396
  578BOLB   C2A13854  20.430   3.099   9.747  0.0070 -0.3740  0.1420
  578BOLB   C3A13855  20.357   2.985   9.288  0.1860  0.1964 -0.1380
  578BOLB   C4A13856  20.567   2.913   8.969 -0.1294  0.0819 -0.1375
  578BOLB   C1B13857  20.845   3.390  10.583 -0.0965  0.0246  0.0598
  578BOLB   C2B13858  21.207   3.097  10.586  0.2163  0.4279 -0.1186
  578BOLB   C3B13859  21.569   2.960  10.843 -0.1691  0.1194 -0.0715
  578BOLB   C4B13860  21.808   3.198  11.227  0.0979 -0.0902  0.3233
  578BOLB   NC213861  22.457   2.748   7.215 -0.0894  0.1626 -0.0286
  578BOLB   PO213862  22.014   2.908   7.300  0.3596  0.2858 -0.1789
  578BOLB   GL313863  21.874   3.084   7.709  0.2511 -0.1436  0.2428
  578BOLB   GL413864  22.010   3.316   7.631 -0.0004 -0.1771  0.0816
  578BOLB   C1C13865  21.565   3.061   8.036 -0.0745  0.0197 -0.0187
  578BOLB   C2C13866  21.262   3.401   8.131 -0.2310 -0.1798 -0.0559
  578BOLB   C3C13867  20.820   3.319   8.204 -0.1445 -0.2543 -0.0759
  578BOLB   C4C13868  20.659   3.027   8.504  0.2687 -0.3613 -0.1435
  578BOLB   C1D13869  21.814   3.640   7.897 -0.3692  0.2181 -0.3366
  578BOLB   C2D13870  21.998   4.065   7.991 -0.1767 -0.3519  0.2531
  578BOLB   C3D13871  21.864   4.416   7.715  0.1175 -0.4203  0.0726
  578BOLB   C4D13872  21.914   4.882   7.599 -0.1461 -0.1926  0.0686
  579BOLB   NC113873  19.184   8.248  22.458 -0.0321  0.0185  0.1787
  579BOLB   PO113874  19.498   8.570  22.780  0.4006 -0.3594 -0.0771
  579BOLB   GL113875  19.712   8.273  23.114  0.1409  0.1889  0.1355
  579BOLB   GL213876  19.618   7.998  23.233  0.0668  0.0930  0.0421
  579BOLB   C1A13877  20.117   8.230  23.394  0.1941  0.4076 -0.1155
  579BOLB   C2A13878  20.288   7.986  23.672 -0.4324  0.0707 -0.2137
  579BOLB   C3A13879  20.580   7.822  23.910  0.1251  0.1152 -0.1624
  579BOLB   C4A13880  20.983   7.700  24.152  0.1223  0.1122  0.2127
  579BOLB   C1B13881  19.913   7.771  23.451  0.3413  0.3059 -0.0735
  579BOLB   C2B13882  20.151   7.502  23.749  0.2286 -0.4199  0.0201
  579BOLB   C3B13883  20.462   7.345  23.976 -0.0275  0.1700  0.0699
  579BOLB   C4B13884  20.867   7.433  23.751  0.1131  0.0922 -0.2537
  579BOLB   NC213885  22.977   7.505  25.871  0.3497 -0.2856  0.2934
  579BOLB   PO213886  22.865   7.068  25.632  0.2417 -0.1282 -0.2388
  579BOLB   GL313887  22.534   7.298  25.316 -0.2222  0.1796  0.1697
  579BOLB   GL413888  22.669   7.401  24.979  0.0530  0.0616 -0.0875
  579BOLB   C1C13889  22.154   7.503  25.161 -0.0307 -0.0517 -0.0652
  579BOLB   C2C13890  21.858   7.401  24.929  0.0158  0.0449  0.1771
  579BOLB   C3C13891  21.503   7.525  24.833  0.2024  0.2785  0.0224
  579BOLB   C4C13892  21.209   7.627  24.533 -0.0402  0.1042 -0.2789
  579BOLB   C1D13893  22.321   7.623  24.689 -0.2404 -0.1662  0.1997
  579BOLB   C2D13894  22.006   7.493  24.390  0.1512 -0.0345  0.0882
  579BOLB   C3D13895  21.875   7.157  24.139  0.0115 -0.1778 -0.0326
  579BOLB   C4D13896  21.688   7.210  23.777 -0.0685 -0.3567  0.0593
  580BOLB   NC113897   9.998  14.414  12.559  0.1147 -0.0195 -0.1355
  580BOLB   PO113898  10.118  14.950  12.447  0.2158  0.0947 -0.2040
  580BOLB   GL113899   9.757  14.964  12.265 -0.3424  0.2419 -0.0593
  580BOLB   GL213900   9.557  14.718  12.347 -0.2337 -0.2510 -0.1477
  580BOLB   C1A13901   9.523  15.232  11.947  0.0223 -0.0491 -0.1451
  580BOLB   C2A13902   9.553  15.370  11.489 -0.0755  0.3396 -0.1340
  580BOLB   C3A13903   9.591  15.847  11.436 -0.0288  0.2929 -0.1065
  580BOLB   C4A13904   9.237  16.274  11.541 -0.2078  0.1361 -0.0730
  580BOLB   C1B13905   9.279  15.114  12.423  0.3121 -0.0489 -0.1734
  580BOLB   C2B13906   9.013  15.484  12.497 -0.0914 -0.2897 -0.1106
  580BOLB   C3B13907   9.087  15.907  12.673 -0.0166 -0.1014 -0.0101
  580BOLB   C4B13908   9.347  16.247  12.603  0.0122 -0.0641  0.1967
  580BOLB   NC213909   7.032  17.596  11.887  0.1029  0.2337 -0.1264
  580BOLB   PO213910   7.367  17.873  11.649  0.1729  0.4235 -0.3011
  580BOLB   GL313911   7.721  17.672  11.836  0.0728 -0.1070  0.3144
  580BOLB   GL413912   7.568  17.416  12.004  0.1264 -0.0907  0.2691
  580BOLB   C1C13913   8.113  17.520  11.883  0.0912 -0.4062 -0.1399
  580BOLB   C2C13914   8.465  17.368  11.835  0.0891  0.1574  0.0875
  580BOLB   C3C13915   8.771  17.029  11.835  0.4972  0.3129 -0.1572
  580BOLB   C4C13916   9.204  16.736  11.647 -0.1569  0.2167 -0.1244
  580BOLB   C1D13917   7.513  17.022  12.229  0.2436  0.1588 -0.1472
  580BOLB   C2D13918   7.547  16.563  12.234 -0.3439  0.1779 -0.0226
  580BOLB   C3D13919   7.763  16.175  12.022  0.2978 -0.1553 -0.1317
  580BOLB   C4D13920   7.899  15.939  11.710 -0.0434  0.0228 -0.0492
  581BOLB   NC113921  18.018  14.781  22.494  0.0938  0.1945  0.1022
  581BOLB   PO113922  17.664  15.092  22.578 -0.4084 -0.0253  0.0033
  581BOLB   GL113923  17.764  15.499  22.836 -0.1615 -0.1496  0.2906
  581BOLB   GL213924  17.612  15.584  22.995 -0.0023  0.1964 -0.1263
  581BOLB   C1A13925  17.935  15.925  23.026 -0.0724 -0.1275 -0.0510
  581BOLB   C2A13926  18.322  16.034  23.343 -0.3345 -0.1844 -0.0074
  581BOLB   C3A13927  18.665  16.145  23.420  0.2136  0.1517  0.2357
  581BOLB   C4A13928  18.849  16.513  23.612 -0.1132  0.1309 -0.0482
  581BOLB   C1B13929  17.493  15.634  23.418  0.1504  0.1082 -0.2326
  581BOLB   C2B13930  17.333  15.555  23.881  0.0668 -0.2938  0.1601
  581BOLB   C3B13931  17.276  15.304  24.224 -0.2707 -0.0012 -0.1704
  581BOLB   C4B13932  17.310  15.573  24.593  0.0477 -0.0632  0.3478
  581BOLB   NC213933  20.432  18.372  24.479  0.3021  0.1339  0.0144
  581BOLB   PO213934  20.014  18.386  24.610 -0.1618  0.0472  0.0095
  581BOLB   GL313935  19.971  17.976  24.302 -0.2766 -0.0917 -0.2088
  581BOLB   GL413936  20.334  17.938  24.294  0.2921  0.1151  0.0593
  581BOLB   C1C13937  19.670  17.811  24.028  0.0630  0.0644  0.2277
  581BOLB   C2C13938  19.383  17.519  24.099 -0.1081  0.1749 -0.0495
  581BOLB   C3C13939  19.238  17.114  23.920 -0.0992 -0.3039  0.1418
  581BOLB   C4C13940  18.942  16.920  23.851 -0.3055  0.1052  0.3390
  581BOLB   C1D13941  20.199  17.639  23.972  0.0629  0.1138 -0.0794
  581BOLB   C2D13942  19.812  17.315  23.901  0.3194  0.3697 -0.0076
  581BOLB   C3D13943  19.619  17.109  23.619  0.0226  0.1239  0.1290
  581BOLB   C4D13944  19.429  17.216  23.247 -0.4396  0.0458 -0.2320
  582BOLB   NC113945  11.287  15.905  12.459  0.0350 -0.2073  0.2089
  582BOLB   PO113946  10.984  15.804  12.261 -0.0431 -0.1447 -0.3776
  582BOLB   GL113947  10.718  16.134  12.420  0.0260  0.0937 -0.0244
  582BOLB   GL213948  10.313  16.008  12.322 -0.0255  0.1513 -0.0474
  582BOLB   C1A13949  10.467  16.470  12.488 -0.0212 -0.2198 -0.1178
  582BOLB   C2A13950  10.144  16.720  12.339 -0.4563 -0.0233 -0.0488
  582BOLB   C3A13951  10.218  16.958  12.072 -0.0215  0.4563 -0.4892
  582BOLB   C4A13952   9.894  17.289  11.907 -0.2870 -0.1247 -0.1177
  582BOLB   C1B13953  10.487  16.247  11.983  0.0822 -0.0196  0.1698
  582BOLB   C2B13954  10.557  16.622  11.842 -0.3364 -0.0523  0.1001
  582BOLB   C3B13955  10.366  16.944  11.518 -0.1111 -0.0637 -0.1391
  582BOLB   C4B13956   9.907  17.209  11.290 -0.1279  0.2493 -0.2059
  582BOLB   NC213957   7.601  18.833  11.787  0.1294  0.0627  0.0688
  582BOLB   PO213958   8.022  18.576  11.780 -0.1017 -0.2014  0.0518
  582BOLB   GL313959   8.232  18.263  11.950 -0.3298  0.4515  0.0787
  582BOLB   GL413960   8.231  18.012  11.918 -0.2103 -0.0676  0.0486
  582BOLB   C1C13961   8.643  18.414  12.223 -0.0544 -0.0010  0.0232
  582BOLB   C2C13962   9.114  18.346  12.193 -0.2501  0.0065  0.0252
  582BOLB   C3C13963   9.363  17.938  12.120  0.1157 -0.0671 -0.0265
  582BOLB   C4C13964   9.587  17.616  11.933  0.1013 -0.1246 -0.1635
  582BOLB   C1D13965   8.525  17.772  12.180  0.0924  0.1108  0.3058
  582BOLB   C2D13966   8.390  17.405  12.320  0.1012  0.1180  0.3010
  582BOLB   C3D13967   8.293  16.982  12.448 -0.2998  0.0849 -0.0473
  582BOLB   C4D13968   7.888  16.799  12.678  0.2087 -0.0913 -0.3891
  583BOLB   NC113969   9.111   7.745  18.852  0.0495 -0.0704 -0.1238
  583BOLB   PO113970   8.702   7.543  18.723 -0.0882 -0.2316 -0.0835
  583BOLB   GL113971   8.376   7.406  18.963 -0.0359 -0.6088  0.0978
  583BOLB   GL213972   8.049   7.250  18.875 -0.0277  0.1449 -0.1307
  583BOLB   C1A13973   8.392   7.446  19.425  0.0963  0.1294  0.1096
  583BOLB   C2A13974   8.022   7.383  19.722 -0.3512 -0.1885  0.0389
  583BOLB   C3A13975   7.696   7.421  20.167  0.0458 -0.0122  0.2797
  583BOLB   C4A13976   7.455   7.466  20.547 -0.1013 -0.0565  0.2266
  583BOLB   C1B13977   7.749   6.988  19.094 -0.1346 -0.1545  0.1087
  583BOLB   C2B13978   7.653   7.017  19.373 -0.4048  0.1104 -0.1338
  583BOLB   C3B13979   7.347   6.855  19.516  0.4213 -0.2607  0.2513
  583BOLB   C4B13980   7.305   6.414  19.709 -0.4032  0.0362 -0.6053
  583BOLB   NC213981   5.080   7.353  21.950  0.1795  0.0845  0.1506
  583BOLB   PO213982   5.232   7.071  21.634 -0.0672  0.1822 -0.3892
  583BOLB   GL313983   5.557   7.211  21.368  0.1234 -0.0619 -0.2255
  583BOLB   GL413984   5.436   7.478  21.112  0.1005  0.0791 -0.0652
  583BOLB   C1C13985   6.016   7.365  21.404 -0.4900  0.1934  0.2463
  583BOLB   C2C13986   6.328   7.329  21.071  0.3083 -0.3391 -0.1686
  583BOLB   C3C13987   6.619   7.474  20.804  0.3700 -0.0774 -0.1334
  583BOLB   C4C13988   7.011   7.411  20.713 -0.2902 -0.3010  0.0043
  583BOLB   C1D13989   5.837   7.471  20.969 -0.5429  0.1145 -0.2112
  583BOLB   C2D13990   6.067   7.155  20.671 -0.0672 -0.0359 -0.0495
  583BOLB   C3D13991   6.434   6.997  20.696  0.1579  0.0367 -0.2533
  583BOLB   C4D13992   6.872   6.978  20.473 -0.1449  0.1028 -0.0404
  584BOLB   NC113993  22.079   9.132  11.006 -0.0594 -0.0509 -0.3537
  584BOLB   PO113994  22.103   8.679  11.077  0.1408 -0.1681  0.0739
  584BOLB   GL113995  22.527   8.546  10.895 -0.0653  0.0414  0.2380
  584BOLB   GL213996  22.644   8.127  11.047  0.0020 -0.0971 -0.1831
  584BOLB   C1A13997  22.863   8.689  10.632 -0.4703  0.3410  0.0252
  584BOLB   C2A13998  23.143   8.674  10.276 -0.1840 -0.0253 -0.0063
  584BOLB   C3A13999  23.571   8.516  10.144 -0.1221 -0.0951 -0.0077
  584BOLB   C4A14000  23.854   8.281   9.819  0.0894  0.2477 -0.0750
  584BOLB   C1B14001  23.010   8.165  10.757 -0.1139 -0.4827  0.0297
  584BOLB   C2B14002  23.403   8.159  10.465  0.0127  0.2433  0.1518
  584BOLB   C3B14003  23.657   7.957  10.183 -0.3862  0.0155  0.0571
  584BOLB   C4B14004  24.126   7.915  10.143 -0.4938 -0.1678 -0.0643
  584BOLB   NC214005  24.790   7.495   7.941 -0.3058 -0.2580 -0.2418
  584BOLB   PO214006  24.684   7.829   7.728  0.1952 -0.0678  0.2659
  584BOLB   GL314007  24.371   7.809   7.989  0.0495 -0.3402 -0.0656
  584BOLB   GL414008  24.010   7.680   8.065 -0.1295  0.0367 -0.0847
  584BOLB   C1C14009  24.381   7.849   8.457 -0.1473 -0.2304  0.1925
  584BOLB   C2C14010  24.362   7.887   8.896  0.0268  0.4113  0.2677
  584BOLB   C3C14011  24.133   7.710   9.290 -0.0359  0.0215 -0.1377
  584BOLB   C4C14012  23.945   7.890   9.610  0.0770 -0.4174 -0.3585
  584BOLB   C1D14013  23.922   8.009   8.353  0.2081 -0.2112 -0.1399
  584BOLB   C2D14014  24.190   8.323   8.670  0.0972 -0.0472  0.2297
  584BOLB   C3D14015  24.547   8.319   8.704  0.0671 -0.1267 -0.0580
  584BOLB   C4D14016  24.766   8.421   9.104 -0.1814  0.1494  0.4714
  585BOLB   NC114017   8.291  10.032  16.707 -0.3868 -0.0674 -0.0358
  585BOLB   PO114018   8.394  10.368  16.990 -0.2424 -0.1253 -0.2760
  585BOLB   GL114019   7.990  10.267  17.085  0.1650 -0.0562 -0.0646
  585BOLB   GL214020   7.885  10.282  17.437 -0.0002  0.0637  0.2309
  585BOLB   C1A14021   7.512  10.128  17.073 -0.3338 -0.1015  0.0455
  585BOLB   C2A14022   7.099  10.047  17.293  0.0033 -0.1604 -0.0530
  585BOLB   C3A14023   6.689  10.101  17.328 -0.0486  0.1167 -0.0582
  585BOLB   C4A14024   6.357  10.053  17.166  0.0123 -0.2153 -0.0113
  585BOLB   C1B14025   7.376  10.399  17.484 -0.1317 -0.2434 -0.0192
  585BOLB   C2B14026   7.109  10.638  17.593  0.1443  0.1303  0.0804
  585BOLB   C3B14027   6.645  10.558  17.616 -0.1604 -0.0307  0.1326
  585BOLB   C4B14028   6.253  10.228  17.728 -0.2061  0.0944 -0.0020
  585BOLB   NC214029   3.746  10.060  17.458  0.0524 -0.2520  0.1309
  585BOLB   PO214030   3.946  10.105  17.798 -0.2103  0.3356  0.0553
  585BOLB   GL314031   4.212   9.823  17.572 -0.2893 -0.0245  0.3076
  585BOLB   GL414032   4.367   9.496  17.797  0.2466  0.1777  0.0000
  585BOLB   C1C14033   4.586   9.945  17.345 -0.3197 -0.1408 -0.0186
  585BOLB   C2C14034   5.013   9.866  17.447  0.0822 -0.0160  0.1243
  585BOLB   C3C14035   5.477   9.817  17.357  0.3093  0.0871 -0.1844
  585BOLB   C4C14036   5.969   9.976  17.408 -0.2228 -0.6061 -0.2368
  585BOLB   C1D14037   4.667   9.414  17.513  0.1581 -0.3045  0.0450
  585BOLB   C2D14038   4.986   9.399  17.328 -0.0123 -0.2270 -0.0684
  585BOLB   C3D14039   5.202   9.473  16.977  0.0355  0.2208  0.3219
  585BOLB   C4D14040   5.211   9.461  16.464  0.3058  0.0634  0.1207
  586BOLB   NC114041  17.542  14.972  23.067 -0.0557 -0.1077  0.1741
  586BOLB   PO114042  17.444  14.606  23.158  0.1724 -0.1016 -0.0489
  586BOLB   GL114043  17.487  14.722  23.544 -0.0260 -0.1383 -0.3136
  586BOLB   GL214044  17.682  14.559  23.712  0.0419 -0.2369 -0.3376
  586BOLB   C1A14045  17.203  14.811  24.007  0.0679 -0.1440 -0.0344
  586BOLB   C2A14046  17.099  14.851  24.352  0.2009 -0.2237  0.2397
  586BOLB   C3A14047  16.841  15.056  24.588 -0.1359 -0.0312 -0.3612
  586BOLB   C4A14048  16.465  14.952  24.877  0.1889 -0.0755  0.2351
  586BOLB   C1B14049  17.736  14.736  24.057 -0.2507 -0.0342  0.2591
  586BOLB   C2B14050  17.691  15.028  24.335  0.0768  0.0701  0.1314
  586BOLB   C3B14051  17.465  15.061  24.619 -0.1916 -0.1320  0.3117
  586BOLB   C4B14052  17.313  15.201  24.935  0.0229 -0.2931  0.0550
  586BOLB   NC214053  16.828  16.398  26.865 -0.0268  0.2628  0.2663
  586BOLB   PO214054  16.608  15.977  26.840 -0.0980 -0.2554 -0.0290
  586BOLB   GL314055  16.610  15.735  26.509 -0.2812  0.3062  0.0264
  586BOLB   GL414056  16.970  15.584  26.500  0.0701 -0.1086  0.0737
  586BOLB   C1C14057  16.356  15.448  26.322  0.4824  0.4745  0.1169
  586BOLB   C2C14058  16.198  15.183  25.931  0.1512 -0.4354  0.0157
  586BOLB   C3C14059  16.250  14.899  25.570  0.1932  0.2068 -0.1442
  586BOLB   C4C14060  16.196  14.790  25.175 -0.3815  0.1069 -0.2512
  586BOLB   C1D14061  16.702  15.161  26.470  0.1905 -0.0377  0.0297
  586BOLB   C2D14062  16.390  14.882  26.284  0.2408 -0.0650  0.1799
  586BOLB   C3D14063  16.470  14.479  26.273 -0.0489 -0.0507  0.0477
  586BOLB   C4D14064  16.246  14.150  26.528 -0.3143  0.1206  0.1049
  587BOLB   NC114065  11.298  16.278  15.266 -0.1619 -0.3354  0.0351
  587BOLB   PO114066  10.825  16.344  15.155  0.2028 -0.0275  0.3137
  587BOLB   GL114067  10.609  16.639  14.977 -0.1075 -0.1481 -0.2729
  587BOLB   GL214068  10.337  16.508  14.949  0.0522  0.1999 -0.1764
  587BOLB   C1A14069  10.497  16.977  15.107  0.3103  0.0176  0.1922
  587BOLB   C2A14070  10.185  17.327  15.020 -0.3395 -0.0311 -0.0301
  587BOLB   C3A14071   9.892  17.577  14.816  0.1543  0.0047 -0.2438
  587BOLB   C4A14072   9.517  17.652  14.644  0.0013 -0.1578  0.2319
  587BOLB   C1B14073  10.017  16.779  15.036 -0.2878  0.0409 -0.1239
  587BOLB   C2B14074   9.719  17.104  15.055 -0.3890  0.4852  0.0390
  587BOLB   C3B14075   9.371  17.428  15.080 -0.0488  0.0922 -0.0087
  587BOLB   C4B14076   9.192  17.851  14.980  0.3346  0.1172  0.0983
  587BOLB   NC214077   7.965  19.238  14.548 -0.1068 -0.1814 -0.0052
  587BOLB   PO214078   8.294  19.495  14.614 -0.1283  0.1560  0.1947
  587BOLB   GL314079   8.383  19.029  14.785 -0.2648 -0.1395 -0.3328
  587BOLB   GL414080   8.527  19.007  15.054 -0.0672  0.0181 -0.0059
  587BOLB   C1C14081   8.502  18.660  14.459  0.4316 -0.0490  0.0422
  587BOLB   C2C14082   8.644  18.297  14.242 -0.0462  0.0134  0.3171
  587BOLB   C3C14083   8.796  17.829  14.274 -0.0502 -0.1151  0.1018
  587BOLB   C4C14084   9.132  17.584  14.436 -0.0284 -0.2277  0.1497
  587BOLB   C1D14085   8.777  18.739  14.866 -0.1584  0.0531  0.1504
  587BOLB   C2D14086   9.074  18.397  14.935  0.0708 -0.3059  0.1427
  587BOLB   C3D14087   9.473  18.346  14.813 -0.3661 -0.1491  0.2335
  587BOLB   C4D14088   9.969  18.236  14.809 -0.0983  0.0585 -0.1085
  588BOLB   NC114089  10.676   9.550  14.042 -0.1794  0.2209  0.0638
  588BOLB   PO114090  10.565   9.575  13.667 -0.0246  0.3238 -0.0969
  588BOLB   GL114091  10.337   9.432  13.347  0.0836  0.0059 -0.0379
  588BOLB   GL214092  10.168   9.112  13.174 -0.1792  0.2801  0.0066
  588BOLB   C1A14093   9.747   9.424  13.211 -0.0932  0.1972  0.1065
  588BOLB   C2A14094   9.376   9.258  13.399  0.0343  0.3351 -0.1047
  588BOLB   C3A14095   9.034   8.878  13.353 -0.1959 -0.1896  0.3344
  588BOLB   C4A14096   8.631   8.806  13.536  0.2697 -0.1778 -0.2775
  588BOLB   C1B14097   9.756   8.980  13.461  0.0532  0.3037 -0.1107
  588BOLB   C2B14098   9.382   8.762  13.720 -0.0154 -0.5090  0.1986
  588BOLB   C3B14099   8.932   8.655  14.003  0.1440  0.1850 -0.3871
  588BOLB   C4B14100   8.492   8.448  13.997 -0.0977  0.1551  0.1821
  588BOLB   NC214101   9.413  10.629  14.776 -0.0234  0.2756 -0.2841
  588BOLB   PO214102   9.009  10.712  14.658 -0.0373  0.2600 -0.2904
  588BOLB   GL314103   8.676  10.459  14.408 -0.0601 -0.3438  0.2030
  588BOLB   GL414104   8.559  10.627  14.143 -0.1822 -0.0674 -0.1519
  588BOLB   C1C14105   8.314  10.234  14.144  0.1427 -0.0900 -0.2801
  588BOLB   C2C14106   8.086   9.883  13.929  0.0506  0.0016  0.0229
  588BOLB   C3C14107   8.199   9.382  13.966  0.0716 -0.3915  0.2331
  588BOLB   C4C14108   8.250   8.891  13.940 -0.1031  0.1659  0.0409
  588BOLB   C1D14109   8.103  10.797  14.208  0.1124 -0.0686  0.2230
  588BOLB   C2D14110   7.721  10.816  14.184 -0.1815  0.3030 -0.0847
  588BOLB   C3D14111   7.396  10.692  13.949 -0.0113 -0.3329 -0.0441
  588BOLB   C4D14112   7.016  10.827  13.798  0.3202 -0.2195  0.0824
  589BOLB   NC114113  23.366  12.717  12.879  0.1880 -0.1423  0.0138
  589BOLB   PO114114  23.572  13.079  13.208 -0.2154  0.2702  0.2632
  589BOLB   GL114115  24.007  13.169  13.114  0.0794  0.0525  0.6144
  589BOLB   GL214116  23.889  13.484  13.047  0.2034 -0.2475  0.1148
  589BOLB   C1A14117  24.504  13.055  13.068 -0.3049 -0.3254 -0.0968
  589BOLB   C2A14118  24.786  13.158  13.419 -0.0368  0.0705  0.1285
  589BOLB   C3A14119  25.121  13.341  13.411  0.1075 -0.1019 -0.0529
  589BOLB   C4A14120  25.466  13.296  13.693 -0.1887 -0.3479 -0.1701
  589BOLB   C1B14121  24.308  13.465  12.833  0.0779 -0.1367  0.1773
  589BOLB   C2B14122  24.695  13.550  12.977  0.0815  0.1344 -0.1404
  589BOLB   C3B14123  24.868  13.928  13.132 -0.1574 -0.1562  0.0459
  589BOLB   C4B14124  24.893  14.335  13.001 -0.0907  0.3615  0.3891
  589BOLB   NC214125  27.932  13.302  13.885 -0.0663 -0.1065 -0.0416
  589BOLB   PO214126  27.725  13.119  14.153  0.2171  0.0413 -0.1999
  589BOLB   GL314127  27.322  13.146  14.299 -0.2133 -0.0400 -0.0072
  589BOLB   GL414128  27.397  12.774  14.335  0.1826 -0.4054  0.2516
  589BOLB   C1C14129  26.919  13.140  14.143  0.1364 -0.1130 -0.2088
  589BOLB   C2C14130  26.518  13.263  14.004 -0.1943 -0.1294 -0.1168
  589BOLB   C3C14131  26.193  13.259  14.041 -0.1132 -0.1112  0.1210
  589BOLB   C4C14132  25.867  13.209  13.917  0.4496 -0.4013 -0.0048
  589BOLB   C1D14133  27.062  12.715  13.943  0.0143  0.1146 -0.2547
  589BOLB   C2D14134  26.705  12.528  13.869 -0.0379  0.1530 -0.2868
  589BOLB   C3D14135  26.441  12.233  14.020  0.1049 -0.0320 -0.1011
  589BOLB   C4D14136  26.102  12.338  13.683 -0.0076 -0.0077 -0.0362
  590BOLB   NC114137  15.424  16.827  11.756  0.1644  0.3240  0.0711
  590BOLB   PO114138  15.258  16.765  11.391  0.2222 -0.0291  0.1026
  590BOLB   GL114139  14.991  17.209  11.085  0.0916 -0.0746 -0.2085
  590BOLB   GL214140  14.600  17.158  11.135 -0.4477 -0.0079  0.2993
  590BOLB   C1A14141  15.011  17.597  10.887  0.0367 -0.3061  0.0909
  590BOLB   C2A14142  14.920  17.940  10.636 -0.1486  0.1388 -0.0073
  590BOLB   C3A14143  15.051  18.106  10.360 -0.2499  0.0492 -0.0683
  590BOLB   C4A14144  15.315  18.311  10.050 -0.0311  0.2759 -0.1503
  590BOLB   C1B14145  14.560  17.544  11.172  0.1490 -0.1361 -0.1356
  590BOLB   C2B14146  14.720  17.924  11.310  0.1809 -0.2109  0.1512
  590BOLB   C3B14147  14.820  18.258  11.325 -0.2047  0.0842  0.1174
  590BOLB   C4B14148  14.830  18.636  11.049  0.2475  0.1124 -0.2924
  590BOLB   NC214149  14.713  21.036   8.915 -0.1023  0.0565 -0.0324
  590BOLB   PO214150  14.903  20.746   9.221 -0.1401  0.0145  0.1428
  590BOLB   GL314151  14.882  20.347   9.549 -0.3157  0.0956  0.2715
  590BOLB   GL414152  14.654  20.153   9.672  0.0510 -0.1276 -0.1312
  590BOLB   C1C14153  15.024  19.825   9.532  0.4013  0.1681 -0.1167
  590BOLB   C2C14154  15.270  19.493   9.302 -0.2436  0.1482 -0.0814
  590BOLB   C3C14155  15.297  19.094   9.408 -0.2746  0.0128 -0.2870
  590BOLB   C4C14156  15.256  18.657   9.712 -0.1042 -0.0085 -0.1824
  590BOLB   C1D14157  14.464  20.001   9.974 -0.1227  0.0083 -0.1649
  590BOLB   C2D14158  14.327  19.732  10.306 -0.3628 -0.1331  0.2385
  590BOLB   C3D14159  14.258  19.379  10.489  0.1386  0.0057  0.2155
  590BOLB   C4D14160  14.135  18.952  10.471  0.1401 -0.3195 -0.0801
  591BOLB   NC114161  23.560  13.247  14.002 -0.0779  0.1222  0.0395
  591BOLB   PO114162  23.610  13.392  14.362 -0.4183 -0.1991  0.0164
  591BOLB   GL114163  23.940  13.728  14.015 -0.1061 -0.1049  0.0320
  591BOLB   GL214164  23.970  14.112  13.922  0.1239  0.5586  0.0986
  591BOLB   C1A14165  24.345  13.857  13.837 -0.1058 -0.1407 -0.0643
  591BOLB   C2A14166  24.627  14.099  13.518  0.1025 -0.2252  0.1461
  591BOLB   C3A14167  25.002  14.204  13.641 -0.1764 -0.0735 -0.2120
  591BOLB   C4A14168  25.380  14.245  13.716 -0.2875 -0.0741  0.0837
  591BOLB   C1B14169  24.201  14.513  13.874  0.0505  0.0280  0.1205
  591BOLB   C2B14170  24.594  14.732  13.950  0.1030 -0.0136 -0.0973
  591BOLB   C3B14171  24.950  14.935  13.757  0.0995  0.0667  0.3540
  591BOLB   C4B14172  25.102  15.429  13.944  0.1644 -0.0266  0.1523
  591BOLB   NC214173  27.576  14.029  13.401 -0.4932 -0.2809  0.4041
  591BOLB   PO214174  27.409  14.356  13.696 -0.1484  0.1330 -0.0185
  591BOLB   GL314175  27.223  14.091  13.918  0.0632 -0.2236  0.1261
  591BOLB   GL414176  27.366  13.898  14.130 -0.0504 -0.2742  0.0708
  591BOLB   C1C14177  26.932  13.850  13.994  0.0204 -0.0603 -0.1991
  591BOLB   C2C14178  26.468  13.795  14.052  0.0185  0.1638 -0.3889
  591BOLB   C3C14179  26.092  13.798  13.866  0.2029 -0.0505  0.1246
  591BOLB   C4C14180  25.842  14.079  13.764 -0.2183 -0.3424 -0.0327
  591BOLB   C1D14181  27.154  13.600  14.368  0.1567 -0.0319  0.0790
  591BOLB   C2D14182  26.698  13.524  14.473 -0.1407 -0.2957  0.0291
  591BOLB   C3D14183  26.292  13.548  14.440 -0.1284 -0.4601 -0.1297
  591BOLB   C4D14184  25.904  13.617  14.331 -0.3760 -0.0457  0.2060
  592BOLB   NC114185  15.839  18.375  13.767  0.1232 -0.1891 -0.2033
  592BOLB   PO114186  16.272  18.149  13.844  0.0157 -0.0310  0.4076
  592BOLB   GL114187  16.387  18.518  13.546  0.0277 -0.0772  0.1276
  592BOLB   GL214188  16.630  18.519  13.248  0.0484  0.0457  0.3206
  592BOLB   C1A14189  16.423  19.041  13.511 -0.0944 -0.3692 -0.3630
  592BOLB   C2A14190  16.369  19.367  13.360  0.0831 -0.2683 -0.1050
  592BOLB   C3A14191  16.165  19.553  13.042 -0.2209 -0.0713  0.3201
  592BOLB   C4A14192  15.831  19.881  12.939  0.2533 -0.1112  0.2057
  592BOLB   C1B14193  16.847  18.871  13.168 -0.2643 -0.1175 -0.2468
  592BOLB   C2B14194  16.823  19.332  13.109 -0.1714 -0.1988  0.1803
  592BOLB   C3B14195  17.113  19.656  13.337 -0.1578  0.3831  0.0254
  592BOLB   C4B14196  17.287  19.648  13.694  0.1373 -0.0994  0.2983
  592BOLB   NC214197  16.355  22.067  12.802  0.0175  0.2757  0.0934
  592BOLB   PO214198  15.916  22.001  12.800 -0.1199 -0.1141  0.3625
  592BOLB   GL314199  15.540  21.799  12.848 -0.0100  0.1105  0.1122
  592BOLB   GL414200  15.628  21.587  12.570  0.1302  0.1631 -0.0089
  592BOLB   C1C14201  15.212  21.485  12.940 -0.4125 -0.0865  0.1459
  592BOLB   C2C14202  15.109  21.000  12.981  0.0016  0.1127  0.1898
  592BOLB   C3C14203  15.489  20.706  12.975 -0.1003  0.0146 -0.0490
  592BOLB   C4C14204  15.741  20.240  12.827 -0.2671  0.0328  0.1711
  592BOLB   C1D14205  15.853  21.241  12.742  0.4216 -0.0725  0.1795
  592BOLB   C2D14206  16.103  20.850  12.760 -0.0310 -0.0665 -0.0365
  592BOLB   C3D14207  16.158  20.426  12.701  0.1632 -0.2052 -0.1340
  592BOLB   C4D14208  16.180  20.062  12.535  0.1281 -0.0391 -0.0247
  593BOLB   NC114209  16.652   7.940  23.153  0.1065 -0.3052 -0.0267
  593BOLB   PO114210  16.278   7.774  23.288 -0.0851  0.1133 -0.1612
  593BOLB   GL114211  16.192   7.918  23.741 -0.0516  0.0044  0.5251
  593BOLB   GL214212  15.816   7.993  23.802 -0.0138 -0.3773 -0.2688
  593BOLB   C1A14213  16.302   7.728  24.047  0.0263 -0.0776  0.0088
  593BOLB   C2A14214  16.160   7.605  24.528 -0.1161 -0.0633 -0.2706
  593BOLB   C3A14215  16.283   7.899  24.799 -0.3939  0.0614 -0.1105
  593BOLB   C4A14216  16.400   7.971  25.147  0.1025 -0.0758 -0.4018
  593BOLB   C1B14217  15.777   7.765  24.171  0.1128 -0.2095  0.3260
  593BOLB   C2B14218  15.612   7.434  24.377  0.0834 -0.2381 -0.0013
  593BOLB   C3B14219  15.411   7.600  24.807  0.1103 -0.2924  0.0943
  593BOLB   C4B14220  15.253   7.679  25.187  0.2813 -0.0828 -0.0109
  593BOLB   NC214221  16.647   8.527  27.088  0.0641 -0.0420  0.1176
  593BOLB   PO214222  17.082   8.786  27.033  0.0198  0.0429  0.0339
  593BOLB   GL314223  17.269   8.820  26.698 -0.1168  0.2693  0.0805
  593BOLB   GL414224  17.557   8.879  26.793 -0.2095 -0.2329 -0.1138
  593BOLB   C1C14225  17.077   8.626  26.261 -0.1621 -0.2239  0.2753
  593BOLB   C2C14226  16.917   8.241  26.053  0.3675 -0.1470 -0.0791
  593BOLB   C3C14227  16.864   7.800  25.706  0.0338  0.2350  0.0241
  593BOLB   C4C14228  16.720   7.816  25.306 -0.2073 -0.1487 -0.0989
  593BOLB   C1D14229  17.617   8.641  26.371  0.0905  0.1777 -0.1298
  593BOLB   C2D14230  17.600   8.881  26.054  0.1570  0.1925  0.0317
  593BOLB   C3D14231  17.282   9.344  25.921  0.2357 -0.1265  0.3111
  593BOLB   C4D14232  17.155   9.781  26.033 -0.3250  0.1976 -0.1418
  594BOLB   NC114233  19.578   4.720  11.085 -0.2828  0.2442 -0.0758
  594BOLB   PO114234  19.776   4.481  10.565  0.0291 -0.0879 -0.0128
  594BOLB   GL114235  20.056   4.407  10.157  0.0626 -0.0737 -0.0978
  594BOLB   GL214236  19.787   4.246  10.001 -0.0504 -0.2292  0.1694
  594BOLB   C1A14237  20.342   4.036   9.888  0.1269  0.1969  0.1042
  594BOLB   C2A14238  20.662   3.762   9.698  0.1129  0.0958 -0.0333
  594BOLB   C3A14239  20.905   3.499   9.499 -0.2646  0.0974  0.2751
  594BOLB   C4A14240  21.327   3.346   9.565 -0.1114  0.0662 -0.2033
  594BOLB   C1B14241  19.960   4.115   9.619  0.1726  0.6130 -0.0680
  594BOLB   C2B14242  20.101   3.916   9.279  0.1330  0.1594 -0.0637
  594BOLB   C3B14243  20.412   4.068   9.021  0.0059 -0.1120  0.0681
  594BOLB   C4B14244  20.771   4.236   8.836 -0.0453  0.3919 -0.1667
  594BOLB   NC214245  23.287   1.710   9.019 -0.1597  0.3798 -0.0680
  594BOLB   PO214246  22.839   1.557   8.895  0.1176 -0.0814 -0.0140
  594BOLB   GL314247  22.708   1.860   9.204  0.1443 -0.0200  0.2792
  594BOLB   GL414248  22.421   2.012   9.027  0.1945  0.3081  0.0723
  594BOLB   C1C14249  22.396   2.073   9.504 -0.1125 -0.0384  0.0778
  594BOLB   C2C14250  22.293   2.531   9.614  0.3332 -0.0537 -0.2637
  594BOLB   C3C14251  21.976   2.888   9.712 -0.1713 -0.5794 -0.2606
  594BOLB   C4C14252  21.645   3.103   9.674 -0.0404  0.1667  0.1595
  594BOLB   C1D14253  22.312   2.412   9.039 -0.0910  0.1655 -0.0941
  594BOLB   C2D14254  21.974   2.602   9.293 -0.0231 -0.1693  0.1308
  594BOLB   C3D14255  21.621   2.598   9.452 -0.1363  0.0643 -0.2516
  594BOLB   C4D14256  21.224   2.773   9.568 -0.0067  0.0444 -0.0340
  595BOLB   NC114257   9.107   9.611  20.022 -0.1293 -0.0872 -0.2565
  595BOLB   PO114258   9.238   9.214  20.060  0.0061 -0.1642 -0.2213
  595BOLB   GL114259   9.063   9.115  20.449 -0.0213 -0.0889 -0.0943
  595BOLB   GL214260   9.255   8.829  20.686  0.0857 -0.1898  0.0378
  595BOLB   C1A14261   8.652   9.044  20.731  0.3577  0.1877  0.2793
  595BOLB   C2A14262   8.501   8.838  21.154  0.3573  0.3998  0.2161
  595BOLB   C3A14263   8.226   8.415  21.234 -0.3052 -0.3021 -0.1776
  595BOLB   C4A14264   7.807   8.143  21.351 -0.0618 -0.3062  0.1867
  595BOLB   C1B14265   8.924   8.672  20.929  0.0367 -0.0111  0.2320
  595BOLB   C2B14266   8.730   8.368  21.196  0.2489  0.2286 -0.2083
  595BOLB   C3B14267   8.718   8.222  21.595 -0.3919 -0.0645 -0.3374
  595BOLB   C4B14268   8.518   8.082  21.999 -0.0194  0.1651 -0.3384
  595BOLB   NC214269   6.335   8.050  22.770 -0.0807 -0.0357  0.0013
  595BOLB   PO214270   6.191   7.869  22.508  0.1419  0.0287  0.0725
  595BOLB   GL314271   6.631   7.784  22.427 -0.1826  0.5168 -0.1502
  595BOLB   GL414272   6.787   7.901  22.682 -0.1273  0.2011  0.2841
  595BOLB   C1C14273   6.904   7.432  22.255  0.2988 -0.2870  0.0992
  595BOLB   C2C14274   7.049   7.249  21.845 -0.0513 -0.3455  0.2224
  595BOLB   C3C14275   7.173   7.517  21.571 -0.3089  0.2648  0.4218
  595BOLB   C4C14276   7.449   7.870  21.430 -0.1773  0.2380  0.0189
  595BOLB   C1D14277   7.251   7.925  22.517  0.1647 -0.0195  0.2694
  595BOLB   C2D14278   7.512   8.001  22.333  0.0402 -0.0241  0.3380
  595BOLB   C3D14279   7.912   7.740  22.223  0.0007 -0.1371 -0.2923
  595BOLB   C4D14280   8.146   7.656  21.901  0.4630 -0.2601 -0.0389
  596BOLB   NC114281  12.040   3.826  19.118 -0.1330  0.3833  0.2141
  596BOLB   PO114282  11.796   3.624  18.757 -0.0080  0.0782 -0.0864
  596BOLB   GL114283  11.681   3.415  19.186  0.2739 -0.0441 -0.0487
  596BOLB   GL214284  11.841   3.512  19.452  0.0079 -0.1431 -0.1190
  596BOLB   C1A14285  11.402   3.089  19.444  0.1238  0.3394  0.0272
  596BOLB   C2A14286  11.146   2.709  19.381  0.1616 -0.2730  0.0072
  596BOLB   C3A14287  10.872   2.359  19.277 -0.1213 -0.0657 -0.0707
  596BOLB   C4A14288  10.629   1.982  19.312 -0.0785 -0.0262  0.0528
  596BOLB   C1B14289  11.847   3.186  19.702  0.2765 -0.1287  0.1033
  596BOLB   C2B14290  11.528   2.979  19.876  0.0431 -0.1851  0.1120
  596BOLB   C3B14291  11.220   2.676  19.916 -0.0139 -0.0916 -0.1464
  596BOLB   C4B14292  11.082   2.301  19.778  0.1540 -0.0510  0.0457
  596BOLB   NC214293  10.926   0.110  21.241  0.0078  0.2770  0.0670
  596BOLB   PO214294  10.904   0.542  21.442 -0.0231  0.1147  0.2378
  596BOLB   GL314295  10.902   0.764  21.006 -0.1310 -0.3827  0.2832
  596BOLB   GL414296  10.614   0.837  20.856  0.1404  0.0817 -0.1344
  596BOLB   C1C14297  10.997   1.117  20.732  0.2212 -0.0273  0.2557
  596BOLB   C2C14298  10.752   1.218  20.354 -0.3254  0.2808 -0.2994
  596BOLB   C3C14299  10.779   1.566  20.029 -0.0367 -0.2205 -0.0891
  596BOLB   C4C14300  10.691   1.614  19.555 -0.2685  0.1168  0.2100
  596BOLB   C1D14301  10.455   1.317  20.764  0.2981 -0.0973 -0.2403
  596BOLB   C2D14302  10.377   1.532  20.337  0.0897 -0.0966  0.0574
  596BOLB   C3D14303  10.333   1.852  20.080 -0.1084 -0.1733  0.2145
  596BOLB   C4D14304  10.637   2.068  19.859 -0.0251 -0.2094 -0.1939
  597BOLB   NC114305  23.002   6.856  16.252  0.1819  0.4578 -0.2036
  597BOLB   PO114306  23.280   6.632  16.534 -0.1333  0.1051  0.0032
  597BOLB   GL114307  23.706   6.467  16.665  0.0690  0.1580 -0.2068
  597BOLB   GL214308  23.632   6.268  16.926 -0.0510 -0.2320  0.0256
  597BOLB   C1A14309  24.112   6.358  16.650 -0.0644  0.0092  0.0392
  597BOLB   C2A14310  24.414   6.027  16.764  0.2205 -0.1623 -0.1886
  597BOLB   C3A14311  24.689   5.734  16.523  0.2040  0.1557 -0.2631
  597BOLB   C4A14312  24.672   5.476  16.206  0.0712  0.2412 -0.1978
  597BOLB   C1B14313  23.983   6.348  17.214  0.0259  0.0848  0.3026
  597BOLB   C2B14314  24.326   6.269  17.447  0.0703 -0.0958  0.2619
  597BOLB   C3B14315  24.741   6.034  17.457  0.1105  0.0410 -0.1802
  597BOLB   C4B14316  24.957   5.804  17.178  0.0392  0.1667  0.4556
  597BOLB   NC214317  26.572   3.682  16.573  0.2135 -0.2015  0.3068
  597BOLB   PO214318  26.495   4.023  16.901 -0.2710 -0.1778 -0.0486
  597BOLB   GL314319  26.267   4.305  16.702  0.0279  0.0980 -0.0853
  597BOLB   GL414320  26.347   4.533  16.508 -0.3831  0.0236  0.3323
  597BOLB   C1C14321  25.805   4.486  16.816  0.0303 -0.2487  0.0752
  597BOLB   C2C14322  25.435   4.572  16.698  0.2102 -0.2519 -0.0721
  597BOLB   C3C14323  25.187   4.896  16.397 -0.2896  0.0655  0.0826
  597BOLB   C4C14324  24.876   5.080  16.138  0.4005  0.1202 -0.2432
  597BOLB   C1D14325  26.226   4.809  16.725 -0.5037 -0.2831 -0.1354
  597BOLB   C2D14326  26.320   5.136  17.023 -0.0377 -0.0564  0.2536
  597BOLB   C3D14327  26.479   5.534  16.970 -0.1249  0.0388 -0.2818
  597BOLB   C4D14328  26.585   5.847  16.665 -0.0969 -0.0524  0.1338
  598BOLB   NC114329  18.084  16.789  10.815  0.0246  0.0282 -0.1414
  598BOLB   PO114330  17.772  16.619  11.010 -0.0438 -0.0304  0.0489
  598BOLB   GL114331  17.653  17.025  10.741 -0.1595 -0.1681  0.0964
  598BOLB   GL214332  17.788  17.263  10.871 -0.0196 -0.0649  0.0646
  598BOLB   C1A14333  17.603  17.378  10.424  0.1241  0.1260  0.0804
  598BOLB   C2A14334  17.623  17.713  10.134  0.4179  0.1188 -0.2261
  598BOLB   C3A14335  17.771  18.070   9.893 -0.2465 -0.0444 -0.0598
  598BOLB   C4A14336  17.501  18.423   9.769 -0.1385 -0.0662 -0.1325
  598BOLB   C1B14337  17.987  17.667  10.583  0.1029 -0.2037 -0.1539
  598BOLB   C2B14338  18.078  17.823  10.213 -0.0336 -0.2012  0.0776
  598BOLB   C3B14339  18.423  18.002   9.995 -0.1790  0.1708 -0.1900
  598BOLB   C4B14340  18.700  18.276   9.802  0.2269  0.0973 -0.0213
  598BOLB   NC214341  15.905  20.415   8.825 -0.4473  0.2671 -0.1446
  598BOLB   PO214342  16.373  20.316   8.631  0.0823 -0.0170  0.2447
  598BOLB   GL314343  16.702  20.278   8.962  0.0278 -0.0568 -0.0645
  598BOLB   GL414344  16.483  20.048   9.097 -0.1203 -0.2638  0.3199
  598BOLB   C1C14345  17.001  19.886   9.067  0.3216 -0.1463 -0.0356
  598BOLB   C2C14346  17.029  19.465   9.192  0.0728  0.1914 -0.0648
  598BOLB   C3C14347  17.126  19.150   9.268 -0.1548 -0.1737  0.1085
  598BOLB   C4C14348  17.378  18.736   9.329 -0.4480  0.2603 -0.0280
  598BOLB   C1D14349  16.348  19.916   9.488 -0.5157  0.2333  0.0998
  598BOLB   C2D14350  16.376  19.656   9.917 -0.0771 -0.0890 -0.0028
  598BOLB   C3D14351  16.303  19.336  10.268 -0.2038 -0.0345 -0.1005
  598BOLB   C4D14352  16.135  19.268  10.576  0.1964  0.0763  0.0048
  599BOLB   NC114353  13.171   4.396  20.175  0.0904  0.0904 -0.0520
  599BOLB   PO114354  13.030   4.428  20.631 -0.3161  0.1980 -0.0782
  599BOLB   GL114355  12.855   4.117  20.904 -0.0326 -0.1406  0.1398
  599BOLB   GL214356  12.995   4.248  21.210 -0.0564 -0.1193  0.4818
  599BOLB   C1A14357  13.045   3.761  21.130  0.2317  0.1117 -0.0843
  599BOLB   C2A14358  12.940   3.469  21.367  0.0749 -0.2476 -0.1675
  599BOLB   C3A14359  12.668   3.132  21.536  0.1683  0.0615  0.0034
  599BOLB   C4A14360  12.242   2.863  21.519  0.1167  0.1507  0.1665
  599BOLB   C1B14361  12.857   4.023  21.557  0.2921  0.0990 -0.1023
  599BOLB   C2B14362  12.512   3.782  21.797 -0.4351  0.3135 -0.1351
  599BOLB   C3B14363  12.142   3.691  22.026  0.2262  0.0691 -0.1111
  599BOLB   C4B14364  11.893   3.722  22.429  0.0910  0.2219  0.0700
  599BOLB   NC214365  12.140   0.932  23.078  0.1004 -0.1973  0.0227
  599BOLB   PO214366  11.753   1.151  23.083 -0.0689  0.1196  0.0307
  599BOLB   GL314367  11.728   1.466  22.830  0.0829  0.1175 -0.0795
  599BOLB   GL414368  11.400   1.607  22.729 -0.0507  0.1086 -0.0137
  599BOLB   C1C14369  11.910   1.698  22.553  0.1164 -0.2637  0.0432
  599BOLB   C2C14370  11.916   2.065  22.323 -0.0152 -0.0968  0.2867
  599BOLB   C3C14371  12.016   2.365  22.083  0.5736 -0.4475  0.1463
  599BOLB   C4C14372  12.118   2.671  21.884 -0.2943  0.2392 -0.3817
  599BOLB   C1D14373  11.425   1.968  22.525  0.0435  0.0614  0.0739
  599BOLB   C2D14374  11.483   2.402  22.417  0.0126 -0.0595 -0.0787
  599BOLB   C3D14375  11.577   2.712  22.109 -0.0804  0.1495  0.2765
  599BOLB   C4D14376  11.411   3.119  21.710  0.1039  0.0418  0.2352
  600BOLB   NC114377  21.208  11.219  10.682  0.2177 -0.0116 -0.0103
  600BOLB   PO114378  21.255  11.265  10.203  0.0518  0.4564  0.0459
  600BOLB   GL114379  21.403  11.281   9.865 -0.2119 -0.0595 -0.4433
  600BOLB   GL214380  21.747  11.456   9.843  0.0892  0.1303  0.0435
  600BOLB   C1A14381  21.540  11.030   9.590 -0.2405 -0.2536  0.0911
  600BOLB   C2A14382  21.806  10.966   9.213 -0.3093 -0.0168 -0.0144
  600BOLB   C3A14383  22.180  11.029   8.933 -0.1987 -0.0232 -0.1618
  600BOLB   C4A14384  22.537  10.813   8.724  0.1411  0.1370 -0.0516
  600BOLB   C1B14385  21.657  11.592   9.502 -0.0845  0.2198 -0.1219
  600BOLB   C2B14386  21.585  11.379   9.104 -0.2841  0.2390  0.1974
  600BOLB   C3B14387  21.701  11.256   8.713  0.1105 -0.0427 -0.3699
  600BOLB   C4B14388  21.647  11.282   8.248  0.1962 -0.2351 -0.2584
  600BOLB   NC214389  24.714  11.788   8.076  0.1254 -0.4725  0.3388
  600BOLB   PO214390  24.836  11.539   7.736  0.1669  0.0203 -0.0241
  600BOLB   GL314391  24.369  11.436   7.985  0.1373 -0.2433 -0.1325
  600BOLB   GL414392  24.203  11.632   8.279  0.0764  0.1192 -0.4679
  600BOLB   C1C14393  24.098  11.176   8.094  0.0970  0.3986 -0.1850
  600BOLB   C2C14394  23.709  11.035   8.198  0.0480  0.0648 -0.1973
  600BOLB   C3C14395  23.273  10.945   8.354 -0.2342  0.0177 -0.1836
  600BOLB   C4C14396  22.840  10.995   8.413 -0.1019  0.1881  0.0252
  600BOLB   C1D14397  24.279  11.939   8.586 -0.0120 -0.1304  0.0157
  600BOLB   C2D14398  24.202  12.139   8.983 -0.5173  0.2782  0.0615
  600BOLB   C3D14399  23.849  12.222   9.211 -0.2193 -0.1904  0.0030
  600BOLB   C4D14400  23.463  12.276   9.545 -0.0643  0.2110 -0.0636
  601BOLB   NC114401  10.643  14.007  11.677  0.0643 -0.2703 -0.0743
  601BOLB   PO114402  10.339  14.119  11.383 -0.1468  0.1324  0.0684
  601BOLB   GL114403   9.991  14.286  11.200 -0.1801  0.0492  0.2210
  601BOLB   GL214404   9.856  14.137  10.975  0.0200  0.1110 -0.0219
  601BOLB   C1A14405   9.620  14.529  11.366 -0.3978 -0.2278  0.3047
  601BOLB   C2A14406   9.365  14.889  11.458  0.0456 -0.0479  0.0174
  601BOLB   C3A14407   8.941  14.969  11.311  0.0261  0.1763  0.0252
  601BOLB   C4A14408   8.698  14.851  11.012  0.1250 -0.1424 -0.3614
  601BOLB   C1B14409   9.479  14.264  10.793 -0.0100  0.0813 -0.1150
  601BOLB   C2B14410   9.242  14.428  10.448 -0.0731  0.1483  0.1837
  601BOLB   C3B14411   8.929  14.279  10.222 -0.0010 -0.1437  0.0602
  601BOLB   C4B14412   8.485  14.449  10.079  0.0631 -0.0441  0.0122
  601BOLB   NC214413   7.585  15.648   8.889  0.0943 -0.1123 -0.2202
  601BOLB   PO214414   8.078  15.517   8.898 -0.1838 -0.1168  0.0207
  601BOLB   GL314415   8.279  15.319   9.245 -0.1655  0.0010  0.0222
  601BOLB   GL414416   8.247  15.102   9.099  0.1454  0.1195 -0.0024
  601BOLB   C1C14417   8.357  15.124   9.666  0.1573  0.0859 -0.1066
  601BOLB   C2C14418   8.570  15.008  10.011  0.3778  0.2307  0.0393
  601BOLB   C3C14419   8.866  14.746  10.255 -0.1378 -0.2751  0.0328
  601BOLB   C4C14420   9.021  14.817  10.576 -0.2746 -0.2178 -0.3163
  601BOLB   C1D14421   8.558  14.879   9.306 -0.3099  0.1155  0.0068
  601BOLB   C2D14422   8.856  14.724   9.548  0.4236  0.2006 -0.2564
  601BOLB   C3D14423   9.087  14.405   9.783  0.0683  0.2558  0.3744
  601BOLB   C4D14424   9.194  14.080   9.802 -0.1512 -0.1853  0.2334
  602BOLB   NC114425  23.964  10.334  16.966  0.2998  0.2769 -0.1249
  602BOLB   PO114426  24.146  10.671  17.067  0.1572 -0.0316 -0.3338
  602BOLB   GL114427  24.592  10.713  17.161  0.0418 -0.0528 -0.1421
  602BOLB   GL214428  24.780  11.001  17.094 -0.0408  0.1349  0.0696
  602BOLB   C1A14429  24.939  10.495  17.231  0.1800 -0.1840 -0.0304
  602BOLB   C2A14430  25.318  10.384  17.420  0.1008 -0.0328  0.2275
  602BOLB   C3A14431  25.689  10.119  17.577  0.2606 -0.0456  0.0650
  602BOLB   C4A14432  26.080   9.831  17.654 -0.2484 -0.0980 -0.0555
  602BOLB   C1B14433  25.203  11.007  17.293 -0.1446 -0.0482  0.1962
  602BOLB   C2B14434  25.516  10.854  17.417 -0.5587  0.2907  0.0437
  602BOLB   C3B14435  25.778  10.807  17.647  0.2406 -0.0365 -0.1527
  602BOLB   C4B14436  25.891  10.726  18.074 -0.1136  0.2170  0.0658
  602BOLB   NC214437  28.272  10.033  18.203 -0.0295  0.3784 -0.1521
  602BOLB   PO214438  28.144   9.570  18.226  0.2106  0.0977  0.0454
  602BOLB   GL314439  27.647   9.449  18.137  0.0725  0.0285  0.1877
  602BOLB   GL414440  27.562   9.331  17.775 -0.2195 -0.1206  0.0747
  602BOLB   C1C14441  27.159   9.427  18.073 -0.3428  0.2722 -0.3180
  602BOLB   C2C14442  26.795   9.379  18.151  0.2054  0.1076 -0.1186
  602BOLB   C3C14443  26.352   9.375  18.090  0.3087  0.3473  0.1607
  602BOLB   C4C14444  26.051   9.556  17.949  0.1839 -0.2407 -0.0536
  602BOLB   C1D14445  27.044   9.305  17.619  0.0733 -0.0426  0.0089
  602BOLB   C2D14446  26.644   9.159  17.652  0.1906 -0.1631  0.1360
  602BOLB   C3D14447  26.281   8.919  17.929  0.0533  0.1446 -0.5303
  602BOLB   C4D14448  26.146   8.632  18.076 -0.1567  0.1433 -0.1567
  603BOLB   NC114449  22.629  12.796  12.509  0.1502 -0.2374  0.1624
  603BOLB   PO114450  22.971  12.556  12.406 -0.0161 -0.0177  0.0749
  603BOLB   GL114451  23.015  12.712  11.950  0.1150  0.2376  0.1188
  603BOLB   GL214452  23.361  12.563  11.971  0.1109 -0.0191 -0.1994
  603BOLB   C1A14453  23.069  12.761  11.495 -0.3498  0.1842  0.2415
  603BOLB   C2A14454  23.368  13.047  11.409  0.0308 -0.0896 -0.0395
  603BOLB   C3A14455  23.836  13.172  11.190  0.1047 -0.2341 -0.2514
  603BOLB   C4A14456  24.083  13.286  10.837  0.2861  0.3421 -0.0883
  603BOLB   C1B14457  23.456  12.347  11.631 -0.2730  0.0880  0.1132
  603BOLB   C2B14458  23.641  12.518  11.212  0.3713 -0.0026  0.0399
  603BOLB   C3B14459  23.832  12.564  10.816 -0.1124  0.2757  0.0950
  603BOLB   C4B14460  24.107  12.812  10.619  0.0957  0.0860 -0.1802
  603BOLB   NC214461  25.321  13.293   8.914 -0.0697 -0.2678  0.2236
  603BOLB   PO214462  25.646  13.439   9.193 -0.0143  0.1170  0.1490
  603BOLB   GL314463  25.565  13.097   9.359  0.0315  0.1278 -0.1982
  603BOLB   GL414464  25.230  13.183   9.377  0.1986 -0.0998  0.1555
  603BOLB   C1C14465  25.502  13.202   9.822  0.2170 -0.0647  0.2960
  603BOLB   C2C14466  25.091  13.402  10.148  0.1526 -0.0569  0.1148
  603BOLB   C3C14467  24.696  13.483  10.434  0.1473 -0.2088  0.1303
  603BOLB   C4C14468  24.357  13.555  10.651  0.1773  0.2551 -0.1824
  603BOLB   C1D14469  24.860  13.116   9.806  0.0361 -0.0548 -0.0762
  603BOLB   C2D14470  24.541  12.766   9.934  0.1084  0.2533 -0.0399
  603BOLB   C3D14471  24.103  12.644  10.040  0.0611 -0.2990 -0.0495
  603BOLB   C4D14472  23.739  12.738  10.284  0.0040 -0.2342  0.1673
  604BOLB   NC114473  10.899  13.908  20.441 -0.1319  0.1021 -0.1346
  604BOLB   PO114474  10.453  13.815  20.348  0.4317 -0.0471 -0.0342
  604BOLB   GL114475  10.097  13.966  20.489  0.4724  0.1748 -0.0776
  604BOLB   GL214476   9.815  14.217  20.300 -0.1662  0.0561 -0.2327
  604BOLB   C1A14477   9.749  13.875  20.725 -0.0163  0.1409  0.1343
  604BOLB   C2A14478   9.242  13.909  20.615 -0.1116  0.1679  0.2383
  604BOLB   C3A14479   8.872  14.088  20.607  0.0062 -0.2857  0.3928
  604BOLB   C4A14480   8.404  14.215  20.682  0.0621  0.1534 -0.0708
  604BOLB   C1B14481   9.506  14.170  20.309  0.1566  0.0665 -0.0091
  604BOLB   C2B14482   9.205  14.439  20.515  0.0576 -0.2200  0.2479
  604BOLB   C3B14483   8.947  14.719  20.818 -0.1211 -0.2104 -0.1518
  604BOLB   C4B14484   8.998  14.765  21.281  0.1240 -0.2606 -0.2305
  604BOLB   NC214485   6.302  14.611  21.242 -0.1307 -0.0072 -0.0349
  604BOLB   PO214486   6.244  15.047  21.166  0.0394  0.3551 -0.0230
  604BOLB   GL314487   6.570  14.919  20.938  0.2085  0.0266 -0.0423
  604BOLB   GL414488   6.648  14.602  20.884 -0.0796  0.0787 -0.1034
  604BOLB   C1C14489   6.963  15.000  20.913  0.0429  0.0702 -0.2282
  604BOLB   C2C14490   7.352  14.751  20.717  0.0925  0.0212  0.3843
  604BOLB   C3C14491   7.730  14.620  20.805 -0.2606  0.1932 -0.0208
  604BOLB   C4C14492   8.120  14.509  20.726  0.1296 -0.0473  0.0241
  604BOLB   C1D14493   6.950  14.403  20.950 -0.2502  0.0269  0.2641
  604BOLB   C2D14494   7.032  14.144  21.331  0.1726  0.1837 -0.5690
  604BOLB   C3D14495   7.398  13.976  21.614 -0.1511 -0.3763 -0.1503
  604BOLB   C4D14496   7.885  13.931  21.424 -0.0943 -0.2527 -0.5349
  605BOLB   NC114497  10.398   9.148  21.111 -0.0451  0.1691 -0.1875
  605BOLB   PO114498  10.387   9.614  21.007  0.2083  0.0472  0.4729
  605BOLB   GL114499  10.001   9.784  21.173 -0.1914  0.1701 -0.2561
  605BOLB   GL214500   9.935   9.499  21.176 -0.0592 -0.0870  0.3691
  605BOLB   C1A14501   9.698   9.958  21.255 -0.2197 -0.1040 -0.0774
  605BOLB   C2A14502   9.382   9.940  21.658  0.3092 -0.1763 -0.1601
  605BOLB   C3A14503   9.096   9.822  22.013  0.2628  0.2688  0.0711
  605BOLB   C4A14504   8.747   9.672  22.234  0.0731  0.0296 -0.1377
  605BOLB   C1B14505   9.754   9.293  21.547  0.1644 -0.0050  0.0753
  605BOLB   C2B14506   9.381   9.451  21.812  0.1293 -0.3135 -0.1181
  605BOLB   C3B14507   8.953   9.271  21.926  0.1430 -0.1687 -0.1530
  605BOLB   C4B14508   8.863   9.022  22.278  0.1077  0.3004  0.0755
  605BOLB   NC214509   6.812   9.501  23.222 -0.1248  0.0600  0.0746
  605BOLB   PO214510   6.835   9.130  22.999  0.2669 -0.0704 -0.0301
  605BOLB   GL314511   6.900   9.400  22.682  0.3662  0.1321 -0.4917
  605BOLB   GL414512   6.710   9.636  22.526  0.2780 -0.1684 -0.1072
  605BOLB   C1C14513   7.188   9.580  22.548 -0.0770  0.0502 -0.2009
  605BOLB   C2C14514   7.571   9.780  22.462 -0.1408 -0.1550 -0.0011
  605BOLB   C3C14515   7.932   9.969  22.233 -0.2032 -0.0928  0.0883
  605BOLB   C4C14516   8.360  10.017  22.273  0.2968 -0.1262  0.2625
  605BOLB   C1D14517   6.919   9.616  22.032  0.1108 -0.3387  0.0656
  605BOLB   C2D14518   7.125   9.357  21.627  0.0872 -0.1092  0.2181
  605BOLB   C3D14519   7.088   9.230  21.230  0.1087  0.2499 -0.0374
  605BOLB   C4D14520   7.019   9.253  20.847 -0.1756 -0.0998  0.0615
  606BOLB   NC114521  11.444   9.126  12.589  0.3880 -0.3548 -0.1519
  606BOLB   PO114522  11.119   9.003  12.340 -0.0958 -0.1547 -0.0547
  606BOLB   GL114523  10.783   8.880  12.077  0.2018  0.0654  0.1395
  606BOLB   GL214524  10.809   8.768  11.763  0.2446  0.1324  0.1015
  606BOLB   C1A14525  10.386   8.809  11.989  0.0196 -0.0831  0.0693
  606BOLB   C2A14526  10.071   8.608  11.712  0.0329 -0.4649  0.0654
  606BOLB   C3A14527   9.877   8.632  11.408 -0.0053 -0.0729  0.0648
  606BOLB   C4A14528   9.798   8.610  11.000  0.0753 -0.0196  0.3423
  606BOLB   C1B14529  10.483   8.554  11.417  0.0753 -0.0313 -0.2340
  606BOLB   C2B14530  10.205   8.285  11.131 -0.1254 -0.0752 -0.0474
  606BOLB   C3B14531   9.943   7.951  10.994 -0.1841  0.1507 -0.3302
  606BOLB   C4B14532   9.680   7.657  10.844 -0.2030  0.1837 -0.4219
  606BOLB   NC214533  12.018   9.831  11.215 -0.2057 -0.1084 -0.1104
  606BOLB   PO214534  11.711   9.678  11.327  0.0442 -0.1991 -0.0938
  606BOLB   GL314535  11.401   9.581  11.050 -0.0421 -0.1763  0.3524
  606BOLB   GL414536  11.406   9.332  10.891  0.0105 -0.1969  0.1493
  606BOLB   C1C14537  10.986   9.551  10.843  0.1280 -0.1315  0.2373
  606BOLB   C2C14538  10.655   9.330  10.801 -0.1592 -0.1048  0.1286
  606BOLB   C3C14539  10.430   9.079  10.574 -0.1886 -0.0774  0.1741
  606BOLB   C4C14540  10.069   8.715  10.689  0.0487 -0.3161  0.0059
  606BOLB   C1D14541  11.075   9.086  10.644 -0.0960 -0.0816 -0.2795
  606BOLB   C2D14542  10.826   8.782  10.431 -0.1574  0.2020  0.3380
  606BOLB   C3D14543  10.513   8.488  10.300  0.1344  0.1058  0.1654
  606BOLB   C4D14544  10.356   8.343   9.863 -0.3363  0.0592  0.2171
  607BOLB   NC114545  11.577   7.613   0.997 -0.1220 -0.1270  0.2297
  607BOLB   PO114546  11.874   7.401   1.145 -0.1743 -0.1239 -0.2215
  607BOLB   GL114547  11.733   7.751   1.463 -0.0237  0.3012  0.1735
  607BOLB   GL214548  11.493   8.013   1.423 -0.2182  0.1208 -0.0784
  607BOLB   C1A14549  11.868   7.757   1.954  0.0413  0.1121  0.2542
  607BOLB   C2A14550  11.890   7.822   2.400 -0.1265 -0.0285 -0.1884
  607BOLB   C3A14551  11.984   8.205   2.652 -0.1666  0.3007 -0.0183
  607BOLB   C4A14552  11.781   8.686   2.585  0.2192  0.4058 -0.1172
  607BOLB   C1B14553  11.473   8.206   1.834  0.2446  0.0888 -0.0488
  607BOLB   C2B14554  11.298   8.560   2.073 -0.2433  0.0525 -0.3134
  607BOLB   C3B14555  11.274   8.544   2.511  0.0779  0.0865  0.0886
  607BOLB   C4B14556  11.028   8.634   2.879  0.0626 -0.3325 -0.0960
  607BOLB   NC214557  10.364   9.825   0.751  0.0669 -0.3910  0.2412
  607BOLB   PO214558  10.545  10.167   1.087 -0.5490 -0.1028 -0.2867
  607BOLB   GL314559  10.501  10.009   1.500  0.3429  0.0994 -0.2041
  607BOLB   GL414560  10.300  10.230   1.673  0.1750  0.0957 -0.0098
  607BOLB   C1C14561  10.472   9.715   1.896  0.1161 -0.1547 -0.0617
  607BOLB   C2C14562  10.746   9.480   2.220 -0.2942  0.0639 -0.0232
  607BOLB   C3C14563  11.138   9.047   2.102  0.1406 -0.2617 -0.0114
  607BOLB   C4C14564  11.458   8.986   2.323 -0.0323  0.2163 -0.1385
  607BOLB   C1D14565  10.310  10.142   2.171 -0.0071  0.0054  0.3890
  607BOLB   C2D14566  10.438   9.821   2.519  0.2606  0.1437 -0.2083
  607BOLB   C3D14567  10.169   9.635   2.761 -0.0890 -0.2679  0.0840
  607BOLB   C4D14568   9.932   9.664   3.158  0.0309 -0.1453 -0.1024
  608BOLB   NC114569  24.245  11.245  13.922  0.0000  0.1006  0.0647
  608BOLB   PO114570  24.210  10.794  13.879 -0.1422 -0.2709  0.0431
  608BOLB   GL114571  24.735  10.883  13.755 -0.0663 -0.0564  0.2196
  608BOLB   GL214572  24.807  11.056  14.044  0.0024 -0.1037  0.2088
  608BOLB   C1A14573  25.147  10.936  13.713  0.1160  0.0375  0.0429
  608BOLB   C2A14574  25.581  10.887  13.825 -0.1904 -0.1330 -0.3184
  608BOLB   C3A14575  25.659  11.253  14.099 -0.0879  0.0537  0.2414
  608BOLB   C4A14576  26.112  11.536  14.157  0.2685 -0.0031  0.0038
  608BOLB   C1B14577  25.097  10.924  14.206  0.2413 -0.1470 -0.0217
  608BOLB   C2B14578  25.464  10.922  14.440 -0.3219 -0.5763  0.3581
  608BOLB   C3B14579  25.854  11.144  14.592  0.0950 -0.0981 -0.0552
  608BOLB   C4B14580  26.338  11.200  14.595  0.0786  0.0866 -0.2117
  608BOLB   NC214581  28.301  12.529  13.717 -0.1290  0.0723  0.0430
  608BOLB   PO214582  28.160  12.649  13.236  0.0092  0.0248  0.2615
  608BOLB   GL314583  27.776  12.491  13.227 -0.1296 -0.0848  0.4436
  608BOLB   GL414584  27.778  12.362  13.486  0.0491  0.0138 -0.2756
  608BOLB   C1C14585  27.305  12.296  13.237  0.0191 -0.0970  0.2083
  608BOLB   C2C14586  26.931  12.264  13.473  0.2873  0.0878 -0.2820
  608BOLB   C3C14587  26.673  12.025  13.652  0.0673  0.0501 -0.2287
  608BOLB   C4C14588  26.487  11.689  14.027 -0.1555  0.0654  0.2032
  608BOLB   C1D14589  27.561  12.403  13.886  0.0860 -0.0914 -0.1126
  608BOLB   C2D14590  27.123  12.162  14.004  0.1967 -0.2849  0.3794
  608BOLB   C3D14591  26.840  11.967  14.240  0.0717  0.3018 -0.1062
  608BOLB   C4D14592  27.042  11.894  14.597  0.0698  0.3014  0.1786
  609BOLB   NC114593  23.233  12.143  12.257  0.0340 -0.2443  0.0077
  609BOLB   PO114594  23.497  12.522  12.464 -0.0336  0.2183  0.0114
  609BOLB   GL114595  23.763  12.817  12.509 -0.0692  0.0420  0.0675
  609BOLB   GL214596  23.858  13.058  12.533 -0.0385  0.0488 -0.0970
  609BOLB   C1A14597  24.290  12.862  12.523 -0.1354  0.0899  0.1883
  609BOLB   C2A14598  24.629  13.278  12.526  0.0871  0.0360  0.0628
  609BOLB   C3A14599  24.757  13.627  12.270 -0.0912 -0.1042 -0.0620
  609BOLB   C4A14600  24.966  13.952  12.046  0.0401 -0.3144 -0.4270
  609BOLB   C1B14601  24.006  13.293  12.140  0.3052  0.3177  0.1178
  609BOLB   C2B14602  24.128  13.157  11.758  0.1571 -0.2543  0.2066
  609BOLB   C3B14603  24.336  13.162  11.383  0.2332  0.0422 -0.1791
  609BOLB   C4B14604  24.563  13.242  11.046  0.2007  0.1232 -0.1100
  609BOLB   NC214605  26.853  13.982  10.793 -0.0025  0.2973 -0.1798
  609BOLB   PO214606  27.115  14.198  11.097 -0.1108  0.1653 -0.1360
  609BOLB   GL314607  26.695  14.357  11.093 -0.0871 -0.3465 -0.1226
  609BOLB   GL414608  26.628  14.139  11.212  0.0168 -0.0810  0.0443
  609BOLB   C1C14609  26.267  14.365  10.976  0.1651 -0.1584 -0.1553
  609BOLB   C2C14610  25.929  14.253  11.286 -0.1482  0.0631  0.4499
  609BOLB   C3C14611  25.498  14.067  11.436 -0.0633 -0.0474  0.1741
  609BOLB   C4C14612  25.172  13.845  11.609 -0.0174  0.1740  0.0364
  609BOLB   C1D14613  26.375  13.961  11.452  0.1398 -0.0656  0.3265
  609BOLB   C2D14614  26.057  13.720  11.637 -0.0572 -0.2327  0.0482
  609BOLB   C3D14615  25.616  13.657  11.750 -0.0340 -0.1917  0.2850
  609BOLB   C4D14616  25.289  13.445  11.974 -0.0639 -0.1121 -0.0121
  610BOLB   NC114617  17.610  12.771   8.262 -0.1571  0.3304 -0.3425
  610BOLB   PO114618  17.698  13.185   8.282  0.0305 -0.4250  0.0113
  610BOLB   GL114619  17.544  13.377   7.942 -0.1485 -0.1650  0.3428
  610BOLB   GL214620  17.435  13.648   7.885 -0.0645 -0.0713  0.0553
  610BOLB   C1A14621  17.588  13.268   7.528  0.2850 -0.1962 -0.3311
  610BOLB   C2A14622  17.594  13.189   7.062  0.0134  0.0930 -0.0494
  610BOLB   C3A14623  17.292  13.615   6.768  0.2918 -0.1034 -0.0217
  610BOLB   C4A14624  17.389  13.657   6.297  0.1197  0.2119 -0.0346
  610BOLB   C1B14625  17.258  13.891   7.606 -0.2471 -0.3908  0.0369
  610BOLB   C2B14626  17.304  14.143   7.222 -0.1042 -0.0818 -0.0418
  610BOLB   C3B14627  17.592  14.068   6.895  0.2624  0.0981 -0.0735
  610BOLB   C4B14628  17.728  13.938   6.558  0.0665  0.1056 -0.2667
  610BOLB   NC214629  16.691  14.733   4.357 -0.2007 -0.0257  0.0755
  610BOLB   PO214630  17.185  14.821   4.348  0.0365 -0.0107 -0.2015
  610BOLB   GL314631  17.156  14.853   4.699  0.3629  0.0018 -0.3004
  610BOLB   GL414632  17.078  14.997   5.015 -0.1385 -0.3286  0.0165
  610BOLB   C1C14633  17.385  14.587   4.986 -0.0076  0.2652  0.0083
  610BOLB   C2C14634  17.335  14.164   5.182 -0.1973 -0.5263 -0.1051
  610BOLB   C3C14635  17.281  13.947   5.516  0.0349  0.2131  0.0949
  610BOLB   C4C14636  17.314  13.749   5.896 -0.1144  0.0698 -0.0625
  610BOLB   C1D14637  17.074  14.987   5.586 -0.1790 -0.3481  0.0723
  610BOLB   C2D14638  17.028  14.786   5.926 -0.1088 -0.2626 -0.0707
  610BOLB   C3D14639  16.977  14.613   6.330  0.1928 -0.1479 -0.0036
  610BOLB   C4D14640  16.892  14.594   6.830 -0.2917 -0.1602 -0.2523
  611BOLB   NC114641  13.891   5.713  21.879 -0.2015 -0.5594 -0.1703
  611BOLB   PO114642  14.064   6.012  22.147  0.0490 -0.0498  0.4030
  611BOLB   GL114643  13.886   5.752  22.386  0.0562 -0.1272  0.2094
  611BOLB   GL214644  13.886   5.348  22.237 -0.0825 -0.0588 -0.1753
  611BOLB   C1A14645  13.716   5.429  22.657 -0.3840  0.0706  0.0306
  611BOLB   C2A14646  13.539   5.396  22.989  0.0249  0.2531 -0.2499
  611BOLB   C3A14647  13.430   5.298  23.454 -0.1336  0.1325  0.0061
  611BOLB   C4A14648  13.715   5.416  23.770 -0.0996 -0.0984  0.1774
  611BOLB   C1B14649  13.670   4.987  22.321  0.1530  0.4031  0.0390
  611BOLB   C2B14650  13.494   4.618  22.550  0.3571  0.2337 -0.0333
  611BOLB   C3B14651  13.289   4.388  22.848  0.1102  0.0298 -0.0493
  611BOLB   C4B14652  13.355   4.064  23.163 -0.3260  0.4549 -0.4207
  611BOLB   NC214653  14.314   4.665  25.901  0.3903  0.1423  0.2531
  611BOLB   PO214654  14.522   4.653  25.621  0.2728 -0.2088  0.0889
  611BOLB   GL314655  14.251   4.881  25.488  0.0403  0.2746 -0.0052
  611BOLB   GL414656  14.049   4.823  25.454  0.0717  0.2328  0.1505
  611BOLB   C1C14657  14.375   5.082  25.105 -0.0066  0.0456 -0.5135
  611BOLB   C2C14658  14.340   5.390  24.888  0.0849 -0.0522  0.1426
  611BOLB   C3C14659  14.290   5.396  24.480 -0.0992 -0.3117 -0.1179
  611BOLB   C4C14660  13.989   5.412  24.157 -0.0114 -0.1020  0.0717
  611BOLB   C1D14661  13.811   5.151  25.318 -0.2340  0.1408 -0.0297
  611BOLB   C2D14662  13.828   5.522  25.001 -0.1383  0.4397 -0.3143
  611BOLB   C3D14663  13.648   5.835  24.713  0.0005 -0.3298  0.0089
  611BOLB   C4D14664  13.361   5.830  25.062  0.2133  0.1365  0.1946
  612BOLB   NC114665  23.027   6.181  17.506 -0.0425 -0.0925  0.0718
  612BOLB   PO114666  23.087   5.871  17.093 -0.1671  0.1714  0.3394
  612BOLB   GL114667  23.391   5.797  17.364  0.0931  0.2019 -0.1742
  612BOLB   GL214668  23.498   5.524  17.451  0.0589 -0.1835 -0.1961
  612BOLB   C1A14669  23.839   5.958  17.563  0.1218  0.2112  0.0048
  612BOLB   C2A14670  24.162   5.803  17.762  0.3280  0.0684  0.0465
  612BOLB   C3A14671  24.414   5.659  17.997 -0.0895 -0.0425  0.1976
  612BOLB   C4A14672  24.761   5.404  18.124 -0.2715  0.2821  0.4698
  612BOLB   C1B14673  23.894   5.440  17.499 -0.2223 -0.0144 -0.3670
  612BOLB   C2B14674  24.287   5.342  17.625  0.0313  0.0896 -0.2660
  612BOLB   C3B14675  24.702   5.479  17.623 -0.0265  0.0461  0.1571
  612BOLB   C4B14676  25.152   5.554  17.524 -0.1707 -0.1988  0.2010
  612BOLB   NC214677  26.752   4.174  17.290 -0.2366  0.0094 -0.2273
  612BOLB   PO214678  26.684   4.095  17.749  0.0196  0.1273 -0.2754
  612BOLB   GL314679  26.408   4.346  17.736 -0.1887  0.1030  0.0970
  612BOLB   GL414680  26.067   4.336  17.907  0.3262  0.3210  0.1682
  612BOLB   C1C14681  26.325   4.742  17.844 -0.0534  0.0348  0.0701
  612BOLB   C2C14682  25.807   4.896  17.823  0.1275 -0.2008 -0.1634
  612BOLB   C3C14683  25.557   5.247  17.971 -0.1164 -0.2540  0.0440
  612BOLB   C4C14684  25.191   5.374  18.097 -0.0958  0.1250  0.1312
  612BOLB   C1D14685  26.009   4.482  17.526  0.0749  0.0264 -0.2005
  612BOLB   C2D14686  25.974   4.820  17.189  0.1232 -0.0490 -0.0325
  612BOLB   C3D14687  25.809   5.092  16.849 -0.2876  0.2328 -0.2696
  612BOLB   C4D14688  25.554   5.066  16.634 -0.2084  0.0052  0.3024
  613BOLB   NC114689  23.428  13.778  18.909 -0.1364 -0.1031  0.2510
  613BOLB   PO114690  23.534  14.098  18.695  0.0024  0.1780 -0.0907
  613BOLB   GL114691  23.924  14.223  18.737 -0.3165 -0.1027  0.0880
  613BOLB   GL214692  24.064  14.489  18.976  0.3129  0.3749 -0.1682
  613BOLB   C1A14693  24.381  14.215  18.722 -0.2186 -0.3080 -0.2314
  613BOLB   C2A14694  24.803  14.224  18.538  0.0626  0.3916  0.1694
  613BOLB   C3A14695  25.100  14.319  18.286  0.1909  0.0258 -0.0426
  613BOLB   C4A14696  25.588  14.167  18.306  0.0642 -0.2712  0.3338
  613BOLB   C1B14697  24.432  14.714  18.819 -0.0654  0.1209 -0.0031
  613BOLB   C2B14698  24.666  15.130  18.853  0.0977 -0.3733  0.1222
  613BOLB   C3B14699  24.930  15.361  19.050 -0.0192 -0.1816 -0.1896
  613BOLB   C4B14700  25.131  15.713  19.324  0.4737  0.0106  0.0197
  613BOLB   NC214701  27.637  14.731  18.632  0.0847  0.0686 -0.1102
  613BOLB   PO214702  27.787  14.410  18.434 -0.2026 -0.1079  0.0358
  613BOLB   GL314703  27.412  14.410  18.204  0.2258 -0.0123 -0.1531
  613BOLB   GL414704  27.291  14.767  18.237 -0.1241 -0.1429 -0.0642
  613BOLB   C1C14705  27.095  14.216  18.100 -0.1665  0.0133  0.0724
  613BOLB   C2C14706  26.833  14.013  18.343  0.0953 -0.1912  0.1401
  613BOLB   C3C14707  26.440  14.181  18.257  0.0470  0.2368 -0.0182
  613BOLB   C4C14708  26.033  14.081  18.402 -0.1577  0.0337 -0.1490
  613BOLB   C1D14709  27.035  14.989  18.292  0.1636 -0.2549  0.1019
  613BOLB   C2D14710  26.555  15.095  18.401 -0.0189 -0.1177  0.2292
  613BOLB   C3D14711  26.335  15.114  18.812  0.0100  0.2082 -0.0140
  613BOLB   C4D14712  25.876  15.159  18.920  0.0308 -0.0844 -0.0030
  614BOLB   NC114713  12.195   5.803  14.081 -0.0650  0.0615 -0.1195
  614BOLB   PO114714  11.932   6.028  13.771 -0.1256  0.3116 -0.0124
  614BOLB   GL114715  11.548   5.863  13.497  0.0255  0.1396  0.1634
  614BOLB   GL214716  11.867   5.581  13.515  0.3102  0.0928  0.1510
  614BOLB   C1A14717  11.190   5.718  13.333  0.2129 -0.2964  0.0991
  614BOLB   C2A14718  10.750   5.730  13.135 -0.0890  0.0466 -0.4062
  614BOLB   C3A14719  10.363   5.674  12.802  0.0387  0.0053  0.0837
  614BOLB   C4A14720  10.302   5.678  12.373  0.0528  0.0529  0.0099
  614BOLB   C1B14721  11.489   5.273  13.365 -0.3301 -0.1192 -0.1618
  614BOLB   C2B14722  11.124   5.304  13.059 -0.1851  0.2161  0.1510
  614BOLB   C3B14723  10.767   5.214  12.794  0.0442 -0.1591  0.3178
  614BOLB   C4B14724  10.361   4.938  12.801 -0.2125  0.2002 -0.1018
  614BOLB   NC214725  12.286   6.199  12.713 -0.3476 -0.2752 -0.3659
  614BOLB   PO214726  12.300   5.893  13.037  0.1402 -0.0550 -0.0611
  614BOLB   GL314727  11.987   5.744  13.012 -0.2462 -0.5348 -0.0644
  614BOLB   GL414728  12.023   5.549  12.692  0.1815 -0.2252 -0.2594
  614BOLB   C1C14729  11.555   5.547  12.947 -0.1417  0.0797  0.0515
  614BOLB   C2C14730  11.300   5.341  12.613 -0.2184  0.2034  0.0357
  614BOLB   C3C14731  11.089   5.325  12.279 -0.0532  0.0486 -0.0420
  614BOLB   C4C14732  10.672   5.505  11.987  0.0514  0.0404  0.2626
  614BOLB   C1D14733  11.756   5.338  12.478 -0.1914  0.1761  0.2445
  614BOLB   C2D14734  11.663   4.984  12.333 -0.0242 -0.1740  0.1292
  614BOLB   C3D14735  11.552   4.697  11.906  0.0358 -0.0618 -0.1122
  614BOLB   C4D14736  11.677   4.244  11.620 -0.1138 -0.0277  0.2075
  615BOLB   NC114737  22.452   5.423  14.714  0.2287  0.1962 -0.0296
  615BOLB   PO114738  22.672   5.470  14.979 -0.0727  0.0768 -0.2941
  615BOLB   GL114739  23.085   5.249  14.831 -0.1648  0.0527 -0.0193
  615BOLB   GL214740  23.347   5.235  15.064  0.0298  0.1276  0.1165
  615BOLB   C1A14741  23.322   4.929  14.645 -0.0754  0.0808  0.0219
  615BOLB   C2A14742  23.595   4.595  14.412 -0.4601  0.0093 -0.0781
  615BOLB   C3A14743  23.799   4.254  14.376  0.2924 -0.2708 -0.0230
  615BOLB   C4A14744  23.958   3.970  14.079  0.2254  0.2656  0.1928
  615BOLB   C1B14745  23.700   5.091  15.290 -0.0106  0.1142  0.1742
  615BOLB   C2B14746  23.998   4.918  15.492 -0.1683 -0.3985 -0.3342
  615BOLB   C3B14747  24.408   4.800  15.611  0.0047 -0.0130  0.2814
  615BOLB   C4B14748  24.774   4.659  15.533  0.0180 -0.2982  0.1679
  615BOLB   NC214749  25.321   3.415  12.195  0.2921 -0.0778 -0.2037
  615BOLB   PO214750  25.207   3.000  12.138  0.0700 -0.1892 -0.1145
  615BOLB   GL314751  24.811   3.094  12.332 -0.0236 -0.0400 -0.0090
  615BOLB   GL414752  24.580   2.793  12.185 -0.1818 -0.0836  0.2958
  615BOLB   C1C14753  24.443   3.397  12.423  0.2952  0.0860 -0.0205
  615BOLB   C2C14754  24.197   3.732  12.752 -0.1060  0.0314 -0.2277
  615BOLB   C3C14755  23.975   3.617  13.251  0.0870  0.2459  0.2457
  615BOLB   C4C14756  23.842   3.773  13.719 -0.0322  0.0214 -0.1590
  615BOLB   C1D14757  24.342   2.655  12.459 -0.0975  0.0494 -0.1589
  615BOLB   C2D14758  24.049   2.677  12.785 -0.2180 -0.3093 -0.1631
  615BOLB   C3D14759  23.729   3.007  12.809  0.2306 -0.0107  0.1638
  615BOLB   C4D14760  23.641   3.374  12.918  0.3106  0.3541 -0.0741
  616BOLB   NC114761  22.196  11.528  21.485  0.0416  0.0649  0.0612
  616BOLB   PO114762  22.296  11.916  21.285 -0.1536  0.1323 -0.4152
  616BOLB   GL114763  22.535  12.109  21.537  0.0306  0.1379  0.1209
  616BOLB   GL214764  22.407  11.940  21.798 -0.1387 -0.0248  0.0827
  616BOLB   C1A14765  22.807  12.347  21.707 -0.1057  0.0160 -0.0369
  616BOLB   C2A14766  23.085  12.491  21.975 -0.1650 -0.0581 -0.3195
  616BOLB   C3A14767  23.367  12.827  22.132  0.0135 -0.1127  0.3579
  616BOLB   C4A14768  23.323  13.296  22.185  0.1244  0.0062 -0.1985
  616BOLB   C1B14769  22.650  12.018  22.057 -0.2417  0.0467  0.0815
  616BOLB   C2B14770  22.952  12.173  22.368  0.1004  0.2268 -0.3943
  616BOLB   C3B14771  23.120  12.517  22.665  0.1641 -0.1438 -0.0350
  616BOLB   C4B14772  23.287  12.733  22.939  0.0995  0.0851  0.0259
  616BOLB   NC214773  24.449  14.757  24.024  0.2899 -0.0588 -0.1626
  616BOLB   PO214774  24.748  14.514  23.761  0.2365 -0.1835  0.0121
  616BOLB   GL314775  24.343  14.347  23.584  0.3111 -0.0251 -0.4430
  616BOLB   GL414776  24.402  14.084  23.455  0.0282  0.2997  0.1685
  616BOLB   C1C14777  23.838  14.092  23.455 -0.0026  0.0797  0.2857
  616BOLB   C2C14778  23.519  13.798  23.324  0.1065 -0.0250  0.1197
  616BOLB   C3C14779  23.472  13.754  22.908 -0.1794 -0.1681  0.2858
  616BOLB   C4C14780  23.375  13.638  22.475  0.0512  0.1748  0.0324
  616BOLB   C1D14781  24.144  14.088  23.058 -0.0592 -0.1363  0.0803
  616BOLB   C2D14782  23.803  14.193  22.861 -0.1953 -0.2434  0.0911
  616BOLB   C3D14783  23.490  14.335  22.704 -0.0197  0.2247  0.2946
  616BOLB   C4D14784  23.195  14.513  22.335 -0.2262 -0.1258 -0.0726
  617BOLB   NC114785  12.707   8.089   0.346  0.0505 -0.1233 -0.2042
  617BOLB   PO114786  12.992   8.112   0.784 -0.1696  0.1721  0.2712
  617BOLB   GL114787  12.991   7.856   1.119 -0.2237 -0.1550  0.0537
  617BOLB   GL214788  12.752   7.775   1.328  0.1263 -0.0554 -0.0093
  617BOLB   C1A14789  13.204   7.678   1.488  0.3199  0.0552  0.0761
  617BOLB   C2A14790  13.363   7.538   1.858 -0.1325 -0.1591  0.3597
  617BOLB   C3A14791  13.679   7.466   2.085  0.1282  0.0147 -0.0834
  617BOLB   C4A14792  14.072   7.737   2.186  0.1404  0.1313  0.1002
  617BOLB   C1B14793  12.578   7.790   1.667 -0.0028 -0.1259  0.1810
  617BOLB   C2B14794  12.330   7.707   2.142 -0.0487 -0.0140 -0.0368
  617BOLB   C3B14795  12.338   7.479   2.554 -0.1437 -0.0515 -0.0102
  617BOLB   C4B14796  12.272   7.365   2.967  0.0110 -0.1172 -0.1496
  617BOLB   NC214797  15.524   7.981   0.476  0.0465 -0.4169  0.0819
  617BOLB   PO214798  15.759   8.249   0.731  0.5493  0.0602  0.1728
  617BOLB   GL314799  15.789   8.059   1.127  0.0128  0.2384  0.0321
  617BOLB   GL414800  16.086   7.890   1.301  0.0782  0.2007  0.2826
  617BOLB   C1C14801  15.592   7.907   1.571  0.2106  0.2471 -0.1285
  617BOLB   C2C14802  15.267   7.764   1.869  0.3267 -0.3325 -0.1014
  617BOLB   C3C14803  14.944   7.845   2.121 -0.5229  0.2286 -0.0063
  617BOLB   C4C14804  14.532   7.778   2.277  0.1346  0.1586  0.1624
  617BOLB   C1D14805  16.008   7.542   1.550  0.0622  0.2263 -0.2954
  617BOLB   C2D14806  15.660   7.452   1.782  0.0104  0.0129 -0.3208
  617BOLB   C3D14807  15.400   7.317   2.141  0.1061 -0.0838  0.0512
  617BOLB   C4D14808  15.084   7.406   2.379  0.0449 -0.2411  0.1184
  618BOLB   NC114809  14.651  17.085  20.482  0.0988  0.2507  0.1002
  618BOLB   PO114810  14.973  17.444  20.258  0.1589  0.0503 -0.0681
  618BOLB   GL114811  14.725  17.751  20.513  0.2255  0.1483 -0.1985
  618BOLB   GL214812  14.444  17.887  20.350 -0.4030  0.2430 -0.0561
  618BOLB   C1A14813  14.817  18.131  20.927 -0.0999  0.2102  0.3938
  618BOLB   C2A14814  14.860  18.547  21.201  0.1864  0.0096  0.3492
  618BOLB   C3A14815  14.826  18.943  21.344  0.0919  0.0772  0.0734
  618BOLB   C4A14816  14.741  19.423  21.405 -0.0530  0.0027  0.0113
  618BOLB   C1B14817  14.173  18.203  20.413 -0.2139 -0.1883 -0.3629
  618BOLB   C2B14818  14.152  18.562  20.656  0.0169 -0.1036  0.2062
  618BOLB   C3B14819  14.279  18.950  20.778 -0.2603 -0.0001  0.0145
  618BOLB   C4B14820  14.324  19.259  21.084  0.1668 -0.0843  0.4171
  618BOLB   NC214821  15.397  21.205  22.011  0.3006  0.0808  0.0015
  618BOLB   PO214822  15.554  21.067  22.431  0.0858  0.2702  0.3104
  618BOLB   GL314823  15.300  20.753  22.350  0.1074 -0.1503 -0.0507
  618BOLB   GL414824  14.970  20.553  22.475 -0.3495  0.2069  0.1284
  618BOLB   C1C14825  15.192  20.671  21.841 -0.0912 -0.0214 -0.4368
  618BOLB   C2C14826  14.829  20.639  21.568  0.0684 -0.0599 -0.1904
  618BOLB   C3C14827  14.695  20.298  21.265 -0.0967  0.1304 -0.2390
  618BOLB   C4C14828  14.705  19.796  21.175  0.1869  0.2939 -0.1012
  618BOLB   C1D14829  14.675  20.251  22.191 -0.0723  0.0921  0.1049
  618BOLB   C2D14830  14.837  20.026  21.784  0.2485 -0.0349  0.2854
  618BOLB   C3D14831  14.466  19.973  21.544  0.1968  0.0568  0.1197
  618BOLB   C4D14832  14.208  19.695  21.336  0.3662 -0.2434  0.2284
  619BOLB   NC114833  24.344  11.896  14.651 -0.2667  0.0396 -0.2286
  619BOLB   PO114834  24.501  12.196  14.287  0.0829  0.2604 -0.2693
  619BOLB   GL114835  24.746  12.372  14.027  0.0233 -0.1613 -0.3737
  619BOLB   GL214836  24.843  12.648  14.140  0.1399  0.3400  0.1870
  619BOLB   C1A14837  25.096  12.382  13.758  0.2099 -0.0419  0.0733
  619BOLB   C2A14838  25.039  12.198  13.358 -0.2296  0.2993  0.1344
  619BOLB   C3A14839  25.044  12.416  12.989  0.1981 -0.3375 -0.0692
  619BOLB   C4A14840  25.364  12.522  12.595  0.1354 -0.0420  0.4091
  619BOLB   C1B14841  25.045  12.480  14.416 -0.1186  0.1914 -0.1818
  619BOLB   C2B14842  25.381  12.655  14.462  0.0488 -0.0033  0.0425
  619BOLB   C3B14843  25.762  12.571  14.306  0.3271  0.3420 -0.1180
  619BOLB   C4B14844  26.233  12.768  14.063 -0.3643 -0.5155 -0.0884
  619BOLB   NC214845  27.627  12.912  12.518  0.0660 -0.0450  0.1133
  619BOLB   PO214846  27.755  12.578  12.238 -0.3462  0.2779 -0.2855
  619BOLB   GL314847  27.265  12.802  12.216 -0.0930  0.1297  0.1537
  619BOLB   GL414848  27.160  12.560  11.961  0.1337 -0.0781 -0.2525
  619BOLB   C1C14849  26.861  13.043  12.283  0.2788  0.2248  0.0553
  619BOLB   C2C14850  26.463  12.797  12.311 -0.1978 -0.0760  0.2455
  619BOLB   C3C14851  26.106  12.933  12.291 -0.0493 -0.0250  0.0966
  619BOLB   C4C14852  25.839  12.775  12.608  0.0415 -0.1381 -0.1107
  619BOLB   C1D14853  26.740  12.717  11.796  0.0710 -0.0118  0.1181
  619BOLB   C2D14854  26.343  12.881  11.694  0.1948 -0.2201 -0.0715
  619BOLB   C3D14855  25.893  12.841  11.756  0.1336  0.1387 -0.2335
  619BOLB   C4D14856  25.705  12.614  12.155  0.1225  0.0787  0.1252
  620BOLB   NC114857  19.693  11.769   9.186  0.0524  0.1071  0.2937
  620BOLB   PO114858  19.954  11.399   9.327 -0.1208 -0.1825 -0.5297
  620BOLB   GL114859  20.301  11.219   9.119  0.0030 -0.0129  0.2574
  620BOLB   GL214860  20.323  10.855   9.313  0.1794  0.4421  0.1375
  620BOLB   C1A14861  20.573  11.111   8.874  0.1951 -0.1198 -0.1442
  620BOLB   C2A14862  20.898  11.018   8.558  0.2284  0.0849 -0.1979
  620BOLB   C3A14863  20.819  10.874   8.115  0.0340 -0.0311 -0.1375
  620BOLB   C4A14864  20.847  10.603   7.726 -0.0615 -0.3059 -0.1756
  620BOLB   C1B14865  20.354  10.639   8.898 -0.4172  0.2224  0.0379
  620BOLB   C2B14866  20.592  10.585   8.458 -0.0301 -0.1571 -0.0254
  620BOLB   C3B14867  20.507  10.287   8.046  0.2432 -0.2356 -0.2941
  620BOLB   C4B14868  20.444   9.934   7.808 -0.0173  0.0062 -0.1847
  620BOLB   NC214869  21.932   9.825   5.498  0.0729 -0.0159  0.0665
  620BOLB   PO214870  22.022   9.618   5.919  0.0626  0.0691  0.1081
  620BOLB   GL314871  21.890   9.814   6.258 -0.1530 -0.0448  0.0434
  620BOLB   GL414872  22.198  10.000   6.465 -0.1834 -0.1993  0.3056
  620BOLB   C1C14873  21.452   9.972   6.298  0.0237 -0.0983 -0.2008
  620BOLB   C2C14874  21.207  10.147   6.522 -0.0090  0.0099  0.0857
  620BOLB   C3C14875  21.040  10.428   6.859  0.1173  0.3280  0.1901
  620BOLB   C4C14876  21.066  10.650   7.394 -0.0650  0.2128 -0.3238
  620BOLB   C1D14877  22.156  10.315   6.727 -0.0573 -0.0529  0.1241
  620BOLB   C2D14878  22.024  10.628   7.020 -0.1041 -0.0573 -0.2707
  620BOLB   C3D14879  22.169  11.092   7.225  0.0729  0.2310  0.0861
  620BOLB   C4D14880  21.919  11.442   7.379 -0.0969  0.0604 -0.1936
  621BOLB   NC114881  18.739  18.449  15.096  0.0049  0.2123  0.2688
  621BOLB   PO114882  18.704  18.230  14.648  0.0933 -0.0210 -0.1665
  621BOLB   GL114883  18.935  18.687  14.691 -0.0788 -0.0613 -0.0084
  621BOLB   GL214884  19.133  18.603  14.901  0.0433 -0.0014 -0.0835
  621BOLB   C1A14885  18.930  19.103  14.814 -0.4435 -0.0423  0.1090
  621BOLB   C2A14886  18.820  19.462  15.133 -0.5249  0.0614  0.1458
  621BOLB   C3A14887  18.911  19.849  15.028 -0.1753  0.1754  0.0218
  621BOLB   C4A14888  18.946  20.155  14.651  0.0897 -0.0383 -0.0083
  621BOLB   C1B14889  19.381  18.936  14.800 -0.1513 -0.0399  0.0780
  621BOLB   C2B14890  19.630  19.166  14.529  0.0919  0.4034  0.0152
  621BOLB   C3B14891  19.634  19.429  14.123 -0.2034  0.0526  0.0999
  621BOLB   C4B14892  19.643  19.850  14.064  0.1016  0.2864  0.0746
  621BOLB   NC214893  18.149  22.387  13.926  0.1177 -0.0348 -0.1906
  621BOLB   PO214894  18.613  22.476  14.188  0.0617 -0.1865  0.1058
  621BOLB   GL314895  18.475  22.030  14.049 -0.0075 -0.0556  0.3515
  621BOLB   GL414896  18.631  22.017  13.665  0.1190  0.1794 -0.3740
  621BOLB   C1C14897  18.698  21.642  14.013 -0.0514  0.0497  0.0501
  621BOLB   C2C14898  18.891  21.210  13.956  0.0253 -0.0324  0.1004
  621BOLB   C3C14899  19.131  20.913  14.310  0.1682  0.1513  0.2280
  621BOLB   C4C14900  18.967  20.549  14.389  0.1487  0.0989  0.4414
  621BOLB   C1D14901  18.803  21.623  13.480  0.4541 -0.2593  0.1998
  621BOLB   C2D14902  18.958  21.327  13.486  0.0986  0.0822 -0.1245
  621BOLB   C3D14903  18.868  20.869  13.442  0.1259 -0.0737  0.1323
  621BOLB   C4D14904  19.084  20.572  13.421 -0.0050 -0.4174 -0.0787
  622BOLB   NC114905  12.832  15.696  10.473  0.3035  0.0354 -0.0340
  622BOLB   PO114906  13.017  15.765  10.119  0.0636  0.2806 -0.1971
  622BOLB   GL114907  12.926  16.090  10.031 -0.3481 -0.1681  0.3146
  622BOLB   GL214908  12.667  16.247  10.208  0.1453  0.1071 -0.1025
  622BOLB   C1A14909  13.066  16.334   9.671 -0.2097 -0.4344  0.2105
  622BOLB   C2A14910  12.921  16.516   9.284 -0.0787 -0.1258  0.0198
  622BOLB   C3A14911  13.073  16.824   9.077  0.0639  0.1458 -0.0864
  622BOLB   C4A14912  13.011  17.047   8.628  0.1907  0.0721  0.0349
  622BOLB   C1B14913  12.654  16.569   9.861  0.0252  0.0777 -0.0426
  622BOLB   C2B14914  12.988  16.836   9.813  0.2070 -0.1054  0.5313
  622BOLB   C3B14915  12.963  17.130   9.548  0.0721  0.4234 -0.0301
  622BOLB   C4B14916  13.251  17.408   9.601  0.0096 -0.0825  0.1015
  622BOLB   NC214917  11.657  17.481   6.380 -0.0414 -0.2362  0.0905
  622BOLB   PO214918  11.899  17.512   6.758  0.3260  0.1197 -0.3737
  622BOLB   GL314919  12.093  17.243   7.144  0.1060 -0.5111  0.0323
  622BOLB   GL414920  11.745  17.289   7.250 -0.1797 -0.0002 -0.0165
  622BOLB   C1C14921  12.067  17.034   7.546 -0.0978  0.2284  0.1394
  622BOLB   C2C14922  12.256  17.174   7.795 -0.1563 -0.2419 -0.0710
  622BOLB   C3C14923  12.394  17.344   8.204  0.2348  0.0293  0.1302
  622BOLB   C4C14924  12.772  17.152   8.330  0.2366 -0.0052 -0.2022
  622BOLB   C1D14925  11.570  16.883   7.484 -0.1673  0.1854 -0.0236
  622BOLB   C2D14926  11.878  16.530   7.676 -0.2495  0.0194  0.1155
  622BOLB   C3D14927  11.672  16.219   7.865  0.2127  0.3633  0.2433
  622BOLB   C4D14928  11.566  16.074   8.368  0.2679  0.0830 -0.0068
  623BOLB   NC114929  16.338  17.456  11.703  0.4751  0.4468 -0.0411
  623BOLB   PO114930  16.219  17.460  12.100 -0.1095  0.2115  0.2134
  623BOLB   GL114931  16.251  17.936  11.981  0.0112  0.1597 -0.0413
  623BOLB   GL214932  16.133  18.032  12.283  0.1457  0.0935 -0.0510
  623BOLB   C1A14933  16.243  18.449  11.797  0.0775  0.2096 -0.1170
  623BOLB   C2A14934  16.210  18.721  11.582 -0.0464  0.2124  0.1234
  623BOLB   C3A14935  16.501  18.985  11.461  0.0488  0.0335 -0.1334
  623BOLB   C4A14936  16.877  19.156  11.413  0.0412  0.1571  0.3002
  623BOLB   C1B14937  16.215  18.460  12.475  0.2662  0.0023  0.1242
  623BOLB   C2B14938  16.198  18.912  12.461  0.2147  0.1549 -0.1850
  623BOLB   C3B14939  16.278  19.291  12.240  0.0653 -0.0185 -0.0691
  623BOLB   C4B14940  16.600  19.615  12.067 -0.1225  0.1594  0.1271
  623BOLB   NC214941  17.113  21.536  10.425  0.0203  0.0485  0.2535
  623BOLB   PO214942  17.288  21.476  10.805 -0.2569 -0.0533  0.2760
  623BOLB   GL314943  17.434  21.226  11.156  0.1486 -0.0491  0.1510
  623BOLB   GL414944  17.434  21.335  11.546  0.0461 -0.2228 -0.4403
  623BOLB   C1C14945  17.522  20.847  11.396  0.0894  0.0713 -0.0272
  623BOLB   C2C14946  17.600  20.323  11.513 -0.0646  0.0409  0.1301
  623BOLB   C3C14947  17.380  19.857  11.386 -0.1555  0.2441  0.3545
  623BOLB   C4C14948  17.164  19.416  11.296  0.2566 -0.1885 -0.4252
  623BOLB   C1D14949  17.561  21.016  11.873 -0.1299 -0.1787  0.2190
  623BOLB   C2D14950  17.985  20.910  11.918  0.0133  0.0657  0.2241
  623BOLB   C3D14951  18.060  20.810  12.357 -0.1780 -0.0668  0.1094
  623BOLB   C4D14952  18.053  20.847  12.795  0.2142 -0.0672 -0.0862
  624BOLB   NC114953  11.155   3.278  17.338 -0.1008  0.1567 -0.0922
  624BOLB   PO114954  11.588   3.185  17.240  0.0739  0.0517 -0.2558
  624BOLB   GL114955  11.354   2.784  17.396  0.0467 -0.1211  0.1247
  624BOLB   GL214956  11.231   2.545  17.155 -0.2724  0.2232 -0.3177
  624BOLB   C1A14957  10.899   2.711  17.557 -0.0138  0.3750 -0.0721
  624BOLB   C2A14958  10.541   2.432  17.767  0.0341  0.3289 -0.0070
  624BOLB   C3A14959  10.257   2.280  18.081 -0.0644 -0.0517 -0.0744
  624BOLB   C4A14960  10.108   2.194  18.571  0.1991 -0.3610  0.1965
  624BOLB   C1B14961  10.952   2.325  17.260  0.1295  0.0868 -0.3753
  624BOLB   C2B14962  10.737   1.998  17.447 -0.1678  0.0177 -0.4014
  624BOLB   C3B14963  10.801   1.505  17.703  0.4093 -0.1194  0.0475
  624BOLB   C4B14964  10.887   1.149  17.525  0.3042 -0.0881  0.0638
  624BOLB   NC214965   8.952   0.279  19.473 -0.1350 -0.0476 -0.0326
  624BOLB   PO214966   9.157   0.051  19.057  0.0110 -0.0520 -0.0414
  624BOLB   GL314967   9.362   0.400  19.103  0.1581  0.1459 -0.1653
  624BOLB   GL414968   9.067   0.586  19.080 -0.1136 -0.1516  0.0484
  624BOLB   C1C14969   9.602   0.816  19.143  0.0627  0.0346 -0.1871
  624BOLB   C2C14970   9.726   1.194  19.046  0.0909  0.0446 -0.0667
  624BOLB   C3C14971   9.786   1.618  18.944 -0.0917  0.0524 -0.0324
  624BOLB   C4C14972   9.941   1.916  18.790  0.0646  0.5023 -0.2603
  624BOLB   C1D14973   9.237   0.915  18.819  0.2623 -0.2296 -0.2917
  624BOLB   C2D14974   9.393   1.133  18.648  0.2208 -0.0548 -0.1065
  624BOLB   C3D14975   9.644   1.446  18.347  0.1372 -0.2435  0.0930
  624BOLB   C4D14976   9.910   1.831  18.140 -0.1738 -0.0509  0.1945
  625BOLB   NC114977  10.310  11.278  20.733 -0.1805 -0.1078  0.0860
  625BOLB   PO114978  10.499  11.218  21.189 -0.1835 -0.1765 -0.0148
  625BOLB   GL114979  10.213  11.129  21.497 -0.4495  0.2165  0.1790
  625BOLB   GL214980  10.078  10.971  21.209  0.1378  0.4937  0.1319
  625BOLB   C1A14981  10.084  11.248  21.847 -0.1149 -0.0565  0.1015
  625BOLB   C2A14982   9.980  11.447  22.245 -0.0369  0.0954 -0.0690
  625BOLB   C3A14983  10.052  11.249  22.706  0.2328  0.2434  0.0703
  625BOLB   C4A14984  10.174  11.278  23.120 -0.2234  0.2226 -0.1472
  625BOLB   C1B14985   9.789  11.279  21.398  0.0156 -0.1580  0.0661
  625BOLB   C2B14986   9.530  11.460  21.673  0.1619 -0.0413  0.0076
  625BOLB   C3B14987   9.314  11.735  22.016 -0.2300  0.1419  0.0793
  625BOLB   C4B14988   9.361  12.154  22.217 -0.1544  0.1140  0.0085
  625BOLB   NC214989   9.769  10.960  25.606 -0.1312  0.3081  0.1196
  625BOLB   PO214990   9.695  10.692  25.254  0.2139  0.2980  0.1633
  625BOLB   GL314991   9.869  10.424  24.906 -0.1358 -0.3459  0.0617
  625BOLB   GL414992   9.639  10.251  24.925  0.0882  0.0994  0.1429
  625BOLB   C1C14993  10.241  10.382  24.597  0.3017  0.0205  0.0431
  625BOLB   C2C14994  10.459  10.387  24.120  0.0375  0.0197 -0.1914
  625BOLB   C3C14995  10.471  10.529  23.648  0.0510 -0.3461  0.0986
  625BOLB   C4C14996  10.361  10.969  23.373 -0.0781  0.1195 -0.0469
  625BOLB   C1D14997   9.688  10.349  24.431  0.3444  0.1531  0.1023
  625BOLB   C2D14998   9.938  10.208  24.211  0.0067 -0.0989 -0.1202
  625BOLB   C3D14999  10.103  10.174  23.764 -0.2424  0.0292  0.2283
  625BOLB   C4D15000   9.793  10.092  23.587 -0.2897  0.2129 -0.2868
  626BOLB   NC115001   9.868  14.015  18.377  0.4040  0.4120 -0.3168
  626BOLB   PO115002   9.539  13.756  18.255 -0.1683 -0.0781  0.2791
  626BOLB   GL115003   9.014  13.948  18.520 -0.2252 -0.0926 -0.1908
  626BOLB   GL215004   8.947  14.046  18.303  0.0493  0.4011 -0.0924
  626BOLB   C1A15005   8.685  14.019  18.846  0.1190  0.0138  0.1988
  626BOLB   C2A15006   8.385  13.966  19.013 -0.2154  0.2067  0.2134
  626BOLB   C3A15007   8.185  14.068  19.373  0.2437 -0.2997 -0.1437
  626BOLB   C4A15008   7.788  14.047  19.584 -0.1557  0.1483 -0.3046
  626BOLB   C1B15009   8.659  13.657  18.518 -0.0126  0.3615 -0.0433
  626BOLB   C2B15010   8.269  13.657  18.659 -0.2603 -0.3172 -0.2593
  626BOLB   C3B15011   7.901  13.575  18.934 -0.3006  0.3919  0.2392
  626BOLB   C4B15012   7.466  13.651  19.133 -0.1245  0.1384  0.0948
  626BOLB   NC215013   5.243  14.490  19.819  0.1080 -0.2208 -0.4281
  626BOLB   PO215014   5.338  14.205  19.509  0.0424  0.4678  0.2844
  626BOLB   GL315015   5.832  14.064  19.515 -0.0620  0.2198 -0.1211
  626BOLB   GL415016   5.836  13.746  19.766 -0.2748  0.0916 -0.0012
  626BOLB   C1C15017   6.367  14.032  19.523 -0.1219 -0.0350 -0.1402
  626BOLB   C2C15018   6.820  13.876  19.636  0.1904 -0.0893  0.2146
  626BOLB   C3C15019   7.157  13.678  19.928  0.0593  0.1020 -0.1218
  626BOLB   C4C15020   7.511  13.661  19.787 -0.1370 -0.1043 -0.1441
  626BOLB   C1D15021   5.935  13.571  19.300 -0.1918 -0.3056 -0.0749
  626BOLB   C2D15022   6.288  13.442  19.051 -0.1179  0.0195 -0.2574
  626BOLB   C3D15023   6.660  13.529  18.707  0.0023  0.1121  0.2483
  626BOLB   C4D15024   6.997  13.409  18.436 -0.1158 -0.3660 -0.0274
  627BOLB   NC115025  10.471  16.471  16.147 -0.2473  0.0561  0.1747
  627BOLB   PO115026  10.302  16.240  15.910  0.2356  0.2515  0.0352
  627BOLB   GL115027   9.947  16.455  16.036 -0.2400  0.1271 -0.0578
  627BOLB   GL215028   9.733  16.212  16.018 -0.2313  0.1746  0.2161
  627BOLB   C1A15029   9.841  16.802  16.073  0.2896 -0.0289 -0.0617
  627BOLB   C2A15030   9.953  17.244  15.916  0.1239 -0.1835 -0.3519
  627BOLB   C3A15031   9.873  17.677  16.172  0.1694 -0.0792 -0.1374
  627BOLB   C4A15032   9.754  18.128  16.192 -0.1202  0.1435 -0.0362
  627BOLB   C1B15033   9.581  16.583  15.738 -0.1733  0.4480  0.1177
  627BOLB   C2B15034   9.407  16.775  15.433  0.2221 -0.0005 -0.1306
  627BOLB   C3B15035   9.219  16.919  15.091  0.1127  0.2544 -0.0786
  627BOLB   C4B15036   9.366  17.106  14.681  0.1974 -0.2284 -0.0032
  627BOLB   NC215037   8.520  20.166  16.280  0.0944  0.1732 -0.1721
  627BOLB   PO215038   8.753  20.229  15.898  0.0183  0.2057  0.1627
  627BOLB   GL315039   9.070  19.964  15.685  0.0091 -0.0550 -0.1907
  627BOLB   GL415040   9.050  19.629  15.698  0.0055 -0.2791  0.0711
  627BOLB   C1C15041   9.546  19.943  15.765  0.2533  0.1735 -0.1477
  627BOLB   C2C15042   9.767  19.517  15.903 -0.0468 -0.1300 -0.1749
  627BOLB   C3C15043   9.785  19.109  16.077  0.1852 -0.3488 -0.0358
  627BOLB   C4C15044   9.772  18.598  16.193  0.2322 -0.1112 -0.0351
  627BOLB   C1D15045   9.011  19.315  15.749 -0.1453  0.2726  0.0064
  627BOLB   C2D15046   9.243  19.084  15.963  0.3024  0.0916  0.0983
  627BOLB   C3D15047   9.421  18.704  15.879  0.1784 -0.1058  0.0017
  627BOLB   C4D15048   9.564  18.366  15.756  0.0406 -0.4767 -0.0075
  628BOLB   NC115049  23.593  12.538  17.450 -0.1492  0.2613 -0.2112
  628BOLB   PO115050  23.851  12.121  17.425  0.1451 -0.0498 -0.0756
  628BOLB   GL115051  24.135  11.840  17.599  0.2224 -0.2176 -0.2087
  628BOLB   GL215052  24.207  12.027  17.865  0.1762 -0.1348  0.0642
  628BOLB   C1A15053  24.550  11.816  17.593 -0.0576 -0.0923  0.1623
  628BOLB   C2A15054  24.956  11.850  17.747 -0.0551  0.0326  0.0929
  628BOLB   C3A15055  25.464  11.982  17.891  0.0359 -0.1014  0.3280
  628BOLB   C4A15056  25.915  11.968  17.948 -0.0442 -0.3670 -0.0238
  628BOLB   C1B15057  24.611  12.048  18.061 -0.1062  0.0714 -0.1734
  628BOLB   C2B15058  24.910  12.247  18.242  0.1766  0.0867 -0.1438
  628BOLB   C3B15059  25.229  12.468  18.281  0.1953 -0.2061 -0.0502
  628BOLB   C4B15060  25.453  12.661  18.601  0.1255 -0.1166  0.2482
  628BOLB   NC215061  28.073  12.664  18.935 -0.0693 -0.1625 -0.4542
  628BOLB   PO215062  27.748  12.510  19.237 -0.1477  0.1989 -0.1000
  628BOLB   GL315063  27.361  12.377  19.206  0.5343 -0.3177  0.2603
  628BOLB   GL415064  27.168  12.635  19.087 -0.3027 -0.3867  0.0442
  628BOLB   C1C15065  27.012  12.099  19.056 -0.0390 -0.0318 -0.0753
  628BOLB   C2C15066  26.791  12.117  18.672  0.0934 -0.1554  0.1662
  628BOLB   C3C15067  26.604  12.188  18.288 -0.0838  0.1163  0.2757
  628BOLB   C4C15068  26.370  12.186  17.940  0.0380  0.1213 -0.1437
  628BOLB   C1D15069  26.728  12.531  18.935  0.2810 -0.0328 -0.3548
  628BOLB   C2D15070  26.445  12.459  18.688 -0.1349  0.2292 -0.1079
  628BOLB   C3D15071  26.132  12.231  18.466  0.1538 -0.2474  0.3775
  628BOLB   C4D15072  25.678  12.219  18.332  0.1878 -0.0097  0.2656
  629BOLB   NC115073  21.539   4.522  18.468 -0.2398 -0.1686  0.4709
  629BOLB   PO115074  22.044   4.673  18.467 -0.0641 -0.0068 -0.1440
  629BOLB   GL115075  22.350   4.443  18.711 -0.1052  0.2718 -0.3240
  629BOLB   GL215076  22.485   4.593  19.051  0.1141  0.0198  0.4715
  629BOLB   C1A15077  22.721   4.187  18.831  0.2514 -0.1899  0.1948
  629BOLB   C2A15078  23.116   4.204  18.853 -0.0046 -0.1367 -0.2830
  629BOLB   C3A15079  23.545   4.180  18.892  0.6083 -0.2372 -0.0771
  629BOLB   C4A15080  24.004   4.283  18.851 -0.0422 -0.2889 -0.3276
  629BOLB   C1B15081  22.932   4.636  19.103  0.1287  0.2508  0.0245
  629BOLB   C2B15082  23.357   4.350  19.282  0.0410 -0.1319  0.0029
  629BOLB   C3B15083  23.706   4.204  19.332  0.0148 -0.4246 -0.4127
  629BOLB   C4B15084  23.909   3.867  19.103 -0.2087 -0.3507 -0.0559
  629BOLB   NC215085  26.240   3.756  18.420 -0.0070  0.0836  0.3223
  629BOLB   PO215086  25.889   3.475  18.542  0.0521 -0.2530  0.0637
  629BOLB   GL315087  25.588   3.293  18.406  0.0259 -0.1709 -0.0105
  629BOLB   GL415088  25.480   3.057  18.228  0.1501  0.1916 -0.1107
  629BOLB   C1C15089  25.117   3.418  18.442  0.0829 -0.1624 -0.0256
  629BOLB   C2C15090  24.716   3.519  18.305  0.0650 -0.1524  0.1647
  629BOLB   C3C15091  24.608   3.889  18.320  0.0734 -0.0290  0.1010
  629BOLB   C4C15092  24.325   4.199  18.582  0.0148  0.1968 -0.1487
  629BOLB   C1D15093  24.975   3.072  18.124  0.0117 -0.2274  0.1142
  629BOLB   C2D15094  24.668   3.060  18.415 -0.0865  0.0386  0.0479
  629BOLB   C3D15095  24.223   3.251  18.318  0.2700  0.2615  0.2382
  629BOLB   C4D15096  23.761   2.990  18.336  0.1418 -0.0635 -0.0205
  630BOLB   NC115097  10.652   7.705  20.712  0.0210 -0.0941  0.1747
  630BOLB   PO115098  10.248   7.787  20.826  0.3016 -0.0119 -0.0927
  630BOLB   GL115099   9.995   7.510  21.005  0.0447 -0.0482 -0.2073
  630BOLB   GL215100  10.131   7.191  21.200  0.0265  0.2236 -0.1432
  630BOLB   C1A15101   9.702   7.416  21.287  0.1123  0.2802 -0.3776
  630BOLB   C2A15102   9.467   7.257  21.570  0.5106 -0.1172 -0.2804
  630BOLB   C3A15103   9.306   7.048  21.963 -0.0052  0.2787  0.0317
  630BOLB   C4A15104   9.195   6.880  22.436 -0.1939 -0.0381  0.3311
  630BOLB   C1B15105   9.842   6.965  21.492  0.1443  0.2513  0.2867
  630BOLB   C2B15106   9.850   6.868  21.874 -0.0963 -0.2223 -0.1823
  630BOLB   C3B15107   9.807   6.854  22.274  0.1918  0.0563 -0.1990
  630BOLB   C4B15108   9.933   6.838  22.698 -0.1098 -0.2182 -0.4526
  630BOLB   NC215109   8.316   7.908  24.410 -0.3456 -0.0351 -0.0447
  630BOLB   PO215110   7.986   7.593  24.603  0.0010  0.0287 -0.0601
  630BOLB   GL315111   8.157   7.309  24.302 -0.0329  0.1437 -0.2584
  630BOLB   GL415112   8.086   7.474  23.978 -0.1298 -0.2155  0.2497
  630BOLB   C1C15113   8.367   7.037  23.900 -0.0973  0.1913 -0.2857
  630BOLB   C2C15114   8.618   6.888  23.619  0.0669 -0.0573 -0.0746
  630BOLB   C3C15115   8.919   6.765  23.224 -0.1598 -0.2259  0.2308
  630BOLB   C4C15116   9.006   6.803  22.776  0.3987  0.5460 -0.1613
  630BOLB   C1D15117   8.530   7.554  23.974 -0.0325  0.0369 -0.2335
  630BOLB   C2D15118   8.781   7.348  23.684 -0.3311 -0.1378  0.0692
  630BOLB   C3D15119   9.063   7.077  23.646  0.0074 -0.2433  0.1288
  630BOLB   C4D15120   9.360   6.998  23.365  0.0077 -0.0665  0.1182
  631BOLB   NC115121  19.731   7.232   9.698 -0.1454  0.4038 -0.2825
  631BOLB   PO115122  20.157   6.949   9.570  0.0685 -0.0129 -0.1023
  631BOLB   GL115123  20.503   6.887   9.305  0.0479  0.3285  0.1751
  631BOLB   GL215124  20.696   6.989   9.509  0.2943  0.0450 -0.1147
  631BOLB   C1A15125  20.688   6.806   8.931 -0.1398 -0.0064  0.3099
  631BOLB   C2A15126  20.940   6.943   8.520  0.1377  0.1629 -0.1785
  631BOLB   C3A15127  21.324   7.090   8.503 -0.2457  0.1279  0.0343
  631BOLB   C4A15128  21.811   7.091   8.421  0.1329 -0.2295 -0.0472
  631BOLB   C1B15129  21.089   6.908   9.287 -0.1134 -0.1622  0.0334
  631BOLB   C2B15130  21.144   6.664   8.958 -0.0318 -0.0552  0.1719
  631BOLB   C3B15131  20.948   6.396   8.724  0.1551 -0.2140 -0.2482
  631BOLB   C4B15132  21.197   6.053   8.448  0.0223  0.1240 -0.0891
  631BOLB   NC215133  24.030   6.167   7.448 -0.2752 -0.2698  0.1454
  631BOLB   PO215134  23.630   5.942   7.332  0.0634 -0.1368 -0.1422
  631BOLB   GL315135  23.359   6.183   7.680  0.2968 -0.2057  0.1159
  631BOLB   GL415136  22.930   6.350   7.620 -0.0134  0.1156 -0.2532
  631BOLB   C1C15137  23.324   6.525   7.802 -0.2704 -0.1895 -0.2012
  631BOLB   C2C15138  22.955   6.783   8.114  0.2737 -0.0717  0.1660
  631BOLB   C3C15139  22.577   6.850   8.356 -0.1768  0.0981 -0.0703
  631BOLB   C4C15140  22.167   6.819   8.464  0.0640 -0.0340  0.0758
  631BOLB   C1D15141  22.656   6.546   7.390  0.2454 -0.2076 -0.0697
  631BOLB   C2D15142  22.123   6.629   7.310 -0.0961  0.4066  0.1214
  631BOLB   C3D15143  21.828   6.769   7.703 -0.2210  0.3521  0.2050
  631BOLB   C4D15144  21.809   7.150   7.879 -0.0556 -0.2401  0.0225
  632BOLB   NC115145  17.118   3.618  19.765 -0.2096 -0.0233 -0.1605
  632BOLB   PO115146  17.400   3.269  19.926 -0.0478 -0.1075  0.0649
  632BOLB   GL115147  17.741   3.023  20.188 -0.0351  0.0707 -0.2265
  632BOLB   GL215148  17.774   3.124  20.496  0.0148 -0.1243  0.0335
  632BOLB   C1A15149  17.986   2.625  20.215  0.0352 -0.0721  0.0150
  632BOLB   C2A15150  18.242   2.413  20.546  0.2090 -0.0609 -0.1476
  632BOLB   C3A15151  18.424   2.072  20.787 -0.1720  0.5444 -0.3103
  632BOLB   C4A15152  18.626   1.839  21.059  0.1595  0.1217 -0.2514
  632BOLB   C1B15153  18.048   2.842  20.666  0.2066 -0.0374  0.0118
  632BOLB   C2B15154  18.441   2.771  20.797 -0.0806 -0.2747 -0.2546
  632BOLB   C3B15155  18.665   2.742  21.090 -0.1973  0.2176 -0.2829
  632BOLB   C4B15156  18.920   2.852  21.439  0.2313 -0.2109  0.1179
  632BOLB   NC215157  19.272  -0.333  21.360 -0.2340 -0.1288 -0.0708
  632BOLB   PO215158  19.392   0.010  21.556  0.0208  0.3796 -0.1846
  632BOLB   GL315159  19.064   0.175  21.296  0.1535 -0.1078 -0.4830
  632BOLB   GL415160  18.892  -0.035  21.094  0.1674  0.1039  0.1170
  632BOLB   C1C15161  18.774   0.533  21.403  0.0199  0.1102 -0.2908
  632BOLB   C2C15162  18.847   0.926  21.535  0.0756 -0.0877  0.1021
  632BOLB   C3C15163  18.933   1.359  21.512  0.0700 -0.1359  0.1646
  632BOLB   C4C15164  18.784   1.595  21.270 -0.4190 -0.1988  0.0212
  632BOLB   C1D15165  18.751   0.135  20.825  0.2731  0.0045  0.3585
  632BOLB   C2D15166  18.851   0.349  20.460 -0.1596  0.3656  0.1955
  632BOLB   C3D15167  19.264   0.612  20.207  0.0221 -0.1789 -0.0666
  632BOLB   C4D15168  19.408   0.663  19.722 -0.2528  0.2498 -0.0274
  633BOLB   NC115169  17.413   7.938  22.964  0.0643 -0.1844 -0.1602
  633BOLB   PO115170  17.131   8.083  23.146 -0.2905 -0.1277  0.1081
  633BOLB   GL115171  17.256   7.814  23.421 -0.2878  0.2768  0.0542
  633BOLB   GL215172  17.533   7.602  23.295 -0.1886 -0.0786 -0.2867
  633BOLB   C1A15173  17.295   7.556  23.761  0.1129  0.1894 -0.0755
  633BOLB   C2A15174  17.201   7.372  24.174 -0.5010  0.0968  0.0311
  633BOLB   C3A15175  17.197   7.312  24.700  0.0732  0.2395  0.0192
  633BOLB   C4A15176  17.041   6.921  24.886  0.0332  0.2930 -0.1270
  633BOLB   C1B15177  17.808   7.505  23.579  0.1430  0.1093  0.0488
  633BOLB   C2B15178  17.872   7.366  24.006 -0.2197  0.0717 -0.4456
  633BOLB   C3B15179  18.050   7.318  24.316 -0.0866  0.4555  0.2550
  633BOLB   C4B15180  17.803   7.333  24.603 -0.0406 -0.0527 -0.2005
  633BOLB   NC215181  16.558   6.482  27.328  0.0606 -0.1530  0.1419
  633BOLB   PO215182  16.693   6.289  26.960  0.1207 -0.0006  0.2541
  633BOLB   GL315183  16.598   6.446  26.558 -0.0404  0.0544  0.2564
  633BOLB   GL415184  16.230   6.398  26.683  0.2105  0.0123  0.0867
  633BOLB   C1C15185  16.501   6.626  26.119  0.3738 -0.0927  0.4466
  633BOLB   C2C15186  16.527   6.748  25.778 -0.0693  0.0424 -0.3822
  633BOLB   C3C15187  16.513   6.736  25.373 -0.0838  0.2772 -0.1397
  633BOLB   C4C15188  16.666   6.962  25.115  0.1897  0.1959 -0.3077
  633BOLB   C1D15189  16.385   6.135  26.251  0.0136 -0.0516 -0.2988
  633BOLB   C2D15190  16.593   6.198  25.835  0.3039  0.0107 -0.0034
  633BOLB   C3D15191  16.569   6.230  25.417  0.3590  0.0474  0.0308
  633BOLB   C4D15192  16.477   6.296  25.099  0.4928  0.0482  0.0723
  634BOLB   NC115193  20.290   2.821  14.091  0.2163 -0.1876  0.1502
  634BOLB   PO115194  20.443   2.555  13.669  0.1561  0.0354 -0.4439
  634BOLB   GL115195  20.541   2.215  13.449  0.1412  0.2000  0.2195
  634BOLB   GL215196  20.452   2.307  13.132 -0.1004 -0.0628  0.1900
  634BOLB   C1A15197  20.465   1.769  13.454 -0.0536  0.1006 -0.0925
  634BOLB   C2A15198  20.679   1.448  13.183  0.0310  0.1566 -0.0208
  634BOLB   C3A15199  20.713   1.108  12.960  0.0941  0.3233  0.0396
  634BOLB   C4A15200  20.955   0.911  12.810  0.1987  0.1244  0.1764
  634BOLB   C1B15201  20.745   1.977  13.098  0.3354  0.1284 -0.0932
  634BOLB   C2B15202  20.768   1.604  12.715  0.2239  0.1851 -0.1142
  634BOLB   C3B15203  20.716   1.158  12.453  0.3366  0.2631  0.0164
  634BOLB   C4B15204  20.742   0.879  12.159  0.0069  0.1153 -0.0175
  634BOLB   NC215205  22.800   0.001  12.062  0.1679 -0.1900 -0.1511
  634BOLB   PO215206  22.572  -0.272  12.364  0.0111  0.1913  0.2678
  634BOLB   GL315207  22.532   0.025  12.706  0.1889  0.1940  0.0023
  634BOLB   GL415208  22.777   0.113  12.555 -0.1142  0.0487 -0.0806
  634BOLB   C1C15209  22.202   0.132  12.937 -0.3467 -0.0988 -0.0080
  634BOLB   C2C15210  21.727   0.213  13.038  0.1223  0.0139  0.1440
  634BOLB   C3C15211  21.413   0.336  12.981 -0.0307  0.2656  0.3170
  634BOLB   C4C15212  21.298   0.611  12.825 -0.0753  0.0357 -0.1538
  634BOLB   C1D15213  22.773   0.453  12.746 -0.0252  0.3280 -0.3178
  634BOLB   C2D15214  22.541   0.837  12.799 -0.2081 -0.0575  0.0444
  634BOLB   C3D15215  22.358   1.177  13.014  0.3949  0.0304  0.1170
  634BOLB   C4D15216  22.114   1.486  13.280  0.1011  0.0465  0.0441
  635BOLB   NC115217  16.901   5.892  22.056 -0.0066 -0.0794  0.1250
  635BOLB   PO115218  16.514   5.803  22.293 -0.1058  0.1343 -0.2980
  635BOLB   GL115219  16.498   5.462  22.499 -0.2484  0.2209  0.2211
  635BOLB   GL215220  16.722   5.259  22.301 -0.1589 -0.1050  0.2442
  635BOLB   C1A15221  16.375   5.235  22.930 -0.0335  0.2468 -0.0886
  635BOLB   C2A15222  16.552   5.029  23.168 -0.0821  0.2394  0.3547
  635BOLB   C3A15223  16.617   4.769  23.489 -0.0396 -0.1577 -0.2540
  635BOLB   C4A15224  16.885   4.619  23.771  0.4626 -0.0983  0.0579
  635BOLB   C1B15225  16.775   5.006  22.676  0.0951 -0.2018  0.3928
  635BOLB   C2B15226  16.732   4.662  22.942  0.0884 -0.3339 -0.1529
  635BOLB   C3B15227  16.934   4.452  23.265  0.2537  0.2308  0.0101
  635BOLB   C4B15228  16.933   4.036  23.538 -0.0987  0.1812  0.0081
  635BOLB   NC215229  16.149   2.547  25.061  0.1807 -0.1091 -0.0469
  635BOLB   PO215230  16.604   2.601  24.988  0.3634  0.0211  0.1224
  635BOLB   GL315231  16.812   2.881  24.763 -0.1614  0.0363 -0.1347
  635BOLB   GL415232  16.971   3.026  24.923 -0.1253 -0.0059 -0.0160
  635BOLB   C1C15233  16.954   3.194  24.478 -0.0392 -0.1612 -0.3618
  635BOLB   C2C15234  17.064   3.460  24.271 -0.0831 -0.1766  0.1814
  635BOLB   C3C15235  17.035   3.824  24.027  0.0042 -0.1383  0.2807
  635BOLB   C4C15236  17.037   4.266  23.987 -0.0712 -0.0341 -0.0069
  635BOLB   C1D15237  17.110   3.477  24.827  0.1287 -0.1903  0.3139
  635BOLB   C2D15238  16.955   3.931  24.747 -0.0292  0.2260 -0.0014
  635BOLB   C3D15239  16.684   4.261  24.811  0.0192  0.1176  0.0662
  635BOLB   C4D15240  16.356   4.468  24.471 -0.0257  0.2617 -0.4318
  636BOLB   NC115241  17.578  19.065  25.218 -0.1841 -0.1088  0.0630
  636BOLB   PO115242  17.266  18.835  24.895 -0.1112 -0.1567  0.0334
  636BOLB   GL115243  17.489  18.770  24.405 -0.1408  0.4037  0.0705
  636BOLB   GL215244  17.310  18.831  24.219  0.0086  0.0028  0.3411
  636BOLB   C1A15245  17.799  18.940  24.127  0.1837 -0.1520  0.0317
  636BOLB   C2A15246  18.105  18.947  23.763  0.1136  0.1201  0.0520
  636BOLB   C3A15247  18.366  18.770  23.478 -0.0448  0.2394  0.3564
  636BOLB   C4A15248  18.324  18.396  23.276 -0.1328  0.0226  0.1670
  636BOLB   C1B15249  17.454  18.667  23.812  0.3369  0.1612  0.0354
  636BOLB   C2B15250  17.354  18.679  23.434 -0.2390  0.3537  0.3219
  636BOLB   C3B15251  17.283  18.422  23.138 -0.1536 -0.0303 -0.0062
  636BOLB   C4B15252  17.374  18.189  22.840 -0.0253 -0.1727 -0.3623
  636BOLB   NC215253  18.432  18.847  24.774 -0.2611  0.1166  0.3908
  636BOLB   PO215254  18.537  18.405  24.749 -0.1596  0.1562 -0.1734
  636BOLB   GL315255  18.484  18.155  24.378 -0.1374  0.1282 -0.3559
  636BOLB   GL415256  18.828  18.174  24.349  0.0741  0.2244 -0.0914
  636BOLB   C1C15257  18.217  17.822  24.419  0.0219 -0.0479  0.2834
  636BOLB   C2C15258  18.242  17.493  24.083  0.0691 -0.0830 -0.0131
  636BOLB   C3C15259  18.186  17.525  23.660 -0.0500  0.1377  0.2587
  636BOLB   C4C15260  18.068  17.928  23.376  0.0214  0.0064  0.0549
  636BOLB   C1D15261  18.752  18.062  23.991  0.1292 -0.3188  0.2665
  636BOLB   C2D15262  18.661  17.817  23.653  0.0200 -0.0608 -0.0364
  636BOLB   C3D15263  18.520  17.684  23.255  0.2460 -0.1216  0.0214
  636BOLB   C4D15264  18.422  17.252  23.045  0.3252 -0.1291 -0.4104
  637BOLB   NC115265   8.583  12.660  15.357 -0.1029 -0.1449 -0.5357
  637BOLB   PO115266   8.762  13.085  15.164 -0.1917 -0.2734 -0.1691
  637BOLB   GL115267   8.431  13.463  15.173  0.1244 -0.0004  0.0182
  637BOLB   GL215268   8.539  13.730  15.339 -0.3358 -0.0703 -0.2385
  637BOLB   C1A15269   8.073  13.569  15.324  0.4003 -0.3471 -0.0449
  637BOLB   C2A15270   7.598  13.467  15.374 -0.1327  0.0050  0.5618
  637BOLB   C3A15271   7.245  13.311  15.382  0.0009 -0.0814  0.0323
  637BOLB   C4A15272   6.901  13.366  15.208 -0.1392 -0.0693 -0.1078
  637BOLB   C1B15273   8.279  13.972  15.068  0.1694 -0.3216 -0.0579
  637BOLB   C2B15274   7.985  14.075  14.899 -0.0701 -0.3058  0.1919
  637BOLB   C3B15275   7.807  14.576  14.814  0.2011  0.0457  0.0983
  637BOLB   C4B15276   7.577  14.832  14.581 -0.1043 -0.1267 -0.0202
  637BOLB   NC215277   4.813  13.847  14.806 -0.1354  0.0050 -0.2015
  637BOLB   PO215278   4.630  13.493  15.120  0.0575 -0.0130  0.2957
  637BOLB   GL315279   5.062  13.608  15.206  0.1067  0.1897  0.2672
  637BOLB   GL415280   5.139  13.919  15.231 -0.4105 -0.0838 -0.2249
  637BOLB   C1C15281   5.407  13.532  15.399  0.0858  0.0307  0.3857
  637BOLB   C2C15282   5.821  13.402  15.337 -0.1941 -0.2680 -0.1801
  637BOLB   C3C15283   6.151  13.370  15.268 -0.1389  0.2155 -0.0475
  637BOLB   C4C15284   6.478  13.478  15.092 -0.5856  0.0568 -0.1061
  637BOLB   C1D15285   5.480  13.903  14.985 -0.0580  0.2205 -0.2785
  637BOLB   C2D15286   5.845  14.249  14.805  0.1649  0.1060  0.1711
  637BOLB   C3D15287   6.276  14.285  14.637 -0.0813 -0.0045  0.2177
  637BOLB   C4D15288   6.678  14.208  14.464 -0.0803 -0.1259  0.0142
  638BOLB   NC115289   9.677  15.427  17.614  0.0150  0.1141 -0.1048
  638BOLB   PO115290   9.906  15.457  18.040  0.0894 -0.2358 -0.0616
  638BOLB   GL115291   9.466  15.731  18.023  0.1975 -0.0320  0.2877
  638BOLB   GL215292   9.358  15.981  17.844 -0.2467 -0.0012 -0.0645
  638BOLB   C1A15293   9.060  15.986  18.238  0.1268 -0.0312  0.0247
  638BOLB   C2A15294   8.694  16.156  18.340 -0.0767 -0.0378 -0.0192
  638BOLB   C3A15295   8.380  16.048  18.603  0.1595 -0.1802 -0.1805
  638BOLB   C4A15296   8.408  16.037  19.087  0.2389  0.1973 -0.2449
  638BOLB   C1B15297   8.991  16.268  17.780 -0.0694  0.0019  0.0093
  638BOLB   C2B15298   8.527  16.295  17.904 -0.0936  0.0478 -0.0804
  638BOLB   C3B15299   8.242  16.667  18.028  0.3010 -0.0764  0.2428
  638BOLB   C4B15300   8.015  17.006  18.015 -0.3246  0.1091 -0.1574
  638BOLB   NC215301   5.987  15.672  20.166  0.3089  0.1536 -0.0194
  638BOLB   PO215302   6.218  16.005  20.355 -0.2528  0.1208  0.0069
  638BOLB   GL315303   6.540  15.751  20.217 -0.1954  0.1878 -0.1566
  638BOLB   GL415304   6.476  15.453  20.064  0.2895 -0.1663  0.0996
  638BOLB   C1C15305   6.894  16.007  19.973 -0.3141  0.0008 -0.2225
  638BOLB   C2C15306   7.238  16.002  19.643 -0.1774 -0.0585  0.0347
  638BOLB   C3C15307   7.655  15.833  19.468  0.1349 -0.0029  0.0197
  638BOLB   C4C15308   8.063  15.854  19.242 -0.0107  0.1047  0.0891
  638BOLB   C1D15309   6.985  15.279  19.932  0.0766  0.1606 -0.0589
  638BOLB   C2D15310   7.421  15.181  19.712 -0.2063 -0.2183  0.1004
  638BOLB   C3D15311   7.840  15.406  19.566  0.0419 -0.0228 -0.1679
  638BOLB   C4D15312   8.195  15.483  19.612 -0.2394 -0.1135 -0.1848
  639BOLB   NC115313  20.097   2.457  11.742 -0.0949  0.0711  0.0461
  639BOLB   PO115314  19.732   2.188  11.667  0.0523  0.0746 -0.1505
  639BOLB   GL115315  19.837   1.800  11.425  0.2573 -0.3174  0.0069
  639BOLB   GL215316  20.082   1.722  11.543  0.2161  0.1896 -0.1656
  639BOLB   C1A15317  19.761   1.324  11.117  0.1338  0.2122 -0.2247
  639BOLB   C2A15318  19.621   1.223  10.733  0.0304 -0.1861 -0.3054
  639BOLB   C3A15319  19.501   0.840  10.457 -0.1203  0.0244 -0.1308
  639BOLB   C4A15320  19.346   0.573  10.167 -0.0830  0.0064 -0.3242
  639BOLB   C1B15321  20.282   1.517  11.159  0.0352  0.1114  0.0162
  639BOLB   C2B15322  20.112   1.354  10.763 -0.2091  0.1844 -0.0997
  639BOLB   C3B15323  20.003   0.952  10.881 -0.1940 -0.1904  0.1161
  639BOLB   C4B15324  19.878   0.742  11.246  0.0547  0.3047 -0.2900
  639BOLB   NC215325  20.418  -1.710   9.717  0.0178  0.2287 -0.0681
  639BOLB   PO215326  20.287  -1.365   9.983  0.0914  0.1410  0.0584
  639BOLB   GL315327  19.997  -1.089  10.063 -0.2907 -0.2159 -0.3357
  639BOLB   GL415328  20.108  -0.900  10.269 -0.0142  0.1478  0.3431
  639BOLB   C1C15329  19.677  -0.833   9.975 -0.1376 -0.0167 -0.2421
  639BOLB   C2C15330  19.492  -0.582   9.970  0.0050 -0.0474 -0.2373
  639BOLB   C3C15331  19.391  -0.259  10.136 -0.0170 -0.1099  0.0891
  639BOLB   C4C15332  19.341   0.118  10.056 -0.3573 -0.2351 -0.0210
  639BOLB   C1D15333  19.931  -0.460  10.279 -0.1533  0.0252  0.2561
  639BOLB   C2D15334  19.665  -0.012  10.429  0.0366  0.0167 -0.0835
  639BOLB   C3D15335  19.476   0.329  10.620 -0.3257  0.2163  0.0929
  639BOLB   C4D15336  19.367   0.734  10.968  0.3118 -0.2219  0.0874
  640BOLB   NC115337   7.195  11.547   3.449 -0.1987  0.3677  0.0577
  640BOLB   PO115338   6.946  11.872   3.671  0.2050 -0.0212 -0.1617
  640BOLB   GL115339   6.952  11.464   3.903  0.1134  0.0374  0.3018
  640BOLB   GL215340   7.110  11.582   4.069  0.0617  0.3866 -0.2187
  640BOLB   C1A15341   7.369  11.115   3.978  0.1095  0.3080 -0.2023
  640BOLB   C2A15342   7.543  10.721   4.307  0.0755 -0.1063 -0.2208
  640BOLB   C3A15343   7.740  10.468   4.186 -0.2342 -0.0911  0.1269
  640BOLB   C4A15344   7.738  10.339   3.741  0.4016 -0.1968  0.1950
  640BOLB   C1B15345   6.838  11.478   4.360 -0.2089  0.0212 -0.1393
  640BOLB   C2B15346   6.523  11.330   4.541 -0.2828  0.1524 -0.3628
  640BOLB   C3B15347   6.242  11.292   4.947  0.0032 -0.1952 -0.1625
  640BOLB   C4B15348   5.915  11.133   5.229  0.1045 -0.3628  0.0077
  640BOLB   NC215349   8.495  12.408   2.566  0.0052 -0.1610  0.1948
  640BOLB   PO215350   8.709  12.226   2.945  0.1630 -0.2214 -0.1068
  640BOLB   GL315351   8.764  11.995   3.402  0.0490  0.0022  0.0822
  640BOLB   GL415352   8.591  12.092   3.571 -0.0738 -0.0271 -0.2037
  640BOLB   C1C15353   8.619  11.620   3.495 -0.0292 -0.2866 -0.2646
  640BOLB   C2C15354   8.328  11.277   3.469  0.1023 -0.2252  0.1846
  640BOLB   C3C15355   8.337  10.885   3.619 -0.1337  0.1145  0.0788
  640BOLB   C4C15356   8.161  10.478   3.606  0.3025 -0.2544 -0.1060
  640BOLB   C1D15357   8.447  12.127   3.990 -0.0477  0.3416  0.2442
  640BOLB   C2D15358   8.603  12.117   4.385  0.1363 -0.0003  0.2875
  640BOLB   C3D15359   8.957  12.375   4.441  0.3453  0.3050 -0.2305
  640BOLB   C4D15360   9.230  12.457   4.302 -0.0898 -0.3396 -0.0418
  641BOLB   NC115361  18.134  17.666  18.816  0.1075 -0.4261 -0.2103
  641BOLB   PO115362  18.130  17.881  18.460 -0.2272  0.0694 -0.0729
  641BOLB   GL115363  18.364  18.310  18.665 -0.2974  0.2755  0.3741
  641BOLB   GL215364  18.226  18.396  18.960  0.1866 -0.0496  0.1339
  641BOLB   C1A15365  18.388  18.752  18.619 -0.0924 -0.0189  0.0045
  641BOLB   C2A15366  18.650  19.174  18.787 -0.1446  0.0586 -0.2975
  641BOLB   C3A15367  18.892  19.578  18.772  0.1632  0.2504  0.0707
  641BOLB   C4A15368  18.995  19.862  18.918  0.3889  0.0001  0.0623
  641BOLB   C1B15369  18.353  18.685  19.220  0.2062 -0.0659  0.5450
  641BOLB   C2B15370  18.275  19.135  19.308 -0.1306  0.0080 -0.0742
  641BOLB   C3B15371  18.018  19.618  19.278 -0.0999  0.2172  0.0148
  641BOLB   C4B15372  17.776  20.033  19.213  0.3114  0.4048  0.1814
  641BOLB   NC215373  18.935  21.504  20.909  0.2979  0.2610  0.5772
  641BOLB   PO215374  19.214  21.671  20.672  0.1655  0.0838 -0.1877
  641BOLB   GL315375  19.174  21.308  20.456  0.0887  0.3587  0.1175
  641BOLB   GL415376  19.440  21.336  20.165  0.0123 -0.0691 -0.1006
  641BOLB   C1C15377  18.932  21.013  20.181  0.0085 -0.1715  0.0832
  641BOLB   C2C15378  18.997  20.551  19.962  0.0303 -0.1785  0.0433
  641BOLB   C3C15379  18.941  20.256  19.633  0.1826  0.2643 -0.1847
  641BOLB   C4C15380  18.904  19.943  19.302 -0.2233 -0.1749 -0.1256
  641BOLB   C1D15381  19.550  20.883  19.894  0.0016  0.1465 -0.0158
  641BOLB   C2D15382  19.488  20.648  19.499  0.3520  0.1221 -0.2016
  641BOLB   C3D15383  19.442  20.725  19.115 -0.2458  0.4954 -0.1218
  641BOLB   C4D15384  19.139  20.826  18.893  0.1205  0.4598  0.0247
  642BOLB   NC115385   8.629  11.589  18.573  0.0591  0.0968 -0.4293
  642BOLB   PO115386   8.596  11.098  18.473 -0.1125  0.1614  0.0735
  642BOLB   GL115387   8.228  11.091  18.811  0.3059 -0.1447 -0.0749
  642BOLB   GL215388   8.411  10.920  19.061 -0.0739  0.1073 -0.2305
  642BOLB   C1A15389   7.852  11.174  18.861  0.0634  0.1429 -0.1941
  642BOLB   C2A15390   7.397  11.245  18.816 -0.1759 -0.0614  0.0731
  642BOLB   C3A15391   7.001  11.474  18.661 -0.2965  0.0108  0.1095
  642BOLB   C4A15392   6.821  11.789  18.635 -0.1350 -0.4245  0.3191
  642BOLB   C1B15393   8.013  10.915  19.361 -0.2190 -0.0295  0.0208
  642BOLB   C2B15394   7.565  11.010  19.388 -0.1157 -0.1948 -0.2067
  642BOLB   C3B15395   7.172  11.330  19.281 -0.2958  0.0093  0.2641
  642BOLB   C4B15396   6.778  11.422  19.161  0.0230  0.2041  0.0689
  642BOLB   NC215397   4.880  12.931  18.465  0.0452  0.1582  0.2527
  642BOLB   PO215398   4.814  12.564  18.524 -0.1825 -0.1634  0.5939
  642BOLB   GL315399   5.260  12.580  18.764 -0.0021 -0.3613 -0.5598
  642BOLB   GL415400   5.386  12.557  18.453 -0.0467 -0.2609  0.0214
  642BOLB   C1C15401   5.623  12.672  18.851  0.1242 -0.0108  0.2102
  642BOLB   C2C15402   6.064  12.465  18.959 -0.4173  0.2404  0.0748
  642BOLB   C3C15403   6.427  12.515  18.915  0.0269  0.0323 -0.2195
  642BOLB   C4C15404   6.590  12.143  18.709  0.2420 -0.1049 -0.2194
  642BOLB   C1D15405   5.860  12.576  18.376 -0.0931 -0.1765 -0.3236
  642BOLB   C2D15406   6.033  12.151  18.534  0.0237 -0.0548  0.0175
  642BOLB   C3D15407   6.336  11.804  18.393 -0.1682  0.1957 -0.1442
  642BOLB   C4D15408   6.640  11.441  18.258 -0.3906  0.0329  0.1564
  643BOLB   NC115409  24.366  12.969  14.260  0.0591 -0.2110 -0.3359
  643BOLB   PO115410  24.072  13.214  13.976  0.0783  0.0959 -0.0864
  643BOLB   GL115411  24.504  13.260  13.885 -0.0349  0.4401  0.2165
  643BOLB   GL215412  24.771  13.110  13.864 -0.2273 -0.0566 -0.0956
  643BOLB   C1A15413  24.746  13.611  13.633 -0.0909  0.0019  0.0147
  643BOLB   C2A15414  25.105  13.745  13.640  0.2318 -0.0366 -0.1130
  643BOLB   C3A15415  25.451  13.751  13.370 -0.1138 -0.0825  0.0441
  643BOLB   C4A15416  25.950  13.918  13.294  0.1817  0.2130  0.1553
  643BOLB   C1B15417  25.101  12.915  13.876  0.0433  0.0501  0.0206
  643BOLB   C2B15418  25.454  12.862  13.906  0.1506  0.0415  0.1190
  643BOLB   C3B15419  25.824  12.805  13.616 -0.1340 -0.1332  0.1322
  643BOLB   C4B15420  26.170  12.992  13.589 -0.0772  0.0570  0.3211
  643BOLB   NC215421  28.018  15.179  14.750 -0.0596 -0.0530 -0.2881
  643BOLB   PO215422  27.683  14.983  14.549 -0.0041  0.3062  0.1178
  643BOLB   GL315423  27.229  14.839  14.453 -0.0557 -0.0432 -0.1905
  643BOLB   GL415424  27.005  14.921  14.776  0.2537  0.2909 -0.2959
  643BOLB   C1C15425  26.979  14.492  14.273  0.0601  0.1263 -0.0419
  643BOLB   C2C15426  26.720  14.385  13.940 -0.0882  0.2119  0.2615
  643BOLB   C3C15427  26.500  14.202  13.689 -0.0084  0.2114  0.3515
  643BOLB   C4C15428  26.354  13.921  13.461  0.3943 -0.0625  0.1280
  643BOLB   C1D15429  26.702  14.997  15.178  0.3580  0.2394 -0.1579
  643BOLB   C2D15430  26.635  14.799  15.605  0.0548  0.0770  0.1701
  643BOLB   C3D15431  26.465  14.448  15.581 -0.0808 -0.0383 -0.2465
  643BOLB   C4D15432  26.387  14.094  15.719 -0.0521  0.1660  0.1547
  644BOLB   NC115433  20.404  15.024  21.121  0.1170 -0.0875 -0.1260
  644BOLB   PO115434  20.744  15.118  21.135 -0.0071 -0.0946 -0.2288
  644BOLB   GL115435  20.997  15.308  21.354  0.1368 -0.1190 -0.0158
  644BOLB   GL215436  20.917  15.649  21.190  0.0140 -0.1834  0.1282
  644BOLB   C1A15437  21.202  15.626  21.544 -0.0685 -0.1173 -0.1107
  644BOLB   C2A15438  21.449  15.909  21.497 -0.2199  0.0465 -0.1010
  644BOLB   C3A15439  21.555  16.045  21.849 -0.3953 -0.0552 -0.0568
  644BOLB   C4A15440  21.803  16.368  22.151  0.0581 -0.1949  0.0289
  644BOLB   C1B15441  21.023  16.045  21.367 -0.1669 -0.5740 -0.0914
  644BOLB   C2B15442  21.110  16.400  21.590  0.0734 -0.0216 -0.0631
  644BOLB   C3B15443  21.273  16.670  21.927  0.0788 -0.1097  0.0550
  644BOLB   C4B15444  21.301  17.058  22.161  0.1242  0.1199 -0.1098
  644BOLB   NC215445  22.278  18.018  23.881 -0.1367 -0.4292  0.3656
  644BOLB   PO215446  22.360  18.112  23.433  0.4172  0.2053  0.3337
  644BOLB   GL315447  22.262  17.913  23.034 -0.0335 -0.0158  0.4674
  644BOLB   GL415448  22.243  17.558  23.239  0.1360  0.0709 -0.2489
  644BOLB   C1C15449  22.268  17.716  22.648 -0.1683 -0.1846 -0.1051
  644BOLB   C2C15450  21.918  17.395  22.489 -0.1155 -0.0557 -0.2701
  644BOLB   C3C15451  21.880  17.015  22.422 -0.3930 -0.3450  0.0011
  644BOLB   C4C15452  21.599  16.687  22.393 -0.1274  0.0363  0.1372
  644BOLB   C1D15453  21.830  17.640  23.056  0.2033 -0.0324  0.0450
  644BOLB   C2D15454  21.608  17.907  22.802  0.0445 -0.0622 -0.0859
  644BOLB   C3D15455  21.230  17.982  22.585 -0.0660 -0.1810 -0.1530
  644BOLB   C4D15456  20.883  18.151  22.508  0.3116  0.0084 -0.5240
  645BOLB   NC115457  23.664   8.987  18.844 -0.0634 -0.0197  0.1115
  645BOLB   PO115458  23.631   9.298  18.616  0.3594  0.0430 -0.0547
  645BOLB   GL115459  24.144   9.333  18.617 -0.2278 -0.5969 -0.3775
  645BOLB   GL215460  24.328   9.416  18.309  0.1115  0.0881  0.3698
  645BOLB   C1A15461  24.566   9.281  18.712 -0.2157  0.0128  0.0416
  645BOLB   C2A15462  24.920   9.023  18.725 -0.1918 -0.0209  0.2627
  645BOLB   C3A15463  25.104   8.570  18.796 -0.0463  0.1620  0.3366
  645BOLB   C4A15464  25.333   8.310  19.120  0.2343 -0.0058  0.0807
  645BOLB   C1B15465  24.818   9.482  18.301  0.0603  0.0062 -0.0530
  645BOLB   C2B15466  25.190   9.716  18.115  0.1929  0.2502  0.1827
  645BOLB   C3B15467  25.517   9.847  18.306 -0.6561  0.0920  0.1473
  645BOLB   C4B15468  25.721   9.896  18.742 -0.0582 -0.3360 -0.1015
  645BOLB   NC215469  27.782   8.137  19.786 -0.2237  0.3153 -0.0373
  645BOLB   PO215470  27.686   8.036  19.366  0.0563  0.4343 -0.2735
  645BOLB   GL315471  27.362   8.185  19.086  0.1307  0.1486 -0.1758
  645BOLB   GL415472  27.295   7.826  19.115  0.2020  0.1097  0.4891
  645BOLB   C1C15473  26.948   8.380  19.103 -0.1989 -0.0755 -0.2386
  645BOLB   C2C15474  26.594   8.531  19.090 -0.0253  0.0543 -0.3726
  645BOLB   C3C15475  26.209   8.419  19.048  0.1509 -0.2821 -0.2094
  645BOLB   C4C15476  25.822   8.383  19.275  0.1534 -0.0060 -0.0376
  645BOLB   C1D15477  26.825   7.878  19.228 -0.3085  0.1089  0.1284
  645BOLB   C2D15478  26.622   8.067  18.894  0.0111  0.3470  0.0754
  645BOLB   C3D15479  26.336   7.960  18.577  0.1075  0.0848 -0.0367
  645BOLB   C4D15480  25.975   8.016  18.337  0.0647 -0.0382  0.0641
  646BOLB   NC115481  23.489   9.324  12.190  0.2911 -0.0545  0.3304
  646BOLB   PO115482  23.406   9.318  11.715  0.1497  0.2824 -0.0163
  646BOLB   GL115483  23.734   9.097  11.444  0.2426  0.0308  0.2376
  646BOLB   GL215484  23.464   9.087  11.204  0.0563 -0.0861 -0.1818
  646BOLB   C1A15485  23.802   8.812  11.020  0.2868 -0.1563  0.2879
  646BOLB   C2A15486  24.076   8.478  10.909 -0.1187  0.1674  0.1467
  646BOLB   C3A15487  24.416   8.167  10.857  0.0084 -0.0010  0.1843
  646BOLB   C4A15488  24.750   8.057  10.690 -0.1768  0.1846  0.2373
  646BOLB   C1B15489  23.710   9.192  10.779  0.0178  0.0854 -0.1777
  646BOLB   C2B15490  24.009   9.511  10.663  0.3941  0.0850  0.0899
  646BOLB   C3B15491  24.373   9.581  10.433  0.0859  0.0031  0.0905
  646BOLB   C4B15492  24.688   9.664  10.077  0.1883 -0.1001 -0.1599
  646BOLB   NC215493  26.944   8.091  10.931  0.0446  0.0612 -0.2349
  646BOLB   PO215494  27.075   7.781  11.085 -0.1744  0.0076  0.0675
  646BOLB   GL315495  26.612   7.733  11.063  0.2969  0.0226  0.1681
  646BOLB   GL415496  26.593   7.607  11.246  0.2088 -0.2843 -0.0089
  646BOLB   C1C15497  26.378   7.446  10.815 -0.1677  0.2298 -0.3046
  646BOLB   C2C15498  25.961   7.399  10.749  0.1536  0.0049  0.2544
  646BOLB   C3C15499  25.484   7.504  10.675 -0.1283  0.0658  0.0496
  646BOLB   C4C15500  25.066   7.760  10.574 -0.0197  0.2368 -0.2892
  646BOLB   C1D15501  26.299   7.768  11.563 -0.0543  0.0858  0.2962
  646BOLB   C2D15502  26.036   7.920  11.898  0.0028 -0.1457  0.0376
  646BOLB   C3D15503  26.163   8.184  12.197  0.0312  0.2386 -0.1619
  646BOLB   C4D15504  25.902   8.320  12.474 -0.0404  0.0073 -0.2650
  647BOLB   NC115505   8.080  34.414   8.911  0.0923  0.0045 -0.1240
  647BOLB   PO115506   8.120  34.505   8.518  0.2552  0.0711  0.0479
  647BOLB   GL115507   8.254  34.956   8.742 -0.0586 -0.0597  0.1701
  647BOLB   GL215508   8.558  34.848   8.502 -0.1942 -0.1906 -0.2802
  647BOLB   C1A15509   8.210  35.302   8.929 -0.1582 -0.0516  0.0185
  647BOLB   C2A15510   8.278  35.669   9.198 -0.0738  0.2258  0.1877
  647BOLB   C3A15511   8.254  36.035   9.268  0.2844 -0.1579  0.1005
  647BOLB   C4A15512   8.106  36.239   9.606  0.1629  0.0289  0.1311
  647BOLB   C1B15513   8.948  35.084   8.473 -0.1891  0.2371  0.0497
  647BOLB   C2B15514   9.253  35.380   8.513  0.1895 -0.1112  0.2090
  647BOLB   C3B15515   9.335  35.854   8.360  0.1448 -0.2161 -0.1086
  647BOLB   C4B15516   9.434  36.100   8.135  0.1680  0.1613 -0.2174
  647BOLB   NC215517   6.554  35.244   9.173  0.0353  0.2779 -0.0562
  647BOLB   PO215518   6.824  35.138   8.794 -0.1378  0.0422  0.6623
  647BOLB   GL315519   6.997  35.503   8.902 -0.0834  0.1568  0.2203
  647BOLB   GL415520   7.257  35.497   8.615  0.1070  0.1091  0.1235
  647BOLB   C1C15521   7.025  35.966   8.916 -0.1789  0.3302 -0.1318
  647BOLB   C2C15522   7.191  36.378   9.034  0.0244  0.0837 -0.1554
  647BOLB   C3C15523   7.495  36.566   9.298  0.1987 -0.0018 -0.1973
  647BOLB   C4C15524   7.857  36.579   9.513 -0.0333 -0.0240  0.1472
  647BOLB   C1D15525   7.452  35.866   8.827  0.2595  0.0569  0.1082
  647BOLB   C2D15526   7.600  36.212   8.888 -0.0274  0.2471 -0.0052
  647BOLB   C3D15527   8.002  36.408   9.010 -0.0376 -0.1747 -0.1962
  647BOLB   C4D15528   8.484  36.499   9.227 -0.1327 -0.1790 -0.0102
  648BOLB   NC115529  23.800   8.676  12.758 -0.2726 -0.2027 -0.1550
  648BOLB   PO115530  23.516   9.002  12.607  0.0374  0.0137  0.1794
  648BOLB   GL115531  23.903   8.959  12.343 -0.1598  0.3182  0.2981
  648BOLB   GL215532  24.189   8.661  12.487 -0.1772 -0.1972 -0.0706
  648BOLB   C1A15533  24.221   8.935  12.091  0.2795  0.0609 -0.1750
  648BOLB   C2A15534  24.549   9.078  12.067  0.1290  0.2213 -0.1437
  648BOLB   C3A15535  25.026   8.913  11.898  0.1410 -0.0351 -0.1811
  648BOLB   C4A15536  25.206   8.948  11.587 -0.2550 -0.0970  0.1675
  648BOLB   C1B15537  24.547   8.482  12.270  0.1045 -0.0259 -0.0124
  648BOLB   C2B15538  24.986   8.697  12.293  0.2234 -0.1217 -0.3011
  648BOLB   C3B15539  25.397   8.896  12.351 -0.0443  0.0026 -0.2863
  648BOLB   C4B15540  25.745   8.787  12.706 -0.1772 -0.3928  0.2494
  648BOLB   NC215541  26.738   9.240   9.646  0.0313 -0.0134  0.1571
  648BOLB   PO215542  26.234   9.241   9.661 -0.0713 -0.0507 -0.2480
  648BOLB   GL315543  26.059   9.550   9.953 -0.2047 -0.0110 -0.1822
  648BOLB   GL415544  26.236   9.799   9.900 -0.1953  0.4341 -0.1192
  648BOLB   C1C15545  26.111   9.722  10.384  0.0452  0.1850 -0.1022
  648BOLB   C2C15546  25.906   9.728  10.735 -0.3492 -0.0248 -0.1431
  648BOLB   C3C15547  25.803   9.514  11.186  0.3477  0.2442 -0.0741
  648BOLB   C4C15548  25.538   9.133  11.407 -0.6141 -0.0663 -0.2046
  648BOLB   C1D15549  25.873   9.941   9.650  0.0558  0.0943 -0.1522
  648BOLB   C2D15550  25.577  10.191   9.496  0.2782  0.0560  0.2923
  648BOLB   C3D15551  25.215  10.172   9.204  0.0823  0.4261 -0.0884
  648BOLB   C4D15552  24.821  10.078   9.173 -0.0156  0.3186  0.1659
  649BOLB   NC115553  19.541  16.515   5.654  0.2697 -0.0870  0.1889
  649BOLB   PO115554  19.525  16.126   5.533  0.1032 -0.0455 -0.0987
  649BOLB   GL115555  19.214  16.143   5.857  0.1016 -0.0024 -0.1600
  649BOLB   GL215556  19.196  16.499   6.050 -0.1114  0.1338  0.0260
  649BOLB   C1A15557  18.914  16.102   6.152  0.0128 -0.1603 -0.5289
  649BOLB   C2A15558  18.841  15.920   6.588 -0.0299 -0.1131  0.2365
  649BOLB   C3A15559  18.932  15.994   7.036 -0.3325 -0.1654  0.0112
  649BOLB   C4A15560  19.343  15.680   7.130  0.1979 -0.0283  0.0829
  649BOLB   C1B15561  18.866  16.482   5.850 -0.0313  0.1354  0.0615
  649BOLB   C2B15562  18.453  16.435   6.041  0.4414 -0.1904  0.0703
  649BOLB   C3B15563  18.300  16.345   6.493 -0.0928  0.0897 -0.2825
  649BOLB   C4B15564  18.444  16.498   6.776  0.4265 -0.0702 -0.0665
  649BOLB   NC215565  19.987  14.211   5.049 -0.0322 -0.0129  0.2853
  649BOLB   PO215566  19.898  14.601   5.243 -0.0954  0.1196 -0.0522
  649BOLB   GL315567  19.635  14.645   5.543  0.1795 -0.2618  0.2122
  649BOLB   GL415568  19.865  14.682   5.806 -0.0745  0.0562  0.2016
  649BOLB   C1C15569  19.382  14.840   5.690  0.0726 -0.2562 -0.1372
  649BOLB   C2C15570  19.282  14.964   6.139  0.1501  0.0061 -0.2528
  649BOLB   C3C15571  19.441  15.086   6.555 -0.0678 -0.0997 -0.0901
  649BOLB   C4C15572  19.571  15.425   6.843  0.1373  0.3637 -0.1883
  649BOLB   C1D15573  19.967  14.291   6.119  0.1911  0.4170  0.0708
  649BOLB   C2D15574  19.883  14.260   6.416  0.5664  0.0173 -0.2340
  649BOLB   C3D15575  19.896  14.457   6.774 -0.0355 -0.1224 -0.1212
  649BOLB   C4D15576  19.873  14.536   7.241  0.4296  0.2385  0.1836
  650BOLB   NC115577  12.842   8.471   1.128  0.2927 -0.0469  0.2417
  650BOLB   PO115578  12.490   8.718   0.990  0.2079 -0.2473 -0.0470
  650BOLB   GL115579  12.496   8.871   1.330  0.2320  0.2035  0.1693
  650BOLB   GL215580  12.123   8.850   1.446  0.0369  0.3283 -0.0333
  650BOLB   C1A15581  12.450   9.184   1.719 -0.4180  0.0334 -0.4563
  650BOLB   C2A15582  12.385   9.144   2.175  0.0578 -0.0628 -0.1300
  650BOLB   C3A15583  12.182   8.992   2.506  0.1793 -0.0181 -0.0641
  650BOLB   C4A15584  11.710   9.115   2.760 -0.1901 -0.4038 -0.1090
  650BOLB   C1B15585  11.939   9.177   1.719 -0.0464  0.3385  0.0342
  650BOLB   C2B15586  11.605   9.419   1.853  0.0761 -0.0629  0.0128
  650BOLB   C3B15587  11.282   9.599   1.966  0.0316 -0.0522 -0.0517
  650BOLB   C4B15588  10.948   9.916   1.990  0.1838  0.2572 -0.0085
  650BOLB   NC215589  11.443   9.892   1.093 -0.0007 -0.0767  0.0825
  650BOLB   PO215590  11.276   9.482   0.984 -0.2364 -0.0276  0.1981
  650BOLB   GL315591  11.082   9.204   1.392 -0.2491 -0.0813 -0.3410
  650BOLB   GL415592  11.053   8.787   1.257  0.0143 -0.2159  0.3072
  650BOLB   C1C15593  10.730   9.098   1.816  0.2132 -0.0766  0.1834
  650BOLB   C2C15594  10.582   8.977   2.217  0.1620  0.0539 -0.3115
  650BOLB   C3C15595  10.918   9.047   2.585  0.1967 -0.6003 -0.0461
  650BOLB   C4C15596  11.342   9.117   2.814  0.2419  0.2735  0.1256
  650BOLB   C1D15597  11.256   8.753   1.613  0.2925  0.1204 -0.0287
  650BOLB   C2D15598  11.654   8.673   1.722 -0.0132  0.1151 -0.0900
  650BOLB   C3D15599  11.931   8.850   2.078  0.0255 -0.2577 -0.0195
  650BOLB   C4D15600  11.892   9.301   2.250  0.2573  0.0633  0.0660
  651BOLB   NC115601  14.422   1.374  16.601 -0.1835  0.0701  0.2518
  651BOLB   PO115602  14.884   1.295  16.507 -0.2879 -0.2397 -0.1147
  651BOLB   GL115603  14.709   0.903  16.691  0.1626  0.3647  0.2820
  651BOLB   GL215604  14.526   0.937  16.799 -0.2385  0.1474  0.0388
  651BOLB   C1A15605  14.747   0.455  16.769 -0.0659  0.3022 -0.3793
  651BOLB   C2A15606  14.538   0.095  16.850 -0.1889 -0.1671 -0.1140
  651BOLB   C3A15607  14.385  -0.141  17.206  0.0995 -0.1203  0.2095
  651BOLB   C4A15608  14.176  -0.370  17.423  0.3733  0.1258 -0.2214
  651BOLB   C1B15609  14.265   0.734  17.089  0.1183  0.4340  0.0663
  651BOLB   C2B15610  13.984   0.717  17.243 -0.2989  0.1073 -0.0373
  651BOLB   C3B15611  13.574   0.524  17.171 -0.1636  0.1255 -0.1561
  651BOLB   C4B15612  13.467   0.162  17.273 -0.0736  0.4105  0.0796
  651BOLB   NC215613  14.277  -2.306  18.416  0.2947 -0.0792 -0.0535
  651BOLB   PO215614  13.953  -2.536  18.209 -0.0915 -0.2896 -0.2075
  651BOLB   GL315615  13.919  -2.132  18.088  0.1028  0.2251  0.1877
  651BOLB   GL415616  13.863  -1.944  18.455  0.1208  0.1698 -0.1024
  651BOLB   C1C15617  13.842  -1.765  17.732 -0.0337 -0.0530  0.0016
  651BOLB   C2C15618  14.007  -1.428  17.604  0.1970  0.0232  0.0780
  651BOLB   C3C15619  13.972  -1.080  17.430  0.0104  0.2486 -0.0049
  651BOLB   C4C15620  13.923  -0.639  17.397 -0.1812  0.0168 -0.0219
  651BOLB   C1D15621  13.941  -1.467  18.463 -0.1772 -0.0874  0.1887
  651BOLB   C2D15622  13.811  -1.117  18.360 -0.1122  0.0036  0.2308
  651BOLB   C3D15623  13.577  -0.852  18.107 -0.4290 -0.0596 -0.3857
  651BOLB   C4D15624  13.512  -0.595  17.703 -0.1836  0.1108  0.1034
  652BOLB   NC115625  10.849   5.931  20.350 -0.0994  0.0284  0.0835
  652BOLB   PO115626  10.518   5.688  20.127 -0.2882  0.2181  0.2436
  652BOLB   GL115627  10.066   5.461  20.156 -0.0912  0.1456 -0.0810
  652BOLB   GL215628  10.117   5.611  20.493  0.2865 -0.0266 -0.1742
  652BOLB   C1A15629   9.817   5.151  20.417  0.1011 -0.0417 -0.2150
  652BOLB   C2A15630   9.677   4.979  20.838  0.1258  0.0500  0.1223
  652BOLB   C3A15631   9.510   4.662  21.156  0.0005 -0.0103  0.2904
  652BOLB   C4A15632   9.387   4.194  21.202  0.1058 -0.0575  0.0638
  652BOLB   C1B15633   9.922   5.411  20.758  0.1664 -0.1181 -0.2615
  652BOLB   C2B15634   9.866   5.206  21.270 -0.2330  0.0464  0.1106
  652BOLB   C3B15635   9.666   5.062  21.561  0.2692 -0.0336  0.2213
  652BOLB   C4B15636   9.442   4.675  21.657 -0.0118  0.4206 -0.0280
  652BOLB   NC215637   7.934   3.135  22.640  0.0278  0.2095 -0.1015
  652BOLB   PO215638   7.913   2.733  22.447  0.0454  0.0176  0.0217
  652BOLB   GL315639   8.212   2.991  22.241  0.1640 -0.0373 -0.3532
  652BOLB   GL415640   8.239   3.255  22.294  0.0399  0.2289  0.0033
  652BOLB   C1C15641   8.660   3.146  22.090  0.0629  0.0524  0.0177
  652BOLB   C2C15642   8.962   3.270  21.781 -0.0258 -0.0196 -0.1631
  652BOLB   C3C15643   9.186   3.545  21.701  0.2831 -0.0626 -0.4496
  652BOLB   C4C15644   9.259   3.851  21.403 -0.1988  0.0200  0.1363
  652BOLB   C1D15645   8.465   3.568  21.990  0.0696 -0.0086  0.0502
  652BOLB   C2D15646   8.734   3.738  21.683 -0.2348  0.3068 -0.0426
  652BOLB   C3D15647   8.803   3.607  21.281 -0.2577 -0.0770 -0.0178
  652BOLB   C4D15648   8.970   3.715  20.974 -0.0892 -0.0475 -0.2602
  653BOLB   NC115649  16.932  13.634   8.137  0.0043  0.0811 -0.0562
  653BOLB   PO115650  17.141  13.236   8.159 -0.1483 -0.2794  0.0184
  653BOLB   GL115651  17.064  13.271   7.733  0.1266 -0.3820 -0.0320
  653BOLB   GL215652  16.877  13.495   7.593  0.2778 -0.0910 -0.0551
  653BOLB   C1A15653  17.110  13.154   7.290 -0.0247 -0.0108 -0.1282
  653BOLB   C2A15654  17.118  13.116   6.817  0.2833 -0.0560  0.0028
  653BOLB   C3A15655  17.134  12.978   6.422 -0.1804  0.0931 -0.2231
  653BOLB   C4A15656  17.132  12.745   6.088  0.1813  0.2465  0.4315
  653BOLB   C1B15657  17.009  13.655   7.227 -0.0262  0.2615 -0.2320
  653BOLB   C2B15658  17.470  13.654   7.225  0.0691 -0.0977  0.1308
  653BOLB   C3B15659  17.747  14.039   7.413 -0.2312  0.0121  0.0297
  653BOLB   C4B15660  18.100  14.224   7.572  0.3461 -0.0442 -0.0941
  653BOLB   NC215661  17.496  13.072   3.818  0.1140 -0.0542 -0.2805
  653BOLB   PO215662  17.130  12.732   3.826  0.0716 -0.0362  0.0277
  653BOLB   GL315663  17.096  12.994   4.280 -0.0058 -0.2684  0.0785
  653BOLB   GL415664  16.798  13.083   4.424 -0.0476 -0.3784 -0.0966
  653BOLB   C1C15665  17.175  12.670   4.641 -0.0095 -0.1688 -0.2104
  653BOLB   C2C15666  17.463  12.506   4.961  0.1456  0.0348  0.2405
  653BOLB   C3C15667  17.311  12.308   5.401  0.0640  0.2125  0.0597
  653BOLB   C4C15668  17.393  12.424   5.826  0.2261 -0.1019 -0.1567
  653BOLB   C1D15669  16.686  12.945   4.782  0.2035 -0.2195 -0.0215
  653BOLB   C2D15670  16.413  12.891   5.061  0.2162 -0.1631 -0.1924
  653BOLB   C3D15671  16.200  12.863   5.459  0.0011 -0.0950  0.0270
  653BOLB   C4D15672  15.847  12.875   5.645 -0.3244 -0.0348  0.1118
  654BOLB   NC115673  22.523  16.443  17.258  0.2250 -0.0167 -0.2475
  654BOLB   PO115674  22.709  16.288  17.584  0.2916  0.0003  0.2637
  654BOLB   GL115675  23.135  16.420  17.626 -0.2359 -0.1175 -0.4095
  654BOLB   GL215676  23.381  16.319  17.517 -0.0175 -0.0520 -0.1505
  654BOLB   C1A15677  23.289  16.691  17.892  0.0183  0.0250 -0.1867
  654BOLB   C2A15678  23.567  16.951  18.004 -0.1937 -0.0164 -0.2162
  654BOLB   C3A15679  23.829  17.099  17.781  0.1150 -0.1638 -0.0756
  654BOLB   C4A15680  23.935  17.564  17.767 -0.2568 -0.0175  0.4384
  654BOLB   C1B15681  23.609  16.728  17.494  0.1309 -0.0632  0.1036
  654BOLB   C2B15682  23.991  16.814  17.403 -0.1314  0.2508  0.0568
  654BOLB   C3B15683  24.376  16.938  17.274 -0.0486  0.0416  0.3069
  654BOLB   C4B15684  24.751  16.849  17.095 -0.2422 -0.0055 -0.1414
  654BOLB   NC215685  25.510  19.288  17.209  0.2361 -0.0393 -0.1477
  654BOLB   PO215686  25.310  19.085  16.784  0.1730  0.2921  0.1540
  654BOLB   GL315687  25.228  18.623  16.907 -0.2174 -0.0088 -0.1519
  654BOLB   GL415688  25.442  18.549  16.653  0.0341  0.0657 -0.2308
  654BOLB   C1C15689  25.077  18.307  17.181 -0.0266 -0.0384  0.1475
  654BOLB   C2C15690  24.865  17.963  17.276 -0.2049 -0.0031  0.1140
  654BOLB   C3C15691  24.407  17.903  17.142  0.2001  0.0001  0.1140
  654BOLB   C4C15692  24.110  17.753  17.327  0.0829 -0.1472  0.0120
  654BOLB   C1D15693  25.294  18.117  16.743 -0.0875  0.0648  0.0238
  654BOLB   C2D15694  25.123  17.667  16.680  0.0239 -0.0282  0.2759
  654BOLB   C3D15695  24.835  17.367  16.981 -0.0277 -0.0377  0.0880
  654BOLB   C4D15696  24.544  17.398  17.113  0.1103 -0.0936  0.1507
  655BOLB   NC115697  18.788  12.582  23.704  0.0497  0.2934 -0.0517
  655BOLB   PO115698  18.475  12.819  23.912  0.1845 -0.0137  0.0108
  655BOLB   GL115699  18.699  12.812  24.189  0.0005  0.2710  0.1860
  655BOLB   GL215700  18.492  12.789  24.534 -0.0802  0.3294 -0.1299
  655BOLB   C1A15701  19.051  12.838  24.578  0.2827 -0.0636 -0.0478
  655BOLB   C2A15702  19.330  13.247  24.809 -0.0324 -0.0097 -0.0388
  655BOLB   C3A15703  19.640  13.479  24.992 -0.1762  0.0452  0.2924
  655BOLB   C4A15704  20.047  13.583  25.068  0.2765  0.3072  0.0884
  655BOLB   C1B15705  18.655  12.623  24.870 -0.0195  0.1365  0.1399
  655BOLB   C2B15706  19.033  12.724  25.134 -0.2018 -0.1486 -0.1578
  655BOLB   C3B15707  19.177  12.498  25.501 -0.0098  0.0103 -0.2918
  655BOLB   C4B15708  19.248  12.056  25.481 -0.1365 -0.0008 -0.2709
  655BOLB   NC215709  21.985  14.118  26.649  0.1828  0.0625  0.0013
  655BOLB   PO215710  21.922  14.154  26.228 -0.1484 -0.4767  0.1971
  655BOLB   GL315711  21.838  14.254  25.715 -0.2489 -0.0810 -0.0026
  655BOLB   GL415712  21.925  14.453  25.514 -0.0525  0.1608  0.1803
  655BOLB   C1C15713  21.512  14.233  25.382  0.0348 -0.2731  0.0689
  655BOLB   C2C15714  21.039  14.126  25.200 -0.1085 -0.2647 -0.0135
  655BOLB   C3C15715  20.662  13.928  25.310  0.0104  0.3136  0.1678
  655BOLB   C4C15716  20.311  13.782  25.289 -0.0254 -0.0234  0.3219
  655BOLB   C1D15717  21.700  14.578  25.103  0.0315 -0.2140 -0.0553
  655BOLB   C2D15718  21.494  14.441  24.821  0.0323  0.3706 -0.0727
  655BOLB   C3D15719  21.290  14.007  24.802  0.1311  0.0803 -0.0525
  655BOLB   C4D15720  20.880  13.802  24.863  0.1657  0.2786 -0.0247
  656BOLB   NC115721  16.898  10.402   8.178  0.0858  0.1039 -0.0134
  656BOLB   PO115722  16.396  10.190   7.998 -0.0251 -0.0627  0.0262
  656BOLB   GL115723  16.677  10.214   7.746 -0.1246 -0.1002 -0.1160
  656BOLB   GL215724  16.781  10.440   7.662  0.0502 -0.1359  0.0811
  656BOLB   C1A15725  17.009  10.066   7.494 -0.0402 -0.0058  0.1171
  656BOLB   C2A15726  17.224   9.921   7.160  0.1244 -0.0440 -0.1820
  656BOLB   C3A15727  17.471  10.027   6.715  0.0881  0.1000 -0.2628
  656BOLB   C4A15728  17.784   9.794   6.612 -0.1118  0.0057 -0.1552
  656BOLB   C1B15729  16.854  10.483   7.203 -0.2273 -0.5678 -0.2525
  656BOLB   C2B15730  16.839  10.320   6.745 -0.1873 -0.0779  0.1889
  656BOLB   C3B15731  16.820  10.418   6.275  0.1259 -0.3109 -0.0127
  656BOLB   C4B15732  17.044  10.537   5.931 -0.0367 -0.1305 -0.2530
  656BOLB   NC215733  19.155   9.665   4.102 -0.1194  0.1201 -0.1088
  656BOLB   PO215734  19.220   9.596   4.446  0.1644  0.2218 -0.0634
  656BOLB   GL315735  19.175   9.536   4.845 -0.3973  0.2027  0.2478
  656BOLB   GL415736  19.366   9.777   5.019 -0.0619  0.2904  0.0556
  656BOLB   C1C15737  18.800   9.491   5.073  0.2359 -0.1381 -0.1206
  656BOLB   C2C15738  18.405   9.379   5.484 -0.1663  0.1107  0.4494
  656BOLB   C3C15739  18.183   9.556   5.809 -0.0993  0.0025 -0.2611
  656BOLB   C4C15740  17.988   9.679   6.252  0.0540 -0.3043  0.0264
  656BOLB   C1D15741  19.256   9.747   5.361 -0.1482  0.3332 -0.0485
  656BOLB   C2D15742  18.876   9.655   5.593 -0.0746  0.3045  0.1710
  656BOLB   C3D15743  18.584   9.926   5.962  0.0223  0.3640 -0.1664
  656BOLB   C4D15744  18.399  10.027   6.295  0.2940 -0.3685  0.0630
  657BOLB   NC115745  18.637  15.763  10.000 -0.1523 -0.1668 -0.1224
  657BOLB   PO115746  18.525  15.464   9.627 -0.3367 -0.0773 -0.0668
  657BOLB   GL115747  18.768  15.788   9.329 -0.0367  0.1605  0.2838
  657BOLB   GL215748  18.934  15.793   9.527 -0.1320  0.0651  0.3455
  657BOLB   C1A15749  18.786  15.987   8.945  0.2846 -0.3748 -0.3491
  657BOLB   C2A15750  18.917  16.061   8.486  0.0526  0.0593 -0.1992
  657BOLB   C3A15751  18.681  16.272   8.158  0.0002 -0.0372  0.0709
  657BOLB   C4A15752  18.410  16.388   8.013 -0.1546 -0.0547  0.0421
  657BOLB   C1B15753  19.323  16.048   9.249  0.0049  0.1293 -0.1299
  657BOLB   C2B15754  19.267  16.232   8.809  0.2469 -0.1665  0.2462
  657BOLB   C3B15755  19.319  16.465   8.418 -0.0665 -0.0942  0.2319
  657BOLB   C4B15756  19.538  16.628   8.179  0.1223  0.0977 -0.1019
  657BOLB   NC215757  18.390  17.410   5.192 -0.0648  0.0006 -0.1420
  657BOLB   PO215758  18.422  17.332   5.691 -0.1174 -0.1076  0.2989
  657BOLB   GL315759  18.243  17.056   5.970 -0.1982 -0.0872  0.1893
  657BOLB   GL415760  17.852  16.953   5.820 -0.0101 -0.0993 -0.0929
  657BOLB   C1C15761  18.293  16.818   6.440  0.0454  0.0260 -0.2469
  657BOLB   C2C15762  18.438  16.989   6.813 -0.1537 -0.1737  0.0675
  657BOLB   C3C15763  18.474  16.797   7.198 -0.1155 -0.0589  0.2495
  657BOLB   C4C15764  18.418  16.567   7.590  0.0596  0.1354 -0.1049
  657BOLB   C1D15765  17.915  16.658   6.120  0.0545  0.0986 -0.0465
  657BOLB   C2D15766  17.857  16.539   6.475 -0.0213  0.0763  0.0744
  657BOLB   C3D15767  17.724  16.264   6.868  0.0247 -0.3240 -0.0399
  657BOLB   C4D15768  17.404  15.976   6.765 -0.3080 -0.0675  0.0839
  658BOLB   NC115769  20.009   4.959  10.181 -0.2280 -0.2099  0.1560
  658BOLB   PO115770  19.694   4.751   9.944  0.0540 -0.1718 -0.0086
  658BOLB   GL115771  19.793   4.577   9.673  0.2311  0.1321 -0.0490
  658BOLB   GL215772  20.112   4.551   9.680 -0.2824 -0.1181  0.4121
  658BOLB   C1A15773  19.763   4.504   9.166 -0.1828 -0.3495  0.1748
  658BOLB   C2A15774  20.002   4.298   8.841 -0.3354 -0.2126 -0.1066
  658BOLB   C3A15775  20.245   4.217   8.530  0.1570 -0.1288  0.0392
  658BOLB   C4A15776  20.630   4.017   8.336  0.2165  0.2921 -0.0545
  658BOLB   C1B15777  20.238   4.449   9.321  0.1753 -0.0532  0.1504
  658BOLB   C2B15778  20.477   4.684   8.984 -0.0266  0.2154 -0.2494
  658BOLB   C3B15779  20.418   4.847   8.550  0.1227  0.2969  0.0445
  658BOLB   C4B15780  20.409   4.583   8.157 -0.1443  0.0643  0.1137
  658BOLB   NC215781  22.890   3.948   6.356 -0.1828 -0.0608 -0.4255
  658BOLB   PO215782  22.464   4.024   6.656 -0.1104  0.1704 -0.0359
  658BOLB   GL315783  22.184   4.028   6.932  0.2547 -0.1851  0.1621
  658BOLB   GL415784  21.856   4.049   6.887  0.2512 -0.1462 -0.1318
  658BOLB   C1C15785  22.172   4.144   7.318  0.1437 -0.1522 -0.2429
  658BOLB   C2C15786  21.726   3.934   7.493  0.3453  0.1695  0.0094
  658BOLB   C3C15787  21.363   3.877   7.802  0.0098 -0.1761  0.0890
  658BOLB   C4C15788  21.098   3.910   8.226 -0.2470  0.0598 -0.3546
  658BOLB   C1D15789  21.447   3.995   7.045 -0.0081 -0.4832 -0.1823
  658BOLB   C2D15790  21.183   3.966   7.367  0.3436 -0.1512 -0.0920
  658BOLB   C3D15791  21.006   4.193   7.725  0.1187 -0.3790  0.0899
  658BOLB   C4D15792  20.861   4.496   8.026 -0.0275  0.0303  0.1881
  659BOLB   NC115793  21.592   8.542  10.096 -0.0664  0.1398 -0.1093
  659BOLB   PO115794  21.513   8.080  10.244 -0.0033  0.1538 -0.0783
  659BOLB   GL115795  21.902   8.066   9.953  0.0540 -0.0393  0.0664
  659BOLB   GL215796  21.972   8.285   9.887 -0.0005  0.0333  0.0389
  659BOLB   C1A15797  22.254   7.972   9.552  0.2112 -0.0653 -0.0870
  659BOLB   C2A15798  22.418   8.084   9.200  0.1701  0.1042  0.1239
  659BOLB   C3A15799  22.683   8.283   8.929 -0.3075 -0.0581  0.5468
  659BOLB   C4A15800  23.128   8.486   8.689 -0.0858  0.2788 -0.1179
  659BOLB   C1B15801  22.168   8.476   9.486 -0.1573 -0.2701 -0.0911
  659BOLB   C2B15802  22.592   8.502   9.428 -0.1303 -0.0061 -0.1634
  659BOLB   C3B15803  22.937   8.660   9.174 -0.1592  0.4738 -0.0493
  659BOLB   C4B15804  23.347   8.984   9.159 -0.0706 -0.4091 -0.3532
  659BOLB   NC215805  25.036   8.775   7.940  0.0224  0.3141  0.0066
  659BOLB   PO215806  24.941   8.870   7.479  0.0830  0.2586 -0.1790
  659BOLB   GL315807  24.450   8.941   7.672 -0.1857 -0.1517  0.1231
  659BOLB   GL415808  24.565   9.155   7.920 -0.1424 -0.4044  0.1076
  659BOLB   C1C15809  24.046   9.187   7.790 -0.0888  0.0111  0.2198
  659BOLB   C2C15810  23.706   9.074   7.963 -0.0563  0.0678  0.1277
  659BOLB   C3C15811  23.502   9.064   8.317 -0.0745 -0.0040  0.0199
  659BOLB   C4C15812  23.335   8.801   8.596 -0.2011  0.2415 -0.2856
  659BOLB   C1D15813  24.241   9.074   8.248 -0.1332 -0.0431 -0.1076
  659BOLB   C2D15814  23.996   8.835   8.559 -0.0043  0.1135  0.2381
  659BOLB   C3D15815  23.757   8.626   8.887 -0.0576 -0.1777  0.1963
  659BOLB   C4D15816  23.436   8.511   9.104 -0.0477 -0.2097  0.2649
  660BOLB   NC115817  21.509   6.956  11.621  0.4937  0.3565 -0.0629
  660BOLB   PO115818  21.591   7.121  11.231 -0.0186 -0.2815 -0.2689
  660BOLB   GL115819  21.914   7.260  10.958 -0.2546  0.0442 -0.1569
  660BOLB   GL215820  21.985   7.420  10.715 -0.0537  0.0498  0.1408
  660BOLB   C1A15821  22.386   7.092  10.892  0.0788 -0.1455 -0.1604
  660BOLB   C2A15822  22.664   6.976  10.521 -0.2200  0.2053  0.0510
  660BOLB   C3A15823  22.823   6.719  10.132 -0.1946 -0.0218 -0.2941
  660BOLB   C4A15824  22.880   6.738   9.732 -0.0048  0.1091  0.0470
  660BOLB   C1B15825  22.374   7.493  10.476 -0.0108 -0.1351 -0.1544
  660BOLB   C2B15826  22.837   7.414  10.295 -0.0952 -0.0420 -0.2256
  660BOLB   C3B15827  23.189   7.212  10.217  0.1468 -0.0193 -0.0944
  660BOLB   C4B15828  23.292   7.189   9.791  0.0010  0.2339 -0.0937
  660BOLB   NC215829  24.783   5.788   8.120 -0.0400 -0.2892  0.0448
  660BOLB   PO215830  24.906   5.929   8.577 -0.1054  0.4255 -0.4498
  660BOLB   GL315831  24.764   6.369   8.795  0.0103  0.1776  0.2496
  660BOLB   GL415832  24.821   6.630   8.607 -0.0103  0.1403 -0.0769
  660BOLB   C1C15833  24.569   6.496   9.239 -0.3052  0.2102  0.3905
  660BOLB   C2C15834  24.178   6.578   9.436 -0.0936 -0.1571 -0.0082
  660BOLB   C3C15835  23.714   6.466   9.553 -0.2842 -0.4904 -0.0223
  660BOLB   C4C15836  23.347   6.712   9.592  0.1470 -0.0184  0.3423
  660BOLB   C1D15837  24.546   6.881   8.533  0.0116 -0.3692 -0.2460
  660BOLB   C2D15838  24.116   6.874   8.411 -0.1298  0.2201 -0.0881
  660BOLB   C3D15839  23.760   6.972   8.631 -0.1767  0.1895  0.0426
  660BOLB   C4D15840  23.609   7.323   8.774  0.0769  0.1154 -0.1042
  661BOLB   NC115841  22.578  15.841  16.492  0.2945  0.1365 -0.3247
  661BOLB   PO115842  22.583  16.186  16.729  0.1310  0.2268  0.0385
  661BOLB   GL115843  22.815  16.499  16.730 -0.1913  0.3269  0.0981
  661BOLB   GL215844  22.971  16.418  17.030 -0.0589 -0.1189 -0.0911
  661BOLB   C1A15845  23.230  16.751  16.704  0.0167  0.0708 -0.0594
  661BOLB   C2A15846  23.614  16.835  16.713 -0.0368  0.0073  0.0735
  661BOLB   C3A15847  23.981  17.171  16.826  0.0565 -0.2261  0.0355
  661BOLB   C4A15848  24.324  17.446  16.661  0.2154  0.0568  0.0952
  661BOLB   C1B15849  23.217  16.694  17.201  0.1296  0.1098  0.3521
  661BOLB   C2B15850  23.557  17.080  17.140  0.2116  0.1631 -0.0134
  661BOLB   C3B15851  23.895  17.261  17.330 -0.1661  0.0030 -0.1726
  661BOLB   C4B15852  24.329  17.327  17.537  0.1978 -0.0233  0.6504
  661BOLB   NC215853  25.753  18.466  14.664 -0.0182  0.1053 -0.0783
  661BOLB   PO215854  25.625  18.400  15.006 -0.1832 -0.2244 -0.0975
  661BOLB   GL315855  25.465  18.166  15.352  0.1922 -0.0834  0.1583
  661BOLB   GL415856  25.138  18.014  15.109 -0.0065  0.1737  0.1949
  661BOLB   C1C15857  25.294  18.080  15.747  0.0305  0.0373 -0.2004
  661BOLB   C2C15858  25.207  18.234  16.196  0.0268 -0.0601  0.0311
  661BOLB   C3C15859  24.900  18.174  16.444 -0.0407 -0.0603  0.1597
  661BOLB   C4C15860  24.668  17.713  16.682  0.2488 -0.1049  0.4975
  661BOLB   C1D15861  24.804  17.804  14.960  0.0031  0.3548  0.1105
  661BOLB   C2D15862  24.347  17.742  15.120 -0.2264 -0.0095  0.1999
  661BOLB   C3D15863  24.113  17.384  15.347  0.0349 -0.0234 -0.1697
  661BOLB   C4D15864  23.894  16.918  15.506  0.0317 -0.1735 -0.0783
  662BOLB   NC115865  16.033   1.225  15.477  0.0777  0.1717  0.2336
  662BOLB   PO115866  16.251   1.474  15.776 -0.0763 -0.0566  0.4924
  662BOLB   GL115867  16.343   0.967  15.835  0.1567  0.0337 -0.0607
  662BOLB   GL215868  16.366   0.854  15.544  0.4795  0.0448 -0.2373
  662BOLB   C1A15869  16.022   0.640  16.000 -0.0513 -0.2000 -0.0589
  662BOLB   C2A15870  15.927   0.221  16.228 -0.1272  0.0613  0.2669
  662BOLB   C3A15871  15.725  -0.103  16.027 -0.0536  0.0549 -0.2798
  662BOLB   C4A15872  15.637  -0.459  15.747  0.0144 -0.2937  0.2320
  662BOLB   C1B15873  16.200   0.463  15.501  0.0309 -0.2624 -0.0328
  662BOLB   C2B15874  15.861   0.290  15.427 -0.0813 -0.2464 -0.2995
  662BOLB   C3B15875  15.561   0.117  15.102 -0.0226  0.2154 -0.2130
  662BOLB   C4B15876  15.590  -0.362  14.905  0.0204 -0.1922 -0.0143
  662BOLB   NC215877  15.637  -2.237  17.816 -0.0519 -0.0695  0.3251
  662BOLB   PO215878  15.744  -2.352  17.418 -0.2668  0.1868 -0.0761
  662BOLB   GL315879  15.559  -2.155  17.076  0.3340  0.2308 -0.1099
  662BOLB   GL415880  15.247  -1.986  17.094  0.0267  0.5265  0.2885
  662BOLB   C1C15881  15.750  -1.844  16.644  0.0324  0.4264  0.0763
  662BOLB   C2C15882  15.792  -1.576  16.312 -0.3301 -0.4195  0.1283
  662BOLB   C3C15883  15.672  -1.296  16.102 -0.0444 -0.2882 -0.1040
  662BOLB   C4C15884  15.490  -0.829  15.973  0.0180 -0.0405  0.1149
  662BOLB   C1D15885  15.310  -1.649  16.913  0.1520 -0.2332 -0.2116
  662BOLB   C2D15886  15.139  -1.280  16.945  0.0295  0.0326  0.0252
  662BOLB   C3D15887  15.144  -0.967  16.886 -0.2408 -0.0115  0.1100
  662BOLB   C4D15888  14.798  -0.837  16.837  0.2237 -0.1554  0.2112
  663BOLB   NC115889  19.297   2.116  11.435 -0.0133  0.1411  0.0987
  663BOLB   PO115890  19.348   1.738  11.352 -0.0786 -0.1659  0.0549
  663BOLB   GL115891  19.239   1.492  10.928 -0.1109  0.0918  0.1820
  663BOLB   GL215892  19.309   1.723  10.650 -0.0452  0.2491  0.0154
  663BOLB   C1A15893  19.037   1.115  10.792  0.5131  0.1853  0.1570
  663BOLB   C2A15894  19.057   0.709  10.554 -0.2494  0.1438  0.0586
  663BOLB   C3A15895  18.895   0.401  10.282  0.3515 -0.0706 -0.2409
  663BOLB   C4A15896  18.841   0.036  10.118  0.1093 -0.1159  0.4001
  663BOLB   C1B15897  19.255   1.386  10.270  0.3205  0.1660  0.1560
  663BOLB   C2B15898  19.191   0.996   9.999  0.1168  0.1032 -0.2718
  663BOLB   C3B15899  19.268   0.692   9.684 -0.0704 -0.3537  0.1774
  663BOLB   C4B15900  19.546   0.353   9.671  0.4858 -0.0602 -0.4444
  663BOLB   NC215901  19.296  -2.348   9.663  0.0581 -0.1228 -0.2834
  663BOLB   PO215902  19.066  -1.959   9.654 -0.1617  0.0504  0.0094
  663BOLB   GL315903  18.808  -1.661   9.858 -0.1370  0.1924  0.0155
  663BOLB   GL415904  18.543  -1.923   9.905  0.0953 -0.3611  0.1722
  663BOLB   C1C15905  18.615  -1.263   9.760 -0.2289 -0.0493 -0.1196
  663BOLB   C2C15906  18.347  -0.987   9.651 -0.0984 -0.0351  0.0161
  663BOLB   C3C15907  18.265  -0.532   9.749 -0.3198 -0.2499 -0.1212
  663BOLB   C4C15908  18.506  -0.245   9.958  0.2989 -0.0911  0.1183
  663BOLB   C1D15909  18.438  -1.519  10.253 -0.2001 -0.2078 -0.2159
  663BOLB   C2D15910  18.317  -1.083  10.290 -0.2036  0.0579 -0.0277
  663BOLB   C3D15911  18.659  -0.843  10.092  0.2912 -0.2230  0.1460
  663BOLB   C4D15912  18.934  -0.480  10.134 -0.0114 -0.2022 -0.3516
  664BOLB   NC115913  22.913   9.908  20.517 -0.2804  0.0065 -0.1453
  664BOLB   PO115914  23.205   9.562  20.508  0.1084  0.2035  0.0169
  664BOLB   GL115915  23.454   9.396  20.747 -0.1345  0.1367 -0.2535
  664BOLB   GL215916  23.373   9.408  21.027  0.0002  0.0990  0.0331
  664BOLB   C1A15917  23.915   9.436  20.852  0.1041 -0.0957 -0.1739
  664BOLB   C2A15918  24.191   9.779  20.825  0.1584  0.1152  0.2041
  664BOLB   C3A15919  24.519   9.874  21.122 -0.0617 -0.0577 -0.3134
  664BOLB   C4A15920  24.956   9.934  21.141  0.0648  0.0838 -0.1304
  664BOLB   C1B15921  23.369   9.647  21.342  0.3237  0.0857 -0.1256
  664BOLB   C2B15922  23.224   9.937  21.703 -0.3789  0.3616 -0.0658
  664BOLB   C3B15923  23.442  10.339  21.877  0.1510 -0.1073  0.2058
  664BOLB   C4B15924  23.719  10.560  22.093 -0.2011 -0.0243 -0.0362
  664BOLB   NC215925  27.230  10.242  21.960  0.1750 -0.0090 -0.3496
  664BOLB   PO215926  27.265  10.508  21.712  0.2095 -0.0415 -0.1500
  664BOLB   GL315927  26.761  10.376  21.710  0.0854  0.0502  0.2659
  664BOLB   GL415928  26.694  10.626  21.593  0.0735  0.2334 -0.0189
  664BOLB   C1C15929  26.400  10.256  21.735 -0.0978  0.1832  0.0088
  664BOLB   C2C15930  26.012  10.148  21.527 -0.2843  0.2020 -0.0603
  664BOLB   C3C15931  25.702  10.026  21.311  0.0750 -0.0894 -0.1115
  664BOLB   C4C15932  25.349   9.952  21.099  0.0540 -0.0770  0.1340
  664BOLB   C1D15933  26.207  10.682  21.560 -0.0932  0.1499 -0.0248
  664BOLB   C2D15934  25.831  10.588  21.256  0.0012  0.1006 -0.1391
  664BOLB   C3D15935  25.421  10.608  21.173  0.1039  0.0461  0.0602
  664BOLB   C4D15936  25.115  10.389  21.203 -0.0620  0.0099  0.0995
  665BOLB   NC115937  22.436   8.173  20.637  0.1159  0.0648 -0.0984
  665BOLB   PO115938  22.050   7.945  20.890  0.1884  0.0170 -0.1499
  665BOLB   GL115939  22.146   7.668  21.198  0.3104 -0.3518  0.1129
  665BOLB   GL215940  21.906   7.560  21.381  0.3244 -0.1180  0.0559
  665BOLB   C1A15941  22.412   7.361  21.317 -0.0206 -0.2070  0.0494
  665BOLB   C2A15942  22.740   7.318  21.603 -0.0002  0.1619  0.5178
  665BOLB   C3A15943  22.898   7.176  21.940 -0.0583 -0.1756  0.2910
  665BOLB   C4A15944  23.210   7.055  22.235 -0.0941  0.1957 -0.0599
  665BOLB   C1B15945  22.061   7.285  21.675 -0.3251  0.0288 -0.0350
  665BOLB   C2B15946  22.167   7.416  22.080 -0.3374  0.0063 -0.0665
  665BOLB   C3B15947  22.572   7.374  22.256  0.0598  0.0562 -0.1480
  665BOLB   C4B15948  22.781   7.085  22.385  0.2227 -0.1610  0.1462
  665BOLB   NC215949  24.175   6.116  24.226 -0.0409 -0.0361 -0.1540
  665BOLB   PO215950  24.049   6.522  24.347  0.2647  0.1817  0.1223
  665BOLB   GL315951  23.676   6.368  24.158 -0.0739  0.0439  0.0466
  665BOLB   GL415952  23.536   6.658  24.332  0.2751  0.2894  0.0579
  665BOLB   C1C15953  23.618   6.224  23.714 -0.1755  0.0556  0.1213
  665BOLB   C2C15954  23.447   6.254  23.316  0.1126  0.0566 -0.0122
  665BOLB   C3C15955  23.189   6.471  23.034  0.2531 -0.4468  0.1129
  665BOLB   C4C15956  23.201   6.818  22.597  0.0215  0.1699  0.1523
  665BOLB   C1D15957  23.377   6.639  23.832 -0.0653 -0.0188 -0.1981
  665BOLB   C2D15958  23.236   6.809  23.448  0.2403  0.3217  0.1355
  665BOLB   C3D15959  22.874   6.924  23.199  0.2807  0.0038 -0.1450
  665BOLB   C4D15960  22.594   7.274  23.022  0.2664 -0.1139 -0.0044
  666BOLB   NC115961  14.429  12.680   7.800 -0.0988 -0.0967  0.0718
  666BOLB   PO115962  14.604  12.326   7.565 -0.0702 -0.1073 -0.0444
  666BOLB   GL115963  14.557  12.682   7.270  0.2283  0.0690 -0.1507
  666BOLB   GL215964  14.546  12.496   7.072  0.6090 -0.0868  0.1975
  666BOLB   C1A15965  14.699  12.901   6.930  0.2292 -0.0226  0.0532
  666BOLB   C2A15966  14.913  12.958   6.607 -0.2611  0.1038 -0.1890
  666BOLB   C3A15967  15.007  13.315   6.272 -0.2084  0.2410 -0.1832
  666BOLB   C4A15968  15.069  13.774   6.194 -0.0504 -0.0142 -0.2114
  666BOLB   C1B15969  14.640  12.142   6.785 -0.3359 -0.2099 -0.4601
  666BOLB   C2B15970  14.625  11.881   6.430  0.2444  0.2835 -0.2035
  666BOLB   C3B15971  14.578  11.554   6.115 -0.2817  0.0456 -0.0333
  666BOLB   C4B15972  14.890  11.364   5.768  0.3789  0.1908 -0.3165
  666BOLB   NC215973  15.535  15.061   4.174 -0.0843  0.0381  0.0614
  666BOLB   PO215974  15.050  15.135   4.039  0.3353  0.2938 -0.1630
  666BOLB   GL315975  15.155  15.013   4.500 -0.4007 -0.3393 -0.3479
  666BOLB   GL415976  15.007  15.152   4.702  0.2212  0.1004 -0.0877
  666BOLB   C1C15977  15.243  14.696   4.782  0.1290 -0.1390 -0.2671
  666BOLB   C2C15978  15.443  14.384   5.010  0.0585  0.3076  0.1659
  666BOLB   C3C15979  15.405  14.276   5.470  0.1792 -0.2826  0.0221
  666BOLB   C4C15980  15.207  14.075   5.854  0.0518  0.3149  0.0124
  666BOLB   C1D15981  14.878  14.934   5.105  0.3018 -0.1592 -0.0461
  666BOLB   C2D15982  15.026  14.484   5.177 -0.0998 -0.0307 -0.0207
  666BOLB   C3D15983  14.839  14.179   5.483 -0.0649 -0.1156 -0.0811
  666BOLB   C4D15984  14.698  14.139   5.819 -0.0590 -0.0536 -0.0037
  667BOLB   NC115985  19.328  16.352  20.140 -0.3452  0.2449  0.2046
  667BOLB   PO115986  19.498  16.752  20.004 -0.3371 -0.0119  0.0851
  667BOLB   GL115987  19.591  17.007  20.212  0.1952 -0.0933  0.0473
  667BOLB   GL215988  19.279  17.060  20.491  0.0919 -0.1800 -0.0523
  667BOLB   C1A15989  19.524  17.454  20.209  0.0201 -0.1957  0.0169
  667BOLB   C2A15990  19.626  17.800  20.435  0.1286  0.0284  0.0034
  667BOLB   C3A15991  19.804  18.185  20.440 -0.3727  0.1168  0.3104
  667BOLB   C4A15992  19.843  18.637  20.364  0.0111  0.1071  0.0568
  667BOLB   C1B15993  19.465  17.408  20.738  0.2687  0.2179  0.2635
  667BOLB   C2B15994  19.672  17.721  20.958 -0.0356  0.0989 -0.4024
  667BOLB   C3B15995  19.950  18.014  21.183 -0.3171 -0.2443 -0.0928
  667BOLB   C4B15996  20.264  18.147  21.472 -0.2007 -0.0216  0.0513
  667BOLB   NC215997  19.875  20.338  22.439  0.1176 -0.2991 -0.0959
  667BOLB   PO215998  20.193  20.132  22.298  0.0787  0.0805 -0.2636
  667BOLB   GL315999  19.896  19.906  22.041  0.0235  0.2663  0.2695
  667BOLB   GL416000  19.666  19.984  21.988 -0.0570  0.0600  0.1119
  667BOLB   C1C16001  19.989  19.502  21.812  0.0416  0.2921  0.0373
  667BOLB   C2C16002  19.939  19.293  21.331  0.0708 -0.0406  0.3938
  667BOLB   C3C16003  20.084  19.112  20.908 -0.0909 -0.0438 -0.0423
  667BOLB   C4C16004  19.835  18.936  20.619  0.2694  0.0127  0.3777
  667BOLB   C1D16005  19.507  19.708  21.705 -0.0894  0.2412  0.2842
  667BOLB   C2D16006  19.268  19.511  21.377  0.0643  0.4114  0.0213
  667BOLB   C3D16007  19.086  19.197  21.114  0.1514 -0.1845  0.0786
  667BOLB   C4D16008  18.795  18.885  21.096  0.0211 -0.2122 -0.0183
  668BOLB   NC116009  23.336   7.061  17.748 -0.0953  0.2308  0.1155
  668BOLB   PO116010  23.019   6.998  18.162  0.1559  0.0389  0.0538
  668BOLB   GL116011  23.468   6.980  18.240 -0.1247 -0.5546 -0.0469
  668BOLB   GL216012  23.415   6.679  18.357 -0.1969  0.3141  0.1095
  668BOLB   C1A16013  23.856   6.883  18.173  0.4322  0.1085  0.1065
  668BOLB   C2A16014  24.311   6.727  18.202  0.2581  0.0753  0.1484
  668BOLB   C3A16015  24.657   6.563  18.535  0.0709  0.1882  0.0042
  668BOLB   C4A16016  24.796   6.211  18.801 -0.2125 -0.2533 -0.1573
  668BOLB   C1B16017  23.751   6.418  18.401  0.2111 -0.0062 -0.0614
  668BOLB   C2B16018  24.176   6.306  18.544  0.1071 -0.0500  0.3141
  668BOLB   C3B16019  24.257   5.965  18.855  0.2678 -0.1699 -0.0511
  668BOLB   C4B16020  23.889   5.764  18.779 -0.1568 -0.2212  0.2053
  668BOLB   NC216021  25.713   5.079  21.088  0.0510 -0.2108  0.3957
  668BOLB   PO216022  25.716   4.759  20.753  0.2974 -0.0207  0.1029
  668BOLB   GL316023  25.491   5.104  20.588  0.2711 -0.1503 -0.1718
  668BOLB   GL416024  25.302   5.302  20.852 -0.2235  0.1366 -0.0607
  668BOLB   C1C16025  25.268   5.468  20.363  0.1305 -0.2368  0.1018
  668BOLB   C2C16026  25.266   5.672  19.851  0.0875  0.1413  0.0302
  668BOLB   C3C16027  25.136   5.803  19.449  0.1457 -0.0033  0.0134
  668BOLB   C4C16028  24.890   5.847  19.046 -0.3920  0.0512 -0.0927
  668BOLB   C1D16029  25.143   5.801  20.742 -0.0910 -0.2133  0.0964
  668BOLB   C2D16030  25.167   6.262  20.701  0.1159  0.0112  0.2860
  668BOLB   C3D16031  24.948   6.467  20.416  0.1490 -0.0735  0.2070
  668BOLB   C4D16032  24.808   6.514  20.015  0.0294 -0.0753  0.0020
  669BOLB   NC116033  15.041  18.429  14.174  0.2160 -0.0712 -0.3340
  669BOLB   PO116034  14.982  18.314  14.539  0.1938  0.0695 -0.0823
  669BOLB   GL116035  14.639  18.695  14.489 -0.2131 -0.2674 -0.0975
  669BOLB   GL216036  14.454  18.790  14.224 -0.3300 -0.1320  0.3206
  669BOLB   C1A16037  14.629  19.154  14.561 -0.2161 -0.0911 -0.2419
  669BOLB   C2A16038  14.689  19.470  14.332  0.0431 -0.1199  0.2366
  669BOLB   C3A16039  14.544  19.769  14.003  0.1599  0.1077 -0.1326
  669BOLB   C4A16040  14.347  20.178  13.817 -0.1234  0.0874  0.3008
  669BOLB   C1B16041  14.219  19.155  14.015 -0.2241  0.1542 -0.0640
  669BOLB   C2B16042  14.168  19.563  13.732  0.4211  0.1143 -0.0512
  669BOLB   C3B16043  13.879  19.921  13.828 -0.1257 -0.2306 -0.0355
  669BOLB   C4B16044  13.850  20.271  13.997 -0.2618  0.2270  0.0285
  669BOLB   NC216045  14.044  22.730  13.978 -0.0999  0.0902  0.1444
  669BOLB   PO216046  13.735  22.506  14.156  0.1605  0.0213 -0.1665
  669BOLB   GL316047  14.058  22.144  14.147 -0.0766  0.0503 -0.4271
  669BOLB   GL416048  14.006  21.950  14.395 -0.1194 -0.1238 -0.3605
  669BOLB   C1C16049  14.139  21.785  13.936  0.2395  0.1578 -0.2283
  669BOLB   C2C16050  14.161  21.401  13.763 -0.1231 -0.1305 -0.1416
  669BOLB   C3C16051  14.116  21.002  13.727 -0.0997  0.0991  0.2402
  669BOLB   C4C16052  14.169  20.556  13.793 -0.1276  0.0142  0.1670
  669BOLB   C1D16053  14.000  21.474  14.354 -0.2280 -0.0256 -0.2267
  669BOLB   C2D16054  14.177  20.962  14.330 -0.0709 -0.1503 -0.1617
  669BOLB   C3D16055  14.304  20.794  14.664  0.3237  0.2106  0.2213
  669BOLB   C4D16056  14.321  20.975  15.106 -0.0094 -0.0878 -0.2467
  670BOLB   NC116057  18.320   1.504  14.071  0.0033 -0.0012 -0.2105
  670BOLB   PO116058  17.932   1.376  13.736 -0.2162 -0.0735 -0.1322
  670BOLB   GL116059  18.289   1.204  13.559 -0.3917 -0.0466 -0.0321
  670BOLB   GL216060  18.432   0.955  13.839  0.3975  0.3522  0.0393
  670BOLB   C1A16061  18.422   0.813  13.373 -0.1209 -0.1799 -0.2736
  670BOLB   C2A16062  18.195   0.582  13.148  0.0958 -0.0685 -0.2048
  670BOLB   C3A16063  18.260   0.197  12.805  0.4208  0.2191 -0.1387
  670BOLB   C4A16064  18.160  -0.259  12.538  0.0020  0.3636  0.0825
  670BOLB   C1B16065  18.382   0.488  13.838 -0.2077 -0.0846  0.0868
  670BOLB   C2B16066  18.370   0.089  13.580  0.0288  0.0389 -0.1559
  670BOLB   C3B16067  18.732  -0.124  13.379  0.1289 -0.2118 -0.0384
  670BOLB   C4B16068  18.805  -0.472  13.152  0.0084 -0.0009  0.0182
  670BOLB   NC216069  20.061  -1.701  12.506 -0.0735 -0.1331  0.4421
  670BOLB   PO216070  20.142  -1.728  12.007  0.2492 -0.3033  0.3530
  670BOLB   GL316071  19.840  -1.350  12.011  0.0411 -0.2224 -0.1861
  670BOLB   GL416072  19.786  -1.301  11.665  0.2106 -0.1871  0.0075
  670BOLB   C1C16073  19.463  -1.211  12.104 -0.0060 -0.1812 -0.3264
  670BOLB   C2C16074  19.235  -0.824  12.015 -0.4124 -0.1708  0.1616
  670BOLB   C3C16075  18.903  -0.527  12.140 -0.1371 -0.0136  0.1750
  670BOLB   C4C16076  18.426  -0.505  12.274  0.2428  0.1403 -0.1071
  670BOLB   C1D16077  19.543  -0.995  11.686  0.0388  0.1710 -0.1588
  670BOLB   C2D16078  19.573  -0.533  11.632 -0.2377 -0.0019  0.0614
  670BOLB   C3D16079  19.697  -0.159  11.808  0.0570  0.4050 -0.1057
  670BOLB   C4D16080  19.714   0.198  12.240 -0.0704 -0.0573 -0.2781
  671BOLB   NC116081  22.058   4.193  15.891  0.1010  0.2028  0.2064
  671BOLB   PO116082  22.084   3.861  15.500 -0.0644 -0.2914 -0.0266
  671BOLB   GL116083  22.229   3.569  15.793  0.1115  0.2131 -0.1353
  671BOLB   GL216084  22.367   3.789  16.019  0.0975  0.2536 -0.0279
  671BOLB   C1A16085  22.205   3.248  16.047 -0.1517  0.0547 -0.3092
  671BOLB   C2A16086  22.574   2.896  16.041 -0.0994  0.0712 -0.0549
  671BOLB   C3A16087  22.980   2.630  15.900 -0.0978 -0.2073  0.4114
  671BOLB   C4A16088  23.410   2.586  15.877  0.2023 -0.2667 -0.2971
  671BOLB   C1B16089  22.763   3.464  16.060 -0.1864 -0.2322 -0.0755
  671BOLB   C2B16090  23.185   3.406  16.244  0.2974 -0.2643  0.2752
  671BOLB   C3B16091  23.629   3.379  16.223 -0.1687  0.3279  0.0191
  671BOLB   C4B16092  24.034   3.399  16.482 -0.2226 -0.1672 -0.0721
  671BOLB   NC216093  24.329   0.542  15.332  0.0607 -0.1678  0.1704
  671BOLB   PO216094  24.484   0.855  15.106  0.1623 -0.0132  0.0483
  671BOLB   GL316095  24.359   1.282  15.234  0.0965  0.2154  0.4193
  671BOLB   GL416096  24.448   1.566  15.090 -0.0891 -0.2250  0.0552
  671BOLB   C1C16097  23.930   1.275  15.485  0.2455 -0.1334 -0.0776
  671BOLB   C2C16098  23.766   1.604  15.632 -0.0211  0.0489  0.0485
  671BOLB   C3C16099  23.693   1.977  15.787  0.0817  0.1110  0.1819
  671BOLB   C4C16100  23.670   2.443  15.846 -0.1721 -0.1651  0.1469
  671BOLB   C1D16101  24.009   1.552  15.083  0.3531  0.1207 -0.1634
  671BOLB   C2D16102  23.620   1.795  15.220 -0.0981  0.0160 -0.0339
  671BOLB   C3D16103  23.607   2.246  15.289  0.2957 -0.0921  0.1271
  671BOLB   C4D16104  23.685   2.599  15.273  0.1139 -0.1598 -0.3509
  672BOLB   NC116105  16.195  18.194  18.999 -0.1402  0.4131 -0.1786
  672BOLB   PO116106  16.409  18.452  19.162  0.1498 -0.1519  0.0542
  672BOLB   GL116107  16.354  18.800  19.302  0.1053  0.2536  0.4648
  672BOLB   GL216108  16.675  18.856  19.399  0.1446  0.1140 -0.1486
  672BOLB   C1A16109  16.410  19.260  19.403 -0.0718  0.1454  0.1332
  672BOLB   C2A16110  16.627  19.739  19.333 -0.2858  0.0519  0.3616
  672BOLB   C3A16111  17.035  19.856  19.351 -0.1463 -0.0164  0.0302
  672BOLB   C4A16112  17.442  19.988  19.574  0.4443  0.0824 -0.1180
  672BOLB   C1B16113  16.879  19.206  19.576 -0.1091  0.2671 -0.1492
  672BOLB   C2B16114  16.629  19.556  19.800  0.0741 -0.2072 -0.0980
  672BOLB   C3B16115  16.498  20.013  20.095  0.2361  0.0879  0.4816
  672BOLB   C4B16116  16.250  20.354  20.091  0.0241 -0.0526 -0.0817
  672BOLB   NC216117  18.620  22.083  20.372  0.1689 -0.0579 -0.4921
  672BOLB   PO216118  18.327  22.367  20.059 -0.0544 -0.1288 -0.1550
  672BOLB   GL316119  18.182  22.100  19.753 -0.0135 -0.1050 -0.0378
  672BOLB   GL416120  18.305  22.109  19.486  0.0173 -0.1219  0.1468
  672BOLB   C1C16121  17.950  21.725  19.749  0.0318  0.1736 -0.1551
  672BOLB   C2C16122  18.030  21.213  19.639  0.3163  0.1905  0.1767
  672BOLB   C3C16123  17.890  20.741  19.674  0.0731 -0.1916 -0.0413
  672BOLB   C4C16124  17.711  20.335  19.610 -0.1334 -0.0270 -0.1989
  672BOLB   C1D16125  18.565  21.734  19.506  0.0624  0.3978  0.1583
  672BOLB   C2D16126  18.871  21.345  19.359  0.6335 -0.3727  0.1055
  672BOLB   C3D16127  18.720  21.043  19.124  0.0536 -0.2999  0.1923
  672BOLB   C4D16128  18.550  20.781  18.882  0.4771  0.2258 -0.0397
  673BOLB   NC116129  22.676   8.938  20.141  0.0879 -0.2173 -0.2210
  673BOLB   PO116130  23.032   8.854  20.031  0.0608 -0.3743 -0.0228
  673BOLB   GL116131  23.402   8.621  20.218  0.1424  0.3138  0.2014
  673BOLB   GL216132  23.776   8.708  20.059 -0.2481  0.1022 -0.1424
  673BOLB   C1A16133  23.736   8.434  20.510 -0.1690  0.3346  0.1279
  673BOLB   C2A16134  24.230   8.473  20.593  0.0968  0.1676 -0.1665
  673BOLB   C3A16135  24.597   8.718  20.659  0.1008  0.1282 -0.3358
  673BOLB   C4A16136  24.972   8.641  20.894  0.4238  0.1569 -0.1129
  673BOLB   C1B16137  24.060   8.879  20.419 -0.1463 -0.0512  0.0574
  673BOLB   C2B16138  24.202   9.026  20.843 -0.0704 -0.1705  0.0523
  673BOLB   C3B16139  24.601   8.997  21.052 -0.0753  0.1766 -0.1999
  673BOLB   C4B16140  25.024   9.024  21.232 -0.1077 -0.0355 -0.2333
  673BOLB   NC216141  26.338   8.697  23.018  0.0663  0.1887  0.0801
  673BOLB   PO216142  26.391   8.266  22.960 -0.2893  0.0871 -0.2346
  673BOLB   GL316143  26.105   8.426  22.690 -0.0443 -0.0806  0.2660
  673BOLB   GL416144  26.136   8.652  22.515 -0.2814  0.1145  0.1486
  673BOLB   C1C16145  25.865   8.332  22.283 -0.0221 -0.1337 -0.2719
  673BOLB   C2C16146  25.740   8.401  21.859  0.0587  0.1094 -0.1742
  673BOLB   C3C16147  25.606   8.475  21.507 -0.0341  0.3672  0.2647
  673BOLB   C4C16148  25.258   8.613  21.319  0.0019  0.2423  0.1559
  673BOLB   C1D16149  25.848   8.806  22.157 -0.0822  0.1304 -0.2618
  673BOLB   C2D16150  25.997   8.823  21.753 -0.0013 -0.2474 -0.3363
  673BOLB   C3D16151  25.802   8.939  21.414 -0.2212 -0.0232 -0.0401
  673BOLB   C4D16152  25.538   9.058  21.049  0.4478  0.4041 -0.1033
  674BOLB   NC116153  11.610  15.481  11.729  0.0445  0.0763 -0.0770
  674BOLB   PO116154  11.959  15.321  11.418  0.1972 -0.0419 -0.1717
  674BOLB   GL116155  11.986  15.745  11.285 -0.0205  0.1653 -0.1921
  674BOLB   GL216156  11.636  15.904  11.350  0.0211  0.0101  0.3783
  674BOLB   C1A16157  12.275  16.158  11.040  0.0362  0.0028  0.0955
  674BOLB   C2A16158  12.139  16.527  10.814 -0.1868  0.0695  0.2165
  674BOLB   C3A16159  11.889  16.922  10.724 -0.3517 -0.0188 -0.3167
  674BOLB   C4A16160  11.974  17.449  10.639 -0.0205 -0.2726 -0.0998
  674BOLB   C1B16161  11.817  16.242  11.151 -0.0396 -0.1208 -0.0249
  674BOLB   C2B16162  11.583  16.549  11.011 -0.0582  0.2166  0.0790
  674BOLB   C3B16163  11.405  16.847  10.720  0.2724 -0.4331 -0.4027
  674BOLB   C4B16164  11.473  17.250  10.499  0.0698  0.0660 -0.0502
  674BOLB   NC216165  11.556  19.730   9.853 -0.1092  0.1363 -0.1132
  674BOLB   PO216166  11.132  19.645   9.941 -0.2404 -0.0755 -0.3176
  674BOLB   GL316167  11.286  19.413  10.221  0.3209 -0.0223 -0.2241
  674BOLB   GL416168  11.493  19.567  10.496  0.0894  0.2491  0.0087
  674BOLB   C1C16169  11.646  18.971  10.336 -0.5532 -0.0465  0.1111
  674BOLB   C2C16170  11.888  18.679  10.399 -0.0947  0.0816  0.2212
  674BOLB   C3C16171  12.090  18.324  10.370 -0.3301  0.3647  0.1464
  674BOLB   C4C16172  12.234  17.807  10.411  0.1001  0.0828  0.2653
  674BOLB   C1D16173  11.361  19.356  10.805  0.2483  0.1837  0.0893
  674BOLB   C2D16174  11.419  19.140  11.230  0.4173 -0.2681 -0.2914
  674BOLB   C3D16175  11.569  18.805  11.536  0.2452 -0.0023 -0.0443
  674BOLB   C4D16176  11.783  18.616  11.856  0.2317  0.1824  0.1068
  675BOLB   NC116177  16.946   5.108  21.820  0.0316 -0.2221  0.1381
  675BOLB   PO116178  16.993   4.672  21.617  0.2557  0.2341  0.2998
  675BOLB   GL116179  17.042   4.631  22.035  0.1345  0.0709 -0.0266
  675BOLB   GL216180  17.005   4.372  22.049 -0.0462  0.0513  0.1243
  675BOLB   C1A16181  17.401   4.463  22.289 -0.0502  0.0041 -0.0654
  675BOLB   C2A16182  17.760   4.310  22.364  0.0678  0.1106  0.3633
  675BOLB   C3A16183  17.886   3.870  22.488 -0.3460  0.3320 -0.2388
  675BOLB   C4A16184  17.676   3.670  22.787  0.2094 -0.4198 -0.1610
  675BOLB   C1B16185  16.991   3.949  22.007 -0.1462 -0.1364 -0.0256
  675BOLB   C2B16186  17.186   3.576  21.776  0.0385  0.1021 -0.0587
  675BOLB   C3B16187  17.365   3.131  21.840 -0.0663  0.1529 -0.2633
  675BOLB   C4B16188  17.288   2.706  21.923 -0.2135 -0.0914 -0.2733
  675BOLB   NC216189  17.826   2.192  24.625 -0.0148 -0.1892  0.0708
  675BOLB   PO216190  17.625   2.480  24.885  0.1045  0.0940  0.1526
  675BOLB   GL316191  17.794   2.682  24.534 -0.0216 -0.1955  0.3816
  675BOLB   GL416192  17.889   2.534  24.253  0.3149  0.0006 -0.2546
  675BOLB   C1C16193  17.949   3.081  24.195  0.0463  0.3657 -0.2966
  675BOLB   C2C16194  17.895   3.444  23.907 -0.1263  0.0359 -0.0261
  675BOLB   C3C16195  17.735   3.496  23.539  0.2307  0.0885 -0.0087
  675BOLB   C4C16196  17.642   3.560  23.079  0.1680 -0.1825 -0.1510
  675BOLB   C1D16197  17.640   2.748  23.936 -0.3438  0.3221  0.0809
  675BOLB   C2D16198  17.359   3.143  23.721  0.0622  0.2362 -0.0097
  675BOLB   C3D16199  17.123   3.327  23.519  0.1873  0.3575 -0.0595
  675BOLB   C4D16200  17.181   3.403  23.166  0.2114  0.0025 -0.1284
  676BOLB   NC116201  16.676   1.317  15.990 -0.3387 -0.0117 -0.0680
  676BOLB   PO116202  17.032   1.215  15.634  0.0232  0.3209 -0.3054
  676BOLB   GL116203  16.911   0.806  15.820 -0.0649 -0.0048  0.0157
  676BOLB   GL216204  17.259   0.670  15.734  0.0236  0.1452  0.0533
  676BOLB   C1A16205  16.636   0.535  15.776 -0.1808 -0.1219  0.0633
  676BOLB   C2A16206  16.334   0.161  15.897  0.1185 -0.2906 -0.0684
  676BOLB   C3A16207  16.210  -0.238  15.907 -0.0171 -0.0715 -0.3846
  676BOLB   C4A16208  16.193  -0.519  15.576  0.1708  0.0289  0.1973
  676BOLB   C1B16209  17.101   0.322  15.790 -0.1995  0.2196  0.0739
  676BOLB   C2B16210  17.132  -0.137  15.685  0.0783 -0.4493 -0.0100
  676BOLB   C3B16211  17.096  -0.499  15.930 -0.1940  0.3504  0.2424
  676BOLB   C4B16212  16.923  -0.922  15.945  0.2084 -0.0404 -0.0221
  676BOLB   NC216213  17.263  -2.866  15.216 -0.2080 -0.0091 -0.0730
  676BOLB   PO216214  16.769  -2.920  15.234  0.0173 -0.1375 -0.1400
  676BOLB   GL316215  16.495  -2.496  15.038  0.1191  0.3987  0.0639
  676BOLB   GL416216  16.123  -2.467  15.070  0.2210  0.1850 -0.0471
  676BOLB   C1C16217  16.742  -2.085  14.937 -0.2295  0.2155 -0.1675
  676BOLB   C2C16218  16.749  -1.637  15.182 -0.0581 -0.4823 -0.0420
  676BOLB   C3C16219  16.528  -1.291  15.190  0.0269  0.4170  0.0645
  676BOLB   C4C16220  16.352  -1.001  15.500 -0.0853  0.2365 -0.0184
  676BOLB   C1D16221  15.866  -2.202  14.915 -0.1163  0.1255 -0.0784
  676BOLB   C2D16222  15.730  -1.797  14.846  0.1403 -0.0493  0.1723
  676BOLB   C3D16223  15.882  -1.395  14.940  0.4038 -0.0488 -0.0822
  676BOLB   C4D16224  15.773  -1.142  15.237 -0.1741  0.0386  0.4484
  677BOLB   NC116225  14.858   4.101  20.855 -0.2629  0.4404  0.2342
  677BOLB   PO116226  15.308   4.181  20.901 -0.1026 -0.1237  0.0166
  677BOLB   GL116227  15.296   3.936  21.203 -0.4565  0.3084  0.2132
  677BOLB   GL216228  15.591   3.966  21.301 -0.1532 -0.1802  0.0140
  677BOLB   C1A16229  15.387   3.523  21.449  0.1713 -0.1402 -0.1032
  677BOLB   C2A16230  15.642   3.226  21.744  0.0288  0.1891 -0.3021
  677BOLB   C3A16231  15.980   3.085  22.003 -0.0906  0.1370  0.0292
  677BOLB   C4A16232  16.259   2.800  22.064 -0.1644  0.1732  0.0773
  677BOLB   C1B16233  15.815   3.664  21.567 -0.0009 -0.2412 -0.0169
  677BOLB   C2B16234  16.141   3.492  21.680 -0.1583  0.0200  0.1889
  677BOLB   C3B16235  16.428   3.154  21.750  0.2065 -0.3758  0.0088
  677BOLB   C4B16236  16.794   2.870  21.936 -0.0875  0.0914  0.1876
  677BOLB   NC216237  17.143   1.947  24.107 -0.0697 -0.1449  0.2869
  677BOLB   PO216238  17.436   1.568  23.948 -0.3505 -0.0592 -0.0212
  677BOLB   GL316239  17.362   1.735  23.568 -0.2152  0.3059 -0.0400
  677BOLB   GL416240  17.514   1.792  23.303 -0.3239 -0.0800 -0.0719
  677BOLB   C1C16241  16.985   1.898  23.271 -0.0548 -0.1342 -0.0565
  677BOLB   C2C16242  16.726   2.237  23.113  0.0566 -0.1562 -0.0962
  677BOLB   C3C16243  16.488   2.418  22.817 -0.1961  0.4249  0.0295
  677BOLB   C4C16244  16.352   2.608  22.464  0.0218 -0.1667 -0.0016
  677BOLB   C1D16245  17.378   2.195  23.444 -0.1262 -0.0443  0.3354
  677BOLB   C2D16246  17.616   2.580  23.405  0.5664 -0.1630  0.0058
  677BOLB   C3D16247  18.007   2.649  23.266 -0.1294 -0.3100  0.1866
  677BOLB   C4D16248  18.402   2.548  23.366 -0.0366 -0.1713 -0.4510
  678BOLB   NC116249  21.101  17.509  17.097  0.0331  0.1648  0.0601
  678BOLB   PO116250  20.728  17.379  17.298 -0.2815  0.2006 -0.3996
  678BOLB   GL116251  20.892  17.774  17.498  0.0604  0.0527 -0.2466
  678BOLB   GL216252  20.851  17.985  17.236 -0.3655  0.2759  0.0308
  678BOLB   C1A16253  21.010  18.137  17.744 -0.2526 -0.1046  0.0237
  678BOLB   C2A16254  21.305  18.377  18.042 -0.1962  0.1044  0.0541
  678BOLB   C3A16255  21.640  18.705  18.206  0.1547 -0.1866 -0.1208
  678BOLB   C4A16256  21.767  19.208  18.060 -0.2348 -0.2000  0.3015
  678BOLB   C1B16257  20.693  18.419  17.255  0.1952  0.2824  0.1684
  678BOLB   C2B16258  20.616  18.859  17.347  0.0052  0.2893  0.0252
  678BOLB   C3B16259  20.601  19.318  17.398  0.0429 -0.1602 -0.0646
  678BOLB   C4B16260  20.593  19.521  17.753 -0.3120 -0.0412  0.4092
  678BOLB   NC216261  22.528  21.316  19.276  0.3534 -0.1557 -0.4264
  678BOLB   PO216262  22.122  21.370  19.255  0.2064 -0.2381 -0.3276
  678BOLB   GL316263  21.929  21.094  19.150 -0.1013 -0.1167  0.1683
  678BOLB   GL416264  21.680  21.109  18.821  0.0356  0.0528  0.0951
  678BOLB   C1C16265  21.874  20.685  18.945  0.1243  0.2098 -0.3927
  678BOLB   C2C16266  21.964  20.283  18.764  0.1394  0.0947 -0.3656
  678BOLB   C3C16267  22.006  19.917  18.555 -0.0456  0.0249 -0.0327
  678BOLB   C4C16268  21.795  19.606  18.260 -0.0221  0.0843 -0.0193
  678BOLB   C1D16269  21.810  20.848  18.506 -0.1258 -0.1198  0.3920
  678BOLB   C2D16270  21.820  20.439  18.310  0.1126  0.1787  0.0110
  678BOLB   C3D16271  21.644  20.150  18.277  0.0957  0.1844  0.1922
  678BOLB   C4D16272  21.484  19.836  17.937 -0.1447  0.0146 -0.0455
  679BOLB   NC116273  16.077   4.202  20.309 -0.1352 -0.1049 -0.1924
  679BOLB   PO116274  15.966   3.737  20.354  0.0298  0.0790  0.1480
  679BOLB   GL116275  16.029   3.513  20.778  0.3276  0.0779  0.1399
  679BOLB   GL216276  16.058   3.634  21.129  0.0332  0.0414 -0.0843
  679BOLB   C1A16277  16.273   3.155  20.984 -0.1243  0.2074 -0.0310
  679BOLB   C2A16278  16.394   2.914  21.316  0.1266  0.0639 -0.1247
  679BOLB   C3A16279  16.435   2.609  21.592  0.1318  0.0536 -0.1414
  679BOLB   C4A16280  16.379   2.333  21.923  0.1836 -0.0165 -0.2266
  679BOLB   C1B16281  15.896   3.248  21.316  0.4298  0.1909  0.1575
  679BOLB   C2B16282  15.917   2.846  21.560 -0.2741  0.1370 -0.0060
  679BOLB   C3B16283  15.713   2.616  21.909  0.1109 -0.1050  0.0716
  679BOLB   C4B16284  15.480   2.640  22.324 -0.0604  0.2744  0.3544
  679BOLB   NC216285  15.662   1.182  24.301  0.0697  0.0460 -0.1683
  679BOLB   PO216286  15.573   1.525  24.055  0.0716 -0.0720 -0.0875
  679BOLB   GL316287  15.775   1.802  23.855  0.3162  0.1496 -0.2093
  679BOLB   GL416288  15.474   2.047  23.826  0.0815 -0.0694 -0.3648
  679BOLB   C1C16289  15.947   1.932  23.385 -0.0995 -0.1479  0.0038
  679BOLB   C2C16290  15.881   2.141  22.979 -0.0068 -0.4597  0.6098
  679BOLB   C3C16291  15.908   2.349  22.508 -0.0995  0.3144  0.2889
  679BOLB   C4C16292  16.052   2.312  22.087  0.1284 -0.1911 -0.0394
  679BOLB   C1D16293  15.438   1.848  23.493 -0.1579  0.0717  0.0666
  679BOLB   C2D16294  15.433   2.043  23.186  0.0432 -0.3531 -0.0866
  679BOLB   C3D16295  15.464   2.391  22.847 -0.1085 -0.0044 -0.0119
  679BOLB   C4D16296  15.552   2.838  22.806 -0.0260  0.3954  0.1350
  680BOLB   NC116297  21.857  19.775  10.416  0.0766 -0.0376 -0.0736
  680BOLB   PO116298  21.755  19.417  10.675 -0.0018 -0.0026  0.0359
  680BOLB   GL116299  21.622  19.418  11.130 -0.3159 -0.1008 -0.3623
  680BOLB   GL216300  21.870  19.324  11.363  0.1810 -0.2019 -0.2206
  680BOLB   C1A16301  21.434  19.015  11.346  0.0725 -0.0433  0.2177
  680BOLB   C2A16302  21.541  18.612  11.328  0.2085 -0.2430 -0.1318
  680BOLB   C3A16303  21.698  18.227  11.354 -0.1562  0.0027  0.0168
  680BOLB   C4A16304  21.749  17.847  11.148 -0.0715  0.2812 -0.2151
  680BOLB   C1B16305  21.499  19.495  11.573  0.3898 -0.0655 -0.1293
  680BOLB   C2B16306  21.449  19.235  12.036  0.0960  0.0174 -0.0244
  680BOLB   C3B16307  21.623  18.904  12.275  0.0938 -0.0325  0.2699
  680BOLB   C4B16308  21.474  18.740  12.700  0.1338  0.0245 -0.0062
  680BOLB   NC216309  21.509  19.429   9.454  0.0952  0.2312 -0.3988
  680BOLB   PO216310  21.798  19.158   9.206 -0.2985  0.2762 -0.0560
  680BOLB   GL316311  21.540  18.775   9.359 -0.1615 -0.0981 -0.1118
  680BOLB   GL416312  21.463  18.664   9.075  0.2074 -0.2217 -0.1253
  680BOLB   C1C16313  21.692  18.484   9.699  0.2219  0.1187 -0.2632
  680BOLB   C2C16314  21.796  18.221  10.044 -0.0104  0.0865  0.1419
  680BOLB   C3C16315  21.818  17.894  10.286 -0.1026  0.0057  0.2066
  680BOLB   C4C16316  21.854  17.789  10.690 -0.0614 -0.5186  0.1759
  680BOLB   C1D16317  21.194  18.285   9.126 -0.1263  0.3142  0.1220
  680BOLB   C2D16318  21.038  17.795   9.228  0.1143  0.0527  0.2122
  680BOLB   C3D16319  20.844  17.513   9.115 -0.1366 -0.2065  0.1589
  680BOLB   C4D16320  20.633  17.152   9.054 -0.0613  0.1121 -0.0528
  681BOLB   NC116321  17.588  11.262   8.438 -0.0385 -0.0952 -0.0259
  681BOLB   PO116322  17.633  11.742   8.212  0.0540 -0.2067  0.1046
  681BOLB   GL116323  17.706  11.582   7.764  0.0283 -0.3338  0.0482
  681BOLB   GL216324  17.608  11.775   7.489 -0.1214  0.3286 -0.1405
  681BOLB   C1A16325  17.770  11.200   7.494  0.1683 -0.1192 -0.0637
  681BOLB   C2A16326  17.828  11.268   7.098  0.0398  0.1701  0.0905
  681BOLB   C3A16327  17.995  11.531   6.735 -0.1936  0.1996 -0.0667
  681BOLB   C4A16328  18.145  11.808   6.536  0.1353  0.2583 -0.2680
  681BOLB   C1B16329  17.983  11.739   7.230  0.1217 -0.1226 -0.1646
  681BOLB   C2B16330  18.372  11.585   7.075  0.0688 -0.1522 -0.2625
  681BOLB   C3B16331  18.514  11.438   6.564  0.1058  0.1088  0.2455
  681BOLB   C4B16332  18.655  11.598   6.180 -0.2940 -0.2108  0.0754
  681BOLB   NC216333  18.949  11.893   3.800 -0.0727  0.0464  0.0297
  681BOLB   PO216334  19.151  11.918   4.148  0.2484 -0.1219  0.0419
  681BOLB   GL316335  19.045  11.990   4.667 -0.1264 -0.0698 -0.0395
  681BOLB   GL416336  18.804  12.241   4.754  0.0804  0.5149 -0.1651
  681BOLB   C1C16337  19.015  11.879   5.125 -0.0620  0.0191 -0.0777
  681BOLB   C2C16338  18.772  11.946   5.589  0.2198 -0.1136 -0.1702
  681BOLB   C3C16339  18.652  12.109   5.977  0.1218  0.0581 -0.0854
  681BOLB   C4C16340  18.291  12.143   6.259  0.0943  0.0965  0.3175
  681BOLB   C1D16341  18.849  12.345   5.263  0.0824 -0.5063  0.1613
  681BOLB   C2D16342  18.878  12.489   5.762  0.1838  0.1501 -0.2213
  681BOLB   C3D16343  18.726  12.460   6.287 -0.0167 -0.1981 -0.0935
  681BOLB   C4D16344  18.517  12.526   6.690 -0.5510 -0.0064  0.1158
  682BOLB   NC116345  11.387  13.763  20.803  0.4636  0.2508 -0.0628
  682BOLB   PO116346  10.965  13.891  21.006  0.2647 -0.2442 -0.2001
  682BOLB   GL116347  10.492  13.918  20.905  0.1973 -0.0167  0.3208
  682BOLB   GL216348  10.495  14.169  20.722 -0.0128  0.1842  0.0343
  682BOLB   C1A16349  10.132  14.089  21.107 -0.0497 -0.1859 -0.1098
  682BOLB   C2A16350   9.899  14.569  21.195  0.5003  0.1112 -0.1350
  682BOLB   C3A16351   9.616  14.816  21.409  0.2147  0.3124  0.0450
  682BOLB   C4A16352   9.338  14.966  21.684  0.0517 -0.2303 -0.0562
  682BOLB   C1B16353  10.479  14.481  21.122 -0.2741 -0.2349  0.0655
  682BOLB   C2B16354  10.414  14.946  21.193  0.1408 -0.4574 -0.1548
  682BOLB   C3B16355  10.144  15.016  21.457  0.1674  0.0200  0.2058
  682BOLB   C4B16356  10.156  14.922  21.893  0.0672 -0.0719  0.2669
  682BOLB   NC216357   8.265  16.472  22.904  0.0486  0.0026  0.0503
  682BOLB   PO216358   8.434  16.225  23.239 -0.0294 -0.1005  0.3670
  682BOLB   GL316359   8.588  15.804  23.152  0.1184  0.2310  0.0740
  682BOLB   GL416360   8.425  15.735  22.877 -0.0440 -0.2068 -0.3105
  682BOLB   C1C16361   8.923  15.673  22.859 -0.4704  0.1559 -0.1362
  682BOLB   C2C16362   9.033  15.619  22.481 -0.1775 -0.1240 -0.1394
  682BOLB   C3C16363   8.950  15.500  22.155 -0.0984  0.1727 -0.0416
  682BOLB   C4C16364   9.070  15.248  21.850  0.0088  0.1979  0.0044
  682BOLB   C1D16365   8.532  15.509  22.626  0.1863 -0.2014  0.0850
  682BOLB   C2D16366   8.851  15.152  22.816  0.2732 -0.0410 -0.2361
  682BOLB   C3D16367   9.335  15.069  22.723  0.0908  0.1625 -0.2172
  682BOLB   C4D16368   9.819  15.219  22.567 -0.2441  0.0533 -0.0491
  683BOLB   NC116369  14.739   4.594  26.644 -0.2093  0.0762  0.2320
  683BOLB   PO116370  14.685   4.839  26.183 -0.1233 -0.1668  0.0677
  683BOLB   GL116371  14.642   5.125  25.816 -0.0188 -0.1832 -0.2423
  683BOLB   GL216372  14.332   5.212  25.827  0.2610 -0.0857 -0.0963
  683BOLB   C1A16373  14.718   5.355  25.380  0.1309  0.3477 -0.3134
  683BOLB   C2A16374  14.725   5.647  25.093 -0.0505 -0.1921  0.2605
  683BOLB   C3A16375  14.810   5.693  24.687  0.2265  0.1240 -0.0454
  683BOLB   C4A16376  15.077   5.728  24.304 -0.1966  0.1544  0.0139
  683BOLB   C1B16377  14.195   5.392  25.510 -0.0109  0.3575 -0.0807
  683BOLB   C2B16378  14.265   5.801  25.212  0.0234  0.0810 -0.1903
  683BOLB   C3B16379  14.259   5.873  24.775 -0.5452 -0.1003  0.3319
  683BOLB   C4B16380  14.436   5.932  24.338  0.2021 -0.1379 -0.0616
  683BOLB   NC216381  15.265   6.162  22.366 -0.1456  0.2586 -0.2178
  683BOLB   PO216382  15.666   6.144  22.507  0.1825  0.0061 -0.0634
  683BOLB   GL316383  15.522   5.763  22.744  0.0673  0.3232 -0.0030
  683BOLB   GL416384  15.659   5.645  22.930 -0.2159  0.0315 -0.0625
  683BOLB   C1C16385  15.194   5.701  22.852 -0.0290  0.1285 -0.0398
  683BOLB   C2C16386  14.992   5.466  23.129  0.2474 -0.0807 -0.0406
  683BOLB   C3C16387  15.070   5.529  23.555 -0.0919  0.2094  0.0021
  683BOLB   C4C16388  15.151   5.474  23.969 -0.0754 -0.2562  0.1539
  683BOLB   C1D16389  15.463   5.361  23.188  0.2240 -0.0886 -0.1269
  683BOLB   C2D16390  15.196   5.086  23.537 -0.3819  0.0874 -0.0417
  683BOLB   C3D16391  15.431   4.932  23.845 -0.0885  0.0286 -0.0623
  683BOLB   C4D16392  15.781   4.879  24.171 -0.1041  0.1175 -0.1098
  684BOLB   NC116393   9.624  13.492  19.530 -0.2765 -0.0276 -0.1097
  684BOLB   PO116394   9.335  13.479  19.120  0.0368  0.1000  0.2165
  684BOLB   GL116395   8.903  13.626  19.027  0.0585  0.1276 -0.0300
  684BOLB   GL216396   8.812  13.322  18.851 -0.0945  0.0594 -0.1386
  684BOLB   C1A16397   8.553  13.621  19.278  0.1619 -0.1617 -0.0538
  684BOLB   C2A16398   8.168  13.580  19.381  0.2975  0.0747 -0.2982
  684BOLB   C3A16399   7.970  13.522  19.703  0.1410 -0.0629  0.3506
  684BOLB   C4A16400   7.907  13.549  20.150 -0.0448 -0.3647 -0.1032
  684BOLB   C1B16401   8.383  13.278  19.038  0.1841 -0.0654 -0.1613
  684BOLB   C2B16402   7.822  13.173  19.211  0.0535  0.1491  0.0626
  684BOLB   C3B16403   7.391  13.113  19.347  0.1728 -0.2011  0.0395
  684BOLB   C4B16404   7.150  13.480  19.470  0.1377  0.2743  0.1589
  684BOLB   NC216405   6.414  14.456  21.986  0.0071  0.1545 -0.1477
  684BOLB   PO216406   6.830  14.397  22.164  0.0005  0.0462 -0.3361
  684BOLB   GL316407   7.169  14.382  21.823  0.1636  0.1759  0.2801
  684BOLB   GL416408   7.387  14.419  21.924 -0.1098  0.1802 -0.0362
  684BOLB   C1C16409   7.307  14.515  21.433  0.2284 -0.1457 -0.1267
  684BOLB   C2C16410   7.446  14.303  21.164  0.3011  0.2109  0.1182
  684BOLB   C3C16411   7.793  14.108  20.865 -0.4400  0.0299  0.2657
  684BOLB   C4C16412   7.977  13.864  20.517 -0.1786  0.2769  0.0782
  684BOLB   C1D16413   7.711  14.355  21.754  0.0046  0.1990 -0.2797
  684BOLB   C2D16414   8.070  14.367  21.921  0.1088 -0.2713  0.4313
  684BOLB   C3D16415   8.412  14.224  21.818  0.2272  0.1160  0.1357
  684BOLB   C4D16416   8.757  14.339  21.558  0.0402 -0.0469 -0.0806
  685BOLB   NC116417  19.377   2.144  17.145 -0.2470  0.0830 -0.0636
  685BOLB   PO116418  19.335   1.931  16.718 -0.2922 -0.2870 -0.1247
  685BOLB   GL116419  19.670   1.690  16.955  0.4440  0.0512  0.0626
  685BOLB   GL216420  19.756   1.856  17.260 -0.1264 -0.0375  0.1672
  685BOLB   C1A16421  19.937   1.313  17.023 -0.0640 -0.1860  0.3272
  685BOLB   C2A16422  19.778   0.851  17.001  0.2383  0.0904 -0.1779
  685BOLB   C3A16423  19.704   0.402  17.045  0.5205  0.1321  0.2406
  685BOLB   C4A16424  19.695  -0.067  16.982 -0.1853  0.2192  0.0340
  685BOLB   C1B16425  20.080   1.535  17.528  0.1850  0.0494  0.2019
  685BOLB   C2B16426  20.336   1.566  17.923  0.0029  0.5269  0.1720
  685BOLB   C3B16427  20.504   1.344  18.316 -0.2030 -0.0096  0.2280
  685BOLB   C4B16428  20.594   1.147  18.710  0.1918  0.4413 -0.4576
  685BOLB   NC216429  19.318  -2.248  16.880  0.0007  0.1161 -0.1270
  685BOLB   PO216430  19.047  -2.298  17.362  0.2093  0.1520 -0.1604
  685BOLB   GL316431  19.217  -1.968  17.382  0.2261  0.1893  0.1319
  685BOLB   GL416432  19.222  -1.813  17.688  0.0697  0.0379 -0.0177
  685BOLB   C1C16433  19.236  -1.459  17.372  0.1027 -0.0082 -0.2211
  685BOLB   C2C16434  19.276  -0.998  17.097 -0.0754 -0.0072  0.0725
  685BOLB   C3C16435  19.231  -0.695  16.913 -0.1236 -0.2476  0.0765
  685BOLB   C4C16436  19.589  -0.483  16.858  0.3977  0.1367 -0.0116
  685BOLB   C1D16437  19.607  -1.565  17.936  0.0976 -0.0299  0.2371
  685BOLB   C2D16438  19.854  -1.222  17.909  0.2460 -0.1099 -0.1013
  685BOLB   C3D16439  20.279  -1.295  17.762 -0.3825 -0.3666  0.0729
  685BOLB   C4D16440  20.654  -1.158  17.574 -0.3066 -0.0580 -0.0050
  686BOLB   NC116441  12.043  14.868  11.196 -0.2953 -0.1237  0.0429
  686BOLB   PO116442  11.660  15.027  10.958  0.1741 -0.2843  0.0984
  686BOLB   GL116443  11.741  15.248  10.650 -0.0801  0.2219  0.1705
  686BOLB   GL216444  11.720  15.055  10.390  0.0075  0.4496  0.2189
  686BOLB   C1A16445  11.734  15.601  10.376  0.3324 -0.0896  0.1176
  686BOLB   C2A16446  11.835  16.036  10.270 -0.1503  0.2494 -0.1673
  686BOLB   C3A16447  11.606  16.310   9.933 -0.1437  0.2008 -0.0182
  686BOLB   C4A16448  11.195  16.487   9.751 -0.0504 -0.2976 -0.1207
  686BOLB   C1B16449  11.273  15.311  10.487  0.2880 -0.1567 -0.2120
  686BOLB   C2B16450  10.856  15.141  10.583  0.0933  0.1618  0.3335
  686BOLB   C3B16451  10.476  15.151  10.480 -0.0485 -0.0494 -0.0196
  686BOLB   C4B16452  10.263  14.895  10.268  0.4413 -0.1242  0.0915
  686BOLB   NC216453  10.849  17.957   7.689  0.1133  0.1250  0.0525
  686BOLB   PO216454  10.648  17.612   7.854  0.1361  0.1151 -0.1571
  686BOLB   GL316455  10.787  17.338   8.146  0.2478  0.0993  0.0139
  686BOLB   GL416456  10.580  17.026   8.035  0.0567 -0.0859  0.3730
  686BOLB   C1C16457  10.897  17.020   8.480  0.3481  0.0257 -0.1077
  686BOLB   C2C16458  11.063  16.578   8.592  0.1604 -0.0220 -0.1187
  686BOLB   C3C16459  11.252  16.591   9.000 -0.2794  0.0577  0.1270
  686BOLB   C4C16460  11.074  16.563   9.386  0.2986 -0.2557  0.1067
  686BOLB   C1D16461  10.941  16.663   8.058 -0.0803 -0.0488 -0.0371
  686BOLB   C2D16462  11.396  16.521   8.184  0.2322 -0.2220 -0.4182
  686BOLB   C3D16463  11.551  16.799   8.453 -0.1481  0.1885 -0.1457
  686BOLB   C4D16464  11.648  16.910   8.827  0.1187 -0.0133 -0.0758
  687BOLB   NC116465  28.781  10.594  15.995  0.0922  0.2854 -0.2864
  687BOLB   PO116466  28.463  10.659  15.712 -0.0783 -0.2263 -0.2610
  687BOLB   GL116467  28.086  10.566  15.606 -0.1782 -0.4010  0.1344
  687BOLB   GL216468  28.171  10.319  15.306 -0.1454  0.1160  0.0705
  687BOLB   C1A16469  27.691  10.896  15.591  0.4862 -0.0252 -0.1684
  687BOLB   C2A16470  27.272  10.833  15.552 -0.1008 -0.0389  0.1402
  687BOLB   C3A16471  27.031  10.555  15.633 -0.1776 -0.1610  0.1259
  687BOLB   C4A16472  26.963  10.228  15.878 -0.2361 -0.1208 -0.2608
  687BOLB   C1B16473  27.767  10.269  14.954 -0.0700 -0.0660 -0.1938
  687BOLB   C2B16474  27.321  10.343  14.804  0.2062  0.1141 -0.2281
  687BOLB   C3B16475  26.911  10.417  14.769 -0.1070 -0.3764 -0.0047
  687BOLB   C4B16476  26.576  10.739  14.635  0.2420  0.1011 -0.0976
  687BOLB   NC216477  28.690   9.573  16.451  0.1981 -0.1208  0.1328
  687BOLB   PO216478  28.342   9.228  16.479 -0.1501  0.3837  0.2302
  687BOLB   GL316479  27.992   9.097  16.349  0.0903  0.0805 -0.0794
  687BOLB   GL416480  27.799   9.193  16.645 -0.0327 -0.0751  0.0447
  687BOLB   C1C16481  27.707   9.147  16.043  0.1401  0.2933 -0.0532
  687BOLB   C2C16482  27.263   9.180  15.950 -0.0826 -0.0857 -0.2543
  687BOLB   C3C16483  27.000   9.407  16.098 -0.1935  0.0452  0.0786
  687BOLB   C4C16484  26.827   9.847  15.989 -0.0548  0.0784 -0.0194
  687BOLB   C1D16485  27.477   9.461  16.428  0.0632 -0.1689 -0.1309
  687BOLB   C2D16486  27.589   9.654  16.091  0.0026 -0.1312  0.0546
  687BOLB   C3D16487  27.407   9.993  15.817  0.0221  0.0002 -0.1823
  687BOLB   C4D16488  27.578  10.186  15.477  0.1574 -0.1747 -0.1939
  688BOLB   NC116489  18.732   6.261   2.013  0.1178 -0.2666 -0.1531
  688BOLB   PO116490  18.766   5.813   2.087  0.1087  0.2313 -0.0598
  688BOLB   GL116491  18.445   5.781   2.424 -0.2460  0.0546 -0.1200
  688BOLB   GL216492  18.547   5.776   2.785  0.0621  0.0072  0.1340
  688BOLB   C1A16493  18.067   5.659   2.655 -0.0032  0.2983 -0.1344
  688BOLB   C2A16494  17.834   5.609   3.042  0.0871  0.0696 -0.3577
  688BOLB   C3A16495  17.513   5.724   3.239 -0.3664 -0.2691 -0.2628
  688BOLB   C4A16496  17.062   5.634   3.086 -0.1906  0.1322  0.0223
  688BOLB   C1B16497  18.436   5.640   3.189  0.0198 -0.2007 -0.0100
  688BOLB   C2B16498  18.363   5.658   3.638 -0.1623 -0.0029  0.1152
  688BOLB   C3B16499  18.348   5.377   3.977 -0.1534  0.0360  0.0413
  688BOLB   C4B16500  18.081   5.137   4.290  0.1824 -0.0200 -0.1224
  688BOLB   NC216501  16.578   5.261   1.127 -0.1936 -0.1176 -0.1479
  688BOLB   PO216502  16.134   5.056   1.028 -0.0460 -0.0660  0.0409
  688BOLB   GL316503  16.293   4.880   1.419 -0.2208  0.0769  0.6277
  688BOLB   GL416504  16.020   4.768   1.581 -0.0570 -0.1541  0.1504
  688BOLB   C1C16505  16.571   4.755   1.712  0.2441 -0.5009 -0.1899
  688BOLB   C2C16506  16.528   4.771   2.198  0.1477  0.0986  0.1882
  688BOLB   C3C16507  16.707   5.127   2.430 -0.2132 -0.2935 -0.2779
  688BOLB   C4C16508  16.769   5.295   2.871  0.0960  0.1065  0.1017
  688BOLB   C1D16509  15.997   4.549   1.980  0.1717 -0.1360 -0.1250
  688BOLB   C2D16510  15.861   4.613   2.411 -0.1277 -0.2415  0.2340
  688BOLB   C3D16511  15.840   4.789   2.869 -0.1748  0.0866 -0.2660
  688BOLB   C4D16512  15.924   4.834   3.347  0.1004 -0.0070  0.1885
  689BOLB   NC116513  12.037  17.647  16.415 -0.0924  0.3298  0.0496
  689BOLB   PO116514  11.688  17.219  16.202  0.4260 -0.0366  0.3029
  689BOLB   GL116515  11.416  17.440  15.812  0.0224  0.2011  0.2656
  689BOLB   GL216516  11.479  17.393  15.609 -0.1390  0.4232 -0.1454
  689BOLB   C1A16517  11.250  17.862  15.704  0.0805  0.1961  0.0605
  689BOLB   C2A16518  11.475  18.120  15.304 -0.1577 -0.3040  0.0794
  689BOLB   C3A16519  11.594  18.373  15.032  0.0106 -0.0845 -0.1494
  689BOLB   C4A16520  11.214  18.605  14.879  0.1584 -0.1568 -0.0510
  689BOLB   C1B16521  11.162  17.484  15.249  0.0105  0.0745 -0.4607
  689BOLB   C2B16522  11.066  17.889  15.241 -0.2742 -0.1545  0.1323
  689BOLB   C3B16523  10.952  18.250  15.077 -0.1754 -0.1107  0.0365
  689BOLB   C4B16524  10.537  18.383  15.011  0.0955 -0.0092 -0.2036
  689BOLB   NC216525  10.006  20.859  14.290 -0.0549  0.2033  0.1054
  689BOLB   PO216526  10.012  21.012  14.676  0.3732 -0.1514 -0.0161
  689BOLB   GL316527  10.429  20.801  14.681  0.1498  0.0052  0.3836
  689BOLB   GL416528  10.422  20.565  14.476  0.3160  0.1753  0.0366
  689BOLB   C1C16529  10.448  20.420  14.943 -0.1708  0.1953  0.0357
  689BOLB   C2C16530  10.662  19.972  14.944 -0.3054  0.1695  0.1202
  689BOLB   C3C16531  10.930  19.498  14.982  0.2958  0.2270 -0.0553
  689BOLB   C4C16532  11.009  19.035  15.124 -0.2094 -0.0113  0.1226
  689BOLB   C1D16533  10.382  20.270  14.083  0.1051  0.1092  0.2356
  689BOLB   C2D16534  10.546  20.189  13.682  0.1142 -0.1121  0.0709
  689BOLB   C3D16535  10.358  20.003  13.306  0.1787 -0.1378  0.0549
  689BOLB   C4D16536  10.434  20.211  12.900  0.4746  0.0402  0.0242
  690BOLB   NC116537  12.754  15.812  11.852 -0.0399  0.0380  0.1482
  690BOLB   PO116538  12.417  15.811  11.668  0.2380  0.0040 -0.2936
  690BOLB   GL116539  12.277  16.146  11.540  0.0667 -0.4180 -0.1200
  690BOLB   GL216540  12.518  16.314  11.626 -0.2629 -0.0358  0.0897
  690BOLB   C1A16541  12.141  16.650  11.436 -0.0462 -0.0255 -0.0892
  690BOLB   C2A16542  11.818  16.783  11.450 -0.3068 -0.0775  0.2756
  690BOLB   C3A16543  11.599  17.028  11.232  0.0690  0.0844 -0.2089
  690BOLB   C4A16544  11.612  17.366  10.989 -0.1125 -0.3057  0.0022
  690BOLB   C1B16545  12.583  16.484  11.280 -0.3847 -0.0066  0.1620
  690BOLB   C2B16546  12.476  16.911  11.162 -0.0471 -0.0590 -0.1125
  690BOLB   C3B16547  12.158  17.226  11.055  0.2924 -0.0548  0.0353
  690BOLB   C4B16548  12.154  17.722  11.155 -0.2628 -0.1736 -0.0237
  690BOLB   NC216549  10.660  19.501  10.166  0.0041 -0.1483 -0.1935
  690BOLB   PO216550  10.402  19.229  10.106  0.0248  0.1013  0.0729
  690BOLB   GL316551  10.482  18.924  10.356 -0.1737  0.2654  0.5013
  690BOLB   GL416552  10.553  18.540  10.223 -0.0082  0.4126 -0.1625
  690BOLB   C1C16553  10.634  18.680  10.750  0.0489  0.1863  0.1688
  690BOLB   C2C16554  10.929  18.393  10.812  0.2458 -0.1774 -0.4254
  690BOLB   C3C16555  11.147  18.086  10.778 -0.0346  0.1646 -0.2143
  690BOLB   C4C16556  11.480  17.758  10.819 -0.0852 -0.1355 -0.0884
  690BOLB   C1D16557  10.913  18.628  10.291  0.3555  0.0329  0.1125
  690BOLB   C2D16558  11.304  18.502  10.407 -0.1537 -0.0390  0.0489
  690BOLB   C3D16559  11.656  18.298  10.701  0.0440 -0.2720 -0.0860
  690BOLB   C4D16560  11.869  18.051  10.841 -0.2195 -0.2035  0.0344
  691BOLB   NC116561  10.597  16.172  14.725  0.0009 -0.1244  0.3495
  691BOLB   PO116562  10.781  16.143  14.374 -0.1850  0.0720 -0.0212
  691BOLB   GL116563  10.615  16.531  14.313 -0.1304  0.1293  0.0154
  691BOLB   GL216564  10.781  16.893  14.255  0.1009  0.2037  0.0081
  691BOLB   C1A16565  10.370  16.809  14.573  0.4314  0.0846  0.1663
  691BOLB   C2A16566  10.006  17.094  14.599  0.2998  0.0414 -0.3261
  691BOLB   C3A16567   9.901  17.340  14.394  0.2691 -0.0063  0.1222
  691BOLB   C4A16568   9.927  17.893  14.387 -0.1836  0.1331  0.0623
  691BOLB   C1B16569  10.421  17.092  14.143  0.1563 -0.2982  0.1033
  691BOLB   C2B16570  10.204  17.392  13.837 -0.1547  0.1559 -0.0496
  691BOLB   C3B16571   9.865  17.651  13.939 -0.4176  0.0572 -0.4164
  691BOLB   C4B16572   9.710  18.053  13.918  0.2275  0.1714  0.1285
  691BOLB   NC216573   8.333  19.803  13.336 -0.3189 -0.1367  0.2199
  691BOLB   PO216574   8.429  19.496  13.565 -0.1426 -0.0279  0.1981
  691BOLB   GL316575   8.825  19.314  13.732  0.1624  0.2057  0.0085
  691BOLB   GL416576   9.008  19.512  13.873 -0.2958 -0.0275 -0.0491
  691BOLB   C1C16577   9.015  19.067  13.584 -0.0040 -0.2118  0.1088
  691BOLB   C2C16578   9.209  18.718  13.732  0.0392  0.2324  0.0285
  691BOLB   C3C16579   9.620  18.572  13.979 -0.0643 -0.0608 -0.0357
  691BOLB   C4C16580   9.930  18.288  14.301  0.0007 -0.1870 -0.0455
  691BOLB   C1D16581   9.436  19.291  13.730  0.0607 -0.2137  0.0202
  691BOLB   C2D16582   9.704  19.016  13.826  0.2847  0.2727 -0.1756
  691BOLB   C3D16583   9.991  18.679  13.661 -0.0055 -0.1968  0.1899
  691BOLB   C4D16584  10.015  18.316  13.628 -0.2010  0.0897 -0.1344
  692BOLB   NC116585   9.645   6.525  19.507  0.0855 -0.2818 -0.1244
  692BOLB   PO116586   9.659   6.268  19.910  0.2326  0.1229  0.1931
  692BOLB   GL116587   9.352   6.008  20.080 -0.0835  0.3337  0.2217
  692BOLB   GL216588   9.049   6.058  20.019 -0.2157 -0.0460 -0.4259
  692BOLB   C1A16589   9.163   5.761  20.397  0.4702 -0.1899  0.0659
  692BOLB   C2A16590   8.878   5.401  20.294 -0.1505  0.2122  0.0578
  692BOLB   C3A16591   8.572   5.253  20.030  0.1378  0.1189  0.0826
  692BOLB   C4A16592   8.397   4.837  19.943  0.2027  0.1590  0.0500
  692BOLB   C1B16593   8.760   6.012  20.127  0.0973  0.0461 -0.1032
  692BOLB   C2B16594   8.433   5.732  20.235  0.0314 -0.0264  0.1767
  692BOLB   C3B16595   8.180   5.717  20.582  0.0067  0.0731  0.0231
  692BOLB   C4B16596   8.033   5.711  20.962  0.5801  0.1209 -0.0480
  692BOLB   NC216597   7.402   2.993  21.252 -0.0497  0.1584  0.3462
  692BOLB   PO216598   7.809   2.821  20.967 -0.2191  0.3710  0.0800
  692BOLB   GL316599   7.986   2.988  20.778  0.0096 -0.2798  0.1921
  692BOLB   GL416600   8.307   2.919  20.942  0.0099  0.2488 -0.1313
  692BOLB   C1C16601   8.129   3.412  20.468  0.1897 -0.2302 -0.0413
  692BOLB   C2C16602   8.080   3.615  20.098  0.0973  0.4378 -0.1206
  692BOLB   C3C16603   7.984   3.977  20.317 -0.0752 -0.1860 -0.1310
  692BOLB   C4C16604   8.159   4.443  20.089 -0.3470 -0.0655 -0.1776
  692BOLB   C1D16605   8.463   3.334  20.834  0.0222 -0.0596 -0.1091
  692BOLB   C2D16606   8.630   3.577  20.554  0.0895  0.0260 -0.0258
  692BOLB   C3D16607   8.889   3.891  20.296  0.0011  0.2045 -0.1889
  692BOLB   C4D16608   9.356   3.894  20.289  0.0195 -0.1360 -0.0286
  693BOLB   NC116609  21.002  16.532  19.214 -0.3784 -0.0659 -0.0422
  693BOLB   PO116610  21.411  16.501  19.114 -0.0453  0.0886  0.2220
  693BOLB   GL116611  21.658  16.819  19.181  0.0299  0.0011 -0.0873
  693BOLB   GL216612  21.700  17.046  18.808 -0.0530 -0.2469  0.3863
  693BOLB   C1A16613  21.933  17.160  19.378  0.0171  0.2602  0.0577
  693BOLB   C2A16614  22.225  17.444  19.677 -0.2621  0.0941  0.2478
  693BOLB   C3A16615  22.469  17.468  20.134  0.3066 -0.0867 -0.3638
  693BOLB   C4A16616  22.621  17.514  20.491  0.2513  0.1420  0.0187
  693BOLB   C1B16617  21.959  17.317  18.935  0.0277  0.1099  0.4476
  693BOLB   C2B16618  22.101  17.636  19.205  0.0651  0.0198 -0.2558
  693BOLB   C3B16619  22.104  18.017  19.498  0.1994 -0.5591 -0.1587
  693BOLB   C4B16620  21.971  18.321  19.828  0.0912 -0.0590 -0.0534
  693BOLB   NC216621  24.759  18.165  21.127  0.1342 -0.2005  0.1255
  693BOLB   PO216622  24.633  18.459  20.800 -0.1257  0.0319 -0.0945
  693BOLB   GL316623  24.451  18.117  20.609 -0.4125 -0.0184  0.0174
  693BOLB   GL416624  24.699  17.852  20.712  0.2312 -0.1289  0.4269
  693BOLB   C1C16625  24.062  18.136  20.503 -0.1790 -0.0801 -0.3872
  693BOLB   C2C16626  23.718  17.992  20.537 -0.4204  0.1292 -0.0454
  693BOLB   C3C16627  23.333  17.807  20.466 -0.0891  0.1410  0.1206
  693BOLB   C4C16628  22.929  17.819  20.506 -0.0389 -0.0146 -0.1683
  693BOLB   C1D16629  24.309  17.588  20.615  0.0307  0.0291 -0.0817
  693BOLB   C2D16630  23.849  17.445  20.429  0.0271 -0.0307 -0.0214
  693BOLB   C3D16631  23.402  17.307  20.354  0.1403 -0.0479  0.2682
  693BOLB   C4D16632  23.039  17.382  20.242  0.0467  0.1115 -0.0812
  694BOLB   NC116633  18.517   9.364  23.550 -0.2486 -0.2654 -0.1434
  694BOLB   PO116634  18.956   9.498  23.434 -0.2080  0.1529  0.1708
  694BOLB   GL116635  18.982   9.577  23.911  0.0925 -0.0178 -0.1590
  694BOLB   GL216636  18.926   9.819  24.145 -0.3389 -0.3472 -0.2333
  694BOLB   C1A16637  18.623   9.424  24.236  0.5045 -0.0515  0.0322
  694BOLB   C2A16638  18.606   9.424  24.694  0.2494  0.0534  0.0468
  694BOLB   C3A16639  18.755   9.319  25.077 -0.2782 -0.0453  0.2655
  694BOLB   C4A16640  18.912   9.164  25.525  0.0261 -0.1123 -0.1514
  694BOLB   C1B16641  18.973   9.889  24.563  0.2408  0.0762  0.1296
  694BOLB   C2B16642  18.996   9.883  24.983  0.0300 -0.1272  0.1807
  694BOLB   C3B16643  18.902   9.718  25.400  0.3713 -0.0619  0.2120
  694BOLB   C4B16644  19.028   9.964  25.798  0.1040 -0.1007  0.1167
  694BOLB   NC216645  19.878   8.013  26.931  0.1532  0.3212 -0.1852
  694BOLB   PO216646  20.176   8.256  27.159 -0.2935  0.0161  0.0564
  694BOLB   GL316647  20.156   8.539  26.757  0.2994  0.1014 -0.2212
  694BOLB   GL416648  20.367   8.563  26.376 -0.1987 -0.1169 -0.0864
  694BOLB   C1C16649  19.820   8.683  26.526 -0.1757  0.0291  0.2770
  694BOLB   C2C16650  19.378   8.765  26.444 -0.0583 -0.1257 -0.1992
  694BOLB   C3C16651  19.070   8.861  26.281  0.1479  0.0129  0.3740
  694BOLB   C4C16652  18.906   8.874  25.864  0.2290  0.0337 -0.2254
  694BOLB   C1D16653  20.072   8.639  26.066 -0.0533 -0.0208 -0.1994
  694BOLB   C2D16654  19.784   8.760  25.723  0.3381  0.0816 -0.4775
  694BOLB   C3D16655  19.724   8.527  25.396 -0.0510 -0.1417 -0.1816
  694BOLB   C4D16656  19.772   8.210  25.618  0.1017  0.0869 -0.2697
  695BOLB   NC116657  14.418   6.313  21.983 -0.0872 -0.1269  0.1396
  695BOLB   PO116658  14.875   6.192  22.103 -0.1275  0.0841  0.1196
  695BOLB   GL116659  14.579   6.010  22.398  0.4427  0.4989  0.1535
  695BOLB   GL216660  14.857   5.950  22.654 -0.2220  0.0842 -0.1648
  695BOLB   C1A16661  14.302   5.748  22.693  0.0036  0.3722  0.4050
  695BOLB   C2A16662  14.037   5.655  23.013 -0.1773  0.0521 -0.0468
  695BOLB   C3A16663  13.878   5.294  23.295 -0.1504 -0.0684  0.2266
  695BOLB   C4A16664  13.820   4.957  23.625 -0.0947 -0.0245 -0.2999
  695BOLB   C1B16665  14.669   5.919  23.064 -0.0750 -0.1502  0.0288
  695BOLB   C2B16666  14.621   5.781  23.472 -0.0851 -0.1483  0.0200
  695BOLB   C3B16667  14.814   5.856  23.852  0.1892 -0.3706  0.0087
  695BOLB   C4B16668  14.858   6.143  24.158  0.2763 -0.1142 -0.2565
  695BOLB   NC216669  13.095   3.378  25.295  0.2196  0.0858 -0.1044
  695BOLB   PO216670  13.243   3.864  25.322  0.0696 -0.1994  0.1506
  695BOLB   GL316671  13.240   4.140  25.007  0.1336  0.0699  0.0553
  695BOLB   GL416672  13.576   4.216  24.869  0.1437 -0.1040  0.1527
  695BOLB   C1C16673  12.933   4.283  24.680 -0.0848 -0.0011  0.1008
  695BOLB   C2C16674  13.014   4.792  24.682 -0.0175  0.0333 -0.0627
  695BOLB   C3C16675  13.327   5.000  24.346  0.4025  0.3523 -0.2133
  695BOLB   C4C16676  13.669   4.956  24.016  0.2718  0.3867  0.1258
  695BOLB   C1D16677  13.343   4.334  24.415  0.0350  0.0255  0.1531
  695BOLB   C2D16678  13.092   4.526  24.154  0.1330 -0.1108 -0.2049
  695BOLB   C3D16679  13.173   4.808  23.969  0.0141  0.2614  0.1827
  695BOLB   C4D16680  13.205   4.889  23.638 -0.0476 -0.2370 -0.3636
  696BOLB   NC116681  18.112  18.346  14.557  0.2351 -0.3744 -0.1661
  696BOLB   PO116682  17.784  18.333  14.246  0.3570  0.1889  0.0157
  696BOLB   GL116683  18.026  18.700  14.267 -0.0437 -0.1913 -0.1463
  696BOLB   GL216684  17.986  18.851  13.997 -0.3993  0.0881  0.1887
  696BOLB   C1A16685  18.098  19.097  14.485  0.0047  0.0974 -0.1246
  696BOLB   C2A16686  18.178  19.496  14.516 -0.1228  0.0994  0.0705
  696BOLB   C3A16687  18.202  19.759  14.845 -0.0090  0.2330  0.3458
  696BOLB   C4A16688  18.401  20.120  14.964  0.0125  0.2662 -0.1059
  696BOLB   C1B16689  18.079  19.300  14.017  0.3396 -0.1713 -0.4103
  696BOLB   C2B16690  17.934  19.702  14.044  0.2256  0.1907 -0.0393
  696BOLB   C3B16691  18.100  20.091  13.917  0.1776 -0.1483 -0.1527
  696BOLB   C4B16692  18.153  20.456  13.586 -0.0076  0.0845  0.0553
  696BOLB   NC216693  18.405  22.623  14.678  0.0098  0.1271 -0.0261
  696BOLB   PO216694  18.315  22.400  14.936 -0.2636  0.1161  0.1873
  696BOLB   GL316695  18.229  21.977  14.901  0.3339 -0.3626  0.2631
  696BOLB   GL416696  17.981  21.967  15.073 -0.2440  0.1578 -0.0811
  696BOLB   C1C16697  18.276  21.542  15.007 -0.1336 -0.0411 -0.1433
  696BOLB   C2C16698  18.375  21.163  14.944 -0.2837 -0.2591  0.2468
  696BOLB   C3C16699  18.534  20.845  14.736 -0.2051 -0.0786  0.3578
  696BOLB   C4C16700  18.484  20.434  14.716  0.1511 -0.1071  0.0180
  696BOLB   C1D16701  17.634  21.897  15.355  0.1062 -0.2116  0.0349
  696BOLB   C2D16702  17.436  21.845  15.701  0.2312 -0.3595 -0.0663
  696BOLB   C3D16703  17.657  21.772  16.056 -0.1450 -0.1536 -0.1260
  696BOLB   C4D16704  17.645  21.306  16.269 -0.0461 -0.2748  0.2829
  697BOLB   NC116705  20.237   8.818   9.769  0.1071 -0.0387 -0.0642
  697BOLB   PO116706  20.321   8.895   9.232 -0.0184  0.0997  0.0833
  697BOLB   GL116707  20.607   8.907   8.958 -0.2299 -0.1803 -0.2855
  697BOLB   GL216708  20.475   8.665   8.753 -0.1464 -0.1234 -0.0778
  697BOLB   C1A16709  20.930   9.077   8.782  0.3122  0.1789 -0.0022
  697BOLB   C2A16710  21.352   9.131   8.648 -0.2170  0.1739  0.1273
  697BOLB   C3A16711  21.572   8.833   8.532  0.0896 -0.0944  0.5827
  697BOLB   C4A16712  21.683   8.776   8.129 -0.0509  0.1445  0.0948
  697BOLB   C1B16713  20.715   8.566   8.380 -0.0676  0.0569  0.1405
  697BOLB   C2B16714  20.946   8.227   8.045  0.0865 -0.0366 -0.0425
  697BOLB   C3B16715  21.274   7.985   7.752  0.0065  0.1321 -0.1370
  697BOLB   C4B16716  21.731   7.952   7.862 -0.0219  0.0532 -0.2829
  697BOLB   NC216717  23.354   8.372   5.836 -0.1128  0.1232  0.4320
  697BOLB   PO216718  23.191   8.283   6.275 -0.1503  0.0637  0.0600
  697BOLB   GL316719  22.963   8.381   6.637  0.1043  0.2031  0.0361
  697BOLB   GL416720  22.589   8.367   6.654  0.2669 -0.1473  0.0822
  697BOLB   C1C16721  22.893   8.436   7.118 -0.2504  0.2844  0.0789
  697BOLB   C2C16722  22.540   8.523   7.391 -0.2260  0.0269 -0.1130
  697BOLB   C3C16723  22.131   8.447   7.485  0.2966  0.0455  0.0624
  697BOLB   C4C16724  21.846   8.516   7.851  0.0039 -0.1806  0.0388
  697BOLB   C1D16725  22.301   8.337   7.009  0.2267 -0.0274 -0.0188
  697BOLB   C2D16726  22.011   8.087   7.125 -0.0340 -0.0934  0.1080
  697BOLB   C3D16727  21.686   8.013   7.408  0.1692 -0.0927  0.1209
  697BOLB   C4D16728  21.363   7.621   7.278 -0.0482 -0.0616 -0.1466
  698BOLB   NC116729  20.533   2.880  15.291  0.1487 -0.1810  0.1331
  698BOLB   PO116730  20.879   3.154  15.156 -0.2300  0.0031 -0.1403
  698BOLB   GL116731  20.992   2.718  15.153 -0.0510  0.1235 -0.2468
  698BOLB   GL216732  21.316   2.642  15.026  0.0808 -0.0906 -0.0747
  698BOLB   C1A16733  20.993   2.213  15.283 -0.0669 -0.0618 -0.0170
  698BOLB   C2A16734  21.185   1.851  15.583  0.0708 -0.2183 -0.0496
  698BOLB   C3A16735  21.470   1.505  15.758 -0.1511 -0.2732  0.0794
  698BOLB   C4A16736  21.571   1.193  16.087 -0.2701 -0.0307 -0.0124
  698BOLB   C1B16737  21.742   2.500  14.979 -0.1187 -0.1740 -0.1796
  698BOLB   C2B16738  21.925   2.181  14.802  0.1926  0.0518  0.2063
  698BOLB   C3B16739  22.058   2.054  14.303  0.1030  0.0321 -0.2321
  698BOLB   C4B16740  22.376   1.857  14.095  0.1088  0.1529  0.1515
  698BOLB   NC216741  22.411  -1.387  17.256  0.2790  0.0789 -0.2524
  698BOLB   PO216742  22.345  -1.009  17.076  0.0043 -0.1711  0.2301
  698BOLB   GL316743  22.284  -0.630  16.763 -0.1448  0.2300 -0.2977
  698BOLB   GL416744  22.206  -0.524  16.442 -0.0982 -0.3647  0.0892
  698BOLB   C1C16745  21.922  -0.386  16.794 -0.0522 -0.0601 -0.0182
  698BOLB   C2C16746  21.753   0.054  16.809 -0.4746  0.0504  0.1747
  698BOLB   C3C16747  21.666   0.543  16.690 -0.0346  0.0345 -0.0883
  698BOLB   C4C16748  21.596   0.964  16.503 -0.4014  0.0967 -0.1765
  698BOLB   C1D16749  21.711  -0.712  16.518 -0.0461 -0.1517 -0.1839
  698BOLB   C2D16750  21.413  -0.361  16.391  0.1910 -0.0956 -0.2814
  698BOLB   C3D16751  21.014  -0.077  16.208  0.1440  0.0175  0.0958
  698BOLB   C4D16752  20.723   0.117  16.464 -0.0927 -0.0416 -0.1583
  699BOLB   NC116753  13.977  16.847  11.873  0.3289 -0.1672 -0.1363
  699BOLB   PO116754  14.010  17.076  12.286  0.0867 -0.2478  0.2390
  699BOLB   GL116755  13.947  17.484  12.014  0.1765 -0.2563  0.2261
  699BOLB   GL216756  13.609  17.705  12.081 -0.0389 -0.0023 -0.0469
  699BOLB   C1A16757  13.793  17.613  11.606  0.1408 -0.0265  0.2333
  699BOLB   C2A16758  13.661  17.842  11.347 -0.2479  0.2169  0.1474
  699BOLB   C3A16759  13.327  18.130  11.171  0.0367  0.1186 -0.0340
  699BOLB   C4A16760  13.162  18.590  11.298 -0.0010  0.3858  0.3769
  699BOLB   C1B16761  13.440  18.145  11.784  0.0121  0.2692  0.0364
  699BOLB   C2B16762  13.142  18.586  11.795  0.1897  0.2566 -0.1695
  699BOLB   C3B16763  12.727  18.645  11.717  0.2097  0.3278 -0.2649
  699BOLB   C4B16764  12.341  18.777  11.588 -0.0764 -0.0860  0.3883
  699BOLB   NC216765  13.988  20.467  10.065  0.3642 -0.0342 -0.2730
  699BOLB   PO216766  13.804  20.415  10.485  0.1173  0.0289 -0.1098
  699BOLB   GL316767  13.657  20.109  10.636  0.1311 -0.0124  0.1955
  699BOLB   GL416768  13.872  19.951  10.725 -0.0238  0.2556 -0.0077
  699BOLB   C1C16769  13.359  19.862  10.756  0.0346 -0.1643 -0.0543
  699BOLB   C2C16770  12.999  19.652  10.880 -0.0943  0.3268  0.2529
  699BOLB   C3C16771  12.855  19.252  10.930 -0.0095  0.0804 -0.1058
  699BOLB   C4C16772  13.040  18.986  11.173 -0.0211 -0.5283 -0.3954
  699BOLB   C1D16773  13.807  19.512  10.797  0.2652 -0.3659  0.0088
  699BOLB   C2D16774  13.800  19.226  11.134  0.2335  0.0655  0.3264
  699BOLB   C3D16775  14.120  19.009  11.411 -0.1932  0.0407 -0.3508
  699BOLB   C4D16776  14.314  18.821  11.876 -0.0029  0.1512  0.0555
  700BOLB   NC116777  10.148  14.069  19.971 -0.1512 -0.0064  0.1092
  700BOLB   PO116778  10.045  13.679  19.980  0.0054 -0.0051 -0.0130
  700BOLB   GL116779   9.682  13.740  20.226  0.2594  0.0419  0.0979
  700BOLB   GL216780   9.850  13.464  20.390 -0.0566 -0.2188  0.0757
  700BOLB   C1A16781   9.299  13.770  20.088  0.0426 -0.4682  0.1051
  700BOLB   C2A16782   8.963  14.099  20.081  0.2928  0.2514  0.1640
  700BOLB   C3A16783   8.599  14.339  20.217 -0.1583 -0.1749 -0.2115
  700BOLB   C4A16784   8.435  14.646  20.246  0.0179 -0.1002  0.1669
  700BOLB   C1B16785   9.378  13.445  20.592 -0.0624 -0.1610 -0.2237
  700BOLB   C2B16786   8.941  13.603  20.875 -0.0005  0.2296 -0.2614
  700BOLB   C3B16787   8.595  13.784  20.833  0.0357 -0.3571 -0.4670
  700BOLB   C4B16788   8.152  13.782  21.002  0.2674  0.0360  0.1349
  700BOLB   NC216789   6.351  15.339  21.556 -0.0846  0.0307 -0.0454
  700BOLB   PO216790   6.499  14.914  21.632 -0.0300  0.0934 -0.0374
  700BOLB   GL316791   6.857  15.181  21.426  0.3034  0.0053  0.1204
  700BOLB   GL416792   7.013  14.988  21.406  0.0623 -0.2615  0.3895
  700BOLB   C1C16793   7.193  15.447  21.082  0.0835  0.0351  0.0939
  700BOLB   C2C16794   7.402  15.298  20.798 -0.1411 -0.0076 -0.0551
  700BOLB   C3C16795   7.785  15.087  20.548 -0.2160 -0.0054 -0.1608
  700BOLB   C4C16796   8.134  14.885  20.363 -0.2872 -0.0728  0.1184
  700BOLB   C1D16797   7.387  14.963  21.180 -0.0444 -0.2889  0.0228
  700BOLB   C2D16798   7.807  15.018  21.049 -0.1524 -0.0895 -0.0967
  700BOLB   C3D16799   8.141  15.111  20.901 -0.1857 -0.1347  0.1329
  700BOLB   C4D16800   8.505  14.875  20.727 -0.2520 -0.0102  0.0056
  701BOLB   NC116801  11.811  16.995  15.777  0.0149  0.2953 -0.0030
  701BOLB   PO116802  11.382  16.872  15.689 -0.2823 -0.0818  0.0906
  701BOLB   GL116803  11.010  17.217  15.649 -0.0151  0.2665 -0.1633
  701BOLB   GL216804  10.762  17.113  15.477  0.0781  0.0482  0.0886
  701BOLB   C1A16805  10.790  17.611  15.564 -0.2842  0.1161  0.1036
  701BOLB   C2A16806  10.595  17.827  15.867 -0.0690 -0.1972  0.0572
  701BOLB   C3A16807  10.606  18.359  16.043 -0.0063  0.3875 -0.3360
  701BOLB   C4A16808  10.569  18.604  16.340  0.0988 -0.3818 -0.0399
  701BOLB   C1B16809  10.614  17.318  15.935  0.1900  0.0881 -0.2676
  701BOLB   C2B16810  10.325  17.560  16.254 -0.0128 -0.1185 -0.4751
  701BOLB   C3B16811  10.149  17.857  16.553 -0.1276 -0.1271  0.0320
  701BOLB   C4B16812  10.139  18.363  16.516 -0.1613  0.2635 -0.0239
  701BOLB   NC216813   9.144  20.663  16.952 -0.0333 -0.1777  0.1587
  701BOLB   PO216814   9.126  20.574  16.536  0.1655  0.3984  0.1861
  701BOLB   GL316815   9.299  20.283  16.262 -0.0314  0.0081  0.0241
  701BOLB   GL416816   9.188  20.103  16.109  0.0582  0.0853 -0.0752
  701BOLB   C1C16817   9.693  20.124  16.202  0.1101 -0.2346 -0.0033
  701BOLB   C2C16818   9.932  19.723  16.397 -0.0810 -0.0401 -0.1327
  701BOLB   C3C16819  10.134  19.324  16.313 -0.0698  0.2776  0.3383
  701BOLB   C4C16820  10.193  18.809  16.181  0.1380 -0.0933 -0.0514
  701BOLB   C1D16821   9.217  19.727  16.150 -0.0494  0.1358 -0.0441
  701BOLB   C2D16822   9.056  19.299  16.411 -0.0289  0.0326  0.1577
  701BOLB   C3D16823   9.149  18.915  16.434 -0.0491 -0.0049  0.1065
  701BOLB   C4D16824   9.243  18.630  16.792 -0.3165 -0.0409  0.0661
  702BOLB   NC116825  12.794   8.567  22.511 -0.1860 -0.0078  0.2580
  702BOLB   PO116826  12.948   8.782  22.864  0.0037 -0.0206 -0.2842
  702BOLB   GL116827  12.829   8.592  23.159  0.0556 -0.2541  0.4870
  702BOLB   GL216828  13.143   8.397  23.316  0.0227 -0.0019 -0.0078
  702BOLB   C1A16829  12.884   8.551  23.667  0.0530  0.2652  0.0207
  702BOLB   C2A16830  12.601   8.473  24.096 -0.2968 -0.1841 -0.2871
  702BOLB   C3A16831  12.706   8.495  24.594  0.1065  0.1096 -0.0338
  702BOLB   C4A16832  12.732   8.677  24.990 -0.1351 -0.0364  0.0150
  702BOLB   C1B16833  13.176   8.159  23.701 -0.0290  0.1162 -0.1334
  702BOLB   C2B16834  12.986   8.080  24.109 -0.2539  0.1843  0.2435
  702BOLB   C3B16835  12.895   7.693  24.437  0.0782 -0.1238 -0.0801
  702BOLB   C4B16836  12.882   7.316  24.636 -0.1575  0.2943 -0.0631
  702BOLB   NC216837  13.245   9.068  27.172 -0.0030  0.3757 -0.1225
  702BOLB   PO216838  12.885   9.236  27.087 -0.0225  0.1602  0.0788
  702BOLB   GL316839  13.172   9.262  26.700 -0.0994  0.0739  0.2641
  702BOLB   GL416840  13.424   9.290  26.658 -0.0952 -0.2224 -0.1136
  702BOLB   C1C16841  13.089   9.486  26.268 -0.3724  0.0623  0.0005
  702BOLB   C2C16842  13.130   9.410  25.816 -0.2760  0.0122  0.1514
  702BOLB   C3C16843  13.037   9.201  25.561  0.0829  0.0924  0.0770
  702BOLB   C4C16844  12.733   8.851  25.388  0.0075 -0.2986 -0.1358
  702BOLB   C1D16845  13.630   9.502  26.275  0.2902  0.1982  0.0844
  702BOLB   C2D16846  14.052   9.495  26.201 -0.1869 -0.0453  0.0951
  702BOLB   C3D16847  14.202   9.462  25.779  0.1223 -0.0865 -0.1217
  702BOLB   C4D16848  14.490   9.529  25.407  0.1480  0.0021 -0.1068
  703BOLB   NC116849  27.699  13.999  12.908  0.1927  0.1547 -0.0718
  703BOLB   PO116850  27.572  13.605  12.784 -0.1864 -0.1286  0.1208
  703BOLB   GL116851  27.303  13.499  12.661 -0.0016 -0.4730  0.2205
  703BOLB   GL216852  27.195  13.125  12.646 -0.3964  0.2288 -0.0937
  703BOLB   C1A16853  26.876  13.469  12.792  0.0612 -0.1152  0.1070
  703BOLB   C2A16854  26.947  13.371  13.155 -0.2613 -0.2491  0.1581
  703BOLB   C3A16855  26.620  13.024  13.394  0.0752  0.0410  0.2006
  703BOLB   C4A16856  26.490  12.713  13.272 -0.2080  0.0104 -0.0343
  703BOLB   C1B16857  27.008  12.690  12.626  0.1130 -0.0003  0.0377
  703BOLB   C2B16858  26.862  12.428  12.858  0.1121 -0.0329 -0.1050
  703BOLB   C3B16859  26.490  12.269  13.203  0.2588 -0.1190 -0.1034
  703BOLB   C4B16860  26.062  12.181  13.101  0.3514  0.0615  0.0611
  703BOLB   NC216861  27.601  12.540  11.751  0.3571  0.1100 -0.0561
  703BOLB   PO216862  27.262  12.862  11.511 -0.1674 -0.2690  0.1047
  703BOLB   GL316863  27.274  12.386  11.458  0.0989 -0.3027  0.0885
  703BOLB   GL416864  27.109  12.112  11.174 -0.2927 -0.2012  0.3591
  703BOLB   C1C16865  27.049  12.112  11.741 -0.0943 -0.0212 -0.2159
  703BOLB   C2C16866  26.677  12.237  12.022  0.3140  0.0117  0.0619
  703BOLB   C3C16867  26.627  12.326  12.397  0.2814 -0.2884  0.0011
  703BOLB   C4C16868  26.366  12.548  12.763 -0.0791  0.1418  0.0858
  703BOLB   C1D16869  26.748  11.843  11.273  0.1976  0.2511  0.1122
  703BOLB   C2D16870  26.479  11.782  11.697 -0.3273 -0.0739  0.1336
  703BOLB   C3D16871  26.105  11.672  11.812 -0.2275 -0.0948  0.0847
  703BOLB   C4D16872  25.806  11.731  11.462 -0.0033 -0.2215 -0.0348
  704BOLB   NC116873  11.025  13.954  10.835  0.0428 -0.0421 -0.0719
  704BOLB   PO116874  10.715  13.908  11.135 -0.0599 -0.0517  0.0231
  704BOLB   GL116875  10.617  14.304  10.995  0.3103 -0.2148  0.0070
  704BOLB   GL216876  10.733  14.315  10.657 -0.2880 -0.1364 -0.2990
  704BOLB   C1A16877  10.263  14.277  10.626  0.0327  0.2891  0.0256
  704BOLB   C2A16878  10.005  14.440  10.366 -0.2009 -0.1463  0.0345
  704BOLB   C3A16879   9.692  14.648  10.435  0.0674  0.0419  0.0400
  704BOLB   C4A16880   9.482  15.045  10.540 -0.0898  0.0310  0.1307
  704BOLB   C1B16881  10.583  14.365  10.259  0.1421 -0.0238  0.1975
  704BOLB   C2B16882  10.395  14.612   9.911 -0.0745  0.1053  0.1925
  704BOLB   C3B16883   9.937  14.577   9.835  0.3246  0.0494  0.1788
  704BOLB   C4B16884   9.596  14.656   9.711  0.2443  0.0260  0.1603
  704BOLB   NC216885   7.740  17.576   9.671  0.0078  0.4558  0.0313
  704BOLB   PO216886   8.011  17.267   9.990  0.0202 -0.3003 -0.1545
  704BOLB   GL316887   8.320  16.890  10.117 -0.0432 -0.0156 -0.5456
  704BOLB   GL416888   8.373  16.791  10.449  0.3132 -0.3167  0.0029
  704BOLB   C1C16889   8.477  16.307  10.043  0.3939  0.0125  0.2074
  704BOLB   C2C16890   8.745  15.952  10.064  0.3350 -0.3123  0.0363
  704BOLB   C3C16891   9.038  15.720  10.247 -0.1330 -0.0423  0.2744
  704BOLB   C4C16892   9.263  15.369  10.477  0.0298 -0.5714 -0.0774
  704BOLB   C1D16893   8.700  16.529  10.610 -0.0402 -0.1339  0.1470
  704BOLB   C2D16894   8.982  16.599  10.907  0.0480 -0.2998 -0.0652
  704BOLB   C3D16895   9.191  16.950  11.101 -0.2052 -0.1858 -0.2029
  704BOLB   C4D16896   9.415  17.405  11.018 -0.1476  0.1581 -0.1867
  705BOLB   NC116897  23.507  14.550  18.870 -0.4713 -0.0861 -0.1745
  705BOLB   PO116898  23.563  14.228  19.145  0.0904  0.1956 -0.3263
  705BOLB   GL116899  23.661  14.194  19.581  0.1041 -0.1889 -0.0388
  705BOLB   GL216900  23.665  14.369  19.728  0.2340 -0.1893  0.4334
  705BOLB   C1A16901  23.905  13.941  19.744  0.0558 -0.1737  0.0769
  705BOLB   C2A16902  24.255  13.950  19.941  0.0908  0.0255 -0.1224
  705BOLB   C3A16903  24.266  14.242  20.263 -0.3320  0.2944 -0.0023
  705BOLB   C4A16904  24.438  14.497  20.609  0.1272  0.2722  0.0896
  705BOLB   C1B16905  24.157  14.317  19.644  0.3009 -0.1371  0.2443
  705BOLB   C2B16906  24.510  14.425  19.779  0.2190 -0.1136 -0.0495
  705BOLB   C3B16907  24.622  14.589  20.088 -0.0784 -0.2319 -0.0016
  705BOLB   C4B16908  24.613  15.017  20.354  0.1437  0.0598 -0.2485
  705BOLB   NC216909  25.774  16.015  21.628 -0.0332 -0.0019 -0.4380
  705BOLB   PO216910  26.137  15.929  21.306  0.1421 -0.1394  0.1056
  705BOLB   GL316911  25.993  15.640  21.198  0.2458 -0.2012  0.1019
  705BOLB   GL416912  26.023  15.644  20.879  0.0357 -0.2832 -0.0769
  705BOLB   C1C16913  25.537  15.462  21.085  0.1423  0.1809 -0.2504
  705BOLB   C2C16914  25.166  15.343  20.807 -0.3527 -0.0623  0.3435
  705BOLB   C3C16915  25.068  14.902  20.696  0.1855 -0.0613  0.0521
  705BOLB   C4C16916  24.784  14.697  20.644  0.0710 -0.2594 -0.1225
  705BOLB   C1D16917  25.735  15.618  20.602 -0.1564 -0.1168 -0.0888
  705BOLB   C2D16918  25.522  15.204  20.567 -0.1792  0.0982 -0.0058
  705BOLB   C3D16919  25.174  15.046  20.234 -0.1737  0.1717  0.2345
  705BOLB   C4D16920  25.394  14.973  19.845 -0.3769 -0.2149  0.1695
  706BOLB   NC116921  17.818   6.197  22.425  0.4027  0.2031 -0.0570
  706BOLB   PO116922  17.866   6.560  22.625 -0.2625 -0.0287 -0.1664
  706BOLB   GL116923  18.124   6.166  22.825 -0.0609  0.1229 -0.1088
  706BOLB   GL216924  17.932   6.170  23.119  0.1255 -0.0210 -0.0220
  706BOLB   C1A16925  18.388   5.890  23.030  0.3038 -0.0287 -0.0052
  706BOLB   C2A16926  18.579   5.789  23.371 -0.2077  0.0994  0.1486
  706BOLB   C3A16927  18.723   5.826  23.797 -0.1473 -0.2345 -0.2580
  706BOLB   C4A16928  18.920   5.449  24.125  0.0690 -0.0086  0.1414
  706BOLB   C1B16929  17.889   5.724  23.343  0.0943  0.0440 -0.0213
  706BOLB   C2B16930  17.935   5.341  23.476  0.0866  0.0904 -0.1592
  706BOLB   C3B16931  18.013   4.882  23.519  0.5294  0.0355 -0.2544
  706BOLB   C4B16932  17.783   4.522  23.701  0.0547 -0.1373  0.1848
  706BOLB   NC216933  17.597   5.006  26.721 -0.1055  0.3482 -0.1162
  706BOLB   PO216934  18.004   4.972  26.535 -0.0141 -0.0248 -0.2005
  706BOLB   GL316935  18.135   5.202  26.118  0.0756  0.1418 -0.0322
  706BOLB   GL416936  17.992   5.545  26.132  0.1096 -0.0004  0.0855
  706BOLB   C1C16937  18.217   5.327  25.681 -0.2225 -0.2427 -0.3785
  706BOLB   C2C16938  18.353   4.972  25.353  0.0433 -0.0856 -0.0167
  706BOLB   C3C16939  18.691   5.083  24.936 -0.0541  0.1246  0.0669
  706BOLB   C4C16940  18.742   5.269  24.519  0.1595 -0.1953  0.0224
  706BOLB   C1D16941  17.826   5.749  25.752  0.2479 -0.3577 -0.2185
  706BOLB   C2D16942  17.555   6.045  25.572  0.4887 -0.0745  0.1861
  706BOLB   C3D16943  17.424   6.290  25.251 -0.3940  0.2235 -0.1155
  706BOLB   C4D16944  16.953   6.513  25.212 -0.3564  0.3598  0.3816
  707BOLB   NC116945   2.476   9.249   7.982  0.1074  0.1250  0.0081
  707BOLB   PO116946   2.797   9.283   7.669 -0.2488 -0.2569 -0.0319
  707BOLB   GL116947   3.216   9.349   7.827  0.2028  0.1084 -0.0995
  707BOLB   GL216948   3.374   9.605   7.900 -0.3687 -0.2324  0.0539
  707BOLB   C1A16949   3.446   9.137   8.010  0.0515  0.1635 -0.0625
  707BOLB   C2A16950   3.790   9.329   8.138  0.0138 -0.1172 -0.0477
  707BOLB   C3A16951   3.889   9.524   8.573  0.0869  0.2061  0.0492
  707BOLB   C4A16952   4.105   9.365   8.873  0.0779  0.1607  0.1173
  707BOLB   C1B16953   3.722   9.531   7.686  0.0509  0.1336 -0.1698
  707BOLB   C2B16954   4.077   9.732   7.714 -0.2537  0.0733 -0.3547
  707BOLB   C3B16955   4.342  10.088   7.644  0.1477 -0.2203  0.1405
  707BOLB   C4B16956   4.643  10.361   7.946  0.0151 -0.1327  0.5839
  707BOLB   NC216957   2.315   7.618   8.739  0.1433  0.4167 -0.2888
  707BOLB   PO216958   2.216   7.882   8.408  0.0968 -0.0795  0.0230
  707BOLB   GL316959   2.677   7.983   8.604 -0.1035  0.2265  0.2043
  707BOLB   GL416960   2.856   7.743   8.780 -0.1554  0.1558 -0.2417
  707BOLB   C1C16961   3.069   8.242   8.618 -0.1291  0.0701  0.0003
  707BOLB   C2C16962   3.462   8.311   8.836  0.1050 -0.2817  0.1007
  707BOLB   C3C16963   3.703   8.693   9.004  0.0264 -0.1820 -0.0844
  707BOLB   C4C16964   4.084   8.931   9.078 -0.1335 -0.2145 -0.1963
  707BOLB   C1D16965   3.259   7.818   8.827 -0.1191  0.3384  0.0180
  707BOLB   C2D16966   3.587   7.759   9.046  0.1425 -0.0769  0.0424
  707BOLB   C3D16967   3.702   8.176   9.313  0.1027  0.2734  0.0677
  707BOLB   C4D16968   4.097   8.436   9.278 -0.3010 -0.0886 -0.1500
  708BOLB   NC116969  21.478   5.510  18.903 -0.3931  0.5862 -0.1429
  708BOLB   PO116970  21.639   5.621  19.363  0.0908  0.2654 -0.0865
  708BOLB   GL116971  21.877   5.311  19.614  0.2190  0.0450  0.1158
  708BOLB   GL216972  22.217   5.385  19.749  0.1358 -0.2500 -0.2189
  708BOLB   C1A16973  21.799   4.867  19.760 -0.2205  0.0167 -0.1391
  708BOLB   C2A16974  22.115   4.450  19.828  0.0107 -0.0524  0.0504
  708BOLB   C3A16975  22.283   4.178  19.971  0.0717 -0.0918 -0.2276
  708BOLB   C4A16976  22.711   4.172  19.993 -0.3021  0.1168  0.1824
  708BOLB   C1B16977  22.307   5.270  20.092  0.0982  0.2239  0.2372
  708BOLB   C2B16978  22.408   5.053  20.445  0.1271  0.2697 -0.0598
  708BOLB   C3B16979  22.133   4.758  20.783  0.2556 -0.0994 -0.0443
  708BOLB   C4B16980  22.303   4.547  21.172  0.3022 -0.0973 -0.2021
  708BOLB   NC216981  23.508   2.352  21.034 -0.0683 -0.1464  0.1905
  708BOLB   PO216982  23.677   2.093  20.681 -0.1559 -0.2386  0.0141
  708BOLB   GL316983  23.435   2.369  20.497 -0.0451  0.0412  0.1260
  708BOLB   GL416984  23.373   2.226  20.257 -0.0567  0.1710 -0.2544
  708BOLB   C1C16985  23.210   2.770  20.447  0.2165  0.2813  0.2431
  708BOLB   C2C16986  23.031   3.049  20.107  0.0876 -0.1109 -0.0312
  708BOLB   C3C16987  23.114   3.405  19.948 -0.2262  0.1009 -0.0802
  708BOLB   C4C16988  22.914   3.826  19.833  0.2733  0.0057 -0.0623
  708BOLB   C1D16989  22.941   2.347  20.173 -0.2357 -0.2383  0.0875
  708BOLB   C2D16990  22.683   2.689  20.009  0.2017  0.0223 -0.1551
  708BOLB   C3D16991  22.262   2.871  20.003 -0.1298  0.0842  0.0735
  708BOLB   C4D16992  22.153   3.276  20.014  0.2707  0.0074 -0.1723
  709BOLB   NC116993  13.124  17.716  15.407  0.0545  0.1533 -0.1200
  709BOLB   PO116994  13.176  17.766  15.868  0.2740  0.2834  0.0206
  709BOLB   GL116995  13.041  18.191  15.929  0.1231  0.0294 -0.1888
  709BOLB   GL216996  12.916  18.260  15.671 -0.2610  0.0606  0.2785
  709BOLB   C1A16997  12.671  18.566  16.098 -0.1104  0.2098 -0.0197
  709BOLB   C2A16998  12.371  18.816  16.251  0.2444 -0.1631 -0.1540
  709BOLB   C3A16999  12.035  18.836  16.467 -0.1167  0.1579  0.4514
  709BOLB   C4A17000  11.719  19.050  16.371 -0.0328 -0.1018  0.2339
  709BOLB   C1B17001  12.753  18.614  15.557  0.1652  0.0946 -0.1352
  709BOLB   C2B17002  12.410  18.769  15.577  0.0662  0.1704  0.0078
  709BOLB   C3B17003  12.051  19.108  15.504 -0.5589 -0.0808 -0.1167
  709BOLB   C4B17004  12.060  19.062  15.999 -0.2091 -0.2011  0.2612
  709BOLB   NC217005  10.211  21.374  17.228 -0.1707  0.1766  0.3505
  709BOLB   PO217006  10.359  20.978  17.414 -0.0696 -0.0324 -0.0865
  709BOLB   GL317007  10.563  20.724  17.159 -0.1018 -0.0517 -0.3636
  709BOLB   GL417008  10.957  20.762  17.052  0.0881  0.1087 -0.1060
  709BOLB   C1C17009  10.872  20.270  17.165  0.0968 -0.1047  0.0787
  709BOLB   C2C17010  11.194  20.081  16.932 -0.0405  0.1359  0.0819
  709BOLB   C3C17011  11.304  19.722  16.708  0.2855  0.0893  0.2594
  709BOLB   C4C17012  11.580  19.511  16.388 -0.1296 -0.0997 -0.0057
  709BOLB   C1D17013  11.031  20.521  16.584  0.3390  0.2813 -0.3694
  709BOLB   C2D17014  11.063  20.050  16.368 -0.0967 -0.1433  0.2221
  709BOLB   C3D17015  11.128  19.573  16.281  0.4119  0.0015  0.3045
  709BOLB   C4D17016  11.296  19.172  16.079  0.5118 -0.2401 -0.1828
  710BOLB   NC117017   9.769   5.794  19.858  0.0185  0.4793  0.4497
  710BOLB   PO117018   9.718   5.387  19.692  0.0548 -0.0779  0.0021
  710BOLB   GL117019   9.654   5.064  19.913 -0.2685  0.1226  0.2178
  710BOLB   GL217020  10.019   4.985  19.902 -0.5800 -0.0907 -0.2214
  710BOLB   C1A17021   9.447   4.621  19.874 -0.0527 -0.1271 -0.1862
  710BOLB   C2A17022   9.401   4.345  20.063 -0.1504 -0.1900 -0.0963
  710BOLB   C3A17023   9.070   4.476  20.370 -0.0072 -0.1268 -0.1111
  710BOLB   C4A17024   8.687   4.441  20.453  0.0863 -0.0880  0.4417
  710BOLB   C1B17025   9.894   4.658  20.155  0.0324  0.1203  0.1397
  710BOLB   C2B17026   9.539   4.597  20.481 -0.0917 -0.2189 -0.0535
  710BOLB   C3B17027   9.423   4.329  20.653 -0.1449 -0.2961 -0.2760
  710BOLB   C4B17028   9.006   4.213  20.751  0.0912  0.0810 -0.0080
  710BOLB   NC217029   7.173   4.344  21.600 -0.2538 -0.0852  0.1984
  710BOLB   PO217030   7.377   4.052  21.859 -0.0542  0.2106 -0.0283
  710BOLB   GL317031   7.430   3.888  21.491  0.1683 -0.0501 -0.1395
  710BOLB   GL417032   7.558   4.072  21.363  0.1871 -0.0273 -0.1607
  710BOLB   C1C17033   7.598   3.606  21.174  0.2948 -0.1693 -0.1521
  710BOLB   C2C17034   7.972   3.574  20.946  0.3000  0.0974  0.4494
  710BOLB   C3C17035   8.266   3.851  20.779 -0.0161  0.0229  0.1972
  710BOLB   C4C17036   8.434   4.117  20.559 -0.1242  0.2351  0.2517
  710BOLB   C1D17037   7.786   4.102  20.956 -0.2442 -0.4108 -0.1256
  710BOLB   C2D17038   8.072   4.384  20.646  0.1219 -0.2962 -0.1983
  710BOLB   C3D17039   8.271   4.722  20.562  0.1108 -0.2088  0.0388
  710BOLB   C4D17040   8.662   4.933  20.464 -0.1816 -0.3104  0.1397
  711BOLB   NC117041  13.231   4.297   0.999  0.1099  0.1930  0.0570
  711BOLB   PO117042  12.939   4.650   1.200  0.1598  0.0804  0.1849
  711BOLB   GL117043  12.709   4.731   1.634  0.0829 -0.3425  0.0691
  711BOLB   GL217044  12.349   4.580   1.735 -0.3350 -0.0227 -0.2254
  711BOLB   C1A17045  12.527   4.959   1.916 -0.1512  0.3209  0.2885
  711BOLB   C2A17046  12.284   5.135   2.318 -0.1153  0.0781 -0.1690
  711BOLB   C3A17047  12.191   5.255   2.820 -0.0902  0.0339  0.0087
  711BOLB   C4A17048  12.083   5.079   3.173  0.0760  0.0589  0.2528
  711BOLB   C1B17049  12.635   4.300   1.808 -0.0811 -0.3577  0.2140
  711BOLB   C2B17050  12.517   4.091   2.040 -0.3053 -0.2525 -0.0191
  711BOLB   C3B17051  12.808   3.844   2.258 -0.2301 -0.0148  0.0167
  711BOLB   C4B17052  13.167   3.695   2.223 -0.1918 -0.0275 -0.1691
  711BOLB   NC217053  10.519   3.602   1.878 -0.1397 -0.0326  0.0960
  711BOLB   PO217054  10.835   3.915   1.663 -0.4243 -0.1165  0.1683
  711BOLB   GL317055  10.959   3.822   2.102 -0.2107 -0.1011  0.0712
  711BOLB   GL417056  11.200   3.722   2.228 -0.0252 -0.0783 -0.0803
  711BOLB   C1C17057  11.109   4.144   2.508 -0.2097  0.0857  0.1345
  711BOLB   C2C17058  11.255   4.301   2.883  0.1205  0.2373 -0.0385
  711BOLB   C3C17059  11.531   4.356   3.179 -0.2885 -0.2565 -0.3749
  711BOLB   C4C17060  11.775   4.751   3.396  0.2321  0.3628  0.1458
  711BOLB   C1D17061  11.375   3.642   2.623 -0.1990 -0.1675  0.3163
  711BOLB   C2D17062  11.696   3.513   2.829 -0.0046 -0.6527  0.1082
  711BOLB   C3D17063  12.069   3.309   2.661 -0.1279  0.2446 -0.1168
  711BOLB   C4D17064  12.519   3.338   2.665  0.1790  0.1195  0.0908
  712BOLB   NC117065   7.110   9.060   3.099 -0.1951 -0.5230 -0.3092
  712BOLB   PO117066   6.753   9.307   3.130  0.0751 -0.2995  0.4893
  712BOLB   GL117067   7.158   9.491   3.317 -0.1139  0.0036 -0.3731
  712BOLB   GL217068   6.935   9.642   3.608 -0.0240 -0.1752  0.0231
  712BOLB   C1A17069   7.521   9.461   3.567 -0.1670  0.2083 -0.2162
  712BOLB   C2A17070   7.692   9.375   4.029  0.3751  0.1774  0.3591
  712BOLB   C3A17071   7.467   9.461   4.432  0.2262  0.0667 -0.0424
  712BOLB   C4A17072   7.370   9.448   4.919 -0.2019  0.0959  0.0728
  712BOLB   C1B17073   7.141   9.388   3.936  0.1482  0.0720 -0.5431
  712BOLB   C2B17074   7.157   9.122   4.306  0.1303 -0.1369 -0.2737
  712BOLB   C3B17075   7.233   8.949   4.705 -0.0794  0.1298 -0.1179
  712BOLB   C4B17076   7.530   8.972   5.093  0.2312  0.0856  0.0494
  712BOLB   NC217077   6.053   9.986   4.248 -0.4532  0.1320 -0.0742
  712BOLB   PO217078   5.795   9.643   4.330  0.1718  0.0934 -0.0205
  712BOLB   GL317079   5.917   9.681   4.667 -0.0955  0.3732 -0.2358
  712BOLB   GL417080   5.980   9.323   4.737 -0.1712  0.4183 -0.0418
  712BOLB   C1C17081   6.127   9.732   5.026 -0.2051 -0.2455 -0.1052
  712BOLB   C2C17082   6.489   9.710   5.353 -0.0697 -0.1655 -0.3305
  712BOLB   C3C17083   6.724   9.360   5.387 -0.1118 -0.0444  0.2248
  712BOLB   C4C17084   7.126   9.370   5.251  0.3450  0.0100 -0.2073
  712BOLB   C1D17085   5.924   9.290   5.114  0.4443  0.2241  0.0649
  712BOLB   C2D17086   6.262   9.143   5.391 -0.3805  0.0184 -0.0109
  712BOLB   C3D17087   6.472   8.968   5.756 -0.1525  0.4313 -0.0242
  712BOLB   C4D17088   6.710   8.819   6.093 -0.0644 -0.1105  0.0583
  713BOLB   NC117089   4.730  14.641  15.876  0.2074  0.1370 -0.0977
  713BOLB   PO117090   4.521  14.226  15.686 -0.2907 -0.0114 -0.0921
  713BOLB   GL117091   4.936  14.138  15.721  0.0543  0.1377 -0.0481
  713BOLB   GL217092   4.984  14.196  16.002 -0.1012  0.2219 -0.0670
  713BOLB   C1A17093   5.428  13.995  15.621  0.2435  0.1288 -0.2106
  713BOLB   C2A17094   5.780  13.899  15.392 -0.1158 -0.1066 -0.0111
  713BOLB   C3A17095   6.155  13.836  15.014  0.1186 -0.2640 -0.0420
  713BOLB   C4A17096   6.619  13.871  14.807  0.1328 -0.1745  0.0913
  713BOLB   C1B17097   5.323  13.970  16.099 -0.3492  0.3688  0.0226
  713BOLB   C2B17098   5.698  13.724  15.946  0.0236 -0.2658 -0.3949
  713BOLB   C3B17099   5.669  13.253  15.864  0.2906  0.1146  0.2238
  713BOLB   C4B17100   5.714  12.836  16.085 -0.0956  0.0153  0.1294
  713BOLB   NC217101   9.013  12.454  16.042  0.1128  0.0220 -0.2075
  713BOLB   PO217102   8.578  12.549  15.868  0.2179 -0.3205 -0.0970
  713BOLB   GL317103   8.174  12.631  15.661  0.0547 -0.0045 -0.1768
  713BOLB   GL417104   7.982  12.396  15.819 -0.3561 -0.0018 -0.1107
  713BOLB   C1C17105   7.893  12.859  15.315 -0.1148  0.1795  0.0241
  713BOLB   C2C17106   7.631  13.136  14.997  0.0335  0.1427 -0.0440
  713BOLB   C3C17107   7.307  13.500  14.882  0.0370 -0.1758  0.2908
  713BOLB   C4C17108   7.007  13.762  14.898 -0.1267 -0.0755  0.1590
  713BOLB   C1D17109   7.590  12.566  15.684 -0.1414  0.0131 -0.1336
  713BOLB   C2D17110   7.371  12.752  15.355 -0.2974  0.0055  0.1491
  713BOLB   C3D17111   7.165  12.933  14.973  0.2973 -0.0516 -0.0390
  713BOLB   C4D17112   6.854  13.106  14.761 -0.1404 -0.2371  0.1225
  714BOLB   NC117113  18.188  13.864  23.472  0.3368 -0.4401  0.2601
  714BOLB   PO117114  18.665  13.875  23.339 -0.1014 -0.0545 -0.3259
  714BOLB   GL117115  18.809  13.867  23.649  0.1556  0.0220 -0.0637
  714BOLB   GL217116  18.926  13.616  23.801 -0.1418  0.3635  0.1990
  714BOLB   C1A17117  18.950  14.197  23.866 -0.0002 -0.1153  0.2702
  714BOLB   C2A17118  19.027  14.328  24.291  0.2562 -0.1521 -0.3932
  714BOLB   C3A17119  19.116  14.253  24.659 -0.0487 -0.6141 -0.3057
  714BOLB   C4A17120  19.048  14.226  25.123 -0.2775  0.0568 -0.2845
  714BOLB   C1B17121  19.187  13.835  24.138  0.1841 -0.1378 -0.0925
  714BOLB   C2B17122  19.533  14.050  24.451  0.0604  0.4017 -0.0225
  714BOLB   C3B17123  19.629  14.384  24.737  0.1122 -0.3141  0.1207
  714BOLB   C4B17124  19.826  14.758  24.787  0.0145 -0.0033 -0.2221
  714BOLB   NC217125  18.680  15.553  27.066 -0.1443  0.0732 -0.2802
  714BOLB   PO217126  18.669  15.914  26.744  0.0112  0.2003  0.4618
  714BOLB   GL317127  18.691  15.665  26.460 -0.0067 -0.0015 -0.3436
  714BOLB   GL417128  18.497  15.740  26.168  0.2835 -0.0780  0.3135
  714BOLB   C1C17129  18.813  15.309  26.162 -0.1045  0.1066  0.0287
  714BOLB   C2C17130  19.079  15.101  25.900 -0.2206  0.2334 -0.1894
  714BOLB   C3C17131  19.236  14.985  25.594  0.0546  0.0988 -0.0401
  714BOLB   C4C17132  19.200  14.501  25.476 -0.1905  0.1999  0.0869
  714BOLB   C1D17133  18.224  15.745  25.849 -0.2338 -0.2868  0.1459
  714BOLB   C2D17134  18.094  15.637  25.352 -0.2812 -0.0861 -0.1892
  714BOLB   C3D17135  18.048  15.370  25.054 -0.0678  0.0511 -0.1338
  714BOLB   C4D17136  17.821  15.348  24.771  0.3092  0.0545 -0.1554
  715BOLB   NC117137  16.709  32.190   9.864  0.5155 -0.2233 -0.1831
  715BOLB   PO117138  16.386  32.561   9.656 -0.0321 -0.2175 -0.1043
  715BOLB   GL117139  16.340  32.934   9.921 -0.0641 -0.1449 -0.0579
  715BOLB   GL217140  16.000  32.850   9.800  0.0772 -0.0802 -0.2907
  715BOLB   C1A17141  16.296  33.302   9.663 -0.1056 -0.2039 -0.1953
  715BOLB   C2A17142  15.984  33.535   9.605  0.1038  0.2890  0.2735
  715BOLB   C3A17143  15.679  33.740   9.804 -0.3645 -0.0259  0.0461
  715BOLB   C4A17144  15.259  33.741   9.886 -0.2606 -0.2764 -0.2474
  715BOLB   C1B17145  15.617  32.627   9.989  0.1327 -0.2218  0.4114
  715BOLB   C2B17146  15.221  32.866   9.900 -0.0123  0.1670  0.1778
  715BOLB   C3B17147  15.184  33.084   9.564  0.2177  0.0328  0.1021
  715BOLB   C4B17148  15.331  33.493   9.370  0.0174  0.0697  0.4743
  715BOLB   NC217149  15.989  32.386   9.391 -0.0251 -0.0820 -0.0651
  715BOLB   PO217150  15.816  32.561   8.970 -0.2971  0.1054  0.1616
  715BOLB   GL317151  15.373  32.599   9.046 -0.2288  0.1442 -0.0666
  715BOLB   GL417152  15.147  32.384   8.912  0.1751  0.1974 -0.1620
  715BOLB   C1C17153  14.982  32.614   9.449  0.1597 -0.2785  0.4611
  715BOLB   C2C17154  14.689  32.914   9.557  0.2951 -0.2550  0.0098
  715BOLB   C3C17155  14.844  33.112  10.001  0.2690 -0.0085 -0.0843
  715BOLB   C4C17156  14.940  33.478  10.113  0.0884  0.1424  0.3905
  715BOLB   C1D17157  14.945  32.703   8.886 -0.0147 -0.2063  0.0783
  715BOLB   C2D17158  14.675  32.961   8.613 -0.2222 -0.2801 -0.0364
  715BOLB   C3D17159  14.193  33.013   8.436 -0.2067  0.1978 -0.0673
  715BOLB   C4D17160  13.806  33.075   8.072 -0.0410  0.4810 -0.3168
  716BOLB   NC117161   5.150  36.377  18.457  0.0922  0.0659  0.1431
  716BOLB   PO117162   5.497  36.572  18.744 -0.3171 -0.2217  0.2514
  716BOLB   GL117163   5.786  36.849  18.345  0.1327 -0.0767 -0.0023
  716BOLB   GL217164   5.761  37.225  18.322  0.3805  0.0328 -0.0776
  716BOLB   C1A17165   6.030  37.079  17.985 -0.1790 -0.0158  0.0456
  716BOLB   C2A17166   6.095  37.363  17.643 -0.0079  0.0535 -0.0294
  716BOLB   C3A17167   6.425  37.521  17.409 -0.1138 -0.1611  0.0856
  716BOLB   C4A17168   6.754  37.752  17.544  0.2169  0.0421  0.0209
  716BOLB   C1B17169   5.718  37.490  17.982 -0.1677 -0.0904  0.0493
  716BOLB   C2B17170   5.838  37.795  17.831  0.1265 -0.2045  0.1963
  716BOLB   C3B17171   6.131  38.084  17.484  0.1947 -0.1494  0.4470
  716BOLB   C4B17172   6.509  38.084  17.252 -0.0219  0.2469 -0.2759
  716BOLB   NC217173   5.981  37.900  19.436 -0.1745  0.0792  0.3826
  716BOLB   PO217174   6.002  37.394  19.383  0.1406  0.0586  0.1768
  716BOLB   GL317175   6.062  37.430  19.004 -0.5008 -0.0490 -0.0266
  716BOLB   GL417176   6.178  37.250  18.751  0.0172 -0.3290  0.0439
  716BOLB   C1C17177   5.810  37.698  18.672  0.1497 -0.1297  0.0152
  716BOLB   C2C17178   6.137  37.780  18.358 -0.0824 -0.2101  0.1031
  716BOLB   C3C17179   6.532  37.946  18.298 -0.1722 -0.0159 -0.0607
  716BOLB   C4C17180   6.799  37.895  18.005  0.3625 -0.0912  0.4540
  716BOLB   C1D17181   6.290  37.175  18.379  0.3941 -0.1674  0.2958
  716BOLB   C2D17182   6.462  37.376  18.011  0.0169  0.0089  0.3178
  716BOLB   C3D17183   6.750  37.223  17.672 -0.1595  0.2097 -0.1730
  716BOLB   C4D17184   6.995  36.971  17.421 -0.0412  0.2139  0.0706
  717BOLB   NC117185   5.492   5.699   4.577  0.1448 -0.1376  0.2882
  717BOLB   PO117186   5.779   5.606   4.876 -0.1511 -0.1163 -0.2757
  717BOLB   GL117187   5.914   5.797   5.180  0.4564  0.0478 -0.1772
  717BOLB   GL217188   6.267   5.854   5.189 -0.3835  0.0447 -0.0019
  717BOLB   C1A17189   5.712   5.965   5.485 -0.2061  0.4092 -0.1676
  717BOLB   C2A17190   5.715   6.291   5.752  0.1910 -0.1042 -0.0813
  717BOLB   C3A17191   5.851   6.436   6.129  0.1554  0.1021  0.1363
  717BOLB   C4A17192   6.005   6.378   6.605  0.0801  0.0788 -0.4092
  717BOLB   C1B17193   6.685   5.883   5.046 -0.1778 -0.0843  0.2441
  717BOLB   C2B17194   6.910   6.245   4.765 -0.1093 -0.1101  0.1727
  717BOLB   C3B17195   7.260   6.537   4.637 -0.0742 -0.0764 -0.1978
  717BOLB   C4B17196   7.428   6.990   4.654 -0.0434 -0.2995  0.3131
  717BOLB   NC217197   4.122   5.667   6.863  0.1904 -0.0159  0.1890
  717BOLB   PO217198   4.489   5.443   6.638  0.1052 -0.2389  0.3817
  717BOLB   GL317199   4.904   5.472   6.716  0.1713 -0.0544 -0.1496
  717BOLB   GL417200   5.029   5.746   6.559  0.2314  0.2374 -0.0017
  717BOLB   C1C17201   5.022   5.411   7.140  0.1599  0.0937  0.2426
  717BOLB   C2C17202   5.392   5.570   7.350  0.0954 -0.0789  0.1740
  717BOLB   C3C17203   5.820   5.850   7.317  0.1388 -0.2024 -0.1829
  717BOLB   C4C17204   5.850   6.052   6.924 -0.0578 -0.2709  0.0266
  717BOLB   C1D17205   5.316   5.801   6.867  0.1482  0.0598  0.1844
  717BOLB   C2D17206   5.349   6.075   7.164 -0.1847  0.0808 -0.1950
  717BOLB   C3D17207   5.385   5.985   7.617 -0.0721 -0.3681  0.1597
  717BOLB   C4D17208   5.786   5.624   7.734  0.2558  0.2023  0.2907
  718BOLB   NC117209   4.252  35.836  16.699  0.0029  0.1562 -0.2958
  718BOLB   PO117210   4.454  36.166  16.854 -0.0522 -0.0509  0.3058
  718BOLB   GL117211   4.498  36.228  16.479  0.0247  0.1862  0.1251
  718BOLB   GL217212   4.628  35.910  16.312  0.0786  0.0536  0.0460
  718BOLB   C1A17213   4.705  36.458  16.333 -0.1547  0.0534 -0.1219
  718BOLB   C2A17214   4.900  36.790  16.376 -0.0904  0.0127  0.0017
  718BOLB   C3A17215   5.217  37.000  16.186  0.1170 -0.2663  0.1906
  718BOLB   C4A17216   5.320  37.187  15.892  0.1015 -0.2310 -0.0207
  718BOLB   C1B17217   5.092  36.184  16.228 -0.0212  0.0346  0.0948
  718BOLB   C2B17218   5.367  36.455  16.258  0.1021  0.1642  0.0671
  718BOLB   C3B17219   5.596  36.761  15.988  0.2700 -0.1228  0.1172
  718BOLB   C4B17220   5.808  37.135  16.094 -0.2556  0.0546 -0.0700
  718BOLB   NC217221   5.787  34.741  15.529  0.0605 -0.0204 -0.1321
  718BOLB   PO217222   5.480  34.925  15.826  0.0188  0.0920 -0.1858
  718BOLB   GL317223   5.577  35.307  15.622  0.0191  0.2671  0.1674
  718BOLB   GL417224   5.906  35.291  15.519  0.3161  0.2287  0.2955
  718BOLB   C1C17225   5.696  35.743  15.732  0.1065 -0.2316  0.1741
  718BOLB   C2C17226   5.767  36.220  15.570 -0.0917 -0.0356 -0.2393
  718BOLB   C3C17227   5.724  36.617  15.453 -0.0139 -0.1899 -0.3582
  718BOLB   C4C17228   5.670  37.057  15.622 -0.2135  0.2616 -0.1949
  718BOLB   C1D17229   5.890  35.508  15.093  0.1244  0.4079 -0.1332
  718BOLB   C2D17230   6.226  35.601  14.892  0.2165 -0.0779  0.0892
  718BOLB   C3D17231   6.608  35.876  14.934  0.0789  0.0707  0.3117
  718BOLB   C4D17232   6.897  35.823  14.571 -0.2488 -0.1250 -0.1021
  719BOLB   NC117233   5.870   2.787   6.565 -0.1032  0.2832 -0.0545
  719BOLB   PO117234   5.945   2.409   6.726 -0.0101  0.0088  0.0059
  719BOLB   GL117235   6.151   2.427   7.116 -0.0363 -0.1475  0.1828
  719BOLB   GL217236   6.308   2.116   7.285 -0.0976 -0.0711 -0.1936
  719BOLB   C1A17237   6.027   2.813   7.459  0.1635  0.2171 -0.0464
  719BOLB   C2A17238   6.243   3.146   7.624  0.3824  0.0605 -0.0666
  719BOLB   C3A17239   6.431   3.522   7.695  0.0336 -0.1301  0.1278
  719BOLB   C4A17240   6.642   3.780   7.400 -0.2141 -0.0546  0.2383
  719BOLB   C1B17241   6.746   2.305   7.414  0.0529 -0.0080 -0.1855
  719BOLB   C2B17242   6.952   2.681   7.564  0.0832  0.2603 -0.0990
  719BOLB   C3B17243   7.134   3.110   7.486 -0.1786  0.0331  0.1431
  719BOLB   C4B17244   7.212   3.381   7.104 -0.0774 -0.1123  0.2050
  719BOLB   NC217245   5.617   4.065   5.462 -0.0069  0.0059  0.1098
  719BOLB   PO217246   5.996   3.744   5.448 -0.0194  0.1475 -0.1193
  719BOLB   GL317247   6.278   3.911   5.599 -0.0519 -0.3212 -0.0399
  719BOLB   GL417248   6.589   3.939   5.463  0.1442 -0.1530 -0.1581
  719BOLB   C1C17249   6.572   3.886   5.976  0.0996 -0.3181  0.0216
  719BOLB   C2C17250   6.913   3.772   6.248  0.1124  0.0720 -0.2139
  719BOLB   C3C17251   7.020   3.585   6.651 -0.0495  0.1307  0.2026
  719BOLB   C4C17252   6.913   3.805   6.970  0.1566 -0.1472  0.0729
  719BOLB   C1D17253   6.882   4.216   5.668  0.1332  0.1195  0.2820
  719BOLB   C2D17254   6.975   4.272   6.065 -0.0166 -0.1869  0.0355
  719BOLB   C3D17255   7.197   4.517   6.321 -0.0294 -0.2030 -0.3635
  719BOLB   C4D17256   7.334   4.764   6.664  0.0793  0.0473  0.1136
  720BOLB   NC117257   8.372  15.937  24.036 -0.0268 -0.1180  0.4069
  720BOLB   PO117258   8.334  15.494  23.932 -0.2515  0.0656 -0.2975
  720BOLB   GL117259   8.651  15.413  23.588 -0.0482  0.0219  0.0713
  720BOLB   GL217260   8.857  15.146  23.512  0.1301  0.1065  0.0440
  720BOLB   C1A17261   8.976  15.568  23.342  0.2483 -0.1396  0.1438
  720BOLB   C2A17262   9.366  15.452  23.151  0.2352  0.0751 -0.2732
  720BOLB   C3A17263   9.461  15.582  22.717 -0.0764  0.3051  0.0857
  720BOLB   C4A17264   9.478  15.401  22.303 -0.2931 -0.1590 -0.0502
  720BOLB   C1B17265   9.125  14.989  23.214 -0.4239  0.0066 -0.0446
  720BOLB   C2B17266   9.359  14.598  23.273 -0.0094 -0.0630  0.1795
  720BOLB   C3B17267   9.667  14.305  23.490  0.0922 -0.0172  0.0250
  720BOLB   C4B17268  10.024  14.158  23.680 -0.1374  0.1197 -0.0167
  720BOLB   NC217269   8.188  15.292  23.467  0.2544  0.0083  0.0669
  720BOLB   PO217270   7.904  15.489  23.170  0.1905  0.4689  0.0656
  720BOLB   GL317271   8.098  15.225  22.744 -0.3193  0.0462 -0.2425
  720BOLB   GL417272   8.394  14.967  22.710 -0.0566 -0.1318  0.0021
  720BOLB   C1C17273   8.172  15.162  22.315  0.1361 -0.4713 -0.0996
  720BOLB   C2C17274   8.583  15.143  22.218  0.1728 -0.0736 -0.0069
  720BOLB   C3C17275   9.046  14.989  22.219 -0.1942 -0.2483  0.2922
  720BOLB   C4C17276   9.453  15.126  22.155 -0.0827 -0.0074  0.3641
  720BOLB   C1D17277   8.681  14.762  22.553  0.1236 -0.1839 -0.3392
  720BOLB   C2D17278   9.168  14.607  22.489 -0.1827  0.3418 -0.2566
  720BOLB   C3D17279   9.488  14.733  22.420 -0.3136 -0.0821  0.0262
  720BOLB   C4D17280   9.841  14.833  22.179 -0.0265 -0.1373 -0.0726
  721BOLB   NC117281   3.597  12.048  14.712  0.0475 -0.2320 -0.0112
  721BOLB   PO117282   3.445  12.050  14.243 -0.2390  0.0638  0.1181
  721BOLB   GL117283   3.713  11.756  14.152  0.0300 -0.1605 -0.0628
  721BOLB   GL217284   3.915  11.761  14.425  0.1898 -0.0623 -0.2112
  721BOLB   C1A17285   3.708  11.248  13.998  0.0478 -0.1021 -0.0072
  721BOLB   C2A17286   3.888  10.790  13.958 -0.1125 -0.0569  0.1179
  721BOLB   C3A17287   4.159  10.632  13.664  0.0339 -0.2077 -0.0696
  721BOLB   C4A17288   4.510  10.889  13.576 -0.0368  0.1337  0.1481
  721BOLB   C1B17289   4.406  11.771  14.368 -0.1109 -0.1905 -0.2149
  721BOLB   C2B17290   4.832  11.788  14.329  0.0454  0.1177  0.2660
  721BOLB   C3B17291   5.123  11.554  14.482 -0.3324 -0.0290 -0.3331
  721BOLB   C4B17292   5.070  11.198  14.776 -0.0270 -0.0421 -0.1432
  721BOLB   NC217293   3.609  13.081  13.626 -0.2231  0.1028 -0.0184
  721BOLB   PO217294   3.725  13.163  13.160  0.2512  0.0909 -0.0960
  721BOLB   GL317295   4.160  12.928  13.139 -0.2445 -0.5995 -0.1207
  721BOLB   GL417296   4.337  13.179  12.880 -0.2680  0.0888  0.0935
  721BOLB   C1C17297   4.304  12.491  13.123 -0.4747 -0.2364 -0.1590
  721BOLB   C2C17298   4.450  12.207  13.389 -0.2794  0.3357  0.0425
  721BOLB   C3C17299   4.347  11.738  13.483  0.0285 -0.1701  0.0309
  721BOLB   C4C17300   4.464  11.372  13.472 -0.2685 -0.1699 -0.1655
  721BOLB   C1D17301   4.657  12.927  13.225  0.2436  0.0490 -0.3302
  721BOLB   C2D17302   4.808  12.521  13.231  0.0297  0.0229 -0.1136
  721BOLB   C3D17303   5.048  12.237  13.189 -0.0646 -0.3141  0.2941
  721BOLB   C4D17304   5.198  11.812  13.153 -0.1048 -0.0515 -0.0671
  722BOLB   NC117305  15.343  16.402   9.955  0.1036  0.2884  0.3003
  722BOLB   PO117306  15.765  16.297  10.161  0.1084 -0.1739 -0.0189
  722BOLB   GL117307  15.835  16.595   9.874  0.1789  0.0296 -0.2451
  722BOLB   GL217308  15.563  16.743   9.655 -0.1291 -0.1491  0.1424
  722BOLB   C1A17309  15.968  16.753   9.494 -0.0553 -0.0574 -0.3378
  722BOLB   C2A17310  16.299  17.072   9.282  0.1282  0.1299  0.0797
  722BOLB   C3A17311  16.524  17.390   8.925  0.0656 -0.4524  0.1473
  722BOLB   C4A17312  16.483  17.379   8.440  0.1629  0.0887  0.2398
  722BOLB   C1B17313  15.539  17.061   9.383  0.0947 -0.2933 -0.2937
  722BOLB   C2B17314  15.447  17.348   9.110 -0.1391  0.0221 -0.0034
  722BOLB   C3B17315  15.520  17.583   8.755  0.0941  0.0563  0.2816
  722BOLB   C4B17316  15.685  17.883   8.490 -0.1373 -0.0246  0.1821
  722BOLB   NC217317  15.214  18.115   6.510  0.0435  0.0432  0.1065
  722BOLB   PO217318  15.609  17.964   6.262  0.0891 -0.2605 -0.4157
  722BOLB   GL317319  15.461  17.690   6.583 -0.0381  0.0646  0.0885
  722BOLB   GL417320  15.177  17.514   6.501  0.2098 -0.1238  0.0942
  722BOLB   C1C17321  15.512  17.730   7.009 -0.0867  0.1054  0.2830
  722BOLB   C2C17322  15.708  17.663   7.399 -0.3921  0.5148  0.1605
  722BOLB   C3C17323  15.989  17.545   7.847  0.1092  0.0184  0.0819
  722BOLB   C4C17324  16.309  17.317   8.020  0.3470  0.3769  0.2257
  722BOLB   C1D17325  15.275  17.163   6.748 -0.0782 -0.1176 -0.0844
  722BOLB   C2D17326  15.363  17.320   7.211  0.0726 -0.1197  0.0359
  722BOLB   C3D17327  15.499  17.223   7.570 -0.0276  0.2440 -0.1719
  722BOLB   C4D17328  15.760  17.005   7.759  0.1139  0.1129 -0.1601
  723BOLB   NC117329  19.307  34.713   8.034  0.4093 -0.0172  0.2204
  723BOLB   PO117330  18.832  34.808   8.024  0.1733 -0.1147  0.1350
  723BOLB   GL117331  18.597  35.037   8.250  0.2038  0.1879  0.3157
  723BOLB   GL217332  18.512  34.736   8.390 -0.2564  0.1624 -0.0406
  723BOLB   C1A17333  18.381  35.248   8.503  0.3080 -0.0647 -0.0503
  723BOLB   C2A17334  17.947  35.238   8.459  0.1060  0.0694 -0.0076
  723BOLB   C3A17335  17.527  35.250   8.561 -0.0162 -0.0530 -0.2597
  723BOLB   C4A17336  17.142  35.265   8.351  0.0514  0.0525  0.1877
  723BOLB   C1B17337  18.109  34.826   8.436  0.2045  0.1593 -0.3440
  723BOLB   C2B17338  17.659  34.765   8.459  0.0567 -0.0537 -0.1541
  723BOLB   C3B17339  17.604  35.096   8.103 -0.1889 -0.1691  0.0007
  723BOLB   C4B17340  17.510  35.614   7.942 -0.1999 -0.3986  0.3620
  723BOLB   NC217341  18.295  34.580   7.016  0.3332 -0.2034 -0.0868
  723BOLB   PO217342  18.299  34.153   7.296  0.0103 -0.1593 -0.0818
  723BOLB   GL317343  18.136  34.478   7.461  0.2228 -0.0590  0.2351
  723BOLB   GL417344  17.818  34.337   7.431  0.0169  0.2684  0.3436
  723BOLB   C1C17345  17.985  34.847   7.565  0.4708 -0.0897 -0.0035
  723BOLB   C2C17346  17.562  34.696   7.775 -0.0505  0.0558  0.1150
  723BOLB   C3C17347  17.165  34.774   7.798  0.4506 -0.1534  0.1281
  723BOLB   C4C17348  17.064  35.206   7.910 -0.2642 -0.3415 -0.2016
  723BOLB   C1D17349  17.618  34.226   7.762 -0.1336  0.2041  0.1386
  723BOLB   C2D17350  17.377  34.365   8.141 -0.1254  0.0226 -0.2231
  723BOLB   C3D17351  17.062  34.749   8.378  0.4492  0.2275  0.1448
  723BOLB   C4D17352  16.765  34.653   8.560 -0.1677  0.2082  0.1299
  724BOLB   NC117353  20.414   0.894   5.888 -0.2426  0.1935 -0.1351
  724BOLB   PO117354  20.152   1.075   5.625  0.4221 -0.1932  0.0092
  724BOLB   GL117355  19.963   1.196   5.949 -0.0182  0.0172  0.0005
  724BOLB   GL217356  19.871   1.555   5.808 -0.1333 -0.0298  0.0342
  724BOLB   C1A17357  19.639   1.347   6.225 -0.2778  0.1169 -0.2526
  724BOLB   C2A17358  19.360   1.429   6.612 -0.1885  0.2553 -0.0980
  724BOLB   C3A17359  19.209   1.807   6.742 -0.1672  0.1987 -0.0054
  724BOLB   C4A17360  18.895   1.860   7.023  0.1179 -0.0294  0.0642
  724BOLB   C1B17361  19.908   1.901   6.171  0.3195  0.1772  0.0273
  724BOLB   C2B17362  20.109   2.197   6.470 -0.0019  0.4091 -0.0925
  724BOLB   C3B17363  20.180   2.228   6.920 -0.0495 -0.1268 -0.1469
  724BOLB   C4B17364  20.079   1.950   7.230  0.1338  0.0096 -0.3749
  724BOLB   NC217365  21.087   1.334   7.653  0.2444  0.0376  0.1136
  724BOLB   PO217366  20.766   1.040   7.525 -0.0147  0.0770 -0.0342
  724BOLB   GL317367  20.432   1.310   7.702  0.0274  0.1549  0.1176
  724BOLB   GL417368  20.264   1.296   7.509  0.1764  0.0772 -0.1174
  724BOLB   C1C17369  20.087   1.344   7.964 -0.0401  0.4160 -0.0108
  724BOLB   C2C17370  19.713   1.487   8.104  0.2492 -0.2565 -0.1914
  724BOLB   C3C17371  19.239   1.659   7.885  0.0936 -0.2008  0.0221
  724BOLB   C4C17372  18.949   1.717   7.524  0.0468  0.1273  0.1891
  724BOLB   C1D17373  19.918   1.476   7.514 -0.0306  0.3001  0.1111
  724BOLB   C2D17374  19.521   1.318   7.568  0.0284  0.3178 -0.0237
  724BOLB   C3D17375  19.082   1.254   7.584  0.2640 -0.2618  0.2238
  724BOLB   C4D17376  18.810   1.449   7.973 -0.5367 -0.0781 -0.1201
  725BOLB   NC117377   2.651   2.652  17.734  0.1927  0.1254  0.1847
  725BOLB   PO117378   2.547   2.376  17.325  0.0087 -0.1625 -0.0143
  725BOLB   GL117379   2.874   2.662  17.287 -0.2194 -0.0501  0.0746
  725BOLB   GL217380   3.105   2.675  17.510 -0.1919  0.0030 -0.0586
  725BOLB   C1A17381   3.035   3.005  17.148  0.2640  0.2319  0.1722
  725BOLB   C2A17382   3.399   3.087  16.866  0.3659  0.2422  0.3450
  725BOLB   C3A17383   3.711   3.265  16.497 -0.0395 -0.0673  0.0855
  725BOLB   C4A17384   3.557   3.561  16.214  0.1178  0.1872  0.4433
  725BOLB   C1B17385   3.402   3.027  17.447  0.1657  0.0188 -0.0816
  725BOLB   C2B17386   3.614   3.399  17.189  0.1324  0.2153 -0.0733
  725BOLB   C3B17387   3.914   3.366  16.983  0.0100 -0.2064  0.1070
  725BOLB   C4B17388   4.415   3.464  16.826 -0.1752  0.1212  0.2488
  725BOLB   NC217389   2.315   4.439  17.401 -0.4196  0.1159 -0.2296
  725BOLB   PO217390   1.912   4.672  17.295 -0.0363 -0.1581  0.1159
  725BOLB   GL317391   2.138   4.862  16.924  0.0114  0.0157  0.0470
  725BOLB   GL417392   2.430   4.850  17.002  0.2233 -0.2783 -0.0392
  725BOLB   C1C17393   2.213   4.625  16.451 -0.0299 -0.2301 -0.0791
  725BOLB   C2C17394   2.429   4.363  16.188 -0.2194 -0.0369  0.1324
  725BOLB   C3C17395   2.764   4.022  16.175  0.2321 -0.2084  0.4352
  725BOLB   C4C17396   3.131   3.761  16.144  0.1953  0.0004  0.2818
  725BOLB   C1D17397   2.632   4.628  16.752  0.3516 -0.3405  0.1024
  725BOLB   C2D17398   2.524   4.243  16.712 -0.2279  0.0187 -0.0589
  725BOLB   C3D17399   2.530   3.837  16.632  0.0110  0.2303  0.0069
  725BOLB   C4D17400   2.547   3.514  16.487 -0.0215 -0.0547 -0.2015
  726BOLB   NC117401  14.968  31.235  13.886  0.1425  0.0755 -0.2889
  726BOLB   PO117402  14.979  31.579  13.572  0.0240 -0.1445 -0.2104
  726BOLB   GL117403  14.945  31.975  13.204  0.3457  0.1714 -0.0468
  726BOLB   GL217404  14.830  32.346  13.332 -0.0044  0.0787  0.1081
  726BOLB   C1A17405  14.904  32.338  12.840 -0.1167 -0.3752  0.0094
  726BOLB   C2A17406  14.919  32.668  12.898  0.2731 -0.0517 -0.1300
  726BOLB   C3A17407  14.656  32.996  13.037  0.1265 -0.0430 -0.2601
  726BOLB   C4A17408  14.656  33.489  13.219 -0.0869  0.1940  0.0820
  726BOLB   C1B17409  14.948  32.792  13.374 -0.0163  0.4502 -0.0104
  726BOLB   C2B17410  15.086  33.249  13.242  0.0103  0.2295 -0.0308
  726BOLB   C3B17411  15.246  33.639  13.123  0.1374 -0.2796 -0.1486
  726BOLB   C4B17412  15.032  34.138  13.110 -0.3155 -0.0176  0.2765
  726BOLB   NC217413  14.283  32.252  14.600 -0.0544 -0.2413 -0.0394
  726BOLB   PO217414  14.478  32.459  14.857 -0.2154 -0.1956 -0.0563
  726BOLB   GL317415  14.492  32.700  14.472 -0.1986 -0.1127  0.1796
  726BOLB   GL417416  14.488  32.680  14.130  0.3603  0.3745  0.2467
  726BOLB   C1C17417  14.811  33.135  14.351 -0.0408  0.2472  0.1165
  726BOLB   C2C17418  14.799  33.377  14.095 -0.2535 -0.1091  0.0802
  726BOLB   C3C17419  14.648  33.754  13.860 -0.1055  0.0422  0.2672
  726BOLB   C4C17420  14.744  33.895  13.368  0.4690  0.0805 -0.1980
  726BOLB   C1D17421  14.769  32.773  13.854  0.0557  0.0366  0.1464
  726BOLB   C2D17422  14.847  33.167  13.652  0.0619 -0.2604  0.0929
  726BOLB   C3D17423  15.067  33.558  13.671  0.1687 -0.0056  0.3104
  726BOLB   C4D17424  15.186  33.770  14.068 -0.0819  0.0070 -0.1162
  727BOLB   NC117425   9.101  10.222  19.271  0.1254 -0.1296 -0.1403
  727BOLB   PO117426   8.943  10.624  19.291  0.0311  0.0455 -0.2039
  727BOLB   GL117427   8.605  10.747  19.657 -0.0199  0.3103 -0.1361
  727BOLB   GL217428   8.609  11.073  19.512  0.0279 -0.4790 -0.2832
  727BOLB   C1A17429   8.157  10.857  19.798  0.1468  0.0176  0.1269
  727BOLB   C2A17430   7.807  10.824  20.056 -0.0525  0.0264  0.1419
  727BOLB   C3A17431   7.608  10.689  20.471  0.1110  0.0653 -0.2417
  727BOLB   C4A17432   7.238  10.580  20.653  0.1520  0.0615  0.0955
  727BOLB   C1B17433   8.519  11.287  19.934  0.3256 -0.1590 -0.1373
  727BOLB   C2B17434   8.603  11.191  20.335 -0.2772  0.1119 -0.2567
  727BOLB   C3B17435   8.296  11.373  20.695  0.0459  0.1233  0.2716
  727BOLB   C4B17436   7.943  11.034  20.896  0.1262  0.0946  0.0746
  727BOLB   NC217437   5.531   9.501  21.853 -0.0166 -0.0236  0.2628
  727BOLB   PO217438   5.882   9.112  22.014 -0.3602  0.0593 -0.1333
  727BOLB   GL317439   6.323   9.126  21.895  0.0614 -0.1665 -0.3591
  727BOLB   GL417440   6.603   9.025  22.092  0.3191  0.0843 -0.1712
  727BOLB   C1C17441   6.623   9.411  21.676  0.0373 -0.0789 -0.1680
  727BOLB   C2C17442   6.710   9.672  21.311  0.0276 -0.2684 -0.2075
  727BOLB   C3C17443   6.818  10.106  21.166 -0.2017 -0.0078 -0.1119
  727BOLB   C4C17444   7.050  10.211  20.867 -0.1280 -0.1031 -0.0572
  727BOLB   C1D17445   7.088   9.020  22.017 -0.0252 -0.1148 -0.2687
  727BOLB   C2D17446   7.410   9.418  22.136 -0.1148 -0.1609  0.0340
  727BOLB   C3D17447   7.798   9.464  22.022 -0.3222 -0.1893 -0.0573
  727BOLB   C4D17448   8.118   9.178  21.648  0.1458  0.1290 -0.4444
  728BOLB   NC117449  18.562  34.726  18.513 -0.2923 -0.0925 -0.2283
  728BOLB   PO117450  18.979  34.569  18.630 -0.2049 -0.2363  0.1019
  728BOLB   GL117451  19.010  34.992  18.583 -0.0057  0.2188  0.1343
  728BOLB   GL217452  19.083  35.097  18.847  0.1694 -0.0634 -0.1167
  728BOLB   C1A17453  19.198  35.095  18.235 -0.0478 -0.1464 -0.0144
  728BOLB   C2A17454  19.331  35.391  17.868 -0.1176  0.3501  0.3507
  728BOLB   C3A17455  19.629  35.518  17.578 -0.0468  0.4365  0.1508
  728BOLB   C4A17456  19.705  35.694  17.227 -0.0418 -0.1481  0.2542
  728BOLB   C1B17457  19.356  35.332  18.661  0.2701 -0.4150  0.0196
  728BOLB   C2B17458  19.582  35.441  18.392  0.3342 -0.0299  0.0560
  728BOLB   C3B17459  19.558  35.771  18.152  0.0383  0.0240  0.1000
  728BOLB   C4B17460  19.661  36.083  18.010  0.1094  0.0611 -0.2963
  728BOLB   NC217461  21.730  34.528  17.158 -0.0087 -0.0081  0.2016
  728BOLB   PO217462  21.570  34.839  17.013  0.2176 -0.0706  0.0927
  728BOLB   GL317463  21.359  35.266  17.035 -0.0575  0.3237 -0.0597
  728BOLB   GL417464  21.426  35.503  16.843 -0.2064 -0.0956 -0.3644
  728BOLB   C1C17465  21.096  35.548  17.309 -0.2258 -0.2143 -0.0080
  728BOLB   C2C17466  20.803  35.748  17.215  0.2685 -0.0061 -0.2755
  728BOLB   C3C17467  20.497  35.849  17.034 -0.0921 -0.2198 -0.2487
  728BOLB   C4C17468  20.038  35.876  17.004 -0.2096 -0.3063  0.1911
  728BOLB   C1D17469  21.101  35.820  16.793  0.4823  0.1408  0.1454
  728BOLB   C2D17470  20.860  36.209  16.753 -0.0962  0.0609 -0.0222
  728BOLB   C3D17471  20.546  36.358  16.896  0.1317 -0.0931  0.1464
  728BOLB   C4D17472  20.226  36.640  17.025 -0.1036 -0.1103 -0.1709
  729BOLB   NC117473  15.639  11.311   2.830  0.3928  0.0048  0.3163
  729BOLB   PO117474  15.200  11.188   2.940  0.3213  0.0896  0.1567
  729BOLB   GL117475  15.106  11.122   3.327  0.0848  0.6263 -0.3626
  729BOLB   GL217476  15.003  11.460   3.493 -0.1011  0.2842  0.2536
  729BOLB   C1A17477  15.254  11.027   3.776 -0.1802 -0.1717 -0.0261
  729BOLB   C2A17478  15.280  10.619   3.985  0.1708 -0.2165  0.0027
  729BOLB   C3A17479  15.375  10.257   4.265  0.0846  0.1512 -0.4688
  729BOLB   C4A17480  15.388  10.127   4.790  0.0589  0.0933  0.0127
  729BOLB   C1B17481  14.687  11.291   3.764 -0.1458  0.3209  0.2882
  729BOLB   C2B17482  14.324  10.986   3.807 -0.1553  0.0183 -0.2135
  729BOLB   C3B17483  13.984  10.810   3.780 -0.0513  0.0113 -0.0753
  729BOLB   C4B17484  13.780  10.690   3.492 -0.2859  0.1141  0.0734
  729BOLB   NC217485  17.056  10.193   3.115  0.0661  0.0005 -0.0855
  729BOLB   PO217486  17.026  10.437   3.433  0.0929 -0.1880  0.0595
  729BOLB   GL317487  16.817  10.448   3.751 -0.1879 -0.1538 -0.0498
  729BOLB   GL417488  16.748  10.791   3.970 -0.0097  0.2988 -0.0894
  729BOLB   C1C17489  16.676  10.300   4.170  0.1284 -0.2436  0.2746
  729BOLB   C2C17490  16.338  10.183   4.486 -0.3220  0.1254  0.0612
  729BOLB   C3C17491  16.098  10.015   4.766 -0.0203  0.2150 -0.3020
  729BOLB   C4C17492  15.742   9.923   5.035  0.2986  0.0794  0.1920
  729BOLB   C1D17493  16.581  10.969   4.305  0.1039  0.1977  0.1498
  729BOLB   C2D17494  16.488  11.038   4.695 -0.1017  0.1375 -0.3765
  729BOLB   C3D17495  16.179  10.983   5.065 -0.0627  0.0260 -0.1097
  729BOLB   C4D17496  15.996  11.066   5.479 -0.1419  0.3115  0.1568
  730BOLB   NC117497   8.449   4.977   3.469  0.0499 -0.0368 -0.0414
  730BOLB   PO117498   8.151   5.263   3.403 -0.2235  0.2005  0.0582
  730BOLB   GL117499   8.151   5.514   3.726  0.2619 -0.1942 -0.0732
  730BOLB   GL217500   7.885   5.669   3.814 -0.0023 -0.0082  0.0735
  730BOLB   C1A17501   8.379   5.651   4.072 -0.1518  0.0530 -0.0114
  730BOLB   C2A17502   8.549   5.467   4.449 -0.3898 -0.1340  0.0606
  730BOLB   C3A17503   8.785   5.583   4.777 -0.2309 -0.1176 -0.5192
  730BOLB   C4A17504   9.153   5.622   4.883  0.1444 -0.1110  0.1512
  730BOLB   C1B17505   8.007   5.882   4.261  0.2208 -0.0860 -0.0241
  730BOLB   C2B17506   8.371   6.010   4.556  0.0757  0.1146 -0.2019
  730BOLB   C3B17507   8.530   5.981   4.917 -0.0279  0.1016 -0.2336
  730BOLB   C4B17508   8.702   5.908   5.321 -0.1256  0.0984  0.0230
  730BOLB   NC217509   7.975   4.650   3.620 -0.1644 -0.0340  0.0389
  730BOLB   PO217510   8.438   4.599   3.780  0.1596 -0.0383 -0.0558
  730BOLB   GL317511   8.862   4.737   3.763  0.0295  0.0830  0.2380
  730BOLB   GL417512   9.087   4.654   3.555  0.0493  0.1330 -0.0729
  730BOLB   C1C17513   9.148   4.886   4.049 -0.2500 -0.3623  0.0237
  730BOLB   C2C17514   9.340   4.894   4.435  0.1275  0.2371  0.1103
  730BOLB   C3C17515   9.570   5.046   4.741 -0.0004  0.0442  0.0174
  730BOLB   C4C17516   9.528   5.504   4.972 -0.0248 -0.0814 -0.0628
  730BOLB   C1D17517   9.504   4.672   3.768 -0.0094  0.2541 -0.0716
  730BOLB   C2D17518   9.794   4.955   4.067  0.0556 -0.1346  0.1250
  730BOLB   C3D17519   9.981   5.181   4.449 -0.0680 -0.0739  0.3005
  730BOLB   C4D17520  10.357   5.300   4.751  0.0336  0.1920 -0.1120
  731BOLB   NC117521  12.387  32.091  15.012 -0.3240  0.1476  0.1428
  731BOLB   PO117522  12.246  32.378  15.338 -0.1564  0.1222  0.0139
  731BOLB   GL117523  12.297  32.544  14.874  0.0795  0.3439  0.1600
  731BOLB   GL217524  12.336  32.354  14.610 -0.1654  0.1686  0.0150
  731BOLB   C1A17525  12.410  32.904  14.618  0.0266  0.3012 -0.2525
  731BOLB   C2A17526  12.298  32.934  14.195 -0.0691 -0.1502 -0.3754
  731BOLB   C3A17527  12.055  32.904  13.804  0.2268 -0.4116 -0.4866
  731BOLB   C4A17528  12.017  32.654  13.464  0.0429 -0.0970  0.0558
  731BOLB   C1B17529  11.995  32.617  14.431 -0.3602  0.0035  0.0590
  731BOLB   C2B17530  11.916  33.013  14.504 -0.0706  0.1174  0.2052
  731BOLB   C3B17531  12.109  33.403  14.712 -0.3546 -0.3362 -0.0757
  731BOLB   C4B17532  12.014  33.666  15.054  0.0556  0.2202 -0.1762
  731BOLB   NC217533  11.890  31.103  11.017 -0.0274 -0.4789 -0.3350
  731BOLB   PO217534  11.980  31.383  11.488  0.0246 -0.1809  0.3293
  731BOLB   GL317535  12.381  31.710  11.614 -0.0044  0.0957 -0.0796
  731BOLB   GL417536  12.470  31.836  11.419  0.0190  0.0721 -0.1967
  731BOLB   C1C17537  12.359  31.912  12.012 -0.0146 -0.1957 -0.2173
  731BOLB   C2C17538  12.244  32.276  12.347 -0.2031  0.2098 -0.3023
  731BOLB   C3C17539  11.921  32.411  12.710 -0.2174 -0.1809  0.1941
  731BOLB   C4C17540  11.906  32.580  13.073  0.1265 -0.3931  0.2454
  731BOLB   C1D17541  12.397  32.233  11.258  0.1415 -0.2563  0.1149
  731BOLB   C2D17542  12.523  32.731  11.239  0.1314 -0.0929  0.0918
  731BOLB   C3D17543  12.760  33.074  11.336 -0.1924  0.1815 -0.4895
  731BOLB   C4D17544  12.895  33.566  11.404  0.0615 -0.0608 -0.0305
  732BOLB   NC117545  25.549   1.723  13.568  0.2697  0.0854  0.4249
  732BOLB   PO117546  25.523   1.660  13.996 -0.0024  0.4376  0.3108
  732BOLB   GL117547  25.271   1.928  14.180  0.1983  0.2411 -0.1399
  732BOLB   GL217548  25.389   2.126  14.263  0.1251  0.0704  0.1111
  732BOLB   C1A17549  24.966   2.010  14.435  0.2718 -0.0201  0.1493
  732BOLB   C2A17550  24.534   2.209  14.396  0.1684  0.0897  0.1698
  732BOLB   C3A17551  24.165   2.127  14.296  0.2175 -0.1531  0.2386
  732BOLB   C4A17552  23.738   2.325  14.393  0.1568 -0.1420 -0.0175
  732BOLB   C1B17553  25.108   2.446  14.561  0.2499 -0.4901  0.1953
  732BOLB   C2B17554  24.670   2.314  14.883 -0.1781  0.0004  0.3318
  732BOLB   C3B17555  24.395   2.694  15.169  0.1450 -0.1883  0.1695
  732BOLB   C4B17556  24.407   3.100  15.174  0.0336 -0.5516 -0.0971
  732BOLB   NC217557  21.566   3.593  14.780 -0.1099 -0.1124 -0.3973
  732BOLB   PO217558  21.480   3.544  14.387  0.0241 -0.0477  0.3232
  732BOLB   GL317559  21.898   3.449  14.296 -0.0988  0.0324  0.2542
  732BOLB   GL417560  22.003   3.687  14.412  0.0666 -0.0648  0.3292
  732BOLB   C1C17561  22.260   3.065  14.315 -0.1174 -0.2465 -0.1419
  732BOLB   C2C17562  22.552   2.924  14.137  0.4656  0.1942 -0.1078
  732BOLB   C3C17563  22.974   2.784  14.074  0.0376  0.1569 -0.4550
  732BOLB   C4C17564  23.437   2.542  14.139 -0.0521  0.0480  0.0986
  732BOLB   C1D17565  22.342   3.594  14.508 -0.0448  0.1509 -0.0869
  732BOLB   C2D17566  22.642   3.331  14.602 -0.0100 -0.0664  0.0274
  732BOLB   C3D17567  22.902   2.947  14.564  0.1052  0.0335 -0.0420
  732BOLB   C4D17568  23.316   2.868  14.541 -0.1607  0.0241 -0.0868
  733BOLB   NC117569   9.848  33.204  17.639 -0.2080  0.0447 -0.1426
  733BOLB   PO117570   9.602  33.361  17.243 -0.0539 -0.1729 -0.1998
  733BOLB   GL117571   9.748  33.603  16.866  0.1718  0.2917  0.1434
  733BOLB   GL217572   9.496  33.610  16.599  0.2855 -0.2091 -0.1283
  733BOLB   C1A17573   9.908  33.892  16.593 -0.2587  0.0670  0.0158
  733BOLB   C2A17574   9.848  34.114  16.298 -0.1962  0.0125 -0.1902
  733BOLB   C3A17575   9.724  34.259  15.919 -0.1008  0.1140  0.1525
  733BOLB   C4A17576   9.301  34.204  15.592  0.0387 -0.0449  0.1027
  733BOLB   C1B17577   9.352  33.629  16.117 -0.1997  0.0015 -0.2243
  733BOLB   C2B17578   9.181  33.517  15.709  0.2193 -0.1116  0.0012
  733BOLB   C3B17579   9.231  33.162  15.323  0.4351 -0.3758 -0.3475
  733BOLB   C4B17580   9.683  33.108  15.208  0.1754  0.2130  0.0655
  733BOLB   NC217581   7.222  33.660  15.789  0.2934  0.0230 -0.0449
  733BOLB   PO217582   7.618  33.436  15.812 -0.2394 -0.4550 -0.0302
  733BOLB   GL317583   7.797  33.688  15.434  0.4108 -0.2640 -0.0387
  733BOLB   GL417584   7.838  33.497  15.131 -0.0528  0.0227 -0.0592
  733BOLB   C1C17585   8.118  33.906  15.442  0.3670 -0.0446 -0.0202
  733BOLB   C2C17586   8.312  33.866  15.017  0.1007  0.1181 -0.1419
  733BOLB   C3C17587   8.823  33.945  14.811  0.0869 -0.0240  0.0155
  733BOLB   C4C17588   9.189  34.254  15.132  0.2283 -0.0465 -0.0554
  733BOLB   C1D17589   8.285  33.437  15.240 -0.0413  0.1579  0.3302
  733BOLB   C2D17590   8.638  33.613  15.468  0.0242 -0.2599 -0.2693
  733BOLB   C3D17591   9.016  33.863  15.364 -0.0204 -0.0546 -0.1814
  733BOLB   C4D17592   9.264  33.761  14.973  0.0267 -0.1333  0.0987
  734BOLB   NC117593   2.031   8.889   9.376 -0.3560  0.2602  0.2988
  734BOLB   PO117594   2.112   8.392   9.433 -0.0466 -0.1047 -0.1719
  734BOLB   GL117595   2.505   8.243   9.555 -0.3817  0.0801 -0.0137
  734BOLB   GL217596   2.381   8.128   9.951 -0.1390 -0.5016 -0.0253
  734BOLB   C1A17597   2.932   8.250   9.605  0.2295  0.3257 -0.3575
  734BOLB   C2A17598   3.285   8.147   9.623 -0.1157 -0.1904 -0.3102
  734BOLB   C3A17599   3.651   8.440   9.797  0.0585  0.0298  0.0401
  734BOLB   C4A17600   3.705   8.869  10.015 -0.1632 -0.1058 -0.0927
  734BOLB   C1B17601   2.702   8.194  10.013 -0.0835 -0.2540 -0.2143
  734BOLB   C2B17602   3.000   8.414  10.235  0.2279  0.0711  0.1994
  734BOLB   C3B17603   3.014   8.764  10.557 -0.2227 -0.0439 -0.1664
  734BOLB   C4B17604   3.034   8.908  10.980 -0.1668 -0.3667 -0.4320
  734BOLB   NC217605   1.542  10.197  10.069  0.1756  0.1032  0.0562
  734BOLB   PO217606   1.532   9.788  10.319  0.0599 -0.3188  0.0513
  734BOLB   GL317607   1.969   9.727  10.385  0.1155 -0.0641  0.0057
  734BOLB   GL417608   2.157   9.898  10.124  0.1276  0.0617  0.4767
  734BOLB   C1C17609   2.297   9.602  10.565  0.2795 -0.1070 -0.1213
  734BOLB   C2C17610   2.753   9.516  10.708 -0.0251  0.1500  0.3166
  734BOLB   C3C17611   3.107   9.318  10.626  0.1827  0.3235  0.1373
  734BOLB   C4C17612   3.465   9.174  10.355 -0.1326 -0.1609 -0.0376
  734BOLB   C1D17613   2.344  10.090  10.446  0.3685  0.0507 -0.2057
  734BOLB   C2D17614   2.497  10.435  10.537  0.1061 -0.2945  0.1475
  734BOLB   C3D17615   2.770  10.610  10.684  0.0563  0.0719  0.0241
  734BOLB   C4D17616   3.170  10.708  10.691 -0.1556 -0.0728  0.1496
  735BOLB   NC117617   8.628   8.565  18.304 -0.0258  0.2914 -0.0932
  735BOLB   PO117618   8.486   8.374  18.752  0.1837  0.1046 -0.0981
  735BOLB   GL117619   8.048   8.188  18.967 -0.1032 -0.0049 -0.1387
  735BOLB   GL217620   8.074   7.800  19.017 -0.1593  0.0132 -0.0468
  735BOLB   C1A17621   7.651   8.012  19.215 -0.0949 -0.1457 -0.0685
  735BOLB   C2A17622   7.231   7.836  19.036 -0.3812  0.1509 -0.1961
  735BOLB   C3A17623   6.953   7.629  18.806 -0.2468 -0.0356  0.2314
  735BOLB   C4A17624   6.518   7.618  19.042  0.2332  0.2550 -0.0045
  735BOLB   C1B17625   7.851   7.516  19.272 -0.0845 -0.2810  0.4117
  735BOLB   C2B17626   7.548   7.390  19.605 -0.2138 -0.0729 -0.1360
  735BOLB   C3B17627   7.178   7.459  19.755 -0.2313  0.1788  0.2002
  735BOLB   C4B17628   7.134   7.742  20.013 -0.0342  0.1129 -0.1776
  735BOLB   NC217629   4.372   8.982  19.226 -0.4047 -0.0132  0.1306
  735BOLB   PO217630   4.670   9.218  19.390 -0.1181  0.5495  0.1143
  735BOLB   GL317631   4.882   8.938  19.170 -0.1272  0.0028 -0.0986
  735BOLB   GL417632   4.766   8.876  18.941 -0.1352  0.1859  0.2965
  735BOLB   C1C17633   5.383   8.880  19.054 -0.0951  0.1125  0.1603
  735BOLB   C2C17634   5.595   8.614  19.143 -0.0784  0.0935  0.1847
  735BOLB   C3C17635   5.846   8.277  19.046 -0.2209 -0.0613 -0.0893
  735BOLB   C4C17636   6.170   7.982  19.120  0.0083  0.0938 -0.0278
  735BOLB   C1D17637   5.111   8.831  18.619  0.2802  0.1041  0.2479
  735BOLB   C2D17638   5.558   8.883  18.511 -0.1722 -0.3150 -0.1375
  735BOLB   C3D17639   5.918   9.041  18.341  0.1921  0.3197  0.1008
  735BOLB   C4D17640   6.320   8.916  18.485 -0.1974  0.0580  0.3016
  736BOLB   NC117641   0.625   6.744  15.035  0.0726  0.0800  0.1431
  736BOLB   PO117642   1.105   6.977  15.220  0.1852  0.2115 -0.1200
  736BOLB   GL117643   1.566   6.882  15.130  0.3004 -0.0208  0.0821
  736BOLB   GL217644   1.647   6.614  15.382 -0.0717 -0.0353  0.0597
  736BOLB   C1A17645   1.995   6.963  15.182  0.0317  0.3760 -0.1122
  736BOLB   C2A17646   2.385   7.163  14.966 -0.0326 -0.2840  0.1326
  736BOLB   C3A17647   2.580   7.179  14.612  0.0080 -0.1486 -0.4838
  736BOLB   C4A17648   2.449   7.082  14.127 -0.1668  0.0882  0.1751
  736BOLB   C1B17649   1.990   6.442  15.083 -0.0238 -0.3456  0.3265
  736BOLB   C2B17650   2.397   6.557  15.112  0.2822 -0.1311 -0.2479
  736BOLB   C3B17651   2.623   6.885  15.325  0.3245  0.0789 -0.0419
  736BOLB   C4B17652   2.921   7.157  15.146 -0.1882 -0.1616 -0.0983
  736BOLB   NC217653   1.097   8.619  13.529  0.1264  0.2549  0.0133
  736BOLB   PO217654   1.014   8.730  13.886 -0.1685 -0.0801 -0.2211
  736BOLB   GL317655   1.508   8.577  13.857  0.0236 -0.0181 -0.0021
  736BOLB   GL417656   1.795   8.767  13.904 -0.1795 -0.1324  0.0078
  736BOLB   C1C17657   1.767   8.507  13.474  0.3228  0.2269 -0.0580
  736BOLB   C2C17658   1.952   8.094  13.390  0.1083 -0.1842  0.1411
  736BOLB   C3C17659   2.297   7.852  13.626  0.0150 -0.4074 -0.2162
  736BOLB   C4C17660   2.366   7.388  13.757  0.1405  0.0127  0.0866
  736BOLB   C1D17661   2.223   8.687  14.005 -0.2704  0.1922 -0.2638
  736BOLB   C2D17662   2.651   8.318  13.984  0.2628 -0.1904  0.1844
  736BOLB   C3D17663   2.773   8.129  14.340 -0.1814  0.1273  0.2233
  736BOLB   C4D17664   3.070   7.922  14.598  0.0295  0.0212 -0.3643
  737BOLB   NC117665   0.694   5.596  15.991 -0.1716 -0.1365 -0.1245
  737BOLB   PO117666   1.068   5.311  15.840  0.2529  0.1897  0.0948
  737BOLB   GL117667   1.423   5.500  15.628 -0.0166 -0.0030  0.2310
  737BOLB   GL217668   1.588   5.640  15.324  0.0422 -0.1279 -0.0264
  737BOLB   C1A17669   1.875   5.405  15.809 -0.1592  0.0716 -0.2213
  737BOLB   C2A17670   2.231   5.257  15.865  0.1960  0.2316  0.2152
  737BOLB   C3A17671   2.685   5.367  15.906 -0.3379  0.0011  0.4095
  737BOLB   C4A17672   3.146   5.183  16.060  0.0364  0.1767  0.0138
  737BOLB   C1B17673   1.907   5.545  14.956 -0.1956  0.1435 -0.0630
  737BOLB   C2B17674   2.290   5.406  14.900 -0.1871  0.1152 -0.0948
  737BOLB   C3B17675   2.647   5.438  14.788  0.0174 -0.1375 -0.2020
  737BOLB   C4B17676   3.007   5.454  14.513  0.0620 -0.3483  0.2548
  737BOLB   NC217677   2.194   5.092  17.521 -0.2595 -0.2257  0.4818
  737BOLB   PO217678   2.603   5.002  17.571  0.0706  0.2556  0.1056
  737BOLB   GL317679   3.029   4.835  17.619 -0.2198 -0.3081  0.1028
  737BOLB   GL417680   3.229   4.841  17.984  0.0547 -0.1473 -0.3697
  737BOLB   C1C17681   3.110   4.781  17.146 -0.1694  0.0926  0.0006
  737BOLB   C2C17682   3.466   4.687  16.953  0.0172 -0.1032 -0.1567
  737BOLB   C3C17683   3.570   5.061  16.729  0.1837  0.4471  0.1538
  737BOLB   C4C17684   3.509   5.056  16.369 -0.2970  0.5586 -0.0871
  737BOLB   C1D17685   3.531   5.164  17.874  0.1258 -0.2494  0.0760
  737BOLB   C2D17686   3.579   5.551  17.806 -0.1458 -0.2639  0.1984
  737BOLB   C3D17687   3.758   5.767  17.448  0.0867 -0.1449 -0.3487
  737BOLB   C4D17688   4.012   6.012  17.082  0.0130 -0.0950 -0.0347
  738BOLB   NC117689   2.710  13.261   8.479 -0.1454  0.1212 -0.1348
  738BOLB   PO117690   2.885  13.657   8.496  0.0291  0.0338  0.0400
  738BOLB   GL117691   3.196  13.356   8.650  0.2881 -0.0190  0.3475
  738BOLB   GL217692   3.046  13.130   8.888 -0.0899  0.4891 -0.3592
  738BOLB   C1A17693   3.497  13.036   8.753  0.1270  0.1683 -0.4430
  738BOLB   C2A17694   3.809  13.080   9.094 -0.0866 -0.0075 -0.0897
  738BOLB   C3A17695   4.069  12.970   9.437 -0.1370  0.4470  0.1470
  738BOLB   C4A17696   4.469  12.683   9.384 -0.1801  0.1141  0.1754
  738BOLB   C1B17697   3.186  12.639   8.884  0.0730 -0.2199  0.0899
  738BOLB   C2B17698   3.616  12.556   8.922 -0.0814 -0.0546  0.6224
  738BOLB   C3B17699   4.043  12.764   8.845 -0.1503  0.1212 -0.3346
  738BOLB   C4B17700   4.481  12.717   8.895 -0.0543  0.3068 -0.1070
  738BOLB   NC217701   3.846  13.870   9.104 -0.2488  0.1340  0.0448
  738BOLB   PO217702   4.128  14.109   8.921 -0.1920 -0.4195  0.3816
  738BOLB   GL317703   4.462  13.799   8.849  0.2111 -0.0034  0.1169
  738BOLB   GL417704   4.637  13.642   9.101  0.4197  0.2738 -0.2377
  738BOLB   C1C17705   4.589  13.415   8.675  0.3908  0.0753  0.2117
  738BOLB   C2C17706   4.777  13.062   8.776 -0.1768  0.2310 -0.1363
  738BOLB   C3C17707   5.009  12.774   8.967 -0.1288 -0.3798 -0.1291
  738BOLB   C4C17708   4.822  12.637   9.294  0.2919  0.2325  0.0326
  738BOLB   C1D17709   4.987  13.418   9.106  0.2247 -0.4200 -0.0827
  738BOLB   C2D17710   5.315  13.214   9.011  0.1298 -0.1542  0.2128
  738BOLB   C3D17711   5.545  12.837   9.147  0.0702 -0.2413  0.0872
  738BOLB   C4D17712   5.551  12.425   9.285  0.0100 -0.2541  0.0530
  739BOLB   NC117713   9.016  11.659  14.031  0.3166  0.0222  0.1800
  739BOLB   PO117714   8.658  11.632  13.889  0.1447  0.1785  0.5307
  739BOLB   GL117715   8.203  11.645  13.833 -0.0527 -0.2145 -0.0421
  739BOLB   GL217716   8.097  11.334  13.533 -0.2549 -0.1364  0.0635
  739BOLB   C1A17717   7.887  11.703  13.661  0.0964  0.0765 -0.0699
  739BOLB   C2A17718   7.484  11.854  13.575 -0.1866  0.0295  0.1274
  739BOLB   C3A17719   7.212  12.151  13.869  0.1812 -0.0818  0.1598
  739BOLB   C4A17720   6.861  12.298  14.032 -0.1279  0.0409 -0.1166
  739BOLB   C1B17721   7.794  11.203  13.154 -0.4276  0.1360  0.1663
  739BOLB   C2B17722   7.471  11.500  12.891  0.1793  0.2497 -0.3503
  739BOLB   C3B17723   7.289  11.766  13.070  0.2147  0.1112  0.0369
  739BOLB   C4B17724   6.963  11.900  13.382  0.0380  0.0118  0.0291
  739BOLB   NC217725   5.100  14.159  12.963 -0.1236  0.0297 -0.1560
  739BOLB   PO217726   5.363  13.853  13.185 -0.0289  0.0589  0.1229
  739BOLB   GL317727   5.519  13.495  13.423 -0.4364  0.4429 -0.4760
  739BOLB   GL417728   5.529  13.278  13.182  0.0087 -0.0287 -0.2923
  739BOLB   C1C17729   5.876  13.240  13.579 -0.3150  0.1347 -0.3080
  739BOLB   C2C17730   6.267  12.969  13.569  0.0695 -0.0246 -0.1986
  739BOLB   C3C17731   6.325  12.517  13.675  0.0628  0.0422 -0.1014
  739BOLB   C4C17732   6.501  12.282  13.932 -0.2661  0.1548 -0.1324
  739BOLB   C1D17733   5.698  12.823  13.352 -0.0413  0.0874  0.3417
  739BOLB   C2D17734   6.040  12.514  13.196  0.0768 -0.0240 -0.6919
  739BOLB   C3D17735   6.418  12.468  13.087 -0.4159  0.0569 -0.0393
  739BOLB   C4D17736   6.853  12.653  13.038  0.2238  0.0186  0.2275
  740BOLB   NC117737  12.141   4.028  15.302 -0.0371  0.1141  0.1016
  740BOLB   PO117738  12.492   3.717  15.231 -0.1376  0.1423  0.0976
  740BOLB   GL117739  12.255   3.529  14.893  0.2708  0.2190 -0.0717
  740BOLB   GL217740  11.905   3.752  14.968 -0.0723 -0.2121 -0.0449
  740BOLB   C1A17741  11.915   3.418  14.573  0.1622  0.1269 -0.1105
  740BOLB   C2A17742  11.577   3.346  14.212  0.2285 -0.1576 -0.2044
  740BOLB   C3A17743  11.477   3.035  14.089 -0.0919 -0.1280  0.2424
  740BOLB   C4A17744  11.692   2.798  13.704  0.2721 -0.0666 -0.0855
  740BOLB   C1B17745  11.552   3.799  14.518  0.1813  0.0169  0.0643
  740BOLB   C2B17746  11.137   3.639  14.196  0.0336  0.4748  0.2022
  740BOLB   C3B17747  11.049   3.633  13.749 -0.2550  0.1730 -0.0554
  740BOLB   C4B17748  10.853   3.894  13.439  0.1357 -0.1808  0.2017
  740BOLB   NC217749  13.314   3.884  14.786  0.1596 -0.0484 -0.1992
  740BOLB   PO217750  13.438   3.630  14.991 -0.0371  0.2271  0.2315
  740BOLB   GL317751  13.185   3.319  14.688  0.1281  0.0715 -0.0230
  740BOLB   GL417752  13.327   3.045  14.554  0.0784  0.0871 -0.3005
  740BOLB   C1C17753  12.858   3.076  14.434 -0.0702 -0.2848 -0.3794
  740BOLB   C2C17754  12.554   2.647  14.325 -0.3476 -0.1479 -0.1339
  740BOLB   C3C17755  12.234   2.437  14.233  0.1254 -0.0882 -0.1454
  740BOLB   C4C17756  12.065   2.696  13.943  0.0600  0.0024  0.3998
  740BOLB   C1D17757  13.424   2.582  14.762 -0.0638  0.2911  0.0484
  740BOLB   C2D17758  13.400   2.224  14.564  0.0641 -0.3058 -0.1212
  740BOLB   C3D17759  13.085   1.996  14.532 -0.2533 -0.0348  0.2807
  740BOLB   C4D17760  12.809   1.624  14.585 -0.2701  0.0629  0.0582
  741BOLB   NC117761  16.059   5.061  21.633 -0.1139 -0.4181 -0.0999
  741BOLB   PO117762  16.511   5.003  21.551 -0.0695  0.2705 -0.1745
  741BOLB   GL117763  16.460   4.853  21.926 -0.1134 -0.1656  0.0093
  741BOLB   GL217764  16.270   5.051  22.150 -0.1211  0.2244 -0.0618
  741BOLB   C1A17765  16.640   4.649  22.294  0.2226 -0.2014 -0.2534
  741BOLB   C2A17766  16.901   4.518  22.505 -0.2666 -0.3722 -0.1442
  741BOLB   C3A17767  17.066   4.141  22.743 -0.0218 -0.1350 -0.0058
  741BOLB   C4A17768  17.201   3.875  23.059 -0.0629  0.1766  0.0034
  741BOLB   C1B17769  16.303   4.924  22.568 -0.0081  0.0755 -0.2265
  741BOLB   C2B17770  16.109   4.768  22.937 -0.0017 -0.4073 -0.0279
  741BOLB   C3B17771  16.301   4.468  23.236 -0.1251  0.0888  0.0365
  741BOLB   C4B17772  16.294   3.982  23.404 -0.4114 -0.0554  0.0909
  741BOLB   NC217773  17.882   2.515  25.285  0.0128  0.0961  0.0363
  741BOLB   PO217774  18.275   2.555  25.312 -0.1139 -0.0403  0.0819
  741BOLB   GL317775  18.147   2.894  24.844  0.0249 -0.2712  0.2990
  741BOLB   GL417776  18.440   3.005  24.773 -0.1751 -0.1162 -0.1482
  741BOLB   C1C17777  17.912   3.289  24.631 -0.0774  0.1604  0.2491
  741BOLB   C2C17778  17.629   3.468  24.385 -0.2484  0.1146 -0.2941
  741BOLB   C3C17779  17.428   3.592  23.957 -0.0207 -0.0006  0.3383
  741BOLB   C4C17780  17.348   3.800  23.519 -0.1900  0.0884  0.0248
  741BOLB   C1D17781  18.423   3.348  24.398 -0.1027  0.2208  0.3598
  741BOLB   C2D17782  18.126   3.665  24.309 -0.0678 -0.1546 -0.1386
  741BOLB   C3D17783  17.883   3.926  24.372 -0.3557 -0.0523 -0.2036
  741BOLB   C4D17784  17.950   4.292  24.129 -0.1443 -0.0597  0.2391
  742BOLB   NC117785  17.989   4.577   1.965  0.2733  0.0307 -0.0400
  742BOLB   PO117786  18.168   5.031   2.040  0.3219  0.0553  0.0230
  742BOLB   GL117787  17.819   5.025   2.248 -0.2007 -0.2740 -0.0066
  742BOLB   GL217788  17.987   5.116   2.526  0.0060  0.1998 -0.1287
  742BOLB   C1A17789  17.406   5.233   2.116 -0.1280  0.2236  0.1574
  742BOLB   C2A17790  17.080   5.022   1.970 -0.1740  0.0500 -0.0318
  742BOLB   C3A17791  16.725   5.211   1.944  0.3435  0.3784  0.0994
  742BOLB   C4A17792  16.304   5.253   1.737  0.0137  0.1425  0.3347
  742BOLB   C1B17793  17.775   5.036   2.844 -0.0568 -0.0552  0.1141
  742BOLB   C2B17794  17.516   4.775   2.984  0.3234  0.1952 -0.2379
  742BOLB   C3B17795  17.458   4.643   3.319  0.4187 -0.2835 -0.1668
  742BOLB   C4B17796  17.074   4.677   3.567  0.1800  0.0734 -0.3801
  742BOLB   NC217797  15.074   6.894   0.832  0.3097  0.1211  0.2951
  742BOLB   PO217798  15.560   6.922   0.697 -0.3008 -0.0335  0.1367
  742BOLB   GL317799  15.494   6.985   1.138 -0.3770 -0.0110  0.0140
  742BOLB   GL417800  15.752   7.100   1.236 -0.2984  0.2980  0.1661
  742BOLB   C1C17801  15.276   6.684   1.388 -0.2290  0.4888  0.1782
  742BOLB   C2C17802  15.349   6.212   1.479 -0.4857 -0.2895 -0.1140
  742BOLB   C3C17803  15.712   5.886   1.545  0.2518 -0.0683 -0.2538
  742BOLB   C4C17804  15.945   5.518   1.691  0.1354  0.3204 -0.2303
  742BOLB   C1D17805  15.721   6.923   1.710  0.0259 -0.0383 -0.4212
  742BOLB   C2D17806  15.578   6.872   2.148 -0.4114 -0.2460 -0.1032
  742BOLB   C3D17807  15.532   6.570   2.490  0.2748 -0.3660  0.0608
  742BOLB   C4D17808  15.570   6.185   2.865  0.2795 -0.2319  0.0901
  743BOLB   NC117809  23.471  13.985  13.823 -0.1150 -0.0507  0.1418
  743BOLB   PO117810  23.347  14.359  13.603  0.0123 -0.0806 -0.1759
  743BOLB   GL117811  23.525  14.532  13.242 -0.0963 -0.2005 -0.1917
  743BOLB   GL217812  23.373  14.364  12.975 -0.0040  0.0689  0.3355
  743BOLB   C1A17813  23.721  14.811  13.067  0.0228 -0.0353  0.0954
  743BOLB   C2A17814  23.886  15.126  12.814 -0.1955  0.0151  0.1862
  743BOLB   C3A17815  24.223  15.247  12.563 -0.2040  0.1551 -0.0226
  743BOLB   C4A17816  24.552  15.147  12.428 -0.2314 -0.0277 -0.0284
  743BOLB   C1B17817  23.610  14.513  12.660  0.0203  0.1338  0.2827
  743BOLB   C2B17818  23.920  14.520  12.695 -0.0297 -0.0102  0.3130
  743BOLB   C3B17819  24.135  14.786  12.553 -0.0044 -0.1436 -0.0049
  743BOLB   C4B17820  24.285  14.806  12.172 -0.0875 -0.0103 -0.2111
  743BOLB   NC217821  25.736  15.618   9.944  0.3031 -0.2094 -0.0876
  743BOLB   PO217822  25.670  15.565  10.375 -0.2295 -0.0653  0.2746
  743BOLB   GL317823  25.376  15.412  10.677  0.1970  0.1812  0.1756
  743BOLB   GL417824  25.196  15.319  10.462 -0.0632  0.2229 -0.0115
  743BOLB   C1C17825  25.274  15.587  11.093  0.0835 -0.0504 -0.0502
  743BOLB   C2C17826  25.136  15.552  11.505  0.2401 -0.4603  0.0988
  743BOLB   C3C17827  24.955  15.277  11.777  0.1509 -0.0633  0.1330
  743BOLB   C4C17828  24.933  15.221  12.288  0.3941 -0.0905  0.1797
  743BOLB   C1D17829  24.875  15.289  10.719 -0.0289  0.0007  0.0164
  743BOLB   C2D17830  24.538  15.120  10.908  0.0259  0.0105 -0.2960
  743BOLB   C3D17831  24.360  14.719  11.032 -0.1142 -0.3756  0.0412
  743BOLB   C4D17832  24.007  14.597  11.146 -0.2055  0.2725 -0.0759
  744BOLB   NC117833  17.485   5.765   1.241  0.3421  0.3258  0.0263
  744BOLB   PO117834  17.611   6.158   1.266 -0.0993  0.1333  0.0465
  744BOLB   GL117835  17.442   5.990   1.706  0.1509  0.0236 -0.0205
  744BOLB   GL217836  17.677   6.174   1.957  0.0413 -0.2122 -0.2844
  744BOLB   C1A17837  17.044   5.836   1.884  0.0516  0.4803  0.0906
  744BOLB   C2A17838  16.978   5.546   2.154 -0.0620 -0.0968 -0.3019
  744BOLB   C3A17839  16.983   5.628   2.517  0.0953  0.0657 -0.0119
  744BOLB   C4A17840  17.133   6.056   2.702 -0.0841  0.0962  0.1296
  744BOLB   C1B17841  17.285   6.194   2.239  0.1355  0.1318 -0.3874
  744BOLB   C2B17842  16.824   6.152   2.297 -0.1653  0.2519 -0.0104
  744BOLB   C3B17843  16.671   6.017   2.608 -0.1019  0.3535  0.0023
  744BOLB   C4B17844  16.390   5.836   2.854  0.4089  0.0418 -0.0923
  744BOLB   NC217845  17.837   7.830   2.050 -0.4628  0.0844 -0.1616
  744BOLB   PO217846  18.248   7.923   2.401 -0.1196  0.0072 -0.0116
  744BOLB   GL317847  18.201   7.502   2.577  0.0699  0.0377  0.1013
  744BOLB   GL417848  18.015   7.404   2.311 -0.0424  0.0161 -0.0878
  744BOLB   C1C17849  18.069   7.284   3.008  0.2461 -0.0740 -0.0901
  744BOLB   C2C17850  17.654   7.036   3.078  0.0915  0.1172 -0.1106
  744BOLB   C3C17851  17.297   6.812   2.928  0.3342  0.1465 -0.0394
  744BOLB   C4C17852  17.114   6.488   2.640 -0.2365  0.1567 -0.0390
  744BOLB   C1D17853  17.585   7.297   2.547  0.0349  0.1369 -0.1139
  744BOLB   C2D17854  17.464   7.477   2.993 -0.1723 -0.1737 -0.1615
  744BOLB   C3D17855  17.231   7.560   3.382  0.1827  0.1617  0.2664
  744BOLB   C4D17856  16.954   7.395   3.735 -0.1461 -0.2650  0.0981
  745BOLB   NC117857   9.512  11.887  19.870  0.2593 -0.1610 -0.3047
  745BOLB   PO117858   9.449  11.419  19.902  0.0634  0.0060 -0.2247
  745BOLB   GL117859   9.013  11.496  19.957  0.0226 -0.2564 -0.0841
  745BOLB   GL217860   8.991  11.806  19.874 -0.0351  0.2433  0.3523
  745BOLB   C1A17861   8.775  11.613  20.269  0.0879  0.2829  0.1817
  745BOLB   C2A17862   8.443  11.795  20.474  0.3243 -0.0432  0.1474
  745BOLB   C3A17863   8.144  11.801  20.900  0.0797 -0.1234 -0.2823
  745BOLB   C4A17864   7.843  11.632  21.127  0.0846 -0.1331  0.0001
  745BOLB   C1B17865   8.716  12.090  20.131 -0.3719 -0.0175 -0.0304
  745BOLB   C2B17866   8.575  12.254  20.582  0.1734  0.1290  0.0960
  745BOLB   C3B17867   8.199  12.330  20.884  0.1504  0.2046 -0.2732
  745BOLB   C4B17868   7.936  12.131  21.180  0.1566  0.1902  0.1286
  745BOLB   NC217869   6.559  11.414  23.187 -0.0687  0.4954 -0.1304
  745BOLB   PO217870   6.480  11.730  22.905 -0.2530 -0.1034  0.0627
  745BOLB   GL317871   6.817  11.464  22.592  0.1148  0.0246 -0.0211
  745BOLB   GL417872   6.949  11.789  22.333 -0.0020  0.0272  0.0763
  745BOLB   C1C17873   7.291  11.495  22.726 -0.2090 -0.0419 -0.0056
  745BOLB   C2C17874   7.550  11.752  22.433 -0.3615  0.1632  0.1332
  745BOLB   C3C17875   7.692  11.675  21.934  0.4485 -0.1562  0.2825
  745BOLB   C4C17876   7.683  11.796  21.479  0.0089  0.2750 -0.0933
  745BOLB   C1D17877   7.166  11.408  22.225 -0.2250  0.1372  0.1339
  745BOLB   C2D17878   7.568  11.221  22.163 -0.0247 -0.0537 -0.2332
  745BOLB   C3D17879   7.772  10.833  21.965  0.0281 -0.1769  0.2198
  745BOLB   C4D17880   7.952  10.752  21.625 -0.0938  0.2404  0.0571
  746BOLB   NC117881  12.959   4.959  20.726  0.0350 -0.0496  0.0600
  746BOLB   PO117882  12.900   4.711  21.038 -0.0466  0.1865 -0.0464
  746BOLB   GL117883  12.795   4.769  21.493  0.1527 -0.3273  0.1593
  746BOLB   GL217884  12.629   5.115  21.570 -0.1190 -0.1549 -0.0652
  746BOLB   C1A17885  12.697   4.497  21.900  0.1045  0.3754 -0.1167
  746BOLB   C2A17886  12.610   4.177  22.130 -0.0967  0.2802 -0.2866
  746BOLB   C3A17887  12.432   3.955  22.392  0.0900 -0.0239 -0.0283
  746BOLB   C4A17888  12.339   3.674  22.713  0.0293  0.0084 -0.2894
  746BOLB   C1B17889  12.550   5.012  21.943 -0.0936  0.1308 -0.1825
  746BOLB   C2B17890  12.362   4.637  22.264  0.2705  0.4387  0.1657
  746BOLB   C3B17891  12.397   4.445  22.587  0.2465  0.3181  0.1608
  746BOLB   C4B17892  12.084   4.134  22.805  0.2898  0.3240 -0.1247
  746BOLB   NC217893  12.128   2.240  24.527  0.3237 -0.4439  0.0984
  746BOLB   PO217894  11.869   2.538  24.263  0.0515  0.0755  0.0778
  746BOLB   GL317895  12.335   2.683  24.377 -0.3879  0.0205  0.0413
  746BOLB   GL417896  12.678   2.659  24.210  0.0768  0.0108  0.1378
  746BOLB   C1C17897  12.527   3.102  24.202 -0.0414  0.0908 -0.1464
  746BOLB   C2C17898  12.565   3.511  23.829 -0.1571  0.3061 -0.0617
  746BOLB   C3C17899  12.422   3.608  23.458 -0.0350  0.1375 -0.3741
  746BOLB   C4C17900  12.331   3.853  23.177 -0.0542 -0.1409 -0.1657
  746BOLB   C1D17901  12.832   2.906  23.855  0.1566  0.1454  0.0544
  746BOLB   C2D17902  13.029   2.827  23.372  0.4194  0.0212  0.0945
  746BOLB   C3D17903  13.099   2.993  22.894 -0.1285  0.2094  0.0242
  746BOLB   C4D17904  13.227   3.255  22.753 -0.1826 -0.0739  0.2634
  747BOLB   NC117905  24.024  14.421  17.589 -0.2413  0.2778 -0.2075
  747BOLB   PO117906  23.932  14.223  17.913  0.0482 -0.1704  0.0586
  747BOLB   GL117907  24.246  14.413  18.193 -0.0287 -0.1415  0.2452
  747BOLB   GL217908  24.233  14.658  18.357  0.1015  0.2597  0.0461
  747BOLB   C1A17909  24.694  14.618  18.339 -0.4158  0.1930 -0.2368
  747BOLB   C2A17910  25.008  14.690  18.616 -0.1147  0.0484 -0.2465
  747BOLB   C3A17911  25.216  15.073  18.742 -0.2630 -0.2385  0.0584
  747BOLB   C4A17912  25.414  15.433  18.952  0.0330  0.0304 -0.0027
  747BOLB   C1B17913  24.328  15.063  18.499  0.1238  0.0167 -0.1132
  747BOLB   C2B17914  24.355  15.519  18.745 -0.1147 -0.0814  0.3249
  747BOLB   C3B17915  24.179  15.679  19.120  0.0134  0.1275  0.0227
  747BOLB   C4B17916  23.923  15.838  19.483  0.0926 -0.0321 -0.2394
  747BOLB   NC217917  26.394  16.597  20.498 -0.3016  0.1600 -0.3087
  747BOLB   PO217918  25.983  16.624  20.719 -0.1742 -0.0640 -0.0662
  747BOLB   GL317919  25.647  16.440  20.658  0.0870  0.1323 -0.0615
  747BOLB   GL417920  25.411  16.436  20.925  0.3086 -0.0585 -0.0322
  747BOLB   C1C17921  25.637  16.046  20.421 -0.2160  0.1828  0.1285
  747BOLB   C2C17922  25.778  15.854  20.036 -0.2054 -0.0675  0.2095
  747BOLB   C3C17923  25.964  15.721  19.591  0.0049 -0.5172  0.1654
  747BOLB   C4C17924  25.750  15.671  19.189 -0.1122  0.1951 -0.2210
  747BOLB   C1D17925  25.264  15.981  20.714  0.2370 -0.5537  0.0486
  747BOLB   C2D17926  25.237  15.715  20.457 -0.0987 -0.0073 -0.0234
  747BOLB   C3D17927  24.945  15.459  20.348  0.2183  0.3867 -0.2128
  747BOLB   C4D17928  24.538  15.525  20.294  0.3489  0.1264  0.1113
  748BOLB   NC117929   4.224   0.956   9.947  0.0417 -0.2632  0.2435
  748BOLB   PO117930   4.040   1.100  10.357 -0.1105 -0.3412 -0.1694
  748BOLB   GL117931   4.357   0.971  10.419 -0.0694 -0.1674  0.1574
  748BOLB   GL217932   4.402   0.788  10.682 -0.2841  0.0387 -0.1546
  748BOLB   C1A17933   4.802   0.991  10.306  0.1854  0.4420 -0.0705
  748BOLB   C2A17934   5.157   1.027  10.373 -0.3135 -0.2730 -0.2179
  748BOLB   C3A17935   5.447   1.112  10.715 -0.3678  0.0076 -0.2299
  748BOLB   C4A17936   5.590   0.933  11.133 -0.1950  0.2747  0.1699
  748BOLB   C1B17937   4.711   1.039  10.771  0.0028 -0.2411  0.2935
  748BOLB   C2B17938   5.050   1.115  11.070  0.0922  0.3311 -0.0575
  748BOLB   C3B17939   5.273   1.131  11.449 -0.0672  0.0095  0.1805
  748BOLB   C4B17940   5.551   0.973  11.778  0.0395 -0.1008  0.2080
  748BOLB   NC217941   5.062  -1.238  10.133  0.3196  0.4033  0.0613
  748BOLB   PO217942   5.210  -0.840  10.370  0.0247 -0.2771  0.2065
  748BOLB   GL317943   5.415  -0.582  10.529  0.0939  0.0293  0.1401
  748BOLB   GL417944   5.670  -0.373  10.451  0.0174 -0.3571 -0.1527
  748BOLB   C1C17945   5.621  -0.268  10.920  0.1581 -0.2912 -0.0442
  748BOLB   C2C17946   5.718  -0.162  11.398  0.1785  0.0318  0.0843
  748BOLB   C3C17947   5.815   0.190  11.541 -0.1862 -0.0893 -0.4013
  748BOLB   C4C17948   5.667   0.595  11.392  0.3155  0.0240 -0.0017
  748BOLB   C1D17949   6.114  -0.297  10.475 -0.1037  0.0125 -0.1980
  748BOLB   C2D17950   6.615  -0.235  10.549  0.0763  0.1938 -0.3118
  748BOLB   C3D17951   6.990  -0.189  10.814 -0.1879  0.0346 -0.2552
  748BOLB   C4D17952   7.468  -0.257  10.878  0.1206 -0.1216  0.1951
  749BOLB   NC117953  21.736  17.292  24.204 -0.0543  0.2937 -0.0360
  749BOLB   PO117954  22.027  17.597  23.982  0.3486  0.4330  0.1851
  749BOLB   GL117955  21.770  17.503  23.735 -0.0155  0.1958  0.1976
  749BOLB   GL217956  21.461  17.639  23.832 -0.0104  0.0899  0.1356
  749BOLB   C1A17957  21.537  17.334  23.375  0.2397 -0.1667  0.1949
  749BOLB   C2A17958  21.199  17.152  23.380 -0.1527 -0.1932  0.0633
  749BOLB   C3A17959  21.088  16.642  23.240  0.0013 -0.3914  0.1251
  749BOLB   C4A17960  20.703  16.711  22.864 -0.0564  0.1662 -0.0599
  749BOLB   C1B17961  21.109  17.307  23.867 -0.2607  0.3190 -0.4281
  749BOLB   C2B17962  20.871  16.964  23.633  0.2808  0.1466  0.0632
  749BOLB   C3B17963  20.577  16.651  23.683 -0.6274  0.2463  0.3280
  749BOLB   C4B17964  20.336  16.310  23.630 -0.2142  0.0277  0.0909
  749BOLB   NC217965  20.444  15.599  21.154 -0.3366 -0.3101 -0.1673
  749BOLB   PO217966  20.104  15.337  21.374 -0.0476  0.1675 -0.2291
  749BOLB   GL317967  20.362  15.645  21.640  0.1934 -0.0418  0.1584
  749BOLB   GL417968  20.671  15.596  21.705 -0.2752  0.1551 -0.0793
  749BOLB   C1C17969  20.465  15.992  21.933 -0.0888 -0.0169  0.1777
  749BOLB   C2C17970  20.753  16.297  21.877  0.0193  0.1616 -0.3401
  749BOLB   C3C17971  20.783  16.662  22.169  0.0047  0.2743  0.0196
  749BOLB   C4C17972  20.509  16.814  22.539 -0.0565 -0.2490  0.1013
  749BOLB   C1D17973  21.035  15.907  21.909 -0.0566 -0.0401 -0.1395
  749BOLB   C2D17974  21.177  16.170  22.181  0.0037  0.0071  0.1025
  749BOLB   C3D17975  21.159  15.958  22.476  0.4058  0.0433 -0.1855
  749BOLB   C4D17976  20.876  15.842  22.722 -0.1314 -0.0522  0.2404
  750BOLB   NC117977   8.294   2.606   4.079  0.2195 -0.3384  0.1362
  750BOLB   PO117978   8.254   2.930   4.510 -0.0417 -0.0490  0.0123
  750BOLB   GL117979   8.654   3.017   4.774  0.4518  0.1097  0.0132
  750BOLB   GL217980   8.873   3.174   4.821  0.1866  0.0600 -0.2634
  750BOLB   C1A17981   8.919   2.726   5.142 -0.2402  0.3214  0.2083
  750BOLB   C2A17982   8.945   2.858   5.502  0.0413  0.3523  0.1577
  750BOLB   C3A17983   8.909   3.034   5.930 -0.0196 -0.0839  0.1340
  750BOLB   C4A17984   8.830   3.382   6.205 -0.0573  0.1299  0.4054
  750BOLB   C1B17985   9.322   3.330   4.700 -0.2343  0.1388 -0.1552
  750BOLB   C2B17986   9.662   3.563   4.931 -0.2849 -0.4596  0.1692
  750BOLB   C3B17987  10.014   3.559   5.203 -0.0155  0.0640 -0.0852
  750BOLB   C4B17988  10.210   3.224   5.284  0.2025  0.2117  0.2853
  750BOLB   NC217989   8.082   3.802   4.090 -0.6293 -0.2307  0.1423
  750BOLB   PO217990   7.677   3.760   4.228 -0.2134  0.1015  0.0471
  750BOLB   GL317991   7.891   3.745   4.561  0.0210  0.1639  0.3756
  750BOLB   GL417992   8.121   3.616   4.666 -0.2954 -0.1040 -0.1942
  750BOLB   C1C17993   7.925   3.830   5.085 -0.1828  0.1763  0.0118
  750BOLB   C2C17994   8.236   3.584   5.438  0.0274 -0.2822 -0.0481
  750BOLB   C3C17995   8.147   3.617   5.852  0.0308 -0.0750 -0.0977
  750BOLB   C4C17996   8.392   3.515   6.205 -0.1170 -0.0264 -0.0851
  750BOLB   C1D17997   8.486   3.487   4.844  0.0490 -0.1774 -0.1889
  750BOLB   C2D17998   8.959   3.649   4.829 -0.1698 -0.0840  0.0470
  750BOLB   C3D17999   9.257   3.654   5.225 -0.0905 -0.0220  0.0279
  750BOLB   C4D18000   9.265   3.788   5.562 -0.2195  0.6568  0.0914
  751BOLB   NC118001  11.650  34.688   5.769 -0.1878 -0.3317 -0.0260
  751BOLB   PO118002  11.571  35.123   5.668 -0.1756 -0.0726  0.0921
  751BOLB   GL118003  11.875  35.110   5.987  0.3177  0.0201  0.0379
  751BOLB   GL218004  12.293  35.125   6.008 -0.1489  0.2699  0.3850
  751BOLB   C1A18005  11.898  35.275   6.386  0.2903  0.1129  0.1418
  751BOLB   C2A18006  12.214  35.557   6.497 -0.0551  0.1101  0.0301
  751BOLB   C3A18007  12.443  35.655   6.917 -0.3539 -0.0602 -0.1120
  751BOLB   C4A18008  12.852  35.615   7.160  0.3975 -0.0227 -0.4835
  751BOLB   C1B18009  12.585  35.259   6.246 -0.0300  0.0768 -0.0708
  751BOLB   C2B18010  12.795  35.552   6.488 -0.2155 -0.3317 -0.0422
  751BOLB   C3B18011  13.174  35.803   6.603  0.0073  0.0241 -0.0927
  751BOLB   C4B18012  13.335  35.957   6.949 -0.0394  0.0446 -0.0965
  751BOLB   NC218013  12.756  33.324   6.304 -0.2460 -0.0102 -0.0626
  751BOLB   PO218014  12.988  33.435   6.707  0.0368 -0.1510 -0.1066
  751BOLB   GL318015  13.099  33.616   7.109 -0.4166 -0.1517  0.0895
  751BOLB   GL418016  13.330  33.606   7.400  0.0342 -0.1273 -0.1435
  751BOLB   C1C18017  13.125  34.020   7.176 -0.2751 -0.1208  0.3736
  751BOLB   C2C18018  13.179  34.369   7.473 -0.1499 -0.0491  0.2539
  751BOLB   C3C18019  12.924  34.774   7.463 -0.2436 -0.1392  0.4060
  751BOLB   C4C18020  13.003  35.183   7.275  0.2106 -0.1930 -0.1046
  751BOLB   C1D18021  13.632  33.940   7.427 -0.2352 -0.3375 -0.1429
  751BOLB   C2D18022  13.977  33.936   7.717 -0.2090 -0.2646 -0.0977
  751BOLB   C3D18023  14.256  33.731   8.011 -0.1340  0.2678 -0.2311
  751BOLB   C4D18024  14.447  33.421   8.253  0.0395 -0.2240  0.3857
  752BOLB   NC118025   6.053   7.918   3.502  0.0601  0.0062  0.3895
  752BOLB   PO118026   6.420   7.569   3.704  0.2194 -0.0135  0.2821
  752BOLB   GL118027   6.753   7.577   3.903  0.2310 -0.0283  0.2569
  752BOLB   GL218028   6.803   7.916   4.128 -0.3600 -0.0942  0.0773
  752BOLB   C1A18029   7.007   7.537   4.248 -0.1425 -0.1701 -0.4221
  752BOLB   C2A18030   7.031   7.537   4.713  0.1887 -0.0673  0.0223
  752BOLB   C3A18031   7.024   7.161   4.853  0.2999  0.2362  0.0017
  752BOLB   C4A18032   7.225   7.107   5.328 -0.2424 -0.0178  0.2522
  752BOLB   C1B18033   7.122   8.006   4.404  0.0667  0.2055  0.0088
  752BOLB   C2B18034   7.365   7.973   4.672  0.3330  0.1974  0.2061
  752BOLB   C3B18035   7.736   7.926   4.926 -0.0722 -0.2267 -0.1596
  752BOLB   C4B18036   8.219   8.089   5.185  0.1317 -0.2308 -0.1043
  752BOLB   NC218037   4.792   7.813   4.869  0.2832 -0.0368 -0.1489
  752BOLB   PO218038   4.984   7.390   5.030  0.3616 -0.2262  0.4447
  752BOLB   GL318039   5.384   7.654   5.000 -0.0195 -0.0352  0.1021
  752BOLB   GL418040   5.372   7.888   5.164 -0.1551 -0.3473 -0.2692
  752BOLB   C1C18041   5.828   7.588   5.200  0.0228  0.2817 -0.2469
  752BOLB   C2C18042   6.192   7.700   5.433  0.2592 -0.0308  0.0437
  752BOLB   C3C18043   6.517   7.427   5.659  0.2674 -0.2341 -0.2516
  752BOLB   C4C18044   6.993   7.264   5.660 -0.2080 -0.1815  0.1963
  752BOLB   C1D18045   5.491   7.739   5.469  0.0567  0.1440  0.0652
  752BOLB   C2D18046   5.778   7.667   5.807  0.0604 -0.3284 -0.2894
  752BOLB   C3D18047   6.150   7.691   5.924 -0.1067 -0.1523 -0.1648
  752BOLB   C4D18048   6.574   7.611   6.128 -0.3839 -0.1483  0.1553
  753BOLB   NC118049  18.589  33.486  15.349 -0.0942  0.0086  0.0338
  753BOLB   PO118050  18.308  33.742  15.288 -0.0661 -0.2855 -0.1261
  753BOLB   GL118051  18.300  34.072  15.436 -0.1855  0.1330  0.2235
  753BOLB   GL218052  18.041  34.326  15.392  0.0048 -0.0535 -0.0044
  753BOLB   C1A18053  18.627  34.433  15.450 -0.0002  0.1230  0.1398
  753BOLB   C2A18054  18.719  34.848  15.122 -0.1642  0.0294 -0.0883
  753BOLB   C3A18055  18.815  35.280  15.009  0.0244 -0.0690 -0.6614
  753BOLB   C4A18056  18.542  35.584  14.852 -0.1578  0.1603 -0.6537
  753BOLB   C1B18057  18.214  34.802  15.319  0.0693 -0.0844 -0.3394
  753BOLB   C2B18058  18.254  35.178  15.362 -0.1637 -0.2205  0.1750
  753BOLB   C3B18059  18.480  35.438  15.369  0.0219  0.3552 -0.2502
  753BOLB   C4B18060  18.722  35.827  15.259 -0.2445  0.3047  0.0856
  753BOLB   NC218061  18.078  33.637  16.163 -0.0153  0.0834 -0.1472
  753BOLB   PO218062  18.353  33.899  15.916 -0.1433  0.0293  0.2278
  753BOLB   GL318063  18.296  34.357  15.871  0.4663 -0.1208  0.0099
  753BOLB   GL418064  18.438  34.562  16.191  0.0543  0.1956  0.1227
  753BOLB   C1C18065  18.106  34.848  15.817 -0.3334  0.0965 -0.5143
  753BOLB   C2C18066  17.872  35.255  15.688 -0.0113 -0.2799 -0.1131
  753BOLB   C3C18067  17.903  35.658  15.385 -0.1394 -0.4310 -0.3097
  753BOLB   C4C18068  18.205  35.739  15.105  0.1421 -0.0495 -0.1040
  753BOLB   C1D18069  18.304  35.009  16.290  0.1434  0.1727  0.1658
  753BOLB   C2D18070  18.007  35.187  16.153 -0.3078 -0.1735 -0.1095
  753BOLB   C3D18071  17.652  35.141  16.157  0.1673  0.1470  0.0522
  753BOLB   C4D18072  17.381  34.661  16.193 -0.3071  0.1164  0.0320
  754BOLB   NC118073  21.736  11.534   5.181 -0.0245  0.3899 -0.0504
  754BOLB   PO118074  21.365  11.782   5.292  0.2088  0.1054  0.1583
  754BOLB   GL118075  21.110  11.626   5.571 -0.1633  0.1685 -0.1358
  754BOLB   GL218076  20.734  11.656   5.433  0.0629  0.0496 -0.2594
  754BOLB   C1A18077  20.952  11.513   5.974 -0.3293  0.0482 -0.0696
  754BOLB   C2A18078  20.892  11.427   6.243  0.0372  0.1177 -0.1846
  754BOLB   C3A18079  20.906  11.335   6.699  0.1791 -0.0364  0.1015
  754BOLB   C4A18080  20.903  10.887   6.574 -0.2593 -0.0949 -0.0250
  754BOLB   C1B18081  20.704  11.944   5.753 -0.1366 -0.1679  0.2922
  754BOLB   C2B18082  20.895  12.001   6.197 -0.0480  0.0616  0.1422
  754BOLB   C3B18083  20.880  11.843   6.619 -0.1549  0.1614  0.0849
  754BOLB   C4B18084  20.804  11.707   7.049 -0.3402  0.2824  0.0645
  754BOLB   NC218085  20.282   9.351   4.891 -0.1948  0.0853 -0.1768
  754BOLB   PO218086  20.672   9.557   4.889  0.0134  0.0933 -0.1805
  754BOLB   GL318087  20.393   9.543   5.342  0.0791  0.3480  0.0868
  754BOLB   GL418088  20.072   9.348   5.398 -0.4020 -0.0572 -0.1907
  754BOLB   C1C18089  20.350   9.911   5.693  0.1356  0.0928 -0.0313
  754BOLB   C2C18090  20.236   9.892   6.123 -0.2845 -0.1399 -0.1378
  754BOLB   C3C18091  20.321  10.107   6.415  0.0635 -0.2339 -0.1994
  754BOLB   C4C18092  20.744  10.447   6.424 -0.1040 -0.0686 -0.3667
  754BOLB   C1D18093  20.057   9.473   5.801 -0.0329 -0.3656 -0.0199
  754BOLB   C2D18094  19.860   9.595   6.203 -0.1171  0.0182 -0.0447
  754BOLB   C3D18095  19.916   9.525   6.551 -0.1967 -0.2067 -0.0021
  754BOLB   C4D18096  20.214   9.844   6.800 -0.1149  0.2148 -0.2187
  755BOLB   NC118097  15.781  16.875  21.251 -0.0992 -0.0567 -0.0056
  755BOLB   PO118098  15.295  16.880  21.231 -0.2147 -0.1690 -0.2392
  755BOLB   GL118099  15.231  16.962  21.680  0.1178  0.1606 -0.1031
  755BOLB   GL218100  15.090  17.301  21.638 -0.0008  0.0362 -0.1252
  755BOLB   C1A18101  15.450  17.186  22.050 -0.2189 -0.0426  0.1067
  755BOLB   C2A18102  15.232  17.489  22.256  0.0875 -0.0519 -0.0440
  755BOLB   C3A18103  14.917  17.817  22.430  0.1161  0.1945  0.5028
  755BOLB   C4A18104  14.728  17.972  22.830  0.3332 -0.0454  0.0004
  755BOLB   C1B18105  14.876  17.342  21.918 -0.0326  0.0874 -0.0953
  755BOLB   C2B18106  14.628  17.618  22.006 -0.1438 -0.1513  0.2765
  755BOLB   C3B18107  14.342  17.942  22.122 -0.1270  0.0966  0.4250
  755BOLB   C4B18108  14.057  18.245  22.057  0.0953 -0.1182 -0.0574
  755BOLB   NC218109  13.726  19.161  24.000  0.1180  0.2979 -0.3741
  755BOLB   PO218110  13.562  18.842  24.335  0.2774 -0.3494 -0.3160
  755BOLB   GL318111  13.724  18.552  24.052 -0.1848  0.1199  0.2059
  755BOLB   GL418112  13.803  18.662  23.822  0.1917 -0.4854 -0.0116
  755BOLB   C1C18113  14.099  18.185  23.961 -0.1103 -0.2201 -0.0904
  755BOLB   C2C18114  14.389  17.846  23.909 -0.1304  0.0716 -0.0302
  755BOLB   C3C18115  14.642  17.903  23.645  0.3824  0.0431 -0.0878
  755BOLB   C4C18116  14.711  18.055  23.270 -0.1218  0.1036  0.0868
  755BOLB   C1D18117  14.199  18.718  23.802 -0.2642 -0.2657 -0.2179
  755BOLB   C2D18118  14.529  18.914  23.441 -0.0134 -0.3563 -0.7081
  755BOLB   C3D18119  14.949  19.043  23.454  0.1823  0.1796 -0.1301
  755BOLB   C4D18120  15.227  18.870  23.172  0.0070  0.4295 -0.1399
  756BOLB   NC118121  24.567  19.342  19.493  0.0286 -0.1513  0.1201
  756BOLB   PO118122  24.128  19.541  19.439 -0.0347 -0.6110  0.3429
  756BOLB   GL118123  23.874  19.149  19.500  0.1673  0.0187  0.0498
  756BOLB   GL218124  24.289  18.946  19.580 -0.1000  0.1645  0.1109
  756BOLB   C1A18125  23.654  18.806  19.315 -0.1814  0.2505  0.0541
  756BOLB   C2A18126  23.842  18.451  19.220  0.1492 -0.2230  0.1051
  756BOLB   C3A18127  23.948  18.005  19.177  0.0173 -0.2024  0.1207
  756BOLB   C4A18128  24.254  17.717  18.829 -0.1581  0.1369  0.0429
  756BOLB   C1B18129  24.197  18.866  19.184  0.0408  0.4378 -0.1993
  756BOLB   C2B18130  24.471  18.731  18.814 -0.4952  0.0250 -0.2970
  756BOLB   C3B18131  24.575  18.584  18.509  0.1139  0.0849  0.1715
  756BOLB   C4B18132  24.791  18.600  18.049  0.0824  0.3470 -0.1710
  756BOLB   NC218133  25.896  18.681  17.786  0.1855  0.0771 -0.0637
  756BOLB   PO218134  25.734  19.113  17.621  0.0581  0.2547 -0.0696
  756BOLB   GL318135  25.534  18.606  17.478  0.2993  0.2603 -0.1250
  756BOLB   GL418136  25.638  18.389  17.151 -0.0628 -0.0057 -0.1029
  756BOLB   C1C18137  25.150  18.356  17.688  0.3257  0.1829 -0.0531
  756BOLB   C2C18138  24.960  18.117  17.940  0.0329  0.3701  0.1509
  756BOLB   C3C18139  24.748  17.773  18.122  0.2117  0.0270 -0.0994
  756BOLB   C4C18140  24.488  17.744  18.498 -0.1428  0.0656 -0.0378
  756BOLB   C1D18141  25.647  17.965  17.075 -0.3039  0.0339 -0.3155
  756BOLB   C2D18142  25.260  17.608  17.235  0.3970  0.0041 -0.0272
  756BOLB   C3D18143  24.923  17.233  17.465 -0.1342  0.0619  0.1924
  756BOLB   C4D18144  24.749  17.001  17.602  0.0271  0.1023  0.1912
  757BOLB   NC118145   0.846   7.429  12.998  0.0649 -0.1986 -0.3097
  757BOLB   PO118146   0.737   7.502  12.598  0.1872 -0.0104 -0.2733
  757BOLB   GL118147   1.065   7.226  12.532 -0.3038  0.0867 -0.0418
  757BOLB   GL218148   0.874   7.048  12.330 -0.2218 -0.0265 -0.0698
  757BOLB   C1A18149   1.325   7.002  12.843 -0.0461 -0.0295  0.2871
  757BOLB   C2A18150   1.760   6.909  12.939  0.0638  0.0310  0.2912
  757BOLB   C3A18151   2.050   6.716  12.698  0.2347 -0.1424 -0.1494
  757BOLB   C4A18152   2.349   6.370  12.855 -0.0568  0.2421 -0.3937
  757BOLB   C1B18153   1.238   7.204  12.010 -0.0399  0.2119 -0.1426
  757BOLB   C2B18154   1.676   7.264  11.920 -0.2887  0.1161 -0.1959
  757BOLB   C3B18155   2.096   7.390  12.150  0.1035  0.0686 -0.0704
  757BOLB   C4B18156   2.550   7.407  12.296  0.0094  0.0614  0.0629
  757BOLB   NC218157   1.215   6.223  11.278 -0.3338 -0.0394  0.2090
  757BOLB   PO218158   1.314   5.815  11.100  0.0049  0.0701 -0.0137
  757BOLB   GL318159   1.606   5.767  11.391 -0.0001 -0.0158 -0.1090
  757BOLB   GL418160   1.791   5.480  11.432 -0.0586  0.2362  0.1856
  757BOLB   C1C18161   1.732   5.919  11.839  0.1380 -0.1721 -0.2549
  757BOLB   C2C18162   2.079   5.832  12.154  0.1768  0.1758 -0.0378
  757BOLB   C3C18163   2.273   5.631  12.458  0.0249 -0.1867  0.1320
  757BOLB   C4C18164   2.430   5.969  12.752  0.2712 -0.2836  0.0033
  757BOLB   C1D18165   2.143   5.501  11.697  0.0626 -0.0719  0.2275
  757BOLB   C2D18166   2.524   5.630  11.913  0.1305 -0.5226  0.1730
  757BOLB   C3D18167   2.758   5.689  12.184 -0.1079  0.0921  0.0814
  757BOLB   C4D18168   3.262   5.628  12.275 -0.0737 -0.0681 -0.0409
  758BOLB   NC118169  10.716  12.817  21.096 -0.0462  0.2846  0.3843
  758BOLB   PO118170  10.500  12.781  20.713  0.0658 -0.2460  0.1081
  758BOLB   GL118171  10.205  12.584  20.928 -0.0451  0.0692  0.1271
  758BOLB   GL218172  10.224  12.313  21.155  0.0444 -0.0868 -0.0977
  758BOLB   C1A18173   9.946  12.783  21.122 -0.2622 -0.3260  0.0807
  758BOLB   C2A18174   9.673  13.087  21.304 -0.0662  0.3142  0.0022
  758BOLB   C3A18175   9.334  13.104  21.567 -0.0677  0.2309 -0.1578
  758BOLB   C4A18176   9.111  13.408  21.845 -0.0641  0.0958 -0.1725
  758BOLB   C1B18177   9.844  12.352  21.298 -0.3491  0.0823 -0.2110
  758BOLB   C2B18178   9.581  12.631  21.610 -0.0578  0.0724 -0.2899
  758BOLB   C3B18179   9.627  12.539  22.011  0.2516 -0.0244 -0.0300
  758BOLB   C4B18180   9.837  12.790  22.228  0.1248  0.4383 -0.0480
  758BOLB   NC218181   7.698  15.074  23.005 -0.0128  0.2238 -0.1175
  758BOLB   PO218182   8.107  14.940  23.158  0.1155  0.0652 -0.2966
  758BOLB   GL318183   8.523  14.674  23.160  0.3512  0.0737 -0.0612
  758BOLB   GL418184   8.518  14.267  23.342  0.1547 -0.1870  0.0320
  758BOLB   C1C18185   8.410  14.296  22.879  0.1226 -0.1232 -0.0066
  758BOLB   C2C18186   8.413  13.934  22.816  0.3513 -0.0815 -0.1272
  758BOLB   C3C18187   8.759  13.653  22.653  0.1795 -0.0918  0.2748
  758BOLB   C4C18188   8.872  13.525  22.240 -0.3267 -0.4792  0.0789
  758BOLB   C1D18189   8.724  13.873  23.218 -0.2308 -0.2891  0.0682
  758BOLB   C2D18190   9.081  13.829  22.998 -0.3479 -0.1302 -0.1050
  758BOLB   C3D18191   9.196  13.868  22.547  0.2759  0.3430 -0.2578
  758BOLB   C4D18192   9.284  14.206  22.185  0.0624  0.1877  0.4436
  759BOLB   NC118193   5.123  35.106  15.463 -0.2529  0.0301  0.2813
  759BOLB   PO118194   5.151  35.477  15.330 -0.1284  0.0308 -0.0345
  759BOLB   GL118195   5.327  35.799  15.317 -0.3146 -0.0969  0.0647
  759BOLB   GL218196   5.109  35.938  15.055 -0.1512 -0.0329 -0.1666
  759BOLB   C1A18197   5.570  35.982  15.188 -0.3886  0.0003  0.2147
  759BOLB   C2A18198   5.993  35.986  15.221 -0.2291 -0.1635  0.0256
  759BOLB   C3A18199   6.407  36.068  15.385 -0.2557 -0.1376 -0.1793
  759BOLB   C4A18200   6.673  35.937  15.659 -0.1034  0.2185 -0.2087
  759BOLB   C1B18201   5.308  36.266  14.875 -0.2627  0.0361  0.0863
  759BOLB   C2B18202   5.445  36.729  14.999 -0.0007 -0.0157  0.1907
  759BOLB   C3B18203   5.784  36.995  15.072 -0.1368 -0.2892 -0.0478
  759BOLB   C4B18204   6.138  37.315  15.201  0.3973 -0.3773 -0.1169
  759BOLB   NC218205   6.676  34.508  17.655 -0.1068  0.2091  0.0393
  759BOLB   PO218206   6.220  34.883  17.606 -0.0206  0.0894 -0.0683
  759BOLB   GL318207   6.395  35.096  17.286  0.0673 -0.1892 -0.0022
  759BOLB   GL418208   6.229  35.411  17.115 -0.0862  0.1962  0.3504
  759BOLB   C1C18209   6.807  35.113  16.882 -0.3666  0.0942  0.0802
  759BOLB   C2C18210   6.765  35.056  16.513  0.0031 -0.0637  0.2361
  759BOLB   C3C18211   6.571  35.240  16.129  0.0702 -0.3983  0.2417
  759BOLB   C4C18212   6.715  35.491  15.730 -0.1101  0.1172 -0.0498
  759BOLB   C1D18213   6.518  35.548  16.766 -0.1862  0.0988 -0.2702
  759BOLB   C2D18214   6.914  35.520  16.351  0.3508 -0.0676 -0.1007
  759BOLB   C3D18215   7.024  35.784  16.084 -0.0219  0.1007 -0.1169
  759BOLB   C4D18216   7.176  36.007  15.688  0.0271  0.0298 -0.1396
  760BOLB   NC118217   2.968   5.000   8.822  0.3480 -0.0971 -0.3434
  760BOLB   PO118218   2.669   5.258   8.928  0.1972 -0.0771  0.1033
  760BOLB   GL118219   2.660   5.713   9.111  0.0280 -0.0847  0.0044
  760BOLB   GL218220   2.788   5.959   9.005  0.0888  0.1567  0.1173
  760BOLB   C1A18221   2.594   6.049   9.434 -0.1715  0.2480 -0.0263
  760BOLB   C2A18222   2.719   6.390   9.685  0.1562 -0.0488 -0.0442
  760BOLB   C3A18223   2.915   6.772   9.720 -0.4642  0.0480  0.1381
  760BOLB   C4A18224   3.060   7.096  10.008 -0.2653 -0.0300  0.1104
  760BOLB   C1B18225   3.173   5.970   9.280  0.0012 -0.1465  0.1654
  760BOLB   C2B18226   3.245   5.748   9.613 -0.0349  0.1060  0.2104
  760BOLB   C3B18227   3.658   5.404   9.730  0.1368 -0.0857 -0.0727
  760BOLB   C4B18228   3.839   4.997   9.573 -0.1838  0.2609  0.2052
  760BOLB   NC218229   1.446   7.514   9.690  0.3813  0.2794  0.2352
  760BOLB   PO218230   1.709   7.525  10.000  0.1685  0.0419  0.3399
  760BOLB   GL318231   2.081   7.420  10.146 -0.1442 -0.0189 -0.0622
  760BOLB   GL418232   2.273   7.100  10.227 -0.0430  0.1220 -0.1834
  760BOLB   C1C18233   2.469   7.562  10.304  0.1044 -0.1201 -0.1879
  760BOLB   C2C18234   2.860   7.867  10.374 -0.0794 -0.0873  0.0364
  760BOLB   C3C18235   3.170   7.583  10.634  0.2215 -0.2599  0.1414
  760BOLB   C4C18236   3.179   7.182  10.498  0.0059 -0.0132  0.1610
  760BOLB   C1D18237   2.280   6.692  10.484 -0.0277  0.0885 -0.0418
  760BOLB   C2D18238   2.659   6.480  10.684  0.2015 -0.0414 -0.1066
  760BOLB   C3D18239   3.068   6.251  10.733 -0.0614 -0.1749 -0.0092
  760BOLB   C4D18240   3.259   5.838  10.649 -0.2448 -0.1788 -0.2175
  761BOLB   NC118241  27.911   8.541  11.982  0.1963  0.1345  0.0219
  761BOLB   PO118242  27.673   8.358  11.634 -0.3963 -0.0450 -0.3151
  761BOLB   GL118243  27.411   8.635  11.986  0.1752 -0.0821 -0.1396
  761BOLB   GL218244  27.472   8.531  12.278 -0.0907  0.1352 -0.2908
  761BOLB   C1A18245  27.035   8.944  11.968 -0.1314 -0.1885  0.1559
  761BOLB   C2A18246  26.784   9.227  12.256  0.4014 -0.1441  0.2113
  761BOLB   C3A18247  26.535   9.647  12.435  0.0487  0.1523  0.1230
  761BOLB   C4A18248  26.468  10.107  12.589  0.0325  0.1112  0.3525
  761BOLB   C1B18249  27.031   8.483  12.217  0.1170 -0.4855 -0.4786
  761BOLB   C2B18250  26.668   8.585  12.151 -0.2339  0.0640  0.0347
  761BOLB   C3B18251  26.267   8.672  12.248  0.1889 -0.0448 -0.3727
  761BOLB   C4B18252  25.943   8.868  12.192  0.2256 -0.2016  0.2462
  761BOLB   NC218253  27.389  11.083  11.062  0.1142 -0.2749  0.0148
  761BOLB   PO218254  27.777  11.138  11.158  0.0003 -0.2681 -0.1696
  761BOLB   GL318255  27.562  10.847  11.473  0.1773 -0.2305  0.0289
  761BOLB   GL418256  27.371  10.681  11.364  0.0999 -0.0859  0.1622
  761BOLB   C1C18257  27.185  10.998  11.671 -0.0867 -0.4527  0.0738
  761BOLB   C2C18258  26.887  11.023  12.029  0.1871  0.0511  0.0184
  761BOLB   C3C18259  26.792  10.716  12.310 -0.1592  0.2049 -0.1561
  761BOLB   C4C18260  26.704  10.536  12.585  0.1118  0.0074  0.1740
  761BOLB   C1D18261  26.993  10.623  11.378 -0.1945 -0.0644  0.3191
  761BOLB   C2D18262  26.622  10.881  11.424 -0.1716 -0.2615 -0.3480
  761BOLB   C3D18263  26.709  11.248  11.374  0.1009 -0.4045  0.0934
  761BOLB   C4D18264  26.329  11.463  11.351  0.1861  0.0561  0.0105
  762BOLB   NC118265  12.633  35.118  20.326 -0.2897 -0.0664  0.1677
  762BOLB   PO118266  12.678  35.418  20.639 -0.0570 -0.0232  0.0949
  762BOLB   GL118267  12.486  35.713  20.346  0.0836 -0.0268 -0.1373
  762BOLB   GL218268  12.250  35.968  20.430  0.1664  0.1986 -0.0513
  762BOLB   C1A18269  12.802  36.082  20.193 -0.0910  0.0526  0.3668
  762BOLB   C2A18270  13.138  36.326  19.981 -0.1065 -0.1805  0.0099
  762BOLB   C3A18271  13.397  36.463  19.597 -0.0380 -0.2012  0.0493
  762BOLB   C4A18272  13.783  36.437  19.370  0.1748  0.1509  0.3291
  762BOLB   C1B18273  12.336  35.926  19.969 -0.1235 -0.2706 -0.0246
  762BOLB   C2B18274  12.640  35.993  19.739 -0.0288  0.2634 -0.0376
  762BOLB   C3B18275  13.095  35.910  19.719 -0.0991  0.1745 -0.0125
  762BOLB   C4B18276  13.615  35.980  19.724 -0.4736 -0.0462 -0.0088
  762BOLB   NC218277  13.179  35.551  20.907  0.0129 -0.1506 -0.4562
  762BOLB   PO218278  13.534  35.689  21.077 -0.3823  0.1664 -0.2445
  762BOLB   GL318279  13.615  35.996  20.857 -0.2077 -0.0066  0.0211
  762BOLB   GL418280  13.841  35.997  20.578 -0.4084  0.1212 -0.2489
  762BOLB   C1C18281  13.822  36.345  20.937 -0.3542  0.1276  0.1977
  762BOLB   C2C18282  14.054  36.462  20.570  0.4229  0.0092 -0.0074
  762BOLB   C3C18283  14.147  36.543  20.119  0.1324 -0.2010 -0.2567
  762BOLB   C4C18284  14.084  36.463  19.687 -0.0943  0.3126  0.3048
  762BOLB   C1D18285  13.868  36.162  20.194 -0.1376  0.1282 -0.0378
  762BOLB   C2D18286  13.664  36.479  20.023  0.3975  0.1089  0.0867
  762BOLB   C3D18287  13.850  36.833  19.817  0.1741 -0.2344  0.1500
  762BOLB   C4D18288  13.903  37.286  20.083 -0.0817  0.3901  0.3336
  763BOLB   NC118289  26.822   5.870  19.212 -0.0104  0.0710 -0.2882
  763BOLB   PO118290  27.058   6.220  19.290  0.0719  0.0497  0.4464
  763BOLB   GL118291  26.631   6.268  19.399  0.0639 -0.1035  0.3011
  763BOLB   GL218292  26.289   6.070  19.235  0.0374  0.2101  0.1291
  763BOLB   C1A18293  26.284   6.438  19.571 -0.1137 -0.1143 -0.3978
  763BOLB   C2A18294  25.898   6.663  19.500  0.1048 -0.2651 -0.1067
  763BOLB   C3A18295  25.698   6.959  19.381 -0.2485  0.3833 -0.0874
  763BOLB   C4A18296  25.454   7.343  19.487  0.0360  0.0338  0.1398
  763BOLB   C1B18297  25.877   6.153  19.363  0.2375 -0.2414 -0.1826
  763BOLB   C2B18298  25.443   6.357  19.446 -0.0188 -0.5435  0.3274
  763BOLB   C3B18299  25.185   6.723  19.506  0.1024 -0.2943 -0.2742
  763BOLB   C4B18300  25.143   7.085  19.129 -0.1151 -0.1703  0.1424
  763BOLB   NC218301  26.959   7.032  19.697  0.0618  0.2593  0.1463
  763BOLB   PO218302  27.064   7.384  19.853 -0.3503  0.0492  0.0341
  763BOLB   GL318303  26.959   7.834  19.916 -0.3948 -0.0865  0.1271
  763BOLB   GL418304  26.942   7.917  20.180  0.3080  0.4039  0.0400
  763BOLB   C1C18305  26.482   7.927  19.936  0.1469  0.0096  0.2191
  763BOLB   C2C18306  26.148   7.799  20.016 -0.1148  0.2478  0.1750
  763BOLB   C3C18307  25.657   7.947  19.994 -0.3434  0.0267  0.0323
  763BOLB   C4C18308  25.400   7.630  19.783 -0.1852 -0.1063 -0.0952
  763BOLB   C1D18309  26.857   8.370  20.044 -0.1925 -0.2756 -0.1403
  763BOLB   C2D18310  26.343   8.467  20.121  0.1294  0.3076  0.0047
  763BOLB   C3D18311  26.037   8.308  19.992 -0.0662  0.0679  0.2260
  763BOLB   C4D18312  25.697   8.406  19.809 -0.1396 -0.4387  0.0942
  764BOLB   NC118313   4.450   9.442   5.774 -0.2986 -0.2796  0.0992
  764BOLB   PO118314   4.396   9.786   6.003  0.2346 -0.0356  0.0288
  764BOLB   GL118315   4.852   9.706   5.984  0.0210 -0.0964 -0.0052
  764BOLB   GL218316   4.921   9.474   6.212  0.1102 -0.0846  0.0468
  764BOLB   C1A18317   5.300   9.698   6.051 -0.0462  0.4529  0.2090
  764BOLB   C2A18318   5.595   9.384   6.063  0.1756 -0.2115  0.1123
  764BOLB   C3A18319   5.798   9.404   6.584  0.0137 -0.0815 -0.0139
  764BOLB   C4A18320   5.809   9.369   6.976 -0.0705 -0.2799 -0.0891
  764BOLB   C1B18321   5.175   9.219   6.293 -0.0834  0.1720  0.2908
  764BOLB   C2B18322   5.529   8.990   6.454 -0.0379  0.1641  0.4293
  764BOLB   C3B18323   5.648   8.868   6.798 -0.2132  0.2696 -0.3462
  764BOLB   C4B18324   5.769   8.417   6.967  0.1023  0.1992 -0.0794
  764BOLB   NC218325   3.625   9.083   6.212 -0.2178  0.0613  0.0382
  764BOLB   PO218326   3.918   9.324   6.427 -0.0602  0.1538  0.0445
  764BOLB   GL318327   4.030   9.021   6.729 -0.4602  0.1809 -0.0528
  764BOLB   GL418328   4.344   8.719   6.725  0.4593  0.1986 -0.3362
  764BOLB   C1C18329   4.380   9.258   6.975  0.1424  0.0426 -0.0799
  764BOLB   C2C18330   4.711   9.273   7.346  0.2470 -0.0912 -0.0737
  764BOLB   C3C18331   5.186   9.242   7.477  0.0873 -0.0696  0.3680
  764BOLB   C4C18332   5.542   9.325   7.272 -0.1639  0.0466  0.5154
  764BOLB   C1D18333   4.731   8.806   6.930  0.3541 -0.1250 -0.0685
  764BOLB   C2D18334   4.966   8.899   7.170 -0.3131  0.1338 -0.4754
  764BOLB   C3D18335   5.368   8.889   7.167  0.1349  0.1057  0.2466
  764BOLB   C4D18336   5.721   8.871   7.295 -0.1343 -0.0639 -0.2480
  765BOLB   NC118337   7.020  33.627  14.731 -0.2181 -0.1827  0.1328
  765BOLB   PO118338   7.129  33.177  14.512 -0.2610 -0.1481 -0.5474
  765BOLB   GL118339   7.237  33.647  14.209  0.0222  0.2761  0.0136
  765BOLB   GL218340   7.400  33.668  13.819  0.4193  0.0084 -0.0960
  765BOLB   C1A18341   7.435  34.055  14.076  0.3084 -0.1851  0.1626
  765BOLB   C2A18342   7.518  34.477  14.127  0.1034  0.5889  0.0759
  765BOLB   C3A18343   7.730  34.734  14.188  0.1787  0.0606  0.2135
  765BOLB   C4A18344   7.820  34.932  13.803 -0.2145 -0.1150 -0.5037
  765BOLB   C1B18345   7.764  33.553  14.044  0.0252  0.2335 -0.0016
  765BOLB   C2B18346   8.164  33.832  14.019  0.3524  0.0091 -0.0212
  765BOLB   C3B18347   8.423  34.135  13.847 -0.0074 -0.0641 -0.3025
  765BOLB   C4B18348   8.624  34.476  13.966 -0.0941  0.1699 -0.1090
  765BOLB   NC218349   8.171  32.578  13.037 -0.5768  0.0672  0.1589
  765BOLB   PO218350   8.216  32.906  12.692  0.2473  0.0755  0.1267
  765BOLB   GL318351   8.082  33.170  13.007 -0.0312 -0.3295 -0.0869
  765BOLB   GL418352   8.420  33.337  12.931 -0.1684  0.1750  0.3040
  765BOLB   C1C18353   8.039  33.645  13.114  0.0514 -0.3708 -0.3022
  765BOLB   C2C18354   8.017  34.029  13.151 -0.0249 -0.3824 -0.0922
  765BOLB   C3C18355   7.722  34.337  13.263  0.1180 -0.1072 -0.1786
  765BOLB   C4C18356   7.758  34.607  13.504 -0.1181  0.1022 -0.0043
  765BOLB   C1D18357   8.660  33.809  12.970  0.4232 -0.1388 -0.3448
  765BOLB   C2D18358   8.581  34.051  13.356 -0.0041 -0.2245  0.2729
  765BOLB   C3D18359   8.285  34.397  13.445 -0.2002  0.2133  0.1983
  765BOLB   C4D18360   8.031  34.509  13.866  0.1360 -0.0253 -0.4164
  766BOLB   NC118361  15.090   1.133   2.497  0.2168  0.1348 -0.1169
  766BOLB   PO118362  14.721   1.329   2.503  0.3124 -0.1153 -0.0631
  766BOLB   GL118363  14.894   1.710   2.834 -0.0281 -0.1779  0.1292
  766BOLB   GL218364  14.749   1.988   2.999  0.3280 -0.1067  0.1360
  766BOLB   C1A18365  15.227   1.898   3.165 -0.0794 -0.0616  0.1995
  766BOLB   C2A18366  15.358   2.124   3.486 -0.0638  0.0897 -0.0866
  766BOLB   C3A18367  15.404   2.543   3.779 -0.1181  0.3560 -0.3048
  766BOLB   C4A18368  15.181   2.909   3.625 -0.0431 -0.0057 -0.3421
  766BOLB   C1B18369  14.283   2.163   2.885  0.1955 -0.1419 -0.1965
  766BOLB   C2B18370  13.933   2.382   2.748 -0.0554 -0.0549  0.1470
  766BOLB   C3B18371  13.739   2.710   2.572  0.3261 -0.1059  0.0673
  766BOLB   C4B18372  13.309   2.951   2.770 -0.0856 -0.3426  0.2186
  766BOLB   NC218373  16.221   2.541   1.760  0.0926  0.1521  0.3020
  766BOLB   PO218374  16.494   2.861   1.744  0.0187  0.1247 -0.0933
  766BOLB   GL318375  16.273   3.112   2.121  0.0728  0.1428  0.2252
  766BOLB   GL418376  16.040   3.450   1.964  0.1776  0.0104  0.0405
  766BOLB   C1C18377  16.122   3.428   2.400  0.2137 -0.1469  0.3661
  766BOLB   C2C18378  15.878   3.538   2.779  0.1649 -0.3609  0.0755
  766BOLB   C3C18379  15.502   3.337   3.065  0.1029  0.0353  0.1862
  766BOLB   C4C18380  15.310   3.217   3.439 -0.0157  0.2615  0.2783
  766BOLB   C1D18381  15.678   3.701   2.177 -0.0425 -0.1213  0.2117
  766BOLB   C2D18382  15.498   3.834   2.597 -0.0156  0.0485 -0.0606
  766BOLB   C3D18383  15.294   3.953   2.990  0.0468  0.1556  0.4185
  766BOLB   C4D18384  15.218   4.199   3.332 -0.2248 -0.0397 -0.1653
  767BOLB   NC118385  15.995  32.442  11.947 -0.1636 -0.1479 -0.2983
  767BOLB   PO118386  16.278  32.574  11.669 -0.1461  0.3715 -0.0653
  767BOLB   GL118387  15.934  32.842  11.459  0.2514  0.0726 -0.4126
  767BOLB   GL218388  16.043  33.013  11.191 -0.1952  0.0727  0.2310
  767BOLB   C1A18389  15.570  32.898  11.333  0.0485  0.0785  0.0486
  767BOLB   C2A18390  15.334  33.247  11.259 -0.1358 -0.0667 -0.0870
  767BOLB   C3A18391  14.954  33.500  11.179  0.3010  0.0058 -0.1735
  767BOLB   C4A18392  14.540  33.312  11.042 -0.1574  0.3407  0.0621
  767BOLB   C1B18393  16.208  33.432  11.143 -0.2626 -0.1233 -0.1804
  767BOLB   C2B18394  16.058  33.872  11.160 -0.0538  0.1838 -0.2430
  767BOLB   C3B18395  16.002  34.296  11.086  0.1937 -0.2658  0.1450
  767BOLB   C4B18396  15.752  34.643  10.882 -0.1562  0.0103 -0.0328
  767BOLB   NC218397  14.316  31.428  10.149 -0.3596  0.0754  0.0306
  767BOLB   PO218398  14.261  31.780   9.860 -0.2520  0.0346 -0.0543
  767BOLB   GL318399  14.159  32.191   9.818 -0.0498 -0.0237 -0.1010
  767BOLB   GL418400  13.855  32.158   9.706 -0.1712 -0.0938  0.0095
  767BOLB   C1C18401  14.033  32.628   9.749  0.1646  0.0153 -0.2831
  767BOLB   C2C18402  14.001  32.828  10.106 -0.0734  0.0793  0.0957
  767BOLB   C3C18403  14.216  32.934  10.469 -0.0925  0.3635  0.1142
  767BOLB   C4C18404  14.336  33.024  10.845 -0.1322 -0.0618 -0.2658
  767BOLB   C1D18405  13.441  32.171   9.799  0.1023  0.0750 -0.2440
  767BOLB   C2D18406  13.115  32.421   9.626 -0.2759  0.1975  0.1359
  767BOLB   C3D18407  13.008  32.721   9.366 -0.1238  0.0236  0.1720
  767BOLB   C4D18408  12.780  32.937   9.009  0.1637  0.3642 -0.2460
  768BOLB   NC118409  13.534  11.579  22.879 -0.0696 -0.1011  0.3509
  768BOLB   PO118410  13.674  11.157  22.970  0.0652 -0.0399  0.0000
  768BOLB   GL118411  13.464  11.338  23.300  0.3162 -0.0356  0.0410
  768BOLB   GL218412  13.283  11.704  23.356 -0.2100 -0.1484 -0.0254
  768BOLB   C1A18413  13.266  11.330  23.741  0.0410 -0.1304 -0.0528
  768BOLB   C2A18414  13.032  11.366  24.066  0.2069 -0.0299  0.2258
  768BOLB   C3A18415  12.782  11.267  24.279  0.3776  0.0982 -0.1156
  768BOLB   C4A18416  12.803  11.228  24.782 -0.0335 -0.1463  0.0563
  768BOLB   C1B18417  13.215  12.073  23.623 -0.0659  0.0178 -0.0158
  768BOLB   C2B18418  13.348  12.051  24.161  0.4539 -0.1311  0.1600
  768BOLB   C3B18419  13.259  12.197  24.534  0.0302 -0.0837 -0.1685
  768BOLB   C4B18420  12.969  12.445  24.843 -0.3428  0.3239 -0.2948
  768BOLB   NC218421  12.482  12.611  26.637 -0.1931 -0.1433 -0.0230
  768BOLB   PO218422  12.987  12.622  26.652 -0.0255  0.0684 -0.0544
  768BOLB   GL318423  12.874  12.528  26.293  0.0193  0.2583 -0.4263
  768BOLB   GL418424  12.610  12.593  25.994  0.0051  0.2712  0.1705
  768BOLB   C1C18425  13.021  12.316  25.949  0.4024 -0.0807 -0.2948
  768BOLB   C2C18426  12.871  11.941  25.682 -0.0134 -0.2113 -0.0120
  768BOLB   C3C18427  12.662  11.736  25.369  0.0218  0.1678 -0.0807
  768BOLB   C4C18428  12.943  11.498  25.063 -0.2562 -0.1117  0.1358
  768BOLB   C1D18429  12.856  12.713  25.537  0.4168 -0.0448  0.1466
  768BOLB   C2D18430  13.190  12.581  25.261 -0.2736 -0.0248 -0.0901
  768BOLB   C3D18431  13.524  12.547  24.828 -0.3225  0.0057 -0.1879
  768BOLB   C4D18432  13.849  12.246  24.623 -0.0235 -0.0193  0.0746
  769BOLB   NC118433  10.134   1.531   4.300 -0.0522 -0.0624  0.2558
  769BOLB   PO118434  10.540   1.309   4.378 -0.0192  0.0544 -0.2251
  769BOLB   GL118435  10.723   1.494   4.682 -0.1370  0.0232  0.1390
  769BOLB   GL218436  10.614   1.836   4.593 -0.2644 -0.1197 -0.2519
  769BOLB   C1A18437  11.076   1.749   4.818 -0.1126  0.3082  0.2578
  769BOLB   C2A18438  11.425   1.738   5.091  0.0355  0.1777  0.0776
  769BOLB   C3A18439  11.614   1.958   5.503 -0.3584  0.2072  0.1022
  769BOLB   C4A18440  12.061   1.887   5.670  0.1867  0.1622  0.0782
  769BOLB   C1B18441  10.741   2.183   4.693  0.1416  0.1035  0.1113
  769BOLB   C2B18442  10.597   2.571   4.647  0.0317 -0.0307 -0.1416
  769BOLB   C3B18443  10.264   2.868   4.437 -0.0841 -0.1075 -0.0812
  769BOLB   C4B18444   9.881   2.932   4.087 -0.0214  0.0855 -0.3890
  769BOLB   NC218445  10.983   0.917   4.120 -0.2302  0.0735  0.0666
  769BOLB   PO218446  11.024   0.563   4.398  0.1691 -0.1436  0.0840
  769BOLB   GL318447  11.376   0.786   4.653  0.3408  0.0630  0.0377
  769BOLB   GL418448  11.688   0.967   4.572 -0.0870 -0.1076 -0.1052
  769BOLB   C1C18449  11.589   0.835   5.067 -0.3414  0.1148  0.0173
  769BOLB   C2C18450  11.879   0.894   5.516  0.3188  0.1937  0.1513
  769BOLB   C3C18451  12.217   1.095   5.534  0.1173 -0.1081 -0.0603
  769BOLB   C4C18452  12.417   1.575   5.629  0.0291 -0.3109  0.0688
  769BOLB   C1D18453  11.411   1.300   4.781 -0.1731  0.1889 -0.1656
  769BOLB   C2D18454  11.333   1.286   5.258 -0.0020  0.1149  0.0480
  769BOLB   C3D18455  11.355   0.956   5.490 -0.1272 -0.3571  0.2705
  769BOLB   C4D18456  11.523   0.750   5.791 -0.1101 -0.2513 -0.2213
  770BOLB   NC118457  19.746  19.477  23.913  0.1093  0.0825  0.1054
  770BOLB   PO118458  19.780  19.201  24.362 -0.1811 -0.2653  0.1210
  770BOLB   GL118459  19.562  18.987  23.989  0.1075  0.2050 -0.0857
  770BOLB   GL218460  19.394  19.077  23.696  0.0578  0.1435 -0.1023
  770BOLB   C1A18461  19.631  18.502  23.806  0.0436 -0.0559 -0.0394
  770BOLB   C2A18462  19.567  18.454  23.389 -0.0798  0.4179  0.3031
  770BOLB   C3A18463  19.596  18.613  22.949  0.1858  0.1649 -0.1195
  770BOLB   C4A18464  19.402  18.432  22.559 -0.2388 -0.0586  0.3203
  770BOLB   C1B18465  19.612  18.922  23.373  0.1003 -0.0266 -0.1173
  770BOLB   C2B18466  20.044  18.723  23.231  0.0695 -0.0899  0.1439
  770BOLB   C3B18467  20.023  18.370  23.046 -0.2176  0.5256 -0.0249
  770BOLB   C4B18468  20.038  17.916  23.201 -0.0046  0.1947 -0.0185
  770BOLB   NC218469  18.838  19.908  23.967  0.1007  0.0545  0.3363
  770BOLB   PO218470  18.861  19.552  23.607  0.1393 -0.1207  0.0203
  770BOLB   GL318471  18.800  19.184  23.239  0.2478 -0.2789 -0.1474
  770BOLB   GL418472  18.428  19.337  23.030  0.3212  0.1578 -0.1450
  770BOLB   C1C18473  18.689  18.789  23.088  0.2333  0.0151 -0.0024
  770BOLB   C2C18474  18.524  18.557  22.785  0.2471 -0.1627 -0.2329
  770BOLB   C3C18475  18.815  18.356  22.546  0.1126  0.3987 -0.1902
  770BOLB   C4C18476  19.169  18.375  22.217  0.0853  0.4654 -0.0132
  770BOLB   C1D18477  18.467  19.604  22.640 -0.2555  0.0841  0.1958
  770BOLB   C2D18478  18.380  19.565  22.165  0.0000 -0.0476 -0.0685
  770BOLB   C3D18479  18.039  19.458  21.939 -0.0701 -0.3551 -0.1351
  770BOLB   C4D18480  17.703  19.430  21.642  0.1709 -0.0528  0.1112
  771BOLB   NC118481  24.451   9.905  13.570  0.0331  0.2602 -0.3946
  771BOLB   PO118482  24.465   9.911  14.002  0.2320 -0.0249  0.3509
  771BOLB   GL118483  24.877   9.960  14.162 -0.1369  0.2376  0.0234
  771BOLB   GL218484  25.012  10.297  14.001  0.0672  0.1648  0.5698
  771BOLB   C1A18485  25.244   9.962  14.307 -0.3257 -0.1898 -0.1094
  771BOLB   C2A18486  25.717   9.942  14.446 -0.1673  0.2170  0.1531
  771BOLB   C3A18487  25.951  10.168  14.662 -0.0394  0.1718 -0.1515
  771BOLB   C4A18488  26.268  10.412  14.828 -0.0666  0.1104 -0.1870
  771BOLB   C1B18489  25.325  10.456  13.965 -0.3139  0.0521 -0.0195
  771BOLB   C2B18490  25.728  10.566  14.189  0.4474  0.0001  0.1427
  771BOLB   C3B18491  26.144  10.525  14.290  0.1843  0.2216 -0.0848
  771BOLB   C4B18492  26.547  10.313  14.441 -0.0246  0.1318 -0.0272
  771BOLB   NC218493  28.415   9.351  15.515  0.2873 -0.2128 -0.1569
  771BOLB   PO218494  28.355   9.849  15.377  0.0993  0.0517 -0.1558
  771BOLB   GL318495  27.970   9.686  15.290  0.0383 -0.0796 -0.0657
  771BOLB   GL418496  27.905   9.424  15.407  0.1033  0.2077 -0.0141
  771BOLB   C1C18497  27.560   9.778  15.163 -0.2765  0.0723 -0.0822
  771BOLB   C2C18498  27.190   9.809  14.925  0.0077 -0.1734  0.0847
  771BOLB   C3C18499  26.776   9.912  14.924 -0.0593  0.1264 -0.1596
  771BOLB   C4C18500  26.494  10.168  14.934  0.1950  0.3963 -0.2105
  771BOLB   C1D18501  27.496   9.430  15.619 -0.0678  0.3473  0.1275
  771BOLB   C2D18502  27.226   9.516  15.578  0.0950  0.0672 -0.0431
  771BOLB   C3D18503  27.029   9.866  15.491  0.3837 -0.1964  0.1394
  771BOLB   C4D18504  27.070  10.173  15.212 -0.1317 -0.2838  0.1166
  772BOLB   NC118505  26.854   5.946  10.489 -0.2107  0.0453  0.0730
  772BOLB   PO118506  26.406   6.009  10.487  0.4456 -0.2440  0.0972
  772BOLB   GL118507  25.968   6.103  10.663 -0.0388  0.1681  0.0835
  772BOLB   GL218508  25.762   5.962  10.486 -0.0715  0.0010  0.0187
  772BOLB   C1A18509  25.691   6.482  10.785 -0.3225 -0.1197  0.1574
  772BOLB   C2A18510  25.179   6.473  10.909 -0.2411 -0.1289  0.2242
  772BOLB   C3A18511  24.714   6.491  11.142 -0.1906  0.2256  0.3119
  772BOLB   C4A18512  24.485   6.201  11.434  0.2233 -0.0501 -0.0473
  772BOLB   C1B18513  25.296   6.302  10.352  0.2307 -0.2281  0.0243
  772BOLB   C2B18514  25.070   6.606  10.359  0.1041  0.1035 -0.0589
  772BOLB   C3B18515  24.642   6.671  10.348  0.1679  0.1633  0.3038
  772BOLB   C4B18516  24.325   6.794  10.679 -0.0529  0.2013  0.1763
  772BOLB   NC218517  26.911   4.916  11.536 -0.0814 -0.3067 -0.3591
  772BOLB   PO218518  26.558   4.810  11.785  0.0782 -0.2068  0.0530
  772BOLB   GL318519  26.143   5.094  11.848  0.0820  0.2657 -0.1081
  772BOLB   GL418520  26.093   5.158  11.483  0.1976  0.0197  0.2953
  772BOLB   C1C18521  25.655   5.259  11.790  0.2110 -0.0339 -0.2879
  772BOLB   C2C18522  25.248   5.468  11.801 -0.0615 -0.1540 -0.3286
  772BOLB   C3C18523  25.004   5.755  11.911 -0.1543  0.0621  0.1055
  772BOLB   C4C18524  24.763   5.910  11.626  0.1413 -0.0991  0.1736
  772BOLB   C1D18525  25.975   5.615  11.571  0.0977  0.1194  0.1974
  772BOLB   C2D18526  25.636   5.828  11.620 -0.0046  0.0394  0.0805
  772BOLB   C3D18527  25.362   6.099  11.770 -0.0015 -0.0050 -0.3198
  772BOLB   C4D18528  25.060   6.315  12.036  0.2094 -0.1765  0.2487
  773BOLB   NC118529  18.985  16.583  11.095 -0.0872  0.0196 -0.1444
  773BOLB   PO118530  18.899  16.458  10.636  0.3167 -0.0750 -0.1532
  773BOLB   GL118531  19.019  16.731  10.264 -0.0880 -0.2279 -0.1041
  773BOLB   GL218532  19.216  16.563  10.090 -0.3626  0.2860  0.1340
  773BOLB   C1A18533  19.085  17.112  10.029 -0.1438  0.1715  0.2933
  773BOLB   C2A18534  19.033  17.382   9.636  0.0868  0.0657  0.0931
  773BOLB   C3A18535  19.220  17.538   9.253  0.0304 -0.2951  0.1059
  773BOLB   C4A18536  19.471  17.850   9.059  0.2524 -0.1022  0.4406
  773BOLB   C1B18537  19.377  16.695   9.733  0.0406  0.0771  0.2642
  773BOLB   C2B18538  19.494  16.630   9.402  0.1248 -0.2454 -0.2736
  773BOLB   C3B18539  19.583  16.687   8.997  0.0822  0.2769 -0.2356
  773BOLB   C4B18540  19.598  16.724   8.671 -0.2178  0.0110 -0.2067
  773BOLB   NC218541  18.657  19.834   8.291 -0.0163  0.0385  0.1333
  773BOLB   PO218542  19.217  19.694   8.341 -0.1013 -0.1919  0.0053
  773BOLB   GL318543  19.143  19.346   8.485  0.1645 -0.1756 -0.4437
  773BOLB   GL418544  18.880  19.409   8.682 -0.1068 -0.2577 -0.5312
  773BOLB   C1C18545  19.116  18.976   8.689 -0.4056  0.2809 -0.2794
  773BOLB   C2C18546  19.414  18.762   8.954 -0.0119 -0.2934  0.2633
  773BOLB   C3C18547  19.783  18.491   9.176 -0.3363  0.1991 -0.1366
  773BOLB   C4C18548  19.666  18.063   9.359  0.1216  0.0671 -0.0004
  773BOLB   C1D18549  18.511  19.322   8.719  0.0503 -0.1545 -0.3396
  773BOLB   C2D18550  18.155  19.018   8.914  0.3786  0.0591 -0.1111
  773BOLB   C3D18551  17.969  18.966   9.275 -0.0636  0.1065 -0.0491
  773BOLB   C4D18552  17.880  18.852   9.737  0.0353  0.2472  0.0473
  774BOLB   NC118553  26.270  14.250  21.561 -0.1065  0.1060 -0.0437
  774BOLB   PO118554  26.033  14.476  21.818  0.0410 -0.5290 -0.0752
  774BOLB   GL118555  25.708  14.543  21.477  0.0746 -0.0960 -0.0914
  774BOLB   GL218556  25.769  14.844  21.326 -0.0985 -0.0554 -0.0599
  774BOLB   C1A18557  25.479  14.414  21.124 -0.0732  0.2802 -0.0246
  774BOLB   C2A18558  25.316  14.031  20.969 -0.4746  0.0170  0.0178
  774BOLB   C3A18559  25.017  13.812  20.764  0.1370 -0.0077 -0.1464
  774BOLB   C4A18560  25.124  13.387  20.525 -0.1045  0.0002 -0.0122
  774BOLB   C1B18561  25.382  14.905  21.059 -0.2219  0.1619 -0.3775
  774BOLB   C2B18562  25.031  14.540  21.044  0.0757 -0.1275 -0.0501
  774BOLB   C3B18563  24.654  14.240  21.007  0.0967  0.1471 -0.0533
  774BOLB   C4B18564  24.239  14.320  21.008 -0.1409  0.2120  0.0278
  774BOLB   NC218565  27.745  12.536  19.715  0.1966  0.2443 -0.1484
  774BOLB   PO218566  27.634  12.812  20.030 -0.0924  0.1416 -0.2169
  774BOLB   GL318567  27.300  12.775  19.898 -0.0084 -0.1838  0.4597
  774BOLB   GL418568  27.158  12.681  19.588  0.1086  0.0046 -0.0412
  774BOLB   C1C18569  26.811  12.818  19.898  0.0923  0.1402 -0.0103
  774BOLB   C2C18570  26.332  12.983  20.131 -0.0106 -0.0167 -0.0160
  774BOLB   C3C18571  25.927  12.881  20.115 -0.1485  0.0883 -0.1406
  774BOLB   C4C18572  25.508  13.054  20.336  0.2844 -0.0859 -0.0322
  774BOLB   C1D18573  26.789  12.447  19.418 -0.2183  0.1939 -0.2498
  774BOLB   C2D18574  26.473  12.094  19.087 -0.0032 -0.1848  0.2055
  774BOLB   C3D18575  26.099  12.259  18.960 -0.0648 -0.0721 -0.1640
  774BOLB   C4D18576  25.838  12.428  18.891 -0.0509  0.3207 -0.1689
  775BOLB   NC118577   9.406  12.440   2.482 -0.2986  0.2274 -0.2837
  775BOLB   PO118578   9.900  12.447   2.322 -0.1851 -0.2847 -0.3063
  775BOLB   GL118579  10.027  12.319   2.669  0.2413 -0.1258 -0.0397
  775BOLB   GL218580   9.732  12.077   2.701  0.0457 -0.0380 -0.1841
  775BOLB   C1A18581  10.038  12.410   3.076  0.0183  0.2296  0.0912
  775BOLB   C2A18582  10.377  12.408   3.354 -0.1562 -0.1478  0.0216
  775BOLB   C3A18583  10.644  12.179   3.562  0.1054  0.3417  0.0669
  775BOLB   C4A18584  10.623  12.071   4.061 -0.2054 -0.1563  0.1846
  775BOLB   C1B18585   9.667  12.022   3.134 -0.0525 -0.2781  0.0594
  775BOLB   C2B18586   9.753  11.985   3.457 -0.0347  0.0298  0.0294
  775BOLB   C3B18587   9.805  11.620   3.646 -0.0943 -0.0706 -0.2002
  775BOLB   C4B18588   9.854  11.407   3.341  0.2324 -0.0104  0.0413
  775BOLB   NC218589  10.587  13.961   3.483  0.0631  0.2128  0.2441
  775BOLB   PO218590  10.467  14.036   3.700  0.1511  0.2917 -0.4036
  775BOLB   GL318591  10.237  13.762   3.949 -0.3467 -0.1326  0.2355
  775BOLB   GL418592  10.328  13.666   4.295 -0.0496 -0.0987  0.0383
  775BOLB   C1C18593   9.971  13.361   4.173  0.0239  0.0577 -0.0438
  775BOLB   C2C18594   9.941  13.006   4.433 -0.0405  0.0384 -0.1807
  775BOLB   C3C18595  10.133  12.574   4.549  0.0232 -0.4601  0.2551
  775BOLB   C4C18596  10.395  12.275   4.248  0.3050 -0.0398  0.0986
  775BOLB   C1D18597  10.393  13.337   4.572 -0.2452 -0.0243 -0.3662
  775BOLB   C2D18598  10.580  13.182   4.876  0.2884 -0.3445  0.0997
  775BOLB   C3D18599  10.606  12.774   4.964  0.0552 -0.3601 -0.0633
  775BOLB   C4D18600  10.553  12.442   5.177  0.4811 -0.3062 -0.1633
  776BOLB   NC118601  15.348   1.304  16.070 -0.0328  0.0804  0.2127
  776BOLB   PO118602  15.527   1.296  16.457  0.2030  0.1014 -0.1557
  776BOLB   GL118603  15.390   0.953  16.687  0.1158 -0.3050 -0.1667
  776BOLB   GL218604  15.191   0.704  16.814 -0.0951 -0.2954  0.1435
  776BOLB   C1A18605  15.676   0.669  16.840  0.1976 -0.1267  0.0587
  776BOLB   C2A18606  15.654   0.329  17.176  0.2692 -0.0133  0.0224
  776BOLB   C3A18607  15.385   0.027  17.281  0.0242 -0.2096  0.1967
  776BOLB   C4A18608  15.091  -0.127  17.647 -0.1769 -0.0047  0.1702
  776BOLB   C1B18609  15.199   0.259  16.824 -0.5577 -0.0068  0.1855
  776BOLB   C2B18610  14.910  -0.104  16.619 -0.1831  0.0589 -0.2462
  776BOLB   C3B18611  14.675  -0.467  16.579 -0.1180  0.1565  0.0364
  776BOLB   C4B18612  14.450  -0.799  16.484 -0.3232 -0.2044 -0.0434
  776BOLB   NC218613  14.639  -2.491  18.861  0.1088  0.0610  0.2890
  776BOLB   PO218614  14.242  -2.212  18.931  0.0440  0.0025 -0.1382
  776BOLB   GL318615  14.415  -1.856  18.778  0.0184 -0.1291  0.0299
  776BOLB   GL418616  14.382  -1.823  18.498  0.2299 -0.0609  0.0652
  776BOLB   C1C18617  14.585  -1.343  18.861 -0.1931 -0.2025 -0.0767
  776BOLB   C2C18618  14.737  -0.894  18.709  0.2904 -0.2009 -0.1747
  776BOLB   C3C18619  14.909  -0.494  18.359 -0.2716  0.2432  0.3821
  776BOLB   C4C18620  14.992  -0.196  18.008  0.0528 -0.0705 -0.1156
  776BOLB   C1D18621  14.569  -1.404  18.361  0.0263  0.2657 -0.0611
  776BOLB   C2D18622  14.447  -0.987  18.332  0.0913 -0.1228 -0.1520
  776BOLB   C3D18623  14.193  -0.723  18.426  0.0157  0.1927 -0.0384
  776BOLB   C4D18624  13.887  -0.481  18.413  0.0904 -0.0795 -0.3664
  777BOLB   NC118625   5.694  14.574   9.285  0.2513 -0.1326  0.0042
  777BOLB   PO118626   6.005  14.747   9.001 -0.0474  0.2632 -0.1202
  777BOLB   GL118627   6.319  14.544   9.102 -0.0194 -0.0594  0.2449
  777BOLB   GL218628   6.536  14.545   9.465 -0.3283 -0.0697 -0.1875
  777BOLB   C1A18629   6.492  14.185   9.061  0.4574 -0.0943  0.0393
  777BOLB   C2A18630   6.791  13.895   8.887 -0.0585 -0.0901  0.1423
  777BOLB   C3A18631   7.104  14.108   8.748  0.0907 -0.1013 -0.0588
  777BOLB   C4A18632   7.427  14.046   8.401 -0.0466  0.0358 -0.1102
  777BOLB   C1B18633   6.708  14.125   9.518  0.1459 -0.1528  0.0672
  777BOLB   C2B18634   6.760  13.612   9.419  0.2184 -0.2287 -0.0792
  777BOLB   C3B18635   6.655  13.211   9.395  0.0272  0.0977  0.2186
  777BOLB   C4B18636   6.579  12.887   9.121 -0.0991 -0.1749  0.0434
  777BOLB   NC218637   8.062  14.517   6.149  0.1428 -0.1186 -0.0588
  777BOLB   PO218638   8.344  14.706   6.335 -0.3206  0.1591 -0.1577
  777BOLB   GL318639   8.517  14.323   6.633  0.4543  0.2163  0.1459
  777BOLB   GL418640   8.334  14.075   6.472 -0.0610 -0.6311 -0.1978
  777BOLB   C1C18641   8.319  14.133   6.983 -0.1572  0.0922 -0.0459
  777BOLB   C2C18642   8.307  13.928   7.426  0.2399  0.0486  0.2005
  777BOLB   C3C18643   7.960  13.981   7.747  0.1735 -0.2675  0.3464
  777BOLB   C4C18644   7.614  14.096   7.968  0.1817 -0.4538 -0.0864
  777BOLB   C1D18645   8.327  13.716   6.708 -0.2111 -0.1065 -0.2098
  777BOLB   C2D18646   8.172  13.447   6.866  0.0855 -0.0788  0.2032
  777BOLB   C3D18647   8.124  13.034   6.662  0.1792  0.0865  0.2207
  777BOLB   C4D18648   8.151  12.606   6.579 -0.0680 -0.0993 -0.1946
  778BOLB   NC118649   4.927  34.810  12.015 -0.0043 -0.1049 -0.2803
  778BOLB   PO118650   5.191  34.983  12.342 -0.3589  0.1485 -0.2760
  778BOLB   GL118651   5.493  35.269  12.305 -0.0134 -0.1673 -0.0210
  778BOLB   GL218652   5.484  35.456  12.575  0.0789 -0.4236 -0.1529
  778BOLB   C1A18653   5.841  35.262  12.296  0.0913  0.1825  0.3651
  778BOLB   C2A18654   6.286  35.340  12.317 -0.1200  0.2357 -0.1406
  778BOLB   C3A18655   6.736  35.467  12.153 -0.0740  0.4040  0.0565
  778BOLB   C4A18656   7.172  35.513  12.032 -0.1030  0.1125  0.0365
  778BOLB   C1B18657   5.817  35.757  12.609  0.0025  0.3693 -0.1961
  778BOLB   C2B18658   6.196  35.820  12.673 -0.2239  0.0986 -0.2753
  778BOLB   C3B18659   6.572  36.019  12.580  0.0920  0.2093  0.0979
  778BOLB   C4B18660   7.112  35.964  12.355  0.0242 -0.0064 -0.1220
  778BOLB   NC218661   7.037  33.540  13.180 -0.0627  0.0123  0.0707
  778BOLB   PO218662   7.449  33.280  12.952 -0.1531  0.0687 -0.1290
  778BOLB   GL318663   7.483  33.781  12.901 -0.2153  0.0802  0.0433
  778BOLB   GL418664   7.498  33.808  13.221  0.1551 -0.0620 -0.1220
  778BOLB   C1C18665   7.718  34.168  12.802 -0.0938 -0.0771  0.1642
  778BOLB   C2C18666   7.686  34.622  12.827 -0.0737  0.0393 -0.2541
  778BOLB   C3C18667   7.583  34.903  12.485 -0.1145  0.1319  0.1184
  778BOLB   C4C18668   7.507  35.326  12.213 -0.1314 -0.0149 -0.2553
  778BOLB   C1D18669   7.262  34.226  13.081  0.1140 -0.1058 -0.0683
  778BOLB   C2D18670   7.347  34.688  13.221 -0.3254 -0.0410 -0.0544
  778BOLB   C3D18671   7.350  35.059  12.919 -0.1474 -0.2113  0.1353
  778BOLB   C4D18672   7.582  35.385  12.710 -0.1415 -0.1166  0.1943
  779BOLB   NC118673  16.817  14.719   9.123  0.0486 -0.0345  0.1786
  779BOLB   PO118674  16.816  15.106   9.008  0.4391 -0.0633 -0.1487
  779BOLB   GL118675  16.888  15.267   8.701  0.1238  0.4257 -0.0602
  779BOLB   GL218676  17.033  15.457   8.688  0.2129  0.0899  0.0337
  779BOLB   C1A18677  16.584  15.552   8.481 -0.1713  0.4753 -0.3757
  779BOLB   C2A18678  16.291  15.862   8.405  0.0814  0.5582  0.2597
  779BOLB   C3A18679  16.153  15.982   7.940 -0.3735  0.3555  0.0591
  779BOLB   C4A18680  16.121  15.891   7.579  0.1201 -0.1848  0.3615
  779BOLB   C1B18681  17.162  15.636   8.299 -0.2813 -0.5096  0.2272
  779BOLB   C2B18682  17.419  15.715   7.999  0.0410 -0.0335 -0.1651
  779BOLB   C3B18683  17.572  16.085   7.789  0.1029 -0.0109 -0.2458
  779BOLB   C4B18684  17.966  16.306   7.861 -0.0741 -0.2194  0.2352
  779BOLB   NC218685  15.300  16.513   5.322  0.2912  0.1254 -0.0005
  779BOLB   PO218686  15.805  16.456   5.375  0.0157  0.1873 -0.3500
  779BOLB   GL318687  15.605  16.367   5.832 -0.0531  0.3414  0.0074
  779BOLB   GL418688  15.308  16.156   5.834  0.0705  0.1347 -0.1087
  779BOLB   C1C18689  15.782  16.314   6.162 -0.1049  0.2013 -0.0981
  779BOLB   C2C18690  15.694  16.241   6.541  0.2858 -0.2405 -0.0461
  779BOLB   C3C18691  15.790  15.944   6.811 -0.4137 -0.1393  0.0557
  779BOLB   C4C18692  15.842  15.793   7.282  0.1661 -0.1652  0.0670
  779BOLB   C1D18693  15.266  16.289   6.242 -0.1757 -0.0549 -0.2131
  779BOLB   C2D18694  15.407  16.627   6.507 -0.1049  0.1197 -0.0888
  779BOLB   C3D18695  15.726  16.811   6.594  0.3493  0.0825 -0.0788
  779BOLB   C4D18696  15.746  17.278   6.645  0.3533 -0.0532  0.0191
  780BOLB   NC118697   9.501  32.082  12.183  0.0117  0.1531 -0.1086
  780BOLB   PO118698   9.947  32.168  12.016 -0.0118 -0.1035 -0.0330
  780BOLB   GL118699  10.249  32.429  12.151 -0.0339  0.1941  0.0541
  780BOLB   GL218700  10.595  32.491  12.000  0.1968 -0.1378 -0.1928
  780BOLB   C1A18701  10.448  32.713  12.473  0.0327  0.1134  0.0427
  780BOLB   C2A18702  10.324  33.198  12.511  0.0423  0.0448 -0.1889
  780BOLB   C3A18703  10.340  33.324  12.877  0.0650  0.0473 -0.0834
  780BOLB   C4A18704  10.182  33.261  13.316 -0.3770 -0.0038 -0.1217
  780BOLB   C1B18705  10.806  32.853  12.195 -0.0448 -0.2592  0.1910
  780BOLB   C2B18706  10.844  33.315  12.270  0.0407  0.1149 -0.1457
  780BOLB   C3B18707  10.582  33.539  12.246 -0.0987 -0.0659  0.1108
  780BOLB   C4B18708  10.224  33.670  12.453  0.1544 -0.0693  0.0100
  780BOLB   NC218709   8.400  32.775  15.050 -0.0929 -0.0102  0.1154
  780BOLB   PO218710   8.769  32.617  14.743 -0.0220 -0.0427 -0.0052
  780BOLB   GL318711   9.143  32.699  14.753  0.0908  0.0326  0.2716
  780BOLB   GL418712   9.405  32.812  14.956 -0.1107 -0.1101 -0.2393
  780BOLB   C1C18713   9.518  32.821  14.455 -0.2954  0.0037 -0.2069
  780BOLB   C2C18714   9.720  33.203  14.371 -0.3457  0.2678 -0.1904
  780BOLB   C3C18715   9.868  33.173  13.998 -0.0886  0.0308 -0.2390
  780BOLB   C4C18716  10.039  33.241  13.631 -0.0523 -0.1342 -0.2124
  780BOLB   C1D18717   9.359  33.209  14.739  0.2935  0.2247 -0.2206
  780BOLB   C2D18718   9.303  33.502  14.532  0.0067 -0.1861 -0.0389
  780BOLB   C3D18719   9.010  33.623  14.268  0.2563  0.0512  0.1488
  780BOLB   C4D18720   8.770  33.753  13.917 -0.1226  0.4029 -0.0046
  781BOLB   NC118721  22.667  13.860  12.615  0.4294 -0.1406  0.6334
  781BOLB   PO118722  22.327  13.928  12.273 -0.4000 -0.0474 -0.2167
  781BOLB   GL118723  22.643  13.959  11.908  0.0731  0.0823 -0.1224
  781BOLB   GL218724  22.530  14.238  11.663  0.0374  0.1232 -0.0047
  781BOLB   C1A18725  22.976  13.912  11.586  0.0910  0.0499 -0.0066
  781BOLB   C2A18726  23.205  14.169  11.271  0.0427 -0.0427  0.0228
  781BOLB   C3A18727  23.452  14.089  10.995  0.0679 -0.1239  0.3012
  781BOLB   C4A18728  23.573  14.168  10.580 -0.0087 -0.0322  0.0661
  781BOLB   C1B18729  22.901  14.523  11.455  0.0567 -0.0331 -0.0498
  781BOLB   C2B18730  23.374  14.580  11.508  0.1792  0.0400  0.0063
  781BOLB   C3B18731  23.636  14.345  11.489  0.2882  0.0592 -0.0073
  781BOLB   C4B18732  23.601  14.162  11.743  0.0274  0.0939 -0.3049
  781BOLB   NC218733  25.968  14.055   9.744 -0.1902 -0.0282  0.0590
  781BOLB   PO218734  25.900  14.463   9.589  0.2299  0.2469  0.1010
  781BOLB   GL318735  25.465  14.399   9.590  0.0172 -0.0034 -0.0902
  781BOLB   GL418736  25.283  14.256   9.285 -0.0382 -0.0170 -0.1456
  781BOLB   C1C18737  25.105  14.149   9.781 -0.4325  0.4192  0.2531
  781BOLB   C2C18738  24.680  14.313   9.900  0.0259  0.0617 -0.2878
  781BOLB   C3C18739  24.249  14.447  10.186  0.2497  0.1102 -0.0664
  781BOLB   C4C18740  23.947  14.180  10.346  0.0810  0.0822 -0.3040
  781BOLB   C1D18741  24.808  14.044   9.407 -0.0650  0.0101 -0.0716
  781BOLB   C2D18742  24.594  13.814   9.773 -0.2199  0.0507 -0.1112
  781BOLB   C3D18743  24.487  13.516  10.002  0.0658  0.0760 -0.1139
  781BOLB   C4D18744  24.417  13.171  10.144  0.0067 -0.1294  0.1455
  782BOLB   NC118745   9.862   9.038  14.075  0.1930  0.4292 -0.0079
  782BOLB   PO118746  10.083   8.735  14.377 -0.4298  0.0758  0.3464
  782BOLB   GL118747   9.753   8.473  14.201  0.1294  0.1506  0.1062
  782BOLB   GL218748   9.810   8.568  13.905 -0.0402  0.0265  0.2402
  782BOLB   C1A18749   9.335   8.413  14.432  0.1012 -0.0365 -0.4903
  782BOLB   C2A18750   8.879   8.439  14.454  0.3607 -0.0230  0.1144
  782BOLB   C3A18751   8.527   8.096  14.376 -0.1510 -0.2667 -0.0476
  782BOLB   C4A18752   8.547   7.632  14.445 -0.0873 -0.2674 -0.0794
  782BOLB   C1B18753   9.388   8.332  13.896  0.2732  0.1810  0.1840
  782BOLB   C2B18754   9.002   8.393  13.627 -0.1431  0.0279  0.3426
  782BOLB   C3B18755   8.781   8.406  13.238  0.1331 -0.1991 -0.0809
  782BOLB   C4B18756   8.504   8.126  13.063  0.2115 -0.2560 -0.1286
  782BOLB   NC218757   9.654   7.649  15.912  0.1161 -0.1256 -0.2524
  782BOLB   PO218758   9.980   7.560  15.821  0.2776 -0.0328 -0.1774
  782BOLB   GL318759   9.711   7.440  15.450  0.1458 -0.3663  0.1928
  782BOLB   GL418760   9.427   7.455  15.486 -0.2225 -0.0484 -0.4152
  782BOLB   C1C18761   9.630   7.455  14.993 -0.1095  0.1435  0.0629
  782BOLB   C2C18762   9.410   7.339  14.710 -0.0356  0.0114 -0.1465
  782BOLB   C3C18763   9.046   7.133  14.521 -0.1202 -0.2303  0.2501
  782BOLB   C4C18764   8.682   7.230  14.501  0.5726 -0.1504 -0.2546
  782BOLB   C1D18765   9.168   7.541  15.103 -0.0959 -0.2351 -0.1175
  782BOLB   C2D18766   8.997   7.614  14.708  0.2460 -0.0761 -0.0123
  782BOLB   C3D18767   9.020   7.937  14.432 -0.0488  0.0805  0.0771
  782BOLB   C4D18768   8.923   8.166  14.034 -0.0463  0.0450  0.3807
  783BOLB   NC118769  13.799   2.276   1.870  0.1438  0.2593  0.2867
  783BOLB   PO118770  13.378   2.479   1.835 -0.1787  0.1963  0.2688
  783BOLB   GL118771  13.254   2.694   2.222 -0.1739 -0.0116  0.2021
  783BOLB   GL218772  12.924   2.635   2.333  0.0557 -0.0327 -0.0639
  783BOLB   C1A18773  13.405   3.100   2.310  0.0169 -0.1957  0.0991
  783BOLB   C2A18774  13.877   3.160   2.395  0.0912 -0.0839 -0.0974
  783BOLB   C3A18775  14.253   3.493   2.528  0.3031  0.1257 -0.0835
  783BOLB   C4A18776  14.517   3.730   2.736 -0.2948 -0.2318  0.0962
  783BOLB   C1B18777  12.878   3.104   2.441  0.0620  0.0717  0.0855
  783BOLB   C2B18778  13.028   3.464   2.686 -0.0622  0.3235 -0.0707
  783BOLB   C3B18779  13.296   3.746   2.928  0.0276 -0.3078  0.0255
  783BOLB   C4B18780  13.188   4.103   3.133  0.1048  0.0744  0.1200
  783BOLB   NC218781  15.478   2.686   1.354 -0.3449  0.3166 -0.1486
  783BOLB   PO218782  15.771   2.430   1.584 -0.3035 -0.1722  0.0619
  783BOLB   GL318783  15.708   2.715   1.907 -0.1286 -0.2796 -0.3559
  783BOLB   GL418784  15.297   2.723   1.975  0.1012 -0.1475  0.0436
  783BOLB   C1C18785  15.777   3.003   2.168 -0.2747 -0.0244  0.0361
  783BOLB   C2C18786  15.495   3.240   2.539  0.0967  0.2137  0.0431
  783BOLB   C3C18787  15.113   3.514   2.463  0.0949 -0.0223 -0.2206
  783BOLB   C4C18788  14.863   3.623   2.747  0.3550  0.0055 -0.1020
  783BOLB   C1D18789  15.454   2.561   2.393 -0.0848 -0.0942 -0.0178
  783BOLB   C2D18790  15.651   2.718   2.632  0.2481 -0.0902 -0.2291
  783BOLB   C3D18791  16.075   2.915   2.623 -0.0168 -0.2119  0.2697
  783BOLB   C4D18792  16.471   3.012   2.650 -0.2071 -0.5281 -0.1744
  784BOLB   NC118793  18.399  18.865   6.656  0.1945 -0.2275 -0.0532
  784BOLB   PO118794  18.322  18.853   7.045  0.2093  0.3143 -0.0535
  784BOLB   GL118795  17.987  18.695   7.267  0.2922  0.1026  0.2741
  784BOLB   GL218796  17.934  18.986   7.483  0.3277  0.2840 -0.1847
  784BOLB   C1A18797  17.686  18.293   7.361  0.4560 -0.1357  0.1678
  784BOLB   C2A18798  17.475  17.990   7.456 -0.0638 -0.1776 -0.1132
  784BOLB   C3A18799  17.435  17.790   7.889  0.1328  0.2049 -0.1527
  784BOLB   C4A18800  17.610  17.682   8.183  0.0859  0.0876 -0.1553
  784BOLB   C1B18801  17.607  18.814   7.719 -0.0169 -0.0733  0.0551
  784BOLB   C2B18802  17.337  18.534   7.639  0.0138 -0.0118 -0.1055
  784BOLB   C3B18803  17.096  18.130   7.794  0.0350 -0.2563  0.0650
  784BOLB   C4B18804  16.904  18.287   8.170  0.2046  0.1938 -0.1806
  784BOLB   NC218805  19.094  18.697   7.203 -0.1202  0.0659  0.0450
  784BOLB   PO218806  18.655  18.504   7.041 -0.0965  0.1454  0.1649
  784BOLB   GL318807  18.446  18.104   7.121  0.1556  0.0733  0.0730
  784BOLB   GL418808  18.236  18.242   7.311 -0.1811 -0.5504  0.1553
  784BOLB   C1C18809  18.506  17.804   7.542  0.1386 -0.1515  0.0901
  784BOLB   C2C18810  18.535  17.612   7.968  0.4393  0.2295  0.0380
  784BOLB   C3C18811  18.250  17.300   8.212 -0.1002 -0.0860 -0.2761
  784BOLB   C4C18812  17.796  17.368   8.211  0.2153 -0.1163  0.1615
  784BOLB   C1D18813  18.250  18.293   7.638 -0.0443  0.1644 -0.0924
  784BOLB   C2D18814  18.328  18.130   8.003 -0.1821  0.0167  0.1354
  784BOLB   C3D18815  18.208  17.906   8.276 -0.1092  0.0684  0.0694
  784BOLB   C4D18816  17.999  17.632   8.555  0.0031  0.2278  0.1099
  785BOLB   NC118817  11.134  17.308  16.306 -0.3063  0.3361  0.2577
  785BOLB   PO118818  11.167  17.069  16.633  0.2027  0.1764  0.3641
  785BOLB   GL118819  10.990  17.449  16.797  0.0423 -0.1569  0.2921
  785BOLB   GL218820  10.768  17.565  16.436 -0.2011 -0.0019 -0.1144
  785BOLB   C1A18821  11.124  17.775  16.698  0.4561 -0.0216  0.0998
  785BOLB   C2A18822  10.944  18.109  16.864  0.1962 -0.1679 -0.1829
  785BOLB   C3A18823  10.789  18.309  17.201  0.0936 -0.0826 -0.1360
  785BOLB   C4A18824  10.748  18.728  17.161 -0.0526 -0.0037 -0.2852
  785BOLB   C1B18825  10.643  17.970  16.513  0.3536  0.2036 -0.1327
  785BOLB   C2B18826  10.485  18.261  16.830 -0.2085 -0.1910 -0.4451
  785BOLB   C3B18827  10.153  18.495  16.988 -0.3460  0.0709 -0.2344
  785BOLB   C4B18828   9.731  18.405  16.720 -0.1697 -0.2075 -0.2043
  785BOLB   NC218829   8.759  19.980  17.457  0.1270  0.1978  0.2826
  785BOLB   PO218830   8.928  20.163  17.172  0.2695 -0.1722 -0.1026
  785BOLB   GL318831   9.166  19.917  17.031 -0.0947  0.2758  0.1286
  785BOLB   GL418832   9.549  19.862  17.172 -0.0856 -0.1588  0.0213
  785BOLB   C1C18833   9.359  19.498  17.009 -0.0112  0.1503 -0.0050
  785BOLB   C2C18834   9.821  19.331  17.009  0.0756  0.2936  0.0619
  785BOLB   C3C18835  10.105  19.027  17.229  0.0879 -0.2197  0.1108
  785BOLB   C4C18836  10.448  18.966  17.176  0.3914 -0.2152 -0.0011
  785BOLB   C1D18837   9.920  19.875  17.047  0.2997  0.0320 -0.2775
  785BOLB   C2D18838  10.263  19.781  16.855 -0.3106 -0.4966 -0.1929
  785BOLB   C3D18839  10.304  19.350  16.867 -0.0590  0.0686 -0.1416
  785BOLB   C4D18840  10.495  18.946  16.672 -0.0006 -0.2708 -0.3245
  786BOLB   NC118841   5.975  34.675  11.030 -0.1610 -0.2372  0.1808
  786BOLB   PO118842   5.484  34.777  11.045 -0.1216 -0.0899 -0.0026
  786BOLB   GL118843   5.699  35.026  11.310 -0.3566 -0.0987  0.0729
  786BOLB   GL218844   6.015  35.005  11.444 -0.1290 -0.0654 -0.0792
  786BOLB   C1A18845   5.800  35.430  11.250 -0.1905 -0.0478  0.0398
  786BOLB   C2A18846   6.195  35.557  11.292 -0.2345  0.2354 -0.2466
  786BOLB   C3A18847   6.605  35.872  11.381 -0.4063 -0.1791 -0.1662
  786BOLB   C4A18848   6.654  36.358  11.259 -0.4771  0.1714 -0.2074
  786BOLB   C1B18849   6.341  34.917  11.772  0.0418  0.0098  0.0463
  786BOLB   C2B18850   6.709  35.037  11.871 -0.1589 -0.3545 -0.0051
  786BOLB   C3B18851   7.050  35.038  12.042 -0.0995  0.1008  0.3346
  786BOLB   C4B18852   7.329  34.845  12.081  0.1082 -0.2581  0.2405
  786BOLB   NC218853   5.790  35.564   9.303  0.1488 -0.2155 -0.2057
  786BOLB   PO218854   6.137  35.525   9.066  0.1918 -0.2299 -0.0922
  786BOLB   GL318855   6.325  35.689   9.471 -0.0728  0.0010 -0.3077
  786BOLB   GL418856   6.054  35.976   9.450  0.1249  0.3626  0.1856
  786BOLB   C1C18857   6.552  36.004   9.770 -0.0080  0.1957  0.0196
  786BOLB   C2C18858   6.374  36.363  10.103 -0.2681 -0.2211 -0.0267
  786BOLB   C3C18859   6.367  36.667  10.531 -0.1409 -0.1295 -0.0721
  786BOLB   C4C18860   6.580  36.654  10.933 -0.3218  0.1965  0.2182
  786BOLB   C1D18861   6.390  36.156   9.346  0.1059 -0.0379  0.0779
  786BOLB   C2D18862   6.789  36.167   9.295 -0.2867 -0.1721 -0.1350
  786BOLB   C3D18863   7.109  35.903   9.557  0.0300  0.1384 -0.1338
  786BOLB   C4D18864   7.151  35.826   9.968  0.0701  0.2850 -0.0907
  787BOLB   NC118865  14.880   0.120   3.480  0.1950 -0.0706  0.1731
  787BOLB   PO118866  15.113   0.227   3.074 -0.0013 -0.3112 -0.3999
  787BOLB   GL118867  14.975   0.725   3.166 -0.3509  0.2401  0.0478
  787BOLB   GL218868  14.782   0.613   3.469 -0.1160 -0.1718  0.1598
  787BOLB   C1A18869  15.085   1.033   3.605 -0.3697  0.2925 -0.0732
  787BOLB   C2A18870  15.242   1.390   3.750  0.2320  0.2253 -0.0234
  787BOLB   C3A18871  15.127   1.751   3.871  0.1309 -0.1950 -0.0980
  787BOLB   C4A18872  14.803   2.061   3.738 -0.1776 -0.3485 -0.2572
  787BOLB   C1B18873  14.571   0.921   3.537 -0.1303 -0.0947  0.3351
  787BOLB   C2B18874  14.530   1.232   3.873 -0.2016  0.1691 -0.1581
  787BOLB   C3B18875  14.622   1.537   4.189  0.0982 -0.4506  0.1879
  787BOLB   C4B18876  14.379   1.845   4.214  0.0615  0.0232  0.0344
  787BOLB   NC218877  13.688   0.523   2.535 -0.0310  0.4914 -0.1116
  787BOLB   PO218878  13.590   0.479   3.086  0.0554  0.0295  0.0770
  787BOLB   GL318879  13.769   0.799   3.471 -0.0144  0.4687  0.1675
  787BOLB   GL418880  13.511   0.968   3.618  0.0743 -0.1090  0.0175
  787BOLB   C1C18881  14.092   1.086   3.628 -0.4314 -0.2988  0.0751
  787BOLB   C2C18882  14.315   1.317   3.347  0.0712  0.0905 -0.3155
  787BOLB   C3C18883  14.350   1.749   3.210 -0.4298  0.4248  0.0446
  787BOLB   C4C18884  14.511   2.090   3.368 -0.1886  0.0500 -0.4279
  787BOLB   C1D18885  13.717   1.216   3.880 -0.2817  0.0001 -0.0031
  787BOLB   C2D18886  13.867   1.029   4.362  0.1459 -0.0971  0.1236
  787BOLB   C3D18887  13.999   1.097   4.690 -0.2448 -0.2385 -0.0846
  787BOLB   C4D18888  14.196   0.892   4.866  0.1480 -0.1090 -0.0386
  788BOLB   NC118889  15.772  31.736  12.500  0.3710  0.1076 -0.2164
  788BOLB   PO118890  15.759  32.213  12.502 -0.2597  0.1209 -0.1139
  788BOLB   GL118891  15.930  32.641  12.554  0.1266  0.1449 -0.0238
  788BOLB   GL218892  15.803  32.764  12.299 -0.2795  0.1705  0.3749
  788BOLB   C1A18893  15.701  33.032  12.656 -0.5411 -0.2868 -0.4040
  788BOLB   C2A18894  15.340  33.211  12.781  0.1524  0.1203 -0.1689
  788BOLB   C3A18895  14.880  33.374  12.718  0.0094 -0.2585  0.0538
  788BOLB   C4A18896  14.469  33.386  12.759  0.0243  0.0043  0.0370
  788BOLB   C1B18897  15.355  32.623  12.091  0.0129  0.2430 -0.0739
  788BOLB   C2B18898  14.918  32.449  12.325 -0.1150  0.0462 -0.1508
  788BOLB   C3B18899  14.540  32.508  12.582 -0.3127 -0.5420 -0.2187
  788BOLB   C4B18900  14.285  32.787  12.764  0.0255  0.4535 -0.2492
  788BOLB   NC218901  13.347  31.822  14.540  0.0682 -0.0875 -0.2238
  788BOLB   PO218902  13.758  32.097  14.615  0.0286 -0.2016 -0.1361
  788BOLB   GL318903  13.839  32.569  14.457  0.1542 -0.3229  0.0377
  788BOLB   GL418904  13.949  32.740  14.741 -0.2358 -0.0854  0.0786
  788BOLB   C1C18905  13.793  32.973  14.247  0.0543  0.3883  0.1941
  788BOLB   C2C18906  13.743  33.345  13.847  0.2172 -0.1176 -0.1921
  788BOLB   C3C18907  13.967  33.401  13.495 -0.2174  0.2763  0.2517
  788BOLB   C4C18908  14.214  33.243  13.103  0.2986 -0.0575 -0.2637
  788BOLB   C1D18909  13.854  33.174  14.661 -0.2843 -0.4232 -0.0673
  788BOLB   C2D18910  13.827  33.526  14.388  0.1593 -0.4055  0.2118
  788BOLB   C3D18911  13.728  33.971  14.198  0.2351 -0.0404 -0.1759
  788BOLB   C4D18912  13.880  34.252  14.041  0.2702 -0.0669 -0.0255
  789BOLB   NC118913  10.928   3.739  18.404 -0.0373 -0.1637 -0.0583
  789BOLB   PO118914  11.057   4.075  18.649  0.1529  0.0026 -0.0622
  789BOLB   GL118915  10.800   3.662  18.878 -0.1337  0.2416  0.1117
  789BOLB   GL218916  10.805   3.361  18.743  0.0042  0.1444  0.1302
  789BOLB   C1A18917  10.458   3.408  19.094  0.2450  0.1013 -0.0426
  789BOLB   C2A18918  10.183   3.125  19.201  0.0369 -0.1273  0.2716
  789BOLB   C3A18919   9.868   2.760  19.355  0.0810 -0.1727  0.3803
  789BOLB   C4A18920   9.803   2.359  19.493 -0.2848 -0.0344  0.1940
  789BOLB   C1B18921  10.575   2.903  18.978 -0.4314  0.4739  0.2005
  789BOLB   C2B18922  10.540   2.736  19.394  0.0080  0.1680 -0.3268
  789BOLB   C3B18923  10.735   2.644  19.733 -0.1715 -0.0040 -0.3035
  789BOLB   C4B18924  10.790   2.445  20.187 -0.3569  0.0357  0.2169
  789BOLB   NC218925   8.917   0.852  21.105  0.3117  0.1247 -0.3909
  789BOLB   PO218926   8.708   1.172  21.315  0.3542 -0.1843  0.0714
  789BOLB   GL318927   8.926   1.462  21.095 -0.2438 -0.0003 -0.2382
  789BOLB   GL418928   8.754   1.480  20.694 -0.1371 -0.0348  0.2106
  789BOLB   C1C18929   9.041   1.895  20.746 -0.0931 -0.0671  0.0638
  789BOLB   C2C18930   8.996   1.987  20.325 -0.1753 -0.2148  0.2480
  789BOLB   C3C18931   9.208   2.138  19.989 -0.3663 -0.0193 -0.1292
  789BOLB   C4C18932   9.565   2.204  19.819  0.0650  0.0574 -0.0872
  789BOLB   C1D18933   8.986   1.476  20.328  0.0690 -0.2305  0.3611
  789BOLB   C2D18934   9.085   1.636  19.925 -0.1543  0.0215  0.0094
  789BOLB   C3D18935   9.104   1.910  19.579  0.2184  0.0037  0.0003
  789BOLB   C4D18936   9.262   2.239  19.380  0.2559  0.0536  0.0984
  790BOLB   NC118937  15.652  16.973  20.489 -0.0432  0.0246 -0.1499
  790BOLB   PO118938  15.640  17.156  20.872  0.1325  0.5241  0.4720
  790BOLB   GL118939  15.688  17.427  21.224 -0.4191  0.1220 -0.0838
  790BOLB   GL218940  15.631  17.274  21.504  0.1369  0.0905 -0.0400
  790BOLB   C1A18941  15.685  17.778  21.344  0.4274  0.3640 -0.2359
  790BOLB   C2A18942  15.615  18.012  21.716  0.0175 -0.1695  0.2708
  790BOLB   C3A18943  15.336  18.315  21.866  0.0035  0.2106  0.0855
  790BOLB   C4A18944  15.367  18.560  22.294 -0.0850  0.1447  0.1316
  790BOLB   C1B18945  15.449  17.555  21.786  0.1942 -0.1846 -0.2016
  790BOLB   C2B18946  15.117  17.809  21.909  0.3096  0.0895  0.0833
  790BOLB   C3B18947  14.801  18.202  22.018 -0.0567  0.0435  0.0959
  790BOLB   C4B18948  14.821  18.625  22.231  0.0388 -0.0064 -0.0437
  790BOLB   NC218949  15.973  20.006  23.957 -0.0311 -0.0187 -0.4617
  790BOLB   PO218950  15.690  20.262  23.805  0.1060  0.0973  0.5092
  790BOLB   GL318951  15.649  20.047  23.301 -0.2175  0.2386  0.2031
  790BOLB   GL418952  15.966  20.133  23.098  0.1107 -0.3654  0.2630
  790BOLB   C1C18953  15.725  19.632  23.088  0.0380  0.1274 -0.3450
  790BOLB   C2C18954  15.799  19.518  22.693 -0.2165 -0.0755  0.0375
  790BOLB   C3C18955  15.706  19.267  22.435 -0.0215 -0.0730 -0.0572
  790BOLB   C4C18956  15.562  18.882  22.508 -0.0593  0.1151  0.1428
  790BOLB   C1D18957  15.851  20.007  22.629 -0.1753  0.0898 -0.2011
  790BOLB   C2D18958  15.468  19.780  22.436  0.1900 -0.3568 -0.3340
  790BOLB   C3D18959  15.407  19.484  22.080 -0.0618 -0.0571 -0.1485
  790BOLB   C4D18960  15.702  19.271  21.891  0.1012  0.4589  0.1300
  791BOLB   NC118961  17.587   3.974   1.412 -0.1820  0.0458 -0.0991
  791BOLB   PO118962  17.594   4.265   1.764  0.1636  0.0706  0.0565
  791BOLB   GL118963  17.531   4.402   2.210  0.3010  0.0447 -0.1417
  791BOLB   GL218964  17.446   4.661   2.106  0.0432 -0.2447 -0.1501
  791BOLB   C1A18965  17.360   4.303   2.597  0.2351  0.0032  0.0961
  791BOLB   C2A18966  17.224   4.327   3.015 -0.0321  0.2950 -0.1561
  791BOLB   C3A18967  16.984   4.161   3.457  0.1740 -0.1895 -0.0431
  791BOLB   C4A18968  17.033   3.931   3.708  0.3180 -0.2131 -0.0451
  791BOLB   C1B18969  17.393   4.829   2.524 -0.2130 -0.0961 -0.0093
  791BOLB   C2B18970  17.292   5.196   2.670  0.0538  0.1541 -0.3440
  791BOLB   C3B18971  17.404   5.625   2.754 -0.4370  0.4381 -0.1605
  791BOLB   C4B18972  17.660   5.984   2.500 -0.1845  0.0395  0.0048
  791BOLB   NC218973  18.146   2.278   2.490  0.0042 -0.3978  0.0357
  791BOLB   PO218974  17.725   1.937   2.589  0.2502 -0.2625 -0.0059
  791BOLB   GL318975  17.704   2.365   2.809  0.0983 -0.1749  0.2084
  791BOLB   GL418976  18.001   2.299   2.968 -0.1740 -0.2198  0.3107
  791BOLB   C1C18977  17.606   2.717   2.973 -0.0465 -0.0937 -0.3017
  791BOLB   C2C18978  17.343   2.893   3.243  0.1225  0.1429  0.1275
  791BOLB   C3C18979  17.098   3.023   3.543 -0.2136  0.1074 -0.0745
  791BOLB   C4C18980  17.069   3.512   3.692  0.0244  0.3104 -0.3671
  791BOLB   C1D18981  17.999   2.251   3.364  0.0067  0.2439  0.1636
  791BOLB   C2D18982  18.173   2.454   3.764 -0.0109  0.1619  0.3144
  791BOLB   C3D18983  18.579   2.397   3.956 -0.1318  0.0626  0.1964
  791BOLB   C4D18984  18.889   2.610   4.100  0.1468  0.3229 -0.1392
  792BOLB   NC118985  24.703  11.533   7.252  0.2276  0.0045  0.1452
  792BOLB   PO118986  24.339  11.323   7.506  0.0134 -0.2369  0.4013
  792BOLB   GL118987  23.926  11.484   7.684  0.4156 -0.0446  0.0305
  792BOLB   GL218988  23.597  11.246   7.694 -0.0617  0.0374  0.0263
  792BOLB   C1A18989  23.771  11.572   8.049  0.0113 -0.0653  0.1656
  792BOLB   C2A18990  23.458  11.540   8.204 -0.1188  0.1498 -0.2496
  792BOLB   C3A18991  23.256  11.814   8.413 -0.0566 -0.1885  0.1833
  792BOLB   C4A18992  23.243  12.229   8.438  0.0224 -0.0143 -0.1228
  792BOLB   C1B18993  23.324  10.950   7.867  0.1593  0.2016  0.0134
  792BOLB   C2B18994  23.199  10.518   7.969  0.3093 -0.0390  0.1206
  792BOLB   C3B18995  23.047  10.285   8.265 -0.0925 -0.1882 -0.3295
  792BOLB   C4B18996  22.868  10.182   8.599  0.1713  0.2381  0.2757
  792BOLB   NC218997  24.353  14.039   8.162  0.0206 -0.0750 -0.0337
  792BOLB   PO218998  24.195  13.626   7.888  0.2723  0.0904 -0.2287
  792BOLB   GL318999  24.035  13.324   8.177  0.0424 -0.1993  0.1698
  792BOLB   GL419000  23.840  12.953   7.980 -0.0155 -0.1581 -0.1393
  792BOLB   C1C19001  23.607  13.368   8.396 -0.0342  0.4160 -0.1923
  792BOLB   C2C19002  23.323  13.258   8.654  0.2417  0.0309 -0.0823
  792BOLB   C3C19003  23.153  12.867   8.878 -0.1753 -0.4648 -0.0150
  792BOLB   C4C19004  23.273  12.571   8.701  0.0685 -0.1968  0.4875
  792BOLB   C1D19005  23.638  12.766   8.353  0.0024 -0.1756  0.1279
  792BOLB   C2D19006  23.635  12.879   8.810  0.1199 -0.0771  0.0849
  792BOLB   C3D19007  23.772  13.171   9.163  0.0884 -0.1009 -0.1781
  792BOLB   C4D19008  23.682  13.299   9.548 -0.0524 -0.1440 -0.1462
  793BOLB   NC119009  14.432  15.587   9.978  0.3423 -0.0607 -0.0189
  793BOLB   PO119010  14.786  15.552   9.627  0.1297 -0.0910 -0.0770
  793BOLB   GL119011  14.853  15.783   9.239 -0.2896  0.0731  0.1286
  793BOLB   GL219012  15.008  16.142   9.206 -0.0808  0.0760 -0.1267
  793BOLB   C1A19013  14.693  15.967   8.838 -0.0034 -0.0477  0.1590
  793BOLB   C2A19014  14.837  16.175   8.434 -0.0928 -0.1069 -0.2046
  793BOLB   C3A19015  14.955  16.480   8.064 -0.0884 -0.2347 -0.2967
  793BOLB   C4A19016  14.713  16.499   7.733  0.1991  0.0102 -0.3538
  793BOLB   C1B19017  14.881  16.457   8.932 -0.1172  0.0186  0.0069
  793BOLB   C2B19018  14.626  16.907   9.041 -0.0461 -0.1311 -0.0077
  793BOLB   C3B19019  14.379  17.216   8.973  0.1052 -0.0723  0.1318
  793BOLB   C4B19020  14.269  17.666   8.871 -0.2567  0.5233 -0.1178
  793BOLB   NC219021  13.527  15.422   5.425  0.2071  0.0304  0.0971
  793BOLB   PO219022  13.725  15.687   5.359  0.1250 -0.2204  0.2075
  793BOLB   GL319023  14.195  15.754   5.601  0.0968  0.2647 -0.0855
  793BOLB   GL419024  14.534  15.714   5.548 -0.0821 -0.2465 -0.0282
  793BOLB   C1C19025  14.208  15.767   6.068 -0.2282  0.0957  0.1222
  793BOLB   C2C19026  14.229  15.830   6.461 -0.4785 -0.0572 -0.0126
  793BOLB   C3C19027  14.422  16.058   6.873 -0.1407 -0.1879  0.1819
  793BOLB   C4C19028  14.569  16.369   7.391  0.2561 -0.3039 -0.2779
  793BOLB   C1D19029  14.821  15.439   5.829  0.1168 -0.0417  0.3172
  793BOLB   C2D19030  14.969  15.029   6.052 -0.1596 -0.1854 -0.2213
  793BOLB   C3D19031  15.062  14.858   6.470 -0.0493  0.0520  0.2352
  793BOLB   C4D19032  15.390  15.052   6.668  0.0230 -0.0359  0.1914
  794BOLB   NC119033  21.453   6.982  20.822 -0.0656  0.1992 -0.0757
  794BOLB   PO119034  21.709   6.897  20.482 -0.0507 -0.0809  0.1216
  794BOLB   GL119035  22.035   6.582  20.454 -0.2934 -0.0963  0.4738
  794BOLB   GL219036  22.254   6.544  20.249  0.1461  0.0917  0.0176
  794BOLB   C1A19037  22.286   6.243  20.663 -0.1521 -0.0291 -0.2480
  794BOLB   C2A19038  22.637   6.031  20.913 -0.0736 -0.0364 -0.3807
  794BOLB   C3A19039  22.898   5.660  21.217  0.1074 -0.1525 -0.0986
  794BOLB   C4A19040  23.140   5.346  21.357 -0.1840 -0.1384 -0.1488
  794BOLB   C1B19041  22.645   6.581  20.482 -0.2373 -0.2233  0.0138
  794BOLB   C2B19042  23.008   6.369  20.734 -0.0300  0.1168  0.2709
  794BOLB   C3B19043  23.118   6.059  21.015  0.3673  0.0169 -0.1101
  794BOLB   C4B19044  23.350   5.716  21.005 -0.1332  0.1878  0.3005
  794BOLB   NC219045  23.461   3.180  22.352 -0.1023  0.1582 -0.1925
  794BOLB   PO219046  23.655   3.155  21.966  0.0604  0.0995  0.2128
  794BOLB   GL319047  23.391   3.532  22.034  0.2116  0.4202  0.1765
  794BOLB   GL419048  23.107   3.512  22.209 -0.2363  0.1172 -0.2722
  794BOLB   C1C19049  23.211   3.861  21.787 -0.0361  0.1415 -0.0709
  794BOLB   C2C19050  22.955   4.025  21.555 -0.0074  0.3801  0.0419
  794BOLB   C3C19051  22.901   4.399  21.297 -0.1490 -0.1302 -0.2567
  794BOLB   C4C19052  23.138   4.809  21.325  0.2231  0.0813 -0.3149
  794BOLB   C1D19053  22.792   3.752  22.010  0.2090  0.0539  0.1140
  794BOLB   C2D19054  22.472   4.092  21.839 -0.1716 -0.2393 -0.3050
  794BOLB   C3D19055  22.318   4.076  21.552 -0.2884 -0.3427  0.1940
  794BOLB   C4D19056  22.100   4.076  21.224  0.0590  0.0946 -0.2163
  795BOLB   NC119057  15.111   4.804  21.226  0.4140 -0.4482  0.0153
  795BOLB   PO119058  15.070   4.479  21.394  0.1652  0.0777  0.0359
  795BOLB   GL119059  15.308   4.228  21.653  0.1474 -0.1895 -0.1170
  795BOLB   GL219060  15.165   3.883  21.693  0.1597 -0.3842  0.0676
  795BOLB   C1A19061  15.555   3.958  21.933  0.0693  0.0731 -0.2738
  795BOLB   C2A19062  15.769   3.575  22.087 -0.1605  0.0510 -0.3847
  795BOLB   C3A19063  16.159   3.546  22.219  0.1372  0.4882 -0.1232
  795BOLB   C4A19064  16.487   3.222  22.380  0.0721 -0.1642  0.1037
  795BOLB   C1B19065  15.165   3.873  22.206 -0.1202  0.1951 -0.1225
  795BOLB   C2B19066  15.404   3.622  22.444 -0.0605  0.1077 -0.4902
  795BOLB   C3B19067  15.495   3.529  22.932  0.0777 -0.0425 -0.3529
  795BOLB   C4B19068  15.447   3.493  23.380  0.2837  0.1857 -0.1056
  795BOLB   NC219069  16.221   1.588  24.138 -0.3294  0.0435 -0.1352
  795BOLB   PO219070  16.653   1.762  24.147 -0.4235  0.1488 -0.1148
  795BOLB   GL319071  16.600   1.908  23.685 -0.3115  0.1193 -0.0880
  795BOLB   GL419072  16.297   1.808  23.640  0.1448 -0.0434 -0.1012
  795BOLB   C1C19073  16.887   2.261  23.580 -0.2684  0.2603 -0.3942
  795BOLB   C2C19074  17.105   2.553  23.214  0.2551 -0.0175 -0.1390
  795BOLB   C3C19075  16.996   2.898  23.046 -0.0313 -0.2564  0.0401
  795BOLB   C4C19076  16.764   3.033  22.704  0.0641  0.1334 -0.2060
  795BOLB   C1D19077  16.421   2.375  23.466  0.1542 -0.2067 -0.2303
  795BOLB   C2D19078  16.496   2.730  23.176 -0.0936 -0.2669  0.0596
  795BOLB   C3D19079  16.293   3.126  22.871  0.0518 -0.1815 -0.1310
  795BOLB   C4D19080  16.215   3.546  23.059  0.0027  0.0176 -0.1613
  796BOLB   NC119081  23.926   6.213  25.082  0.3233  0.1115  0.2121
  796BOLB   PO119082  23.472   6.244  25.031 -0.0836  0.3533  0.1774
  796BOLB   GL119083  23.274   6.281  24.577 -0.0835 -0.1622  0.1267
  796BOLB   GL219084  22.920   6.248  24.526  0.4016  0.2109  0.0101
  796BOLB   C1A19085  23.122   6.232  24.095 -0.0500  0.0483  0.2026
  796BOLB   C2A19086  22.914   6.424  23.626 -0.1207  0.2296  0.0814
  796BOLB   C3A19087  22.556   6.757  23.499 -0.2983  0.0938 -0.3150
  796BOLB   C4A19088  22.529   7.243  23.483  0.0732 -0.0806 -0.1299
  796BOLB   C1B19089  22.626   6.259  24.253 -0.0253 -0.3141 -0.1318
  796BOLB   C2B19090  22.602   6.628  24.051 -0.0313  0.4378 -0.0721
  796BOLB   C3B19091  22.928   6.882  23.836  0.1624 -0.2057  0.4939
  796BOLB   C4B19092  23.167   7.195  23.744  0.0728  0.0734  0.0056
  796BOLB   NC219093  23.832   6.651  24.774  0.0609 -0.0154  0.0222
  796BOLB   PO219094  24.110   6.945  24.574 -0.0023  0.1444  0.0146
  796BOLB   GL319095  24.004   7.146  24.209  0.1969 -0.1726  0.3935
  796BOLB   GL419096  23.831   6.892  24.043 -0.2294 -0.0691 -0.1856
  796BOLB   C1C19097  23.896   7.423  23.930 -0.3565 -0.0093  0.0785
  796BOLB   C2C19098  23.526   7.590  23.738  0.2753 -0.1302 -0.0735
  796BOLB   C3C19099  23.111   7.636  23.870 -0.0261 -0.0962 -0.0068
  796BOLB   C4C19100  22.749   7.582  23.714 -0.1851  0.0608  0.3823
  796BOLB   C1D19101  23.660   7.098  23.613 -0.1608 -0.0170 -0.3165
  796BOLB   C2D19102  23.626   7.388  23.334  0.0410 -0.0585  0.0454
  796BOLB   C3D19103  23.598   7.650  22.959  0.0796  0.1409 -0.0299
  796BOLB   C4D19104  23.479   7.848  22.719 -0.0285  0.1247  0.1251
  797BOLB   NC119105   2.231   7.434  17.801 -0.0942  0.1925 -0.0158
  797BOLB   PO119106   2.156   7.103  17.567  0.0952 -0.0735  0.0372
  797BOLB   GL119107   2.479   7.028  17.365  0.0966  0.0324 -0.0803
  797BOLB   GL219108   2.494   6.701  17.506  0.2172  0.0924  0.0074
  797BOLB   C1A19109   2.663   7.052  16.948  0.0728  0.1675 -0.0630
  797BOLB   C2A19110   3.169   6.964  16.860  0.0696 -0.0667  0.2613
  797BOLB   C3A19111   3.425   6.735  16.631  0.0688 -0.0087  0.2773
  797BOLB   C4A19112   3.905   6.686  16.752  0.0881 -0.3582 -0.2469
  797BOLB   C1B19113   2.587   6.571  17.182 -0.0170 -0.1104 -0.1950
  797BOLB   C2B19114   2.778   6.188  17.119 -0.2218  0.1486 -0.1083
  797BOLB   C3B19115   2.808   5.712  17.152  0.1978 -0.1347  0.2092
  797BOLB   C4B19116   2.971   5.352  17.079 -0.1375  0.1257  0.0946
  797BOLB   NC219117   2.066   6.588  17.780  0.0261 -0.2715  0.0573
  797BOLB   PO219118   2.324   6.032  17.715 -0.0850 -0.2574 -0.2572
  797BOLB   GL319119   2.641   5.990  17.979 -0.1594 -0.2099 -0.0625
  797BOLB   GL419120   2.624   6.388  17.911 -0.1722  0.0953 -0.0396
  797BOLB   C1C19121   3.171   5.965  17.952 -0.1116 -0.0691 -0.2147
  797BOLB   C2C19122   3.432   6.194  17.702  0.1980 -0.4376  0.0828
  797BOLB   C3C19123   3.781   6.360  17.480  0.3664  0.5716  0.1460
  797BOLB   C4C19124   4.025   6.502  17.131  0.2617 -0.1409  0.0686
  797BOLB   C1D19125   2.962   6.388  17.585 -0.5068 -0.2521  0.0979
  797BOLB   C2D19126   3.081   6.684  17.275 -0.2419 -0.1775 -0.2045
  797BOLB   C3D19127   3.471   6.675  17.119 -0.4796 -0.2437 -0.0117
  797BOLB   C4D19128   3.898   7.024  17.110 -0.0019 -0.0725 -0.0846
  798BOLB   NC119129   8.902   9.566  25.731 -0.0139 -0.1398 -0.2610
  798BOLB   PO119130   9.114   9.806  25.481 -0.0164  0.1561  0.0060
  798BOLB   GL119131   9.306   9.866  25.110  0.0496 -0.2879 -0.0905
  798BOLB   GL219132   9.605   9.831  25.267 -0.1873 -0.0459  0.0722
  798BOLB   C1A19133   9.233  10.088  24.651 -0.0161  0.2320 -0.0474
  798BOLB   C2A19134   9.109  10.299  24.278 -0.1724  0.4252  0.1142
  798BOLB   C3A19135   9.027  10.643  24.046 -0.2209 -0.1021 -0.3519
  798BOLB   C4A19136   8.970  10.851  23.847  0.2491 -0.3074 -0.0323
  798BOLB   C1B19137   9.646   9.750  24.782  0.0099 -0.3115 -0.2651
  798BOLB   C2B19138   9.945   9.896  24.554 -0.1153  0.2928  0.0696
  798BOLB   C3B19139  10.339   9.952  24.291 -0.0122 -0.1560 -0.1082
  798BOLB   C4B19140  10.803  10.012  24.358  0.1952 -0.1094 -0.0331
  798BOLB   NC219141   7.694  10.449  23.888 -0.0277 -0.0715 -0.1765
  798BOLB   PO219142   7.329  10.478  23.630 -0.1698  0.3582  0.1170
  798BOLB   GL319143   7.653  10.196  23.337  0.0569 -0.0225 -0.0222
  798BOLB   GL419144   7.704   9.916  23.322  0.2000  0.2548  0.1196
  798BOLB   C1C19145   7.941  10.523  23.197  0.1672  0.0603  0.1256
  798BOLB   C2C19146   8.348  10.750  23.031 -0.0329 -0.0176 -0.1301
  798BOLB   C3C19147   8.621  11.080  23.075 -0.0199  0.0898  0.0286
  798BOLB   C4C19148   8.782  11.181  23.565  0.0155 -0.2636 -0.0983
  798BOLB   C1D19149   7.544   9.646  22.997  0.1245 -0.0010 -0.0395
  798BOLB   C2D19150   7.709   9.390  22.712 -0.2008 -0.0829  0.2668
  798BOLB   C3D19151   8.006   9.074  22.679  0.1139  0.2477  0.0721
  798BOLB   C4D19152   8.379   9.047  22.485 -0.1891 -0.2730 -0.0401
  799BOLB   NC119153  19.161  11.191  23.477 -0.1924  0.4665  0.0651
  799BOLB   PO119154  19.056  10.717  23.519  0.0943 -0.1940 -0.0219
  799BOLB   GL119155  19.405  10.686  23.819  0.1773 -0.0338  0.0492
  799BOLB   GL219156  19.529  10.971  23.960 -0.0383  0.4148  0.3827
  799BOLB   C1A19157  19.511  10.602  24.273  0.1908  0.0055  0.3241
  799BOLB   C2A19158  19.567  10.183  24.446 -0.1290  0.1175  0.0692
  799BOLB   C3A19159  19.508   9.772  24.636 -0.1465  0.0729  0.1693
  799BOLB   C4A19160  19.351   9.467  24.998 -0.0003 -0.1651 -0.1979
  799BOLB   C1B19161  19.572  11.161  24.386 -0.1221 -0.0365  0.2175
  799BOLB   C2B19162  19.554  11.346  24.793  0.1430 -0.0443  0.0641
  799BOLB   C3B19163  19.634  11.563  25.250  0.1823 -0.2105  0.2548
  799BOLB   C4B19164  19.905  11.414  25.506 -0.3670  0.3704 -0.1354
  799BOLB   NC219165  20.285  10.622  27.355  0.3217 -0.0142 -0.2586
  799BOLB   PO219166  19.805  10.331  27.216  0.0735  0.2417 -0.0381
  799BOLB   GL319167  19.608  10.311  26.796  0.1944  0.0815  0.0918
  799BOLB   GL419168  19.929  10.417  26.629  0.0817  0.3358 -0.2079
  799BOLB   C1C19169  19.307  10.079  26.581  0.2724 -0.0398  0.2327
  799BOLB   C2C19170  19.228   9.771  26.195 -0.0285  0.1509  0.2866
  799BOLB   C3C19171  19.301   9.468  25.771 -0.2195 -0.2842  0.0461
  799BOLB   C4C19172  19.387   9.347  25.364 -0.2366  0.1689 -0.1652
  799BOLB   C1D19173  19.648  10.281  26.282  0.4110  0.1497 -0.0372
  799BOLB   C2D19174  19.455  10.104  25.895 -0.0931  0.1690  0.2694
  799BOLB   C3D19175  19.477  10.251  25.529  0.0932 -0.2371 -0.2223
  799BOLB   C4D19176  19.273  10.623  25.166  0.1480 -0.1049 -0.2466
  800BOLB   NC119177  23.641   7.827  15.412  0.3013 -0.2362  0.2144
  800BOLB   PO119178  24.059   7.941  15.184  0.0647  0.0136  0.0195
  800BOLB   GL119179  24.337   7.678  15.380  0.2612 -0.1838 -0.0018
  800BOLB   GL219180  24.550   8.035  15.564  0.0508  0.0007  0.0439
  800BOLB   C1A19181  24.439   7.355  15.660 -0.0165  0.3697 -0.0443
  800BOLB   C2A19182  24.702   7.109  15.673 -0.3279  0.0699 -0.2570
  800BOLB   C3A19183  25.017   6.848  15.768  0.1327  0.0629  0.0035
  800BOLB   C4A19184  25.423   6.517  15.752 -0.2686 -0.2037 -0.1666
  800BOLB   C1B19185  24.986   7.927  15.668  0.2721 -0.2950 -0.0152
  800BOLB   C2B19186  25.187   7.857  16.145  0.2347 -0.3223  0.2264
  800BOLB   C3B19187  25.416   8.013  16.470  0.0668 -0.1281 -0.0413
  800BOLB   C4B19188  25.555   7.624  16.703  0.2465  0.2578 -0.0620
  800BOLB   NC219189  27.627   7.259  15.524 -0.1142 -0.0386 -0.1634
  800BOLB   PO219190  27.732   6.985  15.904 -0.0718  0.0303 -0.0351
  800BOLB   GL319191  27.334   6.855  15.674 -0.1008 -0.2381  0.0317
  800BOLB   GL419192  27.279   6.904  15.342  0.2521  0.1038  0.0389
  800BOLB   C1C19193  27.005   6.578  15.681  0.1695 -0.0366  0.0575
  800BOLB   C2C19194  26.622   6.382  15.670  0.1853  0.0895 -0.1778
  800BOLB   C3C19195  26.179   6.315  15.915  0.1026  0.0435 -0.1977
  800BOLB   C4C19196  25.717   6.413  15.900  0.1173 -0.0840 -0.0925
  800BOLB   C1D19197  26.899   7.083  15.173  0.1434 -0.1541  0.3267
  800BOLB   C2D19198  26.530   7.468  15.001  0.2115 -0.1555  0.1431
  800BOLB   C3D19199  26.071   7.363  14.885  0.0415 -0.0921 -0.2177
  800BOLB   C4D19200  25.665   7.285  15.081 -0.1736 -0.3155 -0.1114
  801BOLB   NC119201  13.889   7.150  22.724  0.1617  0.0497 -0.1294
  801BOLB   PO119202  13.612   7.417  22.480  0.1816 -0.1500 -0.0288
  801BOLB   GL119203  13.475   7.298  23.001 -0.2033  0.0000  0.0128
  801BOLB   GL219204  13.353   7.623  23.204  0.1339  0.0765  0.0154
  801BOLB   C1A19205  13.371   7.268  23.507 -0.0610  0.1382  0.0786
  801BOLB   C2A19206  13.368   7.214  23.888 -0.0912  0.1449 -0.0569
  801BOLB   C3A19207  13.315   6.908  24.247 -0.1505 -0.0455  0.0161
  801BOLB   C4A19208  13.025   6.624  24.314  0.5615  0.0217  0.0115
  801BOLB   C1B19209  13.020   7.634  23.552  0.1752  0.1475 -0.1314
  801BOLB   C2B19210  12.986   7.610  23.951  0.0306 -0.1168  0.0855
  801BOLB   C3B19211  12.921   7.255  24.129 -0.0906  0.1192  0.1190
  801BOLB   C4B19212  12.824   6.807  23.912 -0.1763  0.1199 -0.0539
  801BOLB   NC219213  12.851   5.771  26.792  0.0525  0.0476  0.1418
  801BOLB   PO219214  13.051   6.092  26.572 -0.1741  0.1547  0.0454
  801BOLB   GL319215  12.952   6.220  26.249 -0.0364  0.0607 -0.0520
  801BOLB   GL419216  13.135   6.556  26.285  0.1125 -0.0477  0.4263
  801BOLB   C1C19217  12.904   6.428  25.803  0.0752  0.1931 -0.1688
  801BOLB   C2C19218  12.839   6.161  25.420 -0.0290 -0.1263 -0.1589
  801BOLB   C3C19219  12.799   6.166  25.049 -0.1778  0.0506  0.0689
  801BOLB   C4C19220  12.831   6.342  24.589  0.0930  0.1645  0.0841
  801BOLB   C1D19221  13.191   6.794  25.959 -0.2679 -0.2253 -0.0017
  801BOLB   C2D19222  13.431   7.227  25.742  0.3510  0.0041  0.0638
  801BOLB   C3D19223  13.673   7.296  25.438 -0.0561 -0.1806 -0.2754
  801BOLB   C4D19224  13.758   7.391  25.015  0.0363  0.1092  0.0667
  802BOLB   NC119225  19.135   8.650  27.932 -0.1057  0.1521  0.1609
  802BOLB   PO119226  18.888   8.704  27.465  0.0466  0.1697  0.0129
  802BOLB   GL119227  18.901   8.779  27.047  0.1650 -0.0717  0.0696
  802BOLB   GL219228  19.058   8.584  26.752 -0.2074  0.1117  0.0493
  802BOLB   C1A19229  18.817   9.048  26.721 -0.1196 -0.0276 -0.1180
  802BOLB   C2A19230  18.580   8.996  26.335 -0.0034  0.1205 -0.1928
  802BOLB   C3A19231  18.363   9.101  25.905  0.1039  0.0909 -0.1485
  802BOLB   C4A19232  18.510   8.825  25.551 -0.1204  0.1319  0.1866
  802BOLB   C1B19233  19.094   8.347  26.351 -0.0375  0.0362 -0.2333
  802BOLB   C2B19234  19.348   8.085  26.203  0.0612  0.1406 -0.2781
  802BOLB   C3B19235  19.600   7.879  26.000 -0.0974 -0.0413 -0.2378
  802BOLB   C4B19236  19.997   7.527  25.942  0.0215 -0.6568  0.1021
  802BOLB   NC219237  20.419   7.601  26.433 -0.0048  0.0971  0.0150
  802BOLB   PO219238  20.187   7.660  26.730 -0.1480  0.1736  0.3016
  802BOLB   GL319239  20.210   8.083  26.560  0.1665  0.1173  0.1097
  802BOLB   GL419240  20.498   8.072  26.381 -0.0911 -0.0098  0.0384
  802BOLB   C1C19241  19.897   8.251  26.283 -0.0899  0.1931 -0.2915
  802BOLB   C2C19242  19.606   8.481  26.087 -0.1885  0.1026  0.2846
  802BOLB   C3C19243  19.243   8.383  25.845  0.0317 -0.2394 -0.0261
  802BOLB   C4C19244  18.913   8.521  25.507 -0.1963 -0.1214  0.2374
  802BOLB   C1D19245  20.298   8.180  25.977 -0.1248  0.2353 -0.0213
  802BOLB   C2D19246  20.263   8.470  25.617  0.0353  0.0614 -0.0057
  802BOLB   C3D19247  20.233   8.889  25.591 -0.2778 -0.2327 -0.1096
  802BOLB   C4D19248  20.462   9.038  26.037  0.0506  0.1497  0.2350
  803BOLB   NC119249  20.038  15.517  20.294 -0.4239 -0.3345 -0.1136
  803BOLB   PO119250  20.366  15.686  20.528  0.2419 -0.1355  0.2396
  803BOLB   GL119251  20.655  15.877  20.819  0.2007  0.2339  0.4657
  803BOLB   GL219252  20.966  15.943  20.734  0.1762  0.0479  0.0324
  803BOLB   C1A19253  20.734  16.304  21.019 -0.3185 -0.4144  0.1413
  803BOLB   C2A19254  20.995  16.540  21.121  0.0933 -0.1669  0.1703
  803BOLB   C3A19255  21.247  16.878  21.332 -0.1183  0.2597 -0.3243
  803BOLB   C4A19256  21.465  17.099  21.618 -0.1491  0.0097 -0.4256
  803BOLB   C1B19257  21.210  16.185  20.889 -0.1086  0.0379  0.2523
  803BOLB   C2B19258  21.477  16.437  21.218  0.1741  0.0174  0.3040
  803BOLB   C3B19259  21.655  16.486  21.591  0.0071 -0.0043 -0.0014
  803BOLB   C4B19260  21.786  16.802  21.921 -0.1208 -0.1979  0.0250
  803BOLB   NC219261  22.522  19.363  22.079 -0.0809 -0.1435  0.0699
  803BOLB   PO219262  22.621  19.095  22.415  0.2133 -0.0274 -0.1227
  803BOLB   GL319263  22.194  19.001  22.306 -0.2390  0.3230  0.0815
  803BOLB   GL419264  22.041  19.222  22.141 -0.2539  0.0083  0.1927
  803BOLB   C1C19265  21.966  18.612  22.263 -0.4625  0.3610  0.1332
  803BOLB   C2C19266  21.831  18.333  22.005  0.2637  0.0222 -0.0531
  803BOLB   C3C19267  21.675  17.935  21.821  0.0712  0.2841 -0.0484
  803BOLB   C4C19268  21.568  17.543  21.619 -0.0859  0.2162  0.2445
  803BOLB   C1D19269  21.893  18.943  21.817 -0.1389  0.1441  0.0275
  803BOLB   C2D19270  21.837  18.580  21.463 -0.0460 -0.2504 -0.6101
  803BOLB   C3D19271  21.827  18.112  21.323 -0.2507 -0.1233  0.0383
  803BOLB   C4D19272  21.948  17.776  21.379 -0.0353  0.0523  0.1283
  804BOLB   NC119273  16.313  10.594   7.581 -0.4407  0.0185 -0.0703
  804BOLB   PO119274  15.955  10.243   7.636  0.0728 -0.1307  0.0984
  804BOLB   GL119275  16.185   9.947   7.447 -0.5851  0.0816  0.2636
  804BOLB   GL219276  16.467  10.117   7.307 -0.3454 -0.1366 -0.0365
  804BOLB   C1A19277  16.163   9.691   7.045 -0.1912 -0.1342  0.2892
  804BOLB   C2A19278  16.437   9.607   6.663 -0.0136  0.0253 -0.1415
  804BOLB   C3A19279  16.796   9.573   6.284 -0.2677  0.1052  0.0555
  804BOLB   C4A19280  16.985   9.769   5.998 -0.3421 -0.3515 -0.1178
  804BOLB   C1B19281  16.425  10.075   6.866  0.0759  0.5104 -0.1589
  804BOLB   C2B19282  16.484  10.024   6.424  0.1675 -0.1734  0.2386
  804BOLB   C3B19283  16.494   9.901   6.070 -0.1151 -0.0358  0.6310
  804BOLB   C4B19284  16.423   9.767   5.587 -0.0574  0.1586 -0.2675
  804BOLB   NC219285  19.007  10.057   4.738  0.0663  0.4648  0.0836
  804BOLB   PO219286  18.962  10.479   4.599 -0.1146 -0.0580  0.0580
  804BOLB   GL319287  18.651  10.329   4.891 -0.2485  0.1816  0.0655
  804BOLB   GL419288  18.597   9.955   5.038  0.1559 -0.0577  0.1375
  804BOLB   C1C19289  18.164  10.261   4.965  0.0242 -0.1710 -0.1589
  804BOLB   C2C19290  17.867  10.282   5.256  0.2288 -0.1145  0.1223
  804BOLB   C3C19291  17.572  10.164   5.490  0.1079 -0.0664 -0.1999
  804BOLB   C4C19292  17.290  10.036   5.804  0.2602 -0.2265  0.0263
  804BOLB   C1D19293  18.420   9.962   5.444  0.1131  0.1633 -0.2050
  804BOLB   C2D19294  18.155  10.117   5.707 -0.2461 -0.4693 -0.0005
  804BOLB   C3D19295  17.794  10.091   6.041 -0.2271  0.0692  0.0574
  804BOLB   C4D19296  17.822  10.330   6.490  0.0962  0.2323 -0.4252
  805BOLB   NC119297  21.459  16.892  16.485 -0.1680  0.3874 -0.0595
  805BOLB   PO119298  21.893  17.036  16.589  0.0469 -0.1092  0.0890
  805BOLB   GL119299  21.951  17.383  16.775  0.1307  0.1333  0.1051
  805BOLB   GL219300  22.276  17.283  16.806  0.0515 -0.1707 -0.0492
  805BOLB   C1A19301  22.200  17.838  16.787  0.2344 -0.0002  0.3310
  805BOLB   C2A19302  22.195  18.172  16.889 -0.2547 -0.2018 -0.1317
  805BOLB   C3A19303  22.136  18.623  16.943 -0.0174  0.0323 -0.2529
  805BOLB   C4A19304  22.353  18.979  17.234 -0.1903 -0.1731 -0.1591
  805BOLB   C1B19305  22.578  17.488  16.838  0.2279  0.0555  0.0607
  805BOLB   C2B19306  22.817  17.847  16.973  0.1985 -0.0208  0.1884
  805BOLB   C3B19307  23.245  17.894  17.091 -0.1136  0.1421 -0.2678
  805BOLB   C4B19308  23.524  18.014  16.895  0.3602 -0.3522  0.0006
  805BOLB   NC219309  22.122  22.095  18.033  0.3008  0.1398  0.1968
  805BOLB   PO219310  22.121  21.618  17.994 -0.3380 -0.0118  0.1163
  805BOLB   GL319311  21.906  21.084  17.903  0.1859  0.3730  0.0354
  805BOLB   GL419312  21.679  21.018  17.734 -0.0564 -0.0355 -0.3953
  805BOLB   C1C19313  22.082  20.603  17.695  0.2054 -0.3984  0.1081
  805BOLB   C2C19314  22.177  20.124  17.500  0.0474  0.0986 -0.1093
  805BOLB   C3C19315  22.209  19.722  17.416 -0.0468  0.0520  0.0349
  805BOLB   C4C19316  22.461  19.402  17.242 -0.0406 -0.3068  0.1703
  805BOLB   C1D19317  21.549  20.735  18.045  0.1174  0.0753 -0.3052
  805BOLB   C2D19318  21.207  20.420  18.155  0.3120 -0.0647  0.0883
  805BOLB   C3D19319  21.050  20.057  17.977  0.0909  0.1459  0.0800
  805BOLB   C4D19320  21.025  19.634  18.029  0.1917  0.2809 -0.1769
  806BOLB   NC119321   8.102   5.478   2.939  0.0457  0.0185  0.2463
  806BOLB   PO119322   8.254   5.827   2.967  0.0062 -0.0829  0.2693
  806BOLB   GL119323   8.594   6.057   3.108 -0.1181  0.1462 -0.0745
  806BOLB   GL219324   8.872   6.123   2.913  0.2283 -0.1752 -0.2142
  806BOLB   C1A19325   8.785   6.292   3.455  0.2495  0.1964 -0.0444
  806BOLB   C2A19326   9.159   6.411   3.561  0.2686 -0.1255 -0.0203
  806BOLB   C3A19327   9.505   6.602   3.829  0.0060 -0.1237 -0.1995
  806BOLB   C4A19328   9.605   7.079   3.729  0.2855  0.0450  0.1155
  806BOLB   C1B19329   9.179   6.336   3.076  0.1285  0.2376 -0.0617
  806BOLB   C2B19330   9.536   6.645   3.295 -0.1342 -0.2674 -0.1077
  806BOLB   C3B19331   9.880   6.695   3.565  0.3952 -0.0390 -0.3038
  806BOLB   C4B19332  10.263   6.833   3.614 -0.1489 -0.1480  0.1649
  806BOLB   NC219333   9.487   7.852   1.459 -0.0758  0.1777  0.2614
  806BOLB   PO219334   9.120   7.792   1.647 -0.2109  0.1170  0.1185
  806BOLB   GL319335   9.457   7.749   1.973 -0.2745 -0.2594 -0.2062
  806BOLB   GL419336   9.435   7.800   2.264  0.1302  0.3371 -0.3105
  806BOLB   C1C19337   9.814   7.456   2.165  0.1117 -0.0428 -0.1344
  806BOLB   C2C19338  10.008   7.315   2.557  0.1664  0.0581 -0.2705
  806BOLB   C3C19339   9.970   7.248   2.915  0.1195  0.1225 -0.0414
  806BOLB   C4C19340   9.910   7.211   3.442 -0.0581 -0.1345  0.1699
  806BOLB   C1D19341   9.754   7.829   2.499 -0.3757 -0.0091  0.2858
  806BOLB   C2D19342   9.934   7.805   2.801 -0.0314  0.0271 -0.0891
  806BOLB   C3D19343  10.092   7.812   3.276 -0.0915 -0.1915  0.2350
  806BOLB   C4D19344  10.117   8.080   3.629  0.3090  0.1663  0.0174
  807BOLB   NC119345  15.416  18.131  14.435  0.1040 -0.1514  0.2038
  807BOLB   PO119346  15.563  18.496  14.105 -0.2983  0.0590  0.0596
  807BOLB   GL119347  15.299  18.872  14.036 -0.0073  0.0060  0.0710
  807BOLB   GL219348  15.005  18.939  14.128  0.2320  0.0643 -0.1668
  807BOLB   C1A19349  15.321  19.090  13.750 -0.0921 -0.1770 -0.0741
  807BOLB   C2A19350  15.263  19.337  13.430  0.1057 -0.0371 -0.0708
  807BOLB   C3A19351  14.983  19.537  13.420 -0.0600  0.1797 -0.1057
  807BOLB   C4A19352  14.697  19.849  13.529  0.0247 -0.0323 -0.2551
  807BOLB   C1B19353  14.702  19.061  13.824 -0.2212 -0.0573  0.0492
  807BOLB   C2B19354  14.402  19.275  13.438  0.0079 -0.0589 -0.2141
  807BOLB   C3B19355  14.296  19.621  12.994 -0.0547 -0.0800 -0.0286
  807BOLB   C4B19356  14.001  19.912  12.899 -0.0631  0.0608 -0.0000
  807BOLB   NC219357  13.006  21.787  13.371  0.0658  0.0901 -0.2032
  807BOLB   PO219358  13.276  21.572  13.146  0.0808  0.1164  0.2676
  807BOLB   GL319359  13.500  21.436  13.359 -0.4650 -0.0850 -0.0894
  807BOLB   GL419360  13.328  21.321  13.667  0.0457 -0.0716 -0.1649
  807BOLB   C1C19361  13.672  21.020  13.445  0.0597  0.1847 -0.2680
  807BOLB   C2C19362  13.896  20.671  13.335  0.2041 -0.2393 -0.0848
  807BOLB   C3C19363  14.088  20.182  13.344 -0.2762 -0.1223 -0.2918
  807BOLB   C4C19364  14.308  19.911  13.379 -0.1265 -0.1340  0.0851
  807BOLB   C1D19365  13.154  20.944  13.507  0.0118 -0.2879 -0.1065
  807BOLB   C2D19366  13.136  20.501  13.588 -0.1497  0.3082  0.2031
  807BOLB   C3D19367  12.865  20.351  13.905 -0.3056  0.0145  0.0840
  807BOLB   C4D19368  12.770  19.917  13.928  0.0183  0.1700  0.2684
  808BOLB   NC119369  16.241  18.906  15.941  0.0094 -0.0730  0.0767
  808BOLB   PO119370  16.692  18.982  15.929 -0.1915 -0.0346 -0.4349
  808BOLB   GL119371  16.662  19.166  15.473 -0.2800 -0.1707  0.0894
  808BOLB   GL219372  16.848  19.061  15.315  0.0505  0.1418  0.1503
  808BOLB   C1A19373  16.647  19.537  15.519  0.3046  0.1073 -0.0754
  808BOLB   C2A19374  16.603  19.986  15.541  0.2609 -0.0454  0.0098
  808BOLB   C3A19375  16.580  20.332  15.540  0.4139 -0.0191 -0.3073
  808BOLB   C4A19376  16.791  20.674  15.478  0.1118 -0.1017  0.0394
  808BOLB   C1B19377  16.908  19.484  15.165  0.0512  0.2829 -0.0625
  808BOLB   C2B19378  16.957  19.894  15.075  0.1034  0.0974  0.2218
  808BOLB   C3B19379  16.727  20.221  15.067 -0.0486 -0.3588  0.1011
  808BOLB   C4B19380  16.578  20.582  14.982  0.2017 -0.0748  0.1592
  808BOLB   NC219381  16.206  22.477  14.080  0.0944  0.0641  0.1708
  808BOLB   PO219382  16.639  22.431  13.954  0.0014  0.2140 -0.1314
  808BOLB   GL319383  16.693  22.113  14.103 -0.0266  0.4339 -0.0285
  808BOLB   GL419384  16.517  21.976  13.953 -0.0645  0.1163  0.1554
  808BOLB   C1C19385  16.712  22.000  14.455  0.1713 -0.0908 -0.2062
  808BOLB   C2C19386  16.854  21.832  14.717 -0.3330  0.3295 -0.0809
  808BOLB   C3C19387  16.766  21.387  14.942 -0.0617 -0.1037  0.2346
  808BOLB   C4C19388  16.896  21.042  15.154 -0.1564  0.1299 -0.3181
  808BOLB   C1D19389  16.472  21.553  13.862 -0.1564  0.0409 -0.3756
  808BOLB   C2D19390  16.348  21.106  13.758  0.2907  0.1125  0.2550
  808BOLB   C3D19391  16.242  20.646  13.558  0.0307  0.2479 -0.1700
  808BOLB   C4D19392  15.819  20.515  13.695 -0.0627 -0.1070 -0.0689
  809BOLB   NC119393  16.906   8.558  23.160  0.0480  0.0032  0.0810
  809BOLB   PO119394  16.525   8.384  23.100 -0.0702 -0.1687  0.0798
  809BOLB   GL119395  16.642   8.255  23.532 -0.0883  0.2926 -0.0671
  809BOLB   GL219396  16.926   8.215  23.573 -0.3254 -0.2786  0.0611
  809BOLB   C1A19397  16.647   8.127  23.963 -0.1349 -0.1069  0.2718
  809BOLB   C2A19398  16.589   7.887  24.416  0.0680 -0.1062  0.1628
  809BOLB   C3A19399  16.653   7.548  24.746  0.5151  0.0615 -0.0081
  809BOLB   C4A19400  16.348   7.368  24.933 -0.0149 -0.0999 -0.1257
  809BOLB   C1B19401  17.125   8.025  23.819 -0.2536 -0.3340  0.0377
  809BOLB   C2B19402  17.124   7.847  24.124 -0.2422  0.2878  0.0181
  809BOLB   C3B19403  17.049   7.770  24.499 -0.1784 -0.0784 -0.4216
  809BOLB   C4B19404  17.085   7.779  24.976 -0.0367 -0.1417 -0.0072
  809BOLB   NC219405  17.110   7.892  27.683  0.0186 -0.0578  0.1701
  809BOLB   PO219406  16.796   7.898  27.402  0.0723  0.0819  0.1121
  809BOLB   GL319407  16.674   7.987  27.006  0.1175 -0.0759  0.0132
  809BOLB   GL419408  16.992   8.286  26.863 -0.2562  0.2966 -0.2502
  809BOLB   C1C19409  16.670   7.996  26.580 -0.0087 -0.5882 -0.2245
  809BOLB   C2C19410  16.450   7.952  26.066 -0.0676  0.0545  0.1752
  809BOLB   C3C19411  16.357   7.736  25.643 -0.1052 -0.0443 -0.1039
  809BOLB   C4C19412  16.198   7.524  25.293  0.1562 -0.1363 -0.0105
  809BOLB   C1D19413  17.273   8.226  26.490 -0.1275 -0.0366  0.3866
  809BOLB   C2D19414  17.364   8.063  26.148 -0.1715 -0.1551  0.0365
  809BOLB   C3D19415  17.308   7.949  25.760 -0.1368 -0.0549 -0.0132
  809BOLB   C4D19416  17.318   7.693  25.423  0.2022  0.2216 -0.2918
  810BOLB   NC119417  15.412   5.982  26.699  0.1759  0.0057  0.1391
  810BOLB   PO119418  15.416   5.552  26.770 -0.0090 -0.0991  0.0202
  810BOLB   GL119419  15.616   5.517  26.355 -0.0535 -0.2209 -0.2041
  810BOLB   GL219420  15.558   5.311  26.003 -0.2303  0.1144 -0.2584
  810BOLB   C1A19421  15.871   5.697  26.020  0.2952  0.0174  0.0676
  810BOLB   C2A19422  15.820   5.869  25.654 -0.2957 -0.0385 -0.1517
  810BOLB   C3A19423  16.013   6.139  25.345  0.2853  0.0224  0.1924
  810BOLB   C4A19424  16.003   6.483  25.115  0.0979  0.1282 -0.0919
  810BOLB   C1B19425  15.481   5.520  25.716  0.0445  0.0850  0.1914
  810BOLB   C2B19426  15.557   5.714  25.230 -0.0799 -0.2449  0.1031
  810BOLB   C3B19427  15.329   5.953  24.989 -0.0344 -0.1226  0.1142
  810BOLB   C4B19428  15.144   6.080  24.660 -0.3504 -0.1334  0.2002
  810BOLB   NC219429  16.022   6.178  27.229 -0.1222 -0.0050  0.0816
  810BOLB   PO219430  15.778   6.368  27.025 -0.0657 -0.2332 -0.1629
  810BOLB   GL319431  15.758   6.348  26.623  0.0555 -0.1039 -0.1599
  810BOLB   GL419432  15.865   5.991  26.504 -0.1570  0.1676  0.2220
  810BOLB   C1C19433  16.017   6.545  26.268  0.3215 -0.2217 -0.0782
  810BOLB   C2C19434  16.093   6.934  26.006  0.2780 -0.0743  0.0406
  810BOLB   C3C19435  16.192   7.113  25.562  0.1267  0.0302  0.1202
  810BOLB   C4C19436  16.140   6.952  25.093  0.1872 -0.0967 -0.1567
  810BOLB   C1D19437  15.861   6.136  26.079 -0.0288  0.0843  0.1308
  810BOLB   C2D19438  16.125   6.372  25.776  0.0668  0.0911 -0.2856
  810BOLB   C3D19439  15.946   6.687  25.529  0.0730  0.0034  0.0021
  810BOLB   C4D19440  15.623   6.861  25.327 -0.1891 -0.0607  0.0865
  811BOLB   NC119441  15.671  18.863  14.941 -0.1191 -0.3027 -0.0665
  811BOLB   PO119442  15.770  18.938  15.393 -0.0816  0.1613 -0.0112
  811BOLB   GL119443  15.633  19.278  15.256  0.0652 -0.1702 -0.0358
  811BOLB   GL219444  15.894  19.366  15.086 -0.0242 -0.0940  0.0303
  811BOLB   C1A19445  15.605  19.784  15.331 -0.0493  0.1789 -0.0791
  811BOLB   C2A19446  15.809  20.096  15.451 -0.2813  0.3341 -0.0665
  811BOLB   C3A19447  16.049  20.458  15.654 -0.0241 -0.0611 -0.1106
  811BOLB   C4A19448  16.375  20.767  15.782  0.3292  0.0130 -0.0219
  811BOLB   C1B19449  15.927  19.876  14.998  0.1673 -0.0050 -0.0492
  811BOLB   C2B19450  15.841  20.007  14.569 -0.0261  0.3153  0.0411
  811BOLB   C3B19451  15.971  20.395  14.232  0.0782  0.1969 -0.2538
  811BOLB   C4B19452  16.186  20.634  14.048  0.1160 -0.1783 -0.1840
  811BOLB   NC219453  16.644  22.803  17.532 -0.1091  0.1633 -0.1811
  811BOLB   PO219454  16.365  22.727  17.209  0.0106  0.0780  0.1467
  811BOLB   GL319455  16.454  22.450  16.804  0.3949 -0.1676  0.0424
  811BOLB   GL419456  16.084  22.404  16.643  0.0573 -0.1664  0.0151
  811BOLB   C1C19457  16.392  22.006  16.806  0.3236 -0.3124 -0.1371
  811BOLB   C2C19458  16.392  21.652  16.537  0.2961  0.0185 -0.1532
  811BOLB   C3C19459  16.373  21.207  16.518 -0.2914 -0.2980  0.3292
  811BOLB   C4C19460  16.395  20.977  16.154  0.0666  0.0496  0.1203
  811BOLB   C1D19461  15.912  22.030  16.939 -0.1133  0.0264 -0.2521
  811BOLB   C2D19462  15.740  21.677  17.141 -0.1374  0.2041 -0.2427
  811BOLB   C3D19463  15.841  21.343  17.177  0.1492 -0.0057  0.0964
  811BOLB   C4D19464  16.136  20.978  16.968  0.0895 -0.2450 -0.2450
  812BOLB   NC119465  17.449  10.691  23.820 -0.2609 -0.3990  0.0815
  812BOLB   PO119466  17.336  10.310  23.538 -0.0347  0.0506 -0.1189
  812BOLB   GL119467  17.041  10.299  23.871 -0.2580 -0.0233  0.1014
  812BOLB   GL219468  17.052   9.936  23.878 -0.0795  0.1901  0.0568
  812BOLB   C1A19469  17.073  10.378  24.335 -0.2702 -0.0776  0.4728
  812BOLB   C2A19470  17.306  10.527  24.657 -0.1317  0.0296  0.1600
  812BOLB   C3A19471  17.272  10.733  25.091 -0.3605 -0.1581  0.0655
  812BOLB   C4A19472  17.121  10.660  25.438 -0.1733 -0.0127 -0.1202
  812BOLB   C1B19473  16.894   9.920  24.291 -0.2346 -0.0609 -0.2567
  812BOLB   C2B19474  16.484   9.977  24.271 -0.0983 -0.1146  0.0859
  812BOLB   C3B19475  16.249   9.941  24.557 -0.1235 -0.3867 -0.0420
  812BOLB   C4B19476  16.067   9.762  24.939 -0.0614  0.1084  0.0355
  812BOLB   NC219477  16.395   9.461  27.566  0.0518  0.3211  0.0706
  812BOLB   PO219478  16.775   9.652  27.615 -0.0143  0.1674  0.2117
  812BOLB   GL319479  16.939   9.988  27.296 -0.1018 -0.4265  0.1332
  812BOLB   GL419480  16.704  10.152  27.051  0.0405  0.2062 -0.0916
  812BOLB   C1C19481  17.177  10.191  26.922  0.3133  0.0149 -0.0623
  812BOLB   C2C19482  17.022  10.309  26.551  0.4352 -0.4667 -0.0262
  812BOLB   C3C19483  16.833  10.318  26.108  0.0269  0.3487  0.0752
  812BOLB   C4C19484  16.801  10.583  25.757 -0.0325  0.5487 -0.0752
  812BOLB   C1D19485  16.788   9.878  26.712  0.3394 -0.0946 -0.0372
  812BOLB   C2D19486  16.786   9.553  26.365 -0.0280 -0.3364  0.0780
  812BOLB   C3D19487  16.824   9.359  25.833  0.2349 -0.2370  0.0712
  812BOLB   C4D19488  17.011   9.166  25.459 -0.1745 -0.1088 -0.5094
  813BOLB   NC119489   4.024   5.635  19.774  0.5649  0.1484 -0.0629
  813BOLB   PO119490   3.939   5.357  19.405 -0.1273  0.0745 -0.3269
  813BOLB   GL119491   4.231   5.497  19.102 -0.2506 -0.3190  0.2199
  813BOLB   GL219492   4.488   5.553  19.269  0.0086  0.3894  0.0101
  813BOLB   C1A19493   4.273   5.503  18.736 -0.1915 -0.0377 -0.2568
  813BOLB   C2A19494   4.632   5.812  18.656 -0.2467 -0.1275  0.0344
  813BOLB   C3A19495   4.902   6.153  18.630 -0.1757 -0.3903  0.0923
  813BOLB   C4A19496   5.197   6.448  18.591  0.2687  0.0241 -0.2035
  813BOLB   C1B19497   4.784   5.384  18.915 -0.0478 -0.1892 -0.1244
  813BOLB   C2B19498   5.288   5.252  18.791  0.3650 -0.1566 -0.0869
  813BOLB   C3B19499   5.578   4.997  18.915 -0.3781  0.0981 -0.2297
  813BOLB   C4B19500   6.025   4.981  19.135  0.0256  0.0207  0.2627
  813BOLB   NC219501   3.781   6.729  19.261 -0.2713  0.1356  0.0689
  813BOLB   PO219502   4.201   6.976  19.403  0.0962 -0.0560  0.2620
  813BOLB   GL319503   4.595   7.102  19.350 -0.1299  0.1438  0.0092
  813BOLB   GL419504   4.703   6.943  19.147 -0.0473  0.2625  0.1979
  813BOLB   C1C19505   4.832   7.479  19.186 -0.0496 -0.0159  0.1609
  813BOLB   C2C19506   5.303   7.461  19.011  0.1220  0.0068 -0.1159
  813BOLB   C3C19507   5.396   7.200  18.702 -0.4393  0.1526  0.0460
  813BOLB   C4C19508   5.195   6.858  18.416  0.1400 -0.1140  0.0391
  813BOLB   C1D19509   4.833   7.030  18.813 -0.0072 -0.0549 -0.0475
  813BOLB   C2D19510   4.897   7.376  18.697 -0.0219  0.0889  0.0227
  813BOLB   C3D19511   5.243   7.670  18.609 -0.2438  0.0998 -0.2861
  813BOLB   C4D19512   5.620   7.573  18.526 -0.1358  0.1831  0.3834
  814BOLB   NC119513  19.128   6.856  22.458  0.1111  0.0536 -0.0540
  814BOLB   PO119514  18.783   6.728  22.521 -0.0219  0.3446 -0.1599
  814BOLB   GL119515  18.897   6.689  22.899  0.3253 -0.1113 -0.0296
  814BOLB   GL219516  19.200   6.833  22.929  0.3760  0.0889  0.3007
  814BOLB   C1A19517  19.008   6.524  23.297  0.1091 -0.0821  0.4208
  814BOLB   C2A19518  19.035   6.695  23.730  0.1948  0.1243 -0.1360
  814BOLB   C3A19519  19.209   6.873  24.194  0.0302  0.2669 -0.1674
  814BOLB   C4A19520  19.539   6.993  24.395  0.0201  0.1415 -0.1266
  814BOLB   C1B19521  19.446   6.740  23.388  0.1864  0.3324  0.0032
  814BOLB   C2B19522  19.764   6.540  23.478 -0.1050 -0.0533  0.3766
  814BOLB   C3B19523  19.997   6.388  23.899  0.2243 -0.1057 -0.1191
  814BOLB   C4B19524  20.180   6.066  24.182  0.3366 -0.2321  0.1311
  814BOLB   NC219525  18.808   6.927  27.106 -0.4145 -0.0285  0.0855
  814BOLB   PO219526  18.643   6.745  26.750  0.1639 -0.3475 -0.0967
  814BOLB   GL319527  18.685   6.739  26.220  0.1330 -0.3427  0.1113
  814BOLB   GL419528  18.431   6.965  26.160  0.0567  0.1891 -0.0388
  814BOLB   C1C19529  18.915   6.843  25.808 -0.0370 -0.0523 -0.1165
  814BOLB   C2C19530  19.264   7.037  25.605  0.0556  0.1998 -0.1551
  814BOLB   C3C19531  19.472   7.162  25.248 -0.3014 -0.2344 -0.0533
  814BOLB   C4C19532  19.707   7.169  24.771 -0.1641 -0.2424 -0.1854
  814BOLB   C1D19533  18.383   7.133  25.849  0.4731 -0.0240 -0.2648
  814BOLB   C2D19534  18.498   7.291  25.502  0.1734  0.0614 -0.1831
  814BOLB   C3D19535  18.582   7.559  25.118 -0.1812 -0.1223  0.1246
  814BOLB   C4D19536  18.459   7.948  24.999  0.2537  0.1183 -0.0852
  815BOLB   NC119537  14.199  16.419  21.564  0.1937 -0.2725 -0.3008
  815BOLB   PO119538  14.610  16.417  21.782 -0.3095 -0.1131 -0.0122
  815BOLB   GL119539  14.517  16.684  22.089 -0.4491  0.0588 -0.1595
  815BOLB   GL219540  14.858  16.842  22.143 -0.1176  0.0548 -0.1159
  815BOLB   C1A19541  14.426  16.936  22.465  0.1150 -0.0275  0.2054
  815BOLB   C2A19542  14.495  16.912  22.858 -0.0403  0.2375 -0.0709
  815BOLB   C3A19543  14.327  16.755  23.303  0.2215 -0.1434 -0.0006
  815BOLB   C4A19544  14.173  16.642  23.765 -0.1551  0.3216 -0.2106
  815BOLB   C1B19545  14.828  17.179  22.440 -0.0929  0.1425  0.1827
  815BOLB   C2B19546  14.738  17.419  22.775  0.1014  0.1140  0.0374
  815BOLB   C3B19547  14.549  17.578  23.147  0.0222  0.0836 -0.1577
  815BOLB   C4B19548  14.239  17.676  23.430 -0.3279 -0.1909 -0.1910
  815BOLB   NC219549  14.048  15.971  26.095 -0.4220  0.0913  0.0573
  815BOLB   PO219550  14.301  16.274  26.126  0.3255  0.1355  0.1438
  815BOLB   GL319551  14.456  16.046  25.723 -0.0023 -0.0459  0.0208
  815BOLB   GL419552  14.200  15.836  25.635  0.1979  0.1076  0.2086
  815BOLB   C1C19553  14.504  15.852  25.262  0.1487  0.0383  0.1167
  815BOLB   C2C19554  14.638  15.815  24.802 -0.0975  0.2425  0.2779
  815BOLB   C3C19555  14.426  16.167  24.555 -0.1284  0.2445 -0.0070
  815BOLB   C4C19556  14.251  16.287  24.069 -0.1527 -0.2074 -0.3691
  815BOLB   C1D19557  14.190  15.455  25.371  0.0890  0.1612 -0.2526
  815BOLB   C2D19558  14.374  15.451  24.977 -0.0507  0.2420 -0.0260
  815BOLB   C3D19559  14.332  15.518  24.555  0.0274  0.1490 -0.1908
  815BOLB   C4D19560  14.051  15.867  24.355 -0.0075  0.0954  0.0844
  816BOLB   NC119561  19.357  16.779  13.747 -0.0498 -0.3203  0.1379
  816BOLB   PO119562  19.602  17.257  13.671  0.0004 -0.1788  0.1391
  816BOLB   GL119563  19.748  17.510  13.337 -0.2796  0.0681 -0.0307
  816BOLB   GL219564  19.591  17.755  13.184  0.0474 -0.1341  0.2366
  816BOLB   C1A19565  20.106  17.586  13.057  0.1371 -0.0195 -0.2745
  816BOLB   C2A19566  20.415  17.911  12.869  0.3988  0.1051  0.3066
  816BOLB   C3A19567  20.775  18.081  13.019  0.0022  0.0634 -0.0419
  816BOLB   C4A19568  21.162  18.264  12.957  0.1431 -0.1959 -0.0085
  816BOLB   C1B19569  19.850  17.757  12.674  0.2482  0.1474  0.2873
  816BOLB   C2B19570  20.075  18.118  12.420  0.0019  0.2059  0.0633
  816BOLB   C3B19571  20.417  18.273  12.184 -0.1403 -0.2725 -0.2161
  816BOLB   C4B19572  20.682  18.659  12.403  0.2002  0.0601 -0.0800
  816BOLB   NC219573  22.721  19.334  11.936 -0.0889  0.0431 -0.0898
  816BOLB   PO219574  22.656  19.681  12.221 -0.1422 -0.1466  0.0805
  816BOLB   GL319575  22.654  19.586  12.665  0.0921  0.1123  0.2755
  816BOLB   GL419576  22.939  19.426  12.847 -0.0144 -0.1360  0.1217
  816BOLB   C1C19577  22.421  19.355  12.912  0.0537  0.1336  0.1914
  816BOLB   C2C19578  22.275  18.973  13.063 -0.2089  0.2355  0.0111
  816BOLB   C3C19579  21.980  18.508  13.035 -0.2285  0.0106 -0.1009
  816BOLB   C4C19580  21.644  18.318  12.905 -0.0439 -0.1536  0.1853
  816BOLB   C1D19581  22.745  18.976  12.823 -0.1818 -0.0348 -0.0025
  816BOLB   C2D19582  22.454  18.562  12.801 -0.0763  0.0879  0.1827
  816BOLB   C3D19583  22.303  18.146  12.943  0.0647 -0.1456  0.0086
  816BOLB   C4D19584  22.384  17.945  13.192  0.0401 -0.0339  0.2896
  817BOLB   NC119585   8.911  13.167  17.708  0.1675 -0.1587  0.2648
  817BOLB   PO119586   8.741  12.870  18.098  0.1221  0.0182 -0.2786
  817BOLB   GL119587   8.261  12.761  18.220 -0.0034  0.0258 -0.2140
  817BOLB   GL219588   8.113  13.079  18.096  0.2179 -0.1069 -0.1935
  817BOLB   C1A19589   7.821  12.638  18.295 -0.1106 -0.2741 -0.0368
  817BOLB   C2A19590   7.568  12.621  18.631  0.1183  0.2727  0.1266
  817BOLB   C3A19591   7.641  12.600  18.972 -0.1871  0.3516 -0.2228
  817BOLB   C4A19592   7.355  12.552  19.354 -0.2537  0.2814 -0.3725
  817BOLB   C1B19593   7.739  13.126  18.068  0.1626 -0.1180 -0.2462
  817BOLB   C2B19594   7.421  13.151  18.261 -0.2261 -0.2238 -0.1236
  817BOLB   C3B19595   7.130  12.936  18.564 -0.1578  0.4073  0.0861
  817BOLB   C4B19596   7.217  12.822  18.942  0.0510 -0.0015 -0.0200
  817BOLB   NC219597   4.775  12.609  19.213  0.2154  0.0997  0.2260
  817BOLB   PO219598   4.915  12.813  19.526  0.1293 -0.5376  0.1848
  817BOLB   GL319599   5.309  12.845  19.401  0.0490  0.4832 -0.3435
  817BOLB   GL419600   5.306  13.176  19.314  0.0269 -0.2469  0.1895
  817BOLB   C1C19601   5.727  12.751  19.326 -0.1098  0.3842  0.1163
  817BOLB   C2C19602   6.094  12.880  19.231  0.2230  0.0046  0.0521
  817BOLB   C3C19603   6.493  12.811  19.299  0.1850  0.0355 -0.1104
  817BOLB   C4C19604   6.988  12.778  19.380 -0.0967  0.0545 -0.0398
  817BOLB   C1D19605   5.697  13.177  19.035  0.0336  0.0764  0.0671
  817BOLB   C2D19606   5.833  13.407  18.789 -0.1682 -0.2004  0.1182
  817BOLB   C3D19607   6.152  13.480  18.460 -0.3788  0.2141 -0.3989
  817BOLB   C4D19608   6.404  13.186  18.156 -0.0951 -0.2678 -0.0590
  818BOLB   NC119609  17.662   8.264   8.850 -0.1023  0.1270  0.2299
  818BOLB   PO119610  18.177   8.307   8.643  0.0536 -0.1202 -0.1737
  818BOLB   GL119611  18.229   8.271   8.167  0.0360 -0.0586  0.1161
  818BOLB   GL219612  18.313   8.571   8.202 -0.1765  0.1992  0.2245
  818BOLB   C1A19613  18.553   7.997   7.770  0.2278 -0.0094 -0.0511
  818BOLB   C2A19614  18.561   7.888   7.414 -0.3647  0.1185 -0.1095
  818BOLB   C3A19615  18.914   7.917   7.138 -0.0954  0.3097  0.0796
  818BOLB   C4A19616  19.275   7.955   6.849 -0.0700 -0.0960  0.2914
  818BOLB   C1B19617  18.415   8.521   7.781  0.1004  0.3563 -0.2151
  818BOLB   C2B19618  18.336   8.367   7.325  0.0915  0.1005 -0.0284
  818BOLB   C3B19619  18.536   8.284   6.859 -0.0587 -0.0332 -0.2399
  818BOLB   C4B19620  18.815   7.998   6.627 -0.0000 -0.2836  0.1439
  818BOLB   NC219621  21.067   7.441   5.626 -0.3495  0.4432 -0.2181
  818BOLB   PO219622  21.197   7.285   5.894  0.2913 -0.0251  0.0914
  818BOLB   GL319623  21.104   7.357   6.247 -0.0319  0.0815  0.0200
  818BOLB   GL419624  21.171   7.149   6.451 -0.0880 -0.2672 -0.2674
  818BOLB   C1C19625  20.854   7.417   6.679 -0.1081 -0.2192  0.1732
  818BOLB   C2C19626  20.410   7.288   6.886 -0.1610 -0.0694  0.0990
  818BOLB   C3C19627  20.104   7.536   7.002  0.3175 -0.0642  0.4790
  818BOLB   C4C19628  19.675   7.758   6.880 -0.0148  0.0574 -0.0780
  818BOLB   C1D19629  21.029   6.875   6.804  0.2720 -0.2007 -0.2231
  818BOLB   C2D19630  21.011   6.741   7.171 -0.0431  0.1405 -0.1037
  818BOLB   C3D19631  20.936   6.803   7.701 -0.1073  0.0810  0.3290
  818BOLB   C4D19632  20.785   6.798   8.049  0.1132 -0.3300 -0.1878
  819BOLB   NC119633  10.715  14.489  11.475  0.1881  0.3661  0.3065
  819BOLB   PO119634  10.379  14.548  11.724  0.2021 -0.2235  0.1300
  819BOLB   GL119635  10.152  14.781  11.442 -0.1724 -0.0666 -0.4133
  819BOLB   GL219636  10.375  14.947  11.241 -0.0056  0.0393  0.0807
  819BOLB   C1A19637   9.885  14.991  11.230  0.5218  0.0965 -0.1851
  819BOLB   C2A19638   9.634  15.212  11.018 -0.1925  0.0639 -0.1165
  819BOLB   C3A19639   9.203  15.162  10.981  0.0489 -0.1881 -0.0599
  819BOLB   C4A19640   8.918  15.535  10.843 -0.1612 -0.0908  0.0804
  819BOLB   C1B19641  10.233  15.176  10.964 -0.2035  0.0531  0.0432
  819BOLB   C2B19642   9.989  15.136  10.636  0.1438  0.0871  0.2899
  819BOLB   C3B19643   9.848  15.032  10.062 -0.1848 -0.2112 -0.1084
  819BOLB   C4B19644  10.159  15.079   9.831 -0.3309  0.0901 -0.1265
  819BOLB   NC219645   6.723  16.415  11.258 -0.1725 -0.2087  0.0011
  819BOLB   PO219646   6.635  16.158  10.908  0.0314 -0.1614 -0.2158
  819BOLB   GL319647   7.080  16.119  11.057 -0.1247 -0.0747 -0.1927
  819BOLB   GL419648   7.195  16.027  11.411 -0.1306  0.1872 -0.0632
  819BOLB   C1C19649   7.469  16.226  10.954  0.1417  0.1971 -0.0575
  819BOLB   C2C19650   7.784  15.916  10.713  0.2492 -0.0888 -0.1798
  819BOLB   C3C19651   8.069  15.561  10.695  0.0114  0.3325  0.0476
  819BOLB   C4C19652   8.452  15.691  10.882  0.1885 -0.0067  0.0602
  819BOLB   C1D19653   7.369  15.744  11.697  0.1418  0.0148 -0.2382
  819BOLB   C2D19654   7.626  15.478  11.925 -0.2626 -0.2999  0.0923
  819BOLB   C3D19655   7.706  15.111  12.102 -0.0060 -0.1233 -0.1517
  819BOLB   C4D19656   7.834  14.898  12.392  0.0580 -0.0868  0.1016
  820BOLB   NC119657   4.769  35.804  11.564 -0.0749 -0.0319 -0.2524
  820BOLB   PO119658   4.531  36.190  11.652 -0.0719 -0.2296 -0.2759
  820BOLB   GL119659   4.740  36.532  11.640  0.0473 -0.3313 -0.0641
  820BOLB   GL219660   4.746  36.726  11.436 -0.1903 -0.0457 -0.1578
  820BOLB   C1A19661   4.954  36.809  11.939 -0.1706 -0.3289  0.0248
  820BOLB   C2A19662   5.043  37.340  11.914  0.2036 -0.0389 -0.2277
  820BOLB   C3A19663   5.019  37.882  11.917  0.1278 -0.0828 -0.1776
  820BOLB   C4A19664   5.224  38.147  11.720 -0.0640 -0.1793  0.0221
  820BOLB   C1B19665   5.242  36.504  11.491  0.2304 -0.1537  0.1377
  820BOLB   C2B19666   5.469  36.402  11.906  0.0228  0.3517  0.0805
  820BOLB   C3B19667   5.597  36.697  12.201 -0.0895  0.0508 -0.0000
  820BOLB   C4B19668   5.902  36.737  12.415  0.1876  0.1250  0.1167
  820BOLB   NC219669   4.212  37.331   9.303  0.2132  0.1121  0.6560
  820BOLB   PO219670   4.480  37.602   9.496  0.0716 -0.3805 -0.0790
  820BOLB   GL319671   4.731  37.754   9.840 -0.1666 -0.1161 -0.0162
  820BOLB   GL419672   4.841  38.040   9.687 -0.1352  0.2193 -0.3278
  820BOLB   C1C19673   5.011  37.967  10.200  0.1148 -0.4004 -0.0951
  820BOLB   C2C19674   5.093  37.898  10.620 -0.1690 -0.3157  0.0418
  820BOLB   C3C19675   5.236  38.081  10.964 -0.1171 -0.0235 -0.4395
  820BOLB   C4C19676   5.320  38.273  11.333 -0.0522 -0.2638 -0.1019
  820BOLB   C1D19677   5.203  38.265   9.543 -0.3984  0.1670 -0.1738
  820BOLB   C2D19678   5.647  38.396   9.528  0.2429 -0.1023  0.0385
  820BOLB   C3D19679   5.956  38.440   9.816 -0.1082  0.0067 -0.1111
  820BOLB   C4D19680   6.349  38.221   9.975  0.1824  0.2665  0.1308
  821BOLB   NC119681  20.484   6.511  21.266 -0.0493 -0.2536  0.0445
  821BOLB   PO119682  20.121   6.754  21.298 -0.0206  0.0046  0.1190
  821BOLB   GL119683  19.938   6.452  21.628  0.1381 -0.0839 -0.0908
  821BOLB   GL219684  19.718   6.136  21.618  0.0315 -0.0316  0.3189
  821BOLB   C1A19685  19.891   6.257  22.106  0.0056  0.1022 -0.0881
  821BOLB   C2A19686  20.031   5.912  22.371  0.0503 -0.0777 -0.0372
  821BOLB   C3A19687  20.298   5.535  22.333 -0.2864  0.3449  0.0930
  821BOLB   C4A19688  20.526   5.212  22.608  0.1374  0.0674 -0.0132
  821BOLB   C1B19689  19.751   5.828  21.883  0.1903  0.1776  0.1603
  821BOLB   C2B19690  19.778   5.478  22.181 -0.0255 -0.1694 -0.3168
  821BOLB   C3B19691  19.865   5.301  22.414  0.0924 -0.2330  0.2369
  821BOLB   C4B19692  19.993   5.156  22.796 -0.0455 -0.0372  0.0335
  821BOLB   NC219693  21.229   3.644  24.331  0.2097  0.1209  0.0745
  821BOLB   PO219694  21.063   3.890  24.659  0.2792  0.3910  0.1126
  821BOLB   GL319695  20.671   3.924  24.271 -0.0487  0.1339  0.2098
  821BOLB   GL419696  20.434   3.698  24.120  0.0401  0.2967 -0.3569
  821BOLB   C1C19697  20.495   4.249  23.983  0.0571  0.0252 -0.0378
  821BOLB   C2C19698  20.437   4.521  23.529 -0.1028  0.1302  0.5667
  821BOLB   C3C19699  20.690   4.689  23.190  0.0552 -0.0441  0.2174
  821BOLB   C4C19700  20.550   4.953  22.906  0.3354 -0.0884 -0.0173
  821BOLB   C1D19701  20.142   3.662  23.729 -0.1095  0.1112  0.1072
  821BOLB   C2D19702  19.863   3.554  23.366  0.0473 -0.1735 -0.6571
  821BOLB   C3D19703  19.480   3.721  23.077 -0.1314  0.2372 -0.1179
  821BOLB   C4D19704  19.050   3.561  23.014  0.0940 -0.3053  0.0636
  822BOLB   NC119705  13.242   4.916  21.348 -0.3864  0.0496  0.0253
  822BOLB   PO119706  13.369   4.717  20.918  0.0573  0.0622 -0.0346
  822BOLB   GL119707  13.407   4.448  21.370  0.0622 -0.1053 -0.1134
  822BOLB   GL219708  13.604   4.453  21.547  0.1017  0.4246  0.0443
  822BOLB   C1A19709  13.144   4.419  21.743 -0.0234 -0.1304  0.1502
  822BOLB   C2A19710  13.129   4.405  22.248 -0.1422  0.0354 -0.1709
  822BOLB   C3A19711  12.899   4.249  22.552 -0.1267 -0.0164  0.3306
  822BOLB   C4A19712  12.759   4.069  22.863 -0.0654 -0.1123 -0.0627
  822BOLB   C1B19713  13.574   4.091  21.825  0.0782  0.2645  0.0022
  822BOLB   C2B19714  13.294   3.929  22.058  0.2884  0.1556 -0.0304
  822BOLB   C3B19715  12.877   3.801  22.146 -0.1613  0.1223 -0.2303
  822BOLB   C4B19716  12.546   3.439  22.296  0.1080  0.0496 -0.0482
  822BOLB   NC219717  12.336   3.352  25.088 -0.1112 -0.2378 -0.2852
  822BOLB   PO219718  12.735   3.232  24.940  0.2966  0.1102 -0.0364
  822BOLB   GL319719  12.680   3.348  24.570  0.1058 -0.0849 -0.1550
  822BOLB   GL419720  12.380   3.394  24.530 -0.0517  0.0256  0.1444
  822BOLB   C1C19721  12.897   3.577  24.272  0.0980 -0.0049 -0.0183
  822BOLB   C2C19722  13.129   3.981  24.056 -0.0479  0.5167  0.3685
  822BOLB   C3C19723  13.151   4.214  23.596 -0.0645  0.0040  0.1881
  822BOLB   C4C19724  12.831   3.942  23.329 -0.0719 -0.0298 -0.2452
  822BOLB   C1D19725  12.331   3.707  24.186  0.0895  0.3853  0.1351
  822BOLB   C2D19726  12.184   3.900  23.851 -0.3211 -0.0869 -0.3391
  822BOLB   C3D19727  12.037   3.987  23.574  0.2890  0.0125 -0.0945
  822BOLB   C4D19728  11.793   4.202  23.218  0.1602 -0.0300  0.1352
  823BOLB   NC119729  13.144  16.840  18.773 -0.0546  0.0537  0.0990
  823BOLB   PO119730  13.092  16.724  19.139  0.1032  0.0979 -0.2185
  823BOLB   GL119731  12.842  17.134  19.337  0.0839 -0.0801  0.1091
  823BOLB   GL219732  12.469  17.208  19.194  0.0740  0.2343  0.0015
  823BOLB   C1A19733  12.503  17.278  19.703 -0.0512  0.4331  0.3788
  823BOLB   C2A19734  12.196  17.619  19.691 -0.1805 -0.0750  0.0221
  823BOLB   C3A19735  11.964  17.969  19.830 -0.1940  0.2684 -0.0612
  823BOLB   C4A19736  11.809  18.353  19.807  0.2126 -0.2005 -0.4242
  823BOLB   C1B19737  12.557  17.738  19.315 -0.1212 -0.0912 -0.0698
  823BOLB   C2B19738  12.490  18.118  19.452  0.0017 -0.1543 -0.1527
  823BOLB   C3B19739  12.351  18.382  19.861 -0.2211  0.1102 -0.1044
  823BOLB   C4B19740  12.408  18.604  20.196  0.2339  0.0377 -0.5584
  823BOLB   NC219741  11.456  20.493  21.321  0.1593  0.0621  0.2093
  823BOLB   PO219742  11.784  20.463  21.017  0.1957 -0.1210  0.3268
  823BOLB   GL319743  11.460  20.188  20.848 -0.0734 -0.1817  0.0568
  823BOLB   GL419744  11.134  20.290  20.933 -0.2046  0.1396 -0.0445
  823BOLB   C1C19745  11.474  19.821  20.517  0.2252 -0.1779 -0.2135
  823BOLB   C2C19746  11.323  19.455  20.255 -0.0656  0.1004 -0.1234
  823BOLB   C3C19747  11.481  19.083  19.909 -0.3854 -0.1747 -0.2828
  823BOLB   C4C19748  11.548  18.711  19.731 -0.0378  0.2681  0.0472
  823BOLB   C1D19749  10.987  20.060  20.644  0.1805  0.0124  0.0095
  823BOLB   C2D19750  11.072  19.935  20.192 -0.0943 -0.0466  0.1855
  823BOLB   C3D19751  11.310  19.835  19.921  0.0985  0.0386  0.0355
  823BOLB   C4D19752  11.510  19.581  19.534 -0.1490 -0.1998  0.2298
  824BOLB   NC119753  22.200   5.393  12.650 -0.2515  0.0493  0.0555
  824BOLB   PO119754  22.244   5.567  12.329  0.2495  0.1319  0.0018
  824BOLB   GL119755  22.118   5.134  12.220  0.0566  0.1648 -0.3449
  824BOLB   GL219756  22.415   5.039  12.059 -0.1015  0.1239 -0.3647
  824BOLB   C1A19757  22.303   4.645  12.303 -0.2217 -0.2839 -0.4220
  824BOLB   C2A19758  22.663   4.493  12.523  0.3268 -0.1653 -0.1014
  824BOLB   C3A19759  22.976   4.329  12.795 -0.2242  0.2806 -0.4459
  824BOLB   C4A19760  23.329   4.233  12.595  0.2540  0.1300 -0.1523
  824BOLB   C1B19761  22.672   4.706  12.035 -0.4193  0.1589  0.0882
  824BOLB   C2B19762  22.940   4.600  11.704  0.0196 -0.0134  0.0648
  824BOLB   C3B19763  22.858   4.292  11.376 -0.0997 -0.0315  0.2830
  824BOLB   C4B19764  22.982   4.030  11.153 -0.3808 -0.0882 -0.1857
  824BOLB   NC219765  24.822   2.839  11.734  0.3498  0.1696 -0.0371
  824BOLB   PO219766  25.188   3.236  11.672  0.0018 -0.1944 -0.0347
  824BOLB   GL319767  25.027   3.665  11.817 -0.0239 -0.0491 -0.2010
  824BOLB   GL419768  24.768   3.409  11.933  0.3111  0.0369  0.1609
  824BOLB   C1C19769  24.813   4.015  11.845 -0.2851  0.0518 -0.1055
  824BOLB   C2C19770  24.509   4.178  12.047  0.0045  0.2417  0.0831
  824BOLB   C3C19771  24.156   3.955  12.246  0.0290 -0.3108 -0.0288
  824BOLB   C4C19772  23.801   4.238  12.422 -0.0163 -0.0842 -0.0832
  824BOLB   C1D19773  24.488   3.673  11.969 -0.1990  0.2420  0.1697
  824BOLB   C2D19774  24.369   3.971  11.614  0.2028 -0.0200 -0.3170
  824BOLB   C3D19775  23.985   4.216  11.747  0.2168  0.2188  0.2010
  824BOLB   C4D19776  23.578   4.036  12.035  0.0123 -0.2798  0.4029
  825BOLB   NC119777  12.460   6.931  26.896 -0.4032  0.0870 -0.0294
  825BOLB   PO119778  12.176   6.849  26.587 -0.2616 -0.0526  0.4144
  825BOLB   GL119779  12.564   6.777  26.350 -0.2529  0.2359  0.0208
  825BOLB   GL219780  12.483   6.653  25.930 -0.0472  0.0767 -0.0515
  825BOLB   C1A19781  12.765   7.049  26.024  0.2496 -0.0606  0.0551
  825BOLB   C2A19782  12.940   7.125  25.686 -0.2202 -0.2190 -0.1507
  825BOLB   C3A19783  13.198   6.927  25.349 -0.0555  0.0051  0.2918
  825BOLB   C4A19784  13.484   6.756  25.086  0.0328  0.0336 -0.1130
  825BOLB   C1B19785  12.668   6.723  25.474 -0.0868  0.4565 -0.1526
  825BOLB   C2B19786  12.944   6.619  25.109  0.2161  0.6778 -0.0819
  825BOLB   C3B19787  13.223   6.377  24.961 -0.0219  0.0676 -0.3901
  825BOLB   C4B19788  13.664   6.283  25.175  0.0144  0.1528 -0.0863
  825BOLB   NC219789  12.770   5.232  26.127 -0.1379 -0.1640  0.0639
  825BOLB   PO219790  12.995   5.491  26.410 -0.0102  0.0201  0.2619
  825BOLB   GL319791  13.237   5.842  26.191 -0.2965 -0.1220 -0.0096
  825BOLB   GL419792  13.527   5.937  26.317  0.0070  0.0602  0.2720
  825BOLB   C1C19793  13.421   6.268  25.985  0.1248  0.0644  0.0105
  825BOLB   C2C19794  13.803   6.337  25.766  0.2207  0.1159  0.0958
  825BOLB   C3C19795  14.040   6.531  25.510  0.1210  0.0874  0.0576
  825BOLB   C4C19796  13.891   6.785  25.139 -0.0204  0.1216  0.0587
  825BOLB   C1D19797  13.680   5.792  25.971  0.0945  0.0634  0.2349
  825BOLB   C2D19798  14.042   5.731  25.764  0.0174  0.0568  0.1423
  825BOLB   C3D19799  14.512   5.686  25.656 -0.1738 -0.3763  0.2553
  825BOLB   C4D19800  14.981   5.716  25.602 -0.2242 -0.0622 -0.2226
  826BOLB   NC119801  21.668   7.921  21.183  0.1149 -0.0190  0.0279
  826BOLB   PO119802  21.512   7.968  21.699 -0.0441  0.1239  0.0989
  826BOLB   GL119803  21.839   7.757  21.829  0.0608 -0.1441 -0.2718
  826BOLB   GL219804  21.974   7.922  22.052  0.0782  0.2521  0.2587
  826BOLB   C1A19805  22.341   7.703  21.680  0.0147  0.0757 -0.0516
  826BOLB   C2A19806  22.790   7.688  21.917  0.1110 -0.0223  0.3124
  826BOLB   C3A19807  23.096   7.513  22.284 -0.4067 -0.1815 -0.1924
  826BOLB   C4A19808  23.458   7.491  22.347  0.3666 -0.6411  0.3503
  826BOLB   C1B19809  22.354   7.817  22.221  0.4870 -0.0680  0.1989
  826BOLB   C2B19810  22.790   7.931  22.377 -0.2524 -0.0408  0.2272
  826BOLB   C3B19811  23.229   8.060  22.296 -0.0380 -0.0227  0.2621
  826BOLB   C4B19812  23.677   8.186  22.374 -0.0341  0.1179  0.0735
  826BOLB   NC219813  24.860   6.748  23.663 -0.2823  0.4877  0.1159
  826BOLB   PO219814  24.879   6.539  23.247 -0.3586  0.0361  0.0146
  826BOLB   GL319815  24.440   6.592  23.226  0.1069  0.2221 -0.1392
  826BOLB   GL419816  24.453   6.207  23.142  0.0398 -0.0186  0.0788
  826BOLB   C1C19817  24.133   6.702  23.181 -0.0668 -0.0312 -0.0867
  826BOLB   C2C19818  24.048   7.084  23.229  0.0437 -0.0623  0.0250
  826BOLB   C3C19819  24.011   7.412  22.943 -0.1951  0.0686  0.4362
  826BOLB   C4C19820  23.734   7.393  22.545 -0.1893 -0.0269  0.1723
  826BOLB   C1D19821  24.370   6.387  22.750  0.0847  0.0858  0.0103
  826BOLB   C2D19822  24.052   6.539  22.411 -0.1745  0.1755  0.0280
  826BOLB   C3D19823  23.937   6.556  21.901 -0.0740 -0.3045 -0.0839
  826BOLB   C4D19824  23.688   6.760  21.553 -0.1301  0.1944  0.1942
  827BOLB   NC119825  13.512  18.570  15.851 -0.2399  0.3187 -0.1477
  827BOLB   PO119826  13.498  18.356  16.245  0.2509 -0.4138 -0.0820
  827BOLB   GL119827  13.341  18.779  16.420  0.0188  0.0305 -0.2487
  827BOLB   GL219828  13.110  18.771  16.147 -0.5853 -0.0222 -0.1174
  827BOLB   C1A19829  13.164  19.219  16.432  0.2996 -0.0963 -0.1340
  827BOLB   C2A19830  12.979  19.361  16.716 -0.1090 -0.1331  0.3554
  827BOLB   C3A19831  12.889  19.609  16.941  0.0912 -0.4233  0.3134
  827BOLB   C4A19832  12.750  19.971  16.856 -0.0826 -0.0975 -0.0536
  827BOLB   C1B19833  12.793  18.900  16.493 -0.1471 -0.1032 -0.2469
  827BOLB   C2B19834  12.357  19.217  16.526  0.0897  0.0881  0.2207
  827BOLB   C3B19835  12.077  19.472  16.371  0.1452 -0.0136 -0.0177
  827BOLB   C4B19836  12.185  19.768  16.165 -0.0392  0.1065 -0.0518
  827BOLB   NC219837  10.961  22.012  16.409 -0.0236 -0.1018  0.0146
  827BOLB   PO219838  11.269  21.842  16.447  0.2700  0.3594  0.0579
  827BOLB   GL319839  11.434  21.587  16.672  0.0838 -0.3209 -0.4524
  827BOLB   GL419840  11.317  21.412  17.012 -0.0663 -0.2067  0.1362
  827BOLB   C1C19841  11.669  21.057  16.608 -0.1397  0.0530 -0.1805
  827BOLB   C2C19842  11.903  20.613  16.667 -0.0877 -0.2096 -0.0485
  827BOLB   C3C19843  12.083  20.288  16.552 -0.1324 -0.0372 -0.4145
  827BOLB   C4C19844  12.401  20.128  16.622  0.1113 -0.1492 -0.0606
  827BOLB   C1D19845  11.477  21.025  17.099 -0.1001  0.1990  0.2126
  827BOLB   C2D19846  11.384  20.579  16.918  0.1029  0.0345 -0.0247
  827BOLB   C3D19847  11.455  20.340  16.510  0.2562  0.2038  0.1116
  827BOLB   C4D19848  11.700  20.529  16.068  0.1373 -0.1353 -0.1407
  828BOLB   NC119849  19.421   5.963  20.503 -0.3231  0.3214  0.0521
  828BOLB   PO119850  19.738   5.654  20.665  0.1199 -0.4503  0.1390
  828BOLB   GL119851  19.844   5.440  20.925  0.0160 -0.1799 -0.2860
  828BOLB   GL219852  19.653   5.405  21.238  0.0672 -0.2119 -0.1830
  828BOLB   C1A19853  20.074   5.106  21.169  0.3200 -0.1526 -0.1252
  828BOLB   C2A19854  20.162   4.872  21.564  0.0783 -0.1198 -0.2418
  828BOLB   C3A19855  20.213   4.625  21.867 -0.1016  0.0519 -0.1788
  828BOLB   C4A19856  20.349   4.304  22.192 -0.1603 -0.1862 -0.0644
  828BOLB   C1B19857  19.733   5.191  21.602 -0.0670 -0.2153 -0.0788
  828BOLB   C2B19858  19.687   4.874  21.829  0.0821 -0.2174  0.0775
  828BOLB   C3B19859  19.685   4.527  22.105  0.0905  0.2027 -0.1533
  828BOLB   C4B19860  19.814   4.432  22.532  0.3397 -0.2536 -0.3223
  828BOLB   NC219861  21.404   1.632  23.435 -0.1159 -0.1858  0.3286
  828BOLB   PO219862  21.530   2.030  23.351  0.1144 -0.2088 -0.1137
  828BOLB   GL319863  21.311   2.415  23.110 -0.1695 -0.0311 -0.1319
  828BOLB   GL419864  21.634   2.594  23.114 -0.1483  0.0322 -0.1007
  828BOLB   C1C19865  21.120   2.760  22.894 -0.0723  0.0077 -0.2688
  828BOLB   C2C19866  20.770   3.134  22.829 -0.0109 -0.0984  0.3897
  828BOLB   C3C19867  20.669   3.518  22.572  0.0985 -0.1880  0.2608
  828BOLB   C4C19868  20.634   4.030  22.394 -0.0624  0.1491 -0.3239
  828BOLB   C1D19869  21.570   2.804  22.634 -0.0219 -0.1163  0.0246
  828BOLB   C2D19870  21.198   2.717  22.375  0.1969  0.0098 -0.0263
  828BOLB   C3D19871  20.944   2.901  22.198  0.0428 -0.0859  0.2322
  828BOLB   C4D19872  20.416   2.934  22.219 -0.1780  0.2461  0.2435
  829BOLB   NC119873  13.154  16.762  12.106 -0.0107  0.0781  0.2414
  829BOLB   PO119874  12.966  16.265  11.861 -0.0380  0.2472  0.2133
  829BOLB   GL119875  12.815  16.672  11.689 -0.3050 -0.1777 -0.0593
  829BOLB   GL219876  13.074  16.815  11.560 -0.3170 -0.1113 -0.1796
  829BOLB   C1A19877  12.660  17.193  11.627 -0.0435  0.0099 -0.1240
  829BOLB   C2A19878  12.664  17.537  11.450  0.0337  0.2295 -0.0117
  829BOLB   C3A19879  12.737  17.891  11.205  0.3029  0.0192  0.1023
  829BOLB   C4A19880  12.414  17.962  10.845  0.1892  0.2911  0.2338
  829BOLB   C1B19881  12.945  17.119  11.187  0.0205  0.2414  0.1324
  829BOLB   C2B19882  12.737  17.403  10.968 -0.1204 -0.1092 -0.3222
  829BOLB   C3B19883  12.501  17.488  10.692  0.3386  0.1163 -0.0128
  829BOLB   C4B19884  12.581  17.430  10.316  0.2284  0.0611  0.1568
  829BOLB   NC219885  11.179  19.890   9.522 -0.0022 -0.1062 -0.3076
  829BOLB   PO219886  11.534  19.675   9.339  0.1040  0.0796  0.2252
  829BOLB   GL319887  11.715  19.312   9.605 -0.1351 -0.1075 -0.2224
  829BOLB   GL419888  11.431  19.213   9.798  0.0444 -0.1434 -0.1145
  829BOLB   C1C19889  11.930  19.095   9.934 -0.0346  0.1348  0.0241
  829BOLB   C2C19890  12.218  19.066  10.181  0.0917 -0.2705 -0.1485
  829BOLB   C3C19891  12.464  18.639  10.288 -0.1521  0.0057  0.0999
  829BOLB   C4C19892  12.592  18.224  10.533  0.2776 -0.2044 -0.0378
  829BOLB   C1D19893  11.167  18.892   9.993  0.1564 -0.1951  0.1511
  829BOLB   C2D19894  11.164  18.501   9.858  0.2391 -0.2559 -0.0281
  829BOLB   C3D19895  11.054  18.123  10.080 -0.1132 -0.1137 -0.1240
  829BOLB   C4D19896  10.774  18.132  10.420  0.0068  0.0699 -0.1835
  830BOLB   NC119897  23.844  12.706  14.854  0.2199  0.0321 -0.1259
  830BOLB   PO119898  24.270  13.005  14.713  0.1251 -0.2337 -0.0060
  830BOLB   GL119899  24.601  13.306  14.759  0.0563  0.1131  0.2498
  830BOLB   GL219900  24.595  13.330  14.486 -0.0837 -0.0492 -0.2314
  830BOLB   C1A19901  24.945  13.584  14.645 -0.1487  0.1755  0.0882
  830BOLB   C2A19902  25.324  13.695  14.582  0.0312  0.1504  0.0954
  830BOLB   C3A19903  25.656  13.777  14.761 -0.1175 -0.0189 -0.2111
  830BOLB   C4A19904  25.853  13.685  15.193 -0.1626  0.1199  0.1538
  830BOLB   C1B19905  24.946  12.986  14.552  0.3348 -0.2185  0.1114
  830BOLB   C2B19906  25.195  12.818  14.855  0.0169  0.0322  0.1126
  830BOLB   C3B19907  25.732  12.854  14.815  0.0015  0.0524  0.1768
  830BOLB   C4B19908  26.119  12.844  14.884 -0.2118  0.1730  0.2680
  830BOLB   NC219909  28.108  13.919  15.568 -0.1517 -0.2502 -0.2501
  830BOLB   PO219910  28.042  13.500  15.882 -0.0670  0.0601 -0.1023
  830BOLB   GL319911  27.634  13.434  15.905  0.1466 -0.2971  0.2193
  830BOLB   GL419912  27.564  13.724  15.707  0.1053 -0.0963  0.1293
  830BOLB   C1C19913  27.187  13.255  15.894  0.0280 -0.0207  0.1973
  830BOLB   C2C19914  26.658  13.155  15.796  0.2274 -0.4972  0.2093
  830BOLB   C3C19915  26.210  13.152  15.793  0.1220  0.3393  0.1422
  830BOLB   C4C19916  25.964  13.274  15.377 -0.2173 -0.0141  0.0258
  830BOLB   C1D19917  27.183  13.761  15.931 -0.2062 -0.0954 -0.2919
  830BOLB   C2D19918  26.896  13.628  16.322 -0.2185  0.2560  0.0088
  830BOLB   C3D19919  26.510  13.702  16.539 -0.1922 -0.0254 -0.2613
  830BOLB   C4D19920  26.095  13.775  16.428  0.1954 -0.3025  0.3191
  831BOLB   NC119921  23.117   8.923  21.069 -0.0461  0.1554 -0.1820
  831BOLB   PO119922  22.812   9.161  21.019  0.2819 -0.4171 -0.1283
  831BOLB   GL119923  22.832   8.982  21.530 -0.0610 -0.3075  0.3533
  831BOLB   GL219924  23.127   9.048  21.550  0.2732 -0.1422 -0.1944
  831BOLB   C1A19925  22.796   8.951  22.008  0.2206  0.1428 -0.2127
  831BOLB   C2A19926  22.829   9.172  22.257 -0.1219  0.0697 -0.0506
  831BOLB   C3A19927  23.229   9.438  22.582 -0.1950  0.1068  0.1721
  831BOLB   C4A19928  23.524   9.740  22.675  0.0984 -0.0256 -0.1135
  831BOLB   C1B19929  23.547   9.159  21.726  0.0644  0.0610 -0.0066
  831BOLB   C2B19930  23.731   9.230  22.151  0.0719 -0.0606 -0.3714
  831BOLB   C3B19931  24.147   9.252  21.986 -0.2486 -0.0213  0.1113
  831BOLB   C4B19932  24.397   9.599  21.619  0.0560  0.1511  0.0582
  831BOLB   NC219933  25.741  10.588  24.106 -0.1994  0.0870 -0.1885
  831BOLB   PO219934  25.463  10.555  23.818  0.0864  0.3768 -0.0139
  831BOLB   GL319935  25.177  10.603  23.572  0.0428  0.4235  0.0660
  831BOLB   GL419936  24.949  10.410  23.788  0.1634 -0.2209  0.2127
  831BOLB   C1C19937  24.867  10.505  23.333  0.1299 -0.1076 -0.2462
  831BOLB   C2C19938  24.471  10.412  23.306 -0.0255  0.1042 -0.0422
  831BOLB   C3C19939  24.114  10.329  23.004 -0.2319  0.0420 -0.0903
  831BOLB   C4C19940  23.736  10.026  22.898  0.0949  0.2140 -0.1276
  831BOLB   C1D19941  24.720  10.045  23.506  0.1265  0.0128 -0.1026
  831BOLB   C2D19942  24.309   9.916  23.387 -0.1030 -0.0185  0.2567
  831BOLB   C3D19943  24.157   9.743  22.974 -0.1006  0.2224 -0.0566
  831BOLB   C4D19944  24.011   9.316  22.744 -0.1748 -0.2636 -0.3776
  832BOLB   NC119945  15.421  18.723  18.128 -0.1877 -0.2220  0.1560
  832BOLB   PO119946  15.665  18.709  17.740  0.0522  0.4817  0.1039
  832BOLB   GL119947  15.944  18.990  17.926  0.1309  0.3957 -0.0329
  832BOLB   GL219948  16.239  19.012  17.881 -0.0186 -0.2451  0.1489
  832BOLB   C1A19949  15.848  19.335  18.172  0.3050  0.1009 -0.1225
  832BOLB   C2A19950  16.051  19.638  18.304  0.2111  0.1651 -0.1453
  832BOLB   C3A19951  16.174  20.066  18.284 -0.0243 -0.3164  0.3112
  832BOLB   C4A19952  15.900  20.334  18.262 -0.0941 -0.2540 -0.0058
  832BOLB   C1B19953  16.390  19.448  17.978  0.2221 -0.3369 -0.0760
  832BOLB   C2B19954  16.384  19.885  17.851  0.2676 -0.1315  0.0397
  832BOLB   C3B19955  16.393  20.352  17.843  0.2008 -0.2160 -0.1652
  832BOLB   C4B19956  16.244  20.743  18.073 -0.0815  0.3177  0.1008
  832BOLB   NC219957  15.443  22.820  18.806 -0.1918 -0.0877  0.0632
  832BOLB   PO219958  15.090  22.610  18.638  0.1325  0.0915 -0.2085
  832BOLB   GL319959  15.089  22.173  18.580 -0.0542 -0.0898  0.2171
  832BOLB   GL419960  15.388  22.045  18.558  0.0121  0.0934  0.1178
  832BOLB   C1C19961  15.029  21.691  18.641 -0.0785  0.0540  0.2961
  832BOLB   C2C19962  15.191  21.274  18.708  0.1642  0.0133  0.1132
  832BOLB   C3C19963  15.289  20.857  18.526 -0.0520 -0.1730 -0.1642
  832BOLB   C4C19964  15.727  20.673  18.288  0.4627 -0.0817  0.0970
  832BOLB   C1D19965  15.740  22.133  18.164 -0.2775 -0.0691 -0.1642
  832BOLB   C2D19966  15.829  22.152  17.787 -0.0616 -0.2537 -0.0220
  832BOLB   C3D19967  15.672  22.151  17.420  0.0539 -0.0954  0.2092
  832BOLB   C4D19968  15.299  22.193  17.034 -0.2129  0.1114  0.0020
  833BOLB   NC119969  17.362  18.635  16.181  0.2110  0.1908  0.3400
  833BOLB   PO119970  17.807  18.707  16.222 -0.0320 -0.1447 -0.1528
  833BOLB   GL119971  18.023  18.912  15.942  0.3914 -0.2747  0.0797
  833BOLB   GL219972  17.862  19.175  16.187  0.0007  0.2196 -0.1162
  833BOLB   C1A19973  18.306  19.243  15.941 -0.2244  0.0428 -0.2823
  833BOLB   C2A19974  18.366  19.543  16.223  0.3963  0.2981  0.2804
  833BOLB   C3A19975  18.359  19.926  16.354  0.0768 -0.2033  0.2211
  833BOLB   C4A19976  18.483  20.327  16.334  0.0910  0.0788 -0.1737
  833BOLB   C1B19977  17.904  19.554  16.047 -0.2310 -0.1260  0.2157
  833BOLB   C2B19978  18.120  19.965  15.878  0.1494  0.1133 -0.2595
  833BOLB   C3B19979  17.985  20.329  15.724  0.1517 -0.1285  0.1410
  833BOLB   C4B19980  17.822  20.708  15.570 -0.0330 -0.0002  0.0386
  833BOLB   NC219981  18.539  22.542  15.732  0.0796 -0.1481  0.0503
  833BOLB   PO219982  18.623  22.595  16.239  0.2011  0.0375 -0.2690
  833BOLB   GL319983  18.534  22.181  16.457  0.0610 -0.1966 -0.0697
  833BOLB   GL419984  18.578  22.173  16.802  0.0175  0.3759  0.0810
  833BOLB   C1C19985  18.528  21.795  16.385 -0.3528 -0.2444  0.2982
  833BOLB   C2C19986  18.590  21.404  16.417  0.0002 -0.0612  0.3963
  833BOLB   C3C19987  18.792  21.055  16.343 -0.0780 -0.0903 -0.1166
  833BOLB   C4C19988  18.843  20.630  16.179  0.0100 -0.1088 -0.3977
  833BOLB   C1D19989  18.252  21.817  16.944 -0.0211  0.1545  0.0801
  833BOLB   C2D19990  18.125  21.527  17.398  0.1561  0.1371 -0.1083
  833BOLB   C3D19991  17.744  21.504  17.543 -0.0350  0.0733 -0.0061
  833BOLB   C4D19992  17.466  21.182  17.580 -0.0378  0.1742  0.1176
  834BOLB   NC119993  21.693  13.238  26.556  0.1520  0.6296  0.0617
  834BOLB   PO119994  21.870  13.209  26.231 -0.3462 -0.1757  0.2810
  834BOLB   GL119995  21.715  12.757  26.218  0.3444 -0.0206 -0.1819
  834BOLB   GL219996  21.953  12.571  26.157  0.1453 -0.2361  0.0796
  834BOLB   C1A19997  21.449  12.596  25.927 -0.1106  0.0523 -0.0122
  834BOLB   C2A19998  21.159  12.559  25.512 -0.0643 -0.1678  0.2010
  834BOLB   C3A19999  20.930  12.288  25.304  0.0790 -0.0637  0.1696
  834BOLB   C4A20000  20.913  11.850  25.037  0.1840  0.1288  0.2350
  834BOLB   C1B20001  21.870  12.213  25.908  0.0876  0.1579  0.3992
  834BOLB   C2B20002  21.547  12.202  25.585  0.3105  0.0712 -0.1627
  834BOLB   C3B20003  21.579  12.570  25.211  0.0347 -0.0509 -0.0408
  834BOLB   C4B20004  21.267  12.727  25.053 -0.1338 -0.0689  0.4112
  834BOLB   NC220005  20.220  10.580  22.835 -0.0119  0.0248 -0.1317
  834BOLB   PO220006  20.135  10.821  23.225  0.0975  0.2776 -0.3351
  834BOLB   GL320007  20.425  10.804  23.559  0.2878 -0.2279  0.0331
  834BOLB   GL420008  20.483  10.481  23.717  0.0511  0.1729  0.0364
  834BOLB   C1C20009  20.496  10.902  23.997 -0.1860 -0.0213  0.0629
  834BOLB   C2C20010  20.406  10.821  24.459 -0.0490  0.1111 -0.1375
  834BOLB   C3C20011  20.554  11.180  24.627 -0.0364 -0.2715  0.3153
  834BOLB   C4C20012  20.592  11.500  24.911  0.2693 -0.2021  0.0967
  834BOLB   C1D20013  20.792  10.182  23.818 -0.1133 -0.1608  0.0891
  834BOLB   C2D20014  20.853   9.876  24.089  0.1254 -0.0372  0.4358
  834BOLB   C3D20015  21.092   9.853  24.547  0.5338  0.4344  0.0439
  834BOLB   C4D20016  21.459   9.789  24.656  0.1076 -0.3092 -0.1855
  835BOLB   NC120017   3.650  10.961   7.052  0.0676  0.3939 -0.2269
  835BOLB   PO120018   3.285  11.112   7.380 -0.1172  0.0745 -0.3265
  835BOLB   GL120019   3.534  10.992   7.829  0.1306  0.2008  0.3340
  835BOLB   GL220020   3.620  10.668   7.928  0.0439 -0.0061  0.0242
  835BOLB   C1A20021   3.492  11.109   8.278  0.2992  0.0023 -0.0085
  835BOLB   C2A20022   3.874  11.196   8.646  0.0560  0.1160 -0.1947
  835BOLB   C3A20023   4.243  11.383   8.722  0.3219 -0.1795 -0.1332
  835BOLB   C4A20024   4.583  11.427   8.974  0.0413  0.2709  0.2866
  835BOLB   C1B20025   3.580  10.605   8.273  0.1713 -0.1597  0.0866
  835BOLB   C2B20026   3.872  10.687   8.532 -0.1423 -0.1514  0.2210
  835BOLB   C3B20027   4.169  10.565   8.798  0.3263 -0.0819 -0.2529
  835BOLB   C4B20028   4.452  10.508   9.154 -0.2084 -0.2502 -0.0222
  835BOLB   NC220029   4.113  13.509   7.633  0.2440 -0.1655 -0.1697
  835BOLB   PO220030   4.347  13.704   7.905  0.0917  0.2924 -0.0556
  835BOLB   GL320031   4.679  13.481   8.106 -0.0409  0.0223 -0.2271
  835BOLB   GL420032   4.921  13.542   8.015  0.1152  0.0476  0.1262
  835BOLB   C1C20033   4.787  12.947   8.228  0.3634 -0.0584  0.0369
  835BOLB   C2C20034   4.850  12.607   8.536  0.0748  0.2511  0.0868
  835BOLB   C3C20035   4.761  12.258   8.751  0.0530  0.2625 -0.2308
  835BOLB   C4C20036   4.819  11.859   8.935  0.0277 -0.1928 -0.1996
  835BOLB   C1D20037   5.043  13.368   8.429  0.2082  0.0956  0.1347
  835BOLB   C2D20038   5.229  12.927   8.569  0.1805 -0.0889  0.0757
  835BOLB   C3D20039   5.366  12.496   8.779  0.4929 -0.0588 -0.2383
  835BOLB   C4D20040   5.787  12.215   8.756  0.2212  0.1402 -0.1426
  836BOLB   NC120041  11.749   3.065  18.165  0.2586  0.2204 -0.1595
  836BOLB   PO120042  11.758   2.929  17.706  0.1737 -0.2974  0.0034
  836BOLB   GL120043  11.604   2.570  17.788  0.0034 -0.0621  0.3125
  836BOLB   GL220044  11.312   2.684  17.850 -0.1457  0.1032  0.0130
  836BOLB   C1A20045  11.510   2.225  18.025 -0.0589  0.0293  0.3802
  836BOLB   C2A20046  11.510   1.854  18.146  0.4469  0.3131 -0.4895
  836BOLB   C3A20047  11.574   1.598  18.528  0.3070  0.0457 -0.3863
  836BOLB   C4A20048  11.211   1.405  18.702  0.0892  0.2594 -0.2904
  836BOLB   C1B20049  11.033   2.251  17.782 -0.1682  0.1884 -0.1689
  836BOLB   C2B20050  10.781   1.994  17.933 -0.1092 -0.0491 -0.0012
  836BOLB   C3B20051  10.306   1.932  17.764 -0.0196 -0.0476  0.0271
  836BOLB   C4B20052  10.012   2.238  17.644  0.2314 -0.3615  0.1417
  836BOLB   NC220053  10.535  -0.334  19.817 -0.1891 -0.1037  0.3424
  836BOLB   PO220054  10.493  -0.437  20.139 -0.0225 -0.4253  0.1682
  836BOLB   GL320055  10.661  -0.018  20.141  0.4150 -0.2454  0.0477
  836BOLB   GL420056  10.874  -0.072  20.424  0.0700 -0.0072  0.0004
  836BOLB   C1C20057  10.604   0.405  19.948 -0.1913  0.1881  0.2165
  836BOLB   C2C20058  10.512   0.799  19.668 -0.2768  0.1162 -0.0723
  836BOLB   C3C20059  10.775   1.113  19.464 -0.2261 -0.2857  0.0374
  836BOLB   C4C20060  10.889   1.134  19.061 -0.0301  0.3240 -0.0665
  836BOLB   C1D20061  11.135   0.201  20.182 -0.0692 -0.0231  0.4798
  836BOLB   C2D20062  11.407   0.493  20.235 -0.1476  0.0186 -0.0449
  836BOLB   C3D20063  11.798   0.715  20.194  0.2197 -0.1128  0.1972
  836BOLB   C4D20064  12.068   0.935  19.908 -0.0687 -0.1390 -0.0273
  837BOLB   NC120065   4.281  13.571  11.302 -0.1083 -0.0011  0.1617
  837BOLB   PO120066   4.580  13.833  11.132  0.0961 -0.1138  0.1728
  837BOLB   GL120067   4.717  13.497  10.937  0.1406 -0.0877  0.2278
  837BOLB   GL220068   4.742  13.550  10.586 -0.0440  0.0481  0.2734
  837BOLB   C1A20069   4.970  13.089  10.899 -0.4057  0.1963 -0.2079
  837BOLB   C2A20070   5.149  12.810  11.201 -0.2825 -0.2243  0.1326
  837BOLB   C3A20071   5.350  12.701  11.564  0.0697  0.2255 -0.1883
  837BOLB   C4A20072   5.123  12.503  11.851 -0.3503  0.0686 -0.1083
  837BOLB   C1B20073   5.125  13.414  10.542 -0.0177  0.0674  0.0916
  837BOLB   C2B20074   5.403  13.208  10.621 -0.1399  0.1741  0.1181
  837BOLB   C3B20075   5.433  12.821  10.704  0.3249 -0.0277 -0.0729
  837BOLB   C4B20076   5.455  12.381  10.958 -0.1061  0.1480 -0.3034
  837BOLB   NC220077   3.065  13.165  11.431  0.2263 -0.2304  0.0311
  837BOLB   PO220078   3.382  13.327  11.720 -0.0139 -0.1703  0.0442
  837BOLB   GL320079   3.427  12.869  11.549 -0.1369 -0.1004 -0.1992
  837BOLB   GL420080   3.572  12.968  11.364  0.2933 -0.3918 -0.1901
  837BOLB   C1C20081   3.743  12.644  11.746 -0.1386  0.3263  0.1633
  837BOLB   C2C20082   3.985  12.517  12.114 -0.1725  0.5243 -0.4940
  837BOLB   C3C20083   4.347  12.441  12.279  0.2864  0.0487  0.4202
  837BOLB   C4C20084   4.775  12.426  12.176  0.1739 -0.0835  0.0345
  837BOLB   C1D20085   4.038  12.803  11.346  0.1659  0.1784  0.2780
  837BOLB   C2D20086   4.177  12.420  11.399 -0.0359  0.0550  0.2743
  837BOLB   C3D20087   4.495  12.109  11.361  0.1061 -0.1903  0.1564
  837BOLB   C4D20088   4.826  11.892  11.241  0.0001 -0.2175 -0.3909
  838BOLB   NC120089  17.637  17.002  20.577  0.1243 -0.0622  0.0564
  838BOLB   PO120090  17.474  17.302  20.640  0.0709  0.0750  0.1483
  838BOLB   GL120091  17.682  17.707  20.698 -0.1660  0.4559  0.0883
  838BOLB   GL220092  17.434  17.863  20.826 -0.0891 -0.0600 -0.1034
  838BOLB   C1A20093  17.826  18.126  20.873 -0.0712  0.1200  0.1317
  838BOLB   C2A20094  17.843  18.429  21.151 -0.2303 -0.2714 -0.3347
  838BOLB   C3A20095  18.083  18.810  21.236 -0.0185  0.0330 -0.0509
  838BOLB   C4A20096  18.237  18.979  21.545  0.0291 -0.2236 -0.1566
  838BOLB   C1B20097  17.323  18.110  21.071 -0.2115 -0.0861 -0.0677
  838BOLB   C2B20098  17.350  18.455  21.301 -0.0703 -0.1999 -0.1573
  838BOLB   C3B20099  17.144  18.872  21.378 -0.2914  0.2127 -0.0585
  838BOLB   C4B20100  17.426  19.018  21.674 -0.1749  0.2737  0.1879
  838BOLB   NC220101  19.427  20.725  22.986  0.1619  0.4625 -0.2457
  838BOLB   PO220102  19.354  20.561  22.601  0.0921 -0.2741 -0.0732
  838BOLB   GL320103  19.300  20.184  22.460  0.0334 -0.2223  0.1417
  838BOLB   GL420104  19.537  19.919  22.478 -0.1229  0.0049 -0.1371
  838BOLB   C1C20105  19.001  19.954  22.563 -0.0631  0.2004 -0.0425
  838BOLB   C2C20106  18.898  19.572  22.357  0.1405 -0.0913 -0.0237
  838BOLB   C3C20107  18.793  19.254  22.178  0.0484  0.0612 -0.0096
  838BOLB   C4C20108  18.472  19.212  21.856  0.1734  0.1286  0.2026
  838BOLB   C1D20109  19.316  19.707  22.168  0.3076  0.0100 -0.3178
  838BOLB   C2D20110  19.002  19.504  21.812  0.1132  0.0692  0.0150
  838BOLB   C3D20111  18.760  19.374  21.431 -0.0040  0.0407 -0.3786
  838BOLB   C4D20112  18.565  19.321  21.134 -0.1058  0.3273 -0.0102
  839BOLB   NC120113  17.042  12.844  23.586 -0.0569 -0.0768 -0.0599
  839BOLB   PO120114  17.471  12.711  23.793  0.0018 -0.0920 -0.1003
  839BOLB   GL120115  17.585  12.885  24.210 -0.0290  0.1590 -0.1030
  839BOLB   GL220116  17.400  13.164  24.317 -0.0146 -0.0601 -0.0111
  839BOLB   C1A20117  17.858  12.962  24.583  0.1280  0.2402 -0.0862
  839BOLB   C2A20118  17.882  13.105  24.984 -0.1220  0.0186 -0.3464
  839BOLB   C3A20119  17.864  12.961  25.313  0.0618  0.1968 -0.1783
  839BOLB   C4A20120  17.972  12.938  25.699  0.0491 -0.1221  0.0425
  839BOLB   C1B20121  17.357  13.590  24.449 -0.2915  0.0811  0.2198
  839BOLB   C2B20122  17.425  13.678  24.830  0.0202 -0.1337  0.0151
  839BOLB   C3B20123  17.305  14.001  25.027 -0.2660 -0.0127 -0.1144
  839BOLB   C4B20124  17.016  14.212  24.949  0.1316 -0.1195 -0.1648
  839BOLB   NC220125  19.655  11.978  27.633  0.0807  0.3237 -0.1504
  839BOLB   PO220126  19.528  12.324  27.450  0.2838  0.0726  0.2542
  839BOLB   GL320127  19.147  12.177  27.112  0.1334  0.0486 -0.1704
  839BOLB   GL420128  19.244  11.906  27.089  0.0964  0.1532  0.4114
  839BOLB   C1C20129  18.963  12.123  26.713  0.0031 -0.3164 -0.0928
  839BOLB   C2C20130  18.722  12.261  26.398 -0.2505 -0.0964 -0.0374
  839BOLB   C3C20131  18.408  12.521  26.189  0.0029 -0.1057  0.0012
  839BOLB   C4C20132  18.236  12.622  25.878  0.1999 -0.1422  0.1900
  839BOLB   C1D20133  19.495  11.968  26.754  0.1014  0.1554 -0.0092
  839BOLB   C2D20134  19.795  12.302  26.523  0.0065 -0.0421  0.0851
  839BOLB   C3D20135  19.775  12.620  26.201 -0.0173  0.1869 -0.0512
  839BOLB   C4D20136  19.709  13.051  26.164  0.1563  0.1576 -0.2113
  840BOLB   NC120137  14.690   1.864  17.777  0.0992  0.2203  0.2216
  840BOLB   PO120138  14.863   1.488  17.578  0.2034  0.1100 -0.0825
  840BOLB   GL120139  15.070   1.180  17.851  0.4065 -0.0198 -0.0433
  840BOLB   GL220140  14.893   0.926  17.893 -0.0812 -0.1823  0.0800
  840BOLB   C1A20141  15.272   1.028  18.172  0.0962  0.0061  0.0061
  840BOLB   C2A20142  15.351   0.573  18.364  0.2190  0.0361 -0.0122
  840BOLB   C3A20143  15.229   0.152  18.354 -0.1893 -0.1704  0.1935
  840BOLB   C4A20144  15.385  -0.230  18.366 -0.2147  0.2012  0.2666
  840BOLB   C1B20145  14.847   0.523  18.007 -0.2739 -0.0704 -0.0590
  840BOLB   C2B20146  14.687   0.188  18.165  0.1225  0.1387 -0.0678
  840BOLB   C3B20147  14.487  -0.143  18.434  0.1779  0.0471 -0.3613
  840BOLB   C4B20148  14.475  -0.519  18.843  0.4613 -0.0432 -0.0600
  840BOLB   NC220149  14.946  -1.740  20.507  0.0608  0.1558 -0.2229
  840BOLB   PO220150  14.698  -1.901  20.217  0.3850 -0.0088  0.1063
  840BOLB   GL320151  15.021  -1.572  19.986  0.1555 -0.0126  0.1190
  840BOLB   GL420152  14.797  -1.461  19.856 -0.0900 -0.0833  0.3446
  840BOLB   C1C20153  15.284  -1.293  19.851 -0.1234 -0.2825 -0.0616
  840BOLB   C2C20154  15.425  -0.960  19.483 -0.1114 -0.0026  0.5402
  840BOLB   C3C20155  15.372  -0.751  18.985 -0.1964  0.1145  0.1728
  840BOLB   C4C20156  15.339  -0.597  18.670 -0.1801 -0.0207  0.0161
  840BOLB   C1D20157  14.876  -1.084  19.605  0.0699  0.3122  0.2411
  840BOLB   C2D20158  15.042  -0.641  19.533  0.1373 -0.0704  0.2815
  840BOLB   C3D20159  15.332  -0.399  19.386 -0.0929 -0.2023  0.3624
  840BOLB   C4D20160  15.508  -0.257  18.957  0.3491  0.0635 -0.2227
  841BOLB   NC120161  14.020  12.053   8.370  0.1649 -0.0840  0.0515
  841BOLB   PO120162  13.698  12.328   8.229 -0.4442 -0.3512 -0.0371
  841BOLB   GL120163  13.474  12.566   7.862 -0.0814  0.0632 -0.1565
  841BOLB   GL220164  13.243  12.289   7.734 -0.0175  0.2009  0.1145
  841BOLB   C1A20165  13.179  12.754   7.555 -0.0868  0.5551  0.0305
  841BOLB   C2A20166  12.942  12.807   7.185  0.0684 -0.2069  0.1167
  841BOLB   C3A20167  12.716  12.973   6.940  0.1359  0.0001 -0.3110
  841BOLB   C4A20168  12.530  13.254   6.693 -0.2562 -0.1929  0.2129
  841BOLB   C1B20169  12.891  12.308   7.439  0.1253 -0.2343 -0.1930
  841BOLB   C2B20170  12.498  12.492   7.144 -0.1562 -0.0778  0.2282
  841BOLB   C3B20171  12.205  12.841   7.028 -0.1116  0.1155  0.1598
  841BOLB   C4B20172  12.060  13.030   6.747  0.0765  0.0284 -0.0413
  841BOLB   NC220173  12.287  15.050   4.418 -0.1978 -0.0325 -0.1856
  841BOLB   PO220174  12.061  14.728   4.510 -0.0602  0.3814  0.2723
  841BOLB   GL320175  12.108  14.434   4.845  0.0755  0.0971 -0.0454
  841BOLB   GL420176  11.968  14.197   4.750 -0.1045  0.0380  0.0248
  841BOLB   C1C20177  12.196  14.199   5.206 -0.1802  0.1316  0.3754
  841BOLB   C2C20178  12.495  14.098   5.584  0.0677 -0.0026 -0.3495
  841BOLB   C3C20179  12.545  13.715   5.949  0.1772 -0.3298  0.1725
  841BOLB   C4C20180  12.588  13.440   6.223 -0.0158  0.0161  0.0898
  841BOLB   C1D20181  11.757  13.970   5.105  0.2335  0.1161  0.2067
  841BOLB   C2D20182  11.597  13.553   5.247  0.1675  0.0508  0.0904
  841BOLB   C3D20183  11.670  13.192   5.346  0.0568 -0.1061 -0.2093
  841BOLB   C4D20184  11.794  12.797   5.283 -0.1716 -0.3652  0.0265
  842BOLB   NC120185  18.810   2.975  17.556  0.1278  0.0274  0.0267
  842BOLB   PO120186  19.241   2.783  17.524 -0.0909 -0.0490 -0.0539
  842BOLB   GL120187  19.079   2.458  17.702  0.1051  0.0298  0.2287
  842BOLB   GL220188  19.070   2.191  17.595  0.2112  0.1357  0.1896
  842BOLB   C1A20189  19.126   2.197  18.094  0.1525 -0.0915  0.0028
  842BOLB   C2A20190  19.305   1.775  18.305 -0.0321 -0.0281 -0.1423
  842BOLB   C3A20191  19.631   1.569  18.468 -0.3024  0.2171 -0.1684
  842BOLB   C4A20192  19.753   1.288  18.868  0.0676 -0.0644  0.1040
  842BOLB   C1B20193  19.383   1.916  17.762  0.0845 -0.1807 -0.1419
  842BOLB   C2B20194  19.808   1.856  17.800 -0.0693 -0.2655 -0.2928
  842BOLB   C3B20195  19.795   1.491  18.012  0.0179 -0.1441 -0.0352
  842BOLB   C4B20196  20.083   1.148  18.061 -0.3497 -0.1308  0.1137
  842BOLB   NC220197  20.897  -0.530  19.729 -0.0475  0.0988 -0.1676
  842BOLB   PO220198  21.203  -0.339  20.006 -0.1377 -0.0716 -0.0889
  842BOLB   GL320199  20.935   0.005  19.893  0.0590 -0.1939  0.2094
  842BOLB   GL420200  20.840  -0.063  19.558 -0.1700  0.0921  0.0280
  842BOLB   C1C20201  20.958   0.455  19.735 -0.0898 -0.1222 -0.0879
  842BOLB   C2C20202  20.828   0.832  19.522 -0.2505 -0.1705  0.1529
  842BOLB   C3C20203  20.599   0.905  19.182 -0.2171 -0.0638  0.2766
  842BOLB   C4C20204  20.110   0.999  19.047 -0.0573  0.1285 -0.0363
  842BOLB   C1D20205  20.392   0.002  19.496  0.0427 -0.1511 -0.0889
  842BOLB   C2D20206  19.994   0.185  19.514 -0.0195  0.1447 -0.2422
  842BOLB   C3D20207  19.655   0.499  19.278  0.0094  0.2346 -0.2694
  842BOLB   C4D20208  19.473   0.590  18.811 -0.0727  0.1713  0.1056
  843BOLB   NC120209  22.920  10.478  20.573 -0.2449  0.1032  0.1129
  843BOLB   PO120210  22.838  10.671  20.900  0.1855 -0.0556 -0.1113
  843BOLB   GL120211  23.120  10.818  21.200 -0.4552  0.0912  0.0667
  843BOLB   GL220212  23.232  11.096  21.073 -0.2058 -0.0286 -0.0018
  843BOLB   C1A20213  23.503  10.761  21.544  0.0603 -0.0061 -0.2806
  843BOLB   C2A20214  23.752  10.943  21.763  0.1175  0.0101  0.0085
  843BOLB   C3A20215  24.037  10.967  22.121  0.2389 -0.1313 -0.0509
  843BOLB   C4A20216  24.196  11.124  22.501 -0.0904 -0.0582  0.1901
  843BOLB   C1B20217  23.709  11.009  21.168 -0.2673  0.0753 -0.0112
  843BOLB   C2B20218  23.984  11.040  21.328 -0.0549  0.0699  0.1696
  843BOLB   C3B20219  24.064  11.442  21.715 -0.1060  0.1706 -0.0609
  843BOLB   C4B20220  24.334  11.376  22.077  0.1729 -0.0077  0.1291
  843BOLB   NC220221  26.578  11.788  23.097 -0.1074 -0.2973  0.0171
  843BOLB   PO220222  26.337  11.633  23.345 -0.0183 -0.0399  0.4305
  843BOLB   GL320223  26.134  11.603  22.924  0.1935  0.0440 -0.0063
  843BOLB   GL420224  26.153  11.878  22.738 -0.2378  0.2766 -0.1587
  843BOLB   C1C20225  25.735  11.471  22.672  0.1045  0.4585 -0.1087
  843BOLB   C2C20226  25.323  11.450  22.729  0.3785  0.0303  0.3435
  843BOLB   C3C20227  24.813  11.476  22.819  0.1107  0.1533 -0.0792
  843BOLB   C4C20228  24.490  11.132  22.758  0.1426 -0.0118 -0.0358
  843BOLB   C1D20229  26.020  11.772  22.382  0.1764 -0.1874 -0.2539
  843BOLB   C2D20230  25.907  11.883  22.006  0.5354 -0.0181  0.0633
  843BOLB   C3D20231  25.960  11.956  21.604  0.1014  0.2304 -0.0748
  843BOLB   C4D20232  26.170  11.672  21.319  0.3694  0.0492 -0.1049
  844BOLB   NC120233   8.450  10.636  18.640  0.0132 -0.2355  0.3075
  844BOLB   PO120234   8.412  10.320  18.426  0.2851 -0.1037 -0.1465
  844BOLB   GL120235   7.992  10.457  18.412 -0.2761  0.0135  0.0327
  844BOLB   GL220236   7.885  10.680  18.661  0.1527 -0.3842 -0.3515
  844BOLB   C1A20237   7.544  10.360  18.438 -0.1213 -0.0571 -0.5275
  844BOLB   C2A20238   7.150  10.320  18.690 -0.1503 -0.0331 -0.0112
  844BOLB   C3A20239   6.677  10.523  18.612 -0.3004 -0.1347 -0.0759
  844BOLB   C4A20240   6.303  10.677  18.439 -0.0343 -0.3350 -0.1966
  844BOLB   C1B20241   7.450  10.753  18.704 -0.0173 -0.0275  0.1639
  844BOLB   C2B20242   7.086  10.808  18.908  0.0144 -0.2275 -0.0219
  844BOLB   C3B20243   6.748  10.928  19.159  0.1304  0.3295  0.3904
  844BOLB   C4B20244   6.400  11.128  19.478 -0.0985  0.0585 -0.4778
  844BOLB   NC220245   4.707  11.568  18.748  0.1811  0.0018 -0.0042
  844BOLB   PO220246   4.426  11.375  19.063  0.0713  0.0320  0.1493
  844BOLB   GL320247   4.765  11.150  19.018 -0.2541  0.1450  0.1961
  844BOLB   GL420248   4.898  11.318  19.184 -0.0831  0.0854  0.4644
  844BOLB   C1C20249   4.999  10.805  18.803  0.0362  0.2018 -0.2583
  844BOLB   C2C20250   5.216  10.416  18.739 -0.3669 -0.3741 -0.1759
  844BOLB   C3C20251   5.580  10.362  18.599 -0.0631 -0.1349 -0.1828
  844BOLB   C4C20252   5.923  10.496  18.406 -0.0955  0.0378  0.2920
  844BOLB   C1D20253   5.323  11.365  19.142 -0.1919 -0.0671 -0.2312
  844BOLB   C2D20254   5.695  11.511  18.838  0.0474  0.1042  0.0875
  844BOLB   C3D20255   6.014  11.678  18.756 -0.1661 -0.1242  0.1574
  844BOLB   C4D20256   6.240  11.919  18.967  0.0425  0.0481  0.1538
  845BOLB   NC120257  12.794  22.155  15.228  0.0231  0.2024 -0.2563
  845BOLB   PO120258  12.396  22.042  15.429  0.1373  0.2358  0.1045
  845BOLB   GL120259  12.514  21.710  15.497 -0.0151 -0.0068 -0.0651
  845BOLB   GL220260  12.886  21.726  15.559  0.1493  0.1259 -0.0270
  845BOLB   C1A20261  12.705  21.199  15.416 -0.1271 -0.2929 -0.0392
  845BOLB   C2A20262  12.717  20.773  15.472  0.0494  0.2808 -0.0286
  845BOLB   C3A20263  12.894  20.478  15.560 -0.1691 -0.4342 -0.0962
  845BOLB   C4A20264  13.170  20.173  15.513  0.0543  0.2088 -0.2254
  845BOLB   C1B20265  13.088  21.447  15.900 -0.1239  0.2686 -0.0534
  845BOLB   C2B20266  13.379  21.134  16.008 -0.0471 -0.2410  0.0290
  845BOLB   C3B20267  13.821  21.197  16.114  0.1222 -0.0567  0.5198
  845BOLB   C4B20268  14.096  20.913  16.255 -0.0969 -0.1478  0.1074
  845BOLB   NC220269  14.236  18.119  15.824  0.1389 -0.1745 -0.2512
  845BOLB   PO220270  13.996  18.594  15.633 -0.0242  0.0575  0.0391
  845BOLB   GL320271  14.201  18.851  15.405 -0.2597 -0.1330  0.0906
  845BOLB   GL420272  14.361  19.016  15.674  0.0336  0.0468 -0.0203
  845BOLB   C1C20273  14.314  19.225  15.206  0.1734  0.0779 -0.1666
  845BOLB   C2C20274  14.099  19.582  15.082  0.3107  0.1649  0.0009
  845BOLB   C3C20275  14.051  19.809  15.381 -0.1800 -0.1136  0.1805
  845BOLB   C4C20276  13.681  20.021  15.456  0.0108 -0.0830 -0.0980
  845BOLB   C1D20277  14.387  19.553  15.660  0.1210 -0.0008  0.0475
  845BOLB   C2D20278  14.167  19.909  15.929  0.3686  0.3391  0.4320
  845BOLB   C3D20279  14.053  20.147  16.156  0.3976  0.2839 -0.0781
  845BOLB   C4D20280  13.907  20.417  16.366 -0.3224  0.0446 -0.1065
  846BOLB   NC120281  11.198  10.632  21.003 -0.0380  0.0900 -0.1402
  846BOLB   PO120282  11.362  10.481  21.379  0.0244  0.1750  0.1916
  846BOLB   GL120283  11.095  10.593  21.625 -0.2608 -0.2049  0.0222
  846BOLB   GL220284  10.750  10.569  21.581  0.3442  0.1180  0.3707
  846BOLB   C1A20285  10.910  10.545  22.062 -0.0068 -0.0035 -0.0243
  846BOLB   C2A20286  10.581  10.347  22.401  0.3594 -0.2890  0.2374
  846BOLB   C3A20287  10.237  10.371  22.652  0.2813  0.0193 -0.0120
  846BOLB   C4A20288  10.079  10.334  23.104 -0.1462 -0.0603  0.0774
  846BOLB   C1B20289  10.218  10.628  21.684  0.0592  0.1328  0.1537
  846BOLB   C2B20290   9.787  10.787  21.727  0.1286 -0.0935 -0.0751
  846BOLB   C3B20291   9.557  11.012  22.092 -0.2747 -0.1299  0.1333
  846BOLB   C4B20292   9.406  11.355  22.365 -0.1654  0.0547  0.1924
  846BOLB   NC220293   8.996  10.938  24.904 -0.0890  0.0040 -0.1480
  846BOLB   PO220294   9.224  10.687  25.138  0.0678  0.1974  0.1238
  846BOLB   GL320295   9.448  10.771  24.764 -0.0096  0.0715 -0.0578
  846BOLB   GL420296   9.290  10.676  24.556 -0.1495 -0.2044 -0.1631
  846BOLB   C1C20297   9.846  10.803  24.562  0.0790 -0.4458  0.1597
  846BOLB   C2C20298  10.036  10.671  24.229 -0.0784 -0.4195  0.0694
  846BOLB   C3C20299  10.073  10.756  23.804 -0.1004 -0.0457  0.1188
  846BOLB   C4C20300   9.919  10.633  23.348 -0.1336 -0.0705 -0.2848
  846BOLB   C1D20301   9.486  10.867  24.208 -0.1721  0.2219  0.0863
  846BOLB   C2D20302   9.742  11.099  23.961  0.1090 -0.2267 -0.1425
  846BOLB   C3D20303   9.867  11.082  23.504  0.1177 -0.0194  0.0836
  846BOLB   C4D20304   9.719  11.142  23.096 -0.1030  0.1293 -0.1509
  847BOLB   NC120305   1.154   5.041  15.470  0.1751 -0.0157 -0.2865
  847BOLB   PO120306   1.209   4.637  15.298  0.0425 -0.1404 -0.0059
  847BOLB   GL120307   1.623   4.678  15.411  0.1005  0.2886 -0.2666
  847BOLB   GL220308   1.595   5.050  15.249  0.2952  0.1735 -0.0678
  847BOLB   C1A20309   2.018   4.822  15.485  0.0466  0.0776  0.0099
  847BOLB   C2A20310   2.357   5.089  15.392 -0.2285 -0.0099  0.4046
  847BOLB   C3A20311   2.581   5.467  15.440 -0.1524 -0.0345 -0.2004
  847BOLB   C4A20312   2.623   5.852  15.205 -0.0681 -0.0062  0.0696
  847BOLB   C1B20313   1.854   5.246  15.340 -0.1596 -0.1140  0.0733
  847BOLB   C2B20314   2.161   5.646  15.421 -0.1434  0.0103 -0.2058
  847BOLB   C3B20315   2.186   5.846  15.795 -0.0853 -0.0585 -0.2254
  847BOLB   C4B20316   2.300   6.085  16.184  0.1364  0.0929  0.2041
  847BOLB   NC220317   0.655   7.482  14.479 -0.1217  0.3584  0.0335
  847BOLB   PO220318   0.743   7.295  14.874 -0.3998 -0.2785  0.2690
  847BOLB   GL320319   1.107   7.108  14.619 -0.1746  0.0119  0.2190
  847BOLB   GL420320   1.342   7.278  14.843 -0.1323 -0.1834  0.3166
  847BOLB   C1C20321   1.446   6.821  14.563 -0.1582 -0.1620 -0.1081
  847BOLB   C2C20322   1.833   6.693  14.617 -0.2052  0.1348  0.1523
  847BOLB   C3C20323   2.143   6.255  14.636  0.1460  0.0164  0.1467
  847BOLB   C4C20324   2.294   5.971  14.860 -0.1313 -0.4289 -0.1253
  847BOLB   C1D20325   1.758   7.213  14.668  0.0561 -0.0345 -0.3878
  847BOLB   C2D20326   2.107   7.204  14.468 -0.0070  0.0237  0.1802
  847BOLB   C3D20327   2.197   7.540  14.201 -0.0849 -0.0255  0.3123
  847BOLB   C4D20328   2.383   7.895  14.073 -0.2642  0.0197 -0.3518
  848BOLB   NC120329   5.512   7.555   3.648  0.0854  0.3559  0.0330
  848BOLB   PO120330   5.785   7.600   3.920  0.2754  0.0843 -0.2238
  848BOLB   GL120331   6.026   7.390   4.206 -0.0656  0.4098  0.1504
  848BOLB   GL220332   6.353   7.577   4.191 -0.0421 -0.2669  0.2081
  848BOLB   C1A20333   6.000   7.444   4.714  0.0244  0.0471  0.2779
  848BOLB   C2A20334   6.151   7.826   4.914  0.0077 -0.0977  0.0491
  848BOLB   C3A20335   5.895   8.078   5.224 -0.2057  0.0700 -0.0420
  848BOLB   C4A20336   5.658   8.342   5.359  0.1183 -0.0066 -0.2992
  848BOLB   C1B20337   6.576   7.759   4.589 -0.0012  0.3350 -0.2224
  848BOLB   C2B20338   6.849   8.008   4.915  0.0350 -0.3564  0.0834
  848BOLB   C3B20339   6.713   8.103   5.345  0.0568  0.1620 -0.3415
  848BOLB   C4B20340   6.668   7.978   5.768  0.3323 -0.2802  0.1713
  848BOLB   NC220341   4.788   9.858   4.292  0.1693  0.0258 -0.0325
  848BOLB   PO220342   4.862   9.906   4.812 -0.0668  0.3171  0.2609
  848BOLB   GL320343   4.984   9.803   5.210  0.2012 -0.0728 -0.1011
  848BOLB   GL420344   4.987  10.063   5.436 -0.0900 -0.0285 -0.2193
  848BOLB   C1C20345   5.260   9.592   5.540  0.2018  0.0768  0.1882
  848BOLB   C2C20346   5.081   9.220   5.807  0.4239 -0.0771 -0.3083
  848BOLB   C3C20347   5.209   8.872   5.938  0.2911 -0.3882 -0.1395
  848BOLB   C4C20348   5.476   8.558   5.715  0.0389 -0.0344  0.2470
  848BOLB   C1D20349   5.127  10.201   5.922 -0.0817 -0.0931  0.1178
  848BOLB   C2D20350   5.026  10.029   6.250  0.2255  0.0222 -0.2283
  848BOLB   C3D20351   5.076   9.719   6.617 -0.2365  0.1908 -0.3578
  848BOLB   C4D20352   5.349   9.767   6.963 -0.1310 -0.1202 -0.0396
  849BOLB   NC120353  18.257   1.911  13.071  0.0361  0.1315  0.0745
  849BOLB   PO120354  18.126   1.984  12.515  0.5720  0.1874  0.3442
  849BOLB   GL120355  18.139   1.468  12.658  0.0853 -0.4334  0.0724
  849BOLB   GL220356  18.077   1.258  12.393 -0.1866  0.1092  0.2754
  849BOLB   C1A20357  18.326   0.957  12.790  0.3139 -0.2513 -0.3128
  849BOLB   C2A20358  18.493   0.573  12.608  0.0741 -0.1405  0.1817
  849BOLB   C3A20359  18.698   0.284  12.474  0.1962 -0.0494  0.5886
  849BOLB   C4A20360  19.029   0.015  12.306  0.3904 -0.1475  0.0930
  849BOLB   C1B20361  17.871   0.913  12.204  0.2434 -0.0034  0.2496
  849BOLB   C2B20362  17.665   0.582  12.182 -0.4684 -0.0116 -0.2400
  849BOLB   C3B20363  17.563   0.115  12.228  0.0618  0.0334  0.0206
  849BOLB   C4B20364  17.394  -0.273  12.080  0.1168 -0.0848  0.0663
  849BOLB   NC220365  21.048  -1.228  11.710  0.1850 -0.3020  0.4250
  849BOLB   PO220366  21.330  -1.067  12.052 -0.0011 -0.1626  0.1356
  849BOLB   GL320367  21.012  -0.808  12.055 -0.0632  0.0649 -0.0007
  849BOLB   GL420368  20.980  -0.468  12.067  0.0360  0.2561 -0.0181
  849BOLB   C1C20369  20.523  -0.815  12.241 -0.2369  0.1761  0.2745
  849BOLB   C2C20370  20.219  -0.633  12.133 -0.2441 -0.2145 -0.0545
  849BOLB   C3C20371  19.784  -0.647  12.077 -0.1126  0.0937 -0.0651
  849BOLB   C4C20372  19.413  -0.366  12.230 -0.2095 -0.3763 -0.0876
  849BOLB   C1D20373  20.982  -0.217  11.690 -0.1760 -0.0873  0.1621
  849BOLB   C2D20374  20.809   0.012  11.318  0.0540 -0.1341 -0.0168
  849BOLB   C3D20375  20.750   0.465  11.226 -0.1520  0.3738  0.3258
  849BOLB   C4D20376  20.865   0.818  11.027  0.0766 -0.3054 -0.4457
  850BOLB   NC120377  20.548  11.987   9.493  0.0970 -0.0500  0.2913
  850BOLB   PO120378  20.938  12.077   9.658 -0.1852  0.0093  0.1431
  850BOLB   GL120379  21.040  11.862   9.298  0.0456  0.0630  0.3540
  850BOLB   GL220380  21.263  11.748   9.192 -0.1811  0.0424  0.2506
  850BOLB   C1A20381  21.220  12.163   8.985  0.1821  0.0167  0.0890
  850BOLB   C2A20382  21.405  12.168   8.687 -0.0423  0.1422  0.3609
  850BOLB   C3A20383  21.760  12.214   8.408  0.0129 -0.3117  0.0985
  850BOLB   C4A20384  21.710  12.334   7.897  0.2560 -0.4448 -0.2063
  850BOLB   C1B20385  21.298  11.698   8.731 -0.1460  0.0979  0.2984
  850BOLB   C2B20386  21.319  11.980   8.248  0.1767 -0.0525  0.1817
  850BOLB   C3B20387  21.069  12.085   7.927 -0.0650  0.0665  0.1423
  850BOLB   C4B20388  21.014  12.520   7.756  0.2337  0.1623 -0.1932
  850BOLB   NC220389  22.008  12.456   5.400 -0.0251 -0.0080 -0.1674
  850BOLB   PO220390  22.115  12.696   5.798  0.2661  0.1334 -0.1157
  850BOLB   GL320391  21.999  12.819   6.167  0.4232 -0.1747  0.1467
  850BOLB   GL420392  21.981  12.504   6.382 -0.1420 -0.1290 -0.0621
  850BOLB   C1C20393  21.866  13.163   6.464  0.0424 -0.0825  0.2279
  850BOLB   C2C20394  21.751  13.130   6.829 -0.1929 -0.2557 -0.0678
  850BOLB   C3C20395  21.772  13.078   7.259 -0.0778  0.0741 -0.0987
  850BOLB   C4C20396  21.806  12.742   7.597 -0.0396 -0.0294  0.0793
  850BOLB   C1D20397  21.700  12.683   6.606  0.1665 -0.0115  0.1058
  850BOLB   C2D20398  21.489  12.731   6.975  0.0213  0.0599  0.1363
  850BOLB   C3D20399  21.119  12.614   7.065  0.0051 -0.2286 -0.0992
  850BOLB   C4D20400  20.705  12.538   7.341  0.0327  0.1455 -0.0786
  851BOLB   NC120401  19.562  17.758  16.568  0.0100 -0.1022  0.1054
  851BOLB   PO120402  19.741  18.206  16.623  0.1716  0.0865  0.1324
  851BOLB   GL120403  19.662  18.643  16.451  0.0633 -0.2941  0.0918
  851BOLB   GL220404  19.981  18.705  16.317  0.2672 -0.2388  0.1118
  851BOLB   C1A20405  19.726  19.118  16.251 -0.3772  0.0330 -0.3244
  851BOLB   C2A20406  19.830  19.582  16.145 -0.2754 -0.1235 -0.0866
  851BOLB   C3A20407  19.908  20.036  15.948 -0.0929 -0.3678  0.0553
  851BOLB   C4A20408  20.274  20.114  15.785 -0.2660  0.0681 -0.0562
  851BOLB   C1B20409  20.090  18.927  16.659  0.1109  0.1228  0.0680
  851BOLB   C2B20410  20.212  19.228  16.941  0.3421 -0.5254  0.1365
  851BOLB   C3B20411  20.361  19.623  16.916  0.0419  0.2049 -0.5054
  851BOLB   C4B20412  20.622  19.996  16.656  0.4048 -0.0291  0.1011
  851BOLB   NC220413  22.360  21.805  15.540  0.1501  0.0372  0.0776
  851BOLB   PO220414  22.207  21.427  15.481  0.0129  0.3351  0.0388
  851BOLB   GL320415  21.983  21.086  15.387 -0.1573  0.1097 -0.2799
  851BOLB   GL420416  22.015  20.985  15.614 -0.1373 -0.0038  0.1181
  851BOLB   C1C20417  21.566  21.014  15.323  0.0988 -0.4273 -0.2394
  851BOLB   C2C20418  21.281  20.659  15.465 -0.2204 -0.0389 -0.0953
  851BOLB   C3C20419  21.065  20.303  15.665 -0.2366 -0.2230  0.0492
  851BOLB   C4C20420  20.698  20.110  15.671  0.1762 -0.0897 -0.5383
  851BOLB   C1D20421  21.662  20.745  15.835 -0.0153  0.0401 -0.2890
  851BOLB   C2D20422  21.392  20.518  16.009 -0.0489 -0.1269 -0.0592
  851BOLB   C3D20423  21.437  20.282  16.304  0.0935  0.0455 -0.1045
  851BOLB   C4D20424  21.697  19.850  16.110 -0.0049 -0.2077 -0.1306
  852BOLB   NC120425  16.397  13.584   8.883  0.4344  0.1054 -0.0714
  852BOLB   PO120426  16.558  13.858   8.506 -0.3439  0.1836  0.0667
  852BOLB   GL120427  16.539  14.024   8.122  0.0934 -0.3198  0.0805
  852BOLB   GL220428  16.463  13.760   7.882  0.2635 -0.2160 -0.0929
  852BOLB   C1A20429  16.411  14.355   7.950  0.0698 -0.2031  0.0849
  852BOLB   C2A20430  16.340  14.524   7.515 -0.0922  0.0713 -0.2592
  852BOLB   C3A20431  16.232  14.504   7.078 -0.1415 -0.1585  0.2616
  852BOLB   C4A20432  16.353  14.547   6.686 -0.0674 -0.0665  0.1441
  852BOLB   C1B20433  16.565  14.010   7.612  0.2192  0.3508  0.0828
  852BOLB   C2B20434  16.726  14.153   7.207  0.1881  0.1059  0.0040
  852BOLB   C3B20435  17.017  14.095   6.848  0.4817  0.0295  0.1110
  852BOLB   C4B20436  17.297  14.121   6.463  0.2337  0.2724  0.0337
  852BOLB   NC220437  15.972  15.619   4.443  0.1738 -0.2644  0.0804
  852BOLB   PO220438  15.620  15.699   4.717  0.0230 -0.1076  0.0235
  852BOLB   GL320439  15.842  15.633   5.065  0.0801 -0.1105 -0.0480
  852BOLB   GL420440  16.082  15.380   5.002  0.0897 -0.0711  0.1130
  852BOLB   C1C20441  15.675  15.403   5.483  0.1514 -0.0152 -0.0098
  852BOLB   C2C20442  15.701  15.048   5.774  0.2839 -0.0477 -0.2137
  852BOLB   C3C20443  15.866  14.862   6.116 -0.0766 -0.2902 -0.2071
  852BOLB   C4C20444  16.211  14.579   6.327  0.1788  0.2884  0.4096
  852BOLB   C1D20445  16.074  15.100   5.416 -0.3093 -0.4261 -0.1825
  852BOLB   C2D20446  16.253  15.037   5.837 -0.0375  0.1120 -0.6140
  852BOLB   C3D20447  16.560  14.773   6.017 -0.2292  0.0497  0.2865
  852BOLB   C4D20448  16.642  14.363   6.014 -0.4218  0.0143  0.0436
  853BOLB   NC120449  22.497   9.617  21.174  0.3046 -0.1193 -0.2073
  853BOLB   PO120450  22.419   9.304  21.440 -0.0659 -0.1935 -0.1910
  853BOLB   GL120451  22.664   9.417  21.774 -0.2454  0.3069 -0.1249
  853BOLB   GL220452  22.520   9.530  22.164  0.0254 -0.2214  0.0026
  853BOLB   C1A20453  23.116   9.409  21.979 -0.0956 -0.2115 -0.1836
  853BOLB   C2A20454  23.297   8.997  22.109 -0.1955  0.1370 -0.1997
  853BOLB   C3A20455  23.687   8.702  22.230 -0.2752 -0.1727  0.1291
  853BOLB   C4A20456  23.996   8.581  22.430 -0.2441 -0.0022  0.0713
  853BOLB   C1B20457  22.801   9.613  22.566  0.3399 -0.1483  0.1243
  853BOLB   C2B20458  22.886   9.439  22.976  0.0411 -0.0843  0.4782
  853BOLB   C3B20459  22.744   9.111  23.159  0.1551  0.1799 -0.2091
  853BOLB   C4B20460  22.980   8.869  23.480  0.0526 -0.1286 -0.1940
  853BOLB   NC220461  25.536   7.485  24.079  0.2321  0.3431  0.2720
  853BOLB   PO220462  25.692   7.823  23.936  0.1754  0.0639 -0.0209
  853BOLB   GL320463  25.320   8.032  23.670 -0.0876 -0.1190 -0.0766
  853BOLB   GL420464  25.190   8.353  23.690  0.1485  0.1155  0.1362
  853BOLB   C1C20465  24.989   8.018  23.294 -0.0207 -0.2137  0.0429
  853BOLB   C2C20466  25.009   7.936  22.823 -0.4381 -0.1514 -0.0982
  853BOLB   C3C20467  24.874   8.333  22.589 -0.3099 -0.2666  0.2442
  853BOLB   C4C20468  24.510   8.544  22.403  0.1423  0.1182  0.2023
  853BOLB   C1D20469  25.440   8.328  23.221  0.0979 -0.2614 -0.0988
  853BOLB   C2D20470  25.528   8.470  22.696  0.0090  0.0319  0.0395
  853BOLB   C3D20471  25.377   8.415  22.288 -0.1646  0.0773 -0.0065
  853BOLB   C4D20472  24.996   8.647  22.126 -0.3132  0.2260 -0.2752
  854BOLB   NC120473  14.263  13.527   8.226 -0.1547  0.1465  0.2140
  854BOLB   PO120474  14.447  13.234   7.863  0.3895  0.1778  0.0167
  854BOLB   GL120475  14.433  13.196   7.464  0.1349 -0.1232  0.4521
  854BOLB   GL220476  14.729  13.313   7.321 -0.2549 -0.0437 -0.0119
  854BOLB   C1A20477  14.277  13.201   7.038  0.0066  0.2267  0.0803
  854BOLB   C2A20478  14.184  13.596   6.831  0.0776 -0.1202  0.0090
  854BOLB   C3A20479  14.073  13.889   6.503 -0.3502  0.2200 -0.1247
  854BOLB   C4A20480  14.230  14.242   6.219 -0.0573  0.1352 -0.3957
  854BOLB   C1B20481  14.524  13.636   7.209  0.2647 -0.1289 -0.1580
  854BOLB   C2B20482  14.504  13.979   6.953 -0.2344  0.1638 -0.3116
  854BOLB   C3B20483  14.454  14.364   6.646  0.0830  0.0679  0.0269
  854BOLB   C4B20484  14.487  14.638   6.387  0.1078  0.2972  0.0363
  854BOLB   NC220485  14.121  14.375   3.904 -0.3569 -0.0549 -0.0630
  854BOLB   PO220486  14.463  14.322   4.155 -0.3603 -0.3285 -0.2481
  854BOLB   GL320487  14.528  14.078   4.447  0.0982 -0.0066 -0.2285
  854BOLB   GL420488  14.736  13.827   4.348  0.1768  0.1561  0.0114
  854BOLB   C1C20489  14.565  14.156   4.913  0.0686  0.1153 -0.1169
  854BOLB   C2C20490  14.429  14.067   5.272 -0.2554 -0.0137  0.2565
  854BOLB   C3C20491  14.363  14.475   5.459 -0.0179  0.2207 -0.0724
  854BOLB   C4C20492  14.443  14.557   5.864  0.0479  0.3624  0.1727
  854BOLB   C1D20493  14.600  13.541   4.601  0.1119 -0.2114  0.3892
  854BOLB   C2D20494  14.608  13.345   4.978  0.0162  0.6010  0.0090
  854BOLB   C3D20495  14.628  13.086   5.276  0.1074  0.2061  0.2014
  854BOLB   C4D20496  14.753  12.974   5.585 -0.2617  0.0977 -0.1857
  855BOLB   NC120497  17.088  18.692  18.074  0.1212  0.0485 -0.1798
  855BOLB   PO120498  17.198  18.657  17.699 -0.0868  0.3070  0.2722
  855BOLB   GL120499  17.016  19.122  17.800 -0.2440 -0.0501  0.1342
  855BOLB   GL220500  16.742  19.262  17.716  0.2884 -0.0649  0.2099
  855BOLB   C1A20501  17.213  19.593  17.817 -0.1003  0.1261 -0.1826
  855BOLB   C2A20502  17.478  19.718  18.046 -0.4500 -0.0941  0.1496
  855BOLB   C3A20503  17.800  20.013  18.220  0.1704  0.0724  0.2867
  855BOLB   C4A20504  17.767  20.483  18.313 -0.3928 -0.0032 -0.1266
  855BOLB   C1B20505  16.670  19.604  17.541  0.0536 -0.2040  0.1219
  855BOLB   C2B20506  17.030  19.893  17.422  0.2067 -0.0503 -0.3313
  855BOLB   C3B20507  17.305  20.044  17.691 -0.2771 -0.1507 -0.3927
  855BOLB   C4B20508  17.621  20.257  17.836  0.3070 -0.1643  0.0298
  855BOLB   NC220509  19.462  22.247  19.586  0.1044  0.0235 -0.1404
  855BOLB   PO220510  19.591  22.085  19.101 -0.0190 -0.3920 -0.0607
  855BOLB   GL320511  19.294  21.814  18.914 -0.0148  0.1257  0.1573
  855BOLB   GL420512  19.355  21.857  18.653  0.0062 -0.0152 -0.0046
  855BOLB   C1C20513  18.850  21.643  18.864 -0.0720  0.3218 -0.2032
  855BOLB   C2C20514  18.606  21.469  18.695 -0.0575 -0.1529 -0.0448
  855BOLB   C3C20515  18.381  21.190  18.452  0.3138 -0.1080  0.1172
  855BOLB   C4C20516  18.124  20.907  18.325  0.1138 -0.0258  0.1048
  855BOLB   C1D20517  19.159  21.486  18.534  0.1301  0.0697  0.0962
  855BOLB   C2D20518  18.824  21.077  18.532 -0.6279 -0.2749  0.0349
  855BOLB   C3D20519  18.880  20.807  18.192 -0.0696 -0.0158 -0.0070
  855BOLB   C4D20520  18.756  20.338  18.159  0.0785 -0.1728  0.4926
  856BOLB   NC120521  15.621  10.639   7.725  0.0781  0.0260  0.0959
  856BOLB   PO120522  15.877  10.905   7.599 -0.0261  0.0339 -0.4314
  856BOLB   GL120523  15.866  10.721   7.232  0.2336 -0.0850  0.0180
  856BOLB   GL220524  16.080  10.461   7.077  0.1302 -0.1269 -0.2278
  856BOLB   C1A20525  16.013  10.967   6.804  0.2067  0.2166  0.0834
  856BOLB   C2A20526  15.970  10.862   6.390 -0.2002 -0.2629  0.0987
  856BOLB   C3A20527  15.960  10.851   5.888 -0.1247  0.0588  0.0582
  856BOLB   C4A20528  15.948  10.586   5.626 -0.1510  0.0402  0.3591
  856BOLB   C1B20529  16.283  10.502   6.702 -0.3124 -0.1411  0.2791
  856BOLB   C2B20530  16.353  10.477   6.200  0.1416 -0.2849 -0.1003
  856BOLB   C3B20531  16.256  10.254   5.831 -0.1414  0.2244  0.1917
  856BOLB   C4B20532  15.789   9.959   5.916  0.0314 -0.0159 -0.1770
  856BOLB   NC220533  15.474  10.784   3.138  0.1216 -0.4303 -0.1959
  856BOLB   PO220534  15.602  11.132   3.314  0.2490 -0.1038  0.1951
  856BOLB   GL320535  15.931  11.087   3.610  0.0910  0.0835 -0.1209
  856BOLB   GL420536  16.154  10.885   3.658  0.0612  0.1148 -0.2115
  856BOLB   C1C20537  15.761  10.855   3.937 -0.1059  0.0763 -0.0428
  856BOLB   C2C20538  15.710  10.623   4.323  0.1921 -0.0255  0.1189
  856BOLB   C3C20539  15.786  10.464   4.757  0.1020  0.1671  0.3652
  856BOLB   C4C20540  15.828  10.567   5.118 -0.1354 -0.1528 -0.0479
  856BOLB   C1D20541  16.281  10.640   4.028  0.2642 -0.2057 -0.0549
  856BOLB   C2D20542  16.192  10.627   4.404  0.1465  0.0858  0.0848
  856BOLB   C3D20543  16.298  10.564   4.861  0.1396  0.1333 -0.1147
  856BOLB   C4D20544  16.300  10.275   5.208  0.3302  0.1636  0.3186
  857BOLB   NC120545  15.314  18.391  16.002  0.1483  0.1302 -0.0869
  857BOLB   PO120546  15.255  18.814  16.088  0.2305 -0.0382  0.3154
  857BOLB   GL120547  15.448  19.234  15.919 -0.0513  0.0665 -0.0353
  857BOLB   GL220548  15.801  19.269  15.743  0.2807 -0.0515 -0.0763
  857BOLB   C1A20549  15.305  19.512  15.593 -0.0423  0.1112  0.0391
  857BOLB   C2A20550  15.220  20.039  15.503 -0.0032 -0.2263  0.2809
  857BOLB   C3A20551  14.983  20.426  15.607 -0.1954  0.0045  0.0163
  857BOLB   C4A20552  15.033  20.705  15.117  0.0117 -0.0630 -0.1256
  857BOLB   C1B20553  15.769  19.652  15.789  0.0960  0.2768  0.2171
  857BOLB   C2B20554  15.448  19.838  15.961 -0.0161 -0.0097 -0.0879
  857BOLB   C3B20555  15.348  20.236  15.969  0.1835 -0.2196 -0.0655
  857BOLB   C4B20556  15.702  20.528  16.121  0.1395  0.1092  0.0199
  857BOLB   NC220557  15.776  23.033  14.516 -0.0909  0.0909 -0.1673
  857BOLB   PO220558  15.698  22.624  14.314  0.0584  0.5163 -0.2039
  857BOLB   GL320559  15.818  22.161  14.356 -0.3059  0.3476  0.0436
  857BOLB   GL420560  16.192  22.128  14.354  0.3235 -0.2691 -0.2387
  857BOLB   C1C20561  15.656  21.770  14.333 -0.2521  0.1136  0.0376
  857BOLB   C2C20562  15.427  21.291  14.320 -0.1119  0.2228 -0.1280
  857BOLB   C3C20563  15.267  21.144  14.639  0.1757  0.2124  0.1105
  857BOLB   C4C20564  15.364  20.802  14.794 -0.1398  0.0956  0.1081
  857BOLB   C1D20565  16.315  21.709  14.363  0.0724 -0.0692 -0.2148
  857BOLB   C2D20566  16.673  21.468  14.450 -0.0153 -0.0925  0.2544
  857BOLB   C3D20567  17.046  21.310  14.509 -0.0917 -0.0248 -0.1379
  857BOLB   C4D20568  17.258  21.610  14.779  0.2878  0.3365  0.1881
  858BOLB   NC120569  13.834  16.101  21.811  0.2555 -0.0730 -0.0178
  858BOLB   PO120570  13.708  16.258  21.416 -0.2796 -0.3337  0.2547
  858BOLB   GL120571  13.390  16.410  21.666  0.0657  0.3831 -0.0483
  858BOLB   GL220572  13.264  16.134  21.906  0.0212  0.1278 -0.1086
  858BOLB   C1A20573  13.024  16.512  21.972  0.0975 -0.1474  0.0359
  858BOLB   C2A20574  12.925  16.481  22.362 -0.1130 -0.2170 -0.1869
  858BOLB   C3A20575  12.822  16.500  22.755 -0.0551 -0.0619  0.1008
  858BOLB   C4A20576  12.501  16.647  22.937  0.1929 -0.0509 -0.0867
  858BOLB   C1B20577  13.416  16.462  22.202  0.0941  0.1225  0.1989
  858BOLB   C2B20578  13.366  16.730  22.421  0.0976 -0.1682  0.2080
  858BOLB   C3B20579  13.136  16.859  22.765 -0.0591 -0.2016  0.0306
  858BOLB   C4B20580  12.785  17.088  22.988 -0.0511 -0.0749  0.0039
  858BOLB   NC220581  10.471  17.258  23.831 -0.1321  0.2830 -0.0362
  858BOLB   PO220582  10.682  17.496  24.115 -0.2443 -0.1136  0.0510
  858BOLB   GL320583  11.001  17.370  23.810 -0.1219 -0.0559 -0.0865
  858BOLB   GL420584  11.385  17.468  23.880 -0.3026 -0.0170  0.1078
  858BOLB   C1C20585  11.162  17.033  23.511 -0.2840 -0.1841  0.1316
  858BOLB   C2C20586  11.306  16.988  23.079 -0.1221 -0.0350  0.2901
  858BOLB   C3C20587  11.705  16.944  22.918  0.0692  0.2797  0.0123
  858BOLB   C4C20588  12.130  16.812  22.834  0.1497 -0.0398  0.0464
  858BOLB   C1D20589  11.545  17.392  23.432  0.1877  0.2271  0.2185
  858BOLB   C2D20590  11.846  17.466  23.073  0.0492  0.0843  0.0909
  858BOLB   C3D20591  11.901  17.314  22.656  0.0942 -0.3618  0.0874
  858BOLB   C4D20592  11.861  17.087  22.455 -0.1249  0.3621  0.3284
  859BOLB   NC120593  21.156   4.101  18.337  0.4003 -0.1147 -0.1467
  859BOLB   PO120594  20.949   3.991  18.554  0.1000  0.1360  0.1181
  859BOLB   GL120595  21.037   3.662  18.803 -0.1489  0.0220  0.2247
  859BOLB   GL220596  21.349   3.573  18.903 -0.0411  0.1058 -0.2484
  859BOLB   C1A20597  20.862   3.225  18.988  0.3324  0.1343 -0.0163
  859BOLB   C2A20598  20.984   2.760  19.087  0.1579 -0.1533  0.1813
  859BOLB   C3A20599  20.916   2.298  19.218  0.0073 -0.0792 -0.0575
  859BOLB   C4A20600  21.096   1.913  19.074 -0.2490  0.0726  0.1711
  859BOLB   C1B20601  21.520   3.267  19.040  0.0815 -0.2597 -0.1102
  859BOLB   C2B20602  21.860   2.962  19.088 -0.0626  0.4198 -0.0816
  859BOLB   C3B20603  22.149   2.679  18.917 -0.1318  0.2936  0.3993
  859BOLB   C4B20604  22.342   2.339  18.702  0.4371 -0.3385 -0.1264
  859BOLB   NC220605  21.905   0.039  20.263 -0.2350 -0.2440 -0.0932
  859BOLB   PO220606  21.864  -0.070  19.765 -0.1461 -0.0456 -0.1370
  859BOLB   GL320607  21.590   0.191  19.574 -0.2965  0.1066 -0.0178
  859BOLB   GL420608  21.321   0.239  19.384  0.0241 -0.0608 -0.2479
  859BOLB   C1C20609  21.708   0.485  19.298 -0.1375  0.3776 -0.0332
  859BOLB   C2C20610  21.636   0.791  19.096  0.0878 -0.0470 -0.0690
  859BOLB   C3C20611  21.590   1.245  19.086  0.0737  0.4557  0.1465
  859BOLB   C4C20612  21.422   1.575  19.225 -0.0471 -0.1876 -0.0636
  859BOLB   C1D20613  21.271   0.470  19.000 -0.0178  0.2641 -0.1173
  859BOLB   C2D20614  20.921   0.708  18.817 -0.1011  0.0313  0.2388
  859BOLB   C3D20615  20.745   0.749  18.473  0.1031  0.2072  0.0808
  859BOLB   C4D20616  20.401   0.718  18.118 -0.1018 -0.0298  0.2887
  860BOLB   NC120617   9.503  12.852  18.896 -0.1329 -0.1467  0.5097
  860BOLB   PO120618   9.557  13.061  19.279  0.1850  0.5750 -0.0790
  860BOLB   GL120619   9.153  13.145  19.496 -0.1076 -0.0707 -0.0165
  860BOLB   GL220620   9.181  13.459  19.705 -0.1365 -0.2000  0.0707
  860BOLB   C1A20621   8.754  13.053  19.412 -0.2664  0.0122 -0.3190
  860BOLB   C2A20622   8.303  13.030  19.501  0.3287  0.1053  0.1640
  860BOLB   C3A20623   7.899  12.992  19.759 -0.1699 -0.0654 -0.4515
  860BOLB   C4A20624   7.501  12.791  19.754  0.2834  0.0240  0.1282
  860BOLB   C1B20625   8.846  13.637  19.823 -0.2856 -0.0914 -0.0341
  860BOLB   C2B20626   8.438  13.707  19.783  0.0132 -0.0629  0.0972
  860BOLB   C3B20627   8.165  13.964  19.978  0.0443 -0.0440  0.1801
  860BOLB   C4B20628   8.116  14.276  20.269  0.2643  0.2630 -0.1354
  860BOLB   NC220629   5.992  14.879  19.863 -0.1852  0.1110  0.1605
  860BOLB   PO220630   5.741  14.453  19.864  0.0900  0.2145 -0.1967
  860BOLB   GL320631   6.063  14.197  19.930  0.1734  0.4217  0.0616
  860BOLB   GL420632   6.344  14.360  20.109  0.2206  0.0299 -0.2888
  860BOLB   C1C20633   6.301  13.809  19.997 -0.1465  0.0559  0.0193
  860BOLB   C2C20634   6.585  13.530  19.999 -0.4794 -0.2120 -0.0567
  860BOLB   C3C20635   6.869  13.253  20.058  0.3051  0.0592  0.0389
  860BOLB   C4C20636   7.167  12.930  19.833  0.1437  0.1270  0.0408
  860BOLB   C1D20637   6.667  14.214  20.020  0.1084  0.3476 -0.0302
  860BOLB   C2D20638   7.070  14.238  19.939  0.0660 -0.1912  0.3528
  860BOLB   C3D20639   7.289  14.195  19.738 -0.1881 -0.4691 -0.1541
  860BOLB   C4D20640   7.248  13.992  19.447  0.1084 -0.2235  0.2672
  861BOLB   NC120641  22.983   9.620  11.784  0.2684  0.2071  0.1360
  861BOLB   PO120642  22.527   9.727  11.575  0.4688 -0.2631  0.1012
  861BOLB   GL120643  22.737   9.774  11.191  0.0582 -0.1065 -0.2955
  861BOLB   GL220644  22.603   9.878  10.815  0.0184 -0.2810  0.2029
  861BOLB   C1A20645  23.176   9.545  11.064  0.0570  0.1154 -0.2474
  861BOLB   C2A20646  23.428   9.537  10.741  0.1741 -0.1241 -0.0212
  861BOLB   C3A20647  23.572   9.615  10.376 -0.0631  0.3720  0.2314
  861BOLB   C4A20648  23.933   9.750  10.147 -0.1071 -0.2153 -0.2389
  861BOLB   C1B20649  22.752  10.066  10.468  0.1032  0.0500 -0.1540
  861BOLB   C2B20650  22.956  10.550  10.315 -0.2352  0.2319 -0.2975
  861BOLB   C3B20651  23.381  10.815  10.205  0.4113 -0.2182  0.0620
  861BOLB   C4B20652  23.730  10.978  10.013 -0.1719 -0.0302 -0.2391
  861BOLB   NC220653  26.003   9.608   8.713 -0.0721  0.2063  0.0334
  861BOLB   PO220654  25.646   9.870   8.611 -0.1267 -0.0961 -0.1731
  861BOLB   GL320655  25.558   9.689   9.027 -0.2745 -0.0503  0.3417
  861BOLB   GL420656  25.653   9.712   9.191 -0.4825  0.2882 -0.1426
  861BOLB   C1C20657  25.345   9.317   9.204  0.2781 -0.1071  0.0585
  861BOLB   C2C20658  24.956   9.196   9.395  0.1215  0.0935  0.2664
  861BOLB   C3C20659  24.630   9.465   9.577 -0.2354 -0.0214 -0.4381
  861BOLB   C4C20660  24.261   9.526   9.866 -0.0345  0.0307  0.1833
  861BOLB   C1D20661  25.544   9.512   9.628  0.1469 -0.0164 -0.1743
  861BOLB   C2D20662  25.268   9.628   9.991  0.2173 -0.0483 -0.0633
  861BOLB   C3D20663  25.091  10.001  10.225  0.0026  0.1672 -0.0341
  861BOLB   C4D20664  24.666  10.241  10.332 -0.1984 -0.1166  0.2916
  862BOLB   NC120665  17.185  18.257  14.624  0.1369  0.0549  0.3474
  862BOLB   PO120666  17.132  18.642  14.822  0.0841  0.0225  0.3005
  862BOLB   GL120667  17.135  19.047  14.700  0.1155  0.2974 -0.1278
  862BOLB   GL220668  16.854  19.168  14.826 -0.3584  0.2437 -0.0070
  862BOLB   C1A20669  17.291  19.478  14.638  0.1499 -0.3525  0.1028
  862BOLB   C2A20670  17.210  19.917  14.584 -0.0691 -0.0770  0.0026
  862BOLB   C3A20671  17.118  20.360  14.670  0.1926  0.0609  0.1724
  862BOLB   C4A20672  16.965  20.835  14.660 -0.1672 -0.3225  0.0989
  862BOLB   C1B20673  16.759  19.546  14.678 -0.1017 -0.1136 -0.2932
  862BOLB   C2B20674  16.622  19.977  14.703  0.0096  0.2026 -0.0135
  862BOLB   C3B20675  16.203  20.206  14.735 -0.1284 -0.3162  0.1542
  862BOLB   C4B20676  15.784  20.486  14.677 -0.3037  0.2482  0.1316
  862BOLB   NC220677  14.981  22.390  13.295 -0.1113 -0.0107  0.2666
  862BOLB   PO220678  14.959  22.192  13.626  0.1465 -0.0195  0.1165
  862BOLB   GL320679  15.304  21.865  13.667  0.0497 -0.0935  0.1131
  862BOLB   GL420680  15.383  21.779  13.360  0.2213 -0.0491 -0.1916
  862BOLB   C1C20681  15.605  21.547  13.858 -0.0591 -0.0656  0.1298
  862BOLB   C2C20682  15.984  21.500  14.091 -0.2044 -0.0171  0.3858
  862BOLB   C3C20683  16.279  21.192  14.269 -0.3699  0.4863 -0.0735
  862BOLB   C4C20684  16.613  21.012  14.648  0.2700  0.3641  0.0626
  862BOLB   C1D20685  15.345  21.325  13.490 -0.0835 -0.2302 -0.4081
  862BOLB   C2D20686  15.467  21.024  13.342  0.0876 -0.0614  0.2062
  862BOLB   C3D20687  15.403  20.556  13.432 -0.0432  0.2959 -0.1516
  862BOLB   C4D20688  15.630  20.133  13.442  0.0695 -0.1873 -0.0298
  863BOLB   NC120689   9.573  13.165  11.739  0.3072  0.0661 -0.0544
  863BOLB   PO120690   9.423  12.732  11.639  0.1609  0.2372 -0.1697
  863BOLB   GL120691   9.236  12.834  11.399  0.1324  0.0785  0.1943
  863BOLB   GL220692   9.320  13.173  11.211 -0.1274  0.4250 -0.2710
  863BOLB   C1A20693   8.858  12.872  11.167  0.1812 -0.2693  0.1033
  863BOLB   C2A20694   8.645  13.003  10.722 -0.1145 -0.1871 -0.1521
  863BOLB   C3A20695   8.320  13.161  10.399  0.0308  0.1054 -0.0090
  863BOLB   C4A20696   7.871  13.373  10.452 -0.2419  0.0773 -0.5246
  863BOLB   C1B20697   9.179  13.227  10.693  0.5164 -0.2609  0.5025
  863BOLB   C2B20698   8.974  13.112  10.262 -0.0734 -0.3386  0.3690
  863BOLB   C3B20699   8.636  13.020   9.946 -0.1760 -0.0124 -0.2494
  863BOLB   C4B20700   8.196  13.310   9.908  0.2768 -0.0817  0.0999
  863BOLB   NC220701   6.157  14.861   9.490  0.2461  0.0114  0.0715
  863BOLB   PO220702   6.595  14.981   9.264  0.0681 -0.0643 -0.1540
  863BOLB   GL320703   6.916  14.757   9.275 -0.0721 -0.0008  0.1169
  863BOLB   GL420704   6.939  14.450   9.078 -0.1136 -0.3407 -0.0895
  863BOLB   C1C20705   7.118  14.533   9.599 -0.0075  0.0473  0.0646
  863BOLB   C2C20706   7.176  14.197   9.849 -0.0026  0.2950  0.2380
  863BOLB   C3C20707   7.534  14.029  10.091 -0.0824  0.0062  0.0758
  863BOLB   C4C20708   7.513  13.652  10.369  0.1912 -0.1011  0.0798
  863BOLB   C1D20709   7.159  14.017   9.233  0.1858  0.4343  0.1900
  863BOLB   C2D20710   7.239  13.709   9.563 -0.1645 -0.2509 -0.2680
  863BOLB   C3D20711   7.260  13.586   9.954 -0.1906  0.2108  0.0708
  863BOLB   C4D20712   7.524  13.232  10.068  0.1191 -0.4960  0.1520
  864BOLB   NC120713  13.088  33.602  17.746  0.2044 -0.0641 -0.1415
  864BOLB   PO120714  12.909  33.740  17.326 -0.2414 -0.1627 -0.3854
  864BOLB   GL120715  12.887  34.117  17.094  0.2293  0.1790  0.1256
  864BOLB   GL220716  12.823  34.015  16.797 -0.1700 -0.0347  0.2068
  864BOLB   C1A20717  12.891  34.543  16.906  0.0904  0.2383 -0.1278
  864BOLB   C2A20718  13.148  34.852  16.608  0.0434  0.0053  0.2642
  864BOLB   C3A20719  13.447  34.629  16.327 -0.1616  0.2032 -0.1296
  864BOLB   C4A20720  13.735  34.910  16.091 -0.0997 -0.1077 -0.2190
  864BOLB   C1B20721  12.985  33.953  16.303 -0.1634  0.3976 -0.1761
  864BOLB   C2B20722  13.166  34.237  16.037  0.0082  0.4281  0.0386
  864BOLB   C3B20723  13.013  34.586  15.887  0.1228  0.0031  0.1199
  864BOLB   C4B20724  13.104  34.984  15.677  0.0277 -0.0099 -0.1509
  864BOLB   NC220725  15.213  34.015  16.970  0.0834 -0.2004 -0.0098
  864BOLB   PO220726  14.887  33.711  17.362  0.1080  0.2077 -0.0731
  864BOLB   GL320727  14.826  34.125  17.308 -0.1005  0.1819 -0.0060
  864BOLB   GL420728  14.575  34.124  17.257  0.3367 -0.2618 -0.0180
  864BOLB   C1C20729  14.765  34.530  17.140 -0.4018 -0.1748  0.4054
  864BOLB   C2C20730  14.722  34.890  16.861 -0.0143 -0.2150  0.2363
  864BOLB   C3C20731  14.492  35.185  16.552  0.0538 -0.2477  0.0164
  864BOLB   C4C20732  14.009  35.134  16.419  0.3738 -0.3427  0.0840
  864BOLB   C1D20733  14.271  34.351  17.439  0.0372 -0.0674  0.1008
  864BOLB   C2D20734  13.962  34.656  17.242 -0.0768  0.1799 -0.4103
  864BOLB   C3D20735  13.669  34.983  17.189  0.1473 -0.0486  0.1190
  864BOLB   C4D20736  13.227  35.042  17.041  0.1232  0.3197 -0.4507
  865BOLB   NC120737  18.123   2.399  17.752 -0.1746  0.0657 -0.0554
  865BOLB   PO120738  18.523   2.570  17.734 -0.0286  0.1510 -0.0665
  865BOLB   GL120739  18.639   2.148  17.935  0.3624 -0.3845 -0.0506
  865BOLB   GL220740  18.418   1.975  17.997  0.0498 -0.1400 -0.0375
  865BOLB   C1A20741  18.935   1.791  17.931 -0.2696 -0.1815 -0.0659
  865BOLB   C2A20742  19.225   1.463  17.866  0.0626 -0.0471  0.1547
  865BOLB   C3A20743  19.596   0.981  17.927  0.1461 -0.0871  0.2486
  865BOLB   C4A20744  20.021   0.691  17.823  0.0775 -0.0460 -0.0725
  865BOLB   C1B20745  18.338   1.617  18.246  0.4754 -0.1323 -0.0225
  865BOLB   C2B20746  18.506   1.299  18.433 -0.1846  0.0115  0.1892
  865BOLB   C3B20747  18.645   0.988  18.588  0.0106  0.0228 -0.1117
  865BOLB   C4B20748  19.010   0.746  18.654  0.0751 -0.0085 -0.1004
  865BOLB   NC220749  19.893  -1.305  19.286 -0.2239 -0.5689 -0.1117
  865BOLB   PO220750  20.319  -1.191  19.028  0.0691  0.1515  0.3259
  865BOLB   GL320751  20.276  -1.119  18.614 -0.2102  0.3789  0.1643
  865BOLB   GL420752  20.377  -0.767  18.604  0.3208 -0.0659  0.0509
  865BOLB   C1C20753  20.058  -0.876  18.251  0.1484 -0.1655  0.3715
  865BOLB   C2C20754  20.092  -0.456  18.225 -0.3269 -0.1469  0.2934
  865BOLB   C3C20755  20.080  -0.193  17.859 -0.3613  0.0198  0.0726
  865BOLB   C4C20756  20.171   0.232  17.971  0.1743  0.2087 -0.1905
  865BOLB   C1D20757  20.230  -0.335  18.661  0.1731 -0.0326 -0.1566
  865BOLB   C2D20758  20.133  -0.004  18.460 -0.2469 -0.2137  0.2837
  865BOLB   C3D20759  19.751   0.035  18.247 -0.1101 -0.1986 -0.4974
  865BOLB   C4D20760  19.637   0.082  17.870  0.0174 -0.1586 -0.1223
  866BOLB   NC120761  15.617   6.658  22.546 -0.2754  0.0033 -0.1155
  866BOLB   PO120762  15.282   6.698  22.742  0.0927  0.0573 -0.2650
  866BOLB   GL120763  15.033   6.501  22.982  0.1303  0.3390  0.1686
  866BOLB   GL220764  14.710   6.385  22.889 -0.2147 -0.0729  0.5746
  866BOLB   C1A20765  15.187   6.139  23.091 -0.0809  0.1709  0.1076
  866BOLB   C2A20766  15.436   5.889  23.350  0.0677 -0.0291  0.1317
  866BOLB   C3A20767  15.691   5.536  23.597  0.3172 -0.1732 -0.2035
  866BOLB   C4A20768  15.650   5.372  23.970 -0.2915 -0.1895 -0.1921
  866BOLB   C1B20769  14.595   6.386  23.287  0.1628 -0.1332  0.2338
  866BOLB   C2B20770  14.504   6.278  23.734 -0.3147  0.1044 -0.1098
  866BOLB   C3B20771  14.555   6.544  24.114  0.1384  0.0237  0.3409
  866BOLB   C4B20772  14.741   6.607  24.546 -0.0233 -0.3497  0.1038
  866BOLB   NC220773  16.313   3.850  25.737  0.2510  0.0224 -0.1769
  866BOLB   PO220774  16.641   3.809  25.616 -0.1196  0.0659 -0.0687
  866BOLB   GL320775  16.550   4.002  25.266 -0.3876 -0.3648  0.0506
  866BOLB   GL420776  16.372   3.887  25.136  0.0854  0.0939 -0.2728
  866BOLB   C1C20777  16.421   4.418  25.153 -0.2680  0.2103  0.1766
  866BOLB   C2C20778  16.244   4.798  24.922 -0.0828  0.0697  0.0506
  866BOLB   C3C20779  16.021   5.030  24.606  0.0825  0.3351  0.2078
  866BOLB   C4C20780  15.819   5.336  24.362  0.2026  0.4189 -0.0651
  866BOLB   C1D20781  16.561   3.570  24.957  0.2535  0.0958  0.0557
  866BOLB   C2D20782  16.592   3.494  24.571  0.1764 -0.5199  0.0200
  866BOLB   C3D20783  16.477   3.504  24.211  0.1266 -0.3478 -0.2298
  866BOLB   C4D20784  16.590   3.642  23.822 -0.0372 -0.2501 -0.0271
  867BOLB   NC120785  22.974  13.132  19.000  0.2147  0.1427  0.0823
  867BOLB   PO120786  23.162  13.064  19.358  0.1840  0.0307  0.0937
  867BOLB   GL120787  23.551  12.848  19.483  0.1526 -0.0561 -0.2564
  867BOLB   GL220788  23.438  12.600  19.776 -0.0247  0.0641  0.4555
  867BOLB   C1A20789  24.006  13.004  19.332 -0.1626  0.2589 -0.0888
  867BOLB   C2A20790  24.394  12.860  19.592 -0.0784  0.0442  0.0460
  867BOLB   C3A20791  24.748  13.119  19.569  0.0921 -0.1105  0.2085
  867BOLB   C4A20792  25.188  13.174  19.511 -0.1079 -0.0953 -0.0235
  867BOLB   C1B20793  23.693  12.683  20.001  0.1312 -0.0329 -0.1088
  867BOLB   C2B20794  24.051  12.784  20.405 -0.1028 -0.1371  0.0646
  867BOLB   C3B20795  24.256  13.022  20.492 -0.0148 -0.0099 -0.1198
  867BOLB   C4B20796  24.464  13.438  20.542  0.1766  0.0052  0.1310
  867BOLB   NC220797  27.107  13.752  20.590  0.1226 -0.0474  0.2178
  867BOLB   PO220798  27.073  14.206  20.689 -0.2394  0.2303 -0.1332
  867BOLB   GL320799  26.629  14.037  20.609 -0.2820 -0.1191  0.5437
  867BOLB   GL420800  26.524  13.730  20.711  0.2155 -0.0727 -0.4505
  867BOLB   C1C20801  26.429  14.099  20.197  0.1506  0.2436 -0.0537
  867BOLB   C2C20802  26.383  13.977  19.794 -0.4644  0.1766 -0.3368
  867BOLB   C3C20803  25.911  13.757  19.663  0.0529 -0.2425 -0.0247
  867BOLB   C4C20804  25.571  13.395  19.643 -0.1533 -0.1090 -0.0273
  867BOLB   C1D20805  26.195  13.470  20.937  0.2812  0.1454  0.0486
  867BOLB   C2D20806  25.765  13.370  20.905  0.4226  0.1749  0.0051
  867BOLB   C3D20807  25.340  13.186  20.869  0.0092 -0.0409 -0.1031
  867BOLB   C4D20808  25.111  12.988  21.233  0.1085 -0.0245  0.3084
  868BOLB   NC120809  19.546  13.054  23.207  0.0578  0.3446 -0.3188
  868BOLB   PO120810  19.960  12.900  22.946  0.2405 -0.0318  0.0122
  868BOLB   GL120811  20.356  13.159  23.125  0.1310  0.1899 -0.0712
  868BOLB   GL220812  20.158  13.366  23.221  0.0184 -0.2401 -0.0035
  868BOLB   C1A20813  20.774  13.206  23.105  0.3353 -0.1374  0.0770
  868BOLB   C2A20814  21.243  13.312  23.037 -0.1121 -0.3244 -0.0020
  868BOLB   C3A20815  21.541  13.338  23.323 -0.1285  0.0110 -0.3524
  868BOLB   C4A20816  21.553  13.394  23.771  0.1480  0.0031  0.0615
  868BOLB   C1B20817  20.053  13.162  23.645 -0.0665 -0.2769 -0.2592
  868BOLB   C2B20818  20.136  13.372  24.023  0.0623  0.0530  0.0418
  868BOLB   C3B20819  20.430  13.543  24.273  0.1411 -0.3156  0.0721
  868BOLB   C4B20820  20.455  13.519  24.782  0.2255 -0.2658  0.3093
  868BOLB   NC220821  22.854  14.690  25.402  0.1525 -0.2601  0.0713
  868BOLB   PO220822  23.302  14.664  25.146  0.0922  0.0107  0.0312
  868BOLB   GL320823  22.994  14.443  24.912 -0.1868 -0.1185 -0.0293
  868BOLB   GL420824  22.663  14.424  25.003  0.1227  0.0075  0.0648
  868BOLB   C1C20825  22.826  13.995  24.728  0.4167 -0.1947 -0.1489
  868BOLB   C2C20826  22.515  13.834  24.591 -0.1687  0.1517  0.0587
  868BOLB   C3C20827  22.156  13.601  24.469 -0.0754 -0.1990 -0.1137
  868BOLB   C4C20828  21.874  13.474  24.179  0.0699 -0.3485  0.1671
  868BOLB   C1D20829  22.460  14.309  24.594  0.1369  0.1427  0.0215
  868BOLB   C2D20830  22.088  14.114  24.455  0.1613  0.1660  0.1157
  868BOLB   C3D20831  21.693  13.969  24.483  0.1314 -0.2973 -0.1727
  868BOLB   C4D20832  21.415  13.807  24.154 -0.0166  0.1149 -0.1409
  869BOLB   NC120833  16.082   8.554  22.914 -0.0943 -0.0830  0.2039
  869BOLB   PO120834  15.932   8.740  23.371  0.0501 -0.1134 -0.3958
  869BOLB   GL120835  15.891   8.527  23.781 -0.1653  0.2325  0.0244
  869BOLB   GL220836  16.107   8.395  23.903 -0.0825 -0.0425 -0.1807
  869BOLB   C1A20837  15.730   8.440  24.172 -0.2087 -0.0421 -0.3742
  869BOLB   C2A20838  15.755   8.445  24.576 -0.1463  0.0621  0.0384
  869BOLB   C3A20839  15.512   8.729  24.868  0.0810 -0.1661  0.0620
  869BOLB   C4A20840  15.614   8.726  25.239 -0.0618  0.1280  0.0248
  869BOLB   C1B20841  16.170   8.170  24.279  0.0670 -0.0203  0.0291
  869BOLB   C2B20842  16.231   8.367  24.763 -0.0616  0.2907  0.0626
  869BOLB   C3B20843  15.947   8.399  25.187  0.1246  0.1257 -0.0045
  869BOLB   C4B20844  15.764   8.308  25.524 -0.1417 -0.0272  0.2840
  869BOLB   NC220845  15.708   8.076  27.054  0.2889  0.0292  0.2983
  869BOLB   PO220846  15.863   8.429  27.267  0.1550  0.1611  0.0255
  869BOLB   GL320847  15.747   8.731  26.967  0.0953 -0.2051 -0.0549
  869BOLB   GL420848  15.642   8.461  26.731 -0.2497  0.1566 -0.2032
  869BOLB   C1C20849  15.829   8.937  26.620 -0.1200  0.1077 -0.0272
  869BOLB   C2C20850  15.928   9.238  26.338  0.3919  0.0417 -0.0436
  869BOLB   C3C20851  15.878   9.019  25.906 -0.3602  0.0478  0.2132
  869BOLB   C4C20852  15.703   8.787  25.618 -0.2133 -0.5522 -0.2171
  869BOLB   C1D20853  15.774   8.521  26.312  0.2721  0.2808  0.0009
  869BOLB   C2D20854  16.124   8.617  26.004  0.0556  0.0037  0.0548
  869BOLB   C3D20855  16.292   8.628  25.564 -0.0255 -0.0080 -0.1137
  869BOLB   C4D20856  16.546   8.592  25.169 -0.3898  0.2156  0.4044
  870BOLB   NC120857  21.074   7.662  21.425  0.1165 -0.1381  0.1524
  870BOLB   PO120858  21.451   7.560  21.470  0.1708 -0.1113 -0.3779
  870BOLB   GL120859  21.527   7.389  21.857  0.2134  0.0562 -0.0211
  870BOLB   GL220860  21.438   7.562  22.010 -0.3209 -0.2699 -0.2368
  870BOLB   C1A20861  21.641   7.094  22.131  0.0333 -0.0953  0.0711
  870BOLB   C2A20862  22.059   6.953  22.325 -0.0462 -0.1021  0.2675
  870BOLB   C3A20863  22.370   6.979  22.648  0.2387 -0.0898 -0.0274
  870BOLB   C4A20864  22.752   6.640  22.763  0.1496 -0.0097  0.2511
  870BOLB   C1B20865  21.739   7.571  22.343  0.2816  0.3710 -0.3953
  870BOLB   C2B20866  22.154   7.466  22.566  0.1280 -0.1518  0.0474
  870BOLB   C3B20867  22.510   7.631  22.658  0.2592  0.2631 -0.0806
  870BOLB   C4B20868  22.821   7.729  22.893  0.0750 -0.0203  0.2296
  870BOLB   NC220869  24.711   5.272  23.634 -0.1590  0.0930 -0.1582
  870BOLB   PO220870  24.244   5.335  23.624  0.0179 -0.1027 -0.3734
  870BOLB   GL320871  24.114   5.679  23.655 -0.1484 -0.0752  0.0429
  870BOLB   GL420872  24.238   5.969  23.498  0.0253 -0.0901  0.0206
  870BOLB   C1C20873  23.738   5.773  23.438 -0.2762 -0.0695  0.1680
  870BOLB   C2C20874  23.612   5.860  22.987 -0.2026 -0.2175 -0.1038
  870BOLB   C3C20875  23.279   6.055  22.799  0.1109 -0.1031  0.0653
  870BOLB   C4C20876  22.936   6.273  22.624  0.1766 -0.0179  0.2819
  870BOLB   C1D20877  24.006   6.240  23.268  0.4494  0.4197  0.1621
  870BOLB   C2D20878  23.765   6.379  22.767 -0.5131 -0.1267  0.1855
  870BOLB   C3D20879  23.457   6.425  22.422 -0.1679  0.5049  0.2251
  870BOLB   C4D20880  23.200   6.095  22.236 -0.0126  0.1153 -0.0647
  871BOLB   NC120881   8.426  12.797  16.892 -0.1710  0.1251  0.1033
  871BOLB   PO120882   8.683  12.845  17.366  0.1525 -0.2246 -0.1523
  871BOLB   GL120883   8.387  13.199  17.306 -0.3640  0.1722 -0.4163
  871BOLB   GL220884   8.127  13.240  17.032  0.3175 -0.1831  0.0166
  871BOLB   C1A20885   8.035  13.410  17.651  0.0196  0.0687  0.0986
  871BOLB   C2A20886   7.620  13.748  17.487  0.2519  0.1626 -0.0331
  871BOLB   C3A20887   7.286  13.857  17.595 -0.1915 -0.0468  0.0815
  871BOLB   C4A20888   6.939  14.069  17.589 -0.1067 -0.0214 -0.2916
  871BOLB   C1B20889   7.758  13.262  17.271 -0.0800 -0.0669 -0.2619
  871BOLB   C2B20890   7.561  13.293  17.654 -0.1085 -0.1125  0.2097
  871BOLB   C3B20891   7.308  13.206  17.755  0.0067  0.0603  0.1383
  871BOLB   C4B20892   6.897  13.219  17.902 -0.1544  0.1414  0.0779
  871BOLB   NC220893   4.582  14.324  17.168  0.1137 -0.2147  0.0592
  871BOLB   PO220894   4.649  13.904  17.262  0.0513  0.2432  0.0239
  871BOLB   GL320895   5.006  13.801  17.319 -0.1453  0.1928 -0.1391
  871BOLB   GL420896   5.091  13.907  17.034 -0.1320  0.0134 -0.0555
  871BOLB   C1C20897   5.419  14.053  17.397  0.1267  0.0965  0.0548
  871BOLB   C2C20898   5.639  14.240  17.756 -0.4258 -0.0186 -0.1200
  871BOLB   C3C20899   6.067  14.173  17.963 -0.1002 -0.2374  0.0286
  871BOLB   C4C20900   6.572  14.184  17.782 -0.1258 -0.0771 -0.1860
  871BOLB   C1D20901   5.439  13.653  17.029  0.0495 -0.0390 -0.0438
  871BOLB   C2D20902   5.871  13.574  16.883  0.1256  0.0497  0.2006
  871BOLB   C3D20903   6.081  13.200  16.851 -0.0751  0.0650 -0.1160
  871BOLB   C4D20904   6.281  13.016  16.466  0.1209 -0.0363  0.1847
  872BOLB   NC120905  17.684   7.767   9.591 -0.1894  0.5990  0.1161
  872BOLB   PO120906  17.557   7.437   9.409  0.0280 -0.4257 -0.3535
  872BOLB   GL120907  17.255   7.125   9.072 -0.0080 -0.1273  0.0653
  872BOLB   GL220908  16.916   7.048   9.000  0.0870  0.0764 -0.1398
  872BOLB   C1A20909  17.210   6.794   8.727  0.3257  0.1656 -0.1808
  872BOLB   C2A20910  17.300   6.615   8.378  0.0231 -0.2738  0.2134
  872BOLB   C3A20911  17.389   6.645   8.040 -0.0339  0.0186  0.0667
  872BOLB   C4A20912  17.525   6.740   7.591 -0.1047  0.3569  0.0025
  872BOLB   C1B20913  16.585   7.238   8.752 -0.1096 -0.2388 -0.0129
  872BOLB   C2B20914  16.590   7.339   8.310 -0.0922  0.1054  0.0192
  872BOLB   C3B20915  16.577   7.117   7.852  0.1235 -0.0758 -0.2535
  872BOLB   C4B20916  16.402   7.054   7.424 -0.1249 -0.0389 -0.5250
  872BOLB   NC220917  16.806   8.337   9.265 -0.0063  0.2662 -0.2142
  872BOLB   PO220918  16.901   8.045   8.857 -0.2209 -0.0754  0.0950
  872BOLB   GL320919  16.827   7.790   8.475 -0.0176 -0.0329  0.0676
  872BOLB   GL420920  17.053   7.542   8.578  0.1037 -0.4318  0.1397
  872BOLB   C1C20921  16.965   7.612   8.075 -0.0260 -0.5084 -0.1785
  872BOLB   C2C20922  17.053   7.570   7.684  0.0043  0.1147  0.1026
  872BOLB   C3C20923  17.342   7.454   7.504 -0.1476 -0.0638 -0.0193
  872BOLB   C4C20924  17.512   7.120   7.385  0.2616  0.0204  0.0743
  872BOLB   C1D20925  17.199   7.215   8.373  0.0155  0.1628  0.0972
  872BOLB   C2D20926  16.817   6.859   8.228  0.0432  0.1657 -0.3319
  872BOLB   C3D20927  16.711   6.462   8.368  0.0604  0.2044  0.0735
  872BOLB   C4D20928  16.547   6.010   8.174  0.2204 -0.0514 -0.3022
  873BOLB   NC120929  20.449   6.682   9.901 -0.0694 -0.0579  0.1186
  873BOLB   PO120930  20.820   6.378   9.846 -0.0584 -0.2398  0.0451
  873BOLB   GL120931  21.058   6.662   9.706 -0.4085  0.0489  0.1219
  873BOLB   GL220932  21.355   6.806   9.772 -0.0218 -0.0633 -0.2605
  873BOLB   C1A20933  21.450   6.579   9.353  0.0324 -0.1546 -0.1564
  873BOLB   C2A20934  21.876   6.426   9.374  0.1005  0.2603  0.0316
  873BOLB   C3A20935  22.209   6.191   9.245 -0.0281 -0.0047  0.0968
  873BOLB   C4A20936  22.589   6.034   9.457 -0.1080  0.2229  0.3280
  873BOLB   C1B20937  21.869   6.795   9.750  0.3639 -0.3146 -0.2332
  873BOLB   C2B20938  22.305   6.741   9.740  0.0075 -0.1194  0.0182
  873BOLB   C3B20939  22.526   6.580   9.393  0.0198  0.0376  0.2593
  873BOLB   C4B20940  22.525   6.818   8.973 -0.0518  0.2281  0.0558
  873BOLB   NC220941  24.377   5.095   8.096 -0.1422  0.3105 -0.0695
  873BOLB   PO220942  24.277   5.444   8.234 -0.4095 -0.1021  0.1819
  873BOLB   GL320943  23.878   5.442   8.331  0.2163 -0.3321  0.0614
  873BOLB   GL420944  23.565   5.296   8.103  0.2861  0.2167  0.0719
  873BOLB   C1C20945  23.503   5.602   8.613 -0.0120  0.4164  0.3366
  873BOLB   C2C20946  23.315   5.784   8.956 -0.1902  0.0606  0.0374
  873BOLB   C3C20947  23.306   5.717   9.425 -0.1707  0.0425 -0.1488
  873BOLB   C4C20948  22.950   5.757   9.647 -0.0404  0.3688  0.2647
  873BOLB   C1D20949  23.194   5.178   8.170 -0.1808 -0.0453 -0.0604
  873BOLB   C2D20950  22.830   5.121   8.064  0.2283  0.3802  0.0065
  873BOLB   C3D20951  22.406   5.276   8.101  0.0614 -0.0669  0.0373
  873BOLB   C4D20952  22.034   5.221   7.968 -0.1040 -0.1240  0.3464
  874BOLB   NC120953  19.927   9.480   9.050  0.2144  0.0148  0.0438
  874BOLB   PO120954  19.789   9.962   9.142 -0.0133 -0.1697 -0.0745
  874BOLB   GL120955  19.681  10.048   8.682 -0.1649 -0.3446  0.2172
  874BOLB   GL220956  19.570  10.373   8.591  0.3938  0.1245  0.1044
  874BOLB   C1A20957  20.014  10.049   8.329  0.0844  0.0858 -0.1350
  874BOLB   C2A20958  20.013  10.129   7.860  0.1671  0.1697 -0.0693
  874BOLB   C3A20959  19.877  10.185   7.452  0.0649  0.2724 -0.1750
  874BOLB   C4A20960  19.686  10.508   7.271 -0.0142  0.1555  0.1068
  874BOLB   C1B20961  19.657  10.298   8.179  0.2265 -0.0415 -0.0044
  874BOLB   C2B20962  19.658  10.681   7.968  0.1191 -0.3071 -0.0383
  874BOLB   C3B20963  19.817  10.883   7.584  0.2037  0.1531 -0.2567
  874BOLB   C4B20964  19.705  11.043   7.202 -0.2174 -0.1760 -0.1548
  874BOLB   NC220965  19.249  10.965   4.504 -0.4093  0.3970 -0.2007
  874BOLB   PO220966  19.542  11.086   4.819  0.0413  0.0103 -0.2205
  874BOLB   GL320967  19.415  11.047   5.317 -0.0360  0.0979  0.1252
  874BOLB   GL420968  19.568  10.755   5.244 -0.0668  0.1106  0.1145
  874BOLB   C1C20969  19.511  10.906   5.727 -0.2890 -0.1343 -0.2269
  874BOLB   C2C20970  19.508  10.981   6.195  0.1142 -0.0227 -0.3042
  874BOLB   C3C20971  19.427  10.802   6.527  0.2637 -0.1835  0.0314
  874BOLB   C4C20972  19.478  10.721   6.923 -0.0701  0.0980 -0.0435
  874BOLB   C1D20973  19.183  10.642   5.481  0.1319 -0.3200 -0.1275
  874BOLB   C2D20974  18.662  10.505   5.428  0.3828  0.0093 -0.0505
  874BOLB   C3D20975  18.415  10.541   5.819  0.0545  0.3071 -0.0891
  874BOLB   C4D20976  18.098  10.593   6.102 -0.1192  0.1048 -0.1147
  875BOLB   NC120977  23.805   8.286  17.206  0.1812 -0.0453 -0.0438
  875BOLB   PO120978  23.733   8.584  17.535 -0.1161  0.0324  0.0049
  875BOLB   GL120979  24.137   8.585  17.773  0.1072 -0.0666  0.0324
  875BOLB   GL220980  24.105   8.485  18.111 -0.0097  0.1596  0.0237
  875BOLB   C1A20981  24.570   8.594  17.725  0.0117 -0.4405 -0.0402
  875BOLB   C2A20982  24.878   8.505  17.925 -0.0909  0.2291  0.4320
  875BOLB   C3A20983  25.235   8.441  17.846 -0.1988  0.0837 -0.1064
  875BOLB   C4A20984  25.682   8.279  18.002 -0.1505 -0.2558 -0.1001
  875BOLB   C1B20985  24.487   8.522  18.321  0.0637  0.1397  0.2451
  875BOLB   C2B20986  24.861   8.559  18.379 -0.2083 -0.1064  0.0759
  875BOLB   C3B20987  25.333   8.627  18.259 -0.0990  0.0953 -0.0006
  875BOLB   C4B20988  25.698   8.793  18.097 -0.0843  0.3218  0.1469
  875BOLB   NC220989  28.053   8.195  17.557  0.3348 -0.1891  0.0102
  875BOLB   PO220990  27.618   8.090  17.409 -0.1046  0.0646  0.5052
  875BOLB   GL320991  27.308   8.228  17.687 -0.0310 -0.5148  0.1834
  875BOLB   GL420992  27.358   8.413  17.817  0.2756  0.0709  0.0487
  875BOLB   C1C20993  26.932   8.137  17.725  0.4150  0.2108 -0.1271
  875BOLB   C2C20994  26.602   7.736  17.723 -0.0472  0.2844  0.0757
  875BOLB   C3C20995  26.273   7.908  17.567 -0.0306  0.0379 -0.3505
  875BOLB   C4C20996  25.941   8.082  17.871  0.0665  0.1616  0.0219
  875BOLB   C1D20997  27.012   8.507  18.029  0.0425  0.0576  0.0922
  875BOLB   C2D20998  26.699   8.817  18.134 -0.1167  0.0263  0.1749
  875BOLB   C3D20999  26.521   9.035  18.459 -0.0200  0.2898 -0.1579
  875BOLB   C4D21000  26.061   9.015  18.426  0.1119 -0.0471 -0.1909
  876BOLB   NC121001  27.139  16.221  16.891 -0.0957  0.2810  0.1187
  876BOLB   PO121002  27.146  16.366  16.507  0.2475  0.2075 -0.5263
  876BOLB   GL121003  27.184  15.953  16.472  0.0562  0.0372  0.3507
  876BOLB   GL221004  27.072  15.790  16.216 -0.1192  0.0239 -0.1282
  876BOLB   C1A21005  26.850  15.600  16.611 -0.0224 -0.2796  0.2661
  876BOLB   C2A21006  26.505  15.460  16.761  0.0883 -0.2446  0.1572
  876BOLB   C3A21007  26.106  15.432  16.752 -0.1314 -0.1482  0.0233
  876BOLB   C4A21008  25.704  15.564  16.803 -0.2477 -0.3387  0.1444
  876BOLB   C1B21009  26.709  15.986  16.227  0.0636  0.1032  0.1052
  876BOLB   C2B21010  26.348  15.666  16.330  0.1558 -0.0111 -0.1081
  876BOLB   C3B21011  25.886  15.461  16.301  0.0799 -0.0684  0.0619
  876BOLB   C4B21012  25.460  15.443  16.318 -0.1118  0.1678 -0.1472
  876BOLB   NC221013  26.650  17.037  18.342  0.3384 -0.1517  0.1786
  876BOLB   PO221014  26.787  16.812  17.974  0.3312 -0.4193 -0.0121
  876BOLB   GL321015  26.426  16.820  17.810  0.1810  0.0552 -0.1466
  876BOLB   GL421016  26.304  17.066  17.636  0.0778 -0.2409  0.0270
  876BOLB   C1C21017  25.987  16.649  17.714  0.1024  0.1135 -0.1413
  876BOLB   C2C21018  25.628  16.457  17.579  0.1675 -0.0538 -0.3465
  876BOLB   C3C21019  25.287  16.212  17.266  0.0936  0.0689 -0.2185
  876BOLB   C4C21020  25.444  15.882  16.945  0.1085 -0.3359 -0.1679
  876BOLB   C1D21021  26.402  16.751  17.331  0.4054  0.2032  0.1313
  876BOLB   C2D21022  26.344  16.593  16.880  0.0592 -0.2250 -0.0600
  876BOLB   C3D21023  25.979  16.777  16.547  0.0110 -0.0328 -0.1021
  876BOLB   C4D21024  25.795  17.263  16.462 -0.2519 -0.1681 -0.0544
  877BOLB   NC121025  12.967  17.259  17.752  0.1407  0.1992 -0.3465
  877BOLB   PO121026  12.451  17.379  17.709 -0.0513 -0.0435 -0.1445
  877BOLB   GL121027  12.254  17.677  17.934  0.2471  0.0904  0.2272
  877BOLB   GL221028  11.925  17.602  18.085  0.0115 -0.3413  0.1529
  877BOLB   C1A21029  12.202  18.139  17.852 -0.0625 -0.1766 -0.1155
  877BOLB   C2A21030  12.150  18.593  17.717 -0.1192 -0.0256  0.0740
  877BOLB   C3A21031  11.880  19.020  17.791 -0.0786  0.2513  0.0412
  877BOLB   C4A21032  11.913  19.381  17.587 -0.4178  0.0996 -0.0995
  877BOLB   C1B21033  11.697  17.978  18.119 -0.1048 -0.1904  0.1039
  877BOLB   C2B21034  11.392  18.243  18.118 -0.0258  0.1213  0.0072
  877BOLB   C3B21035  11.008  18.398  18.179  0.1381  0.2878 -0.1517
  877BOLB   C4B21036  10.658  18.715  18.217  0.0256 -0.1338  0.0843
  877BOLB   NC221037  11.339  21.774  17.507 -0.1002 -0.1799  0.1061
  877BOLB   PO221038  11.054  21.437  17.437  0.2261 -0.5726 -0.3567
  877BOLB   GL321039  10.991  20.977  17.572  0.2934 -0.0995  0.1366
  877BOLB   GL421040  11.154  20.761  17.872 -0.0093  0.1724  0.2680
  877BOLB   C1C21041  11.216  20.532  17.388  0.2951 -0.0725 -0.2765
  877BOLB   C2C21042  11.433  20.161  17.419 -0.0491  0.2382 -0.1452
  877BOLB   C3C21043  11.626  19.810  17.176  0.1948 -0.1511 -0.1875
  877BOLB   C4C21044  11.916  19.564  17.191 -0.1448  0.0172  0.0849
  877BOLB   C1D21045  11.519  20.371  17.958 -0.2654 -0.0578  0.0155
  877BOLB   C2D21046  11.802  20.105  18.022 -0.1922  0.4444 -0.0214
  877BOLB   C3D21047  11.881  19.762  17.886 -0.3901  0.2669 -0.2883
  877BOLB   C4D21048  11.934  19.360  18.106  0.1662  0.1091 -0.3376
  878BOLB   NC121049  14.938  18.167  18.068 -0.2493 -0.1196 -0.1823
  878BOLB   PO121050  15.044  18.421  18.326  0.3333  0.1956  0.1086
  878BOLB   GL121051  14.966  18.832  18.422  0.0906  0.0655  0.0040
  878BOLB   GL221052  14.912  19.112  18.266 -0.0434 -0.1033 -0.1949
  878BOLB   C1A21053  15.041  19.109  18.770  0.0761  0.0304  0.2572
  878BOLB   C2A21054  15.245  19.556  18.875  0.3080  0.1518 -0.0642
  878BOLB   C3A21055  15.175  19.875  19.169 -0.1544  0.2707 -0.0900
  878BOLB   C4A21056  15.136  20.218  19.381  0.5006 -0.1201 -0.1091
  878BOLB   C1B21057  14.888  19.494  18.442 -0.1849  0.2513 -0.1116
  878BOLB   C2B21058  15.035  19.929  18.592 -0.0154  0.1249 -0.2497
  878BOLB   C3B21059  15.302  20.208  18.409  0.2543  0.1224 -0.1605
  878BOLB   C4B21060  15.706  19.943  18.093  0.1722 -0.1930 -0.1993
  878BOLB   NC221061  16.198  22.535  19.251 -0.0200 -0.2393  0.1849
  878BOLB   PO221062  15.744  22.695  19.255 -0.0356  0.2520  0.0688
  878BOLB   GL321063  15.548  22.352  18.981  0.0660 -0.0300 -0.4246
  878BOLB   GL421064  15.825  22.095  18.818 -0.0563  0.0292 -0.2108
  878BOLB   C1C21065  15.274  21.965  19.064  0.1426  0.2115  0.0672
  878BOLB   C2C21066  15.138  21.647  19.241  0.0400 -0.1095  0.0046
  878BOLB   C3C21067  15.091  21.191  19.303  0.3339 -0.0342  0.1116
  878BOLB   C4C21068  15.061  20.678  19.244 -0.1786  0.2322 -0.0148
  878BOLB   C1D21069  16.065  21.822  18.712  0.0496  0.1572  0.0383
  878BOLB   C2D21070  16.367  21.839  18.422  0.1761 -0.0444 -0.2144
  878BOLB   C3D21071  16.517  21.535  18.233  0.3336 -0.0191 -0.2426
  878BOLB   C4D21072  16.597  21.055  18.300 -0.1508  0.1161  0.0741
  879BOLB   NC121073   3.907   2.720   8.625 -0.2645 -0.2166  0.1411
  879BOLB   PO121074   3.814   2.818   9.090  0.1249 -0.0842  0.0566
  879BOLB   GL121075   4.090   2.901   9.400 -0.0659  0.1958  0.2334
  879BOLB   GL221076   4.365   2.757   9.697  0.0947  0.2617 -0.0383
  879BOLB   C1A21077   4.270   3.219   9.641  0.4737 -0.0898  0.0786
  879BOLB   C2A21078   4.438   3.519   9.926 -0.1830  0.2099 -0.1085
  879BOLB   C3A21079   4.246   3.893   9.941 -0.1699 -0.0581  0.0743
  879BOLB   C4A21080   3.989   4.311   9.966 -0.0785  0.1974 -0.1031
  879BOLB   C1B21081   4.682   2.567   9.756  0.1670  0.0557  0.0002
  879BOLB   C2B21082   5.017   2.633  10.010 -0.0481  0.2251  0.0758
  879BOLB   C3B21083   4.987   2.833  10.409 -0.2098  0.1073  0.0093
  879BOLB   C4B21084   4.847   3.146  10.560  0.1422 -0.3621  0.1281
  879BOLB   NC221085   1.929   4.261  10.864  0.2822 -0.1702 -0.0954
  879BOLB   PO221086   1.978   4.571  10.627 -0.1056 -0.1816 -0.3033
  879BOLB   GL321087   2.299   4.709  10.671 -0.2586 -0.0510  0.0380
  879BOLB   GL421088   2.470   4.999  10.759 -0.3483 -0.3047  0.1268
  879BOLB   C1C21089   2.647   4.741  10.331  0.0485 -0.2021 -0.0615
  879BOLB   C2C21090   3.161   5.058  10.254 -0.1232  0.2422  0.0700
  879BOLB   C3C21091   3.638   5.062  10.142  0.0604 -0.0357  0.1629
  879BOLB   C4C21092   3.824   4.724   9.953  0.1168  0.2868  0.2753
  879BOLB   C1D21093   2.803   4.681  10.896  0.0370  0.1977 -0.1100
  879BOLB   C2D21094   3.198   4.709  11.126  0.0411  0.1085 -0.3098
  879BOLB   C3D21095   3.614   4.642  10.993 -0.2007 -0.1436 -0.1322
  879BOLB   C4D21096   3.930   4.384  11.246  0.0114 -0.1676 -0.3675
  880BOLB   NC121097  20.526  16.010  12.069 -0.2629 -0.0467  0.2248
  880BOLB   PO121098  20.890  16.066  12.276  0.5461  0.0215  0.1800
  880BOLB   GL121099  21.145  16.400  12.242 -0.0643 -0.0528 -0.1599
  880BOLB   GL221100  21.319  16.444  12.502  0.2148  0.0502  0.2396
  880BOLB   C1A21101  21.367  16.743  11.862  0.1359  0.0947  0.3651
  880BOLB   C2A21102  21.724  16.884  11.569  0.1140 -0.1998  0.1753
  880BOLB   C3A21103  22.145  16.984  11.516 -0.0710  0.2610 -0.0209
  880BOLB   C4A21104  22.511  16.919  11.361 -0.1803  0.2465 -0.3100
  880BOLB   C1B21105  21.340  16.905  12.397  0.0830 -0.0916 -0.1007
  880BOLB   C2B21106  21.298  17.211  12.147  0.0328  0.3434  0.2020
  880BOLB   C3B21107  21.528  17.315  11.767  0.2765 -0.1256  0.1800
  880BOLB   C4B21108  21.728  17.310  11.363 -0.0703 -0.2500 -0.1498
  880BOLB   NC221109  24.756  17.182  10.387  0.0942  0.0003 -0.4030
  880BOLB   PO221110  24.403  17.110  10.194  0.2112  0.5832  0.2608
  880BOLB   GL321111  24.191  16.792  10.396  0.1281 -0.1363  0.0392
  880BOLB   GL421112  24.149  16.478  10.270  0.2388 -0.1112  0.0777
  880BOLB   C1C21113  23.725  16.776  10.586  0.1805  0.2928 -0.1630
  880BOLB   C2C21114  23.388  17.024  10.613 -0.3178 -0.0177  0.0268
  880BOLB   C3C21115  23.053  17.173  10.830  0.0224 -0.3949 -0.1186
  880BOLB   C4C21116  22.738  17.128  11.143 -0.1568  0.0107  0.0864
  880BOLB   C1D21117  23.768  16.303  10.337  0.1415  0.1622 -0.1639
  880BOLB   C2D21118  23.309  16.144  10.303  0.0651  0.2490 -0.1995
  880BOLB   C3D21119  23.000  15.939  10.493  0.3851  0.0766  0.0022
  880BOLB   C4D21120  22.776  15.783  10.868 -0.3194  0.1336  0.0277
  881BOLB   NC121121   5.659   6.611   4.570 -0.2406 -0.2631  0.2858
  881BOLB   PO121122   5.487   6.227   4.813 -0.0426 -0.2391 -0.0729
  881BOLB   GL121123   5.802   6.415   5.004  0.0128 -0.1243 -0.2488
  881BOLB   GL221124   5.707   6.642   5.092  0.0460  0.0528 -0.0583
  881BOLB   C1A21125   6.068   6.326   5.349  0.0555 -0.2917  0.1123
  881BOLB   C2A21126   6.254   6.136   5.698 -0.0418  0.2738  0.1495
  881BOLB   C3A21127   6.521   6.061   6.077 -0.1521 -0.0674  0.0441
  881BOLB   C4A21128   6.574   5.650   6.333  0.2013 -0.4098 -0.1684
  881BOLB   C1B21129   5.781   6.779   5.477  0.2034 -0.1509  0.0440
  881BOLB   C2B21130   5.749   6.887   5.888  0.3494 -0.2362  0.1070
  881BOLB   C3B21131   5.798   6.910   6.280  0.1860  0.1463 -0.0064
  881BOLB   C4B21132   6.041   7.056   6.705 -0.0661 -0.3572 -0.2125
  881BOLB   NC221133   4.959   3.742   6.947 -0.1233  0.2209 -0.0238
  881BOLB   PO221134   5.030   3.976   6.664 -0.1132 -0.0488 -0.0336
  881BOLB   GL321135   5.460   4.065   6.834  0.3855  0.2470  0.3552
  881BOLB   GL421136   5.490   4.065   7.187 -0.0471 -0.0914  0.0566
  881BOLB   C1C21137   5.584   4.498   6.778  0.0495  0.0403 -0.3338
  881BOLB   C2C21138   5.726   4.879   6.795 -0.2915  0.0910  0.0086
  881BOLB   C3C21139   5.946   5.163   6.770  0.1831  0.0748 -0.1281
  881BOLB   C4C21140   6.193   5.338   6.538 -0.0787  0.1891 -0.2585
  881BOLB   C1D21141   5.405   4.187   7.634 -0.2413 -0.5379 -0.0570
  881BOLB   C2D21142   5.349   4.210   8.053  0.2336  0.2940 -0.0565
  881BOLB   C3D21143   5.515   4.170   8.445  0.0216  0.0349 -0.2041
  881BOLB   C4D21144   5.549   4.077   8.876 -0.0853 -0.0354 -0.0506
  882BOLB   NC121145  13.858   2.954  19.776 -0.0883  0.3840 -0.0516
  882BOLB   PO121146  13.819   2.908  19.347 -0.0195 -0.0768  0.0152
  882BOLB   GL121147  13.576   2.496  19.414 -0.2474  0.0388 -0.1564
  882BOLB   GL221148  13.692   2.227  19.352 -0.0558 -0.0486 -0.0212
  882BOLB   C1A21149  13.365   2.256  19.693  0.1018  0.1881  0.1078
  882BOLB   C2A21150  13.239   2.094  20.090  0.0048  0.3411 -0.1475
  882BOLB   C3A21151  13.343   1.886  20.451 -0.1422  0.0840  0.0679
  882BOLB   C4A21152  13.259   1.723  20.928  0.0289 -0.0806 -0.1904
  882BOLB   C1B21153  13.861   1.802  19.461 -0.0404 -0.2561 -0.2936
  882BOLB   C2B21154  14.091   1.456  19.370  0.6685 -0.2580  0.2538
  882BOLB   C3B21155  14.074   1.031  19.083 -0.2110  0.2352 -0.0665
  882BOLB   C4B21156  13.881   0.727  18.868 -0.2027 -0.0524  0.0098
  882BOLB   NC221157  12.162  -0.035  21.599  0.0845  0.0872  0.0814
  882BOLB   PO221158  12.507  -0.256  21.668  0.0749  0.4087  0.3352
  882BOLB   GL321159  12.620   0.077  21.404  0.0463  0.0683 -0.1218
  882BOLB   GL421160  12.694  -0.049  21.035 -0.1517 -0.0198 -0.0092
  882BOLB   C1C21161  12.487   0.455  21.277 -0.0967 -0.3559  0.1658
  882BOLB   C2C21162  12.672   0.761  20.941  0.1208  0.2499  0.2736
  882BOLB   C3C21163  12.825   1.192  20.882 -0.2086 -0.0967 -0.0261
  882BOLB   C4C21164  12.950   1.542  20.946  0.0037  0.0279 -0.0472
  882BOLB   C1D21165  12.915   0.295  20.938  0.5248  0.0664  0.1992
  882BOLB   C2D21166  13.139   0.690  20.727  0.3242  0.0951  0.1022
  882BOLB   C3D21167  13.435   0.856  20.513  0.0011  0.1618 -0.4570
  882BOLB   C4D21168  13.359   0.862  20.242 -0.4620 -0.2504  0.0905
  883BOLB   NC121169  12.876   1.877  17.335  0.0651  0.1661  0.2442
  883BOLB   PO121170  12.575   2.031  17.440  0.1518 -0.0949  0.0686
  883BOLB   GL121171  12.339   1.679  17.377 -0.1646 -0.0221  0.5483
  883BOLB   GL221172  12.272   1.598  17.764  0.2077 -0.0609 -0.4822
  883BOLB   C1A21173  11.982   1.358  17.213  0.0658 -0.0832 -0.1462
  883BOLB   C2A21174  11.685   1.022  17.238  0.2033 -0.0381  0.1235
  883BOLB   C3A21175  11.545   0.565  17.482  0.1855  0.1310 -0.1306
  883BOLB   C4A21176  11.299   0.292  17.755  0.3700  0.0140  0.1141
  883BOLB   C1B21177  11.939   1.337  18.068 -0.0250 -0.0908  0.1063
  883BOLB   C2B21178  11.621   1.098  18.232  0.0016  0.1091  0.0884
  883BOLB   C3B21179  11.299   0.796  18.360  0.1064 -0.0084 -0.0889
  883BOLB   C4B21180  10.940   0.965  18.590 -0.3137  0.2145  0.2143
  883BOLB   NC221181   9.336  -0.893  18.327 -0.2240  0.0154 -0.1310
  883BOLB   PO221182   9.686  -1.142  18.558 -0.0442 -0.2797  0.0316
  883BOLB   GL321183   9.812  -0.687  18.548  0.1390 -0.1161  0.0914
  883BOLB   GL421184   9.601  -0.502  18.531  0.2119 -0.1233  0.2488
  883BOLB   C1C21185  10.108  -0.325  18.288 -0.0635 -0.1233  0.3225
  883BOLB   C2C21186  10.595  -0.286  18.281  0.0407  0.2650 -0.1431
  883BOLB   C3C21187  11.042  -0.133  18.189  0.1763  0.0285 -0.1620
  883BOLB   C4C21188  11.258   0.224  18.123 -0.3564  0.2283 -0.0160
  883BOLB   C1D21189   9.638  -0.311  18.136 -0.1161  0.2749  0.4369
  883BOLB   C2D21190   9.911  -0.341  17.808 -0.0583 -0.1289 -0.0287
  883BOLB   C3D21191  10.151  -0.483  17.483 -0.2074 -0.1281 -0.1298
  883BOLB   C4D21192  10.617  -0.547  17.511  0.1673  0.0168  0.1541
  884BOLB   NC121193  16.937   3.176   1.875  0.1289  0.0343  0.0379
  884BOLB   PO121194  17.420   3.324   2.017  0.3536  0.0918 -0.0759
  884BOLB   GL121195  17.606   3.171   2.356 -0.0918 -0.2478  0.2000
  884BOLB   GL221196  17.874   3.106   2.591  0.2473 -0.4105 -0.2148
  884BOLB   C1A21197  17.319   3.018   2.627 -0.0592  0.0429  0.0430
  884BOLB   C2A21198  16.965   2.896   2.884  0.1820 -0.1565  0.2350
  884BOLB   C3A21199  16.639   3.030   3.155 -0.0151 -0.2605  0.0896
  884BOLB   C4A21200  16.365   2.860   3.408 -0.1213  0.3184 -0.3087
  884BOLB   C1B21201  17.576   3.309   2.923  0.2233  0.0383  0.0260
  884BOLB   C2B21202  17.168   3.331   3.151  0.2233 -0.2223 -0.2222
  884BOLB   C3B21203  16.769   3.521   3.312 -0.2431 -0.5873  0.0357
  884BOLB   C4B21204  16.406   3.838   3.487  0.3637  0.0794  0.2315
  884BOLB   NC221205  14.984   2.342   1.786  0.2860 -0.0425 -0.1300
  884BOLB   PO221206  14.773   2.714   1.732 -0.0923 -0.1104 -0.0824
  884BOLB   GL321207  14.872   2.997   2.021 -0.1233 -0.2512 -0.0177
  884BOLB   GL421208  15.100   3.182   2.064  0.0774 -0.2318  0.1362
  884BOLB   C1C21209  15.107   2.910   2.460 -0.1265 -0.0394 -0.3689
  884BOLB   C2C21210  15.328   2.893   2.936 -0.1416 -0.0219  0.4078
  884BOLB   C3C21211  15.573   2.725   3.280  0.2825 -0.0046  0.1125
  884BOLB   C4C21212  15.947   2.750   3.542  0.5108  0.4970  0.1553
  884BOLB   C1D21213  14.764   3.471   2.013  0.1771 -0.0846 -0.0050
  884BOLB   C2D21214  14.398   3.826   2.172  0.1693  0.4235  0.1789
  884BOLB   C3D21215  14.021   3.958   2.460  0.1685 -0.1565 -0.2157
  884BOLB   C4D21216  13.684   3.917   2.526  0.0261  0.1670  0.0753
  885BOLB   NC121217  16.678  17.934  18.881  0.3768  0.1378  0.1576
  885BOLB   PO121218  16.813  18.131  19.240  0.2038  0.3022  0.1389
  885BOLB   GL121219  17.030  18.493  19.317 -0.1498  0.0434 -0.1919
  885BOLB   GL221220  17.127  18.854  19.172  0.2311  0.1000 -0.0209
  885BOLB   C1A21221  17.110  18.638  19.699 -0.3720  0.3502  0.1928
  885BOLB   C2A21222  17.283  18.977  19.979 -0.0077  0.0571 -0.0674
  885BOLB   C3A21223  17.163  19.303  20.091  0.4448  0.0448  0.2632
  885BOLB   C4A21224  17.123  19.592  19.821 -0.1505 -0.2092 -0.0636
  885BOLB   C1B21225  16.935  19.395  19.101 -0.2300 -0.0029  0.0700
  885BOLB   C2B21226  16.815  19.766  18.887 -0.0678 -0.0828  0.0594
  885BOLB   C3B21227  16.582  20.115  19.017 -0.1159 -0.0433 -0.2972
  885BOLB   C4B21228  16.567  20.604  19.029 -0.2294 -0.1568  0.0303
  885BOLB   NC221229  16.495  21.847  20.761 -0.0873 -0.4743  0.0543
  885BOLB   PO221230  16.311  21.549  20.975 -0.1067  0.0275 -0.0986
  885BOLB   GL321231  16.507  21.345  20.788 -0.0283 -0.1968  0.1508
  885BOLB   GL421232  16.536  20.974  20.899 -0.1718  0.0583  0.1299
  885BOLB   C1C21233  16.578  21.026  20.423  0.1043  0.3231 -0.1434
  885BOLB   C2C21234  16.592  20.734  20.107  0.0306  0.1868 -0.2831
  885BOLB   C3C21235  16.834  20.402  19.999 -0.1141  0.1782 -0.1147
  885BOLB   C4C21236  16.968  20.031  19.861 -0.0979 -0.2860  0.1678
  885BOLB   C1D21237  16.734  20.610  20.890  0.1279  0.0822 -0.2919
  885BOLB   C2D21238  16.710  20.324  21.197  0.1303 -0.1149 -0.0965
  885BOLB   C3D21239  17.148  20.355  21.555  0.4376  0.2648  0.0995
  885BOLB   C4D21240  17.364  20.568  21.788  0.2528  0.3075 -0.4096
  886BOLB   NC121241  16.239   1.861  16.955  0.3354  0.0597 -0.0466
  886BOLB   PO121242  16.011   1.535  16.604  0.2068  0.2360  0.0902
  886BOLB   GL121243  15.989   1.082  16.678  0.0338  0.2524  0.1577
  886BOLB   GL221244  15.953   0.900  16.395  0.7198 -0.0708 -0.0541
  886BOLB   C1A21245  16.097   0.906  17.070 -0.0913  0.0432  0.0440
  886BOLB   C2A21246  16.139   0.490  17.167  0.0173 -0.2747 -0.3570
  886BOLB   C3A21247  16.317   0.097  17.162  0.0367 -0.1622 -0.0368
  886BOLB   C4A21248  16.627  -0.151  16.798  0.0080 -0.1873  0.2701
  886BOLB   C1B21249  16.145   0.522  16.604  0.0361  0.1457  0.0418
  886BOLB   C2B21250  15.921   0.154  16.795 -0.2516 -0.1998  0.1800
  886BOLB   C3B21251  16.049  -0.266  16.583  0.1534  0.0622 -0.1539
  886BOLB   C4B21252  16.376  -0.271  16.371 -0.0035  0.1508 -0.1081
  886BOLB   NC221253  16.140  -3.108  16.703  0.1278  0.0552  0.1165
  886BOLB   PO221254  16.136  -2.721  16.565 -0.4086  0.2399 -0.0172
  886BOLB   GL321255  16.093  -2.224  16.328  0.0502  0.2965  0.0428
  886BOLB   GL421256  15.964  -2.275  15.976  0.0450 -0.0810 -0.1843
  886BOLB   C1C21257  16.267  -1.763  16.434 -0.2687 -0.1678  0.0081
  886BOLB   C2C21258  16.583  -1.417  16.558 -0.6221  0.1489  0.0079
  886BOLB   C3C21259  16.859  -0.902  16.509  0.1446 -0.1394 -0.0188
  886BOLB   C4C21260  16.921  -0.456  16.452  0.1979  0.0214  0.0393
  886BOLB   C1D21261  15.989  -1.818  15.871 -0.1566  0.5807 -0.0020
  886BOLB   C2D21262  16.165  -1.404  16.087 -0.1229  0.1393 -0.0717
  886BOLB   C3D21263  16.487  -1.134  15.942  0.2568  0.0120  0.0527
  886BOLB   C4D21264  16.392  -0.702  16.000  0.2195 -0.0013  0.0171
  887BOLB   NC121265  22.411  13.977  19.793 -0.3856  0.0440 -0.0445
  887BOLB   PO121266  22.713  13.867  19.585 -0.0093  0.1320  0.1908
  887BOLB   GL121267  22.945  14.042  19.921  0.0482 -0.1864  0.2415
  887BOLB   GL221268  22.759  14.172  20.123 -0.1734  0.4058 -0.0711
  887BOLB   C1A21269  23.297  14.250  20.088  0.0534 -0.0392  0.2426
  887BOLB   C2A21270  23.697  14.377  20.212 -0.0122 -0.1673  0.0723
  887BOLB   C3A21271  23.948  14.357  20.610 -0.2676 -0.1667 -0.0920
  887BOLB   C4A21272  23.917  14.727  21.017 -0.0105  0.1645  0.0704
  887BOLB   C1B21273  22.883  14.482  20.297  0.0645  0.4565 -0.1070
  887BOLB   C2B21274  23.328  14.530  20.510 -0.1682 -0.1100 -0.2383
  887BOLB   C3B21275  23.701  14.800  20.566 -0.0922 -0.0110  0.1102
  887BOLB   C4B21276  23.717  15.241  20.650 -0.1186  0.2059 -0.3230
  887BOLB   NC221277  24.957  15.078  23.369  0.0713  0.3273 -0.1237
  887BOLB   PO221278  25.094  14.974  22.996  0.1611 -0.2017  0.1076
  887BOLB   GL321279  25.023  14.902  22.564 -0.0306 -0.2004 -0.0307
  887BOLB   GL421280  25.254  14.698  22.254  0.1395  0.0444 -0.1239
  887BOLB   C1C21281  24.648  15.042  22.298  0.0884  0.2102 -0.2403
  887BOLB   C2C21282  24.178  15.067  22.167  0.0942  0.1561  0.2490
  887BOLB   C3C21283  23.972  14.965  21.777 -0.1330 -0.0279  0.0620
  887BOLB   C4C21284  23.847  14.706  21.456  0.2569  0.3336 -0.3614
  887BOLB   C1D21285  24.979  14.756  22.092 -0.0341  0.4291 -0.3052
  887BOLB   C2D21286  24.539  14.765  21.794 -0.1359  0.2763 -0.0970
  887BOLB   C3D21287  24.320  14.802  21.445 -0.0340 -0.3093  0.1813
  887BOLB   C4D21288  24.380  14.797  21.098 -0.1228  0.1630 -0.1479
  888BOLB   NC121289  16.556   2.030  18.374  0.4619 -0.3006 -0.3390
  888BOLB   PO121290  16.937   2.095  18.678  0.1157 -0.4189  0.0010
  888BOLB   GL121291  17.163   2.012  19.062  0.0065 -0.1516 -0.2472
  888BOLB   GL221292  17.328   2.294  19.252  0.1371  0.1060 -0.0415
  888BOLB   C1A21293  17.156   1.943  19.523 -0.2176 -0.1375  0.0963
  888BOLB   C2A21294  17.153   1.726  19.863  0.2537 -0.0117  0.0674
  888BOLB   C3A21295  17.313   1.330  20.090 -0.1085 -0.0268 -0.1129
  888BOLB   C4A21296  17.452   0.968  20.363  0.1061 -0.2474  0.0671
  888BOLB   C1B21297  17.584   1.819  19.352  0.0155  0.0663 -0.0980
  888BOLB   C2B21298  17.721   1.511  19.571 -0.1292  0.4983  0.0324
  888BOLB   C3B21299  17.772   1.300  19.831 -0.2637 -0.1901  0.6475
  888BOLB   C4B21300  18.101   1.223  20.020 -0.0545  0.0877 -0.2817
  888BOLB   NC221301  17.771   0.085  22.799  0.0424 -0.0351 -0.1019
  888BOLB   PO221302  17.552  -0.288  22.417 -0.1978 -0.0782 -0.3413
  888BOLB   GL321303  17.572   0.126  22.176  0.3470 -0.0096  0.0229
  888BOLB   GL421304  17.632   0.442  22.383  0.3761 -0.1233  0.2354
  888BOLB   C1C21305  17.858   0.329  21.837 -0.0146 -0.0610 -0.0515
  888BOLB   C2C21306  17.803   0.524  21.473  0.1961  0.2280 -0.2427
  888BOLB   C3C21307  17.640   0.565  21.038 -0.2641 -0.0368 -0.2113
  888BOLB   C4C21308  17.655   0.725  20.622  0.2258 -0.0185  0.1992
  888BOLB   C1D21309  17.448   0.722  22.078 -0.0131  0.0297 -0.0441
  888BOLB   C2D21310  17.517   0.857  21.700  0.2769 -0.1040  0.2726
  888BOLB   C3D21311  17.404   1.292  21.556  0.2987 -0.0128  0.0575
  888BOLB   C4D21312  17.264   1.724  21.462  0.1975  0.1042  0.0077
  889BOLB   NC121313  18.931  17.338  12.711 -0.1483 -0.1067 -0.1676
  889BOLB   PO121314  19.259  17.448  13.031  0.0961 -0.0651  0.3887
  889BOLB   GL121315  19.357  17.648  12.657  0.0751 -0.2902  0.0328
  889BOLB   GL221316  19.222  17.939  12.795 -0.0864  0.2047  0.0491
  889BOLB   C1A21317  19.589  17.815  12.257 -0.0216 -0.1070  0.0579
  889BOLB   C2A21318  19.849  18.145  11.945 -0.3171  0.0067 -0.1629
  889BOLB   C3A21319  19.984  18.605  11.895  0.2987 -0.3351  0.1870
  889BOLB   C4A21320  20.249  18.978  11.952 -0.2714 -0.1056 -0.3735
  889BOLB   C1B21321  19.583  18.186  12.821 -0.1396  0.0523  0.2073
  889BOLB   C2B21322  20.006  18.243  12.900 -0.3650 -0.1227 -0.2450
  889BOLB   C3B21323  20.412  18.380  12.690 -0.1926  0.1014 -0.1103
  889BOLB   C4B21324  20.697  18.632  12.877 -0.0702 -0.3106  0.2243
  889BOLB   NC221325  22.220  19.935  12.065  0.0320  0.0216 -0.0809
  889BOLB   PO221326  22.312  20.082  12.406  0.2307 -0.0797 -0.0567
  889BOLB   GL321327  21.960  19.909  12.622  0.3694  0.3025 -0.0343
  889BOLB   GL421328  22.043  19.674  12.899  0.1455  0.1494 -0.0521
  889BOLB   C1C21329  21.614  19.524  12.710 -0.1721  0.1696 -0.0594
  889BOLB   C2C21330  21.337  19.292  12.618 -0.0898  0.0339  0.1122
  889BOLB   C3C21331  21.107  18.973  12.314 -0.0693  0.1065  0.1070
  889BOLB   C4C21332  20.704  19.079  12.134  0.0347 -0.3629  0.1379
  889BOLB   C1D21333  22.059  19.369  13.281 -0.2412 -0.3167 -0.2069
  889BOLB   C2D21334  22.061  19.238  13.726  0.1024 -0.1705 -0.1048
  889BOLB   C3D21335  21.811  19.112  14.080 -0.1918 -0.2209 -0.0634
  889BOLB   C4D21336  21.704  19.201  14.423 -0.1296  0.1692 -0.1230
  890BOLB   NC121337  19.076   4.202  19.703 -0.1046 -0.3073 -0.1473
  890BOLB   PO121338  19.048   4.353  20.096 -0.0205  0.2922  0.0655
  890BOLB   GL121339  19.507   3.983  20.004  0.2468  0.3191  0.1341
  890BOLB   GL221340  19.785   4.152  20.214 -0.0924  0.1195  0.0985
  890BOLB   C1A21341  19.780   3.655  20.054 -0.0996  0.1128  0.2155
  890BOLB   C2A21342  20.112   3.407  20.284  0.0937 -0.0467  0.2636
  890BOLB   C3A21343  20.480   3.268  20.650  0.2074  0.3361 -0.0367
  890BOLB   C4A21344  20.687   2.943  20.903 -0.0117  0.0947  0.2070
  890BOLB   C1B21345  19.552   3.833  20.494  0.0372 -0.0988 -0.1559
  890BOLB   C2B21346  19.646   3.709  20.935 -0.1013  0.0658  0.0473
  890BOLB   C3B21347  19.823   3.522  21.255  0.1466  0.2300 -0.1703
  890BOLB   C4B21348  19.850   3.039  21.239 -0.1613 -0.3579 -0.0958
  890BOLB   NC221349  21.907   0.611  21.555 -0.3106  0.0636 -0.2501
  890BOLB   PO221350  21.606   0.836  21.365  0.0561 -0.1460 -0.0386
  890BOLB   GL321351  21.363   1.031  21.209  0.0918  0.1183  0.0864
  890BOLB   GL421352  21.146   0.960  20.962  0.1396  0.1139 -0.1019
  890BOLB   C1C21353  21.298   1.444  21.056 -0.0549  0.2279  0.0715
  890BOLB   C2C21354  21.065   1.801  21.018  0.1617  0.1101  0.1190
  890BOLB   C3C21355  20.986   2.164  21.117 -0.1093 -0.1884 -0.1941
  890BOLB   C4C21356  20.755   2.567  21.009 -0.0428  0.1140 -0.0923
  890BOLB   C1D21357  20.969   1.258  20.742  0.0059  0.0976 -0.1146
  890BOLB   C2D21358  20.891   1.348  20.337 -0.0002  0.0615  0.1170
  890BOLB   C3D21359  21.147   1.584  20.064  0.2909  0.0728  0.1268
  890BOLB   C4D21360  21.185   1.782  19.596  0.1036 -0.2673  0.1468
  891BOLB   NC121361  22.006  12.795  11.699 -0.0350  0.0105  0.1428
  891BOLB   PO121362  22.303  12.467  11.583 -0.0784  0.0536  0.0205
  891BOLB   GL121363  22.414  12.624  11.151  0.1831  0.0476  0.0903
  891BOLB   GL221364  22.727  12.600  11.234 -0.1415  0.2179  0.1687
  891BOLB   C1A21365  22.599  12.977  10.819 -0.0091 -0.1054  0.1815
  891BOLB   C2A21366  22.644  12.983  10.368 -0.2501  0.2634 -0.4069
  891BOLB   C3A21367  22.761  12.868   9.965 -0.3129 -0.1543 -0.1344
  891BOLB   C4A21368  22.930  13.130   9.594 -0.2286  0.2366  0.1593
  891BOLB   C1B21369  23.165  12.416  11.164  0.0478 -0.2262 -0.1535
  891BOLB   C2B21370  23.246  12.720  10.906 -0.3336  0.0898  0.1318
  891BOLB   C3B21371  23.171  12.787  10.541 -0.0777  0.0097 -0.1101
  891BOLB   C4B21372  23.294  12.607  10.104  0.2324  0.2806  0.0290
  891BOLB   NC221373  23.852  14.505   7.667  0.3268 -0.1579 -0.1758
  891BOLB   PO221374  24.033  14.357   7.996  0.0276  0.1023  0.2728
  891BOLB   GL321375  23.691  14.381   8.225 -0.1376 -0.0245  0.1244
  891BOLB   GL421376  23.733  14.639   8.448  0.3651  0.2712 -0.0277
  891BOLB   C1C21377  23.675  14.148   8.624 -0.1086 -0.0173  0.0069
  891BOLB   C2C21378  23.502  13.760   8.726 -0.0653 -0.1151  0.1217
  891BOLB   C3C21379  23.537  13.586   9.015 -0.0863  0.0908  0.2164
  891BOLB   C4C21380  23.259  13.287   9.297 -0.3823 -0.1575  0.2534
  891BOLB   C1D21381  23.364  14.875   8.678  0.4270  0.1749 -0.0625
  891BOLB   C2D21382  23.416  15.029   9.148  0.1483 -0.1359  0.3076
  891BOLB   C3D21383  23.210  15.062   9.636  0.2548 -0.0214 -0.1691
  891BOLB   C4D21384  22.829  14.987   9.886 -0.1122 -0.0494  0.5263
  892BOLB   NC121385  15.872  13.043  27.735  0.1085  0.0286  0.0095
  892BOLB   PO121386  15.995  12.651  27.645 -0.0054 -0.0107  0.0641
  892BOLB   GL121387  15.680  12.500  27.267  0.3158 -0.0083 -0.0965
  892BOLB   GL221388  15.369  12.616  27.283 -0.0090 -0.0091  0.2407
  892BOLB   C1A21389  15.912  12.274  26.856 -0.1228 -0.0437 -0.0128
  892BOLB   C2A21390  15.857  12.246  26.330  0.2501 -0.1047  0.3270
  892BOLB   C3A21391  15.665  12.438  26.028 -0.2432  0.1153  0.1560
  892BOLB   C4A21392  15.297  12.404  25.752  0.0841 -0.0295 -0.4334
  892BOLB   C1B21393  15.254  12.491  26.884  0.0638 -0.3394  0.0447
  892BOLB   C2B21394  15.416  12.215  26.578 -0.0102 -0.0894  0.3780
  892BOLB   C3B21395  15.471  12.025  26.140 -0.0649 -0.1601  0.2037
  892BOLB   C4B21396  15.590  12.037  25.761  0.0690  0.0425  0.1175
  892BOLB   NC221397  13.449  13.018  26.764 -0.1305 -0.1088 -0.0615
  892BOLB   PO221398  13.707  13.289  26.948  0.3005  0.3401  0.0197
  892BOLB   GL321399  13.932  13.281  26.684  0.1077 -0.0459 -0.0352
  892BOLB   GL421400  14.147  13.091  26.842  0.2626 -0.1831  0.2084
  892BOLB   C1C21401  14.137  13.158  26.371  0.1872  0.0557 -0.0016
  892BOLB   C2C21402  14.437  12.826  26.187 -0.1341  0.2392 -0.0875
  892BOLB   C3C21403  14.446  12.636  25.866  0.1085  0.2652 -0.0872
  892BOLB   C4C21404  14.818  12.354  25.629  0.2034 -0.1146 -0.0845
  892BOLB   C1D21405  13.936  12.719  26.509  0.1745 -0.1781 -0.1312
  892BOLB   C2D21406  14.007  12.454  26.158  0.0094 -0.2799 -0.3005
  892BOLB   C3D21407  13.859  12.392  25.707 -0.1673  0.0588  0.1860
  892BOLB   C4D21408  13.691  12.382  25.256 -0.1626 -0.3891 -0.1475
  893BOLB   NC121409  25.233  11.354   8.011  0.0402  0.2346 -0.3199
  893BOLB   PO121410  25.185  11.744   8.275  0.0265 -0.0477  0.0629
  893BOLB   GL121411  25.214  11.664   8.788  0.2644  0.1682  0.1830
  893BOLB   GL221412  25.106  11.405   8.931 -0.1179 -0.2512 -0.1026
  893BOLB   C1A21413  24.762  11.845   8.920  0.0060  0.3663  0.0370
  893BOLB   C2A21414  24.413  11.653   9.026 -0.3440 -0.1364 -0.0742
  893BOLB   C3A21415  24.124  11.353   8.998 -0.2202  0.2585  0.0149
  893BOLB   C4A21416  23.890  10.903   9.091 -0.4132 -0.4395  0.1394
  893BOLB   C1B21417  24.930  11.512   9.333  0.4467 -0.1114 -0.0931
  893BOLB   C2B21418  24.634  11.410   9.630 -0.0582  0.0936 -0.0524
  893BOLB   C3B21419  24.245  11.484   9.555 -0.3062 -0.1998 -0.1112
  893BOLB   C4B21420  23.986  11.735   9.341  0.0236  0.1651  0.3229
  893BOLB   NC221421  25.434   9.992   8.178  0.0987  0.0412 -0.1442
  893BOLB   PO221422  25.233   9.687   7.895 -0.0492 -0.0427 -0.5110
  893BOLB   GL321423  25.094   9.595   8.342  0.1677  0.1540 -0.0520
  893BOLB   GL421424  25.294   9.468   8.557  0.3300 -0.4473 -0.0323
  893BOLB   C1C21425  24.660   9.678   8.662 -0.2932 -0.1387  0.2273
  893BOLB   C2C21426  24.628  10.096   8.718 -0.4101 -0.1448 -0.0052
  893BOLB   C3C21427  24.527  10.486   8.676 -0.1393 -0.0856 -0.5733
  893BOLB   C4C21428  24.281  10.687   9.070 -0.0031  0.2053 -0.1597
  893BOLB   C1D21429  24.996   9.195   8.700  0.1114 -0.0849  0.0411
  893BOLB   C2D21430  24.691   8.888   9.002 -0.0365 -0.1253  0.2629
  893BOLB   C3D21431  24.245   8.781   8.997 -0.4717 -0.0041  0.0631
  893BOLB   C4D21432  23.962   8.615   9.304 -0.0545 -0.3851 -0.2537
  894BOLB   NC121433   8.353  11.682  14.498 -0.0636 -0.0200  0.2311
  894BOLB   PO121434   8.442  11.376  14.848 -0.4344  0.1770  0.1879
  894BOLB   GL121435   7.977  11.322  14.582  0.0058 -0.2051 -0.1372
  894BOLB   GL221436   7.771  11.057  14.562 -0.2891  0.1532 -0.1899
  894BOLB   C1A21437   7.482  11.430  14.574  0.0590 -0.2487 -0.2427
  894BOLB   C2A21438   7.054  11.527  14.648 -0.0959  0.1095 -0.0790
  894BOLB   C3A21439   6.551  11.618  14.722 -0.0061  0.0335  0.1670
  894BOLB   C4A21440   6.214  11.653  14.966 -0.3597 -0.0627 -0.4786
  894BOLB   C1B21441   7.420  10.945  14.637 -0.0946  0.1031  0.2889
  894BOLB   C2B21442   7.063  11.066  14.764  0.0666  0.4969 -0.0424
  894BOLB   C3B21443   6.698  11.100  14.773  0.0967  0.2407 -0.0642
  894BOLB   C4B21444   6.527  10.921  14.474 -0.0516  0.0415  0.0401
  894BOLB   NC221445   4.380  12.068  16.500  0.2229 -0.3010 -0.1174
  894BOLB   PO221446   4.354  12.437  16.166 -0.0409 -0.0894  0.1463
  894BOLB   GL321447   4.477  11.976  16.012  0.0454 -0.0832  0.0226
  894BOLB   GL421448   4.358  11.817  15.879  0.0919 -0.1045 -0.0046
  894BOLB   C1C21449   4.880  11.789  15.947  0.0019 -0.0098 -0.5124
  894BOLB   C2C21450   5.350  11.511  15.884  0.1368  0.1052  0.0221
  894BOLB   C3C21451   5.623  11.384  15.500  0.1755  0.0841  0.0511
  894BOLB   C4C21452   5.840  11.356  15.206  0.1554 -0.4200  0.0594
  894BOLB   C1D21453   4.687  11.546  15.601 -0.1489 -0.0227  0.3531
  894BOLB   C2D21454   5.105  11.390  15.466  0.2041  0.0569  0.0640
  894BOLB   C3D21455   5.387  11.036  15.253 -0.0662 -0.1387  0.2102
  894BOLB   C4D21456   5.384  10.740  14.882  0.2950  0.1880 -0.0270
  895BOLB   NC121457  17.397  18.352  15.152 -0.1498  0.2525  0.0647
  895BOLB   PO121458  17.890  18.308  15.100 -0.0531 -0.1311 -0.0600
  895BOLB   GL121459  18.073  18.696  14.966 -0.0035 -0.0380 -0.1919
  895BOLB   GL221460  18.430  18.780  14.795  0.1852 -0.0366 -0.1716
  895BOLB   C1A21461  18.074  19.105  15.173 -0.1387 -0.0256  0.0819
  895BOLB   C2A21462  17.904  19.548  15.205  0.1874 -0.1004 -0.1374
  895BOLB   C3A21463  18.014  19.886  15.270 -0.0431 -0.0661  0.0478
  895BOLB   C4A21464  18.078  20.345  15.269 -0.0711 -0.2833 -0.1377
  895BOLB   C1B21465  18.472  19.255  14.784  0.0820 -0.1287 -0.1197
  895BOLB   C2B21466  18.668  19.614  14.674 -0.0731 -0.1223 -0.2802
  895BOLB   C3B21467  18.532  19.890  14.365  0.2521 -0.0665  0.2004
  895BOLB   C4B21468  18.167  20.058  14.443 -0.0653  0.1281  0.3120
  895BOLB   NC221469  17.702  23.007  14.441 -0.0985 -0.1424 -0.0157
  895BOLB   PO221470  17.695  22.556  14.567 -0.1348 -0.0382 -0.1942
  895BOLB   GL321471  17.873  22.245  14.732 -0.2420  0.0494  0.2024
  895BOLB   GL421472  18.139  22.176  14.429  0.1780  0.1034 -0.2480
  895BOLB   C1C21473  17.805  21.765  14.647 -0.2933 -0.1533 -0.0401
  895BOLB   C2C21474  17.710  21.462  15.035  0.1821 -0.0891 -0.1086
  895BOLB   C3C21475  17.926  21.143  15.134  0.0896  0.0732  0.3060
  895BOLB   C4C21476  18.155  20.722  15.154  0.2125 -0.1571 -0.2790
  895BOLB   C1D21477  18.295  21.748  14.482 -0.1852 -0.1375  0.1285
  895BOLB   C2D21478  18.384  21.423  14.471 -0.1348  0.1173  0.1251
  895BOLB   C3D21479  18.739  21.296  14.425  0.1353 -0.3995  0.1268
  895BOLB   C4D21480  19.036  21.227  14.771 -0.3264  0.1220  0.2576
  896BOLB   NC121481  14.593  18.898  16.696 -0.3038 -0.0872 -0.2748
  896BOLB   PO121482  14.802  18.795  17.008 -0.1998 -0.3848  0.4560
  896BOLB   GL121483  14.779  19.315  16.910 -0.0544 -0.1562 -0.1826
  896BOLB   GL221484  14.692  19.381  16.620 -0.1685  0.1419 -0.2178
  896BOLB   C1A21485  14.502  19.633  17.056 -0.2931 -0.1078 -0.1401
  896BOLB   C2A21486  14.533  20.049  17.047 -0.0214 -0.2020 -0.0083
  896BOLB   C3A21487  14.585  20.400  16.822  0.0613 -0.0715 -0.0662
  896BOLB   C4A21488  14.826  20.778  16.696 -0.1385 -0.1370 -0.1552
  896BOLB   C1B21489  14.840  19.760  16.588 -0.0531 -0.1491  0.0392
  896BOLB   C2B21490  14.997  20.138  16.788 -0.2321 -0.4495 -0.1135
  896BOLB   C3B21491  15.120  20.543  16.999 -0.0713 -0.1038  0.4557
  896BOLB   C4B21492  15.009  20.886  17.237  0.2693  0.0850 -0.3133
  896BOLB   NC221493  14.452  22.471  14.912  0.1221  0.0753  0.0932
  896BOLB   PO221494  14.241  22.486  15.313  0.3106 -0.0456 -0.2594
  896BOLB   GL321495  13.997  22.138  15.435 -0.4155  0.3164  0.1705
  896BOLB   GL421496  13.821  22.078  15.218 -0.2768  0.2597  0.2407
  896BOLB   C1C21497  14.052  21.888  15.787 -0.1144  0.1909  0.2953
  896BOLB   C2C21498  14.188  21.548  15.980 -0.1603 -0.1345  0.1998
  896BOLB   C3C21499  14.411  21.285  16.263 -0.0640 -0.1678  0.2540
  896BOLB   C4C21500  14.668  21.066  16.406 -0.0297 -0.0396 -0.1007
  896BOLB   C1D21501  13.883  21.622  15.328 -0.2226  0.1578  0.0218
  896BOLB   C2D21502  14.068  21.332  15.471  0.1167  0.3178  0.0392
  896BOLB   C3D21503  14.198  21.057  15.796 -0.0960 -0.0042 -0.1328
  896BOLB   C4D21504  14.514  20.852  15.999  0.1726 -0.1730  0.0436
  897BOLB   NC121505  13.975  21.355  21.852  0.0455 -0.2787 -0.2816
  897BOLB   PO121506  13.642  21.526  21.637 -0.1397  0.3465 -0.0646
  897BOLB   GL121507  13.655  21.106  21.524 -0.1463  0.3362  0.1125
  897BOLB   GL221508  13.902  20.969  21.507  0.2989  0.1890 -0.1616
  897BOLB   C1A21509  13.584  20.654  21.205 -0.2829  0.1160  0.1376
  897BOLB   C2A21510  13.362  20.370  21.051  0.1424 -0.1949 -0.3263
  897BOLB   C3A21511  13.622  20.344  20.666 -0.1284 -0.1518  0.2499
  897BOLB   C4A21512  13.614  20.408  20.253  0.4964 -0.0935 -0.0056
  897BOLB   C1B21513  14.007  20.865  21.027 -0.0344  0.0059  0.0300
  897BOLB   C2B21514  14.093  20.464  20.903 -0.0027  0.1712 -0.2001
  897BOLB   C3B21515  14.407  20.147  20.796  0.1114 -0.1096 -0.1009
  897BOLB   C4B21516  14.352  19.692  20.765 -0.1892 -0.2338 -0.1516
  897BOLB   NC221517  13.332  22.447  19.588  0.0142  0.0803  0.2962
  897BOLB   PO221518  13.122  22.106  19.417 -0.1915 -0.0052  0.1410
  897BOLB   GL321519  12.987  21.763  19.260  0.2302  0.1048 -0.2223
  897BOLB   GL421520  13.153  21.634  19.007 -0.1145  0.3737  0.0895
  897BOLB   C1C21521  13.025  21.351  19.418  0.0138  0.0675  0.1254
  897BOLB   C2C21522  12.892  21.018  19.511  0.0120 -0.2457 -0.1739
  897BOLB   C3C21523  13.130  20.589  19.553 -0.1567 -0.2885  0.0523
  897BOLB   C4C21524  13.359  20.341  19.850  0.2552  0.1184 -0.0816
  897BOLB   C1D21525  13.432  21.448  18.720  0.5265 -0.0972 -0.0048
  897BOLB   C2D21526  13.632  21.312  18.345  0.2128  0.2393 -0.2248
  897BOLB   C3D21527  13.709  21.633  17.922 -0.1249  0.0670 -0.0278
  897BOLB   C4D21528  13.571  21.800  17.552  0.0554 -0.3688  0.3114
  898BOLB   NC121529  20.195  17.695  15.638  0.1820  0.2042 -0.0981
  898BOLB   PO121530  20.259  18.011  15.957  0.0731  0.2993  0.3082
  898BOLB   GL121531  20.317  18.455  16.047 -0.1599  0.0428 -0.2622
  898BOLB   GL221532  20.436  18.524  16.425  0.0692 -0.0185 -0.2218
  898BOLB   C1A21533  20.446  18.790  15.992  0.0688 -0.2074 -0.0974
  898BOLB   C2A21534  20.297  19.198  16.213  0.2567 -0.0657  0.7309
  898BOLB   C3A21535  20.267  19.675  16.426 -0.2426 -0.1745  0.1570
  898BOLB   C4A21536  19.992  20.008  16.546 -0.0680 -0.1600 -0.0808
  898BOLB   C1B21537  20.643  18.891  16.445 -0.0648  0.1045  0.3856
  898BOLB   C2B21538  20.885  19.358  16.434  0.0236  0.0012  0.2541
  898BOLB   C3B21539  21.231  19.644  16.441  0.1037  0.3528 -0.0813
  898BOLB   C4B21540  21.179  20.028  16.675 -0.1107 -0.2819  0.0251
  898BOLB   NC221541  19.870  22.655  16.495  0.2333  0.0574  0.0644
  898BOLB   PO221542  19.898  22.236  16.643 -0.0748  0.4410  0.1639
  898BOLB   GL321543  19.620  21.944  16.708 -0.0895 -0.0313  0.1118
  898BOLB   GL421544  19.413  21.811  16.845  0.0832  0.2016 -0.1348
  898BOLB   C1C21545  19.582  21.597  16.434  0.0716 -0.0222  0.3188
  898BOLB   C2C21546  19.902  21.304  16.228  0.0372 -0.0039  0.0280
  898BOLB   C3C21547  19.902  20.842  16.296  0.1103  0.0721  0.1438
  898BOLB   C4C21548  19.834  20.391  16.346  0.1452 -0.0805  0.1405
  898BOLB   C1D21549  19.635  21.531  16.960 -0.0070 -0.0068 -0.0731
  898BOLB   C2D21550  19.693  21.118  16.721  0.0228  0.0983  0.3564
  898BOLB   C3D21551  19.487  20.699  16.597 -0.0860  0.2367 -0.0555
  898BOLB   C4D21552  19.278  20.390  16.306  0.0412  0.0242  0.2501
  899BOLB   NC121553  18.108  11.200   8.616 -0.0709  0.2278  0.0979
  899BOLB   PO121554  18.521  10.878   8.504 -0.0117  0.2576 -0.0183
  899BOLB   GL121555  18.237  10.797   8.176 -0.0274 -0.1351 -0.0073
  899BOLB   GL221556  18.380  10.636   8.075 -0.1386 -0.2420  0.0926
  899BOLB   C1A21557  18.130  11.019   7.782 -0.4349  0.0650 -0.2841
  899BOLB   C2A21558  18.289  11.145   7.274  0.1456 -0.1206 -0.1122
  899BOLB   C3A21559  18.347  11.084   6.876 -0.0385 -0.0884 -0.0775
  899BOLB   C4A21560  18.114  11.077   6.575  0.5217 -0.0485 -0.1761
  899BOLB   C1B21561  18.426  10.638   7.653 -0.1891  0.0913  0.2694
  899BOLB   C2B21562  18.656  10.831   7.388 -0.0798  0.1362 -0.1568
  899BOLB   C3B21563  18.787  11.372   7.332 -0.0080  0.1825  0.1304
  899BOLB   C4B21564  18.824  11.296   6.941  0.0320  0.2107  0.0181
  899BOLB   NC221565  18.566  11.344   4.349 -0.0765  0.2676 -0.0221
  899BOLB   PO221566  19.031  11.453   4.392 -0.0083  0.6279 -0.0721
  899BOLB   GL321567  18.842  11.104   4.697  0.1304 -0.0388 -0.1620
  899BOLB   GL421568  18.521  10.944   4.625  0.0541 -0.0573 -0.0147
  899BOLB   C1C21569  18.743  11.109   5.126 -0.3175  0.2477 -0.1275
  899BOLB   C2C21570  18.548  10.977   5.611 -0.2707  0.0759  0.1933
  899BOLB   C3C21571  18.498  11.021   6.060 -0.2578 -0.0894 -0.1290
  899BOLB   C4C21572  18.228  11.090   6.295  0.2786 -0.1804 -0.1099
  899BOLB   C1D21573  18.391  10.731   4.991 -0.1838 -0.0309  0.0808
  899BOLB   C2D21574  18.159  10.653   5.430 -0.0094 -0.2091  0.1086
  899BOLB   C3D21575  17.844  10.525   5.678  0.4173  0.0347 -0.0022
  899BOLB   C4D21576  17.538  10.535   6.004 -0.0968 -0.0170 -0.2457
  900BOLB   NC121577  14.211   3.342  20.554 -0.1483 -0.2117  0.2548
  900BOLB   PO121578  14.451   2.974  20.325  0.1188  0.0913 -0.2005
  900BOLB   GL121579  14.285   2.667  20.579 -0.0945  0.2752 -0.0255
  900BOLB   GL221580  14.000   2.863  20.726  0.1819 -0.0978  0.0711
  900BOLB   C1A21581  14.245   2.283  20.637 -0.3004 -0.2512 -0.3881
  900BOLB   C2A21582  14.618   2.022  20.720  0.0572  0.1080  0.3462
  900BOLB   C3A21583  14.860   1.783  20.989 -0.3509  0.0118 -0.0758
  900BOLB   C4A21584  14.968   1.426  21.136 -0.1374 -0.2309  0.1169
  900BOLB   C1B21585  14.000   2.612  21.042 -0.4869 -0.3097  0.0156
  900BOLB   C2B21586  13.898   2.211  21.245 -0.3746 -0.0919  0.0948
  900BOLB   C3B21587  13.596   2.259  21.586 -0.2099 -0.1161  0.0495
  900BOLB   C4B21588  13.465   2.226  21.994 -0.1220 -0.0261  0.1346
  900BOLB   NC221589  15.327  -0.171  22.235 -0.1123  0.1539  0.1449
  900BOLB   PO221590  15.146   0.012  22.614  0.1776 -0.0987 -0.0042
  900BOLB   GL321591  15.111   0.345  22.366  0.0214 -0.0156  0.0018
  900BOLB   GL421592  15.451   0.411  22.371 -0.1725  0.0633  0.1439
  900BOLB   C1C21593  15.158   0.526  21.912 -0.1419  0.0922 -0.2292
  900BOLB   C2C21594  14.967   0.458  21.521 -0.0859 -0.0351 -0.0723
  900BOLB   C3C21595  14.909   0.695  21.372 -0.1290  0.0319 -0.0324
  900BOLB   C4C21596  14.993   1.056  21.272 -0.1875 -0.0234  0.2039
  900BOLB   C1D21597  15.192   0.841  22.276 -0.3467 -0.1682  0.1518
  900BOLB   C2D21598  15.166   1.280  22.084 -0.1002 -0.0644 -0.3423
  900BOLB   C3D21599  15.396   1.626  21.975  0.0141  0.2835  0.0581
  900BOLB   C4D21600  15.725   1.910  22.035  0.0234  0.1072 -0.3149
  901BOLB   NC121601  20.389  15.799  11.234 -0.2693  0.2990 -0.0062
  901BOLB   PO121602  20.351  16.090  11.629  0.0672 -0.4238 -0.2848
  901BOLB   GL121603  20.694  16.206  11.246  0.0888 -0.0227 -0.0066
  901BOLB   GL221604  20.874  15.909  11.067 -0.0998  0.6485  0.2807
  901BOLB   C1A21605  20.769  16.460  11.006 -0.0731  0.0877  0.1611
  901BOLB   C2A21606  20.946  16.310  10.644 -0.0973  0.1463 -0.0284
  901BOLB   C3A21607  21.348  16.549  10.450  0.0671 -0.1032 -0.2582
  901BOLB   C4A21608  21.674  16.907  10.415 -0.3099  0.1517  0.1327
  901BOLB   C1B21609  21.197  16.023  10.902 -0.0282 -0.0257 -0.1369
  901BOLB   C2B21610  21.449  16.344  10.914  0.2776 -0.3510  0.0974
  901BOLB   C3B21611  21.655  16.797  10.961 -0.2593  0.2857  0.1458
  901BOLB   C4B21612  22.014  16.914  11.073 -0.2899 -0.0723  0.0503
  901BOLB   NC221613  23.449  19.163  10.971  0.1113  0.2953 -0.2148
  901BOLB   PO221614  23.120  18.979  10.589  0.1145  0.2931  0.1547
  901BOLB   GL321615  22.872  18.705  10.746  0.1273 -0.3990 -0.1044
  901BOLB   GL421616  22.937  18.716  11.146  0.3095 -0.3219 -0.4357
  901BOLB   C1C21617  22.696  18.169  10.599 -0.1711 -0.0220 -0.0705
  901BOLB   C2C21618  22.355  17.848  10.608 -0.0052 -0.0176  0.0543
  901BOLB   C3C21619  22.182  17.528  10.431  0.0295  0.1187  0.1487
  901BOLB   C4C21620  21.967  17.219  10.266  0.0792 -0.1830  0.0663
  901BOLB   C1D21621  22.701  18.345  11.279 -0.0517 -0.0605 -0.1068
  901BOLB   C2D21622  22.364  18.085  11.611  0.1185 -0.2495 -0.1470
  901BOLB   C3D21623  22.316  17.698  11.664 -0.1128  0.3685  0.1037
  901BOLB   C4D21624  22.255  17.448  11.311 -0.1033  0.1452  0.0264
  902BOLB   NC121625  17.148   2.263  17.408 -0.1257 -0.0992 -0.3282
  902BOLB   PO121626  17.225   1.861  17.679  0.1101  0.0046  0.0949
  902BOLB   GL121627  17.254   1.490  17.846 -0.0661  0.1004  0.2392
  902BOLB   GL221628  17.557   1.413  17.968 -0.3221  0.1354  0.0399
  902BOLB   C1A21629  17.307   0.998  17.907 -0.0916 -0.2503 -0.0660
  902BOLB   C2A21630  17.220   0.565  18.003  0.0275 -0.1163 -0.0430
  902BOLB   C3A21631  17.309   0.220  18.236 -0.0883  0.0197  0.1933
  902BOLB   C4A21632  17.491   0.053  18.522  0.1623  0.1533  0.1074
  902BOLB   C1B21633  17.705   0.997  18.211  0.1554 -0.0074 -0.0156
  902BOLB   C2B21634  18.048   0.768  18.346  0.0129 -0.1255 -0.2874
  902BOLB   C3B21635  18.364   0.560  18.446 -0.1198  0.1076 -0.2698
  902BOLB   C4B21636  18.590   0.421  18.766 -0.3043 -0.0669 -0.4535
  902BOLB   NC221637  17.863  -2.109  18.140  0.4000  0.1535  0.0078
  902BOLB   PO221638  18.208  -1.846  18.160 -0.0252 -0.0874 -0.1255
  902BOLB   GL321639  18.175  -1.496  18.401  0.3258 -0.2622  0.0896
  902BOLB   GL421640  18.556  -1.255  18.430 -0.1863 -0.1179  0.1822
  902BOLB   C1C21641  17.954  -1.324  18.594 -0.1720 -0.0950 -0.1202
  902BOLB   C2C21642  17.796  -0.951  18.898  0.0466  0.0794 -0.0836
  902BOLB   C3C21643  17.620  -0.624  19.025  0.2853  0.4530 -0.2683
  902BOLB   C4C21644  17.405  -0.281  18.885  0.2839 -0.0051 -0.0087
  902BOLB   C1D21645  18.238  -0.967  18.388  0.3465  0.0231  0.1539
  902BOLB   C2D21646  17.860  -0.731  18.493  0.0785  0.2251 -0.0444
  902BOLB   C3D21647  17.566  -0.464  18.277 -0.1491 -0.0779 -0.2023
  902BOLB   C4D21648  17.446  -0.135  17.877 -0.3848  0.2323  0.2368
  903BOLB   NC121649  18.633   8.228   8.537 -0.0840 -0.0929  0.3346
  903BOLB   PO121650  19.007   8.506   8.606 -0.0356 -0.1231  0.3178
  903BOLB   GL121651  18.893   8.666   8.208  0.0391  0.2311 -0.1118
  903BOLB   GL221652  18.976   8.255   8.164  0.1894  0.2077  0.0785
  903BOLB   C1A21653  18.875   8.539   7.758  0.1149 -0.1455  0.2869
  903BOLB   C2A21654  18.804   8.646   7.307  0.0874 -0.0584  0.1921
  903BOLB   C3A21655  18.586   9.022   7.152 -0.1384  0.1666 -0.2384
  903BOLB   C4A21656  18.720   9.361   6.880 -0.4574 -0.1967  0.0424
  903BOLB   C1B21657  19.024   8.071   7.696  0.0448 -0.1320  0.0446
  903BOLB   C2B21658  19.336   8.079   7.379 -0.1634  0.2620 -0.3128
  903BOLB   C3B21659  19.739   8.121   7.348  0.2065 -0.0355  0.7606
  903BOLB   C4B21660  20.132   8.073   7.048  0.1975  0.0469 -0.0740
  903BOLB   NC221661  19.737   8.568   4.744 -0.0293  0.0833  0.0083
  903BOLB   PO221662  19.947   9.022   4.724 -0.4508 -0.2670  0.1076
  903BOLB   GL321663  19.798   9.097   5.095  0.0005 -0.3373  0.2404
  903BOLB   GL421664  19.531   8.827   5.065  0.2059 -0.2084  0.0993
  903BOLB   C1C21665  19.314   9.257   5.214 -0.1401 -0.0071  0.1412
  903BOLB   C2C21666  19.225   9.313   5.620  0.1077 -0.2098  0.0904
  903BOLB   C3C21667  19.107   9.497   6.073 -0.1657 -0.0412  0.0389
  903BOLB   C4C21668  18.872   9.542   6.487 -0.3569  0.3629  0.1744
  903BOLB   C1D21669  19.446   8.880   5.490  0.0358 -0.1710 -0.1399
  903BOLB   C2D21670  19.134   8.865   5.790 -0.0220 -0.3510 -0.0390
  903BOLB   C3D21671  18.799   8.987   6.053 -0.1728 -0.1022  0.0732
  903BOLB   C4D21672  19.014   9.057   6.442  0.2555 -0.2273 -0.0503
  904BOLB   NC121673  21.828  12.908  12.155 -0.0705 -0.1464 -0.1366
  904BOLB   PO121674  22.342  12.944  12.068  0.1836 -0.2212 -0.1887
  904BOLB   GL121675  22.588  12.963  11.596 -0.1481 -0.1049 -0.0801
  904BOLB   GL221676  22.685  13.185  11.569 -0.1376 -0.2231 -0.3775
  904BOLB   C1A21677  22.901  13.115  11.174 -0.2574  0.0506  0.0532
  904BOLB   C2A21678  23.330  13.218  10.963 -0.0291 -0.0380 -0.1954
  904BOLB   C3A21679  23.651  13.052  10.713  0.0993  0.1395 -0.0770
  904BOLB   C4A21680  23.941  13.202  10.340  0.2167  0.2098 -0.0893
  904BOLB   C1B21681  23.010  13.397  11.570  0.2312  0.0900  0.0194
  904BOLB   C2B21682  23.121  13.602  11.195  0.2722  0.0769 -0.0212
  904BOLB   C3B21683  23.334  13.646  10.755 -0.2175 -0.0387  0.1340
  904BOLB   C4B21684  23.607  13.558  10.405  0.2576  0.2936 -0.5730
  904BOLB   NC221685  25.763  13.874   8.873 -0.1681  0.0736  0.3650
  904BOLB   PO221686  25.758  14.192   9.098 -0.2473 -0.0599 -0.0743
  904BOLB   GL321687  25.516  13.897   9.523 -0.3064 -0.0141 -0.1425
  904BOLB   GL421688  25.648  13.687   9.716 -0.1358 -0.2421  0.0882
  904BOLB   C1C21689  25.176  13.572   9.630  0.1508 -0.1772 -0.2934
  904BOLB   C2C21690  24.774  13.458   9.459  0.0866 -0.3735 -0.1018
  904BOLB   C3C21691  24.339  13.378   9.524 -0.1522  0.0912 -0.3718
  904BOLB   C4C21692  24.058  13.351   9.865  0.0776 -0.1663  0.0505
  904BOLB   C1D21693  25.405  13.805  10.057 -0.1316  0.0964 -0.0094
  904BOLB   C2D21694  24.973  13.929  10.240 -0.0652  0.0960 -0.2146
  904BOLB   C3D21695  24.500  13.964  10.335  0.2947 -0.2454 -0.1051
  904BOLB   C4D21696  24.065  13.689  10.319 -0.3134  0.4297  0.1664
  905BOLB   NC121697  23.405   6.875  16.914  0.1157  0.1444 -0.2090
  905BOLB   PO121698  23.152   6.843  17.340  0.0753 -0.1315  0.1769
  905BOLB   GL121699  23.657   6.768  17.356 -0.0675  0.2097 -0.1556
  905BOLB   GL221700  23.885   6.867  17.110  0.3014  0.0949  0.2651
  905BOLB   C1A21701  24.016   6.723  17.576 -0.0385 -0.2035 -0.2714
  905BOLB   C2A21702  24.424   6.673  17.701  0.0494  0.0509 -0.1024
  905BOLB   C3A21703  24.755   6.558  17.529 -0.2051 -0.1728 -0.1925
  905BOLB   C4A21704  24.998   6.376  17.666 -0.0941 -0.2042  0.2367
  905BOLB   C1B21705  24.326   6.708  17.126  0.1041 -0.0232 -0.0332
  905BOLB   C2B21706  24.621   6.400  17.077 -0.3601 -0.0917  0.0047
  905BOLB   C3B21707  25.049   6.267  17.048 -0.2201 -0.1573  0.4161
  905BOLB   C4B21708  25.436   6.001  17.167  0.0731 -0.0592 -0.1395
  905BOLB   NC221709  26.959   4.942  18.002  0.4533  0.1601  0.0355
  905BOLB   PO221710  26.883   4.926  18.391 -0.0308 -0.1660  0.2724
  905BOLB   GL321711  26.506   5.046  18.247  0.0072 -0.0514 -0.2216
  905BOLB   GL421712  26.599   5.408  18.355 -0.2306  0.1155  0.2028
  905BOLB   C1C21713  26.131   5.281  17.968 -0.0732  0.2521  0.0854
  905BOLB   C2C21714  25.952   5.610  18.075 -0.0558 -0.2027  0.1236
  905BOLB   C3C21715  25.660   5.905  17.904  0.0110  0.2409 -0.0648
  905BOLB   C4C21716  25.300   6.053  17.668  0.1932 -0.3997 -0.1779
  905BOLB   C1D21717  26.283   5.539  18.468  0.3317 -0.0703  0.3381
  905BOLB   C2D21718  26.043   6.058  18.323  0.4399  0.1523  0.1616
  905BOLB   C3D21719  25.621   6.185  18.386  0.1259 -0.0494 -0.2621
  905BOLB   C4D21720  25.420   6.360  18.115  0.1105 -0.2973 -0.2315
  906BOLB   NC121721  11.818  16.469  19.492  0.0181 -0.1088  0.3220
  906BOLB   PO121722  11.743  16.061  19.518  0.2050  0.3546  0.0801
  906BOLB   GL121723  11.456  16.263  19.857  0.2279 -0.0905  0.2070
  906BOLB   GL221724  11.113  16.332  19.805  0.1289 -0.2131  0.1187
  906BOLB   C1A21725  11.249  16.451  20.247 -0.4560  0.1308 -0.2737
  906BOLB   C2A21726  11.063  16.678  20.508 -0.2557  0.5206  0.0070
  906BOLB   C3A21727  10.702  16.835  20.811  0.1212  0.1936 -0.1216
  906BOLB   C4A21728  10.295  16.848  20.900  0.1709  0.4301 -0.3518
  906BOLB   C1B21729  11.075  16.765  19.929  0.0707  0.0689 -0.0239
  906BOLB   C2B21730  10.889  17.056  20.154  0.0475 -0.2464  0.2335
  906BOLB   C3B21731  10.545  17.179  20.512 -0.0112 -0.0650 -0.0443
  906BOLB   C4B21732  10.267  17.486  20.589 -0.0781 -0.2054 -0.1620
  906BOLB   NC221733   8.461  18.229  21.786  0.1283 -0.0631 -0.1937
  906BOLB   PO221734   8.828  18.331  21.833 -0.0434  0.0646  0.1037
  906BOLB   GL321735   8.840  18.364  21.408  0.0638 -0.0215  0.1991
  906BOLB   GL421736   8.664  18.393  21.238  0.0795  0.3796 -0.1453
  906BOLB   C1C21737   9.178  18.052  21.307  0.2192 -0.0961 -0.0073
  906BOLB   C2C21738   9.255  17.686  21.193 -0.1825  0.1042 -0.0206
  906BOLB   C3C21739   9.607  17.414  21.090  0.0326  0.0480  0.0703
  906BOLB   C4C21740   9.977  17.147  20.892 -0.1571 -0.0759 -0.0126
  906BOLB   C1D21741   8.843  18.127  20.964 -0.0536 -0.3576  0.2407
  906BOLB   C2D21742   8.878  17.686  20.846 -0.1120  0.1390 -0.0088
  906BOLB   C3D21743   9.082  17.344  20.827 -0.2370  0.1104 -0.0692
  906BOLB   C4D21744   9.166  16.939  20.610 -0.0148  0.2267 -0.2657
  907BOLB   NC121745  17.839   5.389  20.718  0.3228  0.0563 -0.0974
  907BOLB   PO121746  18.042   5.103  21.055  0.1166 -0.3686  0.6566
  907BOLB   GL121747  18.321   4.878  21.284  0.0448 -0.0935 -0.2364
  907BOLB   GL221748  18.699   4.845  21.167  0.0506  0.1331  0.2056
  907BOLB   C1A21749  18.349   4.453  21.543 -0.0543 -0.1357  0.2122
  907BOLB   C2A21750  18.406   4.036  21.855 -0.0219 -0.0293  0.2630
  907BOLB   C3A21751  18.612   3.773  22.008 -0.2166 -0.1344  0.0180
  907BOLB   C4A21752  18.888   3.562  22.207  0.2995 -0.4495  0.1568
  907BOLB   C1B21753  18.778   4.387  21.341 -0.2604 -0.1258  0.2567
  907BOLB   C2B21754  18.996   4.078  21.609  0.0409  0.0640  0.3916
  907BOLB   C3B21755  19.098   3.746  21.804  0.0449  0.0737  0.2428
  907BOLB   C4B21756  19.405   3.525  22.152 -0.3543  0.0426  0.1169
  907BOLB   NC221757  19.364   1.267  23.720  0.1480 -0.2119  0.4255
  907BOLB   PO221758  19.597   1.424  23.311 -0.2005  0.0749 -0.4083
  907BOLB   GL321759  19.286   1.668  23.060 -0.2764 -0.0085 -0.3375
  907BOLB   GL421760  19.276   1.408  22.871 -0.1463 -0.2360 -0.2874
  907BOLB   C1C21761  18.999   1.912  22.801 -0.1465  0.0322  0.1941
  907BOLB   C2C21762  18.971   2.469  22.711 -0.1273 -0.2090  0.0353
  907BOLB   C3C21763  18.921   2.820  22.544  0.0349 -0.5064  0.0124
  907BOLB   C4C21764  19.054   3.256  22.390  0.3849 -0.0006 -0.1827
  907BOLB   C1D21765  18.975   1.405  22.568 -0.1747 -0.0235  0.0118
  907BOLB   C2D21766  18.791   1.753  22.390  0.1130  0.0217 -0.4058
  907BOLB   C3D21767  18.931   2.146  22.369  0.1499  0.1373 -0.0624
  907BOLB   C4D21768  19.031   2.495  22.195 -0.2952 -0.3158  0.1889
  908BOLB   NC121769  12.745  14.522  21.828  0.2993 -0.3408  0.2698
  908BOLB   PO121770  12.970  14.193  21.963 -0.2753 -0.2859 -0.2406
  908BOLB   GL121771  12.786  14.195  22.349  0.2317  0.0272 -0.3314
  908BOLB   GL221772  12.946  14.424  22.463 -0.1394 -0.1226  0.0212
  908BOLB   C1A21773  12.370  14.238  22.596  0.1214  0.0606  0.0589
  908BOLB   C2A21774  11.962  14.109  22.640  0.2476 -0.1745  0.0207
  908BOLB   C3A21775  11.783  14.433  22.909 -0.3734  0.0163 -0.2341
  908BOLB   C4A21776  11.567  14.433  23.279  0.0683 -0.1922 -0.0746
  908BOLB   C1B21777  13.155  14.742  22.686  0.0303  0.1877 -0.0067
  908BOLB   C2B21778  12.896  14.887  23.061 -0.1090 -0.4684  0.2400
  908BOLB   C3B21779  12.833  15.019  23.419  0.0898 -0.1746  0.1083
  908BOLB   C4B21780  12.784  14.878  23.849 -0.1185  0.0319  0.4769
  908BOLB   NC221781  10.415  15.314  25.997 -0.1986 -0.1694  0.1356
  908BOLB   PO221782  10.625  15.007  25.678  0.1623 -0.1129 -0.2786
  908BOLB   GL321783  10.818  14.957  25.224 -0.1251  0.2638  0.1573
  908BOLB   GL421784  11.288  14.897  25.183  0.2414  0.1276  0.0987
  908BOLB   C1C21785  10.909  14.613  24.907 -0.1203  0.1186  0.0127
  908BOLB   C2C21786  11.168  14.576  24.550  0.0855  0.0452 -0.1812
  908BOLB   C3C21787  11.308  14.607  24.051 -0.0330  0.2612 -0.2498
  908BOLB   C4C21788  11.473  14.519  23.717  0.1618  0.2832  0.5535
  908BOLB   C1D21789  11.523  14.696  24.870  0.0103  0.3400  0.1381
  908BOLB   C2D21790  11.591  14.844  24.476  0.1839  0.1045  0.2604
  908BOLB   C3D21791  11.756  14.864  24.103 -0.1170  0.2972  0.1631
  908BOLB   C4D21792  11.920  14.647  23.648  0.0317  0.0638  0.1618
  909BOLB   NC121793  18.369  12.617  27.573 -0.1382  0.3521 -0.0068
  909BOLB   PO121794  17.982  12.515  27.767  0.2719 -0.0337  0.1392
  909BOLB   GL121795  17.857  12.673  27.453 -0.1773 -0.3058  0.0922
  909BOLB   GL221796  17.891  12.948  27.257  0.4472 -0.0398  0.0394
  909BOLB   C1A21797  17.717  12.545  27.126 -0.1778  0.0013  0.2049
  909BOLB   C2A21798  17.957  12.274  26.886  0.1040 -0.1061 -0.1179
  909BOLB   C3A21799  18.049  12.103  26.409 -0.0415  0.0571 -0.0496
  909BOLB   C4A21800  18.233  12.041  26.055  0.2496 -0.3695  0.0149
  909BOLB   C1B21801  18.053  13.042  26.888 -0.0227  0.0199 -0.1949
  909BOLB   C2B21802  17.990  13.240  26.604 -0.0270 -0.3336 -0.4446
  909BOLB   C3B21803  17.796  13.144  26.236 -0.1178 -0.2148  0.4279
  909BOLB   C4B21804  17.564  13.242  25.862  0.0229  0.1014  0.1336
  909BOLB   NC221805  19.541  13.201  27.845 -0.0213 -0.0271  0.1328
  909BOLB   PO221806  19.366  12.749  27.683 -0.1861 -0.0578 -0.1995
  909BOLB   GL321807  19.383  12.727  27.134  0.1261 -0.1678 -0.1560
  909BOLB   GL421808  19.248  12.941  26.896  0.0802  0.1718  0.1450
  909BOLB   C1C21809  19.416  12.506  26.776  0.2840 -0.3024 -0.3302
  909BOLB   C2C21810  19.290  12.287  26.381  0.1668  0.2368  0.2390
  909BOLB   C3C21811  18.983  12.340  25.947  0.1761  0.0024 -0.1343
  909BOLB   C4C21812  18.605  12.275  25.866 -0.0559 -0.0966 -0.1020
  909BOLB   C1D21813  19.290  12.985  26.435 -0.0646 -0.0175  0.1133
  909BOLB   C2D21814  19.310  12.663  26.045 -0.2348  0.3508  0.1995
  909BOLB   C3D21815  19.502  12.253  25.932  0.0733 -0.0956 -0.0267
  909BOLB   C4D21816  19.958  12.075  26.080  0.1260 -0.1175 -0.0559
  910BOLB   NC121817   7.269  12.489   3.539  0.0299 -0.0783  0.0244
  910BOLB   PO121818   6.995  12.766   3.849 -0.0158 -0.2424  0.2122
  910BOLB   GL121819   7.348  12.652   4.116 -0.0793  0.1019 -0.2481
  910BOLB   GL221820   7.217  12.521   4.492 -0.0040  0.0832 -0.0409
  910BOLB   C1A21821   7.629  12.277   4.276 -0.0596  0.0675  0.2947
  910BOLB   C2A21822   7.662  12.108   4.665  0.1456  0.3361  0.0420
  910BOLB   C3A21823   7.583  11.928   5.037  0.0401  0.2690 -0.0734
  910BOLB   C4A21824   7.703  12.167   5.443 -0.0968 -0.0423  0.1322
  910BOLB   C1B21825   7.119  12.130   4.762 -0.1127  0.2831 -0.1302
  910BOLB   C2B21826   7.147  11.622   4.812 -0.2493 -0.0508 -0.3305
  910BOLB   C3B21827   7.274  11.348   5.068 -0.2450 -0.1595  0.3058
  910BOLB   C4B21828   7.565  11.103   5.348  0.0654 -0.1704  0.4964
  910BOLB   NC221829   6.696  14.452   5.289 -0.0039  0.3285  0.2766
  910BOLB   PO221830   6.969  14.389   5.644  0.0575  0.0737 -0.0552
  910BOLB   GL321831   7.199  14.026   5.789  0.1781  0.0558  0.0906
  910BOLB   GL421832   7.012  13.935   5.894 -0.0776 -0.0170  0.0239
  910BOLB   C1C21833   7.510  13.685   5.867 -0.0656  0.0376  0.1731
  910BOLB   C2C21834   7.745  13.318   5.789  0.2997 -0.0661  0.1010
  910BOLB   C3C21835   7.756  12.890   5.855  0.1145  0.2977  0.0040
  910BOLB   C4C21836   7.686  12.453   5.716 -0.2397 -0.2937  0.0063
  910BOLB   C1D21837   7.073  13.658   6.192 -0.1301  0.3387  0.0346
  910BOLB   C2D21838   7.429  13.339   6.202  0.0996 -0.0612  0.0273
  910BOLB   C3D21839   7.665  12.993   6.327  0.1838 -0.0801  0.0847
  910BOLB   C4D21840   7.776  12.499   6.294  0.2269  0.0039  0.1313
  911BOLB   NC121841  15.812   2.401  18.189  0.0011 -0.1587 -0.0404
  911BOLB   PO121842  16.027   2.085  18.307  0.0160 -0.0638  0.0704
  911BOLB   GL121843  15.991   1.762  18.681  0.2418 -0.2223  0.1005
  911BOLB   GL221844  15.726   1.671  18.758 -0.0377 -0.1664 -0.3197
  911BOLB   C1A21845  16.297   1.442  18.951 -0.1752 -0.2856  0.2848
  911BOLB   C2A21846  16.635   1.192  19.112  0.0831  0.3300  0.2978
  911BOLB   C3A21847  16.864   0.872  19.403  0.0319 -0.0253  0.0898
  911BOLB   C4A21848  16.949   0.702  19.715  0.1356  0.0057 -0.0881
  911BOLB   C1B21849  15.705   1.207  18.944  0.0782  0.3186 -0.0633
  911BOLB   C2B21850  16.071   0.932  18.864  0.1850 -0.0338 -0.0337
  911BOLB   C3B21851  16.300   0.738  19.200 -0.0942  0.1068 -0.0604
  911BOLB   C4B21852  16.467   0.464  19.008 -0.1387 -0.0019 -0.1223
  911BOLB   NC221853  16.885  -1.011  21.224 -0.2439 -0.2680 -0.3171
  911BOLB   PO221854  17.254  -1.065  21.062  0.2092  0.0125 -0.0552
  911BOLB   GL321855  17.043  -0.874  20.766  0.2129  0.0810 -0.0224
  911BOLB   GL421856  16.915  -0.669  20.883  0.2229  0.1699  0.0624
  911BOLB   C1C21857  17.078  -0.657  20.348  0.0143  0.0210  0.0140
  911BOLB   C2C21858  17.076  -0.415  20.032 -0.0292 -0.0609  0.3754
  911BOLB   C3C21859  16.858  -0.024  19.989 -0.2421 -0.2227 -0.1068
  911BOLB   C4C21860  17.034   0.361  20.017 -0.2262  0.4214 -0.0251
  911BOLB   C1D21861  16.643  -0.417  20.968 -0.4236 -0.1141  0.3672
  911BOLB   C2D21862  16.435  -0.088  20.761  0.0333 -0.2537 -0.2581
  911BOLB   C3D21863  16.398   0.205  20.507 -0.1822  0.1026 -0.0286
  911BOLB   C4D21864  16.564   0.520  20.324 -0.2070 -0.3204 -0.0233
  912BOLB   NC121865   6.371  35.344  17.750 -0.0654  0.1713  0.2736
  912BOLB   PO121866   6.462  35.562  18.022 -0.0976  0.0743  0.1350
  912BOLB   GL121867   6.457  35.867  17.693  0.0879  0.1487 -0.1176
  912BOLB   GL221868   6.636  35.677  17.420  0.2695  0.2833 -0.1538
  912BOLB   C1A21869   6.633  36.218  17.514 -0.0729  0.3062 -0.1359
  912BOLB   C2A21870   6.730  36.541  17.310 -0.0242 -0.0664  0.3521
  912BOLB   C3A21871   7.142  36.635  16.979 -0.0968  0.0476 -0.3689
  912BOLB   C4A21872   7.610  36.569  16.918  0.0304 -0.0723 -0.1456
  912BOLB   C1B21873   7.009  35.457  17.238  0.1768 -0.3199 -0.0282
  912BOLB   C2B21874   7.117  35.544  16.839 -0.3228 -0.1329 -0.2091
  912BOLB   C3B21875   7.227  35.901  16.616  0.0107 -0.1613 -0.0492
  912BOLB   C4B21876   7.226  36.307  16.590 -0.1546 -0.1764 -0.2535
  912BOLB   NC221877   9.263  36.105  18.962 -0.2208 -0.0126 -0.0796
  912BOLB   PO221878   9.088  35.905  18.632 -0.0579 -0.1102  0.0539
  912BOLB   GL321879   9.060  36.009  18.304  0.2866  0.2111 -0.0306
  912BOLB   GL421880   9.150  35.887  17.972  0.1959  0.4784 -0.2627
  912BOLB   C1C21881   9.046  36.409  18.054 -0.0962  0.1355 -0.2007
  912BOLB   C2C21882   8.867  36.619  17.653  0.2449  0.2032 -0.0371
  912BOLB   C3C21883   8.400  36.655  17.451  0.0843 -0.0846 -0.0021
  912BOLB   C4C21884   8.035  36.642  17.178  0.3179 -0.0361 -0.0058
  912BOLB   C1D21885   8.824  35.794  17.721  0.0612  0.1869 -0.0104
  912BOLB   C2D21886   8.726  35.772  17.328 -0.0824  0.3316 -0.2629
  912BOLB   C3D21887   8.732  35.928  16.966  0.2436  0.0994 -0.0715
  912BOLB   C4D21888   8.773  36.206  16.633 -0.0893  0.0206 -0.1417
  913BOLB   NC121889  23.416   8.882  17.157 -0.0164 -0.1087  0.0879
  913BOLB   PO121890  23.567   8.591  16.859 -0.2147  0.2432  0.2927
  913BOLB   GL121891  24.035   8.754  17.045  0.1376 -0.0128  0.2324
  913BOLB   GL221892  24.227   9.038  17.003 -0.1388 -0.2290 -0.0519
  913BOLB   C1A21893  24.341   8.690  17.311  0.0140 -0.1933  0.2466
  913BOLB   C2A21894  24.809   8.648  17.287 -0.0846  0.2373 -0.0414
  913BOLB   C3A21895  25.245   8.607  17.236 -0.0730  0.0168  0.2069
  913BOLB   C4A21896  25.591   8.688  16.959  0.1502  0.0805 -0.0947
  913BOLB   C1B21897  24.714   9.015  17.000 -0.0684  0.1083  0.0616
  913BOLB   C2B21898  25.132   8.974  16.866  0.0601 -0.1964  0.0297
  913BOLB   C3B21899  25.455   9.008  16.585 -0.0994 -0.0929 -0.0467
  913BOLB   C4B21900  25.452   9.014  16.155  0.3408 -0.2036 -0.1692
  913BOLB   NC221901  28.125   8.315  16.743 -0.0658  0.2577 -0.3457
  913BOLB   PO221902  28.018   8.432  17.122  0.2912 -0.4873  0.0874
  913BOLB   GL321903  27.586   8.404  16.997  0.0028 -0.5052  0.1685
  913BOLB   GL421904  27.440   8.502  17.272  0.1219  0.3007  0.2150
  913BOLB   C1C21905  27.133   8.628  16.853 -0.0390  0.0368 -0.0679
  913BOLB   C2C21906  26.678   8.520  16.849  0.1201 -0.3616 -0.0229
  913BOLB   C3C21907  26.257   8.396  16.770  0.2018 -0.2610  0.2478
  913BOLB   C4C21908  25.960   8.684  16.819 -0.0175  0.0085  0.0153
  913BOLB   C1D21909  26.967   8.336  17.238 -0.0214 -0.0612  0.1131
  913BOLB   C2D21910  26.502   8.124  17.189  0.3417 -0.0257  0.1291
  913BOLB   C3D21911  26.003   8.234  17.226 -0.2662  0.1823 -0.0466
  913BOLB   C4D21912  25.595   8.214  17.494 -0.1334 -0.0310 -0.3593
  914BOLB   NC121913   3.583  13.521   8.315 -0.1632  0.0167  0.4455
  914BOLB   PO121914   3.751  13.316   7.899  0.2157  0.1925 -0.1224
  914BOLB   GL121915   4.110  13.257   8.182 -0.2374 -0.2615 -0.0279
  914BOLB   GL221916   4.288  13.130   7.913 -0.0596 -0.0624  0.3295
  914BOLB   C1A21917   4.302  13.083   8.546 -0.1950 -0.1454 -0.0467
  914BOLB   C2A21918   4.295  13.148   9.028  0.0044 -0.0283  0.2226
  914BOLB   C3A21919   4.600  13.173   9.272  0.1238 -0.1086 -0.1672
  914BOLB   C4A21920   5.115  13.029   9.446 -0.0805  0.1783  0.0504
  914BOLB   C1B21921   4.362  12.716   8.177  0.0942  0.1076 -0.2813
  914BOLB   C2B21922   4.325  12.429   8.517  0.0712 -0.2435 -0.1993
  914BOLB   C3B21923   4.028  12.133   8.638  0.1357 -0.4016  0.0257
  914BOLB   C4B21924   3.949  11.787   8.714  0.3838 -0.0609 -0.0624
  914BOLB   NC221925   4.826  14.389  10.559  0.1500 -0.4006 -0.0423
  914BOLB   PO221926   5.166  14.134  10.387 -0.3658 -0.2414 -0.0817
  914BOLB   GL321927   5.401  13.864  10.236 -0.0180  0.2094 -0.2778
  914BOLB   GL421928   5.531  13.959   9.966  0.0572  0.0010 -0.1254
  914BOLB   C1C21929   5.595  13.475  10.168 -0.0672  0.0690  0.4204
  914BOLB   C2C21930   5.773  13.274   9.752 -0.3216  0.0139  0.0482
  914BOLB   C3C21931   5.753  12.821   9.658 -0.2277  0.0108  0.1243
  914BOLB   C4C21932   5.442  12.745   9.732  0.4990 -0.0498 -0.1502
  914BOLB   C1D21933   5.906  13.843   9.834 -0.2427 -0.3086  0.0179
  914BOLB   C2D21934   6.454  13.662   9.966 -0.1255  0.3080  0.2907
  914BOLB   C3D21935   6.798  13.882  10.065 -0.0047 -0.0678  0.3515
  914BOLB   C4D21936   7.132  14.021  10.382  0.0948  0.3676  0.0228
  915BOLB   NC121937   9.036   3.814   3.161  0.0127 -0.3040 -0.3477
  915BOLB   PO121938   8.708   3.650   3.513  0.2710 -0.0968 -0.0159
  915BOLB   GL121939   9.074   3.650   3.808 -0.0239  0.2688 -0.0414
  915BOLB   GL221940   9.090   3.863   4.016 -0.3142 -0.0246  0.1634
  915BOLB   C1A21941   9.474   3.712   3.739 -0.1219  0.0022  0.0865
  915BOLB   C2A21942   9.893   3.831   3.572 -0.0625  0.0982  0.1434
  915BOLB   C3A21943  10.263   4.106   3.482  0.2152  0.2413  0.2167
  915BOLB   C4A21944  10.371   4.500   3.236 -0.1181 -0.2172  0.0180
  915BOLB   C1B21945   9.508   3.849   4.263 -0.0845 -0.1645  0.1532
  915BOLB   C2B21946  10.057   3.804   4.097  0.2020 -0.2406 -0.0028
  915BOLB   C3B21947  10.322   3.810   3.830 -0.0460 -0.2699  0.3105
  915BOLB   C4B21948  10.699   3.696   3.445 -0.0761  0.1268  0.1929
  915BOLB   NC221949   8.728   5.224   1.891 -0.0894 -0.1408  0.1726
  915BOLB   PO221950   8.952   5.496   1.860 -0.1160  0.2294  0.1350
  915BOLB   GL321951   9.221   5.702   2.183  0.0105 -0.2266 -0.1081
  915BOLB   GL421952   9.132   6.081   2.321  0.2791 -0.1183 -0.1612
  915BOLB   C1C21953   9.429   5.526   2.528  0.3806  0.1637 -0.2672
  915BOLB   C2C21954   9.829   5.328   2.709  0.3238  0.0264 -0.1034
  915BOLB   C3C21955   9.959   4.942   2.852 -0.0823  0.1785 -0.1526
  915BOLB   C4C21956  10.150   4.817   3.100 -0.2114  0.1030  0.0207
  915BOLB   C1D21957   9.353   5.966   2.687  0.1690  0.2392 -0.3824
  915BOLB   C2D21958   9.719   6.282   2.945  0.0141 -0.1609 -0.3079
  915BOLB   C3D21959   9.976   6.259   3.267 -0.2276 -0.3214  0.0403
  915BOLB   C4D21960  10.447   6.404   3.297  0.0675  0.2001  0.0032
  916BOLB   NC121961  19.740   2.835  17.389  0.1059  0.3357 -0.4176
  916BOLB   PO121962  19.640   3.070  17.719 -0.1545  0.0271  0.0563
  916BOLB   GL121963  19.991   2.776  17.879  0.1885  0.0254 -0.2662
  916BOLB   GL221964  19.901   2.831  18.214  0.1645 -0.1028 -0.0661
  916BOLB   C1A21965  20.204   2.381  17.999  0.0392  0.0903  0.2053
  916BOLB   C2A21966  20.195   1.977  18.093 -0.3105  0.2388  0.0659
  916BOLB   C3A21967  20.101   1.751  18.405  0.1987  0.2535  0.0014
  916BOLB   C4A21968  20.185   1.559  18.819 -0.1961  0.1600  0.2134
  916BOLB   C1B21969  20.306   2.796  18.390  0.1271 -0.0305 -0.2898
  916BOLB   C2B21970  20.345   2.664  18.675 -0.0167  0.1171  0.3098
  916BOLB   C3B21971  20.574   2.352  18.902 -0.0441 -0.0067  0.1717
  916BOLB   C4B21972  20.901   2.200  18.662 -0.1359 -0.0155 -0.1363
  916BOLB   NC221973  21.625   0.748  20.864  0.0034 -0.0483 -0.2744
  916BOLB   PO221974  21.918   0.742  20.675  0.2297 -0.1487 -0.1481
  916BOLB   GL321975  21.799   0.997  20.305  0.0760 -0.1225  0.0477
  916BOLB   GL421976  22.016   1.285  20.281  0.3927 -0.2630 -0.2980
  916BOLB   C1C21977  21.545   1.251  20.010  0.0033  0.1207 -0.2840
  916BOLB   C2C21978  21.245   1.249  19.674 -0.2778 -0.3507 -0.0580
  916BOLB   C3C21979  20.870   1.361  19.380 -0.1158 -0.1466 -0.0463
  916BOLB   C4C21980  20.366   1.416  19.219 -0.1530 -0.0735 -0.2557
  916BOLB   C1D21981  21.687   1.608  20.434  0.3001 -0.0494 -0.3100
  916BOLB   C2D21982  21.478   1.936  20.220  0.0649 -0.1897  0.2517
  916BOLB   C3D21983  21.125   2.060  20.302  0.1093 -0.4313  0.0546
  916BOLB   C4D21984  20.852   2.046  19.903 -0.0376  0.0944 -0.0312
  917BOLB   NC121985   9.915  35.983   5.919 -0.0054  0.0909 -0.1957
  917BOLB   PO121986   9.885  35.653   6.262  0.0642 -0.1348 -0.0249
  917BOLB   GL121987  10.215  35.903   6.542 -0.0037  0.3094 -0.1251
  917BOLB   GL221988  10.335  36.058   6.224 -0.2235 -0.0979 -0.0566
  917BOLB   C1A21989  10.356  36.132   6.979  0.0318 -0.0024  0.1393
  917BOLB   C2A21990  10.511  36.572   7.071  0.0195 -0.1432 -0.0056
  917BOLB   C3A21991  10.303  36.930   7.147 -0.0579 -0.0018  0.1298
  917BOLB   C4A21992  10.022  37.199   6.911  0.2802 -0.2376  0.2161
  917BOLB   C1B21993  10.095  36.523   6.134  0.3076 -0.1230  0.2049
  917BOLB   C2B21994  10.286  36.897   6.128 -0.2094 -0.0591 -0.1207
  917BOLB   C3B21995  10.310  37.314   6.401 -0.1711 -0.0458  0.1541
  917BOLB   C4B21996  10.021  37.593   6.578 -0.1013  0.1080 -0.0085
  917BOLB   NC221997   9.732  35.185   7.307 -0.0387 -0.2036  0.1007
  917BOLB   PO221998   9.646  35.433   6.977 -0.0013  0.1338  0.0280
  917BOLB   GL321999   9.771  35.816   6.694  0.1614 -0.2425 -0.2819
  917BOLB   GL422000   9.462  36.019   6.800 -0.2204 -0.3000  0.1437
  917BOLB   C1C22001   9.921  36.280   6.617 -0.0399  0.1102 -0.0184
  917BOLB   C2C22002   9.629  36.589   6.473  0.2259 -0.0041 -0.1680
  917BOLB   C3C22003   9.609  37.026   6.417 -0.0014  0.0436 -0.1162
  917BOLB   C4C22004   9.637  37.273   6.736 -0.3254  0.3628  0.0380
  917BOLB   C1D22005   9.365  36.397   7.084 -0.1061  0.4775  0.0306
  917BOLB   C2D22006   9.336  36.672   7.314  0.1571  0.0520 -0.0635
  917BOLB   C3D22007   9.202  36.936   7.604 -0.2614 -0.0015  0.1039
  917BOLB   C4D22008   8.854  37.163   7.646 -0.2280 -0.1685  0.0542
  918BOLB   NC122009  20.615   4.008  17.512  0.0809  0.2236  0.1938
  918BOLB   PO122010  20.625   3.505  17.384 -0.0226  0.2665  0.3223
  918BOLB   GL122011  20.839   3.173  17.581 -0.0843 -0.5859 -0.0378
  918BOLB   GL222012  21.210   3.140  17.560  0.0263 -0.0236  0.0608
  918BOLB   C1A22013  21.023   2.752  17.740 -0.0566  0.0836  0.0071
  918BOLB   C2A22014  21.040   2.424  18.044  0.0041  0.1837  0.1957
  918BOLB   C3A22015  21.093   2.066  18.251 -0.1810 -0.1965 -0.3471
  918BOLB   C4A22016  21.041   1.724  18.560  0.3080  0.1824 -0.3831
  918BOLB   C1B22017  21.582   3.073  17.649  0.3657 -0.1020 -0.2447
  918BOLB   C2B22018  21.862   2.967  17.978 -0.1414  0.5479 -0.1917
  918BOLB   C3B22019  21.998   2.653  18.141  0.1229  0.0637  0.2085
  918BOLB   C4B22020  22.390   2.397  18.025  0.1606  0.1185  0.1086
  918BOLB   NC222021  21.942   0.171  20.867  0.0868  0.1866  0.0275
  918BOLB   PO222022  21.626   0.343  20.584 -0.1172  0.1779  0.1911
  918BOLB   GL322023  21.410   0.612  20.383  0.0647 -0.1736  0.1805
  918BOLB   GL422024  21.101   0.444  20.244 -0.1778 -0.4735 -0.0104
  918BOLB   C1C22025  21.398   0.675  19.923  0.1910 -0.0398 -0.0785
  918BOLB   C2C22026  21.345   0.696  19.481  0.2635  0.1339  0.2872
  918BOLB   C3C22027  21.134   1.017  19.147  0.0838 -0.1600 -0.0175
  918BOLB   C4C22028  21.164   1.324  18.845  0.3119 -0.0421 -0.3819
  918BOLB   C1D22029  21.035   0.914  20.075  0.1703  0.0649 -0.2830
  918BOLB   C2D22030  20.638   1.172  19.841  0.1132  0.1075 -0.2576
  918BOLB   C3D22031  20.652   1.602  19.782  0.4476  0.2641  0.1698
  918BOLB   C4D22032  20.675   1.845  19.431  0.0137  0.0048 -0.0061
  919BOLB   NC122033  12.276   1.870   2.870  0.1483  0.1118 -0.3044
  919BOLB   PO122034  11.819   2.179   2.863 -0.0536 -0.2807 -0.1350
  919BOLB   GL122035  11.630   2.536   3.205  0.0543  0.1732  0.3851
  919BOLB   GL222036  11.391   2.326   3.213 -0.0399  0.1537 -0.4625
  919BOLB   C1A22037  12.011   2.647   3.295  0.0461  0.0442 -0.5868
  919BOLB   C2A22038  12.186   2.922   3.597  0.0769  0.1126  0.0173
  919BOLB   C3A22039  12.267   3.295   3.827  0.0384  0.3120  0.0046
  919BOLB   C4A22040  12.138   3.776   3.930 -0.0741  0.0134  0.0003
  919BOLB   C1B22041  11.421   2.157   3.738 -0.0474 -0.4310 -0.0403
  919BOLB   C2B22042  11.349   2.007   4.071 -0.0437 -0.0818 -0.0061
  919BOLB   C3B22043  11.210   2.081   4.530  0.0514  0.1417 -0.0335
  919BOLB   C4B22044  11.231   2.277   4.885 -0.0004  0.0729 -0.1898
  919BOLB   NC222045  10.485   3.320   2.819 -0.0277  0.1830 -0.3967
  919BOLB   PO222046  10.702   3.554   2.399  0.0420 -0.1606 -0.0391
  919BOLB   GL322047  10.857   3.641   2.789 -0.0547 -0.1616 -0.3585
  919BOLB   GL422048  10.619   3.801   2.933  0.0833  0.1453 -0.1828
  919BOLB   C1C22049  11.073   3.755   3.081 -0.0622 -0.3187 -0.0741
  919BOLB   C2C22050  11.199   4.018   3.332  0.1308 -0.1128 -0.3458
  919BOLB   C3C22051  11.531   3.993   3.609  0.0930 -0.0812 -0.1592
  919BOLB   C4C22052  11.843   3.947   3.870 -0.1374  0.1945 -0.4248
  919BOLB   C1D22053  10.812   4.158   3.051 -0.1118  0.0228 -0.0479
  919BOLB   C2D22054  10.851   4.417   3.399  0.1139  0.1292  0.0291
  919BOLB   C3D22055  10.886   4.594   3.797 -0.1900  0.1630  0.0617
  919BOLB   C4D22056  10.693   4.933   4.071  0.0708 -0.2104 -0.1606
  920BOLB   NC122057  27.756   6.553  16.299  0.0215  0.2211 -0.1736
  920BOLB   PO122058  27.585   6.433  16.592 -0.3496  0.0554  0.1780
  920BOLB   GL122059  27.158   6.375  16.497  0.4530  0.2506 -0.1209
  920BOLB   GL222060  27.211   6.515  16.209 -0.2562  0.0864 -0.0883
  920BOLB   C1A22061  26.767   6.309  16.666 -0.4444 -0.0026 -0.0311
  920BOLB   C2A22062  26.369   6.375  16.857 -0.1186  0.1992 -0.0409
  920BOLB   C3A22063  26.018   6.393  17.133 -0.0897 -0.3358 -0.1893
  920BOLB   C4A22064  25.755   6.275  17.454 -0.0377 -0.1786  0.3505
  920BOLB   C1B22065  26.759   6.417  16.158  0.0792 -0.1564 -0.0613
  920BOLB   C2B22066  26.341   6.364  16.361 -0.1251  0.2678 -0.3109
  920BOLB   C3B22067  25.867   6.409  16.498 -0.2597  0.1834 -0.0310
  920BOLB   C4B22068  25.617   6.691  16.372  0.0167  0.0379  0.0520
  920BOLB   NC222069  23.393   6.739  15.998 -0.3812 -0.7249 -0.2273
  920BOLB   PO222070  23.718   6.971  16.424  0.3323  0.0686 -0.2756
  920BOLB   GL322071  24.000   6.872  16.622  0.1067  0.1079  0.1675
  920BOLB   GL422072  24.296   6.720  16.355  0.2126  0.0945 -0.1971
  920BOLB   C1C22073  24.392   7.118  16.804 -0.1551  0.2781 -0.0448
  920BOLB   C2C22074  24.729   7.028  17.047 -0.4412 -0.1421  0.3574
  920BOLB   C3C22075  25.189   6.885  17.198 -0.2912  0.0479 -0.5300
  920BOLB   C4C22076  25.382   6.484  17.427 -0.0619  0.2303 -0.0048
  920BOLB   C1D22077  24.600   6.407  16.386  0.0797 -0.3069 -0.1101
  920BOLB   C2D22078  24.925   6.153  16.587 -0.0746 -0.0054 -0.0428
  920BOLB   C3D22079  25.169   5.922  16.726 -0.2280  0.0137  0.0149
  920BOLB   C4D22080  25.326   5.543  16.918  0.1640 -0.1878  0.0201
  921BOLB   NC122081  18.301   2.511  18.264  0.1160  0.2779  0.0310
  921BOLB   PO122082  17.918   2.413  18.546  0.2186 -0.0350 -0.0065
  921BOLB   GL122083  17.805   2.081  18.796  0.2393  0.1704 -0.3278
  921BOLB   GL222084  17.470   1.820  18.740 -0.0518 -0.1633 -0.3787
  921BOLB   C1A22085  17.945   1.662  18.912  0.2238 -0.2611  0.0998
  921BOLB   C2A22086  17.877   1.395  19.107 -0.0400  0.2992  0.1733
  921BOLB   C3A22087  17.709   1.067  19.316  0.1486  0.0020  0.0844
  921BOLB   C4A22088  17.860   0.812  19.559 -0.0457 -0.0021 -0.0242
  921BOLB   C1B22089  17.390   1.466  19.074 -0.4346  0.2963 -0.1418
  921BOLB   C2B22090  17.280   1.146  19.485 -0.0564 -0.1362  0.0237
  921BOLB   C3B22091  17.419   0.918  19.704 -0.1335 -0.2985  0.1209
  921BOLB   C4B22092  17.457   0.606  20.028 -0.2884 -0.4938  0.1259
  921BOLB   NC222093  18.378  -1.652  20.242 -0.0299  0.2716  0.2134
  921BOLB   PO222094  17.991  -1.560  20.433 -0.2250 -0.1441 -0.2517
  921BOLB   GL322095  18.016  -1.200  20.153  0.1475  0.2845 -0.1437
  921BOLB   GL422096  18.217  -1.015  20.293  0.4727 -0.2223  0.0332
  921BOLB   C1C22097  17.859  -0.867  20.001  0.2891 -0.0084  0.3267
  921BOLB   C2C22098  17.675  -0.386  20.010  0.1457  0.2585  0.3882
  921BOLB   C3C22099  17.760   0.022  19.830  0.0186  0.3254  0.1296
  921BOLB   C4C22100  17.767   0.439  19.696  0.0361  0.2784  0.0096
  921BOLB   C1D22101  18.139  -0.525  20.382 -0.3342  0.0233  0.0345
  921BOLB   C2D22102  17.877  -0.125  20.384 -0.0360  0.0813 -0.1048
  921BOLB   C3D22103  17.821   0.357  20.254 -0.0593 -0.2141 -0.4706
  921BOLB   C4D22104  17.899   0.779  20.158  0.2708 -0.0463 -0.0407
  922BOLB   NC122105  12.735  10.427   1.412 -0.2700 -0.4743  0.0111
  922BOLB   PO122106  12.321  10.652   1.476 -0.1445  0.3596 -0.0775
  922BOLB   GL122107  12.582  10.688   1.862  0.4371 -0.4161 -0.1347
  922BOLB   GL222108  12.590  10.372   2.011 -0.3502  0.0310 -0.0354
  922BOLB   C1A22109  12.777  10.758   2.256 -0.1819  0.0158 -0.0715
  922BOLB   C2A22110  12.828  10.700   2.672  0.0637  0.1448 -0.1620
  922BOLB   C3A22111  12.858  10.230   2.819 -0.1107  0.0874  0.1942
  922BOLB   C4A22112  13.243  10.026   2.934 -0.0915 -0.1575 -0.1196
  922BOLB   C1B22113  12.213  10.285   2.050  0.1771 -0.0552 -0.2040
  922BOLB   C2B22114  11.812  10.226   2.144 -0.0814 -0.2998 -0.3811
  922BOLB   C3B22115  11.410   9.976   2.282 -0.0861  0.0464 -0.4116
  922BOLB   C4B22116  11.321   9.552   2.476  0.3635  0.0182  0.2129
  922BOLB   NC222117  15.399  10.424   1.782  0.0683  0.0412  0.0979
  922BOLB   PO222118  15.066  10.148   2.011  0.0575 -0.1656 -0.0653
  922BOLB   GL322119  14.595   9.961   2.169  0.2834 -0.0307 -0.4993
  922BOLB   GL422120  14.363  10.211   2.176 -0.2955  0.0449  0.0278
  922BOLB   C1C22121  14.320   9.672   2.204 -0.2298  0.0384 -0.0443
  922BOLB   C2C22122  14.147   9.438   2.591  0.0354  0.0416 -0.1041
  922BOLB   C3C22123  13.674   9.471   2.749  0.2249  0.0409  0.2006
  922BOLB   C4C22124  13.352   9.682   2.867 -0.2889 -0.1777  0.2739
  922BOLB   C1D22125  14.499  10.134   2.613 -0.0320 -0.0798 -0.2275
  922BOLB   C2D22126  14.401   9.897   2.993  0.3216  0.3775  0.2709
  922BOLB   C3D22127  14.230   9.443   3.050 -0.2732  0.1347 -0.1214
  922BOLB   C4D22128  14.232   8.990   3.131 -0.0378  0.3892  0.0646
  923BOLB   NC122129   7.619  14.041   4.178  0.2991  0.0483  0.3781
  923BOLB   PO122130   8.031  13.716   4.190  0.3056 -0.2264  0.1104
  923BOLB   GL122131   8.267  13.511   4.499 -0.2885 -0.0824 -0.0766
  923BOLB   GL222132   8.220  13.736   4.788  0.1935  0.0267  0.1276
  923BOLB   C1A22133   8.691  13.564   4.735 -0.0310 -0.1444 -0.4626
  923BOLB   C2A22134   8.831  13.709   5.079  0.3509  0.3289  0.2857
  923BOLB   C3A22135   8.448  13.612   5.413 -0.1803 -0.0245 -0.0071
  923BOLB   C4A22136   8.439  13.371   5.692 -0.1228  0.4126 -0.2449
  923BOLB   C1B22137   8.273  13.371   5.030  0.0673 -0.0419 -0.1011
  923BOLB   C2B22138   8.398  12.998   5.130 -0.0715  0.4033 -0.0468
  923BOLB   C3B22139   8.682  12.722   5.208  0.1395 -0.2230 -0.2104
  923BOLB   C4B22140   9.068  12.566   5.029  0.3348 -0.0165  0.0977
  923BOLB   NC222141   6.686  14.103   4.260 -0.3076  0.1893  0.1186
  923BOLB   PO222142   6.605  13.757   4.686  0.0582  0.1336 -0.3345
  923BOLB   GL322143   6.793  13.557   5.037  0.1489 -0.3210  0.1823
  923BOLB   GL422144   6.572  13.432   5.361 -0.3340  0.2540  0.1046
  923BOLB   C1C22145   7.147  13.291   5.094  0.3469  0.1014  0.2293
  923BOLB   C2C22146   7.374  13.204   5.368 -0.0555 -0.3585  0.1234
  923BOLB   C3C22147   7.858  13.208   5.330  0.1191  0.0624 -0.3495
  923BOLB   C4C22148   8.161  13.155   5.629 -0.3411  0.2019 -0.1282
  923BOLB   C1D22149   6.778  12.915   5.458  0.0013 -0.5498 -0.5259
  923BOLB   C2D22150   7.210  12.792   5.606 -0.0231  0.0326  0.1469
  923BOLB   C3D22151   7.624  12.740   5.330 -0.1145 -0.0705 -0.1372
  923BOLB   C4D22152   7.993  12.672   5.397  0.2668  0.1779  0.1375
  924BOLB   NC122153   5.040  35.487  12.260 -0.3629  0.0629 -0.1351
  924BOLB   PO122154   5.104  35.255  11.833 -0.1862  0.0817  0.1476
  924BOLB   GL122155   5.535  35.295  11.721 -0.0989  0.0585 -0.1302
  924BOLB   GL222156   5.706  35.148  11.873 -0.0370  0.2841  0.2192
  924BOLB   C1A22157   5.986  35.532  11.733 -0.1033  0.1829 -0.0413
  924BOLB   C2A22158   6.388  35.414  11.730  0.0612  0.0525  0.0175
  924BOLB   C3A22159   6.841  35.436  11.594  0.2427 -0.3341  0.0934
  924BOLB   C4A22160   7.198  35.642  11.431 -0.1230 -0.0049  0.3006
  924BOLB   C1B22161   5.666  35.663  12.092  0.0455 -0.0570 -0.1067
  924BOLB   C2B22162   6.061  35.809  12.171  0.4621  0.0011  0.2669
  924BOLB   C3B22163   6.434  35.923  12.087 -0.0465 -0.0647  0.0431
  924BOLB   C4B22164   6.873  35.924  11.861 -0.1905  0.1625 -0.2288
  924BOLB   NC222165   8.064  33.786  10.682  0.0004 -0.4954 -0.1081
  924BOLB   PO222166   7.808  33.936  10.391 -0.1271 -0.0257  0.3010
  924BOLB   GL322167   7.872  34.375  10.346 -0.0296  0.2377  0.0636
  924BOLB   GL422168   8.172  34.510  10.122  0.2548 -0.0889 -0.1407
  924BOLB   C1C22169   8.090  34.695  10.601  0.1739  0.0932 -0.1543
  924BOLB   C2C22170   8.230  35.015  10.868 -0.0606  0.1296  0.6119
  924BOLB   C3C22171   8.012  35.290  11.021  0.2814 -0.0912  0.1270
  924BOLB   C4C22172   7.538  35.448  11.307 -0.1573  0.2061  0.3633
  924BOLB   C1D22173   8.237  34.874   9.815 -0.1178 -0.0156  0.1919
  924BOLB   C2D22174   8.180  35.240   9.549  0.0195  0.0228 -0.0552
  924BOLB   C3D22175   7.847  35.444   9.310  0.0563 -0.1489  0.0537
  924BOLB   C4D22176   7.725  35.439   8.934 -0.1000  0.3258  0.1402
  925BOLB   NC122177   2.079  13.207   8.978 -0.0996 -0.0042 -0.3363
  925BOLB   PO122178   2.511  13.003   9.005 -0.1211  0.0010  0.1548
  925BOLB   GL122179   2.747  12.715   9.135  0.0346 -0.1692 -0.1166
  925BOLB   GL222180   2.646  12.513   9.409  0.1185  0.1476 -0.2638
  925BOLB   C1A22181   3.221  12.814   9.325 -0.1670  0.0269  0.1563
  925BOLB   C2A22182   3.588  12.658   9.384 -0.0649 -0.2050 -0.0614
  925BOLB   C3A22183   3.924  12.414   9.464 -0.1294  0.0422 -0.0695
  925BOLB   C4A22184   4.166  12.282   9.085  0.1547  0.0141  0.0530
  925BOLB   C1B22185   3.061  12.273   9.306  0.3131  0.0308  0.2233
  925BOLB   C2B22186   3.505  12.189   9.564 -0.2058 -0.0214 -0.0939
  925BOLB   C3B22187   3.744  11.830   9.755  0.1284 -0.1042  0.1534
  925BOLB   C4B22188   3.761  11.548   9.723 -0.2854  0.1003  0.0068
  925BOLB   NC222189   3.297  11.692   7.523 -0.1136  0.3061  0.0924
  925BOLB   PO222190   3.085  11.710   7.954  0.0383 -0.2132  0.0678
  925BOLB   GL322191   3.494  11.567   8.041 -0.0632 -0.2008  0.2913
  925BOLB   GL422192   3.737  11.589   7.798  0.3158  0.2431 -0.0585
  925BOLB   C1C22193   3.865  11.517   8.256 -0.0613  0.1303 -0.1479
  925BOLB   C2C22194   4.366  11.655   8.220 -0.0671 -0.2171 -0.0980
  925BOLB   C3C22195   4.457  11.853   8.615 -0.0658 -0.1032 -0.2211
  925BOLB   C4C22196   4.324  11.917   8.963  0.3559 -0.2254  0.3150
  925BOLB   C1D22197   4.032  11.872   7.825 -0.0647  0.1340 -0.2079
  925BOLB   C2D22198   4.478  11.873   7.748  0.2313 -0.3386  0.0506
  925BOLB   C3D22199   4.529  12.042   7.415  0.0821 -0.1237 -0.3590
  925BOLB   C4D22200   4.935  12.324   7.459  0.1849  0.0526 -0.1718
  926BOLB   NC122201   9.959  36.056   5.117 -0.0426  0.0369 -0.1325
  926BOLB   PO122202   9.802  36.163   5.405  0.1425  0.4982 -0.2049
  926BOLB   GL122203   9.747  36.552   5.803  0.1883  0.2108 -0.0321
  926BOLB   GL222204   9.440  36.562   5.928 -0.0758  0.3136  0.2292
  926BOLB   C1A22205   9.835  36.972   5.988 -0.0525 -0.0569 -0.0911
  926BOLB   C2A22206   9.864  37.371   6.075 -0.3433  0.1926  0.0122
  926BOLB   C3A22207   9.817  37.827   6.180  0.0856 -0.0726 -0.1793
  926BOLB   C4A22208   9.699  38.150   6.381  0.1079 -0.0536 -0.1155
  926BOLB   C1B22209   9.384  37.068   5.907 -0.0040  0.0936 -0.1332
  926BOLB   C2B22210   9.387  37.515   6.216 -0.0024  0.0174  0.1530
  926BOLB   C3B22211   9.432  37.772   6.579 -0.0308  0.1818  0.0181
  926BOLB   C4B22212   9.489  38.195   6.830 -0.0489  0.0643 -0.0281
  926BOLB   NC222213   7.942  37.776   5.615  0.1753  0.0330  0.2729
  926BOLB   PO222214   7.813  38.191   5.618  0.0312  0.3640  0.1578
  926BOLB   GL322215   8.151  38.282   5.868 -0.0095 -0.1899  0.2874
  926BOLB   GL422216   8.363  38.016   5.907 -0.0334 -0.1424 -0.0195
  926BOLB   C1C22217   8.338  38.297   6.290 -0.0154 -0.3164  0.2210
  926BOLB   C2C22218   8.751  38.250   6.621  0.2898 -0.1453  0.1050
  926BOLB   C3C22219   9.121  38.555   6.624 -0.0914 -0.0264  0.1618
  926BOLB   C4C22220   9.500  38.582   6.436  0.0871  0.0646  0.0452
  926BOLB   C1D22221   8.810  38.068   6.116  0.1729  0.1631  0.0597
  926BOLB   C2D22222   9.182  37.953   6.178  0.0634  0.1440 -0.1049
  926BOLB   C3D22223   9.464  37.812   5.849  0.2493 -0.1857  0.0047
  926BOLB   C4D22224   9.274  37.528   5.558  0.4342 -0.0499 -0.1577
  927BOLB   NC122225   8.258  12.320  24.056  0.0070 -0.0015 -0.0062
  927BOLB   PO122226   8.464  12.770  24.338  0.3021  0.0266 -0.0540
  927BOLB   GL122227   8.786  12.551  24.141  0.3700 -0.1621 -0.0494
  927BOLB   GL222228   9.021  12.891  24.190  0.2818  0.0105  0.1700
  927BOLB   C1A22229   9.138  12.363  23.905  0.2124  0.3990 -0.2500
  927BOLB   C2A22230   9.298  12.379  23.467 -0.0537  0.0685 -0.0467
  927BOLB   C3A22231   9.402  12.305  23.005 -0.1899  0.1380 -0.2062
  927BOLB   C4A22232   9.385  11.999  22.721 -0.2520  0.1721 -0.0348
  927BOLB   C1B22233   9.417  12.716  24.208 -0.0379 -0.2598 -0.0239
  927BOLB   C2B22234   9.678  12.468  23.898  0.2674  0.0733  0.1025
  927BOLB   C3B22235   9.801  12.427  23.452  0.1829 -0.0348  0.0300
  927BOLB   C4B22236   9.954  12.647  23.107 -0.2805  0.1679  0.0412
  927BOLB   NC222237   7.245  11.966  24.020 -0.2241  0.4493 -0.0025
  927BOLB   PO222238   7.466  11.650  23.774  0.2261  0.3952 -0.1259
  927BOLB   GL322239   7.776  11.822  23.500 -0.1880  0.0002  0.2553
  927BOLB   GL422240   7.781  12.166  23.271 -0.1332 -0.1460 -0.1829
  927BOLB   C1C22241   8.110  11.717  23.256  0.0397  0.3043 -0.1978
  927BOLB   C2C22242   8.322  11.440  22.934 -0.1446  0.3153  0.1780
  927BOLB   C3C22243   8.755  11.339  22.719 -0.2248 -0.0135 -0.0838
  927BOLB   C4C22244   9.037  11.686  22.670 -0.2443 -0.3267  0.0456
  927BOLB   C1D22245   7.940  11.994  22.894 -0.0302 -0.2202  0.3173
  927BOLB   C2D22246   8.031  11.867  22.428 -0.0168  0.1119  0.2542
  927BOLB   C3D22247   8.232  11.768  22.047  0.0787  0.0434  0.0464
  927BOLB   C4D22248   8.134  11.596  21.612  0.1820  0.0225 -0.0535
  928BOLB   NC122249  18.888   6.866   2.544  0.1792 -0.1397  0.2856
  928BOLB   PO122250  18.494   7.155   2.212 -0.0135  0.0170  0.0898
  928BOLB   GL122251  18.317   6.983   2.576  0.0382  0.1297 -0.0813
  928BOLB   GL222252  18.474   6.975   2.857  0.0552 -0.1389  0.2678
  928BOLB   C1A22253  18.014   6.730   2.835 -0.0621  0.0775 -0.0150
  928BOLB   C2A22254  17.896   6.519   3.194  0.1723 -0.1928  0.1683
  928BOLB   C3A22255  17.472   6.545   3.282 -0.5851 -0.0959  0.0600
  928BOLB   C4A22256  17.214   6.755   3.637 -0.1092  0.4031  0.2035
  928BOLB   C1B22257  18.216   6.933   3.319 -0.1039 -0.2094  0.3669
  928BOLB   C2B22258  17.924   6.947   3.674  0.2534 -0.1079 -0.2583
  928BOLB   C3B22259  17.753   6.978   4.142 -0.2676  0.1352  0.2937
  928BOLB   C4B22260  17.812   6.883   4.570 -0.2015  0.0343 -0.0345
  928BOLB   NC222261  18.125   7.138   1.372  0.1080  0.2049 -0.2272
  928BOLB   PO222262  17.685   7.407   1.331 -0.0957 -0.2319 -0.3481
  928BOLB   GL322263  17.419   7.308   1.838 -0.1294  0.2207  0.1453
  928BOLB   GL422264  17.635   7.118   2.022  0.1200 -0.1534  0.1556
  928BOLB   C1C22265  17.247   7.439   2.175  0.0279 -0.2072 -0.0243
  928BOLB   C2C22266  17.073   7.096   2.525  0.0526  0.1358 -0.0072
  928BOLB   C3C22267  17.032   7.256   2.943  0.0592  0.0509  0.0104
  928BOLB   C4C22268  17.126   7.096   3.392 -0.1933  0.2185  0.0958
  928BOLB   C1D22269  17.490   6.821   2.396 -0.1922  0.1310  0.2703
  928BOLB   C2D22270  17.630   6.471   2.647  0.1670  0.0751 -0.2432
  928BOLB   C3D22271  17.603   6.134   2.975 -0.1636 -0.3457  0.0248
  928BOLB   C4D22272  17.232   6.120   3.241  0.0222 -0.2660  0.0783
  929BOLB   NC122273   9.095  32.543  10.585 -0.2158  0.1681 -0.1509
  929BOLB   PO122274   9.066  32.960  10.457 -0.1332 -0.2071  0.0713
  929BOLB   GL122275   9.379  33.376  10.559 -0.1513 -0.0899  0.1031
  929BOLB   GL222276   9.242  33.757  10.431 -0.1538 -0.2584  0.3627
  929BOLB   C1A22277   9.739  33.369  10.781  0.1852 -0.0303  0.2929
  929BOLB   C2A22278   9.899  33.578  11.072  0.2346 -0.2048 -0.2770
  929BOLB   C3A22279  10.169  33.748  11.222  0.0830 -0.1159 -0.2967
  929BOLB   C4A22280  10.671  33.808  11.213 -0.5580 -0.2243 -0.4962
  929BOLB   C1B22281   9.303  33.867  10.871 -0.1585  0.2289  0.0489
  929BOLB   C2B22282   9.458  33.968  11.265  0.2507 -0.1435 -0.3270
  929BOLB   C3B22283   9.715  33.754  11.568  0.2526 -0.0673 -0.0768
  929BOLB   C4B22284  10.010  33.775  11.946 -0.0658 -0.1413  0.0892
  929BOLB   NC222285  11.053  32.095   9.849 -0.0027  0.0407  0.0638
  929BOLB   PO222286  10.789  32.315   9.991 -0.2986  0.1429  0.0939
  929BOLB   GL322287  11.074  32.648   9.929 -0.1898 -0.0443  0.1343
  929BOLB   GL422288  11.302  32.509  10.105  0.2275 -0.4913 -0.0552
  929BOLB   C1C22289  11.093  33.148   9.972 -0.5533  0.0779  0.1304
  929BOLB   C2C22290  11.235  33.599  10.157  0.1868  0.1200 -0.2491
  929BOLB   C3C22291  11.250  33.812  10.576  0.1490 -0.0291 -0.5189
  929BOLB   C4C22292  10.964  33.935  10.930  0.0555 -0.2348 -0.0985
  929BOLB   C1D22293  11.510  32.945  10.163 -0.1053  0.0870 -0.2570
  929BOLB   C2D22294  11.724  33.280  10.437  0.1754  0.1590 -0.2040
  929BOLB   C3D22295  11.782  33.699  10.447  0.4598 -0.0546  0.0758
  929BOLB   C4D22296  11.640  34.084  10.527  0.2782  0.1266 -0.1875
  930BOLB   NC122297  17.689  16.058  21.956 -0.0475 -0.0596  0.2254
  930BOLB   PO122298  18.114  16.037  22.046 -0.0892  0.0243 -0.0436
  930BOLB   GL122299  18.112  16.422  21.835  0.2441  0.0048  0.4818
  930BOLB   GL222300  18.403  16.478  21.860 -0.2772  0.1113 -0.0287
  930BOLB   C1A22301  17.947  16.787  21.880 -0.1780 -0.0385  0.0451
  930BOLB   C2A22302  18.004  17.111  22.099 -0.1190  0.2565 -0.2073
  930BOLB   C3A22303  17.797  17.446  22.215 -0.2696 -0.0496 -0.2489
  930BOLB   C4A22304  17.838  17.891  22.339 -0.0878  0.2493  0.1490
  930BOLB   C1B22305  18.464  16.798  22.098 -0.0942 -0.1611 -0.0251
  930BOLB   C2B22306  18.561  17.091  22.168  0.0952 -0.1434  0.0757
  930BOLB   C3B22307  18.610  17.402  22.456  0.0909 -0.1533  0.2678
  930BOLB   C4B22308  18.919  17.739  22.430 -0.0883 -0.0463 -0.0854
  930BOLB   NC222309  18.587  19.761  23.261  0.1553 -0.0017 -0.0643
  930BOLB   PO222310  18.218  20.116  23.422 -0.2797 -0.0160 -0.0902
  930BOLB   GL322311  18.058  19.771  23.004 -0.1028  0.1740  0.0850
  930BOLB   GL422312  17.599  19.714  23.009 -0.0452  0.1152  0.0275
  930BOLB   C1C22313  18.027  19.416  22.739  0.0935  0.2403  0.2601
  930BOLB   C2C22314  18.169  18.889  22.952 -0.1370 -0.1508  0.5356
  930BOLB   C3C22315  18.015  18.582  22.741 -0.0257 -0.1817 -0.1589
  930BOLB   C4C22316  17.834  18.203  22.594  0.2125 -0.1729 -0.2440
  930BOLB   C1D22317  17.305  19.348  22.892 -0.2050  0.0561 -0.0322
  930BOLB   C2D22318  17.176  19.053  22.490 -0.0232 -0.1967  0.1311
  930BOLB   C3D22319  16.892  18.691  22.237 -0.1006 -0.0462  0.1210
  930BOLB   C4D22320  16.447  18.627  22.318  0.3779 -0.1092 -0.0658
  931BOLB   NC122321  23.687  10.435  25.945 -0.0789 -0.2578 -0.1460
  931BOLB   PO122322  23.830  10.864  25.847 -0.0146 -0.0252  0.2641
  931BOLB   GL122323  23.362  10.816  25.503  0.0452  0.3515 -0.1826
  931BOLB   GL222324  23.491  11.047  25.304 -0.0889 -0.3611  0.3791
  931BOLB   C1A22325  23.164  10.725  25.066  0.0472 -0.1194  0.2878
  931BOLB   C2A22326  23.156  10.770  24.563  0.1063 -0.1388 -0.3603
  931BOLB   C3A22327  23.041  10.899  24.176 -0.0727 -0.0598  0.0910
  931BOLB   C4A22328  23.056  10.638  23.781  0.1452 -0.0840  0.1548
  931BOLB   C1B22329  23.610  10.893  24.866  0.3132 -0.1856  0.0942
  931BOLB   C2B22330  23.462  10.412  24.738 -0.2431  0.2241 -0.0870
  931BOLB   C3B22331  23.566  10.180  24.498  0.0397  0.0450  0.1941
  931BOLB   C4B22332  23.451   9.821  24.600  0.1960 -0.0524  0.2653
  931BOLB   NC222333  24.469   9.275  25.264 -0.1041  0.0256 -0.0208
  931BOLB   PO222334  24.185   9.600  25.166  0.2446  0.0262 -0.1547
  931BOLB   GL322335  24.022   9.361  24.831  0.2308 -0.0145  0.3496
  931BOLB   GL422336  23.693   9.395  24.866  0.1691 -0.2094  0.3314
  931BOLB   C1C22337  23.926   9.472  24.398 -0.0469  0.2554 -0.2871
  931BOLB   C2C22338  23.803   9.849  24.144 -0.2313  0.1632 -0.0596
  931BOLB   C3C22339  23.547  10.141  23.876  0.1734  0.1948  0.1596
  931BOLB   C4C22340  23.305  10.407  23.712  0.5028 -0.3497  0.0092
  931BOLB   C1D22341  23.371   9.272  24.632 -0.0542 -0.1910  0.4092
  931BOLB   C2D22342  23.048   9.257  24.259 -0.0718  0.0139 -0.1198
  931BOLB   C3D22343  22.905   9.199  23.888 -0.2787  0.0052  0.0057
  931BOLB   C4D22344  22.551   9.331  23.560 -0.1732 -0.1095 -0.3067
  932BOLB   NC122345  17.183   1.647  16.701 -0.1337 -0.0687 -0.2333
  932BOLB   PO122346  17.484   1.257  16.905 -0.0882 -0.0939 -0.0054
  932BOLB   GL122347  17.422   0.817  17.110  0.0137 -0.2164 -0.0365
  932BOLB   GL222348  17.130   0.651  16.980  0.1188  0.0338 -0.1660
  932BOLB   C1A22349  17.703   0.592  17.337 -0.4536 -0.0994  0.0283
  932BOLB   C2A22350  17.706   0.452  17.779 -0.1545  0.0964  0.0816
  932BOLB   C3A22351  17.740   0.425  18.251  0.5957  0.4114  0.4149
  932BOLB   C4A22352  17.892   0.428  18.655 -0.3721  0.6339  0.1786
  932BOLB   C1B22353  17.449   0.391  16.954  0.0731 -0.0382  0.1747
  932BOLB   C2B22354  17.698   0.056  17.122 -0.2921  0.4209 -0.2170
  932BOLB   C3B22355  18.015  -0.277  17.180 -0.0795  0.1517  0.3105
  932BOLB   C4B22356  18.389  -0.162  17.449 -0.1042  0.3540 -0.0270
  932BOLB   NC222357  18.374  -1.361  20.628  0.0497  0.0506 -0.0216
  932BOLB   PO222358  18.686  -1.249  20.295 -0.2455 -0.1890  0.1322
  932BOLB   GL322359  18.695  -0.831  20.133  0.1104  0.2454  0.1288
  932BOLB   GL422360  19.060  -0.713  19.922  0.0136 -0.0574 -0.4104
  932BOLB   C1C22361  18.671  -0.613  19.697 -0.0550 -0.1607 -0.1011
  932BOLB   C2C22362  18.569  -0.245  19.481  0.0158 -0.2998  0.0640
  932BOLB   C3C22363  18.341  -0.149  19.056 -0.1577  0.0473  0.2267
  932BOLB   C4C22364  18.165   0.216  18.881 -0.3428 -0.1748  0.0908
  932BOLB   C1D22365  19.144  -0.478  19.615  0.1325  0.3482 -0.1388
  932BOLB   C2D22366  19.123  -0.293  19.206 -0.3247  0.1371 -0.0440
  932BOLB   C3D22367  19.138  -0.049  18.850  0.2238 -0.2461 -0.0896
  932BOLB   C4D22368  18.771  -0.002  18.600 -0.0714  0.2574  0.0493
  933BOLB   NC122369  18.225   1.765  16.847 -0.0722  0.3582  0.3295
  933BOLB   PO122370  17.994   1.612  16.583  0.0314  0.3071  0.1985
  933BOLB   GL122371  17.971   1.301  16.943 -0.1135  0.2405 -0.2157
  933BOLB   GL222372  18.008   0.991  16.716  0.1074  0.0527 -0.1345
  933BOLB   C1A22373  18.020   0.992  17.248  0.1446 -0.0154  0.1139
  933BOLB   C2A22374  18.236   0.644  17.364 -0.1435  0.2732  0.0976
  933BOLB   C3A22375  18.528   0.382  17.535 -0.0469  0.0810  0.1014
  933BOLB   C4A22376  18.867   0.043  17.505 -0.0397 -0.3650 -0.0065
  933BOLB   C1B22377  17.870   0.520  16.769  0.0312 -0.1051 -0.2371
  933BOLB   C2B22378  18.103   0.238  16.484 -0.1514 -0.4357 -0.1776
  933BOLB   C3B22379  18.352   0.017  16.271  0.0362  0.0040 -0.4682
  933BOLB   C4B22380  18.633  -0.114  16.031 -0.1291  0.1790  0.0641
  933BOLB   NC222381  18.481  -2.597  16.957 -0.2142 -0.1005 -0.3955
  933BOLB   PO222382  18.455  -2.350  17.360 -0.0834  0.0201  0.0740
  933BOLB   GL322383  18.532  -1.931  17.259 -0.1029 -0.1398 -0.1091
  933BOLB   GL422384  18.770  -1.719  17.479  0.1609 -0.0161 -0.1446
  933BOLB   C1C22385  18.392  -1.542  17.168  0.1248  0.1901 -0.1759
  933BOLB   C2C22386  18.345  -1.121  17.341  0.1965 -0.0495 -0.2500
  933BOLB   C3C22387  18.533  -0.667  17.575  0.3701  0.1247 -0.0322
  933BOLB   C4C22388  18.826  -0.351  17.567  0.0489 -0.1423 -0.0648
  933BOLB   C1D22389  18.887  -1.381  17.720  0.0992 -0.0460  0.1105
  933BOLB   C2D22390  18.943  -0.953  17.473  0.2363  0.1146 -0.0245
  933BOLB   C3D22391  19.220  -0.613  17.495  0.1588  0.2221  0.2756
  933BOLB   C4D22392  19.234  -0.296  17.217  0.1126 -0.0020  0.1319
  934BOLB   NC122393   6.794  34.634  10.065 -0.3053 -0.0955  0.1247
  934BOLB   PO122394   7.069  34.882   9.783 -0.0842 -0.2493  0.2469
  934BOLB   GL122395   7.229  35.265   9.911 -0.1858  0.2735  0.0725
  934BOLB   GL222396   7.445  35.426  10.203  0.2186  0.3704  0.3219
  934BOLB   C1A22397   7.520  35.680   9.734 -0.3556  0.3608  0.4756
  934BOLB   C2A22398   8.002  35.704   9.675  0.1582 -0.1275  0.1551
  934BOLB   C3A22399   8.455  35.811   9.665  0.1118 -0.0478 -0.1793
  934BOLB   C4A22400   8.870  35.900   9.715  0.3053 -0.3464  0.0732
  934BOLB   C1B22401   7.189  35.184  10.383 -0.1052 -0.1896 -0.3546
  934BOLB   C2B22402   7.011  35.019  10.777 -0.1171 -0.1365 -0.1845
  934BOLB   C3B22403   7.073  35.132  11.219  0.0709 -0.1992  0.1804
  934BOLB   C4B22404   7.307  35.189  11.660  0.2293  0.0129 -0.0936
  934BOLB   NC222405   8.869  33.276   8.609  0.0151 -0.3664  0.3887
  934BOLB   PO222406   9.070  33.546   8.892 -0.1724  0.1499  0.1362
  934BOLB   GL322407   9.318  33.957   9.068  0.3408 -0.1619  0.0678
  934BOLB   GL422408   9.540  33.805   9.252 -0.3535 -0.2330 -0.0777
  934BOLB   C1C22409   9.261  34.377   9.268  0.0116  0.3578 -0.0874
  934BOLB   C2C22410   9.075  34.794   9.328  0.1224 -0.1929  0.0544
  934BOLB   C3C22411   9.156  35.086   9.606 -0.0337  0.1152 -0.1594
  934BOLB   C4C22412   9.260  35.543   9.702  0.0631 -0.0423  0.0354
  934BOLB   C1D22413   9.475  34.067   9.614  0.0746 -0.1430  0.1698
  934BOLB   C2D22414   9.600  34.561   9.610 -0.0143 -0.3578  0.0552
  934BOLB   C3D22415   9.584  34.962   9.718 -0.0919  0.4876 -0.1709
  934BOLB   C4D22416   9.513  35.179  10.034  0.0703  0.0410  0.0110
  935BOLB   NC122417   6.641  35.699  18.486  0.3158 -0.1528 -0.0057
  935BOLB   PO122418   6.886  36.035  18.711  0.0019  0.0194  0.0690
  935BOLB   GL122419   6.783  36.382  18.431  0.0826  0.0770  0.0189
  935BOLB   GL222420   6.748  36.158  18.146  0.3168 -0.1121 -0.2222
  935BOLB   C1A22421   7.143  36.627  18.162  0.1176 -0.3148  0.1583
  935BOLB   C2A22422   7.568  36.672  18.026  0.1765  0.1744 -0.1441
  935BOLB   C3A22423   7.874  36.773  18.189 -0.1431  0.1768 -0.1750
  935BOLB   C4A22424   8.196  37.057  18.221  0.0330 -0.1835 -0.0788
  935BOLB   C1B22425   6.992  36.109  17.840  0.2779 -0.1794 -0.0852
  935BOLB   C2B22426   7.130  35.850  17.468  0.0208 -0.1271  0.1664
  935BOLB   C3B22427   7.462  35.602  17.290 -0.2640  0.0393  0.2279
  935BOLB   C4B22428   7.858  35.651  17.332 -0.1108 -0.1568 -0.1242
  935BOLB   NC222429   7.320  37.584  19.637 -0.2454  0.1926  0.0014
  935BOLB   PO222430   7.083  37.960  19.760 -0.1407 -0.0000  0.1945
  935BOLB   GL322431   7.381  38.088  19.367 -0.4020 -0.0129  0.1910
  935BOLB   GL422432   7.205  38.383  19.264 -0.1104 -0.2486  0.0269
  935BOLB   C1C22433   7.405  38.075  18.913 -0.1943 -0.1016  0.0003
  935BOLB   C2C22434   7.585  37.921  18.556 -0.0098 -0.0314 -0.1064
  935BOLB   C3C22435   7.798  37.672  18.373 -0.0487 -0.0498 -0.1582
  935BOLB   C4C22436   8.175  37.430  18.348  0.0327 -0.1506 -0.0046
  935BOLB   C1D22437   7.403  38.683  19.116  0.1171  0.0276  0.3035
  935BOLB   C2D22438   7.760  38.814  18.761 -0.0781  0.1539 -0.2187
  935BOLB   C3D22439   7.762  38.868  18.281 -0.0066 -0.2932  0.0520
  935BOLB   C4D22440   7.709  38.889  17.788  0.1802 -0.3162 -0.2888
  936BOLB   NC122441  16.443  34.595   4.659  0.3593  0.0617  0.1228
  936BOLB   PO122442  16.151  34.403   4.916  0.1521  0.0707 -0.5202
  936BOLB   GL122443  16.261  34.769   5.148 -0.0494  0.4595 -0.0503
  936BOLB   GL222444  15.959  34.801   5.260 -0.0629  0.0414  0.2416
  936BOLB   C1A22445  16.110  35.326   5.239 -0.3620 -0.0013 -0.0247
  936BOLB   C2A22446  16.093  35.649   5.515 -0.0805  0.0889 -0.1591
  936BOLB   C3A22447  15.895  35.883   5.800 -0.1010 -0.1223 -0.2872
  936BOLB   C4A22448  15.491  35.976   5.795 -0.0111  0.1649 -0.3297
  936BOLB   C1B22449  15.777  35.136   5.647 -0.1671  0.0665  0.1582
  936BOLB   C2B22450  15.782  35.440   6.029  0.0915 -0.2758  0.1971
  936BOLB   C3B22451  15.339  35.664   6.200 -0.1097  0.0665 -0.2784
  936BOLB   C4B22452  15.241  36.003   6.367  0.0775  0.0065 -0.3559
  936BOLB   NC222453  14.283  35.720   4.149  0.2502  0.2857 -0.2650
  936BOLB   PO222454  14.468  36.057   4.113  0.4047  0.0998  0.1404
  936BOLB   GL322455  14.708  36.216   4.405 -0.0427  0.1727 -0.1796
  936BOLB   GL422456  14.731  36.491   4.612 -0.0648  0.0731  0.2383
  936BOLB   C1C22457  14.691  36.108   4.887  0.1527  0.1762  0.0263
  936BOLB   C2C22458  14.738  35.828   5.269 -0.2894 -0.2127  0.1092
  936BOLB   C3C22459  14.881  36.048   5.658  0.0141  0.1210 -0.0640
  936BOLB   C4C22460  15.129  36.191   5.889  0.1390  0.0843  0.0426
  936BOLB   C1D22461  14.898  36.655   4.988 -0.2945 -0.0811 -0.1326
  936BOLB   C2D22462  15.105  37.140   5.045 -0.2480  0.2213  0.1564
  936BOLB   C3D22463  14.955  37.436   5.031 -0.2843 -0.0583 -0.1794
  936BOLB   C4D22464  14.586  37.577   5.121  0.2362  0.4784  0.0248
  937BOLB   NC122465   4.274   6.992   5.659  0.1381 -0.0965 -0.1579
  937BOLB   PO122466   4.556   7.036   5.913 -0.0423 -0.2663 -0.1131
  937BOLB   GL122467   4.774   7.244   6.115  0.1994 -0.0530 -0.0735
  937BOLB   GL222468   4.751   7.066   6.389 -0.5530 -0.0287 -0.0123
  937BOLB   C1A22469   5.171   7.240   6.316  0.0284  0.2384  0.0631
  937BOLB   C2A22470   5.363   6.774   6.427  0.0349 -0.1452 -0.2428
  937BOLB   C3A22471   5.523   6.354   6.528 -0.0934  0.2910  0.1400
  937BOLB   C4A22472   5.638   5.909   6.415 -0.1014 -0.0092 -0.1745
  937BOLB   C1B22473   5.096   6.963   6.777 -0.0447 -0.4096  0.1619
  937BOLB   C2B22474   5.293   6.672   6.950 -0.0331  0.0149 -0.1759
  937BOLB   C3B22475   5.721   6.732   6.857 -0.0084  0.1538  0.0179
  937BOLB   C4B22476   6.136   6.661   6.985 -0.1416  0.0733  0.1844
  937BOLB   NC222477   6.039   5.233   4.834  0.0163  0.4110  0.3124
  937BOLB   PO222478   6.250   4.898   4.640 -0.0475  0.0411  0.1068
  937BOLB   GL322479   6.259   4.870   5.092  0.0302 -0.3528 -0.0248
  937BOLB   GL422480   6.168   5.215   5.309 -0.3202  0.0433 -0.0172
  937BOLB   C1C22481   6.064   4.778   5.480  0.0140  0.0084  0.0400
  937BOLB   C2C22482   5.730   4.823   5.835 -0.0758  0.1408  0.0504
  937BOLB   C3C22483   5.676   5.003   6.280  0.1782  0.0760  0.1600
  937BOLB   C4C22484   5.771   5.443   6.395  0.3540 -0.2772  0.0167
  937BOLB   C1D22485   6.560   5.433   5.246  0.1526 -0.0931  0.0855
  937BOLB   C2D22486   6.961   5.541   5.274 -0.1474  0.0096 -0.2916
  937BOLB   C3D22487   7.293   5.665   5.486 -0.2303  0.0279 -0.1367
  937BOLB   C4D22488   7.360   5.559   5.958 -0.0083 -0.2833  0.1279
  938BOLB   NC122489  14.286  33.160   6.842  0.1839  0.1073  0.0810
  938BOLB   PO122490  14.387  33.232   6.350 -0.3146  0.2166 -0.0769
  938BOLB   GL122491  14.678  33.436   6.629  0.0677 -0.2777 -0.0731
  938BOLB   GL222492  14.786  33.359   6.970 -0.3651  0.1135  0.2074
  938BOLB   C1A22493  14.554  33.808   6.844 -0.0316 -0.0651 -0.3507
  938BOLB   C2A22494  14.653  33.971   7.244  0.1907  0.0450  0.0797
  938BOLB   C3A22495  14.451  34.030   7.658 -0.1527 -0.2753 -0.0522
  938BOLB   C4A22496  14.189  34.182   8.115  0.0401 -0.0423 -0.2205
  938BOLB   C1B22497  14.779  33.444   7.444  0.1055  0.3144  0.0829
  938BOLB   C2B22498  15.019  33.673   7.751 -0.0444 -0.2809  0.3516
  938BOLB   C3B22499  15.173  34.056   7.852 -0.3888 -0.3539 -0.1792
  938BOLB   C4B22500  15.334  34.384   8.033  0.0210  0.3395  0.0788
  938BOLB   NC222501  14.420  31.883   8.326  0.0878  0.0213  0.0215
  938BOLB   PO222502  14.671  32.071   8.688 -0.0463  0.1138 -0.0886
  938BOLB   GL322503  14.567  32.342   8.973  0.0124 -0.2378  0.0928
  938BOLB   GL422504  14.711  32.277   9.208  0.0877 -0.3440 -0.2148
  938BOLB   C1C22505  14.535  32.834   9.112  0.0198 -0.2268  0.0065
  938BOLB   C2C22506  14.319  33.204   8.936 -0.0300  0.0479  0.0518
  938BOLB   C3C22507  14.025  33.498   8.630 -0.1995  0.0277 -0.1632
  938BOLB   C4C22508  14.107  33.883   8.467 -0.1482 -0.0430  0.1058
  938BOLB   C1D22509  14.479  32.482   9.518 -0.2765 -0.1214  0.1486
  938BOLB   C2D22510  14.508  32.681   9.958 -0.1140  0.0205  0.1822
  938BOLB   C3D22511  14.634  32.750  10.332 -0.0350  0.0962 -0.0518
  938BOLB   C4D22512  15.051  32.752  10.351 -0.0658 -0.2531 -0.0213
  939BOLB   NC122513  16.841   8.466   1.444  0.0194  0.0499  0.2663
  939BOLB   PO122514  17.236   8.312   1.636  0.3021  0.1465 -0.6231
  939BOLB   GL122515  16.849   8.012   1.722  0.2274  0.0757  0.1361
  939BOLB   GL222516  16.937   7.666   1.777 -0.3004 -0.2150 -0.1901
  939BOLB   C1A22517  16.465   7.968   1.941  0.0549 -0.2854 -0.0994
  939BOLB   C2A22518  16.439   8.209   2.316  0.1979  0.3111  0.0674
  939BOLB   C3A22519  16.523   8.541   2.658  0.0771 -0.0333  0.0982
  939BOLB   C4A22520  16.581   8.833   2.943  0.2961 -0.3594  0.1950
  939BOLB   C1B22521  16.766   7.664   2.169  0.3924  0.0678  0.0685
  939BOLB   C2B22522  16.402   7.726   2.386  0.0066  0.1843  0.1135
  939BOLB   C3B22523  16.077   7.615   2.740  0.0310 -0.0379  0.0918
  939BOLB   C4B22524  15.812   7.462   3.038  0.0185  0.2482 -0.2668
  939BOLB   NC222525  17.100   9.635   3.018 -0.0052 -0.1123 -0.0208
  939BOLB   PO222526  17.353   9.865   3.334  0.0018 -0.0921  0.2662
  939BOLB   GL322527  17.195   9.783   3.705 -0.6515  0.0730  0.2516
  939BOLB   GL422528  17.065  10.067   3.890 -0.0448 -0.1682 -0.0914
  939BOLB   C1C22529  16.824   9.605   3.864  0.1378  0.2700  0.0985
  939BOLB   C2C22530  16.716   9.129   3.826  0.0101  0.2447 -0.0962
  939BOLB   C3C22531  16.589   8.793   3.626 -0.0438  0.0814 -0.1462
  939BOLB   C4C22532  16.727   8.858   3.274  0.2974  0.1691 -0.1982
  939BOLB   C1D22533  17.242  10.290   4.282 -0.0584 -0.0006  0.0246
  939BOLB   C2D22534  17.117  10.288   4.646  0.2526  0.0453  0.0299
  939BOLB   C3D22535  17.053   9.964   4.888 -0.0984  0.1380 -0.0481
  939BOLB   C4D22536  16.868   9.529   5.010  0.0759  0.0979  0.5631
  940BOLB   NC122537   6.302   7.107   3.843 -0.2171  0.0977  0.1094
  940BOLB   PO122538   6.019   6.899   4.142  0.1463 -0.1232 -0.1728
  940BOLB   GL122539   6.168   6.968   4.541  0.0601 -0.0083 -0.2758
  940BOLB   GL222540   6.110   6.672   4.720 -0.0078 -0.0631 -0.2248
  940BOLB   C1A22541   6.542   7.099   4.872  0.0249 -0.0639  0.1495
  940BOLB   C2A22542   6.728   7.092   5.282  0.3257 -0.0101 -0.0350
  940BOLB   C3A22543   6.928   6.775   5.523 -0.1404  0.1045  0.0887
  940BOLB   C4A22544   7.250   6.831   5.840 -0.0810 -0.4778  0.1202
  940BOLB   C1B22545   6.209   6.753   5.094 -0.1655 -0.2118  0.0808
  940BOLB   C2B22546   6.257   6.902   5.487 -0.1203 -0.1548 -0.3051
  940BOLB   C3B22547   6.232   6.711   5.806  0.1012 -0.2413 -0.0441
  940BOLB   C4B22548   6.381   6.615   6.227 -0.0899 -0.1522  0.5790
  940BOLB   NC222549   6.646   4.596   4.775  0.0123  0.1472 -0.2719
  940BOLB   PO222550   6.978   4.874   4.857 -0.2656  0.2494  0.2165
  940BOLB   GL322551   7.203   5.295   4.761  0.2137 -0.0008  0.0280
  940BOLB   GL422552   7.500   5.218   4.688  0.3826 -0.0232  0.2395
  940BOLB   C1C22553   7.200   5.739   4.921 -0.1789  0.0334 -0.1643
  940BOLB   C2C22554   7.329   6.053   5.136 -0.1106  0.1372 -0.3678
  940BOLB   C3C22555   7.665   6.276   5.342  0.0482  0.1648 -0.2432
  940BOLB   C4C22556   7.568   6.669   5.673  0.0229  0.0957  0.1489
  940BOLB   C1D22557   7.685   5.545   4.900  0.2301 -0.0519  0.0591
  940BOLB   C2D22558   7.990   5.838   5.206 -0.0922 -0.2835 -0.2741
  940BOLB   C3D22559   8.216   6.286   5.231 -0.3042  0.1288 -0.3680
  940BOLB   C4D22560   8.488   6.672   5.247  0.2867 -0.0141  0.2187
  941BOLB   NC122561  10.444   5.271   1.510 -0.2860  0.4172  0.0300
  941BOLB   PO122562   9.995   5.256   1.616 -0.1775 -0.0652  0.0129
  941BOLB   GL122563  10.314   5.393   1.980  0.0223 -0.1807  0.0178
  941BOLB   GL222564  10.687   5.228   2.007 -0.1317  0.0198 -0.2039
  941BOLB   C1A22565  10.275   5.429   2.410 -0.1681 -0.0800 -0.0032
  941BOLB   C2A22566  10.262   5.638   2.805 -0.0403 -0.0889  0.1094
  941BOLB   C3A22567  10.194   5.826   3.218 -0.2685  0.3840  0.1379
  941BOLB   C4A22568   9.814   5.707   3.567  0.2410  0.0033  0.0637
  941BOLB   C1B22569  10.750   5.592   2.212  0.2220 -0.0973  0.1271
  941BOLB   C2B22570  10.981   5.624   2.546  0.2797 -0.1253  0.1990
  941BOLB   C3B22571  10.771   5.597   2.935 -0.4882  0.3783  0.0167
  941BOLB   C4B22572  10.744   5.791   3.361 -0.0125 -0.1287  0.1601
  941BOLB   NC222573   9.996   4.427   1.779  0.3113  0.3645  0.0795
  941BOLB   PO222574   9.713   4.221   1.925 -0.2843 -0.0264  0.1756
  941BOLB   GL322575   9.742   4.519   2.256  0.1105  0.2187 -0.0786
  941BOLB   GL422576   9.819   4.515   2.596  0.0786 -0.2345 -0.0029
  941BOLB   C1C22577   9.631   4.944   2.354 -0.0748  0.1625  0.1768
  941BOLB   C2C22578   9.404   5.040   2.748  0.1789  0.3023 -0.1724
  941BOLB   C3C22579   9.375   5.311   3.039  0.1053  0.5036  0.0372
  941BOLB   C4C22580   9.423   5.510   3.435 -0.2365  0.0500  0.0096
  941BOLB   C1D22581   9.575   4.610   2.913 -0.2705 -0.1048 -0.3104
  941BOLB   C2D22582   9.691   4.831   3.280 -0.3424 -0.1117  0.2290
  941BOLB   C3D22583   9.887   5.175   3.457  0.1219 -0.1649  0.0750
  941BOLB   C4D22584  10.321   5.504   3.600 -0.5360 -0.0676 -0.4187
  942BOLB   NC122585  15.969  16.611  10.437 -0.1303  0.3413  0.0495
  942BOLB   PO122586  16.402  16.510  10.667  0.1301  0.1166 -0.1420
  942BOLB   GL122587  16.372  16.919  10.352 -0.0471  0.2154 -0.4775
  942BOLB   GL222588  16.075  17.021  10.153 -0.4008  0.0593  0.0354
  942BOLB   C1A22589  16.545  17.182  10.161 -0.0770  0.1385  0.2637
  942BOLB   C2A22590  16.598  17.512  10.143 -0.1070 -0.1195 -0.2879
  942BOLB   C3A22591  16.676  18.008   9.983 -0.2870  0.2465  0.0446
  942BOLB   C4A22592  16.542  18.315   9.602  0.0831  0.0957 -0.3413
  942BOLB   C1B22593  16.143  17.124   9.784 -0.3256  0.1507  0.1770
  942BOLB   C2B22594  16.245  17.575   9.532 -0.0089  0.1505  0.1829
  942BOLB   C3B22595  16.385  17.867   9.224  0.0004  0.0912  0.0781
  942BOLB   C4B22596  16.329  18.363   8.988  0.0680  0.3110 -0.2521
  942BOLB   NC222597  16.476  18.850   7.399  0.0611 -0.0820  0.4780
  942BOLB   PO222598  16.198  19.150   7.611 -0.0765 -0.3267 -0.1030
  942BOLB   GL322599  16.061  18.949   8.019 -0.2127 -0.1751 -0.2285
  942BOLB   GL422600  15.775  18.965   8.022 -0.0155  0.0622 -0.1241
  942BOLB   C1C22601  16.063  18.948   8.425  0.1340  0.0691  0.2017
  942BOLB   C2C22602  16.435  18.945   8.532 -0.0265 -0.0406  0.2266
  942BOLB   C3C22603  16.651  18.748   8.851 -0.2060  0.1113  0.2068
  942BOLB   C4C22604  16.561  18.689   9.316 -0.2054  0.0840  0.3493
  942BOLB   C1D22605  15.450  18.597   7.949  0.1338  0.0087  0.4008
  942BOLB   C2D22606  15.195  18.319   8.178 -0.2271 -0.1598  0.0669
  942BOLB   C3D22607  15.230  18.037   8.503 -0.2741 -0.0817  0.0146
  942BOLB   C4D22608  15.305  18.252   8.838 -0.0136 -0.0555 -0.0506
  943BOLB   NC122609   3.753  36.134  14.448 -0.1891  0.0789 -0.2018
  943BOLB   PO122610   4.016  36.305  14.669 -0.1271  0.1280  0.1410
  943BOLB   GL122611   4.348  36.430  14.415  0.0423 -0.0631 -0.2193
  943BOLB   GL222612   4.618  36.181  14.313 -0.1402  0.1359 -0.0784
  943BOLB   C1A22613   4.607  36.756  14.425 -0.2429  0.1268 -0.0114
  943BOLB   C2A22614   4.565  37.203  14.392 -0.2965 -0.0320  0.2827
  943BOLB   C3A22615   4.463  37.428  14.087  0.0302 -0.2678 -0.2230
  943BOLB   C4A22616   4.578  37.618  13.740  0.0027  0.1251 -0.0068
  943BOLB   C1B22617   4.859  36.434  14.660 -0.1265  0.0075 -0.1604
  943BOLB   C2B22618   4.974  36.599  15.068  0.0517 -0.0139 -0.0722
  943BOLB   C3B22619   5.196  36.332  15.381  0.0884 -0.1600 -0.1182
  943BOLB   C4B22620   5.351  36.221  15.817 -0.1555 -0.1486  0.0277
  943BOLB   NC222621   3.256  37.192  12.232  0.2024  0.1961  0.0240
  943BOLB   PO222622   3.447  37.560  12.018  0.0028  0.0406  0.0553
  943BOLB   GL322623   3.684  37.879  12.154  0.2211  0.1097 -0.0672
  943BOLB   GL422624   3.726  38.036  11.882  0.1911 -0.0867 -0.1489
  943BOLB   C1C22625   3.820  38.234  12.391 -0.0663 -0.3339 -0.0003
  943BOLB   C2C22626   3.761  38.163  12.879 -0.1610 -0.3694  0.2074
  943BOLB   C3C22627   3.890  37.814  13.177 -0.2166  0.0896 -0.0399
  943BOLB   C4C22628   4.349  37.617  13.386 -0.0189 -0.1412  0.0639
  943BOLB   C1D22629   3.956  38.227  11.574  0.0370 -0.3971  0.1029
  943BOLB   C2D22630   3.974  38.610  11.414 -0.1654  0.0168  0.1127
  943BOLB   C3D22631   3.746  38.983  11.385  0.0291  0.0462 -0.1458
  943BOLB   C4D22632   3.586  39.330  11.071 -0.1130  0.0638  0.0375
  944BOLB   NC122633   1.116   4.331  12.312  0.3079  0.2237  0.1505
  944BOLB   PO122634   1.327   3.932  12.156 -0.0901  0.0958 -0.2473
  944BOLB   GL122635   1.824   3.813  12.313  0.0520  0.1743  0.0808
  944BOLB   GL222636   1.875   3.692  12.637 -0.2038 -0.4631 -0.1221
  944BOLB   C1A22637   2.142   4.211  12.147  0.4082  0.2208 -0.0015
  944BOLB   C2A22638   2.494   4.482  12.237 -0.3148  0.0746 -0.0737
  944BOLB   C3A22639   2.789   4.472  12.571 -0.3124 -0.1397  0.0864
  944BOLB   C4A22640   2.676   4.573  12.962 -0.0364 -0.0613 -0.0429
  944BOLB   C1B22641   2.261   3.905  12.519 -0.2615 -0.1197  0.0035
  944BOLB   C2B22642   2.617   3.978  12.764 -0.0629 -0.0705  0.1905
  944BOLB   C3B22643   3.102   4.145  12.801 -0.0483 -0.1794  0.1185
  944BOLB   C4B22644   3.511   4.240  13.172 -0.2901  0.1103  0.0680
  944BOLB   NC222645   1.180   5.753  14.037  0.2430 -0.1278  0.0114
  944BOLB   PO222646   1.211   5.378  14.159 -0.0261 -0.1454 -0.0236
  944BOLB   GL322647   1.620   5.343  13.954 -0.1287 -0.2294  0.1714
  944BOLB   GL422648   1.639   5.666  13.843 -0.4139  0.1248  0.1072
  944BOLB   C1C22649   2.126   5.432  13.939  0.0173  0.1586  0.5397
  944BOLB   C2C22650   2.460   5.395  13.731  0.2237  0.0024  0.0488
  944BOLB   C3C22651   2.632   5.094  13.401 -0.0637  0.2571  0.1201
  944BOLB   C4C22652   2.467   4.838  13.180  0.0729  0.0426 -0.1767
  944BOLB   C1D22653   2.075   5.939  13.978  0.0982  0.1035  0.2853
  944BOLB   C2D22654   2.424   6.259  14.214  0.0351 -0.1219  0.1955
  944BOLB   C3D22655   2.654   6.301  14.607 -0.3463 -0.0366 -0.1129
  944BOLB   C4D22656   2.788   6.324  15.040  0.0076 -0.0809  0.4739
  945BOLB   NC122657  23.548   9.056  19.805 -0.1027  0.0567  0.0499
  945BOLB   PO122658  23.598   8.999  19.351  0.2100 -0.2625 -0.0110
  945BOLB   GL122659  23.981   8.845  19.523 -0.3197 -0.1087 -0.1954
  945BOLB   GL222660  24.045   8.459  19.720  0.1100  0.3442 -0.2900
  945BOLB   C1A22661  24.485   8.716  19.600  0.0139  0.0621  0.2627
  945BOLB   C2A22662  24.723   8.411  19.793 -0.6554 -0.0827 -0.2290
  945BOLB   C3A22663  25.165   8.364  19.992  0.1533 -0.1121 -0.1083
  945BOLB   C4A22664  25.590   8.359  20.301 -0.0774 -0.0587  0.0735
  945BOLB   C1B22665  24.061   8.345  20.108 -0.0422  0.3518 -0.0792
  945BOLB   C2B22666  24.236   7.951  20.125  0.1434 -0.1455  0.1478
  945BOLB   C3B22667  24.560   7.788  20.371 -0.0033  0.4035  0.0635
  945BOLB   C4B22668  24.870   7.432  20.393  0.1397 -0.1450 -0.1238
  945BOLB   NC222669  25.856   6.079  21.568  0.1002 -0.0166  0.4821
  945BOLB   PO222670  26.122   6.131  21.203 -0.1138  0.0264 -0.0028
  945BOLB   GL322671  25.879   6.500  20.955 -0.1141  0.0965 -0.0036
  945BOLB   GL422672  25.640   6.558  21.247 -0.1297 -0.0423  0.1684
  945BOLB   C1C22673  25.835   6.908  20.845  0.0897 -0.0715  0.2626
  945BOLB   C2C22674  25.872   7.281  20.602  0.1674  0.0988 -0.1253
  945BOLB   C3C22675  25.845   7.609  20.398 -0.7440  0.2089  0.0958
  945BOLB   C4C22676  25.874   8.016  20.510 -0.1397 -0.1233 -0.4730
  945BOLB   C1D22677  25.250   6.653  21.097  0.2092  0.2327 -0.0372
  945BOLB   C2D22678  24.872   6.609  20.849 -0.5062 -0.0855 -0.0426
  945BOLB   C3D22679  24.454   6.469  20.767  0.0295 -0.0114  0.1568
  945BOLB   C4D22680  23.881   6.511  20.610 -0.1505  0.1245  0.0957
  946BOLB   NC122681   6.309   2.967   6.426  0.0303  0.4204 -0.0171
  946BOLB   PO122682   6.419   3.368   6.267 -0.0806  0.0020  0.0024
  946BOLB   GL122683   6.855   3.259   6.250 -0.1564  0.1600 -0.2715
  946BOLB   GL222684   6.835   3.057   6.541  0.0068  0.0344  0.2999
  946BOLB   C1A22685   7.285   3.452   6.209  0.0887 -0.3487 -0.2593
  946BOLB   C2A22686   7.628   3.578   6.187  0.1474  0.0560  0.0545
  946BOLB   C3A22687   7.969   3.914   6.264 -0.1376  0.0568  0.0792
  946BOLB   C4A22688   8.222   4.110   6.052 -0.0190  0.3689  0.3680
  946BOLB   C1B22689   6.717   3.218   6.866 -0.4456 -0.3922 -0.1315
  946BOLB   C2B22690   6.719   3.285   7.355  0.0779  0.1614 -0.1626
  946BOLB   C3B22691   6.787   3.146   7.821 -0.0089 -0.0379 -0.0974
  946BOLB   C4B22692   6.869   2.729   8.053  0.0837  0.0135 -0.0239
  946BOLB   NC222693   7.797   2.887   4.764  0.1916  0.0082  0.1233
  946BOLB   PO222694   7.410   2.985   5.020 -0.0129  0.2411  0.0197
  946BOLB   GL322695   7.742   2.989   5.307 -0.0881 -0.6020  0.3197
  946BOLB   GL422696   7.732   3.322   5.456 -0.1471 -0.0755 -0.1138
  946BOLB   C1C22697   8.101   3.082   5.643  0.0969 -0.0344 -0.0922
  946BOLB   C2C22698   8.504   3.286   5.790 -0.0470 -0.0611 -0.2709
  946BOLB   C3C22699   8.726   3.752   5.732 -0.1421  0.0498  0.1455
  946BOLB   C4C22700   8.601   3.960   5.909  0.2090 -0.0497  0.3290
  946BOLB   C1D22701   7.660   3.609   5.678 -0.0671  0.0423 -0.3052
  946BOLB   C2D22702   7.777   3.975   5.742 -0.3077 -0.3869  0.0302
  946BOLB   C3D22703   8.202   4.097   5.587  0.0423 -0.0757  0.0714
  946BOLB   C4D22704   8.605   4.437   5.674 -0.0608  0.1561 -0.0087
  947BOLB   NC122705   4.403   9.101   4.953 -0.0495 -0.1032  0.1863
  947BOLB   PO122706   4.733   9.110   4.519 -0.0763  0.2418 -0.0448
  947BOLB   GL122707   5.213   9.072   4.786  0.1013  0.3441  0.0977
  947BOLB   GL222708   5.442   9.288   4.874  0.3020 -0.0600 -0.0169
  947BOLB   C1A22709   5.485   8.740   4.997  0.1164 -0.2311  0.0405
  947BOLB   C2A22710   5.911   8.716   5.245 -0.2043 -0.2123 -0.0040
  947BOLB   C3A22711   6.114   8.663   5.631  0.0929  0.0787 -0.1474
  947BOLB   C4A22712   6.504   8.444   5.769  0.0721  0.2067 -0.0371
  947BOLB   C1B22713   5.437   9.201   5.292  0.1061 -0.0950  0.0654
  947BOLB   C2B22714   5.549   9.105   5.638  0.0041 -0.2290 -0.0328
  947BOLB   C3B22715   5.766   8.868   5.976  0.0670 -0.3012  0.3684
  947BOLB   C4B22716   5.970   8.759   6.347 -0.1961  0.2474  0.1850
  947BOLB   NC222717   6.662   8.596   3.724 -0.4848  0.0374  0.2206
  947BOLB   PO222718   6.303   8.608   3.999 -0.0262  0.0365 -0.1524
  947BOLB   GL322719   6.385   8.887   4.328  0.1913  0.0541 -0.0423
  947BOLB   GL422720   6.327   9.187   4.339  0.0207  0.0396  0.1534
  947BOLB   C1C22721   6.760   8.942   4.590  0.5566  0.2220  0.3547
  947BOLB   C2C22722   6.893   8.982   5.032 -0.0954 -0.1321 -0.2091
  947BOLB   C3C22723   7.014   8.884   5.459 -0.0480  0.2466 -0.0972
  947BOLB   C4C22724   6.905   8.542   5.663 -0.3770 -0.1931 -0.0931
  947BOLB   C1D22725   6.735   9.378   4.298 -0.1038  0.3187  0.0522
  947BOLB   C2D22726   6.945   9.464   4.651  0.6757  0.2184 -0.1869
  947BOLB   C3D22727   6.855   9.699   4.969 -0.1549  0.2479 -0.2649
  947BOLB   C4D22728   6.985   9.870   5.311 -0.0080 -0.0252  0.1953
  948BOLB   NC122729  18.700  33.465  12.535  0.1092  0.1132  0.3354
  948BOLB   PO122730  18.309  33.794  12.737  0.4380 -0.2039  0.2889
  948BOLB   GL122731  18.250  34.154  12.704  0.0650 -0.2591 -0.1457
  948BOLB   GL222732  18.356  34.359  12.790  0.0334 -0.0033  0.2678
  948BOLB   C1A22733  17.805  34.376  12.506 -0.0352  0.2698  0.0439
  948BOLB   C2A22734  17.579  34.773  12.578 -0.1816  0.0988  0.1423
  948BOLB   C3A22735  17.352  35.089  12.764  0.0393  0.0932  0.0347
  948BOLB   C4A22736  17.055  35.383  12.596  0.1689 -0.0808  0.0407
  948BOLB   C1B22737  18.034  34.545  12.979 -0.1892  0.2156  0.1544
  948BOLB   C2B22738  17.899  34.895  13.093  0.0836 -0.0154 -0.0148
  948BOLB   C3B22739  17.933  35.455  12.941 -0.0553  0.2372 -0.4067
  948BOLB   C4B22740  17.736  35.905  12.961  0.1081  0.3377 -0.0974
  948BOLB   NC222741  16.971  33.064  12.204 -0.2216 -0.0582  0.0306
  948BOLB   PO222742  16.815  33.055  12.625  0.1938 -0.2527 -0.2225
  948BOLB   GL322743  16.609  33.332  12.488  0.1816  0.1888 -0.1369
  948BOLB   GL422744  16.335  33.435  12.566  0.2542 -0.0541  0.2447
  948BOLB   C1C22745  16.614  33.874  12.380 -0.0935  0.1689 -0.2073
  948BOLB   C2C22746  16.485  34.236  12.409  0.1339 -0.2320  0.0153
  948BOLB   C3C22747  16.555  34.685  12.371  0.0202 -0.1756 -0.3802
  948BOLB   C4C22748  16.608  35.140  12.383 -0.2303 -0.0781 -0.2066
  948BOLB   C1D22749  16.195  33.835  12.785  0.0132 -0.2219  0.0755
  948BOLB   C2D22750  16.089  34.261  12.936  0.0711 -0.0660 -0.1209
  948BOLB   C3D22751  15.838  34.586  12.921 -0.1079  0.1163  0.1110
  948BOLB   C4D22752  15.737  34.958  12.797  0.2203  0.0253  0.2441
  949BOLB   NC122753  20.627  34.751  12.089  0.1647  0.0932 -0.3138
  949BOLB   PO122754  20.786  34.805  11.675  0.1344  0.2890 -0.1117
  949BOLB   GL122755  20.485  35.226  11.896 -0.1970  0.0064 -0.1875
  949BOLB   GL222756  20.350  35.180  12.206  0.2167 -0.2645 -0.2623
  949BOLB   C1A22757  20.118  35.544  11.800  0.0245 -0.0503 -0.0831
  949BOLB   C2A22758  20.091  35.996  11.656 -0.0710 -0.2428  0.2315
  949BOLB   C3A22759  20.299  35.994  11.323 -0.0659  0.0720 -0.3789
  949BOLB   C4A22760  20.588  35.985  11.052  0.2665 -0.1179 -0.1076
  949BOLB   C1B22761  20.028  35.424  12.351 -0.2626  0.2425 -0.2903
  949BOLB   C2B22762  19.951  35.834  12.558 -0.2032 -0.2159  0.2035
  949BOLB   C3B22763  19.573  36.047  12.710 -0.1659  0.1684 -0.1253
  949BOLB   C4B22764  19.196  36.113  12.724  0.0751  0.0965  0.0027
  949BOLB   NC222765  22.559  36.865   9.678 -0.2014  0.4017  0.1722
  949BOLB   PO222766  22.313  36.784  10.129 -0.3379 -0.1324 -0.2693
  949BOLB   GL322767  21.985  36.952  10.347  0.0079  0.1460 -0.0864
  949BOLB   GL422768  21.716  37.216  10.269 -0.1124  0.1445  0.1787
  949BOLB   C1C22769  21.574  36.785  10.625 -0.3664 -0.2201 -0.1412
  949BOLB   C2C22770  21.183  36.930  10.659 -0.1146  0.1137 -0.0362
  949BOLB   C3C22771  20.864  36.699  10.794 -0.3980 -0.1682 -0.0919
  949BOLB   C4C22772  20.787  36.318  10.826 -0.1582  0.0735  0.0568
  949BOLB   C1D22773  21.493  37.266  10.482  0.1580 -0.1963  0.1708
  949BOLB   C2D22774  21.123  37.411  10.584  0.0921  0.1423 -0.2358
  949BOLB   C3D22775  20.716  37.214  10.552 -0.2806  0.1629  0.0831
  949BOLB   C4D22776  20.470  37.184  10.817  0.0522 -0.0651  0.1153
  950BOLB   NC122777   4.428   9.600  19.265 -0.0846 -0.0659 -0.1206
  950BOLB   PO122778   4.716   9.904  19.417 -0.0755 -0.1474  0.4360
  950BOLB   GL122779   5.014   9.615  19.212 -0.0033  0.2168 -0.1672
  950BOLB   GL222780   5.338   9.467  19.415  0.2108  0.1705 -0.3362
  950BOLB   C1A22781   5.196   9.332  18.940  0.1048  0.2033 -0.0418
  950BOLB   C2A22782   5.386   9.334  18.680 -0.3919 -0.0266  0.1356
  950BOLB   C3A22783   5.519   9.365  18.235  0.0038 -0.1930 -0.2231
  950BOLB   C4A22784   5.700   9.180  17.888  0.2596  0.4079 -0.0005
  950BOLB   C1B22785   5.608   9.417  19.151 -0.0853  0.1011 -0.1237
  950BOLB   C2B22786   5.812   9.075  18.908 -0.1791  0.1830 -0.0045
  950BOLB   C3B22787   5.968   8.668  18.716 -0.0159  0.0763  0.1042
  950BOLB   C4B22788   6.160   8.367  18.377 -0.1756  0.0242 -0.0595
  950BOLB   NC222789   7.891   8.669  17.165 -0.1310  0.2257 -0.3325
  950BOLB   PO222790   8.011   9.073  17.097 -0.0806  0.3260  0.1255
  950BOLB   GL322791   7.576   9.108  17.166 -0.0765  0.0624  0.0335
  950BOLB   GL422792   7.504   8.874  17.411  0.1557  0.0368 -0.1160
  950BOLB   C1C22793   7.134   9.115  17.152 -0.1041  0.0600 -0.0187
  950BOLB   C2C22794   6.745   8.985  17.346  0.0470  0.0452  0.2851
  950BOLB   C3C22795   6.370   8.838  17.552  0.1314 -0.1452 -0.2633
  950BOLB   C4C22796   6.016   8.929  17.764 -0.0922  0.2129 -0.0587
  950BOLB   C1D22797   7.117   8.679  17.432  0.1251  0.1502 -0.2446
  950BOLB   C2D22798   6.724   8.476  17.551 -0.1568  0.1010  0.3452
  950BOLB   C3D22799   6.438   8.147  17.407  0.2159 -0.1905  0.1964
  950BOLB   C4D22800   6.167   7.854  17.671 -0.0182  0.1819 -0.3526
  951BOLB   NC122801  18.990   1.701   3.474 -0.1715 -0.2353 -0.0565
  951BOLB   PO122802  19.158   2.100   3.575  0.0880  0.1182  0.0911
  951BOLB   GL122803  18.951   2.017   3.922 -0.1280 -0.0719  0.1792
  951BOLB   GL222804  18.657   1.976   3.701 -0.0921 -0.1247 -0.1188
  951BOLB   C1A22805  18.729   2.014   4.324 -0.0757  0.1325  0.3245
  951BOLB   C2A22806  18.466   2.390   4.426 -0.1927  0.1806 -0.2591
  951BOLB   C3A22807  18.151   2.465   4.261  0.2453 -0.2846  0.4057
  951BOLB   C4A22808  17.908   2.757   4.069 -0.0406  0.0253  0.2386
  951BOLB   C1B22809  18.292   1.991   4.037 -0.1958  0.1573  0.3813
  951BOLB   C2B22810  17.846   2.116   4.009  0.1927  0.5217 -0.3236
  951BOLB   C3B22811  17.616   2.350   3.786 -0.2158  0.0932 -0.1239
  951BOLB   C4B22812  17.619   2.506   3.452  0.0918 -0.0173 -0.1718
  951BOLB   NC222813  16.431   1.901   1.923  0.1650  0.3976 -0.0132
  951BOLB   PO222814  16.518   2.314   2.106 -0.0663 -0.0323  0.0014
  951BOLB   GL322815  16.515   2.533   2.512  0.0574 -0.3873 -0.1039
  951BOLB   GL422816  16.885   2.478   2.521  0.1805  0.0374  0.1380
  951BOLB   C1C22817  16.600   2.589   2.958 -0.0586 -0.1169  0.0201
  951BOLB   C2C22818  16.823   2.600   3.339  0.2085  0.1221  0.1804
  951BOLB   C3C22819  17.139   2.589   3.703  0.0129  0.5501  0.0265
  951BOLB   C4C22820  17.454   2.824   3.851 -0.1045  0.1226  0.1008
  951BOLB   C1D22821  17.114   2.466   2.888  0.2023 -0.0526 -0.2594
  951BOLB   C2D22822  17.332   2.183   3.211  0.2217  0.2258  0.0092
  951BOLB   C3D22823  17.691   1.933   3.271 -0.2290  0.1573 -0.3266
  951BOLB   C4D22824  17.943   1.851   3.619  0.1000  0.1623 -0.4067
  952BOLB   NC122825   6.984   2.001   6.243  0.2281 -0.1455  0.0375
  952BOLB   PO122826   7.088   2.334   5.856 -0.5108 -0.0191 -0.1255
  952BOLB   GL122827   7.421   2.339   6.098 -0.4405 -0.0323 -0.0082
  952BOLB   GL222828   7.666   2.233   5.921 -0.0033  0.0694 -0.2306
  952BOLB   C1A22829   7.570   2.430   6.448 -0.3277 -0.0342  0.0197
  952BOLB   C2A22830   7.714   2.477   6.844  0.1977  0.2198  0.3931
  952BOLB   C3A22831   7.742   2.803   7.002  0.0053 -0.0123 -0.3267
  952BOLB   C4A22832   8.193   3.191   6.950 -0.0656 -0.2528 -0.1395
  952BOLB   C1B22833   7.938   2.124   6.255 -0.0946  0.0636  0.2206
  952BOLB   C2B22834   8.210   2.199   6.667 -0.1072  0.0639  0.1308
  952BOLB   C3B22835   8.662   2.293   6.661  0.0232  0.0832 -0.0160
  952BOLB   C4B22836   8.981   2.417   6.974  0.4823  0.0695  0.0881
  952BOLB   NC222837   7.764   2.346   5.032  0.0767 -0.0314  0.0662
  952BOLB   PO222838   8.078   2.467   4.706  0.2425 -0.2855 -0.2712
  952BOLB   GL322839   8.141   2.654   5.059  0.4601  0.0899 -0.3542
  952BOLB   GL422840   8.241   3.019   5.015 -0.2896 -0.1709  0.0757
  952BOLB   C1C22841   8.339   2.673   5.378  0.1068  0.1602  0.0778
  952BOLB   C2C22842   8.498   2.714   5.865  0.2858  0.0322  0.1334
  952BOLB   C3C22843   8.405   2.978   6.210 -0.0032 -0.0671 -0.2578
  952BOLB   C4C22844   8.548   2.982   6.610  0.2703 -0.1643 -0.1578
  952BOLB   C1D22845   8.540   3.213   5.313  0.1650  0.2035 -0.1013
  952BOLB   C2D22846   8.973   3.365   5.520 -0.2269  0.1670 -0.0351
  952BOLB   C3D22847   9.264   3.449   5.918 -0.0748 -0.1447  0.1622
  952BOLB   C4D22848   9.332   3.402   6.362  0.0219  0.4176 -0.0772
  953BOLB   NC122849   8.425   9.181  17.897  0.3310 -0.1294 -0.0068
  953BOLB   PO122850   8.405   8.994  18.385  0.2214 -0.1113  0.3629
  953BOLB   GL122851   8.180   8.708  18.538  0.0194 -0.0189  0.0052
  953BOLB   GL222852   7.841   8.702  18.471  0.2074  0.0337 -0.1508
  953BOLB   C1A22853   7.979   8.709  18.962  0.0892  0.1098 -0.0937
  953BOLB   C2A22854   7.564   8.810  19.114  0.0253  0.1354  0.4608
  953BOLB   C3A22855   7.322   8.561  19.306  0.1598  0.1428  0.1423
  953BOLB   C4A22856   7.022   8.330  19.478  0.1062  0.1020 -0.3977
  953BOLB   C1B22857   7.421   8.684  18.596  0.0792  0.1381 -0.1176
  953BOLB   C2B22858   7.081   8.842  18.380 -0.1041  0.0003  0.1624
  953BOLB   C3B22859   6.846   9.159  18.429 -0.0288  0.3887 -0.2229
  953BOLB   C4B22860   6.681   9.190  18.811  0.4297  0.0923 -0.2923
  953BOLB   NC222861   5.229   8.756  21.074  0.2150 -0.2822  0.1849
  953BOLB   PO222862   5.100   8.436  20.765 -0.0415  0.0770  0.0160
  953BOLB   GL322863   5.376   8.105  20.634  0.1404 -0.0732  0.1324
  953BOLB   GL422864   5.466   7.837  20.766 -0.1277  0.1775  0.2326
  953BOLB   C1C22865   5.677   7.974  20.271  0.0333  0.0740  0.2963
  953BOLB   C2C22866   6.139   7.896  20.146  0.0836  0.0524  0.0200
  953BOLB   C3C22867   6.512   7.898  19.992 -0.0603 -0.3643  0.2171
  953BOLB   C4C22868   6.810   8.063  19.840 -0.2422  0.2815 -0.0228
  953BOLB   C1D22869   5.672   7.558  20.519 -0.1410 -0.3590 -0.1197
  953BOLB   C2D22870   5.589   7.115  20.322  0.0019 -0.1648 -0.1574
  953BOLB   C3D22871   5.814   6.757  20.324 -0.1807 -0.0084 -0.0268
  953BOLB   C4D22872   6.068   6.638  20.579 -0.3038 -0.1141 -0.0319
  954BOLB   NC122873   9.559   2.941  23.372  0.1544 -0.3714 -0.1565
  954BOLB   PO122874   9.362   2.724  23.060  0.0747  0.1402  0.2317
  954BOLB   GL122875   9.500   2.858  22.811  0.0494  0.2798 -0.0756
  954BOLB   GL222876   9.328   3.152  22.658  0.1879  0.0290  0.0004
  954BOLB   C1A22877   9.797   3.150  22.885 -0.3634  0.3502  0.1391
  954BOLB   C2A22878   9.977   3.384  22.653  0.1383  0.0833 -0.0344
  954BOLB   C3A22879  10.318   3.698  22.709  0.0260 -0.2661  0.0467
  954BOLB   C4A22880  10.739   3.666  22.579  0.1389  0.2178 -0.2250
  954BOLB   C1B22881   9.448   3.548  22.785 -0.0778 -0.1960 -0.0106
  954BOLB   C2B22882   9.327   3.799  23.208 -0.1572  0.2443  0.1779
  954BOLB   C3B22883   9.409   4.256  23.298  0.2743 -0.4153  0.0820
  954BOLB   C4B22884   9.365   4.776  23.472  0.2207 -0.0995  0.1989
  954BOLB   NC222885  10.728   2.054  23.441 -0.1490  0.1889  0.0577
  954BOLB   PO222886  10.345   1.944  23.240  0.1573  0.4028 -0.4041
  954BOLB   GL322887  10.438   2.099  22.833 -0.2245 -0.0595 -0.0064
  954BOLB   GL422888  10.492   1.920  22.433  0.0875 -0.0613 -0.1094
  954BOLB   C1C22889  10.721   2.303  22.553 -0.0754 -0.3741 -0.2513
  954BOLB   C2C22890  11.040   2.568  22.329 -0.0563 -0.2556  0.1061
  954BOLB   C3C22891  11.146   3.027  22.477  0.1425  0.3505  0.3098
  954BOLB   C4C22892  11.012   3.411  22.505  0.1711  0.2665  0.1275
  954BOLB   C1D22893  10.098   2.232  22.305 -0.4070 -0.1012 -0.0273
  954BOLB   C2D22894  10.049   2.600  21.957  0.2274  0.1070  0.0183
  954BOLB   C3D22895   9.782   2.851  21.754  0.1380  0.1666  0.0757
  954BOLB   C4D22896   9.607   3.200  21.653  0.3235 -0.0532  0.3791
  955BOLB   NC122897  19.857   5.113   3.410  0.0728 -0.0049  0.1194
  955BOLB   PO122898  19.584   4.770   3.129  0.0565  0.0683 -0.0382
  955BOLB   GL122899  19.231   4.731   3.266  0.1469  0.0771  0.1065
  955BOLB   GL222900  19.039   4.475   3.235  0.0854  0.2136 -0.1334
  955BOLB   C1A22901  19.102   4.937   3.619  0.2477  0.1363  0.1198
  955BOLB   C2A22902  18.702   5.019   3.916 -0.0414 -0.0041  0.0067
  955BOLB   C3A22903  18.675   4.976   4.418  0.0147 -0.2831 -0.3647
  955BOLB   C4A22904  18.767   4.991   4.977 -0.1306  0.1893 -0.5345
  955BOLB   C1B22905  18.840   4.587   3.513  0.0625  0.1964  0.1149
  955BOLB   C2B22906  18.890   4.344   3.844 -0.1215 -0.1327  0.1896
  955BOLB   C3B22907  19.071   4.070   4.263 -0.1163 -0.2282 -0.0113
  955BOLB   C4B22908  19.059   3.681   4.445 -0.0535  0.0962  0.0809
  955BOLB   NC222909  20.445   6.100   4.353 -0.2956 -0.1506  0.2631
  955BOLB   PO222910  20.340   6.384   4.684  0.3651  0.2158  0.0516
  955BOLB   GL322911  19.937   6.359   4.876  0.0001 -0.0539  0.2566
  955BOLB   GL422912  19.869   5.990   4.885  0.0262 -0.2400 -0.3918
  955BOLB   C1C22913  19.452   6.316   4.786 -0.0008  0.2784 -0.3778
  955BOLB   C2C22914  19.136   6.110   5.045  0.0722 -0.1094 -0.0661
  955BOLB   C3C22915  19.232   5.680   5.165  0.0409 -0.0550  0.2287
  955BOLB   C4C22916  19.076   5.280   5.089 -0.2635 -0.2618  0.0194
  955BOLB   C1D22917  19.629   6.139   5.273  0.1405  0.0391  0.0480
  955BOLB   C2D22918  19.290   6.008   5.518  0.0523 -0.0817 -0.1357
  955BOLB   C3D22919  19.039   5.539   5.653  0.1538  0.1899 -0.1154
  955BOLB   C4D22920  18.736   5.326   5.477 -0.0799  0.1680  0.2010
  956BOLB   NC122921   5.510  14.282   7.605  0.0001  0.0889 -0.4141
  956BOLB   PO122922   5.912  14.472   7.648  0.1774  0.1539  0.0871
  956BOLB   GL122923   6.041  14.000   7.510 -0.2354  0.0267  0.1618
  956BOLB   GL222924   5.818  13.787   7.522 -0.1429 -0.0539 -0.4485
  956BOLB   C1A22925   6.411  13.878   7.440  0.0145  0.0044  0.0937
  956BOLB   C2A22926   6.847  13.625   7.498 -0.0597  0.3420  0.2065
  956BOLB   C3A22927   7.179  13.400   7.246 -0.2161 -0.0316 -0.0539
  956BOLB   C4A22928   7.071  12.936   7.268 -0.3977 -0.1752  0.1922
  956BOLB   C1B22929   5.677  13.441   7.235  0.1391  0.1975  0.1735
  956BOLB   C2B22930   5.433  13.160   7.072 -0.0010 -0.0691  0.1967
  956BOLB   C3B22931   5.496  12.725   6.948 -0.1036  0.1884 -0.1916
  956BOLB   C4B22932   5.767  12.382   7.203 -0.2270 -0.2103 -0.0470
  956BOLB   NC222933   4.882  12.824   6.334 -0.0441 -0.0969  0.2184
  956BOLB   PO222934   5.012  12.957   5.999 -0.0391  0.1081  0.2502
  956BOLB   GL322935   5.356  12.949   6.347  0.3791 -0.0861  0.1759
  956BOLB   GL422936   5.335  12.667   6.487  0.3803 -0.0561 -0.2188
  956BOLB   C1C22937   5.850  12.829   6.519  0.1395  0.2945  0.0947
  956BOLB   C2C22938   6.057  12.629   6.869  0.5094 -0.3232  0.1799
  956BOLB   C3C22939   6.407  12.498   6.934  0.0758  0.2560 -0.2454
  956BOLB   C4C22940   6.738  12.625   7.230 -0.4986  0.0127 -0.1716
  956BOLB   C1D22941   5.686  12.380   6.695  0.0810 -0.1450  0.3498
  956BOLB   C2D22942   5.712  11.983   6.881 -0.0372 -0.0611 -0.0653
  956BOLB   C3D22943   5.851  11.783   7.255 -0.0255  0.0250  0.1615
  956BOLB   C4D22944   6.105  11.579   7.139  0.2516 -0.2353 -0.2840
  957BOLB   NC122945  10.732   7.667  26.073 -0.3106  0.0618 -0.0986
  957BOLB   PO122946  10.831   7.351  26.404 -0.2430  0.3053 -0.0580
  957BOLB   GL122947  11.066   7.247  25.991  0.1087 -0.4077  0.0566
  957BOLB   GL222948  11.385   7.202  26.084 -0.1558  0.0757 -0.4904
  957BOLB   C1A22949  11.265   7.260  25.646 -0.1565  0.0272 -0.0573
  957BOLB   C2A22950  11.197   7.122  25.267  0.3194  0.1315 -0.0084
  957BOLB   C3A22951  10.982   6.975  24.902  0.0571  0.2524 -0.1254
  957BOLB   C4A22952  10.905   7.146  24.463 -0.1135 -0.0570  0.1580
  957BOLB   C1B22953  11.699   7.367  25.876 -0.1544  0.1382 -0.2695
  957BOLB   C2B22954  12.002   7.506  25.532 -0.3725 -0.3607 -0.0743
  957BOLB   C3B22955  12.277   7.635  25.157 -0.3350  0.0677  0.1603
  957BOLB   C4B22956  12.699   7.654  24.974  0.1609 -0.1035 -0.2002
  957BOLB   NC222957   9.923   7.472  25.544  0.2228  0.1227 -0.0469
  957BOLB   PO222958   9.981   7.663  25.808 -0.1518  0.0962  0.1157
  957BOLB   GL322959  10.408   7.770  25.677 -0.1594  0.3137 -0.3810
  957BOLB   GL422960  10.725   7.440  25.623 -0.2130 -0.5224  0.1956
  957BOLB   C1C22961  10.634   7.951  25.384  0.3476 -0.0435 -0.0612
  957BOLB   C2C22962  10.842   7.986  24.965  0.0269 -0.0840  0.1208
  957BOLB   C3C22963  11.000   7.957  24.608  0.0538 -0.2571  0.2050
  957BOLB   C4C22964  11.111   7.600  24.442  0.3846  0.3126  0.0225
  957BOLB   C1D22965  10.861   7.492  25.288  0.0190  0.2300  0.0519
  957BOLB   C2D22966  10.963   7.480  24.887 -0.0993  0.1334  0.0303
  957BOLB   C3D22967  11.317   7.312  24.743 -0.1680  0.0108 -0.2777
  957BOLB   C4D22968  11.574   7.448  24.438 -0.2428  0.1319  0.0427
  958BOLB   NC122969   9.913  12.834  19.643  0.3831  0.1447  0.0234
  958BOLB   PO122970   9.516  12.831  19.781 -0.1090 -0.0689 -0.1210
  958BOLB   GL122971   9.089  12.896  19.902  0.3818 -0.2028  0.1099
  958BOLB   GL222972   8.907  13.141  20.080 -0.0457 -0.2797  0.1831
  958BOLB   C1A22973   8.595  12.772  19.977 -0.2372 -0.0396 -0.2046
  958BOLB   C2A22974   8.224  12.754  20.138  0.0815 -0.1239 -0.1725
  958BOLB   C3A22975   7.985  13.088  20.300 -0.0004 -0.0805  0.0423
  958BOLB   C4A22976   7.825  13.322  20.560  0.2648 -0.2669 -0.0370
  958BOLB   C1B22977   8.838  13.557  20.348 -0.2218 -0.1319  0.2429
  958BOLB   C2B22978   8.504  13.728  20.344 -0.1108 -0.0595 -0.1884
  958BOLB   C3B22979   8.249  13.448  20.593 -0.1264 -0.1264 -0.3417
  958BOLB   C4B22980   8.137  13.117  20.923 -0.1728 -0.0093 -0.1918
  958BOLB   NC222981   5.740  13.455  22.463 -0.0464 -0.0939  0.1078
  958BOLB   PO222982   6.126  13.489  21.969 -0.1315 -0.0184  0.0747
  958BOLB   GL322983   6.278  13.573  21.629  0.0871  0.2803 -0.0943
  958BOLB   GL422984   6.129  13.421  21.425 -0.0259  0.2680 -0.0309
  958BOLB   C1C22985   6.657  13.693  21.458  0.1175  0.3095  0.1803
  958BOLB   C2C22986   7.117  13.653  21.391  0.0937  0.2319  0.1881
  958BOLB   C3C22987   7.478  13.765  21.161 -0.0173  0.0716  0.0049
  958BOLB   C4C22988   7.578  13.631  20.848 -0.1906 -0.1739  0.1639
  958BOLB   C1D22989   6.520  13.200  21.407 -0.1958 -0.0126 -0.2602
  958BOLB   C2D22990   6.765  13.038  21.558  0.1682 -0.2707 -0.0070
  958BOLB   C3D22991   6.914  12.644  21.587 -0.0041  0.0080 -0.0175
  958BOLB   C4D22992   6.734  12.326  21.375 -0.0569  0.0675  0.1003
  959BOLB   NC122993  27.124  17.482  14.677  0.0011 -0.1236  0.2272
  959BOLB   PO122994  26.760  17.642  14.841 -0.0471  0.0700  0.3261
  959BOLB   GL122995  26.349  17.490  14.774  0.0449 -0.2944  0.2148
  959BOLB   GL222996  26.204  17.492  15.095  0.0331  0.0060  0.1844
  959BOLB   C1A22997  26.162  17.138  14.775 -0.1824  0.0562  0.0011
  959BOLB   C2A22998  25.790  16.941  14.632  0.1250 -0.3438  0.0540
  959BOLB   C3A22999  25.449  17.000  14.395 -0.1789  0.0799 -0.1586
  959BOLB   C4A23000  24.982  17.113  14.293  0.0308  0.0437  0.1229
  959BOLB   C1B23001  26.153  16.926  15.207  0.2777  0.1654 -0.1692
  959BOLB   C2B23002  25.730  16.715  15.114  0.1438 -0.1387  0.0545
  959BOLB   C3B23003  25.319  16.494  15.180  0.7588  0.3726 -0.1643
  959BOLB   C4B23004  24.995  16.348  15.390  0.0688 -0.1262 -0.1032
  959BOLB   NC223005  24.592  18.718  13.305 -0.2554  0.0227 -0.1434
  959BOLB   PO223006  24.368  18.559  12.879 -0.1838  0.3205  0.3796
  959BOLB   GL323007  24.241  18.158  13.059 -0.2468 -0.1819  0.2684
  959BOLB   GL423008  24.131  17.986  12.800 -0.0777  0.0524 -0.2283
  959BOLB   C1C23009  23.993  17.770  13.215 -0.2114 -0.1783  0.1356
  959BOLB   C2C23010  24.096  17.290  13.277  0.2778  0.0382  0.0586
  959BOLB   C3C23011  24.344  17.103  13.760 -0.1085  0.1958 -0.0100
  959BOLB   C4C23012  24.547  17.203  14.246  0.0123  0.0729  0.5143
  959BOLB   C1D23013  23.777  17.819  12.630 -0.0060 -0.2966  0.1933
  959BOLB   C2D23014  23.419  17.664  12.496 -0.0147 -0.0018  0.2205
  959BOLB   C3D23015  23.293  17.385  12.196 -0.0447 -0.2680  0.2222
  959BOLB   C4D23016  23.346  17.187  11.869 -0.0410 -0.1590 -0.1935
  960BOLB   NC123017  18.031  14.955  27.358  0.1161  0.5076  0.1526
  960BOLB   PO123018  18.297  15.176  27.057 -0.2784 -0.2217  0.0856
  960BOLB   GL123019  17.968  15.089  26.843  0.1308  0.1296  0.2186
  960BOLB   GL223020  17.824  15.373  26.650  0.2682  0.1155 -0.1762
  960BOLB   C1A23021  17.875  14.817  26.437 -0.0914 -0.0994 -0.2024
  960BOLB   C2A23022  17.558  14.842  26.144  0.0846 -0.2433 -0.1295
  960BOLB   C3A23023  17.418  15.175  25.800 -0.0944  0.1386  0.0520
  960BOLB   C4A23024  17.142  15.351  25.498  0.0367  0.2647 -0.3650
  960BOLB   C1B23025  18.213  15.232  26.381 -0.2943 -0.1945  0.2168
  960BOLB   C2B23026  18.340  15.264  26.028  0.0967 -0.2432 -0.0186
  960BOLB   C3B23027  18.707  15.317  25.667 -0.1813 -0.0275 -0.5034
  960BOLB   C4B23028  19.007  15.316  25.318 -0.3513 -0.0388 -0.0852
  960BOLB   NC223029  15.584  16.642  26.525 -0.1869  0.0172  0.0641
  960BOLB   PO223030  15.519  16.288  26.733  0.0538  0.0250 -0.0260
  960BOLB   GL323031  15.514  16.194  26.341  0.2151 -0.1124  0.4506
  960BOLB   GL423032  15.780  16.274  26.108  0.2454 -0.1637  0.0214
  960BOLB   C1C23033  15.579  15.849  26.040  0.0095 -0.1268 -0.0692
  960BOLB   C2C23034  15.984  15.723  25.964  0.0990 -0.0200 -0.0142
  960BOLB   C3C23035  16.368  15.598  25.657 -0.2918  0.0172  0.0268
  960BOLB   C4C23036  16.800  15.645  25.552  0.3387  0.2870 -0.0002
  960BOLB   C1D23037  16.167  16.216  25.917  0.0113  0.1968  0.1909
  960BOLB   C2D23038  16.529  16.001  26.059 -0.2960  0.2009  0.2134
  960BOLB   C3D23039  16.751  15.592  26.016 -0.1366  0.0180 -0.1832
  960BOLB   C4D23040  16.873  15.153  25.995  0.1573 -0.0918  0.0515
  961BOLB   NC123041  23.978  18.734  11.177  0.0219 -0.1214 -0.1629
  961BOLB   PO123042  24.085  18.763  11.633  0.1131 -0.1071 -0.2490
  961BOLB   GL123043  23.967  18.348  11.553 -0.1934 -0.1774 -0.2012
  961BOLB   GL223044  23.974  18.392  11.931  0.0640 -0.1200  0.0327
  961BOLB   C1A23045  23.709  18.052  11.677  0.0096  0.2267 -0.3607
  961BOLB   C2A23046  23.419  17.637  11.636 -0.0638 -0.2552  0.2808
  961BOLB   C3A23047  23.032  17.579  11.802 -0.3808  0.1331 -0.5001
  961BOLB   C4A23048  22.772  17.414  11.622  0.1363  0.1619 -0.4357
  961BOLB   C1B23049  23.481  18.497  11.971 -0.0456  0.1418  0.1572
  961BOLB   C2B23050  23.013  18.535  12.267 -0.0393 -0.0043  0.0355
  961BOLB   C3B23051  22.940  18.409  12.692 -0.2705 -0.0040  0.0269
  961BOLB   C4B23052  22.922  18.159  12.951 -0.1328 -0.0395 -0.0693
  961BOLB   NC223053  21.269  16.067  13.309  0.1874  0.0078  0.1289
  961BOLB   PO223054  21.673  16.206  13.444  0.0435  0.3707  0.4113
  961BOLB   GL323055  21.980  16.490  13.271  0.1103 -0.0330 -0.1668
  961BOLB   GL423056  22.069  16.240  13.100 -0.0424  0.0678  0.0303
  961BOLB   C1C23057  22.172  16.795  13.032 -0.2962 -0.2874  0.0490
  961BOLB   C2C23058  22.189  17.146  12.646 -0.1209  0.0501 -0.1661
  961BOLB   C3C23059  22.311  17.060  12.187  0.0250  0.0183  0.0379
  961BOLB   C4C23060  22.474  17.197  11.819  0.0960  0.3273  0.1971
  961BOLB   C1D23061  22.521  16.412  12.942 -0.0386 -0.3876 -0.1236
  961BOLB   C2D23062  22.921  16.649  13.000 -0.0673 -0.1970 -0.0521
  961BOLB   C3D23063  23.194  16.817  12.659  0.0910 -0.0117 -0.2086
  961BOLB   C4D23064  23.395  17.213  12.780 -0.0168  0.0466  0.0092
  962BOLB   NC123065  14.729   4.806   0.718 -0.0253 -0.1047 -0.0525
  962BOLB   PO123066  14.713   5.228   0.738  0.0273 -0.4230 -0.1976
  962BOLB   GL123067  14.865   5.140   1.113  0.0258 -0.2570  0.1480
  962BOLB   GL223068  15.155   5.049   1.307 -0.2303  0.0552  0.3115
  962BOLB   C1A23069  14.844   5.391   1.542  0.1512 -0.1184 -0.1372
  962BOLB   C2A23070  14.986   5.532   1.910  0.5787 -0.2170  0.0065
  962BOLB   C3A23071  15.181   5.751   2.242 -0.1421 -0.5073 -0.2445
  962BOLB   C4A23072  15.553   5.815   2.462  0.0938  0.0966 -0.1040
  962BOLB   C1B23073  15.185   5.028   1.766 -0.1876  0.1316  0.0727
  962BOLB   C2B23074  15.181   5.161   2.198 -0.1727  0.0690 -0.0230
  962BOLB   C3B23075  15.201   5.251   2.630  0.1499  0.1854 -0.1512
  962BOLB   C4B23076  14.899   5.381   2.887  0.0123  0.0726 -0.2227
  962BOLB   NC223077  16.351   6.241   0.953 -0.2384  0.0820  0.3015
  962BOLB   PO223078  16.711   6.529   0.919 -0.0125  0.1293 -0.1901
  962BOLB   GL323079  16.709   6.333   1.308  0.2114 -0.2353 -0.1052
  962BOLB   GL423080  16.926   6.125   1.539  0.1530 -0.2817  0.1501
  962BOLB   C1C23081  16.505   6.431   1.718  0.0451 -0.0796  0.0157
  962BOLB   C2C23082  16.323   6.726   1.982  0.1468 -0.0449  0.0247
  962BOLB   C3C23083  16.055   6.487   2.115 -0.1103 -0.2100 -0.1851
  962BOLB   C4C23084  15.844   6.180   2.329 -0.0804 -0.0228 -0.4244
  962BOLB   C1D23085  16.996   6.416   1.831  0.0984  0.3387  0.0390
  962BOLB   C2D23086  16.797   6.665   2.178  0.0760  0.1543 -0.0844
  962BOLB   C3D23087  16.649   7.147   2.172  0.2028 -0.1814  0.5322
  962BOLB   C4D23088  16.562   7.266   2.511 -0.0496 -0.2276  0.0304
  963BOLB   NC123089  19.324   2.976  11.521 -0.0442  0.3202 -0.1464
  963BOLB   PO123090  19.822   2.828  11.525  0.1861  0.1387  0.2291
  963BOLB   GL123091  20.157   2.764  11.286 -0.0632  0.0161 -0.0029
  963BOLB   GL223092  20.095   3.038  11.085 -0.2386 -0.0778 -0.0015
  963BOLB   C1A23093  20.621   2.560  11.258  0.1826  0.2794 -0.1312
  963BOLB   C2A23094  20.975   2.709  11.322 -0.0540  0.0318  0.3774
  963BOLB   C3A23095  21.350   2.679  11.206 -0.0207  0.2452  0.0313
  963BOLB   C4A23096  21.803   2.647  11.231  0.0006 -0.0125  0.2023
  963BOLB   C1B23097  20.243   2.676  10.749  0.1617  0.0228 -0.0157
  963BOLB   C2B23098  20.504   2.403  10.672 -0.5875  0.3267  0.3331
  963BOLB   C3B23099  20.802   2.041  10.607  0.0095 -0.3780  0.0741
  963BOLB   C4B23100  21.303   2.064  10.527  0.3813 -0.0197 -0.1670
  963BOLB   NC223101  23.489   1.076  10.798 -0.0549 -0.5213 -0.1325
  963BOLB   PO223102  23.329   1.245  10.340  0.3168  0.1131 -0.1719
  963BOLB   GL323103  23.059   1.484  10.644  0.3688 -0.0688 -0.1951
  963BOLB   GL423104  22.791   1.535  10.518 -0.2378 -0.2561 -0.0979
  963BOLB   C1C23105  22.912   1.933  10.838  0.0667 -0.1482  0.0477
  963BOLB   C2C23106  22.872   2.306  11.025 -0.1049 -0.1266 -0.0033
  963BOLB   C3C23107  22.534   2.384  11.222 -0.2303 -0.2980  0.4100
  963BOLB   C4C23108  22.263   2.657  11.234  0.1174 -0.2532 -0.1314
  963BOLB   C1D23109  22.445   1.895  10.428  0.2545  0.2468  0.0928
  963BOLB   C2D23110  22.245   2.224  10.507 -0.1001 -0.0992 -0.2021
  963BOLB   C3D23111  22.042   2.538  10.290 -0.0938  0.0028  0.0952
  963BOLB   C4D23112  21.859   2.452   9.907 -0.1139 -0.0037 -0.3022
  964BOLB   NC123113   3.210   5.975   7.082 -0.4040 -0.2513  0.1602
  964BOLB   PO123114   3.503   5.846   7.493  0.0882  0.1671  0.1286
  964BOLB   GL123115   3.754   5.908   7.804 -0.1145 -0.0460 -0.1160
  964BOLB   GL223116   3.663   6.179   7.951  0.3284  0.3667 -0.0226
  964BOLB   C1A23117   3.840   5.724   8.201 -0.4185 -0.1174  0.1254
  964BOLB   C2A23118   4.115   5.944   8.535  0.1772  0.1313 -0.0498
  964BOLB   C3A23119   4.303   6.357   8.581 -0.0037  0.0161 -0.1422
  964BOLB   C4A23120   4.360   6.629   8.307  0.0343 -0.2219  0.0957
  964BOLB   C1B23121   4.164   6.210   8.117  0.1248  0.0204 -0.0936
  964BOLB   C2B23122   4.617   6.067   8.173 -0.1711 -0.0076 -0.4974
  964BOLB   C3B23123   4.989   6.176   8.462 -0.0931 -0.0533  0.2717
  964BOLB   C4B23124   5.106   6.158   8.834  0.0096 -0.1753 -0.2945
  964BOLB   NC223125   2.508   7.811   6.897 -0.0267  0.1080  0.0487
  964BOLB   PO223126   3.069   7.823   6.829  0.2362 -0.1111  0.2314
  964BOLB   GL323127   3.420   7.789   7.028 -0.2116 -0.0427  0.0128
  964BOLB   GL423128   3.537   8.116   7.133 -0.0012  0.2183 -0.1426
  964BOLB   C1C23129   3.644   7.712   7.457  0.2750  0.1573 -0.1495
  964BOLB   C2C23130   3.919   7.486   7.679 -0.0796 -0.0036 -0.1154
  964BOLB   C3C23131   4.287   7.217   7.816  0.1187 -0.1045 -0.0667
  964BOLB   C4C23132   4.259   6.796   7.923 -0.2068 -0.1070 -0.1424
  964BOLB   C1D23133   3.866   8.209   7.300 -0.1806  0.0235  0.4442
  964BOLB   C2D23134   4.078   8.512   7.568  0.0168  0.2862  0.1914
  964BOLB   C3D23135   4.296   8.414   7.946  0.1676  0.0437  0.1706
  964BOLB   C4D23136   4.481   8.701   8.273  0.4337  0.0433  0.1376
  965BOLB   NC123137  14.430  34.074   4.661 -0.2271 -0.0781 -0.2079
  965BOLB   PO123138  14.245  34.511   4.744 -0.1656 -0.0649  0.1194
  965BOLB   GL123139  14.199  34.636   5.184 -0.0064  0.0517 -0.2102
  965BOLB   GL223140  14.577  34.807   5.174 -0.1121 -0.0493  0.0357
  965BOLB   C1A23141  13.989  34.670   5.515 -0.2553 -0.0896  0.0935
  965BOLB   C2A23142  14.059  34.756   5.951 -0.2151 -0.0833  0.0428
  965BOLB   C3A23143  14.057  34.716   6.407  0.2518  0.1690 -0.2135
  965BOLB   C4A23144  14.318  34.726   6.755  0.0647  0.0240 -0.3285
  965BOLB   C1B23145  14.423  34.904   5.613  0.1108 -0.0323 -0.3859
  965BOLB   C2B23146  14.544  34.754   6.090  0.1265 -0.0157 -0.2065
  965BOLB   C3B23147  14.588  34.518   6.416 -0.2379 -0.4414  0.0215
  965BOLB   C4B23148  14.683  34.333   6.730  0.0248  0.1466 -0.0128
  965BOLB   NC223149  15.035  33.117   6.221 -0.0619  0.1476  0.1674
  965BOLB   PO223150  15.129  33.202   6.569 -0.0547 -0.1926  0.1807
  965BOLB   GL323151  15.260  33.640   6.675 -0.1557  0.1261  0.0602
  965BOLB   GL423152  15.566  33.749   6.738 -0.1749 -0.0384 -0.0909
  965BOLB   C1C23153  15.058  34.059   6.656  0.1760 -0.0337 -0.1998
  965BOLB   C2C23154  15.133  34.317   6.902 -0.2454 -0.1661  0.1394
  965BOLB   C3C23155  15.085  34.647   7.185  0.0836 -0.5191  0.2277
  965BOLB   C4C23156  14.743  34.833   6.996 -0.0669 -0.0081  0.1431
  965BOLB   C1D23157  15.613  34.242   6.657  0.1441  0.3185  0.4076
  965BOLB   C2D23158  15.641  34.687   6.396  0.0681 -0.0111 -0.1664
  965BOLB   C3D23159  15.976  35.035   6.366  0.1365  0.4332  0.1417
  965BOLB   C4D23160  16.086  35.510   6.374  0.1130 -0.1328  0.2720
  966BOLB   NC123161  17.301  33.858  15.729 -0.0285  0.5392 -0.1785
  966BOLB   PO123162  17.518  33.962  15.474  0.3228 -0.0590 -0.1432
  966BOLB   GL123163  17.349  34.205  15.185  0.3075 -0.0485  0.1252
  966BOLB   GL223164  17.035  34.061  15.205 -0.2820  0.0249  0.1790
  966BOLB   C1A23165  17.282  34.350  14.832 -0.1064 -0.2879 -0.0371
  966BOLB   C2A23166  17.524  34.680  14.698 -0.1856  0.0037  0.0287
  966BOLB   C3A23167  17.819  34.858  14.704 -0.4632 -0.0077 -0.0163
  966BOLB   C4A23168  17.925  35.112  14.267  0.0331  0.0514  0.1830
  966BOLB   C1B23169  16.808  34.277  15.426 -0.1326 -0.2556  0.0254
  966BOLB   C2B23170  16.480  34.496  15.315  0.1524  0.0734 -0.0462
  966BOLB   C3B23171  16.286  34.725  14.947  0.0967 -0.2289 -0.0813
  966BOLB   C4B23172  16.540  34.989  14.587  0.2719  0.0306 -0.2480
  966BOLB   NC223173  19.860  33.919  13.763 -0.3777 -0.2670  0.1904
  966BOLB   PO223174  19.858  34.146  13.395 -0.1714 -0.0661 -0.0650
  966BOLB   GL323175  19.554  34.416  13.614  0.0464 -0.2033  0.0859
  966BOLB   GL423176  19.579  34.466  13.976 -0.3141  0.1441  0.1625
  966BOLB   C1C23177  19.280  34.705  13.456  0.1552 -0.1225  0.1056
  966BOLB   C2C23178  18.860  34.867  13.504 -0.0208  0.0193  0.1359
  966BOLB   C3C23179  18.437  35.039  13.616 -0.0253  0.2759  0.1206
  966BOLB   C4C23180  18.165  34.994  13.915 -0.1258 -0.0578  0.1032
  966BOLB   C1D23181  19.831  34.895  14.075 -0.0460  0.2396  0.1509
  966BOLB   C2D23182  19.704  35.256  14.270 -0.2186  0.1838 -0.1538
  966BOLB   C3D23183  19.416  35.293  14.628  0.0850 -0.4776 -0.0534
  966BOLB   C4D23184  19.293  35.545  14.975 -0.3023  0.2082 -0.2259
  967BOLB   NC123185   5.538  11.435   4.740  0.1001  0.1865  0.4383
  967BOLB   PO123186   5.692  11.050   4.616  0.1818 -0.0511  0.0150
  967BOLB   GL123187   6.143  10.967   4.539  0.0587  0.0836 -0.2620
  967BOLB   GL223188   6.024  10.718   4.814 -0.4116 -0.2725 -0.1776
  967BOLB   C1A23189   6.536  10.719   4.834  0.2503 -0.0477  0.2321
  967BOLB   C2A23190   6.889  10.648   4.916 -0.1896 -0.0407 -0.2715
  967BOLB   C3A23191   7.246  10.645   4.725  0.0281  0.0516 -0.0889
  967BOLB   C4A23192   7.566  10.965   4.829 -0.0357  0.3816  0.4082
  967BOLB   C1B23193   6.238  10.618   5.256 -0.1381  0.1299  0.3665
  967BOLB   C2B23194   6.470  10.674   5.617  0.1259  0.0092 -0.0439
  967BOLB   C3B23195   6.687  11.026   5.837  0.0744 -0.1058  0.0312
  967BOLB   C4B23196   6.821  11.146   6.235  0.1822  0.1252 -0.1492
  967BOLB   NC223197   7.974  12.671   3.013  0.0961 -0.2143  0.1571
  967BOLB   PO223198   7.678  12.459   3.228 -0.0002 -0.3237  0.0195
  967BOLB   GL323199   7.942  12.385   3.637  0.0193  0.3183  0.2167
  967BOLB   GL423200   8.029  12.555   3.904  0.4202 -0.1878  0.2780
  967BOLB   C1C23201   7.973  12.055   3.949 -0.2520  0.1763  0.0435
  967BOLB   C2C23202   8.082  11.817   4.332  0.2741 -0.3615 -0.1022
  967BOLB   C3C23203   7.944  11.659   4.653 -0.1634 -0.2204 -0.0506
  967BOLB   C4C23204   7.766  11.336   4.896 -0.1144 -0.1926  0.2094
  967BOLB   C1D23205   8.164  12.391   4.312  0.0982 -0.1603 -0.2253
  967BOLB   C2D23206   8.143  12.146   4.692  0.1796  0.0338  0.1935
  967BOLB   C3D23207   8.096  11.837   5.087 -0.2112  0.3247 -0.1774
  967BOLB   C4D23208   8.554  11.931   5.270 -0.0003  0.2600 -0.1949
  968BOLB   NC123209  12.002   1.292   3.436 -0.0991 -0.2153  0.3586
  968BOLB   PO123210  12.003   1.713   3.233  0.1114 -0.0449 -0.0360
  968BOLB   GL123211  12.124   2.103   3.307 -0.1788 -0.0322  0.3561
  968BOLB   GL223212  12.422   2.286   3.084  0.0280 -0.1050 -0.0707
  968BOLB   C1A23213  11.945   2.359   3.720  0.2830 -0.3040  0.0319
  968BOLB   C2A23214  11.715   2.434   4.056 -0.0442  0.1102 -0.2986
  968BOLB   C3A23215  11.263   2.551   4.261 -0.1570 -0.2188 -0.3058
  968BOLB   C4A23216  11.110   2.709   4.651 -0.2174 -0.0884 -0.0527
  968BOLB   C1B23217  12.485   2.687   3.187  0.3148  0.4747 -0.3681
  968BOLB   C2B23218  12.748   2.934   3.544  0.2997  0.1451  0.2470
  968BOLB   C3B23219  13.100   3.051   3.490  0.0810  0.2110 -0.1771
  968BOLB   C4B23220  13.354   3.178   3.182 -0.1874 -0.0236 -0.2018
  968BOLB   NC223221   9.018   1.912   4.277  0.2353  0.0723 -0.1118
  968BOLB   PO223222   9.208   2.239   4.038  0.1197  0.2483 -0.4575
  968BOLB   GL323223   9.424   2.638   4.204 -0.1842  0.0321  0.0873
  968BOLB   GL423224   9.175   2.723   4.412  0.2297  0.2273 -0.2139
  968BOLB   C1C23225   9.696   2.927   4.562 -0.0543 -0.2141  0.1022
  968BOLB   C2C23226  10.024   3.144   4.792  0.1603  0.2118 -0.0367
  968BOLB   C3C23227  10.453   3.247   4.772  0.3718  0.1219  0.3196
  968BOLB   C4C23228  10.843   3.084   4.922 -0.0417  0.0079  0.0463
  968BOLB   C1D23229   9.352   2.774   4.937  0.1336  0.1684 -0.4068
  968BOLB   C2D23230   9.566   3.067   5.264 -0.0979 -0.2523  0.0498
  968BOLB   C3D23231   9.507   3.047   5.723 -0.0841  0.1464 -0.1885
  968BOLB   C4D23232   9.338   2.853   6.083 -0.0397 -0.1739  0.0978
  969BOLB   NC123233   8.822  33.955   9.042 -0.0214  0.2399 -0.1274
  969BOLB   PO123234   8.464  34.065   9.162  0.1308  0.1957  0.0482
  969BOLB   GL123235   8.560  34.528   9.045  0.2571  0.3761 -0.1024
  969BOLB   GL223236   8.362  34.870   9.317  0.2027  0.0400 -0.2276
  969BOLB   C1A23237   8.709  34.930   8.954 -0.1022  0.3705 -0.0772
  969BOLB   C2A23238   8.685  35.319   8.809 -0.1033 -0.1050  0.1834
  969BOLB   C3A23239   8.480  35.736   8.752  0.2014 -0.1781  0.1536
  969BOLB   C4A23240   8.284  36.126   8.696  0.3740 -0.2662 -0.1275
  969BOLB   C1B23241   8.649  35.327   9.376 -0.0381 -0.1664 -0.1598
  969BOLB   C2B23242   8.772  35.691   9.275 -0.1158 -0.3581  0.0145
  969BOLB   C3B23243   8.826  36.102   9.077 -0.0547  0.0324  0.2654
  969BOLB   C4B23244   9.190  36.482   8.986  0.3016 -0.0859 -0.0589
  969BOLB   NC223245   7.352  35.808   7.610  0.7106  0.0544 -0.0736
  969BOLB   PO223246   7.048  36.058   7.397  0.2827  0.0023 -0.0278
  969BOLB   GL323247   7.204  36.485   7.612  0.3537 -0.0794 -0.1001
  969BOLB   GL423248   7.120  36.452   7.888 -0.3092 -0.2552  0.2203
  969BOLB   C1C23249   7.511  36.755   7.711 -0.0229  0.2187  0.1707
  969BOLB   C2C23250   7.744  36.950   8.204  0.2116  0.0577 -0.0528
  969BOLB   C3C23251   7.973  36.863   8.538  0.0888  0.1362 -0.0082
  969BOLB   C4C23252   8.185  36.451   8.545 -0.4250  0.0874 -0.2093
  969BOLB   C1D23253   7.243  36.774   8.278 -0.0141 -0.2953  0.2174
  969BOLB   C2D23254   7.492  36.788   8.653  0.0965  0.0134  0.0992
  969BOLB   C3D23255   7.776  36.922   9.035 -0.2359  0.1714  0.0369
  969BOLB   C4D23256   7.981  36.998   9.270  0.1126 -0.0863  0.0850
  970BOLB   NC123257  24.230  12.175  13.890  0.1301  0.1654  0.3714
  970BOLB   PO123258  24.203  11.713  14.145  0.2164 -0.0881  0.0829
  970BOLB   GL123259  24.555  11.716  13.924  0.2337  0.1835  0.0233
  970BOLB   GL223260  24.707  11.522  13.769  0.2648  0.2722 -0.1198
  970BOLB   C1A23261  24.964  11.928  13.855  0.0765 -0.1505 -0.1962
  970BOLB   C2A23262  25.321  11.961  13.673 -0.0511  0.0835  0.0842
  970BOLB   C3A23263  25.560  11.989  13.323 -0.0560  0.0719 -0.0440
  970BOLB   C4A23264  25.567  12.246  13.004  0.0421 -0.0955 -0.2234
  970BOLB   C1B23265  25.203  11.421  13.632  0.0689 -0.2906  0.0878
  970BOLB   C2B23266  25.658  11.296  13.529 -0.1685 -0.3817 -0.0447
  970BOLB   C3B23267  26.028  11.222  13.689  0.2355  0.2681  0.0360
  970BOLB   C4B23268  26.154  11.071  14.162  0.0861  0.1089 -0.1574
  970BOLB   NC223269  27.053  13.144  10.944 -0.2420  0.2355 -0.2867
  970BOLB   PO223270  27.103  12.784  11.062 -0.0193 -0.1036 -0.2101
  970BOLB   GL323271  26.780  12.531  11.205 -0.1160  0.2169 -0.1399
  970BOLB   GL423272  26.764  12.403  10.877 -0.0649  0.2196  0.1205
  970BOLB   C1C23273  26.548  12.332  11.559 -0.0068  0.0360  0.2087
  970BOLB   C2C23274  26.198  12.450  11.927 -0.2252  0.0577  0.0833
  970BOLB   C3C23275  26.110  12.411  12.341  0.0778 -0.2255 -0.2329
  970BOLB   C4C23276  25.780  12.163  12.667  0.2345 -0.0287 -0.4525
  970BOLB   C1D23277  26.437  12.061  10.887  0.0541 -0.1729  0.1232
  970BOLB   C2D23278  26.124  11.833  11.086  0.0409 -0.0900  0.2554
  970BOLB   C3D23279  25.901  11.441  11.039  0.0701  0.0818  0.0560
  970BOLB   C4D23280  25.573  11.135  10.873 -0.0180  0.1022 -0.5594
  971BOLB   NC123281  13.639  17.904  25.289 -0.1754  0.0365  0.2642
  971BOLB   PO123282  13.953  18.210  25.453 -0.1369 -0.2457 -0.0952
  971BOLB   GL123283  14.157  17.853  25.195  0.2200 -0.0410 -0.0853
  971BOLB   GL223284  14.450  17.689  25.148  0.1325  0.0443  0.1235
  971BOLB   C1A23285  14.146  17.722  24.683  0.0271 -0.1966 -0.0062
  971BOLB   C2A23286  13.979  17.696  24.280  0.0483 -0.2966  0.0004
  971BOLB   C3A23287  13.825  17.771  23.843  0.3017 -0.4035 -0.2616
  971BOLB   C4A23288  13.685  18.051  23.558  0.2070  0.0221 -0.1214
  971BOLB   C1B23289  14.501  17.408  24.882 -0.0977 -0.1595 -0.0052
  971BOLB   C2B23290  14.680  17.079  24.690 -0.2361 -0.1347  0.0266
  971BOLB   C3B23291  14.784  17.039  24.336 -0.1030 -0.1909  0.0129
  971BOLB   C4B23292  15.080  17.201  24.018  0.0900 -0.1360  0.0414
  971BOLB   NC223293  12.889  18.815  24.141 -0.4117 -0.2478  0.1377
  971BOLB   PO223294  12.549  18.724  24.029  0.3217  0.0053  0.1990
  971BOLB   GL323295  12.367  18.561  23.577 -0.1399 -0.0782  0.1885
  971BOLB   GL423296  12.272  18.179  23.527  0.1627 -0.0964  0.1725
  971BOLB   C1C23297  12.576  18.606  23.153 -0.1869 -0.2489 -0.0469
  971BOLB   C2C23298  12.963  18.366  23.071  0.0615 -0.1892 -0.1808
  971BOLB   C3C23299  13.348  18.334  22.831 -0.1038 -0.1601 -0.1233
  971BOLB   C4C23300  13.676  18.229  23.133 -0.0163  0.0796  0.1543
  971BOLB   C1D23301  12.484  18.079  23.164 -0.2389 -0.0708 -0.3490
  971BOLB   C2D23302  12.686  17.849  22.779 -0.2002  0.0125  0.1272
  971BOLB   C3D23303  12.899  17.414  22.610  0.2065  0.0057  0.1569
  971BOLB   C4D23304  12.822  17.004  22.393 -0.1163 -0.1241  0.0343
  972BOLB   NC123305  16.899   1.314   2.245  0.0445 -0.1513  0.1817
  972BOLB   PO123306  16.669   1.695   2.322 -0.2243  0.0446  0.4103
  972BOLB   GL123307  16.731   1.815   2.745  0.1922 -0.1671  0.1668
  972BOLB   GL223308  16.752   2.108   2.823 -0.4380 -0.0525  0.3859
  972BOLB   C1A23309  17.113   1.762   3.034  0.1162  0.0344  0.1782
  972BOLB   C2A23310  17.349   1.656   3.443  0.1211  0.2108  0.2805
  972BOLB   C3A23311  17.467   1.779   3.800  0.3052  0.0757 -0.1658
  972BOLB   C4A23312  17.473   1.864   4.311 -0.1443  0.0339  0.1436
  972BOLB   C1B23313  16.870   2.125   3.232  0.0121  0.0371 -0.0717
  972BOLB   C2B23314  17.072   2.028   3.693  0.0163 -0.3108 -0.1375
  972BOLB   C3B23315  17.231   2.220   4.022 -0.1386  0.0297 -0.0222
  972BOLB   C4B23316  17.503   2.440   4.254  0.0532  0.1503 -0.1550
  972BOLB   NC223317  19.594   1.501   4.260 -0.2608  0.1047 -0.4734
  972BOLB   PO223318  19.843   1.825   4.489  0.1592  0.4088 -0.1307
  972BOLB   GL323319  19.399   1.797   4.692 -0.0909 -0.2998  0.0358
  972BOLB   GL423320  19.121   1.738   4.487  0.1370 -0.0338 -0.1886
  972BOLB   C1C23321  18.915   2.080   4.767  0.0001 -0.3367 -0.2687
  972BOLB   C2C23322  18.444   2.093   4.803 -0.0204  0.2689 -0.1570
  972BOLB   C3C23323  18.103   1.976   4.670 -0.0103 -0.0376 -0.0598
  972BOLB   C4C23324  17.736   1.838   4.580 -0.1922 -0.2934  0.0240
  972BOLB   C1D23325  18.723   1.638   4.754 -0.2971 -0.1134 -0.0835
  972BOLB   C2D23326  18.309   1.629   5.041  0.1668  0.1455 -0.2414
  972BOLB   C3D23327  18.102   1.805   5.359  0.0078 -0.1582  0.1184
  972BOLB   C4D23328  17.895   1.632   5.589  0.0019  0.0816 -0.1585
  973BOLB   NC123329  22.051  20.871  19.698  0.4020  0.2313 -0.1146
  973BOLB   PO123330  22.190  20.515  19.726  0.0105  0.2263  0.2025
  973BOLB   GL123331  21.888  20.232  19.734 -0.3016 -0.1356  0.0372
  973BOLB   GL223332  22.011  20.056  19.991 -0.2363  0.0271 -0.3632
  973BOLB   C1A23333  21.900  19.760  19.545  0.1229 -0.2029  0.2303
  973BOLB   C2A23334  21.996  19.415  19.248 -0.0237  0.0771  0.1613
  973BOLB   C3A23335  22.106  19.106  18.895 -0.2446  0.0800 -0.1903
  973BOLB   C4A23336  22.437  18.905  18.634  0.0235  0.0261 -0.1868
  973BOLB   C1B23337  21.649  19.711  20.061  0.0807  0.1734  0.1542
  973BOLB   C2B23338  21.435  19.396  19.911 -0.1130  0.1097  0.3255
  973BOLB   C3B23339  21.279  19.056  19.688 -0.0080 -0.2410 -0.0333
  973BOLB   C4B23340  21.601  18.654  19.622 -0.0620 -0.0048 -0.1835
  973BOLB   NC223341  23.690  21.445  18.134  0.5368  0.1196 -0.0474
  973BOLB   PO223342  23.632  21.136  17.857 -0.0904 -0.1222 -0.3034
  973BOLB   GL323343  23.370  20.783  17.771  0.3305  0.1684 -0.2246
  973BOLB   GL423344  23.227  20.708  17.518 -0.1265 -0.1293  0.0412
  973BOLB   C1C23345  23.131  20.350  17.844 -0.1561 -0.1195 -0.0749
  973BOLB   C2C23346  22.879  19.916  18.037 -0.0482  0.2054  0.1683
  973BOLB   C3C23347  22.670  19.518  18.226  0.0192 -0.1489  0.3003
  973BOLB   C4C23348  22.553  19.145  18.234  0.0779 -0.1563  0.2030
  973BOLB   C1D23349  23.264  20.297  17.283  0.2095  0.0361  0.3802
  973BOLB   C2D23350  23.081  20.137  16.873 -0.2027  0.0184 -0.0428
  973BOLB   C3D23351  22.704  20.134  16.619 -0.0530 -0.1303 -0.2733
  973BOLB   C4D23352  22.429  20.441  16.595 -0.0765 -0.1489  0.2010
  974BOLB   NC123353   9.033   9.287   1.741  0.3722  0.4009 -0.3804
  974BOLB   PO123354   9.020   9.768   1.903 -0.0832 -0.2738 -0.0257
  974BOLB   GL123355   9.085   9.479   2.287 -0.0970  0.1723 -0.0432
  974BOLB   GL223356   9.216   9.153   2.219 -0.0167  0.1769  0.1594
  974BOLB   C1A23357   9.047   9.567   2.778  0.0554  0.0615 -0.1271
  974BOLB   C2A23358   9.098   9.613   3.133 -0.1493  0.0579  0.0463
  974BOLB   C3A23359   9.054   9.564   3.507 -0.1385  0.1371 -0.1902
  974BOLB   C4A23360   9.242   9.282   3.822 -0.1125  0.0552 -0.0398
  974BOLB   C1B23361   9.350   9.192   2.620 -0.3185  0.0517  0.2607
  974BOLB   C2B23362   9.351   9.140   3.115  0.0055 -0.1384  0.1079
  974BOLB   C3B23363   9.649   9.301   3.432 -0.1734  0.0169 -0.1041
  974BOLB   C4B23364  10.103   9.289   3.513  0.1330  0.0498  0.0095
  974BOLB   NC223365   8.844   8.592   1.917  0.1603  0.2911 -0.1958
  974BOLB   PO223366   8.452   8.634   2.182 -0.0153 -0.0405  0.3644
  974BOLB   GL323367   8.870   8.555   2.429  0.0415 -0.0982  0.0168
  974BOLB   GL423368   9.184   8.215   2.438  0.1457 -0.1793 -0.3248
  974BOLB   C1C23369   9.283   8.677   2.674  0.2120  0.0691 -0.0037
  974BOLB   C2C23370   9.561   8.750   2.978  0.1703 -0.1616 -0.0916
  974BOLB   C3C23371   9.527   8.738   3.361  0.1492 -0.1036 -0.1748
  974BOLB   C4C23372   9.402   8.928   3.655 -0.0286 -0.3045 -0.2484
  974BOLB   C1D23373   9.322   7.947   2.757  0.0057  0.0092  0.1869
  974BOLB   C2D23374   9.169   7.764   3.145 -0.0070  0.4045  0.0261
  974BOLB   C3D23375   9.085   7.913   3.646 -0.1372 -0.3313 -0.3832
  974BOLB   C4D23376   9.209   8.414   3.669  0.2093  0.0462 -0.0923
  975BOLB   NC123377   1.929  10.338   9.308 -0.1243  0.1894  0.1161
  975BOLB   PO123378   1.911  10.138   9.601 -0.1700  0.2307 -0.0724
  975BOLB   GL123379   2.230  10.349   9.698  0.2048 -0.2242  0.0822
  975BOLB   GL223380   2.421  10.506   9.535 -0.0464 -0.2524 -0.2002
  975BOLB   C1A23381   2.387  10.582  10.105  0.0165 -0.0192  0.1669
  975BOLB   C2A23382   2.444  10.966  10.411 -0.1801  0.2185 -0.1539
  975BOLB   C3A23383   2.732  11.071  10.731  0.1157 -0.1816  0.2342
  975BOLB   C4A23384   2.992  11.235  10.735  0.1404  0.2606 -0.3672
  975BOLB   C1B23385   2.830  10.692   9.731 -0.0036 -0.1128 -0.1863
  975BOLB   C2B23386   3.183  10.497   9.781  0.1949  0.1330  0.0792
  975BOLB   C3B23387   3.385  10.099   9.881  0.1271  0.0285 -0.0313
  975BOLB   C4B23388   3.571   9.756   9.719  0.0666  0.0104 -0.2145
  975BOLB   NC223389   3.011  13.541  10.247 -0.1537  0.1370 -0.1705
  975BOLB   PO223390   3.265  13.356   9.971  0.1352  0.1829 -0.0249
  975BOLB   GL323391   3.242  12.969   9.745  0.0094  0.0955 -0.1434
  975BOLB   GL423392   3.578  13.124   9.566  0.0664 -0.3533  0.2940
  975BOLB   C1C23393   3.380  12.637   9.853 -0.0753  0.1123 -0.0440
  975BOLB   C2C23394   3.320  12.316  10.009  0.0615  0.3601  0.1284
  975BOLB   C3C23395   3.345  11.957  10.394 -0.0725 -0.0690 -0.0804
  975BOLB   C4C23396   3.179  11.531  10.539  0.2063 -0.0449 -0.3346
  975BOLB   C1D23397   3.878  12.891   9.861  0.1779 -0.1885 -0.1683
  975BOLB   C2D23398   3.846  12.482   9.957  0.0406 -0.1159  0.0247
  975BOLB   C3D23399   3.764  12.120  10.221  0.0370 -0.0049  0.1201
  975BOLB   C4D23400   4.080  12.045  10.563  0.0207  0.0395  0.2567
  976BOLB   NC123401  26.772  12.770  10.001 -0.1714 -0.1556  0.3072
  976BOLB   PO123402  26.736  12.430  10.324 -0.1606  0.1900  0.3147
  976BOLB   GL123403  26.336  12.495  10.543 -0.3706 -0.0107  0.0505
  976BOLB   GL223404  26.024  12.493  10.446  0.2702  0.0593  0.1590
  976BOLB   C1A23405  26.233  12.585  10.866  0.0371 -0.0412  0.1297
  976BOLB   C2A23406  26.151  12.415  11.272 -0.0942  0.0916  0.0216
  976BOLB   C3A23407  26.132  12.134  11.565  0.0982  0.3038 -0.2693
  976BOLB   C4A23408  25.857  12.109  11.880  0.4651  0.0454 -0.0181
  976BOLB   C1B23409  25.916  12.205  10.784 -0.2516 -0.0226  0.1121
  976BOLB   C2B23410  25.682  12.165  11.146  0.1022 -0.1659 -0.0543
  976BOLB   C3B23411  25.296  11.908  11.174 -0.4843 -0.0850 -0.0889
  976BOLB   C4B23412  24.912  11.845  11.325  0.0086  0.1785  0.0405
  976BOLB   NC223413  23.592  11.838  13.291  0.3038 -0.1416  0.2126
  976BOLB   PO223414  23.930  12.033  13.467 -0.2395  0.2348 -0.1299
  976BOLB   GL323415  24.389  12.111  13.398  0.3154  0.0852 -0.1080
  976BOLB   GL423416  24.626  12.356  13.593  0.0318 -0.0255  0.1416
  976BOLB   C1C23417  24.642  12.104  12.914 -0.1773 -0.1331 -0.0229
  976BOLB   C2C23418  25.042  12.059  12.636 -0.0537  0.0500  0.3943
  976BOLB   C3C23419  25.266  11.970  12.262 -0.0778  0.0085  0.2078
  976BOLB   C4C23420  25.612  12.100  12.193  0.0317  0.0772  0.3286
  976BOLB   C1D23421  24.722  12.661  13.365 -0.3529  0.0822  0.0184
  976BOLB   C2D23422  25.138  12.822  13.284 -0.1985  0.0084  0.1297
  976BOLB   C3D23423  25.523  12.799  13.003 -0.1626  0.0718  0.0224
  976BOLB   C4D23424  25.946  12.728  13.126 -0.2311 -0.1896  0.0578
  977BOLB   NC123425  12.750   6.612   1.306  0.3449 -0.1497 -0.1421
  977BOLB   PO123426  12.927   6.236   1.115 -0.0652  0.0171  0.3229
  977BOLB   GL123427  12.904   6.184   1.506 -0.1196  0.1643  0.0220
  977BOLB   GL223428  12.624   6.289   1.660  0.1190  0.1487  0.1351
  977BOLB   C1A23429  13.014   6.401   1.882 -0.2388 -0.3290  0.2236
  977BOLB   C2A23430  13.322   6.585   2.001  0.1656  0.0906 -0.0607
  977BOLB   C3A23431  13.613   6.916   2.031  0.3261  0.1449 -0.2045
  977BOLB   C4A23432  13.890   7.170   1.777  0.2407 -0.0849 -0.0318
  977BOLB   C1B23433  12.597   6.472   2.106  0.2553 -0.0735  0.1287
  977BOLB   C2B23434  12.319   6.488   2.432  0.2019 -0.0838  0.2338
  977BOLB   C3B23435  11.882   6.412   2.622  0.0349  0.0426 -0.0676
  977BOLB   C4B23436  11.465   6.484   2.468 -0.0845 -0.2941 -0.0882
  977BOLB   NC223437  16.043   7.128   0.830 -0.0028  0.1528 -0.0728
  977BOLB   PO223438  15.902   7.580   0.954  0.0041  0.0304 -0.0162
  977BOLB   GL323439  15.494   7.553   1.182 -0.1851  0.0967 -0.0908
  977BOLB   GL423440  15.157   7.366   1.084  0.1721  0.1596  0.1189
  977BOLB   C1C23441  15.110   7.785   1.374 -0.1359 -0.0619 -0.0487
  977BOLB   C2C23442  14.778   7.815   1.675  0.1196 -0.2683 -0.1403
  977BOLB   C3C23443  14.394   7.740   1.781  0.0549  0.3402 -0.0522
  977BOLB   C4C23444  14.134   7.442   1.691  0.2370  0.3736  0.0188
  977BOLB   C1D23445  15.221   7.225   1.522 -0.0621  0.1594 -0.1203
  977BOLB   C2D23446  14.959   7.361   1.801  0.0758  0.0248  0.2165
  977BOLB   C3D23447  14.702   7.228   2.093 -0.0452  0.2307  0.0552
  977BOLB   C4D23448  14.277   7.305   2.318 -0.3317 -0.1467 -0.1201
  978BOLB   NC123449  18.179   9.170   8.574 -0.2824 -0.1588  0.0010
  978BOLB   PO123450  18.140   9.409   8.213 -0.0934  0.1103  0.3101
  978BOLB   GL123451  18.280   9.431   7.754 -0.0933 -0.2530 -0.2074
  978BOLB   GL223452  18.632   9.584   7.968 -0.2629  0.0179  0.0992
  978BOLB   C1A23453  18.721   9.427   7.474  0.2799  0.0991 -0.1500
  978BOLB   C2A23454  19.090   9.095   7.554 -0.2657 -0.2230 -0.3035
  978BOLB   C3A23455  19.511   9.092   7.423 -0.1215  0.0822 -0.0016
  978BOLB   C4A23456  19.994   9.169   7.317  0.0028  0.2203  0.0172
  978BOLB   C1B23457  18.464   9.818   7.502 -0.1997 -0.2706  0.0242
  978BOLB   C2B23458  18.578   9.836   7.032 -0.0646 -0.0258 -0.0014
  978BOLB   C3B23459  18.397   9.547   6.605 -0.2044 -0.1816  0.2027
  978BOLB   C4B23460  18.558   9.458   6.159 -0.0832 -0.0520 -0.2231
  978BOLB   NC223461  20.897   9.531   5.367  0.0287  0.2365  0.0160
  978BOLB   PO223462  20.919   9.958   5.376  0.0860 -0.3263 -0.1362
  978BOLB   GL323463  20.820   9.921   5.824  0.0764  0.1423 -0.1253
  978BOLB   GL423464  20.662   9.558   5.839  0.0476  0.0744  0.1544
  978BOLB   C1C23465  20.753  10.006   6.201 -0.0892 -0.1898 -0.2164
  978BOLB   C2C23466  20.621   9.628   6.380  0.1785 -0.0560  0.5318
  978BOLB   C3C23467  20.512   9.498   6.652 -0.1698  0.1098 -0.4373
  978BOLB   C4C23468  20.150   9.440   7.007  0.0084 -0.0610  0.2243
  978BOLB   C1D23469  20.412   9.199   6.169 -0.0170 -0.0297 -0.0126
  978BOLB   C2D23470  20.107   8.865   6.245 -0.0114 -0.0956 -0.1488
  978BOLB   C3D23471  19.813   8.643   6.490  0.1431  0.2339 -0.1538
  978BOLB   C4D23472  19.666   8.455   6.973  0.5437 -0.0932 -0.0513
  979BOLB   NC123473   5.284  35.213  17.535 -0.1988 -0.2453  0.0072
  979BOLB   PO123474   5.251  35.594  17.257  0.1663 -0.0566  0.0411
  979BOLB   GL123475   5.683  35.657  17.293 -0.3264 -0.0013  0.2716
  979BOLB   GL223476   5.557  35.953  17.386 -0.2119  0.3617 -0.1701
  979BOLB   C1A23477   6.057  35.818  17.256 -0.0703 -0.1391  0.0320
  979BOLB   C2A23478   6.510  35.992  17.059 -0.2935  0.1618 -0.0096
  979BOLB   C3A23479   6.906  35.952  17.005  0.0538 -0.3543  0.1272
  979BOLB   C4A23480   7.303  36.215  17.205 -0.0488  0.2994 -0.0687
  979BOLB   C1B23481   5.745  36.249  17.151 -0.0169  0.3351 -0.0897
  979BOLB   C2B23482   5.717  36.585  16.953 -0.1443  0.1415 -0.0914
  979BOLB   C3B23483   5.575  36.973  17.029  0.2575  0.2495 -0.2974
  979BOLB   C4B23484   5.855  37.443  17.128 -0.4722 -0.1689  0.2511
  979BOLB   NC223485   7.050  36.509  18.905  0.6295 -0.1877  0.2511
  979BOLB   PO223486   7.087  36.745  19.304 -0.0637  0.1888  0.0960
  979BOLB   GL323487   7.041  36.991  18.835  0.2560 -0.0750  0.1524
  979BOLB   GL423488   6.850  37.200  18.880 -0.4223 -0.0343 -0.2622
  979BOLB   C1C23489   7.028  37.047  18.443  0.2941 -0.0740 -0.1846
  979BOLB   C2C23490   6.691  36.959  18.136  0.0773  0.1325 -0.0595
  979BOLB   C3C23491   6.766  36.591  17.808  0.2263 -0.1970 -0.1254
  979BOLB   C4C23492   7.146  36.520  17.500  0.0280  0.2105 -0.2938
  979BOLB   C1D23493   7.226  37.428  18.724  0.2294 -0.1356 -0.2245
  979BOLB   C2D23494   7.317  37.539  18.392 -0.2370  0.1426  0.2066
  979BOLB   C3D23495   7.287  37.850  18.085  0.0293 -0.3109  0.2757
  979BOLB   C4D23496   7.174  38.124  17.733 -0.0521  0.0736 -0.0565
  980BOLB   NC123497   3.422   0.357  14.191  0.1042  0.0448 -0.0909
  980BOLB   PO123498   3.562   0.620  14.512  0.0417  0.0582  0.1675
  980BOLB   GL123499   3.910   0.884  14.447 -0.3545  0.0583 -0.0832
  980BOLB   GL223500   4.054   0.685  14.229  0.0074 -0.2811  0.1789
  980BOLB   C1A23501   4.236   1.180  14.503  0.1080  0.1627 -0.1010
  980BOLB   C2A23502   4.640   1.297  14.384  0.1487 -0.3337  0.0032
  980BOLB   C3A23503   4.769   1.469  14.014  0.1476 -0.0025  0.1104
  980BOLB   C4A23504   4.727   1.621  13.593 -0.1760  0.3635 -0.2606
  980BOLB   C1B23505   4.315   0.430  14.007  0.0047  0.1699  0.1402
  980BOLB   C2B23506   4.701   0.490  13.980 -0.2177  0.1309 -0.2131
  980BOLB   C3B23507   5.070   0.230  14.166  0.0033  0.0970  0.0344
  980BOLB   C4B23508   5.329   0.139  14.495 -0.0137 -0.1354 -0.0724
  980BOLB   NC223509   2.201   1.100  13.493 -0.1854 -0.0747 -0.2164
  980BOLB   PO223510   2.413   1.505  13.369 -0.1355  0.1913 -0.0204
  980BOLB   GL323511   2.769   1.605  13.421  0.1609 -0.1010 -0.2484
  980BOLB   GL423512   2.857   1.869  13.619  0.5665  0.3814  0.0248
  980BOLB   C1C23513   3.262   1.736  13.294  0.2893 -0.0453  0.0071
  980BOLB   C2C23514   3.728   1.883  13.364 -0.2363 -0.1859 -0.1298
  980BOLB   C3C23515   4.190   1.850  13.287 -0.0768  0.0507  0.0800
  980BOLB   C4C23516   4.651   1.948  13.376 -0.0592 -0.1583 -0.2707
  980BOLB   C1D23517   3.386   1.953  13.759  0.2439 -0.1001  0.1948
  980BOLB   C2D23518   3.740   2.226  13.837 -0.1681  0.2172 -0.0094
  980BOLB   C3D23519   3.926   2.432  14.036 -0.1597 -0.0753  0.2300
  980BOLB   C4D23520   4.079   2.836  14.078 -0.1038 -0.2071 -0.1412
  981BOLB   NC123521   3.842  35.959  15.858  0.1333  0.0144  0.3952
  981BOLB   PO123522   4.239  36.165  15.619  0.1714  0.0312  0.0852
  981BOLB   GL123523   4.578  36.277  15.394  0.0410  0.3364  0.2993
  981BOLB   GL223524   4.753  36.142  15.428 -0.0997  0.0315  0.1128
  981BOLB   C1A23525   4.727  36.707  15.480  0.0191 -0.2266  0.0279
  981BOLB   C2A23526   4.786  37.040  15.298 -0.0666 -0.2088 -0.1188
  981BOLB   C3A23527   4.771  37.032  14.817  0.0068  0.0721 -0.0436
  981BOLB   C4A23528   5.040  37.032  14.537  0.3355 -0.1960 -0.2572
  981BOLB   C1B23529   4.922  35.980  15.760  0.0103 -0.0439  0.1166
  981BOLB   C2B23530   5.223  35.765  15.983  0.1456  0.0036 -0.2016
  981BOLB   C3B23531   5.580  35.903  16.241  0.3789 -0.1744  0.1753
  981BOLB   C4B23532   5.999  35.882  16.243  0.2031 -0.0014  0.0289
  981BOLB   NC223533   4.489  35.445  14.208  0.4218  0.1081 -0.1741
  981BOLB   PO223534   4.508  35.846  13.941 -0.0019  0.3552 -0.2047
  981BOLB   GL323535   4.912  35.809  14.009  0.4975 -0.2417 -0.1283
  981BOLB   GL423536   5.141  35.675  14.101  0.1835 -0.3876  0.0401
  981BOLB   C1C23537   5.168  36.150  14.239  0.1959 -0.0771 -0.0088
  981BOLB   C2C23538   5.443  36.420  14.002  0.1453 -0.0363 -0.0180
  981BOLB   C3C23539   5.591  36.784  14.128  0.0224 -0.3956 -0.0213
  981BOLB   C4C23540   5.374  37.077  14.359 -0.0683 -0.1545 -0.3138
  981BOLB   C1D23541   5.328  35.767  14.522  0.0847  0.0535  0.3529
  981BOLB   C2D23542   5.751  35.919  14.758 -0.0504 -0.1731 -0.0117
  981BOLB   C3D23543   6.193  36.047  14.701  0.1217 -0.2404  0.3244
  981BOLB   C4D23544   6.525  36.209  14.495  0.1574 -0.0510  0.0574
  982BOLB   NC123545  12.746  35.923   4.228 -0.0671  0.1827  0.0130
  982BOLB   PO123546  13.019  36.273   4.249 -0.0576 -0.0186  0.3629
  982BOLB   GL123547  13.308  36.445   4.503  0.0986 -0.0035 -0.0843
  982BOLB   GL223548  13.291  36.137   4.648  0.2586 -0.2652 -0.0807
  982BOLB   C1A23549  13.624  36.715   4.713  0.0405 -0.0994 -0.2923
  982BOLB   C2A23550  13.630  36.824   5.146 -0.0903 -0.4836  0.1540
  982BOLB   C3A23551  13.709  37.046   5.567 -0.1160  0.1890  0.0067
  982BOLB   C4A23552  13.233  37.047   5.585 -0.3668 -0.4007 -0.1270
  982BOLB   C1B23553  13.288  36.373   5.040 -0.4604 -0.1378 -0.1264
  982BOLB   C2B23554  13.315  36.451   5.429  0.0366  0.4476  0.1887
  982BOLB   C3B23555  13.092  36.609   5.811 -0.1291  0.1865  0.3052
  982BOLB   C4B23556  12.858  36.916   6.023  0.1938  0.1628 -0.2185
  982BOLB   NC223557  11.922  36.130   4.833  0.0841  0.0002  0.0708
  982BOLB   PO223558  11.592  36.426   4.999 -0.0909  0.1324  0.1070
  982BOLB   GL323559  11.756  36.301   5.487  0.1020 -0.0361  0.1430
  982BOLB   GL423560  11.493  36.481   5.633  0.2478 -0.0015  0.0258
  982BOLB   C1C23561  12.087  36.579   5.572 -0.1467 -0.0423 -0.1391
  982BOLB   C2C23562  12.247  36.994   5.822  0.3703  0.0603 -0.0192
  982BOLB   C3C23563  12.550  37.215   5.798 -0.0574 -0.1935 -0.0697
  982BOLB   C4C23564  12.947  37.313   5.773  0.1638 -0.0976 -0.0302
  982BOLB   C1D23565  11.704  36.752   5.925 -0.1876 -0.1076 -0.1173
  982BOLB   C2D23566  12.008  36.776   6.309 -0.1969  0.0020  0.0895
  982BOLB   C3D23567  12.093  36.457   6.583 -0.1594 -0.1725  0.2083
  982BOLB   C4D23568  12.271  36.034   6.577 -0.1816  0.0714 -0.1502
  983BOLB   NC123569   7.126   0.664   6.567  0.2065  0.1799 -0.3045
  983BOLB   PO123570   7.078   0.840   6.941 -0.0214 -0.4077 -0.1010
  983BOLB   GL123571   7.197   0.779   7.334 -0.1144 -0.0170 -0.1645
  983BOLB   GL223572   6.969   0.997   7.380  0.0226  0.2143 -0.0708
  983BOLB   C1A23573   7.615   0.766   7.554 -0.1534  0.4014 -0.1380
  983BOLB   C2A23574   7.920   0.591   7.777 -0.1226  0.0979  0.1838
  983BOLB   C3A23575   8.205   0.681   8.109 -0.1819 -0.0512 -0.0492
  983BOLB   C4A23576   8.561   0.750   8.043  0.0630  0.1410  0.1239
  983BOLB   C1B23577   7.330   1.213   7.530  0.3243  0.0578  0.0248
  983BOLB   C2B23578   7.436   1.499   7.896  0.0886  0.3633  0.0314
  983BOLB   C3B23579   7.613   1.938   7.851 -0.1869 -0.2892 -0.0575
  983BOLB   C4B23580   7.586   2.147   7.444 -0.2258  0.1978  0.2012
  983BOLB   NC223581   7.616  -0.964   8.194 -0.1718  0.1965  0.3287
  983BOLB   PO223582   7.847  -0.816   7.858  0.0391  0.0138  0.1677
  983BOLB   GL323583   8.075  -0.744   8.231  0.0016 -0.1467  0.1632
  983BOLB   GL423584   7.993  -0.870   8.569  0.1895 -0.1880 -0.0362
  983BOLB   C1C23585   8.444  -0.600   8.296  0.2066 -0.0967  0.0587
  983BOLB   C2C23586   8.521  -0.229   8.266  0.0819 -0.0338  0.0431
  983BOLB   C3C23587   8.845   0.073   8.203  0.0282 -0.0771 -0.0593
  983BOLB   C4C23588   8.868   0.489   8.120  0.1088 -0.1143 -0.2389
  983BOLB   C1D23589   7.925  -0.616   8.915 -0.3055  0.5319 -0.1666
  983BOLB   C2D23590   7.746  -0.561   9.317  0.0991  0.1592  0.1136
  983BOLB   C3D23591   7.651  -0.318   9.743  0.1240  0.1298  0.0337
  983BOLB   C4D23592   7.489   0.133   9.953  0.1175  0.1918 -0.0618
  984BOLB   NC123593  14.997  31.637  10.483  0.1270  0.0275  0.0634
  984BOLB   PO123594  14.839  31.422  10.825 -0.1271  0.0671 -0.0179
  984BOLB   GL123595  14.491  31.657  11.091  0.0234 -0.0217  0.1787
  984BOLB   GL223596  14.103  31.645  11.171  0.0269 -0.0067  0.0448
  984BOLB   C1A23597  14.229  32.073  10.887 -0.1069  0.0185 -0.1653
  984BOLB   C2A23598  14.341  32.517  10.882 -0.0712  0.3817 -0.1166
  984BOLB   C3A23599  14.564  32.750  11.205 -0.1413  0.2335 -0.2150
  984BOLB   C4A23600  14.789  33.082  11.444 -0.0356 -0.2325 -0.0474
  984BOLB   C1B23601  13.774  31.958  11.171  0.5861  0.2206  0.1211
  984BOLB   C2B23602  13.555  32.314  11.133 -0.1943 -0.0885  0.0036
  984BOLB   C3B23603  13.479  32.667  11.157 -0.0769  0.0102  0.1842
  984BOLB   C4B23604  13.306  32.934  11.513  0.0155 -0.2815  0.1055
  984BOLB   NC223605  16.393  32.299  12.661  0.3190 -0.0613  0.0211
  984BOLB   PO223606  16.446  32.547  12.233 -0.0067  0.0332 -0.3458
  984BOLB   GL323607  16.343  32.883  12.244 -0.0770 -0.1027  0.4013
  984BOLB   GL423608  16.485  33.049  12.095 -0.1301 -0.4460  0.2078
  984BOLB   C1C23609  16.003  33.181  12.260  0.2012 -0.3228  0.2422
  984BOLB   C2C23610  15.716  33.507  11.980 -0.5438  0.4113 -0.4552
  984BOLB   C3C23611  15.325  33.593  11.693 -0.2604 -0.4455 -0.0170
  984BOLB   C4C23612  15.127  33.261  11.708 -0.2172  0.0680 -0.3688
  984BOLB   C1D23613  16.139  33.227  11.776  0.2961 -0.1179  0.1367
  984BOLB   C2D23614  15.802  33.329  11.449 -0.3176  0.2342 -0.2004
  984BOLB   C3D23615  15.639  33.652  11.190 -0.0285 -0.1209  0.1001
  984BOLB   C4D23616  15.706  33.809  10.822  0.0091  0.1090 -0.1003
  985BOLB   NC123617  12.749  32.162  15.777  0.0502  0.0913  0.0012
  985BOLB   PO123618  12.781  32.155  15.333 -0.1360 -0.1371 -0.2091
  985BOLB   GL123619  12.836  32.538  15.038  0.0175 -0.0170  0.1415
  985BOLB   GL223620  12.982  32.819  15.116  0.0234 -0.2752  0.2302
  985BOLB   C1A23621  12.958  32.657  14.635  0.1535 -0.1391 -0.0260
  985BOLB   C2A23622  12.784  32.767  14.257 -0.1328  0.1196  0.1191
  985BOLB   C3A23623  12.570  32.691  13.906  0.2006  0.2061 -0.0469
  985BOLB   C4A23624  12.487  32.871  13.508  0.2178  0.0767 -0.1605
  985BOLB   C1B23625  12.834  33.166  14.828 -0.1493  0.0778  0.1086
  985BOLB   C2B23626  12.595  33.476  14.853 -0.0151 -0.2575 -0.3463
  985BOLB   C3B23627  12.442  33.771  14.676 -0.0091 -0.3459 -0.0527
  985BOLB   C4B23628  12.296  34.079  15.038  0.0525 -0.0696  0.3159
  985BOLB   NC223629  13.512  31.088  12.066 -0.2852 -0.1600  0.0440
  985BOLB   PO223630  13.596  31.365  12.392  0.4000  0.1707  0.4209
  985BOLB   GL323631  13.372  31.718  12.360  0.1081 -0.0119 -0.2124
  985BOLB   GL423632  13.360  31.714  12.043  0.0640  0.2110  0.2731
  985BOLB   C1C23633  13.389  32.115  12.569 -0.0410 -0.1159 -0.0052
  985BOLB   C2C23634  13.172  32.448  12.636 -0.2243  0.1029 -0.0631
  985BOLB   C3C23635  12.849  32.750  12.809 -0.3322 -0.1646 -0.3983
  985BOLB   C4C23636  12.640  32.802  13.179  0.2825 -0.0339 -0.0337
  985BOLB   C1D23637  13.485  32.135  12.043 -0.0474  0.0563 -0.1777
  985BOLB   C2D23638  13.637  32.645  12.131 -0.1638 -0.1552 -0.1814
  985BOLB   C3D23639  13.739  33.002  12.386 -0.2367 -0.3335 -0.0439
  985BOLB   C4D23640  14.048  33.143  12.539  0.1795 -0.4559  0.0738
  986BOLB   NC123641  21.850   6.811  19.975  0.0863  0.1401 -0.0621
  986BOLB   PO123642  22.292   6.694  19.779  0.0849 -0.0277 -0.4198
  986BOLB   GL123643  22.727   6.478  19.936 -0.4428  0.1718 -0.1049
  986BOLB   GL223644  22.697   6.288  19.619 -0.1635  0.0143 -0.1530
  986BOLB   C1A23645  23.076   6.283  20.104 -0.0707  0.0513 -0.1998
  986BOLB   C2A23646  23.363   6.042  20.426 -0.0896 -0.0837  0.0955
  986BOLB   C3A23647  23.697   5.889  20.650  0.0032  0.3780  0.0880
  986BOLB   C4A23648  24.052   5.651  20.549 -0.2364  0.1887 -0.2142
  986BOLB   C1B23649  22.921   5.937  19.858 -0.1302  0.0931  0.2225
  986BOLB   C2B23650  23.220   5.605  20.189 -0.0115  0.2812  0.0481
  986BOLB   C3B23651  23.522   5.438  20.453 -0.2464  0.0921 -0.0539
  986BOLB   C4B23652  23.702   5.306  20.731  0.0184  0.0331  0.0502
  986BOLB   NC223653  26.438   4.764  20.073  0.1539  0.0065 -0.2724
  986BOLB   PO223654  25.981   4.744  19.936  0.1056  0.1401 -0.3499
  986BOLB   GL323655  25.555   4.815  19.739 -0.2102 -0.0824  0.0191
  986BOLB   GL423656  25.406   4.470  19.554  0.1168 -0.1216 -0.3257
  986BOLB   C1C23657  25.228   4.635  19.990 -0.2676  0.0647  0.3636
  986BOLB   C2C23658  24.998   4.877  20.395  0.2445 -0.0797  0.3864
  986BOLB   C3C23659  24.860   5.244  20.553  0.0979 -0.1477  0.2805
  986BOLB   C4C23660  24.482   5.509  20.603 -0.0262  0.0854  0.1818
  986BOLB   C1D23661  25.377   4.723  19.194  0.2522  0.0761 -0.0424
  986BOLB   C2D23662  25.153   4.954  18.974  0.0053  0.1362  0.1983
  986BOLB   C3D23663  24.991   4.896  18.476 -0.0826 -0.2984 -0.3099
  986BOLB   C4D23664  24.946   4.887  18.012 -0.0925  0.0270  0.1887
  987BOLB   NC123665  26.758   7.090  21.957  0.0702  0.0489  0.1067
  987BOLB   PO123666  26.650   7.078  21.584 -0.2836 -0.0382 -0.0970
  987BOLB   GL123667  26.319   7.002  21.373 -0.1320  0.2899  0.0346
  987BOLB   GL223668  26.030   6.937  21.344  0.1795  0.0276 -0.0514
  987BOLB   C1A23669  26.229   7.137  20.967  0.0685  0.2470  0.1525
  987BOLB   C2A23670  26.354   7.378  20.732 -0.2376 -0.1152  0.3168
  987BOLB   C3A23671  26.370   7.766  20.573  0.1254 -0.2923 -0.1427
  987BOLB   C4A23672  26.672   8.100  20.513  0.0867 -0.1050 -0.0000
  987BOLB   C1B23673  25.783   7.263  21.198  0.0726  0.0607 -0.4661
  987BOLB   C2B23674  25.421   7.221  20.888  0.5023 -0.1023  0.0674
  987BOLB   C3B23675  24.958   7.081  20.826  0.1966  0.1894  0.0389
  987BOLB   C4B23676  24.655   6.915  20.489  0.2948  0.0840  0.0901
  987BOLB   NC223677  27.555   9.378  21.819  0.0975 -0.1488  0.4218
  987BOLB   PO223678  27.239   9.629  21.807 -0.2326 -0.0361  0.2101
  987BOLB   GL323679  26.898   9.608  21.577 -0.1223  0.0503 -0.0916
  987BOLB   GL423680  26.707   9.869  21.558  0.0052 -0.0231 -0.1529
  987BOLB   C1C23681  26.637   9.366  21.276  0.0973  0.3062  0.2517
  987BOLB   C2C23682  26.553   9.050  21.046  0.0553 -0.1685  0.0638
  987BOLB   C3C23683  26.624   8.747  20.857 -0.0051  0.0518  0.0315
  987BOLB   C4C23684  26.659   8.485  20.521  0.0602  0.2253 -0.1663
  987BOLB   C1D23685  26.225   9.749  21.318 -0.1739  0.1899  0.4268
  987BOLB   C2D23686  25.902   9.715  20.941 -0.0988 -0.3023 -0.1078
  987BOLB   C3D23687  25.509   9.494  20.830 -0.1368  0.1193  0.2532
  987BOLB   C4D23688  25.201   9.200  20.716  0.0568 -0.0269 -0.0465
  988BOLB   NC123689  24.486   0.388  16.668 -0.0730 -0.1889 -0.2450
  988BOLB   PO123690  24.359   0.174  16.998 -0.0165  0.1113 -0.1909
  988BOLB   GL123691  24.056   0.493  16.964 -0.0198  0.0512 -0.2282
  988BOLB   GL223692  24.265   0.734  17.102  0.2041  0.1136 -0.0321
  988BOLB   C1A23693  23.673   0.694  16.694 -0.4258 -0.0511  0.0047
  988BOLB   C2A23694  23.474   0.966  16.444 -0.0216  0.0256  0.1110
  988BOLB   C3A23695  23.293   1.290  16.364  0.2059  0.3313  0.0769
  988BOLB   C4A23696  23.037   1.731  16.233 -0.3437 -0.1435 -0.4116
  988BOLB   C1B23697  23.888   1.078  17.124 -0.0800  0.0962  0.1168
  988BOLB   C2B23698  23.446   1.072  16.953  0.3231  0.1213 -0.0598
  988BOLB   C3B23699  23.106   1.195  16.820 -0.1402 -0.1346  0.1442
  988BOLB   C4B23700  22.847   1.468  16.653  0.0619 -0.2003 -0.0751
  988BOLB   NC223701  23.707   0.012  15.643  0.1660 -0.0575  0.1479
  988BOLB   PO223702  23.912   0.333  15.514 -0.1244 -0.2289 -0.0309
  988BOLB   GL323703  23.819   0.728  15.458 -0.1473  0.0219  0.1099
  988BOLB   GL423704  23.835   0.854  15.742 -0.3306 -0.2744 -0.2608
  988BOLB   C1C23705  23.484   1.011  15.388 -0.0277  0.3534 -0.0973
  988BOLB   C2C23706  23.298   1.447  15.409  0.2652  0.0434  0.3479
  988BOLB   C3C23707  23.155   1.908  15.513  0.0005  0.3919  0.1202
  988BOLB   C4C23708  23.077   2.131  15.958  0.0556 -0.0590  0.4087
  988BOLB   C1D23709  23.968   0.924  16.184  0.0880 -0.3004  0.0325
  988BOLB   C2D23710  24.125   1.109  16.634  0.0393 -0.0039 -0.3640
  988BOLB   C3D23711  24.252   1.414  17.010  0.0111  0.0531  0.3705
  988BOLB   C4D23712  24.348   1.793  17.392  0.1468  0.0066 -0.0897
  989BOLB   NC123713  13.066  32.130   8.631 -0.0975  0.2807 -0.3061
  989BOLB   PO123714  12.849  31.948   8.985  0.2428 -0.2355 -0.5256
  989BOLB   GL123715  12.771  32.352   9.121 -0.1265  0.2993  0.2564
  989BOLB   GL223716  12.614  32.248   9.452  0.0609  0.0544 -0.1427
  989BOLB   C1A23717  12.441  32.649   9.162  0.1315 -0.0947 -0.1447
  989BOLB   C2A23718  12.355  33.133   9.255  0.0752  0.0022 -0.1302
  989BOLB   C3A23719  12.193  33.258   9.718  0.0492  0.0303 -0.2976
  989BOLB   C4A23720  12.009  33.036  10.017  0.0253  0.1976  0.0802
  989BOLB   C1B23721  12.719  32.615   9.776 -0.1549  0.1518  0.2472
  989BOLB   C2B23722  13.050  32.849   9.898 -0.0132  0.2183 -0.2294
  989BOLB   C3B23723  13.271  33.300   9.864  0.1386  0.0476  0.0724
  989BOLB   C4B23724  13.644  33.505   9.958 -0.0073  0.0308 -0.2890
  989BOLB   NC223725  12.542  31.162  10.891 -0.2103 -0.0713 -0.1419
  989BOLB   PO223726  12.693  31.310  10.402  0.2915  0.0750 -0.0736
  989BOLB   GL323727  12.900  31.612  10.392  0.0244  0.2296 -0.0307
  989BOLB   GL423728  13.146  31.540  10.636 -0.3553  0.0401  0.1683
  989BOLB   C1C23729  12.876  32.045  10.610 -0.0082 -0.0566  0.0797
  989BOLB   C2C23730  12.684  32.408  10.881 -0.2200 -0.0269  0.2003
  989BOLB   C3C23731  12.349  32.549  10.700  0.2888  0.0040  0.2040
  989BOLB   C4C23732  12.084  32.763  10.373  0.0309  0.0807 -0.2066
  989BOLB   C1D23733  13.349  31.942  10.407  0.0193 -0.0448  0.3355
  989BOLB   C2D23734  13.435  32.369  10.263 -0.0326 -0.2552  0.1387
  989BOLB   C3D23735  13.821  32.349  10.155 -0.1603  0.0477  0.1363
  989BOLB   C4D23736  14.295  32.408  10.335  0.0282 -0.1792 -0.1771
  990BOLB   NC123737  15.824  32.434   8.509  0.0598 -0.1664  0.0982
  990BOLB   PO123738  15.402  32.247   8.485  0.1104  0.0632 -0.1114
  990BOLB   GL123739  15.345  32.726   8.591 -0.1159 -0.1655 -0.1311
  990BOLB   GL223740  15.645  32.873   8.591 -0.3183  0.1509  0.1273
  990BOLB   C1A23741  15.190  33.115   8.544  0.0657  0.3961  0.0105
  990BOLB   C2A23742  14.766  33.475   8.672 -0.4196  0.1169  0.1189
  990BOLB   C3A23743  14.700  33.909   8.638  0.2061 -0.1953 -0.2190
  990BOLB   C4A23744  14.949  34.105   8.798 -0.4709 -0.0700  0.2814
  990BOLB   C1B23745  15.412  33.077   8.924 -0.1223 -0.0510  0.1206
  990BOLB   C2B23746  15.005  33.246   9.033 -0.1018  0.5032  0.3377
  990BOLB   C3B23747  14.657  33.368   9.304  0.1174 -0.0304  0.0423
  990BOLB   C4B23748  14.804  33.652   9.629  0.0287  0.0764  0.0480
  990BOLB   NC223749  16.717  32.781   8.809  0.0709  0.0406 -0.3462
  990BOLB   PO223750  16.470  32.786   8.390 -0.1324  0.3039  0.1538
  990BOLB   GL323751  16.254  32.971   8.656  0.0360  0.2559  0.4080
  990BOLB   GL423752  16.437  33.242   8.794 -0.0575  0.2097  0.0317
  990BOLB   C1C23753  15.948  33.241   8.803 -0.0096 -0.0524 -0.0988
  990BOLB   C2C23754  15.773  33.411   9.121  0.2547  0.0234 -0.1514
  990BOLB   C3C23755  15.651  33.839   9.242  0.2045 -0.2081  0.1735
  990BOLB   C4C23756  15.301  34.108   9.042  0.0992 -0.0861  0.0099
  990BOLB   C1D23757  16.485  33.554   8.499 -0.1591 -0.1371  0.1321
  990BOLB   C2D23758  16.724  33.703   8.162 -0.2206  0.0149  0.0948
  990BOLB   C3D23759  16.977  33.801   7.772 -0.0202  0.0726 -0.0612
  990BOLB   C4D23760  16.991  33.621   7.336 -0.1788  0.0943  0.1774
  991BOLB   NC123761   2.875   7.118   7.403 -0.0312 -0.1771 -0.0063
  991BOLB   PO123762   2.962   7.035   7.764  0.0144 -0.1436  0.0397
  991BOLB   GL123763   3.380   7.063   7.938  0.0763  0.0167 -0.1374
  991BOLB   GL223764   3.334   7.340   8.090  0.0067 -0.0494 -0.2184
  991BOLB   C1A23765   3.829   7.140   8.087  0.2741  0.1411  0.1230
  991BOLB   C2A23766   4.241   7.074   8.469 -0.2582 -0.2238  0.2042
  991BOLB   C3A23767   4.539   7.106   8.687 -0.3058  0.0107  0.0890
  991BOLB   C4A23768   4.922   6.813   8.584  0.0129 -0.2505 -0.0656
  991BOLB   C1B23769   3.507   7.456   8.480  0.0488  0.1616  0.3708
  991BOLB   C2B23770   3.957   7.391   8.715 -0.2473 -0.1440  0.0860
  991BOLB   C3B23771   4.334   7.467   8.932 -0.0522  0.0924 -0.0879
  991BOLB   C4B23772   4.632   7.628   9.268  0.1922  0.4751 -0.1238
  991BOLB   NC223773   3.911   6.686   6.558 -0.4800  0.3130 -0.3011
  991BOLB   PO223774   4.000   7.120   6.803  0.1186  0.1488 -0.2463
  991BOLB   GL323775   4.255   7.350   7.128 -0.1987  0.0385  0.0838
  991BOLB   GL423776   4.431   7.603   6.951  0.1846  0.1000 -0.1224
  991BOLB   C1C23777   4.501   7.527   7.443 -0.2422 -0.0318  0.3406
  991BOLB   C2C23778   4.979   7.543   7.711  0.1715  0.1016  0.0075
  991BOLB   C3C23779   5.215   7.252   8.059  0.0369 -0.1887  0.1091
  991BOLB   C4C23780   5.246   6.960   8.347  0.4937  0.0599 -0.1958
  991BOLB   C1D23781   4.772   7.323   7.028  0.0841 -0.3098 -0.1824
  991BOLB   C2D23782   5.167   7.394   7.191  0.1525 -0.0253  0.2015
  991BOLB   C3D23783   5.434   7.727   7.173 -0.1615  0.0835  0.2652
  991BOLB   C4D23784   5.816   7.968   7.468 -0.3227 -0.3626 -0.0638
  992BOLB   NC123785  10.940  15.781  19.391  0.1429  0.0391  0.2853
  992BOLB   PO123786  11.296  15.853  19.649  0.0938 -0.0843 -0.0919
  992BOLB   GL123787  11.051  15.723  20.015  0.1712 -0.1494 -0.1242
  992BOLB   GL223788  10.958  15.959  20.055 -0.1222  0.0266 -0.4699
  992BOLB   C1A23789  10.845  15.533  20.448  0.2200  0.1208  0.2271
  992BOLB   C2A23790  10.712  15.841  20.805  0.0547 -0.1227  0.1126
  992BOLB   C3A23791  10.590  16.043  21.202  0.0808 -0.0605 -0.0088
  992BOLB   C4A23792  10.334  16.516  21.331  0.0606 -0.1558 -0.0505
  992BOLB   C1B23793  10.545  15.943  20.274  0.6191 -0.0111 -0.2991
  992BOLB   C2B23794  10.247  16.289  20.234 -0.2671  0.2375 -0.0057
  992BOLB   C3B23795   9.917  16.608  20.057  0.0657  0.1316  0.1414
  992BOLB   C4B23796   9.544  16.924  20.288 -0.1896  0.0867  0.0098
  992BOLB   NC223797   8.831  18.078  22.260 -0.0207 -0.1374 -0.1186
  992BOLB   PO223798   8.592  17.797  21.965  0.0005  0.0881 -0.3000
  992BOLB   GL323799   9.057  17.789  21.800 -0.2923 -0.3459  0.1693
  992BOLB   GL423800   9.213  17.652  22.072 -0.0843 -0.3255  0.1248
  992BOLB   C1C23801   9.437  17.797  21.651 -0.3352  0.0566  0.2786
  992BOLB   C2C23802   9.818  17.628  21.564 -0.0092  0.1051 -0.1040
  992BOLB   C3C23803  10.125  17.237  21.594  0.1830 -0.1785  0.0847
  992BOLB   C4C23804  10.275  16.879  21.564  0.2951 -0.1379 -0.0777
  992BOLB   C1D23805   9.230  17.368  22.497 -0.1434 -0.1578  0.2286
  992BOLB   C2D23806   9.667  17.173  22.471 -0.0181 -0.3054  0.0295
  992BOLB   C3D23807  10.129  17.095  22.561 -0.0467 -0.0191  0.2638
  992BOLB   C4D23808  10.438  17.468  22.788  0.2122 -0.0689  0.2866
  993BOLB   NC123809  11.448  33.673   7.253 -0.1621  0.2958 -0.0552
  993BOLB   PO123810  11.857  33.642   7.222  0.0678 -0.1541 -0.0717
  993BOLB   GL123811  11.790  33.976   7.552  0.3072 -0.1663 -0.4119
  993BOLB   GL223812  11.609  34.253   7.383 -0.0405 -0.0041 -0.0689
  993BOLB   C1A23813  12.036  34.376   7.651  0.0571  0.1076  0.3164
  993BOLB   C2A23814  12.100  34.751   7.498 -0.0905 -0.1625 -0.0420
  993BOLB   C3A23815  11.977  35.227   7.387 -0.1474 -0.0070 -0.1625
  993BOLB   C4A23816  11.929  35.580   7.178  0.6334  0.4097  0.0217
  993BOLB   C1B23817  11.543  34.527   7.703  0.1262 -0.0250 -0.1898
  993BOLB   C2B23818  11.715  34.844   7.890 -0.0385  0.2015  0.1761
  993BOLB   C3B23819  11.691  35.155   8.199 -0.1799 -0.0553 -0.1403
  993BOLB   C4B23820  11.687  35.566   8.293  0.0751 -0.1102 -0.2061
  993BOLB   NC223821  10.136  34.786   7.288 -0.2708  0.1335  0.3138
  993BOLB   PO223822  10.049  35.002   6.956  0.3515 -0.0387 -0.2420
  993BOLB   GL323823  10.202  35.430   6.963  0.1412  0.2132 -0.4483
  993BOLB   GL423824  10.413  35.372   7.233  0.0804  0.0421  0.0440
  993BOLB   C1C23825  10.536  35.698   6.790 -0.2513  0.1569  0.2190
  993BOLB   C2C23826  10.979  35.842   6.796  0.2404 -0.0536 -0.1263
  993BOLB   C3C23827  11.379  35.845   7.002 -0.2389  0.2448 -0.1349
  993BOLB   C4C23828  11.560  35.766   7.341  0.1351 -0.0054 -0.0337
  993BOLB   C1D23829  10.579  35.780   7.252 -0.0215 -0.0078 -0.0952
  993BOLB   C2D23830  10.593  36.156   7.433 -0.1469  0.0246  0.2727
  993BOLB   C3D23831  10.831  36.493   7.561 -0.1284  0.0223  0.2157
  993BOLB   C4D23832  11.017  36.782   7.863 -0.0417  0.0054  0.2493
  994BOLB   NC123833   9.749  14.071   3.005  0.1166  0.2655 -0.0060
  994BOLB   PO123834   9.905  13.602   2.946 -0.1006 -0.0084 -0.3839
  994BOLB   GL123835   9.804  13.195   3.211  0.1957  0.0937 -0.0535
  994BOLB   GL223836   9.511  13.171   3.280  0.0686 -0.0253 -0.2604
  994BOLB   C1A23837  10.089  12.921   3.333  0.0441 -0.1753 -0.0032
  994BOLB   C2A23838  10.409  12.862   3.602 -0.1864  0.2316 -0.0606
  994BOLB   C3A23839  10.620  12.599   3.889  0.1151  0.2415  0.2236
  994BOLB   C4A23840  10.697  12.669   4.367 -0.2638  0.0252 -0.1450
  994BOLB   C1B23841   9.278  12.951   3.640  0.1173 -0.0697  0.1179
  994BOLB   C2B23842   9.155  12.624   3.839  0.0898  0.1328  0.2218
  994BOLB   C3B23843   9.021  12.133   3.847  0.1222  0.0428 -0.2662
  994BOLB   C4B23844   9.040  11.848   4.075  0.0400 -0.2556  0.1204
  994BOLB   NC223845  12.751  13.472   3.516 -0.0402 -0.2332 -0.0956
  994BOLB   PO223846  12.696  13.923   3.623  0.3019 -0.0227 -0.1798
  994BOLB   GL323847  12.403  13.583   3.836 -0.2801  0.5519  0.6425
  994BOLB   GL423848  12.564  13.326   4.093 -0.0938  0.0228 -0.1204
  994BOLB   C1C23849  12.065  13.419   4.065 -0.0919 -0.4671  0.0622
  994BOLB   C2C23850  11.757  13.251   4.384  0.0310 -0.0420 -0.0200
  994BOLB   C3C23851  11.291  13.070   4.416  0.2086  0.1594  0.4153
  994BOLB   C4C23852  10.937  12.979   4.582 -0.1419 -0.0858 -0.3088
  994BOLB   C1D23853  12.687  13.496   4.635  0.0638 -0.0801  0.0464
  994BOLB   C2D23854  12.595  13.288   5.072  0.2100  0.2337 -0.0296
  994BOLB   C3D23855  12.632  12.841   5.039  0.0486 -0.1465  0.2974
  994BOLB   C4D23856  12.424  12.542   4.968  0.1196  0.1220 -0.1973
  995BOLB   NC123857   2.961   5.168   7.228 -0.1335 -0.1846  0.0673
  995BOLB   PO123858   3.285   5.028   7.420  0.0981  0.1526 -0.0866
  995BOLB   GL123859   3.620   5.094   7.743  0.0205 -0.1041  0.1032
  995BOLB   GL223860   3.843   5.382   7.741 -0.1642  0.1611 -0.0774
  995BOLB   C1A23861   3.676   5.230   8.197 -0.2066  0.2264  0.0033
  995BOLB   C2A23862   3.989   5.422   8.562  0.0049  0.1774  0.0463
  995BOLB   C3A23863   4.179   5.554   8.913  0.1273 -0.3796 -0.1759
  995BOLB   C4A23864   4.501   5.363   9.023 -0.0305 -0.0249  0.2323
  995BOLB   C1B23865   4.181   5.221   8.048 -0.2675 -0.1930  0.2780
  995BOLB   C2B23866   4.642   5.131   7.961 -0.2059 -0.0950  0.0888
  995BOLB   C3B23867   5.003   5.034   8.132  0.0334 -0.0460  0.1146
  995BOLB   C4B23868   5.425   4.804   8.362 -0.4434  0.0772  0.1643
  995BOLB   NC223869   2.860   4.359   8.215 -0.0622  0.0185  0.0665
  995BOLB   PO223870   3.192   4.315   8.135  0.3265 -0.0878  0.1415
  995BOLB   GL323871   3.692   4.469   8.287 -0.2552  0.0320  0.0534
  995BOLB   GL423872   3.920   4.793   8.171 -0.0892  0.0672 -0.0066
  995BOLB   C1C23873   4.011   4.432   8.579 -0.0845 -0.0118  0.3069
  995BOLB   C2C23874   4.462   4.477   8.803 -0.0146  0.0574  0.0316
  995BOLB   C3C23875   4.829   4.625   9.052 -0.1112  0.0529 -0.2949
  995BOLB   C4C23876   4.749   5.027   9.177 -0.0183 -0.2083  0.3238
  995BOLB   C1D23877   3.762   4.936   8.621 -0.1063 -0.0961  0.2951
  995BOLB   C2D23878   3.597   4.835   9.007 -0.0439 -0.0864 -0.1536
  995BOLB   C3D23879   3.387   4.813   9.322  0.1372  0.1164 -0.2839
  995BOLB   C4D23880   3.386   4.904   9.684  0.0837  0.1445 -0.0968
  996BOLB   NC123881  27.737  14.145  13.992 -0.1935 -0.3055 -0.1310
  996BOLB   PO123882  27.783  13.733  13.677 -0.2345  0.0331 -0.1229
  996BOLB   GL123883  27.371  13.513  13.841  0.3226  0.1652 -0.1468
  996BOLB   GL223884  27.391  13.108  13.804 -0.2702  0.0254  0.2155
  996BOLB   C1A23885  26.962  13.422  13.708 -0.0439  0.1158  0.0849
  996BOLB   C2A23886  26.489  13.510  13.552  0.1655  0.1014  0.0663
  996BOLB   C3A23887  26.023  13.455  13.450  0.1107 -0.1130 -0.0215
  996BOLB   C4A23888  25.625  13.222  13.179 -0.2732  0.1498  0.1891
  996BOLB   C1B23889  27.347  12.884  13.484 -0.1657  0.0525 -0.1366
  996BOLB   C2B23890  27.004  12.799  13.106 -0.0521 -0.2378 -0.0874
  996BOLB   C3B23891  26.606  12.967  12.861  0.0967  0.1425  0.0231
  996BOLB   C4B23892  26.497  13.231  12.504 -0.1477 -0.2987  0.2717
  996BOLB   NC223893  27.180  13.365  11.410  0.2870  0.0307 -0.0616
  996BOLB   PO223894  27.018  13.647  11.132 -0.1337 -0.1474  0.0996
  996BOLB   GL323895  26.665  13.418  11.093  0.1590 -0.1787 -0.0827
  996BOLB   GL423896  26.536  13.663  10.960 -0.0116 -0.1625 -0.0283
  996BOLB   C1C23897  26.355  13.380  11.466  0.2814  0.2251 -0.0312
  996BOLB   C2C23898  25.936  13.294  11.830  0.0742  0.1047  0.0788
  996BOLB   C3C23899  25.710  13.208  12.179  0.0603  0.0496  0.2270
  996BOLB   C4C23900  25.562  13.185  12.682  0.2512 -0.1298  0.0234
  996BOLB   C1D23901  26.117  13.703  11.110 -0.3103  0.0590  0.2821
  996BOLB   C2D23902  25.806  13.436  11.303  0.0791  0.2777  0.0823
  996BOLB   C3D23903  25.506  13.101  11.576  0.2959 -0.3261 -0.2461
  996BOLB   C4D23904  25.304  12.953  11.917  0.2672  0.2132 -0.2600
  997BOLB   NC123905   9.288  14.967   4.932 -0.1058  0.1415 -0.1093
  997BOLB   PO123906   9.234  14.560   5.179  0.1971 -0.0663  0.0456
  997BOLB   GL123907   9.120  14.202   5.176  0.2075  0.6095 -0.3232
  997BOLB   GL223908   9.415  13.990   5.118 -0.0858 -0.0964  0.0031
  997BOLB   C1A23909   9.102  13.870   5.431 -0.0531 -0.0918 -0.0555
  997BOLB   C2A23910   8.896  13.587   5.595  0.1443 -0.1469  0.0891
  997BOLB   C3A23911   8.778  13.169   5.366  0.2723 -0.1762  0.1724
  997BOLB   C4A23912   8.946  13.094   4.933 -0.0023 -0.0459  0.0735
  997BOLB   C1B23913   9.548  13.828   5.550 -0.2698 -0.0202  0.0042
  997BOLB   C2B23914   9.820  13.903   5.824  0.0172  0.2290  0.2291
  997BOLB   C3B23915  10.042  14.180   6.033 -0.2365 -0.1595 -0.3815
  997BOLB   C4B23916   9.808  14.267   6.374 -0.3840 -0.0878  0.1259
  997BOLB   NC223917   7.610  13.397   3.543 -0.0506 -0.2498  0.0391
  997BOLB   PO223918   7.752  13.809   3.684 -0.2098 -0.0279 -0.1409
  997BOLB   GL323919   8.001  13.474   3.778  0.2090  0.0128 -0.1339
  997BOLB   GL423920   7.967  13.205   3.974 -0.3918  0.0900 -0.1117
  997BOLB   C1C23921   8.424  13.163   3.854 -0.3293 -0.2039  0.1780
  997BOLB   C2C23922   8.823  13.059   3.920 -0.3799  0.0510 -0.1492
  997BOLB   C3C23923   8.879  12.790   4.227 -0.1557 -0.1413 -0.0749
  997BOLB   C4C23924   9.036  12.901   4.513  0.1857  0.2760  0.1139
  997BOLB   C1D23925   7.836  12.856   4.266 -0.1643  0.0730 -0.1910
  997BOLB   C2D23926   7.649  12.620   4.599 -0.1399 -0.1878 -0.1888
  997BOLB   C3D23927   7.838  12.453   4.971 -0.0840 -0.1055 -0.1289
  997BOLB   C4D23928   8.332  12.343   5.174 -0.3094 -0.0907 -0.1333
  998BOLB   NC123929   1.279   4.335  14.428  0.0357 -0.0766 -0.2067
  998BOLB   PO123930   1.183   4.075  14.557  0.3817 -0.3730  0.2126
  998BOLB   GL123931   1.583   3.967  14.676  0.0365  0.0863 -0.1744
  998BOLB   GL223932   1.786   4.164  14.605 -0.1035 -0.1050  0.0653
  998BOLB   C1A23933   1.966   3.682  14.714  0.4531 -0.0278 -0.0469
  998BOLB   C2A23934   2.391   3.642  14.667 -0.1483 -0.1934 -0.0719
  998BOLB   C3A23935   2.793   3.869  14.684 -0.0533 -0.2581 -0.1725
  998BOLB   C4A23936   3.066   3.981  14.994 -0.0100  0.1174  0.1564
  998BOLB   C1B23937   2.045   4.080  14.434  0.1429  0.0022 -0.1010
  998BOLB   C2B23938   2.439   4.010  14.337  0.3215 -0.0195 -0.0334
  998BOLB   C3B23939   2.781   3.876  14.202 -0.0593  0.0506  0.2144
  998BOLB   C4B23940   3.065   4.169  14.156 -0.3004 -0.1620  0.0716
  998BOLB   NC223941   1.963   2.809  16.174  0.1311  0.0830 -0.0187
  998BOLB   PO223942   1.713   3.149  15.899  0.2161 -0.3917  0.0206
  998BOLB   GL323943   2.184   3.125  15.917  0.2058  0.1321 -0.2212
  998BOLB   GL423944   2.393   3.084  16.162 -0.3529 -0.1462  0.1004
  998BOLB   C1C23945   2.448   3.495  15.914 -0.2586  0.3985  0.0805
  998BOLB   C2C23946   2.780   3.673  15.800  0.0265 -0.0351  0.0449
  998BOLB   C3C23947   3.227   3.834  15.688 -0.0746  0.3833 -0.1003
  998BOLB   C4C23948   3.386   3.919  15.303  0.1371  0.1381  0.1345
  998BOLB   C1D23949   2.845   3.130  16.080  0.1405  0.1350 -0.0522
  998BOLB   C2D23950   3.235   3.325  15.829  0.0106  0.1124  0.0131
  998BOLB   C3D23951   3.589   3.422  15.702  0.0621  0.0406 -0.0653
  998BOLB   C4D23952   3.771   3.809  15.643 -0.2424 -0.1044 -0.1666
  999BOLB   NC123953  23.022  11.836  19.845 -0.1651 -0.2958  0.1402
  999BOLB   PO123954  23.105  12.281  19.918 -0.1897  0.0881  0.0760
  999BOLB   GL123955  23.454  12.166  20.186 -0.1529 -0.0197 -0.0790
  999BOLB   GL223956  23.787  12.228  20.042  0.0598  0.0855 -0.3676
  999BOLB   C1A23957  23.701  12.110  20.584 -0.2193 -0.1814 -0.0594
  999BOLB   C2A23958  24.041  11.894  20.829 -0.0037 -0.1700  0.1479
  999BOLB   C3A23959  24.566  11.783  20.925 -0.1012 -0.1627  0.2996
  999BOLB   C4A23960  24.932  11.721  21.014 -0.0581 -0.1927  0.0982
  999BOLB   C1B23961  24.156  12.142  20.311  0.1398  0.1370  0.1556
  999BOLB   C2B23962  24.466  12.076  20.574  0.1833 -0.1916  0.2670
  999BOLB   C3B23963  24.714  12.276  20.798  0.0894 -0.2716  0.1919
  999BOLB   C4B23964  24.930  12.583  21.134  0.2076  0.1448 -0.1421
  999BOLB   NC223965  27.334  11.501  21.264  0.0050  0.0415 -0.0986
  999BOLB   PO223966  27.184  11.546  21.670 -0.1923  0.0320  0.0200
  999BOLB   GL323967  26.711  11.499  21.733 -0.1640  0.0352 -0.1951
  999BOLB   GL423968  26.665  11.570  21.503 -0.0209  0.3016 -0.1583
  999BOLB   C1C23969  26.248  11.486  21.759 -0.2168  0.2153 -0.2277
  999BOLB   C2C23970  25.802  11.400  21.604 -0.1846  0.1528  0.0808
  999BOLB   C3C23971  25.676  11.472  21.193 -0.1155  0.0076  0.0839
  999BOLB   C4C23972  25.270  11.534  21.018 -0.0782 -0.1803 -0.0343
  999BOLB   C1D23973  26.602  11.727  21.104 -0.0673  0.0147 -0.1513
  999BOLB   C2D23974  26.518  11.583  20.709 -0.0885 -0.1412  0.1941
  999BOLB   C3D23975  26.162  11.584  20.422  0.2868  0.1655  0.1952
  999BOLB   C4D23976  25.846  11.450  20.169 -0.1638 -0.0781 -0.1159
 1000BOLB   NC123977  17.925  33.495   8.814  0.2826  0.0393  0.1894
 1000BOLB   PO123978  18.123  33.520   9.254  0.0091 -0.0966  0.0735
 1000BOLB   GL123979  17.938  33.510   9.642  0.2708  0.2718  0.4646
 1000BOLB   GL223980  17.540  33.482   9.608  0.3042 -0.0490  0.0594
 1000BOLB   C1A23981  17.775  33.802  10.009  0.4271 -0.1020 -0.2098
 1000BOLB   C2A23982  17.607  34.191   9.995 -0.4618 -0.0746 -0.1340
 1000BOLB   C3A23983  17.203  34.449   9.828 -0.0710  0.1567  0.1244
 1000BOLB   C4A23984  16.908  34.848   9.867 -0.4122 -0.1795  0.1877
 1000BOLB   C1B23985  17.218  33.721   9.826  0.0526 -0.1621  0.0325
 1000BOLB   C2B23986  17.025  34.020  10.025  0.0343 -0.1581 -0.0191
 1000BOLB   C3B23987  16.728  34.311   9.909 -0.2713 -0.0110 -0.0055
 1000BOLB   C4B23988  16.394  34.537  10.159 -0.0928  0.0221 -0.0235
 1000BOLB   NC223989  17.526  32.942   8.950  0.4051  0.0715  0.0340
 1000BOLB   PO223990  17.450  33.247   9.178 -0.1094  0.1084  0.0268
 1000BOLB   GL323991  17.028  33.383   9.351  0.0911  0.0348 -0.0142
 1000BOLB   GL423992  16.615  33.275   9.289 -0.0073  0.3868  0.2337
 1000BOLB   C1C23993  16.740  33.680   9.555 -0.0031 -0.1712 -0.1054
 1000BOLB   C2C23994  16.549  34.073   9.449 -0.1269 -0.2135  0.0627
 1000BOLB   C3C23995  16.374  34.476   9.606  0.1842 -0.0590  0.1083
 1000BOLB   C4C23996  16.566  34.788   9.781  0.1107  0.1033 -0.3477
 1000BOLB   C1D23997  16.292  33.549   9.221  0.2873  0.1732 -0.3799
 1000BOLB   C2D23998  16.099  33.692   8.806 -0.1633 -0.3707 -0.2912
 1000BOLB   C3D23999  15.758  33.955   8.737 -0.2942  0.0147  0.0604
 1000BOLB   C4D24000  15.733  34.369   8.914  0.1279  0.1144 -0.0923
 1001BOLB   NC124001  20.073  10.298   9.415 -0.1450  0.0558 -0.0462
 1001BOLB   PO124002  20.230   9.973   9.448  0.4151  0.1047 -0.0056
 1001BOLB   GL124003  20.403   9.893   9.052  0.1470 -0.0440 -0.2254
 1001BOLB   GL224004  20.259   9.803   8.817  0.0434 -0.2301 -0.1270
 1001BOLB   C1A24005  20.493  10.101   8.532 -0.4133  0.2845 -0.2622
 1001BOLB   C2A24006  20.790   9.929   8.273 -0.0276  0.0778 -0.0357
 1001BOLB   C3A24007  20.968   9.966   7.936 -0.0295  0.1921 -0.1603
 1001BOLB   C4A24008  20.888   9.693   7.583 -0.0840 -0.0830  0.0349
 1001BOLB   C1B24009  20.070   9.584   8.428 -0.0333  0.2798 -0.1754
 1001BOLB   C2B24010  20.335   9.391   8.106 -0.2286  0.2441 -0.0729
 1001BOLB   C3B24011  20.662   9.434   7.988 -0.2303  0.3676 -0.2413
 1001BOLB   C4B24012  20.927   9.147   7.778 -0.0125 -0.0031 -0.5601
 1001BOLB   NC224013  22.511   9.400   6.173 -0.0124  0.2051 -0.0056
 1001BOLB   PO224014  22.832   9.195   6.330  0.0883 -0.3765  0.1570
 1001BOLB   GL324015  22.647   9.314   6.713  0.1531  0.1748 -0.0530
 1001BOLB   GL424016  22.363   9.218   6.823  0.0035  0.0542 -0.1024
 1001BOLB   C1C24017  22.588   9.577   7.030  0.3513  0.2783 -0.0926
 1001BOLB   C2C24018  22.130   9.537   7.223 -0.0272 -0.2269 -0.0892
 1001BOLB   C3C24019  21.738   9.650   7.130 -0.1748  0.0789 -0.0780
 1001BOLB   C4C24020  21.253   9.489   7.273 -0.5277  0.1226 -0.3595
 1001BOLB   C1D24021  21.973   9.502   6.719  0.1245 -0.1785 -0.1250
 1001BOLB   C2D24022  21.786   9.919   6.691  0.2968 -0.4607 -0.0393
 1001BOLB   C3D24023  21.666  10.397   6.642  0.0589  0.1176  0.0720
 1001BOLB   C4D24024  21.354  10.571   6.339 -0.0625 -0.0429  0.2547
 1002BOLB   NC124025  13.055  36.233  21.564  0.4423  0.0683 -0.0027
 1002BOLB   PO124026  13.400  36.317  21.817 -0.0326  0.1578 -0.0636
 1002BOLB   GL124027  13.280  36.661  21.596 -0.0279 -0.3048 -0.1160
 1002BOLB   GL224028  13.134  36.697  21.367  0.3211 -0.1339  0.0889
 1002BOLB   C1A24029  13.400  37.098  21.499  0.6541 -0.2953 -0.0683
 1002BOLB   C2A24030  13.531  37.498  21.499 -0.0373 -0.2527 -0.1907
 1002BOLB   C3A24031  14.002  37.654  21.561  0.2481  0.1325  0.3972
 1002BOLB   C4A24032  14.244  37.928  21.822 -0.1804 -0.0712  0.1412
 1002BOLB   C1B24033  12.916  37.063  21.427  0.0465 -0.1075 -0.0330
 1002BOLB   C2B24034  13.075  37.436  21.247  0.0134 -0.0354 -0.0892
 1002BOLB   C3B24035  13.246  37.826  21.228  0.2501  0.0785  0.3538
 1002BOLB   C4B24036  13.339  38.199  21.413  0.0045 -0.1851  0.0678
 1002BOLB   NC224037  16.188  37.169  23.765  0.1512 -0.0087 -0.2611
 1002BOLB   PO224038  15.807  37.084  23.596  0.3219 -0.2637 -0.0380
 1002BOLB   GL324039  15.620  37.379  23.317 -0.0883 -0.0827 -0.0089
 1002BOLB   GL424040  15.795  37.554  23.171 -0.2070 -0.2292  0.2693
 1002BOLB   C1C24041  15.257  37.676  23.092  0.2031  0.0248  0.2210
 1002BOLB   C2C24042  15.248  37.676  22.619  0.0843  0.1716 -0.1168
 1002BOLB   C3C24043  14.824  37.801  22.434  0.0104 -0.0180 -0.2924
 1002BOLB   C4C24044  14.514  37.927  22.118  0.3445 -0.1180 -0.0084
 1002BOLB   C1D24045  15.707  37.662  22.663  0.0604 -0.3377  0.1454
 1002BOLB   C2D24046  15.833  37.910  22.323  0.0395  0.0177  0.0587
 1002BOLB   C3D24047  15.834  37.909  21.854  0.2306 -0.3883  0.2119
 1002BOLB   C4D24048  15.903  37.562  21.573  0.2609  0.0358 -0.0756
 1003BOLB   NC124049  13.689  18.265   6.750  0.3243  0.0042 -0.0794
 1003BOLB   PO124050  13.371  18.090   6.976  0.3374  0.4156  0.2731
 1003BOLB   GL124051  13.266  17.793   7.290 -0.2285  0.0358  0.0351
 1003BOLB   GL224052  12.895  17.659   7.259 -0.1015  0.0743 -0.0173
 1003BOLB   C1A24053  13.154  17.385   7.596  0.2035 -0.2467 -0.0619
 1003BOLB   C2A24054  13.136  16.961   7.794  0.2515  0.0246 -0.2405
 1003BOLB   C3A24055  13.327  16.650   7.928  0.0527  0.2901  0.0608
 1003BOLB   C4A24056  13.237  16.267   7.971  0.3199 -0.1472 -0.4427
 1003BOLB   C1B24057  12.508  17.588   7.477  0.0985 -0.0694  0.0032
 1003BOLB   C2B24058  12.190  17.638   7.699 -0.1796  0.2923 -0.1155
 1003BOLB   C3B24059  11.977  17.713   8.130  0.0955 -0.1713  0.0527
 1003BOLB   C4B24060  11.725  17.944   8.319  0.1339 -0.1117 -0.1633
 1003BOLB   NC224061  11.835  15.881   5.997  0.2466 -0.3167  0.0719
 1003BOLB   PO224062  11.737  16.303   6.089  0.1315  0.2093 -0.1020
 1003BOLB   GL324063  11.918  16.068   6.453 -0.0956  0.1363  0.2164
 1003BOLB   GL424064  11.728  16.001   6.805  0.1365 -0.0285  0.2066
 1003BOLB   C1C24065  12.233  15.867   6.683  0.1101  0.3812 -0.4362
 1003BOLB   C2C24066  12.621  15.991   6.860 -0.0470  0.1269  0.3922
 1003BOLB   C3C24067  12.991  16.068   7.224 -0.0468  0.2529  0.1541
 1003BOLB   C4C24068  13.208  16.095   7.579  0.3082 -0.0470 -0.0276
 1003BOLB   C1D24069  11.900  15.716   7.035  0.1424 -0.2865 -0.2500
 1003BOLB   C2D24070  12.165  15.401   7.149  0.1964  0.0781 -0.0154
 1003BOLB   C3D24071  12.158  15.145   7.435  0.0801 -0.2249 -0.2690
 1003BOLB   C4D24072  12.090  14.979   7.922  0.2801  0.2220 -0.2722
 1004BOLB   NC124073  20.394   7.991  22.486  0.2478 -0.1057 -0.0928
 1004BOLB   PO124074  20.553   7.820  22.093 -0.2002 -0.1492  0.3057
 1004BOLB   GL124075  20.814   7.695  22.432  0.1661  0.1047  0.2944
 1004BOLB   GL224076  20.633   7.634  22.779 -0.2801 -0.1217  0.0548
 1004BOLB   C1A24077  21.224   7.400  22.663 -0.1585  0.1133  0.1537
 1004BOLB   C2A24078  21.680   7.245  22.684 -0.3156 -0.3764  0.0829
 1004BOLB   C3A24079  21.861   6.954  22.850 -0.0045 -0.1363 -0.2947
 1004BOLB   C4A24080  22.192   6.833  23.159  0.0114 -0.1090 -0.0121
 1004BOLB   C1B24081  20.852   7.342  22.997 -0.1673 -0.0641 -0.1310
 1004BOLB   C2B24082  21.075   7.203  23.285  0.0520 -0.3082 -0.3868
 1004BOLB   C3B24083  21.234   7.074  23.655 -0.0278 -0.1941  0.0152
 1004BOLB   C4B24084  21.443   6.761  23.917 -0.2962  0.1850  0.1226
 1004BOLB   NC224085  23.059   5.940  24.849 -0.0575 -0.1768  0.2209
 1004BOLB   PO224086  22.679   5.534  24.815  0.4130 -0.0656  0.3290
 1004BOLB   GL324087  22.525   5.766  24.472  0.4359  0.0974  0.3153
 1004BOLB   GL424088  22.541   5.528  24.266  0.5557 -0.3926  0.0037
 1004BOLB   C1C24089  22.229   6.024  24.444  0.1470  0.0411  0.1293
 1004BOLB   C2C24090  22.098   6.341  24.247  0.0809  0.0016 -0.0490
 1004BOLB   C3C24091  22.063   6.591  23.933 -0.1254 -0.0671 -0.1676
 1004BOLB   C4C24092  22.079   6.864  23.615  0.0889  0.1752 -0.0451
 1004BOLB   C1D24093  22.309   5.787  24.030 -0.2313  0.0877  0.0503
 1004BOLB   C2D24094  21.988   5.986  23.749  0.3182  0.1126 -0.0389
 1004BOLB   C3D24095  21.713   5.873  23.400  0.0208 -0.0595 -0.3445
 1004BOLB   C4D24096  21.379   6.070  23.209  0.1466  0.0613 -0.0103
 1005BOLB   NC124097   3.976  12.154  16.237 -0.0758  0.3787 -0.0718
 1005BOLB   PO124098   3.637  11.704  16.248 -0.0874  0.2089 -0.0579
 1005BOLB   GL124099   4.044  11.554  16.163  0.0815 -0.3199  0.1149
 1005BOLB   GL224100   4.218  11.544  16.339 -0.0363 -0.1259 -0.1233
 1005BOLB   C1A24101   4.193  11.216  15.890  0.1338  0.1860  0.1795
 1005BOLB   C2A24102   4.429  11.112  15.702 -0.4149  0.1306  0.0725
 1005BOLB   C3A24103   4.723  11.070  15.493 -0.0243  0.2128  0.0166
 1005BOLB   C4A24104   4.901  10.675  15.614 -0.5048 -0.4272 -0.1399
 1005BOLB   C1B24105   4.611  11.437  16.166  0.4256  0.1748 -0.1334
 1005BOLB   C2B24106   4.906  11.276  15.943  0.0306  0.0812 -0.1307
 1005BOLB   C3B24107   5.217  11.015  15.814  0.2744 -0.3021  0.5492
 1005BOLB   C4B24108   5.325  10.502  15.927  0.2027 -0.2250  0.5470
 1005BOLB   NC224109   2.884  10.473  15.978  0.2268  0.1203 -0.0263
 1005BOLB   PO224110   3.256  10.456  16.225  0.0593 -0.0692 -0.5277
 1005BOLB   GL324111   3.563  10.566  16.041 -0.2397  0.1173  0.0060
 1005BOLB   GL424112   3.727  10.882  15.860 -0.0160 -0.3382 -0.0335
 1005BOLB   C1C24113   3.966  10.393  15.945  0.1919 -0.2081  0.0094
 1005BOLB   C2C24114   4.191  10.132  15.651 -0.0562 -0.0260  0.1401
 1005BOLB   C3C24115   4.579  10.010  15.615 -0.1791  0.2898  0.2864
 1005BOLB   C4C24116   4.932  10.173  15.770  0.0696  0.3156 -0.1957
 1005BOLB   C1D24117   3.927  10.655  15.515  0.2497  0.1861 -0.0855
 1005BOLB   C2D24118   3.990  10.325  15.202  0.2810 -0.2013 -0.0219
 1005BOLB   C3D24119   4.026  10.121  14.825  0.2133 -0.1481 -0.3081
 1005BOLB   C4D24120   4.365   9.961  14.674 -0.0343  0.0715  0.1771
 1006BOLB   NC124121  20.563   4.666   3.880  0.0989  0.3370  0.4113
 1006BOLB   PO124122  20.476   4.824   4.180 -0.0753  0.1345  0.0210
 1006BOLB   GL124123  20.083   4.874   4.335  0.1927  0.2457 -0.5691
 1006BOLB   GL224124  20.055   5.119   4.305  0.2845  0.0947 -0.0731
 1006BOLB   C1A24125  19.614   4.771   4.487 -0.4004 -0.2635  0.2039
 1006BOLB   C2A24126  19.179   4.540   4.462  0.4449 -0.2405 -0.0229
 1006BOLB   C3A24127  18.757   4.489   4.443  0.1637 -0.2010  0.1202
 1006BOLB   C4A24128  18.405   4.369   4.291 -0.0269 -0.0104  0.3808
 1006BOLB   C1B24129  19.874   5.399   4.601 -0.1370 -0.1817 -0.2857
 1006BOLB   C2B24130  19.479   5.487   4.801  0.1176 -0.1640 -0.0378
 1006BOLB   C3B24131  19.118   5.758   4.676  0.0148 -0.3384  0.2265
 1006BOLB   C4B24132  18.773   5.837   4.491  0.0179  0.1559  0.3016
 1006BOLB   NC224133  18.561   4.847   2.363  0.0666 -0.4249 -0.0361
 1006BOLB   PO224134  18.436   4.466   2.060  0.1484 -0.0225  0.2053
 1006BOLB   GL324135  18.166   4.614   2.457 -0.0520  0.0544 -0.0298
 1006BOLB   GL424136  17.856   4.573   2.506  0.0303  0.0859 -0.2988
 1006BOLB   C1C24137  18.182   4.773   2.857 -0.0639  0.0572  0.3202
 1006BOLB   C2C24138  17.995   4.734   3.299  0.1257 -0.3166  0.1377
 1006BOLB   C3C24139  17.909   4.459   3.666 -0.3079 -0.2957  0.0708
 1006BOLB   C4C24140  17.969   4.282   3.996 -0.1471 -0.2356 -0.1163
 1006BOLB   C1D24141  17.746   4.309   2.934  0.1547  0.1231 -0.2663
 1006BOLB   C2D24142  17.642   4.182   3.357  0.3034 -0.1212 -0.1265
 1006BOLB   C3D24143  17.525   3.830   3.697 -0.0866 -0.1564 -0.1890
 1006BOLB   C4D24144  17.568   3.639   4.027  0.0957  0.1931 -0.1439
 1007BOLB   NC124145  16.494   9.256   9.526  0.0443  0.1030  0.2440
 1007BOLB   PO124146  16.603   8.998   9.229  0.0572  0.0421 -0.2411
 1007BOLB   GL124147  16.498   9.055   8.794  0.2137  0.1800  0.1932
 1007BOLB   GL224148  16.248   9.145   8.546 -0.4080 -0.1353 -0.4680
 1007BOLB   C1A24149  16.488   8.652   8.595  0.0903 -0.0148  0.1979
 1007BOLB   C2A24150  16.664   8.314   8.320  0.2111  0.0852 -0.1812
 1007BOLB   C3A24151  16.970   8.160   7.993  0.1194  0.0872  0.2810
 1007BOLB   C4A24152  17.084   8.113   7.525  0.3104  0.2992 -0.1299
 1007BOLB   C1B24153  16.038   8.759   8.392 -0.0381 -0.1149 -0.0924
 1007BOLB   C2B24154  16.099   8.318   8.307 -0.0679 -0.0254  0.1406
 1007BOLB   C3B24155  16.298   8.278   7.894  0.1106 -0.0089  0.3435
 1007BOLB   C4B24156  16.558   7.963   7.841  0.2013 -0.2990  0.1846
 1007BOLB   NC224157  17.092   9.132   8.799  0.0344  0.3187 -0.1301
 1007BOLB   PO224158  16.988   9.549   8.672 -0.0591  0.1105  0.0797
 1007BOLB   GL324159  16.696   9.415   8.424 -0.0470 -0.0178  0.3608
 1007BOLB   GL424160  16.783   9.113   8.389 -0.3320 -0.0413  0.1738
 1007BOLB   C1C24161  16.396   9.007   8.079 -0.2105 -0.1194  0.0557
 1007BOLB   C2C24162  16.475   8.840   7.725 -0.0945  0.1587  0.0853
 1007BOLB   C3C24163  16.440   8.448   7.444 -0.0888 -0.2958  0.0565
 1007BOLB   C4C24164  16.677   8.149   7.358 -0.0682  0.0031 -0.2865
 1007BOLB   C1D24165  16.814   8.744   8.095 -0.3613 -0.0731 -0.1366
 1007BOLB   C2D24166  16.891   8.537   7.687  0.1110 -0.2716  0.0358
 1007BOLB   C3D24167  16.937   8.639   7.290 -0.0006  0.0864  0.1609
 1007BOLB   C4D24168  17.019   8.731   6.869  0.0836  0.0672  0.1232
 1008BOLB   NC124169  10.114   6.671   1.137  0.2811  0.2846  0.2491
 1008BOLB   PO124170   9.881   6.972   1.419 -0.0907  0.1520  0.0719
 1008BOLB   GL124171   9.758   6.846   1.799 -0.0252 -0.0839 -0.0438
 1008BOLB   GL224172  10.063   6.676   1.927 -0.2913  0.0131  0.0977
 1008BOLB   C1A24173   9.745   6.913   2.280  0.1142  0.0739  0.1600
 1008BOLB   C2A24174   9.439   7.214   2.508 -0.1437  0.0755 -0.0346
 1008BOLB   C3A24175   9.154   7.546   2.567 -0.0780 -0.1003 -0.1550
 1008BOLB   C4A24176   8.901   7.778   2.432  0.0923  0.1521 -0.3144
 1008BOLB   C1B24177  10.150   7.113   2.077 -0.0623 -0.0073  0.1075
 1008BOLB   C2B24178  10.604   7.296   2.209  0.2404 -0.0505  0.0946
 1008BOLB   C3B24179  10.768   7.697   2.401 -0.1018 -0.1524 -0.1697
 1008BOLB   C4B24180  11.075   7.968   2.158 -0.0397  0.0807 -0.0634
 1008BOLB   NC224181   8.245   9.101   1.976 -0.0349 -0.0546 -0.2040
 1008BOLB   PO224182   7.925   9.107   2.371 -0.1806 -0.2431  0.1068
 1008BOLB   GL324183   8.046   9.302   2.702  0.1934  0.1615 -0.1438
 1008BOLB   GL424184   8.101   9.670   2.857  0.0984 -0.2464  0.2294
 1008BOLB   C1C24185   8.275   9.182   2.974  0.0232 -0.0321  0.0229
 1008BOLB   C2C24186   8.510   8.829   3.033  0.3026 -0.1469 -0.0962
 1008BOLB   C3C24187   8.553   8.427   2.844  0.0632  0.0602 -0.0677
 1008BOLB   C4C24188   8.620   8.087   2.618  0.2478 -0.2559 -0.0803
 1008BOLB   C1D24189   7.954   9.443   3.216  0.2072 -0.0365 -0.2379
 1008BOLB   C2D24190   8.099   9.458   3.596  0.2231  0.1706  0.0543
 1008BOLB   C3D24191   8.173   9.579   3.934  0.0324  0.1252  0.0315
 1008BOLB   C4D24192   8.482   9.838   4.223 -0.0676 -0.0512  0.0000
 1009BOLB   NC124193   3.149   1.553  11.920 -0.3261  0.2175 -0.3084
 1009BOLB   PO124194   2.711   1.589  11.960  0.2104  0.2850 -0.0749
 1009BOLB   GL124195   2.947   1.678  12.378  0.2745 -0.3492  0.0933
 1009BOLB   GL224196   3.327   1.592  12.458 -0.0503 -0.1228  0.0995
 1009BOLB   C1A24197   3.052   1.989  12.757  0.1368 -0.0363 -0.2989
 1009BOLB   C2A24198   3.488   2.154  12.968 -0.2110  0.4189 -0.1017
 1009BOLB   C3A24199   3.948   2.112  12.934 -0.0840  0.1169 -0.2397
 1009BOLB   C4A24200   4.295   2.010  12.783 -0.1069 -0.0750  0.0221
 1009BOLB   C1B24201   3.443   1.349  12.793 -0.1640 -0.0148  0.0153
 1009BOLB   C2B24202   3.569   0.951  12.985 -0.5161 -0.0848 -0.3000
 1009BOLB   C3B24203   4.027   0.781  13.254 -0.1753  0.2369  0.1892
 1009BOLB   C4B24204   4.352   0.652  13.557  0.1347  0.0231  0.0973
 1009BOLB   NC224205   3.618   0.649  11.424 -0.0305 -0.0527  0.0171
 1009BOLB   PO224206   3.629   0.637  11.878  0.2769 -0.1523  0.1688
 1009BOLB   GL324207   3.914   0.687  12.075 -0.0213 -0.1197  0.3377
 1009BOLB   GL424208   3.946   0.996  12.197  0.2912 -0.1624 -0.2440
 1009BOLB   C1C24209   4.331   0.763  12.053 -0.0380  0.2562  0.5728
 1009BOLB   C2C24210   4.547   0.994  12.066  0.0756 -0.0261  0.1780
 1009BOLB   C3C24211   4.644   1.443  12.298 -0.1199  0.1981 -0.0800
 1009BOLB   C4C24212   4.548   1.728  12.505  0.0637 -0.0873  0.0910
 1009BOLB   C1D24213   3.987   1.236  12.541  0.1321  0.2975  0.2173
 1009BOLB   C2D24214   4.217   1.438  12.846 -0.1573  0.1832 -0.0580
 1009BOLB   C3D24215   4.535   1.565  13.060 -0.3111  0.1762 -0.0687
 1009BOLB   C4D24216   4.961   1.704  13.091 -0.1308  0.1923  0.1262
 1010BOLB   NC124217  16.935  17.751   6.423 -0.0614 -0.0114 -0.0241
 1010BOLB   PO124218  17.274  17.681   6.082  0.0821  0.0690  0.0979
 1010BOLB   GL124219  17.182  17.347   6.435 -0.0944  0.1173 -0.2042
 1010BOLB   GL224220  17.489  17.343   6.592  0.0294 -0.0925  0.1829
 1010BOLB   C1A24221  17.067  16.866   6.422 -0.0215 -0.1401 -0.0280
 1010BOLB   C2A24222  16.698  16.647   6.471  0.0911  0.0214  0.0018
 1010BOLB   C3A24223  16.187  16.578   6.641  0.0353 -0.0382 -0.3546
 1010BOLB   C4A24224  15.962  16.474   6.975  0.3300  0.0887 -0.1258
 1010BOLB   C1B24225  17.549  16.873   6.690 -0.0958  0.0874  0.0994
 1010BOLB   C2B24226  17.315  16.607   6.797  0.0180 -0.1951 -0.0407
 1010BOLB   C3B24227  17.076  16.372   7.095 -0.0289 -0.0837 -0.2839
 1010BOLB   C4B24228  16.753  16.052   7.346 -0.2089  0.1053 -0.0237
 1010BOLB   NC224229  14.554  18.182   6.289 -0.1462  0.1713  0.0317
 1010BOLB   PO224230  14.852  18.453   6.697  0.1240  0.2015  0.1820
 1010BOLB   GL324231  14.709  18.132   6.991 -0.0914 -0.0575  0.2664
 1010BOLB   GL424232  14.682  18.038   7.316 -0.0087  0.0075  0.1285
 1010BOLB   C1C24233  14.968  17.710   7.030 -0.1456 -0.2108 -0.1183
 1010BOLB   C2C24234  14.903  17.267   7.140  0.0126 -0.0084  0.2713
 1010BOLB   C3C24235  15.243  16.840   7.112  0.0796  0.2431  0.0197
 1010BOLB   C4C24236  15.547  16.526   7.006 -0.1390  0.1339  0.1152
 1010BOLB   C1D24237  14.572  18.354   7.553 -0.1963  0.0150  0.2881
 1010BOLB   C2D24238  14.473  18.702   7.857  0.1833 -0.2372  0.1972
 1010BOLB   C3D24239  14.363  18.765   8.275  0.0601 -0.3897  0.0414
 1010BOLB   C4D24240  14.649  18.798   8.691  0.0139  0.2981 -0.0646
 1011BOLB   NC124241  20.869  14.940  20.307 -0.1359  0.3177 -0.2266
 1011BOLB   PO124242  20.808  14.777  20.732 -0.0136  0.0637 -0.0239
 1011BOLB   GL124243  21.137  14.982  20.820  0.0508  0.5236  0.2683
 1011BOLB   GL224244  21.325  14.767  21.010  0.2576  0.1351 -0.2462
 1011BOLB   C1A24245  21.244  15.407  20.880 -0.1202  0.1297  0.2812
 1011BOLB   C2A24246  21.520  15.697  21.014  0.0221 -0.1954  0.0724
 1011BOLB   C3A24247  21.895  15.891  21.250  0.1624  0.0741  0.4013
 1011BOLB   C4A24248  22.109  16.136  21.525  0.0135 -0.3916  0.0361
 1011BOLB   C1B24249  21.499  15.078  21.185 -0.1414  0.1267  0.1441
 1011BOLB   C2B24250  21.631  15.430  21.442 -0.5840  0.2429 -0.0102
 1011BOLB   C3B24251  21.864  15.649  21.746  0.1241 -0.0707 -0.0572
 1011BOLB   C4B24252  22.045  15.922  22.115 -0.0944  0.0362 -0.0137
 1011BOLB   NC224253  23.987  17.144  22.519 -0.4101 -0.2937  0.2080
 1011BOLB   PO224254  23.975  17.511  22.246  0.0182  0.0861  0.4049
 1011BOLB   GL324255  23.542  17.291  22.266 -0.5741  0.0734 -0.0995
 1011BOLB   GL424256  23.323  17.637  22.219  0.4829 -0.1149 -0.4269
 1011BOLB   C1C24257  23.297  16.892  22.247 -0.4851  0.1181 -0.0837
 1011BOLB   C2C24258  22.953  16.647  22.149 -0.3387  0.1067 -0.1905
 1011BOLB   C3C24259  22.562  16.690  21.915 -0.0492 -0.2008 -0.1655
 1011BOLB   C4C24260  22.164  16.477  21.827  0.0841  0.0737 -0.1044
 1011BOLB   C1D24261  22.981  17.635  21.968 -0.1521  0.0153  0.2909
 1011BOLB   C2D24262  22.526  17.712  22.137  0.0518  0.1963 -0.0198
 1011BOLB   C3D24263  22.102  17.646  22.068 -0.0600  0.0153  0.0679
 1011BOLB   C4D24264  21.806  17.346  22.029  0.2513  0.0403  0.0105
 1012BOLB   NC124265  14.133  30.724  12.741 -0.1415  0.0947  0.0251
 1012BOLB   PO124266  14.262  31.119  12.645 -0.0689  0.0917 -0.1649
 1012BOLB   GL124267  14.287  31.458  12.545 -0.0577  0.4333 -0.1913
 1012BOLB   GL224268  14.190  31.646  12.712  0.1031  0.0112  0.0614
 1012BOLB   C1A24269  14.417  31.700  12.214  0.0917  0.0482 -0.0853
 1012BOLB   C2A24270  14.343  32.052  12.184  0.2193 -0.1860  0.5067
 1012BOLB   C3A24271  14.099  32.373  12.236  0.0054 -0.0000 -0.2029
 1012BOLB   C4A24272  14.226  32.762  12.295 -0.5666 -0.2153  0.0203
 1012BOLB   C1B24273  14.063  32.093  12.706 -0.1152 -0.2884  0.2846
 1012BOLB   C2B24274  13.847  32.524  12.696 -0.0783  0.0466 -0.1267
 1012BOLB   C3B24275  13.833  32.902  12.981 -0.2095  0.0013 -0.0018
 1012BOLB   C4B24276  13.598  33.131  13.306 -0.1323 -0.3231 -0.3588
 1012BOLB   NC224277  16.241  31.925  11.209 -0.2588 -0.0415 -0.0184
 1012BOLB   PO224278  15.925  32.230  11.397  0.0085 -0.2495  0.1917
 1012BOLB   GL324279  15.632  32.414  11.672 -0.2177  0.2671 -0.3043
 1012BOLB   GL424280  15.285  32.310  11.697 -0.1351 -0.3353 -0.1720
 1012BOLB   C1C24281  15.581  32.906  11.806 -0.1748  0.1625 -0.1631
 1012BOLB   C2C24282  15.463  33.153  12.191  0.1884 -0.1482  0.2896
 1012BOLB   C3C24283  15.072  33.036  12.409  0.2545  0.1624  0.2788
 1012BOLB   C4C24284  14.606  32.986  12.431  0.1998  0.1558 -0.0888
 1012BOLB   C1D24285  14.960  32.646  11.670 -0.0069  0.1254  0.0092
 1012BOLB   C2D24286  14.914  32.928  11.924  0.3872  0.1146  0.1783
 1012BOLB   C3D24287  14.693  33.270  12.053 -0.1677 -0.0946  0.0244
 1012BOLB   C4D24288  14.248  33.403  12.188 -0.2529 -0.0579 -0.0941
 1013BOLB   NC124289  23.618   8.431  18.035  0.1112 -0.0479 -0.2776
 1013BOLB   PO124290  23.515   8.149  17.673  0.0124 -0.0627 -0.0866
 1013BOLB   GL124291  23.971   8.100  17.696 -0.2678  0.0415 -0.2328
 1013BOLB   GL224292  24.170   7.766  17.508  0.0525 -0.2605  0.0650
 1013BOLB   C1A24293  24.453   8.117  17.920  0.0304 -0.0062 -0.3264
 1013BOLB   C2A24294  24.822   7.993  18.013 -0.0826 -0.1769  0.1864
 1013BOLB   C3A24295  25.227   8.098  18.231 -0.0556 -0.1582 -0.0172
 1013BOLB   C4A24296  25.502   8.066  18.446 -0.0180 -0.1173  0.1077
 1013BOLB   C1B24297  24.548   7.668  17.684  0.3693  0.4026 -0.1419
 1013BOLB   C2B24298  24.917   7.484  17.842  0.0193 -0.4232 -0.0846
 1013BOLB   C3B24299  25.234   7.202  18.128  0.4478 -0.0034  0.2175
 1013BOLB   C4B24300  25.625   6.951  18.191  0.1401 -0.1627  0.0933
 1013BOLB   NC224301  27.902   7.129  18.407 -0.1469  0.0445  0.0383
 1013BOLB   PO224302  27.826   7.308  18.799 -0.0415 -0.0485 -0.0396
 1013BOLB   GL324303  27.395   7.340  18.773 -0.0768  0.0345  0.1452
 1013BOLB   GL424304  27.267   7.649  18.604 -0.0261  0.0169  0.1997
 1013BOLB   C1C24305  26.992   7.396  18.881 -0.2194  0.1604  0.3081
 1013BOLB   C2C24306  26.518   7.537  18.790 -0.2276  0.1700 -0.2724
 1013BOLB   C3C24307  26.122   7.481  18.882 -0.1606 -0.0090 -0.2423
 1013BOLB   C4C24308  25.783   7.653  18.633  0.0128 -0.0616  0.2238
 1013BOLB   C1D24309  26.820   7.767  18.478  0.0098  0.3644 -0.2018
 1013BOLB   C2D24310  26.404   7.596  18.211  0.0112 -0.2360  0.1203
 1013BOLB   C3D24311  26.103   7.541  17.871  0.1594 -0.0496  0.1273
 1013BOLB   C4D24312  25.796   7.646  17.657 -0.1338  0.1257  0.0787
 1014BOLB   NC124313  20.563   9.503  27.396  0.1050 -0.1154  0.0646
 1014BOLB   PO124314  20.752   9.972  27.186  0.1122 -0.2465 -0.1246
 1014BOLB   GL124315  20.841   9.931  26.727  0.1162 -0.0518 -0.2558
 1014BOLB   GL224316  21.284   9.926  26.613 -0.2971  0.2071 -0.2241
 1014BOLB   C1A24317  20.686  10.311  26.496 -0.1815 -0.0458  0.0152
 1014BOLB   C2A24318  20.383  10.488  26.340 -0.0488 -0.1430 -0.7546
 1014BOLB   C3A24319  20.294  10.647  25.939  0.3044 -0.1088  0.1333
 1014BOLB   C4A24320  20.265  11.023  25.782  0.3572  0.3030 -0.3158
 1014BOLB   C1B24321  20.990   9.966  26.164  0.0828  0.0330 -0.1598
 1014BOLB   C2B24322  20.927   9.680  25.957  0.0734 -0.1506 -0.0530
 1014BOLB   C3B24323  21.113   9.555  25.546 -0.3110 -0.2013  0.1017
 1014BOLB   C4B24324  21.051   9.581  25.000 -0.2694 -0.0152 -0.1343
 1014BOLB   NC224325  21.399  13.222  27.073  0.1586 -0.4114  0.3179
 1014BOLB   PO224326  21.216  12.750  27.161 -0.1266  0.0470  0.1295
 1014BOLB   GL324327  20.924  12.610  26.844  0.0778  0.4349  0.0116
 1014BOLB   GL424328  20.965  12.748  26.492 -0.0339 -0.0717  0.1359
 1014BOLB   C1C24329  20.813  12.304  26.513 -0.3672  0.2053  0.4219
 1014BOLB   C2C24330  20.939  11.955  26.252 -0.2393  0.0957  0.2398
 1014BOLB   C3C24331  20.698  11.678  25.917 -0.3090  0.0673 -0.0536
 1014BOLB   C4C24332  20.585  11.375  25.670  0.2530  0.2079 -0.3006
 1014BOLB   C1D24333  20.952  12.528  26.100  0.1018 -0.2052 -0.0703
 1014BOLB   C2D24334  20.881  12.228  25.860 -0.2630 -0.1928 -0.2059
 1014BOLB   C3D24335  21.087  11.934  25.699 -0.1789 -0.0308  0.0179
 1014BOLB   C4D24336  21.394  11.738  25.530 -0.0781 -0.2459  0.2670
 1015BOLB   NC124337   1.270  10.687  14.191  0.2213  0.0510 -0.1547
 1015BOLB   PO124338   1.631  10.804  13.856  0.0051 -0.1595  0.0227
 1015BOLB   GL124339   1.999  10.502  13.595  0.1656 -0.0071  0.1818
 1015BOLB   GL224340   2.140  10.673  13.329 -0.4595 -0.2158 -0.1265
 1015BOLB   C1A24341   2.323  10.223  13.540  0.1385  0.2584  0.3685
 1015BOLB   C2A24342   2.587   9.895  13.307 -0.2724  0.0240  0.0071
 1015BOLB   C3A24343   2.728   9.462  13.105  0.1615  0.1818 -0.1707
 1015BOLB   C4A24344   2.961   9.079  12.970  0.0696  0.4607 -0.1260
 1015BOLB   C1B24345   2.617  10.534  13.241 -0.2847 -0.2059 -0.2143
 1015BOLB   C2B24346   2.968  10.568  13.343  0.2884  0.0712 -0.0238
 1015BOLB   C3B24347   3.221  10.622  13.651  0.3521  0.2928  0.0851
 1015BOLB   C4B24348   3.404  10.800  13.950 -0.1749 -0.0084  0.0929
 1015BOLB   NC224349   0.517   9.120  11.972  0.1731  0.2619  0.0046
 1015BOLB   PO224350   0.909   9.228  12.203  0.0138  0.1702 -0.2619
 1015BOLB   GL324351   1.067   8.838  12.314 -0.0866 -0.0609  0.0099
 1015BOLB   GL424352   1.244   8.911  12.592 -0.0029 -0.2829 -0.1816
 1015BOLB   C1C24353   1.489   8.622  12.054 -0.1931 -0.1070  0.0700
 1015BOLB   C2C24354   1.916   8.696  12.020 -0.3869  0.0121 -0.3645
 1015BOLB   C3C24355   2.179   8.642  12.423  0.2112  0.2191  0.0495
 1015BOLB   C4C24356   2.678   8.699  12.642  0.1181  0.2563  0.0419
 1015BOLB   C1D24357   1.492   8.862  12.972 -0.0031 -0.0600  0.1673
 1015BOLB   C2D24358   1.767   8.960  13.214  0.0297 -0.0984  0.1117
 1015BOLB   C3D24359   2.097   9.270  13.210  0.4873 -0.1706  0.1633
 1015BOLB   C4D24360   2.264   9.666  12.971  0.2690 -0.1582  0.0774
 1016BOLB   NC124361   5.999  35.128  10.378 -0.0368 -0.2169  0.3548
 1016BOLB   PO124362   6.275  34.786  10.653 -0.0703 -0.1050 -0.3955
 1016BOLB   GL124363   6.453  35.122  10.573  0.0581 -0.1276 -0.0863
 1016BOLB   GL224364   6.322  35.465  10.711 -0.0418  0.1078  0.0052
 1016BOLB   C1A24365   6.838  35.492  10.563 -0.2142  0.2839 -0.0152
 1016BOLB   C2A24366   7.193  35.910  10.576 -0.1372  0.2474  0.1919
 1016BOLB   C3A24367   7.250  36.321  10.381  0.1585 -0.0367 -0.1912
 1016BOLB   C4A24368   6.935  36.635  10.451  0.4722 -0.3036  0.0053
 1016BOLB   C1B24369   6.425  35.874  10.857 -0.1792  0.0357 -0.1390
 1016BOLB   C2B24370   6.244  36.265  11.000 -0.0074 -0.1565  0.1781
 1016BOLB   C3B24371   6.145  36.633  11.202 -0.0907 -0.2721  0.0328
 1016BOLB   C4B24372   6.156  37.025  11.445 -0.2228 -0.2078  0.1211
 1016BOLB   NC224373   5.226  36.191  10.119 -0.0442  0.0388  0.2159
 1016BOLB   PO224374   4.825  36.340  10.187 -0.1840  0.3773  0.1452
 1016BOLB   GL324375   5.028  36.567  10.469  0.2240  0.3507  0.3345
 1016BOLB   GL424376   5.188  36.501  10.896  0.2777 -0.1040 -0.3532
 1016BOLB   C1C24377   5.475  36.730  10.530 -0.3073  0.0740 -0.0204
 1016BOLB   C2C24378   5.927  36.847  10.583 -0.2976 -0.1304  0.3441
 1016BOLB   C3C24379   6.281  37.160  10.474 -0.0831 -0.4313  0.3139
 1016BOLB   C4C24380   6.708  37.018  10.404 -0.0484 -0.1666 -0.2911
 1016BOLB   C1D24381   5.689  36.709  11.065 -0.1400 -0.0903 -0.1043
 1016BOLB   C2D24382   6.034  37.097  11.000  0.4198 -0.1148 -0.1987
 1016BOLB   C3D24383   6.550  37.072  11.109 -0.0839  0.0210  0.0902
 1016BOLB   C4D24384   6.638  36.754  11.485 -0.2504 -0.2562  0.2083
 1017BOLB   NC124385  27.182  16.900  15.146  0.1340 -0.0983 -0.0878
 1017BOLB   PO124386  27.196  16.990  14.751 -0.2716 -0.2540 -0.0218
 1017BOLB   GL124387  26.826  16.637  14.793  0.1206 -0.3503  0.2595
 1017BOLB   GL224388  26.956  16.440  15.102 -0.1692  0.2010  0.1983
 1017BOLB   C1A24389  26.683  16.145  14.796  0.0923  0.0550  0.3167
 1017BOLB   C2A24390  26.390  15.949  14.940 -0.2548  0.0402 -0.1463
 1017BOLB   C3A24391  25.942  15.753  14.941  0.0747 -0.0633 -0.1874
 1017BOLB   C4A24392  25.594  15.945  14.609  0.0137 -0.1891 -0.2242
 1017BOLB   C1B24393  26.827  15.955  15.226 -0.1049 -0.0617 -0.0677
 1017BOLB   C2B24394  26.498  15.808  15.442 -0.0865  0.1333  0.1912
 1017BOLB   C3B24395  26.058  15.794  15.464  0.2022  0.4456 -0.2408
 1017BOLB   C4B24396  25.956  15.381  15.318  0.1293 -0.0189  0.1486
 1017BOLB   NC224397  26.441  17.281  13.411  0.0218  0.1969  0.0240
 1017BOLB   PO224398  26.132  17.429  13.155  0.2783 -0.0171  0.1209
 1017BOLB   GL324399  25.799  17.070  13.232  0.1821  0.4423  0.2864
 1017BOLB   GL424400  25.516  17.116  13.065 -0.2842  0.3185 -0.1071
 1017BOLB   C1C24401  25.535  17.014  13.548  0.1912  0.0232  0.3000
 1017BOLB   C2C24402  25.281  16.687  13.701 -0.1686  0.1302  0.0185
 1017BOLB   C3C24403  25.319  16.242  13.837  0.2324  0.3291  0.0844
 1017BOLB   C4C24404  25.337  16.051  14.210 -0.1639 -0.0031  0.1172
 1017BOLB   C1D24405  25.055  17.013  13.286  0.1278  0.1422 -0.1008
 1017BOLB   C2D24406  24.875  16.570  13.456  0.0188  0.1766  0.2348
 1017BOLB   C3D24407  24.539  16.206  13.558  0.0631  0.1318  0.1662
 1017BOLB   C4D24408  24.288  15.874  13.455  0.0647  0.0136 -0.1364
 1018BOLB   NC124409   1.835   2.680  14.493  0.2375  0.0411  0.2078
 1018BOLB   PO124410   1.995   2.628  14.079  0.2371 -0.1071  0.1907
 1018BOLB   GL124411   2.254   2.916  14.272 -0.1730  0.0210  0.1046
 1018BOLB   GL224412   2.141   3.138  14.579 -0.2072 -0.0419 -0.2084
 1018BOLB   C1A24413   2.560   3.242  14.308  0.0529 -0.1616 -0.3509
 1018BOLB   C2A24414   2.966   3.444  14.328  0.1378 -0.0439  0.3867
 1018BOLB   C3A24415   3.399   3.423  14.277  0.0969  0.3428  0.0191
 1018BOLB   C4A24416   3.682   3.133  14.598 -0.0326 -0.1340 -0.4167
 1018BOLB   C1B24417   2.125   3.478  14.277  0.4799  0.0247  0.0154
 1018BOLB   C2B24418   2.336   3.570  13.979 -0.0398 -0.3074  0.0787
 1018BOLB   C3B24419   2.720   3.384  13.860 -0.0739 -0.0665  0.1532
 1018BOLB   C4B24420   2.920   3.385  13.469  0.1112 -0.0504 -0.0136
 1018BOLB   NC224421   2.263   2.025  16.496 -0.1115  0.0537 -0.2927
 1018BOLB   PO224422   2.291   1.971  16.074 -0.2530  0.0908 -0.0905
 1018BOLB   GL324423   2.637   2.097  15.927 -0.1208 -0.2247 -0.2673
 1018BOLB   GL424424   2.842   1.998  16.189 -0.1198  0.1688  0.0934
 1018BOLB   C1C24425   3.089   2.270  15.787 -0.0122  0.4907 -0.0867
 1018BOLB   C2C24426   3.416   2.483  15.531 -0.0894  0.1649  0.0692
 1018BOLB   C3C24427   3.564   2.506  15.195  0.0018 -0.0160  0.0081
 1018BOLB   C4C24428   3.838   2.839  14.991  0.0295  0.0515  0.0418
 1018BOLB   C1D24429   3.211   2.183  16.493 -0.2795 -0.1303  0.4793
 1018BOLB   C2D24430   3.560   2.220  16.613  0.0141 -0.3346  0.1410
 1018BOLB   C3D24431   3.812   2.316  16.927 -0.3348 -0.1216 -0.1452
 1018BOLB   C4D24432   4.023   2.462  17.197  0.1077 -0.1885 -0.2601
 1019BOLB   NC124433   6.845  18.641  13.988  0.2580  0.0297 -0.0313
 1019BOLB   PO124434   7.153  18.400  13.753 -0.1649 -0.2608 -0.1612
 1019BOLB   GL124435   7.570  18.121  13.725  0.1422  0.0700  0.0082
 1019BOLB   GL224436   7.628  17.940  13.875 -0.0575  0.2883 -0.1667
 1019BOLB   C1A24437   7.976  18.304  13.568  0.3472 -0.0958 -0.7439
 1019BOLB   C2A24438   8.437  18.143  13.518 -0.0544 -0.0176  0.1116
 1019BOLB   C3A24439   8.726  18.049  13.820 -0.2076  0.0623  0.1365
 1019BOLB   C4A24440   9.073  18.259  14.025  0.0730 -0.0281 -0.4396
 1019BOLB   C1B24441   7.552  17.445  13.710 -0.0554 -0.3060 -0.1575
 1019BOLB   C2B24442   7.798  17.159  13.585  0.1494  0.0882  0.1583
 1019BOLB   C3B24443   8.123  16.893  13.526 -0.0559 -0.0250 -0.0116
 1019BOLB   C4B24444   8.329  16.489  13.528  0.1877 -0.0159 -0.2216
 1019BOLB   NC224445   8.399  19.480  15.098 -0.0395 -0.1824 -0.0470
 1019BOLB   PO224446   8.627  19.910  14.961  0.0036  0.1695  0.1397
 1019BOLB   GL324447   8.959  19.743  15.135 -0.3263 -0.3910  0.1115
 1019BOLB   GL424448   8.828  19.398  15.284 -0.4311  0.1492 -0.0945
 1019BOLB   C1C24449   9.300  19.661  14.795  0.0725  0.0978 -0.1317
 1019BOLB   C2C24450   9.552  19.220  14.612  0.3213  0.2933  0.3044
 1019BOLB   C3C24451   9.323  18.802  14.680  0.4794 -0.2926 -0.2187
 1019BOLB   C4C24452   9.153  18.523  14.362 -0.4249 -0.3795  0.1690
 1019BOLB   C1D24453   9.331  19.398  15.288 -0.2414  0.0359 -0.0847
 1019BOLB   C2D24454   9.615  19.235  15.504  0.1686  0.0056 -0.1603
 1019BOLB   C3D24455   9.844  18.851  15.618  0.0321 -0.0834  0.0850
 1019BOLB   C4D24456   9.903  18.522  15.373  0.3058  0.2015  0.0127
 1020BOLB   NC124457   5.465   4.821  20.973  0.0532  0.0166  0.1231
 1020BOLB   PO124458   5.323   5.209  21.006 -0.1844 -0.0528  0.1429
 1020BOLB   GL124459   5.552   5.392  20.741  0.1894  0.1388  0.3017
 1020BOLB   GL224460   5.882   5.241  20.820  0.1809 -0.5675  0.0804
 1020BOLB   C1A24461   5.839   5.351  20.314  0.1000 -0.0731  0.1420
 1020BOLB   C2A24462   6.106   5.229  20.059  0.1533  0.0187 -0.1340
 1020BOLB   C3A24463   6.344   5.100  19.646 -0.1087  0.2096 -0.0977
 1020BOLB   C4A24464   6.360   4.632  19.542 -0.0795 -0.3296  0.1338
 1020BOLB   C1B24465   6.264   5.323  20.699  0.0318 -0.1615  0.4247
 1020BOLB   C2B24466   6.510   5.376  20.335 -0.3772  0.2842  0.0761
 1020BOLB   C3B24467   6.898   5.579  20.174 -0.0431 -0.1691 -0.0745
 1020BOLB   C4B24468   6.954   5.761  19.742  0.1828 -0.1258  0.0661
 1020BOLB   NC224469   5.401   2.925  19.577 -0.0152 -0.3141 -0.1991
 1020BOLB   PO224470   5.538   2.542  19.797  0.0760 -0.4288 -0.0931
 1020BOLB   GL324471   5.918   2.825  19.688 -0.0362  0.0758  0.0701
 1020BOLB   GL424472   5.959   3.108  19.749 -0.3766 -0.0247 -0.1035
 1020BOLB   C1C24473   6.199   3.194  19.317  0.0081 -0.2850  0.2640
 1020BOLB   C2C24474   6.392   3.502  19.121 -0.1767 -0.0532  0.1481
 1020BOLB   C3C24475   6.352   4.006  19.058  0.0920  0.1448 -0.1784
 1020BOLB   C4C24476   6.548   4.334  19.413  0.2701  0.1028  0.3300
 1020BOLB   C1D24477   6.007   3.583  19.629 -0.0109 -0.0080  0.1571
 1020BOLB   C2D24478   6.306   3.858  19.575  0.0795  0.1550 -0.1141
 1020BOLB   C3D24479   6.711   3.797  19.654  0.0256 -0.0212  0.0518
 1020BOLB   C4D24480   7.147   3.728  19.754  0.0137  0.0145  0.3791
 1021BOLB   NC124481  25.801   3.749  12.264  0.3455 -0.0712 -0.1461
 1021BOLB   PO124482  26.161   3.668  12.570 -0.0104 -0.3352  0.0775
 1021BOLB   GL124483  25.778   3.911  12.819 -0.0369 -0.0223 -0.1829
 1021BOLB   GL224484  25.808   4.099  13.104 -0.0550 -0.3029  0.0491
 1021BOLB   C1A24485  25.405   4.247  12.785 -0.3601  0.0813  0.0154
 1021BOLB   C2A24486  25.311   4.491  13.172  0.0550 -0.3376 -0.2008
 1021BOLB   C3A24487  25.089   4.711  13.524  0.1323  0.1656  0.2275
 1021BOLB   C4A24488  25.136   5.058  13.911  0.0445  0.3783  0.1123
 1021BOLB   C1B24489  26.057   4.275  13.360 -0.3090  0.0164 -0.0539
 1021BOLB   C2B24490  26.277   4.603  13.307  0.4719 -0.0344  0.0301
 1021BOLB   C3B24491  26.437   5.033  13.339 -0.1957 -0.0153  0.3282
 1021BOLB   C4B24492  26.314   5.460  13.153  0.2090 -0.1934 -0.1514
 1021BOLB   NC224493  27.326   3.947  14.861 -0.2144 -0.2544 -0.1913
 1021BOLB   PO224494  27.122   4.143  14.652 -0.1099 -0.0517 -0.1516
 1021BOLB   GL324495  26.780   4.229  14.670 -0.1653  0.0298 -0.0166
 1021BOLB   GL424496  26.719   4.613  14.649  0.0121  0.4908  0.1714
 1021BOLB   C1C24497  26.232   4.313  14.622  0.2330  0.2796  0.1544
 1021BOLB   C2C24498  25.901   4.570  14.715 -0.0975 -0.1181 -0.3537
 1021BOLB   C3C24499  25.510   4.606  14.546  0.1536  0.0772 -0.2594
 1021BOLB   C4C24500  25.365   4.903  14.290 -0.2067 -0.2264  0.2490
 1021BOLB   C1D24501  26.340   4.903  14.556  0.0907 -0.0137  0.4402
 1021BOLB   C2D24502  26.172   5.037  14.865 -0.2452 -0.1121 -0.4833
 1021BOLB   C3D24503  25.916   5.343  15.007 -0.1179 -0.0829  0.0256
 1021BOLB   C4D24504  25.665   5.667  14.979 -0.2590 -0.0706  0.1483
 1022BOLB   NC124505  21.877   3.037   6.368 -0.0348  0.0242  0.1403
 1022BOLB   PO124506  21.717   3.103   6.835 -0.0494 -0.1401 -0.0681
 1022BOLB   GL124507  21.555   3.118   7.182 -0.2000 -0.1184  0.2435
 1022BOLB   GL224508  21.658   3.420   7.295  0.0359  0.1641  0.0038
 1022BOLB   C1A24509  21.131   3.109   7.374 -0.0707 -0.0070  0.0543
 1022BOLB   C2A24510  20.729   3.045   7.264  0.1224  0.0672 -0.1702
 1022BOLB   C3A24511  20.255   3.111   7.306 -0.1129 -0.1131 -0.1701
 1022BOLB   C4A24512  19.941   2.989   7.561 -0.2236  0.1321  0.0948
 1022BOLB   C1B24513  21.396   3.400   7.648  0.0416 -0.0853  0.1529
 1022BOLB   C2B24514  20.928   3.646   7.754 -0.2648 -0.2314  0.0328
 1022BOLB   C3B24515  20.607   3.940   7.600  0.3132 -0.1837 -0.0631
 1022BOLB   C4B24516  20.418   4.082   7.184  0.1097 -0.2454  0.1198
 1022BOLB   NC224517  20.831   1.670   5.973 -0.1375 -0.2909 -0.1917
 1022BOLB   PO224518  20.404   1.409   6.102  0.2327  0.2974  0.2384
 1022BOLB   GL324519  20.162   1.455   6.464  0.0218  0.1287  0.0051
 1022BOLB   GL424520  20.317   1.238   6.730  0.0481 -0.0763  0.2240
 1022BOLB   C1C24521  19.765   1.667   6.579  0.0245  0.0075  0.0626
 1022BOLB   C2C24522  19.687   2.084   6.863 -0.2458 -0.3087  0.0416
 1022BOLB   C3C24523  19.510   2.399   7.139  0.1819 -0.0729 -0.3679
 1022BOLB   C4C24524  19.604   2.677   7.576 -0.0289  0.0758 -0.2122
 1022BOLB   C1D24525  19.999   1.431   6.994  0.1507 -0.1079  0.0179
 1022BOLB   C2D24526  19.628   1.681   7.160  0.3146  0.2814 -0.0675
 1022BOLB   C3D24527  19.372   1.957   7.283 -0.3120  0.0246 -0.3257
 1022BOLB   C4D24528  19.177   2.155   7.546 -0.1690 -0.1550 -0.2038
 1023BOLB   NC124529  13.118  19.247   7.675  0.1346 -0.4049  0.0145
 1023BOLB   PO124530  12.654  19.118   7.584  0.1760  0.4603  0.3560
 1023BOLB   GL124531  13.008  18.728   7.642 -0.0577  0.0011 -0.1667
 1023BOLB   GL224532  12.784  18.510   7.944 -0.1703  0.1943  0.0142
 1023BOLB   C1A24533  13.422  18.474   7.890  0.2035 -0.2979  0.2637
 1023BOLB   C2A24534  13.583  18.116   8.142 -0.6191 -0.2738 -0.0592
 1023BOLB   C3A24535  13.862  17.903   8.404 -0.0910 -0.1574 -0.0951
 1023BOLB   C4A24536  14.119  18.084   8.698  0.3843 -0.1266 -0.0820
 1023BOLB   C1B24537  12.655  18.321   8.365 -0.0236 -0.2580  0.3322
 1023BOLB   C2B24538  12.731  18.051   8.765  0.0547 -0.0980 -0.1039
 1023BOLB   C3B24539  12.676  17.748   9.009 -0.0579 -0.0539  0.1780
 1023BOLB   C4B24540  12.886  17.373   9.148 -0.0438 -0.2475 -0.0305
 1023BOLB   NC224541  14.927  19.175   7.245 -0.5063 -0.0538 -0.0268
 1023BOLB   PO224542  15.133  19.414   7.537 -0.2980  0.3818  0.1046
 1023BOLB   GL324543  15.354  19.131   7.819 -0.1091 -0.2144 -0.0994
 1023BOLB   GL424544  15.126  18.914   7.729  0.0228 -0.2452 -0.1358
 1023BOLB   C1C24545  15.247  18.968   8.259 -0.0564 -0.2067  0.1510
 1023BOLB   C2C24546  15.128  18.705   8.571 -0.0643 -0.3584  0.0705
 1023BOLB   C3C24547  14.894  18.332   8.582  0.1340  0.2467 -0.1978
 1023BOLB   C4C24548  14.471  18.345   8.653 -0.2695  0.1145  0.1239
 1023BOLB   C1D24549  15.182  18.431   7.626  0.1383 -0.3785 -0.0210
 1023BOLB   C2D24550  14.931  18.016   7.763 -0.3041  0.1761 -0.1553
 1023BOLB   C3D24551  14.928  17.948   8.126  0.2524 -0.2989 -0.2720
 1023BOLB   C4D24552  14.665  17.861   8.589  0.0985 -0.0467  0.0337
 1024BOLB   NC124553  16.276  11.395  23.558  0.2517 -0.3573 -0.0130
 1024BOLB   PO124554  15.926  11.634  23.629  0.0459 -0.0389 -0.2396
 1024BOLB   GL124555  15.581  11.500  23.859 -0.0653 -0.0668  0.0693
 1024BOLB   GL224556  15.255  11.496  23.640  0.0776  0.0857 -0.0302
 1024BOLB   C1A24557  15.461  11.480  24.202  0.0561 -0.0197 -0.1085
 1024BOLB   C2A24558  15.526  11.734  24.448  0.1120  0.0012 -0.0449
 1024BOLB   C3A24559  15.752  11.816  24.724 -0.2411 -0.1036 -0.4893
 1024BOLB   C4A24560  16.033  11.627  25.049  0.0995 -0.3280 -0.0345
 1024BOLB   C1B24561  14.997  11.559  23.965  0.0464  0.3995 -0.1738
 1024BOLB   C2B24562  14.987  11.341  24.479 -0.0941 -0.1782  0.0633
 1024BOLB   C3B24563  14.766  11.454  24.928 -0.2935  0.3436 -0.1720
 1024BOLB   C4B24564  14.541  11.225  25.211  0.0260 -0.0642 -0.2784
 1024BOLB   NC224565  16.038  11.618  27.453 -0.0541 -0.1090 -0.1541
 1024BOLB   PO224566  16.497  11.713  27.198 -0.2496 -0.0800 -0.5785
 1024BOLB   GL324567  16.400  12.073  27.034  0.1595  0.0830  0.0339
 1024BOLB   GL424568  16.510  12.185  26.872 -0.2062  0.1818 -0.1346
 1024BOLB   C1C24569  16.184  11.838  26.601 -0.2561 -0.0408 -0.3284
 1024BOLB   C2C24570  16.398  11.552  26.315 -0.0354  0.2404  0.3330
 1024BOLB   C3C24571  16.441  11.657  25.901  0.0132 -0.0147 -0.3623
 1024BOLB   C4C24572  16.306  11.755  25.485 -0.0842 -0.0786 -0.0774
 1024BOLB   C1D24573  16.344  12.280  26.540 -0.0107  0.0870 -0.0163
 1024BOLB   C2D24574  16.229  12.038  26.114  0.2908 -0.3155  0.1872
 1024BOLB   C3D24575  16.104  12.119  25.732 -0.1271 -0.4368 -0.1726
 1024BOLB   C4D24576  16.172  12.231  25.302  0.0039 -0.0061  0.1977
 1025BOLB   NC124577   2.652  13.047  12.645  0.0968  0.1732 -0.2516
 1025BOLB   PO124578   2.954  12.769  12.463  0.0712 -0.0440 -0.0072
 1025BOLB   GL124579   3.210  12.325  12.337 -0.0165  0.1466  0.2669
 1025BOLB   GL224580   3.013  12.180  12.135 -0.3457 -0.1468 -0.0008
 1025BOLB   C1A24581   3.528  12.073  12.331  0.1000 -0.3908 -0.0048
 1025BOLB   C2A24582   3.928  11.986  12.187 -0.1702  0.1035 -0.0856
 1025BOLB   C3A24583   4.078  11.611  11.903  0.0397  0.1762  0.1739
 1025BOLB   C4A24584   4.424  11.364  11.819  0.1095  0.0017 -0.1835
 1025BOLB   C1B24585   3.079  11.736  12.196 -0.2568  0.1196 -0.1265
 1025BOLB   C2B24586   3.174  11.292  12.155  0.0760 -0.3183 -0.1475
 1025BOLB   C3B24587   3.009  10.885  12.265  0.0052  0.1691 -0.0796
 1025BOLB   C4B24588   2.938  10.480  12.411  0.1807  0.2169  0.0493
 1025BOLB   NC224589   3.775  13.695  11.965 -0.0393 -0.1067 -0.0915
 1025BOLB   PO224590   3.882  13.420  11.546 -0.2492 -0.2769  0.3411
 1025BOLB   GL324591   4.101  13.181  11.787 -0.0504  0.0534 -0.1849
 1025BOLB   GL424592   4.331  13.141  11.543  0.3503 -0.0786  0.0224
 1025BOLB   C1C24593   4.223  12.747  11.812  0.0095 -0.0116 -0.3027
 1025BOLB   C2C24594   4.537  12.482  11.757 -0.3086  0.0828  0.4238
 1025BOLB   C3C24595   4.723  12.111  11.793  0.1422  0.1605  0.0130
 1025BOLB   C4C24596   4.691  11.735  11.785 -0.1226  0.2168  0.0727
 1025BOLB   C1D24597   4.716  12.918  11.494 -0.0427  0.1525  0.0549
 1025BOLB   C2D24598   5.078  13.049  11.754 -0.3948  0.0693  0.5796
 1025BOLB   C3D24599   5.603  13.122  11.652  0.2521  0.1228 -0.0038
 1025BOLB   C4D24600   5.918  13.207  11.961 -0.1856  0.0423  0.5217
 1026BOLB   NC124601  17.759  12.366  28.191 -0.0477 -0.2334  0.0188
 1026BOLB   PO124602  17.488  12.456  27.825  0.0204 -0.1852 -0.2155
 1026BOLB   GL124603  17.309  12.615  27.448 -0.2104  0.0672 -0.1967
 1026BOLB   GL224604  17.011  12.543  27.481  0.2420  0.0017 -0.0073
 1026BOLB   C1A24605  17.258  12.766  27.060  0.3632 -0.3568  0.2065
 1026BOLB   C2A24606  17.124  12.682  26.668 -0.0725 -0.1701 -0.1083
 1026BOLB   C3A24607  17.232  12.752  26.228  0.1765  0.1372 -0.1811
 1026BOLB   C4A24608  17.629  12.658  26.028 -0.1482  0.2512  0.2855
 1026BOLB   C1B24609  16.728  12.552  27.135 -0.0902  0.1392 -0.0137
 1026BOLB   C2B24610  16.651  12.615  26.728 -0.4017 -0.0131  0.0506
 1026BOLB   C3B24611  16.639  12.600  26.250 -0.1261 -0.0555  0.2075
 1026BOLB   C4B24612  16.879  12.532  25.870 -0.0924  0.2132  0.1342
 1026BOLB   NC224613  16.918  11.201  27.877  0.1688 -0.3867  0.1915
 1026BOLB   PO224614  16.973  11.222  27.357 -0.3004 -0.2283  0.3962
 1026BOLB   GL324615  17.213  11.289  27.039  0.0606 -0.2650  0.2718
 1026BOLB   GL424616  17.500  11.379  27.056 -0.1213 -0.2362  0.2117
 1026BOLB   C1C24617  17.390  11.265  26.578  0.4600 -0.3207  0.3334
 1026BOLB   C2C24618  17.505  11.551  26.268  0.0760 -0.2195 -0.2034
 1026BOLB   C3C24619  17.719  11.838  26.159 -0.2012  0.1842  0.0042
 1026BOLB   C4C24620  17.807  12.252  25.948 -0.0416  0.1338 -0.0053
 1026BOLB   C1D24621  17.917  11.255  26.797 -0.0907  0.1293 -0.2116
 1026BOLB   C2D24622  17.882  10.995  26.477 -0.2418  0.1178 -0.3115
 1026BOLB   C3D24623  17.803  11.099  26.057  0.1350 -0.2044  0.1422
 1026BOLB   C4D24624  17.792  11.304  25.664 -0.3403 -0.0288 -0.0688
 1027BOLB   NC124625   3.156   4.073  18.299 -0.3497  0.0646 -0.0850
 1027BOLB   PO124626   2.949   4.468  18.189 -0.0959 -0.2991 -0.0714
 1027BOLB   GL124627   3.195   4.364  17.872 -0.2701  0.0649  0.2759
 1027BOLB   GL224628   3.426   4.114  17.836 -0.0483  0.1219  0.0486
 1027BOLB   C1A24629   3.169   4.377  17.441 -0.1837 -0.1591  0.2769
 1027BOLB   C2A24630   3.400   4.044  17.106  0.2495  0.1988 -0.1640
 1027BOLB   C3A24631   3.719   3.827  17.399 -0.1501  0.0693 -0.1364
 1027BOLB   C4A24632   4.082   3.900  17.706 -0.0760 -0.0918 -0.3524
 1027BOLB   C1B24633   3.693   4.387  17.508  0.1885  0.1092 -0.1974
 1027BOLB   C2B24634   3.989   4.154  17.183 -0.2182 -0.1385  0.1870
 1027BOLB   C3B24635   3.990   3.853  16.913  0.2304  0.3848  0.2029
 1027BOLB   C4B24636   4.019   3.879  16.476 -0.0443  0.3400  0.0733
 1027BOLB   NC224637   3.231   5.190  18.750 -0.0398 -0.3473 -0.3332
 1027BOLB   PO224638   3.334   5.643  18.797 -0.1854  0.0124 -0.0237
 1027BOLB   GL324639   3.635   5.711  18.483  0.0662  0.0808 -0.2261
 1027BOLB   GL424640   3.589   5.935  18.273  0.0772 -0.0124  0.0502
 1027BOLB   C1C24641   3.787   5.359  18.237  0.1909  0.1215  0.0056
 1027BOLB   C2C24642   4.022   5.095  18.019 -0.0335 -0.0830 -0.1985
 1027BOLB   C3C24643   4.129   4.773  17.856 -0.2386 -0.2114 -0.0815
 1027BOLB   C4C24644   4.065   4.284  17.870 -0.3109  0.0573 -0.1157
 1027BOLB   C1D24645   3.918   6.063  17.897  0.1643 -0.1099  0.0469
 1027BOLB   C2D24646   4.327   5.997  17.553 -0.4136 -0.0860 -0.1540
 1027BOLB   C3D24647   4.647   5.750  17.732  0.2669 -0.0258  0.1183
 1027BOLB   C4D24648   4.684   5.377  17.820  0.3539  0.0782 -0.1071
 1028BOLB   NC124649  16.053  18.141   6.230 -0.2375 -0.4446 -0.1140
 1028BOLB   PO124650  16.246  18.196   6.657  0.1862  0.0114  0.2685
 1028BOLB   GL124651  16.124  17.931   6.983  0.0304  0.3144 -0.0568
 1028BOLB   GL224652  16.022  17.672   6.675  0.1063  0.4910 -0.0043
 1028BOLB   C1A24653  16.157  17.831   7.401  0.0057  0.1219  0.2592
 1028BOLB   C2A24654  16.499  17.641   7.779 -0.0461 -0.1732 -0.0602
 1028BOLB   C3A24655  16.788  17.596   8.081 -0.1397  0.0466 -0.3036
 1028BOLB   C4A24656  17.007  17.846   8.323 -0.0742  0.0515 -0.0442
 1028BOLB   C1B24657  15.991  17.417   7.091  0.1899 -0.1131 -0.0230
 1028BOLB   C2B24658  16.077  17.225   7.484 -0.2400  0.2119 -0.0504
 1028BOLB   C3B24659  16.231  16.888   7.834  0.1664 -0.0568  0.1519
 1028BOLB   C4B24660  16.116  16.885   8.305 -0.4628 -0.1512 -0.0401
 1028BOLB   NC224661  17.787  19.689   8.327 -0.1847 -0.3335 -0.0502
 1028BOLB   PO224662  17.556  19.854   8.773  0.1151 -0.2650  0.0416
 1028BOLB   GL324663  17.439  19.515   8.915  0.1976 -0.1700  0.1411
 1028BOLB   GL424664  17.132  19.469   8.701  0.0840  0.0795  0.3667
 1028BOLB   C1C24665  17.561  19.084   9.044 -0.1102 -0.0892 -0.2701
 1028BOLB   C2C24666  17.663  18.730   8.946 -0.1473  0.1317 -0.1140
 1028BOLB   C3C24667  17.528  18.541   8.545  0.1393  0.1735 -0.1279
 1028BOLB   C4C24668  17.265  18.201   8.540 -0.0971 -0.1878  0.4379
 1028BOLB   C1D24669  16.766  19.308   8.818 -0.0742  0.0537  0.3225
 1028BOLB   C2D24670  16.518  19.165   9.111 -0.3383  0.3700 -0.1765
 1028BOLB   C3D24671  16.358  19.212   9.394 -0.1765  0.1191  0.2163
 1028BOLB   C4D24672  16.164  19.240   9.778 -0.1078 -0.1432  0.0860
 1029BOLB   NC124673   7.462  33.914  11.746 -0.2178  0.1585 -0.0222
 1029BOLB   PO124674   7.723  33.801  11.399  0.0369 -0.1668 -0.0988
 1029BOLB   GL124675   7.996  34.119  11.201  0.3363  0.1198 -0.5126
 1029BOLB   GL224676   7.907  34.262  10.876 -0.2158  0.1014  0.3022
 1029BOLB   C1A24677   8.406  34.340  11.209 -0.0386 -0.2623  0.0083
 1029BOLB   C2A24678   8.669  34.651  11.083  0.0046 -0.2296 -0.0068
 1029BOLB   C3A24679   9.065  34.773  11.032  0.0876 -0.2826  0.3455
 1029BOLB   C4A24680   9.529  34.831  10.879 -0.1279  0.2301 -0.0335
 1029BOLB   C1B24681   7.950  34.629  11.139  0.0717  0.0440 -0.1150
 1029BOLB   C2B24682   8.196  34.818  11.429  0.1284 -0.0087  0.1500
 1029BOLB   C3B24683   8.525  34.713  11.652  0.0410  0.0539 -0.0640
 1029BOLB   C4B24684   8.756  34.369  11.835  0.1502 -0.1602  0.1972
 1029BOLB   NC224685  10.441  32.619  10.159 -0.1574  0.0889 -0.0358
 1029BOLB   PO224686   9.979  32.514   9.947 -0.0781  0.0838 -0.0577
 1029BOLB   GL324687  10.175  32.976  10.000 -0.0609 -0.0953  0.2523
 1029BOLB   GL424688  10.295  33.054  10.361  0.0007  0.1950  0.0499
 1029BOLB   C1C24689  10.157  33.448  10.041  0.1248 -0.3282  0.4008
 1029BOLB   C2C24690  10.265  33.911  10.180  0.3353  0.0038 -0.0322
 1029BOLB   C3C24691  10.089  34.225  10.489 -0.0916 -0.3108  0.1036
 1029BOLB   C4C24692   9.933  34.576  10.829 -0.0263  0.3489 -0.0365
 1029BOLB   C1D24693  10.314  33.404  10.637 -0.2982  0.2848  0.1742
 1029BOLB   C2D24694  10.289  33.834  10.738  0.0914  0.0603  0.0708
 1029BOLB   C3D24695  10.423  34.177  11.046 -0.0227 -0.0165 -0.1820
 1029BOLB   C4D24696  10.494  34.173  11.531  0.0054  0.0821  0.1643
 1030BOLB   NC124697  13.382   0.870  23.248  0.0772 -0.2901  0.0393
 1030BOLB   PO124698  13.608   0.890  22.926  0.2185  0.0252 -0.0251
 1030BOLB   GL124699  13.509   1.238  22.731 -0.3683 -0.0221  0.1059
 1030BOLB   GL224700  13.188   1.230  22.772 -0.3693  0.1682 -0.1274
 1030BOLB   C1A24701  13.436   1.598  22.441 -0.0619 -0.1589  0.0871
 1030BOLB   C2A24702  13.475   1.684  22.003  0.2789  0.0652 -0.0426
 1030BOLB   C3A24703  13.739   1.766  21.660 -0.0884  0.0343 -0.0577
 1030BOLB   C4A24704  14.172   1.775  21.453 -0.1098 -0.0765  0.0228
 1030BOLB   C1B24705  12.737   1.396  23.035 -0.1486 -0.2610  0.1483
 1030BOLB   C2B24706  12.449   1.716  22.983 -0.1345 -0.0780  0.1746
 1030BOLB   C3B24707  12.047   1.936  23.002 -0.1674  0.0040  0.0824
 1030BOLB   C4B24708  11.777   2.195  22.810  0.0480 -0.0508  0.1381
 1030BOLB   NC224709  14.865   0.254  22.965  0.2500 -0.2559  0.1057
 1030BOLB   PO224710  14.392   0.406  22.917  0.1229  0.1187 -0.3057
 1030BOLB   GL324711  14.727   0.566  22.629 -0.1523 -0.0640 -0.1034
 1030BOLB   GL424712  15.042   0.693  22.718 -0.0966  0.0720 -0.3216
 1030BOLB   C1C24713  14.662   0.678  22.258  0.1636  0.3512  0.1105
 1030BOLB   C2C24714  14.776   0.934  22.038  0.0789  0.1322 -0.1041
 1030BOLB   C3C24715  14.790   1.312  21.714 -0.1032  0.0965 -0.0414
 1030BOLB   C4C24716  14.605   1.623  21.456 -0.1255  0.1797 -0.1430
 1030BOLB   C1D24717  15.405   0.753  22.830  0.2066 -0.1183  0.1012
 1030BOLB   C2D24718  15.728   0.679  22.699  0.2049 -0.2577 -0.0360
 1030BOLB   C3D24719  15.786   0.728  22.333 -0.3293  0.0599  0.1150
 1030BOLB   C4D24720  15.592   0.954  21.996 -0.0935  0.0919  0.0381
 1031BOLB   NC124721  20.724  12.447   9.388  0.2595 -0.3615 -0.1159
 1031BOLB   PO124722  20.278  12.368   9.362 -0.1661  0.1632  0.0424
 1031BOLB   GL124723  20.459  12.322   8.938 -0.0734 -0.1525 -0.4661
 1031BOLB   GL224724  20.683  12.124   9.027 -0.1690 -0.1303  0.0623
 1031BOLB   C1A24725  20.384  12.025   8.669  0.3591  0.3364 -0.0001
 1031BOLB   C2A24726  20.253  11.973   8.219 -0.2976  0.2561  0.4346
 1031BOLB   C3A24727  20.070  12.104   7.841 -0.0327  0.1619 -0.2039
 1031BOLB   C4A24728  20.107  12.425   7.604  0.0633  0.0412 -0.0393
 1031BOLB   C1B24729  20.909  11.988   8.664  0.1252 -0.0703  0.0561
 1031BOLB   C2B24730  20.897  12.138   8.405  0.0379 -0.4006  0.4715
 1031BOLB   C3B24731  20.627  12.285   7.995  0.2838  0.1908  0.0644
 1031BOLB   C4B24732  20.534  12.107   7.668  0.1420 -0.1045  0.1911
 1031BOLB   NC224733  19.982  11.658   5.184 -0.0852  0.2464  0.2958
 1031BOLB   PO224734  20.321  11.943   5.265  0.0469  0.1572 -0.2208
 1031BOLB   GL324735  20.164  11.871   5.614  0.3589 -0.0410  0.0706
 1031BOLB   GL424736  19.894  11.968   5.561 -0.1863 -0.0845 -0.0748
 1031BOLB   C1C24737  20.205  12.052   6.137 -0.0474 -0.2391  0.0239
 1031BOLB   C2C24738  20.061  12.142   6.473 -0.2797  0.0131  0.1054
 1031BOLB   C3C24739  20.027  12.157   6.898  0.1442  0.0928 -0.0008
 1031BOLB   C4C24740  20.272  12.355   7.161  0.1798 -0.3972 -0.7353
 1031BOLB   C1D24741  19.758  12.016   5.970 -0.3351 -0.0076 -0.0186
 1031BOLB   C2D24742  19.500  11.943   6.301  0.2007 -0.0558 -0.0488
 1031BOLB   C3D24743  19.515  11.957   6.760 -0.1015 -0.0458 -0.0012
 1031BOLB   C4D24744  19.403  11.649   7.139  0.1020  0.1375 -0.2102
 1032BOLB   NC124745  14.546  35.327   4.032  0.3681  0.2056  0.2232
 1032BOLB   PO124746  14.898  35.710   4.187 -0.0239 -0.2788  0.2036
 1032BOLB   GL124747  15.196  36.022   4.388  0.0955  0.0815 -0.0710
 1032BOLB   GL224748  15.084  35.874   4.653 -0.2283 -0.2431 -0.0784
 1032BOLB   C1A24749  15.218  36.465   4.663 -0.0475 -0.7697  0.1430
 1032BOLB   C2A24750  15.387  36.779   4.811 -0.1762 -0.0702 -0.2737
 1032BOLB   C3A24751  15.588  36.852   5.136  0.0970 -0.2346 -0.1764
 1032BOLB   C4A24752  15.917  36.966   5.264  0.3831  0.1046 -0.3342
 1032BOLB   C1B24753  15.468  36.032   4.871  0.3156  0.1527 -0.1295
 1032BOLB   C2B24754  15.780  36.364   4.881  0.1165 -0.0775  0.0811
 1032BOLB   C3B24755  16.164  36.665   4.940 -0.0036  0.3526  0.1217
 1032BOLB   C4B24756  16.578  36.821   5.092 -0.2404 -0.0002 -0.1617
 1032BOLB   NC224757  17.016  36.316   3.486 -0.1123  0.1230  0.0246
 1032BOLB   PO224758  16.594  36.483   3.305 -0.1124 -0.1936 -0.5523
 1032BOLB   GL324759  16.570  36.732   3.713 -0.0854 -0.1595 -0.1404
 1032BOLB   GL424760  16.260  36.916   3.652  0.2344 -0.1644 -0.0513
 1032BOLB   C1C24761  16.732  37.140   3.816 -0.2995 -0.0074 -0.2170
 1032BOLB   C2C24762  16.560  37.365   4.196  0.1128 -0.1536 -0.0941
 1032BOLB   C3C24763  16.262  37.346   4.493 -0.1130 -0.0655 -0.3346
 1032BOLB   C4C24764  16.213  37.184   4.990  0.1658 -0.0296  0.1538
 1032BOLB   C1D24765  16.495  36.869   4.185 -0.0290  0.0866  0.1720
 1032BOLB   C2D24766  16.476  36.613   4.599  0.3087  0.0102  0.2118
 1032BOLB   C3D24767  16.485  36.316   4.878 -0.3834 -0.0497  0.3855
 1032BOLB   C4D24768  16.734  36.092   5.245 -0.0657  0.1938  0.1387
 1033BOLB   NC124769   0.856   5.440  14.492 -0.0662 -0.0779 -0.2317
 1033BOLB   PO124770   0.991   5.643  14.759  0.1299  0.0515  0.2322
 1033BOLB   GL124771   1.365   5.497  14.626 -0.1532  0.1873  0.0219
 1033BOLB   GL224772   1.503   5.723  14.411  0.0013  0.1783 -0.3206
 1033BOLB   C1A24773   1.788   5.231  14.586 -0.1656  0.1431 -0.2265
 1033BOLB   C2A24774   2.108   5.237  14.393 -0.1230 -0.0026 -0.1689
 1033BOLB   C3A24775   2.525   5.315  14.295 -0.0568  0.3200 -0.1476
 1033BOLB   C4A24776   2.894   5.257  13.962 -0.2488  0.4246 -0.0973
 1033BOLB   C1B24777   1.975   5.714  14.480  0.0408 -0.0351 -0.1124
 1033BOLB   C2B24778   2.285   5.735  14.369 -0.3651 -0.1513 -0.0622
 1033BOLB   C3B24779   2.710   5.861  14.277  0.1173  0.3029 -0.5802
 1033BOLB   C4B24780   3.010   5.730  14.001 -0.0510  0.3849  0.0266
 1033BOLB   NC224781   0.730   5.221  13.102 -0.1465  0.3118  0.0690
 1033BOLB   PO224782   1.013   5.633  13.150 -0.1620 -0.2575 -0.1095
 1033BOLB   GL324783   1.403   5.567  13.253  0.0388 -0.0916 -0.2849
 1033BOLB   GL424784   1.440   5.283  13.496 -0.0344 -0.0562 -0.0865
 1033BOLB   C1C24785   1.855   5.613  13.405 -0.1540 -0.0470 -0.0694
 1033BOLB   C2C24786   2.230   5.730  13.401 -0.2439 -0.3062  0.3036
 1033BOLB   C3C24787   2.691   5.661  13.293 -0.0939  0.0628 -0.0042
 1033BOLB   C4C24788   3.022   5.396  13.480  0.2750  0.0349 -0.2337
 1033BOLB   C1D24789   1.704   5.210  13.073  0.0523  0.2929 -0.1662
 1033BOLB   C2D24790   1.952   4.791  12.998 -0.0374  0.1414  0.0610
 1033BOLB   C3D24791   2.149   4.342  12.924 -0.1601 -0.0387  0.0900
 1033BOLB   C4D24792   2.236   3.983  13.101 -0.0761 -0.0893 -0.1133
 1034BOLB   NC124793  18.236   9.882   3.192  0.1108 -0.0038  0.0056
 1034BOLB   PO124794  18.232   9.849   3.638  0.2558  0.2059 -0.0061
 1034BOLB   GL124795  17.918   9.846   3.983 -0.3042  0.1419  0.2527
 1034BOLB   GL224796  17.562   9.988   4.063 -0.1606 -0.4820 -0.1848
 1034BOLB   C1A24797  17.786   9.698   4.482  0.2782  0.1149 -0.1705
 1034BOLB   C2A24798  17.401   9.726   4.695  0.0227  0.2680  0.0232
 1034BOLB   C3A24799  17.343   9.699   5.238  0.0194 -0.0684  0.0349
 1034BOLB   C4A24800  16.994   9.795   5.459  0.1367 -0.3596  0.0016
 1034BOLB   C1B24801  17.276   9.715   4.227 -0.0113 -0.2293 -0.0765
 1034BOLB   C2B24802  16.950   9.461   4.488  0.1558 -0.1773  0.0498
 1034BOLB   C3B24803  16.670   9.174   4.689  0.1048  0.1319  0.0099
 1034BOLB   C4B24804  16.733   8.977   5.083 -0.0008  0.1741  0.0786
 1034BOLB   NC224805  17.823  10.960   4.054  0.1827  0.0940 -0.2167
 1034BOLB   PO224806  17.578  11.312   3.908 -0.3427 -0.0566 -0.3366
 1034BOLB   GL324807  17.301  11.152   4.182  0.3489  0.0619 -0.2049
 1034BOLB   GL424808  17.111  11.215   4.080 -0.0057 -0.1754  0.0957
 1034BOLB   C1C24809  17.061  10.837   4.430 -0.4291 -0.0742  0.3747
 1034BOLB   C2C24810  16.744  10.582   4.600  0.2870  0.0375 -0.2473
 1034BOLB   C3C24811  16.623  10.197   4.897 -0.0707  0.2271 -0.1046
 1034BOLB   C4C24812  16.645   9.913   5.202  0.1188 -0.3262 -0.4302
 1034BOLB   C1D24813  16.914  11.310   4.468 -0.0060  0.0818  0.0333
 1034BOLB   C2D24814  16.979  11.237   4.828 -0.0091  0.1014  0.0021
 1034BOLB   C3D24815  16.751  11.309   5.262 -0.1467  0.1307 -0.0079
 1034BOLB   C4D24816  16.516  11.097   5.436 -0.3148 -0.0020 -0.3060
 1035BOLB   NC124817  12.753   9.712   0.793 -0.2282  0.3196 -0.0078
 1035BOLB   PO124818  12.810   9.938   1.051  0.1748  0.5737  0.0027
 1035BOLB   GL124819  12.717   9.871   1.480  0.2092  0.1401  0.0354
 1035BOLB   GL224820  12.456  10.082   1.595 -0.2270 -0.0769 -0.2816
 1035BOLB   C1A24821  12.924   9.590   1.741 -0.2109 -0.1249 -0.0299
 1035BOLB   C2A24822  12.922   9.470   2.141 -0.3910 -0.0458  0.1641
 1035BOLB   C3A24823  12.901   9.290   2.562  0.0682 -0.0196  0.1658
 1035BOLB   C4A24824  12.526   9.217   2.801  0.2800  0.2530  0.1923
 1035BOLB   C1B24825  12.494   9.731   1.961 -0.1832  0.2434 -0.0813
 1035BOLB   C2B24826  12.482   9.560   2.407 -0.3071 -0.0275  0.2451
 1035BOLB   C3B24827  12.598   9.803   2.811 -0.0526  0.0840 -0.0781
 1035BOLB   C4B24828  12.893   9.605   3.085 -0.1236  0.1619 -0.1220
 1035BOLB   NC224829  11.966  10.528   1.068  0.0254 -0.4257  0.4194
 1035BOLB   PO224830  11.900  10.174   0.890  0.2237 -0.0824  0.0211
 1035BOLB   GL324831  11.965   9.996   1.292 -0.2215 -0.0964  0.0486
 1035BOLB   GL424832  11.959  10.291   1.528  0.0048  0.0204 -0.1523
 1035BOLB   C1C24833  12.025   9.700   1.588  0.0661  0.0370 -0.1173
 1035BOLB   C2C24834  12.004   9.731   2.097 -0.2399  0.0460 -0.1393
 1035BOLB   C3C24835  11.775   9.767   2.510 -0.5624  0.3102  0.0629
 1035BOLB   C4C24836  12.128   9.431   2.783 -0.1272 -0.0462 -0.2242
 1035BOLB   C1D24837  11.589  10.523   1.784  0.0151 -0.0995  0.2486
 1035BOLB   C2D24838  11.552  10.826   2.075 -0.2601  0.0222  0.1696
 1035BOLB   C3D24839  11.401  10.897   2.510 -0.1032  0.0285 -0.0880
 1035BOLB   C4D24840  11.555  10.919   2.901  0.0815  0.1485 -0.2174
 1036BOLB   NC124841  19.877   0.115   5.597 -0.1227  0.0576 -0.0120
 1036BOLB   PO124842  19.461   0.107   5.611 -0.2769  0.0841 -0.0059
 1036BOLB   GL124843  19.605   0.406   5.880 -0.1220  0.2317 -0.2422
 1036BOLB   GL224844  19.593   0.291   6.279  0.1384 -0.0221 -0.2098
 1036BOLB   C1A24845  19.494   0.812   5.823 -0.2521 -0.0901 -0.0295
 1036BOLB   C2A24846  19.259   1.118   5.827 -0.0794 -0.1844  0.1133
 1036BOLB   C3A24847  19.027   1.005   5.494 -0.2987  0.0064 -0.2082
 1036BOLB   C4A24848  18.689   0.693   5.467 -0.2436  0.2473 -0.1952
 1036BOLB   C1B24849  19.137   0.441   6.130  0.1542 -0.0076 -0.0541
 1036BOLB   C2B24850  18.931   0.707   5.969 -0.0188  0.0428 -0.0150
 1036BOLB   C3B24851  18.630   0.932   6.012  0.3003  0.2940  0.0580
 1036BOLB   C4B24852  18.842   1.371   5.808 -0.1802  0.0740  0.0492
 1036BOLB   NC224853  18.313  -0.931   3.564 -0.1793 -0.0044  0.1561
 1036BOLB   PO224854  18.335  -0.669   3.951 -0.1001  0.2348  0.0752
 1036BOLB   GL324855  18.280  -0.323   4.233  0.1657  0.0749 -0.0272
 1036BOLB   GL424856  18.274  -0.008   4.155  0.0194  0.0257  0.0530
 1036BOLB   C1C24857  18.300  -0.331   4.674  0.1876  0.1296  0.0793
 1036BOLB   C2C24858  18.470  -0.270   5.031  0.1354 -0.2217  0.0913
 1036BOLB   C3C24859  18.597  -0.115   5.392 -0.0751 -0.0014 -0.1298
 1036BOLB   C4C24860  18.637   0.290   5.655  0.3128  0.1092  0.1570
 1036BOLB   C1D24861  18.210   0.145   4.575  0.3995  0.2900  0.0581
 1036BOLB   C2D24862  18.008   0.127   4.976  0.0014  0.3975 -0.0026
 1036BOLB   C3D24863  17.750   0.278   5.211 -0.0305  0.2213  0.1026
 1036BOLB   C4D24864  17.391   0.291   5.359 -0.0964 -0.1255  0.1506
 1037BOLB   NC124865   3.870   0.329  15.085 -0.0512 -0.2559 -0.0943
 1037BOLB   PO124866   3.763   0.664  15.424  0.2008  0.0421 -0.2601
 1037BOLB   GL124867   4.228   0.746  15.439  0.0353  0.1998  0.0526
 1037BOLB   GL224868   4.277   0.705  15.116 -0.1304 -0.0971 -0.2593
 1037BOLB   C1A24869   4.621   1.024  15.367 -0.1154  0.0631 -0.0548
 1037BOLB   C2A24870   4.923   1.157  15.050  0.2916  0.0046 -0.3186
 1037BOLB   C3A24871   4.866   1.013  14.669  0.1205  0.2524  0.0591
 1037BOLB   C4A24872   5.026   0.940  14.231 -0.1272  0.1949 -0.3136
 1037BOLB   C1B24873   4.459   0.920  14.925 -0.2136 -0.0905  0.1397
 1037BOLB   C2B24874   4.517   1.412  14.828 -0.1792 -0.0825  0.1312
 1037BOLB   C3B24875   4.637   1.831  14.919  0.3047 -0.0521 -0.2401
 1037BOLB   C4B24876   4.485   2.234  14.739 -0.0896 -0.2531 -0.2961
 1037BOLB   NC224877   3.964  -0.446  12.536  0.0754 -0.1322 -0.0191
 1037BOLB   PO224878   4.055  -0.008  12.491  0.1275 -0.3457  0.1381
 1037BOLB   GL324879   4.245   0.300  12.680 -0.2155  0.2336 -0.1165
 1037BOLB   GL424880   4.083   0.620  12.501 -0.0079  0.2718 -0.0060
 1037BOLB   C1C24881   4.408   0.577  12.894  0.4354 -0.1985  0.2624
 1037BOLB   C2C24882   4.695   0.694  13.155  0.0080 -0.1261 -0.0907
 1037BOLB   C3C24883   4.849   0.772  13.502 -0.1046  0.1138 -0.0467
 1037BOLB   C4C24884   5.120   0.774  13.881 -0.1061 -0.0783 -0.3024
 1037BOLB   C1D24885   4.419   0.986  12.569  0.0280 -0.2662 -0.2131
 1037BOLB   C2D24886   4.733   1.106  12.897  0.3259 -0.1666  0.1945
 1037BOLB   C3D24887   4.971   1.228  13.318  0.1867 -0.3312  0.1824
 1037BOLB   C4D24888   5.191   1.262  13.694 -0.5909  0.5709  0.2721
 1038BOLB   NC124889  17.335  15.157   9.019  0.0727  0.0488 -0.1647
 1038BOLB   PO124890  17.465  15.531   9.266 -0.1505  0.2245 -0.1843
 1038BOLB   GL124891  17.954  15.546   9.091  0.0579 -0.0550 -0.0916
 1038BOLB   GL224892  18.211  15.509   9.153  0.1736 -0.1863 -0.2036
 1038BOLB   C1A24893  18.086  15.577   8.648 -0.0307  0.1923 -0.2803
 1038BOLB   C2A24894  17.954  15.586   8.242 -0.4475  0.2604  0.2294
 1038BOLB   C3A24895  18.039  15.863   7.921 -0.0054  0.0063 -0.0920
 1038BOLB   C4A24896  18.308  15.986   7.586 -0.4068  0.0581  0.0187
 1038BOLB   C1B24897  18.538  15.559   8.899 -0.1186 -0.0449  0.1043
 1038BOLB   C2B24898  18.852  15.459   8.593  0.0953  0.2811 -0.0555
 1038BOLB   C3B24899  19.221  15.680   8.366  0.0828 -0.2224  0.1276
 1038BOLB   C4B24900  19.571  15.734   7.987 -0.1269  0.1802 -0.2786
 1038BOLB   NC224901  19.789  17.123   6.213 -0.2382  0.2565 -0.0248
 1038BOLB   PO224902  19.512  16.848   6.019  0.0781  0.0463  0.1523
 1038BOLB   GL324903  19.691  16.694   6.410  0.1602 -0.2438  0.2874
 1038BOLB   GL424904  19.411  16.891   6.578 -0.1157 -0.1483  0.1702
 1038BOLB   C1C24905  19.524  16.472   6.800  0.2406 -0.2813 -0.0461
 1038BOLB   C2C24906  19.520  16.173   7.172  0.1575  0.0703 -0.1403
 1038BOLB   C3C24907  19.211  15.920   7.504  0.0872  0.0688  0.2728
 1038BOLB   C4C24908  18.755  15.834   7.530 -0.0743  0.0034 -0.0895
 1038BOLB   C1D24909  19.090  16.772   6.797 -0.2539  0.2452  0.2058
 1038BOLB   C2D24910  18.944  16.490   7.122  0.1042 -0.0023 -0.0220
 1038BOLB   C3D24911  18.897  16.405   7.586  0.1281  0.2325  0.0695
 1038BOLB   C4D24912  18.998  16.590   8.012  0.1897 -0.1832  0.3331
 1039BOLB   NC124913  23.305  12.412  18.889 -0.0377  0.0975  0.1699
 1039BOLB   PO124914  23.226  12.486  19.329  0.0831  0.0063  0.0750
 1039BOLB   GL124915  23.676  12.472  19.188  0.2050  0.0183  0.1117
 1039BOLB   GL224916  23.880  12.477  19.060  0.1550 -0.1132  0.1606
 1039BOLB   C1A24917  23.925  12.540  19.615  0.2299  0.2779  0.1622
 1039BOLB   C2A24918  24.195  12.532  19.996  0.3413 -0.1685  0.2978
 1039BOLB   C3A24919  24.632  12.562  20.286  0.2930  0.3082  0.1310
 1039BOLB   C4A24920  24.975  12.606  20.042 -0.0544 -0.0546 -0.3238
 1039BOLB   C1B24921  24.305  12.582  19.044  0.3286 -0.2740 -0.1534
 1039BOLB   C2B24922  24.679  12.542  19.133 -0.0633 -0.0256  0.0155
 1039BOLB   C3B24923  25.047  12.196  19.329 -0.1026  0.1712  0.2585
 1039BOLB   C4B24924  25.596  12.144  19.234  0.4433  0.0266  0.0710
 1039BOLB   NC224925  27.765  13.797  20.064 -0.0918 -0.1993 -0.3130
 1039BOLB   PO224926  27.342  13.802  20.035  0.1562 -0.2691  0.2382
 1039BOLB   GL324927  26.887  13.599  19.914 -0.3656  0.2404 -0.1466
 1039BOLB   GL424928  26.637  13.591  20.217  0.0276  0.1216  0.1835
 1039BOLB   C1C24929  26.551  13.346  19.686 -0.1845 -0.2720  0.1640
 1039BOLB   C2C24930  26.055  13.147  19.741 -0.2597  0.3028 -0.0433
 1039BOLB   C3C24931  25.573  12.955  19.806  0.1693  0.2469 -0.0233
 1039BOLB   C4C24932  25.236  12.881  19.964 -0.2086  0.0578 -0.0400
 1039BOLB   C1D24933  26.291  13.522  20.146 -0.0286 -0.1223  0.0602
 1039BOLB   C2D24934  25.895  13.358  20.188  0.3065 -0.0135  0.2044
 1039BOLB   C3D24935  25.445  13.513  20.087 -0.0282 -0.0539  0.0557
 1039BOLB   C4D24936  25.120  13.842  20.162  0.2747 -0.0028  0.0090
 1040BOLB   NC124937  21.204   5.432  10.793  0.1203 -0.0814 -0.2969
 1040BOLB   PO124938  21.094   5.004  10.960 -0.0182 -0.1113 -0.1009
 1040BOLB   GL124939  21.313   4.823  10.736 -0.0236 -0.0959 -0.5105
 1040BOLB   GL224940  21.302   4.582  10.702 -0.0739 -0.0367 -0.3527
 1040BOLB   C1A24941  21.669   5.070  10.657  0.2679 -0.3674 -0.3433
 1040BOLB   C2A24942  21.897   4.995  10.300 -0.0944 -0.1548  0.1482
 1040BOLB   C3A24943  22.251   4.881  10.033  0.0070  0.1808 -0.1811
 1040BOLB   C4A24944  22.634   4.702   9.889  0.3168 -0.0023  0.1715
 1040BOLB   C1B24945  21.545   4.537  10.335 -0.2481 -0.0820  0.1718
 1040BOLB   C2B24946  21.876   4.337  10.123 -0.2042 -0.1751  0.2317
 1040BOLB   C3B24947  22.233   4.355   9.803 -0.1472  0.0663  0.3015
 1040BOLB   C4B24948  22.655   4.272   9.464  0.4050  0.0539  0.0758
 1040BOLB   NC224949  24.441   3.516   9.310 -0.1070 -0.1487 -0.3570
 1040BOLB   PO224950  24.654   3.482   9.600  0.1058  0.1931  0.2484
 1040BOLB   GL324951  24.288   3.628   9.815  0.2424 -0.2889 -0.1720
 1040BOLB   GL424952  24.059   3.322   9.698 -0.0740  0.2131 -0.0091
 1040BOLB   C1C24953  23.961   3.758  10.081  0.0840 -0.2012  0.2229
 1040BOLB   C2C24954  23.578   3.880  10.025  0.3551 -0.1319  0.3122
 1040BOLB   C3C24955  23.166   4.088   9.999 -0.1033 -0.0017 -0.4296
 1040BOLB   C4C24956  22.984   4.414   9.902 -0.2462  0.1987 -0.1780
 1040BOLB   C1D24957  23.664   3.311  10.043  0.1904 -0.0587 -0.2561
 1040BOLB   C2D24958  23.501   3.646  10.429 -0.1280  0.0173 -0.1495
 1040BOLB   C3D24959  23.230   3.712  10.753 -0.3851 -0.2190 -0.1219
 1040BOLB   C4D24960  23.263   3.581  11.227 -0.0450  0.0791 -0.1857
 1041BOLB   NC124961  19.816   6.019   9.625  0.0146  0.1196  0.1014
 1041BOLB   PO124962  19.762   6.317   9.375 -0.0220 -0.1696  0.0203
 1041BOLB   GL124963  20.075   6.061   9.227 -0.3529 -0.0404 -0.1106
 1041BOLB   GL224964  19.878   5.766   9.226 -0.0750  0.1105 -0.2755
 1041BOLB   C1A24965  20.390   5.784   9.067  0.1731  0.0564 -0.2507
 1041BOLB   C2A24966  20.582   5.931   8.634 -0.0851 -0.1388  0.2173
 1041BOLB   C3A24967  20.814   5.700   8.348  0.0711  0.1628 -0.1931
 1041BOLB   C4A24968  21.262   5.572   8.240  0.1115 -0.1361  0.0658
 1041BOLB   C1B24969  19.947   5.779   8.777 -0.1418  0.0975  0.1127
 1041BOLB   C2B24970  20.134   5.852   8.383  0.2110 -0.1310 -0.0621
 1041BOLB   C3B24971  20.119   6.205   8.027 -0.1345  0.0106  0.1764
 1041BOLB   C4B24972  20.038   6.675   8.065 -0.2472 -0.0497  0.2504
 1041BOLB   NC224973  23.275   5.601   7.170  0.0789 -0.3345  0.2064
 1041BOLB   PO224974  22.949   5.920   6.991  0.0046 -0.0479  0.0269
 1041BOLB   GL324975  22.550   6.038   7.130  0.0678  0.0312 -0.0946
 1041BOLB   GL424976  22.357   6.328   6.976  0.1944  0.1995  0.4687
 1041BOLB   C1C24977  22.470   6.089   7.592  0.1623  0.1852 -0.0446
 1041BOLB   C2C24978  22.296   6.054   7.939  0.2052 -0.0547 -0.0210
 1041BOLB   C3C24979  21.975   5.770   7.965  0.3349 -0.0767 -0.0018
 1041BOLB   C4C24980  21.761   5.572   8.167 -0.1469  0.3528  0.1756
 1041BOLB   C1D24981  22.046   6.116   7.247 -0.0978 -0.1085 -0.1907
 1041BOLB   C2D24982  21.837   6.077   7.610 -0.2851  0.0349 -0.0794
 1041BOLB   C3D24983  21.885   6.341   7.975 -0.0153  0.1151 -0.0714
 1041BOLB   C4D24984  21.773   6.685   8.192 -0.4723 -0.0408 -0.1682
 1042BOLB   NC124985  12.544   6.889  21.973 -0.1236  0.1311  0.2882
 1042BOLB   PO124986  12.704   7.121  22.353 -0.4148  0.1457  0.0395
 1042BOLB   GL124987  12.662   7.127  22.725  0.1230  0.0583 -0.0832
 1042BOLB   GL224988  12.401   7.183  22.829  0.0827 -0.3239 -0.1369
 1042BOLB   C1A24989  12.759   6.831  23.105 -0.0894 -0.0624  0.0142
 1042BOLB   C2A24990  12.617   6.722  23.497  0.1483 -0.0252  0.1656
 1042BOLB   C3A24991  12.423   6.502  23.813  0.2614 -0.0521  0.0160
 1042BOLB   C4A24992  12.082   6.457  23.995  0.0217 -0.1592  0.1604
 1042BOLB   C1B24993  12.238   7.031  23.270 -0.2146 -0.1439 -0.0417
 1042BOLB   C2B24994  12.053   7.021  23.687 -0.0200  0.0595  0.0214
 1042BOLB   C3B24995  11.845   6.923  24.090 -0.0553 -0.1575  0.3278
 1042BOLB   C4B24996  11.363   7.033  24.085  0.2266  0.0066  0.0831
 1042BOLB   NC224997  10.121   6.879  26.244 -0.2110  0.2390 -0.2673
 1042BOLB   PO224998  10.242   6.806  25.868 -0.0477 -0.0865 -0.0915
 1042BOLB   GL324999  10.354   6.582  25.382 -0.0275  0.2991  0.3302
 1042BOLB   GL425000  10.316   6.873  25.116  0.0261  0.3988  0.3247
 1042BOLB   C1C25001  10.825   6.509  25.091  0.0687  0.2265 -0.1139
 1042BOLB   C2C25002  11.095   6.532  24.740 -0.0719  0.0914  0.2151
 1042BOLB   C3C25003  11.304   6.608  24.420  0.1906  0.2665  0.1505
 1042BOLB   C4C25004  11.727   6.482  24.263 -0.2256  0.0968 -0.0852
 1042BOLB   C1D25005  10.541   6.811  24.682 -0.3422  0.1399 -0.1361
 1042BOLB   C2D25006  10.699   6.667  24.440 -0.2216  0.1438 -0.5264
 1042BOLB   C3D25007  10.817   6.410  24.243 -0.0776 -0.2494  0.0926
 1042BOLB   C4D25008  11.169   6.489  23.942 -0.0177 -0.2022 -0.3104
 1043BOLB   NC125009  22.037  13.427  20.486 -0.1232  0.0136  0.3165
 1043BOLB   PO125010  21.880  13.787  20.328 -0.2693  0.1257 -0.3146
 1043BOLB   GL125011  22.226  13.961  20.631 -0.0014 -0.0679  0.0138
 1043BOLB   GL225012  22.152  14.140  20.819 -0.0686 -0.0856 -0.2662
 1043BOLB   C1A25013  22.623  14.077  20.605  0.2975  0.1490 -0.0358
 1043BOLB   C2A25014  22.992  14.240  20.757  0.3440 -0.0875 -0.1441
 1043BOLB   C3A25015  23.066  14.338  21.189  0.0235  0.0860 -0.0980
 1043BOLB   C4A25016  23.393  14.448  21.416  0.1668  0.2305 -0.0609
 1043BOLB   C1B25017  22.493  14.141  21.136 -0.2266 -0.2145 -0.0953
 1043BOLB   C2B25018  22.534  14.232  21.504  0.1009 -0.0320 -0.3925
 1043BOLB   C3B25019  22.895  14.420  21.679 -0.2073  0.3128 -0.3284
 1043BOLB   C4B25020  22.973  14.831  21.909  0.0648  0.1860  0.0071
 1043BOLB   NC225021  25.230  15.883  23.011  0.4411 -0.2610  0.2505
 1043BOLB   PO225022  24.962  15.553  23.049  0.0880 -0.0104  0.0727
 1043BOLB   GL325023  24.705  15.262  22.840  0.2270  0.3176  0.1475
 1043BOLB   GL425024  24.794  15.409  22.533  0.0371  0.0818  0.1229
 1043BOLB   C1C25025  24.506  14.834  22.907 -0.0207 -0.0226  0.0618
 1043BOLB   C2C25026  24.112  14.826  22.641  0.1105 -0.1144 -0.2414
 1043BOLB   C3C25027  23.818  14.669  22.228  0.2841  0.2502 -0.1338
 1043BOLB   C4C25028  23.549  14.706  21.853  0.2460 -0.0215  0.0652
 1043BOLB   C1D25029  24.772  15.578  22.110  0.1552  0.1199 -0.3325
 1043BOLB   C2D25030  24.681  15.602  21.704 -0.1121  0.1366 -0.0344
 1043BOLB   C3D25031  24.873  15.368  21.308  0.0036 -0.1334 -0.1129
 1043BOLB   C4D25032  24.817  15.013  21.087  0.0419  0.0109 -0.1994
 1044BOLB   NC125033   7.358   5.599   3.267  0.0030 -0.0868  0.0833
 1044BOLB   PO125034   7.313   5.634   3.747  0.1292 -0.0497  0.3417
 1044BOLB   GL125035   7.467   5.782   4.153 -0.2584 -0.1783  0.1741
 1044BOLB   GL225036   7.350   5.666   4.419  0.1693 -0.0758  0.0328
 1044BOLB   C1A25037   7.601   6.235   4.287  0.2331  0.1790  0.2265
 1044BOLB   C2A25038   7.816   6.635   4.471  0.2694 -0.1740  0.1758
 1044BOLB   C3A25039   7.937   7.165   4.499 -0.0095 -0.1037  0.1916
 1044BOLB   C4A25040   8.061   7.509   4.370  0.2605  0.0728  0.1590
 1044BOLB   C1B25041   7.610   5.957   4.678  0.0570  0.0088 -0.1509
 1044BOLB   C2B25042   7.877   6.266   4.804 -0.1234 -0.1414  0.2954
 1044BOLB   C3B25043   8.288   6.659   4.792 -0.1644 -0.1528 -0.0151
 1044BOLB   C4B25044   8.322   7.099   4.816 -0.0714 -0.2594 -0.0577
 1044BOLB   NC225045   7.255   8.188   2.892  0.3163  0.1769 -0.1021
 1044BOLB   PO225046   7.270   8.689   2.841  0.1854  0.0566  0.3444
 1044BOLB   GL325047   7.455   8.565   3.145 -0.1390  0.1784  0.0053
 1044BOLB   GL425048   7.404   8.825   3.394 -0.1527  0.2556 -0.1154
 1044BOLB   C1C25049   7.620   8.414   3.542  0.0553 -0.2929  0.2459
 1044BOLB   C2C25050   7.638   8.496   3.967 -0.3220  0.1116 -0.3361
 1044BOLB   C3C25051   7.717   8.302   4.333  0.1193 -0.2329 -0.0137
 1044BOLB   C4C25052   7.866   7.884   4.472  0.0321 -0.2104  0.4490
 1044BOLB   C1D25053   7.373   8.932   3.818 -0.0872  0.1002  0.0277
 1044BOLB   C2D25054   7.642   8.886   4.317 -0.1091  0.0677  0.2356
 1044BOLB   C3D25055   7.689   8.657   4.697 -0.1179 -0.3571  0.1136
 1044BOLB   C4D25056   7.991   8.306   4.790 -0.2998 -0.1811 -0.2469
 1045BOLB   NC125057  11.201  16.467  14.236  0.3461 -0.1762 -0.0409
 1045BOLB   PO125058  11.530  16.675  14.452  0.1480  0.0050  0.3662
 1045BOLB   GL125059  11.386  17.074  14.580  0.2771 -0.1879  0.1196
 1045BOLB   GL225060  11.473  17.347  14.748 -0.1851 -0.2640 -0.0371
 1045BOLB   C1A25061  11.111  17.300  14.322 -0.1228  0.1225 -0.1839
 1045BOLB   C2A25062  10.984  17.698  14.246  0.3293 -0.0106 -0.2803
 1045BOLB   C3A25063  10.855  18.106  14.143  0.3155  0.0894  0.0703
 1045BOLB   C4A25064  10.661  18.376  13.924  0.1163 -0.0493 -0.2783
 1045BOLB   C1B25065  11.109  17.559  14.754  0.2210 -0.2780  0.5654
 1045BOLB   C2B25066  10.703  17.834  14.760  0.2906 -0.0737  0.1064
 1045BOLB   C3B25067  10.271  17.867  14.844  0.2190 -0.0586  0.0075
 1045BOLB   C4B25068  10.009  17.925  15.174 -0.1485 -0.0105 -0.0080
 1045BOLB   NC225069   9.499  20.603  12.366 -0.4454 -0.0088 -0.3078
 1045BOLB   PO225070   9.594  20.447  12.710 -0.3558 -0.3011 -0.2065
 1045BOLB   GL325071   9.788  20.057  12.603 -0.0621 -0.0119  0.1813
 1045BOLB   GL425072  10.077  20.015  12.598  0.1419  0.1090 -0.1369
 1045BOLB   C1C25073   9.950  19.701  12.934  0.1306 -0.1273 -0.0503
 1045BOLB   C2C25074  10.239  19.397  13.055  0.2677 -0.0044 -0.1242
 1045BOLB   C3C25075  10.566  19.116  13.293  0.0134  0.0398 -0.1744
 1045BOLB   C4C25076  10.613  18.715  13.628  0.1198 -0.6765  0.1054
 1045BOLB   C1D25077  10.103  19.594  12.479  0.0218  0.3649 -0.0962
 1045BOLB   C2D25078  10.303  19.280  12.272 -0.0764  0.0696  0.1795
 1045BOLB   C3D25079  10.441  18.952  12.184 -0.1030  0.2695 -0.2191
 1045BOLB   C4D25080  10.408  18.588  12.262  0.2939 -0.0149 -0.0674
 1046BOLB   NC125081  13.976   6.964   0.664 -0.1513  0.1812  0.1171
 1046BOLB   PO125082  13.722   6.733   0.627  0.3658  0.0515  0.1487
 1046BOLB   GL125083  13.726   6.480   1.024 -0.4988  0.1492 -0.1426
 1046BOLB   GL225084  13.477   6.295   1.221  0.3442  0.1035 -0.1858
 1046BOLB   C1A25085  13.903   6.054   1.321 -0.0024  0.1887 -0.1153
 1046BOLB   C2A25086  13.923   5.998   1.805  0.3239  0.0904 -0.1264
 1046BOLB   C3A25087  14.137   5.892   2.180  0.0923  0.0383  0.0868
 1046BOLB   C4A25088  14.301   5.501   2.259 -0.1149 -0.0808 -0.0508
 1046BOLB   C1B25089  13.605   6.528   1.497  0.0370  0.2682 -0.0873
 1046BOLB   C2B25090  13.818   6.522   1.887  0.2012  0.0182 -0.2558
 1046BOLB   C3B25091  14.094   6.406   2.050 -0.1345  0.1952 -0.1763
 1046BOLB   C4B25092  14.338   6.488   2.348  0.0438  0.2649  0.1022
 1046BOLB   NC225093  14.423   3.560   1.286  0.2372  0.0871  0.0617
 1046BOLB   PO225094  13.959   3.660   1.275  0.1154 -0.0355 -0.0053
 1046BOLB   GL325095  14.162   3.866   1.616 -0.0698  0.0777 -0.2347
 1046BOLB   GL425096  14.551   3.935   1.614  0.0970  0.2458  0.1712
 1046BOLB   C1C25097  13.912   4.001   1.900  0.2072  0.1625  0.1616
 1046BOLB   C2C25098  14.105   4.343   2.126 -0.1385 -0.2188 -0.0795
 1046BOLB   C3C25099  14.048   4.739   2.219  0.1048 -0.2549  0.0843
 1046BOLB   C4C25100  14.138   5.121   2.135  0.0694  0.0474 -0.1075
 1046BOLB   C1D25101  14.611   4.319   1.830  0.2422 -0.2794  0.0743
 1046BOLB   C2D25102  14.535   4.774   1.963  0.2454  0.2096  0.0445
 1046BOLB   C3D25103  14.618   5.172   2.018 -0.0336  0.0364  0.2034
 1046BOLB   C4D25104  14.762   5.476   2.364  0.0195  0.2227 -0.1516
 1047BOLB   NC125105  14.830  13.667   8.127  0.2686 -0.0749  0.1740
 1047BOLB   PO125106  15.175  13.861   8.385 -0.0972 -0.0441  0.0228
 1047BOLB   GL125107  15.354  13.909   7.960  0.1283  0.0872  0.1223
 1047BOLB   GL225108  15.598  14.157   7.901  0.3678 -0.2386 -0.1140
 1047BOLB   C1A25109  15.425  13.949   7.458 -0.1270 -0.2536  0.1284
 1047BOLB   C2A25110  15.426  13.957   7.012 -0.2027  0.1377  0.0882
 1047BOLB   C3A25111  15.471  14.000   6.565 -0.0982  0.1567 -0.1559
 1047BOLB   C4A25112  15.386  14.287   6.331 -0.3373 -0.1532  0.1138
 1047BOLB   C1B25113  15.179  14.313   7.672  0.0749 -0.0735 -0.1329
 1047BOLB   C2B25114  14.822  14.314   7.756 -0.1132 -0.2541 -0.1719
 1047BOLB   C3B25115  14.411  14.467   7.801  0.1638  0.1350  0.0055
 1047BOLB   C4B25116  14.006  14.634   7.536  0.1061  0.2477  0.0957
 1047BOLB   NC225117  14.914  16.143   4.629 -0.2388 -0.1849 -0.0797
 1047BOLB   PO225118  15.239  16.103   4.953  0.0414  0.1706  0.2156
 1047BOLB   GL325119  15.373  15.973   5.304 -0.0405  0.1714 -0.0941
 1047BOLB   GL425120  15.631  15.996   5.449 -0.3168  0.0282  0.2263
 1047BOLB   C1C25121  15.235  15.653   5.614  0.0760 -0.2634 -0.1807
 1047BOLB   C2C25122  15.371  15.393   5.993 -0.0347 -0.3014 -0.2717
 1047BOLB   C3C25123  15.428  15.127   6.119  0.0564 -0.1210 -0.2353
 1047BOLB   C4C25124  15.425  14.690   6.250  0.0139 -0.2677 -0.1784
 1047BOLB   C1D25125  15.717  15.877   5.801 -0.2445 -0.1484 -0.1129
 1047BOLB   C2D25126  15.641  15.821   6.241  0.0745  0.2462 -0.0471
 1047BOLB   C3D25127  15.387  15.820   6.564  0.0171  0.2079 -0.1881
 1047BOLB   C4D25128  14.943  15.754   6.745 -0.0259  0.1750  0.2394
 1048BOLB   NC125129  22.018  20.526  13.529 -0.4244  0.1905  0.0634
 1048BOLB   PO125130  22.008  20.632  13.093  0.1266 -0.0173  0.0407
 1048BOLB   GL125131  22.035  20.210  13.059  0.3830 -0.1325 -0.0851
 1048BOLB   GL225132  21.704  20.108  13.029  0.1406  0.1662  0.2561
 1048BOLB   C1A25133  22.013  19.869  13.399  0.0592 -0.0966 -0.1376
 1048BOLB   C2A25134  21.743  19.638  13.738 -0.0580 -0.2996 -0.2278
 1048BOLB   C3A25135  21.745  19.681  14.247 -0.0048  0.0584  0.1721
 1048BOLB   C4A25136  21.947  19.605  14.665  0.0561  0.1228 -0.0625
 1048BOLB   C1B25137  21.553  19.624  13.200 -0.0469  0.2926 -0.3478
 1048BOLB   C2B25138  21.499  19.188  13.479  0.0774  0.1359  0.2445
 1048BOLB   C3B25139  21.347  18.886  13.759  0.3381 -0.0109 -0.0851
 1048BOLB   C4B25140  21.291  18.416  13.861  0.1233  0.1593 -0.1275
 1048BOLB   NC225141  21.344  21.499  14.967  0.0390  0.0635 -0.3083
 1048BOLB   PO225142  21.247  21.416  14.524 -0.0383 -0.1423  0.0331
 1048BOLB   GL325143  21.091  21.070  14.629  0.2910  0.0264 -0.0904
 1048BOLB   GL425144  20.765  21.078  14.688 -0.1097 -0.0051  0.0963
 1048BOLB   C1C25145  21.243  20.799  14.995  0.5394  0.0461 -0.0875
 1048BOLB   C2C25146  21.631  20.553  15.056  0.2982  0.4833  0.1694
 1048BOLB   C3C25147  21.753  20.174  15.059  0.0082 -0.0390 -0.0564
 1048BOLB   C4C25148  21.851  19.771  15.017  0.0733  0.1312 -0.3436
 1048BOLB   C1D25149  20.765  21.025  15.021 -0.0116 -0.0359  0.3010
 1048BOLB   C2D25150  21.058  21.057  15.416  0.0481  0.0007 -0.2223
 1048BOLB   C3D25151  21.263  21.257  15.664 -0.2487 -0.0761 -0.4410
 1048BOLB   C4D25152  21.306  21.226  16.114 -0.0544  0.0741 -0.0131
 1049BOLB   NC125153  21.583   3.947  15.561  0.0108  0.0487 -0.0761
 1049BOLB   PO125154  21.721   3.575  15.237 -0.2610 -0.1922 -0.2110
 1049BOLB   GL125155  22.132   3.433  15.267 -0.2119  0.0874  0.0509
 1049BOLB   GL225156  22.122   3.170  15.424 -0.2722  0.0271 -0.1455
 1049BOLB   C1A25157  22.478   3.230  15.115  0.1251  0.0183  0.3053
 1049BOLB   C2A25158  22.612   2.848  14.945 -0.0863  0.2743 -0.1559
 1049BOLB   C3A25159  22.775   2.483  14.734  0.0859  0.0029  0.0446
 1049BOLB   C4A25160  23.076   2.442  14.435 -0.1664  0.0172 -0.0199
 1049BOLB   C1B25161  22.167   2.826  15.774 -0.1131  0.3284  0.2049
 1049BOLB   C2B25162  22.298   2.439  15.905 -0.0693 -0.0293 -0.0901
 1049BOLB   C3B25163  22.558   2.160  16.106 -0.0417 -0.1542 -0.0724
 1049BOLB   C4B25164  22.586   1.972  16.487 -0.2329 -0.0623 -0.1467
 1049BOLB   NC225165  24.242   0.520  13.949 -0.1255 -0.2319 -0.0619
 1049BOLB   PO225166  23.997   0.312  14.106 -0.0100 -0.0049 -0.2191
 1049BOLB   GL325167  23.802   0.767  14.097  0.1941 -0.0307 -0.1272
 1049BOLB   GL425168  23.645   0.641  13.801  0.0372  0.0900  0.2821
 1049BOLB   C1C25169  23.617   1.182  14.101 -0.0449 -0.0619  0.3105
 1049BOLB   C2C25170  23.479   1.399  14.478  0.1021 -0.2360  0.0356
 1049BOLB   C3C25171  23.362   1.739  14.614 -0.0309  0.1471  0.1344
 1049BOLB   C4C25172  23.273   2.107  14.309 -0.1958  0.2932 -0.2999
 1049BOLB   C1D25173  23.328   0.880  13.762 -0.0405  0.0834 -0.1603
 1049BOLB   C2D25174  23.233   1.339  13.626 -0.2290 -0.3403 -0.1113
 1049BOLB   C3D25175  23.065   1.679  13.586 -0.5179 -0.1816  0.1069
 1049BOLB   C4D25176  22.853   2.048  13.396 -0.1814 -0.0014  0.1905
 1050BOLB   NC125177  18.964   2.197  14.006 -0.1438 -0.5057  0.0601
 1050BOLB   PO125178  19.191   2.029  14.341 -0.2580 -0.2116 -0.0227
 1050BOLB   GL125179  19.404   1.740  14.468  0.1068 -0.0448 -0.0032
 1050BOLB   GL225180  19.570   1.566  14.231 -0.0265 -0.0525  0.3580
 1050BOLB   C1A25181  19.495   1.421  14.757  0.0579 -0.0446 -0.1293
 1050BOLB   C2A25182  19.589   0.945  14.902  0.2029 -0.0165  0.3828
 1050BOLB   C3A25183  19.491   0.414  15.000  0.0749  0.3671  0.0516
 1050BOLB   C4A25184  19.362   0.066  14.922  0.1793  0.4577  0.0663
 1050BOLB   C1B25185  19.724   1.178  14.194 -0.3627 -0.1765  0.3465
 1050BOLB   C2B25186  19.700   0.680  14.053  0.2416  0.2882 -0.2248
 1050BOLB   C3B25187  19.939   0.377  13.791 -0.0748 -0.0044 -0.2532
 1050BOLB   C4B25188  20.376   0.414  13.608 -0.0738 -0.3418 -0.1446
 1050BOLB   NC225189  19.543  -2.312  15.190  0.2880 -0.1438  0.0707
 1050BOLB   PO225190  19.191  -2.266  15.170  0.1914 -0.0120  0.3179
 1050BOLB   GL325191  19.339  -1.847  15.183 -0.1985  0.0255 -0.1904
 1050BOLB   GL425192  19.537  -1.882  15.442 -0.2801 -0.2391 -0.0769
 1050BOLB   C1C25193  19.177  -1.422  15.379 -0.1384  0.2350 -0.4969
 1050BOLB   C2C25194  19.095  -1.072  15.441 -0.0975 -0.1096  0.0379
 1050BOLB   C3C25195  19.237  -0.665  15.363 -0.0644 -0.1308 -0.3237
 1050BOLB   C4C25196  19.386  -0.367  15.095 -0.5438  0.1398  0.1919
 1050BOLB   C1D25197  19.626  -1.452  15.106 -0.3209 -0.1291  0.0988
 1050BOLB   C2D25198  19.737  -1.010  15.364  0.1364  0.0169  0.0932
 1050BOLB   C3D25199  20.024  -0.798  15.622 -0.0473 -0.0550  0.0466
 1050BOLB   C4D25200  20.248  -0.715  16.037 -0.1397 -0.3416 -0.0133
 1051BOLB   NC125201   3.877   6.014   7.224 -0.2299 -0.0167  0.4418
 1051BOLB   PO125202   4.125   6.225   6.814  0.3992 -0.1347  0.0792
 1051BOLB   GL125203   4.019   6.572   7.103 -0.1042 -0.0639  0.2569
 1051BOLB   GL225204   4.250   6.746   6.939 -0.1919 -0.1414  0.0535
 1051BOLB   C1A25205   4.368   6.502   7.386 -0.2169 -0.0749 -0.2511
 1051BOLB   C2A25206   4.648   6.550   7.787 -0.2057 -0.3047  0.0503
 1051BOLB   C3A25207   4.831   6.539   8.161  0.2360  0.0079 -0.0840
 1051BOLB   C4A25208   4.710   7.002   8.230 -0.1549  0.1902  0.0392
 1051BOLB   C1B25209   4.610   6.843   6.935 -0.4438 -0.1501 -0.0030
 1051BOLB   C2B25210   5.021   6.940   7.318  0.2284  0.0977  0.1410
 1051BOLB   C3B25211   5.474   7.112   7.463 -0.1153 -0.2536 -0.2239
 1051BOLB   C4B25212   5.487   7.473   7.762  0.0380  0.0296  0.0660
 1051BOLB   NC225213   2.686   8.021   7.592  0.2933 -0.0083 -0.1149
 1051BOLB   PO225214   2.965   8.439   7.638 -0.3484 -0.1156  0.1744
 1051BOLB   GL325215   3.217   8.352   7.890 -0.1194 -0.0437  0.2608
 1051BOLB   GL425216   3.210   8.265   8.142 -0.0085 -0.0644  0.1644
 1051BOLB   C1C25217   3.688   8.211   7.828 -0.0085 -0.0152 -0.2953
 1051BOLB   C2C25218   4.018   7.999   7.871  0.1236 -0.4019  0.3121
 1051BOLB   C3C25219   4.423   7.700   7.884  0.1331  0.2676 -0.2070
 1051BOLB   C4C25220   4.629   7.471   8.199  0.1702  0.2207 -0.0492
 1051BOLB   C1D25221   3.714   8.361   8.287 -0.1202 -0.0925  0.1936
 1051BOLB   C2D25222   4.078   8.456   8.513  0.0893 -0.3230  0.2638
 1051BOLB   C3D25223   4.415   8.370   8.644 -0.0608 -0.0663  0.1612
 1051BOLB   C4D25224   4.773   8.187   8.410 -0.0301 -0.0242  0.1211
 1052BOLB   NC125225   0.480   8.298  13.019  0.0340 -0.0190 -0.4547
 1052BOLB   PO125226   0.836   8.241  13.293 -0.0776 -0.2196 -0.1371
 1052BOLB   GL125227   1.247   8.160  13.139 -0.0681  0.1315 -0.2111
 1052BOLB   GL225228   1.381   8.460  13.152 -0.0197  0.1277 -0.0260
 1052BOLB   C1A25229   1.360   7.833  12.777 -0.1365 -0.0035 -0.1365
 1052BOLB   C2A25230   1.449   7.553  12.561 -0.1679 -0.0312 -0.1677
 1052BOLB   C3A25231   1.589   7.216  12.437 -0.2562 -0.1253  0.1957
 1052BOLB   C4A25232   1.795   6.862  12.255 -0.2187 -0.1221  0.0289
 1052BOLB   C1B25233   1.699   8.285  12.964  0.0421  0.2745 -0.0127
 1052BOLB   C2B25234   1.919   8.062  12.806  0.3647  0.1319 -0.1881
 1052BOLB   C3B25235   1.978   7.711  12.639  0.1788 -0.0117  0.1496
 1052BOLB   C4B25236   2.135   7.278  12.718  0.0991  0.0534  0.1001
 1052BOLB   NC225237   1.507   6.647  10.683  0.0563  0.1542  0.1865
 1052BOLB   PO225238   1.733   6.498  10.371  0.0879 -0.1615 -0.0231
 1052BOLB   GL325239   1.932   6.332  10.758 -0.0568 -0.1432 -0.5462
 1052BOLB   GL425240   1.706   6.041  10.936  0.0239 -0.1130 -0.3183
 1052BOLB   C1C25241   2.237   6.512  10.988 -0.0130  0.0624 -0.0689
 1052BOLB   C2C25242   2.424   6.484  11.469  0.0401 -0.1416  0.1344
 1052BOLB   C3C25243   2.392   6.598  11.948 -0.1086 -0.2170 -0.1968
 1052BOLB   C4C25244   2.134   6.769  12.244 -0.1855  0.1877 -0.0976
 1052BOLB   C1D25245   1.940   6.177  11.288  0.1336  0.0889 -0.1975
 1052BOLB   C2D25246   2.246   5.979  11.632 -0.0685  0.0250 -0.1057
 1052BOLB   C3D25247   2.509   6.124  12.014  0.0719  0.0247 -0.4773
 1052BOLB   C4D25248   2.484   6.361  12.406  0.2316  0.6632 -0.0786
 1053BOLB   NC125249   2.086   2.399  13.484  0.4480 -0.0132  0.1153
 1053BOLB   PO125250   2.070   2.414  13.068 -0.3074 -0.1969 -0.1511
 1053BOLB   GL125251   2.437   2.679  13.145 -0.3117  0.1700 -0.0119
 1053BOLB   GL225252   2.672   2.275  13.293 -0.2540 -0.1129  0.1113
 1053BOLB   C1A25253   2.807   2.790  13.471  0.2525  0.0174  0.4455
 1053BOLB   C2A25254   3.271   2.802  13.655  0.2329  0.1743 -0.1241
 1053BOLB   C3A25255   3.754   2.795  13.681 -0.1826  0.1664  0.1539
 1053BOLB   C4A25256   4.228   2.650  13.599 -0.1428 -0.3118 -0.1044
 1053BOLB   C1B25257   3.105   2.198  13.355  0.1295 -0.2852 -0.2608
 1053BOLB   C2B25258   3.453   2.300  13.464 -0.0520 -0.0852  0.3108
 1053BOLB   C3B25259   3.916   2.355  13.415  0.0105 -0.2332  0.3839
 1053BOLB   C4B25260   4.335   2.407  13.142 -0.2755 -0.1197 -0.1024
 1053BOLB   NC225261   2.281   1.570  13.823  0.0115 -0.1525 -0.2798
 1053BOLB   PO225262   2.623   1.283  13.853 -0.4795 -0.0955 -0.1716
 1053BOLB   GL325263   3.038   1.234  13.856  0.1056  0.2002  0.0738
 1053BOLB   GL425264   3.112   1.456  13.741 -0.4775 -0.3721  0.0508
 1053BOLB   C1C25265   3.481   1.285  14.026  0.0691 -0.1406 -0.1138
 1053BOLB   C2C25266   3.672   1.732  14.153 -0.0040 -0.0872 -0.0463
 1053BOLB   C3C25267   4.075   1.836  13.903 -0.1066 -0.4393 -0.0020
 1053BOLB   C4C25268   4.327   2.237  13.691  0.0419 -0.3511 -0.2218
 1053BOLB   C1D25269   3.067   1.673  14.162 -0.3974  0.0491 -0.1787
 1053BOLB   C2D25270   3.248   2.012  14.246  0.0978  0.1035  0.0683
 1053BOLB   C3D25271   3.613   2.191  14.437 -0.2908  0.1037  0.0203
 1053BOLB   C4D25272   4.033   2.197  14.525 -0.0000  0.0429 -0.2601
 1054BOLB   NC125273   1.509   6.067  17.076  0.2976 -0.0059 -0.0674
 1054BOLB   PO125274   1.639   5.676  17.045  0.0038  0.2789 -0.5215
 1054BOLB   GL125275   2.083   5.597  16.931 -0.0582 -0.1116  0.1758
 1054BOLB   GL225276   1.976   5.301  16.791  0.0995 -0.0663  0.0786
 1054BOLB   C1A25277   2.457   5.529  16.731  0.0478 -0.3409  0.0955
 1054BOLB   C2A25278   2.681   5.138  16.707  0.1513  0.0482  0.0829
 1054BOLB   C3A25279   3.054   4.881  16.538  0.1554 -0.1124 -0.2975
 1054BOLB   C4A25280   3.406   4.557  16.493  0.1880  0.2785  0.2880
 1054BOLB   C1B25281   2.147   5.166  16.377 -0.0044  0.1508  0.2323
 1054BOLB   C2B25282   2.503   5.017  16.244 -0.0864 -0.2398 -0.0613
 1054BOLB   C3B25283   2.798   4.726  16.119 -0.3327 -0.0803 -0.0621
 1054BOLB   C4B25284   2.946   4.388  15.718 -0.2542 -0.1098 -0.2662
 1054BOLB   NC225285   2.103   3.905  18.055 -0.1121 -0.2017  0.0153
 1054BOLB   PO225286   2.412   3.527  17.882 -0.2020  0.2224  0.2095
 1054BOLB   GL325287   2.682   3.631  17.520  0.0043  0.2512  0.0001
 1054BOLB   GL425288   2.424   3.560  17.314 -0.1918 -0.1814  0.0292
 1054BOLB   C1C25289   2.972   3.440  17.365 -0.1389  0.0870 -0.0979
 1054BOLB   C2C25290   3.204   3.522  17.008 -0.1672  0.1073  0.1184
 1054BOLB   C3C25291   3.536   3.758  16.732 -0.0865  0.0200  0.0841
 1054BOLB   C4C25292   3.569   4.195  16.685 -0.2636 -0.1649 -0.0284
 1054BOLB   C1D25293   2.708   3.351  16.940 -0.0184  0.3172 -0.1569
 1054BOLB   C2D25294   2.898   3.041  16.673 -0.1975  0.0525  0.0378
 1054BOLB   C3D25295   3.180   2.667  16.681  0.0152  0.2890 -0.0998
 1054BOLB   C4D25296   3.383   2.632  16.930  0.3495  0.1707 -0.3455
 1055BOLB   NC125297   3.096   8.755  18.215 -0.2544  0.0684  0.2364
 1055BOLB   PO125298   3.316   9.105  18.423 -0.4309  0.3054  0.1913
 1055BOLB   GL125299   3.698   9.032  18.100  0.0710  0.1348  0.5218
 1055BOLB   GL225300   4.021   9.034  18.021  0.4713  0.1153  0.2571
 1055BOLB   C1A25301   3.630   8.756  17.689 -0.1255  0.2403  0.2641
 1055BOLB   C2A25302   3.703   8.466  17.506  0.0744  0.1197  0.2430
 1055BOLB   C3A25303   4.027   8.278  17.397  0.0850 -0.2520 -0.1785
 1055BOLB   C4A25304   4.223   8.396  17.144  0.1510 -0.0795 -0.1687
 1055BOLB   C1B25305   4.407   9.031  17.756  0.1694  0.0153  0.0401
 1055BOLB   C2B25306   4.877   8.955  17.593 -0.1305  0.2609 -0.1033
 1055BOLB   C3B25307   5.293   9.142  17.563  0.0925  0.4017 -0.4466
 1055BOLB   C4B25308   5.675   9.116  17.371  0.2285  0.0850  0.3078
 1055BOLB   NC225309   3.790  10.575  16.810 -0.1091  0.1069 -0.0430
 1055BOLB   PO225310   3.638  10.215  16.984  0.0609  0.2632  0.0528
 1055BOLB   GL325311   3.606  10.081  16.697  0.0993 -0.1381  0.3005
 1055BOLB   GL425312   3.640  10.207  16.411  0.0621  0.3718  0.1345
 1055BOLB   C1C25313   3.700   9.686  16.488  0.1601 -0.1795  0.1224
 1055BOLB   C2C25314   3.758   9.295  16.512 -0.0660  0.0041 -0.1480
 1055BOLB   C3C25315   3.896   8.880  16.554  0.0448  0.3276 -0.1592
 1055BOLB   C4C25316   4.154   8.652  16.815  0.0430  0.0519  0.1868
 1055BOLB   C1D25317   4.075   9.948  16.420  0.0657 -0.0163 -0.0878
 1055BOLB   C2D25318   4.400   9.952  16.179 -0.1062 -0.1153  0.1827
 1055BOLB   C3D25319   4.530  10.287  16.014 -0.1551 -0.3601 -0.1969
 1055BOLB   C4D25320   4.390  10.560  15.720  0.0616 -0.0966  0.3826
 1056BOLB   NC125321   5.218  13.704   6.698  0.0892 -0.0883 -0.1144
 1056BOLB   PO125322   5.537  13.869   6.554  0.0752 -0.0011  0.1969
 1056BOLB   GL125323   5.861  13.607   6.718 -0.1912  0.0659  0.2687
 1056BOLB   GL225324   6.130  13.812   7.002  0.2377 -0.3405  0.1921
 1056BOLB   C1A25325   5.892  13.166   6.912 -0.1245  0.0712  0.1746
 1056BOLB   C2A25326   5.808  12.896   7.290 -0.2078 -0.0498  0.5711
 1056BOLB   C3A25327   5.717  12.841   7.705  0.3817 -0.0147  0.0918
 1056BOLB   C4A25328   5.756  12.560   8.052  0.1609 -0.2012 -0.1346
 1056BOLB   C1B25329   6.298  13.368   6.830 -0.1664 -0.1114  0.2039
 1056BOLB   C2B25330   6.279  13.007   6.443 -0.4567  0.0574 -0.2519
 1056BOLB   C3B25331   6.272  12.523   6.408 -0.2949  0.0966 -0.1583
 1056BOLB   C4B25332   6.111  12.123   6.556 -0.1956 -0.0713 -0.4271
 1056BOLB   NC225333   6.143  14.621   8.581 -0.1630 -0.0534  0.2034
 1056BOLB   PO225334   5.767  14.463   8.410 -0.0730  0.1788 -0.1336
 1056BOLB   GL325335   5.656  14.095   8.394 -0.0623  0.1891 -0.0652
 1056BOLB   GL425336   5.785  14.052   8.029 -0.1998 -0.1910  0.1253
 1056BOLB   C1C25337   5.824  13.680   8.425 -0.7055  0.1621  0.2215
 1056BOLB   C2C25338   5.914  13.309   8.578 -0.3115  0.1313 -0.0077
 1056BOLB   C3C25339   5.756  12.873   8.663 -0.5545 -0.0981  0.0102
 1056BOLB   C4C25340   5.660  12.559   8.381  0.1620  0.1553  0.0228
 1056BOLB   C1D25341   6.103  13.759   7.973 -0.0411  0.1044 -0.1598
 1056BOLB   C2D25342   6.288  13.506   7.722  0.2861  0.0158  0.2308
 1056BOLB   C3D25343   6.222  13.374   7.288 -0.1526 -0.0885  0.2501
 1056BOLB   C4D25344   6.391  12.988   7.054  0.0478 -0.1324  0.2851
 1057BOLB   NC125345   3.833   8.915  18.559 -0.2319  0.1761 -0.0589
 1057BOLB   PO125346   3.526   8.557  18.368 -0.1118 -0.2423  0.0718
 1057BOLB   GL125347   3.876   8.566  18.129 -0.1910  0.0771  0.0308
 1057BOLB   GL225348   4.247   8.615  18.278  0.2501 -0.0857 -0.3609
 1057BOLB   C1A25349   4.068   8.570  17.793  0.1980 -0.2619  0.1566
 1057BOLB   C2A25350   4.524   8.561  17.596 -0.1796  0.2539  0.0295
 1057BOLB   C3A25351   4.690   8.572  17.245  0.0011  0.2040  0.0954
 1057BOLB   C4A25352   4.727   8.751  16.824  0.3891 -0.1163 -0.0318
 1057BOLB   C1B25353   4.086   8.116  18.155  0.1073  0.3529 -0.3121
 1057BOLB   C2B25354   3.746   8.120  17.843 -0.0685  0.0529  0.3391
 1057BOLB   C3B25355   3.307   8.137  17.562  0.1173 -0.0134  0.1814
 1057BOLB   C4B25356   3.407   8.122  17.171 -0.3741 -0.1026 -0.1908
 1057BOLB   NC225357   3.246  10.453  16.687  0.1735 -0.3315 -0.1462
 1057BOLB   PO225358   2.831  10.220  16.879 -0.2654 -0.1120  0.0078
 1057BOLB   GL325359   3.079   9.929  16.598 -0.1530 -0.2014 -0.1724
 1057BOLB   GL425360   2.991  10.044  16.206  0.4908 -0.3621 -0.3703
 1057BOLB   C1C25361   3.336   9.574  16.853  0.0822 -0.3311  0.1331
 1057BOLB   C2C25362   3.667   9.252  16.971 -0.4464 -0.0525 -0.0614
 1057BOLB   C3C25363   4.127   9.168  16.886  0.0841 -0.1765  0.1661
 1057BOLB   C4C25364   4.507   8.980  16.602 -0.1622  0.0999  0.2304
 1057BOLB   C1D25365   3.303   9.711  16.204  0.0804 -0.1072 -0.1262
 1057BOLB   C2D25366   3.337   9.350  16.228 -0.0745 -0.0417  0.0138
 1057BOLB   C3D25367   3.586   9.060  15.989  0.1357 -0.1373  0.0239
 1057BOLB   C4D25368   4.014   8.889  15.758  0.0757  0.1785 -0.1660
 1058BOLB   NC125369  11.105   5.293  20.741  0.1197 -0.0080 -0.0827
 1058BOLB   PO125370  11.084   5.697  20.732  0.2848 -0.1285  0.2857
 1058BOLB   GL125371  10.866   5.608  21.111 -0.0175  0.1870 -0.0933
 1058BOLB   GL225372  10.960   5.360  21.218  0.1882 -0.0716 -0.5697
 1058BOLB   C1A25373  10.543   5.706  21.526  0.2093 -0.0586 -0.0696
 1058BOLB   C2A25374  10.493   5.608  21.936  0.2424  0.0982 -0.0889
 1058BOLB   C3A25375  10.740   5.614  22.221  0.4498  0.1970  0.0313
 1058BOLB   C4A25376  10.612   5.506  22.586  0.2159 -0.1765  0.3978
 1058BOLB   C1B25377  10.562   5.213  21.387 -0.1969  0.1558  0.1501
 1058BOLB   C2B25378  10.261   5.097  21.679  0.1047 -0.2740  0.0378
 1058BOLB   C3B25379  10.112   5.180  21.993  0.2926  0.1464 -0.2544
 1058BOLB   C4B25380  10.110   5.522  22.338 -0.1072  0.2431  0.1295
 1058BOLB   NC225381   9.365   3.928  24.200 -0.0011 -0.3289  0.2173
 1058BOLB   PO225382   9.211   4.299  24.386  0.0101  0.0779  0.0843
 1058BOLB   GL325383   9.623   4.479  24.305 -0.1351  0.3658 -0.1934
 1058BOLB   GL425384   9.658   4.776  24.285 -0.1164  0.2114 -0.0083
 1058BOLB   C1C25385   9.929   4.618  23.891  0.0758  0.2494 -0.0740
 1058BOLB   C2C25386   9.923   4.674  23.450  0.2056  0.3649  0.1417
 1058BOLB   C3C25387  10.010   4.990  23.089  0.1411 -0.5042  0.0572
 1058BOLB   C4C25388  10.360   5.194  22.857 -0.1219 -0.0251 -0.2348
 1058BOLB   C1D25389   9.584   4.939  23.911 -0.1769  0.0903  0.1521
 1058BOLB   C2D25390   9.686   5.175  23.449  0.0276  0.1148  0.1337
 1058BOLB   C3D25391   9.581   5.464  23.072 -0.0920 -0.3242  0.2147
 1058BOLB   C4D25392   9.396   5.479  22.738 -0.0299  0.1127 -0.1413
 1059BOLB   NC125393   6.336   4.287  21.210 -0.0190  0.0906  0.0577
 1059BOLB   PO125394   6.623   4.268  21.493  0.1268  0.2611  0.3363
 1059BOLB   GL125395   6.812   4.673  21.419 -0.1620  0.0721 -0.0576
 1059BOLB   GL225396   6.683   4.766  21.103  0.3607  0.2343  0.4068
 1059BOLB   C1A25397   7.328   4.975  21.325  0.3716 -0.0220 -0.1855
 1059BOLB   C2A25398   7.776   5.129  21.182  0.0183 -0.0723 -0.1634
 1059BOLB   C3A25399   8.245   4.996  21.238  0.2346 -0.1923  0.3012
 1059BOLB   C4A25400   8.579   4.769  21.434  0.0323 -0.4552  0.2289
 1059BOLB   C1B25401   6.979   4.683  20.866  0.1800  0.0036  0.0787
 1059BOLB   C2B25402   7.383   5.022  20.759 -0.1511 -0.1537  0.2034
 1059BOLB   C3B25403   7.690   4.933  20.390  0.1809  0.0768 -0.0046
 1059BOLB   C4B25404   8.144   5.165  20.306  0.0181  0.3019 -0.1888
 1059BOLB   NC225405   7.609   3.192  23.115  0.0441  0.0392 -0.3079
 1059BOLB   PO225406   7.946   3.534  22.972 -0.0046 -0.0076 -0.0139
 1059BOLB   GL325407   8.217   3.529  22.681 -0.2179 -0.2979 -0.0396
 1059BOLB   GL425408   8.044   3.686  22.432 -0.0011  0.0634 -0.3729
 1059BOLB   C1C25409   8.606   3.756  22.488  0.1291  0.0585  0.0219
 1059BOLB   C2C25410   8.885   3.849  22.262  0.3576 -0.1346 -0.1117
 1059BOLB   C3C25411   8.918   4.182  21.733  0.2240  0.1192  0.2353
 1059BOLB   C4C25412   8.597   4.369  21.554 -0.1397 -0.0154 -0.0748
 1059BOLB   C1D25413   7.958   4.027  22.173 -0.1038  0.0394  0.1202
 1059BOLB   C2D25414   8.092   4.354  21.914 -0.1781 -0.0039  0.1513
 1059BOLB   C3D25415   8.022   4.620  21.686 -0.1683 -0.3440  0.2463
 1059BOLB   C4D25416   7.823   4.564  21.264 -0.0186 -0.1603 -0.2001
 1060BOLB   NC125417  23.501   9.822  18.646  0.0136  0.0637  0.0763
 1060BOLB   PO125418  23.884   9.627  18.914 -0.0605 -0.1107  0.1023
 1060BOLB   GL125419  24.128   9.404  19.107 -0.1411  0.0790 -0.2476
 1060BOLB   GL225420  24.213   9.026  19.090 -0.0096 -0.2228 -0.0022
 1060BOLB   C1A25421  24.551   9.553  19.122 -0.0630  0.1761  0.1571
 1060BOLB   C2A25422  24.997   9.478  19.050  0.5619  0.2177 -0.2516
 1060BOLB   C3A25423  25.318   9.612  19.341 -0.0981  0.1307  0.0113
 1060BOLB   C4A25424  25.642   9.456  19.171 -0.3220 -0.5666 -0.1406
 1060BOLB   C1B25425  24.644   9.091  19.241  0.1293 -0.0923  0.2061
 1060BOLB   C2B25426  25.049   9.049  19.342  0.0309 -0.0061  0.2521
 1060BOLB   C3B25427  25.366   9.047  19.088  0.0323 -0.0799 -0.3297
 1060BOLB   C4B25428  25.489   8.859  18.686  0.4285  0.3411 -0.0334
 1060BOLB   NC225429  28.135   8.875  19.486 -0.2764  0.1544  0.2544
 1060BOLB   PO225430  27.858   8.723  19.729 -0.0386 -0.0634 -0.1271
 1060BOLB   GL325431  27.490   8.970  19.671 -0.0720 -0.3040  0.1818
 1060BOLB   GL425432  27.492   9.302  19.600  0.0707  0.0257  0.0480
 1060BOLB   C1C25433  27.009   9.181  19.670  0.2467 -0.1123  0.0261
 1060BOLB   C2C25434  26.554   9.150  19.702  0.0951 -0.3055  0.1177
 1060BOLB   C3C25435  26.225   9.068  19.413  0.0558 -0.0278  0.0467
 1060BOLB   C4C25436  26.071   9.266  19.211 -0.1288 -0.2884  0.2023
 1060BOLB   C1D25437  27.092   9.661  19.752 -0.1097 -0.0235 -0.2906
 1060BOLB   C2D25438  26.655   9.633  19.794 -0.0275 -0.0329 -0.0584
 1060BOLB   C3D25439  26.241   9.645  19.646  0.0964  0.2731  0.0682
 1060BOLB   C4D25440  25.842   9.804  19.563  0.5826  0.1369  0.0439
 1061BOLB   NC125441  17.233   0.619   2.920 -0.3142  0.0705 -0.0893
 1061BOLB   PO125442  17.280   0.974   2.998  0.1755  0.3041 -0.0611
 1061BOLB   GL125443  16.941   0.971   3.326 -0.2324 -0.0657 -0.0868
 1061BOLB   GL225444  16.978   1.316   3.356 -0.2775  0.0673  0.1872
 1061BOLB   C1A25445  17.125   0.941   3.759  0.1723  0.2691 -0.0558
 1061BOLB   C2A25446  17.023   1.145   4.233  0.0834 -0.1282 -0.1470
 1061BOLB   C3A25447  17.022   1.535   4.454 -0.0194 -0.1729 -0.0354
 1061BOLB   C4A25448  16.945   1.917   4.267  0.0681  0.2785 -0.0442
 1061BOLB   C1B25449  16.637   1.184   3.664  0.2538  0.2075  0.0400
 1061BOLB   C2B25450  16.490   1.360   4.015  0.1240  0.3058  0.2950
 1061BOLB   C3B25451  16.552   1.668   4.391 -0.1689 -0.2882 -0.1320
 1061BOLB   C4B25452  16.720   2.095   4.763  0.0329  0.1068  0.1743
 1061BOLB   NC225453  15.673   1.711   2.013  0.1593  0.1533 -0.1119
 1061BOLB   PO225454  16.078   1.622   2.198  0.3371 -0.1711 -0.1152
 1061BOLB   GL325455  15.800   1.561   2.621 -0.0664  0.2741 -0.0592
 1061BOLB   GL425456  16.003   1.382   2.853 -0.1995  0.1347 -0.0879
 1061BOLB   C1C25457  15.710   1.735   3.053  0.0773 -0.1157 -0.1887
 1061BOLB   C2C25458  15.786   1.744   3.483 -0.0171  0.0908  0.0718
 1061BOLB   C3C25459  16.184   1.728   3.726 -0.1907 -0.0884  0.1169
 1061BOLB   C4C25460  16.641   1.994   3.945  0.1740  0.0688  0.1001
 1061BOLB   C1D25461  16.184   1.783   2.800 -0.0632  0.2560  0.0234
 1061BOLB   C2D25462  16.279   2.217   2.885 -0.0450 -0.0650  0.2512
 1061BOLB   C3D25463  16.111   2.619   3.074  0.0140  0.1875  0.1126
 1061BOLB   C4D25464  15.938   2.995   3.109 -0.1558  0.1278 -0.0150
 1062BOLB   NC125465  12.630  32.959   7.660 -0.2403  0.1261  0.0869
 1062BOLB   PO125466  12.641  33.240   7.287  0.0418  0.0548  0.1041
 1062BOLB   GL125467  12.734  33.578   7.389 -0.0918  0.3372  0.1997
 1062BOLB   GL225468  12.746  33.519   7.667  0.1947 -0.3196  0.0146
 1062BOLB   C1A25469  12.819  33.946   7.519 -0.3090  0.2267  0.0126
 1062BOLB   C2A25470  12.844  34.160   7.761  0.1946  0.4377  0.1029
 1062BOLB   C3A25471  13.028  34.521   7.937  0.0763 -0.1903 -0.1769
 1062BOLB   C4A25472  13.356  34.743   7.799  0.2352  0.2176 -0.1861
 1062BOLB   C1B25473  13.150  33.719   7.827 -0.0849  0.0992 -0.1202
 1062BOLB   C2B25474  13.326  34.085   7.873  0.2663  0.1422  0.1063
 1062BOLB   C3B25475  13.628  34.326   7.728 -0.0832 -0.1877  0.0757
 1062BOLB   C4B25476  14.092  34.546   7.628 -0.0292 -0.0072 -0.3411
 1062BOLB   NC225477  12.824  34.016   5.721 -0.1929 -0.0142 -0.0834
 1062BOLB   PO225478  13.209  34.129   5.785  0.1680 -0.0654  0.0848
 1062BOLB   GL325479  13.310  34.133   6.197  0.0127 -0.4700 -0.0282
 1062BOLB   GL425480  13.403  33.871   6.414 -0.0485  0.0727 -0.1546
 1062BOLB   C1C25481  13.670  34.353   6.382 -0.1909  0.0833  0.0506
 1062BOLB   C2C25482  13.805  34.509   6.757  0.0569 -0.0506 -0.1889
 1062BOLB   C3C25483  13.519  34.501   7.089  0.1104  0.1943 -0.1651
 1062BOLB   C4C25484  13.555  34.764   7.515 -0.1206 -0.1303 -0.1240
 1062BOLB   C1D25485  13.336  34.192   6.739 -0.1536  0.0211 -0.1069
 1062BOLB   C2D25486  13.046  34.478   7.035 -0.3487 -0.2924 -0.0682
 1062BOLB   C3D25487  12.964  34.844   6.891 -0.0664 -0.0448 -0.2606
 1062BOLB   C4D25488  12.741  35.179   6.790 -0.2762 -0.2054  0.0733
 1063BOLB   NC125489  11.842  20.255  23.003 -0.1405 -0.0003 -0.1648
 1063BOLB   PO125490  11.883  20.160  22.588  0.0776  0.2365  0.3679
 1063BOLB   GL125491  12.146  19.826  22.446 -0.1659  0.5424  0.2419
 1063BOLB   GL225492  12.285  19.845  22.223 -0.2327  0.0615 -0.0996
 1063BOLB   C1A25493  12.165  19.388  22.126  0.0302  0.0504  0.0655
 1063BOLB   C2A25494  12.352  19.093  21.980  0.4131 -0.1937 -0.0967
 1063BOLB   C3A25495  12.451  18.824  21.654  0.1402  0.0591 -0.1666
 1063BOLB   C4A25496  12.130  18.621  21.418  0.0712  0.4123  0.1037
 1063BOLB   C1B25497  12.472  19.740  21.990 -0.1018  0.0022 -0.2434
 1063BOLB   C2B25498  12.718  19.406  21.828 -0.0368 -0.1870 -0.0942
 1063BOLB   C3B25499  12.817  19.107  21.616 -0.2496  0.0810  0.3543
 1063BOLB   C4B25500  12.943  18.739  21.733 -0.2836  0.0256  0.3807
 1063BOLB   NC225501  10.465  19.016  22.761 -0.3193  0.2848  0.0775
 1063BOLB   PO225502  10.659  19.360  22.506 -0.2209 -0.0961 -0.1621
 1063BOLB   GL325503  11.006  19.253  22.309 -0.4322 -0.1042  0.3644
 1063BOLB   GL425504  10.765  19.081  22.065 -0.0183 -0.1118 -0.0396
 1063BOLB   C1C25505  11.163  19.230  21.853  0.1133 -0.1505 -0.1181
 1063BOLB   C2C25506  11.191  19.231  21.387  0.0116 -0.1197  0.2050
 1063BOLB   C3C25507  11.416  18.987  21.038 -0.1867  0.0999 -0.0092
 1063BOLB   C4C25508  11.790  18.564  21.056 -0.0257 -0.3671  0.3800
 1063BOLB   C1D25509  10.848  18.840  21.765 -0.0571 -0.1107 -0.0458
 1063BOLB   C2D25510  11.223  18.783  21.568  0.1893  0.2970  0.2180
 1063BOLB   C3D25511  11.663  18.877  21.559 -0.3500 -0.0318  0.1453
 1063BOLB   C4D25512  11.905  18.832  21.983 -0.0563  0.1478  0.1540
 1064BOLB   NC125513  17.155  34.797   4.333  0.0425  0.1277  0.0609
 1064BOLB   PO125514  16.927  34.636   4.604 -0.2330  0.1188 -0.1552
 1064BOLB   GL125515  16.742  35.109   4.682 -0.2525  0.1463 -0.1508
 1064BOLB   GL225516  16.805  35.367   4.547  0.1810 -0.1944 -0.0095
 1064BOLB   C1A25517  16.779  35.359   5.043 -0.0387 -0.0520  0.1035
 1064BOLB   C2A25518  16.920  35.651   5.170  0.1461  0.2951 -0.1450
 1064BOLB   C3A25519  17.254  35.465   5.356 -0.1224 -0.3024 -0.1155
 1064BOLB   C4A25520  17.323  35.587   5.843 -0.0119  0.2773  0.0658
 1064BOLB   C1B25521  16.670  35.859   4.646  0.0505  0.0078  0.0548
 1064BOLB   C2B25522  17.116  36.007   4.775 -0.0943  0.4563 -0.0251
 1064BOLB   C3B25523  17.511  36.067   4.635 -0.0672 -0.0358 -0.1107
 1064BOLB   C4B25524  17.836  36.269   4.480 -0.5328  0.1124 -0.1126
 1064BOLB   NC225525  17.734  33.863   6.337 -0.3336 -0.3719 -0.0304
 1064BOLB   PO225526  17.894  34.064   6.086 -0.1039 -0.0636  0.2203
 1064BOLB   GL325527  17.822  34.393   6.298  0.3655 -0.0646 -0.0572
 1064BOLB   GL425528  17.939  34.570   6.230 -0.1094 -0.0532 -0.3610
 1064BOLB   C1C25529  17.684  34.546   6.669  0.1053 -0.0581 -0.0444
 1064BOLB   C2C25530  17.840  34.989   6.634 -0.2233  0.3489  0.0814
 1064BOLB   C3C25531  17.985  35.345   6.400  0.1342 -0.1825  0.1032
 1064BOLB   C4C25532  17.670  35.524   6.084 -0.3157 -0.0168  0.0413
 1064BOLB   C1D25533  17.983  34.970   6.071 -0.2731  0.0007  0.4791
 1064BOLB   C2D25534  18.238  35.281   5.906 -0.3465 -0.1348  0.0496
 1064BOLB   C3D25535  17.975  35.587   5.634 -0.2194 -0.0699 -0.2716
 1064BOLB   C4D25536  17.618  35.900   5.651  0.1929  0.2553 -0.1134
 1065BOLB   NC125537  22.266  16.319  17.775  0.2511  0.3241 -0.0591
 1065BOLB   PO125538  21.993  16.487  18.197 -0.2570  0.0368 -0.1000
 1065BOLB   GL125539  22.363  16.625  18.417  0.1114  0.0639  0.1479
 1065BOLB   GL225540  22.577  16.389  18.628  0.0211  0.2012  0.0912
 1065BOLB   C1A25541  22.586  16.866  18.705  0.1979  0.0645  0.2255
 1065BOLB   C2A25542  22.886  17.217  18.887 -0.0986  0.1127  0.0010
 1065BOLB   C3A25543  23.277  17.399  18.847 -0.0898  0.2843  0.2084
 1065BOLB   C4A25544  23.734  17.622  18.839 -0.0334  0.0336  0.3116
 1065BOLB   C1B25545  23.010  16.552  18.565 -0.3695  0.2947 -0.1496
 1065BOLB   C2B25546  23.382  16.790  18.549  0.0372  0.1975 -0.0903
 1065BOLB   C3B25547  23.472  17.208  18.383  0.1058 -0.4477 -0.0360
 1065BOLB   C4B25548  23.517  17.625  18.393 -0.0840 -0.0403 -0.1813
 1065BOLB   NC225549  25.600  18.505  20.020 -0.0987  0.1302  0.2197
 1065BOLB   PO225550  25.588  18.810  19.705  0.0403  0.3201 -0.2095
 1065BOLB   GL325551  25.211  18.618  19.555  0.0004 -0.0844  0.1436
 1065BOLB   GL425552  25.213  18.395  19.363 -0.0546 -0.1684  0.0558
 1065BOLB   C1C25553  24.735  18.528  19.457 -0.2599  0.2059  0.3316
 1065BOLB   C2C25554  24.362  18.337  19.144 -0.1756 -0.0207 -0.2072
 1065BOLB   C3C25555  24.378  18.154  18.676 -0.0217 -0.0414  0.1288
 1065BOLB   C4C25556  23.988  17.817  18.495  0.3762 -0.1063 -0.2586
 1065BOLB   C1D25557  24.964  18.018  19.427 -0.0380 -0.0112  0.0025
 1065BOLB   C2D25558  24.781  17.665  19.703 -0.2633 -0.4444 -0.1304
 1065BOLB   C3D25559  24.470  17.310  19.567  0.0366 -0.0259 -0.1587
 1065BOLB   C4D25560  24.214  16.973  19.650  0.1627 -0.1426  0.0718
 1066BOLB   NC125561   9.692   8.076  20.169 -0.0474  0.0601 -0.1248
 1066BOLB   PO125562   9.542   8.431  20.372 -0.1616  0.3595 -0.0161
 1066BOLB   GL125563   9.216   8.328  20.642 -0.1981 -0.0750  0.0012
 1066BOLB   GL225564   9.259   8.015  20.652 -0.0556  0.0426 -0.1292
 1066BOLB   C1A25565   8.754   8.183  20.748 -0.1061  0.3226 -0.1587
 1066BOLB   C2A25566   8.466   8.432  20.798  0.1164 -0.0258  0.1507
 1066BOLB   C3A25567   8.152   8.677  20.816  0.2902  0.0375 -0.0020
 1066BOLB   C4A25568   7.716   8.630  20.845  0.0447  0.0390 -0.0287
 1066BOLB   C1B25569   9.094   7.971  21.023 -0.1075 -0.1553 -0.3102
 1066BOLB   C2B25570   8.887   7.825  21.370 -0.0322  0.3021 -0.1523
 1066BOLB   C3B25571   8.499   7.745  21.539  0.0687 -0.2066  0.1629
 1066BOLB   C4B25572   8.202   8.113  21.606 -0.1709 -0.1196  0.0670
 1066BOLB   NC225573   5.819   7.781  22.183  0.0182 -0.6688 -0.1505
 1066BOLB   PO225574   6.027   7.351  22.427 -0.0371  0.0963  0.0285
 1066BOLB   GL325575   6.313   7.569  22.084 -0.0169 -0.2100  0.0968
 1066BOLB   GL425576   6.292   7.906  21.994  0.2096 -0.2142 -0.2622
 1066BOLB   C1C25577   6.709   7.642  21.815 -0.0486 -0.1410 -0.1649
 1066BOLB   C2C25578   6.980   7.965  21.546  0.0432  0.0076 -0.2251
 1066BOLB   C3C25579   7.179   8.226  21.197  0.0668  0.0279 -0.0568
 1066BOLB   C4C25580   7.480   8.401  21.046  0.2530 -0.2098  0.2190
 1066BOLB   C1D25581   6.592   8.061  22.065  0.2498  0.1532  0.0314
 1066BOLB   C2D25582   6.994   7.938  22.086 -0.0223  0.0678  0.0828
 1066BOLB   C3D25583   7.342   7.772  21.949  0.1996 -0.1984 -0.1041
 1066BOLB   C4D25584   7.673   7.562  21.780  0.0905  0.0208 -0.1138
 1067BOLB   NC125585   7.824  18.758  18.510  0.4777  0.1212 -0.0234
 1067BOLB   PO125586   7.627  18.481  18.763  0.1354 -0.1744  0.0263
 1067BOLB   GL125587   7.877  18.228  18.900 -0.2335  0.1252 -0.0007
 1067BOLB   GL225588   7.885  17.967  18.668  0.0319 -0.0548  0.1052
 1067BOLB   C1A25589   7.971  17.958  19.145 -0.1241 -0.0120  0.1018
 1067BOLB   C2A25590   8.009  17.483  19.257  0.0682 -0.0387 -0.0476
 1067BOLB   C3A25591   8.049  17.067  19.495  0.3968  0.0363 -0.2266
 1067BOLB   C4A25592   7.964  16.677  19.277  0.2770 -0.1374 -0.1809
 1067BOLB   C1B25593   7.775  18.058  18.276  0.2014  0.2956 -0.0782
 1067BOLB   C2B25594   8.074  17.974  17.945 -0.1071  0.1486  0.0655
 1067BOLB   C3B25595   8.356  18.040  17.572 -0.0540  0.1412 -0.1573
 1067BOLB   C4B25596   8.517  18.035  17.146 -0.1610 -0.1164 -0.1334
 1067BOLB   NC225597   6.013  15.818  19.294  0.2399  0.0731  0.0872
 1067BOLB   PO225598   6.094  16.261  19.062  0.2448 -0.1084 -0.1615
 1067BOLB   GL325599   6.452  16.026  19.037 -0.3680  0.1128  0.4990
 1067BOLB   GL425600   6.714  16.286  19.043  0.1474 -0.3120 -0.2920
 1067BOLB   C1C25601   6.855  15.742  19.131  0.1784 -0.4335  0.0840
 1067BOLB   C2C25602   7.252  15.839  19.117  0.4254  0.5185 -0.0462
 1067BOLB   C3C25603   7.634  15.965  18.993  0.2403  0.3964 -0.2659
 1067BOLB   C4C25604   8.006  16.302  19.068 -0.1629  0.3315 -0.2731
 1067BOLB   C1D25605   7.059  16.575  18.883 -0.1222  0.1786 -0.0688
 1067BOLB   C2D25606   7.223  16.936  18.707  0.0405  0.1324  0.2548
 1067BOLB   C3D25607   7.061  17.156  18.377  0.2150  0.1122 -0.0832
 1067BOLB   C4D25608   7.175  17.632  18.390  0.0253 -0.1144  0.0801
 1068BOLB   NC125609  16.069   4.266  26.578 -0.0232  0.2570 -0.0616
 1068BOLB   PO125610  16.378   4.471  26.424 -0.0487  0.1195  0.2070
 1068BOLB   GL125611  16.457   4.731  26.053 -0.0217 -0.4994  0.1710
 1068BOLB   GL225612  16.668   4.707  25.762  0.2176  0.2210 -0.2209
 1068BOLB   C1A25613  16.436   5.124  25.841  0.0976 -0.0407 -0.0204
 1068BOLB   C2A25614  16.437   5.291  25.373  0.0494 -0.0239 -0.1452
 1068BOLB   C3A25615  16.390   5.368  24.960 -0.0724 -0.1292  0.0069
 1068BOLB   C4A25616  16.254   5.559  24.591 -0.1800 -0.3544 -0.0399
 1068BOLB   C1B25617  16.758   4.926  25.314 -0.1413 -0.1370  0.0830
 1068BOLB   C2B25618  16.930   5.225  24.989 -0.2508 -0.1025  0.1064
 1068BOLB   C3B25619  16.892   5.424  24.569  0.3262  0.1263 -0.2374
 1068BOLB   C4B25620  16.794   5.647  24.130  0.1438  0.1011  0.2075
 1068BOLB   NC225621  16.357   7.008  22.219  0.1496 -0.0641  0.0400
 1068BOLB   PO225622  16.546   7.058  22.705  0.2327 -0.1828 -0.3003
 1068BOLB   GL325623  16.555   7.081  23.192  0.0791  0.0199 -0.0783
 1068BOLB   GL425624  16.407   7.307  23.388 -0.0929  0.1824 -0.1205
 1068BOLB   C1C25625  16.344   6.702  23.515  0.0443  0.1444 -0.0632
 1068BOLB   C2C25626  16.204   6.347  23.735 -0.1849 -0.2194 -0.0823
 1068BOLB   C3C25627  15.988   6.187  24.179 -0.3215 -0.1251 -0.0611
 1068BOLB   C4C25628  16.024   5.806  24.363  0.0895 -0.1176  0.1436
 1068BOLB   C1D25629  16.399   7.163  23.769 -0.1314 -0.0004 -0.0231
 1068BOLB   C2D25630  16.437   6.857  24.096  0.0163 -0.0883 -0.2308
 1068BOLB   C3D25631  16.498   6.497  24.277 -0.1552 -0.0241  0.1056
 1068BOLB   C4D25632  16.465   6.046  24.125 -0.5043 -0.1667  0.1655
 1069BOLB   NC125633  22.900  21.410  18.437 -0.3729 -0.0106 -0.2393
 1069BOLB   PO125634  23.230  21.161  18.188  0.2845 -0.1479  0.0312
 1069BOLB   GL125635  23.208  20.714  18.251  0.2933 -0.1856 -0.0427
 1069BOLB   GL225636  22.859  20.507  18.260 -0.0910 -0.1979  0.4405
 1069BOLB   C1A25637  23.307  20.261  18.307 -0.2044 -0.4793 -0.0999
 1069BOLB   C2A25638  23.418  19.939  18.067  0.2538  0.0102 -0.1389
 1069BOLB   C3A25639  23.272  19.926  17.672 -0.0879  0.3060  0.1859
 1069BOLB   C4A25640  22.954  19.794  17.305 -0.1277 -0.0655  0.0838
 1069BOLB   C1B25641  22.579  20.527  17.942  0.2250 -0.0564 -0.1502
 1069BOLB   C2B25642  22.636  20.105  17.632  0.0469 -0.1759  0.0334
 1069BOLB   C3B25643  22.632  19.639  17.663  0.1704  0.0922  0.0103
 1069BOLB   C4B25644  22.405  19.327  17.707  0.1884  0.2401 -0.0503
 1069BOLB   NC225645  23.105  20.857  15.871  0.1005 -0.4479  0.2387
 1069BOLB   PO225646  22.741  20.899  16.209  0.4535 -0.0654  0.3356
 1069BOLB   GL325647  22.646  20.648  15.953 -0.1416  0.1100 -0.2170
 1069BOLB   GL425648  22.622  20.441  15.604 -0.0420 -0.2425  0.2101
 1069BOLB   C1C25649  22.593  20.193  16.088  0.0263  0.2158  0.1668
 1069BOLB   C2C25650  22.589  19.756  16.289  0.1265 -0.4487  0.0989
 1069BOLB   C3C25651  22.489  19.562  16.595 -0.1965 -0.0426 -0.3288
 1069BOLB   C4C25652  22.745  19.666  16.911 -0.0151 -0.0035  0.0425
 1069BOLB   C1D25653  22.263  20.249  15.728  0.4233  0.2197  0.2228
 1069BOLB   C2D25654  21.919  20.268  16.049  0.2550 -0.0299 -0.0263
 1069BOLB   C3D25655  21.867  20.598  16.276  0.3127  0.2935  0.2067
 1069BOLB   C4D25656  21.839  21.059  16.388  0.0972 -0.0019  0.0854
 1070BOLB   NC125657  23.319  13.321  17.170  0.0991 -0.0403 -0.1367
 1070BOLB   PO125658  23.791  13.530  17.223 -0.2133  0.2062  0.1536
 1070BOLB   GL125659  24.171  13.467  17.256  0.1604  0.1692 -0.0549
 1070BOLB   GL225660  24.379  13.630  17.078  0.1570 -0.1525  0.1841
 1070BOLB   C1A25661  24.553  13.218  17.294 -0.0411  0.3178 -0.0759
 1070BOLB   C2A25662  24.916  13.269  17.490  0.0264 -0.2085 -0.3801
 1070BOLB   C3A25663  25.195  13.500  17.791 -0.0817  0.1487  0.3884
 1070BOLB   C4A25664  25.496  13.461  18.096  0.3535  0.0943 -0.0045
 1070BOLB   C1B25665  24.773  13.701  17.215  0.2439 -0.0577  0.0127
 1070BOLB   C2B25666  25.184  13.829  17.391 -0.2594  0.3938 -0.0170
 1070BOLB   C3B25667  25.562  13.678  17.485 -0.1247 -0.2557  0.0540
 1070BOLB   C4B25668  25.985  13.590  17.592  0.1270 -0.0037  0.0365
 1070BOLB   NC225669  27.788  13.920  18.197 -0.0836 -0.2788 -0.3522
 1070BOLB   PO225670  27.898  13.582  18.251 -0.3226  0.1076 -0.0149
 1070BOLB   GL325671  27.517  13.500  18.203  0.2831  0.1290 -0.0258
 1070BOLB   GL425672  27.522  13.238  18.068  0.1837 -0.1520  0.2896
 1070BOLB   C1C25673  27.190  13.621  18.430  0.2783 -0.0159 -0.0253
 1070BOLB   C2C25674  26.805  13.525  18.375 -0.2067 -0.2407 -0.2466
 1070BOLB   C3C25675  26.385  13.544  18.283  0.0781 -0.1674  0.4776
 1070BOLB   C4C25676  25.931  13.507  18.118  0.0771  0.0847 -0.1088
 1070BOLB   C1D25677  27.128  13.344  17.773 -0.2284 -0.1758  0.0705
 1070BOLB   C2D25678  26.754  13.415  17.590 -0.1125 -0.1741  0.0862
 1070BOLB   C3D25679  26.314  13.309  17.357 -0.3120 -0.0518  0.0093
 1070BOLB   C4D25680  25.800  13.345  17.160 -0.0410 -0.1375 -0.4735
 1071BOLB   NC125681   5.850  12.093   4.566  0.1787  0.0351  0.2082
 1071BOLB   PO125682   6.229  11.896   4.367 -0.0739 -0.1740  0.2459
 1071BOLB   GL125683   6.235  11.843   4.878 -0.0326  0.1014 -0.0395
 1071BOLB   GL225684   6.310  12.138   4.954  0.1170 -0.0785  0.1866
 1071BOLB   C1A25685   6.499  11.727   5.193 -0.0174 -0.1803 -0.4102
 1071BOLB   C2A25686   6.777  11.483   5.463  0.2158  0.0059  0.2622
 1071BOLB   C3A25687   7.101  11.126   5.517 -0.0722  0.4694 -0.1254
 1071BOLB   C4A25688   7.170  10.853   5.199  0.0060 -0.3136  0.0428
 1071BOLB   C1B25689   6.120  12.355   5.356 -0.0831  0.0792  0.3472
 1071BOLB   C2B25690   6.281  12.474   5.660  0.6955  0.0712 -0.1557
 1071BOLB   C3B25691   6.310  12.754   5.986  0.0895 -0.0098 -0.1418
 1071BOLB   C4B25692   6.551  13.148   5.842 -0.3205  0.3823  0.1523
 1071BOLB   NC225693   6.424   9.451   3.438  0.1217 -0.1530  0.1302
 1071BOLB   PO225694   6.232   9.834   3.624  0.0461  0.0390 -0.1678
 1071BOLB   GL325695   6.553  10.025   3.877 -0.0178 -0.1626 -0.4122
 1071BOLB   GL425696   6.849  10.163   3.736 -0.1642  0.0793  0.0784
 1071BOLB   C1C25697   6.910   9.818   4.154 -0.1155  0.1443  0.1535
 1071BOLB   C2C25698   7.187   9.899   4.572  0.0246  0.0276 -0.1303
 1071BOLB   C3C25699   7.077  10.170   4.929  0.0305 -0.0597  0.0009
 1071BOLB   C4C25700   7.266  10.394   5.239 -0.0500  0.1768  0.0245
 1071BOLB   C1D25701   7.319  10.089   3.874  0.0868 -0.2570  0.0738
 1071BOLB   C2D25702   7.589   9.902   4.235  0.2774  0.3947 -0.1852
 1071BOLB   C3D25703   7.916   9.552   4.413  0.0575 -0.1927 -0.1236
 1071BOLB   C4D25704   8.263   9.198   4.416 -0.1476  0.0699 -0.2504
 1072BOLB   NC125705   1.189   9.193  15.697  0.0878 -0.0331  0.2071
 1072BOLB   PO125706   1.603   9.321  15.727 -0.2450  0.0125  0.0108
 1072BOLB   GL125707   1.957   9.059  15.598  0.0609 -0.1404 -0.3753
 1072BOLB   GL225708   1.936   9.335  15.282 -0.0437  0.1994 -0.2335
 1072BOLB   C1A25709   1.950   8.832  15.253 -0.0674 -0.2614  0.0806
 1072BOLB   C2A25710   1.934   8.354  15.208  0.1906  0.2581  0.3087
 1072BOLB   C3A25711   2.086   7.998  15.370  0.0931  0.3284  0.1680
 1072BOLB   C4A25712   2.154   7.570  15.377  0.1196 -0.2086  0.0057
 1072BOLB   C1B25713   2.335   9.320  15.254 -0.0690  0.0192 -0.1461
 1072BOLB   C2B25714   2.797   9.326  15.192  0.2836 -0.0149 -0.2170
 1072BOLB   C3B25715   3.208   9.111  15.043  0.1269 -0.0779  0.2290
 1072BOLB   C4B25716   3.638   9.190  14.860  0.1196 -0.1589  0.0872
 1072BOLB   NC225717   1.814   6.818  17.326 -0.0847 -0.3009  0.0001
 1072BOLB   PO225718   1.432   6.511  17.152 -0.4178 -0.5166  0.0629
 1072BOLB   GL325719   1.667   6.421  16.711  0.1298  0.2471 -0.0723
 1072BOLB   GL425720   1.859   6.026  16.741 -0.0518 -0.2730 -0.0552
 1072BOLB   C1C25721   1.840   6.311  16.294  0.2319  0.1171 -0.0982
 1072BOLB   C2C25722   2.001   6.363  15.853 -0.0354 -0.1790 -0.1248
 1072BOLB   C3C25723   2.095   6.670  15.606 -0.0697  0.1352 -0.0584
 1072BOLB   C4C25724   2.262   7.206  15.540 -0.2334 -0.0844  0.0193
 1072BOLB   C1D25725   1.991   5.738  16.337 -0.1458  0.0039  0.1164
 1072BOLB   C2D25726   2.423   5.606  16.238 -0.0785  0.1037  0.2545
 1072BOLB   C3D25727   2.818   5.528  16.362  0.3493 -0.3200  0.0389
 1072BOLB   C4D25728   3.122   5.363  16.562 -0.1531  0.4368  0.1282
 1073BOLB   NC125729   8.856  10.839  18.832 -0.2500  0.1261 -0.0852
 1073BOLB   PO125730   8.796  10.390  18.797  0.1335  0.1675 -0.3070
 1073BOLB   GL125731   8.529  10.416  19.109 -0.0732  0.1100 -0.1660
 1073BOLB   GL225732   8.119  10.373  18.987 -0.0999  0.0927 -0.1679
 1073BOLB   C1A25733   8.256  10.521  19.404  0.0214 -0.1490  0.0723
 1073BOLB   C2A25734   7.952  10.453  19.562  0.2218  0.4495  0.0394
 1073BOLB   C3A25735   7.599  10.208  19.643  0.0295  0.3493  0.3030
 1073BOLB   C4A25736   7.135  10.168  19.672 -0.0131 -0.2110  0.1335
 1073BOLB   C1B25737   7.805  10.512  19.126  0.0344 -0.0823  0.0927
 1073BOLB   C2B25738   7.354  10.516  19.252 -0.3081 -0.0822  0.0364
 1073BOLB   C3B25739   7.289  10.692  19.619 -0.0755  0.1028 -0.2509
 1073BOLB   C4B25740   7.465  11.093  19.887  0.0094  0.3062 -0.1063
 1073BOLB   NC225741   4.820   9.329  20.548 -0.4958  0.0925  0.0057
 1073BOLB   PO225742   4.851   9.657  20.223 -0.1139 -0.0244 -0.1242
 1073BOLB   GL325743   5.291   9.721  20.070 -0.0323  0.0166  0.1048
 1073BOLB   GL425744   5.312  10.002  20.080 -0.1460  0.2312  0.0711
 1073BOLB   C1C25745   5.626   9.477  19.935  0.0033 -0.2054 -0.0384
 1073BOLB   C2C25746   6.042   9.578  19.755  0.1775 -0.1629 -0.0149
 1073BOLB   C3C25747   6.440   9.812  19.676  0.0974 -0.4116  0.1506
 1073BOLB   C4C25748   6.785   9.997  19.539 -0.4802 -0.0854 -0.0290
 1073BOLB   C1D25749   5.597  10.171  19.871  0.2772  0.2595  0.0911
 1073BOLB   C2D25750   5.757  10.570  19.649 -0.1854  0.4107 -0.0419
 1073BOLB   C3D25751   5.935  10.837  19.327  0.0051 -0.1503 -0.0290
 1073BOLB   C4D25752   5.782  11.265  19.333  0.0756 -0.1363 -0.0634
 1074BOLB   NC125753  14.725  17.660  19.342  0.2877 -0.1418  0.0486
 1074BOLB   PO125754  14.970  17.951  19.542  0.1570 -0.1177  0.0922
 1074BOLB   GL125755  15.030  18.167  19.903  0.4068 -0.1290  0.2787
 1074BOLB   GL225756  14.892  18.068  20.173  0.3477  0.4413 -0.0640
 1074BOLB   C1A25757  15.099  18.583  20.063  0.2726 -0.1555 -0.0650
 1074BOLB   C2A25758  15.015  18.793  20.400  0.2937 -0.3479  0.0300
 1074BOLB   C3A25759  15.193  19.068  20.647 -0.0849  0.1617  0.2053
 1074BOLB   C4A25760  15.233  19.124  21.160  0.1972  0.3838  0.2527
 1074BOLB   C1B25761  14.773  18.329  20.371 -0.0748 -0.1963  0.3937
 1074BOLB   C2B25762  14.702  18.553  20.704  0.0085 -0.0119 -0.4088
 1074BOLB   C3B25763  14.746  18.885  20.847 -0.4846 -0.0348 -0.1221
 1074BOLB   C4B25764  14.884  19.387  20.907  0.3406  0.2131  0.2296
 1074BOLB   NC225765  14.963  21.122  22.510 -0.2945 -0.2577  0.0594
 1074BOLB   PO225766  14.626  20.886  22.651 -0.2193 -0.0789 -0.0091
 1074BOLB   GL325767  14.578  20.372  22.701 -0.0870  0.1101 -0.1136
 1074BOLB   GL425768  14.798  20.226  22.938  0.0216  0.1051 -0.0207
 1074BOLB   C1C25769  14.558  19.943  22.578 -0.2174  0.0571 -0.2339
 1074BOLB   C2C25770  14.954  19.797  22.252  0.2512 -0.0071  0.2171
 1074BOLB   C3C25771  14.905  19.517  21.883  0.0517 -0.0364  0.0439
 1074BOLB   C4C25772  15.210  19.442  21.545  0.2069  0.2524 -0.4026
 1074BOLB   C1D25773  15.127  20.159  22.638 -0.3140 -0.0586  0.2254
 1074BOLB   C2D25774  15.159  20.241  22.133  0.1468 -0.0560  0.2775
 1074BOLB   C3D25775  15.262  20.237  21.708  0.0040  0.0169  0.0482
 1074BOLB   C4D25776  15.172  20.044  21.393 -0.3077  0.0328 -0.0918
 1075BOLB   NC125777  18.948   7.596  26.942 -0.1032  0.0048  0.0390
 1075BOLB   PO125778  19.265   7.307  26.848 -0.0617 -0.3652 -0.1597
 1075BOLB   GL125779  19.327   7.635  26.473 -0.1850  0.2922  0.1692
 1075BOLB   GL225780  18.916   7.662  26.420  0.0558  0.2474 -0.0890
 1075BOLB   C1A25781  19.358   7.450  26.079 -0.2646  0.0055 -0.0838
 1075BOLB   C2A25782  19.562   7.489  25.672 -0.1217 -0.0866 -0.0850
 1075BOLB   C3A25783  19.553   7.660  25.279 -0.1989 -0.1183  0.2443
 1075BOLB   C4A25784  19.853   7.802  24.924 -0.3909 -0.0319 -0.1680
 1075BOLB   C1B25785  19.000   7.828  26.035  0.1148  0.1930 -0.1237
 1075BOLB   C2B25786  19.223   7.872  25.730  0.0151 -0.2228 -0.1424
 1075BOLB   C3B25787  19.333   8.096  25.295 -0.1880 -0.0355 -0.3028
 1075BOLB   C4B25788  19.251   8.464  25.101  0.2540 -0.6716 -0.0492
 1075BOLB   NC225789  20.944   6.972  26.252  0.0955 -0.3390  0.3582
 1075BOLB   PO225790  20.581   7.219  26.201  0.1313 -0.1890 -0.0274
 1075BOLB   GL325791  20.834   7.322  25.897 -0.1284 -0.2399 -0.0518
 1075BOLB   GL425792  21.101   7.370  25.997  0.0640  0.2190 -0.2316
 1075BOLB   C1C25793  20.920   7.649  25.634  0.2744  0.0579  0.1176
 1075BOLB   C2C25794  20.712   7.614  25.346 -0.1299  0.2554 -0.0603
 1075BOLB   C3C25795  20.488   7.605  25.094 -0.0971 -0.0384 -0.0489
 1075BOLB   C4C25796  20.278   7.840  24.924 -0.0652  0.0720 -0.1347
 1075BOLB   C1D25797  21.315   7.828  25.905 -0.0643  0.1324 -0.0770
 1075BOLB   C2D25798  21.335   7.980  25.550  0.1970  0.6413 -0.1299
 1075BOLB   C3D25799  21.385   8.073  25.196 -0.2576 -0.2156 -0.0076
 1075BOLB   C4D25800  21.422   8.130  24.845  0.2314 -0.1403 -0.0597
 1076BOLB   NC125801  20.537   4.231  18.675  0.1324 -0.1322 -0.1287
 1076BOLB   PO125802  20.190   3.887  18.727 -0.0359 -0.0084 -0.1238
 1076BOLB   GL125803  20.416   3.591  19.027  0.1644 -0.2657 -0.1731
 1076BOLB   GL225804  20.180   3.476  19.195  0.2198  0.2384 -0.0108
 1076BOLB   C1A25805  20.779   3.614  19.240 -0.1365 -0.1213  0.2027
 1076BOLB   C2A25806  20.970   3.243  19.463  0.2487 -0.0895  0.0223
 1076BOLB   C3A25807  21.331   2.944  19.383  0.1392  0.2657 -0.1567
 1076BOLB   C4A25808  21.555   2.567  19.602  0.1369 -0.0621 -0.0785
 1076BOLB   C1B25809  20.506   3.214  19.367 -0.0625  0.0800 -0.1307
 1076BOLB   C2B25810  20.686   2.865  19.534  0.3293 -0.4655  0.0147
 1076BOLB   C3B25811  20.951   2.616  19.634 -0.1243 -0.4523  0.6871
 1076BOLB   C4B25812  21.315   2.190  19.821 -0.2041 -0.2305 -0.0865
 1076BOLB   NC225813  23.149   0.665  20.487  0.2926  0.0400  0.0607
 1076BOLB   PO225814  22.814   1.031  20.531  0.0851  0.3594  0.4188
 1076BOLB   GL325815  22.645   1.329  20.351  0.0496  0.0377 -0.0609
 1076BOLB   GL425816  22.503   1.210  20.128 -0.0754  0.4554 -0.0691
 1076BOLB   C1C25817  22.599   1.722  20.129 -0.0652 -0.3469 -0.2456
 1076BOLB   C2C25818  22.108   1.779  20.061  0.0809 -0.0158 -0.0877
 1076BOLB   C3C25819  21.870   2.207  20.069 -0.1028  0.0619 -0.1747
 1076BOLB   C4C25820  21.799   2.512  19.844 -0.0403  0.1339 -0.0718
 1076BOLB   C1D25821  22.630   1.246  19.784 -0.0749 -0.0853  0.1145
 1076BOLB   C2D25822  22.546   1.362  19.478  0.2866 -0.1267  0.0293
 1076BOLB   C3D25823  22.527   1.623  19.055  0.3122  0.2738 -0.3986
 1076BOLB   C4D25824  22.789   2.093  18.910  0.1758 -0.0354  0.0685
 1077BOLB   NC125825   7.725   8.647   2.705  0.1937  0.1441 -0.2564
 1077BOLB   PO125826   7.589   9.079   2.827  0.1110 -0.0050 -0.0627
 1077BOLB   GL125827   7.785   9.030   3.156  0.0483  0.2431  0.0632
 1077BOLB   GL225828   7.981   8.759   3.128 -0.0006 -0.1257 -0.0266
 1077BOLB   C1A25829   7.803   9.020   3.594  0.1841 -0.1551 -0.1893
 1077BOLB   C2A25830   8.036   9.038   3.975  0.0569  0.0764  0.2442
 1077BOLB   C3A25831   8.382   8.938   3.965 -0.1369  0.3953 -0.1491
 1077BOLB   C4A25832   8.653   9.282   4.000 -0.1480 -0.0980  0.1048
 1077BOLB   C1B25833   8.111   8.482   3.357  0.0695  0.0623 -0.0935
 1077BOLB   C2B25834   8.111   8.576   3.807  0.0346 -0.1789  0.1115
 1077BOLB   C3B25835   8.112   8.580   4.292 -0.0899  0.0085  0.2393
 1077BOLB   C4B25836   8.351   8.581   4.620 -0.3322 -0.0260  0.2359
 1077BOLB   NC225837   7.530   9.386   2.382  0.1406 -0.4177 -0.2713
 1077BOLB   PO225838   7.647   9.744   2.526 -0.2841  0.1356 -0.1867
 1077BOLB   GL325839   7.787  10.030   2.850 -0.2567 -0.3717 -0.0261
 1077BOLB   GL425840   7.523  10.076   2.932 -0.1805  0.1138  0.4015
 1077BOLB   C1C25841   8.040  10.076   3.263  0.1704 -0.0713  0.3826
 1077BOLB   C2C25842   8.322   9.996   3.551  0.2116  0.3654  0.1354
 1077BOLB   C3C25843   8.679  10.003   3.618  0.2115 -0.0645  0.0787
 1077BOLB   C4C25844   8.810   9.630   3.937 -0.1178  0.1647  0.1932
 1077BOLB   C1D25845   7.516   9.932   3.388 -0.0339 -0.0200  0.0387
 1077BOLB   C2D25846   7.788   9.836   3.766 -0.1290  0.0496 -0.2110
 1077BOLB   C3D25847   7.977  10.038   4.018 -0.1214 -0.2535  0.2783
 1077BOLB   C4D25848   8.184  10.191   4.337  0.0795 -0.0879  0.0899
 1078BOLB   NC125849  20.715  13.622  10.589  0.0452 -0.0051  0.0370
 1078BOLB   PO125850  21.085  13.488  10.348  0.1873 -0.2975  0.1969
 1078BOLB   GL125851  21.199  13.724  10.011 -0.0373 -0.0190 -0.2699
 1078BOLB   GL225852  21.647  13.851   9.958  0.1836  0.0314  0.1207
 1078BOLB   C1A25853  20.939  14.028   9.625 -0.0178  0.1054  0.0590
 1078BOLB   C2A25854  20.960  14.281   9.204  0.3595 -0.1631  0.0364
 1078BOLB   C3A25855  21.041  14.642   8.985 -0.0784  0.2138  0.0303
 1078BOLB   C4A25856  21.045  14.942   8.580  0.0388 -0.1123  0.0063
 1078BOLB   C1B25857  21.906  13.860   9.660  0.3166 -0.0889 -0.2329
 1078BOLB   C2B25858  21.883  13.855   9.216  0.1010 -0.1705  0.0505
 1078BOLB   C3B25859  21.637  13.667   8.883 -0.0415  0.1628  0.0095
 1078BOLB   C4B25860  21.659  13.231   8.633 -0.1792 -0.0680 -0.2508
 1078BOLB   NC225861  22.072  16.758   6.994 -0.1369  0.0881 -0.0160
 1078BOLB   PO225862  22.155  17.003   7.444  0.0391 -0.0840  0.2130
 1078BOLB   GL325863  21.884  16.562   7.409 -0.0443 -0.0179  0.2675
 1078BOLB   GL425864  21.675  16.809   7.630 -0.1166  0.2098 -0.1217
 1078BOLB   C1C25865  21.548  16.262   7.601 -0.0321  0.1455  0.1349
 1078BOLB   C2C25866  21.312  15.928   7.892  0.3123  0.1079  0.0330
 1078BOLB   C3C25867  21.247  15.548   8.050  0.2873  0.3768  0.1066
 1078BOLB   C4C25868  20.944  15.348   8.270  0.0356  0.1621 -0.0285
 1078BOLB   C1D25869  21.733  16.586   7.999  0.1375 -0.1862 -0.2506
 1078BOLB   C2D25870  22.133  16.559   8.321  0.2574  0.1913  0.2657
 1078BOLB   C3D25871  22.231  16.722   8.620 -0.2653 -0.0366 -0.0330
 1078BOLB   C4D25872  22.046  17.198   8.466 -0.1507  0.1462 -0.0131
 1079BOLB   NC125873  14.783   2.836  15.599 -0.0387  0.2508 -0.3449
 1079BOLB   PO125874  14.740   2.514  15.248 -0.1614 -0.4428 -0.3072
 1079BOLB   GL125875  14.606   2.418  14.771 -0.0047  0.0671  0.0370
 1079BOLB   GL225876  14.747   2.112  14.525 -0.1539  0.1095 -0.0242
 1079BOLB   C1A25877  14.250   2.266  14.562 -0.1031  0.3127  0.0942
 1079BOLB   C2A25878  13.911   2.051  14.349  0.0220  0.0008 -0.1235
 1079BOLB   C3A25879  13.624   1.760  14.055 -0.0206 -0.1687 -0.1169
 1079BOLB   C4A25880  13.409   1.681  13.745  0.0967  0.1892 -0.1785
 1079BOLB   C1B25881  14.404   1.831  14.343  0.3401 -0.0677  0.3178
 1079BOLB   C2B25882  14.058   1.497  14.329  0.0135 -0.0494 -0.0587
 1079BOLB   C3B25883  14.118   1.093  14.269 -0.3533  0.1443  0.2303
 1079BOLB   C4B25884  13.746   0.819  14.121  0.1973 -0.2892 -0.3687
 1079BOLB   NC225885  14.286   2.957  14.678  0.0512  0.4108  0.3439
 1079BOLB   PO225886  14.640   3.085  14.352  0.1002  0.1364  0.2149
 1079BOLB   GL325887  14.217   3.021  14.112 -0.1436  0.2190  0.1144
 1079BOLB   GL425888  14.354   3.135  13.821 -0.2310  0.3575 -0.0437
 1079BOLB   C1C25889  14.109   2.604  14.145  0.0325  0.0154  0.1125
 1079BOLB   C2C25890  13.893   2.387  13.901  0.1660  0.0126  0.1153
 1079BOLB   C3C25891  13.830   2.204  13.414 -0.0030 -0.1110 -0.0929
 1079BOLB   C4C25892  13.499   1.865  13.345 -0.0490 -0.1840 -0.1845
 1079BOLB   C1D25893  14.168   2.699  13.581  0.4496  0.0307  0.4123
 1079BOLB   C2D25894  14.031   2.697  13.245 -0.0341  0.3413 -0.2659
 1079BOLB   C3D25895  13.904   2.396  12.914  0.1114  0.0206 -0.1003
 1079BOLB   C4D25896  13.781   1.935  12.949  0.2173  0.3476 -0.0814
 1080BOLB   NC125897  22.174   9.585  26.514 -0.0683 -0.1136 -0.2907
 1080BOLB   PO125898  22.343   9.995  26.352  0.1674 -0.0129 -0.2356
 1080BOLB   GL125899  22.268  10.030  25.971  0.1384 -0.2489  0.1314
 1080BOLB   GL225900  22.331  10.431  26.091  0.0841 -0.2633 -0.2047
 1080BOLB   C1A25901  21.936  10.018  25.703  0.0736  0.3816 -0.0287
 1080BOLB   C2A25902  21.815  10.064  25.262 -0.2868  0.0856  0.1078
 1080BOLB   C3A25903  21.818  10.206  24.754 -0.2655 -0.0571 -0.0745
 1080BOLB   C4A25904  21.773  10.400  24.277 -0.0514 -0.4165  0.0584
 1080BOLB   C1B25905  22.214  10.483  25.657 -0.0216  0.0842 -0.1611
 1080BOLB   C2B25906  22.074  10.579  25.334 -0.1829 -0.0856 -0.1220
 1080BOLB   C3B25907  21.695  10.601  25.088  0.0897 -0.3370  0.0244
 1080BOLB   C4B25908  21.442  10.507  24.677 -0.0022  0.0650  0.0627
 1080BOLB   NC225909  20.700  10.607  22.002  0.0142  0.4681  0.0592
 1080BOLB   PO225910  21.095  10.695  22.204  0.1524  0.0731  0.0606
 1080BOLB   GL325911  21.432  10.832  22.465 -0.2103 -0.0399  0.2069
 1080BOLB   GL425912  21.686  10.705  22.404  0.0651 -0.0711  0.4726
 1080BOLB   C1C25913  21.728  11.083  22.798 -0.1323  0.0920  0.1347
 1080BOLB   C2C25914  21.884  10.991  23.207 -0.3336  0.0407  0.1758
 1080BOLB   C3C25915  22.011  10.680  23.409  0.1086 -0.0138  0.1332
 1080BOLB   C4C25916  21.964  10.502  23.818  0.3358 -0.1520  0.0396
 1080BOLB   C1D25917  22.022  10.668  22.679 -0.0192  0.0665 -0.1031
 1080BOLB   C2D25918  22.285  10.914  22.953  0.0584  0.3178  0.2073
 1080BOLB   C3D25919  22.558  11.216  22.926  0.4492 -0.1387  0.1246
 1080BOLB   C4D25920  22.918  11.412  23.027 -0.0658 -0.0420  0.2298
 1081BOLB   NC125921   9.216  32.079  14.152 -0.1375  0.0671 -0.0376
 1081BOLB   PO125922   8.950  32.464  14.175 -0.1951  0.0871  0.0657
 1081BOLB   GL125923   9.010  32.783  14.238  0.0988 -0.1422 -0.1523
 1081BOLB   GL225924   8.808  33.070  14.078 -0.1484 -0.1176 -0.2734
 1081BOLB   C1A25925   9.283  33.125  14.228  0.0799  0.2036 -0.2624
 1081BOLB   C2A25926   9.384  33.385  13.994  0.0170  0.2414 -0.2884
 1081BOLB   C3A25927   9.671  33.635  14.067  0.2737 -0.0216  0.0633
 1081BOLB   C4A25928   9.760  33.774  14.469 -0.2422 -0.1188  0.0470
 1081BOLB   C1B25929   8.972  33.248  13.737  0.1587  0.1435  0.0807
 1081BOLB   C2B25930   9.182  33.667  13.625 -0.0081  0.1165 -0.2927
 1081BOLB   C3B25931   9.514  33.973  13.742  0.0072  0.0181  0.0773
 1081BOLB   C4B25932   9.861  34.321  13.735 -0.0822  0.0642 -0.2237
 1081BOLB   NC225933   9.440  33.110  16.854  0.2102 -0.1797  0.2490
 1081BOLB   PO225934   9.890  32.991  16.741  0.0632 -0.2019  0.0041
 1081BOLB   GL325935  10.016  33.219  16.396 -0.0307  0.0280  0.1320
 1081BOLB   GL425936  10.210  33.398  16.601 -0.0746 -0.2209  0.0930
 1081BOLB   C1C25937   9.885  33.609  16.183 -0.0356  0.0847 -0.0410
 1081BOLB   C2C25938   9.727  33.714  15.667 -0.0816  0.2575 -0.0912
 1081BOLB   C3C25939   9.562  33.554  15.319  0.1070 -0.1125 -0.2033
 1081BOLB   C4C25940   9.737  33.623  14.808  0.2912 -0.1932 -0.2297
 1081BOLB   C1D25941  10.358  33.686  16.269  0.0426  0.3891 -0.0926
 1081BOLB   C2D25942  10.206  34.052  15.893  0.1294 -0.0045 -0.3186
 1081BOLB   C3D25943  10.150  34.438  15.571  0.2154  0.0594 -0.2585
 1081BOLB   C4D25944   9.947  34.706  15.354 -0.0831 -0.2597  0.1326
 1082BOLB   NC125945   1.222  10.717  13.023 -0.1028  0.0736  0.0420
 1082BOLB   PO125946   1.597  10.823  12.718  0.1211  0.1515 -0.1455
 1082BOLB   GL125947   1.868  10.433  12.809  0.1432 -0.1162  0.1010
 1082BOLB   GL225948   2.088  10.291  12.543  0.0279  0.3703  0.0930
 1082BOLB   C1A25949   1.881   9.953  12.771 -0.1860  0.1453  0.3809
 1082BOLB   C2A25950   1.903   9.500  12.626  0.3333 -0.1038  0.1400
 1082BOLB   C3A25951   1.953   9.099  12.733  0.1260  0.0450 -0.1122
 1082BOLB   C4A25952   2.094   8.681  12.974  0.0711 -0.2565 -0.2329
 1082BOLB   C1B25953   2.420  10.045  12.457  0.0578 -0.0047 -0.1388
 1082BOLB   C2B25954   2.792   9.761  12.538 -0.0742 -0.2011  0.1912
 1082BOLB   C3B25955   3.069   9.552  12.734 -0.1259 -0.0842  0.0699
 1082BOLB   C4B25956   3.088   9.205  12.528  0.2734  0.2598  0.2983
 1082BOLB   NC225957   0.651   7.898  12.363  0.3486  0.0403  0.1836
 1082BOLB   PO225958   0.859   8.147  11.985  0.1300 -0.2167  0.3189
 1082BOLB   GL325959   1.218   8.142  12.173  0.0525  0.0029  0.0554
 1082BOLB   GL425960   1.044   8.097  12.466 -0.0058 -0.4308 -0.0141
 1082BOLB   C1C25961   1.659   8.113  12.328  0.0933 -0.2425  0.2059
 1082BOLB   C2C25962   1.972   8.220  12.271  0.0724 -0.0213 -0.0986
 1082BOLB   C3C25963   2.347   8.183  12.494 -0.1020 -0.3228  0.2337
 1082BOLB   C4C25964   2.352   8.311  12.849  0.2222  0.0096  0.1807
 1082BOLB   C1D25965   1.300   8.377  12.682 -0.2237 -0.0295  0.2400
 1082BOLB   C2D25966   1.618   8.574  12.511 -0.1931  0.1005  0.0007
 1082BOLB   C3D25967   1.710   9.020  12.302 -0.1839 -0.0150 -0.3005
 1082BOLB   C4D25968   1.704   9.404  12.129  0.0367  0.2055  0.3172
 1083BOLB   NC125969   4.786   6.119   6.274 -0.5228  0.0773 -0.2058
 1083BOLB   PO125970   4.548   5.726   6.199  0.3383  0.3147  0.1666
 1083BOLB   GL125971   4.580   5.908   6.690 -0.0411 -0.0913 -0.1806
 1083BOLB   GL225972   4.607   6.244   6.699  0.2704  0.3458  0.0356
 1083BOLB   C1A25973   4.817   5.892   7.039 -0.0135 -0.1409 -0.1149
 1083BOLB   C2A25974   4.934   5.818   7.409  0.0368  0.1456  0.0107
 1083BOLB   C3A25975   4.681   5.585   7.772  0.0320 -0.2533  0.2754
 1083BOLB   C4A25976   4.867   5.535   8.186 -0.0616 -0.0399  0.1910
 1083BOLB   C1B25977   4.827   6.409   7.048  0.0303  0.2348  0.0284
 1083BOLB   C2B25978   5.028   6.451   7.435 -0.2067 -0.1774  0.0613
 1083BOLB   C3B25979   5.483   6.578   7.395  0.2658  0.2805 -0.4079
 1083BOLB   C4B25980   5.953   6.467   7.421 -0.0556  0.2210 -0.0267
 1083BOLB   NC225981   3.487   3.697   8.709 -0.0955  0.0847 -0.1733
 1083BOLB   PO225982   3.872   3.635   8.486 -0.0515  0.1475  0.0486
 1083BOLB   GL325983   3.957   3.914   8.802  0.5523  0.0124 -0.0738
 1083BOLB   GL425984   3.728   3.859   9.108  0.2433  0.1920  0.1621
 1083BOLB   C1C25985   3.912   4.419   9.028  0.4506  0.1604  0.1138
 1083BOLB   C2C25986   4.163   4.797   9.041  0.2421  0.0059 -0.0544
 1083BOLB   C3C25987   4.389   4.969   8.701  0.1249 -0.0072  0.1010
 1083BOLB   C4C25988   4.694   5.291   8.507  0.0514  0.0432  0.0854
 1083BOLB   C1D25989   4.015   4.099   9.399 -0.2654  0.1619  0.0556
 1083BOLB   C2D25990   4.403   4.141   9.509 -0.1474  0.2548 -0.0211
 1083BOLB   C3D25991   4.752   4.166   9.198  0.0309 -0.1286  0.0022
 1083BOLB   C4D25992   4.970   4.148   8.850 -0.2433 -0.4595 -0.0086
 1084BOLB   NC125993  17.606  34.380   4.939  0.0753  0.0286  0.3598
 1084BOLB   PO125994  17.582  34.547   5.398 -0.0051  0.0751  0.2621
 1084BOLB   GL125995  17.411  34.778   5.775 -0.1796  0.1103 -0.0906
 1084BOLB   GL225996  17.487  34.536   5.927 -0.0929 -0.1340 -0.1003
 1084BOLB   C1A25997  17.474  35.043   6.094  0.1121  0.0157 -0.1863
 1084BOLB   C2A25998  17.375  34.922   6.526 -0.0355  0.2297  0.3667
 1084BOLB   C3A25999  17.282  34.893   6.979  0.1161  0.1386  0.1286
 1084BOLB   C4A26000  17.200  35.012   7.356 -0.0420  0.1217 -0.0588
 1084BOLB   C1B26001  17.340  34.460   6.329  0.1970 -0.0312  0.2405
 1084BOLB   C2B26002  17.207  34.447   6.788 -0.0600 -0.1259 -0.1869
 1084BOLB   C3B26003  17.274  34.514   7.339 -0.2489 -0.0100  0.1336
 1084BOLB   C4B26004  17.128  34.281   7.656  0.1580 -0.0502  0.2355
 1084BOLB   NC226005  18.460  33.681   7.343 -0.2192 -0.1943  0.1634
 1084BOLB   PO226006  18.160  33.774   7.598  0.3468  0.0404  0.0650
 1084BOLB   GL326007  18.141  34.077   7.903 -0.1481 -0.0888 -0.0906
 1084BOLB   GL426008  17.966  33.934   8.260 -0.0997  0.0459 -0.0295
 1084BOLB   C1C26009  18.192  34.531   7.914 -0.0227  0.2079  0.4003
 1084BOLB   C2C26010  18.191  35.054   7.987  0.4195 -0.1391 -0.0172
 1084BOLB   C3C26011  17.935  35.417   7.964 -0.0112  0.1227 -0.0601
 1084BOLB   C4C26012  17.535  35.193   7.638  0.0254 -0.2364 -0.1217
 1084BOLB   C1D26013  17.859  34.254   8.416  0.1699  0.0574 -0.0023
 1084BOLB   C2D26014  17.861  34.406   8.811  0.2895  0.0564 -0.0568
 1084BOLB   C3D26015  17.625  34.382   9.185 -0.0079  0.0004 -0.1264
 1084BOLB   C4D26016  17.708  34.512   9.623 -0.3062 -0.2231 -0.0278
 1085BOLB   NC126017   3.261   3.370  19.003  0.1585  0.4414  0.0276
 1085BOLB   PO126018   3.457   2.965  18.831 -0.0101 -0.2215 -0.1342
 1085BOLB   GL126019   3.642   2.942  18.454 -0.0111  0.0316  0.0428
 1085BOLB   GL226020   3.896   2.790  18.514 -0.0253 -0.1530 -0.3316
 1085BOLB   C1A26021   3.740   2.864  17.876  0.0131 -0.1684 -0.2611
 1085BOLB   C2A26022   3.949   2.916  17.505  0.2395  0.3508  0.0876
 1085BOLB   C3A26023   4.325   2.846  17.193  0.0202 -0.0109 -0.0787
 1085BOLB   C4A26024   4.587   2.876  16.805  0.1200 -0.2625 -0.1904
 1085BOLB   C1B26025   4.338   2.660  18.341 -0.0700  0.0361  0.0087
 1085BOLB   C2B26026   4.536   2.704  17.944 -0.2251  0.2379  0.1862
 1085BOLB   C3B26027   4.546   2.875  17.684  0.3621 -0.2946  0.1928
 1085BOLB   C4B26028   4.885   2.766  17.425  0.1692  0.1610  0.5056
 1085BOLB   NC226029   3.734   0.682  16.596  0.3566  0.0236  0.1403
 1085BOLB   PO226030   4.113   0.486  16.726 -0.2347  0.2373 -0.2624
 1085BOLB   GL326031   4.154   0.896  16.652  0.1707  0.0966 -0.0283
 1085BOLB   GL426032   4.495   0.950  16.636  0.4928  0.0065  0.1188
 1085BOLB   C1C26033   4.161   1.395  16.658  0.0814 -0.0789  0.0679
 1085BOLB   C2C26034   4.429   1.753  16.430  0.2115 -0.2989  0.1805
 1085BOLB   C3C26035   4.559   2.234  16.393 -0.0645  0.1614  0.4484
 1085BOLB   C4C26036   4.529   2.693  16.519  0.0483  0.2236 -0.0341
 1085BOLB   C1D26037   4.316   0.939  16.224 -0.1768 -0.2319 -0.1614
 1085BOLB   C2D26038   4.216   1.101  15.760  0.1032  0.1666  0.0278
 1085BOLB   C3D26039   4.205   1.258  15.309 -0.1940  0.0120  0.2060
 1085BOLB   C4D26040   4.143   1.668  15.200 -0.0543  0.0774 -0.0680
 1086BOLB   NC126041  21.510  15.055  20.364  0.0321 -0.1079  0.1835
 1086BOLB   PO126042  21.469  14.652  20.583 -0.0784 -0.0910  0.0683
 1086BOLB   GL126043  21.719  14.935  20.804 -0.0635 -0.0958 -0.2635
 1086BOLB   GL226044  21.681  15.302  20.761  0.1614 -0.3139 -0.0358
 1086BOLB   C1A26045  22.042  15.018  21.251  0.2569 -0.3120 -0.0237
 1086BOLB   C2A26046  22.165  15.197  21.575  0.0110 -0.1091 -0.2667
 1086BOLB   C3A26047  22.397  15.576  21.828 -0.2152  0.1387  0.0768
 1086BOLB   C4A26048  22.741  15.594  21.974 -0.0216  0.1867 -0.1090
 1086BOLB   C1B26049  22.046  15.447  20.957  0.0672 -0.0831  0.0400
 1086BOLB   C2B26050  22.309  15.601  21.307  0.0563  0.0859  0.2601
 1086BOLB   C3B26051  22.661  15.941  21.514 -0.2076  0.2940 -0.2151
 1086BOLB   C4B26052  23.026  15.885  21.602  0.1316  0.1345  0.2663
 1086BOLB   NC226053  23.937  16.474  23.255  0.0012  0.2676  0.2155
 1086BOLB   PO226054  24.361  16.285  23.223  0.0519 -0.4289  0.3094
 1086BOLB   GL326055  24.052  16.027  23.040  0.4953  0.2147 -0.0178
 1086BOLB   GL426056  23.954  15.717  23.054  0.2872 -0.1481 -0.2764
 1086BOLB   C1C26057  23.888  16.124  22.716 -0.3887  0.4194  0.3391
 1086BOLB   C2C26058  23.430  16.365  22.568  0.0431  0.0503  0.0737
 1086BOLB   C3C26059  23.047  16.196  22.483 -0.0361  0.3476  0.0903
 1086BOLB   C4C26060  23.057  15.853  22.176  0.1831 -0.0683 -0.0612
 1086BOLB   C1D26061  23.462  15.632  23.044 -0.1912 -0.3087  0.2813
 1086BOLB   C2D26062  23.084  15.868  22.932 -0.0423 -0.1453 -0.0685
 1086BOLB   C3D26063  22.680  15.868  22.645  0.4025 -0.0838 -0.0448
 1086BOLB   C4D26064  22.386  15.704  22.389 -0.0574  0.1316  0.1583
 1087BOLB   NC126065  16.598  33.253  14.801 -0.3065 -0.0005  0.2370
 1087BOLB   PO126066  16.903  33.423  14.452 -0.3064 -0.2132 -0.1307
 1087BOLB   GL126067  16.818  33.825  14.280  0.2415 -0.2038 -0.1697
 1087BOLB   GL226068  16.755  34.123  14.407 -0.4117 -0.0884  0.1459
 1087BOLB   C1A26069  16.534  34.058  13.896 -0.1431 -0.1308  0.2162
 1087BOLB   C2A26070  16.187  34.271  13.804  0.1141 -0.0227 -0.2082
 1087BOLB   C3A26071  15.768  34.098  13.844  0.2173 -0.0593 -0.3079
 1087BOLB   C4A26072  15.411  34.213  14.038 -0.0121  0.0439  0.0570
 1087BOLB   C1B26073  16.550  34.478  14.215 -0.0237 -0.0991 -0.2475
 1087BOLB   C2B26074  16.362  34.856  14.113  0.0770  0.2230 -0.1777
 1087BOLB   C3B26075  16.025  35.243  14.014  0.0607 -0.0463 -0.0033
 1087BOLB   C4B26076  15.905  35.643  14.059 -0.0611  0.1914  0.0622
 1087BOLB   NC226077  14.764  32.835  15.730  0.0168 -0.0987  0.1257
 1087BOLB   PO226078  14.922  33.124  15.420  0.1014  0.3004  0.2036
 1087BOLB   GL326079  14.679  33.436  15.258 -0.1888 -0.0438  0.1186
 1087BOLB   GL426080  14.752  33.709  15.441 -0.0086  0.2368 -0.1024
 1087BOLB   C1C26081  14.675  33.752  14.922  0.4225  0.2665  0.2351
 1087BOLB   C2C26082  14.687  34.067  14.818  0.0695  0.1075  0.1069
 1087BOLB   C3C26083  14.778  34.377  14.561 -0.0038  0.3078  0.2420
 1087BOLB   C4C26084  15.054  34.467  14.232  0.0737 -0.0962  0.3488
 1087BOLB   C1D26085  14.818  34.170  15.460  0.3142 -0.0084  0.0561
 1087BOLB   C2D26086  14.779  34.478  15.176  0.0755 -0.1458  0.0332
 1087BOLB   C3D26087  14.486  34.693  14.880  0.1004  0.0304  0.0767
 1087BOLB   C4D26088  14.086  34.917  14.740  0.2292 -0.1067 -0.1800
 1088BOLB   NC126089  20.835   9.091  22.715  0.0048 -0.2838  0.0917
 1088BOLB   PO126090  20.440   9.052  22.702 -0.2152  0.1416 -0.0563
 1088BOLB   GL126091  20.416   8.783  23.016  0.2893 -0.1350 -0.2761
 1088BOLB   GL226092  20.394   8.404  23.021 -0.0767 -0.2482  0.0685
 1088BOLB   C1A26093  20.539   8.586  23.465 -0.3269  0.1463 -0.1896
 1088BOLB   C2A26094  20.929   8.442  23.714 -0.5019 -0.2394 -0.3654
 1088BOLB   C3A26095  20.991   8.334  24.088 -0.0824 -0.0658 -0.0293
 1088BOLB   C4A26096  21.168   8.099  24.336 -0.1318  0.2416 -0.0998
 1088BOLB   C1B26097  20.727   8.135  23.289  0.0696  0.2886  0.1112
 1088BOLB   C2B26098  21.075   7.883  23.458 -0.2118 -0.2936  0.0720
 1088BOLB   C3B26099  21.408   7.610  23.697 -0.2142 -0.0336 -0.0871
 1088BOLB   C4B26100  21.554   7.586  24.141  0.1863  0.3347  0.2424
 1088BOLB   NC226101  22.526   7.644  25.754 -0.0052  0.0090 -0.1896
 1088BOLB   PO226102  22.768   7.943  25.658 -0.0761 -0.0538  0.2653
 1088BOLB   GL326103  22.703   8.221  25.378 -0.3954 -0.0546  0.2083
 1088BOLB   GL426104  23.008   8.432  25.494  0.0652  0.2422  0.3178
 1088BOLB   C1C26105  22.410   8.385  24.987  0.1355  0.1427 -0.0040
 1088BOLB   C2C26106  22.360   8.176  24.616  0.2045  0.2477  0.3592
 1088BOLB   C3C26107  21.976   8.040  24.625 -0.0114  0.3693  0.0895
 1088BOLB   C4C26108  21.559   7.984  24.384 -0.0885  0.1239  0.0605
 1088BOLB   C1D26109  22.932   8.639  25.041 -0.0545  0.1834  0.0293
 1088BOLB   C2D26110  22.755   8.521  24.632 -0.0418 -0.0915  0.0148
 1088BOLB   C3D26111  22.797   8.305  24.309 -0.2500 -0.2408  0.0102
 1088BOLB   C4D26112  22.747   8.110  23.948  0.1889  0.0781 -0.0784
 1089BOLB   NC126113  18.139  22.982  17.470 -0.1948 -0.1223 -0.1751
 1089BOLB   PO126114  17.914  22.627  17.429  0.1044 -0.4932 -0.1254
 1089BOLB   GL126115  17.743  22.302  17.333 -0.1354 -0.0087  0.2186
 1089BOLB   GL226116  17.915  22.152  17.052 -0.1392  0.0847  0.1136
 1089BOLB   C1A26117  17.494  21.945  17.488  0.0854  0.2729  0.0611
 1089BOLB   C2A26118  17.171  21.598  17.625  0.2965  0.1349  0.2150
 1089BOLB   C3A26119  16.811  21.461  17.264  0.1042  0.0068 -0.2148
 1089BOLB   C4A26120  16.414  21.457  17.121 -0.2156 -0.1911 -0.2162
 1089BOLB   C1B26121  17.738  21.718  17.043 -0.1675 -0.2384 -0.0102
 1089BOLB   C2B26122  17.691  21.291  17.025  0.1852  0.1564  0.2905
 1089BOLB   C3B26123  17.796  20.801  16.941  0.0534  0.1401 -0.1625
 1089BOLB   C4B26124  18.119  20.470  16.963 -0.1413 -0.1752 -0.1451
 1089BOLB   NC226125  14.619  22.869  15.361 -0.2711  0.2389 -0.3633
 1089BOLB   PO226126  14.918  22.765  15.696 -0.0767  0.3025 -0.3525
 1089BOLB   GL326127  15.038  22.336  15.800  0.1559 -0.0106  0.0281
 1089BOLB   GL426128  15.138  22.155  15.573 -0.0160 -0.3717 -0.1517
 1089BOLB   C1C26129  15.383  22.086  16.071 -0.0281 -0.0299  0.0339
 1089BOLB   C2C26130  15.540  21.686  16.271 -0.0776 -0.0260  0.0790
 1089BOLB   C3C26131  15.681  21.528  16.665  0.0723  0.1948  0.1371
 1089BOLB   C4C26132  16.059  21.537  16.800 -0.0496 -0.1716  0.3657
 1089BOLB   C1D26133  15.229  21.756  15.759 -0.1151 -0.0745  0.0377
 1089BOLB   C2D26134  15.043  21.275  15.878 -0.0453  0.3615  0.0482
 1089BOLB   C3D26135  14.962  20.852  15.865 -0.0873  0.1321 -0.0648
 1089BOLB   C4D26136  14.909  20.506  16.176  0.0056  0.0253  0.1044
 1090BOLB   NC126137  21.037  20.297  10.670  0.2227  0.1824  0.0835
 1090BOLB   PO126138  21.123  20.140  11.070 -0.2584 -0.0738 -0.0643
 1090BOLB   GL126139  20.765  20.023  11.245  0.3607  0.0173 -0.0944
 1090BOLB   GL226140  20.545  20.278  11.340  0.0747  0.1434 -0.2045
 1090BOLB   C1A26141  20.590  19.654  11.452  0.3202 -0.0535 -0.3163
 1090BOLB   C2A26142  20.404  19.431  11.773 -0.2240 -0.0071 -0.0914
 1090BOLB   C3A26143  20.072  19.510  12.034  0.4165 -0.0307  0.3050
 1090BOLB   C4A26144  19.816  19.599  12.492 -0.0586 -0.2109  0.0787
 1090BOLB   C1B26145  20.325  20.017  11.647 -0.1956  0.0503 -0.0484
 1090BOLB   C2B26146  19.901  19.834  11.613  0.0681 -0.0098  0.1540
 1090BOLB   C3B26147  19.575  19.537  11.669  0.1334 -0.1274  0.2290
 1090BOLB   C4B26148  19.475  19.536  12.078  0.0546  0.0323 -0.3830
 1090BOLB   NC226149  19.471  21.126  10.640  0.2480 -0.0925  0.2096
 1090BOLB   PO226150  19.219  21.167  10.977 -0.0708  0.3240 -0.1131
 1090BOLB   GL326151  19.138  20.796  11.174  0.2004  0.2277  0.1876
 1090BOLB   GL426152  18.839  20.513  11.111 -0.2449  0.0209 -0.1280
 1090BOLB   C1C26153  18.951  20.663  11.597  0.3117  0.0561 -0.0633
 1090BOLB   C2C26154  19.020  20.545  11.994 -0.2571  0.1137 -0.2068
 1090BOLB   C3C26155  19.237  20.217  12.207  0.1462 -0.2317  0.0639
 1090BOLB   C4C26156  19.510  19.888  12.489  0.0925  0.1731 -0.1781
 1090BOLB   C1D26157  18.441  20.451  11.137  0.2268  0.1129  0.5594
 1090BOLB   C2D26158  18.198  20.034  10.955  0.0569 -0.0782 -0.4477
 1090BOLB   C3D26159  17.923  19.622  10.981  0.1171  0.1634 -0.2950
 1090BOLB   C4D26160  17.884  19.216  10.920  0.2308  0.0314  0.1449
 1091BOLB   NC126161  23.407  12.107  12.707  0.0435 -0.1284 -0.2030
 1091BOLB   PO126162  23.612  11.823  12.775  0.0203 -0.1328  0.1223
 1091BOLB   GL126163  23.899  12.121  12.554  0.1206 -0.1882 -0.2032
 1091BOLB   GL226164  24.094  11.862  12.425 -0.2606  0.1104 -0.0305
 1091BOLB   C1A26165  24.239  12.409  12.385  0.5080 -0.0446  0.0549
 1091BOLB   C2A26166  24.664  12.486  12.455 -0.1945  0.5046 -0.1254
 1091BOLB   C3A26167  25.033  12.701  12.292  0.2753  0.0456  0.0009
 1091BOLB   C4A26168  25.160  13.084  12.398  0.2277 -0.0389 -0.1239
 1091BOLB   C1B26169  24.534  11.983  12.431  0.0559  0.1857  0.0489
 1091BOLB   C2B26170  24.784  11.942  12.159 -0.0457 -0.0073 -0.1101
 1091BOLB   C3B26171  25.026  11.668  11.836  0.1189 -0.0598  0.2018
 1091BOLB   C4B26172  25.273  11.525  11.559 -0.1389 -0.1682 -0.2736
 1091BOLB   NC226173  27.105  14.622  11.905 -0.0625 -0.2299  0.0487
 1091BOLB   PO226174  27.216  14.231  12.119  0.0489 -0.0831  0.1134
 1091BOLB   GL326175  26.822  13.985  12.084 -0.2327 -0.0427  0.0115
 1091BOLB   GL426176  26.635  14.176  12.295  0.1173  0.1161  0.1514
 1091BOLB   C1C26177  26.402  13.866  11.933 -0.0822 -0.0100 -0.1363
 1091BOLB   C2C26178  25.913  13.769  12.128 -0.1694  0.0402  0.2349
 1091BOLB   C3C26179  25.641  13.764  12.425  0.0944  0.0287  0.2871
 1091BOLB   C4C26180  25.211  13.509  12.442 -0.2091  0.3607 -0.2218
 1091BOLB   C1D26181  26.280  14.194  12.493  0.2403  0.2851  0.1342
 1091BOLB   C2D26182  26.251  14.019  12.893 -0.0457 -0.2184  0.0847
 1091BOLB   C3D26183  26.638  13.849  13.059 -0.1715 -0.1056 -0.1883
 1091BOLB   C4D26184  26.888  13.938  13.526  0.3044 -0.0661 -0.1678
 1092BOLB   NC126185   0.854   7.104  16.451  0.1007 -0.1962  0.0187
 1092BOLB   PO126186   1.165   6.852  16.210  0.1061 -0.1460 -0.0858
 1092BOLB   GL126187   1.622   6.812  16.313 -0.0998 -0.1212  0.1174
 1092BOLB   GL226188   1.816   6.866  15.972 -0.1749  0.0847 -0.1608
 1092BOLB   C1A26189   1.900   6.929  16.551  0.2208 -0.2784  0.2924
 1092BOLB   C2A26190   2.330   6.954  16.528 -0.0050 -0.1730  0.5154
 1092BOLB   C3A26191   2.719   6.928  16.434  0.4572 -0.2439  0.3474
 1092BOLB   C4A26192   3.027   7.077  16.211  0.0599 -0.0103 -0.2498
 1092BOLB   C1B26193   2.236   6.740  16.091 -0.0991  0.0760  0.0841
 1092BOLB   C2B26194   2.487   6.526  16.365 -0.0947  0.0386 -0.1463
 1092BOLB   C3B26195   2.777   6.416  16.670  0.1244  0.0259 -0.2688
 1092BOLB   C4B26196   3.157   6.428  16.853  0.2157 -0.3473  0.2795
 1092BOLB   NC226197   1.331   8.339  16.822  0.0726  0.0970  0.1264
 1092BOLB   PO226198   1.690   8.446  17.092 -0.1063  0.0059 -0.1452
 1092BOLB   GL326199   2.027   8.569  17.010 -0.1500 -0.2311  0.1273
 1092BOLB   GL426200   2.115   8.848  16.651 -0.0187 -0.1434 -0.2013
 1092BOLB   C1C26201   2.518   8.663  16.929 -0.1132 -0.0611  0.0269
 1092BOLB   C2C26202   2.794   8.370  16.482  0.2119 -0.1194  0.0839
 1092BOLB   C3C26203   3.006   7.965  16.236 -0.0806 -0.0842  0.3568
 1092BOLB   C4C26204   2.865   7.585  16.066  0.1974  0.0642  0.1084
 1092BOLB   C1D26205   2.349   8.467  16.461  0.1352 -0.1723  0.3024
 1092BOLB   C2D26206   2.370   8.162  16.734 -0.1476 -0.0073 -0.0108
 1092BOLB   C3D26207   2.657   8.111  17.016  0.1163  0.1359 -0.2172
 1092BOLB   C4D26208   2.911   8.001  17.291  0.1434  0.2891  0.3221
 1093BOLB   NC126209   6.485  33.458  13.860  0.0957 -0.1658  0.0690
 1093BOLB   PO126210   6.851  33.558  13.685 -0.1359 -0.1608  0.0294
 1093BOLB   GL126211   6.936  33.875  13.717  0.1070  0.1793 -0.3317
 1093BOLB   GL226212   6.978  33.980  13.460  0.0267 -0.0095  0.0081
 1093BOLB   C1A26213   6.908  34.259  13.923  0.1580 -0.1254  0.1449
 1093BOLB   C2A26214   6.832  34.731  13.910 -0.2161 -0.2364 -0.1186
 1093BOLB   C3A26215   6.622  35.205  13.712 -0.0285 -0.0017 -0.1672
 1093BOLB   C4A26216   6.589  35.573  13.631  0.0844  0.4169  0.3041
 1093BOLB   C1B26217   6.958  34.433  13.486 -0.0185  0.3181 -0.2367
 1093BOLB   C2B26218   7.279  34.620  13.696  0.2087  0.0449  0.0925
 1093BOLB   C3B26219   7.320  35.080  13.709 -0.1491  0.0018 -0.0077
 1093BOLB   C4B26220   7.021  35.494  13.838  0.1804 -0.0814  0.0593
 1093BOLB   NC226221   5.103  35.181  13.471 -0.0441  0.0432  0.3989
 1093BOLB   PO226222   4.859  35.307  13.180 -0.0927 -0.0627 -0.0151
 1093BOLB   GL326223   5.137  35.584  13.243 -0.0164 -0.4197 -0.1504
 1093BOLB   GL426224   5.188  35.699  13.519 -0.3598  0.1024  0.2194
 1093BOLB   C1C26225   5.425  35.789  13.016  0.0985 -0.0213  0.0277
 1093BOLB   C2C26226   5.717  36.103  13.005 -0.1201  0.0997  0.0067
 1093BOLB   C3C26227   6.083  36.006  13.209 -0.0464 -0.0365 -0.0089
 1093BOLB   C4C26228   6.322  35.876  13.544  0.1362  0.2247  0.0330
 1093BOLB   C1D26229   5.357  36.064  13.466  0.0145  0.0957  0.0921
 1093BOLB   C2D26230   5.625  36.460  13.507  0.0336  0.1454 -0.0569
 1093BOLB   C3D26231   5.783  36.861  13.283  0.2727 -0.1344 -0.2335
 1093BOLB   C4D26232   5.720  37.240  13.024  0.0891  0.2254 -0.2818
 1094BOLB   NC126233   7.307  33.874  10.484 -0.3122  0.1921  0.1391
 1094BOLB   PO126234   6.947  34.083  10.329 -0.1980 -0.2612  0.0767
 1094BOLB   GL126235   7.154  34.286  10.785  0.2372 -0.2721  0.1945
 1094BOLB   GL226236   7.484  34.348  10.628  0.1940 -0.2437  0.2634
 1094BOLB   C1A26237   7.468  34.553  11.079  0.0397  0.0929  0.0008
 1094BOLB   C2A26238   7.593  34.934  11.213  0.2442 -0.1563 -0.2469
 1094BOLB   C3A26239   7.853  35.193  11.485  0.4234  0.1138 -0.2277
 1094BOLB   C4A26240   8.162  35.324  11.781 -0.4229 -0.0528 -0.1351
 1094BOLB   C1B26241   7.472  34.861  10.677  0.0568  0.0306  0.1023
 1094BOLB   C2B26242   7.436  35.271  10.863  0.1702  0.2087  0.2307
 1094BOLB   C3B26243   7.584  35.720  10.837  0.2480 -0.0069 -0.2800
 1094BOLB   C4B26244   7.888  36.049  10.615 -0.1114  0.3633 -0.2635
 1094BOLB   NC226245   6.928  33.177  12.123 -0.0383 -0.0010  0.0605
 1094BOLB   PO226246   7.111  33.536  12.185 -0.3906 -0.0476 -0.3650
 1094BOLB   GL326247   7.505  33.702  12.265  0.0290  0.2371  0.3189
 1094BOLB   GL426248   7.366  33.939  12.388  0.2472 -0.0130  0.0185
 1094BOLB   C1C26249   7.832  34.083  12.283  0.0497 -0.0112  0.0230
 1094BOLB   C2C26250   8.146  34.363  12.286 -0.1811  0.1356 -0.0573
 1094BOLB   C3C26251   8.468  34.640  12.248 -0.1825 -0.1483 -0.5087
 1094BOLB   C4C26252   8.480  34.999  12.095 -0.0956  0.1348 -0.0523
 1094BOLB   C1D26253   7.352  34.296  12.544 -0.0380  0.2406 -0.2407
 1094BOLB   C2D26254   7.129  34.714  12.521  0.0299 -0.0227 -0.0248
 1094BOLB   C3D26255   6.944  35.109  12.565 -0.0868 -0.0063 -0.4631
 1094BOLB   C4D26256   7.139  35.503  12.610  0.0600  0.1174 -0.4549
 1095BOLB   NC126257   3.742   4.521   7.658 -0.1298  0.1024 -0.0627
 1095BOLB   PO126258   3.994   4.603   7.239 -0.0409  0.2371 -0.1582
 1095BOLB   GL126259   4.271   4.668   7.597  0.0501 -0.1471  0.0005
 1095BOLB   GL226260   4.570   4.418   7.655  0.1093  0.1233 -0.2027
 1095BOLB   C1A26261   4.391   4.759   8.012 -0.0110  0.0102  0.0618
 1095BOLB   C2A26262   4.596   4.617   8.321 -0.3121  0.1214  0.0592
 1095BOLB   C3A26263   4.874   4.856   8.619 -0.0636  0.1060  0.0163
 1095BOLB   C4A26264   5.218   5.225   8.605  0.2601 -0.0271 -0.0487
 1095BOLB   C1B26265   4.824   4.703   7.732  0.1420  0.2168  0.0850
 1095BOLB   C2B26266   5.255   4.720   7.909 -0.2214  0.0290 -0.1680
 1095BOLB   C3B26267   5.582   5.088   7.919 -0.0530  0.2131 -0.0544
 1095BOLB   C4B26268   6.039   5.122   7.773  0.0303 -0.1175  0.2959
 1095BOLB   NC226269   4.367   4.499   6.460  0.5829 -0.3505 -0.1683
 1095BOLB   PO226270   4.265   4.569   6.790 -0.1489  0.2161  0.0692
 1095BOLB   GL326271   4.479   4.778   7.132  0.1993 -0.1438 -0.1221
 1095BOLB   GL426272   4.793   4.715   7.189  0.0219 -0.2523 -0.3844
 1095BOLB   C1C26273   4.682   5.095   7.413  0.0434  0.0999 -0.0207
 1095BOLB   C2C26274   5.055   5.220   7.625 -0.0498 -0.3646 -0.1061
 1095BOLB   C3C26275   5.225   5.533   7.848 -0.3208 -0.1756  0.0864
 1095BOLB   C4C26276   5.342   5.407   8.273 -0.1316  0.0577 -0.1144
 1095BOLB   C1D26277   5.268   4.619   7.380  0.0249  0.1369 -0.2771
 1095BOLB   C2D26278   5.642   4.479   7.291 -0.1017  0.0373  0.0594
 1095BOLB   C3D26279   6.021   4.650   7.302  0.0987 -0.0933 -0.0502
 1095BOLB   C4D26280   6.246   4.854   6.923  0.2632  0.0374 -0.1476
 1096BOLB   NC126281  21.473   8.753  22.259  0.0852  0.0440 -0.2162
 1096BOLB   PO126282  21.087   9.091  22.312 -0.1324  0.1074 -0.1322
 1096BOLB   GL126283  21.391   9.010  22.709  0.1624  0.0685 -0.3877
 1096BOLB   GL226284  21.200   8.891  22.995 -0.0240  0.0652 -0.1258
 1096BOLB   C1A26285  21.698   8.707  22.897  0.0834  0.2288 -0.2597
 1096BOLB   C2A26286  21.908   8.731  23.246  0.1296  0.0619  0.0253
 1096BOLB   C3A26287  21.848   8.666  23.761  0.2055 -0.1938  0.2212
 1096BOLB   C4A26288  21.862   8.864  24.228  0.6232  0.0619 -0.1577
 1096BOLB   C1B26289  21.119   8.877  23.483 -0.2791  0.2023 -0.2803
 1096BOLB   C2B26290  21.328   8.885  23.915 -0.0417  0.0282  0.2410
 1096BOLB   C3B26291  21.383   9.025  24.232  0.0407  0.0067  0.1657
 1096BOLB   C4B26292  21.157   9.397  24.418 -0.0823  0.1419  0.4333
 1096BOLB   NC226293  22.307   8.364  26.297  0.0387  0.1082  0.1193
 1096BOLB   PO226294  22.303   7.989  26.015  0.4140 -0.3454 -0.1152
 1096BOLB   GL326295  22.029   8.080  25.749 -0.1717 -0.0080  0.0891
 1096BOLB   GL426296  22.238   7.918  25.487 -0.0392 -0.1492  0.1785
 1096BOLB   C1C26297  21.787   8.330  25.603 -0.0132 -0.1484  0.1314
 1096BOLB   C2C26298  21.597   8.549  25.266  0.0727 -0.0578 -0.0792
 1096BOLB   C3C26299  21.425   8.656  24.963  0.1925 -0.1488 -0.0385
 1096BOLB   C4C26300  21.592   8.967  24.664 -0.0539 -0.0864 -0.0175
 1096BOLB   C1D26301  22.253   8.356  25.453  0.2905 -0.0473 -0.1293
 1096BOLB   C2D26302  22.062   8.700  25.220 -0.4243 -0.2114  0.0726
 1096BOLB   C3D26303  21.783   9.025  25.118  0.0957 -0.0388  0.3988
 1096BOLB   C4D26304  21.414   9.271  25.024 -0.0331 -0.0173 -0.1748
 1097BOLB   NC126305   4.482   3.454  19.582 -0.2649  0.0884 -0.1041
 1097BOLB   PO126306   4.448   3.178  19.188  0.2746 -0.1967  0.0474
 1097BOLB   GL126307   4.629   3.048  18.876 -0.3547  0.1964 -0.3112
 1097BOLB   GL226308   4.802   2.733  19.045 -0.2315 -0.3092 -0.1412
 1097BOLB   C1A26309   5.075   3.077  18.703 -0.0694 -0.4988  0.1328
 1097BOLB   C2A26310   5.544   3.137  18.632  0.0093  0.0290 -0.0562
 1097BOLB   C3A26311   5.963   3.253  18.427 -0.0481  0.1382  0.0454
 1097BOLB   C4A26312   6.241   3.533  18.334 -0.0363  0.2577  0.1114
 1097BOLB   C1B26313   4.813   2.537  18.685 -0.1664 -0.2715 -0.0606
 1097BOLB   C2B26314   4.867   2.411  18.269 -0.3340  0.0996  0.1883
 1097BOLB   C3B26315   5.163   2.171  18.054  0.2117  0.0881 -0.0934
 1097BOLB   C4B26316   5.426   1.879  17.974  0.2105 -0.4470  0.3929
 1097BOLB   NC226317   5.186   5.116  20.510  0.0666 -0.0324  0.1640
 1097BOLB   PO226318   5.304   5.024  20.071  0.1845  0.1591 -0.1636
 1097BOLB   GL326319   5.417   4.903  19.704 -0.1198  0.1601 -0.1949
 1097BOLB   GL426320   5.155   4.864  19.394 -0.1161  0.2255 -0.0662
 1097BOLB   C1C26321   5.683   4.690  19.353  0.1239  0.1173 -0.0568
 1097BOLB   C2C26322   5.748   4.519  18.886 -0.0099  0.0551 -0.0970
 1097BOLB   C3C26323   5.984   4.228  18.769 -0.0249  0.1690  0.0016
 1097BOLB   C4C26324   6.311   3.890  18.582  0.0501 -0.2226  0.1400
 1097BOLB   C1D26325   4.981   4.877  18.974 -0.1659 -0.1474  0.2234
 1097BOLB   C2D26326   4.868   5.013  18.564 -0.4240 -0.0861  0.3966
 1097BOLB   C3D26327   4.613   5.358  18.379 -0.1092 -0.0642  0.1338
 1097BOLB   C4D26328   4.751   5.756  18.181 -0.0930 -0.0409 -0.0570
 1098BOLB   NC126329  16.466  18.313  18.165  0.2537  0.0359 -0.0517
 1098BOLB   PO126330  16.396  18.331  18.570 -0.0114 -0.0385 -0.2408
 1098BOLB   GL126331  16.378  18.784  18.824  0.1115  0.2947  0.0862
 1098BOLB   GL226332  16.620  18.992  18.900 -0.4402  0.1131 -0.2970
 1098BOLB   C1A26333  16.053  19.126  18.734  0.0953  0.1327  0.1283
 1098BOLB   C2A26334  15.803  19.407  18.765 -0.0099  0.0753 -0.0378
 1098BOLB   C3A26335  15.678  19.677  19.141  0.1465 -0.2318  0.1124
 1098BOLB   C4A26336  15.659  20.054  19.334 -0.0680  0.0348 -0.1120
 1098BOLB   C1B26337  16.529  19.363  18.905  0.0222  0.1555  0.1472
 1098BOLB   C2B26338  16.203  19.647  18.897 -0.2125  0.4328 -0.1452
 1098BOLB   C3B26339  16.075  19.996  19.034 -0.0156 -0.0595 -0.0199
 1098BOLB   C4B26340  16.060  20.308  18.747 -0.3669  0.0602  0.1401
 1098BOLB   NC226341  15.722  22.567  19.847 -0.2329  0.1202 -0.4487
 1098BOLB   PO226342  16.137  22.394  19.916 -0.3910  0.3295  0.0335
 1098BOLB   GL326343  15.945  21.994  19.943  0.2885 -0.0850 -0.2762
 1098BOLB   GL426344  15.947  21.877  19.720  0.2513 -0.2767 -0.1721
 1098BOLB   C1C26345  16.038  21.518  20.082 -0.0211 -0.0041 -0.0170
 1098BOLB   C2C26346  15.992  21.038  19.827 -0.0928 -0.0806  0.0965
 1098BOLB   C3C26347  16.188  20.755  19.669 -0.4208 -0.0895 -0.2423
 1098BOLB   C4C26348  15.944  20.320  19.615 -0.0669 -0.0871 -0.1983
 1098BOLB   C1D26349  16.085  21.540  19.542 -0.1431 -0.1198  0.1358
 1098BOLB   C2D26350  15.991  21.146  19.371  0.0278  0.2372 -0.2769
 1098BOLB   C3D26351  16.086  20.688  19.165 -0.0449  0.1062 -0.2066
 1098BOLB   C4D26352  16.238  20.372  19.259 -0.1354 -0.3064 -0.2676
 1099BOLB   NC126353  11.487  31.464  14.581  0.2098  0.2914  0.0339
 1099BOLB   PO126354  11.665  31.830  14.590  0.1322  0.1811 -0.1141
 1099BOLB   GL126355  11.425  32.058  14.492 -0.0054  0.1331  0.2461
 1099BOLB   GL226356  11.185  32.215  14.694  0.2775  0.3996  0.1150
 1099BOLB   C1A26357  11.554  32.357  14.175 -0.2366 -0.0539  0.0480
 1099BOLB   C2A26358  11.637  32.856  14.060  0.1603 -0.1427  0.0048
 1099BOLB   C3A26359  11.588  33.068  13.679  0.2759 -0.4034  0.0874
 1099BOLB   C4A26360  11.935  33.250  13.379  0.1835  0.0039 -0.3327
 1099BOLB   C1B26361  11.497  32.555  14.691 -0.0589  0.2425  0.2148
 1099BOLB   C2B26362  11.865  32.789  14.971  0.4255 -0.0414 -0.0501
 1099BOLB   C3B26363  11.975  33.146  15.223 -0.2339  0.0507 -0.4309
 1099BOLB   C4B26364  12.112  33.191  15.613  0.0782 -0.1275 -0.3061
 1099BOLB   NC226365  10.171  31.975  12.455  0.1603  0.1182 -0.0898
 1099BOLB   PO226366  10.526  32.023  12.158  0.0251 -0.1791 -0.0721
 1099BOLB   GL326367  10.961  32.087  12.301  0.1557 -0.4695  0.0018
 1099BOLB   GL426368  10.819  32.313  12.445  0.1705 -0.1970  0.0247
 1099BOLB   C1C26369  11.177  32.517  12.046  0.2585 -0.1734 -0.0718
 1099BOLB   C2C26370  11.397  32.797  12.244  0.1973  0.0667 -0.0683
 1099BOLB   C3C26371  11.757  32.904  12.598  0.0204  0.1610 -0.1526
 1099BOLB   C4C26372  12.019  33.038  12.990 -0.4982  0.2421  0.1121
 1099BOLB   C1D26373  10.887  32.791  12.691 -0.3125  0.2804  0.1117
 1099BOLB   C2D26374  11.076  33.046  12.874  0.1159 -0.3080 -0.0376
 1099BOLB   C3D26375  11.195  33.456  12.960 -0.2638  0.2080 -0.1024
 1099BOLB   C4D26376  11.335  33.765  12.530  0.0572 -0.1493 -0.1294
 1100BOLB   NC126377  15.044  12.201   7.743  0.1780 -0.0614  0.1983
 1100BOLB   PO126378  15.369  12.035   7.414 -0.0033  0.0396 -0.0720
 1100BOLB   GL126379  15.319  12.078   6.949  0.0419 -0.4252 -0.2574
 1100BOLB   GL226380  15.054  11.873   6.858 -0.1324  0.2551 -0.0594
 1100BOLB   C1A26381  15.674  11.956   6.731  0.3152  0.0527 -0.2480
 1100BOLB   C2A26382  15.676  11.799   6.366  0.0294 -0.1980  0.4178
 1100BOLB   C3A26383  15.554  11.844   5.874  0.1647 -0.2375  0.0241
 1100BOLB   C4A26384  15.271  11.704   5.607 -0.4154  0.0035  0.0717
 1100BOLB   C1B26385  15.151  12.014   6.500  0.1086 -0.0208 -0.2060
 1100BOLB   C2B26386  15.391  12.236   6.284 -0.0724  0.3668  0.0547
 1100BOLB   C3B26387  15.762  12.314   6.017  0.0620  0.1561  0.3532
 1100BOLB   C4B26388  16.112  12.479   5.797 -0.0765  0.2910  0.0137
 1100BOLB   NC226389  15.318  11.619   3.140 -0.1810  0.3344  0.1570
 1100BOLB   PO226390  15.541  11.942   3.229 -0.1831 -0.1008  0.2398
 1100BOLB   GL326391  15.359  11.816   3.669  0.1110  0.0876 -0.1011
 1100BOLB   GL426392  15.617  11.803   3.838 -0.1432 -0.1393  0.1536
 1100BOLB   C1C26393  15.215  11.528   3.961  0.0752  0.0039  0.1788
 1100BOLB   C2C26394  15.191  11.559   4.353  0.0270  0.0152 -0.3831
 1100BOLB   C3C26395  15.197  11.689   4.800  0.1563 -0.0124  0.0489
 1100BOLB   C4C26396  15.306  11.524   5.208  0.0942 -0.1181  0.0592
 1100BOLB   C1D26397  15.682  11.316   3.987 -0.5584 -0.1298 -0.0634
 1100BOLB   C2D26398  15.408  11.067   4.296 -0.2210 -0.3732  0.1260
 1100BOLB   C3D26399  15.288  10.699   4.578  0.0474 -0.2430 -0.0611
 1100BOLB   C4D26400  15.363  10.613   4.911  0.1516  0.0884 -0.0274
 1101BOLB   NC126401   8.053   6.105  24.405  0.1832  0.3180 -0.1191
 1101BOLB   PO126402   8.257   6.389  24.683 -0.1253 -0.1352  0.0405
 1101BOLB   GL126403   8.359   6.536  24.279  0.2586  0.0047  0.0727
 1101BOLB   GL226404   8.663   6.663  24.292 -0.0697 -0.2226  0.0873
 1101BOLB   C1A26405   8.350   6.511  23.837 -0.2078  0.0007 -0.2366
 1101BOLB   C2A26406   8.701   6.250  23.534 -0.0121  0.0706  0.0221
 1101BOLB   C3A26407   9.163   6.312  23.333  0.0762  0.0201  0.2236
 1101BOLB   C4A26408   9.378   6.610  23.032  0.0654  0.2466  0.1561
 1101BOLB   C1B26409   8.940   6.722  23.967 -0.1820  0.2107 -0.3703
 1101BOLB   C2B26410   9.280   6.622  23.732  0.2034 -0.1422 -0.0689
 1101BOLB   C3B26411   9.625   6.430  23.564 -0.0670 -0.1995  0.1066
 1101BOLB   C4B26412   9.737   6.182  23.364 -0.1916 -0.2240  0.0285
 1101BOLB   NC226413   8.343   7.353  25.093  0.2158 -0.0015 -0.0093
 1101BOLB   PO226414   8.597   7.522  24.786 -0.1662 -0.0973 -0.1553
 1101BOLB   GL326415   9.070   7.620  24.533 -0.4309  0.0264  0.1267
 1101BOLB   GL426416   9.043   7.915  24.592 -0.0967  0.1040  0.0543
 1101BOLB   C1C26417   9.119   7.690  24.031  0.1681  0.0819  0.2794
 1101BOLB   C2C26418   9.264   7.517  23.545  0.0039  0.0796 -0.1853
 1101BOLB   C3C26419   9.405   7.485  23.176  0.1453  0.0641 -0.0167
 1101BOLB   C4C26420   9.498   7.056  22.854 -0.1966 -0.0789  0.2549
 1101BOLB   C1D26421   9.096   8.298  24.332  0.0162  0.3022  0.0737
 1101BOLB   C2D26422   9.510   8.413  24.249 -0.0394 -0.0815 -0.2810
 1101BOLB   C3D26423   9.866   8.471  24.115 -0.0461 -0.1732  0.1636
 1101BOLB   C4D26424  10.282   8.570  24.101 -0.1288  0.1161  0.0476
 1102BOLB   NC126425  14.595  15.160  26.646 -0.2038  0.1108 -0.0604
 1102BOLB   PO126426  14.214  15.212  26.461  0.0686 -0.2614 -0.0544
 1102BOLB   GL126427  14.164  14.906  26.336 -0.2303  0.0223 -0.2378
 1102BOLB   GL226428  14.474  14.749  26.411  0.2057 -0.3381  0.2704
 1102BOLB   C1A26429  13.968  14.547  26.111 -0.0313  0.3772  0.3944
 1102BOLB   C2A26430  13.954  14.483  25.653  0.1517 -0.2441 -0.3976
 1102BOLB   C3A26431  14.151  14.183  25.341 -0.0201  0.2452  0.1156
 1102BOLB   C4A26432  14.160  13.791  24.993  0.0448  0.0170  0.0915
 1102BOLB   C1B26433  14.469  14.600  26.052 -0.2396 -0.0459 -0.1312
 1102BOLB   C2B26434  14.668  14.383  25.743  0.3616  0.0446 -0.1257
 1102BOLB   C3B26435  14.652  14.147  25.573  0.1265  0.1588 -0.4522
 1102BOLB   C4B26436  14.967  13.974  25.171  0.0609  0.3570  0.0334
 1102BOLB   NC226437  14.718  12.453  22.846  0.1906  0.0039  0.2124
 1102BOLB   PO226438  15.018  12.762  23.037  0.0987  0.1162 -0.3644
 1102BOLB   GL326439  14.998  12.859  23.362 -0.0648  0.0728 -0.0123
 1102BOLB   GL426440  15.281  12.958  23.514  0.2216 -0.0389  0.1372
 1102BOLB   C1C26441  14.691  13.081  23.636  0.3362  0.3355  0.1220
 1102BOLB   C2C26442  14.387  12.964  23.919 -0.0015 -0.1911 -0.0618
 1102BOLB   C3C26443  14.396  13.235  24.291 -0.1290  0.3399 -0.0926
 1102BOLB   C4C26444  14.293  13.481  24.663 -0.2258  0.2272 -0.1732
 1102BOLB   C1D26445  15.088  12.916  23.920 -0.0682  0.1848  0.2511
 1102BOLB   C2D26446  14.776  12.930  24.218  0.1625 -0.3315  0.2879
 1102BOLB   C3D26447  14.829  12.811  24.612 -0.1214 -0.0627 -0.1636
 1102BOLB   C4D26448  14.529  12.973  24.867  0.0008 -0.1339  0.2071
 1103BOLB   NC126449  14.811   3.432  20.621 -0.2038  0.1122 -0.0094
 1103BOLB   PO126450  14.524   3.760  20.638 -0.1102  0.0525 -0.3912
 1103BOLB   GL126451  14.700   3.546  21.092 -0.1948 -0.0157  0.1913
 1103BOLB   GL226452  14.938   3.491  21.251 -0.4848  0.1493  0.0871
 1103BOLB   C1A26453  14.632   3.179  21.433 -0.2199 -0.3718  0.0230
 1103BOLB   C2A26454  14.792   2.900  21.862  0.0506 -0.1065  0.2445
 1103BOLB   C3A26455  14.928   2.895  22.288 -0.0532  0.3900  0.1105
 1103BOLB   C4A26456  15.060   2.732  22.607  0.0146  0.0748  0.1130
 1103BOLB   C1B26457  14.950   3.428  21.683 -0.2055 -0.0318  0.0479
 1103BOLB   C2B26458  15.215   3.398  21.976  0.0380  0.4143  0.1516
 1103BOLB   C3B26459  15.513   3.169  22.337 -0.2061  0.3149  0.0832
 1103BOLB   C4B26460  15.876   2.883  22.448  0.0256 -0.0834 -0.1530
 1103BOLB   NC226461  15.431   1.946  24.937 -0.1959 -0.0604 -0.0727
 1103BOLB   PO226462  15.027   1.924  24.727  0.2755 -0.0815  0.1917
 1103BOLB   GL326463  15.010   2.198  24.367 -0.0153  0.1921 -0.0002
 1103BOLB   GL426464  15.017   2.217  24.041  0.1031 -0.1207 -0.1353
 1103BOLB   C1C26465  14.698   2.488  24.229  0.3284 -0.2449 -0.0096
 1103BOLB   C2C26466  14.798   2.786  23.909  0.2021 -0.0609  0.2682
 1103BOLB   C3C26467  14.815   2.713  23.446  0.0600 -0.1275 -0.0131
 1103BOLB   C4C26468  15.010   2.623  23.134  0.1132 -0.5380  0.1554
 1103BOLB   C1D26469  15.129   2.459  23.675  0.1564  0.1669  0.2912
 1103BOLB   C2D26470  15.394   2.546  23.476 -0.0440  0.0904  0.1487
 1103BOLB   C3D26471  15.820   2.688  23.263 -0.4252 -0.1957 -0.3599
 1103BOLB   C4D26472  16.063   2.671  22.923 -0.1894 -0.2415  0.0470
 1104BOLB   NC126473  21.275  16.831  17.758 -0.0560 -0.2505  0.4694
 1104BOLB   PO126474  21.333  17.134  18.005  0.2090  0.0237  0.1767
 1104BOLB   GL126475  21.389  17.505  18.027 -0.1662  0.2371 -0.0133
 1104BOLB   GL226476  21.184  17.655  17.956  0.1021  0.0166 -0.0863
 1104BOLB   C1A26477  21.486  17.821  18.360  0.0244  0.2499  0.1010
 1104BOLB   C2A26478  21.353  18.106  18.577 -0.1562  0.2138  0.2541
 1104BOLB   C3A26479  21.344  18.469  18.840 -0.3140  0.0021  0.3575
 1104BOLB   C4A26480  21.606  18.792  18.837 -0.2348  0.2461 -0.2039
 1104BOLB   C1B26481  21.476  17.971  17.849 -0.0396  0.3373  0.0068
 1104BOLB   C2B26482  21.693  18.345  17.740 -0.0274 -0.1580 -0.5275
 1104BOLB   C3B26483  21.953  18.737  17.828 -0.1229 -0.3356  0.1046
 1104BOLB   C4B26484  22.202  18.905  18.056  0.0668 -0.1158  0.0368
 1104BOLB   NC226485  23.240  19.994  20.287 -0.1383 -0.0676 -0.1680
 1104BOLB   PO226486  22.874  20.187  20.429 -0.0850  0.4265 -0.3966
 1104BOLB   GL326487  22.703  19.828  20.392 -0.1197 -0.0213 -0.1230
 1104BOLB   GL426488  22.662  19.571  20.575 -0.1661  0.2510 -0.3047
 1104BOLB   C1C26489  22.318  19.732  20.095 -0.0067  0.1918 -0.0948
 1104BOLB   C2C26490  22.010  19.432  19.874 -0.1440  0.2616 -0.1113
 1104BOLB   C3C26491  21.812  19.125  19.652  0.0276  0.1106  0.0663
 1104BOLB   C4C26492  21.862  18.955  19.257  0.1810  0.0598  0.0070
 1104BOLB   C1D26493  22.494  19.243  20.301  0.1711  0.2864 -0.1406
 1104BOLB   C2D26494  22.217  19.041  20.243 -0.3346 -0.2487  0.0771
 1104BOLB   C3D26495  22.059  18.814  20.012  0.1219  0.0015  0.2033
 1104BOLB   C4D26496  22.145  18.696  19.619  0.0952 -0.4017 -0.3768
 1105BOLB   NC126497  19.731   9.921  23.436 -0.1108 -0.1361  0.2218
 1105BOLB   PO126498  19.493  10.315  23.484 -0.0372 -0.1008  0.0874
 1105BOLB   GL126499  19.397  10.060  23.916 -0.0449  0.3507  0.0628
 1105BOLB   GL226500  19.715   9.943  23.963 -0.2719  0.0617  0.0243
 1105BOLB   C1A26501  19.405   9.634  24.167 -0.0318  0.3360 -0.1908
 1105BOLB   C2A26502  19.120   9.398  24.325 -0.2600 -0.1306 -0.3360
 1105BOLB   C3A26503  19.124   9.150  24.655 -0.1335 -0.0771 -0.0497
 1105BOLB   C4A26504  19.244   8.966  25.040  0.0491 -0.1075  0.1182
 1105BOLB   C1B26505  19.933   9.887  24.363 -0.0338  0.3910  0.0101
 1105BOLB   C2B26506  19.934   9.842  24.801 -0.0184  0.3142  0.0365
 1105BOLB   C3B26507  19.994  10.230  25.070  0.0822 -0.1272  0.1061
 1105BOLB   C4B26508  19.787  10.540  25.140  0.2301 -0.3688 -0.0539
 1105BOLB   NC226509  20.389   8.711  27.107 -0.2604 -0.1428 -0.0507
 1105BOLB   PO226510  20.378   9.125  27.150 -0.4517 -0.0754  0.0856
 1105BOLB   GL326511  20.012   9.164  26.896  0.0653  0.0297 -0.2827
 1105BOLB   GL426512  20.029   9.487  26.709 -0.2557  0.2484  0.1385
 1105BOLB   C1C26513  19.621   9.147  26.626 -0.0184 -0.1800 -0.1769
 1105BOLB   C2C26514  19.300   9.274  26.295  0.1595  0.1698  0.0180
 1105BOLB   C3C26515  19.366   9.016  25.888  0.1616 -0.1832 -0.0781
 1105BOLB   C4C26516  19.324   8.845  25.494  0.1391  0.2249 -0.1010
 1105BOLB   C1D26517  20.105   9.514  26.299  0.3416 -0.0257  0.1627
 1105BOLB   C2D26518  20.271   9.545  25.906 -0.0459 -0.1204  0.1013
 1105BOLB   C3D26519  20.500   9.744  25.664 -0.0224  0.4630 -0.0411
 1105BOLB   C4D26520  20.604  10.145  25.846 -0.3033 -0.0690  0.2885
 1106BOLB   NC126521  13.617  10.565   1.062 -0.2237 -0.1279  0.0451
 1106BOLB   PO126522  13.245  10.423   1.315  0.0352 -0.2076  0.0666
 1106BOLB   GL126523  13.188  10.107   1.639 -0.2290 -0.0138  0.1915
 1106BOLB   GL226524  13.403   9.925   1.658  0.0572 -0.0014  0.0723
 1106BOLB   C1A26525  13.009  10.047   2.034  0.1201 -0.1491  0.4649
 1106BOLB   C2A26526  13.087  10.360   2.391  0.0002  0.1612  0.0458
 1106BOLB   C3A26527  13.301  10.504   2.785  0.0709  0.0163  0.0732
 1106BOLB   C4A26528  13.572  10.774   3.054 -0.2207 -0.3647 -0.0037
 1106BOLB   C1B26529  13.344   9.644   1.977 -0.1294  0.1475 -0.1955
 1106BOLB   C2B26530  13.374   9.441   2.358  0.1444 -0.2131  0.1152
 1106BOLB   C3B26531  13.316   9.147   2.719 -0.1107  0.3316 -0.2854
 1106BOLB   C4B26532  13.314   8.704   2.792  0.4416  0.1668  0.3578
 1106BOLB   NC226533  14.956  12.382   2.796  0.0310 -0.3510  0.2247
 1106BOLB   PO226534  14.764  12.567   3.134  0.1269 -0.0341 -0.1825
 1106BOLB   GL326535  14.686  12.398   3.402 -0.3870  0.0174 -0.2498
 1106BOLB   GL426536  14.980  12.433   3.594  0.0950 -0.0242 -0.2330
 1106BOLB   C1C26537  14.696  11.934   3.519  0.2779  0.2077 -0.3177
 1106BOLB   C2C26538  14.365  11.563   3.391 -0.1775  0.1797 -0.1597
 1106BOLB   C3C26539  14.190  11.317   3.019  0.2302 -0.0601  0.2419
 1106BOLB   C4C26540  13.897  10.991   3.077 -0.1695  0.1258  0.1019
 1106BOLB   C1D26541  15.026  12.171   3.928 -0.2052 -0.0259  0.0684
 1106BOLB   C2D26542  14.939  12.015   4.452  0.3287 -0.0335 -0.0054
 1106BOLB   C3D26543  14.798  12.061   4.783  0.2449  0.1020  0.2049
 1106BOLB   C4D26544  14.587  12.061   5.152  0.1241  0.0831 -0.1258
 1107BOLB   NC126545  20.079  15.393  26.693  0.0059  0.1352  0.1463
 1107BOLB   PO126546  20.418  15.198  26.444  0.2572 -0.0406  0.1095
 1107BOLB   GL126547  20.252  14.792  26.228 -0.0640  0.0407 -0.1696
 1107BOLB   GL226548  20.312  14.470  26.228 -0.0394  0.2108  0.2497
 1107BOLB   C1A26549  20.344  14.658  25.786 -0.1706  0.1335 -0.2157
 1107BOLB   C2A26550  20.073  14.643  25.404  0.4254 -0.0048 -0.4728
 1107BOLB   C3A26551  20.020  14.358  25.090  0.0979 -0.0414  0.1775
 1107BOLB   C4A26552  19.939  13.991  24.819 -0.2844  0.0508  0.0223
 1107BOLB   C1B26553  19.933  14.487  25.928  0.1616 -0.1494  0.3607
 1107BOLB   C2B26554  19.670  14.470  25.586  0.0085 -0.0972  0.0640
 1107BOLB   C3B26555  19.566  14.245  25.218  0.3272  0.1063 -0.2495
 1107BOLB   C4B26556  19.449  13.938  25.052 -0.4796 -0.1194  0.1190
 1107BOLB   NC226557  19.550  12.248  23.246 -0.2444  0.2294 -0.0690
 1107BOLB   PO226558  19.544  12.574  23.025 -0.0371  0.1850 -0.3372
 1107BOLB   GL326559  19.846  12.642  23.450  0.0181  0.1392 -0.0464
 1107BOLB   GL426560  20.202  12.762  23.391  0.1520 -0.0337  0.0434
 1107BOLB   C1C26561  19.724  12.827  23.780  0.0157  0.0500  0.3638
 1107BOLB   C2C26562  19.824  12.907  24.121 -0.2900  0.4047 -0.2010
 1107BOLB   C3C26563  19.817  13.262  24.372 -0.2901  0.3075  0.1953
 1107BOLB   C4C26564  19.894  13.659  24.566 -0.1660 -0.0864 -0.0863
 1107BOLB   C1D26565  20.244  12.699  23.888 -0.0933 -0.2558  0.2186
 1107BOLB   C2D26566  20.561  12.626  24.152  0.2857 -0.1301 -0.0133
 1107BOLB   C3D26567  20.551  12.505  24.460 -0.2987  0.0702 -0.0683
 1107BOLB   C4D26568  20.766  12.318  24.798  0.2425  0.3322 -0.0163
 1108BOLB   NC126569  15.280  32.640  14.883  0.0134 -0.2878 -0.2669
 1108BOLB   PO126570  15.459  32.834  14.634  0.0134  0.2542 -0.3270
 1108BOLB   GL126571  15.263  33.307  14.562  0.0632  0.1496 -0.1244
 1108BOLB   GL226572  15.481  33.518  14.466 -0.0527  0.2226 -0.1379
 1108BOLB   C1A26573  14.977  33.567  14.579  0.0681 -0.0737  0.2810
 1108BOLB   C2A26574  14.489  33.541  14.486 -0.2013 -0.1186  0.0696
 1108BOLB   C3A26575  14.233  33.164  14.254 -0.4212 -0.4467 -0.0330
 1108BOLB   C4A26576  14.089  32.978  13.830 -0.1769  0.1598 -0.0422
 1108BOLB   C1B26577  15.676  33.849  14.308 -0.0116 -0.3000  0.0732
 1108BOLB   C2B26578  15.617  34.304  14.484  0.0250 -0.2359  0.0960
 1108BOLB   C3B26579  15.420  34.685  14.450 -0.1479 -0.1629  0.0020
 1108BOLB   C4B26580  15.476  35.090  14.673  0.1716 -0.2228 -0.1877
 1108BOLB   NC226581  15.267  31.763  11.834  0.1389  0.1022  0.2175
 1108BOLB   PO226582  15.184  31.669  12.263 -0.3638  0.0174 -0.0704
 1108BOLB   GL326583  14.876  31.952  12.271 -0.0575  0.0874 -0.0809
 1108BOLB   GL426584  14.841  32.049  11.960  0.0848 -0.0710 -0.1272
 1108BOLB   C1C26585  14.568  31.983  12.647  0.0361 -0.0226 -0.0563
 1108BOLB   C2C26586  14.428  32.085  13.053  0.2840 -0.1912 -0.0644
 1108BOLB   C3C26587  14.231  32.461  13.138 -0.0243  0.0401 -0.1035
 1108BOLB   C4C26588  13.999  32.792  13.435  0.0091 -0.0737  0.0535
 1108BOLB   C1D26589  14.497  32.434  11.926 -0.0876  0.1385 -0.0888
 1108BOLB   C2D26590  14.399  32.789  11.755 -0.1856  0.0145  0.0043
 1108BOLB   C3D26591  14.219  33.050  11.405 -0.0819  0.4289  0.3937
 1108BOLB   C4D26592  13.758  33.169  11.373  0.2300 -0.0498 -0.0753
 1109BOLB   NC126593   9.626   6.227  19.017  0.3428 -0.0806  0.1261
 1109BOLB   PO126594   9.535   5.712  18.857 -0.4812  0.1306 -0.0399
 1109BOLB   GL126595   9.098   5.554  18.867  0.3759 -0.1289  0.1933
 1109BOLB   GL226596   9.102   5.340  18.607 -0.2641  0.1120  0.0313
 1109BOLB   C1A26597   8.721   5.215  18.958  0.2465  0.0682 -0.2504
 1109BOLB   C2A26598   8.303   5.048  19.027 -0.0292  0.3490 -0.0067
 1109BOLB   C3A26599   8.000   4.725  19.003  0.2828 -0.0594 -0.0321
 1109BOLB   C4A26600   7.663   4.374  18.975 -0.1825 -0.0758  0.0393
 1109BOLB   C1B26601   8.745   5.105  18.470 -0.0350  0.0133  0.0258
 1109BOLB   C2B26602   8.545   4.814  18.484 -0.0606  0.0701  0.0667
 1109BOLB   C3B26603   8.312   4.503  18.618 -0.0946  0.1992 -0.4552
 1109BOLB   C4B26604   8.125   4.165  18.683 -0.1769 -0.0700 -0.1842
 1109BOLB   NC226605   6.825   2.639  20.168  0.2464 -0.1051  0.2799
 1109BOLB   PO226606   6.744   2.340  19.896 -0.0308 -0.0709  0.0816
 1109BOLB   GL326607   6.951   2.558  19.615 -0.0413 -0.1492 -0.2248
 1109BOLB   GL426608   6.934   2.423  19.300 -0.4373 -0.1221 -0.4365
 1109BOLB   C1C26609   7.049   2.916  19.405  0.2052 -0.1522 -0.0979
 1109BOLB   C2C26610   7.256   3.254  19.294 -0.0522 -0.1785  0.0800
 1109BOLB   C3C26611   7.388   3.591  18.991  0.2989 -0.0564  0.0223
 1109BOLB   C4C26612   7.469   4.046  18.932  0.2030  0.0123  0.1217
 1109BOLB   C1D26613   7.042   2.676  18.923  0.2062  0.2113 -0.0528
 1109BOLB   C2D26614   7.372   2.633  18.669 -0.1231 -0.0662  0.0703
 1109BOLB   C3D26615   7.699   2.776  18.541  0.1344  0.1272 -0.5090
 1109BOLB   C4D26616   7.799   2.829  18.200 -0.2740 -0.0749  0.0301
 1110BOLB   NC126617  24.562   9.623  14.375  0.1233 -0.1857 -0.2298
 1110BOLB   PO126618  24.444   9.654  14.807  0.0558  0.0098 -0.1977
 1110BOLB   GL126619  24.903   9.431  14.786 -0.0505 -0.3120 -0.0884
 1110BOLB   GL226620  25.003   9.434  14.464  0.0009 -0.0525  0.1606
 1110BOLB   C1A26621  25.329   9.698  14.702  0.1209  0.2967  0.0011
 1110BOLB   C2A26622  25.699   9.527  14.737  0.1331  0.1849  0.3061
 1110BOLB   C3A26623  26.087   9.188  14.718  0.2586  0.0561 -0.0788
 1110BOLB   C4A26624  26.389   9.173  14.485 -0.0415  0.1099  0.0141
 1110BOLB   C1B26625  25.339   9.170  14.671  0.1892 -0.0319  0.3583
 1110BOLB   C2B26626  25.654   9.034  14.408 -0.1395 -0.0056 -0.1345
 1110BOLB   C3B26627  26.011   8.803  14.201 -0.1374  0.2441  0.1450
 1110BOLB   C4B26628  26.366   8.697  14.230 -0.0782  0.0325 -0.2793
 1110BOLB   NC226629  28.173   9.979  14.034  0.1137 -0.0026 -0.0590
 1110BOLB   PO226630  28.311  10.048  13.582 -0.2459 -0.1295  0.0426
 1110BOLB   GL326631  27.916   9.961  13.602 -0.0040 -0.0762 -0.2182
 1110BOLB   GL426632  27.578  10.246  13.599  0.0523  0.1527 -0.1236
 1110BOLB   C1C26633  27.582   9.632  13.630  0.1160  0.2178 -0.0878
 1110BOLB   C2C26634  27.351   9.379  13.743  0.2442 -0.2570 -0.0823
 1110BOLB   C3C26635  26.882   9.188  13.871 -0.2243  0.0376  0.0003
 1110BOLB   C4C26636  26.767   9.033  14.291 -0.0138  0.2012  0.1327
 1110BOLB   C1D26637  27.258  10.309  13.798  0.2097  0.0553 -0.0139
 1110BOLB   C2D26638  26.802  10.274  13.850  0.2395 -0.0669 -0.1687
 1110BOLB   C3D26639  26.379  10.211  13.947 -0.0357 -0.3818  0.0008
 1110BOLB   C4D26640  25.964  10.085  14.040 -0.0943  0.0106  0.0634
 1111BOLB   NC126641   9.510  14.529  14.079  0.2058 -0.1852  0.0214
 1111BOLB   PO126642   9.499  14.856  13.752 -0.1908 -0.0148 -0.3413
 1111BOLB   GL126643   9.208  15.204  13.674 -0.1946  0.1513  0.0566
 1111BOLB   GL226644   9.062  15.034  13.272 -0.0400  0.0011  0.2242
 1111BOLB   C1A26645   8.886  15.512  13.459 -0.0938 -0.1586 -0.3802
 1111BOLB   C2A26646   8.637  15.923  13.327  0.2732  0.1916  0.1258
 1111BOLB   C3A26647   8.775  16.313  13.413 -0.3858  0.3079 -0.3867
 1111BOLB   C4A26648   8.740  16.651  13.721 -0.1471 -0.0710  0.1333
 1111BOLB   C1B26649   8.597  15.144  13.168  0.0162 -0.4772  0.2836
 1111BOLB   C2B26650   8.291  15.583  12.964 -0.0513 -0.1288 -0.1696
 1111BOLB   C3B26651   8.018  15.651  12.693 -0.1390 -0.1526  0.1325
 1111BOLB   C4B26652   7.841  15.779  12.297 -0.0722 -0.3479 -0.1398
 1111BOLB   NC226653   7.966  19.354  13.746 -0.2294  0.0463 -0.2554
 1111BOLB   PO226654   8.050  19.034  14.080  0.0252 -0.0723 -0.2232
 1111BOLB   GL326655   8.170  18.618  14.119 -0.1247  0.0658 -0.2728
 1111BOLB   GL426656   8.284  18.541  13.867 -0.1105  0.2414 -0.2921
 1111BOLB   C1C26657   8.173  18.025  14.050 -0.1396 -0.1387  0.1213
 1111BOLB   C2C26658   7.969  17.573  14.098  0.0401  0.1107 -0.1897
 1111BOLB   C3C26659   8.093  17.266  13.989  0.1500 -0.1995  0.0469
 1111BOLB   C4C26660   8.436  16.915  13.995 -0.1237 -0.0890  0.2110
 1111BOLB   C1D26661   8.685  18.686  13.915 -0.4802 -0.0590  0.0022
 1111BOLB   C2D26662   8.963  19.020  14.095 -0.1809  0.1806  0.2371
 1111BOLB   C3D26663   9.346  18.995  14.174  0.2708 -0.0328 -0.1071
 1111BOLB   C4D26664   9.751  18.774  14.396 -0.0539 -0.3503 -0.1031
 1112BOLB   NC126665  17.589  13.350  23.187 -0.3624  0.4745  0.0325
 1112BOLB   PO126666  17.983  13.394  23.525 -0.1434 -0.2352 -0.0720
 1112BOLB   GL126667  17.974  13.587  23.911  0.1861  0.0493 -0.3310
 1112BOLB   GL226668  17.839  13.422  24.178  0.0300  0.0551  0.2473
 1112BOLB   C1A26669  18.171  13.770  24.327 -0.0749 -0.3818  0.1129
 1112BOLB   C2A26670  18.159  14.123  24.554 -0.0373 -0.2590  0.2550
 1112BOLB   C3A26671  18.097  14.307  25.017  0.0944 -0.0071  0.0758
 1112BOLB   C4A26672  18.233  14.593  25.328  0.1911  0.0611 -0.2124
 1112BOLB   C1B26673  17.924  13.539  24.672  0.0597 -0.0865  0.3700
 1112BOLB   C2B26674  18.191  13.727  24.854 -0.0333 -0.3589  0.1551
 1112BOLB   C3B26675  18.639  13.657  24.847 -0.2457 -0.2660  0.3021
 1112BOLB   C4B26676  18.893  13.699  25.183 -0.0047 -0.1324  0.1747
 1112BOLB   NC226677  16.640  15.263  27.411  0.0040  0.0078 -0.1357
 1112BOLB   PO226678  16.981  15.087  27.145 -0.3821 -0.3079 -0.2839
 1112BOLB   GL326679  17.146  15.113  26.825  0.2291  0.0149 -0.1232
 1112BOLB   GL426680  17.465  14.971  26.757 -0.0202 -0.2342  0.3440
 1112BOLB   C1C26681  17.354  15.264  26.356  0.1336 -0.1122  0.0461
 1112BOLB   C2C26682  17.703  15.377  26.161  0.0439  0.1876 -0.3090
 1112BOLB   C3C26683  17.882  15.357  25.759 -0.1673 -0.1556 -0.1491
 1112BOLB   C4C26684  18.233  15.036  25.495 -0.1742  0.2369  0.0767
 1112BOLB   C1D26685  17.189  14.722  26.529  0.0252 -0.1926 -0.0263
 1112BOLB   C2D26686  16.893  14.716  26.160 -0.2518 -0.0668  0.0739
 1112BOLB   C3D26687  16.607  14.767  25.815 -0.1499  0.0055 -0.2392
 1112BOLB   C4D26688  16.639  15.193  25.550 -0.2568 -0.0924  0.1882
 1113BOLB   NC126689  20.344  17.325  14.285  0.0900  0.1834 -0.1899
 1113BOLB   PO126690  20.738  17.382  14.560  0.0398 -0.0788 -0.0828
 1113BOLB   GL126691  20.947  17.447  14.186  0.0817  0.1234 -0.0072
 1113BOLB   GL226692  21.014  17.416  13.842 -0.4998  0.0727 -0.1311
 1113BOLB   C1A26693  21.373  17.520  14.166 -0.2229 -0.2041 -0.2227
 1113BOLB   C2A26694  21.465  17.929  14.083  0.3625 -0.2326 -0.1613
 1113BOLB   C3A26695  21.700  18.186  14.381 -0.0292 -0.1366  0.1917
 1113BOLB   C4A26696  21.770  18.417  14.767 -0.2786  0.2040 -0.0809
 1113BOLB   C1B26697  21.238  17.726  13.702  0.0320 -0.1477  0.3047
 1113BOLB   C2B26698  21.265  18.117  13.379  0.1497  0.3599 -0.4016
 1113BOLB   C3B26699  21.518  18.358  13.343  0.0205 -0.1364 -0.4192
 1113BOLB   C4B26700  21.743  18.775  13.492 -0.0440 -0.1233 -0.2222
 1113BOLB   NC226701  23.547  20.430  15.233 -0.2867 -0.4209  0.0485
 1113BOLB   PO226702  23.394  20.382  14.782 -0.0906 -0.0478 -0.0157
 1113BOLB   GL326703  23.251  20.020  15.139  0.0236 -0.2381  0.2946
 1113BOLB   GL426704  23.290  20.001  15.497  0.2395 -0.1168  0.0494
 1113BOLB   C1C26705  22.834  19.804  15.165  0.3373 -0.0970 -0.0895
 1113BOLB   C2C26706  22.322  19.629  15.156 -0.3325 -0.1980 -0.2428
 1113BOLB   C3C26707  22.071  19.323  15.141 -0.0632 -0.0993 -0.1813
 1113BOLB   C4C26708  21.791  18.854  14.963  0.0933 -0.0942  0.1898
 1113BOLB   C1D26709  22.899  19.991  15.642 -0.2646  0.1596  0.3977
 1113BOLB   C2D26710  22.514  19.830  15.617 -0.0293  0.1484  0.1753
 1113BOLB   C3D26711  22.209  19.825  15.980  0.0691  0.1223 -0.1244
 1113BOLB   C4D26712  22.119  19.935  16.422  0.0202 -0.1036  0.0008
 1114BOLB   NC126713   9.660  15.402  13.702  0.1590 -0.2710  0.0697
 1114BOLB   PO126714   9.603  15.123  13.322 -0.1839 -0.2345  0.1453
 1114BOLB   GL126715   9.485  15.205  12.912  0.0666  0.0600  0.0641
 1114BOLB   GL226716   9.775  15.243  12.716  0.0881  0.3740 -0.0544
 1114BOLB   C1A26717   9.156  15.495  13.001  0.2079  0.2203 -0.3812
 1114BOLB   C2A26718   8.807  15.670  12.944  0.1514 -0.1515  0.0443
 1114BOLB   C3A26719   8.481  16.049  12.855  0.1091 -0.1099  0.1198
 1114BOLB   C4A26720   8.424  16.577  12.771 -0.2562  0.6462 -0.2072
 1114BOLB   C1B26721   9.554  15.528  12.461  0.0895 -0.0035 -0.1281
 1114BOLB   C2B26722   9.349  15.639  12.159 -0.1228 -0.0623  0.1641
 1114BOLB   C3B26723   9.092  15.677  11.739  0.1919  0.5246  0.0763
 1114BOLB   C4B26724   9.113  15.543  11.309  0.0199 -0.2178  0.3389
 1114BOLB   NC226725   6.187  17.411  13.563 -0.0913 -0.2729  0.0364
 1114BOLB   PO226726   6.464  17.639  13.735  0.0405  0.2094 -0.0365
 1114BOLB   GL326727   6.810  17.659  13.611 -0.3736  0.0584  0.1544
 1114BOLB   GL426728   7.116  17.927  13.645 -0.0210 -0.0123 -0.1587
 1114BOLB   C1C26729   7.123  17.333  13.507 -0.1124  0.1073 -0.2632
 1114BOLB   C2C26730   7.378  17.055  13.327  0.0195  0.1897 -0.0993
 1114BOLB   C3C26731   7.719  16.914  13.127 -0.1488 -0.1536  0.0154
 1114BOLB   C4C26732   8.167  16.757  13.049  0.1744  0.0381 -0.2495
 1114BOLB   C1D26733   7.456  17.758  13.345  0.0364  0.0512  0.0719
 1114BOLB   C2D26734   7.839  17.465  13.210  0.0537  0.0837 -0.0301
 1114BOLB   C3D26735   8.218  17.326  13.248 -0.0947  0.0428 -0.1202
 1114BOLB   C4D26736   8.497  17.188  13.582  0.4974 -0.0349  0.1247
 1115BOLB   NC126737   9.817  15.818  16.371 -0.0239  0.1484  0.1132
 1115BOLB   PO126738  10.115  16.123  16.383  0.0309 -0.0727 -0.1446
 1115BOLB   GL126739   9.846  16.374  16.639  0.0667 -0.1037 -0.2961
 1115BOLB   GL226740   9.981  16.727  16.579 -0.2745  0.2091 -0.1684
 1115BOLB   C1A26741   9.525  16.464  16.367 -0.4240 -0.2115  0.3051
 1115BOLB   C2A26742   9.327  16.786  16.129  0.0309  0.0844 -0.0619
 1115BOLB   C3A26743   9.460  17.069  15.841 -0.0594 -0.0432  0.1393
 1115BOLB   C4A26744   9.507  17.447  15.824  0.2428 -0.0927 -0.1906
 1115BOLB   C1B26745   9.614  16.886  16.622 -0.0350 -0.3373  0.0156
 1115BOLB   C2B26746   9.320  17.296  16.750 -0.0606 -0.1658  0.0137
 1115BOLB   C3B26747   8.943  17.393  16.996 -0.2421  0.1385 -0.2259
 1115BOLB   C4B26748   8.813  17.671  17.294 -0.1643 -0.0243  0.0073
 1115BOLB   NC226749   8.665  19.980  15.436  0.0428 -0.0597 -0.2263
 1115BOLB   PO226750   8.549  19.673  15.580 -0.1632  0.3083 -0.0998
 1115BOLB   GL326751   8.534  19.263  15.689  0.0899 -0.0757  0.2487
 1115BOLB   GL426752   8.656  19.267  16.078 -0.3066  0.2644  0.2002
 1115BOLB   C1C26753   8.776  18.877  15.574  0.1020 -0.1995 -0.0952
 1115BOLB   C2C26754   9.006  18.473  15.563 -0.0660 -0.1641 -0.2652
 1115BOLB   C3C26755   9.131  18.115  15.758  0.1416  0.1908  0.2644
 1115BOLB   C4C26756   9.408  17.915  15.854  0.2638  0.1680  0.1621
 1115BOLB   C1D26757   8.535  18.830  16.062  0.1253 -0.0498  0.3503
 1115BOLB   C2D26758   8.727  18.553  16.438  0.1480 -0.0191 -0.2349
 1115BOLB   C3D26759   8.876  18.274  16.747 -0.1201  0.1243 -0.0314
 1115BOLB   C4D26760   9.028  17.985  16.952  0.1779  0.0014 -0.1489
 1116BOLB   NC126761  21.062   7.904  21.901 -0.0229 -0.1275  0.0270
 1116BOLB   PO126762  21.202   8.344  21.923  0.2172  0.0237 -0.2877
 1116BOLB   GL126763  21.374   8.187  22.225 -0.3326  0.0847 -0.0446
 1116BOLB   GL226764  21.356   7.841  22.428 -0.0454 -0.0025 -0.4067
 1116BOLB   C1A26765  21.703   8.264  22.595 -0.2192  0.0735 -0.0184
 1116BOLB   C2A26766  21.857   8.242  22.966 -0.0345 -0.4194 -0.0063
 1116BOLB   C3A26767  21.603   8.004  23.290 -0.0036  0.0909  0.0743
 1116BOLB   C4A26768  21.661   8.045  23.855 -0.1418  0.1810 -0.0798
 1116BOLB   C1B26769  21.684   7.787  22.782 -0.1113 -0.1064  0.1990
 1116BOLB   C2B26770  21.990   7.749  23.105 -0.1108 -0.0078 -0.0113
 1116BOLB   C3B26771  22.396   7.706  23.370  0.0299  0.0355 -0.1111
 1116BOLB   C4B26772  22.806   8.056  23.376 -0.2767 -0.0640 -0.0386
 1116BOLB   NC226773  23.954   7.367  24.887 -0.0371 -0.0542 -0.1754
 1116BOLB   PO226774  23.559   7.266  25.105 -0.1532 -0.0290  0.1324
 1116BOLB   GL326775  23.318   7.515  24.754  0.2562  0.0819 -0.4638
 1116BOLB   GL426776  23.344   7.805  24.694  0.2316  0.0570  0.0416
 1116BOLB   C1C26777  22.885   7.584  24.621 -0.0639  0.0614 -0.1539
 1116BOLB   C2C26778  22.703   7.723  24.236  0.1718 -0.1717  0.0341
 1116BOLB   C3C26779  22.347   7.864  24.142  0.1582  0.0423  0.0159
 1116BOLB   C4C26780  22.010   7.871  24.095  0.0590 -0.0834 -0.0355
 1116BOLB   C1D26781  23.114   7.904  24.280  0.2258  0.0105  0.0151
 1116BOLB   C2D26782  23.221   8.238  24.007  0.2912 -0.1281 -0.1465
 1116BOLB   C3D26783  23.070   8.368  23.638 -0.1348  0.0483  0.0644
 1116BOLB   C4D26784  23.447   8.611  23.363 -0.0008  0.1199 -0.0849
 1117BOLB   NC126785  26.667  10.894  22.677 -0.0650  0.2628 -0.2265
 1117BOLB   PO126786  26.456  11.204  23.002 -0.0675  0.1004  0.1294
 1117BOLB   GL126787  26.073  11.129  22.792 -0.2047 -0.0129  0.0855
 1117BOLB   GL226788  26.128  10.835  22.557 -0.3482  0.2227 -0.2079
 1117BOLB   C1A26789  25.705  11.020  22.447  0.1696 -0.1147 -0.0869
 1117BOLB   C2A26790  25.322  11.137  22.260  0.3513  0.0658 -0.0288
 1117BOLB   C3A26791  24.959  10.772  22.138  0.2477  0.1163  0.0616
 1117BOLB   C4A26792  24.601  10.651  22.389  0.3369  0.1978  0.2490
 1117BOLB   C1B26793  25.816  10.495  22.435 -0.0037  0.2150 -0.1766
 1117BOLB   C2B26794  25.412  10.463  22.175 -0.1617 -0.2174  0.1263
 1117BOLB   C3B26795  25.062  10.234  22.145  0.3145  0.1232  0.0161
 1117BOLB   C4B26796  24.679  10.177  22.229 -0.1482 -0.2579 -0.4653
 1117BOLB   NC226797  24.819  10.123  24.283  0.1556  0.1175 -0.0647
 1117BOLB   PO226798  24.982  10.498  24.546 -0.0301 -0.1058 -0.0123
 1117BOLB   GL326799  24.679  10.591  24.173 -0.0594 -0.1755  0.0229
 1117BOLB   GL426800  24.435  10.646  24.419 -0.0480  0.0776 -0.3152
 1117BOLB   C1C26801  24.398  10.598  23.743  0.3857 -0.1221 -0.3281
 1117BOLB   C2C26802  24.242  10.890  23.444 -0.0745 -0.1973 -0.0043
 1117BOLB   C3C26803  24.135  10.862  23.059  0.3942 -0.4171  0.1760
 1117BOLB   C4C26804  24.185  10.675  22.631  0.1349  0.1020  0.1208
 1117BOLB   C1D26805  24.172  10.898  24.198 -0.2157 -0.0902 -0.2171
 1117BOLB   C2D26806  24.246  11.079  23.951 -0.0386 -0.1517  0.2290
 1117BOLB   C3D26807  23.909  11.251  23.685 -0.0709 -0.0755 -0.0973
 1117BOLB   C4D26808  23.781  11.557  23.433  0.2002 -0.1702  0.1621
 1118BOLB   NC126809  11.220  16.646  14.895 -0.3311 -0.3398 -0.0684
 1118BOLB   PO126810  10.968  16.526  14.672 -0.2148 -0.3115  0.0572
 1118BOLB   GL126811  10.895  17.030  14.725  0.0858 -0.1110 -0.2554
 1118BOLB   GL226812  10.927  17.122  15.026 -0.0770  0.0147  0.0589
 1118BOLB   C1A26813  10.529  17.264  14.577 -0.2845 -0.0708  0.0819
 1118BOLB   C2A26814  10.409  17.673  14.338  0.3786 -0.1617 -0.0015
 1118BOLB   C3A26815  10.417  18.213  14.487  0.1194 -0.1712  0.2068
 1118BOLB   C4A26816  10.300  18.625  14.598  0.1981  0.0271  0.1578
 1118BOLB   C1B26817  10.643  17.468  15.159  0.0391  0.0507 -0.0527
 1118BOLB   C2B26818  10.575  17.947  15.283 -0.3130  0.2595  0.1570
 1118BOLB   C3B26819  10.353  18.244  15.486  0.1289  0.0441 -0.0664
 1118BOLB   C4B26820  10.103  18.491  15.836  0.2111  0.1307  0.0748
 1118BOLB   NC226821   9.159  21.067  14.663 -0.2937  0.1470 -0.1189
 1118BOLB   PO226822   9.222  20.564  14.581 -0.2623  0.0799 -0.0404
 1118BOLB   GL326823   9.569  20.379  14.622  0.3591  0.0343 -0.2974
 1118BOLB   GL426824   9.862  20.497  14.703 -0.3076  0.3935 -0.1300
 1118BOLB   C1C26825   9.747  19.951  14.761 -0.3070 -0.0846 -0.3027
 1118BOLB   C2C26826   9.987  19.690  14.649 -0.1503 -0.1924  0.5465
 1118BOLB   C3C26827  10.031  19.315  14.671 -0.1861  0.3160 -0.0162
 1118BOLB   C4C26828  10.141  18.997  14.595 -0.2563  0.1243 -0.3005
 1118BOLB   C1D26829  10.213  20.190  14.606 -0.2332 -0.1432 -0.0285
 1118BOLB   C2D26830  10.416  19.857  14.427  0.2172 -0.0020  0.1784
 1118BOLB   C3D26831  10.566  19.376  14.689  0.0174  0.0180 -0.2803
 1118BOLB   C4D26832  10.612  19.027  14.656  0.2449 -0.2030 -0.0164
 1119BOLB   NC126833   8.481  11.578  16.121  0.2212  0.1830 -0.0480
 1119BOLB   PO126834   8.147  11.901  15.977  0.1419  0.3348  0.2009
 1119BOLB   GL126835   7.771  12.015  16.165 -0.0153  0.1162 -0.2902
 1119BOLB   GL226836   7.790  12.326  16.344 -0.2985  0.0810 -0.6917
 1119BOLB   C1A26837   7.411  12.235  15.998 -0.0627  0.1917  0.0734
 1119BOLB   C2A26838   7.013  12.272  15.934 -0.0007 -0.2271  0.0169
 1119BOLB   C3A26839   6.625  12.480  15.753  0.0322  0.0870 -0.1936
 1119BOLB   C4A26840   6.434  12.668  15.455  0.1397  0.1614  0.2373
 1119BOLB   C1B26841   7.359  12.121  16.464 -0.2168 -0.0701 -0.1191
 1119BOLB   C2B26842   7.073  12.126  16.864 -0.0644 -0.2270  0.0683
 1119BOLB   C3B26843   7.134  12.361  17.253 -0.1839 -0.0079 -0.2933
 1119BOLB   C4B26844   7.521  12.431  17.447  0.4415  0.4967  0.1226
 1119BOLB   NC226845   5.193  14.615  14.633  0.2914 -0.3305 -0.2176
 1119BOLB   PO226846   4.877  14.331  14.776 -0.0639 -0.0461  0.1752
 1119BOLB   GL326847   5.190  14.124  14.513  0.1099 -0.2226 -0.1653
 1119BOLB   GL426848   5.267  14.047  14.118  0.0211 -0.0158 -0.0439
 1119BOLB   C1C26849   5.550  13.827  14.487  0.1497 -0.0851 -0.1258
 1119BOLB   C2C26850   5.952  13.766  14.593 -0.0177  0.1282  0.1044
 1119BOLB   C3C26851   6.056  13.375  14.742 -0.1960 -0.1757  0.1964
 1119BOLB   C4C26852   6.504  12.996  14.997 -0.1601  0.0459 -0.3462
 1119BOLB   C1D26853   5.605  13.698  14.001 -0.0988  0.2719  0.3570
 1119BOLB   C2D26854   5.816  13.467  14.102  0.0551 -0.0433 -0.0679
 1119BOLB   C3D26855   6.144  13.284  14.265  0.1562 -0.2870  0.2863
 1119BOLB   C4D26856   6.324  13.069  14.423 -0.0886  0.0169 -0.0386
 1120BOLB   NC126857  22.803   7.994  19.779  0.0854 -0.0748 -0.0463
 1120BOLB   PO126858  22.458   7.644  19.619 -0.0030  0.0093  0.0159
 1120BOLB   GL126859  22.924   7.482  19.781 -0.5534  0.0102  0.0523
 1120BOLB   GL226860  23.172   7.492  19.531 -0.1128 -0.2046 -0.4743
 1120BOLB   C1A26861  23.201   7.219  20.026  0.0437  0.2157 -0.0210
 1120BOLB   C2A26862  23.539   7.003  20.137  0.1746  0.2995  0.1200
 1120BOLB   C3A26863  23.933   6.852  20.173  0.1863  0.1785 -0.3042
 1120BOLB   C4A26864  24.405   6.577  20.269  0.2295  0.1777 -0.1241
 1120BOLB   C1B26865  23.487   7.228  19.575 -0.1970  0.3761 -0.0963
 1120BOLB   C2B26866  23.817   6.955  19.719 -0.0137  0.0968  0.1603
 1120BOLB   C3B26867  24.254   6.995  19.805  0.1302 -0.0690  0.0097
 1120BOLB   C4B26868  24.546   6.929  19.983  0.0680 -0.3641  0.1577
 1120BOLB   NC226869  25.529   5.190  21.800  0.0093 -0.0716 -0.3573
 1120BOLB   PO226870  25.678   5.500  21.546 -0.2454  0.0414  0.0879
 1120BOLB   GL326871  25.419   5.726  21.214  0.3830  0.2501 -0.4881
 1120BOLB   GL426872  25.404   6.091  21.252 -0.1498  0.1000  0.1469
 1120BOLB   C1C26873  24.985   5.677  21.272  0.1124 -0.1762 -0.1571
 1120BOLB   C2C26874  24.727   5.718  20.925  0.3174  0.1433 -0.1807
 1120BOLB   C3C26875  24.676   6.035  20.674 -0.0442  0.3955 -0.2120
 1120BOLB   C4C26876  24.570   6.165  20.369  0.2141 -0.0193  0.2052
 1120BOLB   C1D26877  24.970   6.168  21.158  0.1309 -0.0444 -0.1205
 1120BOLB   C2D26878  24.563   6.279  21.253  0.1662  0.0702  0.0358
 1120BOLB   C3D26879  24.340   6.606  21.251  0.0375 -0.2315 -0.0867
 1120BOLB   C4D26880  24.038   6.774  21.092  0.0712  0.3825  0.0958
 1121BOLB   NC126881   1.149   4.290  11.296  0.2619 -0.1086 -0.0100
 1121BOLB   PO126882   1.473   4.487  11.230 -0.0340  0.2509 -0.1879
 1121BOLB   GL126883   1.800   4.462  11.332  0.3592  0.2492 -0.1769
 1121BOLB   GL226884   1.977   4.718  11.127  0.1670  0.2685 -0.3287
 1121BOLB   C1A26885   2.015   4.522  11.675  0.1863 -0.1886  0.1187
 1121BOLB   C2A26886   2.220   4.828  11.859 -0.2836  0.2395  0.0718
 1121BOLB   C3A26887   2.557   5.133  11.863 -0.0767  0.0389  0.1287
 1121BOLB   C4A26888   2.953   5.216  11.935  0.1568  0.3393 -0.1715
 1121BOLB   C1B26889   2.373   4.599  11.262  0.1475 -0.1806  0.0926
 1121BOLB   C2B26890   2.648   4.725  11.534  0.0231 -0.0166  0.1448
 1121BOLB   C3B26891   2.861   4.666  11.863  0.1813  0.0516  0.3736
 1121BOLB   C4B26892   2.872   4.849  12.242 -0.2486  0.0951 -0.0024
 1121BOLB   NC226893   1.720   5.514  10.958  0.0859  0.0491  0.0521
 1121BOLB   PO226894   1.656   5.139  11.118  0.1462 -0.0397 -0.2208
 1121BOLB   GL326895   2.139   5.281  11.138  0.0370 -0.0073  0.0368
 1121BOLB   GL426896   2.162   5.130  11.393  0.2119  0.0416  0.1948
 1121BOLB   C1C26897   2.302   5.636  11.249 -0.0326  0.2641  0.3142
 1121BOLB   C2C26898   2.674   5.751  11.379 -0.0366 -0.1189  0.1359
 1121BOLB   C3C26899   3.114   5.599  11.509 -0.1403 -0.0960  0.3309
 1121BOLB   C4C26900   3.249   5.433  11.738 -0.0919 -0.1211 -0.2983
 1121BOLB   C1D26901   2.554   5.143  11.308 -0.1870 -0.0741  0.4860
 1121BOLB   C2D26902   2.917   5.185  11.420  0.0240 -0.0751 -0.1467
 1121BOLB   C3D26903   3.207   4.919  11.577 -0.0245 -0.1207  0.1125
 1121BOLB   C4D26904   3.545   4.609  11.458 -0.0657  0.0870 -0.1575
 1122BOLB   NC126905  12.997  13.773   8.975 -0.1314 -0.1265  0.3858
 1122BOLB   PO126906  13.073  13.367   9.155 -0.4005 -0.0509  0.0645
 1122BOLB   GL126907  12.897  13.324   8.761 -0.1356  0.0562  0.0670
 1122BOLB   GL226908  12.729  13.103   8.788  0.0967 -0.3494  0.2857
 1122BOLB   C1A26909  12.682  13.497   8.452  0.3662 -0.1312  0.0853
 1122BOLB   C2A26910  12.550  13.833   8.056 -0.0312  0.1195 -0.0928
 1122BOLB   C3A26911  12.612  14.115   7.767  0.0506 -0.0093 -0.0844
 1122BOLB   C4A26912  12.762  14.365   7.461 -0.0657  0.0305  0.0354
 1122BOLB   C1B26913  12.356  13.151   8.436 -0.0461 -0.1051  0.4131
 1122BOLB   C2B26914  12.006  13.321   8.176 -0.2548  0.0195  0.2578
 1122BOLB   C3B26915  11.689  13.415   7.931  0.1586 -0.0730  0.0075
 1122BOLB   C4B26916  11.318  13.246   8.093  0.0034 -0.0305  0.1992
 1122BOLB   NC226917  13.127  15.859   5.607  0.0078  0.1024  0.4244
 1122BOLB   PO226918  13.158  16.085   5.931  0.1567 -0.2863 -0.0273
 1122BOLB   GL326919  12.846  15.981   6.344  0.0525 -0.1866  0.2834
 1122BOLB   GL426920  12.634  15.656   6.369  0.0723  0.2610 -0.1646
 1122BOLB   C1C26921  13.022  15.635   6.686  0.1284  0.3635 -0.3116
 1122BOLB   C2C26922  13.231  15.319   6.867  0.2128 -0.3465  0.4844
 1122BOLB   C3C26923  13.109  14.736   6.806  0.2444 -0.1115  0.1177
 1122BOLB   C4C26924  12.966  14.435   7.052 -0.4186 -0.1942 -0.2172
 1122BOLB   C1D26925  12.550  15.469   6.800 -0.2679 -0.0999  0.2767
 1122BOLB   C2D26926  12.692  15.465   7.221 -0.1582 -0.2032 -0.2428
 1122BOLB   C3D26927  13.134  15.607   7.269  0.0829 -0.0762  0.3595
 1122BOLB   C4D26928  13.497  15.556   7.540  0.1306 -0.0015 -0.2112
 1123BOLB   NC126929  21.080  16.753  18.319 -0.3828 -0.0688 -0.3667
 1123BOLB   PO126930  21.505  16.595  18.180  0.2066 -0.3443 -0.0935
 1123BOLB   GL126931  21.795  17.055  18.282  0.0744  0.1307 -0.1728
 1123BOLB   GL226932  22.096  17.054  18.423  0.3587 -0.0490  0.0424
 1123BOLB   C1A26933  21.790  17.468  18.505  0.3000  0.2996  0.0053
 1123BOLB   C2A26934  22.135  17.637  18.638  0.1453 -0.3375 -0.0784
 1123BOLB   C3A26935  22.557  17.643  18.821  0.0245  0.0403  0.0399
 1123BOLB   C4A26936  22.939  17.760  18.988 -0.1825  0.1503  0.0131
 1123BOLB   C1B26937  22.507  17.299  18.310  0.2684 -0.0158 -0.0341
 1123BOLB   C2B26938  22.625  17.717  18.321  0.0814 -0.1985  0.1449
 1123BOLB   C3B26939  22.373  18.128  18.458 -0.2587 -0.1600 -0.0146
 1123BOLB   C4B26940  22.618  18.434  18.622 -0.1174  0.1781 -0.0919
 1123BOLB   NC226941  24.461  20.113  19.438 -0.2849  0.3490 -0.2374
 1123BOLB   PO226942  24.509  19.676  19.115 -0.1208 -0.2379 -0.3937
 1123BOLB   GL326943  24.179  19.461  18.908 -0.0018  0.1347 -0.6566
 1123BOLB   GL426944  23.997  19.665  18.712 -0.0189 -0.0009 -0.1934
 1123BOLB   C1C26945  23.780  19.186  18.888 -0.1600 -0.2061  0.1530
 1123BOLB   C2C26946  23.508  18.891  18.860  0.0403  0.2937 -0.0846
 1123BOLB   C3C26947  23.318  18.483  18.970 -0.0369 -0.1135 -0.2483
 1123BOLB   C4C26948  23.015  18.197  18.845  0.3656 -0.0793  0.2853
 1123BOLB   C1D26949  23.609  19.525  18.542  0.1053  0.1784  0.3375
 1123BOLB   C2D26950  23.481  19.173  18.427  0.1614  0.0637 -0.0023
 1123BOLB   C3D26951  23.648  18.811  18.383 -0.1975 -0.0466  0.1858
 1123BOLB   C4D26952  23.507  18.496  18.390 -0.0804  0.3109  0.4016
 1124BOLB   NC126953  21.341  14.463  11.747 -0.2252  0.0974  0.1706
 1124BOLB   PO126954  21.433  14.296  11.344  0.0772  0.1776  0.1520
 1124BOLB   GL126955  21.894  14.496  11.402  0.3655  0.0454  0.1672
 1124BOLB   GL226956  22.043  14.562  11.644  0.0435 -0.2004  0.0663
 1124BOLB   C1A26957  22.115  14.810  11.034 -0.2754 -0.3569 -0.4042
 1124BOLB   C2A26958  22.428  14.873  10.750 -0.1760  0.0640  0.1895
 1124BOLB   C3A26959  22.583  15.250  10.538 -0.1712  0.2234 -0.1074
 1124BOLB   C4A26960  22.963  15.429  10.400 -0.0957 -0.0877 -0.1406
 1124BOLB   C1B26961  22.427  14.716  11.425  0.0694  0.0963  0.2393
 1124BOLB   C2B26962  22.425  15.145  11.240  0.0999  0.0945 -0.0787
 1124BOLB   C3B26963  22.047  15.348  11.356  0.1916  0.0647  0.1550
 1124BOLB   C4B26964  21.685  15.339  11.487  0.2022  0.2239  0.1827
 1124BOLB   NC226965  24.738  16.446   9.799 -0.0640 -0.1346 -0.2635
 1124BOLB   PO226966  24.482  16.145   9.612 -0.0449  0.1493 -0.1174
 1124BOLB   GL326967  24.542  15.872   9.892  0.4186  0.2942 -0.1126
 1124BOLB   GL426968  24.587  15.597   9.781 -0.3167  0.2097  0.0598
 1124BOLB   C1C26969  24.332  15.813  10.166  0.0274 -0.2830  0.0533
 1124BOLB   C2C26970  24.018  15.913  10.445  0.0337  0.1429  0.1936
 1124BOLB   C3C26971  23.694  15.825  10.524  0.2836 -0.0404  0.0553
 1124BOLB   C4C26972  23.356  15.651  10.356  0.1793  0.0097 -0.1840
 1124BOLB   C1D26973  24.195  15.386   9.857 -0.2598  0.1480  0.0314
 1124BOLB   C2D26974  23.916  15.324  10.202  0.0714  0.2996 -0.0096
 1124BOLB   C3D26975  23.672  15.218  10.574 -0.0179 -0.1823 -0.0258
 1124BOLB   C4D26976  23.324  15.083  10.690  0.3455  0.3303 -0.1963
 1125BOLB   NC126977  12.750  11.171  22.590  0.2529 -0.0792 -0.1708
 1125BOLB   PO126978  12.472  11.468  22.444  0.0787 -0.0972  0.1346
 1125BOLB   GL126979  12.419  11.441  22.876 -0.1567  0.0024 -0.2246
 1125BOLB   GL226980  12.367  11.792  22.880  0.3939  0.0372  0.1349
 1125BOLB   C1A26981  12.203  11.392  23.234 -0.2131  0.1438  0.1148
 1125BOLB   C2A26982  12.054  11.481  23.604 -0.1634 -0.0565  0.1373
 1125BOLB   C3A26983  11.898  11.316  24.063  0.3052  0.0806  0.2123
 1125BOLB   C4A26984  12.046  11.544  24.367  0.0274 -0.0447  0.1850
 1125BOLB   C1B26985  12.252  11.858  23.357  0.3306  0.3185  0.0495
 1125BOLB   C2B26986  11.893  11.969  23.647 -0.0898  0.4905 -0.0445
 1125BOLB   C3B26987  11.772  11.938  24.106 -0.0660 -0.0862 -0.0204
 1125BOLB   C4B26988  11.368  12.070  24.325  0.0932 -0.0830 -0.3480
 1125BOLB   NC226989  11.985  10.113  26.392  0.1539  0.0150 -0.1591
 1125BOLB   PO226990  12.023  10.550  26.416 -0.2593  0.1162 -0.0517
 1125BOLB   GL326991  12.320  10.743  26.210  0.0182  0.0446  0.0185
 1125BOLB   GL426992  12.579  10.649  26.195  0.0214  0.1393  0.0175
 1125BOLB   C1C26993  12.283  10.947  25.769  0.1402 -0.0420  0.2705
 1125BOLB   C2C26994  12.397  10.855  25.349  0.0752  0.1966 -0.1104
 1125BOLB   C3C26995  12.259  10.958  24.819 -0.0306  0.2627  0.2084
 1125BOLB   C4C26996  12.378  11.192  24.535 -0.0224 -0.3596  0.1042
 1125BOLB   C1D26997  12.703  10.603  25.691 -0.0862 -0.0737 -0.5523
 1125BOLB   C2D26998  12.696  10.425  25.272  0.2921  0.2100 -0.0060
 1125BOLB   C3D26999  12.601  10.556  24.854 -0.3546  0.2480  0.0518
 1125BOLB   C4D27000  12.671  10.777  24.490  0.0166  0.0321  0.0805
 1126BOLB   NC127001   3.121   2.086  11.286 -0.0631 -0.2654 -0.0199
 1126BOLB   PO127002   2.981   2.445  11.470  0.2065 -0.3304  0.3021
 1126BOLB   GL127003   3.338   2.422  11.672  0.1308  0.0354  0.0029
 1126BOLB   GL227004   3.453   2.108  11.602  0.0087 -0.1121 -0.4517
 1126BOLB   C1A27005   3.693   2.743  11.871 -0.2914 -0.2001  0.0106
 1126BOLB   C2A27006   4.089   2.710  12.279  0.1807 -0.2155  0.2808
 1126BOLB   C3A27007   3.956   2.654  12.803  0.2069  0.2302  0.4732
 1126BOLB   C4A27008   3.664   2.700  13.134  0.0094 -0.0103 -0.1008
 1126BOLB   C1B27009   3.735   2.043  11.866  0.0111 -0.3848 -0.1394
 1126BOLB   C2B27010   4.013   2.376  11.875  0.0384 -0.1112  0.1174
 1126BOLB   C3B27011   4.417   2.483  11.886  0.2681  0.2825  0.1067
 1126BOLB   C4B27012   4.481   2.912  11.860 -0.2353 -0.1391  0.0805
 1126BOLB   NC227013   2.449   2.001  11.722 -0.4253  0.3471  0.1274
 1126BOLB   PO227014   2.073   2.256  11.723 -0.0196  0.0117  0.1943
 1126BOLB   GL327015   2.140   2.724  11.844  0.2073  0.1333  0.0050
 1126BOLB   GL427016   2.362   2.961  11.696 -0.0397  0.1804 -0.1673
 1126BOLB   C1C27017   2.422   2.851  12.252  0.0516 -0.0528 -0.1736
 1126BOLB   C2C27018   2.592   2.834  12.681 -0.1002  0.1534 -0.2658
 1126BOLB   C3C27019   2.858   2.614  12.902 -0.0681  0.1666  0.0234
 1126BOLB   C4C27020   3.172   2.630  13.148  0.2252 -0.1208  0.2920
 1126BOLB   C1D27021   2.767   2.996  11.813  0.0358  0.0139 -0.1541
 1126BOLB   C2D27022   3.144   2.894  11.983 -0.3376  0.3867  0.0326
 1126BOLB   C3D27023   3.377   2.776  12.400  0.2938  0.0915  0.1556
 1126BOLB   C4D27024   3.343   2.483  12.680 -0.1369 -0.1344  0.0344
 1127BOLB   NC127025  16.061  16.446  21.151  0.3442  0.3106  0.0835
 1127BOLB   PO127026  16.059  16.278  21.564 -0.2031 -0.1779 -0.0026
 1127BOLB   GL127027  16.137  16.622  21.666 -0.2712  0.0579  0.0946
 1127BOLB   GL227028  16.461  16.760  21.697 -0.2309 -0.1360  0.1998
 1127BOLB   C1A27029  15.863  16.999  21.855 -0.2132 -0.0511  0.4230
 1127BOLB   C2A27030  15.908  17.409  21.914 -0.0080  0.4215  0.0545
 1127BOLB   C3A27031  15.808  17.755  22.139  0.0633 -0.0789  0.1243
 1127BOLB   C4A27032  15.794  17.884  22.489  0.0721  0.2303 -0.2172
 1127BOLB   C1B27033  16.362  17.153  22.010 -0.3163  0.1269 -0.4679
 1127BOLB   C2B27034  16.313  17.435  22.306 -0.0915  0.0514 -0.2276
 1127BOLB   C3B27035  16.171  17.618  22.633 -0.0235  0.1173 -0.1451
 1127BOLB   C4B27036  16.392  17.786  22.960 -0.1941  0.2392 -0.0202
 1127BOLB   NC227037  15.966  18.901  24.841  0.0365 -0.0662 -0.1539
 1127BOLB   PO227038  16.327  19.004  24.710  0.0252 -0.1156  0.3028
 1127BOLB   GL327039  16.250  18.865  24.328 -0.0952 -0.1665 -0.0911
 1127BOLB   GL427040  15.946  18.769  24.274  0.1081  0.1421  0.0199
 1127BOLB   C1C27041  16.410  18.553  24.018  0.1962  0.2943 -0.0258
 1127BOLB   C2C27042  16.274  18.326  23.642 -0.0921  0.0758 -0.0204
 1127BOLB   C3C27043  16.189  18.206  23.174  0.1003 -0.1330  0.0840
 1127BOLB   C4C27044  15.997  18.126  22.843  0.1874 -0.0462  0.3920
 1127BOLB   C1D27045  15.889  18.423  24.078 -0.0027 -0.0595  0.0107
 1127BOLB   C2D27046  15.782  18.244  23.654 -0.0109 -0.1447 -0.3128
 1127BOLB   C3D27047  15.944  17.949  23.434  0.0510  0.0635  0.0064
 1127BOLB   C4D27048  15.896  17.662  23.149  0.3378 -0.1705 -0.3110
 1128BOLB   NC127049  22.963  15.902  17.755  0.0569 -0.0381  0.3633
 1128BOLB   PO127050  22.479  15.872  17.826  0.0429 -0.1351  0.1624
 1128BOLB   GL127051  22.660  16.272  18.106 -0.0170  0.0620 -0.2120
 1128BOLB   GL227052  22.954  16.267  18.079 -0.1346 -0.2062  0.0960
 1128BOLB   C1A27053  22.807  16.759  18.128  0.0386 -0.1011 -0.0075
 1128BOLB   C2A27054  22.950  16.995  18.362  0.1338  0.5312 -0.1630
 1128BOLB   C3A27055  23.020  17.376  18.453  0.0436 -0.0672  0.2128
 1128BOLB   C4A27056  23.078  17.852  18.526  0.1424  0.0347 -0.1000
 1128BOLB   C1B27057  23.320  16.318  18.288  0.0054 -0.0926 -0.0634
 1128BOLB   C2B27058  23.764  16.543  18.327  0.1162  0.0267 -0.3256
 1128BOLB   C3B27059  24.087  16.777  18.422  0.1005 -0.1064  0.3267
 1128BOLB   C4B27060  24.540  16.806  18.479 -0.0308 -0.1140  0.1452
 1128BOLB   NC227061  24.708  20.295  18.606 -0.0488  0.0468 -0.1543
 1128BOLB   PO227062  24.377  19.936  18.689  0.0351 -0.1126 -0.0676
 1128BOLB   GL327063  24.273  19.447  18.409  0.2362 -0.0386 -0.0082
 1128BOLB   GL427064  24.233  19.332  18.099 -0.5153 -0.1192  0.3992
 1128BOLB   C1C27065  24.073  19.002  18.502 -0.1083 -0.1029  0.0383
 1128BOLB   C2C27066  23.999  18.711  18.749  0.1643 -0.2240 -0.2797
 1128BOLB   C3C27067  23.784  18.303  18.737  0.1816  0.0935 -0.1372
 1128BOLB   C4C27068  23.502  18.052  18.575 -0.3176  0.4339 -0.3126
 1128BOLB   C1D27069  23.965  18.977  18.040  0.0335  0.2858 -0.2647
 1128BOLB   C2D27070  23.852  18.610  17.930 -0.2020 -0.2670 -0.0922
 1128BOLB   C3D27071  23.950  18.285  17.805  0.2251 -0.0544 -0.0211
 1128BOLB   C4D27072  24.047  18.232  17.450 -0.1731  0.5060 -0.4666
 1129BOLB   NC127073  18.842   8.891   8.914 -0.0229  0.0036 -0.1145
 1129BOLB   PO127074  18.679   9.220   8.619 -0.2321  0.0471  0.1230
 1129BOLB   GL127075  18.656   9.097   8.168 -0.2872  0.0479  0.2204
 1129BOLB   GL227076  19.018   9.224   7.989  0.4781  0.4533 -0.2682
 1129BOLB   C1A27077  18.504   8.981   7.705 -0.1255  0.1158  0.4500
 1129BOLB   C2A27078  18.240   9.315   7.313  0.1810 -0.0304  0.3393
 1129BOLB   C3A27079  17.924   9.390   6.894 -0.0001 -0.2712  0.0985
 1129BOLB   C4A27080  17.766   9.308   6.538  0.1832 -0.0176  0.1324
 1129BOLB   C1B27081  19.279   8.892   8.021  0.1546  0.4898 -0.0252
 1129BOLB   C2B27082  19.628   8.786   7.916 -0.0943 -0.0192 -0.2926
 1129BOLB   C3B27083  19.924   9.139   7.820  0.3578 -0.0215  0.0386
 1129BOLB   C4B27084  19.944   9.616   7.938 -0.3262 -0.0537  0.0544
 1129BOLB   NC227085  18.448   8.961   3.641 -0.1647 -0.0229  0.0440
 1129BOLB   PO227086  18.578   9.180   4.087  0.1637 -0.1429 -0.4071
 1129BOLB   GL327087  18.349   9.213   4.404 -0.3065  0.1085  0.1896
 1129BOLB   GL427088  18.059   9.238   4.382  0.0781  0.0726  0.2134
 1129BOLB   C1C27089  18.236   9.433   4.814 -0.0854  0.0626 -0.2581
 1129BOLB   C2C27090  18.076   9.294   5.183 -0.1196  0.1390  0.2546
 1129BOLB   C3C27091  17.910   9.164   5.555 -0.0049  0.0016  0.0062
 1129BOLB   C4C27092  17.837   9.264   6.026  0.0559 -0.2364  0.0930
 1129BOLB   C1D27093  17.707   9.288   4.769 -0.2521  0.0953 -0.0817
 1129BOLB   C2D27094  17.498   9.253   5.095  0.0024  0.0008 -0.2887
 1129BOLB   C3D27095  17.196   9.108   5.328 -0.1181 -0.3068 -0.3630
 1129BOLB   C4D27096  16.680   9.323   5.410  0.1402  0.1614 -0.0309
 1130BOLB   NC127097  20.630  14.121  21.464 -0.0837 -0.4983 -0.2875
 1130BOLB   PO127098  20.345  14.336  21.724  0.0712  0.1895 -0.1751
 1130BOLB   GL127099  20.662  14.454  21.960  0.0536 -0.1726 -0.1237
 1130BOLB   GL227100  21.010  14.528  21.870 -0.4747  0.1038  0.3624
 1130BOLB   C1A27101  20.861  14.814  22.179 -0.1885  0.2730  0.0790
 1130BOLB   C2A27102  21.132  15.105  22.400  0.1762 -0.3031 -0.0287
 1130BOLB   C3A27103  21.348  15.433  22.517  0.1182 -0.0934  0.1121
 1130BOLB   C4A27104  21.453  15.740  22.771  0.1009 -0.0495  0.2553
 1130BOLB   C1B27105  21.288  14.934  21.978  0.1306  0.0243  0.0144
 1130BOLB   C2B27106  21.654  15.047  21.914  0.2600 -0.1500  0.1458
 1130BOLB   C3B27107  22.042  14.978  22.001 -0.2859  0.0799 -0.2115
 1130BOLB   C4B27108  22.413  15.208  22.180 -0.1218 -0.3536 -0.0920
 1130BOLB   NC227109  23.018  17.576  24.072  0.0606 -0.0889 -0.0428
 1130BOLB   PO227110  22.817  17.222  24.007 -0.1454 -0.0506 -0.3086
 1130BOLB   GL327111  22.627  16.965  23.731  0.0776 -0.1358 -0.1210
 1130BOLB   GL427112  22.784  16.627  23.660  0.2447 -0.2424  0.0295
 1130BOLB   C1C27113  22.386  16.873  23.356 -0.0626  0.0969  0.0721
 1130BOLB   C2C27114  22.021  16.666  23.273 -0.0411  0.1697  0.0145
 1130BOLB   C3C27115  21.940  16.244  23.182 -0.1415 -0.1318 -0.1527
 1130BOLB   C4C27116  21.707  16.054  22.951 -0.2253  0.0611  0.0274
 1130BOLB   C1D27117  22.390  16.488  23.648 -0.0735  0.3398  0.2141
 1130BOLB   C2D27118  22.211  16.134  23.507  0.1932 -0.1278 -0.0541
 1130BOLB   C3D27119  22.246  15.774  23.486  0.1314 -0.2431  0.3312
 1130BOLB   C4D27120  21.959  15.655  23.189  0.0960 -0.0923 -0.1230
 1131BOLB   NC127121  18.346   5.303  21.502 -0.3527  0.0172 -0.2003
 1131BOLB   PO127122  18.741   5.230  21.527 -0.3472  0.4512  0.2162
 1131BOLB   GL127123  18.634   4.844  21.668  0.1179 -0.0190  0.1712
 1131BOLB   GL227124  18.343   4.920  21.847  0.1390  0.0455  0.0422
 1131BOLB   C1A27125  18.769   4.421  21.876  0.3326 -0.1375 -0.0262
 1131BOLB   C2A27126  18.933   4.129  22.150 -0.1323  0.2706  0.0926
 1131BOLB   C3A27127  19.010   3.934  22.501  0.0375  0.0129 -0.1067
 1131BOLB   C4A27128  19.316   3.983  22.663 -0.1644 -0.5171 -0.2293
 1131BOLB   C1B27129  18.410   4.743  22.138 -0.1013 -0.1404 -0.3284
 1131BOLB   C2B27130  18.441   4.205  22.322  0.0059 -0.1543 -0.4622
 1131BOLB   C3B27131  18.389   3.884  22.574 -0.0867  0.1957  0.4324
 1131BOLB   C4B27132  18.376   3.863  23.010  0.1858  0.1083  0.1457
 1131BOLB   NC227133  20.808   2.868  23.992 -0.1078 -0.1171  0.3047
 1131BOLB   PO227134  21.081   3.129  24.249  0.1653 -0.0173  0.0902
 1131BOLB   GL327135  20.838   3.462  23.948 -0.1020  0.0471  0.0457
 1131BOLB   GL427136  20.635   3.400  23.734 -0.0848  0.2356 -0.1187
 1131BOLB   C1C27137  20.786   3.932  23.755  0.0524 -0.0304 -0.1309
 1131BOLB   C2C27138  20.410   4.036  23.476  0.0917 -0.0150  0.4490
 1131BOLB   C3C27139  20.021   3.923  23.063  0.1531  0.1948  0.0107
 1131BOLB   C4C27140  19.726   3.963  22.703  0.0057 -0.1059 -0.0697
 1131BOLB   C1D27141  20.242   3.238  23.518  0.2719 -0.0574 -0.1281
 1131BOLB   C2D27142  19.883   2.994  23.260  0.2236  0.0864  0.1421
 1131BOLB   C3D27143  19.484   3.172  23.128  0.2068 -0.1533 -0.2100
 1131BOLB   C4D27144  19.109   3.074  22.916  0.0756 -0.0212 -0.0328
 1132BOLB   NC127145   8.968  12.558  15.100  0.4789  0.1073 -0.0095
 1132BOLB   PO127146   8.635  12.661  14.748 -0.2627 -0.0702  0.0780
 1132BOLB   GL127147   8.319  12.687  14.430 -0.0529 -0.2247  0.2074
 1132BOLB   GL227148   8.248  12.489  14.191 -0.0155 -0.0288  0.1400
 1132BOLB   C1A27149   7.966  13.036  14.537  0.2406  0.0770 -0.1059
 1132BOLB   C2A27150   8.047  13.297  14.857  0.1554  0.0494  0.2471
 1132BOLB   C3A27151   7.814  13.611  14.856  0.0586  0.0992 -0.2203
 1132BOLB   C4A27152   7.467  13.948  14.622 -0.1352  0.2296 -0.2411
 1132BOLB   C1B27153   7.888  12.486  14.553 -0.0300  0.0279 -0.1698
 1132BOLB   C2B27154   7.573  12.750  14.667 -0.1179 -0.1662  0.3653
 1132BOLB   C3B27155   7.315  13.104  14.542 -0.0373  0.0283 -0.0151
 1132BOLB   C4B27156   7.584  13.441  14.360 -0.0834  0.0996  0.0538
 1132BOLB   NC227157   5.642  15.785  13.465 -0.0544 -0.1560 -0.2842
 1132BOLB   PO227158   5.630  15.662  13.849  0.0097  0.3446  0.0727
 1132BOLB   GL327159   6.028  15.432  13.971 -0.3233  0.3666  0.1868
 1132BOLB   GL427160   6.117  15.368  14.249  0.0494 -0.0247 -0.0248
 1132BOLB   C1C27161   6.519  15.381  13.885 -0.0114 -0.0777  0.3141
 1132BOLB   C2C27162   6.843  15.123  14.049  0.1469  0.1604 -0.0577
 1132BOLB   C3C27163   6.968  14.705  14.249 -0.1703 -0.0791 -0.2633
 1132BOLB   C4C27164   7.176  14.397  14.484  0.3305 -0.0805  0.1372
 1132BOLB   C1D27165   6.397  14.935  14.276 -0.0089  0.3024 -0.2365
 1132BOLB   C2D27166   6.631  14.700  14.616 -0.3683  0.2716 -0.0982
 1132BOLB   C3D27167   6.614  14.356  14.980  0.1543  0.1152  0.2036
 1132BOLB   C4D27168   6.892  14.164  15.197 -0.0015  0.0616  0.0799
 1133BOLB   NC127169  20.617   7.177  21.138 -0.0175  0.2542  0.3830
 1133BOLB   PO127170  20.680   6.950  21.454 -0.2730 -0.1606 -0.0695
 1133BOLB   GL127171  20.783   6.694  21.858 -0.0669 -0.2565 -0.0646
 1133BOLB   GL227172  20.700   6.790  22.156  0.0890  0.2787 -0.0727
 1133BOLB   C1A27173  20.937   6.189  22.005 -0.1787 -0.0019  0.0956
 1133BOLB   C2A27174  21.061   5.905  22.354  0.1970  0.1928  0.1403
 1133BOLB   C3A27175  21.412   5.890  22.683 -0.1365  0.2722 -0.0061
 1133BOLB   C4A27176  21.763   6.055  22.833 -0.3898  0.1178 -0.1679
 1133BOLB   C1B27177  20.954   6.521  22.391 -0.1426  0.1399  0.1262
 1133BOLB   C2B27178  21.374   6.286  22.325  0.0639 -0.1267 -0.0133
 1133BOLB   C3B27179  21.792   6.044  22.295 -0.0450 -0.0004 -0.2245
 1133BOLB   C4B27180  21.986   5.748  22.530  0.1825  0.2198  0.0776
 1133BOLB   NC227181  23.486   5.399  24.220  0.4882  0.0402  0.0072
 1133BOLB   PO227182  23.739   5.711  24.183  0.2082 -0.0578 -0.0970
 1133BOLB   GL327183  23.368   5.755  23.951  0.0941  0.1067  0.1920
 1133BOLB   GL427184  23.143   5.564  23.847 -0.0256 -0.1720 -0.2616
 1133BOLB   C1C27185  23.253   5.822  23.433 -0.2737 -0.1452  0.0207
 1133BOLB   C2C27186  22.995   5.995  23.212  0.1442 -0.0292 -0.2669
 1133BOLB   C3C27187  22.624   6.235  23.088 -0.1346  0.0475 -0.0371
 1133BOLB   C4C27188  22.185   6.079  23.053 -0.2933 -0.1955  0.1287
 1133BOLB   C1D27189  22.814   5.885  23.736  0.1521 -0.3177 -0.0242
 1133BOLB   C2D27190  22.441   6.219  23.658  0.2033 -0.1259  0.0275
 1133BOLB   C3D27191  22.112   6.367  23.438 -0.3179  0.1370  0.4856
 1133BOLB   C4D27192  21.840   6.515  23.101 -0.2443 -0.0500 -0.0325
 1134BOLB   NC127193  22.661   7.824  11.871 -0.2148 -0.3538 -0.0175
 1134BOLB   PO127194  22.659   7.968  11.496  0.2181 -0.1034  0.0141
 1134BOLB   GL127195  23.089   7.907  11.183  0.0073  0.1503  0.0324
 1134BOLB   GL227196  23.091   7.607  11.282 -0.0887 -0.1435 -0.0621
 1134BOLB   C1A27197  23.412   7.789  10.845 -0.0203 -0.2705 -0.1767
 1134BOLB   C2A27198  23.774   7.657  10.729 -0.1615 -0.1691 -0.0605
 1134BOLB   C3A27199  24.236   7.728  10.676  0.0018 -0.1914 -0.0315
 1134BOLB   C4A27200  24.578   7.701  10.317  0.0751 -0.1019  0.1273
 1134BOLB   C1B27201  23.408   7.358  11.123  0.0801 -0.2003  0.0483
 1134BOLB   C2B27202  23.807   7.235  11.131 -0.4414 -0.2343  0.2236
 1134BOLB   C3B27203  24.079   6.875  11.116 -0.0607 -0.0936  0.3003
 1134BOLB   C4B27204  24.258   6.561  11.192  0.0371 -0.2324  0.0244
 1134BOLB   NC227205  26.537   8.074   9.269  0.1030 -0.3758  0.1025
 1134BOLB   PO227206  26.444   8.453   9.098 -0.1458 -0.0699 -0.0571
 1134BOLB   GL327207  26.198   8.381   9.502  0.1823 -0.0311  0.0013
 1134BOLB   GL427208  26.044   8.648   9.663 -0.0318  0.4409 -0.2316
 1134BOLB   C1C27209  26.017   8.211   9.886  0.2255  0.0570 -0.0199
 1134BOLB   C2C27210  25.692   8.105   9.995 -0.2686 -0.2703  0.1913
 1134BOLB   C3C27211  25.316   8.002   9.949  0.2751  0.1609 -0.1180
 1134BOLB   C4C27212  24.903   7.958  10.096 -0.0222 -0.0061 -0.2731
 1134BOLB   C1D27213  25.724   8.656   9.979  0.1565  0.0960  0.1780
 1134BOLB   C2D27214  25.341   8.616  10.127 -0.0722 -0.0019 -0.1207
 1134BOLB   C3D27215  25.188   8.933  10.461 -0.0601  0.0006  0.2520
 1134BOLB   C4D27216  25.093   9.408  10.342 -0.1240  0.3714 -0.0466
 1135BOLB   NC127217  21.904  15.822  19.169  0.0435  0.0662  0.1178
 1135BOLB   PO127218  21.654  16.090  18.907 -0.0471  0.0754 -0.1956
 1135BOLB   GL127219  21.914  16.324  19.127  0.3651 -0.1884  0.1555
 1135BOLB   GL227220  22.016  16.640  18.935  0.2292  0.2284 -0.2773
 1135BOLB   C1A27221  22.110  16.569  19.447  0.3316  0.1084 -0.1483
 1135BOLB   C2A27222  22.347  16.841  19.537 -0.0866  0.1020 -0.0451
 1135BOLB   C3A27223  22.629  17.169  19.664 -0.1588 -0.1117  0.0278
 1135BOLB   C4A27224  22.830  17.581  19.793  0.4387  0.0044 -0.4005
 1135BOLB   C1B27225  22.266  16.972  19.061 -0.0262 -0.1606 -0.3138
 1135BOLB   C2B27226  22.480  17.265  19.187  0.0431  0.1938 -0.3348
 1135BOLB   C3B27227  22.580  17.684  19.370  0.0844 -0.1227  0.0462
 1135BOLB   C4B27228  22.800  18.041  19.457 -0.1015 -0.4133  0.2306
 1135BOLB   NC227229  24.399  18.757  21.157  0.1590 -0.2702  0.4391
 1135BOLB   PO227230  24.071  18.941  20.861  0.0810 -0.0183 -0.0889
 1135BOLB   GL327231  23.844  18.643  20.748  0.1143  0.2333  0.0310
 1135BOLB   GL427232  23.848  18.515  21.073 -0.1455 -0.2976 -0.2180
 1135BOLB   C1C27233  23.554  18.473  20.573 -0.2241 -0.2423 -0.0370
 1135BOLB   C2C27234  23.082  18.455  20.477  0.0653 -0.1029  0.0605
 1135BOLB   C3C27235  22.812  18.289  20.307 -0.1576  0.0280 -0.1888
 1135BOLB   C4C27236  22.768  17.949  20.051 -0.1186 -0.0097 -0.0485
 1135BOLB   C1D27237  23.600  18.191  20.993  0.1573 -0.0225  0.2931
 1135BOLB   C2D27238  23.178  18.107  20.842  0.3072  0.0142  0.0522
 1135BOLB   C3D27239  22.794  17.891  21.049  0.2199 -0.2803 -0.0356
 1135BOLB   C4D27240  22.401  17.672  20.920 -0.0693 -0.0788 -0.0441
 1136BOLB   NC127241  10.713  11.768  21.252 -0.1455  0.0132 -0.0909
 1136BOLB   PO127242  10.708  12.242  21.258 -0.0554 -0.0278  0.1124
 1136BOLB   GL127243  10.510  12.534  21.535  0.1469  0.0432 -0.1513
 1136BOLB   GL227244  10.310  12.722  21.454  0.0762  0.1470 -0.1585
 1136BOLB   C1A27245  10.539  12.732  21.868  0.1740 -0.2680  0.1778
 1136BOLB   C2A27246  10.309  12.756  22.336  0.1642  0.1496  0.2605
 1136BOLB   C3A27247  10.179  12.796  22.659 -0.1732 -0.1873 -0.0904
 1136BOLB   C4A27248  10.131  13.135  22.891 -0.1208  0.0666 -0.0328
 1136BOLB   C1B27249  10.035  12.869  21.770 -0.1107 -0.0239  0.0122
 1136BOLB   C2B27250   9.697  13.106  21.888 -0.0265 -0.3972  0.0559
 1136BOLB   C3B27251   9.378  12.926  22.183 -0.2093  0.0753 -0.1749
 1136BOLB   C4B27252   8.990  13.000  22.269  0.0924  0.0728 -0.2015
 1136BOLB   NC227253   8.384  13.238  24.682 -0.2561  0.0066 -0.1638
 1136BOLB   PO227254   8.539  13.228  24.228 -0.0715 -0.1384 -0.1432
 1136BOLB   GL327255   8.500  13.159  23.840 -0.1552  0.3014 -0.0794
 1136BOLB   GL427256   8.453  12.858  23.844  0.0262 -0.2121  0.3852
 1136BOLB   C1C27257   8.683  13.452  23.550 -0.3583  0.1012  0.3655
 1136BOLB   C2C27258   9.135  13.601  23.459 -0.2331 -0.1373 -0.0673
 1136BOLB   C3C27259   9.492  13.640  23.277  0.2164 -0.1142 -0.0370
 1136BOLB   C4C27260   9.797  13.331  23.038 -0.0666 -0.0739  0.1533
 1136BOLB   C1D27261   8.610  12.631  23.558  0.0726 -0.0118 -0.5028
 1136BOLB   C2D27262   8.805  12.251  23.533  0.2039  0.2609 -0.1576
 1136BOLB   C3D27263   9.014  12.024  23.248  0.2259  0.0485 -0.1805
 1136BOLB   C4D27264   9.437  11.943  23.322  0.1664  0.2334 -0.1216
 1137BOLB   NC127265  12.431   5.493  21.268 -0.0069  0.0447  0.0544
 1137BOLB   PO127266  12.472   5.037  21.073 -0.1566  0.2414 -0.2638
 1137BOLB   GL127267  12.299   4.717  21.211 -0.3586 -0.0942  0.3137
 1137BOLB   GL227268  12.493   4.412  21.175 -0.1195 -0.1674  0.1046
 1137BOLB   C1A27269  12.198   4.657  21.691 -0.1213  0.1988 -0.0530
 1137BOLB   C2A27270  11.988   4.791  22.006 -0.1039 -0.0005  0.0423
 1137BOLB   C3A27271  11.584   4.661  22.109 -0.0277  0.2106  0.1079
 1137BOLB   C4A27272  11.307   4.649  22.492 -0.1365 -0.1900  0.3959
 1137BOLB   C1B27273  12.338   4.237  21.584  0.5038  0.5447  0.1048
 1137BOLB   C2B27274  12.124   4.253  22.038 -0.2115  0.0040  0.3511
 1137BOLB   C3B27275  11.927   4.308  22.342 -0.0320 -0.0940 -0.1839
 1137BOLB   C4B27276  11.646   4.402  22.690 -0.0456  0.0975  0.2376
 1137BOLB   NC227277   9.993   3.181  23.931  0.3605 -0.2029  0.1003
 1137BOLB   PO227278   9.723   3.556  24.001 -0.0156 -0.2016 -0.1888
 1137BOLB   GL327279  10.106   3.721  23.809  0.1491  0.0513  0.0946
 1137BOLB   GL427280  10.108   3.640  23.489  0.2606 -0.1191  0.0286
 1137BOLB   C1C27281  10.458   4.059  23.705 -0.2161 -0.2609  0.1579
 1137BOLB   C2C27282  10.548   4.432  23.292  0.0553 -0.4279 -0.3314
 1137BOLB   C3C27283  10.452   4.696  22.867 -0.1121  0.0429 -0.1842
 1137BOLB   C4C27284  10.796   4.651  22.512 -0.0837 -0.2084  0.0657
 1137BOLB   C1D27285   9.923   3.713  23.046  0.0252 -0.0890  0.1738
 1137BOLB   C2D27286   9.687   4.105  22.928  0.2000 -0.0566  0.0280
 1137BOLB   C3D27287   9.658   4.571  22.953  0.1006 -0.2129  0.2866
 1137BOLB   C4D27288   9.814   4.798  22.671 -0.3619 -0.1261  0.4008
 1138BOLB   NC127289  10.993   5.010  19.119  0.0843 -0.0806 -0.0498
 1138BOLB   PO127290  10.889   4.620  19.286  0.0118  0.2151  0.0023
 1138BOLB   GL127291  10.758   4.271  19.496  0.0763  0.0341 -0.0173
 1138BOLB   GL227292  11.024   3.990  19.686 -0.0975  0.0601  0.0840
 1138BOLB   C1A27293  10.490   4.135  19.795 -0.0967 -0.1954  0.1977
 1138BOLB   C2A27294  10.093   4.054  19.951  0.3213 -0.0725 -0.1704
 1138BOLB   C3A27295   9.760   4.193  20.315 -0.1176  0.2441  0.0774
 1138BOLB   C4A27296   9.701   3.941  20.662  0.4069  0.0411  0.0979
 1138BOLB   C1B27297  10.736   3.693  19.863  0.2212  0.2793  0.2515
 1138BOLB   C2B27298  10.353   3.534  20.072  0.1997  0.1425 -0.0680
 1138BOLB   C3B27299  10.030   3.651  20.339 -0.0033 -0.3452  0.2518
 1138BOLB   C4B27300   9.705   3.476  20.526 -0.1598  0.0600 -0.1230
 1138BOLB   NC227301   8.943   2.955  22.965 -0.0113  0.1375 -0.0764
 1138BOLB   PO227302   8.972   2.728  22.639  0.0365 -0.2405 -0.0409
 1138BOLB   GL327303   9.087   2.950  22.281 -0.0213 -0.0212 -0.2021
 1138BOLB   GL427304   9.381   2.757  22.311 -0.0619  0.0493 -0.3814
 1138BOLB   C1C27305   9.187   2.843  21.823  0.3316 -0.0310  0.2139
 1138BOLB   C2C27306   9.221   2.994  21.372  0.1739  0.1446  0.0757
 1138BOLB   C3C27307   9.360   3.362  21.216  0.0239  0.0274 -0.0736
 1138BOLB   C4C27308   9.419   3.696  20.857 -0.0918  0.1174  0.0980
 1138BOLB   C1D27309   9.491   3.156  22.112  0.0073 -0.4576  0.2792
 1138BOLB   C2D27310   9.627   3.594  22.245 -0.2281  0.2044  0.1558
 1138BOLB   C3D27311   9.875   3.860  22.500  0.1287  0.3214  0.0543
 1138BOLB   C4D27312  10.111   4.293  22.622  0.0081  0.1844  0.3342
 1139BOLB   NC127313  24.938   4.800  22.918 -0.0527 -0.1154  0.0748
 1139BOLB   PO127314  24.593   4.721  23.080  0.0758 -0.0377  0.4376
 1139BOLB   GL127315  24.247   4.622  22.948  0.2722 -0.1487 -0.0072
 1139BOLB   GL227316  24.094   4.388  22.739  0.1240  0.1129  0.1867
 1139BOLB   C1A27317  23.984   4.875  22.848  0.3400 -0.0843  0.1925
 1139BOLB   C2A27318  23.668   5.149  22.588  0.0418  0.0199 -0.0541
 1139BOLB   C3A27319  23.639   5.187  22.117  0.0135  0.1648 -0.0726
 1139BOLB   C4A27320  23.585   5.510  21.710  0.1058  0.0771  0.1461
 1139BOLB   C1B27321  24.099   4.612  22.353 -0.1754 -0.3133 -0.0505
 1139BOLB   C2B27322  24.087   5.028  22.336 -0.0299 -0.1246 -0.0535
 1139BOLB   C3B27323  24.115   5.383  22.625 -0.2461 -0.1147  0.0559
 1139BOLB   C4B27324  24.108   5.801  22.691  0.3548  0.0877  0.1955
 1139BOLB   NC227325  22.305   7.099  20.129 -0.2424 -0.2204 -0.2940
 1139BOLB   PO227326  22.180   7.109  20.495 -0.0730 -0.0708  0.2418
 1139BOLB   GL327327  22.316   6.879  20.802 -0.1311  0.2159  0.0033
 1139BOLB   GL427328  22.532   7.027  20.954  0.4964  0.0065 -0.2260
 1139BOLB   C1C27329  22.540   6.530  21.001 -0.1403  0.1928  0.0290
 1139BOLB   C2C27330  22.784   6.386  21.262  0.3115  0.2452 -0.4086
 1139BOLB   C3C27331  23.051   6.129  21.494  0.0360  0.0998  0.2172
 1139BOLB   C4C27332  23.322   5.790  21.503  0.0840 -0.0525 -0.0095
 1139BOLB   C1D27333  22.966   6.845  20.866 -0.2389  0.0228 -0.1440
 1139BOLB   C2D27334  23.235   6.526  21.251  0.0575 -0.3245  0.0571
 1139BOLB   C3D27335  23.555   6.267  21.431 -0.0810 -0.1429 -0.1957
 1139BOLB   C4D27336  23.746   5.815  21.286 -0.0454 -0.1734 -0.0366
 1140BOLB   NC127337   9.376   6.569  18.667 -0.0261 -0.1146  0.2829
 1140BOLB   PO127338   8.914   6.594  18.823 -0.1246  0.0826 -0.0889
 1140BOLB   GL127339   8.579   6.602  18.658 -0.1734 -0.1090 -0.2614
 1140BOLB   GL227340   8.479   6.369  18.383 -0.1574 -0.0184 -0.0158
 1140BOLB   C1A27341   8.125   6.287  18.699 -0.1238 -0.0542  0.0125
 1140BOLB   C2A27342   8.034   5.891  18.978 -0.1877  0.2229 -0.0538
 1140BOLB   C3A27343   7.754   5.722  19.267 -0.0731 -0.3330  0.0194
 1140BOLB   C4A27344   7.381   5.986  19.327 -0.1339  0.0439  0.0349
 1140BOLB   C1B27345   8.040   6.232  18.237  0.0371 -0.4334  0.1579
 1140BOLB   C2B27346   7.610   6.203  18.349  0.0373 -0.0533  0.4044
 1140BOLB   C3B27347   7.207   6.255  18.584  0.0068  0.3507  0.0351
 1140BOLB   C4B27348   6.899   6.457  18.826  0.1327 -0.2312  0.1611
 1140BOLB   NC227349   5.741   6.409  21.105 -0.1283  0.2766 -0.4168
 1140BOLB   PO227350   5.528   6.087  20.854  0.0428 -0.0920  0.3236
 1140BOLB   GL327351   5.849   6.231  20.601 -0.0707 -0.0360 -0.0824
 1140BOLB   GL427352   5.736   6.314  20.274  0.1164  0.3113 -0.2071
 1140BOLB   C1C27353   6.184   6.266  20.224 -0.0655 -0.0355  0.0052
 1140BOLB   C2C27354   6.444   6.159  19.868  0.1888 -0.0394 -0.1258
 1140BOLB   C3C27355   6.818   6.249  19.638 -0.0892  0.1424 -0.1160
 1140BOLB   C4C27356   7.042   6.188  19.316 -0.2183 -0.4703 -0.3978
 1140BOLB   C1D27357   5.750   6.121  19.820  0.1350  0.0094 -0.1038
 1140BOLB   C2D27358   6.048   6.140  19.530 -0.2342  0.2815  0.0609
 1140BOLB   C3D27359   6.278   6.336  19.171 -0.1414 -0.0342 -0.1946
 1140BOLB   C4D27360   6.503   6.641  19.018 -0.0626  0.1089 -0.2004
 1141BOLB   NC127361  10.971  16.809  17.000 -0.0837 -0.3160 -0.2160
 1141BOLB   PO127362  10.750  16.464  17.298  0.1296 -0.0189 -0.0753
 1141BOLB   GL127363  10.476  16.754  17.627  0.2011 -0.1048 -0.2070
 1141BOLB   GL227364  10.549  16.962  17.704  0.0654  0.1095 -0.0716
 1141BOLB   C1A27365  10.029  16.755  17.635 -0.2694 -0.0521  0.0110
 1141BOLB   C2A27366   9.685  16.894  17.948 -0.1718  0.1788 -0.1144
 1141BOLB   C3A27367   9.499  16.889  18.327 -0.0161  0.0336  0.4449
 1141BOLB   C4A27368   9.258  17.155  18.573  0.1234  0.0588 -0.0859
 1141BOLB   C1B27369  10.246  17.291  17.937  0.1671  0.1595 -0.1238
 1141BOLB   C2B27370   9.880  17.524  18.016 -0.4175  0.1268 -0.0679
 1141BOLB   C3B27371   9.574  17.378  18.276  0.0478  0.0565  0.1566
 1141BOLB   C4B27372   9.268  17.688  18.486  0.0981  0.1415 -0.0442
 1141BOLB   NC227373   7.467  18.309  20.304 -0.3674  0.1144 -0.0358
 1141BOLB   PO227374   7.513  17.949  20.073  0.2001  0.0707 -0.0919
 1141BOLB   GL327375   7.870  18.018  19.747  0.1188 -0.2397  0.3950
 1141BOLB   GL427376   8.098  18.236  19.784 -0.2913 -0.1299 -0.1376
 1141BOLB   C1C27377   8.271  17.829  19.536 -0.4004  0.0325  0.0061
 1141BOLB   C2C27378   8.598  17.620  19.502  0.0029 -0.0646  0.0536
 1141BOLB   C3C27379   8.861  17.494  19.204 -0.0188 -0.1632 -0.1422
 1141BOLB   C4C27380   9.186  17.391  18.923  0.0949  0.2375  0.4736
 1141BOLB   C1D27381   8.569  18.196  19.634 -0.2886 -0.1002  0.2781
 1141BOLB   C2D27382   8.915  17.981  19.363  0.1596 -0.0800  0.4466
 1141BOLB   C3D27383   9.112  17.917  18.994  0.1732 -0.0399  0.1764
 1141BOLB   C4D27384   9.539  18.078  18.700  0.1812  0.0195  0.1881
 1142BOLB   NC127385  20.214   5.768  20.912 -0.0222  0.2294  0.0986
 1142BOLB   PO127386  20.473   6.181  20.841  0.0315  0.1331 -0.1772
 1142BOLB   GL127387  20.613   5.876  21.187  0.2965  0.2199 -0.1129
 1142BOLB   GL227388  20.622   5.616  21.071  0.0657  0.0668 -0.0410
 1142BOLB   C1A27389  20.691   5.806  21.655 -0.0901 -0.3144  0.0880
 1142BOLB   C2A27390  20.731   5.583  22.035  0.2125  0.0129  0.0316
 1142BOLB   C3A27391  20.946   5.388  22.309  0.1756  0.3085  0.2792
 1142BOLB   C4A27392  21.073   5.319  22.720  0.0500  0.3334 -0.1866
 1142BOLB   C1B27393  20.959   5.472  21.359  0.2360 -0.0360  0.0604
 1142BOLB   C2B27394  21.201   5.394  21.665  0.1338  0.1545  0.0260
 1142BOLB   C3B27395  21.381   5.215  22.010 -0.1878  0.1384  0.1159
 1142BOLB   C4B27396  21.400   5.034  22.386  0.0920  0.2466 -0.0370
 1142BOLB   NC227397  22.125   3.767  24.090  0.2604  0.0603  0.1317
 1142BOLB   PO227398  22.205   4.177  24.233 -0.2856 -0.2298 -0.2184
 1142BOLB   GL327399  21.978   4.532  24.150  0.1024  0.2540 -0.3534
 1142BOLB   GL427400  21.661   4.470  24.239 -0.3262 -0.0612 -0.0640
 1142BOLB   C1C27401  21.887   4.860  23.952 -0.2249 -0.1382  0.0508
 1142BOLB   C2C27402  21.585   5.001  23.682 -0.2156 -0.0469  0.3535
 1142BOLB   C3C27403  21.129   5.063  23.562 -0.3305  0.0514  0.0246
 1142BOLB   C4C27404  20.912   5.260  23.176  0.3848 -0.0351 -0.2242
 1142BOLB   C1D27405  21.542   4.474  23.733 -0.0978  0.2327  0.1710
 1142BOLB   C2D27406  21.480   4.398  23.367 -0.5871 -0.0086 -0.1000
 1142BOLB   C3D27407  21.395   4.146  23.029 -0.4414 -0.2422 -0.0745
 1142BOLB   C4D27408  21.602   4.077  22.636 -0.0953  0.0529  0.2010
 1143BOLB   NC127409  18.340  17.821  19.399 -0.1820 -0.0921 -0.0542
 1143BOLB   PO127410  18.198  17.791  19.800 -0.0377 -0.2277 -0.0394
 1143BOLB   GL127411  18.377  17.888  20.114  0.0877  0.2188  0.0517
 1143BOLB   GL227412  18.427  17.636  20.250  0.3844  0.0773 -0.1061
 1143BOLB   C1A27413  18.458  18.245  20.286  0.2032 -0.1341 -0.1113
 1143BOLB   C2A27414  18.593  18.627  20.353  0.2258  0.1095 -0.1079
 1143BOLB   C3A27415  18.691  18.998  20.580  0.1430  0.1796  0.0157
 1143BOLB   C4A27416  18.721  19.333  20.634  0.3131  0.0448  0.0872
 1143BOLB   C1B27417  18.484  17.904  20.633 -0.0351  0.2370  0.0684
 1143BOLB   C2B27418  18.340  18.352  20.814  0.1404 -0.2066  0.4852
 1143BOLB   C3B27419  18.291  18.748  20.701 -0.0073  0.0296  0.0188
 1143BOLB   C4B27420  18.203  19.119  20.728 -0.0499  0.1304 -0.0556
 1143BOLB   NC227421  18.737  20.852  22.265 -0.0185 -0.0539  0.1778
 1143BOLB   PO227422  18.491  21.196  22.206  0.0247  0.2171 -0.1762
 1143BOLB   GL327423  18.600  20.911  21.803  0.1821 -0.0009 -0.2444
 1143BOLB   GL427424  18.309  20.609  21.944 -0.3714 -0.3863 -0.1402
 1143BOLB   C1C27425  18.463  20.697  21.456 -0.3147  0.1243  0.1331
 1143BOLB   C2C27426  18.365  20.259  21.364  0.2750 -0.2138  0.4113
 1143BOLB   C3C27427  18.372  20.027  21.099  0.1228  0.0869 -0.0896
 1143BOLB   C4C27428  18.344  19.663  20.816  0.2362  0.2660  0.1359
 1143BOLB   C1D27429  18.540  20.255  21.857 -0.3084 -0.1143  0.0288
 1143BOLB   C2D27430  18.546  19.784  21.719 -0.0301  0.1049 -0.0760
 1143BOLB   C3D27431  18.262  19.536  21.492 -0.1897  0.1301  0.2950
 1143BOLB   C4D27432  18.019  19.301  21.191 -0.1714 -0.0978 -0.0382
 1144BOLB   NC127433  20.910  17.306  17.764 -0.1105 -0.0202 -0.2179
 1144BOLB   PO127434  20.884  17.252  18.200 -0.0791 -0.1651 -0.3430
 1144BOLB   GL127435  20.948  17.604  18.517  0.0420 -0.1433 -0.0750
 1144BOLB   GL227436  20.783  17.830  18.603  0.0628  0.1857  0.0588
 1144BOLB   C1A27437  21.068  17.891  18.998 -0.0644  0.0480  0.0379
 1144BOLB   C2A27438  21.415  18.136  19.242  0.0033 -0.3148 -0.4301
 1144BOLB   C3A27439  21.768  18.360  19.294  0.1752  0.0450 -0.1568
 1144BOLB   C4A27440  22.129  18.574  19.112  0.3095 -0.0688  0.2098
 1144BOLB   C1B27441  20.500  18.148  18.587 -0.0578 -0.1088  0.0289
 1144BOLB   C2B27442  20.525  18.559  18.630  0.2679 -0.3502  0.1205
 1144BOLB   C3B27443  20.510  18.965  18.673 -0.3620  0.0921 -0.1950
 1144BOLB   C4B27444  20.377  19.359  18.814 -0.1593  0.1265 -0.0031
 1144BOLB   NC227445  22.626  20.307  19.969  0.0763  0.2289 -0.3251
 1144BOLB   PO227446  23.023  20.252  19.904 -0.0306 -0.1056 -0.0204
 1144BOLB   GL327447  22.810  19.954  19.674 -0.0450  0.1806  0.1246
 1144BOLB   GL427448  22.411  19.955  19.582  0.3094  0.2582  0.2244
 1144BOLB   C1C27449  22.766  19.925  19.227  0.1059 -0.0716 -0.1603
 1144BOLB   C2C27450  22.846  19.632  18.939  0.1023  0.0611 -0.5347
 1144BOLB   C3C27451  22.632  19.220  18.964  0.1444 -0.0630  0.0652
 1144BOLB   C4C27452  22.503  18.772  19.080  0.3104 -0.0908 -0.0691
 1144BOLB   C1D27453  22.430  19.577  19.402  0.1134  0.4327 -0.1206
 1144BOLB   C2D27454  22.358  19.209  19.508 -0.0468 -0.1597 -0.3435
 1144BOLB   C3D27455  22.620  18.923  19.613  0.0908 -0.1133 -0.2023
 1144BOLB   C4D27456  22.726  18.819  20.025  0.1545 -0.0708 -0.3200
 1145BOLB   NC127457  18.899   1.542  11.763  0.1542 -0.1070  0.1523
 1145BOLB   PO127458  18.737   1.688  11.456  0.1700 -0.3297  0.0604
 1145BOLB   GL127459  18.942   1.319  11.344  0.0455 -0.1900  0.2886
 1145BOLB   GL227460  18.636   1.173  11.217  0.0696  0.2019 -0.1212
 1145BOLB   C1A27461  19.359   1.035  11.309  0.2328 -0.2552 -0.1015
 1145BOLB   C2A27462  19.777   1.060  11.595 -0.3618  0.0847  0.0097
 1145BOLB   C3A27463  20.073   0.738  11.688  0.0575 -0.0336  0.2142
 1145BOLB   C4A27464  20.259   0.396  11.697 -0.0552 -0.1477  0.0174
 1145BOLB   C1B27465  18.336   0.849  11.026 -0.1778 -0.0966  0.2416
 1145BOLB   C2B27466  18.239   0.479  11.027  0.0263 -0.2313 -0.0231
 1145BOLB   C3B27467  18.121   0.106  10.896 -0.4272  0.2834  0.1616
 1145BOLB   C4B27468  18.258  -0.340  10.895 -0.0225 -0.0508  0.1108
 1145BOLB   NC227469  20.581  -1.418  10.833  0.0438  0.0467 -0.1507
 1145BOLB   PO227470  20.129  -1.474  11.034 -0.1967 -0.2031  0.2458
 1145BOLB   GL327471  20.285  -1.002  11.092 -0.0403  0.0302 -0.1277
 1145BOLB   GL427472  20.006  -0.893  11.297 -0.1228  0.1031 -0.0145
 1145BOLB   C1C27473  20.588  -0.855  11.381 -0.1089 -0.1225 -0.3754
 1145BOLB   C2C27474  20.658  -0.650  11.697  0.1646  0.0889 -0.1553
 1145BOLB   C3C27475  20.494  -0.209  11.822 -0.1387 -0.0184  0.2479
 1145BOLB   C4C27476  20.556   0.152  11.741 -0.3232 -0.3122 -0.2230
 1145BOLB   C1D27477  19.603  -0.876  11.187  0.0825 -0.1856  0.0838
 1145BOLB   C2D27478  19.304  -0.561  11.154  0.3988 -0.0493  0.2224
 1145BOLB   C3D27479  19.071  -0.242  11.084 -0.1617 -0.4076 -0.2703
 1145BOLB   C4D27480  19.131   0.230  10.999 -0.0740  0.0851  0.2304
 1146BOLB   NC127481  21.459  16.651  13.407  0.0133 -0.1552 -0.0518
 1146BOLB   PO127482  21.046  16.590  13.144 -0.0522 -0.1369 -0.1281
 1146BOLB   GL127483  21.047  16.895  13.250  0.1274  0.3823  0.4320
 1146BOLB   GL227484  21.240  16.980  12.986 -0.0298 -0.2723  0.0160
 1146BOLB   C1A27485  21.119  17.390  13.310 -0.1029  0.0360 -0.4589
 1146BOLB   C2A27486  21.531  17.606  13.243 -0.1649  0.1042  0.3149
 1146BOLB   C3A27487  21.820  17.994  13.182 -0.3942  0.1097 -0.0599
 1146BOLB   C4A27488  22.051  18.218  13.456 -0.0647 -0.0091  0.2559
 1146BOLB   C1B27489  20.999  17.198  12.700 -0.0054  0.1578 -0.0413
 1146BOLB   C2B27490  21.222  17.578  12.451 -0.1260 -0.1200  0.0398
 1146BOLB   C3B27491  21.337  17.740  12.072 -0.1328  0.0103  0.2567
 1146BOLB   C4B27492  21.377  18.168  11.800  0.1513 -0.0674  0.1225
 1146BOLB   NC227493  24.220  18.987  12.589 -0.2887  0.0060  0.1184
 1146BOLB   PO227494  24.474  19.083  12.966  0.0794 -0.3311 -0.2257
 1146BOLB   GL327495  24.075  18.890  13.132  0.1078  0.2213  0.1482
 1146BOLB   GL427496  23.967  18.572  13.101  0.1251 -0.1682 -0.0515
 1146BOLB   C1C27497  23.582  18.991  13.142 -0.3104  0.1468 -0.3937
 1146BOLB   C2C27498  23.093  18.891  13.236 -0.0851 -0.1169 -0.2887
 1146BOLB   C3C27499  22.801  18.543  13.196 -0.0399  0.1012 -0.2195
 1146BOLB   C4C27500  22.383  18.424  13.365 -0.1264 -0.0526 -0.4663
 1146BOLB   C1D27501  23.752  18.196  13.064 -0.1007  0.2510  0.0304
 1146BOLB   C2D27502  23.422  17.991  12.950 -0.0859 -0.0015 -0.4528
 1146BOLB   C3D27503  23.098  17.691  12.870  0.3717 -0.0391 -0.1255
 1146BOLB   C4D27504  22.636  17.579  12.710 -0.1505  0.2837  0.1491
 1147BOLB   NC127505  15.749  11.540   8.141  0.1544  0.0380 -0.0252
 1147BOLB   PO127506  15.527  11.448   7.804  0.0978  0.0147 -0.1035
 1147BOLB   GL127507  15.563  11.258   7.429  0.0890  0.0158  0.1768
 1147BOLB   GL227508  15.378  10.941   7.373 -0.0456 -0.2192  0.1747
 1147BOLB   C1A27509  15.646  11.242   6.985 -0.2611  0.0614 -0.0036
 1147BOLB   C2A27510  15.413  11.147   6.558  0.0384  0.0425 -0.2984
 1147BOLB   C3A27511  15.265  11.238   6.082 -0.2315  0.1002 -0.0691
 1147BOLB   C4A27512  15.453  11.174   5.537  0.0826 -0.0982 -0.0235
 1147BOLB   C1B27513  15.406  10.759   6.879  0.0346 -0.0869 -0.1687
 1147BOLB   C2B27514  15.759  10.508   6.688 -0.0349  0.0258 -0.1019
 1147BOLB   C3B27515  15.813  10.162   6.769 -0.1316  0.4506  0.0092
 1147BOLB   C4B27516  15.972   9.887   6.387  0.2339  0.0260 -0.0557
 1147BOLB   NC227517  16.673  10.922   3.453 -0.3467  0.3550  0.0990
 1147BOLB   PO227518  16.774  11.392   3.516  0.1802 -0.2907  0.0525
 1147BOLB   GL327519  16.439  11.300   3.832 -0.1386  0.1603  0.3084
 1147BOLB   GL427520  16.265  11.606   3.844 -0.2495  0.0968 -0.3732
 1147BOLB   C1C27521  16.205  11.139   4.026 -0.1862  0.0487  0.1355
 1147BOLB   C2C27522  16.004  11.125   4.381  0.0168  0.2513  0.1328
 1147BOLB   C3C27523  15.754  10.975   4.705  0.0342  0.0891  0.0089
 1147BOLB   C4C27524  15.575  11.012   5.205 -0.0779 -0.0991  0.1406
 1147BOLB   C1D27525  16.055  11.651   4.129 -0.2953 -0.1955  0.0559
 1147BOLB   C2D27526  15.649  11.665   4.308  0.1230  0.0370 -0.0145
 1147BOLB   C3D27527  15.447  12.061   4.426 -0.1067 -0.2432 -0.1326
 1147BOLB   C4D27528  15.272  12.241   4.785  0.2506  0.2101  0.1281
 1148BOLB   NC127529  23.958  13.874  15.604  0.1565  0.0608 -0.0093
 1148BOLB   PO127530  23.864  14.064  15.868 -0.1457 -0.0709 -0.0853
 1148BOLB   GL127531  24.356  13.980  15.807  0.0541  0.3068 -0.0102
 1148BOLB   GL227532  24.549  14.171  16.197  0.1497 -0.2300  0.1800
 1148BOLB   C1A27533  24.767  13.895  15.803 -0.1454  0.2802  0.0065
 1148BOLB   C2A27534  24.998  14.304  15.587  0.1483  0.3443  0.2700
 1148BOLB   C3A27535  25.338  14.425  15.243  0.4524 -0.2011 -0.0003
 1148BOLB   C4A27536  25.696  14.216  15.075 -0.1542 -0.0521 -0.0855
 1148BOLB   C1B27537  24.913  14.191  16.174  0.0065  0.0603  0.1112
 1148BOLB   C2B27538  25.249  14.429  16.464  0.1190  0.2839  0.2810
 1148BOLB   C3B27539  25.302  14.825  16.522  0.1059  0.0616 -0.0408
 1148BOLB   C4B27540  25.248  15.203  16.654 -0.2118 -0.0585  0.0078
 1148BOLB   NC227541  27.719  14.492  14.647  0.1709  0.0528  0.1059
 1148BOLB   PO227542  27.712  14.090  14.473 -0.0817  0.2748 -0.0188
 1148BOLB   GL327543  27.364  14.061  14.622  0.0303 -0.1066  0.1669
 1148BOLB   GL427544  27.198  14.400  14.727 -0.4122 -0.2912 -0.2981
 1148BOLB   C1C27545  27.005  14.074  14.465  0.0825  0.1883 -0.0002
 1148BOLB   C2C27546  26.558  14.189  14.342  0.2657  0.1680 -0.0982
 1148BOLB   C3C27547  26.309  14.406  14.596 -0.0451  0.4141  0.1184
 1148BOLB   C4C27548  25.858  14.259  14.730 -0.1329 -0.1807  0.1193
 1148BOLB   C1D27549  26.748  14.453  14.750 -0.1254  0.0915  0.0546
 1148BOLB   C2D27550  26.360  14.560  15.063 -0.2777 -0.0328 -0.3736
 1148BOLB   C3D27551  26.115  14.401  15.194  0.0712  0.4593 -0.3421
 1148BOLB   C4D27552  25.920  14.106  15.504 -0.1654  0.0579 -0.0835
 1149BOLB   NC127553  22.542   5.628  14.184  0.2234  0.2758  0.1476
 1149BOLB   PO127554  22.832   5.493  14.396  0.0055  0.1278 -0.0871
 1149BOLB   GL127555  23.161   5.253  14.237  0.0559  0.1080 -0.3889
 1149BOLB   GL227556  23.168   5.188  13.924 -0.4269  0.3659 -0.2367
 1149BOLB   C1A27557  23.594   5.200  14.320 -0.2635 -0.3200  0.0267
 1149BOLB   C2A27558  23.795   4.993  14.726  0.1390 -0.3024  0.2076
 1149BOLB   C3A27559  23.960   4.810  14.999 -0.0498 -0.0139  0.0601
 1149BOLB   C4A27560  24.403   4.602  15.126  0.2964 -0.1018  0.2318
 1149BOLB   C1B27561  23.519   5.278  13.706  0.1104  0.0963 -0.0872
 1149BOLB   C2B27562  23.894   5.109  13.464 -0.3095  0.0534 -0.1179
 1149BOLB   C3B27563  24.095   4.797  13.170 -0.1979 -0.2708  0.0164
 1149BOLB   C4B27564  24.128   4.373  13.076 -0.2240  0.1954 -0.1302
 1149BOLB   NC227565  26.790   3.703  15.319 -0.1353  0.0944 -0.0462
 1149BOLB   PO227566  26.892   3.788  14.896  0.0365  0.0307 -0.0298
 1149BOLB   GL327567  26.498   3.931  14.956  0.3345  0.6811 -0.4454
 1149BOLB   GL427568  26.512   4.174  15.206 -0.2353 -0.0829  0.2706
 1149BOLB   C1C27569  26.086   3.903  14.968 -0.0621 -0.3451 -0.0719
 1149BOLB   C2C27570  25.662   4.183  14.995  0.1517 -0.1599  0.2031
 1149BOLB   C3C27571  25.303   4.419  14.967 -0.2859 -0.1028  0.0069
 1149BOLB   C4C27572  24.812   4.444  15.095 -0.1034 -0.2589  0.1824
 1149BOLB   C1D27573  26.233   4.419  15.207  0.0265 -0.0920  0.1453
 1149BOLB   C2D27574  25.942   4.843  15.235 -0.0565  0.0650 -0.1882
 1149BOLB   C3D27575  25.628   4.894  14.943  0.0090 -0.0646  0.2387
 1149BOLB   C4D27576  25.125   5.134  14.716 -0.2386 -0.0827  0.0257
 1150BOLB   NC127577  23.209   8.474  11.850 -0.0919 -0.0416 -0.1415
 1150BOLB   PO127578  23.296   8.789  11.559 -0.0296  0.1033  0.2695
 1150BOLB   GL127579  23.662   8.612  11.461  0.0310  0.0058  0.0458
 1150BOLB   GL227580  23.501   8.340  11.331 -0.0704 -0.1966 -0.2751
 1150BOLB   C1A27581  24.009   8.378  11.470 -0.0366  0.0817  0.0818
 1150BOLB   C2A27582  24.455   8.128  11.564 -0.1543  0.1099 -0.0503
 1150BOLB   C3A27583  24.713   7.901  11.301 -0.3291 -0.0265  0.0221
 1150BOLB   C4A27584  25.109   7.999  11.066 -0.0567  0.1282  0.2219
 1150BOLB   C1B27585  23.636   8.260  10.932  0.1515 -0.1762 -0.3046
 1150BOLB   C2B27586  23.906   8.116  10.650  0.3601 -0.2484  0.0716
 1150BOLB   C3B27587  24.020   8.358  10.333 -0.0399 -0.2684 -0.1342
 1150BOLB   C4B27588  24.166   8.665  10.067 -0.0495  0.0992 -0.3295
 1150BOLB   NC227589  27.016   8.466   9.142 -0.0286 -0.0912 -0.1385
 1150BOLB   PO227590  26.761   8.486   9.558  0.0269  0.0518 -0.0712
 1150BOLB   GL327591  26.535   8.569   9.884 -0.1555  0.1988 -0.2688
 1150BOLB   GL427592  26.529   8.843   9.877  0.1656 -0.1765 -0.3049
 1150BOLB   C1C27593  26.313   8.352  10.245  0.1852  0.1671  0.2227
 1150BOLB   C2C27594  25.847   8.422  10.397 -0.2590  0.1156  0.0945
 1150BOLB   C3C27595  25.544   8.496  10.722  0.2712 -0.3294  0.2060
 1150BOLB   C4C27596  25.349   8.302  10.850 -0.0527  0.0417  0.1163
 1150BOLB   C1D27597  26.116   8.796  10.157 -0.2716  0.1131 -0.0123
 1150BOLB   C2D27598  25.759   8.890  10.451  0.0154 -0.1883 -0.2167
 1150BOLB   C3D27599  25.482   9.110  10.813  0.1748 -0.0431 -0.0722
 1150BOLB   C4D27600  25.126   9.007  11.032  0.1305 -0.1062 -0.0071
 1151BOLB   NC127601  13.028   3.344  19.560 -0.1227 -0.0816 -0.0502
 1151BOLB   PO127602  13.492   3.249  19.638 -0.1994 -0.0313  0.2304
 1151BOLB   GL127603  13.416   2.867  19.845  0.2077  0.4165  0.5732
 1151BOLB   GL227604  13.066   2.765  19.802 -0.3488 -0.0668 -0.1871
 1151BOLB   C1A27605  13.534   2.516  20.040  0.1913 -0.2141 -0.1999
 1151BOLB   C2A27606  13.358   2.432  20.427  0.0617 -0.1840  0.1140
 1151BOLB   C3A27607  13.134   2.191  20.731  0.0243  0.1765  0.0686
 1151BOLB   C4A27608  12.762   2.046  20.980 -0.1154  0.2149  0.0874
 1151BOLB   C1B27609  12.872   2.392  20.127 -0.5111 -0.1642  0.0251
 1151BOLB   C2B27610  12.767   2.178  20.399 -0.3220 -0.3497 -0.0705
 1151BOLB   C3B27611  12.806   1.815  20.547  0.0654  0.2954 -0.0223
 1151BOLB   C4B27612  12.644   1.501  20.568 -0.0404  0.0673  0.1684
 1151BOLB   NC227613  11.377   0.579  21.764  0.2936 -0.1851 -0.1987
 1151BOLB   PO227614  11.750   0.363  22.051 -0.1356  0.2761  0.0855
 1151BOLB   GL327615  11.867   0.638  21.746  0.0860 -0.1734  0.0321
 1151BOLB   GL427616  11.896   0.390  21.460 -0.3572 -0.2584  0.2973
 1151BOLB   C1C27617  11.831   1.009  21.666  0.0594 -0.0169 -0.0776
 1151BOLB   C2C27618  12.149   1.406  21.521 -0.0283 -0.0294  0.0045
 1151BOLB   C3C27619  12.317   1.847  21.382  0.1104  0.1103 -0.1846
 1151BOLB   C4C27620  12.611   2.111  21.245 -0.1041 -0.0522 -0.1985
 1151BOLB   C1D27621  12.086   0.729  21.284 -0.1963  0.0454  0.0070
 1151BOLB   C2D27622  12.280   1.027  21.012  0.0075  0.3249 -0.4547
 1151BOLB   C3D27623  12.159   1.387  20.676 -0.1880  0.0143 -0.0715
 1151BOLB   C4D27624  12.022   1.568  20.267  0.3614  0.2128  0.0306
 1152BOLB   NC127625  11.667   7.094  20.978 -0.0733 -0.0339  0.0837
 1152BOLB   PO127626  11.646   7.174  21.395  0.0965 -0.0385 -0.3002
 1152BOLB   GL127627  11.362   7.135  21.771  0.1062  0.0110  0.1640
 1152BOLB   GL227628  11.192   7.170  21.712  0.0352 -0.0322 -0.2086
 1152BOLB   C1A27629  11.219   6.732  22.047  0.0662 -0.1793  0.1138
 1152BOLB   C2A27630  11.235   6.456  22.375 -0.0134  0.0720 -0.2006
 1152BOLB   C3A27631  10.905   6.201  22.557  0.0460  0.1168 -0.0673
 1152BOLB   C4A27632  10.659   5.940  22.798  0.1274 -0.0467  0.0654
 1152BOLB   C1B27633  11.070   7.184  22.233  0.2009  0.0429  0.1488
 1152BOLB   C2B27634  10.808   7.377  22.433 -0.1390 -0.0210 -0.1075
 1152BOLB   C3B27635  10.548   7.297  22.876  0.3298 -0.1934  0.0298
 1152BOLB   C4B27636  10.265   7.139  23.159  0.2977  0.3163 -0.0945
 1152BOLB   NC227637   8.807   5.616  25.096 -0.0405  0.0480  0.3569
 1152BOLB   PO227638   9.156   5.573  24.910 -0.0774 -0.3329  0.0620
 1152BOLB   GL327639   9.434   5.698  24.576 -0.0413 -0.0145  0.0740
 1152BOLB   GL427640   9.837   5.689  24.578 -0.1945  0.1657 -0.1634
 1152BOLB   C1C27641   9.573   5.832  24.169  0.4575  0.2979  0.2664
 1152BOLB   C2C27642   9.708   5.895  23.765  0.1617  0.0886 -0.1478
 1152BOLB   C3C27643   9.839   5.690  23.434 -0.2082 -0.1458 -0.0306
 1152BOLB   C4C27644  10.238   5.706  23.076 -0.1818 -0.0634 -0.0567
 1152BOLB   C1D27645  10.087   5.536  24.323 -0.2109  0.0169  0.0479
 1152BOLB   C2D27646  10.406   5.409  24.234 -0.1965 -0.1048  0.1341
 1152BOLB   C3D27647  10.796   5.534  23.955 -0.1695 -0.0445  0.1067
 1152BOLB   C4D27648  11.064   5.601  23.553 -0.2522 -0.1221  0.0301
 1153BOLB   NC127649  11.978  15.371  20.634  0.1202 -0.1309  0.1004
 1153BOLB   PO127650  12.156  15.328  21.044 -0.1565  0.1642  0.1095
 1153BOLB   GL127651  12.035  15.538  21.331  0.0429 -0.3767 -0.0700
 1153BOLB   GL227652  12.249  15.548  21.602 -0.3091  0.0682 -0.2178
 1153BOLB   C1A27653  11.596  15.749  21.463  0.0343  0.2022  0.2803
 1153BOLB   C2A27654  11.299  15.921  21.763 -0.4573  0.1981 -0.0030
 1153BOLB   C3A27655  11.024  15.919  22.041  0.0063 -0.2233  0.3444
 1153BOLB   C4A27656  10.536  15.675  22.016 -0.3559  0.1007 -0.0537
 1153BOLB   C1B27657  12.076  15.627  22.033 -0.1342  0.0460 -0.2092
 1153BOLB   C2B27658  11.908  15.501  22.417 -0.0874  0.0196 -0.2108
 1153BOLB   C3B27659  11.510  15.471  22.436  0.1105 -0.2128  0.1669
 1153BOLB   C4B27660  11.335  15.526  22.992  0.0657  0.4754  0.0832
 1153BOLB   NC227661   8.898  16.141  23.379 -0.2246  0.1851 -0.0196
 1153BOLB   PO227662   9.069  16.429  23.741  0.0564  0.1989  0.0715
 1153BOLB   GL327663   9.286  16.444  23.359  0.0159  0.0046  0.0272
 1153BOLB   GL427664   9.316  16.616  23.124 -0.0419 -0.2079  0.1454
 1153BOLB   C1C27665   9.576  16.064  23.178 -0.3386 -0.1953 -0.0657
 1153BOLB   C2C27666   9.780  15.881  22.954  0.0741  0.2516 -0.2294
 1153BOLB   C3C27667  10.152  15.599  22.792  0.0059 -0.0316  0.2204
 1153BOLB   C4C27668  10.388  15.546  22.404  0.1223 -0.0305  0.2651
 1153BOLB   C1D27669   9.329  16.359  22.780 -0.0122 -0.2503 -0.1356
 1153BOLB   C2D27670   9.477  16.102  22.509  0.1927 -0.1032  0.1164
 1153BOLB   C3D27671   9.793  15.788  22.348 -0.1562 -0.1876 -0.1495
 1153BOLB   C4D27672   9.937  15.411  22.175  0.1283  0.0855 -0.0856
 1154BOLB   NC127673  10.105  15.817  15.735 -0.0793 -0.2445 -0.0079
 1154BOLB   PO127674  10.010  15.723  15.377 -0.2474  0.3668  0.2837
 1154BOLB   GL127675   9.723  15.930  15.415 -0.0824  0.1169  0.0411
 1154BOLB   GL227676   9.935  16.216  15.502  0.2759  0.1258  0.2124
 1154BOLB   C1A27677   9.304  16.248  15.495  0.1220  0.1925 -0.3060
 1154BOLB   C2A27678   8.956  16.548  15.470 -0.1076 -0.0658  0.0707
 1154BOLB   C3A27679   8.829  16.932  15.369  0.2784 -0.2219  0.0748
 1154BOLB   C4A27680   8.999  17.359  15.524 -0.1423  0.1842 -0.0647
 1154BOLB   C1B27681   9.745  16.470  15.274 -0.0975 -0.1161 -0.2822
 1154BOLB   C2B27682   9.542  16.578  14.972  0.2425  0.0443 -0.3271
 1154BOLB   C3B27683   9.249  16.553  14.550 -0.2838 -0.0560  0.2040
 1154BOLB   C4B27684   8.858  16.177  14.502 -0.0483 -0.1553  0.2187
 1154BOLB   NC227685   7.688  19.786  15.166 -0.0221 -0.2236  0.1235
 1154BOLB   PO227686   7.873  19.387  15.020  0.2166  0.0245  0.3688
 1154BOLB   GL327687   7.995  18.932  15.048  0.3982  0.1700 -0.0486
 1154BOLB   GL427688   8.133  18.965  15.399 -0.2231  0.0943  0.2424
 1154BOLB   C1C27689   8.281  18.588  15.098 -0.0527 -0.1381 -0.0548
 1154BOLB   C2C27690   8.563  18.323  15.272  0.0567  0.0668  0.0393
 1154BOLB   C3C27691   8.852  18.100  15.250 -0.0543  0.1294 -0.0195
 1154BOLB   C4C27692   8.987  17.748  15.454  0.1072 -0.2064  0.1188
 1154BOLB   C1D27693   8.362  18.563  15.631 -0.0571  0.1003 -0.0416
 1154BOLB   C2D27694   8.629  18.362  15.853 -0.1601 -0.0954 -0.0127
 1154BOLB   C3D27695   9.068  18.498  16.089 -0.0926 -0.2068  0.2500
 1154BOLB   C4D27696   9.376  18.402  16.361  0.2085  0.2508 -0.0087
 1155BOLB   NC127697  18.636   2.094  12.284  0.1733  0.1197  0.0814
 1155BOLB   PO127698  18.928   1.736  12.206  0.0247  0.2384  0.3386
 1155BOLB   GL127699  19.078   1.377  12.207 -0.0064  0.0938  0.1796
 1155BOLB   GL227700  18.891   1.088  11.983  0.1475  0.3089 -0.0699
 1155BOLB   C1A27701  19.322   0.945  12.036 -0.0537  0.0806  0.1776
 1155BOLB   C2A27702  19.716   0.675  12.177  0.1079  0.0070  0.1583
 1155BOLB   C3A27703  20.138   0.490  12.283 -0.0397 -0.0384  0.1888
 1155BOLB   C4A27704  20.504   0.410  12.148  0.3400 -0.1455  0.1106
 1155BOLB   C1B27705  18.912   0.763  11.647  0.1666 -0.0833 -0.0519
 1155BOLB   C2B27706  18.935   0.751  11.222 -0.0163  0.1438 -0.1481
 1155BOLB   C3B27707  18.708   0.418  10.974 -0.2570 -0.2376  0.2145
 1155BOLB   C4B27708  18.637   0.063  11.064 -0.0539 -0.1020  0.1393
 1155BOLB   NC227709  21.750  -0.884  13.248  0.0795 -0.1017  0.1626
 1155BOLB   PO227710  21.371  -1.030  12.998  0.0755  0.2022  0.0411
 1155BOLB   GL327711  20.950  -1.028  13.265  0.1736 -0.2519 -0.0221
 1155BOLB   GL427712  20.944  -1.045  13.628  0.2365  0.0721  0.1101
 1155BOLB   C1C27713  20.503  -0.763  13.244 -0.2381  0.1331 -0.1144
 1155BOLB   C2C27714  20.507  -0.594  12.842  0.1781 -0.5423  0.0982
 1155BOLB   C3C27715  20.708  -0.295  12.556 -0.0533  0.1161  0.0463
 1155BOLB   C4C27716  20.815   0.106  12.192 -0.0152  0.4012 -0.0031
 1155BOLB   C1D27717  20.546  -0.992  13.681  0.1512 -0.2342  0.2025
 1155BOLB   C2D27718  20.154  -0.781  13.622  0.1552 -0.0457  0.1297
 1155BOLB   C3D27719  19.845  -0.433  13.621  0.1482  0.1089  0.3324
 1155BOLB   C4D27720  19.710  -0.137  13.462 -0.3034 -0.1700 -0.3303
 1156BOLB   NC127721  19.020   1.723  12.704  0.2235  0.1286  0.1052
 1156BOLB   PO127722  18.585   1.817  12.736  0.0223 -0.3359  0.1440
 1156BOLB   GL127723  18.654   1.310  12.589  0.0765 -0.1760 -0.0585
 1156BOLB   GL227724  18.567   1.368  12.279 -0.2296  0.1751  0.5150
 1156BOLB   C1A27725  18.791   0.990  12.601  0.1741 -0.0235  0.2459
 1156BOLB   C2A27726  18.889   0.719  12.278 -0.1627 -0.1803 -0.4738
 1156BOLB   C3A27727  19.242   0.436  12.136 -0.2511 -0.0586 -0.0001
 1156BOLB   C4A27728  19.271   0.132  11.831 -0.1039 -0.0466 -0.2856
 1156BOLB   C1B27729  18.421   0.983  12.178  0.0873  0.3293  0.0787
 1156BOLB   C2B27730  18.462   0.522  12.122  0.2096 -0.1079  0.1007
 1156BOLB   C3B27731  18.727   0.326  11.839 -0.1733  0.0466  0.1153
 1156BOLB   C4B27732  18.953   0.263  11.417 -0.0958  0.4309 -0.0459
 1156BOLB   NC227733  19.669  -1.747  11.736  0.1048 -0.2969 -0.0182
 1156BOLB   PO227734  19.616  -2.065  11.356  0.0718 -0.0750 -0.2623
 1156BOLB   GL327735  19.633  -1.660  11.247 -0.0860  0.2954 -0.1960
 1156BOLB   GL427736  19.599  -1.436  10.928 -0.0259 -0.1326 -0.2091
 1156BOLB   C1C27737  19.428  -1.291  11.323 -0.0076  0.2384 -0.0629
 1156BOLB   C2C27738  19.106  -0.925  11.456 -0.1109 -0.1379  0.0365
 1156BOLB   C3C27739  19.025  -0.677  11.603 -0.2718 -0.2336  0.1629
 1156BOLB   C4C27740  19.160  -0.301  11.654 -0.2002 -0.0124  0.0094
 1156BOLB   C1D27741  19.202  -1.126  10.955 -0.2260  0.0694  0.0921
 1156BOLB   C2D27742  18.925  -0.875  11.007 -0.4735 -0.1952  0.1364
 1156BOLB   C3D27743  18.707  -0.585  11.187 -0.4521 -0.1715  0.1298
 1156BOLB   C4D27744  18.704  -0.267  11.430 -0.0852  0.1053  0.0234
 1157BOLB   NC127745   9.285  12.161  13.466 -0.1447 -0.1883  0.0507
 1157BOLB   PO127746   8.902  12.271  13.385 -0.1869  0.3358 -0.2376
 1157BOLB   GL127747   8.555  12.486  13.374 -0.1630  0.0815  0.0836
 1157BOLB   GL227748   8.539  12.795  13.457 -0.4236 -0.0065  0.1245
 1157BOLB   C1A27749   8.214  12.558  13.151  0.0819 -0.3017 -0.2438
 1157BOLB   C2A27750   7.823  12.662  13.067 -0.1219  0.2544 -0.0510
 1157BOLB   C3A27751   7.395  12.717  12.912  0.0778 -0.1951  0.0197
 1157BOLB   C4A27752   7.297  12.976  13.189 -0.0310 -0.0340 -0.0172
 1157BOLB   C1B27753   8.102  12.980  13.493  0.1359 -0.1307  0.1319
 1157BOLB   C2B27754   7.687  13.144  13.499  0.1339  0.0535  0.3102
 1157BOLB   C3B27755   7.527  13.454  13.219  0.0306 -0.1631  0.0021
 1157BOLB   C4B27756   7.105  13.526  13.416  0.0198  0.6856 -0.2349
 1157BOLB   NC227757   5.607  14.613  12.341 -0.1477  0.0935  0.1565
 1157BOLB   PO227758   5.508  14.178  12.359 -0.3131  0.2486 -0.0874
 1157BOLB   GL327759   5.904  13.962  12.532  0.0761  0.2583 -0.0863
 1157BOLB   GL427760   6.210  13.948  12.486 -0.0593 -0.2721 -0.0175
 1157BOLB   C1C27761   5.907  13.659  12.924  0.0600 -0.1823  0.0006
 1157BOLB   C2C27762   6.049  13.305  13.160 -0.0252 -0.2245 -0.1998
 1157BOLB   C3C27763   6.383  12.964  13.091  0.2789 -0.0549  0.1159
 1157BOLB   C4C27764   6.863  13.187  13.049  0.0186  0.3047 -0.0211
 1157BOLB   C1D27765   6.487  13.732  12.274 -0.3504 -0.0454  0.2173
 1157BOLB   C2D27766   6.845  13.475  12.470 -0.1350  0.2761  0.1996
 1157BOLB   C3D27767   7.220  13.309  12.640 -0.1720  0.1990  0.1301
 1157BOLB   C4D27768   7.603  13.090  12.710 -0.2384 -0.0927  0.0560
 1158BOLB   NC127769  23.785  10.724  12.583 -0.0000 -0.2087  0.1162
 1158BOLB   PO127770  24.064  10.994  12.542 -0.1140 -0.2009 -0.1287
 1158BOLB   GL127771  24.368  11.051  12.523 -0.0789  0.0743 -0.1994
 1158BOLB   GL227772  24.299  11.388  12.332 -0.1408  0.0531 -0.0549
 1158BOLB   C1A27773  24.783  11.020  12.527  0.3406 -0.0754 -0.0473
 1158BOLB   C2A27774  25.190  10.925  12.347  0.1691  0.0957 -0.1070
 1158BOLB   C3A27775  25.476  10.888  12.462  0.3352 -0.0688  0.0640
 1158BOLB   C4A27776  25.918  10.823  12.728  0.0314  0.2533 -0.2385
 1158BOLB   C1B27777  24.718  11.300  12.156  0.1210  0.0333 -0.0851
 1158BOLB   C2B27778  25.070  11.124  11.831 -0.0513  0.1385  0.0288
 1158BOLB   C3B27779  25.438  11.055  11.735 -0.0907  0.1317  0.1474
 1158BOLB   C4B27780  25.671  11.183  11.371  0.0556 -0.2232  0.1319
 1158BOLB   NC227781  27.605  12.276  11.095 -0.2429  0.1217 -0.0434
 1158BOLB   PO227782  27.669  12.097  11.509 -0.0049 -0.1203 -0.2821
 1158BOLB   GL327783  27.333  11.782  11.506 -0.2292  0.1417  0.3675
 1158BOLB   GL427784  27.467  11.457  11.475  0.0041 -0.0473  0.0079
 1158BOLB   C1C27785  26.939  11.522  11.759 -0.2605 -0.0197  0.1490
 1158BOLB   C2C27786  26.549  11.305  11.807 -0.0394 -0.0577 -0.0964
 1158BOLB   C3C27787  26.292  10.966  12.087 -0.0743 -0.0683  0.2723
 1158BOLB   C4C27788  26.203  10.851  12.458 -0.0338  0.0022 -0.1949
 1158BOLB   C1D27789  27.388  11.516  11.989 -0.0345 -0.1139  0.1934
 1158BOLB   C2D27790  27.065  11.385  12.358 -0.0125  0.0180  0.2106
 1158BOLB   C3D27791  26.681  11.237  12.433 -0.0268  0.3401 -0.0877
 1158BOLB   C4D27792  26.372  11.432  12.280  0.0266 -0.1077  0.1234
 1159BOLB   NC127793  18.215  17.299  19.973 -0.1523  0.0004 -0.1537
 1159BOLB   PO127794  18.626  17.067  19.971  0.1099  0.2725 -0.0052
 1159BOLB   GL127795  18.819  17.494  19.911  0.2525  0.4087  0.1938
 1159BOLB   GL227796  18.688  17.726  19.742  0.1572 -0.2214 -0.2251
 1159BOLB   C1A27797  19.213  17.636  19.890  0.0899  0.0055  0.0542
 1159BOLB   C2A27798  19.392  18.056  20.090 -0.1608 -0.0996  0.3893
 1159BOLB   C3A27799  19.315  18.391  20.306  0.3562 -0.3269  0.1941
 1159BOLB   C4A27800  19.157  18.777  20.491 -0.0507 -0.1271  0.1244
 1159BOLB   C1B27801  18.866  17.932  20.165  0.1060  0.1251 -0.1517
 1159BOLB   C2B27802  18.886  18.208  20.490  0.0419 -0.2523 -0.0806
 1159BOLB   C3B27803  18.932  18.461  20.815 -0.1043 -0.0061 -0.0028
 1159BOLB   C4B27804  19.215  18.623  21.214  0.1270  0.1594  0.0782
 1159BOLB   NC227805  19.817  20.977  21.966 -0.1402  0.2032  0.2324
 1159BOLB   PO227806  20.169  20.583  22.051  0.0232 -0.2079  0.2709
 1159BOLB   GL327807  20.103  20.263  21.765  0.0369 -0.0352 -0.4028
 1159BOLB   GL427808  19.684  20.296  21.627  0.2564  0.0160  0.3517
 1159BOLB   C1C27809  19.927  19.856  21.491  0.0198  0.1011 -0.0806
 1159BOLB   C2C27810  19.805  19.666  21.096  0.2758 -0.0456 -0.0497
 1159BOLB   C3C27811  19.559  19.286  21.002 -0.0471  0.4103 -0.0107
 1159BOLB   C4C27812  19.368  18.954  20.813  0.3304 -0.2805 -0.0257
 1159BOLB   C1D27813  19.299  20.371  21.726  0.0235  0.3243  0.0684
 1159BOLB   C2D27814  18.855  20.405  21.469  0.2966 -0.1615  0.1938
 1159BOLB   C3D27815  18.870  20.274  21.002  0.0334 -0.2066 -0.2471
 1159BOLB   C4D27816  19.033  20.122  20.647  0.3130 -0.0579 -0.0513
 1160BOLB   NC127817  16.536  33.236  14.106  0.3966  0.0644 -0.0496
 1160BOLB   PO127818  16.948  33.495  13.826 -0.2327  0.0786  0.0166
 1160BOLB   GL127819  17.085  33.837  13.570 -0.1135  0.1035  0.3341
 1160BOLB   GL227820  16.849  33.907  13.421  0.1369  0.0242 -0.1740
 1160BOLB   C1A27821  17.335  34.279  13.502 -0.2149  0.1334  0.1921
 1160BOLB   C2A27822  17.321  34.643  13.699 -0.0733 -0.2641 -0.0994
 1160BOLB   C3A27823  17.308  35.047  13.740  0.2146  0.0523  0.0056
 1160BOLB   C4A27824  16.971  35.377  13.534  0.1509 -0.1118 -0.0268
 1160BOLB   C1B27825  16.843  34.321  13.344 -0.0300 -0.1227  0.0321
 1160BOLB   C2B27826  16.932  34.722  13.279 -0.0227 -0.1808  0.1419
 1160BOLB   C3B27827  16.944  35.101  13.159  0.1742  0.0999  0.1313
 1160BOLB   C4B27828  16.803  35.441  13.081  0.0397 -0.0277 -0.0213
 1160BOLB   NC227829  16.572  38.256  13.000  0.2435  0.0883 -0.1832
 1160BOLB   PO227830  16.747  37.859  13.164 -0.4910 -0.0061  0.0763
 1160BOLB   GL327831  16.529  37.428  13.068 -0.1120  0.3028 -0.0865
 1160BOLB   GL427832  16.196  37.425  13.072 -0.1833 -0.1232  0.1756
 1160BOLB   C1C27833  16.607  37.034  13.371 -0.0370  0.0122  0.3277
 1160BOLB   C2C27834  16.750  36.653  13.478  0.0034 -0.3292 -0.0341
 1160BOLB   C3C27835  16.742  36.157  13.673 -0.0915  0.0726  0.1567
 1160BOLB   C4C27836  16.775  35.748  13.609  0.3108 -0.0489 -0.1178
 1160BOLB   C1D27837  15.851  37.619  12.778 -0.1792 -0.2797  0.1587
 1160BOLB   C2D27838  15.490  37.937  12.821  0.0094  0.0218  0.0801
 1160BOLB   C3D27839  15.125  37.791  12.927 -0.3771  0.3462 -0.0182
 1160BOLB   C4D27840  14.799  37.587  12.816  0.0496 -0.0669  0.0284
 1161BOLB   NC127841  12.392  15.075  20.247 -0.0721 -0.0219 -0.0938
 1161BOLB   PO127842  11.918  15.304  20.164 -0.2204 -0.0375  0.2437
 1161BOLB   GL127843  11.553  15.376  20.485  0.2115 -0.0355  0.1601
 1161BOLB   GL227844  11.292  15.404  20.402 -0.3733  0.0574  0.1267
 1161BOLB   C1A27845  11.180  15.257  20.837  0.2983 -0.1383 -0.0764
 1161BOLB   C2A27846  10.954  15.116  21.340 -0.6049 -0.0780  0.1239
 1161BOLB   C3A27847  10.521  15.272  21.636 -0.3602  0.1174  0.1244
 1161BOLB   C4A27848  10.191  15.467  21.768  0.0708  0.0216 -0.0843
 1161BOLB   C1B27849  11.332  15.729  20.760 -0.1664 -0.2396  0.0288
 1161BOLB   C2B27850  11.579  16.025  20.996  0.0186 -0.2381  0.0478
 1161BOLB   C3B27851  11.636  16.310  21.477  0.0800  0.1261 -0.2600
 1161BOLB   C4B27852  11.601  16.302  21.928 -0.1981  0.0419 -0.3377
 1161BOLB   NC227853   9.133  16.883  23.523  0.0505  0.3685  0.3713
 1161BOLB   PO227854   9.058  17.108  23.167 -0.0211  0.0142  0.0620
 1161BOLB   GL327855   9.081  17.020  22.794  0.0921 -0.3995  0.1243
 1161BOLB   GL427856   8.859  17.094  22.491 -0.0425 -0.1484  0.1806
 1161BOLB   C1C27857   9.334  16.781  22.575 -0.1928  0.1641  0.0512
 1161BOLB   C2C27858   9.681  16.603  22.374 -0.0957  0.1825 -0.1525
 1161BOLB   C3C27859   9.757  16.223  22.083 -0.2554 -0.1264  0.0267
 1161BOLB   C4C27860  10.052  15.900  21.934 -0.2516 -0.0718  0.1592
 1161BOLB   C1D27861   8.949  16.663  22.335 -0.1317 -0.1154  0.0032
 1161BOLB   C2D27862   9.246  16.424  22.141  0.0566  0.0979 -0.1456
 1161BOLB   C3D27863   9.314  16.162  21.660 -0.0388 -0.1127  0.4269
 1161BOLB   C4D27864   9.196  16.057  21.275 -0.1319  0.1019 -0.2780
 1162BOLB   NC127865  22.875   8.531  19.119  0.1998  0.4363 -0.0929
 1162BOLB   PO127866  22.850   8.340  19.418 -0.0665  0.1536  0.1609
 1162BOLB   GL127867  23.273   7.986  19.534  0.0700 -0.0744  0.2084
 1162BOLB   GL227868  23.586   7.982  19.422  0.2113 -0.1214  0.0079
 1162BOLB   C1A27869  23.482   7.687  19.830  0.2623  0.4557  0.0346
 1162BOLB   C2A27870  23.824   7.564  20.075 -0.1568 -0.0296 -0.3553
 1162BOLB   C3A27871  24.194   7.378  20.227  0.3236  0.1029 -0.0139
 1162BOLB   C4A27872  24.341   7.264  20.530  0.3031 -0.1066  0.1063
 1162BOLB   C1B27873  23.844   7.567  19.377 -0.1946  0.0664 -0.1855
 1162BOLB   C2B27874  24.026   7.224  19.408 -0.1196  0.0174 -0.0496
 1162BOLB   C3B27875  24.149   6.856  19.372  0.1614  0.0708  0.1538
 1162BOLB   C4B27876  24.434   6.587  19.626 -0.0337 -0.0834  0.0466
 1162BOLB   NC227877  25.226   5.931  22.228  0.1578 -0.1695 -0.0066
 1162BOLB   PO227878  25.633   6.107  22.315 -0.3270 -0.2314  0.1002
 1162BOLB   GL327879  25.511   6.259  21.954  0.2161 -0.1183 -0.1195
 1162BOLB   GL427880  25.413   6.088  21.761 -0.1719 -0.1121  0.0262
 1162BOLB   C1C27881  25.226   6.475  21.561 -0.2924 -0.0344 -0.1167
 1162BOLB   C2C27882  24.847   6.527  21.582 -0.4300 -0.0904  0.2686
 1162BOLB   C3C27883  24.721   6.886  21.316  0.1060  0.1290 -0.1094
 1162BOLB   C4C27884  24.464   7.015  20.908  0.1065  0.1463  0.1071
 1162BOLB   C1D27885  24.906   6.067  21.620 -0.1425 -0.0929 -0.1221
 1162BOLB   C2D27886  24.487   5.918  21.838 -0.2842 -0.4170 -0.0078
 1162BOLB   C3D27887  24.216   5.984  22.127  0.1292 -0.2154  0.1601
 1162BOLB   C4D27888  23.725   5.986  22.428  0.0156  0.3574  0.1729
 1163BOLB   NC127889  16.123   5.798  22.648 -0.2296 -0.3473 -0.1391
 1163BOLB   PO127890  16.138   6.176  22.557 -0.0430  0.0664  0.3181
 1163BOLB   GL127891  15.916   6.353  22.893  0.1237 -0.1668  0.0518
 1163BOLB   GL227892  15.694   6.200  22.979 -0.1002 -0.0183 -0.1458
 1163BOLB   C1A27893  15.914   6.529  23.344 -0.3885 -0.1705  0.1025
 1163BOLB   C2A27894  15.655   6.314  23.672 -0.1419 -0.2181  0.3283
 1163BOLB   C3A27895  15.482   6.251  24.158 -0.0261 -0.0691  0.0628
 1163BOLB   C4A27896  15.623   6.234  24.613  0.0883  0.3210  0.0202
 1163BOLB   C1B27897  15.980   5.956  23.287  0.1403  0.0163  0.0289
 1163BOLB   C2B27898  16.273   5.634  23.288  0.3859 -0.3253  0.3194
 1163BOLB   C3B27899  16.656   5.477  23.355 -0.0921  0.2359  0.0317
 1163BOLB   C4B27900  16.905   5.346  23.046 -0.2053 -0.1185  0.1464
 1163BOLB   NC227901  16.616   4.910  26.597 -0.0460  0.2923 -0.0344
 1163BOLB   PO227902  16.208   4.994  26.426  0.0141 -0.0782 -0.1461
 1163BOLB   GL327903  16.059   5.255  26.130 -0.0023  0.2726 -0.0780
 1163BOLB   GL427904  15.954   4.943  25.832  0.1393 -0.0977  0.0194
 1163BOLB   C1C27905  15.986   5.362  25.661 -0.0706 -0.2487 -0.1730
 1163BOLB   C2C27906  16.014   5.570  25.346  0.3475 -0.1968 -0.3112
 1163BOLB   C3C27907  16.056   5.802  24.971 -0.3844  0.2252  0.0659
 1163BOLB   C4C27908  15.853   6.094  24.784  0.0609 -0.0450  0.0378
 1163BOLB   C1D27909  15.569   5.043  25.519 -0.2975 -0.2831 -0.0078
 1163BOLB   C2D27910  15.260   4.791  25.355  0.2405 -0.6045 -0.0556
 1163BOLB   C3D27911  15.254   4.526  25.053 -0.5018 -0.3247  0.2646
 1163BOLB   C4D27912  15.003   4.246  24.836  0.0665 -0.1128 -0.0370
 1164BOLB   NC127913  13.410  15.118  21.885  0.0993  0.1262  0.1182
 1164BOLB   PO127914  13.612  15.464  22.083  0.1546  0.2403 -0.0720
 1164BOLB   GL127915  13.782  15.809  22.243  0.0280  0.0873  0.2460
 1164BOLB   GL227916  13.646  16.074  22.249 -0.1522 -0.0377  0.3056
 1164BOLB   C1A27917  14.013  15.937  22.678  0.0352 -0.2786 -0.0848
 1164BOLB   C2A27918  13.939  16.211  22.980  0.0043  0.4586 -0.0313
 1164BOLB   C3A27919  13.904  16.456  23.279 -0.4191  0.0841  0.4910
 1164BOLB   C4A27920  13.752  16.860  23.455 -0.2776 -0.1857  0.0956
 1164BOLB   C1B27921  13.761  16.358  22.537 -0.2394  0.0339 -0.2689
 1164BOLB   C2B27922  13.932  16.675  22.779  0.2930  0.3820  0.2679
 1164BOLB   C3B27923  13.951  17.079  22.966 -0.0148  0.2911 -0.1519
 1164BOLB   C4B27924  14.179  17.397  22.908  0.2846  0.1144  0.1206
 1164BOLB   NC227925  12.338  18.203  24.508  0.1203  0.2093 -0.1996
 1164BOLB   PO227926  12.729  18.361  24.315  0.1117  0.1475 -0.0462
 1164BOLB   GL327927  12.706  18.154  23.943 -0.1716  0.1074  0.0983
 1164BOLB   GL427928  12.522  17.923  24.034 -0.0771 -0.2307 -0.1062
 1164BOLB   C1C27929  12.821  17.897  23.568 -0.0287  0.1063 -0.0201
 1164BOLB   C2C27930  13.223  17.951  23.344 -0.1623 -0.4805 -0.1127
 1164BOLB   C3C27931  13.629  17.672  23.163  0.1368 -0.0954  0.2740
 1164BOLB   C4C27932  13.808  17.433  23.410 -0.0830  0.1035 -0.1868
 1164BOLB   C1D27933  12.154  17.794  23.744  0.4012 -0.0896 -0.1007
 1164BOLB   C2D27934  12.140  17.679  23.356 -0.2789  0.3184  0.1228
 1164BOLB   C3D27935  12.401  17.447  22.943  0.1992 -0.2705 -0.0201
 1164BOLB   C4D27936  12.403  17.379  22.545  0.1544 -0.0092  0.2035
 1165BOLB   NC127937  16.557   5.242  10.885 -0.1072 -0.1278  0.0308
 1165BOLB   PO127938  16.848   5.436  10.627 -0.3878  0.1688 -0.5177
 1165BOLB   GL127939  16.678   5.179  10.302  0.2851  0.0027  0.0566
 1165BOLB   GL227940  16.712   5.160   9.904  0.3733 -0.0626 -0.0518
 1165BOLB   C1A27941  16.858   4.851  10.267  0.2256  0.0531 -0.2893
 1165BOLB   C2A27942  17.101   4.721   9.962  0.0832 -0.2194 -0.1652
 1165BOLB   C3A27943  17.090   4.344   9.700  0.0452 -0.0454  0.3251
 1165BOLB   C4A27944  17.368   4.085   9.924  0.0826 -0.1404 -0.1781
 1165BOLB   C1B27945  16.551   4.780   9.858  0.1621  0.0024 -0.0555
 1165BOLB   C2B27946  16.581   4.399   9.814 -0.2792 -0.5354 -0.1644
 1165BOLB   C3B27947  16.772   4.003   9.614  0.0292 -0.0171  0.0637
 1165BOLB   C4B27948  17.040   3.710   9.532  0.1729 -0.2423 -0.0711
 1165BOLB   NC227949  18.065   2.431  11.076  0.0338  0.1164  0.1288
 1165BOLB   PO227950  18.070   2.835  11.168 -0.1687 -0.1089  0.1267
 1165BOLB   GL327951  17.665   2.752  11.008 -0.1743  0.4713  0.2266
 1165BOLB   GL427952  17.563   2.454  11.100  0.0349  0.0074 -0.2381
 1165BOLB   C1C27953  17.509   2.723  10.627 -0.4833 -0.2901  0.0036
 1165BOLB   C2C27954  17.172   2.964  10.331  0.2072 -0.1846 -0.1599
 1165BOLB   C3C27955  17.029   3.393  10.205 -0.2392  0.1348  0.1565
 1165BOLB   C4C27956  17.228   3.730  10.071  0.0893 -0.1211 -0.0100
 1165BOLB   C1D27957  17.583   2.255  10.633 -0.0576  0.3125  0.1687
 1165BOLB   C2D27958  17.546   1.965  10.270  0.1496 -0.2479  0.0244
 1165BOLB   C3D27959  17.479   2.056   9.796 -0.4175  0.2359  0.0853
 1165BOLB   C4D27960  17.242   1.995   9.427  0.0436 -0.0805 -0.0761
 1166BOLB   NC127961  23.151  15.393  17.842 -0.1777  0.2165  0.1723
 1166BOLB   PO127962  23.355  15.641  17.580 -0.2816  0.0536 -0.1999
 1166BOLB   GL127963  23.670  15.772  17.441 -0.2325  0.0189 -0.4673
 1166BOLB   GL227964  23.818  16.052  17.477  0.1219 -0.2476  0.3395
 1166BOLB   C1A27965  24.163  15.751  17.522 -0.0829  0.3490 -0.0664
 1166BOLB   C2A27966  24.461  15.525  17.858  0.1604  0.0735 -0.0080
 1166BOLB   C3A27967  24.795  15.595  18.067 -0.1588 -0.0913 -0.1707
 1166BOLB   C4A27968  25.225  15.652  18.083 -0.2901  0.2615 -0.0185
 1166BOLB   C1B27969  24.048  16.328  17.542 -0.1164 -0.1850  0.3268
 1166BOLB   C2B27970  24.398  16.479  17.598 -0.1394  0.0672  0.0129
 1166BOLB   C3B27971  24.923  16.506  17.488 -0.0141  0.0737 -0.2696
 1166BOLB   C4B27972  25.260  16.775  17.421  0.2101 -0.2555 -0.1254
 1166BOLB   NC227973  26.540  16.890  19.188 -0.1677  0.0821  0.1107
 1166BOLB   PO227974  26.821  16.910  18.754 -0.0626 -0.1295  0.1358
 1166BOLB   GL327975  26.490  16.503  18.831  0.2190 -0.1137 -0.3680
 1166BOLB   GL427976  26.212  16.669  18.791 -0.1373  0.3072  0.2094
 1166BOLB   C1C27977  26.281  16.237  19.156 -0.0620 -0.1932  0.0765
 1166BOLB   C2C27978  25.883  16.117  19.188 -0.2150  0.6364 -0.0936
 1166BOLB   C3C27979  25.607  15.894  18.814  0.0167 -0.0838 -0.0581
 1166BOLB   C4C27980  25.452  15.773  18.477 -0.2472 -0.0609  0.0908
 1166BOLB   C1D27981  25.935  16.308  18.754 -0.2429  0.0333 -0.0084
 1166BOLB   C2D27982  25.832  16.030  18.400  0.0740 -0.1638  0.0173
 1166BOLB   C3D27983  25.748  15.774  18.051 -0.0580  0.0505  0.1030
 1166BOLB   C4D27984  26.124  15.648  17.850 -0.1116 -0.0119 -0.0053
 1167BOLB   NC127985  13.077  20.846  22.365  0.1969  0.1823  0.2325
 1167BOLB   PO127986  13.416  20.803  22.325 -0.1781 -0.0805 -0.0990
 1167BOLB   GL127987  13.681  20.518  22.085 -0.0162  0.0217 -0.1171
 1167BOLB   GL227988  13.578  20.202  22.147  0.3786 -0.2383  0.0063
 1167BOLB   C1A27989  13.972  20.283  21.921 -0.0434 -0.1121  0.2270
 1167BOLB   C2A27990  13.985  19.778  21.870  0.2540 -0.0419 -0.3267
 1167BOLB   C3A27991  13.871  19.372  21.561  0.1501 -0.1152 -0.1824
 1167BOLB   C4A27992  13.911  18.866  21.639  0.0903  0.0844 -0.3400
 1167BOLB   C1B27993  13.352  19.937  21.924 -0.0673  0.0481 -0.3788
 1167BOLB   C2B27994  13.608  19.793  21.567  0.0512 -0.3127  0.1582
 1167BOLB   C3B27995  13.750  19.971  21.198  0.2745  0.1247  0.1017
 1167BOLB   C4B27996  13.923  19.989  20.782  0.0097  0.2212  0.1865
 1167BOLB   NC227997  12.732  19.370  23.391 -0.1107  0.2228 -0.1310
 1167BOLB   PO227998  12.305  19.547  23.264  0.0758 -0.2337  0.0808
 1167BOLB   GL327999  12.421  19.078  23.038 -0.3290  0.0174 -0.0524
 1167BOLB   GL428000  12.190  18.861  22.829  0.0360 -0.2948  0.1641
 1167BOLB   C1C28001  12.829  18.933  22.858  0.1791  0.1696  0.1326
 1167BOLB   C2C28002  12.999  18.683  22.592 -0.0692  0.0658 -0.0574
 1167BOLB   C3C28003  13.325  18.691  22.214 -0.0005 -0.1799  0.1679
 1167BOLB   C4C28004  13.664  18.597  21.884 -0.1063  0.0027 -0.0602
 1167BOLB   C1D28005  12.539  19.110  22.489  0.1401 -0.2041 -0.1302
 1167BOLB   C2D28006  12.821  19.006  22.155 -0.0816 -0.1583 -0.0402
 1167BOLB   C3D28007  13.226  19.166  22.322  0.0230 -0.0510  0.0390
 1167BOLB   C4D28008  13.214  19.224  22.762 -0.1166 -0.1207  0.2570
 1168BOLB   NC128009  22.909  15.064  15.213  0.2929 -0.1196  0.1110
 1168BOLB   PO128010  23.183  15.128  14.840  0.1857  0.1416  0.0422
 1168BOLB   GL128011  23.625  15.301  14.772 -0.1470  0.2026  0.2280
 1168BOLB   GL228012  23.882  15.049  14.685 -0.1777  0.0378  0.1681
 1168BOLB   C1A28013  23.909  15.496  14.602  0.0119  0.2519  0.0268
 1168BOLB   C2A28014  24.217  15.660  14.355  0.1376 -0.0780  0.1915
 1168BOLB   C3A28015  24.753  15.685  14.428  0.1176  0.1226 -0.3684
 1168BOLB   C4A28016  25.158  15.595  14.451 -0.2073 -0.0850  0.0811
 1168BOLB   C1B28017  24.373  15.248  14.483 -0.1478  0.2115 -0.1273
 1168BOLB   C2B28018  24.542  15.446  14.062 -0.3688  0.3414 -0.1360
 1168BOLB   C3B28019  24.646  15.425  13.561  0.0110  0.1105 -0.3327
 1168BOLB   C4B28020  24.431  15.347  13.211  0.1744 -0.1011  0.4061
 1168BOLB   NC228021  27.003  16.365  12.939  0.1439 -0.0849 -0.0169
 1168BOLB   PO228022  27.085  16.219  13.218  0.1461 -0.0300  0.1841
 1168BOLB   GL328023  26.654  15.963  13.324 -0.1837 -0.1515  0.0283
 1168BOLB   GL428024  26.466  15.690  13.086  0.0581  0.2541 -0.3250
 1168BOLB   C1C28025  26.519  15.707  13.597  0.1258  0.0521 -0.0473
 1168BOLB   C2C28026  26.240  15.818  13.963 -0.1499 -0.1738 -0.1354
 1168BOLB   C3C28027  25.888  15.495  13.997 -0.0096 -0.1339 -0.1185
 1168BOLB   C4C28028  25.581  15.561  14.245 -0.0190 -0.0431 -0.0035
 1168BOLB   C1D28029  26.086  15.689  12.847 -0.0123 -0.0222 -0.1251
 1168BOLB   C2D28030  25.718  15.387  12.916 -0.2033  0.1529  0.0928
 1168BOLB   C3D28031  25.424  15.211  13.043 -0.1120  0.0017 -0.1127
 1168BOLB   C4D28032  24.968  15.172  13.211 -0.2723  0.3988  0.0064
 1169BOLB   NC128033  12.715  10.398  22.475 -0.0670 -0.1267 -0.0661
 1169BOLB   PO128034  12.476  10.736  22.706  0.2752 -0.1146 -0.0194
 1169BOLB   GL128035  12.526  10.911  23.117 -0.2222 -0.0906 -0.0358
 1169BOLB   GL228036  12.241  10.883  23.088  0.1434 -0.1632  0.0956
 1169BOLB   C1A28037  12.477  11.046  23.513 -0.2152  0.2145 -0.1170
 1169BOLB   C2A28038  12.567  11.320  23.865  0.0102  0.0693 -0.2274
 1169BOLB   C3A28039  12.279  11.706  23.938  0.2722  0.1823 -0.0058
 1169BOLB   C4A28040  12.326  12.087  24.101 -0.2462 -0.0538  0.0028
 1169BOLB   C1B28041  11.952  10.856  23.365 -0.0797 -0.0498  0.0263
 1169BOLB   C2B28042  11.612  11.066  23.507 -0.0306  0.0473 -0.0789
 1169BOLB   C3B28043  11.171  11.294  23.587 -0.2085 -0.1027 -0.1713
 1169BOLB   C4B28044  10.809  10.880  23.541  0.0862  0.1511 -0.1761
 1169BOLB   NC228045  11.048  13.640  25.638 -0.1718 -0.3836  0.1358
 1169BOLB   PO228046  11.437  13.447  25.892  0.0301  0.0587  0.0355
 1169BOLB   GL328047  11.571  13.261  25.559 -0.1992 -0.0404  0.2432
 1169BOLB   GL428048  11.300  13.107  25.520  0.2020  0.1984 -0.4284
 1169BOLB   C1C28049  11.900  13.093  25.389  0.0941  0.2568  0.0744
 1169BOLB   C2C28050  12.063  12.912  25.048 -0.1233 -0.1085  0.0625
 1169BOLB   C3C28051  12.237  12.729  24.637  0.2663 -0.1550 -0.0151
 1169BOLB   C4C28052  12.303  12.556  24.314 -0.0191  0.1148 -0.0197
 1169BOLB   C1D28053  11.279  13.352  25.121  0.1629  0.2375 -0.1995
 1169BOLB   C2D28054  11.386  13.619  24.724  0.1266 -0.0239  0.2375
 1169BOLB   C3D28055  11.649  13.773  24.440 -0.1002  0.0781 -0.2147
 1169BOLB   C4D28056  11.770  14.015  24.078 -0.0040  0.0893 -0.0367
 1170BOLB   NC128057   8.560  13.414  16.145 -0.3323  0.0078 -0.1794
 1170BOLB   PO128058   8.384  13.770  16.389  0.0092 -0.1434  0.1451
 1170BOLB   GL128059   8.231  14.112  16.526  0.1695 -0.0974  0.1387
 1170BOLB   GL228060   8.226  14.057  16.823  0.1182  0.1438 -0.0525
 1170BOLB   C1A28061   7.734  14.175  16.498 -0.2590  0.0439 -0.1494
 1170BOLB   C2A28062   7.482  14.398  16.252 -0.2209  0.2416 -0.0948
 1170BOLB   C3A28063   7.025  14.445  16.002 -0.1529  0.1719  0.2816
 1170BOLB   C4A28064   7.136  14.336  15.602  0.0024  0.2278  0.0973
 1170BOLB   C1B28065   7.951  14.371  16.892 -0.1491 -0.0398  0.0346
 1170BOLB   C2B28066   7.552  14.407  17.109  0.1806  0.2692  0.1684
 1170BOLB   C3B28067   7.360  14.343  17.427  0.0101 -0.1213 -0.1045
 1170BOLB   C4B28068   7.432  14.510  17.834  0.1879 -0.2132 -0.0208
 1170BOLB   NC228069   5.723  16.071  14.905 -0.1008  0.1104 -0.0134
 1170BOLB   PO228070   5.632  15.680  15.058 -0.1466 -0.0371  0.0259
 1170BOLB   GL328071   6.079  15.688  14.869  0.1282  0.1384 -0.2216
 1170BOLB   GL428072   6.227  15.861  14.564 -0.0795  0.1041 -0.1834
 1170BOLB   C1C28073   6.566  15.716  14.962 -0.1295  0.2242 -0.1068
 1170BOLB   C2C28074   6.966  15.494  15.002 -0.2174  0.1805 -0.1927
 1170BOLB   C3C28075   7.078  15.014  15.204  0.0316  0.0361 -0.2723
 1170BOLB   C4C28076   7.105  14.650  15.299 -0.1681  0.4012 -0.0690
 1170BOLB   C1D28077   6.527  15.671  14.341  0.0647  0.0585  0.0512
 1170BOLB   C2D28078   6.722  15.398  14.487  0.2817 -0.2096 -0.0696
 1170BOLB   C3D28079   7.064  15.226  14.485  0.0852 -0.1996 -0.1099
 1170BOLB   C4D28080   7.345  15.443  14.519  0.2727 -0.0744  0.0384
 1171BOLB   NC128081  23.652  13.788  16.285  0.1673 -0.0205 -0.1546
 1171BOLB   PO128082  23.902  13.648  16.618 -0.0431  0.1249 -0.2307
 1171BOLB   GL128083  24.278  13.844  16.602 -0.2234 -0.0573 -0.0521
 1171BOLB   GL228084  24.300  14.201  16.711  0.1138  0.0173  0.2824
 1171BOLB   C1A28085  24.723  13.861  16.540  0.1798  0.2785  0.0359
 1171BOLB   C2A28086  25.112  13.839  16.896  0.0318  0.1328  0.3806
 1171BOLB   C3A28087  25.317  14.232  16.983  0.0503  0.0097 -0.0883
 1171BOLB   C4A28088  25.588  14.586  16.809 -0.0307 -0.0323  0.0172
 1171BOLB   C1B28089  24.498  14.615  16.506  0.0682  0.0817  0.1746
 1171BOLB   C2B28090  24.812  14.918  16.602  0.1915  0.1193  0.3386
 1171BOLB   C3B28091  24.767  15.286  16.887  0.0541  0.1255 -0.1528
 1171BOLB   C4B28092  24.997  15.604  17.063  0.1712 -0.2893 -0.1613
 1171BOLB   NC228093  27.882  15.563  15.651 -0.0261 -0.0433  0.0772
 1171BOLB   PO228094  27.818  15.266  15.918  0.0368 -0.2363 -0.0135
 1171BOLB   GL328095  27.312  15.231  16.207 -0.2082  0.1896 -0.0645
 1171BOLB   GL428096  27.310  15.402  16.520 -0.3925  0.0242  0.2789
 1171BOLB   C1C28097  26.808  15.297  16.228  0.0813 -0.0840  0.0466
 1171BOLB   C2C28098  26.497  15.098  16.123 -0.0128  0.1817 -0.2336
 1171BOLB   C3C28099  26.151  14.957  16.285  0.1363  0.1751 -0.0466
 1171BOLB   C4C28100  25.756  14.981  16.500 -0.1623  0.1833 -0.2292
 1171BOLB   C1D28101  27.226  14.899  16.561  0.2888  0.0944  0.2130
 1171BOLB   C2D28102  27.040  14.678  16.263 -0.0160  0.2582  0.1229
 1171BOLB   C3D28103  26.631  14.588  16.137  0.2892  0.1200 -0.3314
 1171BOLB   C4D28104  26.197  14.571  15.955  0.0045  0.0419  0.2149
 1172BOLB   NC128105  11.977  17.149  17.162  0.6263 -0.1237 -0.1440
 1172BOLB   PO128106  12.096  17.551  16.971 -0.0060  0.0709  0.3609
 1172BOLB   GL128107  11.846  17.630  17.245 -0.2254  0.2538  0.1792
 1172BOLB   GL228108  11.528  17.762  17.223 -0.0027  0.2423 -0.0074
 1172BOLB   C1A28109  11.956  18.069  17.215  0.2293  0.1640 -0.1092
 1172BOLB   C2A28110  11.662  18.353  17.536 -0.4250  0.3351 -0.1495
 1172BOLB   C3A28111  11.510  18.663  17.869 -0.0564  0.0318 -0.2637
 1172BOLB   C4A28112  11.224  18.813  18.090  0.0333 -0.1965  0.0003
 1172BOLB   C1B28113  11.364  18.083  17.184  0.1238 -0.1676  0.0445
 1172BOLB   C2B28114  11.308  18.548  17.236  0.1860 -0.0091  0.0607
 1172BOLB   C3B28115  11.231  18.886  17.054  0.2135  0.0002  0.1085
 1172BOLB   C4B28116  11.352  19.141  16.733 -0.0126 -0.2302  0.1632
 1172BOLB   NC228117  10.284  20.885  18.279 -0.2439 -0.0230 -0.0172
 1172BOLB   PO228118  10.675  21.152  18.487 -0.1195  0.1034  0.0153
 1172BOLB   GL328119  10.806  20.721  18.374  0.6018 -0.3243 -0.2698
 1172BOLB   GL428120  11.129  20.646  18.353  0.2549 -0.2495  0.4019
 1172BOLB   C1C28121  10.752  20.406  18.184 -0.1511  0.2398  0.0060
 1172BOLB   C2C28122  10.788  19.968  18.043 -0.3227  0.0386  0.1465
 1172BOLB   C3C28123  10.974  19.582  18.246  0.0053  0.0463 -0.0004
 1172BOLB   C4C28124  10.999  19.129  18.108  0.1305 -0.0620  0.2682
 1172BOLB   C1D28125  11.240  20.135  18.284  0.0262 -0.0162 -0.3238
 1172BOLB   C2D28126  11.528  19.736  18.290  0.0812 -0.0199 -0.0675
 1172BOLB   C3D28127  11.806  19.442  18.600 -0.1051  0.0178 -0.0308
 1172BOLB   C4D28128  11.707  19.422  19.084  0.1161  0.1880  0.1002
 1173BOLB   NC128129  19.678   3.449   2.826 -0.0256 -0.3591  0.2606
 1173BOLB   PO128130  19.943   3.798   3.037 -0.0574 -0.0466  0.0580
 1173BOLB   GL128131  19.390   3.721   3.112  0.2940  0.0913  0.1759
 1173BOLB   GL228132  19.133   3.505   3.023  0.1833 -0.2658  0.1436
 1173BOLB   C1A28133  19.123   3.754   3.473  0.0998 -0.1952  0.0157
 1173BOLB   C2A28134  19.241   3.791   3.884 -0.0529  0.1571  0.0118
 1173BOLB   C3A28135  19.466   4.186   3.939 -0.0613 -0.1671  0.1232
 1173BOLB   C4A28136  19.339   4.647   3.940  0.0459  0.0232  0.2039
 1173BOLB   C1B28137  18.707   3.714   3.201 -0.2962 -0.5245 -0.3443
 1173BOLB   C2B28138  18.303   3.559   3.154 -0.2028 -0.1840  0.4253
 1173BOLB   C3B28139  17.830   3.465   3.285  0.1425  0.3875 -0.1091
 1173BOLB   C4B28140  17.517   3.433   3.463 -0.1761 -0.0407 -0.0071
 1173BOLB   NC228141  19.314   6.173   2.955  0.0590 -0.1468  0.1332
 1173BOLB   PO228142  19.257   6.498   3.279 -0.0223 -0.0841  0.1532
 1173BOLB   GL328143  18.958   6.264   3.427  0.1063 -0.0436  0.0343
 1173BOLB   GL428144  18.852   6.143   3.043  0.1775 -0.4177  0.4428
 1173BOLB   C1C28145  18.898   5.859   3.659 -0.0835 -0.1646 -0.2508
 1173BOLB   C2C28146  18.748   5.670   3.987  0.5245 -0.0810 -0.1562
 1173BOLB   C3C28147  18.995   5.445   4.272 -0.0398 -0.1566 -0.0553
 1173BOLB   C4C28148  19.103   5.000   4.158 -0.1584  0.0662  0.2088
 1173BOLB   C1D28149  18.487   6.210   3.526  0.2442  0.1582  0.0276
 1173BOLB   C2D28150  18.073   6.314   3.704  0.0630 -0.2211  0.1253
 1173BOLB   C3D28151  17.609   6.539   3.756  0.2900  0.4725  0.0488
 1173BOLB   C4D28152  17.276   6.490   4.148  0.0927  0.1130 -0.4178
 1174BOLB   NC128153  22.065   6.015  12.412 -0.0459 -0.1290  0.1643
 1174BOLB   PO128154  22.295   5.924  12.807  0.6871 -0.0335  0.1409
 1174BOLB   GL128155  22.562   5.617  13.050  0.0734  0.3124 -0.1032
 1174BOLB   GL228156  22.417   5.500  13.361 -0.1720 -0.0040  0.1964
 1174BOLB   C1A28157  22.934   5.424  12.860  0.0389  0.0243  0.1249
 1174BOLB   C2A28158  23.247   5.294  12.542  0.1567  0.0965 -0.0098
 1174BOLB   C3A28159  23.414   5.198  12.174  0.0587  0.0002  0.3730
 1174BOLB   C4A28160  23.733   5.064  11.939  0.1443  0.0153  0.0980
 1174BOLB   C1B28161  22.766   5.254  13.360  0.1589  0.2967  0.0030
 1174BOLB   C2B28162  23.111   5.071  13.268 -0.0901  0.1805  0.3113
 1174BOLB   C3B28163  23.428   4.901  13.346  0.2322 -0.0370 -0.0020
 1174BOLB   C4B28164  23.697   4.656  13.529  0.0851  0.1197  0.2687
 1174BOLB   NC228165  24.830   3.477  10.068  0.0561  0.1004 -0.0145
 1174BOLB   PO228166  25.008   3.915  10.174 -0.1319  0.1394 -0.0969
 1174BOLB   GL328167  24.791   4.197  10.525 -0.1530 -0.1670 -0.1093
 1174BOLB   GL428168  24.810   4.445  10.257  0.0123 -0.2248 -0.0056
 1174BOLB   C1C28169  24.468   4.199  10.747 -0.0791  0.1890  0.0095
 1174BOLB   C2C28170  24.034   4.240  10.998 -0.1207 -0.1556 -0.1089
 1174BOLB   C3C28171  23.888   4.403  11.330 -0.3703 -0.3773  0.2381
 1174BOLB   C4C28172  23.926   4.775  11.656  0.1077 -0.3478  0.1332
 1174BOLB   C1D28173  24.350   4.368  10.292 -0.1311  0.1403  0.3307
 1174BOLB   C2D28174  23.933   4.240  10.489  0.2062  0.0404  0.2353
 1174BOLB   C3D28175  23.519   4.144  10.458 -0.0021  0.1667  0.0051
 1174BOLB   C4D28176  23.136   4.283  10.739 -0.5308  0.1225 -0.0093
 1175BOLB   NC128177  21.950  10.476  11.309  0.0009  0.1108 -0.2959
 1175BOLB   PO128178  22.134  10.735  11.051  0.1924 -0.1828 -0.1000
 1175BOLB   GL128179  22.472  10.774  10.690  0.0898 -0.0814 -0.1563
 1175BOLB   GL228180  22.645  10.469  10.677  0.0618  0.1861 -0.1105
 1175BOLB   C1A28181  22.446  10.766  10.324 -0.2434 -0.1522 -0.3379
 1175BOLB   C2A28182  22.530  10.763   9.911  0.1980  0.2472 -0.0770
 1175BOLB   C3A28183  22.925  10.655   9.586  0.4071 -0.0013 -0.1081
 1175BOLB   C4A28184  23.158  10.488   9.226  0.3422  0.0687 -0.2536
 1175BOLB   C1B28185  23.129  10.647  10.770  0.1185  0.2621 -0.1496
 1175BOLB   C2B28186  23.530  10.675  10.712  0.2939  0.2540 -0.1928
 1175BOLB   C3B28187  23.844  10.753  10.480 -0.0067 -0.0869 -0.1376
 1175BOLB   C4B28188  24.028  11.177  10.411 -0.0290 -0.1366 -0.0072
 1175BOLB   NC228189  24.613  10.513   6.613  0.1535 -0.2097  0.1220
 1175BOLB   PO228190  24.391  10.720   6.997  0.2625 -0.2265 -0.1882
 1175BOLB   GL328191  24.132  10.532   7.372  0.0960  0.1237  0.4131
 1175BOLB   GL428192  24.002  10.143   7.354 -0.0977 -0.1414  0.1144
 1175BOLB   C1C28193  23.984  10.663   7.824 -0.0681  0.1164 -0.0408
 1175BOLB   C2C28194  23.671  10.554   8.149  0.0887 -0.1410 -0.0559
 1175BOLB   C3C28195  23.516  10.372   8.550 -0.0490  0.2257 -0.2068
 1175BOLB   C4C28196  23.278  10.223   8.944  0.0616 -0.1995  0.3450
 1175BOLB   C1D28197  23.706  10.275   7.699  0.1820 -0.0214  0.2005
 1175BOLB   C2D28198  23.583  10.040   8.089 -0.4233 -0.0796 -0.0148
 1175BOLB   C3D28199  23.727   9.948   8.423 -0.0011 -0.3760  0.3899
 1175BOLB   C4D28200  23.727   9.829   8.903  0.0179  0.1946  0.2643
 1176BOLB   NC128201  19.628  15.215  21.462  0.0622  0.0702 -0.0728
 1176BOLB   PO128202  19.901  15.022  21.736 -0.1128 -0.1074 -0.0489
 1176BOLB   GL128203  19.932  15.184  22.164  0.0903  0.0264 -0.1421
 1176BOLB   GL228204  20.022  14.982  22.271  0.1166 -0.0808  0.3344
 1176BOLB   C1A28205  19.829  15.418  22.458 -0.0796  0.1703 -0.1770
 1176BOLB   C2A28206  19.997  15.534  22.745  0.2455 -0.1424 -0.0724
 1176BOLB   C3A28207  20.136  15.598  23.155  0.0346 -0.0948  0.2712
 1176BOLB   C4A28208  20.320  15.755  23.514  0.2097 -0.1042  0.1408
 1176BOLB   C1B28209  20.327  15.209  22.482 -0.1793  0.0433 -0.0233
 1176BOLB   C2B28210  20.675  15.420  22.410  0.1312 -0.0077  0.1783
 1176BOLB   C3B28211  20.744  15.784  22.246  0.1858  0.2401  0.1653
 1176BOLB   C4B28212  20.689  16.221  22.413 -0.0332  0.1202  0.2652
 1176BOLB   NC228213  21.360  17.191  24.891  0.2015  0.0629 -0.2307
 1176BOLB   PO228214  21.718  17.138  24.689  0.3514 -0.1155 -0.1731
 1176BOLB   GL328215  21.399  16.945  24.427 -0.1200 -0.0186  0.2515
 1176BOLB   GL428216  21.366  16.600  24.508  0.1056  0.1633  0.1101
 1176BOLB   C1C28217  21.116  16.893  24.139  0.6535 -0.1303 -0.1252
 1176BOLB   C2C28218  21.074  16.577  23.826 -0.2304  0.3084 -0.0190
 1176BOLB   C3C28219  20.888  16.174  23.617 -0.0334 -0.0332  0.0699
 1176BOLB   C4C28220  20.598  15.938  23.520  0.0432  0.0801 -0.1064
 1176BOLB   C1D28221  21.528  16.587  24.122 -0.1047 -0.1079 -0.3097
 1176BOLB   C2D28222  21.636  16.481  23.704 -0.3541  0.3800  0.3062
 1176BOLB   C3D28223  21.408  16.186  23.345 -0.0293 -0.0995 -0.3874
 1176BOLB   C4D28224  21.183  16.174  22.975  0.2211 -0.1763  0.0686
 1177BOLB   NC128225  18.509  16.524  12.127  0.0984 -0.2227 -0.0233
 1177BOLB   PO128226  18.726  16.840  12.045 -0.0701  0.0596 -0.0882
 1177BOLB   GL128227  18.849  17.170  11.752 -0.2268  0.1134 -0.4635
 1177BOLB   GL228228  19.200  17.264  11.700  0.1189 -0.1079 -0.1396
 1177BOLB   C1A28229  18.759  17.533  11.505 -0.0343  0.1949 -0.0538
 1177BOLB   C2A28230  18.839  17.886  11.463  0.0576 -0.0751 -0.0865
 1177BOLB   C3A28231  18.880  18.288  11.398 -0.2569  0.1289 -0.0040
 1177BOLB   C4A28232  18.916  18.720  11.349 -0.0406  0.0210 -0.1137
 1177BOLB   C1B28233  19.272  17.627  11.402 -0.0098  0.1665 -0.1447
 1177BOLB   C2B28234  19.120  17.691  10.901  0.2904  0.1692  0.3630
 1177BOLB   C3B28235  18.935  17.959  10.532 -0.0739 -0.2193  0.1335
 1177BOLB   C4B28236  18.820  18.298  10.309  0.0256 -0.2960  0.2231
 1177BOLB   NC228237  20.336  20.932  11.108  0.1025  0.1172 -0.1141
 1177BOLB   PO228238  20.133  20.609  11.118 -0.2118 -0.3676  0.0704
 1177BOLB   GL328239  19.810  20.181  11.038 -0.3459 -0.2532  0.2206
 1177BOLB   GL428240  19.831  19.994  10.778 -0.0684 -0.3325  0.0361
 1177BOLB   C1C28241  19.537  19.799  11.197 -0.1598  0.0631  0.1729
 1177BOLB   C2C28242  19.077  19.667  11.303 -0.1916 -0.0730  0.0122
 1177BOLB   C3C28243  18.881  19.269  11.041  0.4260  0.0642  0.0160
 1177BOLB   C4C28244  18.910  18.908  11.054 -0.0606 -0.0079 -0.0498
 1177BOLB   C1D28245  20.124  19.792  10.668  0.0764  0.1201 -0.2163
 1177BOLB   C2D28246  20.244  19.438  10.705 -0.0780 -0.1145  0.1961
 1177BOLB   C3D28247  20.044  19.047  10.961  0.1871 -0.1828 -0.1080
 1177BOLB   C4D28248  19.862  18.912  11.281 -0.0809 -0.1479  0.0839
 1178BOLB   NC128249  18.128  33.821  11.645  0.0735 -0.0632 -0.1366
 1178BOLB   PO128250  17.900  33.455  11.721 -0.1157  0.3280 -0.1873
 1178BOLB   GL128251  17.748  33.700  11.963 -0.1673 -0.0770 -0.1150
 1178BOLB   GL228252  17.308  33.657  11.932  0.1096 -0.1407 -0.2878
 1178BOLB   C1A28253  17.644  34.175  12.116  0.1653 -0.1222 -0.0892
 1178BOLB   C2A28254  17.553  34.663  11.979  0.0350 -0.0212  0.0843
 1178BOLB   C3A28255  17.520  35.031  11.668  0.1445 -0.1042 -0.3669
 1178BOLB   C4A28256  17.643  35.303  11.393 -0.2661  0.1540 -0.0900
 1178BOLB   C1B28257  17.186  33.964  12.167  0.4706  0.3227 -0.0909
 1178BOLB   C2B28258  17.072  34.304  12.497  0.6585 -0.0175  0.1046
 1178BOLB   C3B28259  17.048  34.617  12.743  0.2433 -0.0125 -0.0343
 1178BOLB   C4B28260  16.801  34.890  12.760 -0.1816  0.1060 -0.1040
 1178BOLB   NC228261  18.658  33.612  10.072  0.4512  0.0832  0.0797
 1178BOLB   PO228262  18.892  33.796  10.470  0.0445  0.3780  0.0308
 1178BOLB   GL328263  18.360  33.935  10.478 -0.0568  0.1703  0.0951
 1178BOLB   GL428264  18.278  33.793  10.797  0.0426 -0.3247 -0.1578
 1178BOLB   C1C28265  17.948  34.111  10.350 -0.3499 -0.1531 -0.3431
 1178BOLB   C2C28266  17.763  34.313  10.540  0.0336 -0.1747  0.0957
 1178BOLB   C3C28267  17.809  34.697  10.900 -0.1511 -0.0150 -0.1467
 1178BOLB   C4C28268  17.641  35.165  10.953 -0.0516 -0.1946  0.0395
 1178BOLB   C1D28269  17.853  33.895  10.746 -0.0725 -0.0038  0.1502
 1178BOLB   C2D28270  17.456  33.937  10.481  0.0266 -0.2600  0.1796
 1178BOLB   C3D28271  17.289  34.289  10.373 -0.2910 -0.0429 -0.1334
 1178BOLB   C4D28272  16.940  34.430  10.385  0.3935 -0.1755  0.1236
 1179BOLB   NC128273  20.851  17.050  14.948  0.0323 -0.3028  0.2405
 1179BOLB   PO128274  21.191  16.786  15.060  0.0707  0.1292  0.1785
 1179BOLB   GL128275  21.334  17.220  14.887 -0.1585 -0.2677  0.0670
 1179BOLB   GL228276  21.238  17.432  14.777 -0.0370  0.0023  0.0561
 1179BOLB   C1A28277  21.655  17.125  14.582 -0.2173 -0.0985  0.0095
 1179BOLB   C2A28278  21.850  17.504  14.356  0.1678 -0.3189 -0.0083
 1179BOLB   C3A28279  22.053  17.766  14.316 -0.1842 -0.0455  0.0234
 1179BOLB   C4A28280  22.185  18.058  13.998  0.0678 -0.0205 -0.1277
 1179BOLB   C1B28281  21.506  17.811  14.716 -0.1609  0.0104 -0.4369
 1179BOLB   C2B28282  21.918  17.954  14.847  0.0865  0.0817  0.0947
 1179BOLB   C3B28283  22.445  17.885  14.751 -0.1713 -0.2926 -0.3473
 1179BOLB   C4B28284  22.637  17.487  14.951  0.0511  0.0481 -0.2169
 1179BOLB   NC228285  23.375  19.818  13.431  0.0746  0.1643  0.1437
 1179BOLB   PO228286  23.294  20.239  13.383  0.2465  0.1296 -0.1558
 1179BOLB   GL328287  22.903  19.827  13.455 -0.1492  0.0689 -0.0733
 1179BOLB   GL428288  22.666  19.703  13.288  0.0125  0.1124 -0.2626
 1179BOLB   C1C28289  22.838  19.305  13.482 -0.1352  0.1160  0.1767
 1179BOLB   C2C28290  22.561  18.924  13.521 -0.1264 -0.1847 -0.0025
 1179BOLB   C3C28291  22.681  18.595  13.722  0.1714 -0.0936  0.0102
 1179BOLB   C4C28292  22.553  18.275  13.869  0.0986 -0.0246  0.0091
 1179BOLB   C1D28293  22.468  19.586  13.581 -0.1842  0.2146 -0.1099
 1179BOLB   C2D28294  22.552  19.310  13.872  0.0673  0.1175  0.1577
 1179BOLB   C3D28295  22.795  19.038  13.948 -0.2452 -0.1279  0.3218
 1179BOLB   C4D28296  22.759  18.690  14.262  0.0343  0.2259 -0.1624
 1180BOLB   NC128297  10.473  21.089  13.043 -0.5018 -0.2243 -0.2251
 1180BOLB   PO128298  10.245  21.164  12.560  0.2387  0.0086 -0.3241
 1180BOLB   GL128299  10.609  20.768  12.509  0.0642  0.3331  0.1663
 1180BOLB   GL228300  10.566  20.691  12.783  0.2461 -0.2822 -0.2349
 1180BOLB   C1A28301  10.850  20.330  12.515  0.0239  0.3401 -0.0030
 1180BOLB   C2A28302  10.884  20.010  12.794 -0.2917  0.0053 -0.1791
 1180BOLB   C3A28303  11.123  19.760  13.127 -0.1549 -0.2418 -0.0982
 1180BOLB   C4A28304  11.017  19.381  13.285  0.0997 -0.0737  0.0433
 1180BOLB   C1B28305  10.847  20.504  12.982 -0.3213  0.1158 -0.0339
 1180BOLB   C2B28306  10.873  20.122  13.300 -0.3004 -0.4591 -0.1754
 1180BOLB   C3B28307  10.946  19.806  13.605  0.0236 -0.0468 -0.2107
 1180BOLB   C4B28308  10.920  19.327  13.767 -0.1415  0.0386  0.2668
 1180BOLB   NC228309  12.054  16.865  14.825  0.3306 -0.0761 -0.0677
 1180BOLB   PO228310  11.877  17.040  14.433 -0.1490  0.2953  0.0712
 1180BOLB   GL328311  11.690  17.306  14.210  0.0224 -0.1033  0.0019
 1180BOLB   GL428312  11.933  17.499  14.133  0.0571 -0.2535  0.0991
 1180BOLB   C1C28313  11.413  17.683  13.864  0.0123  0.0315 -0.0257
 1180BOLB   C2C28314  11.088  18.031  13.737  0.1590 -0.4207 -0.0183
 1180BOLB   C3C28315  11.147  18.530  13.580  0.2110 -0.1876 -0.0990
 1180BOLB   C4C28316  11.169  18.937  13.474  0.1275 -0.1021  0.1627
 1180BOLB   C1D28317  11.895  17.839  14.050  0.0792 -0.2945  0.0317
 1180BOLB   C2D28318  11.751  18.091  13.812  0.1540 -0.0293  0.2734
 1180BOLB   C3D28319  11.539  18.183  13.508 -0.0261 -0.1416  0.0176
 1180BOLB   C4D28320  11.590  18.248  13.077  0.3731 -0.2417 -0.0794
 1181BOLB   NC128321  22.164   8.050  11.399 -0.0278  0.0078 -0.0708
 1181BOLB   PO128322  22.241   7.553  11.499  0.2422  0.1378  0.1224
 1181BOLB   GL128323  22.568   7.233  11.415  0.2724 -0.1398 -0.1091
 1181BOLB   GL228324  22.713   7.419  11.611  0.1043 -0.0960  0.0227
 1181BOLB   C1A28325  22.982   7.071  11.208  0.0708  0.1071  0.1091
 1181BOLB   C2A28326  23.284   6.894  11.011 -0.3004 -0.1366 -0.1841
 1181BOLB   C3A28327  23.678   6.648  10.821  0.0386 -0.1721 -0.0356
 1181BOLB   C4A28328  23.780   6.709  10.476 -0.2787 -0.2519 -0.1143
 1181BOLB   C1B28329  23.079   7.214  11.710 -0.0735  0.0129  0.1215
 1181BOLB   C2B28330  23.422   7.005  11.556  0.1090 -0.0238  0.2463
 1181BOLB   C3B28331  23.599   6.651  11.411  0.2131 -0.1064  0.0592
 1181BOLB   C4B28332  23.758   6.318  11.239 -0.1887 -0.0972 -0.0319
 1181BOLB   NC228333  25.389   6.002   8.901 -0.2567 -0.1626 -0.1555
 1181BOLB   PO228334  25.531   6.335   9.286 -0.0749 -0.1203  0.0666
 1181BOLB   GL328335  25.075   6.215   9.224 -0.0575 -0.2361 -0.1862
 1181BOLB   GL428336  25.104   6.561   9.130 -0.1934 -0.1615 -0.0158
 1181BOLB   C1C28337  24.738   5.972   9.233  0.0392  0.0767 -0.3436
 1181BOLB   C2C28338  24.259   6.055   9.346 -0.2066 -0.2997 -0.0122
 1181BOLB   C3C28339  23.923   6.021   9.685  0.0210 -0.2592  0.0012
 1181BOLB   C4C28340  23.841   6.389  10.015 -0.1476  0.1022 -0.1764
 1181BOLB   C1D28341  25.017   6.642   9.577  0.5312 -0.0241  0.0244
 1181BOLB   C2D28342  24.691   6.613   9.837 -0.2750  0.2545 -0.2641
 1181BOLB   C3D28343  24.361   6.554  10.015  0.0992  0.0869  0.2526
 1181BOLB   C4D28344  24.198   6.215  10.333 -0.1030 -0.0973  0.0813
 1182BOLB   NC128345  17.910   1.600  17.322 -0.5104  0.2193 -0.2445
 1182BOLB   PO128346  18.098   1.898  17.425  0.0451 -0.3549 -0.1286
 1182BOLB   GL128347  18.176   1.593  17.742 -0.0668  0.0371 -0.0771
 1182BOLB   GL228348  18.587   1.581  17.672 -0.0026 -0.1856 -0.0122
 1182BOLB   C1A28349  18.182   1.215  18.032 -0.0361  0.0796  0.1889
 1182BOLB   C2A28350  18.466   0.870  18.071  0.0604 -0.1241  0.0180
 1182BOLB   C3A28351  18.858   0.559  17.905  0.1583 -0.0401 -0.1593
 1182BOLB   C4A28352  19.203   0.276  17.813  0.1491 -0.0366  0.2198
 1182BOLB   C1B28353  18.672   1.314  17.933 -0.0134 -0.1281  0.2304
 1182BOLB   C2B28354  18.941   1.011  18.086  0.1136  0.2257 -0.1721
 1182BOLB   C3B28355  19.249   0.733  18.190 -0.0998 -0.1614 -0.0264
 1182BOLB   C4B28356  19.639   0.514  18.092 -0.1054 -0.4739 -0.0704
 1182BOLB   NC228357  18.658  -2.127  19.200 -0.1100 -0.1969 -0.0699
 1182BOLB   PO228358  18.534  -1.691  18.990  0.0565 -0.0069 -0.0225
 1182BOLB   GL328359  18.547  -1.364  18.884  0.2115  0.2559 -0.3294
 1182BOLB   GL428360  18.285  -1.175  18.999 -0.0828 -0.0294 -0.1890
 1182BOLB   C1C28361  18.833  -0.968  18.779 -0.4803 -0.0244  0.1311
 1182BOLB   C2C28362  19.128  -0.875  18.334 -0.2763  0.0772  0.0261
 1182BOLB   C3C28363  19.132  -0.597  17.999  0.1304  0.0042 -0.1760
 1182BOLB   C4C28364  19.212  -0.236  17.839 -0.0151  0.0332 -0.0137
 1182BOLB   C1D28365  18.361  -0.787  18.809  0.0643  0.1504  0.0698
 1182BOLB   C2D28366  18.081  -0.547  18.891  0.1826  0.0946  0.0185
 1182BOLB   C3D28367  17.918  -0.249  18.658  0.1211 -0.1663 -0.0471
 1182BOLB   C4D28368  17.898  -0.104  18.281  0.2342  0.2708 -0.0685
 1183BOLB   NC128369  11.821  14.202  21.461  0.1380 -0.2950 -0.1980
 1183BOLB   PO128370  11.559  14.547  21.221 -0.0996  0.3350  0.1815
 1183BOLB   GL128371  11.428  14.542  21.498 -0.2912  0.2797 -0.1257
 1183BOLB   GL228372  11.417  14.366  21.701  0.3215 -0.0515 -0.1392
 1183BOLB   C1A28373  11.235  14.896  21.813  0.1864  0.0003  0.2756
 1183BOLB   C2A28374  10.797  14.998  21.942  0.2232 -0.2488 -0.2652
 1183BOLB   C3A28375  10.484  15.104  22.205 -0.4145  0.2736 -0.1879
 1183BOLB   C4A28376  10.346  15.105  22.671  0.0393 -0.2739 -0.1154
 1183BOLB   C1B28377  11.065  14.496  22.027  0.0272 -0.5181  0.0047
 1183BOLB   C2B28378  10.618  14.442  22.056  0.1905  0.1156  0.2193
 1183BOLB   C3B28379  10.104  14.345  22.090  0.0550  0.2197 -0.0422
 1183BOLB   C4B28380   9.810  14.064  21.964  0.0656 -0.0626 -0.1698
 1183BOLB   NC228381   9.095  14.010  24.782  0.0752  0.1204  0.1103
 1183BOLB   PO228382   9.493  14.254  24.688  0.0010  0.0475 -0.0252
 1183BOLB   GL328383   9.662  14.341  24.327  0.3322 -0.3679  0.2319
 1183BOLB   GL428384   9.797  14.044  24.274  0.0766 -0.2367 -0.1965
 1183BOLB   C1C28385   9.678  14.498  23.965  0.0116 -0.1604 -0.1356
 1183BOLB   C2C28386   9.824  14.725  23.678  0.2068 -0.2607 -0.1350
 1183BOLB   C3C28387  10.047  15.055  23.467 -0.0103  0.2487 -0.1390
 1183BOLB   C4C28388  10.244  15.083  23.017  0.0991  0.1420  0.0360
 1183BOLB   C1D28389  10.245  14.063  24.195  0.0877  0.0658 -0.3486
 1183BOLB   C2D28390  10.496  14.210  23.871 -0.2175  0.0868 -0.1272
 1183BOLB   C3D28391  10.542  13.955  23.563  0.0632 -0.1899  0.0446
 1183BOLB   C4D28392  10.449  13.689  23.119 -0.0906  0.0771  0.1450
 1184BOLB   NC128393  17.024  17.742  13.334 -0.1543 -0.2140  0.1071
 1184BOLB   PO128394  16.760  18.084  13.147 -0.0786 -0.0737 -0.1636
 1184BOLB   GL128395  16.871  18.307  12.836 -0.2247 -0.2550  0.2341
 1184BOLB   GL228396  17.217  18.455  12.937 -0.2172 -0.3096 -0.1480
 1184BOLB   C1A28397  16.722  18.567  12.571  0.3103  0.4284 -0.2588
 1184BOLB   C2A28398  16.684  18.944  12.511 -0.2739 -0.1060  0.2550
 1184BOLB   C3A28399  16.855  19.359  12.364  0.3793 -0.2185  0.1424
 1184BOLB   C4A28400  17.077  19.738  12.147 -0.3556 -0.3677 -0.1591
 1184BOLB   C1B28401  17.172  18.826  12.737  0.1878  0.1244 -0.1848
 1184BOLB   C2B28402  17.123  19.290  12.727 -0.0827 -0.0454 -0.0033
 1184BOLB   C3B28403  16.934  19.777  12.893  0.2091 -0.2641 -0.1463
 1184BOLB   C4B28404  16.558  19.800  13.117  0.0698  0.2349  0.1108
 1184BOLB   NC228405  17.195  21.763  11.649  0.2936 -0.1309 -0.0287
 1184BOLB   PO228406  17.644  21.743  11.703 -0.0547 -0.1998 -0.0162
 1184BOLB   GL328407  17.400  21.492  12.018 -0.0745 -0.0894 -0.1033
 1184BOLB   GL428408  17.136  21.356  11.953  0.0716 -0.1338  0.1181
 1184BOLB   C1C28409  17.450  21.272  12.337 -0.2650 -0.0567  0.0444
 1184BOLB   C2C28410  17.481  20.774  12.280 -0.0967 -0.1478 -0.1700
 1184BOLB   C3C28411  17.531  20.353  12.197 -0.3991  0.3021 -0.1067
 1184BOLB   C4C28412  17.378  20.100  11.992  0.2487  0.1816 -0.0260
 1184BOLB   C1D28413  16.944  21.175  12.341 -0.1367  0.2412  0.0119
 1184BOLB   C2D28414  17.069  20.852  12.638  0.0149 -0.0625  0.3035
 1184BOLB   C3D28415  16.997  20.431  12.886 -0.1175  0.2371 -0.1149
 1184BOLB   C4D28416  17.299  20.122  13.125  0.2600 -0.4543 -0.0243
 1185BOLB   NC128417  20.505   3.894  12.066 -0.0824  0.3925  0.0507
 1185BOLB   PO128418  20.776   3.592  12.116 -0.1968 -0.1217  0.2450
 1185BOLB   GL128419  20.685   3.169  11.870 -0.0966 -0.1151 -0.0009
 1185BOLB   GL228420  20.685   2.917  12.124 -0.3256 -0.0775  0.2277
 1185BOLB   C1A28421  21.091   2.979  11.807  0.3656  0.3187  0.2895
 1185BOLB   C2A28422  21.373   2.552  11.747  0.1100 -0.1778 -0.2562
 1185BOLB   C3A28423  21.655   2.281  11.606 -0.0228  0.0128 -0.1129
 1185BOLB   C4A28424  22.054   2.186  11.524 -0.0682 -0.1571 -0.1747
 1185BOLB   C1B28425  20.705   2.659  11.839 -0.0688  0.3704 -0.2392
 1185BOLB   C2B28426  20.967   2.296  11.567 -0.3228  0.3262 -0.2760
 1185BOLB   C3B28427  21.232   1.939  11.523 -0.1874 -0.0561  0.2644
 1185BOLB   C4B28428  21.710   1.816  11.320 -0.0444 -0.0563 -0.0460
 1185BOLB   NC228429  23.979   0.908  11.165 -0.0096  0.0561 -0.0130
 1185BOLB   PO228430  24.095   1.075  11.643 -0.1094  0.0451  0.1511
 1185BOLB   GL328431  23.676   1.203  11.835 -0.1244 -0.1104 -0.0035
 1185BOLB   GL428432  23.703   1.452  12.147  0.1165 -0.2580 -0.0611
 1185BOLB   C1C28433  23.255   1.341  11.731  0.1051 -0.1525  0.0284
 1185BOLB   C2C28434  22.820   1.357  11.663 -0.0808 -0.2527  0.0916
 1185BOLB   C3C28435  22.354   1.386  11.522 -0.1726  0.0469 -0.0775
 1185BOLB   C4C28436  22.213   1.791  11.323 -0.1630 -0.0788  0.0837
 1185BOLB   C1D28437  23.365   1.807  12.141 -0.1028 -0.0134 -0.0658
 1185BOLB   C2D28438  23.038   1.744  12.427  0.0671 -0.0258  0.1609
 1185BOLB   C3D28439  22.559   1.595  12.511 -0.1382  0.0697 -0.2947
 1185BOLB   C4D28440  22.391   1.639  12.860 -0.0097 -0.3698 -0.0760
 1186BOLB   NC128441   9.109  10.825  19.844 -0.0771  0.0010  0.2876
 1186BOLB   PO128442   9.360  10.491  19.644  0.3414 -0.2661  0.1177
 1186BOLB   GL128443   8.957  10.344  19.709  0.1231 -0.0084 -0.1290
 1186BOLB   GL228444   8.750  10.030  19.556 -0.0273  0.4659 -0.0763
 1186BOLB   C1A28445   8.473  10.279  19.815 -0.1465 -0.0019 -0.1157
 1186BOLB   C2A28446   8.129  10.452  20.080 -0.3028  0.0124 -0.0530
 1186BOLB   C3A28447   7.811  10.222  20.155 -0.0656  0.0906 -0.1025
 1186BOLB   C4A28448   7.455  10.116  20.420  0.4302 -0.1081  0.1167
 1186BOLB   C1B28449   8.373  10.002  19.376 -0.0967 -0.1488  0.2389
 1186BOLB   C2B28450   7.919  10.009  19.295 -0.2158 -0.0477 -0.0910
 1186BOLB   C3B28451   7.733   9.723  19.616  0.2010  0.1162 -0.3106
 1186BOLB   C4B28452   7.465   9.820  19.998 -0.0386  0.0004  0.2353
 1186BOLB   NC228453   5.821  10.213  21.678  0.2746  0.1103 -0.0462
 1186BOLB   PO228454   5.496  10.271  21.348 -0.2028 -0.0754  0.3259
 1186BOLB   GL328455   5.907  10.118  21.183 -0.0257  0.0305 -0.2968
 1186BOLB   GL428456   5.898   9.881  21.336  0.1267  0.2386  0.1469
 1186BOLB   C1C28457   6.249   9.959  21.071 -0.2615  0.4242  0.1264
 1186BOLB   C2C28458   6.504   9.693  20.861  0.0608 -0.4910  0.2553
 1186BOLB   C3C28459   6.944   9.709  20.679  0.3463  0.3229  0.2380
 1186BOLB   C4C28460   7.162   9.896  20.463  0.0558  0.0217  0.0387
 1186BOLB   C1D28461   6.167   9.518  21.313  0.1639 -0.0292 -0.1430
 1186BOLB   C2D28462   6.485   9.220  21.186  0.2367  0.0509 -0.0558
 1186BOLB   C3D28463   6.691   8.875  20.931  0.1266  0.0207 -0.0495
 1186BOLB   C4D28464   7.212   8.773  20.927  0.1080 -0.0471  0.1308
 1187BOLB   NC128465  14.336  18.623  16.040  0.0236 -0.1455  0.0979
 1187BOLB   PO128466  13.958  18.482  16.174 -0.0317 -0.0837  0.1532
 1187BOLB   GL128467  13.773  18.845  16.201  0.4511 -0.0909  0.2040
 1187BOLB   GL228468  13.935  18.972  15.936  0.2265  0.0079 -0.2279
 1187BOLB   C1A28469  13.574  19.256  16.158 -0.1245 -0.0700 -0.1476
 1187BOLB   C2A28470  13.307  19.632  16.134 -0.0403  0.2014 -0.0217
 1187BOLB   C3A28471  13.111  20.118  16.017  0.1169 -0.0373  0.0428
 1187BOLB   C4A28472  12.913  20.162  16.364  0.1517  0.2851  0.0357
 1187BOLB   C1B28473  13.921  19.293  15.697  0.2471 -0.2845 -0.3534
 1187BOLB   C2B28474  13.722  19.694  15.953  0.0346  0.4478  0.5167
 1187BOLB   C3B28475  13.615  20.193  15.911 -0.0645 -0.3044  0.0966
 1187BOLB   C4B28476  13.965  20.487  15.788 -0.1601 -0.0176  0.1696
 1187BOLB   NC228477  11.984  22.379  17.640 -0.0255  0.0237 -0.0020
 1187BOLB   PO228478  11.887  22.038  17.479 -0.1408  0.3013 -0.0395
 1187BOLB   GL328479  11.955  21.600  17.389 -0.1701  0.1406  0.0740
 1187BOLB   GL428480  12.117  21.509  17.625  0.1518 -0.0339  0.3353
 1187BOLB   C1C28481  11.932  21.351  17.123  0.3098 -0.1852 -0.2570
 1187BOLB   C2C28482  12.119  21.017  16.957  0.1143 -0.0678 -0.5057
 1187BOLB   C3C28483  12.419  20.699  16.753 -0.0491  0.0228 -0.0879
 1187BOLB   C4C28484  12.822  20.393  16.684 -0.1550 -0.1528  0.2959
 1187BOLB   C1D28485  12.428  21.217  17.307  0.0544  0.1432 -0.0407
 1187BOLB   C2D28486  12.748  21.156  17.203  0.0664  0.0294  0.2137
 1187BOLB   C3D28487  12.798  20.771  17.392 -0.1598 -0.0105  0.0736
 1187BOLB   C4D28488  12.702  20.375  17.151  0.5237  0.0734  0.3593
 1188BOLB   NC128489  23.729  11.513  14.300  0.0529  0.2372  0.1109
 1188BOLB   PO128490  24.217  11.371  14.491 -0.0360  0.2346  0.1120
 1188BOLB   GL128491  24.652  11.405  14.316  0.3850 -0.1219  0.0453
 1188BOLB   GL228492  24.717  11.642  14.457  0.4571 -0.1113  0.0878
 1188BOLB   C1A28493  25.142  11.491  14.173  0.0054 -0.0465  0.2743
 1188BOLB   C2A28494  25.563  11.726  14.091  0.1987 -0.2022  0.0756
 1188BOLB   C3A28495  25.815  11.801  13.790 -0.2371  0.4015  0.4255
 1188BOLB   C4A28496  26.162  11.679  13.658 -0.0284  0.4487  0.0145
 1188BOLB   C1B28497  25.037  11.875  14.400 -0.1470  0.1131 -0.0029
 1188BOLB   C2B28498  25.291  12.136  14.175 -0.1305 -0.0443 -0.1913
 1188BOLB   C3B28499  25.596  12.297  13.928 -0.0572  0.3596 -0.0575
 1188BOLB   C4B28500  25.537  12.470  13.465  0.0137  0.1257 -0.2559
 1188BOLB   NC228501  28.558  11.654  13.579 -0.4482  0.0288  0.1137
 1188BOLB   PO228502  28.273  11.859  13.807  0.2057 -0.1581  0.2276
 1188BOLB   GL328503  27.831  12.001  13.823 -0.4183 -0.0861  0.1598
 1188BOLB   GL428504  27.569  11.931  14.078 -0.0868  0.1800 -0.3643
 1188BOLB   C1C28505  27.461  11.967  13.621 -0.2747 -0.0826 -0.0533
 1188BOLB   C2C28506  27.215  11.812  13.316  0.0094  0.0098  0.0610
 1188BOLB   C3C28507  26.860  11.666  13.349 -0.3941  0.1881  0.0357
 1188BOLB   C4C28508  26.385  11.716  13.330  0.1565  0.2009  0.2158
 1188BOLB   C1D28509  27.429  12.277  14.350  0.2140  0.0639 -0.4474
 1188BOLB   C2D28510  26.963  12.473  14.473 -0.1451  0.0260 -0.3557
 1188BOLB   C3D28511  26.627  12.691  14.365  0.1324  0.2079  0.0903
 1188BOLB   C4D28512  26.395  13.016  14.538 -0.0057 -0.0080 -0.0960
 1189BOLB   NC128513  23.186   7.084  15.192  0.0119 -0.0011 -0.0320
 1189BOLB   PO128514  23.493   7.160  15.566 -0.0217 -0.0607 -0.0532
 1189BOLB   GL128515  23.852   6.828  15.480  0.3516 -0.3443  0.1511
 1189BOLB   GL228516  23.930   7.016  15.225  0.1835 -0.1539  0.3230
 1189BOLB   C1A28517  23.996   6.500  15.682 -0.1929  0.1049  0.0288
 1189BOLB   C2A28518  24.229   6.180  16.065 -0.1576 -0.1821 -0.2183
 1189BOLB   C3A28519  24.653   5.953  16.053  0.2351 -0.0219 -0.1911
 1189BOLB   C4A28520  25.122   5.762  16.198  0.2192  0.0987 -0.1873
 1189BOLB   C1B28521  24.325   6.870  15.367 -0.0302  0.1995 -0.0471
 1189BOLB   C2B28522  24.654   6.701  15.380 -0.1257 -0.0081  0.3177
 1189BOLB   C3B28523  25.094   6.400  15.399  0.1089 -0.0255  0.2058
 1189BOLB   C4B28524  25.396   6.267  15.287 -0.1698  0.1401  0.2341
 1189BOLB   NC228525  27.447   5.147  16.429  0.0960  0.2105  0.1636
 1189BOLB   PO228526  27.216   4.876  16.226 -0.3220 -0.1552 -0.1563
 1189BOLB   GL328527  26.930   5.026  16.366  0.2222  0.2835  0.3068
 1189BOLB   GL428528  26.728   4.822  16.398 -0.0718 -0.2604 -0.0982
 1189BOLB   C1C28529  26.530   5.349  16.478  0.0931  0.0668 -0.4136
 1189BOLB   C2C28530  26.145   5.333  16.596  0.3195 -0.0810  0.2459
 1189BOLB   C3C28531  25.774   5.494  16.547 -0.1526 -0.1215  0.1094
 1189BOLB   C4C28532  25.369   5.537  16.428  0.0677 -0.1226  0.0874
 1189BOLB   C1D28533  26.344   4.944  16.214 -0.0991 -0.2311  0.4773
 1189BOLB   C2D28534  25.988   4.888  16.217  0.1132  0.2697  0.2506
 1189BOLB   C3D28535  25.661   5.110  16.072 -0.0695  0.0202  0.0134
 1189BOLB   C4D28536  25.465   5.480  15.912 -0.0147  0.0782  0.1254
 1190BOLB   NC128537  21.460   4.247  13.679  0.4084  0.3563  0.0551
 1190BOLB   PO128538  21.831   4.388  13.827 -0.3498 -0.0782  0.0076
 1190BOLB   GL128539  22.062   3.974  13.613  0.0740  0.0724  0.1178
 1190BOLB   GL228540  22.068   3.755  13.816  0.0870  0.2689 -0.0529
 1190BOLB   C1A28541  22.538   3.750  13.578  0.0973  0.2475 -0.1950
 1190BOLB   C2A28542  23.085   3.615  13.718 -0.0808 -0.1303 -0.2571
 1190BOLB   C3A28543  23.465   3.413  13.641  0.0378 -0.0999 -0.3750
 1190BOLB   C4A28544  23.674   3.157  13.674 -0.1924 -0.1852  0.1555
 1190BOLB   C1B28545  22.370   3.372  13.907 -0.1450 -0.0638  0.0291
 1190BOLB   C2B28546  22.664   3.307  13.810 -0.1808  0.2945  0.0596
 1190BOLB   C3B28547  23.032   3.107  13.665 -0.4358 -0.0962 -0.0374
 1190BOLB   C4B28548  23.358   2.773  13.660 -0.1391 -0.2655 -0.4018
 1190BOLB   NC228549  24.771   1.194  14.878 -0.1554 -0.0282  0.1213
 1190BOLB   PO228550  24.937   1.167  14.494  0.3972  0.0714  0.2217
 1190BOLB   GL328551  24.693   1.591  14.442  0.0683 -0.0746 -0.0829
 1190BOLB   GL428552  24.411   1.729  14.516  0.0902  0.1251  0.1423
 1190BOLB   C1C28553  24.653   1.858  14.074 -0.2204 -0.0853 -0.0553
 1190BOLB   C2C28554  24.471   2.253  13.838  0.0510  0.3367  0.0862
 1190BOLB   C3C28555  24.042   2.486  13.957 -0.4062  0.0357 -0.1982
 1190BOLB   C4C28556  23.857   2.796  13.857  0.0058 -0.0091  0.0169
 1190BOLB   C1D28557  24.200   1.965  14.809 -0.2692  0.0383  0.0260
 1190BOLB   C2D28558  23.739   2.068  14.837 -0.1550 -0.1422  0.0670
 1190BOLB   C3D28559  23.437   2.386  14.817  0.2217  0.0904 -0.0267
 1190BOLB   C4D28560  23.092   2.702  15.013 -0.5395  0.0884  0.0578
 1191BOLB   NC128561  12.753   7.606  22.466  0.0915 -0.0003 -0.2742
 1191BOLB   PO128562  12.748   8.081  22.410  0.0046 -0.0835  0.0816
 1191BOLB   GL128563  12.610   8.013  22.963 -0.0629 -0.0930  0.0584
 1191BOLB   GL228564  12.783   8.021  23.336 -0.1219  0.0964  0.3440
 1191BOLB   C1A28565  12.320   7.986  23.205  0.0780 -0.0926  0.2902
 1191BOLB   C2A28566  12.126   8.025  23.518 -0.1016 -0.3164  0.0113
 1191BOLB   C3A28567  11.946   8.020  23.957 -0.0520 -0.3446 -0.0213
 1191BOLB   C4A28568  11.953   7.789  24.317  0.1789  0.2815 -0.0137
 1191BOLB   C1B28569  12.647   8.103  23.754  0.2827  0.1300 -0.0160
 1191BOLB   C2B28570  12.404   8.026  24.151  0.2226  0.0820  0.0100
 1191BOLB   C3B28571  12.271   8.155  24.525 -0.0775 -0.2046 -0.0659
 1191BOLB   C4B28572  12.357   8.128  24.949  0.0785  0.1997 -0.2517
 1191BOLB   NC228573  11.771   5.723  25.931  0.0008  0.2322 -0.1609
 1191BOLB   PO228574  11.474   6.069  26.082 -0.4325  0.2521 -0.1301
 1191BOLB   GL328575  11.560   6.374  25.791  0.0273 -0.1613 -0.0164
 1191BOLB   GL428576  11.241   6.333  25.690 -0.1275 -0.1765  0.2291
 1191BOLB   C1C28577  11.739   6.754  25.767 -0.1597  0.0162 -0.0745
 1191BOLB   C2C28578  11.663   7.099  25.446 -0.4113 -0.0448 -0.0096
 1191BOLB   C3C28579  11.689   7.389  25.112 -0.0396 -0.0864  0.2243
 1191BOLB   C4C28580  11.896   7.591  24.774 -0.1741  0.2491 -0.0435
 1191BOLB   C1D28581  11.392   6.655  25.379  0.0420 -0.1060  0.0723
 1191BOLB   C2D28582  11.481   6.761  25.028 -0.1973  0.1017 -0.1656
 1191BOLB   C3D28583  11.685   6.918  24.600  0.1671  0.1221  0.0377
 1191BOLB   C4D28584  11.972   7.251  24.418 -0.1697  0.5062  0.0070
 1192BOLB   NC128585  13.647   6.791  27.134 -0.0375  0.2173  0.1021
 1192BOLB   PO128586  13.999   6.987  26.909  0.1305 -0.0385  0.1212
 1192BOLB   GL128587  13.956   7.135  26.499  0.1236  0.2156  0.0404
 1192BOLB   GL228588  13.790   7.463  26.589  0.1212 -0.2340  0.0320
 1192BOLB   C1A28589  14.151   7.160  26.059 -0.0929  0.2215  0.3225
 1192BOLB   C2A28590  14.190   6.996  25.529 -0.2848  0.0011  0.0083
 1192BOLB   C3A28591  14.445   6.778  25.222  0.0263  0.0794  0.1639
 1192BOLB   C4A28592  14.834   6.946  24.995 -0.1339 -0.2991 -0.1288
 1192BOLB   C1B28593  14.136   7.637  26.444 -0.3369  0.0770 -0.0495
 1192BOLB   C2B28594  14.511   7.508  26.182 -0.0568 -0.1825 -0.1955
 1192BOLB   C3B28595  15.013   7.489  26.196  0.2554  0.0890 -0.1851
 1192BOLB   C4B28596  15.476   7.494  26.152  0.0361  0.1770 -0.0209
 1192BOLB   NC228597  15.812   7.295  22.570 -0.1205 -0.2101 -0.1278
 1192BOLB   PO228598  15.602   7.197  22.861 -0.1370 -0.0811 -0.2762
 1192BOLB   GL328599  15.648   6.888  23.072  0.1088  0.0188  0.0436
 1192BOLB   GL428600  15.890   6.990  23.330  0.0663 -0.1777  0.0493
 1192BOLB   C1C28601  15.380   6.577  23.376 -0.0282 -0.0181 -0.2119
 1192BOLB   C2C28602  15.250   6.571  23.857 -0.0636  0.0274  0.3366
 1192BOLB   C3C28603  15.184   6.662  24.318 -0.0875 -0.0307 -0.2274
 1192BOLB   C4C28604  15.153   6.671  24.838 -0.2840  0.0237 -0.0866
 1192BOLB   C1D28605  15.889   6.862  23.740  0.1450  0.1721 -0.1906
 1192BOLB   C2D28606  15.836   6.650  24.173  0.2150  0.1064 -0.1911
 1192BOLB   C3D28607  15.987   6.571  24.483 -0.0429 -0.2357  0.0927
 1192BOLB   C4D28608  16.307   6.164  24.621  0.1952 -0.2237 -0.0383
 1193BOLB   NC128609  20.871   3.425  15.534 -0.3226  0.0406  0.2086
 1193BOLB   PO128610  20.915   2.921  15.625  0.0472  0.1500 -0.3840
 1193BOLB   GL128611  21.252   2.660  15.569 -0.1858 -0.1857  0.0198
 1193BOLB   GL228612  21.291   2.534  15.901  0.0835  0.0032  0.1915
 1193BOLB   C1A28613  21.516   2.339  15.419  0.1219  0.1435  0.1825
 1193BOLB   C2A28614  21.915   2.245  15.342  0.3671  0.1463 -0.2291
 1193BOLB   C3A28615  22.270   2.020  15.550 -0.4995 -0.2545  0.2655
 1193BOLB   C4A28616  22.255   1.818  15.905 -0.0985 -0.1048 -0.0370
 1193BOLB   C1B28617  21.415   2.465  16.350 -0.0659 -0.1677 -0.3736
 1193BOLB   C2B28618  21.568   2.151  16.574 -0.1199 -0.1885 -0.1421
 1193BOLB   C3B28619  21.725   1.891  16.994  0.3080 -0.3458 -0.1476
 1193BOLB   C4B28620  21.645   1.858  17.465 -0.1661 -0.3735  0.0831
 1193BOLB   NC228621  23.963   0.074  16.664 -0.2699  0.1491  0.0869
 1193BOLB   PO228622  23.606  -0.164  16.726  0.0788  0.1621  0.1963
 1193BOLB   GL328623  23.145  -0.029  16.501 -0.2645  0.3219 -0.1699
 1193BOLB   GL428624  22.904   0.155  16.689  0.2500  0.0549 -0.0766
 1193BOLB   C1C28625  23.017   0.389  16.247 -0.2272  0.2096 -0.0394
 1193BOLB   C2C28626  23.007   0.826  16.255 -0.1757  0.3193  0.0967
 1193BOLB   C3C28627  22.751   1.165  16.309 -0.1921  0.1577 -0.1644
 1193BOLB   C4C28628  22.397   1.437  16.179  0.0759 -0.3597 -0.0219
 1193BOLB   C1D28629  22.588   0.394  16.472 -0.0661  0.0332  0.0589
 1193BOLB   C2D28630  22.520   0.724  16.222 -0.1665 -0.1795  0.2571
 1193BOLB   C3D28631  22.233   0.972  16.177 -0.1392 -0.0077 -0.2104
 1193BOLB   C4D28632  22.053   1.246  15.923 -0.1061 -0.2354 -0.2514
 1194BOLB   NC128633  18.581   2.058  17.503  0.2141 -0.0677  0.2657
 1194BOLB   PO128634  18.413   2.148  17.045 -0.2191  0.6901  0.3233
 1194BOLB   GL128635  18.606   1.636  17.177 -0.0507  0.1409  0.0314
 1194BOLB   GL228636  18.412   1.484  17.212 -0.0629  0.1924 -0.0532
 1194BOLB   C1A28637  18.811   1.184  17.241 -0.0525 -0.1110 -0.2182
 1194BOLB   C2A28638  18.789   0.665  17.184  0.1529 -0.1365  0.3267
 1194BOLB   C3A28639  18.757   0.305  17.070  0.0369  0.1289 -0.0510
 1194BOLB   C4A28640  18.603  -0.099  16.904 -0.2426  0.1088  0.0252
 1194BOLB   C1B28641  18.409   1.110  17.518  0.0464 -0.0156 -0.1007
 1194BOLB   C2B28642  18.708   0.904  17.615  0.1733 -0.0317 -0.0823
 1194BOLB   C3B28643  19.194   0.839  17.623  0.1722 -0.1265  0.2543
 1194BOLB   C4B28644  19.617   0.555  17.586 -0.1676 -0.3445 -0.0178
 1194BOLB   NC228645  18.873  -2.946  16.692 -0.5699  0.0385  0.2018
 1194BOLB   PO228646  18.939  -2.577  16.702 -0.2083  0.1979  0.3356
 1194BOLB   GL328647  18.765  -2.147  16.902 -0.2164 -0.0554 -0.0400
 1194BOLB   GL428648  18.593  -1.896  16.664  0.1132 -0.2002 -0.0136
 1194BOLB   C1C28649  18.922  -1.723  17.013  0.2973 -0.4606  0.1327
 1194BOLB   C2C28650  18.831  -1.229  17.092 -0.0190  0.1711  0.0933
 1194BOLB   C3C28651  18.769  -0.770  17.079 -0.3620  0.2059 -0.1024
 1194BOLB   C4C28652  18.687  -0.426  17.036 -0.2043 -0.0070  0.1040
 1194BOLB   C1D28653  18.523  -1.505  16.725  0.1066 -0.0720 -0.0866
 1194BOLB   C2D28654  18.448  -1.007  16.762 -0.2991 -0.0668 -0.3794
 1194BOLB   C3D28655  18.258  -0.698  16.928 -0.1828  0.0738 -0.0674
 1194BOLB   C4D28656  18.048  -0.721  17.323  0.1629 -0.1360  0.0416
 1195BOLB   NC128657  16.343  15.435  22.744  0.0186 -0.0435 -0.2402
 1195BOLB   PO128658  16.170  15.506  22.348 -0.1256  0.1644  0.1252
 1195BOLB   GL128659  15.951  15.719  22.655  0.2177  0.3117  0.0803
 1195BOLB   GL228660  15.603  15.738  22.587 -0.2871  0.1559  0.2050
 1195BOLB   C1A28661  16.008  16.140  22.967  0.0693 -0.0192 -0.2847
 1195BOLB   C2A28662  16.078  16.194  23.454  0.1160  0.0220 -0.2119
 1195BOLB   C3A28663  16.235  16.342  23.899 -0.1864  0.1114 -0.0488
 1195BOLB   C4A28664  16.342  16.638  24.187  0.2895 -0.0154  0.1743
 1195BOLB   C1B28665  15.522  15.972  22.976 -0.0982 -0.1240  0.2883
 1195BOLB   C2B28666  15.436  16.417  23.052 -0.2827  0.0492  0.3471
 1195BOLB   C3B28667  15.321  16.836  23.243  0.1167  0.0746  0.0154
 1195BOLB   C4B28668  15.399  17.139  23.645  0.1396  0.6602  0.1934
 1195BOLB   NC228669  14.494  18.275  25.235  0.2710  0.0094  0.0841
 1195BOLB   PO228670  15.014  18.167  25.215 -0.0433 -0.0444  0.0227
 1195BOLB   GL328671  15.147  17.857  24.965 -0.0366 -0.1351  0.1027
 1195BOLB   GL428672  14.839  17.844  24.813  0.1771 -0.0240 -0.0854
 1195BOLB   C1C28673  15.504  17.514  24.929  0.0133  0.0529  0.2205
 1195BOLB   C2C28674  15.851  17.507  24.692  0.2884 -0.1810 -0.1347
 1195BOLB   C3C28675  16.200  17.321  24.712  0.1272 -0.0523 -0.0338
 1195BOLB   C4C28676  16.293  16.924  24.516  0.1811  0.1671  0.0555
 1195BOLB   C1D28677  14.685  17.582  24.397  0.0550 -0.1217 -0.0926
 1195BOLB   C2D28678  14.850  17.606  23.992 -0.1250  0.3294  0.0144
 1195BOLB   C3D28679  15.057  17.536  23.576  0.1223 -0.3466  0.0698
 1195BOLB   C4D28680  15.019  17.670  23.122  0.1633 -0.2736  0.0425
 1196BOLB   NC128681  20.530   7.316   9.811 -0.0391  0.1464 -0.2461
 1196BOLB   PO128682  20.164   7.524   9.667  0.2665 -0.0660  0.0005
 1196BOLB   GL128683  20.366   7.668   9.232 -0.0981 -0.0296 -0.2430
 1196BOLB   GL228684  20.508   7.402   9.226  0.0185 -0.1987  0.1556
 1196BOLB   C1A28685  20.653   7.795   8.890 -0.3378  0.2112  0.1507
 1196BOLB   C2A28686  21.048   7.926   8.779  0.0964  0.2394 -0.0520
 1196BOLB   C3A28687  21.347   7.704   8.680  0.0175  0.0549  0.0921
 1196BOLB   C4A28688  21.751   7.767   8.601 -0.0749  0.0735  0.2673
 1196BOLB   C1B28689  20.878   7.484   9.195  0.2295 -0.0892 -0.0740
 1196BOLB   C2B28690  21.208   7.291   8.934  0.1683  0.3217 -0.1588
 1196BOLB   C3B28691  21.568   6.886   8.912 -0.0658  0.1410  0.0760
 1196BOLB   C4B28692  21.503   6.561   8.581  0.1269  0.3257 -0.2915
 1196BOLB   NC228693  23.260   6.244   7.200  0.2380 -0.0229  0.0951
 1196BOLB   PO228694  23.441   6.651   6.992 -0.2355  0.0964  0.1649
 1196BOLB   GL328695  23.243   6.732   7.368 -0.2184  0.1001  0.1665
 1196BOLB   GL428696  23.356   7.085   7.472 -0.0834 -0.0788 -0.0602
 1196BOLB   C1C28697  22.906   6.961   7.603 -0.0220  0.0025  0.0117
 1196BOLB   C2C28698  22.496   7.061   7.860 -0.1117 -0.0786  0.2644
 1196BOLB   C3C28699  22.316   7.310   8.186  0.0231 -0.0518  0.2644
 1196BOLB   C4C28700  22.151   7.578   8.497  0.2793  0.1361 -0.1302
 1196BOLB   C1D28701  23.316   7.148   7.884  0.2037  0.1953 -0.1138
 1196BOLB   C2D28702  23.289   7.113   8.406  0.2634 -0.0281  0.1389
 1196BOLB   C3D28703  23.083   6.973   8.808 -0.2617  0.0710 -0.3696
 1196BOLB   C4D28704  23.077   6.742   9.159 -0.2409 -0.0944  0.2414
 1197BOLB   NC128705   8.371   9.244  15.890  0.2276 -0.0015 -0.0320
 1197BOLB   PO128706   8.340   9.298  16.273 -0.1000 -0.0593 -0.0214
 1197BOLB   GL128707   7.865   9.233  16.181 -0.1237  0.1309  0.0172
 1197BOLB   GL228708   7.902   9.358  15.821  0.0065  0.2711  0.3381
 1197BOLB   C1A28709   7.392   9.292  16.194 -0.1854 -0.2650  0.2794
 1197BOLB   C2A28710   6.990   9.614  16.120 -0.3182  0.2194  0.1029
 1197BOLB   C3A28711   6.692  10.002  16.245  0.1466  0.2176  0.0710
 1197BOLB   C4A28712   6.249   9.991  16.548  0.2474  0.0701 -0.2257
 1197BOLB   C1B28713   7.823   9.348  15.359 -0.0232  0.2057 -0.3170
 1197BOLB   C2B28714   7.445   9.389  15.127 -0.0609 -0.1452 -0.2427
 1197BOLB   C3B28715   7.111   9.587  14.983 -0.0460 -0.1589 -0.1152
 1197BOLB   C4B28716   6.761   9.203  14.948  0.2006  0.0916 -0.2738
 1197BOLB   NC228717   4.134  11.355  17.968 -0.0998 -0.1115  0.2264
 1197BOLB   PO228718   4.148  11.050  17.547  0.2635 -0.1158  0.1162
 1197BOLB   GL328719   4.319  10.711  17.197  0.0953 -0.0515 -0.0101
 1197BOLB   GL428720   4.039  10.411  17.229 -0.2086  0.3664 -0.4322
 1197BOLB   C1C28721   4.597  10.429  17.017 -0.3171  0.3086  0.2128
 1197BOLB   C2C28722   5.009  10.283  17.131  0.3495 -0.1509  0.0491
 1197BOLB   C3C28723   5.428  10.275  17.175 -0.2743  0.1627 -0.0041
 1197BOLB   C4C28724   5.857  10.177  16.913 -0.2768  0.0634  0.2093
 1197BOLB   C1D28725   4.198  10.079  16.884  0.0679 -0.3159 -0.1563
 1197BOLB   C2D28726   4.513  10.011  16.772  0.0904  0.0459  0.0331
 1197BOLB   C3D28727   4.906   9.919  16.666 -0.0093 -0.3025  0.1084
 1197BOLB   C4D28728   5.299   9.976  16.861 -0.2179 -0.0419 -0.1469
 1198BOLB   NC128729  22.062  16.255  18.630  0.0151  0.2948 -0.1009
 1198BOLB   PO128730  22.017  15.868  18.682 -0.2305  0.0436  0.0990
 1198BOLB   GL128731  22.362  16.073  19.036  0.0421 -0.1532 -0.0782
 1198BOLB   GL228732  22.639  16.002  18.975 -0.2563  0.1002 -0.0396
 1198BOLB   C1A28733  22.446  16.503  19.088 -0.1923 -0.0204 -0.0984
 1198BOLB   C2A28734  22.714  16.690  19.316 -0.0248  0.0387  0.3718
 1198BOLB   C3A28735  23.033  16.887  19.647  0.3036  0.2027  0.0108
 1198BOLB   C4A28736  23.137  17.211  19.854  0.1674  0.2221  0.1877
 1198BOLB   C1B28737  22.893  16.302  19.011  0.0173  0.0551 -0.0626
 1198BOLB   C2B28738  23.111  16.832  19.067 -0.2052 -0.2501 -0.1728
 1198BOLB   C3B28739  23.160  17.237  19.370  0.1702  0.2801 -0.1379
 1198BOLB   C4B28740  23.174  17.635  19.531  0.2612  0.0660 -0.1048
 1198BOLB   NC228741  26.089  17.484  19.925 -0.1783  0.0010 -0.0184
 1198BOLB   PO228742  25.561  17.635  20.062 -0.1933 -0.0851 -0.0930
 1198BOLB   GL328743  25.132  17.553  20.065 -0.1264  0.1247 -0.0911
 1198BOLB   GL428744  25.081  17.721  20.426  0.1477  0.5150 -0.2682
 1198BOLB   C1C28745  24.832  17.311  20.153  0.1175 -0.2901  0.2303
 1198BOLB   C2C28746  24.387  17.327  20.089  0.1750 -0.0504  0.0765
 1198BOLB   C3C28747  24.062  17.425  19.790 -0.2166 -0.2762 -0.0815
 1198BOLB   C4C28748  23.598  17.379  19.818 -0.2299  0.1697  0.3171
 1198BOLB   C1D28749  25.246  17.267  20.508  0.0816 -0.0673  0.3570
 1198BOLB   C2D28750  25.387  16.854  20.501  0.3112 -0.1285 -0.0195
 1198BOLB   C3D28751  25.085  16.411  20.548 -0.0329  0.1339 -0.0865
 1198BOLB   C4D28752  24.838  16.021  20.558  0.0487 -0.3343 -0.1508
 1199BOLB   NC128753  12.600   2.472  18.258  0.4857 -0.1850 -0.0930
 1199BOLB   PO128754  12.212   2.777  18.178 -0.1166 -0.0826 -0.1025
 1199BOLB   GL128755  12.097   2.386  18.254  0.3279  0.0526 -0.1341
 1199BOLB   GL228756  12.230   2.216  18.094  0.1100 -0.1865 -0.0725
 1199BOLB   C1A28757  11.913   1.999  18.449 -0.2729 -0.0138 -0.2929
 1199BOLB   C2A28758  11.997   1.841  18.813  0.1280  0.0297 -0.0423
 1199BOLB   C3A28759  12.221   1.551  18.929  0.0016 -0.3001  0.3803
 1199BOLB   C4A28760  12.109   1.127  19.123 -0.1763  0.0935  0.1981
 1199BOLB   C1B28761  11.952   1.849  17.990  0.0034 -0.0531 -0.0542
 1199BOLB   C2B28762  11.799   1.584  17.633 -0.4640 -0.1828  0.1028
 1199BOLB   C3B28763  11.435   1.434  17.351 -0.2758  0.1014 -0.0927
 1199BOLB   C4B28764  11.134   1.294  17.094  0.0798  0.1457 -0.2815
 1199BOLB   NC228765  10.954  -1.237  20.054 -0.1827 -0.0911  0.0986
 1199BOLB   PO228766  11.332  -1.091  20.021  0.0541 -0.0537  0.0093
 1199BOLB   GL328767  11.399  -0.783  19.747  0.2118 -0.0160 -0.1273
 1199BOLB   GL428768  11.349  -0.742  19.483 -0.0244 -0.0831  0.1763
 1199BOLB   C1C28769  11.507  -0.281  19.761 -0.2432  0.0315  0.1818
 1199BOLB   C2C28770  11.786   0.053  19.487  0.0369 -0.1076  0.0370
 1199BOLB   C3C28771  12.090   0.376  19.222 -0.2114 -0.1660 -0.1184
 1199BOLB   C4C28772  12.076   0.680  18.982 -0.3590  0.1932 -0.0447
 1199BOLB   C1D28773  11.741  -0.584  19.400  0.2313  0.0748  0.0516
 1199BOLB   C2D28774  11.773  -0.278  19.087  0.2000 -0.0849  0.0179
 1199BOLB   C3D28775  11.893   0.114  18.874 -0.3806  0.1536  0.1883
 1199BOLB   C4D28776  12.170   0.236  18.645 -0.0301 -0.2758  0.1986
 1200BOLB   NC128777  23.365  15.139  17.477 -0.2452  0.3443  0.2530
 1200BOLB   PO128778  23.345  14.923  17.894  0.1483  0.0982  0.4250
 1200BOLB   GL128779  23.748  15.288  17.751  0.2189  0.1502  0.2882
 1200BOLB   GL228780  23.946  15.291  17.458  0.3390 -0.0795  0.0394
 1200BOLB   C1A28781  23.852  15.761  17.936 -0.2369 -0.2007 -0.3388
 1200BOLB   C2A28782  24.204  16.070  17.898  0.3572  0.1690  0.3432
 1200BOLB   C3A28783  24.411  16.394  18.111 -0.0844 -0.0058  0.0579
 1200BOLB   C4A28784  24.704  16.586  17.968  0.2795  0.2267 -0.0665
 1200BOLB   C1B28785  24.290  15.087  17.510 -0.0041 -0.1027  0.0094
 1200BOLB   C2B28786  24.753  15.079  17.567  0.1051  0.0134  0.0227
 1200BOLB   C3B28787  25.114  15.178  17.793  0.1519  0.3085 -0.1000
 1200BOLB   C4B28788  25.597  15.282  17.857 -0.1430  0.0103 -0.0615
 1200BOLB   NC228789  26.345  18.801  18.240  0.0536 -0.0602  0.1594
 1200BOLB   PO228790  26.150  18.774  18.656 -0.3728 -0.5839 -0.1699
 1200BOLB   GL328791  25.903  18.404  18.698  0.3574 -0.0053  0.0534
 1200BOLB   GL428792  25.649  18.376  18.869 -0.0681 -0.1280  0.1577
 1200BOLB   C1C28793  25.583  18.176  18.415 -0.0772  0.2635 -0.0053
 1200BOLB   C2C28794  25.233  17.818  18.267 -0.2216 -0.2690  0.0123
 1200BOLB   C3C28795  25.069  17.389  18.259 -0.2425 -0.2039  0.0963
 1200BOLB   C4C28796  24.917  17.007  18.066 -0.3078 -0.1310  0.0362
 1200BOLB   C1D28797  25.210  18.026  18.753 -0.0975 -0.1500 -0.2927
 1200BOLB   C2D28798  25.012  17.642  18.648 -0.1693  0.0083  0.1499
 1200BOLB   C3D28799  24.669  17.316  18.605 -0.0008 -0.1059 -0.0962
 1200BOLB   C4D28800  24.176  17.281  18.668 -0.0532  0.2679  0.0548
 1201BOLB   NC128801  13.459  16.583  19.876  0.0644  0.0765  0.3788
 1201BOLB   PO128802  12.955  16.634  19.987 -0.0916  0.1799 -0.3768
 1201BOLB   GL128803  12.700  16.942  19.996 -0.1347  0.4980  0.0799
 1201BOLB   GL228804  12.815  17.140  20.181  0.0148  0.1829  0.1256
 1201BOLB   C1A28805  12.330  17.148  20.185 -0.1852  0.1460 -0.1504
 1201BOLB   C2A28806  12.180  17.523  20.157  0.3376  0.4699  0.0310
 1201BOLB   C3A28807  11.817  17.811  20.314  0.0327  0.5474  0.0112
 1201BOLB   C4A28808  11.463  18.176  20.434 -0.3810 -0.0704  0.1145
 1201BOLB   C1B28809  12.634  17.502  20.430  0.2896 -0.1511 -0.1847
 1201BOLB   C2B28810  12.605  17.875  20.592  0.0670  0.2386  0.3196
 1201BOLB   C3B28811  12.587  18.303  20.686  0.1107  0.1364  0.2500
 1201BOLB   C4B28812  12.382  18.505  21.002 -0.1101  0.0822  0.0820
 1201BOLB   NC228813   9.881  19.643  21.927 -0.3681 -0.1449  0.2551
 1201BOLB   PO228814  10.076  19.410  21.552 -0.2236 -0.0224  0.1236
 1201BOLB   GL328815  10.136  19.085  21.392  0.3318 -0.0366 -0.3482
 1201BOLB   GL428816   9.873  18.929  21.249  0.2583  0.0936 -0.0314
 1201BOLB   C1C28817  10.327  18.741  21.255  0.3558 -0.2953 -0.1464
 1201BOLB   C2C28818  10.765  18.534  21.323  0.1246  0.3803 -0.2958
 1201BOLB   C3C28819  11.100  18.422  21.154  0.1045 -0.0268  0.1298
 1201BOLB   C4C28820  11.319  18.450  20.753 -0.1140 -0.3445  0.3471
 1201BOLB   C1D28821   9.870  18.547  21.091 -0.0838 -0.1461 -0.2439
 1201BOLB   C2D28822   9.913  18.258  20.763  0.1007  0.2424  0.0262
 1201BOLB   C3D28823   9.939  17.986  20.457  0.2863  0.0844 -0.1347
 1201BOLB   C4D28824  10.058  17.720  20.087  0.0058  0.0946  0.2043
 1202BOLB   NC128825  23.506  10.680  19.095  0.0399  0.3524 -0.4495
 1202BOLB   PO128826  23.674  10.240  18.913 -0.3177  0.0566 -0.0130
 1202BOLB   GL128827  24.110  10.234  19.045  0.1569  0.1339  0.2731
 1202BOLB   GL228828  24.291  10.475  19.029  0.1163 -0.3123  0.0669
 1202BOLB   C1A28829  24.497  10.009  19.094  0.1160  0.0182  0.2048
 1202BOLB   C2A28830  24.941   9.950  19.126  0.1054 -0.1477  0.3007
 1202BOLB   C3A28831  25.358  10.036  19.097 -0.2218  0.3783 -0.1544
 1202BOLB   C4A28832  25.842  10.237  19.155  0.0626  0.1473  0.2123
 1202BOLB   C1B28833  24.570  10.437  19.278  0.1462  0.2581 -0.1909
 1202BOLB   C2B28834  24.903  10.241  19.534 -0.0535  0.1538  0.0316
 1202BOLB   C3B28835  25.289   9.986  19.660  0.1531  0.0581  0.1307
 1202BOLB   C4B28836  25.474   9.901  19.987 -0.0091  0.0592  0.0307
 1202BOLB   NC228837  27.485  11.730  20.259 -0.3004  0.3513 -0.0325
 1202BOLB   PO228838  27.634  11.433  20.006 -0.0137  0.0592 -0.2313
 1202BOLB   GL328839  27.234  11.269  20.231 -0.0621 -0.1302 -0.0322
 1202BOLB   GL428840  27.254  11.037  20.501  0.2319  0.0868  0.0936
 1202BOLB   C1C28841  26.949  10.940  20.143 -0.2090  0.1467  0.1806
 1202BOLB   C2C28842  26.647  10.760  19.830 -0.2269 -0.0349 -0.1021
 1202BOLB   C3C28843  26.331  10.498  19.691  0.0112  0.0854  0.0413
 1202BOLB   C4C28844  26.096  10.590  19.436 -0.0983 -0.0575  0.0407
 1202BOLB   C1D28845  26.955  10.739  20.596  0.0902  0.0051 -0.2106
 1202BOLB   C2D28846  26.658  10.507  20.219  0.1416  0.2755 -0.1720
 1202BOLB   C3D28847  26.334  10.300  20.214  0.1251 -0.0247  0.0294
 1202BOLB   C4D28848  26.107  10.057  19.928 -0.3104 -0.1676 -0.2117
 1203BOLB   NC128849  20.003  12.379  22.914  0.0285 -0.1781 -0.1528
 1203BOLB   PO128850  20.101  12.216  23.328  0.1912 -0.2056  0.0558
 1203BOLB   GL128851  20.060  12.237  23.792 -0.3838  0.0780 -0.1367
 1203BOLB   GL228852  20.153  11.928  24.026  0.2102  0.0741 -0.1170
 1203BOLB   C1A28853  19.958  12.379  24.182  0.0870  0.1995  0.1024
 1203BOLB   C2A28854  20.044  12.587  24.525 -0.1052  0.0287  0.3239
 1203BOLB   C3A28855  19.943  12.540  24.982  0.2451 -0.0413 -0.0910
 1203BOLB   C4A28856  19.994  12.826  25.282 -0.0629 -0.1561  0.3591
 1203BOLB   C1B28857  20.438  12.120  24.089  0.0615 -0.2319  0.0221
 1203BOLB   C2B28858  20.893  12.307  24.097 -0.0415 -0.0027 -0.0444
 1203BOLB   C3B28859  21.169  12.447  24.138  0.0162  0.0933 -0.0339
 1203BOLB   C4B28860  21.461  12.678  24.276  0.0502  0.2856  0.0523
 1203BOLB   NC228861  19.206  14.167  27.258  0.0546 -0.0534  0.1774
 1203BOLB   PO228862  19.023  13.871  27.016  0.0587  0.1569  0.0920
 1203BOLB   GL328863  19.008  13.703  26.614 -0.1163  0.0103 -0.1325
 1203BOLB   GL428864  18.843  13.326  26.662 -0.2385  0.2810 -0.0527
 1203BOLB   C1C28865  19.329  13.541  26.380  0.3759  0.2669 -0.1880
 1203BOLB   C2C28866  19.482  13.512  25.965  0.2061 -0.0777  0.0859
 1203BOLB   C3C28867  19.793  13.428  25.766  0.1048 -0.0478 -0.1231
 1203BOLB   C4C28868  19.820  13.213  25.406 -0.1449  0.2740 -0.3108
 1203BOLB   C1D28869  18.881  13.276  26.282 -0.0236  0.2800  0.0178
 1203BOLB   C2D28870  19.143  13.091  25.954  0.4357  0.0018 -0.3980
 1203BOLB   C3D28871  19.340  13.003  25.644  0.0801  0.0067 -0.1178
 1203BOLB   C4D28872  19.485  12.792  25.251  0.1975 -0.0868 -0.0608
 1204BOLB   NC128873  12.165   6.572  21.897 -0.0865  0.1067  0.1666
 1204BOLB   PO128874  12.040   6.275  21.623  0.1772  0.0988 -0.1338
 1204BOLB   GL128875  11.769   6.090  21.847  0.2512  0.2763  0.1385
 1204BOLB   GL228876  11.598   5.826  21.683 -0.4006 -0.2925  0.0881
 1204BOLB   C1A28877  11.312   6.083  22.074 -0.3256  0.2554 -0.2671
 1204BOLB   C2A28878  11.171   5.840  22.299 -0.2756 -0.1762  0.0957
 1204BOLB   C3A28879  11.084   5.714  22.738 -0.3352  0.1055 -0.2413
 1204BOLB   C4A28880  11.083   5.465  22.970 -0.1604 -0.2698 -0.2435
 1204BOLB   C1B28881  11.517   5.562  22.067  0.3489 -0.0052 -0.1236
 1204BOLB   C2B28882  11.446   5.456  22.541  0.1382  0.0105 -0.1333
 1204BOLB   C3B28883  11.426   5.134  22.792 -0.0266 -0.1266  0.1589
 1204BOLB   C4B28884  11.208   5.076  23.278  0.2573 -0.2382  0.1716
 1204BOLB   NC228885  10.214   4.048  24.619 -0.1599  0.2061 -0.1214
 1204BOLB   PO228886   9.847   3.941  24.440 -0.0731 -0.0148  0.4776
 1204BOLB   GL328887  10.072   4.202  24.147  0.1226  0.0673 -0.0300
 1204BOLB   GL428888   9.814   4.118  23.961  0.0013  0.1032  0.0347
 1204BOLB   C1C28889  10.387   4.519  24.079  0.1824  0.2084 -0.0723
 1204BOLB   C2C28890  10.428   4.775  23.678  0.3736  0.3441  0.1964
 1204BOLB   C3C28891  10.699   4.905  23.316  0.1838  0.2313 -0.0579
 1204BOLB   C4C28892  10.742   5.374  23.183  0.1214 -0.0084 -0.1110
 1204BOLB   C1D28893  10.002   4.170  23.554 -0.0690 -0.1073 -0.0556
 1204BOLB   C2D28894  10.135   4.287  23.163  0.2622  0.1825 -0.0710
 1204BOLB   C3D28895  10.533   4.231  22.837  0.3379  0.2810 -0.3249
 1204BOLB   C4D28896  10.591   4.179  22.450  0.1287  0.0217 -0.3234
 1205BOLB   NC128897  10.840  16.299  17.751  0.3177  0.0986 -0.0352
 1205BOLB   PO128898  10.647  16.132  18.126 -0.3069  0.0381  0.1746
 1205BOLB   GL128899  10.224  16.277  18.341  0.1381 -0.0868  0.4115
 1205BOLB   GL228900  10.286  16.464  18.550  0.1510 -0.2608  0.0602
 1205BOLB   C1A28901  10.025  16.706  18.238  0.0541 -0.1998 -0.0552
 1205BOLB   C2A28902   9.977  17.073  18.412  0.4930  0.0552 -0.1114
 1205BOLB   C3A28903  10.041  17.484  18.472  0.1308 -0.1354  0.1804
 1205BOLB   C4A28904   9.807  17.870  18.347  0.0159  0.2084  0.0118
 1205BOLB   C1B28905  10.322  16.850  18.703 -0.0723 -0.1572 -0.0419
 1205BOLB   C2B28906  10.218  17.296  18.895  0.0947 -0.0853  0.1239
 1205BOLB   C3B28907   9.893  17.447  19.193  0.1229 -0.2981  0.3570
 1205BOLB   C4B28908   9.764  17.574  19.620  0.0672  0.0089  0.1179
 1205BOLB   NC228909   7.562  19.080  19.404  0.0726  0.0352 -0.3788
 1205BOLB   PO228910   7.969  19.178  19.217 -0.1922  0.1159 -0.0247
 1205BOLB   GL328911   8.327  18.912  19.098  0.0510 -0.0828 -0.2142
 1205BOLB   GL428912   8.239  18.746  18.906  0.0990 -0.0603  0.0710
 1205BOLB   C1C28913   8.660  18.894  18.769 -0.4142  0.0752  0.0791
 1205BOLB   C2C28914   9.046  18.678  18.624  0.3357  0.1090 -0.1104
 1205BOLB   C3C28915   9.271  18.532  18.286  0.1145  0.0741  0.2326
 1205BOLB   C4C28916   9.645  18.187  18.255  0.0311 -0.0249  0.0371
 1205BOLB   C1D28917   8.592  18.359  18.698  0.1215 -0.1082 -0.3477
 1205BOLB   C2D28918   9.017  18.196  18.553  0.0662  0.0595  0.0369
 1205BOLB   C3D28919   9.199  18.077  18.125 -0.0516  0.2632 -0.1844
 1205BOLB   C4D28920   9.436  17.783  18.006  0.0509 -0.1765  0.1526
 1206BOLB   NC128921  12.474   4.656  20.723 -0.0589  0.3656  0.0757
 1206BOLB   PO128922  12.122   4.839  20.748 -0.2350 -0.2286  0.0684
 1206BOLB   GL128923  11.921   4.506  20.945 -0.2364  0.0405 -0.0077
 1206BOLB   GL228924  11.765   4.586  21.167 -0.2044 -0.0889  0.1887
 1206BOLB   C1A28925  12.011   4.160  21.190 -0.0426  0.0292  0.1966
 1206BOLB   C2A28926  11.972   3.921  21.538 -0.0531 -0.0453 -0.4171
 1206BOLB   C3A28927  11.745   3.592  21.655  0.0010  0.3015  0.2174
 1206BOLB   C4A28928  11.559   3.563  22.055 -0.0446 -0.4217  0.0229
 1206BOLB   C1B28929  11.784   4.369  21.593  0.2671  0.0684 -0.0999
 1206BOLB   C2B28930  11.563   4.136  21.939 -0.3533 -0.1352 -0.2326
 1206BOLB   C3B28931  11.419   4.017  22.438 -0.2366 -0.1797  0.2715
 1206BOLB   C4B28932  11.134   4.191  22.722  0.2582 -0.3559 -0.2290
 1206BOLB   NC228933  12.373   1.810  23.952  0.0170 -0.2763 -0.4356
 1206BOLB   PO228934  12.418   2.227  24.114  0.3268  0.1096 -0.2263
 1206BOLB   GL328935  12.265   2.583  23.786 -0.0517 -0.3226  0.1456
 1206BOLB   GL428936  12.068   2.824  23.909 -0.1234  0.1936 -0.0846
 1206BOLB   C1C28937  12.003   2.800  23.432  0.3215 -0.4284  0.1688
 1206BOLB   C2C28938  11.724   3.003  23.070  0.2159  0.2292  0.0452
 1206BOLB   C3C28939  11.632   2.995  22.560 -0.0761  0.0588  0.1702
 1206BOLB   C4C28940  11.499   3.268  22.279  0.1485  0.2233 -0.1729
 1206BOLB   C1D28941  12.384   3.052  23.702 -0.2792 -0.1254  0.0861
 1206BOLB   C2D28942  12.726   3.208  23.453 -0.0140 -0.1077  0.0500
 1206BOLB   C3D28943  12.676   3.344  23.019  0.3968 -0.1399  0.0746
 1206BOLB   C4D28944  12.744   3.157  22.627  0.1501 -0.2042  0.3775
 1207BOLB   NC128945  11.061  11.926  10.287 -0.1361  0.2442 -0.3414
 1207BOLB   PO128946  10.670  11.977  10.265  0.1481 -0.0041  0.1019
 1207BOLB   GL128947  10.373  12.298  10.011 -0.0239 -0.1020 -0.0516
 1207BOLB   GL228948  10.233  12.692  10.080  0.1130 -0.2326  0.1463
 1207BOLB   C1A28949  10.099  12.490   9.667 -0.1532 -0.0907 -0.3163
 1207BOLB   C2A28950   9.918  12.709   9.350 -0.0398  0.2664 -0.1445
 1207BOLB   C3A28951   9.753  12.948   8.964 -0.0083  0.1594 -0.0577
 1207BOLB   C4A28952   9.578  13.321   8.888 -0.2262  0.2810  0.0908
 1207BOLB   C1B28953   9.908  13.006  10.028  0.2397  0.0391  0.0045
 1207BOLB   C2B28954   9.718  13.167   9.768  0.0763 -0.1519  0.0616
 1207BOLB   C3B28955   9.416  13.118   9.422  0.0943  0.1885 -0.1750
 1207BOLB   C4B28956   9.166  12.972   8.974  0.0537  0.1497 -0.2959
 1207BOLB   NC228957   8.310  15.228   8.505  0.3176 -0.0371 -0.1900
 1207BOLB   PO228958   8.450  15.280   8.135  0.2306  0.1765  0.1674
 1207BOLB   GL328959   8.704  14.863   8.237 -0.2083 -0.0026  0.2485
 1207BOLB   GL428960   8.471  14.673   8.258 -0.0476  0.2037  0.3730
 1207BOLB   C1C28961   8.831  14.313   8.171 -0.1818  0.0016 -0.0934
 1207BOLB   C2C28962   8.809  13.851   8.224 -0.1439  0.1609  0.0769
 1207BOLB   C3C28963   9.130  13.699   8.498 -0.0892  0.0356 -0.0686
 1207BOLB   C4C28964   9.540  13.519   8.537  0.1491  0.0112 -0.0630
 1207BOLB   C1D28965   8.850  14.542   8.595  0.3681  0.3367 -0.0440
 1207BOLB   C2D28966   9.014  14.238   8.790  0.2203 -0.1284 -0.1162
 1207BOLB   C3D28967   9.172  13.853   8.920 -0.0545  0.0582 -0.0266
 1207BOLB   C4D28968   9.537  13.796   9.035 -0.0358  0.3610  0.2177
 1208BOLB   NC128969  11.178  15.301  19.571 -0.1183  0.2314  0.1011
 1208BOLB   PO128970  11.001  15.169  19.974 -0.2616  0.1704 -0.1348
 1208BOLB   GL128971  10.594  15.484  19.809 -0.2648 -0.2357 -0.2886
 1208BOLB   GL228972  10.594  15.787  19.752  0.1336 -0.1140  0.1289
 1208BOLB   C1A28973  10.286  15.574  20.086  0.2491  0.1224 -0.0684
 1208BOLB   C2A28974  10.091  15.787  20.462  0.2361 -0.0138 -0.1845
 1208BOLB   C3A28975   9.752  15.954  20.734  0.1629 -0.0868 -0.0076
 1208BOLB   C4A28976   9.276  16.078  20.699 -0.0389 -0.0029 -0.0760
 1208BOLB   C1B28977  10.567  16.230  19.847 -0.0144 -0.2502  0.1555
 1208BOLB   C2B28978  10.742  16.397  20.270 -0.1177  0.1325 -0.2404
 1208BOLB   C3B28979  10.458  16.454  20.671 -0.0940  0.0809  0.0793
 1208BOLB   C4B28980  10.222  16.185  20.898  0.0758 -0.2781 -0.2781
 1208BOLB   NC228981   7.572  17.137  21.811 -0.0255  0.0340  0.0419
 1208BOLB   PO228982   7.460  16.796  22.028  0.2120  0.3284  0.3787
 1208BOLB   GL328983   7.869  16.664  21.775 -0.2988  0.1249  0.0399
 1208BOLB   GL428984   8.108  16.480  21.897 -0.1847  0.2543  0.0632
 1208BOLB   C1C28985   8.031  16.550  21.418  0.0181  0.0343 -0.2901
 1208BOLB   C2C28986   8.287  16.455  21.036 -0.1046  0.0618  0.0031
 1208BOLB   C3C28987   8.520  16.256  20.975 -0.3341  0.0999 -0.3452
 1208BOLB   C4C28988   8.849  16.086  20.797  0.1123  0.1636  0.0549
 1208BOLB   C1D28989   8.453  16.349  21.591  0.0553 -0.1245  0.0301
 1208BOLB   C2D28990   8.848  16.500  21.340  0.0985 -0.0505  0.0332
 1208BOLB   C3D28991   9.130  16.461  21.031  0.0406  0.0168  0.1379
 1208BOLB   C4D28992   9.565  16.336  21.055 -0.2115 -0.0287 -0.3236
 1209BOLB   NC128993  21.988   5.551  17.938  0.1875 -0.0986  0.1468
 1209BOLB   PO128994  22.342   5.438  17.639 -0.0972  0.0790 -0.0598
 1209BOLB   GL128995  22.716   5.103  17.765 -0.1304  0.1085 -0.0132
 1209BOLB   GL228996  22.924   5.092  18.043  0.0415  0.5492  0.0245
 1209BOLB   C1A28997  22.948   4.803  17.562 -0.2621  0.0823 -0.0401
 1209BOLB   C2A28998  23.306   4.585  17.357  0.2869  0.0382 -0.1932
 1209BOLB   C3A28999  23.603   4.269  17.159 -0.1303 -0.1551  0.1457
 1209BOLB   C4A29000  23.996   4.149  17.147 -0.0882 -0.2048 -0.2914
 1209BOLB   C1B29001  23.328   4.880  18.164  0.1367 -0.0034 -0.1289
 1209BOLB   C2B29002  23.596   4.688  18.057  0.1900  0.2245 -0.0153
 1209BOLB   C3B29003  24.074   4.764  17.869  0.2061  0.0371 -0.3597
 1209BOLB   C4B29004  24.514   4.695  17.781 -0.0443  0.1700  0.3174
 1209BOLB   NC229005  25.934   2.708  16.528  0.0574 -0.0466  0.2855
 1209BOLB   PO229006  25.933   2.708  16.893 -0.1256 -0.1004  0.0240
 1209BOLB   GL329007  25.713   3.053  16.879  0.2225  0.1166  0.0593
 1209BOLB   GL429008  25.704   3.400  16.988 -0.4527 -0.0496  0.0305
 1209BOLB   C1C29009  25.181   3.226  16.753 -0.2691 -0.0956 -0.0557
 1209BOLB   C2C29010  24.992   3.620  16.569 -0.0463  0.0019 -0.1507
 1209BOLB   C3C29011  24.774   3.909  16.796  0.0778 -0.2019  0.0009
 1209BOLB   C4C29012  24.354   3.941  16.848 -0.0127  0.3617  0.4083
 1209BOLB   C1D29013  25.391   3.708  16.832  0.0317  0.2114  0.0465
 1209BOLB   C2D29014  25.184   4.088  17.000 -0.4615 -0.2870  0.0523
 1209BOLB   C3D29015  24.946   4.516  16.960 -0.0946  0.1262 -0.0357
 1209BOLB   C4D29016  24.878   4.906  16.844 -0.0825 -0.0786 -0.2166
 1210BOLB   NC129017  22.196   8.787  10.563  0.2857  0.0683 -0.3055
 1210BOLB   PO129018  21.982   8.459  10.421 -0.1404 -0.0050  0.1585
 1210BOLB   GL129019  22.362   8.296  10.435 -0.0136 -0.1187  0.0713
 1210BOLB   GL229020  22.388   8.028  10.249 -0.2457 -0.1226 -0.1355
 1210BOLB   C1A29021  22.794   8.369  10.283  0.0750  0.0835 -0.2253
 1210BOLB   C2A29022  23.079   8.255   9.896 -0.1672  0.1018 -0.1867
 1210BOLB   C3A29023  23.335   8.019   9.700  0.2112  0.1587  0.0848
 1210BOLB   C4A29024  23.560   7.569   9.713  0.3174 -0.0414 -0.1512
 1210BOLB   C1B29025  22.681   7.843  10.015 -0.1187  0.2207  0.2318
 1210BOLB   C2B29026  23.036   7.608   9.848  0.1089 -0.2493  0.1192
 1210BOLB   C3B29027  23.126   7.605   9.422 -0.4996 -0.2666  0.4327
 1210BOLB   C4B29028  23.500   7.637   9.190 -0.0027  0.0465  0.1558
 1210BOLB   NC229029  25.145   7.982   7.980 -0.0672 -0.0836  0.0823
 1210BOLB   PO229030  25.256   7.598   8.298  0.1653 -0.2155 -0.0821
 1210BOLB   GL329031  24.867   7.677   8.418 -0.1919  0.1181  0.2562
 1210BOLB   GL429032  25.036   8.059   8.568 -0.0426 -0.1898 -0.3654
 1210BOLB   C1C29033  24.728   7.442   8.809 -0.0005 -0.2421 -0.1885
 1210BOLB   C2C29034  24.289   7.362   9.014  0.4196 -0.0640  0.0522
 1210BOLB   C3C29035  23.922   7.309   9.108  0.1708  0.0420  0.1851
 1210BOLB   C4C29036  23.787   7.317   9.448 -0.0352  0.3670 -0.0969
 1210BOLB   C1D29037  24.860   7.930   8.944  0.1485  0.2702  0.4461
 1210BOLB   C2D29038  24.609   7.897   9.368  0.0716 -0.2116 -0.0093
 1210BOLB   C3D29039  24.457   8.102   9.817  0.0627  0.2391 -0.2267
 1210BOLB   C4D29040  24.520   8.216  10.308  0.1786 -0.0676  0.0332
 1211BOLB   NC129041  10.351   8.248  21.206 -0.0201  0.1913  0.1000
 1211BOLB   PO129042  10.332   7.791  21.416 -0.3021 -0.2610  0.0588
 1211BOLB   GL129043  10.016   7.533  21.633 -0.1916  0.2289  0.0682
 1211BOLB   GL229044  10.435   7.448  21.731 -0.0347 -0.0065  0.1441
 1211BOLB   C1A29045   9.718   7.362  21.970 -0.3272 -0.0130 -0.0256
 1211BOLB   C2A29046   9.644   7.407  22.412  0.1395 -0.1976  0.0354
 1211BOLB   C3A29047   9.726   7.824  22.783 -0.1098  0.2494 -0.0062
 1211BOLB   C4A29048   9.855   8.030  23.179 -0.2223  0.0523  0.2079
 1211BOLB   C1B29049  10.303   7.378  22.125 -0.0969  0.1814 -0.1159
 1211BOLB   C2B29050  10.173   7.295  22.484 -0.0190 -0.0838 -0.0802
 1211BOLB   C3B29051   9.933   7.376  22.828  0.0455 -0.0661  0.3194
 1211BOLB   C4B29052  10.147   7.637  23.197 -0.2225  0.0132 -0.1568
 1211BOLB   NC229053   9.212   8.382  26.075  0.2186  0.1863 -0.1464
 1211BOLB   PO229054   9.248   8.537  25.664  0.1326  0.1075 -0.0792
 1211BOLB   GL329055   9.402   8.292  25.238 -0.1399  0.2575  0.5134
 1211BOLB   GL429056   9.213   8.265  24.970 -0.4490 -0.2801 -0.3762
 1211BOLB   C1C29057   9.633   7.916  24.921 -0.2171 -0.2838  0.3217
 1211BOLB   C2C29058   9.602   7.989  24.500 -0.3271  0.1361 -0.2542
 1211BOLB   C3C29059   9.549   7.989  24.014  0.1438 -0.0148  0.1124
 1211BOLB   C4C29060   9.728   8.123  23.690 -0.1592  0.1562 -0.2867
 1211BOLB   C1D29061   9.530   8.574  24.750  0.3663  0.1280 -0.2261
 1211BOLB   C2D29062   9.862   8.501  24.737 -0.1867 -0.0124 -0.0398
 1211BOLB   C3D29063  10.116   8.160  24.607  0.0339 -0.4440 -0.0004
 1211BOLB   C4D29064  10.435   7.908  24.408 -0.0707  0.1130  0.3223
 1212BOLB   NC129065  14.925  13.147   7.848 -0.1687 -0.0270 -0.3224
 1212BOLB   PO129066  15.231  13.423   8.022 -0.0817 -0.0040 -0.0552
 1212BOLB   GL129067  15.144  13.597   7.633 -0.0793 -0.3905  0.1439
 1212BOLB   GL229068  14.830  13.686   7.646  0.2302 -0.1783  0.1653
 1212BOLB   C1A29069  15.043  13.580   7.084  0.1786 -0.0937 -0.0337
 1212BOLB   C2A29070  14.763  13.397   6.810 -0.0247  0.1662 -0.2013
 1212BOLB   C3A29071  14.431  13.212   6.513  0.1957  0.1591 -0.2629
 1212BOLB   C4A29072  14.087  12.914   6.204  0.0829 -0.0009  0.0462
 1212BOLB   C1B29073  14.946  14.011   7.252 -0.1186  0.0944 -0.0394
 1212BOLB   C2B29074  14.918  14.370   7.033  0.1520 -0.1916 -0.1668
 1212BOLB   C3B29075  15.325  14.553   6.787 -0.1356  0.1637  0.0436
 1212BOLB   C4B29076  15.788  14.727   6.638 -0.0844  0.2318  0.0144
 1212BOLB   NC229077  12.852  14.223   4.530  0.3128 -0.0150  0.0227
 1212BOLB   PO229078  13.320  14.278   4.580 -0.0381  0.1330  0.2252
 1212BOLB   GL329079  13.244  13.997   4.910  0.0227 -0.3320  0.1808
 1212BOLB   GL429080  13.509  14.121   5.053 -0.1855 -0.0402 -0.0625
 1212BOLB   C1C29081  13.347  13.665   5.207  0.0855  0.1417  0.2716
 1212BOLB   C2C29082  13.514  13.290   5.174  0.2311  0.0019 -0.0944
 1212BOLB   C3C29083  13.610  12.924   5.483  0.2824 -0.6033 -0.1555
 1212BOLB   C4C29084  13.998  12.873   5.757  0.1814 -0.0791 -0.1703
 1212BOLB   C1D29085  13.406  14.055   5.507  0.0755 -0.3867 -0.3659
 1212BOLB   C2D29086  13.498  13.681   5.666 -0.0410 -0.3284  0.0140
 1212BOLB   C3D29087  13.780  13.386   5.578  0.2526  0.2012 -0.0724
 1212BOLB   C4D29088  14.112  13.100   5.307  0.0155 -0.0720  0.1898
 1213BOLB   NC129089  20.898  15.650  12.533  0.3753 -0.1287  0.0301
 1213BOLB   PO129090  21.342  15.711  12.904 -0.2317  0.2435  0.2421
 1213BOLB   GL129091  21.586  16.129  12.857 -0.2857  0.0664 -0.3340
 1213BOLB   GL229092  21.554  16.402  13.007 -0.0361 -0.3036 -0.3090
 1213BOLB   C1A29093  22.002  16.305  12.610 -0.0737  0.0325  0.3567
 1213BOLB   C2A29094  22.213  16.566  12.363 -0.3084  0.3520  0.1091
 1213BOLB   C3A29095  22.134  16.692  11.882  0.2128 -0.1712 -0.1589
 1213BOLB   C4A29096  22.235  16.485  11.521  0.0254 -0.0993 -0.0868
 1213BOLB   C1B29097  21.686  16.653  12.697 -0.1232 -0.1094 -0.2350
 1213BOLB   C2B29098  21.709  17.061  12.584 -0.1222  0.1874  0.1311
 1213BOLB   C3B29099  21.740  17.357  12.797  0.0423 -0.0197  0.1947
 1213BOLB   C4B29100  22.095  17.644  12.914 -0.1080 -0.2185  0.0654
 1213BOLB   NC229101  23.987  17.319   9.955  0.0305 -0.3300  0.3142
 1213BOLB   PO229102  23.846  17.319   9.576 -0.0102  0.1490 -0.1266
 1213BOLB   GL329103  23.507  17.301   9.903 -0.0339  0.1800 -0.0619
 1213BOLB   GL429104  23.597  17.024  10.089 -0.2632 -0.3489  0.0296
 1213BOLB   C1C29105  23.165  17.300  10.138  0.0182  0.0957 -0.4013
 1213BOLB   C2C29106  22.971  16.988  10.376 -0.2348  0.2761 -0.1872
 1213BOLB   C3C29107  22.678  16.833  10.740 -0.2544 -0.0102  0.1832
 1213BOLB   C4C29108  22.395  16.595  11.021  0.2934  0.3210  0.2446
 1213BOLB   C1D29109  23.362  16.706  10.137  0.0702 -0.0048  0.0990
 1213BOLB   C2D29110  23.258  16.479   9.907  0.1164  0.2448  0.0842
 1213BOLB   C3D29111  22.937  16.457   9.623  0.0108  0.2386  0.3175
 1213BOLB   C4D29112  22.730  16.121   9.544  0.2271 -0.1371 -0.1235
 1214BOLB   NC129113   8.257  11.963  16.448  0.0664 -0.0580 -0.0636
 1214BOLB   PO129114   8.210  12.378  16.829 -0.1341  0.0235 -0.0208
 1214BOLB   GL129115   7.929  11.986  16.838 -0.2862 -0.0899  0.0272
 1214BOLB   GL229116   7.788  11.692  16.655 -0.0598 -0.2076  0.1804
 1214BOLB   C1A29117   7.594  11.789  17.072 -0.0015 -0.1057 -0.1435
 1214BOLB   C2A29118   7.139  11.789  17.303  0.1880  0.1888  0.0274
 1214BOLB   C3A29119   6.773  12.045  17.450 -0.0148 -0.3432  0.0292
 1214BOLB   C4A29120   6.414  12.066  17.609  0.1097 -0.0782  0.1922
 1214BOLB   C1B29121   7.514  11.480  16.392  0.6647 -0.2641  0.1549
 1214BOLB   C2B29122   7.185  11.259  16.309  0.1613  0.1120 -0.2438
 1214BOLB   C3B29123   6.770  11.175  16.257 -0.6748  0.3109 -0.0147
 1214BOLB   C4B29124   6.330  10.944  16.157 -0.2947 -0.1820  0.3138
 1214BOLB   NC229125   4.361  11.471  17.323 -0.2106  0.0064 -0.0315
 1214BOLB   PO229126   4.549  11.426  17.691  0.1152  0.4214  0.0917
 1214BOLB   GL329127   4.855  11.565  17.430 -0.0981 -0.0206  0.0252
 1214BOLB   GL429128   4.872  11.289  17.167  0.3446 -0.0980  0.0092
 1214BOLB   C1C29129   5.302  11.699  17.536  0.0419  0.2047  0.3722
 1214BOLB   C2C29130   5.717  11.662  17.726 -0.2673 -0.0082  0.1409
 1214BOLB   C3C29131   6.121  11.575  17.970  0.5814 -0.3475 -0.2592
 1214BOLB   C4C29132   6.414  11.749  17.917  0.0585 -0.1649  0.0164
 1214BOLB   C1D29133   5.262  11.258  16.936  0.2240 -0.0058 -0.4163
 1214BOLB   C2D29134   5.648  11.029  16.739  0.0812 -0.1650 -0.0859
 1214BOLB   C3D29135   5.990  10.778  16.552 -0.3200  0.3396 -0.2320
 1214BOLB   C4D29136   6.293  10.493  16.659 -0.0577  0.0273 -0.2205
 1215BOLB   NC129137  22.801  13.114  12.148  0.1840 -0.1092  0.0526
 1215BOLB   PO129138  22.962  13.118  12.649  0.1794  0.3058  0.1133
 1215BOLB   GL129139  23.281  12.997  12.307 -0.0191 -0.0884 -0.0749
 1215BOLB   GL229140  23.318  13.222  11.925  0.0955  0.1491  0.0685
 1215BOLB   C1A29141  23.711  12.878  12.028  0.1357 -0.2144  0.0780
 1215BOLB   C2A29142  23.831  12.744  11.603 -0.0329  0.1493 -0.1335
 1215BOLB   C3A29143  24.104  12.668  11.246  0.0057  0.3685 -0.2911
 1215BOLB   C4A29144  24.518  12.559  11.053 -0.0756  0.1625 -0.0115
 1215BOLB   C1B29145  23.719  13.416  11.759  0.3538  0.0242  0.0056
 1215BOLB   C2B29146  24.045  13.633  11.597 -0.1088  0.0385  0.2910
 1215BOLB   C3B29147  24.149  14.149  11.477 -0.0811  0.3698 -0.0884
 1215BOLB   C4B29148  24.443  14.547  11.464  0.0477 -0.0996  0.1252
 1215BOLB   NC229149  26.776  11.028  10.421  0.2314  0.4373 -0.2437
 1215BOLB   PO229150  26.761  11.357  10.702  0.3090  0.0186  0.0318
 1215BOLB   GL329151  26.292  11.569  10.672 -0.1228  0.1631 -0.0237
 1215BOLB   GL429152  26.157  11.546  10.284  0.0088  0.0951  0.0317
 1215BOLB   C1C29153  25.783  11.644  10.599 -0.0360 -0.2622 -0.3168
 1215BOLB   C2C29154  25.439  11.945  10.702  0.2245  0.1025 -0.2818
 1215BOLB   C3C29155  25.105  12.010  10.741  0.0471  0.1644 -0.0125
 1215BOLB   C4C29156  24.836  12.180  10.948  0.3460 -0.1358  0.1401
 1215BOLB   C1D29157  25.934  11.998  10.301 -0.1282  0.0846  0.3620
 1215BOLB   C2D29158  25.526  12.303  10.439  0.1752 -0.0483  0.0679
 1215BOLB   C3D29159  25.346  12.734  10.478  0.1013  0.0336  0.1222
 1215BOLB   C4D29160  25.379  13.124  10.365  0.0480 -0.1321  0.0314
 1216BOLB   NC129161  23.906   7.847  13.671 -0.0937 -0.1639 -0.3601
 1216BOLB   PO129162  23.631   7.597  13.409  0.1240  0.0602 -0.1560
 1216BOLB   GL129163  23.835   7.321  13.074 -0.2990  0.3019 -0.1994
 1216BOLB   GL229164  24.150   7.530  13.225  0.2773  0.1251  0.0293
 1216BOLB   C1A29165  23.889   6.886  12.918 -0.0016 -0.0041 -0.2490
 1216BOLB   C2A29166  24.199   6.779  12.651  0.0315  0.1066  0.0233
 1216BOLB   C3A29167  24.513   7.136  12.484 -0.4542  0.1751 -0.0137
 1216BOLB   C4A29168  24.887   7.173  12.449  0.2813 -0.0486  0.0353
 1216BOLB   C1B29169  24.300   7.064  13.148  0.1831  0.0102 -0.2299
 1216BOLB   C2B29170  24.561   6.657  13.138  0.2649  0.1548  0.0455
 1216BOLB   C3B29171  24.950   6.399  12.985  0.2398  0.2983 -0.3757
 1216BOLB   C4B29172  25.148   6.148  12.684  0.0581  0.0909  0.1383
 1216BOLB   NC229173  27.682   6.913  12.020  0.3793 -0.2003 -0.1058
 1216BOLB   PO229174  27.310   6.712  11.809 -0.0778 -0.0878  0.3543
 1216BOLB   GL329175  26.850   6.614  11.803 -0.1185 -0.2517 -0.0943
 1216BOLB   GL429176  26.698   6.360  11.849  0.1423  0.4170  0.1555
 1216BOLB   C1C29177  26.523   6.869  11.826 -0.0086  0.1550  0.1934
 1216BOLB   C2C29178  26.153   7.054  11.897  0.2859  0.0135  0.2126
 1216BOLB   C3C29179  25.714   7.036  12.110 -0.0328 -0.0496 -0.4470
 1216BOLB   C4C29180  25.295   7.004  12.220  0.1648 -0.0982  0.0614
 1216BOLB   C1D29181  26.399   6.361  12.122 -0.2890  0.2925 -0.0924
 1216BOLB   C2D29182  26.057   6.662  12.299  0.1236 -0.1257 -0.1213
 1216BOLB   C3D29183  25.588   6.601  12.400  0.0806  0.1372  0.2341
 1216BOLB   C4D29184  25.196   6.638  12.563 -0.2596  0.1492 -0.1004
 1217BOLB   NC129185  21.311   4.278  12.521 -0.1469  0.2584 -0.2358
 1217BOLB   PO129186  21.547   4.576  12.721  0.0675 -0.0909  0.2035
 1217BOLB   GL129187  21.746   4.304  12.831  0.0117  0.0244  0.2456
 1217BOLB   GL229188  21.774   4.054  12.564 -0.1491 -0.0889 -0.1717
 1217BOLB   C1A29189  21.965   3.984  13.052 -0.0363  0.2244 -0.1113
 1217BOLB   C2A29190  22.310   3.737  13.092  0.1130 -0.0533  0.0770
 1217BOLB   C3A29191  22.516   3.459  12.885  0.0216 -0.1353  0.0243
 1217BOLB   C4A29192  22.902   3.267  12.756  0.1165 -0.0277  0.0453
 1217BOLB   C1B29193  22.081   3.801  12.479  0.0672  0.3257  0.0704
 1217BOLB   C2B29194  22.254   3.410  12.508 -0.0495 -0.2777 -0.1530
 1217BOLB   C3B29195  22.383   3.155  12.224  0.0844 -0.1264  0.0844
 1217BOLB   C4B29196  22.232   2.859  11.879 -0.1108 -0.0533 -0.0730
 1217BOLB   NC229197  24.408   1.418  12.906 -0.3631 -0.1151 -0.0365
 1217BOLB   PO229198  24.737   1.494  13.207 -0.0202 -0.0213  0.0342
 1217BOLB   GL329199  24.550   1.937  13.219  0.3138  0.1929  0.0054
 1217BOLB   GL429200  24.741   2.232  13.268  0.2620 -0.0661 -0.1054
 1217BOLB   C1C29201  24.173   2.182  13.055  0.2332  0.1557 -0.0729
 1217BOLB   C2C29202  23.727   2.186  12.910 -0.1211  0.2826  0.3340
 1217BOLB   C3C29203  23.420   2.616  12.756  0.2658  0.0897 -0.3138
 1217BOLB   C4C29204  23.165   2.954  12.785  0.0008 -0.1979  0.0801
 1217BOLB   C1D29205  24.578   2.484  12.873  0.2329 -0.2565  0.2426
 1217BOLB   C2D29206  24.566   3.062  12.830 -0.0432  0.0030  0.1353
 1217BOLB   C3D29207  24.238   3.308  12.979  0.3323  0.1488  0.4178
 1217BOLB   C4D29208  23.941   3.133  13.271 -0.0764  0.0220  0.1187
 1218BOLB   NC129209  17.384   2.253  18.509 -0.1214  0.2830 -0.0254
 1218BOLB   PO129210  17.719   2.357  18.094 -0.0499 -0.0246 -0.0628
 1218BOLB   GL129211  17.966   1.950  18.278  0.0253  0.1862  0.1569
 1218BOLB   GL229212  18.220   2.009  18.455 -0.1343  0.0488 -0.1364
 1218BOLB   C1A29213  17.850   1.588  18.430  0.0275 -0.1601 -0.0199
 1218BOLB   C2A29214  18.108   1.262  18.653  0.2648 -0.1279 -0.1280
 1218BOLB   C3A29215  18.395   1.084  19.009  0.0255 -0.1385 -0.3160
 1218BOLB   C4A29216  18.317   0.629  19.250  0.0251 -0.0967 -0.2066
 1218BOLB   C1B29217  18.398   1.787  18.765 -0.0224  0.2974 -0.0384
 1218BOLB   C2B29218  18.717   1.543  18.917  0.0695  0.0360 -0.0533
 1218BOLB   C3B29219  18.995   1.097  18.968  0.2490  0.0364 -0.2167
 1218BOLB   C4B29220  19.255   0.884  19.201  0.2699 -0.4482 -0.0424
 1218BOLB   NC229221  17.640  -2.017  19.063 -0.3127  0.0173 -0.4262
 1218BOLB   PO229222  17.829  -1.757  19.419  0.3926  0.1099 -0.1853
 1218BOLB   GL329223  17.899  -1.283  19.305  0.0703  0.0845  0.0145
 1218BOLB   GL429224  17.668  -1.440  18.985 -0.3346 -0.2502 -0.0124
 1218BOLB   C1C29225  18.067  -0.901  19.417  0.3045  0.0976 -0.0168
 1218BOLB   C2C29226  18.155  -0.537  19.395  0.0069 -0.1128  0.1761
 1218BOLB   C3C29227  18.035  -0.192  19.518 -0.1998  0.0273  0.0934
 1218BOLB   C4C29228  18.259   0.178  19.442  0.2895  0.1165 -0.0191
 1218BOLB   C1D29229  17.357  -1.281  18.992  0.2598  0.0392  0.0447
 1218BOLB   C2D29230  17.155  -0.934  18.789  0.0594 -0.0339  0.2216
 1218BOLB   C3D29231  17.087  -0.659  18.469 -0.1815  0.3310 -0.0401
 1218BOLB   C4D29232  16.920  -0.207  18.305 -0.1227  0.0464  0.1117
 1219BOLB   NC129233   2.471   7.092  18.541 -0.1061  0.2211  0.0592
 1219BOLB   PO129234   2.931   7.127  18.369  0.0669 -0.0425  0.0430
 1219BOLB   GL129235   3.404   7.209  18.241  0.1456  0.4284  0.2236
 1219BOLB   GL229236   3.643   7.101  18.423  0.2632 -0.4340  0.0884
 1219BOLB   C1A29237   3.621   7.217  17.835  0.4568  0.1328  0.3008
 1219BOLB   C2A29238   3.526   7.180  17.395 -0.0444  0.2399 -0.0938
 1219BOLB   C3A29239   3.515   7.273  16.942 -0.0344  0.0589 -0.1459
 1219BOLB   C4A29240   3.442   7.753  16.848 -0.1911 -0.1065  0.0786
 1219BOLB   C1B29241   3.956   7.071  18.160 -0.2454  0.1140  0.1315
 1219BOLB   C2B29242   4.368   7.211  18.264 -0.0727  0.2018 -0.0741
 1219BOLB   C3B29243   4.741   7.089  18.326  0.2017  0.2229 -0.2196
 1219BOLB   C4B29244   5.160   7.296  18.233  0.2219 -0.6043  0.2796
 1219BOLB   NC229245   2.857   9.904  17.245  0.0277 -0.3141 -0.1209
 1219BOLB   PO229246   3.246  10.121  17.413  0.2130 -0.2282 -0.2415
 1219BOLB   GL329247   3.256   9.636  17.452  0.0551  0.0657 -0.0760
 1219BOLB   GL429248   3.540   9.676  17.306 -0.1347  0.0433  0.0865
 1219BOLB   C1C29249   3.064   9.226  17.260  0.3805  0.0802 -0.2274
 1219BOLB   C2C29250   2.876   8.814  17.243  0.2359  0.1711  0.2559
 1219BOLB   C3C29251   2.989   8.489  16.990 -0.0281  0.0075 -0.1620
 1219BOLB   C4C29252   3.107   8.042  16.753 -0.0847  0.0746  0.1593
 1219BOLB   C1D29253   3.915   9.681  16.934  0.1483  0.2272 -0.1690
 1219BOLB   C2D29254   4.242   9.542  16.566  0.1002 -0.0495 -0.1650
 1219BOLB   C3D29255   4.649   9.448  16.316 -0.1912 -0.1266 -0.0557
 1219BOLB   C4D29256   4.840   9.113  16.308  0.0255 -0.2473  0.1084
 1220BOLB   NC129257  11.394  16.140  19.205  0.0477  0.0860 -0.1674
 1220BOLB   PO129258  11.032  16.323  19.204 -0.0758 -0.0803 -0.1276
 1220BOLB   GL129259  10.852  16.604  19.461  0.2379 -0.0609  0.2563
 1220BOLB   GL229260  10.539  16.611  19.446  0.2295 -0.0260 -0.0286
 1220BOLB   C1A29261  10.746  17.052  19.642  0.1472  0.1142  0.0848
 1220BOLB   C2A29262  10.850  17.477  19.681  0.0635 -0.0242  0.0553
 1220BOLB   C3A29263  10.809  17.714  20.036  0.2125  0.0451  0.1233
 1220BOLB   C4A29264  10.479  17.975  20.323 -0.0791  0.0922 -0.1811
 1220BOLB   C1B29265  10.412  16.706  19.922 -0.2844  0.1528  0.0673
 1220BOLB   C2B29266  10.274  16.793  20.356 -0.0219 -0.0475 -0.1244
 1220BOLB   C3B29267   9.928  16.673  20.683  0.2992 -0.0917  0.0982
 1220BOLB   C4B29268   9.570  16.500  20.531 -0.1000  0.2819  0.3999
 1220BOLB   NC229269   9.310  18.752  22.597 -0.2008  0.2184  0.1592
 1220BOLB   PO229270   9.131  18.539  22.235  0.0796 -0.2964  0.2589
 1220BOLB   GL329271   9.320  18.231  21.870  0.1135  0.2382  0.1385
 1220BOLB   GL429272   9.527  18.157  22.132  0.0591  0.1800  0.1122
 1220BOLB   C1C29273   9.743  18.212  21.652  0.1665  0.3399  0.2847
 1220BOLB   C2C29274  10.121  18.269  21.496  0.1698 -0.0482  0.0781
 1220BOLB   C3C29275  10.404  18.207  21.121  0.0218  0.1642  0.1808
 1220BOLB   C4C29276  10.397  17.933  20.799 -0.5223 -0.4919 -0.0205
 1220BOLB   C1D29277   9.719  17.701  22.130  0.0586  0.0240 -0.3269
 1220BOLB   C2D29278   9.584  17.343  22.040 -0.0695 -0.0296 -0.0619
 1220BOLB   C3D29279   9.352  16.990  22.156 -0.2589 -0.1032  0.2928
 1220BOLB   C4D29280   8.947  17.161  22.003 -0.0455  0.0663  0.0190
 1221BOLB   NC129281  13.490  16.157  11.803  0.1785  0.3125 -0.0046
 1221BOLB   PO129282  13.254  16.331  11.385  0.0592 -0.1717 -0.0163
 1221BOLB   GL129283  13.022  16.577  11.152  0.0065 -0.1425  0.0673
 1221BOLB   GL229284  13.312  16.839  11.095  0.0409  0.2892 -0.1989
 1221BOLB   C1A29285  12.891  16.764  10.860  0.0442  0.2369 -0.0731
 1221BOLB   C2A29286  12.701  17.020  10.657  0.1403 -0.0076  0.1000
 1221BOLB   C3A29287  12.317  17.073  10.474 -0.0058  0.1704 -0.1163
 1221BOLB   C4A29288  11.950  17.141  10.242 -0.1474  0.1534 -0.4212
 1221BOLB   C1B29289  13.260  17.248  10.791 -0.2916  0.2555  0.0625
 1221BOLB   C2B29290  13.044  17.348  10.465  0.1170  0.0418 -0.0762
 1221BOLB   C3B29291  12.995  17.281  10.052  0.0111  0.0666  0.1810
 1221BOLB   C4B29292  12.644  17.469   9.811  0.0666  0.1547 -0.2787
 1221BOLB   NC229293  10.693  19.168   9.244  0.0122 -0.1459  0.0818
 1221BOLB   PO229294  11.006  18.923   9.160 -0.0281  0.0706 -0.0779
 1221BOLB   GL329295  10.934  18.539   9.076  0.0603 -0.1480  0.0015
 1221BOLB   GL429296  11.028  18.321   8.957 -0.0790  0.0694 -0.0550
 1221BOLB   C1C29297  10.791  18.246   9.370 -0.3375 -0.1188  0.2461
 1221BOLB   C2C29298  10.989  17.881   9.655  0.1653  0.0298  0.0046
 1221BOLB   C3C29299  11.264  17.626  10.029 -0.0952  0.0576  0.0983
 1221BOLB   C4C29300  11.623  17.365   9.958  0.2778 -0.2342 -0.3436
 1221BOLB   C1D29301  11.207  17.984   9.231  0.0425  0.0591 -0.0251
 1221BOLB   C2D29302  11.635  17.701   9.362 -0.1383 -0.1096  0.1696
 1221BOLB   C3D29303  11.972  17.523   9.504  0.3356  0.2071  0.3044
 1221BOLB   C4D29304  11.978  17.189   9.678  0.0182 -0.0215 -0.2025
 1222BOLB   NC129305  13.009   3.660  19.129 -0.0097 -0.0045  0.0850
 1222BOLB   PO129306  12.856   3.815  19.638  0.1424 -0.1461 -0.5593
 1222BOLB   GL129307  12.836   3.599  19.972 -0.2511  0.0947  0.1555
 1222BOLB   GL229308  13.258   3.353  20.084  0.0108  0.1081  0.3575
 1222BOLB   C1A29309  12.749   3.377  20.365 -0.1897 -0.3420 -0.1534
 1222BOLB   C2A29310  12.550   3.008  20.577  0.1190  0.0907  0.0335
 1222BOLB   C3A29311  12.395   2.653  20.586 -0.0868  0.0155  0.0490
 1222BOLB   C4A29312  12.366   2.266  20.703  0.1325  0.1328  0.0153
 1222BOLB   C1B29313  13.151   2.955  20.296 -0.2699 -0.0956  0.0645
 1222BOLB   C2B29314  12.941   2.736  20.524 -0.0314  0.1030 -0.2491
 1222BOLB   C3B29315  12.740   2.506  20.870  0.2556 -0.3163 -0.3089
 1222BOLB   C4B29316  12.666   2.608  21.341 -0.1323  0.0668  0.0996
 1222BOLB   NC229317  12.186   0.615  22.139 -0.0035 -0.0427  0.0031
 1222BOLB   PO229318  12.332   0.262  21.976  0.1799 -0.2187 -0.0095
 1222BOLB   GL329319  12.542   0.534  21.793 -0.0987  0.0402  0.3206
 1222BOLB   GL429320  12.831   0.664  21.927  0.1551 -0.2125 -0.0189
 1222BOLB   C1C29321  12.464   0.883  21.563  0.0621  0.1061 -0.0477
 1222BOLB   C2C29322  12.617   1.190  21.360  0.0139  0.1054 -0.0640
 1222BOLB   C3C29323  12.508   1.463  21.061  0.2989 -0.3128  0.4556
 1222BOLB   C4C29324  12.358   1.830  20.855 -0.2386 -0.0311 -0.2609
 1222BOLB   C1D29325  13.023   1.036  21.725 -0.0433 -0.1628 -0.1625
 1222BOLB   C2D29326  13.245   1.313  21.763 -0.1957  0.1661  0.0852
 1222BOLB   C3D29327  13.705   1.294  21.935 -0.1386 -0.0403 -0.0610
 1222BOLB   C4D29328  14.025   1.441  22.352  0.2718 -0.0009  0.3481
 1223BOLB   NC129329  13.551  15.727  10.310  0.4035  0.0260  0.0256
 1223BOLB   PO129330  13.462  15.650   9.862  0.1796 -0.0192 -0.2143
 1223BOLB   GL129331  13.181  15.805   9.571 -0.4686 -0.1252 -0.1822
 1223BOLB   GL229332  12.930  15.639   9.370  0.1064 -0.1231 -0.1029
 1223BOLB   C1A29333  13.154  16.035   9.257 -0.4036  0.1299  0.1204
 1223BOLB   C2A29334  12.922  16.139   8.957 -0.0038  0.1493  0.2475
 1223BOLB   C3A29335  12.578  15.918   8.666 -0.2051 -0.2498  0.2239
 1223BOLB   C4A29336  12.344  15.919   8.385  0.2654  0.0727  0.0718
 1223BOLB   C1B29337  12.530  15.797   9.161 -0.0458 -0.2649 -0.0742
 1223BOLB   C2B29338  12.084  15.793   8.904  0.0410  0.3232 -0.0408
 1223BOLB   C3B29339  11.920  16.166   8.697 -0.0601 -0.1597 -0.3501
 1223BOLB   C4B29340  11.590  16.387   8.724 -0.1335  0.0383  0.1316
 1223BOLB   NC229341  11.216  18.089   6.903 -0.2133 -0.3061 -0.0439
 1223BOLB   PO229342  11.250  17.952   7.372 -0.1935 -0.0954 -0.1462
 1223BOLB   GL329343  11.330  17.625   7.563  0.4697 -0.1018  0.1781
 1223BOLB   GL429344  11.196  17.536   7.833 -0.3119  0.1860  0.1797
 1223BOLB   C1C29345  11.654  17.345   7.849 -0.4067  0.1901  0.1185
 1223BOLB   C2C29346  11.900  16.914   8.015 -0.2065 -0.0670  0.0252
 1223BOLB   C3C29347  11.882  16.529   8.174  0.2422  0.3329 -0.1824
 1223BOLB   C4C29348  12.075  16.049   8.136 -0.3233 -0.1135 -0.0410
 1223BOLB   C1D29349  11.378  17.530   8.261 -0.0345  0.2397  0.1529
 1223BOLB   C2D29350  11.375  17.282   8.667 -0.2787 -0.0262 -0.0118
 1223BOLB   C3D29351  11.168  17.035   8.908  0.2256  0.3435  0.2214
 1223BOLB   C4D29352  10.781  16.720   8.950 -0.2367 -0.1016  0.0120
 1224BOLB   NC129353  14.103   4.301  21.325 -0.2362  0.3089 -0.1276
 1224BOLB   PO129354  13.871   4.062  21.130 -0.1094 -0.1674 -0.1934
 1224BOLB   GL129355  13.756   3.825  21.377  0.1739  0.2489  0.0088
 1224BOLB   GL229356  13.391   3.921  21.396 -0.1106 -0.3205 -0.0394
 1224BOLB   C1A29357  13.682   3.426  21.502 -0.1721 -0.0294 -0.0077
 1224BOLB   C2A29358  13.860   3.167  21.669  0.1228 -0.2124 -0.2360
 1224BOLB   C3A29359  14.035   3.002  22.039  0.0570  0.1943  0.3442
 1224BOLB   C4A29360  14.373   2.668  22.097 -0.0439  0.2289  0.1730
 1224BOLB   C1B29361  13.335   3.661  21.651  0.1302  0.0317  0.0560
 1224BOLB   C2B29362  13.229   3.290  21.795 -0.2623  0.1149 -0.0235
 1224BOLB   C3B29363  13.040   2.954  21.885 -0.2287  0.1694 -0.2083
 1224BOLB   C4B29364  12.681   2.599  21.883 -0.1662 -0.2400  0.2324
 1224BOLB   NC229365  14.375   0.828  24.125  0.3828 -0.1023  0.0623
 1224BOLB   PO229366  14.693   0.783  23.736 -0.1005  0.1421  0.0395
 1224BOLB   GL329367  14.842   1.129  23.444 -0.2731  0.0016 -0.3506
 1224BOLB   GL429368  14.636   1.408  23.590  0.1227  0.1278 -0.2593
 1224BOLB   C1C29369  14.668   1.243  22.943 -0.0394 -0.0429 -0.2786
 1224BOLB   C2C29370  14.534   1.627  22.624  0.4313 -0.1658 -0.0405
 1224BOLB   C3C29371  14.705   1.994  22.344  0.0555 -0.1776 -0.1460
 1224BOLB   C4C29372  14.716   2.357  22.132 -0.3298 -0.0169  0.1154
 1224BOLB   C1D29373  14.935   1.630  23.289 -0.2975 -0.1967 -0.1418
 1224BOLB   C2D29374  15.030   1.707  22.855  0.2671  0.2476  0.3993
 1224BOLB   C3D29375  15.092   1.767  22.505 -0.3518 -0.0167  0.1210
 1224BOLB   C4D29376  14.921   1.702  22.081  0.1273  0.5281 -0.1544
 1225BOLB   NC129377  17.338  12.024   7.850 -0.2991 -0.0243 -0.2033
 1225BOLB   PO129378  16.873  11.910   7.715  0.3409 -0.0877 -0.0225
 1225BOLB   GL129379  17.101  12.246   7.466  0.2000  0.0303  0.0026
 1225BOLB   GL229380  17.318  12.167   7.264 -0.0622 -0.0791 -0.0206
 1225BOLB   C1A29381  17.043  12.634   7.240  0.1123 -0.1027 -0.0426
 1225BOLB   C2A29382  16.894  12.673   6.813 -0.0655 -0.1370  0.0712
 1225BOLB   C3A29383  16.735  12.634   6.429 -0.1418 -0.0706 -0.0250
 1225BOLB   C4A29384  16.699  12.588   5.882  0.2767 -0.0671  0.0178
 1225BOLB   C1B29385  17.340  12.268   6.860 -0.1891 -0.2154  0.0552
 1225BOLB   C2B29386  17.453  12.590   6.525  0.0034  0.2839 -0.1508
 1225BOLB   C3B29387  17.617  13.009   6.261 -0.1487  0.2989 -0.0411
 1225BOLB   C4B29388  17.738  13.308   6.560 -0.1405  0.0871 -0.0556
 1225BOLB   NC229389  15.503  12.324   3.509  0.1704 -0.1098 -0.0518
 1225BOLB   PO229390  15.877  12.515   3.514 -0.1636 -0.1230 -0.1178
 1225BOLB   GL329391  15.915  12.457   3.895 -0.0200 -0.0234  0.2845
 1225BOLB   GL429392  15.565  12.322   4.001 -0.0769  0.1853 -0.2958
 1225BOLB   C1C29393  15.993  12.434   4.359  0.0844 -0.5035 -0.0228
 1225BOLB   C2C29394  16.247  12.525   4.706 -0.0836 -0.0062 -0.0475
 1225BOLB   C3C29395  16.266  12.421   5.146 -0.1012 -0.3926  0.1733
 1225BOLB   C4C29396  16.590  12.405   5.501 -0.0281 -0.3885  0.0461
 1225BOLB   C1D29397  15.432  12.608   4.333 -0.0642  0.1866  0.0714
 1225BOLB   C2D29398  15.281  12.775   4.803  0.0404 -0.1515 -0.3126
 1225BOLB   C3D29399  15.320  12.593   5.207 -0.2187  0.1816 -0.1446
 1225BOLB   C4D29400  15.355  12.780   5.584  0.0492 -0.1491 -0.1366
 1226BOLB   NC129401  14.169  13.701  22.262 -0.2589 -0.0323  0.0263
 1226BOLB   PO129402  13.768  13.871  22.369 -0.1136 -0.4446  0.1636
 1226BOLB   GL129403  13.373  14.079  22.565  0.0420 -0.0083  0.0595
 1226BOLB   GL229404  13.076  13.874  22.556 -0.0708  0.0316  0.2041
 1226BOLB   C1A29405  13.308  14.288  22.924 -0.6635 -0.2570 -0.2235
 1226BOLB   C2A29406  13.316  14.685  23.216 -0.5547 -0.1531 -0.0817
 1226BOLB   C3A29407  13.283  15.105  23.531 -0.0990 -0.3896  0.1266
 1226BOLB   C4A29408  12.998  15.432  23.693 -0.0437 -0.2597 -0.2307
 1226BOLB   C1B29409  12.654  13.963  22.868 -0.0529  0.1532 -0.4643
 1226BOLB   C2B29410  12.770  14.394  23.063 -0.0933 -0.0026 -0.1971
 1226BOLB   C3B29411  12.988  14.406  23.432 -0.0493 -0.1720 -0.1937
 1226BOLB   C4B29412  12.880  14.305  23.838  0.1407 -0.0325 -0.0946
 1226BOLB   NC229413  11.340  14.265  25.754  0.0178 -0.1668  0.3209
 1226BOLB   PO229414  11.660  14.544  25.549 -0.0422  0.0759  0.0636
 1226BOLB   GL329415  11.968  14.433  25.294 -0.0695 -0.0724 -0.0715
 1226BOLB   GL429416  12.120  14.098  25.414  0.1333  0.0874 -0.2232
 1226BOLB   C1C29417  11.997  14.572  24.890 -0.0059 -0.0915  0.1315
 1226BOLB   C2C29418  12.252  14.806  24.532 -0.1388  0.0088 -0.1705
 1226BOLB   C3C29419  12.588  15.094  24.320 -0.0233  0.0101 -0.1585
 1226BOLB   C4C29420  12.733  15.336  23.974 -0.0262  0.2373 -0.2495
 1226BOLB   C1D29421  12.239  13.954  25.132 -0.1800  0.4540 -0.0671
 1226BOLB   C2D29422  12.298  14.170  24.794  0.0680 -0.0185  0.1075
 1226BOLB   C3D29423  12.483  14.384  24.407  0.0088  0.1478 -0.0918
 1226BOLB   C4D29424  12.809  14.646  24.349 -0.2914  0.2074  0.5017
 1227BOLB   NC129425  20.998  10.846  10.342 -0.0093  0.4138 -0.0736
 1227BOLB   PO129426  21.233  10.519  10.157 -0.1371  0.1476  0.2478
 1227BOLB   GL129427  21.543  10.683   9.974  0.2636 -0.1277  0.2793
 1227BOLB   GL229428  21.545  10.549   9.711 -0.2482 -0.3033 -0.2492
 1227BOLB   C1A29429  21.891  10.837   9.999  0.2244 -0.2547  0.0087
 1227BOLB   C2A29430  22.117  11.083   9.695 -0.0983  0.0143  0.0144
 1227BOLB   C3A29431  22.194  11.298   9.359 -0.1860  0.1361  0.0647
 1227BOLB   C4A29432  22.128  11.530   8.983  0.0452  0.1816 -0.2083
 1227BOLB   C1B29433  21.462  10.593   9.244  0.2891  0.0674  0.0229
 1227BOLB   C2B29434  21.579  10.604   8.797 -0.3825  0.2700 -0.3038
 1227BOLB   C3B29435  21.632  10.404   8.366 -0.0814 -0.2030 -0.1634
 1227BOLB   C4B29436  21.627  10.189   7.995  0.1282  0.1077 -0.0407
 1227BOLB   NC229437  22.765  11.540   6.299 -0.1091 -0.1392 -0.0141
 1227BOLB   PO229438  22.608  11.206   6.624 -0.0315 -0.2969 -0.1674
 1227BOLB   GL329439  22.582  11.326   7.063  0.1665 -0.2008 -0.1591
 1227BOLB   GL429440  22.625  11.108   7.261  0.0876 -0.2222  0.2060
 1227BOLB   C1C29441  22.408  11.651   7.306 -0.1991 -0.0776 -0.4527
 1227BOLB   C2C29442  22.273  11.736   7.810 -0.0360 -0.3374 -0.2284
 1227BOLB   C3C29443  22.142  11.949   8.211  0.0163 -0.1951 -0.0652
 1227BOLB   C4C29444  22.223  11.926   8.661 -0.0755 -0.1128  0.3160
 1227BOLB   C1D29445  22.415  11.217   7.645  0.3354 -0.1559 -0.2507
 1227BOLB   C2D29446  22.026  11.229   7.859 -0.1404  0.1254 -0.3279
 1227BOLB   C3D29447  21.819  10.755   7.978  0.0708  0.0242 -0.0140
 1227BOLB   C4D29448  22.052  10.417   8.109  0.2098 -0.1477 -0.1615
 1228BOLB   NC129449  20.902  15.689  20.301 -0.0216  0.0273 -0.4842
 1228BOLB   PO129450  20.776  15.716  19.872  0.0635 -0.1921  0.2005
 1228BOLB   GL129451  21.021  16.077  19.997 -0.0958 -0.1941 -0.1825
 1228BOLB   GL229452  21.392  16.124  19.971  0.2117 -0.3147 -0.1843
 1228BOLB   C1A29453  21.014  16.329  20.461  0.0134  0.0056  0.1955
 1228BOLB   C2A29454  21.199  16.641  20.642  0.4439  0.1064  0.1908
 1228BOLB   C3A29455  21.374  17.057  20.879  0.0160  0.1357  0.0291
 1228BOLB   C4A29456  21.471  17.350  21.198 -0.1721 -0.0818 -0.1761
 1228BOLB   C1B29457  21.748  16.406  20.014  0.1591  0.3307 -0.0527
 1228BOLB   C2B29458  21.977  16.753  19.917 -0.0750  0.1222 -0.0272
 1228BOLB   C3B29459  22.203  17.051  19.985  0.1757  0.0477 -0.1212
 1228BOLB   C4B29460  22.690  16.979  20.108  0.0200 -0.0843 -0.0132
 1228BOLB   NC229461  21.929  20.244  21.855  0.2356  0.0578  0.0788
 1228BOLB   PO229462  22.205  19.783  21.797  0.1787  0.0219 -0.0313
 1228BOLB   GL329463  21.988  19.559  21.478 -0.0237  0.1071  0.0317
 1228BOLB   GL429464  22.070  19.535  21.174 -0.1522 -0.1841 -0.4018
 1228BOLB   C1C29465  21.792  19.163  21.260 -0.1878  0.3037  0.3739
 1228BOLB   C2C29466  21.627  18.785  21.044 -0.2788 -0.1037  0.1706
 1228BOLB   C3C29467  21.501  18.374  21.040 -0.1053  0.0790 -0.1103
 1228BOLB   C4C29468  21.473  17.860  21.026 -0.2526  0.1006  0.2924
 1228BOLB   C1D29469  22.063  19.258  20.838 -0.2197 -0.2578 -0.0029
 1228BOLB   C2D29470  21.968  18.883  20.668 -0.0897 -0.0197  0.1670
 1228BOLB   C3D29471  21.852  18.546  20.456  0.0720 -0.0894 -0.0534
 1228BOLB   C4D29472  21.994  18.232  20.370  0.3247 -0.1118 -0.2813
 1229BOLB   NC129473   8.878  13.488  14.852 -0.0062 -0.0952  0.1739
 1229BOLB   PO129474   8.963  13.831  15.031 -0.2445  0.1976  0.0412
 1229BOLB   GL129475   8.715  14.019  14.758  0.0519 -0.2947 -0.0034
 1229BOLB   GL229476   8.885  14.377  14.759 -0.1780  0.0034 -0.1057
 1229BOLB   C1A29477   8.397  14.244  14.609  0.1543 -0.0526 -0.0520
 1229BOLB   C2A29478   8.205  14.531  14.415 -0.1607 -0.1380 -0.0540
 1229BOLB   C3A29479   8.017  14.946  14.412  0.2580  0.0803  0.0219
 1229BOLB   C4A29480   7.787  15.279  14.413 -0.0700 -0.2449 -0.0970
 1229BOLB   C1B29481   8.609  14.736  14.594  0.3033  0.0080  0.2919
 1229BOLB   C2B29482   8.502  15.113  14.275 -0.4195 -0.0247 -0.0937
 1229BOLB   C3B29483   8.197  15.465  14.176  0.0154  0.0390  0.2879
 1229BOLB   C4B29484   8.111  15.842  14.175 -0.0781 -0.1608 -0.1381
 1229BOLB   NC229485   6.053  16.291  13.497 -0.4572 -0.0832 -0.0770
 1229BOLB   PO229486   6.093  16.624  13.251 -0.3466  0.4783  0.3257
 1229BOLB   GL329487   6.560  16.598  13.345 -0.0544  0.0117 -0.4423
 1229BOLB   GL429488   6.794  16.892  13.278 -0.4486  0.4400 -0.2117
 1229BOLB   C1C29489   6.962  16.355  13.395  0.2522 -0.1285  0.0699
 1229BOLB   C2C29490   7.131  16.111  13.822 -0.0824 -0.1909  0.1656
 1229BOLB   C3C29491   7.570  15.914  13.901 -0.1818 -0.1676 -0.0964
 1229BOLB   C4C29492   7.558  15.469  14.057 -0.2938 -0.1109 -0.1409
 1229BOLB   C1D29493   6.900  16.610  12.891 -0.1029 -0.0354  0.0934
 1229BOLB   C2D29494   6.999  16.191  12.796  0.1026  0.1412  0.0015
 1229BOLB   C3D29495   7.065  15.700  12.664 -0.0255 -0.1272 -0.2063
 1229BOLB   C4D29496   7.263  15.628  12.244  0.0641  0.0624  0.1507
 1230BOLB   NC129497  14.845   8.118  22.941 -0.0417 -0.3347 -0.0653
 1230BOLB   PO129498  15.123   8.114  23.293  0.1930 -0.1207  0.0907
 1230BOLB   GL129499  15.001   8.058  23.686 -0.0602  0.0125 -0.3857
 1230BOLB   GL229500  14.652   8.008  23.747  0.1492 -0.2782  0.0008
 1230BOLB   C1A29501  15.334   8.068  24.089  0.0127 -0.3239 -0.1263
 1230BOLB   C2A29502  15.416   8.038  24.385 -0.0202 -0.0309  0.0896
 1230BOLB   C3A29503  15.764   7.869  24.662 -0.3248  0.0423 -0.5163
 1230BOLB   C4A29504  15.791   7.887  25.102 -0.2169 -0.0326  0.0914
 1230BOLB   C1B29505  14.852   7.992  24.124 -0.0590 -0.1417  0.1369
 1230BOLB   C2B29506  14.898   8.088  24.524  0.0779 -0.0624 -0.5407
 1230BOLB   C3B29507  15.112   8.124  24.863 -0.1114 -0.1320 -0.1829
 1230BOLB   C4B29508  15.448   8.232  25.017 -0.1584 -0.1677 -0.2042
 1230BOLB   NC229509  15.700   6.847  27.159  0.1478  0.0933 -0.0326
 1230BOLB   PO229510  16.100   6.692  27.209 -0.0319  0.2276 -0.1689
 1230BOLB   GL329511  16.101   6.852  26.800  0.2099 -0.0655  0.1619
 1230BOLB   GL429512  15.739   6.803  26.600 -0.1233 -0.1758 -0.1846
 1230BOLB   C1C29513  15.989   7.201  26.414 -0.1646  0.0845  0.1065
 1230BOLB   C2C29514  16.061   7.477  26.085 -0.0097 -0.2498  0.1700
 1230BOLB   C3C29515  15.917   7.478  25.768 -0.0477  0.0661  0.0214
 1230BOLB   C4C29516  15.832   7.778  25.567  0.1993 -0.3147  0.1583
 1230BOLB   C1D29517  15.604   6.847  26.235  0.0431  0.2727 -0.0166
 1230BOLB   C2D29518  15.602   7.050  25.854  0.1404 -0.1533  0.0807
 1230BOLB   C3D29519  15.265   7.250  25.704  0.0040 -0.0206  0.0796
 1230BOLB   C4D29520  14.970   7.507  25.693 -0.3828 -0.0841  0.1009
 1231BOLB   NC129521  16.774  17.231  26.102 -0.2944 -0.2292 -0.1717
 1231BOLB   PO129522  17.180  17.138  26.329 -0.0809 -0.0645 -0.0729
 1231BOLB   GL129523  17.066  16.866  25.893  0.1698  0.0189 -0.1283
 1231BOLB   GL229524  16.799  16.643  25.888 -0.1547  0.0944  0.1360
 1231BOLB   C1A29525  17.224  16.935  25.533  0.1626 -0.4428  0.2266
 1231BOLB   C2A29526  17.313  17.214  25.116  0.1073  0.1495 -0.4335
 1231BOLB   C3A29527  17.449  17.541  24.790 -0.3880 -0.2197  0.4626
 1231BOLB   C4A29528  17.604  17.896  24.692  0.1924 -0.1715 -0.1219
 1231BOLB   C1B29529  16.953  16.506  25.482  0.1689 -0.2251  0.2859
 1231BOLB   C2B29530  16.983  16.182  25.211 -0.4001 -0.0133  0.0707
 1231BOLB   C3B29531  17.091  15.676  25.087  0.1243 -0.2251 -0.1894
 1231BOLB   C4B29532  16.859  15.290  25.078  0.0243 -0.0384 -0.0278
 1231BOLB   NC229533  19.171  19.467  23.937 -0.3660  0.0316  0.0739
 1231BOLB   PO229534  18.651  19.471  24.003 -0.0231  0.1786  0.0342
 1231BOLB   GL329535  18.625  18.992  23.933 -0.3191  0.3128  0.0354
 1231BOLB   GL429536  18.903  18.915  23.688  0.2822  0.0433  0.1512
 1231BOLB   C1C29537  18.446  18.535  23.945 -0.1199  0.0327 -0.0288
 1231BOLB   C2C29538  18.269  18.041  23.908  0.2198  0.1961 -0.2454
 1231BOLB   C3C29539  17.831  17.913  23.963  0.1315  0.2833 -0.0305
 1231BOLB   C4C29540  17.610  17.882  24.289 -0.0777 -0.2557  0.1326
 1231BOLB   C1D29541  19.111  18.739  23.363  0.0126  0.0614  0.0013
 1231BOLB   C2D29542  19.161  18.438  23.007  0.0199 -0.0424  0.0482
 1231BOLB   C3D29543  19.189  18.087  22.812 -0.0093  0.1611  0.1813
 1231BOLB   C4D29544  19.403  17.919  22.452 -0.0921 -0.0632 -0.1955
 1232BOLB   NC129545  25.300   3.184  19.555 -0.1866  0.1731 -0.2190
 1232BOLB   PO129546  25.702   3.460  19.502 -0.2057 -0.0337 -0.1448
 1232BOLB   GL129547  25.386   3.764  19.492  0.1911  0.0581 -0.1441
 1232BOLB   GL229548  25.293   4.073  19.751  0.1383 -0.0366  0.0814
 1232BOLB   C1A29549  25.070   4.003  19.230  0.3184 -0.0296 -0.0756
 1232BOLB   C2A29550  24.882   4.395  19.278  0.0251 -0.2753 -0.0134
 1232BOLB   C3A29551  24.716   4.676  19.151  0.0156  0.0607  0.0999
 1232BOLB   C4A29552  24.442   4.796  18.899 -0.1658  0.1816 -0.1918
 1232BOLB   C1B29553  24.917   4.267  19.744 -0.0091 -0.1362  0.4800
 1232BOLB   C2B29554  24.526   4.396  19.554 -0.0485  0.1142 -0.1511
 1232BOLB   C3B29555  24.421   4.124  19.151  0.0137  0.1277 -0.2633
 1232BOLB   C4B29556  24.726   3.790  18.882  0.6149  0.0205 -0.2390
 1232BOLB   NC229557  22.299   4.944  17.884  0.1829 -0.2566 -0.1555
 1232BOLB   PO229558  22.421   5.190  18.175 -0.0778  0.1248  0.1151
 1232BOLB   GL329559  22.526   4.940  18.353  0.0192 -0.1302  0.2002
 1232BOLB   GL429560  22.610   4.724  18.163  0.1300 -0.4850 -0.1809
 1232BOLB   C1C29561  22.838   4.666  18.580 -0.2603  0.0082 -0.2373
 1232BOLB   C2C29562  23.223   4.556  18.538  0.0993  0.2402  0.2290
 1232BOLB   C3C29563  23.674   4.755  18.551  0.0764  0.0768  0.0477
 1232BOLB   C4C29564  24.119   4.701  18.509 -0.0582  0.2203  0.1559
 1232BOLB   C1D29565  22.898   4.518  17.996 -0.3094  0.2016 -0.3219
 1232BOLB   C2D29566  23.194   4.394  17.837  0.3761  0.3046 -0.4648
 1232BOLB   C3D29567  23.524   4.223  17.745  0.1079  0.1314 -0.1415
 1232BOLB   C4D29568  23.915   4.348  17.642  0.2274 -0.1476  0.1248
 1233BOLB   NC129569  12.305  17.323  14.521  0.1602 -0.0244  0.1818
 1233BOLB   PO129570  12.767  17.679  14.501 -0.0126  0.1767 -0.2522
 1233BOLB   GL129571  12.360  17.826  14.390  0.3113  0.2291 -0.0414
 1233BOLB   GL229572  12.476  17.821  14.012  0.1135 -0.0731 -0.1851
 1233BOLB   C1A29573  12.145  18.172  14.314 -0.0367  0.3863 -0.2921
 1233BOLB   C2A29574  11.922  18.552  14.090  0.0044 -0.2196 -0.2469
 1233BOLB   C3A29575  11.556  18.877  13.918 -0.0210 -0.1610 -0.2498
 1233BOLB   C4A29576  11.650  19.223  13.688 -0.0098  0.1515 -0.0381
 1233BOLB   C1B29577  12.225  18.130  13.773 -0.1702 -0.0403 -0.4058
 1233BOLB   C2B29578  12.003  18.385  13.421  0.0227 -0.1824 -0.0370
 1233BOLB   C3B29579  11.710  18.659  13.292 -0.0250 -0.0772  0.4599
 1233BOLB   C4B29580  11.327  18.702  12.976  0.2024  0.0413 -0.3188
 1233BOLB   NC229581  11.782  21.349  13.205  0.0264 -0.0325  0.1064
 1233BOLB   PO229582  11.277  21.538  13.228 -0.3419  0.2734  0.0332
 1233BOLB   GL329583  11.301  21.121  13.097  0.0724  0.2599 -0.1568
 1233BOLB   GL429584  10.970  21.029  13.147  0.0235  0.0041 -0.0161
 1233BOLB   C1C29585  11.390  20.656  13.240 -0.0103  0.0036  0.2717
 1233BOLB   C2C29586  11.428  20.276  13.288  0.4109  0.0452 -0.3731
 1233BOLB   C3C29587  11.538  19.924  13.443 -0.2005  0.0805 -0.0384
 1233BOLB   C4C29588  11.493  19.559  13.514  0.0584 -0.0116 -0.0834
 1233BOLB   C1D29589  10.982  20.684  13.505 -0.3918  0.2376 -0.2611
 1233BOLB   C2D29590  11.207  20.383  13.709 -0.0059 -0.3586 -0.1763
 1233BOLB   C3D29591  11.419  20.139  13.939 -0.0768 -0.1597 -0.3634
 1233BOLB   C4D29592  11.642  20.347  14.139 -0.2594  0.0293 -0.0564
 1234BOLB   NC129593  18.069  11.929   8.349 -0.0100  0.0381  0.0791
 1234BOLB   PO129594  18.374  11.652   8.489 -0.2219 -0.0237  0.3486
 1234BOLB   GL129595  18.584  11.842   8.130  0.2736  0.1788 -0.0381
 1234BOLB   GL229596  18.596  12.115   8.195  0.0021 -0.3040  0.2621
 1234BOLB   C1A29597  18.675  11.874   7.724  0.1526  0.0634 -0.0641
 1234BOLB   C2A29598  18.757  11.858   7.279 -0.6449 -0.0780 -0.1367
 1234BOLB   C3A29599  18.977  11.777   6.895 -0.2637 -0.1346  0.0189
 1234BOLB   C4A29600  19.066  11.619   6.533  0.1070 -0.1900 -0.2668
 1234BOLB   C1B29601  18.883  12.288   7.900  0.2153  0.0093  0.0070
 1234BOLB   C2B29602  19.106  12.611   7.574 -0.1384  0.3432 -0.0562
 1234BOLB   C3B29603  19.051  12.996   7.328 -0.5447  0.1495 -0.1718
 1234BOLB   C4B29604  18.927  13.360   7.047  0.2280 -0.0067  0.2620
 1234BOLB   NC229605  19.503  11.687   4.493 -0.0540  0.0289 -0.1567
 1234BOLB   PO229606  19.762  11.515   4.759  0.3253 -0.2184 -0.0496
 1234BOLB   GL329607  19.528  11.484   5.178 -0.0240 -0.1499 -0.0429
 1234BOLB   GL429608  19.602  11.549   5.438  0.0042 -0.0471 -0.1815
 1234BOLB   C1C29609  19.103  11.420   5.380  0.2280 -0.1761 -0.1541
 1234BOLB   C2C29610  19.057  11.119   5.745  0.0465  0.1566  0.0722
 1234BOLB   C3C29611  19.051  10.861   6.082 -0.1508  0.0946  0.0643
 1234BOLB   C4C29612  18.969  11.137   6.372  0.3679  0.1111 -0.0848
 1234BOLB   C1D29613  19.836  11.521   5.882 -0.0290  0.0083  0.1354
 1234BOLB   C2D29614  20.027  11.623   6.184  0.1075  0.0002  0.0650
 1234BOLB   C3D29615  19.884  11.614   6.550  0.1703 -0.0337  0.3943
 1234BOLB   C4D29616  19.914  11.479   6.978 -0.1265  0.0297 -0.1854
 1235BOLB   NC129617  13.092   3.158  18.333 -0.2399  0.0962  0.3045
 1235BOLB   PO129618  12.816   2.851  18.535  0.3044 -0.0710  0.0559
 1235BOLB   GL129619  12.931   2.447  18.657 -0.2192 -0.0490  0.0138
 1235BOLB   GL229620  13.272   2.398  18.620 -0.1702  0.1655  0.0956
 1235BOLB   C1A29621  12.857   2.066  18.859  0.1409 -0.0856 -0.2210
 1235BOLB   C2A29622  12.756   1.713  19.093  0.1259 -0.4078  0.2542
 1235BOLB   C3A29623  12.587   1.258  19.123 -0.1105  0.0913  0.4668
 1235BOLB   C4A29624  12.409   0.834  19.406 -0.2777 -0.1902  0.0603
 1235BOLB   C1B29625  13.298   2.254  19.000 -0.1550  0.4000 -0.0167
 1235BOLB   C2B29626  13.320   1.918  19.290 -0.1178  0.1405  0.1167
 1235BOLB   C3B29627  13.348   1.672  19.572 -0.3434 -0.1951 -0.0914
 1235BOLB   C4B29628  13.222   1.180  19.765 -0.1372  0.0257  0.5531
 1235BOLB   NC229629  12.055  -1.840  19.800 -0.0612  0.1249  0.2077
 1235BOLB   PO229630  12.431  -1.467  19.635  0.0542 -0.0156 -0.1820
 1235BOLB   GL329631  12.422  -1.012  19.428 -0.1539  0.2923 -0.0157
 1235BOLB   GL429632  12.491  -1.043  19.130 -0.1607  0.1656  0.0401
 1235BOLB   C1C29633  12.221  -0.659  19.422 -0.0427  0.0527 -0.0837
 1235BOLB   C2C29634  12.258  -0.258  19.470  0.1135 -0.2019  0.3576
 1235BOLB   C3C29635  12.238   0.102  19.713 -0.0916 -0.0246 -0.2315
 1235BOLB   C4C29636  12.491   0.429  19.562  0.1805  0.0263 -0.0474
 1235BOLB   C1D29637  12.540  -0.613  18.919  0.1759  0.0345 -0.3394
 1235BOLB   C2D29638  12.833  -0.234  18.728 -0.2627  0.0379 -0.1733
 1235BOLB   C3D29639  13.283  -0.076  18.565  0.1894 -0.0337  0.2249
 1235BOLB   C4D29640  13.676  -0.042  18.554 -0.3669  0.1414  0.1084
 1236BOLB   NC129641  18.865  13.443  23.283  0.0620  0.1739  0.0837
 1236BOLB   PO129642  18.992  13.025  23.399 -0.0052 -0.1352  0.0659
 1236BOLB   GL129643  18.876  13.120  23.755 -0.2692 -0.0765 -0.0717
 1236BOLB   GL229644  19.288  13.224  23.748 -0.4454  0.2652 -0.1614
 1236BOLB   C1A29645  18.819  13.306  24.180  0.0364  0.1922  0.1998
 1236BOLB   C2A29646  18.882  13.325  24.517  0.0237 -0.0163 -0.2052
 1236BOLB   C3A29647  18.840  13.145  24.940  0.0378 -0.1187 -0.0532
 1236BOLB   C4A29648  18.957  13.255  25.323  0.2095  0.0027 -0.1877
 1236BOLB   C1B29649  19.641  13.361  23.944  0.1087 -0.1475  0.2347
 1236BOLB   C2B29650  19.719  13.723  24.082 -0.0922 -0.0091 -0.3077
 1236BOLB   C3B29651  20.032  13.915  23.980 -0.1213  0.4482  0.0989
 1236BOLB   C4B29652  20.396  14.021  24.043  0.3364 -0.0156  0.3165
 1236BOLB   NC229653  18.707  14.226  27.421 -0.0108 -0.1204 -0.0196
 1236BOLB   PO229654  19.017  14.586  27.422  0.1105 -0.2314  0.1223
 1236BOLB   GL329655  18.776  14.491  26.949 -0.2295 -0.1097 -0.2173
 1236BOLB   GL429656  18.556  14.690  26.774  0.1948  0.0290 -0.3088
 1236BOLB   C1C29657  19.001  14.444  26.612 -0.0252  0.1470 -0.0691
 1236BOLB   C2C29658  18.996  14.189  26.264 -0.2495  0.1342  0.3463
 1236BOLB   C3C29659  19.048  13.771  26.039 -0.0057 -0.0479  0.0984
 1236BOLB   C4C29660  19.069  13.524  25.678  0.1728  0.1216  0.3129
 1236BOLB   C1D29661  18.493  14.489  26.392  0.1138 -0.3639 -0.4407
 1236BOLB   C2D29662  18.313  14.399  26.128 -0.2314 -0.0633  0.2381
 1236BOLB   C3D29663  18.354  14.429  25.782 -0.1650  0.0566  0.2476
 1236BOLB   C4D29664  18.649  14.365  25.360  0.2197  0.5135 -0.1503
 1237BOLB   NC129665  21.403   5.924  10.649 -0.0388  0.2383  0.0522
 1237BOLB   PO129666  21.615   6.312  10.609  0.6159 -0.1941 -0.1555
 1237BOLB   GL129667  21.787   6.018  10.377  0.1276 -0.2096 -0.2805
 1237BOLB   GL229668  21.545   5.867  10.144  0.1475  0.1452  0.0370
 1237BOLB   C1A29669  21.990   5.873   9.967 -0.2556 -0.1287 -0.3386
 1237BOLB   C2A29670  22.092   5.786   9.624  0.0969  0.3770  0.2361
 1237BOLB   C3A29671  22.014   5.674   9.213 -0.4013  0.0599 -0.0286
 1237BOLB   C4A29672  22.046   5.338   9.050  0.2036  0.3385 -0.0328
 1237BOLB   C1B29673  21.593   5.578   9.685 -0.0686 -0.0928 -0.0532
 1237BOLB   C2B29674  21.646   5.337   9.482  0.1121 -0.3284 -0.0743
 1237BOLB   C3B29675  21.582   4.956   9.356 -0.3968  0.0734  0.2888
 1237BOLB   C4B29676  21.471   4.645   9.115 -0.1774 -0.3099  0.0033
 1237BOLB   NC229677  22.743   5.048   7.220 -0.0654 -0.0068 -0.0774
 1237BOLB   PO229678  23.013   4.750   7.449  0.2124  0.0507  0.0475
 1237BOLB   GL329679  22.667   4.878   7.671 -0.3036 -0.1296  0.0595
 1237BOLB   GL429680  22.468   5.215   7.605  0.1202 -0.1459  0.3306
 1237BOLB   C1C29681  22.293   4.825   7.903 -0.2170  0.3259  0.1128
 1237BOLB   C2C29682  21.885   4.743   8.116 -0.0283 -0.3102  0.2486
 1237BOLB   C3C29683  21.586   4.729   8.468 -0.0150  0.0287 -0.1403
 1237BOLB   C4C29684  21.702   4.998   8.860 -0.2713  0.0759  0.0995
 1237BOLB   C1D29685  22.167   5.552   7.584  0.2009 -0.0548 -0.0030
 1237BOLB   C2D29686  21.733   5.505   7.491  0.0245 -0.0757  0.0492
 1237BOLB   C3D29687  21.406   5.492   7.782  0.0263  0.0304 -0.2184
 1237BOLB   C4D29688  20.985   5.570   7.818  0.1833 -0.0924  0.3652
 1238BOLB   NC129689  21.796  10.016  21.283 -0.0048  0.1935  0.3228
 1238BOLB   PO129690  21.879  10.494  21.253 -0.0866  0.0829  0.2801
 1238BOLB   GL129691  22.327  10.511  21.600 -0.1733  0.2110 -0.0888
 1238BOLB   GL229692  22.490  10.282  21.781  0.1987  0.3258  0.3035
 1238BOLB   C1A29693  22.539  10.764  21.854  0.0561  0.3511  0.5365
 1238BOLB   C2A29694  22.929  10.965  22.055 -0.1617  0.3886 -0.0604
 1238BOLB   C3A29695  23.350  11.057  22.221 -0.2011 -0.1242  0.1363
 1238BOLB   C4A29696  23.702  11.306  22.276 -0.1910  0.4155 -0.0539
 1238BOLB   C1B29697  22.900  10.367  21.884  0.1499 -0.0424  0.0230
 1238BOLB   C2B29698  23.123  10.565  22.278  0.0281  0.2081  0.0843
 1238BOLB   C3B29699  23.332  10.738  22.610  0.0973  0.0132 -0.0593
 1238BOLB   C4B29700  23.238  10.920  22.896  0.1408 -0.1327  0.1521
 1238BOLB   NC229701  24.938  11.581  24.435  0.0561  0.2041 -0.1734
 1238BOLB   PO229702  25.208  11.955  24.234  0.1762 -0.2695 -0.1711
 1238BOLB   GL329703  24.956  11.886  23.965 -0.0793  0.2856  0.1468
 1238BOLB   GL429704  24.687  11.918  24.154  0.2301  0.0577 -0.0219
 1238BOLB   C1C29705  24.730  11.888  23.493  0.1192 -0.1762  0.1245
 1238BOLB   C2C29706  24.573  11.704  23.174 -0.0036  0.2575 -0.0177
 1238BOLB   C3C29707  24.406  11.713  22.752 -0.1582  0.2184  0.1797
 1238BOLB   C4C29708  24.125  11.636  22.481 -0.1385 -0.1818 -0.1054
 1238BOLB   C1D29709  24.522  12.156  23.870  0.3788  0.0518 -0.2832
 1238BOLB   C2D29710  24.184  12.318  23.564  0.0894 -0.0473 -0.0124
 1238BOLB   C3D29711  24.084  12.561  23.199  0.0439  0.0967  0.0459
 1238BOLB   C4D29712  23.796  12.895  23.003  0.0603 -0.3887  0.0205
 1239BOLB   NC129713  22.876   6.533  18.370  0.2335  0.1019  0.3163
 1239BOLB   PO129714  22.950   6.686  18.704  0.3347  0.0763 -0.1607
 1239BOLB   GL129715  23.242   6.433  18.727 -0.1027 -0.1084 -0.2470
 1239BOLB   GL229716  23.497   6.380  18.944  0.1281  0.0191  0.1625
 1239BOLB   C1A29717  23.476   6.033  18.616 -0.1579 -0.0758 -0.0856
 1239BOLB   C2A29718  23.466   5.561  18.875  0.2303 -0.2738  0.4237
 1239BOLB   C3A29719  23.616   5.321  19.259 -0.1087 -0.3368 -0.0280
 1239BOLB   C4A29720  23.835   5.119  19.594 -0.2790 -0.1315 -0.0882
 1239BOLB   C1B29721  23.587   5.984  19.163 -0.1814 -0.1051  0.1097
 1239BOLB   C2B29722  23.922   5.736  19.360 -0.0486 -0.1227  0.0537
 1239BOLB   C3B29723  24.064   5.738  19.737  0.1151 -0.2540 -0.1811
 1239BOLB   C4B29724  24.307   5.663  20.107  0.0643 -0.0452  0.0149
 1239BOLB   NC229725  24.795   3.071  21.124 -0.3104 -0.1356  0.2153
 1239BOLB   PO229726  24.607   2.914  20.827  0.0471  0.1963  0.2358
 1239BOLB   GL329727  24.477   3.336  20.802  0.1692  0.2118 -0.1917
 1239BOLB   GL429728  24.482   3.559  21.033 -0.0936 -0.0131  0.0275
 1239BOLB   C1C29729  24.351   3.758  20.583  0.0788  0.2049  0.1483
 1239BOLB   C2C29730  24.079   4.144  20.588  0.0202 -0.0963  0.2116
 1239BOLB   C3C29731  24.161   4.483  20.356  0.1158 -0.2263  0.1238
 1239BOLB   C4C29732  23.932   4.812  19.999 -0.1800  0.0631 -0.1637
 1239BOLB   C1D29733  24.197   3.940  21.128 -0.0675  0.0230 -0.2038
 1239BOLB   C2D29734  23.810   4.188  21.180 -0.1978 -0.0461 -0.1377
 1239BOLB   C3D29735  23.421   4.402  21.071  0.1254  0.1177 -0.1970
 1239BOLB   C4D29736  23.175   4.646  20.765  0.3288  0.3631 -0.0352
 1240BOLB   NC129737  14.290  12.227   7.926  0.1993 -0.3610 -0.1865
 1240BOLB   PO129738  14.007  12.538   7.829  0.1504 -0.0786  0.0392
 1240BOLB   GL129739  13.957  12.406   7.408 -0.0749  0.1061  0.0014
 1240BOLB   GL229740  13.653  12.306   7.329  0.0604  0.0594  0.1178
 1240BOLB   C1A29741  14.052  12.366   7.017  0.4876  0.0204 -0.1309
 1240BOLB   C2A29742  14.242  12.790   6.707  0.1289  0.1675  0.1357
 1240BOLB   C3A29743  13.933  13.070   6.642  0.0910 -0.0264 -0.1589
 1240BOLB   C4A29744  13.714  13.390   6.622  0.3294 -0.2550  0.0888
 1240BOLB   C1B29745  13.332  12.455   7.112  0.1769 -0.2108  0.4672
 1240BOLB   C2B29746  13.157  12.737   6.756  0.2679  0.3822 -0.0816
 1240BOLB   C3B29747  12.750  12.650   6.532  0.1086  0.1557  0.0024
 1240BOLB   C4B29748  12.346  12.940   6.371 -0.1682 -0.0592  0.0628
 1240BOLB   NC229749  12.412  15.272   5.806 -0.1060 -0.3387  0.0933
 1240BOLB   PO229750  12.788  15.539   5.538  0.3145  0.2302  0.1296
 1240BOLB   GL329751  12.971  15.363   5.823 -0.5161  0.0159  0.2240
 1240BOLB   GL429752  12.771  15.235   6.113 -0.0054  0.1486 -0.0255
 1240BOLB   C1C29753  12.984  14.866   5.728 -0.1748  0.1792 -0.0775
 1240BOLB   C2C29754  13.081  14.491   6.062 -0.0979  0.2927 -0.0855
 1240BOLB   C3C29755  13.232  14.114   6.141  0.0946  0.0036  0.0546
 1240BOLB   C4C29756  13.414  13.632   6.314 -0.1618 -0.3449 -0.0646
 1240BOLB   C1D29757  12.568  14.808   6.180 -0.1426 -0.0431 -0.0426
 1240BOLB   C2D29758  12.618  14.546   6.552 -0.1727  0.0096 -0.1500
 1240BOLB   C3D29759  12.421  14.441   7.030  0.4060 -0.3222 -0.1356
 1240BOLB   C4D29760  12.312  14.191   7.392  0.0148 -0.0975  0.1573
 1241BOLB   NC129761  11.405  16.994  17.837  0.0480  0.0391  0.2054
 1241BOLB   PO129762  11.748  17.291  17.645 -0.2291  0.0423  0.0419
 1241BOLB   GL129763  11.395  17.502  17.761 -0.0158 -0.1433 -0.0193
 1241BOLB   GL229764  11.351  17.569  18.037  0.2088  0.4367  0.0302
 1241BOLB   C1A29765  11.230  17.881  17.670  0.1985 -0.0119 -0.3702
 1241BOLB   C2A29766  11.115  18.292  17.681  0.2009  0.1503 -0.1029
 1241BOLB   C3A29767  10.940  18.708  17.602  0.0765 -0.0603 -0.1417
 1241BOLB   C4A29768  10.651  19.008  17.702 -0.1119  0.0833 -0.1658
 1241BOLB   C1B29769  10.871  17.853  17.980 -0.0177 -0.3461  0.2327
 1241BOLB   C2B29770  10.533  18.219  18.132 -0.2239 -0.1132  0.2645
 1241BOLB   C3B29771  10.185  18.470  18.136 -0.0495 -0.0960  0.2786
 1241BOLB   C4B29772  10.113  18.835  18.128  0.2135 -0.4638 -0.5051
 1241BOLB   NC229773   7.979  19.867  17.563  0.0355 -0.0221  0.0490
 1241BOLB   PO229774   8.391  19.631  17.411 -0.1021 -0.1840  0.3132
 1241BOLB   GL329775   8.700  19.505  17.686 -0.2364  0.1428 -0.2444
 1241BOLB   GL429776   8.652  19.266  17.996  0.0266  0.3981  0.0616
 1241BOLB   C1C29777   9.053  19.230  17.644 -0.0917 -0.0350 -0.1861
 1241BOLB   C2C29778   9.499  19.344  17.513  0.0089  0.3419 -0.1947
 1241BOLB   C3C29779   9.928  19.233  17.654  0.3615 -0.0962 -0.2076
 1241BOLB   C4C29780  10.293  19.220  17.679  0.3254 -0.0293  0.2037
 1241BOLB   C1D29781   9.035  18.893  18.055 -0.0464 -0.2439 -0.2405
 1241BOLB   C2D29782   9.156  18.591  17.737  0.1977  0.2113 -0.1209
 1241BOLB   C3D29783   9.400  18.344  17.801 -0.3061 -0.0468 -0.1369
 1241BOLB   C4D29784   9.794  18.408  17.838 -0.0183  0.0209  0.1678
 1242BOLB   NC129785  11.487  17.261  17.073 -0.2955  0.0845  0.0611
 1242BOLB   PO129786  11.389  16.983  17.298 -0.3284  0.0989  0.0636
 1242BOLB   GL129787  11.040  17.363  17.338 -0.0818 -0.0301  0.1189
 1242BOLB   GL229788  10.788  17.154  17.336  0.1726  0.1625 -0.1332
 1242BOLB   C1A29789  10.879  17.797  17.295  0.2658  0.1173 -0.0033
 1242BOLB   C2A29790  10.671  18.131  17.649 -0.1653 -0.0203  0.1121
 1242BOLB   C3A29791  10.438  18.462  17.637  0.0375 -0.0001  0.0455
 1242BOLB   C4A29792  10.152  18.764  17.625 -0.1725 -0.0274  0.1955
 1242BOLB   C1B29793  10.616  17.417  17.103  0.2299  0.2003  0.0816
 1242BOLB   C2B29794  10.452  17.770  16.977  0.1238 -0.3724 -0.1612
 1242BOLB   C3B29795  10.316  18.053  17.297  0.4524  0.0833  0.0324
 1242BOLB   C4B29796   9.998  18.270  17.418 -0.0530  0.0767 -0.1374
 1242BOLB   NC229797   8.619  19.834  19.189  0.0864 -0.2769  0.1725
 1242BOLB   PO229798   8.889  19.915  18.816 -0.1695 -0.0173 -0.3185
 1242BOLB   GL329799   9.197  19.883  18.476  0.0943  0.0496 -0.1183
 1242BOLB   GL429800   9.279  20.164  18.427 -0.2102 -0.1504  0.0525
 1242BOLB   C1C29801   9.486  19.628  18.343 -0.2918 -0.1522 -0.0697
 1242BOLB   C2C29802   9.450  19.283  18.061 -0.1366  0.0075 -0.0351
 1242BOLB   C3C29803   9.526  18.953  17.932  0.2099  0.2482  0.0752
 1242BOLB   C4C29804   9.644  18.828  17.593  0.1372  0.2313 -0.0548
 1242BOLB   C1D29805   9.584  19.968  18.792 -0.0120  0.0874 -0.1612
 1242BOLB   C2D29806   9.501  19.618  18.996  0.1771  0.1283 -0.1963
 1242BOLB   C3D29807   9.610  19.198  19.048  0.5453  0.4639 -0.0552
 1242BOLB   C4D29808   9.748  18.782  18.941 -0.3895 -0.1842 -0.1817
 1243BOLB   NC129809  15.557   5.912  21.675  0.0317  0.2345  0.3826
 1243BOLB   PO129810  15.495   5.392  21.840  0.1721 -0.0737 -0.0949
 1243BOLB   GL129811  15.495   5.069  22.059 -0.0689  0.1458  0.2518
 1243BOLB   GL229812  15.778   4.931  22.029 -0.1000 -0.2579  0.1738
 1243BOLB   C1A29813  15.296   4.823  22.342  0.2981  0.0112 -0.0733
 1243BOLB   C2A29814  15.254   4.685  22.703  0.2648  0.0354 -0.3676
 1243BOLB   C3A29815  15.183   4.557  23.182  0.2479 -0.0358  0.0013
 1243BOLB   C4A29816  15.334   4.508  23.594 -0.1234  0.2730 -0.2778
 1243BOLB   C1B29817  15.793   4.729  22.467 -0.0060  0.0513  0.0721
 1243BOLB   C2B29818  15.846   4.334  22.736 -0.1487  0.0395 -0.2045
 1243BOLB   C3B29819  16.064   4.087  22.945  0.2555  0.2259  0.1812
 1243BOLB   C4B29820  16.328   3.765  22.638 -0.1406 -0.4902  0.0661
 1243BOLB   NC229821  15.296   3.867  25.478  0.2156  0.3183  0.2959
 1243BOLB   PO229822  15.501   4.215  25.669  0.0924  0.0998 -0.3787
 1243BOLB   GL329823  15.636   4.214  25.212 -0.0160  0.2468  0.0772
 1243BOLB   GL429824  15.997   4.196  25.120 -0.0790 -0.1551 -0.2900
 1243BOLB   C1C29825  15.502   4.196  24.855 -0.1956  0.5309  0.0616
 1243BOLB   C2C29826  15.453   3.994  24.443 -0.1290 -0.4243  0.1519
 1243BOLB   C3C29827  15.344   3.925  23.998  0.1450  0.1625 -0.0050
 1243BOLB   C4C29828  15.398   4.144  23.692 -0.0254 -0.1977  0.3151
 1243BOLB   C1D29829  16.056   4.101  24.840  0.0677 -0.0089  0.2116
 1243BOLB   C2D29830  16.329   3.951  24.433  0.0641  0.0975  0.2021
 1243BOLB   C3D29831  16.632   4.044  24.194  0.0128  0.0366  0.1402
 1243BOLB   C4D29832  16.532   4.325  23.862  0.0307  0.0813 -0.0173
 1244BOLB   NC129833   7.239  18.229  12.246  0.2731  0.0438 -0.0952
 1244BOLB   PO129834   7.370  18.351  12.711  0.1962  0.3443 -0.0068
 1244BOLB   GL129835   7.650  18.070  12.893 -0.0233 -0.1017  0.4101
 1244BOLB   GL229836   7.833  18.440  12.901 -0.2393 -0.0506  0.2372
 1244BOLB   C1A29837   7.852  17.988  13.242  0.0939  0.1243  0.1853
 1244BOLB   C2A29838   8.088  17.729  13.586 -0.1590 -0.2773  0.1375
 1244BOLB   C3A29839   8.512  17.608  13.849 -0.3410  0.2387 -0.2349
 1244BOLB   C4A29840   8.547  17.420  14.170  0.1613  0.2691  0.1442
 1244BOLB   C1B29841   8.284  18.390  13.110 -0.3402 -0.1156 -0.1471
 1244BOLB   C2B29842   8.670  18.407  12.966  0.0912  0.0168  0.0437
 1244BOLB   C3B29843   8.855  18.197  12.684  0.0405  0.1065 -0.1839
 1244BOLB   C4B29844   8.869  17.939  12.460  0.2026  0.0630 -0.0631
 1244BOLB   NC229845  10.060  15.679  14.459  0.0100  0.3072  0.1336
 1244BOLB   PO229846  10.036  15.511  14.021  0.2498  0.1089 -0.2430
 1244BOLB   GL329847   9.667  15.745  14.090  0.1432 -0.1742  0.0216
 1244BOLB   GL429848   9.310  15.655  13.911 -0.0405  0.2179  0.0713
 1244BOLB   C1C29849   9.222  15.964  14.281  0.0529  0.2939 -0.2770
 1244BOLB   C2C29850   9.094  16.384  14.065 -0.1433 -0.0799  0.0645
 1244BOLB   C3C29851   8.822  16.677  14.247  0.2117 -0.2190 -0.4232
 1244BOLB   C4C29852   8.732  17.111  14.384  0.2076  0.0210 -0.0231
 1244BOLB   C1D29853   9.037  15.964  13.726  0.0054  0.4917 -0.0405
 1244BOLB   C2D29854   8.648  16.195  13.915 -0.0316 -0.1188 -0.1451
 1244BOLB   C3D29855   8.390  16.440  14.141  0.2275 -0.0371  0.2602
 1244BOLB   C4D29856   8.100  16.674  14.320 -0.0576  0.0527  0.0267
 1245BOLB   NC129857   8.585   8.816  18.836  0.0744 -0.1557  0.0515
 1245BOLB   PO129858   8.840   8.780  19.285 -0.1986  0.0677 -0.1559
 1245BOLB   GL129859   8.381   8.529  19.287 -0.1538  0.3586 -0.1053
 1245BOLB   GL229860   8.416   8.202  19.406  0.2382 -0.3894  0.1753
 1245BOLB   C1A29861   7.974   8.455  19.420 -0.0754  0.0384  0.0777
 1245BOLB   C2A29862   7.838   8.343  19.847  0.2108 -0.1729  0.1344
 1245BOLB   C3A29863   7.417   8.250  19.953  0.3876 -0.0443 -0.1168
 1245BOLB   C4A29864   7.097   8.271  20.208 -0.1232 -0.2156  0.0657
 1245BOLB   C1B29865   8.084   7.890  19.498  0.1134 -0.0623  0.2029
 1245BOLB   C2B29866   7.659   7.835  19.707  0.2861 -0.0215 -0.2250
 1245BOLB   C3B29867   7.298   7.948  19.591  0.2383 -0.4254  0.2402
 1245BOLB   C4B29868   6.942   7.724  19.455  0.1743  0.0426  0.0582
 1245BOLB   NC229869   4.847   8.259  21.588  0.2733  0.0816  0.1005
 1245BOLB   PO229870   5.178   8.401  21.421  0.1508 -0.2478  0.0351
 1245BOLB   GL329871   5.597   8.372  21.307  0.0309  0.1909 -0.3574
 1245BOLB   GL429872   5.608   8.197  21.060  0.1408  0.2322  0.5029
 1245BOLB   C1C29873   6.039   8.416  21.206  0.1407  0.0515  0.0441
 1245BOLB   C2C29874   6.363   8.399  20.912 -0.3392 -0.1548 -0.1549
 1245BOLB   C3C29875   6.481   8.058  20.702 -0.0285  0.1813 -0.2073
 1245BOLB   C4C29876   6.855   8.024  20.376  0.0637 -0.0712 -0.1182
 1245BOLB   C1D29877   5.899   8.254  20.698 -0.2787  0.3571 -0.1884
 1245BOLB   C2D29878   6.221   8.354  20.391  0.0023  0.0385  0.1933
 1245BOLB   C3D29879   6.550   8.422  20.372  0.2656  0.3168  0.1542
 1245BOLB   C4D29880   6.607   8.817  20.089  0.0269 -0.1650 -0.1794
 1246BOLB   NC129881   4.643   5.161  20.265  0.0823 -0.0317  0.0523
 1246BOLB   PO129882   4.888   5.560  20.195 -0.3223  0.0246 -0.0938
 1246BOLB   GL129883   5.189   5.680  19.901 -0.4038  0.1085  0.1333
 1246BOLB   GL229884   5.267   5.955  19.672 -0.0351  0.0184  0.3160
 1246BOLB   C1A29885   5.633   5.599  19.898 -0.0683  0.1512  0.0340
 1246BOLB   C2A29886   6.050   5.692  19.830 -0.1171  0.1098 -0.2358
 1246BOLB   C3A29887   6.486   5.575  19.815 -0.0857  0.4852 -0.2152
 1246BOLB   C4A29888   6.699   5.398  19.514  0.0326 -0.2630 -0.0959
 1246BOLB   C1B29889   5.690   5.822  19.356 -0.3760 -0.0295 -0.0702
 1246BOLB   C2B29890   6.053   5.904  19.008 -0.1265  0.1991 -0.3968
 1246BOLB   C3B29891   6.298   5.729  18.716 -0.2416 -0.1877  0.0929
 1246BOLB   C4B29892   6.538   5.581  18.989 -0.2629  0.3364  0.0747
 1246BOLB   NC229893   5.862   3.823  20.689  0.2615  0.1358  0.0207
 1246BOLB   PO229894   6.028   4.251  20.624  0.1527 -0.2585  0.0028
 1246BOLB   GL329895   6.383   4.409  20.531  0.0185  0.0352  0.4135
 1246BOLB   GL429896   6.403   4.689  20.599 -0.4100  0.0332 -0.0505
 1246BOLB   C1C29897   6.804   4.420  20.387  0.0983  0.1008  0.0009
 1246BOLB   C2C29898   7.100   4.402  20.018 -0.2026  0.0664  0.0033
 1246BOLB   C3C29899   7.013   4.574  19.583 -0.1405  0.2193  0.3183
 1246BOLB   C4C29900   6.949   4.941  19.418  0.2580  0.2769  0.1905
 1246BOLB   C1D29901   6.823   4.900  20.373  0.2812 -0.0566  0.0359
 1246BOLB   C2D29902   7.258   4.719  20.368  0.2279 -0.0593 -0.1295
 1246BOLB   C3D29903   7.406   4.838  19.991  0.2200  0.0899  0.2375
 1246BOLB   C4D29904   7.485   4.868  19.530 -0.3330  0.0473 -0.1242
 1247BOLB   NC129905  16.603  15.517  21.781  0.2426  0.0007 -0.1136
 1247BOLB   PO129906  16.279  15.706  21.845  0.0336  0.2074 -0.1599
 1247BOLB   GL129907  16.272  15.980  22.224 -0.1868 -0.1419 -0.1589
 1247BOLB   GL229908  16.122  16.215  22.034 -0.1321  0.1496  0.2923
 1247BOLB   C1A29909  16.359  16.316  22.524  0.0470 -0.0408 -0.0314
 1247BOLB   C2A29910  16.446  16.514  22.897 -0.1322 -0.1020 -0.3189
 1247BOLB   C3A29911  16.395  16.672  23.318  0.1401 -0.0528  0.0810
 1247BOLB   C4A29912  16.361  16.823  23.723 -0.0772 -0.0245 -0.0809
 1247BOLB   C1B29913  16.039  16.643  22.207 -0.0708 -0.0184  0.0428
 1247BOLB   C2B29914  15.756  16.921  22.401  0.1133 -0.0232  0.2657
 1247BOLB   C3B29915  15.698  17.282  22.540  0.1297  0.1050 -0.0965
 1247BOLB   C4B29916  15.343  17.615  22.705 -0.1113  0.2649 -0.1351
 1247BOLB   NC229917  15.083  17.287  25.883 -0.4206 -0.2763  0.0150
 1247BOLB   PO229918  15.508  16.954  25.931  0.3268 -0.1556  0.0592
 1247BOLB   GL329919  15.481  17.086  25.483 -0.0681 -0.1516  0.1597
 1247BOLB   GL429920  15.753  17.307  25.398 -0.1035 -0.1436  0.2247
 1247BOLB   C1C29921  15.471  17.049  25.024  0.0778  0.2623  0.2926
 1247BOLB   C2C29922  15.771  16.971  24.668 -0.0543  0.5167  0.2793
 1247BOLB   C3C29923  15.852  16.735  24.353 -0.0366  0.0659  0.2041
 1247BOLB   C4C29924  16.063  16.934  23.927  0.3453 -0.0690  0.0155
 1247BOLB   C1D29925  16.056  17.030  25.101 -0.2360  0.0769  0.1059
 1247BOLB   C2D29926  16.291  16.687  25.033 -0.1087 -0.2015 -0.0846
 1247BOLB   C3D29927  16.764  16.666  25.025  0.1126  0.4489 -0.1648
 1247BOLB   C4D29928  17.181  16.730  25.034  0.1020 -0.0577 -0.0458
 1248BOLB   NC129929  20.343   3.853  14.342 -0.1223 -0.3564  0.2865
 1248BOLB   PO129930  20.713   3.615  14.383  0.1049  0.2561  0.0776
 1248BOLB   GL129931  21.060   3.341  14.238  0.1501 -0.1705  0.1535
 1248BOLB   GL229932  21.133   3.324  13.807  0.2346  0.1910  0.2814
 1248BOLB   C1A29933  21.362   3.002  14.141  0.1940 -0.0375 -0.0648
 1248BOLB   C2A29934  21.779   2.940  14.112 -0.1555  0.0855  0.2927
 1248BOLB   C3A29935  22.169   2.607  14.095  0.1368 -0.0287  0.1562
 1248BOLB   C4A29936  22.601   2.357  14.258 -0.4137  0.2908  0.2070
 1248BOLB   C1B29937  21.367   2.956  13.606  0.2529 -0.1056  0.2621
 1248BOLB   C2B29938  21.650   2.653  13.725  0.0675 -0.1961 -0.2772
 1248BOLB   C3B29939  22.073   2.426  13.614  0.2708  0.2307  0.0666
 1248BOLB   C4B29940  22.423   2.210  13.770  0.0529 -0.0264  0.1287
 1248BOLB   NC229941  23.986   0.150  14.640 -0.0280 -0.1993 -0.0701
 1248BOLB   PO229942  23.823   0.540  15.001  0.1155  0.0218  0.2654
 1248BOLB   GL329943  23.598   0.703  14.806  0.1832 -0.2062  0.0777
 1248BOLB   GL429944  23.720   0.920  14.588  0.0617  0.0349  0.0324
 1248BOLB   C1C29945  23.184   0.878  14.859  0.2027  0.3728 -0.1004
 1248BOLB   C2C29946  22.783   1.180  14.801 -0.3500  0.0629  0.4782
 1248BOLB   C3C29947  22.726   1.645  14.765  0.0573  0.0928 -0.3518
 1248BOLB   C4C29948  22.818   1.974  14.554  0.0414  0.2806  0.0660
 1248BOLB   C1D29949  23.368   0.780  14.367 -0.0773 -0.1099  0.1601
 1248BOLB   C2D29950  23.081   1.007  14.201 -0.1283  0.0177 -0.0150
 1248BOLB   C3D29951  22.707   1.027  14.351 -0.2787  0.1499  0.0689
 1248BOLB   C4D29952  22.281   1.299  14.400 -0.1159 -0.2229 -0.2512
 1249BOLB   NC129953   9.594  10.048  19.537  0.0724 -0.3830 -0.0968
 1249BOLB   PO129954   9.181   9.723  19.521  0.3689  0.0781 -0.1968
 1249BOLB   GL129955   8.728   9.555  19.545 -0.1873  0.1155 -0.0103
 1249BOLB   GL229956   8.581   9.368  19.764  0.0557  0.4019  0.0506
 1249BOLB   C1A29957   8.466   9.787  19.879 -0.0619 -0.1867  0.0693
 1249BOLB   C2A29958   8.259   9.873  20.268  0.0549  0.3476  0.2216
 1249BOLB   C3A29959   7.875   9.836  20.510  0.1460  0.1798 -0.0033
 1249BOLB   C4A29960   7.669   9.983  20.871  0.3021 -0.2648  0.0308
 1249BOLB   C1B29961   8.234   9.430  20.052  0.1384 -0.1944 -0.0157
 1249BOLB   C2B29962   7.806   9.506  20.150 -0.0753  0.2681 -0.0628
 1249BOLB   C3B29963   7.530   9.544  20.592 -0.1430 -0.1898 -0.2501
 1249BOLB   C4B29964   7.532   9.403  20.956  0.4281 -0.2129 -0.2477
 1249BOLB   NC229965   5.815   9.913  22.684 -0.0583 -0.0105  0.1179
 1249BOLB   PO229966   6.080   9.954  22.272 -0.2032 -0.0461 -0.1339
 1249BOLB   GL329967   6.470   9.905  22.147  0.2583  0.0454  0.0953
 1249BOLB   GL429968   6.589   9.901  21.845  0.2608  0.0624  0.0697
 1249BOLB   C1C29969   6.865  10.190  22.132  0.0168 -0.0037 -0.1388
 1249BOLB   C2C29970   7.316   9.915  22.051 -0.0657 -0.1328 -0.1222
 1249BOLB   C3C29971   7.482   9.735  21.687  0.2296 -0.0518  0.0450
 1249BOLB   C4C29972   7.656   9.929  21.292 -0.1808 -0.1972  0.0679
 1249BOLB   C1D29973   6.429  10.006  21.521  0.3816 -0.1158 -0.0999
 1249BOLB   C2D29974   6.329  10.424  21.402 -0.0288 -0.3451 -0.1088
 1249BOLB   C3D29975   6.562  10.758  21.266  0.3805  0.2188  0.1385
 1249BOLB   C4D29976   7.000  10.637  21.104  0.1988 -0.0382 -0.3263
 1250BOLB   NC129977  10.480   6.873  20.377  0.3208  0.1960 -0.0966
 1250BOLB   PO129978  10.160   6.489  20.131 -0.2991  0.4058  0.0772
 1250BOLB   GL129979   9.858   6.289  20.393  0.3653  0.2636  0.1269
 1250BOLB   GL229980   9.840   6.025  20.292  0.0078  0.1344 -0.4971
 1250BOLB   C1A29981   9.493   6.200  20.684 -0.1414  0.1313 -0.1259
 1250BOLB   C2A29982   9.214   5.995  20.942 -0.0262 -0.0196  0.0342
 1250BOLB   C3A29983   8.910   5.965  21.234 -0.2956 -0.0711 -0.0610
 1250BOLB   C4A29984   8.757   5.773  21.566 -0.0818 -0.1595  0.0682
 1250BOLB   C1B29985   9.637   5.765  20.496  0.2692  0.1227 -0.1836
 1250BOLB   C2B29986   9.455   5.435  20.589 -0.2205  0.0861  0.1518
 1250BOLB   C3B29987   9.105   5.265  20.741  0.1511  0.3567 -0.1417
 1250BOLB   C4B29988   8.926   5.430  21.183 -0.0107 -0.0228 -0.0590
 1250BOLB   NC229989   7.239   4.603  22.966 -0.1281 -0.3521 -0.1576
 1250BOLB   PO229990   7.086   4.862  22.786  0.0800 -0.0437  0.2171
 1250BOLB   GL329991   7.012   5.030  22.396  0.1778 -0.2328  0.1387
 1250BOLB   GL429992   6.893   5.330  22.449 -0.0502 -0.0967  0.0881
 1250BOLB   C1C29993   7.347   5.148  22.161  0.4962 -0.0571  0.2211
 1250BOLB   C2C29994   7.617   5.397  22.062 -0.0753 -0.0843 -0.1047
 1250BOLB   C3C29995   8.000   5.604  21.893 -0.0511 -0.1434  0.0230
 1250BOLB   C4C29996   8.393   5.689  21.767 -0.1316  0.3400 -0.0100
 1250BOLB   C1D29997   7.361   5.482  22.540  0.3763  0.0631 -0.0963
 1250BOLB   C2D29998   7.763   5.704  22.461 -0.0771 -0.0206 -0.3275
 1250BOLB   C3D29999   8.146   5.924  22.312 -0.1842  0.0368  0.2052
 1250BOLB   C4D30000   8.547   5.961  22.547 -0.0749  0.2630 -0.0351
 1251BOLB   NC130001  18.969  17.006  19.564 -0.2260  0.0790 -0.1281
 1251BOLB   PO130002  19.215  17.365  19.306 -0.0082  0.0897  0.2800
 1251BOLB   GL130003  19.197  17.703  19.412 -0.2842 -0.0995 -0.0022
 1251BOLB   GL230004  19.299  17.865  19.164 -0.1428  0.0271  0.0290
 1251BOLB   C1A30005  19.043  18.092  19.689  0.0697  0.4779 -0.0544
 1251BOLB   C2A30006  18.983  18.438  19.939 -0.0866  0.1605 -0.0484
 1251BOLB   C3A30007  18.898  18.989  20.070  0.0829  0.0602 -0.0885
 1251BOLB   C4A30008  18.736  19.484  20.141 -0.1155 -0.2655 -0.0956
 1251BOLB   C1B30009  19.134  18.203  18.813  0.0344  0.1176  0.0129
 1251BOLB   C2B30010  19.433  18.558  18.782 -0.4655 -0.1104 -0.2418
 1251BOLB   C3B30011  19.782  18.663  18.880 -0.2199  0.4680 -0.0736
 1251BOLB   C4B30012  20.136  18.822  19.017 -0.0166 -0.1481 -0.0868
 1251BOLB   NC230013  18.484  21.403  21.588  0.1264 -0.2298  0.0167
 1251BOLB   PO230014  18.013  21.399  21.721 -0.1802 -0.2810 -0.1066
 1251BOLB   GL330015  18.028  21.010  21.454  0.2664  0.1684  0.1631
 1251BOLB   GL430016  17.942  20.859  21.652 -0.0337 -0.1259 -0.1185
 1251BOLB   C1C30017  18.050  20.698  21.156 -0.4443  0.1980  0.3635
 1251BOLB   C2C30018  18.304  20.473  20.890 -0.3522 -0.1174  0.1821
 1251BOLB   C3C30019  18.543  20.212  20.600 -0.1914 -0.1715 -0.1101
 1251BOLB   C4C30020  18.698  19.792  20.482  0.0660 -0.2554 -0.1993
 1251BOLB   C1D30021  17.936  20.450  21.657  0.1103 -0.1549  0.0849
 1251BOLB   C2D30022  17.543  20.119  21.672  0.0297 -0.0276  0.1857
 1251BOLB   C3D30023  17.285  19.907  21.308  0.3086  0.0236 -0.0244
 1251BOLB   C4D30024  16.870  19.793  21.052 -0.0694  0.0227  0.1633
 1252BOLB   NC130025  23.999   1.070  12.200  0.2335 -0.0330  0.1801
 1252BOLB   PO130026  24.014   0.756  12.517 -0.1006 -0.2739 -0.1537
 1252BOLB   GL130027  23.628   1.050  12.512 -0.1300  0.1015  0.3195
 1252BOLB   GL230028  23.534   1.337  12.681 -0.0666  0.1303 -0.1584
 1252BOLB   C1A30029  23.268   1.248  12.285 -0.0786  0.0605 -0.2776
 1252BOLB   C2A30030  22.856   1.421  12.148  0.0807 -0.0218  0.0418
 1252BOLB   C3A30031  22.492   1.748  11.980 -0.0055 -0.1045  0.2682
 1252BOLB   C4A30032  22.164   2.020  12.037  0.0556  0.0649 -0.3213
 1252BOLB   C1B30033  23.503   1.748  12.703  0.1813  0.0610 -0.0802
 1252BOLB   C2B30034  23.349   2.145  12.534  0.3211  0.3417  0.2919
 1252BOLB   C3B30035  23.011   2.462  12.421 -0.0759  0.1490  0.0123
 1252BOLB   C4B30036  22.891   2.873  12.402  0.1361 -0.2065 -0.0052
 1252BOLB   NC230037  20.310   3.271  11.571 -0.1023 -0.0815  0.2649
 1252BOLB   PO230038  20.603   3.682  11.572  0.2689  0.0430 -0.2282
 1252BOLB   GL330039  21.061   3.520  11.634  0.2619  0.0015  0.0618
 1252BOLB   GL430040  21.166   3.365  12.010 -0.1983  0.0672  0.2248
 1252BOLB   C1C30041  21.548   3.258  11.677 -0.1277  0.1752 -0.4373
 1252BOLB   C2C30042  21.643   2.930  11.886  0.1686 -0.1797  0.0377
 1252BOLB   C3C30043  21.770   2.575  12.082 -0.2696  0.1542 -0.0784
 1252BOLB   C4C30044  22.106   2.389  11.977 -0.0140  0.2288 -0.0016
 1252BOLB   C1D30045  21.261   3.099  12.281  0.3483 -0.3675  0.1967
 1252BOLB   C2D30046  21.122   2.689  12.220 -0.1633 -0.2799 -0.0719
 1252BOLB   C3D30047  21.334   2.475  12.481 -0.0836  0.1304  0.0486
 1252BOLB   C4D30048  21.378   2.303  12.866 -0.2114 -0.1229 -0.0199
 1253BOLB   NC130049  20.795  35.175  19.162  0.2044 -0.2280 -0.1880
 1253BOLB   PO130050  20.745  35.557  19.421 -0.1809 -0.0460  0.0410
 1253BOLB   GL130051  20.413  35.950  19.315 -0.1030  0.1284 -0.0165
 1253BOLB   GL230052  20.143  35.774  19.065  0.1753 -0.1960  0.1149
 1253BOLB   C1A30053  20.551  36.176  18.996  0.1258 -0.1173 -0.4014
 1253BOLB   C2A30054  20.568  36.527  18.780  0.0545  0.1531 -0.2569
 1253BOLB   C3A30055  20.516  36.805  18.479  0.2545  0.0198  0.0663
 1253BOLB   C4A30056  20.195  36.974  18.443  0.1203  0.2033 -0.2002
 1253BOLB   C1B30057  19.847  35.763  18.787 -0.2734  0.0526  0.0646
 1253BOLB   C2B30058  19.671  36.175  18.602 -0.1393 -0.1689 -0.0161
 1253BOLB   C3B30059  19.335  36.302  18.388 -0.1649  0.0898  0.2674
 1253BOLB   C4B30060  19.167  36.692  18.309  0.2495 -0.3121 -0.2241
 1253BOLB   NC230061  19.602  35.030  20.160 -0.1280  0.2224  0.0259
 1253BOLB   PO230062  19.398  35.217  19.786 -0.1066  0.1071 -0.1627
 1253BOLB   GL330063  19.532  35.454  19.455 -0.0010 -0.0374 -0.2972
 1253BOLB   GL430064  19.460  35.473  19.062  0.2058 -0.1628 -0.1026
 1253BOLB   C1C30065  19.571  35.930  19.322  0.2079  0.2933 -0.0625
 1253BOLB   C2C30066  19.611  36.221  19.126  0.4415 -0.1854  0.2433
 1253BOLB   C3C30067  19.654  36.588  18.837  0.1989 -0.2044  0.1275
 1253BOLB   C4C30068  19.858  36.863  18.594 -0.0986 -0.2382  0.2327
 1253BOLB   C1D30069  19.363  35.828  18.861 -0.0116 -0.5649  0.2131
 1253BOLB   C2D30070  19.012  36.016  18.609 -0.1309 -0.2534  0.1344
 1253BOLB   C3D30071  18.730  35.898  18.219  0.2763 -0.0759  0.1457
 1253BOLB   C4D30072  18.399  36.137  17.972  0.0070 -0.1302  0.1761
 1254BOLB   NC130073  20.983  17.246  15.836 -0.0890 -0.0832 -0.0111
 1254BOLB   PO130074  21.432  17.169  15.747 -0.1236 -0.0274  0.0130
 1254BOLB   GL130075  21.664  17.526  15.786 -0.0638  0.0555 -0.1375
 1254BOLB   GL230076  21.697  17.595  15.490  0.0272 -0.1686 -0.3167
 1254BOLB   C1A30077  22.096  17.684  15.816 -0.3061 -0.0070  0.2044
 1254BOLB   C2A30078  22.358  17.421  15.958 -0.1890 -0.1309  0.2118
 1254BOLB   C3A30079  22.625  17.662  16.011 -0.4173  0.5533 -0.2448
 1254BOLB   C4A30080  22.947  17.983  16.094  0.0409  0.0305 -0.1326
 1254BOLB   C1B30081  21.756  18.011  15.656 -0.0223  0.1363  0.3372
 1254BOLB   C2B30082  21.525  18.335  15.785 -0.1798  0.2361  0.0532
 1254BOLB   C3B30083  21.355  18.784  15.862 -0.2207  0.0196 -0.0412
 1254BOLB   C4B30084  21.125  19.095  15.551 -0.0035  0.0039 -0.2991
 1254BOLB   NC230085  24.108  20.059  17.269  0.0357 -0.0941  0.0100
 1254BOLB   PO230086  24.240  20.050  16.858  0.2823  0.0374  0.0085
 1254BOLB   GL330087  23.817  19.955  16.584 -0.1151  0.1999  0.0180
 1254BOLB   GL430088  23.591  19.823  16.719  0.0142  0.0442  0.1215
 1254BOLB   C1C30089  23.561  19.636  16.239  0.0726  0.2122  0.4010
 1254BOLB   C2C30090  23.353  19.274  16.007 -0.0747 -0.0182  0.1931
 1254BOLB   C3C30091  23.123  18.836  16.022  0.3107  0.0719  0.1183
 1254BOLB   C4C30092  23.140  18.388  16.203 -0.5207  0.0607 -0.0117
 1254BOLB   C1D30093  23.307  19.629  16.954  0.2083  0.1910 -0.2886
 1254BOLB   C2D30094  23.055  19.265  16.988 -0.2073  0.1332 -0.0919
 1254BOLB   C3D30095  22.935  18.891  17.003  0.3491 -0.2089 -0.3740
 1254BOLB   C4D30096  22.633  18.540  17.063  0.0301  0.0233  0.0123
 1255BOLB   NC130097  20.269  16.623  19.863  0.0177 -0.3019  0.1342
 1255BOLB   PO130098  20.201  16.349  19.999 -0.2590  0.2113 -0.2897
 1255BOLB   GL130099  20.509  16.576  20.295 -0.1374 -0.1321 -0.1303
 1255BOLB   GL230100  20.774  16.602  20.111  0.2473  0.3079  0.2375
 1255BOLB   C1A30101  20.452  16.949  20.507  0.1534 -0.3021 -0.1419
 1255BOLB   C2A30102  20.511  17.304  20.787  0.1118 -0.0487 -0.1559
 1255BOLB   C3A30103  20.165  17.516  21.085  0.3548 -0.0275 -0.2268
 1255BOLB   C4A30104  20.078  17.654  21.500  0.2345 -0.1717  0.0908
 1255BOLB   C1B30105  20.906  16.980  20.350  0.0892 -0.2923  0.0856
 1255BOLB   C2B30106  20.969  17.351  20.646  0.2238 -0.0949 -0.1932
 1255BOLB   C3B30107  20.979  17.587  20.950 -0.0637 -0.1294 -0.1050
 1255BOLB   C4B30108  20.637  17.605  21.223 -0.0907 -0.0533 -0.1072
 1255BOLB   NC230109  21.323  19.739  22.535  0.0159  0.1253 -0.3023
 1255BOLB   PO230110  21.355  19.377  22.723 -0.0410 -0.0230  0.3633
 1255BOLB   GL330111  20.964  19.140  22.572  0.1751  0.0124 -0.0549
 1255BOLB   GL430112  20.777  19.074  22.917 -0.2515  0.3545 -0.2033
 1255BOLB   C1C30113  20.616  18.722  22.478 -0.2411  0.3782 -0.2332
 1255BOLB   C2C30114  20.343  18.480  22.251  0.0940  0.1945 -0.2127
 1255BOLB   C3C30115  20.080  18.177  22.085  0.1010  0.0005  0.1297
 1255BOLB   C4C30116  20.202  17.816  21.844  0.1910  0.4256 -0.0451
 1255BOLB   C1D30117  20.400  18.861  22.908 -0.0819 -0.2104 -0.2759
 1255BOLB   C2D30118  20.157  18.678  22.635  0.0371 -0.0413  0.1395
 1255BOLB   C3D30119  19.957  18.394  22.520 -0.1662 -0.0007  0.0530
 1255BOLB   C4D30120  19.776  18.045  22.766  0.2804  0.1210 -0.0669
 1256BOLB   NC130121   9.747  13.851  13.669 -0.3243  0.0295 -0.1359
 1256BOLB   PO130122   9.525  14.248  13.698 -0.1768 -0.0680 -0.0569
 1256BOLB   GL130123   9.143  14.504  13.790  0.1290  0.0570  0.0061
 1256BOLB   GL230124   8.958  14.389  13.557  0.0649  0.0279 -0.0169
 1256BOLB   C1A30125   8.871  14.864  13.790  0.0591  0.1461  0.1263
 1256BOLB   C2A30126   8.480  15.133  13.725  0.4238  0.0690 -0.0932
 1256BOLB   C3A30127   8.092  15.342  13.381  0.1725  0.4241  0.0641
 1256BOLB   C4A30128   7.908  15.684  13.227  0.0365  0.1554  0.4599
 1256BOLB   C1B30129   8.578  14.615  13.495 -0.0734 -0.1562 -0.2024
 1256BOLB   C2B30130   8.196  14.760  13.394 -0.0837  0.1002  0.3568
 1256BOLB   C3B30131   7.803  14.844  13.358 -0.0677 -0.0996 -0.0626
 1256BOLB   C4B30132   7.364  14.854  13.368 -0.0684  0.1638  0.0991
 1256BOLB   NC230133   6.547  17.123  11.839 -0.1910 -0.0750 -0.1293
 1256BOLB   PO230134   6.582  16.690  11.988  0.2027 -0.1848  0.1385
 1256BOLB   GL330135   6.802  16.331  11.796 -0.2588 -0.0242 -0.2244
 1256BOLB   GL430136   6.849  15.938  11.825  0.0954  0.2033 -0.0306
 1256BOLB   C1C30137   7.236  16.256  11.848 -0.3010 -0.0428 -0.0249
 1256BOLB   C2C30138   7.340  16.110  12.299  0.1214 -0.2151 -0.1922
 1256BOLB   C3C30139   7.513  16.027  12.621 -0.0871 -0.3108 -0.1164
 1256BOLB   C4C30140   7.679  15.916  12.981  0.0074  0.0134  0.0568
 1256BOLB   C1D30141   6.892  15.956  12.278  0.1938 -0.0878  0.1416
 1256BOLB   C2D30142   6.574  15.770  12.567  0.2586  0.3780  0.1096
 1256BOLB   C3D30143   6.612  15.762  12.957  0.0230 -0.0929  0.0048
 1256BOLB   C4D30144   6.957  15.871  13.255 -0.2798 -0.0293  0.1651
 1257BOLB   NC130145  13.175  17.478  14.588  0.1750 -0.0799 -0.0687
 1257BOLB   PO130146  12.989  17.746  14.928 -0.1110  0.3471 -0.2975
 1257BOLB   GL130147  12.749  18.148  14.796 -0.0614  0.1054 -0.1313
 1257BOLB   GL230148  12.473  18.127  14.822  0.1604  0.0068 -0.0747
 1257BOLB   C1A30149  12.763  18.618  14.888 -0.0611  0.2446  0.1070
 1257BOLB   C2A30150  12.706  18.896  15.115  0.0680 -0.1540  0.0099
 1257BOLB   C3A30151  12.676  19.172  15.463  0.2660 -0.0658 -0.2834
 1257BOLB   C4A30152  12.401  19.472  15.616  0.1895  0.0651 -0.0427
 1257BOLB   C1B30153  12.255  18.525  14.601  0.0721 -0.0604 -0.0758
 1257BOLB   C2B30154  12.204  18.903  14.758 -0.1187  0.0071  0.2253
 1257BOLB   C3B30155  12.071  19.282  14.848 -0.2624  0.0267 -0.0135
 1257BOLB   C4B30156  11.890  19.536  15.270 -0.1686  0.0387 -0.1444
 1257BOLB   NC230157  11.219  21.625  14.896  0.3044 -0.1333 -0.2582
 1257BOLB   PO230158  11.691  21.697  14.826  0.0212  0.0666 -0.2352
 1257BOLB   GL330159  11.990  21.501  15.007  0.0901  0.0717  0.1091
 1257BOLB   GL430160  12.116  21.635  15.296  0.0491 -0.0136 -0.2544
 1257BOLB   C1C30161  12.214  21.127  15.239  0.1457 -0.4876  0.1756
 1257BOLB   C2C30162  12.204  20.745  15.376  0.4313 -0.2739  0.2129
 1257BOLB   C3C30163  12.290  20.374  15.505 -0.2390  0.2436  0.3968
 1257BOLB   C4C30164  12.238  19.885  15.480 -0.2041  0.0947 -0.1302
 1257BOLB   C1D30165  12.222  21.377  15.710 -0.1298  0.0548 -0.2683
 1257BOLB   C2D30166  12.293  20.998  15.766 -0.1591 -0.1805  0.2049
 1257BOLB   C3D30167  12.176  20.670  15.972  0.1352 -0.1785 -0.0360
 1257BOLB   C4D30168  12.087  20.211  16.009 -0.2067  0.1388  0.1246
 1258BOLB   NC130169  12.858   1.585   2.876 -0.0190 -0.1441  0.0225
 1258BOLB   PO130170  12.407   1.383   3.037 -0.2524  0.0352 -0.1492
 1258BOLB   GL130171  12.421   1.628   3.418  0.1301  0.1835 -0.0961
 1258BOLB   GL230172  12.554   1.838   3.252 -0.2651 -0.2521 -0.0171
 1258BOLB   C1A30173  12.265   1.801   3.856  0.1584  0.0882 -0.2357
 1258BOLB   C2A30174  12.591   1.937   4.103  0.1652 -0.0064  0.1121
 1258BOLB   C3A30175  12.896   2.221   4.193  0.1385  0.2953 -0.1190
 1258BOLB   C4A30176  13.273   2.398   4.505  0.0531  0.4353  0.1823
 1258BOLB   C1B30177  12.629   2.145   3.602 -0.1868  0.1170  0.0709
 1258BOLB   C2B30178  12.361   2.471   3.988  0.0304  0.2005 -0.0115
 1258BOLB   C3B30179  12.445   2.891   4.100  0.1544  0.1268  0.0124
 1258BOLB   C4B30180  12.715   3.212   4.071 -0.3136  0.1717 -0.2682
 1258BOLB   NC230181  13.452   1.490   2.306 -0.5260 -0.1206  0.0940
 1258BOLB   PO230182  13.741   1.793   2.592  0.2492  0.0017 -0.0641
 1258BOLB   GL330183  13.880   1.824   3.015  0.0826  0.1063 -0.0206
 1258BOLB   GL430184  13.993   1.448   2.999  0.3513 -0.2793  0.0904
 1258BOLB   C1C30185  14.041   1.979   3.455 -0.0412 -0.1277  0.1815
 1258BOLB   C2C30186  14.225   2.097   3.838 -0.0804 -0.1358 -0.2054
 1258BOLB   C3C30187  14.136   2.272   4.202 -0.1504  0.0604 -0.1157
 1258BOLB   C4C30188  13.685   2.416   4.375  0.3249 -0.0160  0.0931
 1258BOLB   C1D30189  13.757   1.518   3.487 -0.3815 -0.0688  0.3024
 1258BOLB   C2D30190  13.448   1.650   3.794 -0.4064 -0.0508  0.2798
 1258BOLB   C3D30191  13.357   2.003   4.149 -0.2854 -0.1138  0.1657
 1258BOLB   C4D30192  13.206   1.793   4.590  0.0248 -0.0567  0.1390
 1259BOLB   NC130193  22.347   5.065  15.574 -0.0021 -0.1326  0.0003
 1259BOLB   PO130194  22.480   4.674  15.866  0.3132 -0.2668  0.2857
 1259BOLB   GL130195  22.649   4.215  15.845  0.1085 -0.2345 -0.0233
 1259BOLB   GL230196  22.737   4.074  16.154 -0.0645 -0.1322 -0.1345
 1259BOLB   C1A30197  22.889   3.887  15.726  0.0236 -0.0252  0.2513
 1259BOLB   C2A30198  23.077   3.542  15.683 -0.1416 -0.1433  0.1592
 1259BOLB   C3A30199  23.053   3.180  15.805 -0.0329  0.1523 -0.0299
 1259BOLB   C4A30200  23.573   3.070  15.798 -0.0603  0.1313 -0.2246
 1259BOLB   C1B30201  23.066   3.862  16.269  0.3550 -0.0981  0.1245
 1259BOLB   C2B30202  23.424   3.742  15.946 -0.0525  0.2409  0.0237
 1259BOLB   C3B30203  23.633   3.578  15.569 -0.1175  0.0728  0.1090
 1259BOLB   C4B30204  23.961   3.334  15.426  0.0085 -0.2583 -0.1264
 1259BOLB   NC230205  25.647   1.709  14.612 -0.1743  0.0121 -0.2163
 1259BOLB   PO230206  25.782   2.163  14.709 -0.1572  0.1398 -0.1006
 1259BOLB   GL330207  25.439   2.323  14.954 -0.0747  0.0296 -0.3019
 1259BOLB   GL430208  25.287   2.033  14.843  0.2796 -0.0250 -0.1127
 1259BOLB   C1C30209  25.078   2.502  15.162 -0.0095 -0.1216  0.4800
 1259BOLB   C2C30210  24.793   2.815  15.390  0.2686  0.2523  0.1007
 1259BOLB   C3C30211  24.380   2.913  15.657 -0.2438  0.0514  0.1064
 1259BOLB   C4C30212  24.056   2.981  15.780 -0.0252  0.3967 -0.1738
 1259BOLB   C1D30213  24.872   1.806  14.935  0.0965  0.1031 -0.1419
 1259BOLB   C2D30214  24.548   1.999  15.309 -0.3248 -0.0808 -0.2589
 1259BOLB   C3D30215  24.491   2.355  15.509  0.1581  0.3657  0.0700
 1259BOLB   C4D30216  24.097   2.486  15.588  0.3125  0.0596  0.2517
 1260BOLB   NC130217   9.336  10.104  20.000  0.0366  0.2167  0.1309
 1260BOLB   PO130218   9.491   9.669  20.356 -0.0057  0.2640  0.0801
 1260BOLB   GL130219   9.170   9.802  20.677 -0.0762  0.0124 -0.0690
 1260BOLB   GL230220   8.986   9.657  20.524 -0.0418 -0.1144 -0.1382
 1260BOLB   C1A30221   8.797   9.976  20.877 -0.3116  0.0868  0.1425
 1260BOLB   C2A30222   8.512  10.439  21.009  0.0471 -0.3446 -0.4211
 1260BOLB   C3A30223   8.414  10.817  21.136  0.3651  0.0029  0.1292
 1260BOLB   C4A30224   8.303  11.288  21.179  0.1155 -0.0887  0.1607
 1260BOLB   C1B30225   8.590   9.572  20.435  0.1011 -0.1102 -0.1380
 1260BOLB   C2B30226   8.205   9.452  20.590  0.0157 -0.0890  0.2506
 1260BOLB   C3B30227   7.954   9.176  20.617  0.0124  0.0328 -0.3928
 1260BOLB   C4B30228   7.458   9.016  20.546 -0.1244  0.0562 -0.3068
 1260BOLB   NC230229   6.242  11.704  22.482 -0.2370  0.0950 -0.0133
 1260BOLB   PO230230   6.058  11.775  22.007  0.1772 -0.0271 -0.3273
 1260BOLB   GL330231   6.553  11.686  22.007 -0.0106  0.0155  0.1321
 1260BOLB   GL430232   6.579  11.439  21.954 -0.4104  0.1295 -0.3256
 1260BOLB   C1C30233   6.990  11.668  21.806 -0.1037 -0.0064 -0.0631
 1260BOLB   C2C30234   7.283  11.337  21.693  0.1613 -0.2359 -0.0371
 1260BOLB   C3C30235   7.624  11.320  21.489 -0.1431  0.0748 -0.2327
 1260BOLB   C4C30236   7.915  11.193  21.365  0.0641  0.2068 -0.1626
 1260BOLB   C1D30237   6.734  11.269  21.576 -0.3639 -0.0456 -0.1218
 1260BOLB   C2D30238   7.034  11.127  21.245  0.2619  0.0045  0.0478
 1260BOLB   C3D30239   6.999  11.062  20.805 -0.1745  0.0027  0.0851
 1260BOLB   C4D30240   7.342  11.136  20.523 -0.0176  0.0882  0.2275
 1261BOLB   NC130241  16.382  12.779   7.891  0.4425 -0.0689 -0.1883
 1261BOLB   PO130242  15.954  12.987   7.864 -0.1873 -0.1572 -0.1367
 1261BOLB   GL130243  15.849  12.968   7.496  0.1822 -0.0273 -0.0451
 1261BOLB   GL230244  16.037  12.762   7.360  0.0031  0.2128 -0.0237
 1261BOLB   C1A30245  15.727  13.043   7.055 -0.1758 -0.2098 -0.0981
 1261BOLB   C2A30246  15.779  13.043   6.608  0.1535  0.1576  0.2923
 1261BOLB   C3A30247  15.830  12.892   6.165  0.0658 -0.1371 -0.2354
 1261BOLB   C4A30248  16.287  12.860   5.997 -0.0347  0.0320 -0.3624
 1261BOLB   C1B30249  16.171  12.725   6.912 -0.0377 -0.0019 -0.1443
 1261BOLB   C2B30250  16.187  12.658   6.482 -0.0103  0.0150  0.2223
 1261BOLB   C3B30251  16.034  12.212   6.375  0.1636  0.1501 -0.2401
 1261BOLB   C4B30252  16.098  11.796   5.973  0.3033  0.0932 -0.0380
 1261BOLB   NC230253  16.688  13.069   3.901  0.0752  0.2212  0.0761
 1261BOLB   PO230254  17.034  13.267   3.883  0.2854  0.1869  0.1194
 1261BOLB   GL330255  17.044  13.515   4.283 -0.3856 -0.3183 -0.1780
 1261BOLB   GL430256  17.329  13.558   4.458  0.0486 -0.3410 -0.2414
 1261BOLB   C1C30257  16.743  13.585   4.581 -0.3874  0.3561  0.1100
 1261BOLB   C2C30258  16.556  13.409   4.949  0.0620  0.0368 -0.2001
 1261BOLB   C3C30259  16.484  13.364   5.340  0.1615 -0.0383  0.0184
 1261BOLB   C4C30260  16.368  13.285   5.749 -0.1895  0.0978 -0.0120
 1261BOLB   C1D30261  17.146  13.251   4.740 -0.0485 -0.0546  0.1444
 1261BOLB   C2D30262  17.089  13.017   5.101  0.0101 -0.3391  0.3066
 1261BOLB   C3D30263  16.941  12.541   5.049 -0.2589  0.1238  0.0713
 1261BOLB   C4D30264  17.160  12.077   5.023  0.2347  0.1645  0.0058
 1262BOLB   NC130265  16.830  16.981  21.417 -0.1196 -0.0964 -0.0776
 1262BOLB   PO130266  16.328  16.835  21.203  0.1331 -0.0950  0.0276
 1262BOLB   GL130267  16.116  17.213  21.409 -0.0606  0.1173 -0.0063
 1262BOLB   GL230268  16.387  17.233  21.527 -0.0578 -0.0162 -0.1694
 1262BOLB   C1A30269  16.114  17.652  21.513  0.1163 -0.2602  0.2229
 1262BOLB   C2A30270  16.070  18.126  21.490  0.1583 -0.0598 -0.0160
 1262BOLB   C3A30271  15.887  18.464  21.713  0.2261  0.2649  0.0692
 1262BOLB   C4A30272  15.769  18.276  22.134  0.0405  0.2932 -0.1199
 1262BOLB   C1B30273  16.660  17.557  21.821 -0.1839  0.1134  0.3049
 1262BOLB   C2B30274  16.761  17.755  22.195  0.1490  0.1457 -0.0192
 1262BOLB   C3B30275  16.657  17.718  22.568  0.0512 -0.1093 -0.0256
 1262BOLB   C4B30276  16.550  17.359  22.788  0.1137 -0.0982  0.1669
 1262BOLB   NC230277  15.647  19.730  24.255  0.0523  0.2910  0.2347
 1262BOLB   PO230278  15.933  19.474  24.021  0.0825  0.0403 -0.0736
 1262BOLB   GL330279  16.007  19.478  23.635  0.2456 -0.0604 -0.1577
 1262BOLB   GL430280  16.061  19.807  23.520  0.0608 -0.1035 -0.3200
 1262BOLB   C1C30281  16.218  19.167  23.351 -0.1165  0.1707  0.3329
 1262BOLB   C2C30282  16.253  18.809  23.218 -0.0760 -0.2175  0.3576
 1262BOLB   C3C30283  16.058  18.660  22.881  0.0448 -0.3110  0.3293
 1262BOLB   C4C30284  15.967  18.496  22.453  0.0066 -0.2844  0.1983
 1262BOLB   C1D30285  16.200  19.627  23.063 -0.0111  0.0376  0.1670
 1262BOLB   C2D30286  16.296  19.310  22.788 -0.2402  0.1358 -0.2545
 1262BOLB   C3D30287  16.158  19.012  22.503 -0.0074  0.1025  0.0603
 1262BOLB   C4D30288  15.824  18.833  22.094  0.0208 -0.0913 -0.0983
 1263BOLB   NC130289  16.338  14.988   9.147 -0.0018 -0.1789  0.0373
 1263BOLB   PO130290  15.979  15.229   9.162 -0.0657 -0.1283 -0.0695
 1263BOLB   GL130291  15.748  15.389   8.859  0.1866  0.0552  0.0856
 1263BOLB   GL230292  15.788  15.156   8.604  0.0501  0.0471 -0.2391
 1263BOLB   C1A30293  15.734  15.695   8.438  0.1931 -0.2991  0.0646
 1263BOLB   C2A30294  15.675  15.649   8.025  0.0518  0.1806 -0.2912
 1263BOLB   C3A30295  15.406  15.715   7.696 -0.2845 -0.2281 -0.0128
 1263BOLB   C4A30296  15.337  15.908   7.279 -0.0808 -0.1387  0.2876
 1263BOLB   C1B30297  16.080  15.353   8.260 -0.0892 -0.1414 -0.4365
 1263BOLB   C2B30298  16.157  15.462   7.890  0.3528  0.0770  0.0506
 1263BOLB   C3B30299  16.441  15.536   7.650 -0.0494 -0.1712  0.1275
 1263BOLB   C4B30300  16.824  15.550   7.461  0.1205  0.5108 -0.0368
 1263BOLB   NC230301  14.800  17.382   5.627  0.3010  0.1522 -0.0720
 1263BOLB   PO230302  15.017  16.927   5.444 -0.1471  0.0573 -0.2130
 1263BOLB   GL330303  14.990  16.610   5.712 -0.0456  0.0517  0.0435
 1263BOLB   GL430304  15.321  16.781   5.896 -0.1398  0.1254  0.1809
 1263BOLB   C1C30305  14.863  16.456   6.057 -0.0478  0.0292 -0.4628
 1263BOLB   C2C30306  14.921  16.614   6.436  0.0392  0.1819  0.1791
 1263BOLB   C3C30307  15.030  16.359   6.697 -0.0237  0.0832 -0.2581
 1263BOLB   C4C30308  15.296  16.148   6.925  0.2642  0.1535  0.1235
 1263BOLB   C1D30309  15.183  16.993   6.269 -0.2237  0.4623  0.2798
 1263BOLB   C2D30310  14.810  17.140   6.467 -0.2401  0.0202 -0.2186
 1263BOLB   C3D30311  14.397  17.088   6.583  0.0593 -0.0052 -0.0422
 1263BOLB   C4D30312  14.323  16.990   6.967  0.0427 -0.0347  0.1240
 1264BOLB   NC130313  18.838   5.894  21.140  0.2385 -0.0003 -0.1484
 1264BOLB   PO130314  18.654   5.727  21.451  0.2247  0.2720  0.0968
 1264BOLB   GL130315  18.603   5.578  21.811  0.2755  0.1445 -0.0553
 1264BOLB   GL230316  18.756   5.149  22.019 -0.2741  0.0512  0.0968
 1264BOLB   C1A30317  18.520   5.484  22.299  0.0416  0.0818  0.0507
 1264BOLB   C2A30318  18.562   5.194  22.595 -0.1884 -0.2630  0.3669
 1264BOLB   C3A30319  18.672   5.007  23.084  0.2625  0.2440  0.1491
 1264BOLB   C4A30320  18.517   4.802  23.422  0.2264  0.0869  0.0825
 1264BOLB   C1B30321  19.018   5.063  22.330 -0.3215 -0.0740 -0.1541
 1264BOLB   C2B30322  19.033   4.869  22.778 -0.2539  0.0923  0.1084
 1264BOLB   C3B30323  19.068   4.660  23.117  0.1476  0.0570  0.6775
 1264BOLB   C4B30324  19.035   4.863  23.462  0.3509 -0.0562 -0.0626
 1264BOLB   NC230325  19.186   2.365  24.777  0.0069  0.0528 -0.0934
 1264BOLB   PO230326  19.074   2.830  24.653  0.0517 -0.1321 -0.0594
 1264BOLB   GL330327  18.938   3.139  24.357 -0.2808 -0.1617 -0.0821
 1264BOLB   GL430328  18.841   3.363  24.590 -0.0501 -0.0508  0.5293
 1264BOLB   C1C30329  19.005   3.289  23.973  0.0527 -0.0506  0.0724
 1264BOLB   C2C30330  18.691   3.566  23.843  0.2584  0.3092  0.3019
 1264BOLB   C3C30331  18.570   3.945  23.490 -0.0743  0.0341 -0.0353
 1264BOLB   C4C30332  18.708   4.401  23.382 -0.1130  0.0075 -0.3544
 1264BOLB   C1D30333  18.907   3.719  24.398  0.1589 -0.0832  0.1814
 1264BOLB   C2D30334  18.577   3.926  24.157  0.0715  0.1100 -0.2854
 1264BOLB   C3D30335  18.289   3.919  23.902  0.1620  0.1297 -0.1117
 1264BOLB   C4D30336  18.091   3.891  23.488 -0.2312  0.1066  0.1669
 1265BOLB   NC130337  23.310  10.812  18.014  0.0748 -0.3377 -0.2050
 1265BOLB   PO130338  23.619  11.030  18.203  0.1085 -0.1091  0.0065
 1265BOLB   GL130339  24.041  10.813  18.322 -0.2028 -0.1942  0.0587
 1265BOLB   GL230340  24.229  10.569  18.186 -0.3397  0.2405 -0.1580
 1265BOLB   C1A30341  24.535  10.699  18.505 -0.1674  0.3430  0.2686
 1265BOLB   C2A30342  24.973  10.631  18.321 -0.1760 -0.1571 -0.1423
 1265BOLB   C3A30343  25.384  10.881  18.334  0.1749  0.1193  0.2106
 1265BOLB   C4A30344  25.721  11.043  18.447 -0.2390  0.2690 -0.1009
 1265BOLB   C1B30345  24.537  10.359  18.024  0.1024 -0.2384  0.2073
 1265BOLB   C2B30346  24.985  10.254  17.912  0.1323  0.1925 -0.0658
 1265BOLB   C3B30347  25.274   9.925  17.664  0.0160  0.2254  0.3105
 1265BOLB   C4B30348  25.562   9.715  17.830  0.0695  0.1678 -0.0084
 1265BOLB   NC230349  28.455  11.180  18.438 -0.1301 -0.0776 -0.1856
 1265BOLB   PO230350  28.119  10.903  18.316 -0.0636  0.0881 -0.1346
 1265BOLB   GL330351  27.781  10.953  18.231  0.1302  0.0154  0.1954
 1265BOLB   GL430352  27.645  10.695  18.182  0.1194  0.1583 -0.1088
 1265BOLB   C1C30353  27.376  11.173  18.197 -0.1068  0.2766  0.0172
 1265BOLB   C2C30354  26.947  11.240  18.400  0.1427  0.2063  0.3959
 1265BOLB   C3C30355  26.502  11.260  18.188  0.1090 -0.0329  0.0483
 1265BOLB   C4C30356  26.103  11.208  18.293 -0.0082  0.1119 -0.1137
 1265BOLB   C1D30357  27.225  10.522  18.023 -0.0556  0.2573  0.1496
 1265BOLB   C2D30358  26.773  10.342  17.840  0.0573 -0.0234  0.0715
 1265BOLB   C3D30359  26.278  10.272  17.844 -0.1236  0.0920 -0.1094
 1265BOLB   C4D30360  26.016  10.159  18.182  0.1944 -0.0644 -0.0143
 1266BOLB   NC130361  13.918  16.830  21.057  0.1447 -0.0142 -0.0319
 1266BOLB   PO130362  14.254  16.810  21.292 -0.0346 -0.2110  0.3413
 1266BOLB   GL130363  14.290  16.875  21.673  0.2066 -0.1028 -0.2267
 1266BOLB   GL230364  14.632  16.920  21.644 -0.1629  0.1927 -0.0577
 1266BOLB   C1A30365  14.066  17.095  21.958 -0.1367  0.3773  0.0861
 1266BOLB   C2A30366  14.201  17.418  22.209 -0.0084  0.3074 -0.1142
 1266BOLB   C3A30367  13.948  17.855  22.330 -0.0589  0.3790  0.0622
 1266BOLB   C4A30368  14.028  18.248  22.680  0.0436  0.4887 -0.0008
 1266BOLB   C1B30369  14.652  17.393  21.457  0.2201  0.1470  0.1053
 1266BOLB   C2B30370  14.286  17.641  21.646 -0.2853  0.1167 -0.0278
 1266BOLB   C3B30371  13.906  17.628  21.862  0.0679  0.0842 -0.0100
 1266BOLB   C4B30372  13.667  17.476  22.180  0.6538  0.0017  0.1159
 1266BOLB   NC230373  15.310  19.410  23.960 -0.2176  0.1969  0.1215
 1266BOLB   PO230374  15.013  19.714  24.051  0.0240  0.1217 -0.1541
 1266BOLB   GL330375  14.975  19.626  23.614 -0.1516 -0.2173 -0.1457
 1266BOLB   GL430376  15.287  19.460  23.493  0.0454 -0.2008  0.2592
 1266BOLB   C1C30377  14.890  19.491  23.179  0.1474  0.1402 -0.3001
 1266BOLB   C2C30378  14.857  19.063  22.928 -0.1774 -0.2405 -0.4639
 1266BOLB   C3C30379  14.477  18.771  22.950  0.0774 -0.0966  0.0422
 1266BOLB   C4C30380  14.247  18.446  22.890  0.2926 -0.1718 -0.0141
 1266BOLB   C1D30381  15.545  19.186  23.433 -0.2323  0.0867  0.3002
 1266BOLB   C2D30382  15.738  18.746  23.322  0.0969  0.2008 -0.0957
 1266BOLB   C3D30383  15.714  18.388  23.122  0.0608  0.1966  0.1264
 1266BOLB   C4D30384  15.568  18.450  22.739 -0.2268 -0.1321 -0.0412
 1267BOLB   NC130385  14.430   6.731  22.249  0.0926 -0.2284 -0.1018
 1267BOLB   PO130386  13.951   6.699  22.272 -0.1049  0.0737 -0.1273
 1267BOLB   GL130387  13.930   6.323  22.548 -0.0510  0.2777  0.3470
 1267BOLB   GL230388  14.219   6.322  22.588  0.0026 -0.1188  0.1922
 1267BOLB   C1A30389  13.741   6.001  22.868 -0.1432  0.0423 -0.0592
 1267BOLB   C2A30390  13.654   5.847  23.275 -0.2345 -0.1599 -0.0965
 1267BOLB   C3A30391  13.786   5.945  23.726 -0.3255  0.1753 -0.0622
 1267BOLB   C4A30392  14.162   5.909  23.914  0.0139  0.2826 -0.0340
 1267BOLB   C1B30393  14.177   6.250  22.978  0.0081 -0.0362 -0.1616
 1267BOLB   C2B30394  14.189   6.013  23.331 -0.2229  0.3340 -0.4173
 1267BOLB   C3B30395  14.109   5.618  23.532 -0.3225 -0.2427  0.4554
 1267BOLB   C4B30396  14.197   5.273  23.696  0.2654  0.0281 -0.1142
 1267BOLB   NC230397  14.820   3.662  25.601 -0.3641  0.0142  0.1678
 1267BOLB   PO230398  14.981   4.208  25.586 -0.0548 -0.1574  0.2597
 1267BOLB   GL330399  14.825   4.437  25.278  0.1181 -0.0165 -0.0305
 1267BOLB   GL430400  14.511   4.479  25.167 -0.2677  0.1464 -0.1389
 1267BOLB   C1C30401  14.862   4.871  25.049 -0.2987  0.2745  0.0796
 1267BOLB   C2C30402  14.876   5.220  24.625  0.0661 -0.0019 -0.1034
 1267BOLB   C3C30403  14.781   5.311  24.276 -0.3252  0.1209 -0.1484
 1267BOLB   C4C30404  14.453   5.547  23.953 -0.2217  0.2885 -0.1173
 1267BOLB   C1D30405  14.508   4.643  24.761 -0.2382 -0.3224  0.0158
 1267BOLB   C2D30406  14.877   4.770  24.494  0.0217  0.2188 -0.1745
 1267BOLB   C3D30407  15.330   4.783  24.559  0.2919 -0.0324 -0.3295
 1267BOLB   C4D30408  15.464   5.013  24.941 -0.3585  0.1353 -0.0939
 1268BOLB   NC130409  19.618   2.908  11.096 -0.2408 -0.0862  0.0553
 1268BOLB   PO130410  19.390   2.562  11.248 -0.1282 -0.1888 -0.2731
 1268BOLB   GL130411  19.806   2.459  11.144 -0.3854 -0.0151 -0.0149
 1268BOLB   GL230412  20.083   2.265  11.307 -0.0442  0.1697  0.0901
 1268BOLB   C1A30413  19.908   2.136  10.831 -0.0746  0.0165 -0.2747
 1268BOLB   C2A30414  20.240   1.860  10.685  0.1229  0.2357 -0.0488
 1268BOLB   C3A30415  20.342   1.527  10.322 -0.0505  0.3751  0.1867
 1268BOLB   C4A30416  20.226   1.114  10.292 -0.0637  0.2428 -0.0477
 1268BOLB   C1B30417  20.331   2.019  11.152  0.2584 -0.1584 -0.2575
 1268BOLB   C2B30418  20.721   2.091  11.119 -0.0123  0.0181 -0.0172
 1268BOLB   C3B30419  21.056   2.262  11.018 -0.1706 -0.1537 -0.0384
 1268BOLB   C4B30420  21.439   2.219  11.148 -0.1968 -0.2580 -0.1980
 1268BOLB   NC230421  20.213  -0.862   8.765  0.3577  0.3416 -0.2517
 1268BOLB   PO230422  20.228  -0.789   9.223  0.4296  0.1977 -0.0060
 1268BOLB   GL330423  19.941  -0.642   9.590 -0.3070  0.0208 -0.0473
 1268BOLB   GL430424  19.678  -0.644   9.442 -0.0131 -0.1578 -0.0923
 1268BOLB   C1C30425  20.043  -0.313   9.783  0.2458  0.2435 -0.0640
 1268BOLB   C2C30426  19.809  -0.013   9.985 -0.2207 -0.0026 -0.0434
 1268BOLB   C3C30427  19.874   0.408  10.205  0.1559  0.2794 -0.2130
 1268BOLB   C4C30428  20.009   0.723  10.428 -0.1238 -0.2435 -0.0080
 1268BOLB   C1D30429  19.556  -0.487   9.197 -0.1581  0.1143 -0.1029
 1268BOLB   C2D30430  19.153  -0.199   9.188 -0.1008 -0.1325 -0.0449
 1268BOLB   C3D30431  18.824  -0.105   9.505  0.5051  0.1751  0.3018
 1268BOLB   C4D30432  18.694   0.302   9.735  0.2244 -0.1306  0.2025
 1269BOLB   NC130433  17.575   4.338  20.369 -0.0119  0.1758  0.1702
 1269BOLB   PO130434  18.043   4.258  20.591  0.0155  0.0466  0.4004
 1269BOLB   GL130435  18.203   3.873  20.560  0.1234 -0.1797 -0.1539
 1269BOLB   GL230436  18.372   3.766  20.257  0.3091 -0.1546 -0.1021
 1269BOLB   C1A30437  18.427   3.677  20.931  0.0227 -0.3433  0.0470
 1269BOLB   C2A30438  18.731   3.356  21.059 -0.2015 -0.2698 -0.0122
 1269BOLB   C3A30439  18.505   3.174  21.477 -0.1763  0.3249  0.1654
 1269BOLB   C4A30440  18.331   2.781  21.631 -0.1813 -0.3303 -0.1591
 1269BOLB   C1B30441  18.833   3.747  20.527 -0.0665 -0.0311  0.2656
 1269BOLB   C2B30442  19.147   3.603  20.825  0.1466 -0.1329 -0.0185
 1269BOLB   C3B30443  19.265   3.195  21.030 -0.1018 -0.0923  0.1014
 1269BOLB   C4B30444  19.603   2.874  20.821  0.1457 -0.2881 -0.0252
 1269BOLB   NC230445  18.323   1.471  23.527  0.1655  0.0873  0.0401
 1269BOLB   PO230446  18.057   1.235  23.285  0.1024  0.1710  0.1660
 1269BOLB   GL330447  18.383   1.409  23.052  0.1848 -0.3376  0.0864
 1269BOLB   GL430448  18.420   1.236  22.820  0.1249  0.0328  0.1075
 1269BOLB   C1C30449  18.520   1.781  22.872  0.1644 -0.0426 -0.0824
 1269BOLB   C2C30450  18.468   2.067  22.537  0.0714  0.4364  0.0314
 1269BOLB   C3C30451  18.234   2.368  22.366  0.2530 -0.0341  0.1014
 1269BOLB   C4C30452  18.156   2.654  22.049  0.1321 -0.0774  0.0402
 1269BOLB   C1D30453  18.352   1.438  22.481  0.1320  0.0570 -0.0556
 1269BOLB   C2D30454  18.362   1.823  22.128  0.0022  0.3063  0.1650
 1269BOLB   C3D30455  18.558   2.207  22.035  0.1811  0.3128  0.0948
 1269BOLB   C4D30456  18.813   2.507  21.776  0.3131  0.2919 -0.0952
 1270BOLB   NC130457  19.409   1.826  11.907 -0.1288 -0.0454 -0.0120
 1270BOLB   PO130458  19.536   2.146  12.125 -0.0945  0.5600 -0.1786
 1270BOLB   GL130459  19.925   1.901  12.141 -0.1388  0.0878 -0.0184
 1270BOLB   GL230460  19.799   1.505  11.975 -0.0147 -0.1138  0.3809
 1270BOLB   C1A30461  20.310   1.946  11.937  0.1989  0.1372  0.1756
 1270BOLB   C2A30462  20.694   1.846  11.664 -0.4357 -0.0132 -0.0034
 1270BOLB   C3A30463  20.774   1.566  11.365 -0.1811 -0.0074  0.1222
 1270BOLB   C4A30464  20.802   1.144  11.377  0.3540 -0.0272 -0.0345
 1270BOLB   C1B30465  19.699   1.218  12.278  0.2569 -0.1455  0.2290
 1270BOLB   C2B30466  19.783   1.193  12.780  0.1317 -0.0201  0.0406
 1270BOLB   C3B30467  19.705   0.899  13.104  0.2706 -0.2780 -0.1391
 1270BOLB   C4B30468  19.853   0.635  13.395  0.0593 -0.0136  0.3877
 1270BOLB   NC230469  21.689   0.453   9.746  0.1052  0.1296 -0.0881
 1270BOLB   PO230470  21.868   0.742   9.444 -0.1406 -0.0102  0.1747
 1270BOLB   GL330471  21.767   1.029   9.765 -0.3753  0.2107  0.0614
 1270BOLB   GL430472  21.773   1.318   9.630 -0.0008 -0.2279 -0.0619
 1270BOLB   C1C30473  21.405   1.021  10.017 -0.1344 -0.0362 -0.0213
 1270BOLB   C2C30474  21.022   1.290  10.170 -0.0993 -0.0433  0.1230
 1270BOLB   C3C30475  20.718   1.244  10.496 -0.0065 -0.2700 -0.4840
 1270BOLB   C4C30476  20.562   1.176  10.944 -0.5050  0.0300  0.1481
 1270BOLB   C1D30477  21.546   1.716   9.430 -0.2234 -0.0403  0.0548
 1270BOLB   C2D30478  21.145   1.791   9.391  0.2776  0.2605 -0.1356
 1270BOLB   C3D30479  20.655   1.796   9.167 -0.0175  0.0322  0.0975
 1270BOLB   C4D30480  20.387   1.660   8.920 -0.1340 -0.2222  0.0450
 1271BOLB   NC130481  24.303   8.464  14.471 -0.0333 -0.1972 -0.0234
 1271BOLB   PO130482  24.505   8.714  14.824 -0.0582  0.1370 -0.1904
 1271BOLB   GL130483  24.870   8.399  14.796  0.0291  0.0019 -0.1441
 1271BOLB   GL230484  24.867   8.162  15.099  0.4251  0.1336 -0.0006
 1271BOLB   C1A30485  25.287   8.135  14.739  0.0936  0.0607 -0.0744
 1271BOLB   C2A30486  25.530   7.860  15.036  0.1584 -0.0478 -0.1371
 1271BOLB   C3A30487  25.580   7.729  15.428 -0.0517 -0.0558  0.1685
 1271BOLB   C4A30488  25.550   7.900  15.799 -0.0648 -0.1438  0.3551
 1271BOLB   C1B30489  24.838   7.591  15.194  0.2435  0.1868 -0.0950
 1271BOLB   C2B30490  25.134   7.360  15.476  0.2012  0.1664 -0.2126
 1271BOLB   C3B30491  25.560   7.325  15.638  0.1205  0.3781 -0.0537
 1271BOLB   C4B30492  25.874   7.127  15.605  0.0514  0.2194 -0.1537
 1271BOLB   NC230493  27.847   7.295  16.486 -0.0490 -0.1909  0.3931
 1271BOLB   PO230494  27.590   7.600  16.624 -0.1887  0.1153  0.1107
 1271BOLB   GL330495  27.480   7.866  16.812 -0.0777  0.0553  0.3044
 1271BOLB   GL430496  27.705   8.153  16.595  0.2090  0.1203  0.3290
 1271BOLB   C1C30497  27.114   8.127  16.805  0.0201  0.0402  0.1432
 1271BOLB   C2C30498  26.614   8.185  16.511  0.1387  0.3530 -0.0875
 1271BOLB   C3C30499  26.187   8.250  16.320  0.2378 -0.2277 -0.2311
 1271BOLB   C4C30500  25.886   8.060  16.075  0.0458 -0.0449 -0.0960
 1271BOLB   C1D30501  27.316   8.249  16.353 -0.2934  0.0049  0.1580
 1271BOLB   C2D30502  26.922   8.487  16.287  0.0557  0.1762 -0.0197
 1271BOLB   C3D30503  26.582   8.543  15.934 -0.3692  0.2453  0.0098
 1271BOLB   C4D30504  26.398   8.197  15.691  0.0011 -0.1037 -0.1970
 1272BOLB   NC130505  13.963  15.332   9.442 -0.1555  0.3297  0.2661
 1272BOLB   PO130506  13.983  15.484   9.771 -0.1967 -0.1690 -0.0373
 1272BOLB   GL130507  13.768  15.833   9.501 -0.2099  0.0554 -0.1878
 1272BOLB   GL230508  13.578  15.727   9.292 -0.0705 -0.1525  0.0989
 1272BOLB   C1A30509  13.928  16.057   9.168  0.0087 -0.3263 -0.1286
 1272BOLB   C2A30510  14.172  16.111   8.811 -0.1057 -0.3606  0.2786
 1272BOLB   C3A30511  14.064  16.191   8.363  0.1147 -0.1659 -0.1269
 1272BOLB   C4A30512  13.899  15.984   8.061  0.0239 -0.1414 -0.0976
 1272BOLB   C1B30513  13.622  15.833   8.891  0.2505 -0.1365 -0.2058
 1272BOLB   C2B30514  13.481  16.124   8.752 -0.1556  0.1612  0.3023
 1272BOLB   C3B30515  13.197  16.509   8.664  0.1883 -0.0216  0.1165
 1272BOLB   C4B30516  13.009  16.693   8.295 -0.0602  0.0368  0.0799
 1272BOLB   NC230517  13.932  16.143   5.540 -0.1468 -0.0193  0.1547
 1272BOLB   PO230518  13.473  16.322   5.606 -0.0091  0.0506  0.1741
 1272BOLB   GL330519  13.566  16.466   6.053 -0.0097 -0.1411 -0.4291
 1272BOLB   GL430520  13.470  16.839   6.229 -0.0282  0.2857  0.1595
 1272BOLB   C1C30521  13.640  16.324   6.505  0.2204 -0.1909  0.0880
 1272BOLB   C2C30522  13.602  16.437   6.999 -0.3382 -0.1908 -0.1940
 1272BOLB   C3C30523  13.612  16.063   7.305 -0.4992  0.0645 -0.1569
 1272BOLB   C4C30524  13.611  15.995   7.827 -0.0691  0.0927  0.1519
 1272BOLB   C1D30525  13.388  16.776   6.726 -0.0163 -0.1107 -0.1875
 1272BOLB   C2D30526  13.208  16.692   7.034  0.0863 -0.2297  0.1782
 1272BOLB   C3D30527  13.109  16.567   7.468  0.2622 -0.1441  0.1918
 1272BOLB   C4D30528  12.859  16.540   7.844 -0.0827  0.2600 -0.1619
 1273BOLB   NC130529  11.254   4.274  19.213  0.4090 -0.0360  0.1701
 1273BOLB   PO130530  11.008   3.926  19.190 -0.2019 -0.1825 -0.0279
 1273BOLB   GL130531  11.169   3.535  19.363  0.4735 -0.2115  0.1113
 1273BOLB   GL230532  11.044   3.238  19.133  0.2121 -0.0634 -0.2850
 1273BOLB   C1A30533  11.090   3.391  19.651 -0.0822  0.2096  0.0826
 1273BOLB   C2A30534  10.993   3.089  19.957 -0.1554 -0.3225 -0.0906
 1273BOLB   C3A30535  10.613   2.930  20.158 -0.1192  0.0899  0.1000
 1273BOLB   C4A30536  10.463   2.812  20.464 -0.0522 -0.0012 -0.0368
 1273BOLB   C1B30537  10.757   3.180  19.396  0.0034 -0.1031 -0.2566
 1273BOLB   C2B30538  10.499   3.188  19.738 -0.0537  0.0495 -0.0970
 1273BOLB   C3B30539  10.105   3.087  19.916 -0.1547  0.2133  0.0174
 1273BOLB   C4B30540   9.851   3.113  20.227  0.1973 -0.1479 -0.3246
 1273BOLB   NC230541   9.924   1.242  21.935  0.3018  0.3447 -0.0448
 1273BOLB   PO230542  10.139   0.926  21.670  0.2330 -0.2312 -0.2461
 1273BOLB   GL330543  10.276   1.439  21.609  0.4835  0.3320 -0.1099
 1273BOLB   GL430544  10.434   1.540  21.346 -0.0351  0.0043 -0.2765
 1273BOLB   C1C30545  10.128   1.830  21.618  0.1350  0.3610 -0.1843
 1273BOLB   C2C30546  10.380   2.105  21.468  0.4084 -0.0002  0.0424
 1273BOLB   C3C30547  10.448   2.309  21.030 -0.3178  0.1015 -0.2175
 1273BOLB   C4C30548  10.363   2.449  20.694  0.1656  0.1171  0.4964
 1273BOLB   C1D30549  10.450   1.804  20.920  0.0735  0.0531  0.1515
 1273BOLB   C2D30550  10.579   2.055  20.496  0.2487  0.0036 -0.2078
 1273BOLB   C3D30551  10.867   2.263  20.624 -0.0052 -0.0954  0.4281
 1273BOLB   C4D30552  11.326   2.476  20.760 -0.1333 -0.3972 -0.2673
 1274BOLB   NC130553  23.753  12.402  16.098  0.0421 -0.1699 -0.2948
 1274BOLB   PO130554  23.960  12.795  16.221  0.1236 -0.1150 -0.0933
 1274BOLB   GL130555  24.208  12.955  16.567 -0.1810 -0.2284 -0.0876
 1274BOLB   GL230556  24.278  13.287  16.557  0.0229  0.0104 -0.0784
 1274BOLB   C1A30557  24.591  12.938  16.842  0.1890 -0.1724 -0.0726
 1274BOLB   C2A30558  25.126  12.874  16.872  0.3194 -0.0265  0.1059
 1274BOLB   C3A30559  25.604  12.928  16.785  0.1833 -0.2255  0.0093
 1274BOLB   C4A30560  25.952  12.970  16.520  0.0123  0.3483  0.3521
 1274BOLB   C1B30561  24.709  13.407  16.709  0.0150 -0.0698  0.0104
 1274BOLB   C2B30562  24.995  13.351  16.975  0.1864  0.2773 -0.0735
 1274BOLB   C3B30563  25.438  13.503  16.903 -0.0202 -0.2631  0.1721
 1274BOLB   C4B30564  25.652  13.818  16.983  0.0881  0.4268 -0.1882
 1274BOLB   NC230565  28.012  13.739  14.775 -0.2895 -0.2206  0.0595
 1274BOLB   PO230566  27.862  13.808  15.140  0.2386 -0.0637 -0.1599
 1274BOLB   GL330567  27.408  13.676  15.165 -0.3488  0.0946  0.1795
 1274BOLB   GL430568  27.235  13.366  14.987  0.1904  0.0285 -0.0194
 1274BOLB   C1C30569  27.100  13.614  15.466 -0.0947  0.1048 -0.0397
 1274BOLB   C2C30570  26.685  13.685  15.866 -0.0642  0.1003  0.1410
 1274BOLB   C3C30571  26.382  13.558  16.006  0.0240  0.2103 -0.1150
 1274BOLB   C4C30572  26.231  13.289  16.300 -0.0972  0.0960  0.0350
 1274BOLB   C1D30573  26.774  13.424  15.097  0.0140  0.0116  0.1855
 1274BOLB   C2D30574  26.381  13.316  15.066  0.1970  0.3337 -0.2678
 1274BOLB   C3D30575  26.056  13.346  14.808 -0.1791  0.0239  0.0138
 1274BOLB   C4D30576  25.889  13.149  14.458  0.0527 -0.1265 -0.1405
 1275BOLB   NC130577  13.733  16.190  10.416 -0.0636  0.5936  0.0770
 1275BOLB   PO130578  14.022  15.898  10.374  0.0118 -0.0351  0.0212
 1275BOLB   GL130579  14.174  16.198  10.058  0.1151  0.1003 -0.5249
 1275BOLB   GL230580  14.489  16.129   9.796 -0.1643 -0.3615 -0.1346
 1275BOLB   C1A30581  14.080  16.253   9.627 -0.0307  0.0563 -0.3615
 1275BOLB   C2A30582  14.042  16.548   9.338  0.0280 -0.2405  0.1348
 1275BOLB   C3A30583  13.975  16.837   9.030 -0.0946  0.1211 -0.0317
 1275BOLB   C4A30584  13.535  16.912   8.805  0.1456 -0.3243  0.0131
 1275BOLB   C1B30585  14.503  16.588   9.521  0.1925  0.0558  0.0085
 1275BOLB   C2B30586  14.324  17.016   9.429 -0.0077  0.0793  0.2939
 1275BOLB   C3B30587  14.028  17.331   9.415 -0.0383 -0.0407  0.0200
 1275BOLB   C4B30588  13.709  17.630   9.309  0.1894  0.2828  0.1638
 1275BOLB   NC230589  12.652  18.767   7.225 -0.0859 -0.1422  0.3101
 1275BOLB   PO230590  12.546  18.295   7.381 -0.0151  0.3630 -0.1294
 1275BOLB   GL330591  12.781  18.051   7.562 -0.0080  0.0637  0.0674
 1275BOLB   GL430592  13.129  18.218   7.614  0.1098  0.1138  0.0422
 1275BOLB   C1C30593  12.910  17.726   7.842 -0.1837  0.0883 -0.2363
 1275BOLB   C2C30594  13.088  17.445   8.136 -0.0713 -0.0144  0.0900
 1275BOLB   C3C30595  13.409  17.157   8.159  0.2579  0.0221 -0.0793
 1275BOLB   C4C30596  13.507  16.846   8.438 -0.1784 -0.4384 -0.3243
 1275BOLB   C1D30597  13.416  17.817   7.749  0.2353  0.1027  0.0484
 1275BOLB   C2D30598  13.499  17.625   8.135 -0.1416  0.0705  0.0727
 1275BOLB   C3D30599  13.821  17.347   8.279 -0.1009 -0.0790  0.0805
 1275BOLB   C4D30600  14.118  17.057   8.599  0.1766  0.2301  0.3072
 1276BOLB   NC130601  12.067  13.049  21.870  0.0028 -0.1927 -0.3456
 1276BOLB   PO130602  11.789  12.819  21.764 -0.1098 -0.0826  0.2572
 1276BOLB   GL130603  11.230  12.831  21.850 -0.1368 -0.0170 -0.0579
 1276BOLB   GL230604  11.222  13.078  22.026 -0.0964  0.0158  0.1427
 1276BOLB   C1A30605  10.815  12.889  22.199  0.0166  0.1787 -0.0686
 1276BOLB   C2A30606  10.663  13.178  22.584 -0.0370  0.2552  0.1533
 1276BOLB   C3A30607  10.848  13.453  22.835  0.3785 -0.1166 -0.0251
 1276BOLB   C4A30608  10.962  13.744  23.099 -0.2799  0.1968  0.1509
 1276BOLB   C1B30609  11.176  13.331  22.446 -0.1029  0.1115  0.3578
 1276BOLB   C2B30610  11.236  13.726  22.662  0.1065  0.0206 -0.4238
 1276BOLB   C3B30611  10.842  13.963  22.596  0.0637 -0.0023 -0.2639
 1276BOLB   C4B30612  10.362  14.122  22.689  0.1620  0.4552 -0.1170
 1276BOLB   NC230613  10.513  14.513  25.734  0.2511 -0.1472 -0.1308
 1276BOLB   PO230614  10.724  14.088  25.712  0.0793 -0.4396 -0.2708
 1276BOLB   GL330615  10.871  13.980  25.210  0.0994 -0.0917 -0.0374
 1276BOLB   GL430616  11.243  13.884  25.169 -0.3982 -0.0414  0.0986
 1276BOLB   C1C30617  11.072  14.123  24.746 -0.3074 -0.1429  0.0682
 1276BOLB   C2C30618  11.335  14.184  24.309  0.0709  0.3540  0.1132
 1276BOLB   C3C30619  11.287  13.930  23.939 -0.3578  0.0788  0.1206
 1276BOLB   C4C30620  11.007  13.772  23.607 -0.0825  0.1443  0.1844
 1276BOLB   C1D30621  11.581  14.092  24.912 -0.1101  0.0744  0.1442
 1276BOLB   C2D30622  11.866  14.264  24.537 -0.1342  0.2740  0.0552
 1276BOLB   C3D30623  12.047  14.497  24.235 -0.0333  0.3571 -0.0547
 1276BOLB   C4D30624  12.356  14.487  23.897  0.3900 -0.2983  0.0879
 1277BOLB   NC130625   8.789  13.376  15.653  0.2315  0.0154  0.0051
 1277BOLB   PO130626   8.361  13.181  15.772 -0.0354  0.1275  0.0858
 1277BOLB   GL130627   7.856  13.032  15.769 -0.1903  0.0782 -0.0916
 1277BOLB   GL230628   7.760  12.784  16.078 -0.1025  0.0172 -0.0523
 1277BOLB   C1A30629   7.481  13.046  15.759 -0.2822  0.0557  0.1275
 1277BOLB   C2A30630   7.036  12.823  15.836 -0.0755 -0.1185  0.1013
 1277BOLB   C3A30631   6.613  12.861  16.038 -0.0884 -0.3533 -0.1396
 1277BOLB   C4A30632   6.241  12.677  16.086  0.1279 -0.0931 -0.0907
 1277BOLB   C1B30633   7.400  12.664  16.315 -0.1528  0.0531 -0.0163
 1277BOLB   C2B30634   6.974  12.553  16.324 -0.1274 -0.2189 -0.0217
 1277BOLB   C3B30635   6.731  12.863  16.551 -0.0332 -0.0665  0.3106
 1277BOLB   C4B30636   6.599  13.138  16.869  0.1279  0.1665  0.1468
 1277BOLB   NC230637   4.604  13.756  15.600 -0.1408 -0.1963 -0.0451
 1277BOLB   PO230638   4.297  13.533  15.918 -0.1983 -0.2034 -0.0701
 1277BOLB   GL330639   4.750  13.219  15.851  0.3059  0.1621  0.0693
 1277BOLB   GL430640   4.945  13.230  15.590 -0.0600  0.0499 -0.0796
 1277BOLB   C1C30641   5.111  13.102  16.103 -0.1196 -0.1264 -0.4355
 1277BOLB   C2C30642   5.290  12.755  16.429  0.1284  0.0736  0.3400
 1277BOLB   C3C30643   5.573  12.431  16.372  0.3370 -0.0068 -0.1017
 1277BOLB   C4C30644   5.941  12.326  16.171 -0.0974 -0.0027 -0.0139
 1277BOLB   C1D30645   5.307  13.103  15.608 -0.1784  0.0428 -0.1057
 1277BOLB   C2D30646   5.605  12.780  15.592  0.2952  0.4158  0.1728
 1277BOLB   C3D30647   5.995  12.952  15.581 -0.1034 -0.3225 -0.0507
 1277BOLB   C4D30648   6.177  13.123  15.942  0.2041 -0.1593 -0.2682
 1278BOLB   NC130649  10.451  15.302  18.795  0.1192 -0.1524 -0.3202
 1278BOLB   PO130650  10.300  15.308  18.359  0.0923 -0.1017 -0.2363
 1278BOLB   GL130651   9.960  15.495  18.646 -0.2164  0.2471 -0.0788
 1278BOLB   GL230652   9.621  15.533  18.430  0.1513  0.3549 -0.2997
 1278BOLB   C1A30653   9.748  15.700  18.890  0.0815 -0.2284  0.0187
 1278BOLB   C2A30654   9.370  15.756  19.190  0.2876 -0.2958 -0.1656
 1278BOLB   C3A30655   8.821  15.900  19.278 -0.2471  0.1235 -0.0859
 1278BOLB   C4A30656   8.421  15.939  19.586 -0.0446  0.4180  0.0092
 1278BOLB   C1B30657   9.374  15.925  18.617  0.3230 -0.1647  0.1338
 1278BOLB   C2B30658   9.053  16.281  18.697 -0.0782 -0.0196 -0.1085
 1278BOLB   C3B30659   8.718  16.472  18.873 -0.0313 -0.2137  0.1308
 1278BOLB   C4B30660   8.381  16.819  18.943 -0.3558 -0.1395 -0.0320
 1278BOLB   NC230661   6.633  17.095  19.316  0.0007 -0.0422  0.1137
 1278BOLB   PO230662   6.668  17.243  19.760 -0.0348  0.3003  0.0544
 1278BOLB   GL330663   6.962  16.928  19.922 -0.1468 -0.0460 -0.2681
 1278BOLB   GL430664   6.886  16.722  20.224  0.0898 -0.0387  0.1230
 1278BOLB   C1C30665   7.233  16.553  19.811  0.1982 -0.0460 -0.2951
 1278BOLB   C2C30666   7.607  16.533  20.041 -0.4390  0.0539 -0.3231
 1278BOLB   C3C30667   7.984  16.321  20.134 -0.3120  0.2154 -0.2435
 1278BOLB   C4C30668   8.427  16.284  19.920  0.0490  0.2742  0.2640
 1278BOLB   C1D30669   7.362  16.813  20.322 -0.0020 -0.1703  0.2356
 1278BOLB   C2D30670   7.772  16.914  20.455 -0.0984  0.0816  0.0943
 1278BOLB   C3D30671   8.058  16.695  20.580 -0.1598 -0.3317 -0.2545
 1278BOLB   C4D30672   8.288  16.364  20.585 -0.2364 -0.0150 -0.0720
 1279BOLB   NC130673  12.000  16.923  17.855  0.0635 -0.0340 -0.2065
 1279BOLB   PO130674  11.799  17.118  18.143 -0.0730  0.1779  0.4264
 1279BOLB   GL130675  11.675  17.432  18.418  0.2288 -0.1877  0.0133
 1279BOLB   GL230676  11.622  17.252  18.684  0.1910 -0.2035  0.2712
 1279BOLB   C1A30677  11.414  17.836  18.482 -0.0438  0.2749 -0.2713
 1279BOLB   C2A30678  11.194  18.163  18.707 -0.1375  0.0456  0.0447
 1279BOLB   C3A30679  11.030  18.478  18.826  0.2438 -0.6018 -0.0835
 1279BOLB   C4A30680  10.660  18.656  19.064 -0.0529  0.3128  0.3254
 1279BOLB   C1B30681  11.369  17.619  18.942 -0.3659 -0.4016  0.2652
 1279BOLB   C2B30682  11.079  18.017  19.143  0.0807 -0.3358 -0.2061
 1279BOLB   C3B30683  10.686  18.137  19.215 -0.0748  0.2292 -0.0618
 1279BOLB   C4B30684  10.341  18.222  18.948  0.1928  0.2957  0.0952
 1279BOLB   NC230685   9.413  20.555  19.067 -0.0049  0.0290 -0.0315
 1279BOLB   PO230686   9.569  20.507  19.398  0.0068  0.0070  0.0534
 1279BOLB   GL330687   9.505  20.130  19.332  0.1474  0.0422 -0.2049
 1279BOLB   GL430688   9.847  20.037  19.465 -0.1292 -0.2022  0.1686
 1279BOLB   C1C30689   9.460  19.753  19.482 -0.0238 -0.0745 -0.0381
 1279BOLB   C2C30690   9.797  19.435  19.496  0.1071 -0.1113  0.0128
 1279BOLB   C3C30691  10.054  19.232  19.198 -0.2558 -0.1486  0.0947
 1279BOLB   C4C30692  10.240  18.823  19.183 -0.0505  0.1358  0.0474
 1279BOLB   C1D30693   9.990  19.854  19.116 -0.1827  0.0041 -0.1227
 1279BOLB   C2D30694   9.912  19.573  18.705 -0.0336 -0.0152  0.0631
 1279BOLB   C3D30695   9.739  19.188  18.496  0.3348  0.1962  0.1458
 1279BOLB   C4D30696   9.479  18.914  18.496 -0.0888 -0.2573 -0.1617
 1280BOLB   NC130697  19.531  10.355  22.986 -0.3970  0.2843  0.1264
 1280BOLB   PO130698  20.000  10.360  23.202  0.2035  0.0938 -0.1823
 1280BOLB   GL130699  19.905  10.348  23.685  0.1971  0.1775  0.0789
 1280BOLB   GL230700  19.983  10.684  23.787  0.0636 -0.1895  0.0032
 1280BOLB   C1A30701  19.969  10.332  24.141  0.0417 -0.1632 -0.0129
 1280BOLB   C2A30702  20.251  10.365  24.279 -0.2621 -0.1120  0.1111
 1280BOLB   C3A30703  20.357  10.321  24.765 -0.1082  0.0896 -0.0829
 1280BOLB   C4A30704  20.516  10.265  25.150  0.4393  0.0455  0.1433
 1280BOLB   C1B30705  19.974  10.813  24.233 -0.0009 -0.1496  0.1306
 1280BOLB   C2B30706  20.035  11.077  24.622  0.1399  0.2323 -0.1686
 1280BOLB   C3B30707  20.169  10.788  24.974  0.1643 -0.2510 -0.0415
 1280BOLB   C4B30708  20.324  10.640  25.370 -0.0348 -0.0069 -0.1803
 1280BOLB   NC230709  19.699   9.207  27.423  0.1083  0.0357  0.2262
 1280BOLB   PO230710  19.480   9.536  27.347  0.1955 -0.1872 -0.3746
 1280BOLB   GL330711  19.422   9.627  26.836 -0.0263 -0.2234 -0.2621
 1280BOLB   GL430712  19.041   9.679  26.853  0.5198  0.2736  0.3824
 1280BOLB   C1C30713  19.643   9.749  26.438  0.0726 -0.0089  0.1688
 1280BOLB   C2C30714  19.718   9.657  25.990 -0.0740  0.0612 -0.0913
 1280BOLB   C3C30715  19.953   9.823  25.662  0.1974 -0.0833  0.1463
 1280BOLB   C4C30716  20.227  10.135  25.508  0.2330 -0.1465  0.0807
 1280BOLB   C1D30717  18.815   9.494  26.526 -0.0417 -0.0466 -0.1534
 1280BOLB   C2D30718  18.671   9.542  26.230 -0.1491  0.0092  0.0443
 1280BOLB   C3D30719  18.699   9.463  25.823  0.0134 -0.0149 -0.1570
 1280BOLB   C4D30720  18.443   9.442  25.502 -0.0342  0.1552  0.0391
 1281BOLB   NC130721  13.902   9.890  22.901  0.0255 -0.0775  0.2179
 1281BOLB   PO130722  13.555   9.811  22.613 -0.2608 -0.0462  0.1756
 1281BOLB   GL130723  13.361   9.852  22.999 -0.1422 -0.0494  0.0595
 1281BOLB   GL230724  13.058   9.826  23.037 -0.2682  0.1436  0.2247
 1281BOLB   C1A30725  13.486   9.866  23.524 -0.3640 -0.0210 -0.0149
 1281BOLB   C2A30726  13.608   9.609  23.761 -0.0381  0.1797  0.2293
 1281BOLB   C3A30727  13.503   9.659  24.126 -0.0485  0.0376  0.0838
 1281BOLB   C4A30728  13.442   9.830  24.564 -0.0679  0.0117 -0.1749
 1281BOLB   C1B30729  12.657   9.985  23.377  0.0216 -0.0286 -0.2266
 1281BOLB   C2B30730  12.273   9.973  23.542 -0.2482 -0.1871 -0.0108
 1281BOLB   C3B30731  11.943  10.129  23.897  0.1657 -0.0953 -0.0171
 1281BOLB   C4B30732  11.730  10.431  24.153 -0.2681  0.0183  0.0552
 1281BOLB   NC230733  12.815  10.247  26.873  0.0842  0.0785 -0.1965
 1281BOLB   PO230734  12.520  10.303  26.601  0.1641  0.1425  0.1804
 1281BOLB   GL330735  12.479  10.155  26.082 -0.1684  0.3273 -0.2200
 1281BOLB   GL430736  12.218  10.326  25.960  0.1378  0.2756 -0.0846
 1281BOLB   C1C30737  12.603  10.026  25.690  0.1167  0.0826  0.1013
 1281BOLB   C2C30738  12.890   9.722  25.510  0.2081 -0.0126  0.3138
 1281BOLB   C3C30739  13.237   9.546  25.295  0.0168 -0.1959  0.1905
 1281BOLB   C4C30740  13.381   9.619  24.944 -0.3402  0.0840 -0.0963
 1281BOLB   C1D30741  12.141  10.491  25.591  0.3442  0.1426 -0.1756
 1281BOLB   C2D30742  12.198  10.416  25.158  0.0254  0.3350  0.0538
 1281BOLB   C3D30743  12.030  10.055  24.867  0.0202 -0.3634 -0.2621
 1281BOLB   C4D30744  12.275   9.956  24.514 -0.2247  0.1090 -0.1145
 1282BOLB   NC130745  17.018   1.070  13.500 -0.1022  0.1159 -0.2122
 1282BOLB   PO130746  17.476   0.926  13.732 -0.0027  0.3179 -0.5192
 1282BOLB   GL130747  17.129   0.524  13.583  0.0208 -0.2080 -0.0275
 1282BOLB   GL230748  16.901   0.612  13.725  0.3030 -0.0914  0.0346
 1282BOLB   C1A30749  17.262   0.184  13.374  0.0101  0.4742 -0.2813
 1282BOLB   C2A30750  17.512  -0.171  13.198 -0.1572 -0.0340 -0.1377
 1282BOLB   C3A30751  17.519  -0.487  13.354  0.0320 -0.0791  0.0003
 1282BOLB   C4A30752  17.313  -0.867  13.059  0.1336 -0.2272 -0.0749
 1282BOLB   C1B30753  17.038   0.134  13.873 -0.1771 -0.0210 -0.1737
 1282BOLB   C2B30754  17.168  -0.175  13.808 -0.3500 -0.1266  0.2870
 1282BOLB   C3B30755  17.231  -0.582  13.730  0.0157  0.1366 -0.0521
 1282BOLB   C4B30756  17.450  -0.916  13.656  0.1347 -0.4221 -0.0048
 1282BOLB   NC230757  16.940  -3.527  13.167  0.2170 -0.1883  0.1099
 1282BOLB   PO230758  17.179  -3.219  12.928 -0.0204 -0.2338 -0.2672
 1282BOLB   GL330759  17.064  -2.786  13.031  0.2081  0.0286 -0.1517
 1282BOLB   GL430760  16.728  -2.854  12.838 -0.1081  0.0205 -0.1998
 1282BOLB   C1C30761  17.279  -2.389  12.977  0.2635  0.1157  0.2284
 1282BOLB   C2C30762  17.552  -2.016  13.012  0.1195  0.0622 -0.0421
 1282BOLB   C3C30763  17.403  -1.643  13.218  0.2068 -0.0038 -0.2276
 1282BOLB   C4C30764  17.416  -1.257  13.274 -0.1384 -0.0145  0.2014
 1282BOLB   C1D30765  16.596  -2.421  13.004 -0.0482 -0.0484  0.0781
 1282BOLB   C2D30766  16.511  -1.999  12.892 -0.0232  0.3852 -0.1480
 1282BOLB   C3D30767  16.274  -1.597  12.706 -0.1393  0.4997 -0.0622
 1282BOLB   C4D30768  16.164  -1.300  12.519 -0.0440 -0.2199  0.0765
 1283BOLB   NC130769  19.835   3.274  18.439 -0.1729 -0.0985 -0.2325
 1283BOLB   PO130770  20.004   3.426  18.696 -0.0163  0.3303 -0.0048
 1283BOLB   GL130771  20.284   3.181  18.756  0.1201  0.1680 -0.0928
 1283BOLB   GL230772  20.105   3.007  18.978 -0.3729  0.0401  0.4741
 1283BOLB   C1A30773  20.720   3.022  18.551 -0.0005 -0.2064  0.1623
 1283BOLB   C2A30774  20.967   2.699  18.553  0.3427  0.0615 -0.3024
 1283BOLB   C3A30775  21.282   2.501  18.477  0.3805 -0.0561 -0.0931
 1283BOLB   C4A30776  21.489   2.172  18.544 -0.2541 -0.2826 -0.2199
 1283BOLB   C1B30777  20.395   2.672  19.144  0.0028 -0.0775 -0.2461
 1283BOLB   C2B30778  20.522   2.368  19.605  0.0034 -0.2772  0.0760
 1283BOLB   C3B30779  20.353   2.019  19.849  0.1763  0.1617  0.0981
 1283BOLB   C4B30780  20.512   1.803  20.233 -0.0462  0.1233  0.1600
 1283BOLB   NC230781  21.823  -0.319  18.803  0.0299 -0.1873 -0.0766
 1283BOLB   PO230782  22.219  -0.183  18.647 -0.2924  0.1002 -0.3029
 1283BOLB   GL330783  22.052   0.148  18.585 -0.0404 -0.3674 -0.1177
 1283BOLB   GL430784  22.004   0.148  18.250  0.1639 -0.0436 -0.0282
 1283BOLB   C1C30785  21.798   0.508  18.631 -0.0125 -0.0925 -0.1014
 1283BOLB   C2C30786  21.508   0.959  18.639  0.1825 -0.0789 -0.2522
 1283BOLB   C3C30787  21.637   1.469  18.638  0.3370  0.0364 -0.0291
 1283BOLB   C4C30788  21.523   1.820  18.588  0.0006 -0.1876  0.1210
 1283BOLB   C1D30789  21.792   0.298  17.854 -0.0293  0.5311  0.0255
 1283BOLB   C2D30790  21.880   0.342  17.494 -0.0865 -0.0972 -0.1889
 1283BOLB   C3D30791  22.078   0.423  17.160 -0.0201 -0.0254 -0.1106
 1283BOLB   C4D30792  22.545   0.496  17.037  0.1867  0.1329  0.1139
 1284BOLB   NC130793  18.587  13.585   9.224 -0.0454 -0.2406 -0.1099
 1284BOLB   PO130794  18.217  13.757   9.094 -0.0799 -0.1176  0.0751
 1284BOLB   GL130795  18.506  13.859   8.714 -0.2422 -0.0759 -0.1203
 1284BOLB   GL230796  18.441  14.065   8.515  0.0855  0.3127  0.1298
 1284BOLB   C1A30797  18.812  13.793   8.518 -0.2469 -0.2420 -0.3835
 1284BOLB   C2A30798  19.060  14.041   8.196  0.1814  0.0588  0.0691
 1284BOLB   C3A30799  19.044  14.082   7.770  0.1332 -0.0883 -0.0546
 1284BOLB   C4A30800  19.139  14.014   7.244  0.1913 -0.0112 -0.0029
 1284BOLB   C1B30801  18.673  14.341   8.309 -0.1827 -0.3336  0.0810
 1284BOLB   C2B30802  18.865  14.519   8.031 -0.0776 -0.1156 -0.0107
 1284BOLB   C3B30803  18.819  14.589   7.639 -0.1146 -0.0916 -0.0194
 1284BOLB   C4B30804  18.989  14.898   7.377  0.0651  0.3199 -0.0317
 1284BOLB   NC230805  19.621  14.477   4.736  0.0733 -0.0268  0.2772
 1284BOLB   PO230806  19.521  14.282   5.140 -0.0899 -0.1099  0.0164
 1284BOLB   GL330807  19.472  14.056   5.479  0.3452  0.4935 -0.1180
 1284BOLB   GL430808  19.708  14.129   5.697 -0.2525  0.0661  0.0979
 1284BOLB   C1C30809  19.273  13.713   5.662 -0.1099 -0.3139  0.0200
 1284BOLB   C2C30810  19.162  13.589   6.048  0.1224 -0.0162 -0.0431
 1284BOLB   C3C30811  19.140  13.528   6.524 -0.2596  0.2190  0.1139
 1284BOLB   C4C30812  19.054  13.834   6.827  0.0769  0.2387  0.3366
 1284BOLB   C1D30813  19.524  13.959   6.044 -0.1861 -0.0848  0.3534
 1284BOLB   C2D30814  19.492  13.933   6.574 -0.0541  0.2306  0.0632
 1284BOLB   C3D30815  19.265  14.269   6.844 -0.5013  0.1897  0.3903
 1284BOLB   C4D30816  19.375  14.660   6.903 -0.1322 -0.3304 -0.0426
 1285BOLB   NC130817   2.384   1.911  14.629 -0.1751  0.1519 -0.1027
 1285BOLB   PO130818   2.103   2.274  14.526 -0.0597  0.0369  0.0500
 1285BOLB   GL130819   2.542   2.497  14.472  0.3212 -0.1601 -0.0211
 1285BOLB   GL230820   2.801   2.354  14.392  0.0582 -0.2219  0.0805
 1285BOLB   C1A30821   2.752   2.820  14.486 -0.1655 -0.0469  0.2247
 1285BOLB   C2A30822   3.130   3.015  14.630  0.3107  0.2268 -0.2077
 1285BOLB   C3A30823   3.321   3.088  14.946 -0.1729  0.0893  0.0866
 1285BOLB   C4A30824   3.442   3.017  15.406  0.0172  0.1710  0.2749
 1285BOLB   C1B30825   3.172   2.511  14.463  0.1566 -0.2010  0.0383
 1285BOLB   C2B30826   3.505   2.678  14.645  0.3930 -0.0220 -0.0828
 1285BOLB   C3B30827   3.880   2.655  14.547  0.2954 -0.0896  0.0297
 1285BOLB   C4B30828   4.305   2.582  14.479 -0.0157 -0.1898 -0.3794
 1285BOLB   NC230829   3.450   0.899  15.833 -0.0113 -0.1547 -0.2898
 1285BOLB   PO230830   3.068   1.237  15.656 -0.5143 -0.0899  0.0830
 1285BOLB   GL330831   3.382   1.604  15.705 -0.1420 -0.2849 -0.0071
 1285BOLB   GL430832   3.609   1.543  15.969  0.5676  0.0958  0.1421
 1285BOLB   C1C30833   3.635   2.031  15.698  0.0354 -0.1680  0.0758
 1285BOLB   C2C30834   4.018   2.199  15.532 -0.2553  0.3565 -0.3538
 1285BOLB   C3C30835   3.938   2.681  15.415  0.0652 -0.0506  0.1037
 1285BOLB   C4C30836   3.750   3.014  15.434 -0.3724 -0.2370  0.2765
 1285BOLB   C1D30837   4.046   1.564  15.738  0.0526 -0.1280  0.0737
 1285BOLB   C2D30838   4.509   1.494  15.659 -0.0973  0.0116  0.1581
 1285BOLB   C3D30839   4.784   1.529  15.335 -0.1933  0.0357 -0.0427
 1285BOLB   C4D30840   5.191   1.471  15.312  0.2171  0.0022 -0.1448
 1286BOLB   NC130841  16.913  17.744  19.555  0.2296 -0.4977 -0.1685
 1286BOLB   PO130842  16.536  17.652  19.891 -0.0813  0.2065  0.1835
 1286BOLB   GL130843  16.429  18.143  20.015 -0.1901  0.0568 -0.1178
 1286BOLB   GL230844  16.365  18.384  20.323 -0.1201 -0.0967 -0.1401
 1286BOLB   C1A30845  16.526  18.458  19.768  0.3961 -0.0525 -0.0095
 1286BOLB   C2A30846  16.586  18.782  19.879  0.0535  0.2409  0.0655
 1286BOLB   C3A30847  16.682  19.095  20.163  0.1045 -0.4269  0.4259
 1286BOLB   C4A30848  16.746  19.451  20.334 -0.3137  0.2516  0.3485
 1286BOLB   C1B30849  16.484  18.781  20.512  0.0870 -0.2223  0.0256
 1286BOLB   C2B30850  16.660  19.145  20.695  0.0918 -0.1090  0.0389
 1286BOLB   C3B30851  16.621  19.304  21.048  0.1187  0.0720 -0.1658
 1286BOLB   C4B30852  16.577  19.420  21.467 -0.1552  0.1663 -0.2048
 1286BOLB   NC230853  17.031  21.623  21.486 -0.0517  0.2529 -0.2682
 1286BOLB   PO230854  16.920  21.779  21.029 -0.1117  0.3202 -0.0846
 1286BOLB   GL330855  16.995  21.421  20.860  0.1558 -0.0213 -0.1336
 1286BOLB   GL430856  17.250  21.371  20.999  0.0843 -0.0218 -0.2557
 1286BOLB   C1C30857  17.125  21.012  20.650  0.0179  0.0288 -0.0900
 1286BOLB   C2C30858  16.948  20.605  20.442  0.3643 -0.0523 -0.3905
 1286BOLB   C3C30859  17.143  20.163  20.471 -0.1709 -0.0491  0.2657
 1286BOLB   C4C30860  17.039  19.679  20.411 -0.2208 -0.0148  0.2595
 1286BOLB   C1D30861  17.364  21.074  21.290  0.0634 -0.0313 -0.1282
 1286BOLB   C2D30862  17.585  20.653  21.319  0.0141 -0.1510  0.1713
 1286BOLB   C3D30863  17.751  20.257  21.067 -0.0674  0.0729 -0.3120
 1286BOLB   C4D30864  17.922  20.108  20.749  0.1150 -0.2963 -0.5606
 1287BOLB   NC130865  12.752  22.455  14.518 -0.2145  0.0981 -0.0843
 1287BOLB   PO130866  13.032  22.231  14.746 -0.4651  0.1158 -0.0414
 1287BOLB   GL130867  13.013  21.759  15.038  0.1616  0.0509  0.1242
 1287BOLB   GL230868  12.963  21.446  14.910 -0.0136 -0.1390  0.2630
 1287BOLB   C1A30869  13.148  21.378  15.364 -0.0754  0.3009 -0.1611
 1287BOLB   C2A30870  13.149  20.914  15.350 -0.0963  0.1669  0.3880
 1287BOLB   C3A30871  13.132  20.499  15.151  0.0156  0.1773 -0.0042
 1287BOLB   C4A30872  13.160  20.259  14.720 -0.2372 -0.2379 -0.0713
 1287BOLB   C1B30873  13.188  21.100  14.877  0.1675  0.4543  0.1590
 1287BOLB   C2B30874  13.387  20.662  14.791  0.2749  0.3679  0.2589
 1287BOLB   C3B30875  13.555  20.319  15.042 -0.0224 -0.1635 -0.0034
 1287BOLB   C4B30876  13.837  19.941  14.909  0.0151  0.0196 -0.2342
 1287BOLB   NC230877  14.554  18.026  14.317 -0.4265  0.0141  0.2665
 1287BOLB   PO230878  14.523  18.316  14.101 -0.2333 -0.3058 -0.3080
 1287BOLB   GL330879  14.165  18.607  13.895  0.0611 -0.0388  0.3677
 1287BOLB   GL430880  14.308  18.678  13.739 -0.0059  0.3570  0.0877
 1287BOLB   C1C30881  13.925  18.820  14.217 -0.0762 -0.2613  0.0110
 1287BOLB   C2C30882  13.732  19.245  14.260 -0.6462  0.0133  0.0539
 1287BOLB   C3C30883  13.672  19.717  14.310 -0.0505 -0.2273  0.1545
 1287BOLB   C4C30884  13.413  19.900  14.699  0.0929 -0.0691  0.2788
 1287BOLB   C1D30885  14.482  18.669  13.277 -0.1048 -0.1985 -0.5040
 1287BOLB   C2D30886  14.316  18.821  12.921  0.1249 -0.2948 -0.2622
 1287BOLB   C3D30887  14.077  19.143  12.672  0.0352 -0.4566 -0.1057
 1287BOLB   C4D30888  13.658  19.252  12.437  0.0794 -0.1027  0.0449
 1288BOLB   NC130889  19.735  10.944  23.430  0.2252 -0.1845  0.2523
 1288BOLB   PO130890  19.624  11.328  23.651  0.0020 -0.0811  0.2605
 1288BOLB   GL130891  19.651  11.517  24.034 -0.2446  0.0684 -0.1275
 1288BOLB   GL230892  19.640  11.846  24.093  0.1388  0.2939  0.2850
 1288BOLB   C1A30893  19.874  11.534  24.467  0.1735 -0.2781  0.0385
 1288BOLB   C2A30894  20.079  11.470  24.971 -0.0909 -0.2147  0.0345
 1288BOLB   C3A30895  20.355  11.196  25.279  0.1306  0.1910  0.2866
 1288BOLB   C4A30896  20.694  10.931  25.342 -0.1025  0.0817  0.0403
 1288BOLB   C1B30897  19.764  12.023  24.485 -0.0753 -0.0675  0.3535
 1288BOLB   C2B30898  20.230  12.130  24.567  0.1663 -0.1500  0.0939
 1288BOLB   C3B30899  20.391  11.950  24.945  0.3410 -0.0043  0.0179
 1288BOLB   C4B30900  20.527  11.813  25.326  0.3250 -0.0313  0.2364
 1288BOLB   NC230901  21.722   8.980  26.696 -0.0587  0.0892 -0.0635
 1288BOLB   PO230902  21.854   8.821  26.316  0.3239 -0.2355 -0.0097
 1288BOLB   GL330903  21.596   9.110  26.007 -0.0049 -0.0852  0.0279
 1288BOLB   GL430904  21.306   8.853  26.064  0.0008 -0.0305  0.0110
 1288BOLB   C1C30905  21.512   9.597  25.933 -0.0206 -0.0519  0.1740
 1288BOLB   C2C30906  21.384   9.977  25.707 -0.1861 -0.0797  0.2706
 1288BOLB   C3C30907  20.995  10.155  25.572 -0.0663  0.1300 -0.0316
 1288BOLB   C4C30908  20.806  10.555  25.440  0.0469  0.1679 -0.1547
 1288BOLB   C1D30909  20.953   9.135  25.910  0.1561  0.0429  0.0342
 1288BOLB   C2D30910  20.597   9.280  25.533  0.0150  0.1413 -0.0482
 1288BOLB   C3D30911  20.480   9.346  25.158  0.1985 -0.2487 -0.1695
 1288BOLB   C4D30912  20.293   9.768  25.133  0.1665 -0.1053  0.1040
 1289BOLB   NC130913  16.633  10.010  22.963  0.6986  0.0044 -0.0014
 1289BOLB   PO130914  16.199  10.157  23.159  0.0447  0.3003 -0.2449
 1289BOLB   GL130915  16.020  10.129  23.579 -0.1307 -0.0602 -0.1183
 1289BOLB   GL230916  16.229  10.085  23.821 -0.0075 -0.2714  0.1141
 1289BOLB   C1A30917  15.680  10.065  23.941 -0.0429  0.2688 -0.0944
 1289BOLB   C2A30918  15.662  10.064  24.345  0.0773  0.1295  0.4013
 1289BOLB   C3A30919  15.776  10.093  24.814 -0.2896 -0.1697  0.0493
 1289BOLB   C4A30920  15.578  10.141  25.148 -0.0709 -0.1390  0.1902
 1289BOLB   C1B30921  16.149  10.286  24.163  0.3692  0.1731 -0.2222
 1289BOLB   C2B30922  16.210  10.476  24.623 -0.2700 -0.2523  0.0510
 1289BOLB   C3B30923  16.289  10.409  24.966 -0.0215  0.2028 -0.0838
 1289BOLB   C4B30924  16.372  10.053  25.153  0.0278  0.1094  0.3339
 1289BOLB   NC230925  15.199  10.318  27.177  0.0782 -0.0984  0.2058
 1289BOLB   PO230926  15.492   9.958  27.217 -0.3966 -0.0127 -0.3277
 1289BOLB   GL330927  15.803   9.940  27.024  0.0324  0.0024 -0.2086
 1289BOLB   GL430928  16.146   9.962  27.026  0.3280  0.0243 -0.3144
 1289BOLB   C1C30929  15.825   9.869  26.698 -0.0084 -0.0418  0.1326
 1289BOLB   C2C30930  15.513   9.888  26.401  0.2126 -0.2139 -0.0289
 1289BOLB   C3C30931  15.598  10.080  26.007 -0.0147 -0.0186 -0.1162
 1289BOLB   C4C30932  15.498  10.136  25.578 -0.1014 -0.3333  0.2074
 1289BOLB   C1D30933  16.286   9.655  26.671  0.1236 -0.5320 -0.2583
 1289BOLB   C2D30934  16.308   9.549  26.298 -0.2987  0.4107 -0.0501
 1289BOLB   C3D30935  16.116   9.448  25.867 -0.4291 -0.0791 -0.2749
 1289BOLB   C4D30936  16.250   9.497  25.405  0.1899 -0.0811 -0.0937
 1290BOLB   NC130937  15.177  14.162  23.018  0.0574 -0.0811 -0.1702
 1290BOLB   PO130938  14.826  14.038  22.758 -0.1810 -0.1111 -0.2019
 1290BOLB   GL130939  14.676  14.216  23.101 -0.0207  0.0246 -0.2234
 1290BOLB   GL230940  14.861  14.315  23.400  0.0610 -0.0689 -0.0193
 1290BOLB   C1A30941  14.367  14.373  23.405  0.2076  0.1537 -0.2692
 1290BOLB   C2A30942  14.253  14.700  23.702 -0.2944 -0.1357  0.2475
 1290BOLB   C3A30943  13.972  14.927  24.016  0.0281  0.0060  0.1766
 1290BOLB   C4A30944  13.628  14.917  24.342  0.1815 -0.2628 -0.2116
 1290BOLB   C1B30945  14.884  14.565  23.751 -0.0312  0.2354  0.0483
 1290BOLB   C2B30946  15.168  14.695  24.174  0.1520 -0.2089  0.0590
 1290BOLB   C3B30947  15.345  14.800  24.637  0.1231 -0.1026  0.1294
 1290BOLB   C4B30948  14.987  14.867  25.056 -0.0555 -0.2078 -0.0413
 1290BOLB   NC230949  11.245  16.228  25.729  0.4164 -0.1427  0.0203
 1290BOLB   PO230950  11.605  15.958  25.555  0.2596 -0.2232 -0.3048
 1290BOLB   GL330951  11.878  15.779  25.252 -0.1190 -0.1248 -0.1540
 1290BOLB   GL430952  12.073  16.004  25.125  0.1221  0.1064 -0.1032
 1290BOLB   C1C30953  12.183  15.511  25.073  0.2687 -0.1660  0.0430
 1290BOLB   C2C30954  12.325  15.213  24.855 -0.0320 -0.1930  0.1582
 1290BOLB   C3C30955  12.683  14.907  24.804  0.0130  0.0546  0.0463
 1290BOLB   C4C30956  13.172  14.937  24.548  0.2382  0.0472  0.0724
 1290BOLB   C1D30957  12.405  16.052  24.820  0.2240 -0.3264 -0.0552
 1290BOLB   C2D30958  12.559  16.119  24.486  0.2391 -0.0705  0.1438
 1290BOLB   C3D30959  12.825  15.999  24.164  0.1818 -0.1407  0.1954
 1290BOLB   C4D30960  13.053  15.820  23.969  0.2206 -0.1789  0.0114
 1291BOLB   NC130961  19.317  17.705  15.461  0.0010  0.1512 -0.0478
 1291BOLB   PO130962  19.763  17.818  15.726  0.4252 -0.0044  0.0603
 1291BOLB   GL130963  19.893  18.194  15.683  0.0233 -0.1987 -0.3227
 1291BOLB   GL230964  20.143  18.145  15.376  0.0136  0.3006  0.1259
 1291BOLB   C1A30965  19.841  18.580  15.594  0.0327  0.1528  0.0480
 1291BOLB   C2A30966  19.958  19.078  15.755 -0.1422  0.1873  0.3090
 1291BOLB   C3A30967  20.084  19.504  15.667  0.0750 -0.2402  0.0629
 1291BOLB   C4A30968  20.418  19.694  15.449 -0.1584  0.1103  0.0842
 1291BOLB   C1B30969  20.332  18.464  15.418 -0.1861  0.0230 -0.1397
 1291BOLB   C2B30970  20.503  18.945  15.472 -0.1124 -0.3194  0.3811
 1291BOLB   C3B30971  20.634  19.336  15.740 -0.2157  0.0562 -0.0847
 1291BOLB   C4B30972  20.994  19.632  15.634  0.0158  0.3031 -0.1424
 1291BOLB   NC230973  20.874  21.576  14.829 -0.2437 -0.0015  0.1795
 1291BOLB   PO230974  21.045  21.821  15.214  0.3261 -0.2799  0.2626
 1291BOLB   GL330975  20.782  21.547  15.447  0.1696 -0.0257  0.2201
 1291BOLB   GL430976  20.847  21.665  15.777 -0.4441  0.0653 -0.0600
 1291BOLB   C1C30977  20.477  21.187  15.378  0.2461 -0.1514 -0.1471
 1291BOLB   C2C30978  20.332  20.835  15.464  0.2042  0.1566 -0.1623
 1291BOLB   C3C30979  20.162  20.492  15.406 -0.2020 -0.1799  0.0040
 1291BOLB   C4C30980  20.425  20.080  15.286  0.0224 -0.1733 -0.0364
 1291BOLB   C1D30981  20.422  21.641  15.877 -0.3224  0.0320  0.0010
 1291BOLB   C2D30982  20.125  21.444  15.805  0.0758  0.2572  0.0297
 1291BOLB   C3D30983  19.914  21.123  15.731 -0.0484  0.0161 -0.1033
 1291BOLB   C4D30984  19.744  20.670  15.634  0.0698  0.1942 -0.1520
 1292BOLB   NC130985  13.202   2.370  17.761  0.3462  0.0334  0.0755
 1292BOLB   PO130986  13.172   2.004  17.701  0.0382  0.0461 -0.0225
 1292BOLB   GL130987  13.021   1.629  17.848 -0.1286 -0.1353  0.0225
 1292BOLB   GL230988  12.749   1.580  17.662 -0.1200  0.0042 -0.0492
 1292BOLB   C1A30989  12.982   1.320  18.038  0.3597  0.0579  0.0407
 1292BOLB   C2A30990  12.488   1.264  18.028  0.2332  0.1589 -0.1009
 1292BOLB   C3A30991  12.264   0.959  18.145 -0.1258 -0.2432 -0.0665
 1292BOLB   C4A30992  11.957   0.681  18.388  0.0342 -0.1679  0.3944
 1292BOLB   C1B30993  12.527   1.191  17.523 -0.0666 -0.1190 -0.0536
 1292BOLB   C2B30994  12.086   1.076  17.650 -0.0817 -0.1390  0.4158
 1292BOLB   C3B30995  11.868   0.823  17.840  0.2154 -0.0148  0.1040
 1292BOLB   C4B30996  11.591   0.564  18.041 -0.0230  0.0009  0.1306
 1292BOLB   NC230997  10.503  -1.141  18.754  0.0010  0.0673  0.3296
 1292BOLB   PO230998  10.613  -0.954  19.150  0.0775  0.1098  0.1754
 1292BOLB   GL330999  10.581  -0.614  18.876  0.1113 -0.1145 -0.0230
 1292BOLB   GL431000  10.304  -0.434  18.757  0.0463 -0.0620 -0.2158
 1292BOLB   C1C31001  10.903  -0.376  18.744 -0.0045  0.0076 -0.1815
 1292BOLB   C2C31002  11.315  -0.255  18.603  0.1967  0.1250  0.0139
 1292BOLB   C3C31003  11.465   0.148  18.625  0.2249 -0.2090 -0.1397
 1292BOLB   C4C31004  11.689   0.454  18.527 -0.3250 -0.2168  0.0090
 1292BOLB   C1D31005  10.370   0.011  18.616  0.2303  0.1718  0.1190
 1292BOLB   C2D31006  10.439   0.274  18.215 -0.3313  0.0786  0.2146
 1292BOLB   C3D31007  10.383   0.598  17.924  0.1495  0.0490  0.1066
 1292BOLB   C4D31008  10.481   0.742  17.451 -0.2106  0.1175 -0.0171
 1293BOLB   NC131009  19.204  22.480  15.188 -0.0431  0.1979 -0.0500
 1293BOLB   PO131010  18.935  22.348  15.515 -0.0950 -0.0581 -0.0476
 1293BOLB   GL131011  18.776  21.999  15.729  0.2680 -0.2495 -0.2090
 1293BOLB   GL231012  18.566  22.073  15.964 -0.2177  0.2587  0.1066
 1293BOLB   C1A31013  18.604  21.579  15.781  0.2184  0.0102  0.1828
 1293BOLB   C2A31014  18.497  21.175  15.995 -0.2458 -0.2288  0.0310
 1293BOLB   C3A31015  18.277  21.024  16.339  0.0494  0.0534  0.3136
 1293BOLB   C4A31016  18.094  20.702  16.552  0.0563 -0.2539  0.1279
 1293BOLB   C1B31017  18.231  21.701  16.053 -0.1716 -0.0901  0.1268
 1293BOLB   C2B31018  17.996  21.311  15.952 -0.1174  0.5401  0.0287
 1293BOLB   C3B31019  17.626  21.005  15.894 -0.2378 -0.0013  0.0677
 1293BOLB   C4B31020  17.241  20.743  15.677  0.0936 -0.0039 -0.1440
 1293BOLB   NC231021  17.608  18.351  16.979  0.3301  0.1536 -0.0105
 1293BOLB   PO231022  17.487  18.531  16.633 -0.0031 -0.1762 -0.3548
 1293BOLB   GL331023  17.486  18.909  16.632 -0.3339 -0.2333 -0.2013
 1293BOLB   GL431024  17.754  18.878  16.890  0.0354 -0.2278  0.2037
 1293BOLB   C1C31025  17.488  19.397  16.443 -0.2495 -0.1036  0.2472
 1293BOLB   C2C31026  17.317  19.816  16.535  0.0328  0.0208  0.1497
 1293BOLB   C3C31027  17.496  20.255  16.448 -0.1570 -0.1433  0.0572
 1293BOLB   C4C31028  17.781  20.375  16.645 -0.2148  0.1573  0.3151
 1293BOLB   C1D31029  18.169  19.019  17.091  0.1928 -0.1270 -0.2640
 1293BOLB   C2D31030  18.680  18.997  17.207  0.4468  0.3157 -0.1244
 1293BOLB   C3D31031  18.912  19.252  17.389 -0.0884  0.0610 -0.0055
 1293BOLB   C4D31032  19.178  19.613  17.484  0.0083 -0.1528 -0.0659
 1294BOLB   NC131033   9.325  11.668  18.658  0.3130  0.3668 -0.1302
 1294BOLB   PO131034   9.030  12.085  18.559 -0.2317  0.1455  0.1178
 1294BOLB   GL131035   8.550  12.154  18.793  0.1714  0.0413 -0.1723
 1294BOLB   GL231036   8.441  11.860  19.030 -0.0419  0.3576 -0.0080
 1294BOLB   C1A31037   8.059  12.257  18.938  0.2383 -0.1607  0.0399
 1294BOLB   C2A31038   7.741  12.165  19.239  0.0568  0.2003  0.3050
 1294BOLB   C3A31039   7.427  12.095  19.566  0.2198  0.2703  0.0520
 1294BOLB   C4A31040   7.289  12.352  19.877  0.1169 -0.1741  0.0345
 1294BOLB   C1B31041   8.018  11.677  19.106 -0.2309 -0.2807 -0.0493
 1294BOLB   C2B31042   7.653  11.527  19.345  0.2216 -0.4138 -0.2059
 1294BOLB   C3B31043   7.321  11.602  19.695 -0.0728  0.1075 -0.1645
 1294BOLB   C4B31044   7.134  11.873  20.005  0.1747 -0.0227  0.0598
 1294BOLB   NC231045   5.517  12.781  21.236 -0.0120  0.2037  0.0674
 1294BOLB   PO231046   5.877  12.588  21.500  0.2976 -0.2066  0.0523
 1294BOLB   GL331047   5.984  12.630  21.005 -0.0666  0.2867  0.1515
 1294BOLB   GL431048   6.169  12.964  21.084  0.0973  0.0255 -0.1079
 1294BOLB   C1C31049   6.333  12.367  20.821  0.0980 -0.1406  0.0681
 1294BOLB   C2C31050   6.611  12.326  20.589  0.0630 -0.5072  0.1332
 1294BOLB   C3C31051   7.087  12.364  20.545 -0.3030 -0.3738 -0.1752
 1294BOLB   C4C31052   7.285  12.591  20.221  0.0735 -0.0585  0.0414
 1294BOLB   C1D31053   6.379  12.799  20.676 -0.2909 -0.1937  0.1098
 1294BOLB   C2D31054   6.419  12.719  20.143 -0.0588 -0.0349 -0.0366
 1294BOLB   C3D31055   6.419  12.963  19.822 -0.1185 -0.3256  0.0767
 1294BOLB   C4D31056   6.741  13.171  19.568 -0.2047  0.1655  0.1538
 1295BOLB   NC131057  23.566   7.455  16.435 -0.0865 -0.1442 -0.0532
 1295BOLB   PO131058  23.815   7.803  16.719  0.0888  0.1674 -0.1896
 1295BOLB   GL131059  24.153   7.742  16.995  0.2978  0.0585  0.1752
 1295BOLB   GL231060  24.118   7.407  17.166  0.1238 -0.3430  0.1557
 1295BOLB   C1A31061  24.498   7.699  17.192 -0.0930  0.0965  0.0377
 1295BOLB   C2A31062  24.941   7.643  17.355 -0.1235 -0.1622  0.1359
 1295BOLB   C3A31063  25.251   7.325  17.518  0.0925 -0.1619  0.1838
 1295BOLB   C4A31064  25.653   7.160  17.726 -0.2120  0.1361 -0.1331
 1295BOLB   C1B31065  24.401   7.178  17.426  0.1201  0.1550 -0.2730
 1295BOLB   C2B31066  24.790   7.084  17.570  0.0511 -0.1719 -0.1211
 1295BOLB   C3B31067  25.248   6.834  17.743 -0.0506 -0.2703 -0.3551
 1295BOLB   C4B31068  25.643   6.672  17.816 -0.0612  0.3503 -0.2613
 1295BOLB   NC231069  28.243   6.452  17.979 -0.0821 -0.0332 -0.1290
 1295BOLB   PO231070  27.887   6.570  18.267  0.1106 -0.0029  0.1922
 1295BOLB   GL331071  27.545   6.778  18.278 -0.1906  0.0153  0.0364
 1295BOLB   GL431072  27.294   6.642  18.085  0.2936 -0.0324  0.0479
 1295BOLB   C1C31073  27.158   7.006  18.406  0.1203 -0.0650  0.0265
 1295BOLB   C2C31074  26.759   7.213  18.358 -0.0322 -0.2652 -0.2560
 1295BOLB   C3C31075  26.422   7.054  18.147  0.1877  0.0431  0.1596
 1295BOLB   C4C31076  25.996   6.979  17.888  0.1619 -0.4800 -0.2024
 1295BOLB   C1D31077  26.779   6.665  18.126  0.0783 -0.0293 -0.0249
 1295BOLB   C2D31078  26.529   6.763  17.763  0.3244 -0.0702  0.3446
 1295BOLB   C3D31079  26.596   7.213  17.592 -0.2555 -0.0404 -0.0445
 1295BOLB   C4D31080  26.997   7.444  17.493  0.0062 -0.1698  0.1604
 1296BOLB   NC131081  21.623   4.848  13.899  0.0845  0.1750  0.0472
 1296BOLB   PO131082  22.051   4.973  14.077  0.2552  0.1721  0.1191
 1296BOLB   GL131083  22.374   4.632  14.083  0.3951  0.1044  0.0970
 1296BOLB   GL231084  22.319   4.387  13.831 -0.1233  0.0329 -0.0371
 1296BOLB   C1A31085  22.745   4.376  14.246  0.1227 -0.0507 -0.0523
 1296BOLB   C2A31086  22.928   4.026  14.030 -0.0979 -0.2094 -0.0384
 1296BOLB   C3A31087  23.298   3.802  14.135 -0.0754  0.1831 -0.0861
 1296BOLB   C4A31088  23.640   3.512  14.131  0.0966  0.1306  0.0940
 1296BOLB   C1B31089  22.710   4.311  13.713 -0.3390  0.0258 -0.1516
 1296BOLB   C2B31090  23.014   4.092  13.594  0.0912  0.3073  0.3531
 1296BOLB   C3B31091  23.395   4.092  13.657  0.1580  0.0555  0.0973
 1296BOLB   C4B31092  23.716   4.099  13.368 -0.0487 -0.2780  0.2464
 1296BOLB   NC231093  25.999   2.960  13.862 -0.0574 -0.0554  0.1126
 1296BOLB   PO231094  25.812   3.086  13.374  0.1443  0.0757  0.2182
 1296BOLB   GL331095  25.460   3.244  13.237 -0.0541 -0.1307  0.1240
 1296BOLB   GL431096  25.405   3.476  13.063 -0.0606  0.0552  0.1833
 1296BOLB   C1C31097  25.055   3.153  13.486  0.2564 -0.1482  0.0714
 1296BOLB   C2C31098  24.766   3.128  13.820  0.0594 -0.0525 -0.1946
 1296BOLB   C3C31099  24.417   3.232  14.066  0.0801 -0.1672 -0.2138
 1296BOLB   C4C31100  24.075   3.326  14.155  0.0020 -0.1261  0.1590
 1296BOLB   C1D31101  24.954   3.318  12.992  0.0453 -0.0033  0.1104
 1296BOLB   C2D31102  24.686   3.618  12.862 -0.2734  0.0732 -0.0473
 1296BOLB   C3D31103  24.471   3.991  13.053  0.1921 -0.0944 -0.3634
 1296BOLB   C4D31104  24.260   3.996  13.405 -0.1545 -0.1832  0.2164
 1297BOLB   NC131105  18.980  18.223   6.399  0.0656 -0.0120 -0.0499
 1297BOLB   PO131106  18.867  17.996   6.066  0.0295  0.1048  0.1692
 1297BOLB   GL131107  18.859  17.664   6.377  0.0126  0.0589  0.1627
 1297BOLB   GL231108  19.159  17.759   6.499  0.0254  0.0854 -0.0716
 1297BOLB   C1A31109  18.697  17.580   6.822 -0.0658 -0.1405  0.0126
 1297BOLB   C2A31110  18.673  17.357   7.180 -0.1064  0.0314  0.1458
 1297BOLB   C3A31111  18.490  17.310   7.552  0.1304  0.3483 -0.0677
 1297BOLB   C4A31112  18.130  17.338   7.749  0.4121  0.2008 -0.0082
 1297BOLB   C1B31113  19.190  17.390   6.783 -0.0468  0.2074  0.2255
 1297BOLB   C2B31114  19.103  17.093   7.204 -0.0736 -0.0269 -0.0532
 1297BOLB   C3B31115  18.804  16.917   7.566 -0.1074  0.0654 -0.1256
 1297BOLB   C4B31116  18.400  16.923   7.851 -0.1016 -0.1034  0.0726
 1297BOLB   NC231117  16.680  19.554   7.819 -0.0761  0.0861 -0.1677
 1297BOLB   PO231118  16.933  19.252   7.574 -0.4283  0.1886  0.0932
 1297BOLB   GL331119  17.129  19.213   7.855 -0.3045  0.1990  0.3724
 1297BOLB   GL431120  17.048  19.298   8.166 -0.4196 -0.0901  0.0225
 1297BOLB   C1C31121  17.265  18.828   8.103  0.1585  0.3853  0.1961
 1297BOLB   C2C31122  17.415  18.446   8.098 -0.0066 -0.4129  0.1924
 1297BOLB   C3C31123  17.752  18.145   7.882  0.4097  0.2266 -0.1557
 1297BOLB   C4C31124  17.994  17.758   7.859  0.1937  0.1354  0.2117
 1297BOLB   C1D31125  16.920  19.073   8.342 -0.0962  0.2178 -0.1243
 1297BOLB   C2D31126  16.918  18.687   8.438  0.0017  0.1973 -0.1367
 1297BOLB   C3D31127  16.756  18.301   8.609  0.0052  0.3176 -0.2735
 1297BOLB   C4D31128  16.590  17.918   8.696 -0.2678 -0.1053 -0.1829
 1298BOLB   NC131129   9.613  32.213   9.955 -0.2094 -0.3531 -0.2849
 1298BOLB   PO131130   9.580  32.548   9.569 -0.0874  0.0411  0.1485
 1298BOLB   GL131131   9.604  32.846   9.810  0.0356 -0.0201 -0.1876
 1298BOLB   GL231132   9.381  33.051   9.975 -0.1629 -0.2691 -0.2808
 1298BOLB   C1A31133   9.746  33.227   9.748 -0.1978 -0.2373  0.0163
 1298BOLB   C2A31134   9.827  33.503   9.472 -0.1170  0.2337 -0.1814
 1298BOLB   C3A31135   9.971  33.901   9.673 -0.2718  0.3431  0.0997
 1298BOLB   C4A31136  10.000  34.271   9.856 -0.3422 -0.1090  0.0892
 1298BOLB   C1B31137   9.744  33.193  10.263  0.1089  0.0141  0.0767
 1298BOLB   C2B31138   9.924  32.960  10.634  0.2799 -0.1448  0.1316
 1298BOLB   C3B31139  10.232  33.038  11.042 -0.1451 -0.0418 -0.0535
 1298BOLB   C4B31140  10.495  33.357  11.248  0.1858  0.2453 -0.2648
 1298BOLB   NC231141   8.512  33.819   9.623 -0.1994  0.0031  0.0089
 1298BOLB   PO231142   8.775  33.776   9.924  0.0419 -0.0979 -0.3238
 1298BOLB   GL331143   8.848  34.056  10.157 -0.2368 -0.1994 -0.1520
 1298BOLB   GL431144   8.624  34.266  10.037 -0.0573  0.0897 -0.0087
 1298BOLB   C1C31145   9.004  34.294  10.431  0.0853  0.5100  0.1124
 1298BOLB   C2C31146   9.163  34.612  10.548  0.0522 -0.1702  0.4785
 1298BOLB   C3C31147   9.594  34.783  10.370 -0.0461 -0.0890 -0.0754
 1298BOLB   C4C31148   9.903  34.614  10.043 -0.2689  0.3343  0.2835
 1298BOLB   C1D31149   8.744  34.692  10.156  0.5762  0.0133 -0.0229
 1298BOLB   C2D31150   8.479  34.997  10.296 -0.0585  0.0139  0.0699
 1298BOLB   C3D31151   8.309  35.413  10.156  0.0362  0.2736  0.2004
 1298BOLB   C4D31152   8.557  35.704  10.114  0.0058  0.2448 -0.0975
 1299BOLB   NC131153  16.330  10.670   2.411  0.0785  0.1488 -0.1397
 1299BOLB   PO131154  16.045  10.583   2.717  0.0983  0.1655  0.4118
 1299BOLB   GL131155  15.859  10.444   3.102 -0.2654  0.1937 -0.0292
 1299BOLB   GL231156  15.772  10.555   3.477 -0.0421  0.0697 -0.3387
 1299BOLB   C1A31157  15.528  10.172   3.287 -0.1634 -0.3320 -0.3348
 1299BOLB   C2A31158  15.272  10.200   3.635  0.3564  0.0919 -0.2354
 1299BOLB   C3A31159  14.914  10.259   3.813 -0.1109 -0.3119  0.3324
 1299BOLB   C4A31160  14.522  10.449   4.019 -0.2325  0.1034 -0.3775
 1299BOLB   C1B31161  16.164  10.327   3.445 -0.2425 -0.0113  0.0579
 1299BOLB   C2B31162  16.265  10.108   3.865 -0.0333 -0.2583  0.1166
 1299BOLB   C3B31163  16.463   9.835   4.171 -0.0482  0.2381  0.0825
 1299BOLB   C4B31164  16.873   9.934   4.427  0.0733  0.0161 -0.0706
 1299BOLB   NC231165  14.606  10.154   1.756  0.0404  0.2835 -0.1015
 1299BOLB   PO231166  14.108  10.352   1.718  0.2682 -0.1334  0.0305
 1299BOLB   GL331167  13.884  10.136   2.078  0.3112 -0.1922  0.1471
 1299BOLB   GL431168  13.563  10.077   2.129  0.0858 -0.1429 -0.1184
 1299BOLB   C1C31169  13.938   9.868   2.535  0.0440 -0.1196 -0.1285
 1299BOLB   C2C31170  13.819   9.969   2.964 -0.0836 -0.1972  0.2753
 1299BOLB   C3C31171  13.892  10.170   3.389 -0.1380 -0.0926  0.0965
 1299BOLB   C4C31172  14.075  10.331   3.770 -0.0020 -0.1998  0.0146
 1299BOLB   C1D31173  13.398   9.935   2.420 -0.0344  0.0227 -0.2226
 1299BOLB   C2D31174  12.986   9.811   2.484 -0.1137 -0.0986  0.1476
 1299BOLB   C3D31175  12.666  10.096   2.406  0.0561 -0.0938 -0.0086
 1299BOLB   C4D31176  12.392  10.525   2.465  0.1719  0.1944 -0.0178
 1300BOLB   NC131177  24.180  13.410  17.754 -0.1515 -0.1548  0.0248
 1300BOLB   PO131178  24.074  12.917  17.686 -0.1584  0.3578 -0.2880
 1300BOLB   GL131179  24.449  12.939  17.922 -0.1042 -0.0182  0.0273
 1300BOLB   GL231180  24.346  13.026  18.264  0.0240 -0.1962 -0.3347
 1300BOLB   C1A31181  24.828  13.314  17.992  0.4646  0.0014 -0.0701
 1300BOLB   C2A31182  24.878  13.763  18.267 -0.2619 -0.1107  0.1645
 1300BOLB   C3A31183  25.197  13.954  18.624 -0.2077  0.1559  0.0020
 1300BOLB   C4A31184  25.275  14.239  18.913 -0.3253  0.2614  0.2299
 1300BOLB   C1B31185  24.558  12.739  18.630  0.0864 -0.1618  0.0131
 1300BOLB   C2B31186  24.934  12.518  18.700  0.2482  0.1969 -0.2365
 1300BOLB   C3B31187  25.242  12.177  18.731  0.1260  0.1088  0.4344
 1300BOLB   C4B31188  25.277  11.884  18.346 -0.0195 -0.1603  0.0242
 1300BOLB   NC231189  27.509  14.902  19.661 -0.2542  0.2083 -0.2922
 1300BOLB   PO231190  27.405  14.703  19.116 -0.0675 -0.1508  0.1620
 1300BOLB   GL331191  27.162  14.543  18.937  0.1254  0.0279 -0.2940
 1300BOLB   GL431192  27.133  14.408  18.638  0.2074 -0.0516 -0.0667
 1300BOLB   C1C31193  26.921  14.196  19.055 -0.0661 -0.0314 -0.1632
 1300BOLB   C2C31194  26.562  14.193  18.944  0.1552 -0.1054  0.3296
 1300BOLB   C3C31195  26.126  14.146  19.015 -0.3578  0.1280  0.1772
 1300BOLB   C4C31196  25.731  14.313  18.820  0.2284  0.0163  0.1873
 1300BOLB   C1D31197  26.748  14.495  18.511  0.1498 -0.0622  0.1230
 1300BOLB   C2D31198  26.262  14.599  18.653  0.0280 -0.1893 -0.3564
 1300BOLB   C3D31199  25.978  14.747  18.608 -0.1389  0.1265 -0.4050
 1300BOLB   C4D31200  25.558  14.709  18.665 -0.1331  0.0790 -0.1733
 1301BOLB   NC131201  17.160  18.009  18.874 -0.2645 -0.2788  0.4004
 1301BOLB   PO131202  17.336  17.903  19.225  0.3134 -0.0820 -0.0727
 1301BOLB   GL131203  17.516  18.326  19.542  0.3898 -0.3322  0.0989
 1301BOLB   GL231204  17.514  18.589  19.391 -0.0388 -0.2415  0.1467
 1301BOLB   C1A31205  17.558  18.562  19.930 -0.0880 -0.0533 -0.0908
 1301BOLB   C2A31206  17.679  18.763  20.215 -0.2775  0.0524 -0.0877
 1301BOLB   C3A31207  18.104  18.920  20.290  0.3663  0.1190  0.0441
 1301BOLB   C4A31208  18.292  19.399  20.355  0.1446 -0.1338 -0.5536
 1301BOLB   C1B31209  17.536  19.022  19.511  0.1151  0.0165 -0.0655
 1301BOLB   C2B31210  17.703  19.540  19.670 -0.2391 -0.0911  0.1201
 1301BOLB   C3B31211  17.998  19.854  19.724 -0.0766 -0.0664 -0.0019
 1301BOLB   C4B31212  18.078  20.220  19.926 -0.1221 -0.1741 -0.1527
 1301BOLB   NC231213  18.177  21.937  20.989  0.0129 -0.2630 -0.3820
 1301BOLB   PO231214  18.557  21.863  20.833 -0.4289 -0.0568 -0.0101
 1301BOLB   GL331215  18.399  21.421  20.756 -0.1632  0.0888  0.0672
 1301BOLB   GL431216  18.609  21.315  20.551  0.0812  0.2743 -0.1027
 1301BOLB   C1C31217  18.277  20.985  20.697 -0.1556 -0.1645 -0.0324
 1301BOLB   C2C31218  18.029  20.672  20.511  0.0320  0.0129  0.2876
 1301BOLB   C3C31219  18.135  20.344  20.391 -0.1241  0.3680 -0.1022
 1301BOLB   C4C31220  18.227  19.875  20.264  0.0231 -0.0615 -0.1296
 1301BOLB   C1D31221  18.211  21.361  20.224  0.2476 -0.0049 -0.1959
 1301BOLB   C2D31222  18.019  20.977  20.101 -0.0800  0.0799 -0.1699
 1301BOLB   C3D31223  17.694  20.580  20.140  0.1580  0.3007  0.0393
 1301BOLB   C4D31224  17.330  20.354  19.992  0.2385 -0.3638 -0.2805
 1302BOLB   NC131225  16.202  13.063  22.988 -0.0972  0.0350 -0.0274
 1302BOLB   PO131226  15.760  13.044  23.381 -0.1148  0.1223 -0.2404
 1302BOLB   GL131227  15.746  13.000  23.845 -0.1863 -0.1350  0.1803
 1302BOLB   GL231228  15.508  13.271  23.937  0.2464 -0.1885 -0.1296
 1302BOLB   C1A31229  15.509  12.681  24.093 -0.1081  0.1950  0.1844
 1302BOLB   C2A31230  15.252  12.570  24.399 -0.1961  0.0068  0.3827
 1302BOLB   C3A31231  15.216  12.505  24.882  0.1737  0.1246  0.0714
 1302BOLB   C4A31232  15.229  12.530  25.269  0.0889  0.2422  0.1189
 1302BOLB   C1B31233  15.300  13.174  24.327  0.1136  0.0023  0.2572
 1302BOLB   C2B31234  15.295  12.996  24.702  0.3184  0.0015  0.0336
 1302BOLB   C3B31235  15.014  13.058  25.049 -0.1942 -0.0439  0.0385
 1302BOLB   C4B31236  14.761  13.127  25.398 -0.1438 -0.3585  0.0840
 1302BOLB   NC231237  14.961  12.597  27.782 -0.2917  0.1817  0.1423
 1302BOLB   PO231238  14.974  12.884  27.471  0.0957  0.1440 -0.0315
 1302BOLB   GL331239  14.918  12.805  27.058  0.2127  0.0918  0.0376
 1302BOLB   GL431240  15.195  13.007  27.033 -0.1045  0.4621 -0.2474
 1302BOLB   C1C31241  14.909  12.901  26.581  0.1493 -0.0153  0.1946
 1302BOLB   C2C31242  14.847  13.092  26.296  0.2808  0.0200  0.3666
 1302BOLB   C3C31243  14.861  12.990  25.885  0.0096 -0.2166  0.0362
 1302BOLB   C4C31244  15.111  12.805  25.542  0.0803 -0.0611  0.0124
 1302BOLB   C1D31245  15.340  13.143  26.581  0.1562 -0.0857  0.1209
 1302BOLB   C2D31246  15.345  13.218  26.232 -0.1603  0.1114 -0.0320
 1302BOLB   C3D31247  15.364  13.118  25.928 -0.2784 -0.3962 -0.0878
 1302BOLB   C4D31248  15.603  12.836  25.776 -0.0746 -0.1685 -0.0068
 1303BOLB   NC131249  10.424  14.891  15.250  0.2507 -0.0114 -0.2875
 1303BOLB   PO131250  10.095  15.191  15.235 -0.0279  0.0936 -0.1511
 1303BOLB   GL131251   9.796  15.354  14.854  0.0673  0.0308 -0.1565
 1303BOLB   GL231252   9.775  15.679  14.927 -0.1023 -0.0333  0.2036
 1303BOLB   C1A31253   9.446  15.559  14.566  0.1033 -0.1713 -0.1871
 1303BOLB   C2A31254   8.991  15.619  14.583 -0.0064 -0.0586 -0.1170
 1303BOLB   C3A31255   8.557  15.609  14.495  0.0440  0.1150 -0.2986
 1303BOLB   C4A31256   8.174  15.604  14.705 -0.0964  0.1478 -0.1121
 1303BOLB   C1B31257   9.358  16.034  14.768  0.2550  0.1018  0.0464
 1303BOLB   C2B31258   9.036  16.350  14.982 -0.1313 -0.2467  0.1317
 1303BOLB   C3B31259   8.824  16.675  14.856  0.0566 -0.0160 -0.0078
 1303BOLB   C4B31260   8.453  16.682  14.639 -0.2751  0.3168  0.2090
 1303BOLB   NC231261   6.203  16.723  13.696  0.1643  0.0254 -0.0775
 1303BOLB   PO231262   6.296  16.726  14.087  0.0821  0.0767  0.3344
 1303BOLB   GL331263   6.367  16.376  14.056  0.0545 -0.2946  0.1082
 1303BOLB   GL431264   6.489  16.203  13.816 -0.0783 -0.2415 -0.2290
 1303BOLB   C1C31265   6.702  16.160  14.265  0.3303 -0.3141  0.3394
 1303BOLB   C2C31266   6.998  15.797  14.605 -0.2244 -0.0139  0.1266
 1303BOLB   C3C31267   7.397  15.861  14.740 -0.0446  0.2688 -0.0930
 1303BOLB   C4C31268   7.760  15.789  14.574 -0.0321  0.0262 -0.0342
 1303BOLB   C1D31269   6.706  15.796  13.799 -0.0109 -0.0366  0.2479
 1303BOLB   C2D31270   6.989  15.610  14.054 -0.2541 -0.1260 -0.1644
 1303BOLB   C3D31271   7.293  15.968  14.283 -0.3106 -0.2573  0.2396
 1303BOLB   C4D31272   7.696  16.231  14.329  0.0719  0.0211  0.0905
 1304BOLB   NC131273  17.540  17.859  14.203 -0.1771  0.1549  0.0774
 1304BOLB   PO131274  17.233  18.226  14.128 -0.3153  0.1869 -0.4766
 1304BOLB   GL131275  17.341  18.594  14.261 -0.3685 -0.1351 -0.2243
 1304BOLB   GL231276  17.550  18.701  13.975  0.3079 -0.1605  0.1616
 1304BOLB   C1A31277  17.591  18.983  14.369  0.2714 -0.2809 -0.2015
 1304BOLB   C2A31278  17.626  19.346  14.259 -0.3002  0.1145 -0.1117
 1304BOLB   C3A31279  17.475  19.682  14.185  0.1074 -0.4272 -0.1979
 1304BOLB   C4A31280  17.396  20.044  14.043 -0.0099  0.0003 -0.0537
 1304BOLB   C1B31281  17.401  18.973  13.727 -0.0595  0.0913  0.1557
 1304BOLB   C2B31282  16.947  19.072  13.578 -0.1256  0.1573 -0.2623
 1304BOLB   C3B31283  16.756  19.406  13.757  0.4860  0.3128  0.1412
 1304BOLB   C4B31284  16.491  19.608  14.084 -0.2300  0.1177 -0.1296
 1304BOLB   NC231285  18.120  21.862  12.251  0.2031 -0.1629 -0.1073
 1304BOLB   PO231286  18.237  21.974  12.707  0.1410  0.0654  0.1001
 1304BOLB   GL331287  18.274  21.619  12.882 -0.0626  0.1096  0.0948
 1304BOLB   GL431288  18.535  21.506  13.095 -0.1681  0.1799 -0.1898
 1304BOLB   C1C31289  18.097  21.302  13.066  0.1959 -0.4441 -0.0859
 1304BOLB   C2C31290  17.812  20.995  13.313 -0.0011 -0.1361 -0.0187
 1304BOLB   C3C31291  17.645  20.711  13.634 -0.1093 -0.1525 -0.1317
 1304BOLB   C4C31292  17.620  20.389  13.895 -0.0158 -0.0664  0.0551
 1304BOLB   C1D31293  18.520  21.152  13.269 -0.2470 -0.0472 -0.1216
 1304BOLB   C2D31294  18.345  20.727  13.255  0.3154  0.2013  0.1076
 1304BOLB   C3D31295  17.990  20.444  13.105  0.1974  0.3490  0.3351
 1304BOLB   C4D31296  17.874  20.130  12.951 -0.0590 -0.1355 -0.3614
 1305BOLB   NC131297  20.546   7.188  21.874 -0.1819 -0.1122 -0.0315
 1305BOLB   PO131298  20.309   6.841  21.773  0.1034  0.1988 -0.1526
 1305BOLB   GL131299  20.265   6.603  22.115 -0.1392 -0.0421 -0.3740
 1305BOLB   GL231300  19.913   6.667  22.221 -0.1223 -0.1084 -0.1854
 1305BOLB   C1A31301  20.454   6.240  22.298 -0.4585 -0.0874 -0.1601
 1305BOLB   C2A31302  20.587   6.033  22.445  0.0312 -0.2034  0.0329
 1305BOLB   C3A31303  20.617   5.776  22.740  0.0976 -0.0323  0.1323
 1305BOLB   C4A31304  20.937   5.745  22.983  0.0348  0.1743  0.0602
 1305BOLB   C1B31305  20.077   6.434  22.566  0.3423  0.2257 -0.1085
 1305BOLB   C2B31306  20.224   6.133  22.821  0.0843  0.2540  0.2924
 1305BOLB   C3B31307  20.475   6.153  23.105 -0.1005 -0.2718  0.1231
 1305BOLB   C4B31308  20.843   6.159  23.474  0.2677  0.0381  0.1504
 1305BOLB   NC231309  22.701   5.061  24.553  0.0995  0.3403 -0.1800
 1305BOLB   PO231310  22.827   4.706  24.420 -0.0089 -0.0555 -0.0830
 1305BOLB   GL331311  22.572   4.936  24.101 -0.0794  0.2676 -0.0260
 1305BOLB   GL431312  22.377   4.619  23.930  0.2822  0.2575  0.2269
 1305BOLB   C1C31313  22.217   5.266  23.991 -0.1380  0.0457 -0.2546
 1305BOLB   C2C31314  22.040   5.450  23.635  0.2174  0.2778 -0.1138
 1305BOLB   C3C31315  21.699   5.379  23.344  0.0032 -0.3246  0.1500
 1305BOLB   C4C31316  21.321   5.593  23.043 -0.2035  0.0340 -0.2798
 1305BOLB   C1D31317  22.338   4.965  23.633 -0.0321  0.1582  0.0258
 1305BOLB   C2D31318  22.076   5.030  23.285  0.0456 -0.0830 -0.0366
 1305BOLB   C3D31319  21.808   4.705  23.167  0.1946  0.3951 -0.1224
 1305BOLB   C4D31320  21.577   4.602  22.947 -0.0009  0.1347  0.1260
 1306BOLB   NC131321  20.834   8.259   9.894  0.2221 -0.3081 -0.3705
 1306BOLB   PO131322  21.158   8.605   9.760  0.0803  0.0188 -0.3442
 1306BOLB   GL131323  21.487   8.560   9.631 -0.2987 -0.0875  0.1721
 1306BOLB   GL231324  21.729   8.696   9.616 -0.6776 -0.0384 -0.0373
 1306BOLB   C1A31325  21.709   8.242   9.414 -0.3434  0.0707  0.2109
 1306BOLB   C2A31326  21.928   7.997   9.076 -0.2821  0.1638 -0.1852
 1306BOLB   C3A31327  22.106   8.147   8.756 -0.0858 -0.2782 -0.0175
 1306BOLB   C4A31328  22.426   8.308   8.462 -0.0529  0.1950 -0.2649
 1306BOLB   C1B31329  22.047   8.895   9.364 -0.0286  0.1153  0.0924
 1306BOLB   C2B31330  22.295   9.111   9.065 -0.1097 -0.2252 -0.0762
 1306BOLB   C3B31331  22.588   9.368   8.823 -0.0201  0.3219 -0.0758
 1306BOLB   C4B31332  22.784   9.674   8.835 -0.0805 -0.0063  0.0854
 1306BOLB   NC231333  23.631   7.074   7.039 -0.1633 -0.2182 -0.2537
 1306BOLB   PO231334  24.143   6.999   7.172  0.3533 -0.0680 -0.2983
 1306BOLB   GL331335  23.976   7.110   7.636 -0.0502 -0.0330 -0.2738
 1306BOLB   GL431336  23.815   6.897   7.829 -0.1136  0.0930 -0.0353
 1306BOLB   C1C31337  23.711   7.426   7.660 -0.3979  0.1173 -0.0568
 1306BOLB   C2C31338  23.356   7.628   7.918  0.0713 -0.2157 -0.1711
 1306BOLB   C3C31339  23.074   7.950   7.986  0.0843 -0.2452 -0.1927
 1306BOLB   C4C31340  22.760   8.313   8.083  0.1498  0.1147  0.2579
 1306BOLB   C1D31341  23.584   6.791   8.211 -0.1185  0.4680  0.0162
 1306BOLB   C2D31342  23.333   6.603   8.473 -0.2358 -0.1706  0.1027
 1306BOLB   C3D31343  22.946   6.424   8.714 -0.0168  0.2653  0.1218
 1306BOLB   C4D31344  22.660   6.164   8.953 -0.0734 -0.1439 -0.0696
 1307BOLB   NC131345  16.852  22.744  16.671 -0.0284 -0.0450 -0.0573
 1307BOLB   PO131346  16.976  22.568  16.309 -0.0659  0.1039 -0.0725
 1307BOLB   GL131347  16.796  22.207  16.391 -0.0440 -0.0003  0.0774
 1307BOLB   GL231348  16.924  22.235  16.670  0.2389 -0.1079  0.1164
 1307BOLB   C1A31349  16.680  21.775  16.164 -0.0154  0.0594 -0.0850
 1307BOLB   C2A31350  16.381  21.454  15.916  0.2281 -0.0720 -0.1808
 1307BOLB   C3A31351  16.099  21.210  15.851  0.2575  0.0499 -0.0387
 1307BOLB   C4A31352  15.747  21.024  15.556  0.0360 -0.2062  0.1990
 1307BOLB   C1B31353  16.915  21.748  16.592  0.1684  0.1155  0.0800
 1307BOLB   C2B31354  16.795  21.362  16.785 -0.1935 -0.0190 -0.1581
 1307BOLB   C3B31355  16.965  20.895  16.780  0.0629  0.1190 -0.0495
 1307BOLB   C4B31356  17.139  20.486  16.707 -0.0591  0.2148  0.3127
 1307BOLB   NC231357  15.587  22.940  15.234 -0.0140 -0.0084  0.1018
 1307BOLB   PO231358  15.447  22.822  14.807 -0.1987 -0.0210 -0.2428
 1307BOLB   GL331359  15.521  22.328  14.736  0.1106 -0.0930  0.1824
 1307BOLB   GL431360  15.816  22.158  14.832  0.0801  0.1743 -0.1478
 1307BOLB   C1C31361  15.353  21.906  14.775  0.2876 -0.0425 -0.0529
 1307BOLB   C2C31362  15.426  21.553  14.828 -0.2118  0.1140 -0.0464
 1307BOLB   C3C31363  15.304  21.233  15.127 -0.1570  0.0682  0.3799
 1307BOLB   C4C31364  15.328  21.015  15.425  0.2658 -0.1995 -0.1643
 1307BOLB   C1D31365  15.924  21.738  14.772  0.2244  0.1376  0.0920
 1307BOLB   C2D31366  15.836  21.309  14.560  0.0075  0.0476 -0.3178
 1307BOLB   C3D31367  15.780  20.935  14.329 -0.1763 -0.1170 -0.3374
 1307BOLB   C4D31368  15.479  20.616  14.363  0.3367 -0.2830  0.2293
 1308BOLB   NC131369  17.345  11.958  23.686 -0.0218 -0.3043  0.0653
 1308BOLB   PO131370  17.125  12.309  23.627  0.0184  0.0403  0.0686
 1308BOLB   GL131371  17.051  12.554  24.067 -0.0223 -0.1536 -0.0439
 1308BOLB   GL231372  17.004  12.917  24.060 -0.0650  0.1423 -0.0621
 1308BOLB   C1A31373  16.844  12.407  24.418 -0.0759 -0.2969  0.0252
 1308BOLB   C2A31374  16.528  12.507  24.810  0.1332 -0.1567  0.1280
 1308BOLB   C3A31375  16.407  12.679  25.152  0.3971  0.0182  0.3706
 1308BOLB   C4A31376  16.103  12.879  25.395  0.1964 -0.1178  0.0858
 1308BOLB   C1B31377  17.153  12.760  24.550  0.2335  0.2098  0.0863
 1308BOLB   C2B31378  17.305  13.034  24.843 -0.0756 -0.0760  0.0024
 1308BOLB   C3B31379  17.411  13.053  25.298 -0.1381 -0.1060 -0.0756
 1308BOLB   C4B31380  17.254  12.791  25.672  0.0174 -0.0883 -0.0928
 1308BOLB   NC231381  16.717  12.996  27.645 -0.1622  0.0650  0.1044
 1308BOLB   PO231382  16.380  12.882  27.792 -0.1002  0.0758 -0.0914
 1308BOLB   GL331383  16.359  12.865  27.297 -0.1339  0.2241  0.1458
 1308BOLB   GL431384  16.234  12.561  27.109 -0.0202 -0.0113  0.0883
 1308BOLB   C1C31385  16.188  13.145  27.024 -0.2717 -0.0753 -0.2696
 1308BOLB   C2C31386  15.899  13.209  26.626  0.2463  0.0492 -0.0141
 1308BOLB   C3C31387  15.814  13.107  26.228 -0.0802 -0.0609 -0.1404
 1308BOLB   C4C31388  15.985  13.152  25.798  0.1750 -0.2709 -0.1046
 1308BOLB   C1D31389  16.182  12.750  26.688 -0.1241  0.5254  0.1110
 1308BOLB   C2D31390  16.098  12.658  26.262 -0.3967  0.0343  0.4904
 1308BOLB   C3D31391  16.091  12.579  25.858  0.1735  0.0269  0.3263
 1308BOLB   C4D31392  15.782  12.460  25.493  0.1840  0.4155 -0.2734
 1309BOLB   NC131393   2.237  11.449   8.921  0.0445 -0.0928  0.1393
 1309BOLB   PO131394   1.872  11.550   9.115 -0.2273  0.0376  0.0683
 1309BOLB   GL131395   2.296  11.640   9.357  0.0710 -0.1010 -0.3426
 1309BOLB   GL231396   2.368  11.314   9.391 -0.3143 -0.0189 -0.0106
 1309BOLB   C1A31397   2.598  11.890   9.446 -0.0831  0.0764  0.2613
 1309BOLB   C2A31398   2.806  12.015   9.721  0.1594  0.1672  0.0488
 1309BOLB   C3A31399   2.864  12.048  10.140  0.0521 -0.1746 -0.0499
 1309BOLB   C4A31400   2.851  11.929  10.612 -0.1566  0.3966 -0.2812
 1309BOLB   C1B31401   2.674  11.473   9.780  0.1093 -0.1481 -0.0439
 1309BOLB   C2B31402   3.046  11.594  10.051  0.0101 -0.1269 -0.0170
 1309BOLB   C3B31403   3.244  11.817   9.841  0.1438 -0.0487 -0.0858
 1309BOLB   C4B31404   3.246  11.856   9.386 -0.0580  0.0986 -0.0273
 1309BOLB   NC231405   1.963  11.121  12.631  0.1800 -0.1521 -0.0830
 1309BOLB   PO231406   2.176  11.565  12.546 -0.1786  0.1999 -0.0994
 1309BOLB   GL331407   2.409  11.479  12.310  0.2225 -0.1260  0.0339
 1309BOLB   GL431408   2.405  11.056  12.273  0.0495 -0.2726 -0.1952
 1309BOLB   C1C31409   2.691  11.735  11.887  0.1584  0.1046  0.0050
 1309BOLB   C2C31410   3.082  11.860  11.592 -0.1410 -0.1897  0.1732
 1309BOLB   C3C31411   3.320  11.936  11.282  0.0714 -0.2184 -0.1647
 1309BOLB   C4C31412   3.232  11.957  10.921 -0.1688  0.0778 -0.1539
 1309BOLB   C1D31413   2.649  10.883  11.905  0.1636  0.1078 -0.0671
 1309BOLB   C2D31414   2.956  10.550  11.886  0.4980  0.0442 -0.0600
 1309BOLB   C3D31415   3.378  10.443  12.000 -0.0940 -0.0691  0.0486
 1309BOLB   C4D31416   3.528  10.651  12.244  0.0284 -0.2719  0.0797
 1310BOLB   NC131417  19.438  13.584  22.448  0.3956  0.0650  0.0450
 1310BOLB   PO131418  19.158  13.405  22.889  0.1272 -0.1017  0.0747
 1310BOLB   GL131419  19.403  13.579  23.255  0.0853 -0.1942 -0.0337
 1310BOLB   GL231420  19.217  13.855  23.214 -0.0438  0.3961 -0.3099
 1310BOLB   C1A31421  19.820  13.638  23.571 -0.0013 -0.2836  0.0687
 1310BOLB   C2A31422  20.305  13.644  23.626  0.1064  0.1705  0.4001
 1310BOLB   C3A31423  20.686  13.534  23.469 -0.0034 -0.3270 -0.3725
 1310BOLB   C4A31424  21.063  13.243  23.672  0.2843 -0.1048 -0.1871
 1310BOLB   C1B31425  19.286  13.886  23.639 -0.0781  0.0446 -0.1788
 1310BOLB   C2B31426  19.548  14.141  23.826 -0.1793 -0.1700 -0.1932
 1310BOLB   C3B31427  19.507  14.463  24.227  0.1005  0.0979  0.0270
 1310BOLB   C4B31428  19.686  14.779  24.285  0.1492  0.0802  0.5006
 1310BOLB   NC231429  22.712  13.657  25.931  0.0238 -0.1968  0.0669
 1310BOLB   PO231430  22.577  13.832  25.558  0.0492 -0.0012 -0.0864
 1310BOLB   GL331431  22.179  13.703  25.471 -0.0083  0.1860  0.0588
 1310BOLB   GL431432  21.960  13.903  25.378 -0.2112  0.0433 -0.2298
 1310BOLB   C1C31433  21.860  13.454  25.347  0.1140  0.0031 -0.1951
 1310BOLB   C2C31434  21.565  13.147  25.058 -0.1004 -0.1819 -0.3106
 1310BOLB   C3C31435  21.358  13.081  24.561  0.2276  0.4948 -0.0028
 1310BOLB   C4C31436  21.197  13.227  24.176  0.0738 -0.0417 -0.1356
 1310BOLB   C1D31437  21.503  13.748  25.605  0.1703 -0.0553 -0.2136
 1310BOLB   C2D31438  21.073  13.993  25.662  0.3041  0.0391  0.0447
 1310BOLB   C3D31439  20.729  13.759  25.747 -0.1565  0.1143  0.4353
 1310BOLB   C4D31440  20.240  13.651  25.787  0.2688 -0.0593 -0.1042
 1311BOLB   NC131441  16.828   3.001  19.746  0.1096 -0.5358 -0.0351
 1311BOLB   PO131442  16.537   2.990  20.052  0.0533  0.0928 -0.1137
 1311BOLB   GL131443  16.580   2.695  20.361  0.2126 -0.0996  0.2049
 1311BOLB   GL231444  16.647   2.936  20.597 -0.0389  0.1501  0.1076
 1311BOLB   C1A31445  16.628   2.458  20.705 -0.2218 -0.2494  0.0604
 1311BOLB   C2A31446  16.578   2.452  21.099 -0.1013 -0.0848  0.0661
 1311BOLB   C3A31447  16.440   2.156  21.449  0.0222  0.1766  0.0011
 1311BOLB   C4A31448  16.745   1.881  21.565  0.0023  0.0389 -0.4221
 1311BOLB   C1B31449  16.238   2.699  20.820 -0.0631  0.0550  0.0639
 1311BOLB   C2B31450  16.054   2.475  21.260 -0.1761  0.3795 -0.1195
 1311BOLB   C3B31451  15.958   2.262  21.573  0.0873  0.1405 -0.1604
 1311BOLB   C4B31452  15.658   1.991  21.563 -0.0506 -0.0187  0.2244
 1311BOLB   NC231453  16.816   0.401  23.152 -0.1525  0.2825  0.1414
 1311BOLB   PO231454  16.452   0.330  22.915  0.1478  0.0213 -0.1873
 1311BOLB   GL331455  16.368   0.609  22.556 -0.3178 -0.1633 -0.1381
 1311BOLB   GL431456  16.232   0.918  22.724  0.2015  0.0180  0.1391
 1311BOLB   C1C31457  16.552   0.680  22.156  0.2298 -0.0823 -0.1875
 1311BOLB   C2C31458  16.623   0.761  21.714 -0.1155 -0.1854 -0.0437
 1311BOLB   C3C31459  16.834   1.051  21.484  0.0990  0.2120 -0.3502
 1311BOLB   C4C31460  16.878   1.448  21.679  0.3977  0.0688  0.0914
 1311BOLB   C1D31461  16.233   1.060  22.297  0.1306 -0.2355 -0.0659
 1311BOLB   C2D31462  16.592   1.177  22.058  0.0795 -0.0468  0.0250
 1311BOLB   C3D31463  17.092   1.101  22.009  0.1724  0.2302  0.2718
 1311BOLB   C4D31464  17.495   1.188  22.079 -0.0875  0.0573 -0.4988
 1312BOLB   NC131465  19.593  16.146  12.463 -0.1906 -0.1551 -0.2630
 1312BOLB   PO131466  19.485  16.558  12.293 -0.1605 -0.0418  0.0351
 1312BOLB   GL131467  19.675  17.020  12.366 -0.1218 -0.0904  0.0446
 1312BOLB   GL231468  19.452  17.282  12.249 -0.0482  0.0151 -0.1530
 1312BOLB   C1A31469  19.922  17.410  12.208  0.0386 -0.0842 -0.1610
 1312BOLB   C2A31470  20.205  17.709  12.112 -0.0724 -0.0265  0.0613
 1312BOLB   C3A31471  20.269  18.000  11.759  0.1881  0.1060 -0.0775
 1312BOLB   C4A31472  20.162  18.354  11.473  0.0675  0.1539 -0.1151
 1312BOLB   C1B31473  19.610  17.481  11.841 -0.0580 -0.3066  0.2599
 1312BOLB   C2B31474  19.774  17.891  11.516  0.2046 -0.2053  0.3133
 1312BOLB   C3B31475  19.656  18.276  11.466 -0.1784 -0.0477 -0.0880
 1312BOLB   C4B31476  19.330  18.489  11.405  0.2352 -0.3888 -0.0220
 1312BOLB   NC231477  20.391  19.989   9.588 -0.1938  0.1289 -0.1125
 1312BOLB   PO231478  20.768  19.847   9.504  0.0223 -0.1469  0.1476
 1312BOLB   GL331479  20.573  19.459   9.666  0.2307 -0.1433 -0.4426
 1312BOLB   GL431480  20.749  19.197   9.656  0.1562  0.0939  0.1109
 1312BOLB   C1C31481  20.526  19.095  10.084 -0.1624  0.2614 -0.2478
 1312BOLB   C2C31482  20.350  18.945  10.537 -0.0034 -0.0964 -0.2547
 1312BOLB   C3C31483  20.146  18.617  10.827 -0.0970  0.0299 -0.0921
 1312BOLB   C4C31484  20.251  18.554  11.112 -0.2787 -0.1373  0.2521
 1312BOLB   C1D31485  20.680  18.718   9.690 -0.0007  0.0563  0.0441
 1312BOLB   C2D31486  20.844  18.319   9.893 -0.0498  0.0551  0.2700
 1312BOLB   C3D31487  20.980  17.824   9.778  0.0104 -0.0049  0.0141
 1312BOLB   C4D31488  21.230  17.447   9.689  0.0660  0.0235 -0.0183
 1313BOLB   NC131489  17.327   0.795  14.706 -0.1432  0.0509  0.4577
 1313BOLB   PO131490  16.860   0.740  14.652  0.1656  0.0082  0.0624
 1313BOLB   GL131491  17.033   0.297  14.679 -0.3429 -0.2229 -0.0796
 1313BOLB   GL231492  17.379   0.345  14.684 -0.0768  0.1166  0.0719
 1313BOLB   C1A31493  17.236  -0.145  14.838 -0.1160  0.2464 -0.0302
 1313BOLB   C2A31494  17.439  -0.487  14.794 -0.2693  0.4497  0.1371
 1313BOLB   C3A31495  17.775  -0.772  14.890 -0.1062 -0.1249 -0.1142
 1313BOLB   C4A31496  17.974  -1.062  14.806  0.0002 -0.2256  0.0282
 1313BOLB   C1B31497  17.447   0.032  14.407  0.0077 -0.0120  0.1453
 1313BOLB   C2B31498  17.180  -0.275  14.318  0.4354  0.3386  0.2199
 1313BOLB   C3B31499  17.007  -0.551  14.592 -0.4270 -0.0420 -0.3422
 1313BOLB   C4B31500  16.838  -0.892  14.946 -0.0711  0.2310 -0.2343
 1313BOLB   NC231501  20.136  -2.827  14.573  0.0860 -0.1392 -0.0053
 1313BOLB   PO231502  19.792  -2.530  14.739 -0.1617  0.1972  0.3034
 1313BOLB   GL331503  19.647  -2.084  14.702 -0.1490  0.0472 -0.0676
 1313BOLB   GL431504  19.307  -2.182  14.659 -0.3433 -0.3029  0.2992
 1313BOLB   C1C31505  19.524  -1.715  14.696 -0.2660 -0.2876 -0.1212
 1313BOLB   C2C31506  19.101  -1.581  14.753  0.3165 -0.2331 -0.0757
 1313BOLB   C3C31507  18.704  -1.484  14.563  0.1451  0.4705 -0.1539
 1313BOLB   C4C31508  18.237  -1.309  14.812  0.0378 -0.3021 -0.2018
 1313BOLB   C1D31509  19.209  -1.881  14.337 -0.0334 -0.0485  0.0372
 1313BOLB   C2D31510  19.171  -1.399  14.225 -0.0581 -0.1365 -0.0157
 1313BOLB   C3D31511  19.353  -0.963  14.178 -0.0864 -0.3590 -0.0705
 1313BOLB   C4D31512  19.171  -0.526  14.201 -0.1736  0.3430  0.1455
 1314BOLB   NC131513  15.864   2.971  19.055  0.1126  0.2000  0.0982
 1314BOLB   PO131514  15.593   3.007  19.455  0.2324 -0.1629 -0.0492
 1314BOLB   GL131515  15.632   2.650  19.728  0.4540 -0.1365 -0.0852
 1314BOLB   GL231516  15.838   2.371  19.775 -0.2134 -0.2831  0.1152
 1314BOLB   C1A31517  15.404   2.513  20.148 -0.0608 -0.0643 -0.2298
 1314BOLB   C2A31518  15.472   2.222  20.471  0.2466  0.1552 -0.0765
 1314BOLB   C3A31519  15.621   1.730  20.608 -0.1245  0.0967 -0.3105
 1314BOLB   C4A31520  15.831   1.489  20.832  0.2259  0.0448  0.0495
 1314BOLB   C1B31521  15.823   2.072  20.198  0.1905  0.0670 -0.1511
 1314BOLB   C2B31522  15.719   1.632  20.141 -0.1377 -0.0925  0.1386
 1314BOLB   C3B31523  15.883   1.227  20.350  0.2235  0.0199 -0.1844
 1314BOLB   C4B31524  15.911   0.979  20.608  0.0090 -0.0141  0.0311
 1314BOLB   NC231525  16.627   0.136  22.512  0.2582  0.1915  0.0409
 1314BOLB   PO231526  16.499  -0.302  22.536  0.0836  0.2588  0.0014
 1314BOLB   GL331527  16.390  -0.099  22.121 -0.2138  0.6919 -0.1930
 1314BOLB   GL431528  16.635  -0.195  21.845  0.0131  0.0954  0.0175
 1314BOLB   C1C31529  16.416   0.261  21.862  0.0079 -0.1376  0.3042
 1314BOLB   C2C31530  16.255   0.469  21.517  0.0263  0.2802  0.1698
 1314BOLB   C3C31531  16.283   0.806  21.324 -0.2361 -0.1571 -0.1038
 1314BOLB   C4C31532  16.113   1.186  21.068  0.0217 -0.3281  0.1214
 1314BOLB   C1D31533  16.829   0.201  21.616 -0.3681  0.4097 -0.1402
 1314BOLB   C2D31534  16.751   0.477  21.331 -0.1059 -0.0611 -0.0027
 1314BOLB   C3D31535  16.700   0.855  21.048  0.1655  0.2717  0.1026
 1314BOLB   C4D31536  16.630   1.224  21.012  0.3345 -0.1413 -0.2391
 1315BOLB   NC131537   9.327   8.208  19.309  0.2600  0.0611  0.1405
 1315BOLB   PO131538   9.085   7.864  19.345  0.1186 -0.2474 -0.2224
 1315BOLB   GL131539   8.784   7.739  19.667  0.1260  0.0087 -0.0590
 1315BOLB   GL231540   8.862   7.717  20.115  0.0392  0.0756 -0.0648
 1315BOLB   C1A31541   8.492   7.947  19.867 -0.1368  0.0514  0.0978
 1315BOLB   C2A31542   8.143   7.782  20.032  0.1111 -0.3622 -0.0695
 1315BOLB   C3A31543   7.654   7.922  20.186 -0.0235  0.2650  0.2377
 1315BOLB   C4A31544   7.568   8.146  20.569  0.0916 -0.2002  0.2914
 1315BOLB   C1B31545   8.873   7.695  20.602 -0.0582 -0.2778 -0.2827
 1315BOLB   C2B31546   8.662   7.633  20.986  0.1040  0.0113 -0.0596
 1315BOLB   C3B31547   8.504   7.252  21.200  0.1835 -0.2200 -0.0406
 1315BOLB   C4B31548   8.273   7.257  21.597  0.2549 -0.0649  0.0998
 1315BOLB   NC231549   5.357   8.448  21.863  0.1454  0.0256 -0.4294
 1315BOLB   PO231550   5.770   8.212  21.855  0.3516 -0.0615 -0.1179
 1315BOLB   GL331551   5.947   7.912  21.700  0.1552 -0.1059  0.2040
 1315BOLB   GL431552   5.841   7.829  21.368 -0.0606  0.1650  0.0194
 1315BOLB   C1C31553   6.326   7.749  21.499 -0.0753  0.0897  0.0261
 1315BOLB   C2C31554   6.647   7.815  21.190  0.1332  0.0780  0.5063
 1315BOLB   C3C31555   6.939   7.883  20.908  0.1274  0.2071  0.0931
 1315BOLB   C4C31556   7.256   7.994  20.648  0.2643  0.4057  0.1814
 1315BOLB   C1D31557   6.128   7.916  21.061  0.2362 -0.0092 -0.1327
 1315BOLB   C2D31558   6.138   7.714  20.621  0.1638  0.0783  0.0813
 1315BOLB   C3D31559   6.300   7.471  20.279  0.4495  0.2551  0.1642
 1315BOLB   C4D31560   6.213   7.055  20.248  0.3554  0.1247 -0.1859
 1316BOLB   NC131561  18.039   1.301  14.654 -0.2966  0.1108 -0.1193
 1316BOLB   PO131562  18.249   1.146  14.427  0.1488  0.0110  0.1184
 1316BOLB   GL131563  18.593   0.748  14.341 -0.0362 -0.2562 -0.1675
 1316BOLB   GL231564  18.918   0.763  14.213 -0.2082 -0.3036 -0.0971
 1316BOLB   C1A31565  18.623   0.369  14.480  0.1080  0.0660 -0.1801
 1316BOLB   C2A31566  18.860  -0.005  14.357 -0.0169  0.0101 -0.1239
 1316BOLB   C3A31567  18.696  -0.461  14.259 -0.1306 -0.0615  0.1397
 1316BOLB   C4A31568  18.438  -0.541  13.940 -0.1976 -0.2225 -0.1699
 1316BOLB   C1B31569  19.023   0.532  13.892 -0.1598  0.0882  0.2288
 1316BOLB   C2B31570  18.825   0.189  13.823  0.2203  0.3986 -0.1222
 1316BOLB   C3B31571  18.831  -0.236  13.846 -0.3693  0.1356 -0.0952
 1316BOLB   C4B31572  18.850  -0.674  13.619  0.0886 -0.0365  0.6856
 1316BOLB   NC231573  19.490  -2.309  12.600 -0.0008  0.0245 -0.0747
 1316BOLB   PO231574  19.218  -2.114  12.286 -0.2455 -0.0049 -0.2646
 1316BOLB   GL331575  18.861  -1.750  12.434  0.0823 -0.0459 -0.0852
 1316BOLB   GL431576  18.593  -1.898  12.372  0.0453 -0.1376  0.1096
 1316BOLB   C1C31577  18.579  -1.460  12.661 -0.0562  0.0182 -0.1685
 1316BOLB   C2C31578  18.599  -1.026  12.825  0.1757 -0.1065  0.1933
 1316BOLB   C3C31579  18.380  -0.816  13.183 -0.5702 -0.2926  0.1808
 1316BOLB   C4C31580  18.388  -0.497  13.570  0.1223 -0.2943 -0.1033
 1316BOLB   C1D31581  18.157  -1.701  12.562 -0.0200  0.2165 -0.2027
 1316BOLB   C2D31582  17.886  -1.348  12.513 -0.3029  0.4104  0.0075
 1316BOLB   C3D31583  17.676  -0.963  12.556 -0.1507 -0.3241  0.1843
 1316BOLB   C4D31584  17.308  -0.698  12.303 -0.1396 -0.2431 -0.1105
 1317BOLB   NC131585  10.092   9.911  20.683  0.0659 -0.0953 -0.0981
 1317BOLB   PO131586   9.898  10.402  20.545 -0.0054  0.0472  0.2732
 1317BOLB   GL131587   9.735  10.676  20.831  0.1819  0.1982  0.0915
 1317BOLB   GL231588   9.532  10.355  20.972 -0.0116  0.0500 -0.1150
 1317BOLB   C1A31589   9.585  10.933  21.165  0.3010  0.0447 -0.1138
 1317BOLB   C2A31590   9.269  10.959  21.514  0.2215  0.1764  0.2674
 1317BOLB   C3A31591   9.104  11.262  21.856 -0.3554  0.0053 -0.1383
 1317BOLB   C4A31592   8.936  11.512  22.180  0.1687 -0.3490  0.1191
 1317BOLB   C1B31593   9.192  10.129  21.181 -0.0676  0.1984 -0.1527
 1317BOLB   C2B31594   8.889  10.168  21.544 -0.2897 -0.2055 -0.1732
 1317BOLB   C3B31595   8.643   9.960  21.813 -0.1003 -0.1334  0.2327
 1317BOLB   C4B31596   8.773  10.300  22.255  0.0540  0.2026  0.3264
 1317BOLB   NC231597   7.568  12.910  23.875 -0.3008  0.1804  0.0019
 1317BOLB   PO231598   7.759  13.149  23.471 -0.4316  0.1787 -0.1813
 1317BOLB   GL331599   7.761  12.949  23.033  0.4934 -0.0919 -0.3334
 1317BOLB   GL431600   7.999  13.072  22.899  0.1315  0.1783 -0.2432
 1317BOLB   C1C31601   7.952  12.527  22.876  0.0600 -0.2389 -0.1854
 1317BOLB   C2C31602   8.198  12.381  22.659  0.1288 -0.1314  0.0850
 1317BOLB   C3C31603   8.572  12.293  22.442  0.1139  0.3123  0.0462
 1317BOLB   C4C31604   8.832  11.995  22.215 -0.1541  0.0713  0.1119
 1317BOLB   C1D31605   7.934  12.916  22.517 -0.0767 -0.1137  0.0244
 1317BOLB   C2D31606   8.208  12.772  22.342  0.0868 -0.0739 -0.1879
 1317BOLB   C3D31607   8.639  12.705  22.079  0.1439 -0.0105  0.0720
 1317BOLB   C4D31608   9.048  12.510  22.200 -0.1347  0.1158  0.0263
 1318BOLB   NC131609  14.179  18.274  17.453  0.0596 -0.3144  0.1025
 1318BOLB   PO131610  14.291  18.594  17.092 -0.3087 -0.3500  0.0824
 1318BOLB   GL131611  14.378  19.057  17.145 -0.2489  0.2443  0.1250
 1318BOLB   GL231612  14.023  19.067  17.415 -0.2260  0.3579  0.5982
 1318BOLB   C1A31613  14.385  19.417  17.496  0.0858 -0.0471 -0.1022
 1318BOLB   C2A31614  14.150  19.731  17.570  0.3277  0.2487  0.2699
 1318BOLB   C3A31615  14.113  20.091  17.803  0.2220  0.1389 -0.0968
 1318BOLB   C4A31616  14.142  20.409  17.964  0.0533  0.0361 -0.2593
 1318BOLB   C1B31617  13.785  19.436  17.497 -0.0748  0.3268 -0.0809
 1318BOLB   C2B31618  13.680  19.789  17.679  0.0111  0.0388 -0.2526
 1318BOLB   C3B31619  13.298  19.988  17.772 -0.0534  0.1958 -0.3910
 1318BOLB   C4B31620  12.979  20.303  17.683  0.6558 -0.5641  0.1925
 1318BOLB   NC231621  14.051  22.683  17.793 -0.0598 -0.0230 -0.0064
 1318BOLB   PO231622  14.050  22.742  18.202  0.1582 -0.1120  0.1915
 1318BOLB   GL331623  14.070  22.293  18.120 -0.2183 -0.0293  0.1737
 1318BOLB   GL431624  13.776  22.115  18.120  0.4262  0.1193  0.2065
 1318BOLB   C1C31625  14.152  21.859  18.048 -0.2670 -0.4452  0.2570
 1318BOLB   C2C31626  14.165  21.452  18.180 -0.2125  0.1082  0.0121
 1318BOLB   C3C31627  14.104  21.095  18.342  0.0642 -0.1928  0.0924
 1318BOLB   C4C31628  14.169  20.692  18.271 -0.2828  0.0927  0.2311
 1318BOLB   C1D31629  13.877  21.802  18.472  0.4902  0.1550 -0.0209
 1318BOLB   C2D31630  13.908  21.505  18.823  0.2457  0.2061 -0.0326
 1318BOLB   C3D31631  13.814  21.026  18.807 -0.1235  0.0304 -0.1683
 1318BOLB   C4D31632  13.730  20.822  18.476  0.3496 -0.1704 -0.0130
 1319BOLB   NC131633   6.302  33.124  14.377  0.2356 -0.0127  0.2085
 1319BOLB   PO131634   6.163  33.541  14.291 -0.0560 -0.2435  0.1430
 1319BOLB   GL131635   6.353  33.944  14.147 -0.3955 -0.0572 -0.4148
 1319BOLB   GL231636   6.437  33.943  13.874  0.2651 -0.2536 -0.0993
 1319BOLB   C1A31637   6.564  34.327  14.266 -0.0308  0.3899 -0.2221
 1319BOLB   C2A31638   6.668  34.654  14.696  0.1399  0.1151 -0.1352
 1319BOLB   C3A31639   6.557  34.825  15.049  0.1160  0.2011  0.3256
 1319BOLB   C4A31640   6.325  35.155  15.185  0.0019 -0.0401 -0.0341
 1319BOLB   C1B31641   6.460  34.320  13.726  0.1062  0.1594 -0.0942
 1319BOLB   C2B31642   6.592  34.279  13.211  0.0428  0.3017 -0.1638
 1319BOLB   C3B31643   6.761  34.384  12.787  0.1760 -0.1337 -0.1325
 1319BOLB   C4B31644   6.845  34.157  12.443  0.1269 -0.3021 -0.0517
 1319BOLB   NC231645   6.727  34.093  16.855  0.2670 -0.1339  0.2967
 1319BOLB   PO231646   6.939  33.923  16.638 -0.4697  0.0375  0.2461
 1319BOLB   GL331647   7.183  34.295  16.697 -0.1703 -0.1888  0.3026
 1319BOLB   GL431648   7.329  34.330  16.909  0.0435  0.0797 -0.2651
 1319BOLB   C1C31649   7.200  34.579  16.371 -0.1229 -0.0950 -0.0935
 1319BOLB   C2C31650   6.999  34.633  16.043 -0.0350  0.0227 -0.1328
 1319BOLB   C3C31651   6.617  34.816  15.815  0.1205  0.2525 -0.2051
 1319BOLB   C4C31652   6.386  35.132  15.619  0.0983  0.0072  0.1589
 1319BOLB   C1D31653   7.623  34.675  16.678  0.0450 -0.0069 -0.1241
 1319BOLB   C2D31654   7.703  35.020  16.402  0.0395 -0.1113 -0.1668
 1319BOLB   C3D31655   7.561  34.960  15.963  0.3117  0.2315  0.2215
 1319BOLB   C4D31656   7.828  34.817  15.517  0.0696 -0.0224 -0.0193
 1320BOLB   NC131657  21.146   4.680  12.348 -0.0585  0.1436  0.0361
 1320BOLB   PO131658  21.021   4.461  11.997 -0.0647 -0.0552  0.1328
 1320BOLB   GL131659  21.276   4.474  11.666  0.2766  0.0298  0.1463
 1320BOLB   GL231660  21.233   4.172  11.477  0.1408  0.1194  0.1087
 1320BOLB   C1A31661  21.690   4.333  11.737 -0.1513 -0.0973  0.0401
 1320BOLB   C2A31662  22.110   4.154  11.590  0.1913  0.3291  0.2029
 1320BOLB   C3A31663  22.432   4.168  11.672 -0.3065  0.0954 -0.0987
 1320BOLB   C4A31664  22.748   3.851  11.634  0.1688  0.0921  0.1764
 1320BOLB   C1B31665  21.678   4.102  11.244 -0.0707 -0.1250  0.0828
 1320BOLB   C2B31666  21.967   3.905  11.034 -0.0566  0.2636 -0.1283
 1320BOLB   C3B31667  22.333   3.611  10.914 -0.1108  0.1089  0.0142
 1320BOLB   C4B31668  22.816   3.539  10.710  0.0902  0.2806 -0.2387
 1320BOLB   NC231669  24.389   2.794  10.764  0.0161  0.4734  0.0856
 1320BOLB   PO231670  24.114   2.527  10.915 -0.5549 -0.6843 -0.1266
 1320BOLB   GL331671  23.730   2.408  10.964 -0.3249 -0.0699 -0.2988
 1320BOLB   GL431672  23.700   2.323  11.226  0.0404 -0.1092  0.0784
 1320BOLB   C1C31673  23.394   2.674  11.121 -0.0891  0.2094 -0.1735
 1320BOLB   C2C31674  23.406   3.047  11.358 -0.1158  0.1656 -0.0071
 1320BOLB   C3C31675  23.209   3.174  11.679  0.0800  0.0598  0.4241
 1320BOLB   C4C31676  23.015   3.514  11.640  0.0465  0.2005 -0.4998
 1320BOLB   C1D31677  23.720   2.619  11.751  0.0646 -0.1968 -0.2872
 1320BOLB   C2D31678  23.599   2.946  11.985  0.2156  0.0353 -0.1888
 1320BOLB   C3D31679  23.315   3.105  12.184 -0.1453  0.1466  0.0249
 1320BOLB   C4D31680  23.454   3.321  12.465 -0.1473 -0.2207  0.2962
 1321BOLB   NC131681  22.671  15.932  17.219  0.1679 -0.2132  0.1530
 1321BOLB   PO131682  23.022  16.025  17.282 -0.2567  0.3463 -0.3753
 1321BOLB   GL131683  23.374  16.122  17.045  0.1280  0.3023 -0.1175
 1321BOLB   GL231684  23.466  16.236  16.813 -0.3703 -0.0697 -0.0321
 1321BOLB   C1A31685  23.753  16.485  17.065  0.4281  0.0795 -0.2727
 1321BOLB   C2A31686  24.075  16.646  16.899 -0.2251  0.1893 -0.0008
 1321BOLB   C3A31687  24.456  16.854  16.678 -0.1265 -0.2360  0.0117
 1321BOLB   C4A31688  24.701  17.160  16.426  0.1742  0.1790  0.1046
 1321BOLB   C1B31689  23.727  16.405  16.498 -0.2770 -0.2072  0.1756
 1321BOLB   C2B31690  24.075  16.645  16.391  0.3883 -0.0432  0.3102
 1321BOLB   C3B31691  24.429  16.735  16.132 -0.1938 -0.1633 -0.1427
 1321BOLB   C4B31692  24.763  16.669  15.759  0.1816 -0.1430 -0.2675
 1321BOLB   NC231693  27.087  17.045  17.072  0.0150 -0.2446 -0.0282
 1321BOLB   PO231694  26.885  17.332  16.976 -0.2414  0.0125 -0.0015
 1321BOLB   GL331695  26.611  17.078  16.911 -0.0829 -0.0647 -0.0108
 1321BOLB   GL431696  26.617  17.074  16.636  0.3384  0.1061 -0.0955
 1321BOLB   C1C31697  26.215  17.043  16.987  0.0394  0.1343 -0.0618
 1321BOLB   C2C31698  25.792  16.941  16.969  0.0952  0.0459 -0.2199
 1321BOLB   C3C31699  25.482  16.900  16.547  0.0837 -0.1553  0.2367
 1321BOLB   C4C31700  25.038  17.061  16.549 -0.0499  0.0850  0.2956
 1321BOLB   C1D31701  26.597  16.675  16.490 -0.2397  0.1952 -0.2217
 1321BOLB   C2D31702  26.438  16.490  16.155 -0.1255 -0.2932  0.0607
 1321BOLB   C3D31703  25.989  16.460  15.985  0.0674  0.3373 -0.1668
 1321BOLB   C4D31704  25.594  16.511  16.202 -0.2653  0.1737  0.0938
 1322BOLB   NC131705  14.536  16.498  10.267 -0.2377 -0.2089 -0.1648
 1322BOLB   PO131706  14.213  16.309  10.561  0.0127  0.1687  0.1687
 1322BOLB   GL131707  14.001  16.649  10.294 -0.1982  0.0941 -0.1869
 1322BOLB   GL231708  14.220  16.738   9.953  0.3391 -0.0650 -0.1219
 1322BOLB   C1A31709  13.740  17.011  10.227 -0.3069  0.0149 -0.1023
 1322BOLB   C2A31710  13.541  17.370  10.446 -0.0486  0.0579  0.0179
 1322BOLB   C3A31711  13.413  17.728  10.356 -0.4783 -0.1103  0.2545
 1322BOLB   C4A31712  13.387  18.074  10.318 -0.1083 -0.0380 -0.0174
 1322BOLB   C1B31713  14.187  17.192   9.908  0.1048 -0.1485  0.7795
 1322BOLB   C2B31714  14.189  17.651  10.004  0.2060  0.5415  0.7451
 1322BOLB   C3B31715  14.370  18.097   9.919  0.0413  0.0794  0.0203
 1322BOLB   C4B31716  14.508  18.450   9.682 -0.0918  0.2792  0.3759
 1322BOLB   NC231717  11.838  20.372  10.325 -0.1570  0.0237  0.3983
 1322BOLB   PO231718  11.881  20.111   9.948  0.2810  0.2289 -0.3516
 1322BOLB   GL331719  12.034  19.649   9.952 -0.1042 -0.0635 -0.2704
 1322BOLB   GL431720  11.896  19.480  10.201  0.3784 -0.2170  0.0159
 1322BOLB   C1C31721  12.465  19.535  10.154  0.2004  0.0044 -0.3461
 1322BOLB   C2C31722  12.710  19.171  10.121 -0.1834 -0.0571  0.0221
 1322BOLB   C3C31723  12.908  18.762  10.188  0.0495 -0.2001 -0.0684
 1322BOLB   C4C31724  13.156  18.443  10.314  0.1761  0.1453  0.0436
 1322BOLB   C1D31725  11.965  19.440  10.534 -0.1831  0.0074 -0.0828
 1322BOLB   C2D31726  11.869  19.287  10.928  0.2931  0.2457 -0.0175
 1322BOLB   C3D31727  11.861  19.225  11.437  0.0561  0.2458 -0.1890
 1322BOLB   C4D31728  12.070  19.163  11.804 -0.1463  0.0317 -0.3057
 1323BOLB   NC131729  21.601   3.892  14.037  0.1294  0.0284  0.2332
 1323BOLB   PO131730  21.222   3.798  13.748  0.1531 -0.0534 -0.0464
 1323BOLB   GL131731  21.544   3.628  13.611  0.0258  0.0864  0.0981
 1323BOLB   GL231732  21.676   3.402  13.834 -0.0306 -0.0375 -0.0729
 1323BOLB   C1A31733  21.882   3.518  13.313 -0.1353 -0.0474  0.1187
 1323BOLB   C2A31734  22.281   3.238  13.269  0.0582 -0.0256 -0.0805
 1323BOLB   C3A31735  22.671   3.095  13.227  0.1595  0.1557  0.3904
 1323BOLB   C4A31736  22.967   2.663  13.188 -0.2359 -0.1269 -0.0168
 1323BOLB   C1B31737  21.834   3.182  13.686  0.1246 -0.0312 -0.1441
 1323BOLB   C2B31738  22.074   2.951  13.731 -0.0749  0.1939  0.0687
 1323BOLB   C3B31739  22.488   2.706  13.714 -0.0157  0.0655  0.1346
 1323BOLB   C4B31740  22.867   2.466  13.686  0.0511  0.0335  0.1219
 1323BOLB   NC231741  23.863   0.546  12.938 -0.0521 -0.0149 -0.3520
 1323BOLB   PO231742  23.631   0.403  13.328  0.3091 -0.0570 -0.0748
 1323BOLB   GL331743  23.473   0.772  13.249 -0.0688  0.2590 -0.0952
 1323BOLB   GL431744  23.669   1.067  13.471  0.2263 -0.0527  0.4684
 1323BOLB   C1C31745  23.286   0.999  12.999  0.0497 -0.1128 -0.1325
 1323BOLB   C2C31746  23.228   1.482  13.086  0.2041 -0.1173  0.0236
 1323BOLB   C3C31747  23.347   1.905  13.265  0.3140 -0.1213  0.3362
 1323BOLB   C4C31748  23.198   2.369  13.301  0.0620 -0.0928  0.0913
 1323BOLB   C1D31749  23.670   1.455  13.290  0.0343 -0.0443  0.1666
 1323BOLB   C2D31750  23.753   1.858  13.387 -0.0554 -0.0009  0.0231
 1323BOLB   C3D31751  23.677   2.284  13.467  0.0686 -0.2066  0.2574
 1323BOLB   C4D31752  23.757   2.669  13.239 -0.0149  0.2603 -0.0647
 1324BOLB   NC131753  22.222  15.005  18.911  0.0423 -0.0440 -0.0651
 1324BOLB   PO131754  21.994  15.328  19.150  0.1182 -0.3105 -0.2512
 1324BOLB   GL131755  22.136  15.569  19.547 -0.0007 -0.0776 -0.2012
 1324BOLB   GL231756  22.347  15.764  19.439 -0.2233 -0.1612 -0.4635
 1324BOLB   C1A31757  22.271  15.769  19.965  0.1218 -0.2368 -0.1342
 1324BOLB   C2A31758  22.679  15.897  20.040  0.1779 -0.2146  0.0579
 1324BOLB   C3A31759  22.969  16.152  20.127  0.1844 -0.0685  0.0851
 1324BOLB   C4A31760  23.278  16.399  20.496  0.0856 -0.2124 -0.0772
 1324BOLB   C1B31761  22.524  16.154  19.584 -0.3965 -0.2038  0.1275
 1324BOLB   C2B31762  22.723  16.531  19.862  0.2762  0.0833 -0.2046
 1324BOLB   C3B31763  23.121  16.617  20.069  0.0331 -0.2893  0.0215
 1324BOLB   C4B31764  23.418  16.873  20.051 -0.0009  0.0337 -0.2192
 1324BOLB   NC231765  25.171  17.494  22.107  0.1743  0.1877 -0.1190
 1324BOLB   PO231766  24.763  17.588  22.160 -0.2765  0.1710 -0.2500
 1324BOLB   GL331767  24.415  17.358  21.923 -0.0827  0.1739  0.1242
 1324BOLB   GL431768  24.411  17.130  22.186 -0.2031 -0.0409 -0.0813
 1324BOLB   C1C31769  24.373  17.103  21.590 -0.0281  0.1314  0.1603
 1324BOLB   C2C31770  24.016  16.825  21.371 -0.0096  0.0287  0.0980
 1324BOLB   C3C31771  23.700  16.659  21.003 -0.2399 -0.0936  0.0849
 1324BOLB   C4C31772  23.329  16.499  20.927 -0.2069 -0.0092  0.3049
 1324BOLB   C1D31773  24.073  16.969  21.921 -0.1223  0.0260  0.1085
 1324BOLB   C2D31774  23.727  16.989  21.757 -0.0588 -0.0959  0.2013
 1324BOLB   C3D31775  23.407  17.193  21.769 -0.3702  0.1473  0.2407
 1324BOLB   C4D31776  23.193  17.445  21.469 -0.1084  0.1356 -0.1838
 1325BOLB   NC131777  12.468   4.766  19.995 -0.1077  0.1153  0.0401
 1325BOLB   PO131778  12.500   4.417  20.211 -0.0096  0.2369  0.1386
 1325BOLB   GL131779  12.321   3.965  20.396  0.0509  0.1703  0.1272
 1325BOLB   GL231780  12.399   4.159  20.667 -0.0794  0.2353 -0.0144
 1325BOLB   C1A31781  12.267   3.542  20.482  0.3113  0.0416  0.1560
 1325BOLB   C2A31782  11.998   3.298  20.700 -0.0246  0.1409 -0.2317
 1325BOLB   C3A31783  11.701   3.027  20.792  0.1097 -0.0594  0.0458
 1325BOLB   C4A31784  11.702   2.818  21.027  0.2961 -0.0183  0.1768
 1325BOLB   C1B31785  12.454   3.893  21.097 -0.0058 -0.0445  0.0392
 1325BOLB   C2B31786  12.433   3.590  21.317 -0.0073  0.2197  0.0305
 1325BOLB   C3B31787  12.179   3.401  21.596 -0.0297 -0.1244 -0.5311
 1325BOLB   C4B31788  11.918   3.160  21.937  0.1077 -0.3236 -0.1406
 1325BOLB   NC231789  10.639   1.361  22.446  0.3203  0.1415  0.3770
 1325BOLB   PO231790  10.939   1.214  22.718  0.0358 -0.3145  0.0524
 1325BOLB   GL331791  11.270   1.371  22.335  0.0554  0.0893 -0.0446
 1325BOLB   GL431792  11.531   1.398  22.310  0.4325  0.1599  0.0130
 1325BOLB   C1C31793  11.120   1.569  21.906 -0.1430  0.3428  0.0072
 1325BOLB   C2C31794  11.284   1.844  21.609 -0.1922 -0.0101  0.1362
 1325BOLB   C3C31795  11.381   2.126  21.352  0.3381  0.0481  0.0767
 1325BOLB   C4C31796  11.652   2.452  21.162  0.1052  0.0541 -0.0236
 1325BOLB   C1D31797  11.550   1.824  22.011  0.1023  0.1784  0.0538
 1325BOLB   C2D31798  11.573   2.222  21.817 -0.1242  0.0378 -0.0684
 1325BOLB   C3D31799  11.207   2.615  21.709 -0.1333 -0.1347  0.4534
 1325BOLB   C4D31800  10.893   2.832  21.674  0.0478 -0.0522 -0.0310
 1326BOLB   NC131801  14.369  16.029  10.988  0.0661  0.0118 -0.0712
 1326BOLB   PO131802  14.565  16.308  10.930 -0.1177  0.1193  0.0877
 1326BOLB   GL131803  14.497  16.741  10.832  0.2294 -0.2614 -0.0827
 1326BOLB   GL231804  14.145  16.777  10.884 -0.1392 -0.0183 -0.0347
 1326BOLB   C1A31805  14.257  17.054  10.509  0.4525 -0.0417  0.0780
 1326BOLB   C2A31806  14.006  17.388  10.362  0.0981 -0.3066 -0.0007
 1326BOLB   C3A31807  13.895  17.856  10.379  0.1378 -0.1823 -0.1805
 1326BOLB   C4A31808  13.872  18.087  10.096 -0.0139 -0.1460 -0.1221
 1326BOLB   C1B31809  13.824  17.141  10.809  0.1508 -0.2201 -0.3502
 1326BOLB   C2B31810  13.660  17.577  10.888 -0.2950 -0.1166  0.5065
 1326BOLB   C3B31811  13.680  18.008  10.854 -0.1745 -0.2567 -0.2230
 1326BOLB   C4B31812  13.588  18.455  10.677  0.2337 -0.1431 -0.2168
 1326BOLB   NC231813  12.553  20.011   9.688 -0.0092 -0.2054  0.1160
 1326BOLB   PO231814  12.465  19.951   9.251  0.0574  0.0847  0.0153
 1326BOLB   GL331815  12.534  19.588   9.434 -0.0913 -0.0040  0.0357
 1326BOLB   GL431816  12.381  19.332   9.463  0.1798  0.0156 -0.3063
 1326BOLB   C1C31817  12.848  19.323   9.576  0.1932 -0.1816 -0.2355
 1326BOLB   C2C31818  13.051  18.987   9.743 -0.2480  0.4133  0.0112
 1326BOLB   C3C31819  13.226  18.676   9.763  0.0894  0.0273  0.1389
 1326BOLB   C4C31820  13.514  18.344   9.932 -0.0959 -0.1197 -0.1328
 1326BOLB   C1D31821  12.450  18.995   9.634  0.0473  0.3052  0.1564
 1326BOLB   C2D31822  12.653  18.612   9.714  0.1938  0.1042 -0.1847
 1326BOLB   C3D31823  13.008  18.204   9.788  0.2436 -0.1031  0.2812
 1326BOLB   C4D31824  13.070  17.798   9.944 -0.1416  0.0735  0.0771
 1327BOLB   NC131825  12.306   7.287  22.069 -0.0690  0.1018 -0.0100
 1327BOLB   PO131826  12.181   7.411  22.431  0.0568  0.0958 -0.1728
 1327BOLB   GL131827  11.869   7.246  22.571  0.0147  0.1927  0.2256
 1327BOLB   GL231828  11.608   7.348  22.277 -0.2372 -0.0296 -0.0281
 1327BOLB   C1A31829  11.572   7.036  22.885 -0.1742  0.0375 -0.3166
 1327BOLB   C2A31830  11.349   6.967  23.238  0.2038 -0.3289 -0.1548
 1327BOLB   C3A31831  11.054   6.667  23.481 -0.0401 -0.0913 -0.1077
 1327BOLB   C4A31832  11.046   6.165  23.599 -0.0283 -0.0263  0.0833
 1327BOLB   C1B31833  11.376   7.407  22.593 -0.0065  0.0677  0.1210
 1327BOLB   C2B31834  11.111   7.568  22.925  0.1355 -0.0933 -0.0238
 1327BOLB   C3B31835  10.846   7.689  23.189 -0.0298  0.0003 -0.1583
 1327BOLB   C4B31836  11.081   7.893  23.536  0.1078  0.2436 -0.0141
 1327BOLB   NC231837  10.866   5.962  25.702  0.1981 -0.1177 -0.2054
 1327BOLB   PO231838  10.888   5.463  25.580 -0.1322  0.0917 -0.1526
 1327BOLB   GL331839  11.236   5.585  25.415 -0.0151 -0.4387 -0.1851
 1327BOLB   GL431840  11.453   5.761  25.568  0.1646  0.0882 -0.3028
 1327BOLB   C1C31841  11.347   5.644  25.060  0.0432  0.0744 -0.1105
 1327BOLB   C2C31842  11.350   5.388  24.637 -0.2380 -0.0751 -0.0928
 1327BOLB   C3C31843  11.282   5.651  24.195 -0.2220 -0.1358 -0.2725
 1327BOLB   C4C31844  11.109   5.961  23.972 -0.0227  0.0384 -0.1442
 1327BOLB   C1D31845  11.393   6.089  25.207 -0.3614  0.1660 -0.0953
 1327BOLB   C2D31846  11.569   6.254  24.816 -0.2042  0.0005 -0.0837
 1327BOLB   C3D31847  11.258   6.139  24.520 -0.2605 -0.0926 -0.1228
 1327BOLB   C4D31848  11.060   5.821  24.711 -0.4023 -0.0953 -0.1282
 1328BOLB   NC131849   8.619  14.215  16.165  0.1899  0.2102  0.0491
 1328BOLB   PO131850   8.669  13.842  15.839  0.0845  0.1253  0.3072
 1328BOLB   GL131851   8.250  13.687  15.850 -0.1090 -0.5664 -0.2407
 1328BOLB   GL231852   8.169  14.041  16.018 -0.3561  0.1958 -0.0637
 1328BOLB   C1A31853   7.826  13.714  15.861 -0.2757 -0.0520 -0.0662
 1328BOLB   C2A31854   7.465  14.028  15.977  0.0729 -0.0584 -0.0100
 1328BOLB   C3A31855   6.904  13.984  15.995 -0.1486 -0.0863  0.0837
 1328BOLB   C4A31856   6.549  13.750  16.074  0.0361  0.1619  0.0760
 1328BOLB   C1B31857   7.895  14.310  15.913  0.1716  0.0428  0.0490
 1328BOLB   C2B31858   7.619  14.427  15.759  0.0004  0.3662 -0.1363
 1328BOLB   C3B31859   7.388  14.751  15.684  0.0352 -0.0455  0.1925
 1328BOLB   C4B31860   6.953  14.942  15.743 -0.0342  0.0412 -0.0469
 1328BOLB   NC231861   4.527  13.944  16.173 -0.0409 -0.1299  0.3076
 1328BOLB   PO231862   4.524  14.304  16.308 -0.2264  0.0043  0.1007
 1328BOLB   GL331863   4.829  14.029  16.590 -0.1738 -0.0953  0.2383
 1328BOLB   GL431864   5.083  14.189  16.539 -0.0807  0.3119  0.1016
 1328BOLB   C1C31865   5.271  13.755  16.562 -0.0182  0.1101 -0.0878
 1328BOLB   C2C31866   5.459  13.410  16.371  0.1834 -0.2049  0.0314
 1328BOLB   C3C31867   5.893  13.375  16.345 -0.1927  0.0281 -0.0654
 1328BOLB   C4C31868   6.155  13.562  16.205 -0.1255  0.1005 -0.2923
 1328BOLB   C1D31869   5.432  14.216  16.732  0.0475 -0.2105  0.0591
 1328BOLB   C2D31870   5.768  14.156  17.030  0.0806 -0.0479  0.0969
 1328BOLB   C3D31871   6.013  14.293  17.382 -0.2440 -0.0406  0.4610
 1328BOLB   C4D31872   6.221  14.702  17.460 -0.1449  0.1358 -0.1919
 1329BOLB   NC131873  20.525  14.503  10.281 -0.2355  0.0872  0.0447
 1329BOLB   PO131874  20.905  14.598  10.545 -0.2013  0.1528  0.1722
 1329BOLB   GL131875  20.980  14.879  10.235 -0.0630 -0.1325  0.0694
 1329BOLB   GL231876  20.782  14.814   9.922 -0.0444 -0.4951 -0.3592
 1329BOLB   C1A31877  21.347  14.984  10.043  0.0619  0.0855  0.3795
 1329BOLB   C2A31878  21.524  14.993   9.637 -0.0279  0.3079  0.1433
 1329BOLB   C3A31879  21.719  15.052   9.208 -0.0152 -0.1954  0.2293
 1329BOLB   C4A31880  21.912  15.300   8.888 -0.1032  0.2094  0.3589
 1329BOLB   C1B31881  21.044  15.196   9.721 -0.2861  0.2139 -0.4401
 1329BOLB   C2B31882  21.135  15.627   9.489 -0.2920  0.0490 -0.1235
 1329BOLB   C3B31883  21.162  15.872   9.141  0.1835  0.1706  0.1668
 1329BOLB   C4B31884  20.995  16.225   8.807  0.0529  0.1212 -0.0008
 1329BOLB   NC231885  21.281  16.074   6.296  0.0290  0.0832  0.0979
 1329BOLB   PO231886  21.577  16.125   6.638 -0.0292 -0.2689  0.1755
 1329BOLB   GL331887  21.588  16.023   7.008 -0.2915 -0.0861 -0.2622
 1329BOLB   GL431888  21.319  15.795   6.998 -0.1149 -0.0995  0.0543
 1329BOLB   C1C31889  21.597  15.764   7.504 -0.3461 -0.2980  0.0909
 1329BOLB   C2C31890  21.771  15.533   7.806 -0.0146 -0.0720  0.1203
 1329BOLB   C3C31891  21.889  15.420   8.125  0.0589  0.3008 -0.1022
 1329BOLB   C4C31892  22.022  15.277   8.459  0.1896 -0.1564  0.2531
 1329BOLB   C1D31893  21.205  16.021   7.404 -0.1814 -0.0378 -0.1436
 1329BOLB   C2D31894  20.865  16.122   7.717 -0.1249 -0.2238  0.2714
 1329BOLB   C3D31895  20.515  16.026   7.885 -0.3199  0.0213 -0.2554
 1329BOLB   C4D31896  20.074  15.788   7.920  0.2279 -0.1437 -0.0925
 1330BOLB   NC131897  21.361  12.683  21.853 -0.1375  0.0295 -0.2752
 1330BOLB   PO131898  21.161  12.455  22.208 -0.2069 -0.3541  0.2095
 1330BOLB   GL131899  21.370  12.709  22.440  0.0208 -0.1294  0.1244
 1330BOLB   GL231900  21.564  12.889  22.300  0.1424 -0.3187 -0.0497
 1330BOLB   C1A31901  21.771  12.643  22.784  0.0662  0.1024 -0.2317
 1330BOLB   C2A31902  22.010  12.886  22.972 -0.1264 -0.2376  0.2397
 1330BOLB   C3A31903  22.366  12.864  23.227  0.0480  0.0571 -0.5000
 1330BOLB   C4A31904  22.659  12.805  23.550  0.1603  0.1663 -0.0317
 1330BOLB   C1B31905  22.021  12.917  22.356 -0.3518 -0.5501  0.0237
 1330BOLB   C2B31906  22.416  13.122  22.487  0.0013 -0.1862 -0.1986
 1330BOLB   C3B31907  22.269  13.377  22.770 -0.1712 -0.0210 -0.2436
 1330BOLB   C4B31908  22.325  13.686  23.127  0.1356  0.0513  0.2683
 1330BOLB   NC231909  25.295  12.443  24.418 -0.0939 -0.2286  0.1864
 1330BOLB   PO231910  24.936  12.741  24.427  0.0438  0.1221  0.1560
 1330BOLB   GL331911  24.623  12.699  24.080 -0.2712 -0.1039 -0.0218
 1330BOLB   GL431912  24.566  12.830  23.793  0.3963  0.1940  0.4060
 1330BOLB   C1C31913  24.223  12.520  24.090  0.2413 -0.3517  0.3333
 1330BOLB   C2C31914  23.851  12.572  23.908 -0.0657  0.0517  0.0388
 1330BOLB   C3C31915  23.388  12.649  23.954  0.1810 -0.0857  0.0850
 1330BOLB   C4C31916  23.069  12.738  23.735 -0.1601 -0.0998 -0.0012
 1330BOLB   C1D31917  24.181  12.977  23.846  0.0279 -0.1795 -0.0250
 1330BOLB   C2D31918  23.770  13.023  23.786 -0.0273 -0.0557  0.0594
 1330BOLB   C3D31919  23.541  12.861  23.464  0.1169  0.0045  0.2794
 1330BOLB   C4D31920  23.149  13.014  23.349 -0.0922 -0.2275 -0.3772
 1331BOLB   NC131921  16.013   3.686   1.524  0.1201 -0.0782  0.1160
 1331BOLB   PO131922  16.452   3.849   1.309 -0.0284  0.3490 -0.0385
 1331BOLB   GL131923  16.610   3.866   1.736 -0.0327 -0.1270  0.0889
 1331BOLB   GL231924  16.384   3.818   1.884  0.3150  0.1638 -0.2689
 1331BOLB   C1A31925  16.763   4.152   1.996  0.0181  0.0732  0.0529
 1331BOLB   C2A31926  16.953   4.440   2.191  0.4115  0.2941 -0.0374
 1331BOLB   C3A31927  16.935   4.664   2.526 -0.2892  0.2142 -0.0497
 1331BOLB   C4A31928  16.985   4.820   2.917  0.5000  0.1176 -0.1269
 1331BOLB   C1B31929  16.228   4.125   2.185 -0.0233  0.1528  0.1871
 1331BOLB   C2B31930  15.868   4.057   2.460  0.0979 -0.3160  0.1702
 1331BOLB   C3B31931  15.607   4.323   2.697  0.0837  0.0438  0.3104
 1331BOLB   C4B31932  15.462   4.510   3.034 -0.2185 -0.5248 -0.0511
 1331BOLB   NC231933  19.570   5.068   2.686  0.0754 -0.0654 -0.2252
 1331BOLB   PO231934  19.197   5.195   2.861 -0.2455 -0.0728  0.0288
 1331BOLB   GL331935  18.866   5.070   3.026  0.1739 -0.1439  0.0761
 1331BOLB   GL431936  18.742   4.765   2.951 -0.3131 -0.3564 -0.3212
 1331BOLB   C1C31937  18.448   5.109   3.062  0.1085 -0.1091 -0.1539
 1331BOLB   C2C31938  18.112   5.217   3.283 -0.0514 -0.2223 -0.1374
 1331BOLB   C3C31939  17.570   5.192   3.290 -0.5292 -0.2494  0.0901
 1331BOLB   C4C31940  17.254   5.130   3.218 -0.0583  0.1117  0.1928
 1331BOLB   C1D31941  18.446   4.429   3.198  0.0837 -0.2009  0.2838
 1331BOLB   C2D31942  18.116   4.098   3.236  0.0842  0.0270  0.0515
 1331BOLB   C3D31943  18.027   3.924   3.680  0.2764 -0.3344 -0.0746
 1331BOLB   C4D31944  18.106   3.790   4.073 -0.4664  0.0153  0.0448
 1332BOLB   NC131945   8.776  11.672  15.093  0.6655 -0.3171  0.0082
 1332BOLB   PO131946   8.325  11.832  15.002  0.2132 -0.0213  0.0307
 1332BOLB   GL131947   7.960  11.882  14.753 -0.0878  0.0156 -0.0453
 1332BOLB   GL231948   7.824  11.687  14.951  0.1774 -0.3300 -0.1122
 1332BOLB   C1A31949   7.560  12.001  14.527 -0.0196  0.1125  0.0071
 1332BOLB   C2A31950   7.154  12.091  14.612 -0.0691 -0.1016  0.4343
 1332BOLB   C3A31951   6.768  12.085  14.567  0.0231 -0.1665  0.0483
 1332BOLB   C4A31952   6.417  12.193  14.405  0.2698  0.1084 -0.0701
 1332BOLB   C1B31953   7.403  11.900  15.047 -0.4388  0.0343  0.5642
 1332BOLB   C2B31954   6.943  12.001  15.090 -0.1009 -0.2532  0.4077
 1332BOLB   C3B31955   6.514  11.991  15.126 -0.0868 -0.1121  0.2208
 1332BOLB   C4B31956   6.071  12.130  15.048  0.0113 -0.1536 -0.0725
 1332BOLB   NC231957   3.926  12.164  15.161 -0.0829 -0.4455  0.0121
 1332BOLB   PO231958   3.901  12.394  14.766 -0.1160 -0.1720 -0.1789
 1332BOLB   GL331959   4.260  12.170  14.633  0.1091  0.0409 -0.1102
 1332BOLB   GL431960   4.268  11.909  14.839  0.3114  0.4555 -0.1388
 1332BOLB   C1C31961   4.700  12.170  14.659  0.0584 -0.3116  0.0094
 1332BOLB   C2C31962   5.174  12.076  14.613 -0.1528 -0.0398 -0.0822
 1332BOLB   C3C31963   5.560  12.148  14.778 -0.1270  0.1118  0.2997
 1332BOLB   C4C31964   5.978  12.132  14.558  0.0201  0.1203  0.1740
 1332BOLB   C1D31965   4.677  11.658  14.824  0.0841 -0.1628  0.0713
 1332BOLB   C2D31966   5.073  11.682  15.023 -0.2217 -0.0025 -0.0910
 1332BOLB   C3D31967   5.417  11.689  14.854  0.1431 -0.0916 -0.1878
 1332BOLB   C4D31968   5.799  11.684  14.751  0.1660  0.2732  0.0258
 1333BOLB   NC131969  12.088  15.767  19.830  0.0846 -0.3238  0.2644
 1333BOLB   PO131970  11.997  15.797  20.278 -0.1693  0.0659  0.1165
 1333BOLB   GL131971  11.684  16.074  20.459  0.0937 -0.0245  0.1231
 1333BOLB   GL231972  11.516  16.030  20.257  0.2190 -0.0036  0.0693
 1333BOLB   C1A31973  11.599  16.507  20.600  0.0350 -0.4343  0.0565
 1333BOLB   C2A31974  11.538  16.872  20.834  0.1266  0.0351 -0.4581
 1333BOLB   C3A31975  11.469  17.243  21.061  0.4479  0.1874 -0.1043
 1333BOLB   C4A31976  11.219  17.623  21.035  0.2190  0.3347  0.0855
 1333BOLB   C1B31977  11.010  16.045  20.550  0.1495  0.0978  0.0637
 1333BOLB   C2B31978  10.908  16.320  20.838 -0.0115  0.1166  0.1300
 1333BOLB   C3B31979  10.839  16.502  21.281  0.2536  0.0607 -0.0016
 1333BOLB   C4B31980  10.671  17.005  21.292 -0.2790  0.0319 -0.1285
 1333BOLB   NC231981   9.837  20.189  21.132  0.1696 -0.0605 -0.2554
 1333BOLB   PO231982   9.924  19.759  20.950 -0.0037 -0.0445  0.1775
 1333BOLB   GL331983  10.096  19.299  20.919 -0.0271 -0.0051  0.2225
 1333BOLB   GL431984   9.997  19.354  20.594 -0.2875  0.0683  0.4298
 1333BOLB   C1C31985  10.244  18.941  20.712 -0.3555  0.0401 -0.1412
 1333BOLB   C2C31986  10.439  18.503  20.584 -0.0226 -0.1267 -0.2881
 1333BOLB   C3C31987  10.746  18.328  20.804 -0.2885 -0.3767 -0.1419
 1333BOLB   C4C31988  10.827  17.912  21.008 -0.1925 -0.1108  0.0679
 1333BOLB   C1D31989  10.260  19.496  20.284  0.2726  0.0878  0.0828
 1333BOLB   C2D31990  10.485  19.267  19.903 -0.3334 -0.4590  0.0007
 1333BOLB   C3D31991  10.561  18.926  19.691 -0.2713  0.4397  0.1719
 1333BOLB   C4D31992  10.646  18.528  19.557  0.1292  0.0527  0.1551
 1334BOLB   NC131993  23.253  14.768  14.041 -0.2125  0.0109  0.0100
 1334BOLB   PO131994  23.467  14.810  14.513 -0.1545 -0.5373  0.0014
 1334BOLB   GL131995  23.667  15.035  14.192  0.0046 -0.0159  0.1978
 1334BOLB   GL231996  23.696  15.351  14.217  0.1333 -0.3371 -0.2111
 1334BOLB   C1A31997  23.826  15.242  13.785  0.1292 -0.0615  0.2523
 1334BOLB   C2A31998  24.045  15.570  13.760 -0.1321  0.4016 -0.0130
 1334BOLB   C3A31999  24.158  15.890  13.929  0.0327  0.1588 -0.2193
 1334BOLB   C4A32000  24.523  16.052  14.191 -0.3404  0.1258 -0.0636
 1334BOLB   C1B32001  23.716  15.753  14.123  0.1425 -0.0332  0.2009
 1334BOLB   C2B32002  23.953  16.169  14.315 -0.2129  0.0629  0.1000
 1334BOLB   C3B32003  24.150  16.444  14.128  0.2090 -0.2029 -0.1045
 1334BOLB   C4B32004  23.952  16.816  14.090  0.0305 -0.1104  0.1546
 1334BOLB   NC232005  26.606  17.002  13.042 -0.1318 -0.3179  0.1793
 1334BOLB   PO232006  26.662  16.888  13.598  0.0182 -0.0864  0.2838
 1334BOLB   GL332007  26.361  16.953  13.866  0.0863  0.1474  0.1789
 1334BOLB   GL432008  26.449  16.840  14.101 -0.0494  0.1863  0.0130
 1334BOLB   C1C32009  26.004  16.946  14.173  0.2417 -0.2357  0.1420
 1334BOLB   C2C32010  25.670  16.686  14.093  0.1810 -0.1840  0.2540
 1334BOLB   C3C32011  25.177  16.605  14.145  0.0306 -0.2052 -0.1916
 1334BOLB   C4C32012  24.904  16.332  13.960  0.1399 -0.2175  0.0862
 1334BOLB   C1D32013  26.368  16.698  14.570  0.0247 -0.2068  0.1808
 1334BOLB   C2D32014  26.240  16.499  14.912 -0.0920 -0.2231  0.0066
 1334BOLB   C3D32015  25.865  16.260  14.976 -0.0685 -0.4109  0.1024
 1334BOLB   C4D32016  25.474  16.009  15.187  0.1055 -0.1963  0.0699
 1335BOLB   NC132017  13.059  13.316  22.223 -0.1837 -0.0378  0.1501
 1335BOLB   PO132018  12.688  13.146  21.880 -0.1144 -0.3464 -0.1584
 1335BOLB   GL132019  12.409  13.059  22.277  0.0640 -0.0878 -0.4204
 1335BOLB   GL232020  12.471  12.741  22.435 -0.0009 -0.0646 -0.1572
 1335BOLB   C1A32021  12.209  13.108  22.570 -0.0413 -0.0663 -0.3282
 1335BOLB   C2A32022  12.010  13.158  22.811 -0.1171 -0.1067 -0.1159
 1335BOLB   C3A32023  11.893  13.313  23.114 -0.0280 -0.1995 -0.2100
 1335BOLB   C4A32024  11.530  13.268  23.441  0.0256  0.2176 -0.1023
 1335BOLB   C1B32025  12.268  12.692  22.845  0.2267  0.0538 -0.1239
 1335BOLB   C2B32026  12.086  12.827  23.236 -0.2064  0.0047 -0.0615
 1335BOLB   C3B32027  11.749  12.810  23.451  0.1907 -0.0472  0.1090
 1335BOLB   C4B32028  11.539  12.896  23.819  0.1004  0.0760 -0.2350
 1335BOLB   NC232029  10.451  12.700  25.804  0.0003  0.1338 -0.0413
 1335BOLB   PO232030  10.142  12.584  25.406 -0.1853 -0.1539  0.2262
 1335BOLB   GL332031  10.184  12.855  24.975 -0.2245  0.3361 -0.1533
 1335BOLB   GL432032   9.875  12.913  24.764 -0.1925  0.0809  0.3442
 1335BOLB   C1C32033  10.638  12.936  24.865  0.0636 -0.2669 -0.1723
 1335BOLB   C2C32034  10.785  12.874  24.455 -0.1154 -0.2118  0.1107
 1335BOLB   C3C32035  11.148  13.046  24.141  0.0269  0.1322  0.0031
 1335BOLB   C4C32036  11.309  13.286  23.858 -0.1675 -0.1814 -0.1406
 1335BOLB   C1D32037   9.896  12.999  24.339  0.2168 -0.2089  0.1979
 1335BOLB   C2D32038   9.783  12.954  23.964 -0.1943  0.1237 -0.3997
 1335BOLB   C3D32039   9.498  12.892  23.613  0.1222  0.4175  0.1221
 1335BOLB   C4D32040   9.058  12.813  23.665 -0.2307 -0.0672  0.0494
 1336BOLB   NC132041  24.201  10.253  13.837  0.2289  0.0831  0.0185
 1336BOLB   PO132042  24.647  10.346  13.756  0.1687  0.1788 -0.0558
 1336BOLB   GL132043  24.785  10.227  13.338 -0.0550  0.3684  0.3348
 1336BOLB   GL232044  24.959   9.971  13.495 -0.1423 -0.0180 -0.0301
 1336BOLB   C1A32045  24.954  10.131  12.963 -0.1423 -0.2501  0.0366
 1336BOLB   C2A32046  25.353   9.976  12.849  0.1445 -0.0094 -0.0068
 1336BOLB   C3A32047  25.737   9.892  12.680  0.2680 -0.0999  0.1684
 1336BOLB   C4A32048  26.156   9.726  12.712 -0.0788  0.1905  0.0594
 1336BOLB   C1B32049  25.352  10.010  13.377  0.1776  0.2951 -0.2422
 1336BOLB   C2B32050  25.732   9.683  13.175 -0.0085  0.1106  0.0967
 1336BOLB   C3B32051  26.042   9.378  13.312  0.0862 -0.0336  0.0565
 1336BOLB   C4B32052  26.481   9.340  13.518  0.1060  0.2248 -0.1807
 1336BOLB   NC232053  27.896   9.564  11.880 -0.0991  0.3239  0.1048
 1336BOLB   PO232054  27.859   9.064  12.055  0.0340  0.1237 -0.2071
 1336BOLB   GL332055  27.508   9.264  12.209  0.0109 -0.0325 -0.1668
 1336BOLB   GL432056  27.358   9.284  11.946 -0.0073  0.1492 -0.0476
 1336BOLB   C1C32057  27.281   8.960  12.450  0.0672  0.2236  0.2124
 1336BOLB   C2C32058  26.962   8.830  12.515  0.2304 -0.0842 -0.2116
 1336BOLB   C3C32059  26.558   8.899  12.618 -0.3709 -0.3197  0.0476
 1336BOLB   C4C32060  26.325   9.326  12.889 -0.0846  0.1329  0.1820
 1336BOLB   C1D32061  26.918   9.419  11.745  0.1827 -0.0949  0.2027
 1336BOLB   C2D32062  26.575   9.596  11.885  0.0515  0.2744  0.2475
 1336BOLB   C3D32063  26.205   9.680  12.038 -0.2560 -0.0025 -0.2105
 1336BOLB   C4D32064  25.861   9.509  12.256  0.0026 -0.1288  0.2995
 1337BOLB   NC132065  21.989   7.481  20.768 -0.0216 -0.0951  0.1093
 1337BOLB   PO132066  21.680   7.404  20.946 -0.0262  0.0620 -0.2480
 1337BOLB   GL132067  21.929   7.043  21.092  0.4097 -0.0764 -0.2412
 1337BOLB   GL232068  21.870   6.725  21.005 -0.0382 -0.1526  0.1074
 1337BOLB   C1A32069  22.253   6.857  21.322 -0.0485  0.2466 -0.0587
 1337BOLB   C2A32070  22.562   6.699  21.574 -0.0002 -0.1781 -0.0335
 1337BOLB   C3A32071  22.712   6.411  21.830 -0.1934 -0.1797  0.2885
 1337BOLB   C4A32072  22.748   6.022  22.078 -0.0791 -0.0322  0.1086
 1337BOLB   C1B32073  22.051   6.316  21.200 -0.0287 -0.0383  0.3571
 1337BOLB   C2B32074  22.262   6.316  21.539  0.1808  0.0759 -0.0429
 1337BOLB   C3B32075  22.584   5.925  21.480  0.2194  0.1026 -0.0343
 1337BOLB   C4B32076  22.842   5.608  21.674  0.1800  0.0664 -0.1123
 1337BOLB   NC232077  23.586   4.446  23.848  0.1826  0.0874  0.0025
 1337BOLB   PO232078  23.614   4.879  24.028  0.3748  0.2120 -0.0032
 1337BOLB   GL332079  23.335   4.987  23.814  0.1548 -0.1513  0.2031
 1337BOLB   GL432080  23.083   4.776  23.884  0.2429  0.0141  0.5223
 1337BOLB   C1C32081  23.251   5.265  23.476 -0.2771 -0.1323  0.3054
 1337BOLB   C2C32082  22.936   5.450  23.247 -0.0654 -0.2905  0.0229
 1337BOLB   C3C32083  22.974   5.656  22.799  0.1308  0.3635 -0.0002
 1337BOLB   C4C32084  22.796   5.664  22.338 -0.0609 -0.4591 -0.2343
 1337BOLB   C1D32085  22.831   5.137  23.705 -0.0938 -0.1937  0.0583
 1337BOLB   C2D32086  22.630   5.361  23.610  0.1840 -0.1666 -0.1552
 1337BOLB   C3D32087  22.409   5.717  23.434  0.2418  0.1073 -0.4396
 1337BOLB   C4D32088  22.589   5.758  23.077 -0.1589  0.1496  0.2707
 1338BOLB   NC132089  23.437  12.019  19.148 -0.0842  0.0282  0.1479
 1338BOLB   PO132090  23.460  11.889  18.704  0.1088  0.0811 -0.3873
 1338BOLB   GL132091  23.923  11.918  18.986  0.0907  0.0026  0.0831
 1338BOLB   GL232092  23.952  12.060  19.321  0.1142  0.2355 -0.1663
 1338BOLB   C1A32093  24.357  11.854  18.867 -0.0402  0.2787  0.1290
 1338BOLB   C2A32094  24.687  11.442  18.951 -0.3675 -0.0424 -0.2924
 1338BOLB   C3A32095  25.060  11.270  19.158 -0.1057  0.0632  0.1224
 1338BOLB   C4A32096  25.450  11.077  19.271  0.1810 -0.1258 -0.1290
 1338BOLB   C1B32097  24.343  12.280  19.458 -0.0247  0.0215  0.4221
 1338BOLB   C2B32098  24.657  12.480  19.641  0.0384  0.0808 -0.2848
 1338BOLB   C3B32099  25.046  12.658  19.458 -0.4013 -0.1533 -0.2227
 1338BOLB   C4B32100  25.336  12.575  19.118  0.3505  0.1279 -0.3235
 1338BOLB   NC232101  27.706  11.298  20.505 -0.3084  0.0766 -0.2206
 1338BOLB   PO232102  27.458  11.595  20.779  0.1243  0.3131  0.0752
 1338BOLB   GL332103  27.041  11.663  20.691  0.1040  0.0638  0.5019
 1338BOLB   GL432104  26.937  11.953  20.784 -0.0211  0.0079 -0.0378
 1338BOLB   C1C32105  26.795  11.373  20.396 -0.0628  0.6871  0.0525
 1338BOLB   C2C32106  26.446  11.254  20.156 -0.1276  0.3457  0.1492
 1338BOLB   C3C32107  26.167  11.128  19.704 -0.0391 -0.2054 -0.0532
 1338BOLB   C4C32108  25.915  11.148  19.369  0.2863 -0.1841 -0.2786
 1338BOLB   C1D32109  26.497  12.068  20.766  0.2494 -0.0317 -0.2165
 1338BOLB   C2D32110  26.104  11.943  20.908  0.0349  0.0632 -0.0055
 1338BOLB   C3D32111  25.613  12.034  21.083  0.0529 -0.2551  0.0129
 1338BOLB   C4D32112  25.163  12.162  21.089  0.1350  0.3029  0.0616
 1339BOLB   NC132113  22.787   5.596  18.042  0.2137  0.1026 -0.1565
 1339BOLB   PO132114  22.908   5.914  18.407 -0.2014 -0.1032 -0.1710
 1339BOLB   GL132115  23.178   5.576  18.359  0.0182 -0.2081  0.1747
 1339BOLB   GL232116  23.082   5.316  18.437  0.0528  0.0294 -0.0524
 1339BOLB   C1A32117  23.649   5.371  18.408  0.3070  0.0908  0.1049
 1339BOLB   C2A32118  23.863   5.169  18.707 -0.0262 -0.0540 -0.0727
 1339BOLB   C3A32119  24.115   5.261  18.931 -0.1734  0.4531 -0.1462
 1339BOLB   C4A32120  24.296   5.152  19.304  0.0422 -0.2584  0.0995
 1339BOLB   C1B32121  23.237   5.030  18.758  0.0271  0.1542  0.0091
 1339BOLB   C2B32122  23.495   4.819  19.014  0.3452  0.0915 -0.4246
 1339BOLB   C3B32123  23.862   4.742  19.131 -0.1990 -0.0801 -0.1250
 1339BOLB   C4B32124  24.157   4.585  19.295  0.3545 -0.0073 -0.1338
 1339BOLB   NC232125  25.741   4.055  19.619 -0.1136 -0.0124  0.1016
 1339BOLB   PO232126  25.601   3.812  19.991 -0.1122 -0.0494  0.2951
 1339BOLB   GL332127  25.342   3.861  20.258 -0.1011  0.0991 -0.1207
 1339BOLB   GL432128  25.252   3.533  20.382 -0.1328 -0.1339 -0.3523
 1339BOLB   C1C32129  25.075   4.125  20.252  0.0593 -0.4383 -0.1040
 1339BOLB   C2C32130  24.770   4.544  20.114  0.6023  0.3581  0.0072
 1339BOLB   C3C32131  24.525   4.959  20.158  0.0913  0.2854  0.2451
 1339BOLB   C4C32132  24.421   5.319  19.769  0.0266  0.0056 -0.0810
 1339BOLB   C1D32133  24.789   3.691  20.381 -0.2479 -0.0519  0.1076
 1339BOLB   C2D32134  24.674   4.179  20.528 -0.0137 -0.1994 -0.0210
 1339BOLB   C3D32135  24.700   4.575  20.617 -0.1540 -0.0040 -0.1595
 1339BOLB   C4D32136  24.519   4.898  20.796  0.1204 -0.2259 -0.0031
 1340BOLB   NC132137  20.755  14.594  12.185  0.2893 -0.1309 -0.2466
 1340BOLB   PO132138  21.018  14.901  11.933 -0.1316  0.0815 -0.0226
 1340BOLB   GL132139  21.188  15.264  11.586  0.0119 -0.0665 -0.4622
 1340BOLB   GL232140  21.177  15.219  11.291 -0.0905  0.1777 -0.2981
 1340BOLB   C1A32141  21.283  15.666  11.442 -0.1263  0.2700  0.0443
 1340BOLB   C2A32142  21.648  15.911  11.183  0.0569 -0.0299  0.1442
 1340BOLB   C3A32143  21.790  15.909  10.783 -0.1098 -0.1738  0.0474
 1340BOLB   C4A32144  21.959  16.007  10.441 -0.3087 -0.0359 -0.0786
 1340BOLB   C1B32145  21.273  15.498  10.995 -0.0412 -0.1172  0.0171
 1340BOLB   C2B32146  21.333  15.651  10.598 -0.1088 -0.0118 -0.2902
 1340BOLB   C3B32147  21.372  16.101  10.397  0.3476 -0.1969  0.1220
 1340BOLB   C4B32148  21.406  16.355   9.998 -0.4944  0.1188 -0.1614
 1340BOLB   NC232149  23.369  17.594   9.490 -0.1158  0.1051 -0.0236
 1340BOLB   PO232150  23.200  17.944   9.648  0.2038 -0.0181 -0.0904
 1340BOLB   GL332151  22.907  17.645   9.745 -0.2122 -0.0136  0.0547
 1340BOLB   GL432152  22.693  17.789   9.680  0.1680  0.1772  0.0038
 1340BOLB   C1C32153  22.621  17.272   9.828  0.0267 -0.0484 -0.0041
 1340BOLB   C2C32154  22.267  17.052   9.862  0.0230 -0.2175 -0.2801
 1340BOLB   C3C32155  21.986  16.753   9.922  0.0847  0.1575 -0.2272
 1340BOLB   C4C32156  21.882  16.392  10.164  0.2514  0.2378  0.0677
 1340BOLB   C1D32157  22.352  17.613   9.468  0.0162  0.4269 -0.0195
 1340BOLB   C2D32158  22.129  17.271   9.423 -0.2404 -0.3344 -0.1605
 1340BOLB   C3D32159  22.016  16.831   9.448 -0.0575  0.0883  0.1545
 1340BOLB   C4D32160  21.850  16.536   9.088 -0.0341 -0.3392 -0.1163
 1341BOLB   NC132161  22.245  16.039  18.256 -0.0992  0.3222 -0.1576
 1341BOLB   PO132162  22.636  15.928  18.456 -0.1536  0.0842  0.0196
 1341BOLB   GL132163  23.007  16.062  18.601 -0.0686  0.2808  0.1989
 1341BOLB   GL232164  23.181  15.898  18.624  0.2853  0.0606  0.1444
 1341BOLB   C1A32165  23.389  16.271  18.894  0.1522 -0.3400  0.0751
 1341BOLB   C2A32166  23.735  16.534  18.864 -0.0694  0.2162 -0.3074
 1341BOLB   C3A32167  24.280  16.708  18.875  0.5391 -0.1381 -0.1038
 1341BOLB   C4A32168  24.538  17.111  19.148  0.0410 -0.0230 -0.1437
 1341BOLB   C1B32169  23.344  15.756  18.979 -0.0351 -0.0104 -0.1434
 1341BOLB   C2B32170  23.414  15.998  19.309 -0.2371 -0.0993 -0.0339
 1341BOLB   C3B32171  23.430  16.074  19.791  0.0354  0.1742  0.5329
 1341BOLB   C4B32172  23.609  16.356  19.979 -0.0849 -0.3897 -0.1861
 1341BOLB   NC232173  25.729  19.242  19.557  0.1336  0.0021  0.3427
 1341BOLB   PO232174  25.506  19.304  19.054 -0.4699 -0.1308 -0.1621
 1341BOLB   GL332175  25.180  19.093  18.799  0.0192  0.0116 -0.0732
 1341BOLB   GL432176  25.216  18.889  18.504  0.2070 -0.0251  0.0195
 1341BOLB   C1C32177  25.005  18.769  18.992 -0.1533  0.1005  0.0840
 1341BOLB   C2C32178  24.809  18.363  18.975  0.3578 -0.2342 -0.1148
 1341BOLB   C3C32179  24.792  17.882  18.976  0.3066 -0.2167 -0.1712
 1341BOLB   C4C32180  24.681  17.538  19.176 -0.0631  0.1621  0.3096
 1341BOLB   C1D32181  25.168  18.499  18.632  0.0561  0.3461  0.0827
 1341BOLB   C2D32182  24.855  18.181  18.393 -0.3338 -0.3029  0.0165
 1341BOLB   C3D32183  24.469  18.213  18.174 -0.1604  0.0947 -0.2312
 1341BOLB   C4D32184  24.239  17.890  18.023  0.1858  0.0453 -0.3251
 1342BOLB   NC132185   2.245   4.027  10.425  0.1939  0.2087 -0.0399
 1342BOLB   PO132186   2.319   3.881  10.823 -0.1442 -0.1072 -0.1252
 1342BOLB   GL132187   2.747   4.123  10.843 -0.0223  0.2061 -0.0573
 1342BOLB   GL232188   3.049   4.004  10.813 -0.0738  0.2153  0.0495
 1342BOLB   C1A32189   2.792   4.239  11.206  0.0206  0.2033 -0.1141
 1342BOLB   C2A32190   3.099   4.382  11.537 -0.2695 -0.2473 -0.0066
 1342BOLB   C3A32191   3.327   4.141  11.790  0.1008  0.0193  0.0414
 1342BOLB   C4A32192   3.551   3.983  12.144  0.0413  0.1100 -0.0189
 1342BOLB   C1B32193   3.435   3.774  10.905 -0.1401 -0.1116  0.1861
 1342BOLB   C2B32194   3.736   3.479  11.229  0.1092  0.1998  0.1217
 1342BOLB   C3B32195   3.835   3.101  11.423 -0.1635 -0.0128  0.0897
 1342BOLB   C4B32196   4.068   2.823  11.624  0.1225  0.1964 -0.0001
 1342BOLB   NC232197   1.540   2.980  11.861 -0.1607 -0.3887  0.1496
 1342BOLB   PO232198   1.801   2.976  12.262  0.0049  0.2354  0.1277
 1342BOLB   GL332199   2.102   3.213  12.409  0.0994  0.2257 -0.0424
 1342BOLB   GL432200   2.267   3.285  12.133  0.1359 -0.0754 -0.3189
 1342BOLB   C1C32201   2.481   3.417  12.619  0.0654 -0.1835 -0.1096
 1342BOLB   C2C32202   2.886   3.548  12.658  0.1663  0.4264  0.0262
 1342BOLB   C3C32203   3.190   3.544  12.861 -0.2614  0.1036  0.5608
 1342BOLB   C4C32204   3.560   3.720  12.647 -0.1903 -0.0596  0.1767
 1342BOLB   C1D32205   2.745   3.315  12.163 -0.1196 -0.0561  0.2128
 1342BOLB   C2D32206   3.192   3.356  12.238 -0.1448  0.0950 -0.0077
 1342BOLB   C3D32207   3.569   3.324  12.393 -0.1110 -0.0012  0.0022
 1342BOLB   C4D32208   3.955   3.099  12.511 -0.0811  0.0202  0.2088
 1343BOLB   NC132209  22.243  11.962  20.803 -0.2578  0.2310 -0.2087
 1343BOLB   PO132210  22.371  12.288  20.998  0.0621 -0.6258 -0.1271
 1343BOLB   GL132211  22.824  12.101  21.066  0.1561  0.1405  0.4767
 1343BOLB   GL232212  23.133  12.164  20.827 -0.2696  0.2138 -0.1811
 1343BOLB   C1A32213  23.272  12.052  21.320 -0.1586 -0.0711 -0.0635
 1343BOLB   C2A32214  23.659  11.968  21.552  0.0703 -0.3187 -0.0093
 1343BOLB   C3A32215  24.061  11.958  21.491 -0.1608 -0.1223 -0.1201
 1343BOLB   C4A32216  24.371  12.319  21.610 -0.0912 -0.0529  0.0786
 1343BOLB   C1B32217  23.400  12.518  21.019 -0.2461 -0.0064 -0.1111
 1343BOLB   C2B32218  23.707  12.897  21.207  0.1927 -0.3027  0.0715
 1343BOLB   C3B32219  24.077  13.125  21.521  0.2572  0.0777 -0.2347
 1343BOLB   C4B32220  24.423  12.895  21.836 -0.1401 -0.2957  0.1823
 1343BOLB   NC232221  26.478  13.739  22.339  0.1601 -0.1793  0.2272
 1343BOLB   PO232222  26.084  13.439  22.414  0.2022 -0.1012  0.2332
 1343BOLB   GL332223  25.624  13.518  22.290  0.1473  0.0783 -0.0449
 1343BOLB   GL432224  25.367  13.528  22.563  0.0206 -0.0680  0.0210
 1343BOLB   C1C32225  25.257  13.355  22.129  0.0829 -0.1136 -0.0566
 1343BOLB   C2C32226  24.872  13.235  21.960  0.1019 -0.2305  0.1629
 1343BOLB   C3C32227  24.929  12.882  21.741 -0.0508  0.3042 -0.0376
 1343BOLB   C4C32228  24.709  12.538  21.645  0.0845 -0.1296 -0.4036
 1343BOLB   C1D32229  25.154  13.138  22.564 -0.0077  0.0979  0.1662
 1343BOLB   C2D32230  24.702  13.053  22.401  0.4557  0.0687 -0.0046
 1343BOLB   C3D32231  24.204  12.967  22.342  0.1302 -0.1079  0.1941
 1343BOLB   C4D32232  23.898  12.783  22.140 -0.0354  0.2008 -0.1118
 1344BOLB   NC132233  19.640   5.188  20.506 -0.0595 -0.0304  0.3776
 1344BOLB   PO132234  19.270   5.454  20.734  0.1662 -0.0812  0.0816
 1344BOLB   GL132235  19.384   5.069  20.988 -0.1838  0.1029 -0.1794
 1344BOLB   GL232236  19.152   4.924  20.797  0.0931 -0.0867  0.0205
 1344BOLB   C1A32237  19.699   4.815  21.240 -0.0652 -0.1455 -0.3194
 1344BOLB   C2A32238  19.824   4.346  21.499 -0.4233  0.4211 -0.0603
 1344BOLB   C3A32239  20.033   4.084  21.890 -0.0252  0.0811 -0.3970
 1344BOLB   C4A32240  19.938   3.837  22.298 -0.0594  0.0725  0.0496
 1344BOLB   C1B32241  19.177   4.577  21.061 -0.1530  0.0277  0.1084
 1344BOLB   C2B32242  19.332   4.444  21.478  0.0427 -0.2320 -0.0738
 1344BOLB   C3B32243  19.296   4.384  21.855 -0.0533  0.1215  0.1311
 1344BOLB   C4B32244  19.492   4.041  22.187  0.1213  0.0246 -0.1362
 1344BOLB   NC232245  21.410   2.231  24.192 -0.0800  0.3288  0.0199
 1344BOLB   PO232246  21.053   2.425  23.916 -0.1501 -0.3600  0.5665
 1344BOLB   GL332247  21.132   2.706  23.531 -0.0595  0.0884  0.2821
 1344BOLB   GL432248  21.077   3.091  23.639  0.0976  0.0932  0.2055
 1344BOLB   C1C32249  20.812   2.891  23.247  0.1198 -0.0724  0.1119
 1344BOLB   C2C32250  20.707   3.266  23.270  0.2891 -0.1055  0.0750
 1344BOLB   C3C32251  20.372   3.534  23.048  0.0701 -0.3132  0.1309
 1344BOLB   C4C32252  20.200   3.754  22.633 -0.2703  0.0987  0.1169
 1344BOLB   C1D32253  21.270   3.555  23.427  0.0923 -0.1217 -0.2820
 1344BOLB   C2D32254  20.990   3.742  23.251  0.1574  0.0381  0.2517
 1344BOLB   C3D32255  20.597   3.976  23.046 -0.0268 -0.1083  0.0042
 1344BOLB   C4D32256  20.262   4.240  22.710  0.3695  0.1369  0.3577
 1345BOLB   NC132257  20.962   3.955  11.824 -0.3811 -0.3025 -0.0804
 1345BOLB   PO132258  20.702   4.198  11.487  0.0157 -0.4194 -0.0443
 1345BOLB   GL132259  20.920   3.851  11.280  0.1929 -0.0338 -0.0226
 1345BOLB   GL232260  20.865   3.735  11.084 -0.0065 -0.2656  0.1409
 1345BOLB   C1A32261  21.341   3.690  11.241 -0.1761  0.0388  0.0182
 1345BOLB   C2A32262  21.713   3.633  11.426 -0.1914 -0.4309  0.1161
 1345BOLB   C3A32263  22.157   3.588  11.440 -0.1733 -0.6312  0.0060
 1345BOLB   C4A32264  22.565   3.416  11.764  0.3204  0.0319 -0.0607
 1345BOLB   C1B32265  21.014   3.792  10.678  0.2449  0.2147 -0.1317
 1345BOLB   C2B32266  21.284   3.627  10.385  0.0694  0.1011 -0.0480
 1345BOLB   C3B32267  21.551   3.261  10.304 -0.1187  0.1518 -0.3272
 1345BOLB   C4B32268  21.829   2.959  10.318  0.1712 -0.1042  0.2174
 1345BOLB   NC232269  24.050   1.634  11.849 -0.2579 -0.1552  0.1435
 1345BOLB   PO232270  24.321   1.754  12.230 -0.2362  0.1905  0.0423
 1345BOLB   GL332271  23.961   1.890  12.349  0.1770 -0.1124 -0.0042
 1345BOLB   GL432272  24.052   2.181  12.488  0.3528  0.1359 -0.0901
 1345BOLB   C1C32273  23.618   2.199  12.065  0.0446  0.0788 -0.2502
 1345BOLB   C2C32274  23.387   2.543  12.126 -0.1431 -0.3775 -0.0169
 1345BOLB   C3C32275  23.013   2.758  11.976 -0.2083 -0.0360 -0.0726
 1345BOLB   C4C32276  22.755   3.023  11.929  0.2754 -0.1245  0.0487
 1345BOLB   C1D32277  23.767   2.594  12.393 -0.1259 -0.1798 -0.0480
 1345BOLB   C2D32278  23.928   2.962  12.391  0.1018 -0.0633 -0.1920
 1345BOLB   C3D32279  24.122   3.078  11.922  0.1362  0.2161  0.0450
 1345BOLB   C4D32280  24.129   2.897  11.513  0.2374  0.0332 -0.0403
 1346BOLB   NC132281   9.370  10.630  20.534  0.0317  0.4088  0.1637
 1346BOLB   PO132282   9.120  10.469  20.220  0.0742  0.4101  0.3872
 1346BOLB   GL132283   8.915  10.363  20.517  0.1466  0.0234 -0.0668
 1346BOLB   GL232284   9.039  10.447  20.836  0.0069 -0.1099 -0.2220
 1346BOLB   C1A32285   8.533  10.282  20.520 -0.1079 -0.0883 -0.0002
 1346BOLB   C2A32286   8.298   9.962  20.749 -0.4948 -0.2346 -0.1368
 1346BOLB   C3A32287   8.033   9.743  20.979 -0.2817 -0.1086  0.0110
 1346BOLB   C4A32288   7.980   9.558  21.294  0.1441  0.3226  0.1841
 1346BOLB   C1B32289   8.900  10.615  21.242  0.4636 -0.1356 -0.0222
 1346BOLB   C2B32290   8.502  10.536  21.579  0.1609 -0.0998  0.1845
 1346BOLB   C3B32291   8.209  10.255  21.837  0.1820  0.0061  0.1730
 1346BOLB   C4B32292   8.015   9.843  21.767  0.1435 -0.2369  0.1494
 1346BOLB   NC232293   6.798   8.627  23.167  0.2840 -0.3103  0.2499
 1346BOLB   PO232294   6.676   8.323  23.000 -0.0745  0.0886 -0.2414
 1346BOLB   GL332295   6.963   8.339  22.625 -0.0766 -0.0339 -0.1159
 1346BOLB   GL432296   7.009   8.704  22.701 -0.1154 -0.1727  0.2622
 1346BOLB   C1C32297   7.209   8.444  22.316 -0.1267 -0.2591 -0.0867
 1346BOLB   C2C32298   7.573   8.582  22.143  0.1844 -0.2637  0.0031
 1346BOLB   C3C32299   7.582   8.975  21.828  0.1621  0.1957 -0.2038
 1346BOLB   C4C32300   7.589   9.225  21.438 -0.0135 -0.1543 -0.1309
 1346BOLB   C1D32301   7.309   9.099  22.520  0.1711  0.0945  0.0773
 1346BOLB   C2D32302   7.751   9.020  22.293  0.4294 -0.4817 -0.3215
 1346BOLB   C3D32303   8.091   8.874  22.029 -0.0624  0.1609 -0.1255
 1346BOLB   C4D32304   8.458   9.016  21.951  0.4630  0.3635 -0.4046
 1347BOLB   NC132305  22.163  16.655  16.431 -0.6143  0.0897 -0.2528
 1347BOLB   PO132306  22.220  16.538  16.853 -0.0818  0.1193  0.0384
 1347BOLB   GL132307  22.507  16.862  16.931  0.0159  0.1583  0.0873
 1347BOLB   GL232308  22.364  16.993  17.182 -0.3502 -0.1831 -0.1447
 1347BOLB   C1A32309  22.846  16.957  16.994 -0.0737  0.1797 -0.1999
 1347BOLB   C2A32310  23.049  17.274  16.911 -0.1702  0.0936  0.0983
 1347BOLB   C3A32311  23.512  17.508  16.882  0.0455  0.2498  0.0237
 1347BOLB   C4A32312  23.855  17.646  16.871  0.2288  0.0511 -0.0709
 1347BOLB   C1B32313  22.632  17.274  17.327 -0.0693 -0.0542  0.0693
 1347BOLB   C2B32314  22.933  17.542  17.371  0.1334  0.0167 -0.0876
 1347BOLB   C3B32315  23.113  17.844  17.621  0.4464  0.2247 -0.2049
 1347BOLB   C4B32316  23.115  17.865  18.049  0.4229  0.2979 -0.0481
 1347BOLB   NC232317  24.993  19.416  15.955  0.2072 -0.0142 -0.1482
 1347BOLB   PO232318  24.734  19.676  16.146  0.2977  0.1204  0.1100
 1347BOLB   GL332319  24.544  19.283  16.127  0.1396 -0.0237  0.5765
 1347BOLB   GL432320  24.684  19.198  16.341 -0.0517 -0.0221 -0.0171
 1347BOLB   C1C32321  24.367  18.986  16.030  0.0120 -0.2362 -0.0108
 1347BOLB   C2C32322  24.043  18.723  16.170  0.2212  0.1061 -0.0289
 1347BOLB   C3C32323  24.025  18.524  16.599 -0.2260 -0.0047 -0.1750
 1347BOLB   C4C32324  24.049  18.071  16.787 -0.2961 -0.0594  0.0842
 1347BOLB   C1D32325  24.417  18.969  16.551 -0.2177  0.0395 -0.0415
 1347BOLB   C2D32326  23.953  18.978  16.656  0.1683 -0.1404 -0.0924
 1347BOLB   C3D32327  23.539  18.816  16.810  0.5364 -0.0644 -0.1954
 1347BOLB   C4D32328  23.373  18.881  17.271 -0.0437 -0.2297  0.0715
 1348BOLB   NC132329  12.922   7.248   0.810  0.2111 -0.1320 -0.1149
 1348BOLB   PO132330  13.046   6.879   0.908  0.4034 -0.1068  0.0944
 1348BOLB   GL132331  13.370   6.874   1.182  0.1979  0.0577  0.0846
 1348BOLB   GL232332  13.303   7.242   1.215 -0.0998  0.3491 -0.1926
 1348BOLB   C1A32333  13.501   7.028   1.547  0.1492 -0.3478  0.0002
 1348BOLB   C2A32334  13.150   7.056   1.745  0.0476  0.0257  0.0921
 1348BOLB   C3A32335  12.927   6.974   2.109  0.2678  0.0040 -0.3626
 1348BOLB   C4A32336  12.868   6.721   2.466 -0.1301 -0.1046 -0.0247
 1348BOLB   C1B32337  13.664   7.533   1.424  0.2366 -0.0430  0.0114
 1348BOLB   C2B32338  13.902   7.875   1.755  0.0288 -0.0902 -0.1097
 1348BOLB   C3B32339  13.777   8.173   2.173 -0.4704  0.1887 -0.2209
 1348BOLB   C4B32340  13.765   8.460   2.615 -0.0758 -0.0849 -0.0306
 1348BOLB   NC232341  12.130   5.164   1.098  0.2137  0.0374  0.0125
 1348BOLB   PO232342  12.189   5.754   1.135  0.0493 -0.1516  0.3119
 1348BOLB   GL332343  12.326   5.644   1.473 -0.1765 -0.2568  0.0257
 1348BOLB   GL432344  12.638   5.777   1.488 -0.1095 -0.1055  0.3076
 1348BOLB   C1C32345  12.222   5.465   1.957 -0.0493 -0.0054 -0.0590
 1348BOLB   C2C32346  12.333   5.683   2.358  0.1941 -0.0945  0.1334
 1348BOLB   C3C32347  12.579   5.999   2.561 -0.0599 -0.0515 -0.5079
 1348BOLB   C4C32348  12.692   6.423   2.742  0.0179 -0.1424  0.0912
 1348BOLB   C1D32349  12.933   5.720   1.665 -0.3406  0.0578 -0.0364
 1348BOLB   C2D32350  13.164   5.554   2.082 -0.2190  0.1041  0.1127
 1348BOLB   C3D32351  13.183   5.273   2.482 -0.1650 -0.0815  0.0116
 1348BOLB   C4D32352  13.183   4.950   2.797  0.0868 -0.1603  0.0410
 1349BOLB   NC132353  19.458  14.586   9.616  0.1858 -0.0599  0.1191
 1349BOLB   PO132354  19.421  14.198   9.494  0.2401  0.0704 -0.3022
 1349BOLB   GL132355  19.452  14.062   9.080 -0.0523 -0.4060  0.0919
 1349BOLB   GL232356  19.141  13.945   9.037  0.1151  0.0375  0.2775
 1349BOLB   C1A32357  19.588  14.143   8.697 -0.0394 -0.0809 -0.0082
 1349BOLB   C2A32358  19.830  14.423   8.449 -0.0240  0.0065 -0.3119
 1349BOLB   C3A32359  19.748  14.627   8.025 -0.0722 -0.0626  0.0632
 1349BOLB   C4A32360  19.845  14.846   7.702  0.5112  0.1530 -0.2428
 1349BOLB   C1B32361  19.122  14.171   8.661 -0.1320  0.0332  0.1005
 1349BOLB   C2B32362  19.176  14.497   8.396 -0.2777 -0.0423  0.0072
 1349BOLB   C3B32363  19.325  14.492   7.903  0.5081  0.2752 -0.2020
 1349BOLB   C4B32364  19.319  14.443   7.347 -0.2330 -0.0476  0.0316
 1349BOLB   NC232365  21.836  15.677   6.858  0.1142  0.2091  0.0709
 1349BOLB   PO232366  22.105  15.285   6.782  0.1361  0.2263  0.0494
 1349BOLB   GL332367  21.715  15.166   7.024  0.0046  0.1566  0.3635
 1349BOLB   GL432368  21.816  15.169   7.206 -0.0379  0.1200 -0.0960
 1349BOLB   C1C32369  21.289  15.336   6.928  0.0952  0.0113  0.4165
 1349BOLB   C2C32370  20.898  15.151   6.952  0.0933  0.1639 -0.0021
 1349BOLB   C3C32371  20.695  14.950   7.291 -0.0126  0.1991  0.2951
 1349BOLB   C4C32372  20.169  14.915   7.407  0.1476  0.2450  0.1969
 1349BOLB   C1D32373  21.482  15.267   7.441 -0.5721 -0.4012  0.0634
 1349BOLB   C2D32374  21.024  15.326   7.439  0.1164  0.0557 -0.1683
 1349BOLB   C3D32375  20.737  15.118   7.765 -0.1435 -0.0944  0.0772
 1349BOLB   C4D32376  20.494  14.884   7.796  0.3826  0.0263 -0.2433
 1350BOLB   NC132377  14.806   2.529  18.201 -0.0796  0.0772  0.2160
 1350BOLB   PO132378  14.612   2.528  18.615 -0.2689  0.1839 -0.0482
 1350BOLB   GL132379  14.307   2.156  18.871  0.1294  0.1669  0.4386
 1350BOLB   GL232380  13.907   2.057  18.891  0.0419  0.0320 -0.0030
 1350BOLB   C1A32381  14.359   1.911  19.278  0.0387 -0.1100  0.1545
 1350BOLB   C2A32382  14.520   1.537  19.594 -0.1272 -0.0052 -0.1300
 1350BOLB   C3A32383  14.715   1.378  19.940  0.0778  0.0693 -0.0761
 1350BOLB   C4A32384  14.816   1.208  20.327 -0.0498 -0.0153 -0.3043
 1350BOLB   C1B32385  13.679   1.815  18.953 -0.1165  0.2201 -0.0332
 1350BOLB   C2B32386  13.580   1.502  19.155 -0.0833 -0.0689 -0.1301
 1350BOLB   C3B32387  13.688   1.149  19.481 -0.0076 -0.2118 -0.2143
 1350BOLB   C4B32388  13.721   1.235  19.853 -0.0375 -0.3242 -0.2458
 1350BOLB   NC232389  13.886   0.363  22.771  0.4166  0.0277 -0.1765
 1350BOLB   PO232390  14.088   0.055  22.384  0.1877 -0.0743  0.1986
 1350BOLB   GL332391  14.340   0.240  22.073  0.1034  0.1070  0.1909
 1350BOLB   GL432392  14.412  -0.091  21.923 -0.0519  0.0547 -0.2008
 1350BOLB   C1C32393  14.577   0.555  21.777  0.2121  0.2092  0.0847
 1350BOLB   C2C32394  14.496   0.950  21.561  0.3310  0.1673 -0.4816
 1350BOLB   C3C32395  14.449   1.125  21.109 -0.2350  0.3889 -0.3109
 1350BOLB   C4C32396  14.699   1.291  20.766 -0.0817  0.0041  0.3385
 1350BOLB   C1D32397  14.466   0.157  21.542  0.0981  0.0784 -0.1169
 1350BOLB   C2D32398  14.446   0.478  21.266 -0.0138 -0.1612  0.0505
 1350BOLB   C3D32399  14.526   0.745  20.863  0.1023  0.3118  0.1600
 1350BOLB   C4D32400  14.342   0.939  20.517 -0.1644 -0.0572  0.0348
 1351BOLB   NC132401  14.332  15.165   4.552 -0.0993 -0.2214 -0.3413
 1351BOLB   PO132402  14.534  15.390   4.945 -0.3736  0.0656 -0.2557
 1351BOLB   GL132403  14.584  15.284   5.375 -0.0531 -0.2002  0.1799
 1351BOLB   GL232404  14.610  14.992   5.523 -0.0018  0.1218  0.3203
 1351BOLB   C1A32405  14.345  15.364   5.822 -0.2185 -0.0322 -0.1945
 1351BOLB   C2A32406  13.904  15.404   6.127 -0.0694 -0.2196  0.1455
 1351BOLB   C3A32407  13.799  14.983   6.279 -0.0722 -0.0962  0.3232
 1351BOLB   C4A32408  13.966  14.600   6.481 -0.0406  0.0068  0.0389
 1351BOLB   C1B32409  14.855  14.672   5.683 -0.0544 -0.1009  0.1193
 1351BOLB   C2B32410  14.979  14.541   6.082  0.0291  0.2047 -0.1597
 1351BOLB   C3B32411  14.827  14.229   6.387  0.3473 -0.2694  0.2042
 1351BOLB   C4B32412  14.971  13.907   6.712  0.0584 -0.0816 -0.0809
 1351BOLB   NC232413  13.853  14.938   8.908  0.4042 -0.2051 -0.1999
 1351BOLB   PO232414  14.059  14.663   8.548  0.1283  0.1569  0.1585
 1351BOLB   GL332415  13.908  14.421   8.145  0.0325 -0.1389 -0.4921
 1351BOLB   GL432416  13.582  14.364   8.174 -0.1945 -0.0604 -0.0562
 1351BOLB   C1C32417  13.954  14.203   7.798 -0.1835 -0.0975  0.0964
 1351BOLB   C2C32418  13.986  14.117   7.401  0.0180  0.0097 -0.0784
 1351BOLB   C3C32419  14.087  13.979   7.131  0.1719  0.0975  0.1934
 1351BOLB   C4C32420  14.031  14.259   6.846  0.1493  0.0144  0.0798
 1351BOLB   C1D32421  13.593  14.515   7.724  0.0966 -0.1453 -0.1485
 1351BOLB   C2D32422  13.521  14.321   7.268 -0.0379  0.3121  0.0376
 1351BOLB   C3D32423  13.470  14.397   6.892  0.1330  0.1142  0.4263
 1351BOLB   C4D32424  13.086  14.234   6.612 -0.1794 -0.0591  0.1908
 1352BOLB   NC132425  18.163  13.476   8.670  0.1830  0.0726 -0.2440
 1352BOLB   PO132426  18.272  13.008   8.505  0.1920 -0.0035  0.4700
 1352BOLB   GL132427  18.142  13.019   8.069  0.3694  0.1506 -0.2027
 1352BOLB   GL232428  18.282  12.697   8.074  0.0413 -0.0725  0.0559
 1352BOLB   C1A32429  18.031  13.267   7.737 -0.1386 -0.1940 -0.0802
 1352BOLB   C2A32430  17.996  13.338   7.290 -0.0141  0.3258 -0.2755
 1352BOLB   C3A32431  17.913  13.666   6.944  0.1387  0.2233 -0.0438
 1352BOLB   C4A32432  18.212  13.800   6.639 -0.1792  0.1323  0.3720
 1352BOLB   C1B32433  18.378  12.699   7.630  0.1104 -0.3126  0.0724
 1352BOLB   C2B32434  18.378  12.975   7.259 -0.2460  0.1961 -0.2731
 1352BOLB   C3B32435  18.428  13.307   6.985  0.0651 -0.0812  0.1326
 1352BOLB   C4B32436  18.617  13.785   7.135 -0.1879 -0.3142 -0.2711
 1352BOLB   NC232437  19.190  13.681   4.159 -0.1562  0.2204 -0.1629
 1352BOLB   PO232438  19.223  13.657   4.602  0.0253 -0.2753 -0.1023
 1352BOLB   GL332439  18.876  13.578   4.865  0.4379 -0.0836 -0.1469
 1352BOLB   GL432440  18.506  13.642   4.801  0.2935 -0.0381 -0.0956
 1352BOLB   C1C32441  18.770  13.476   5.317 -0.1387 -0.0090 -0.2119
 1352BOLB   C2C32442  18.810  13.366   5.786  0.2643  0.2122 -0.1120
 1352BOLB   C3C32443  18.677  13.416   6.082 -0.1073 -0.2862 -0.1871
 1352BOLB   C4C32444  18.636  13.634   6.522  0.0793 -0.1059  0.3854
 1352BOLB   C1D32445  18.537  13.960   5.085  0.0475 -0.1726  0.3674
 1352BOLB   C2D32446  18.860  13.964   5.409 -0.3850  0.1299  0.0976
 1352BOLB   C3D32447  19.005  14.142   5.803  0.1211 -0.2864  0.0045
 1352BOLB   C4D32448  19.330  14.422   5.897 -0.0598 -0.0363  0.3479
 1353BOLB   NC132449   9.601   7.479  19.098  0.1440  0.2858 -0.0588
 1353BOLB   PO132450   9.257   7.371  19.384 -0.0722 -0.0074 -0.2584
 1353BOLB   GL132451   8.918   7.216  19.685  0.0087 -0.1817  0.0799
 1353BOLB   GL232452   8.967   6.986  19.827  0.3971  0.0701  0.2110
 1353BOLB   C1A32453   8.528   7.412  19.948 -0.0780 -0.3020  0.0536
 1353BOLB   C2A32454   8.215   7.308  20.402  0.0008 -0.0131 -0.1173
 1353BOLB   C3A32455   8.171   7.409  20.871 -0.0475  0.0979  0.0525
 1353BOLB   C4A32456   8.005   7.152  21.130 -0.2676  0.1318 -0.0709
 1353BOLB   C1B32457   8.507   6.910  19.910  0.0381  0.0547  0.1483
 1353BOLB   C2B32458   8.117   6.865  20.140  0.0480 -0.1152 -0.3132
 1353BOLB   C3B32459   7.742   6.933  20.429  0.0145 -0.4070  0.0161
 1353BOLB   C4B32460   7.779   7.157  20.698 -0.0187 -0.0529 -0.2541
 1353BOLB   NC232461   6.085   6.235  22.457  0.1738 -0.0351  0.0289
 1353BOLB   PO232462   6.228   6.619  22.715 -0.2893  0.0771  0.4105
 1353BOLB   GL332463   6.435   6.613  22.313  0.2362 -0.3453  0.0763
 1353BOLB   GL432464   6.245   6.861  22.228  0.0599 -0.3885  0.3335
 1353BOLB   C1C32465   6.640   6.531  21.919 -0.0003 -0.2074  0.1087
 1353BOLB   C2C32466   6.890   6.761  21.651  0.2863 -0.1490  0.4450
 1353BOLB   C3C32467   7.302   6.900  21.471 -0.2848 -0.2264  0.1346
 1353BOLB   C4C32468   7.607   7.229  21.233 -0.2363  0.0876  0.0937
 1353BOLB   C1D32469   6.648   7.027  22.214  0.2546  0.1169  0.0204
 1353BOLB   C2D32470   6.981   6.784  22.143  0.1855  0.1679 -0.4163
 1353BOLB   C3D32471   7.172   6.504  22.008  0.1895  0.0493  0.0196
 1353BOLB   C4D32472   7.245   6.294  21.720 -0.1337 -0.0080  0.2110
 1354BOLB   NC132473  11.093   8.995  21.540  0.0307 -0.1292  0.5344
 1354BOLB   PO132474  10.652   8.845  21.447  0.1572 -0.1177  0.4855
 1354BOLB   GL132475  10.405   8.818  21.824  0.4277 -0.1956 -0.0677
 1354BOLB   GL232476  10.617   8.646  22.026 -0.1790 -0.1815  0.1002
 1354BOLB   C1A32477  10.053   8.656  22.045  0.1133 -0.0786 -0.1380
 1354BOLB   C2A32478   9.800   8.907  22.272  0.0722 -0.1536  0.0975
 1354BOLB   C3A32479   9.478   9.125  22.241  0.1013  0.0038  0.0771
 1354BOLB   C4A32480   9.186   9.459  22.460 -0.3150  0.2143 -0.2166
 1354BOLB   C1B32481  10.310   8.719  22.432 -0.0820 -0.1297 -0.3235
 1354BOLB   C2B32482  10.398   8.853  22.873 -0.1548 -0.0807 -0.1169
 1354BOLB   C3B32483  10.322   9.002  23.280 -0.1956 -0.2967 -0.0436
 1354BOLB   C4B32484  10.395   9.196  23.747 -0.0254  0.0524  0.0305
 1354BOLB   NC232485   8.343  10.850  24.362  0.1992 -0.2259  0.1824
 1354BOLB   PO232486   7.961  10.767  24.117  0.1901 -0.1895  0.1764
 1354BOLB   GL332487   8.234  10.536  23.938  0.1409 -0.2321  0.1765
 1354BOLB   GL432488   8.491  10.396  24.168  0.0225  0.1624  0.1273
 1354BOLB   C1C32489   8.348  10.320  23.487 -0.1590  0.1511 -0.0553
 1354BOLB   C2C32490   8.345  10.037  23.168 -0.2177 -0.1617  0.1959
 1354BOLB   C3C32491   8.495   9.831  22.842 -0.0440 -0.0386  0.2795
 1354BOLB   C4C32492   8.748   9.474  22.713  0.2470  0.1936 -0.1280
 1354BOLB   C1D32493   8.767  10.265  23.729  0.1946  0.2600 -0.0222
 1354BOLB   C2D32494   8.845  10.263  23.301  0.2242 -0.0345 -0.2084
 1354BOLB   C3D32495   9.089  10.168  23.024  0.0447 -0.0758 -0.1954
 1354BOLB   C4D32496   9.348  10.029  23.182 -0.1717 -0.1259 -0.2128
 1355BOLB   NC132497  21.360   4.717  18.982  0.0181 -0.3433 -0.1519
 1355BOLB   PO132498  20.986   4.427  18.906 -0.0092 -0.0995 -0.0769
 1355BOLB   GL132499  20.950   4.071  19.130  0.1497  0.0699  0.1199
 1355BOLB   GL232500  20.594   4.081  19.141  0.2669 -0.5232 -0.1085
 1355BOLB   C1A32501  21.291   3.813  19.334 -0.0989  0.1144  0.1619
 1355BOLB   C2A32502  21.380   3.554  19.470  0.1081 -0.2000 -0.0388
 1355BOLB   C3A32503  21.566   3.258  19.624  0.0740  0.3517 -0.0359
 1355BOLB   C4A32504  21.887   3.014  19.629 -0.2732 -0.0727  0.1061
 1355BOLB   C1B32505  20.388   3.844  19.462 -0.1503 -0.0835  0.0121
 1355BOLB   C2B32506  20.401   3.666  19.843 -0.1369 -0.0268 -0.0067
 1355BOLB   C3B32507  20.570   3.439  20.105  0.0042 -0.0067  0.1237
 1355BOLB   C4B32508  20.814   3.128  19.991  0.1588  0.1881 -0.3572
 1355BOLB   NC232509  23.866   1.928  20.261  0.0979 -0.0925 -0.0340
 1355BOLB   PO232510  23.970   2.373  20.383 -0.1734  0.3694  0.2275
 1355BOLB   GL332511  23.779   2.606  20.044  0.0705 -0.0345  0.2981
 1355BOLB   GL432512  24.004   2.887  20.106  0.4777 -0.1112 -0.0731
 1355BOLB   C1C32513  23.363   2.632  19.857  0.3959  0.0472 -0.5314
 1355BOLB   C2C32514  23.036   2.833  19.620  0.0057 -0.1333  0.1119
 1355BOLB   C3C32515  22.666   3.046  19.333 -0.0593  0.2655 -0.2652
 1355BOLB   C4C32516  22.335   2.832  19.496  0.0157  0.1813  0.1232
 1355BOLB   C1D32517  23.596   3.082  20.116  0.0591  0.1339  0.2787
 1355BOLB   C2D32518  23.381   3.313  20.419  0.0717 -0.1931  0.1120
 1355BOLB   C3D32519  22.999   3.225  20.638 -0.1333  0.2660 -0.0751
 1355BOLB   C4D32520  22.764   2.904  20.693  0.0507  0.1101  0.2340
 1356BOLB   NC132521  16.205   0.764  23.191  0.0071 -0.0814 -0.0537
 1356BOLB   PO132522  16.242   1.063  23.476 -0.2741  0.0816 -0.1864
 1356BOLB   GL132523  16.117   1.418  23.270 -0.3315  0.1251 -0.1973
 1356BOLB   GL232524  15.836   1.436  23.460 -0.3956  0.0372 -0.1509
 1356BOLB   C1A32525  16.075   1.580  22.815  0.1332 -0.2015 -0.0780
 1356BOLB   C2A32526  16.108   1.911  22.620  0.1289  0.1146 -0.0408
 1356BOLB   C3A32527  16.465   2.155  22.373 -0.0852  0.1040 -0.1144
 1356BOLB   C4A32528  16.841   2.529  22.320 -0.1282 -0.2499 -0.3754
 1356BOLB   C1B32529  15.583   1.603  23.068 -0.1901  0.1602  0.0427
 1356BOLB   C2B32530  15.564   1.859  22.729 -0.2204  0.0206 -0.2579
 1356BOLB   C3B32531  15.494   2.077  22.458 -0.1351 -0.0945  0.1600
 1356BOLB   C4B32532  15.175   2.275  22.296  0.0299  0.1655  0.0713
 1356BOLB   NC232533  18.899   1.917  23.951  0.0654 -0.2509  0.2716
 1356BOLB   PO232534  18.433   1.886  23.782 -0.0675 -0.0925  0.0018
 1356BOLB   GL332535  18.346   1.915  23.393  0.1001 -0.1401 -0.2221
 1356BOLB   GL432536  18.031   1.714  23.180 -0.0144  0.0135  0.2445
 1356BOLB   C1C32537  18.252   2.205  22.980 -0.0386  0.1657  0.0904
 1356BOLB   C2C32538  17.993   2.392  22.793  0.2176  0.1654  0.1544
 1356BOLB   C3C32539  17.585   2.543  22.907  0.2152 -0.1238  0.1872
 1356BOLB   C4C32540  17.237   2.688  22.508 -0.0122  0.1257 -0.2414
 1356BOLB   C1D32541  18.061   1.781  22.663 -0.1294 -0.0204 -0.1310
 1356BOLB   C2D32542  17.865   2.047  22.382 -0.1030 -0.0502  0.2965
 1356BOLB   C3D32543  17.548   1.733  22.230  0.0664 -0.1128  0.1910
 1356BOLB   C4D32544  17.238   1.581  21.955 -0.2732 -0.0733 -0.0454
 1357BOLB   NC132545  19.269  14.014   9.918  0.0635  0.0208  0.1311
 1357BOLB   PO132546  18.929  14.066   9.482  0.1359 -0.0770  0.0334
 1357BOLB   GL132547  19.215  14.458   9.176  0.0116 -0.3685  0.0966
 1357BOLB   GL232548  18.999  14.514   8.916 -0.1959  0.2961 -0.1240
 1357BOLB   C1A32549  19.517  14.578   8.835  0.0741  0.1992 -0.1192
 1357BOLB   C2A32550  19.524  14.846   8.581 -0.1601 -0.0579  0.0757
 1357BOLB   C3A32551  19.728  15.053   8.403 -0.3803  0.1232  0.1060
 1357BOLB   C4A32552  19.889  15.287   8.072  0.0133 -0.1167 -0.1302
 1357BOLB   C1B32553  18.771  14.707   8.619  0.0810  0.0144  0.1708
 1357BOLB   C2B32554  18.775  14.942   8.254 -0.0083 -0.0177  0.0430
 1357BOLB   C3B32555  18.900  15.080   7.887  0.0250  0.5898 -0.0641
 1357BOLB   C4B32556  19.199  15.439   7.714  0.2500  0.0921  0.1415
 1357BOLB   NC232557  21.154  16.854   6.751 -0.1169 -0.3393  0.0563
 1357BOLB   PO232558  20.753  16.809   6.500  0.0538 -0.3165  0.5793
 1357BOLB   GL332559  20.715  16.516   6.755 -0.0917 -0.2535  0.2429
 1357BOLB   GL432560  20.907  16.309   6.651  0.1625  0.0478 -0.3134
 1357BOLB   C1C32561  20.424  16.126   6.836 -0.0091 -0.2430  0.1793
 1357BOLB   C2C32562  20.310  15.725   7.091  0.0012  0.0796 -0.1754
 1357BOLB   C3C32563  20.430  15.379   7.400  0.2319  0.0922  0.0496
 1357BOLB   C4C32564  20.167  15.323   7.732 -0.0401  0.1003  0.0539
 1357BOLB   C1D32565  20.829  16.267   7.134 -0.5220 -0.4239  0.0559
 1357BOLB   C2D32566  20.510  16.195   7.411 -0.0417  0.0418 -0.0727
 1357BOLB   C3D32567  20.119  16.024   7.448 -0.1145 -0.0675 -0.0004
 1357BOLB   C4D32568  19.720  15.878   7.558 -0.0015  0.0173  0.3810
 1358BOLB   NC132569  13.156  17.700  13.191  0.2792  0.2857  0.1675
 1358BOLB   PO132570  13.231  17.592  13.661  0.0343  0.0004  0.3710
 1358BOLB   GL132571  12.933  17.972  13.716 -0.0269  0.0861 -0.0667
 1358BOLB   GL232572  13.093  18.089  13.448 -0.2025 -0.2043 -0.1594
 1358BOLB   C1A32573  12.707  18.347  13.800 -0.1413  0.1739  0.6119
 1358BOLB   C2A32574  12.409  18.584  13.652 -0.0214 -0.0547 -0.1568
 1358BOLB   C3A32575  12.103  18.921  13.895  0.0574 -0.1320 -0.1410
 1358BOLB   C4A32576  11.852  19.109  14.187 -0.0704 -0.1646 -0.2614
 1358BOLB   C1B32577  12.978  18.477  13.259  0.0780  0.0066  0.1799
 1358BOLB   C2B32578  12.866  18.980  13.339  0.1582 -0.2390 -0.1346
 1358BOLB   C3B32579  12.501  19.288  13.302 -0.1458 -0.1285  0.2041
 1358BOLB   C4B32580  12.103  19.087  13.414 -0.1899 -0.0235 -0.1091
 1358BOLB   NC232581  11.013  21.334  13.562  0.2725 -0.0404 -0.1285
 1358BOLB   PO232582  10.859  21.168  13.924  0.0833  0.2188  0.2657
 1358BOLB   GL332583  11.124  21.011  14.005 -0.3389  0.1750 -0.0626
 1358BOLB   GL432584  10.893  20.918  14.280  0.4252  0.2643 -0.3562
 1358BOLB   C1C32585  11.270  20.625  14.325 -0.1719 -0.2323 -0.0341
 1358BOLB   C2C32586  11.274  20.171  14.471  0.1920 -0.6158  0.3595
 1358BOLB   C3C32587  11.503  19.856  14.356  0.4564  0.1550  0.0764
 1358BOLB   C4C32588  11.775  19.496  14.321 -0.1577 -0.1773 -0.1755
 1358BOLB   C1D32589  10.829  20.497  14.153  0.0290 -0.0302  0.0986
 1358BOLB   C2D32590  10.846  20.041  14.075  0.1549  0.3687 -0.0468
 1358BOLB   C3D32591  11.127  19.689  14.036 -0.0507 -0.2930 -0.0671
 1358BOLB   C4D32592  11.368  19.303  14.127 -0.2796 -0.1686  0.0257
 1359BOLB   NC132593  18.510  11.446  23.427  0.1913 -0.1880 -0.2637
 1359BOLB   PO132594  18.715  11.308  23.640 -0.0754 -0.0790  0.2798
 1359BOLB   GL132595  18.724  11.409  24.064 -0.0334  0.0961  0.2516
 1359BOLB   GL232596  18.401  11.372  24.259 -0.5432 -0.1050 -0.0426
 1359BOLB   C1A32597  18.862  11.323  24.369  0.1125 -0.0086  0.1862
 1359BOLB   C2A32598  18.991  11.372  24.762  0.0942 -0.3906 -0.1098
 1359BOLB   C3A32599  19.237  11.200  25.187  0.4317  0.0961  0.3810
 1359BOLB   C4A32600  19.761  11.024  25.245  0.1156  0.0564 -0.0260
 1359BOLB   C1B32601  18.226  11.062  24.503 -0.2221 -0.1586  0.2292
 1359BOLB   C2B32602  18.063  11.116  24.856 -0.3577  0.0456 -0.0411
 1359BOLB   C3B32603  18.111  11.338  25.215  0.0366 -0.1758 -0.1156
 1359BOLB   C4B32604  17.995  11.742  25.203 -0.0403  0.0673 -0.1551
 1359BOLB   NC232605  21.044  10.890  27.458  0.1115 -0.0708 -0.1576
 1359BOLB   PO232606  20.686  11.011  27.330  0.2909 -0.1138  0.0526
 1359BOLB   GL332607  20.631  10.865  26.970 -0.0326 -0.0732  0.1477
 1359BOLB   GL432608  20.760  11.150  26.767  0.1725  0.2735  0.2453
 1359BOLB   C1C32609  20.365  10.881  26.668 -0.0339 -0.2211  0.1975
 1359BOLB   C2C32610  20.063  10.867  26.436  0.2348 -0.0255 -0.1697
 1359BOLB   C3C32611  19.767  10.715  26.081  0.1494 -0.1290  0.0617
 1359BOLB   C4C32612  19.865  10.726  25.673  0.4613 -0.1553 -0.1358
 1359BOLB   C1D32613  20.931  11.358  26.398 -0.0789 -0.0219 -0.2293
 1359BOLB   C2D32614  21.154  11.501  25.902  0.1167 -0.2145 -0.0370
 1359BOLB   C3D32615  21.535  11.323  25.666 -0.1830  0.1972 -0.1941
 1359BOLB   C4D32616  21.681  10.949  25.439 -0.3410 -0.0550 -0.0874
 1360BOLB   NC132617  15.558   5.798  22.146 -0.0490 -0.1367  0.1903
 1360BOLB   PO132618  15.903   5.429  22.302  0.3084 -0.3802  0.3078
 1360BOLB   GL132619  15.970   5.272  22.663  0.1980 -0.0410  0.3052
 1360BOLB   GL232620  15.681   5.103  22.726 -0.0448  0.1151 -0.0154
 1360BOLB   C1A32621  15.914   5.222  23.115  0.0813  0.0271 -0.0048
 1360BOLB   C2A32622  16.211   5.199  23.431  0.2296 -0.0178 -0.3491
 1360BOLB   C3A32623  16.462   5.217  23.731 -0.1687 -0.1317 -0.1988
 1360BOLB   C4A32624  16.886   5.160  24.096 -0.0868 -0.2029 -0.1405
 1360BOLB   C1B32625  15.624   4.730  23.105 -0.7098 -0.2305  0.0589
 1360BOLB   C2B32626  15.727   4.917  23.446  0.1884  0.1126  0.0517
 1360BOLB   C3B32627  16.147   4.766  23.603  0.0141  0.0090 -0.1373
 1360BOLB   C4B32628  16.388   4.802  24.007  0.1211  0.5680 -0.1338
 1360BOLB   NC232629  18.402   4.086  25.670  0.2231 -0.3992 -0.1022
 1360BOLB   PO232630  18.674   4.042  25.355 -0.1760 -0.1854  0.1781
 1360BOLB   GL332631  18.312   4.250  25.217 -0.2812  0.0310  0.2035
 1360BOLB   GL432632  18.442   4.310  24.957  0.2438 -0.1141  0.0413
 1360BOLB   C1C32633  18.076   4.569  25.289  0.1653 -0.1935 -0.2642
 1360BOLB   C2C32634  17.666   4.702  25.141 -0.1556 -0.0492  0.2567
 1360BOLB   C3C32635  17.378   4.805  24.826 -0.1632  0.0798  0.0907
 1360BOLB   C4C32636  17.226   5.016  24.392 -0.2162  0.0740  0.0046
 1360BOLB   C1D32637  18.248   4.721  24.751 -0.1049  0.6722  0.1690
 1360BOLB   C2D32638  18.298   5.064  24.510  0.0335 -0.3358  0.3106
 1360BOLB   C3D32639  18.420   5.421  24.124 -0.0913  0.1958 -0.0462
 1360BOLB   C4D32640  18.265   5.668  23.782 -0.0397 -0.1261 -0.3907
 1361BOLB   NC132641  18.513  18.687  17.946  0.1540 -0.3122 -0.4830
 1361BOLB   PO132642  18.707  18.439  17.563  0.3311 -0.0446 -0.2293
 1361BOLB   GL132643  18.869  18.792  17.632  0.0042  0.1789 -0.1593
 1361BOLB   GL232644  19.274  18.790  17.582  0.0434 -0.2936  0.1759
 1361BOLB   C1A32645  19.021  19.047  18.051  0.0122 -0.1360 -0.0475
 1361BOLB   C2A32646  19.122  19.350  18.388 -0.2311  0.0363 -0.1638
 1361BOLB   C3A32647  19.390  19.638  18.664  0.2497 -0.1066 -0.1005
 1361BOLB   C4A32648  19.579  19.979  18.800  0.0052 -0.2814 -0.0571
 1361BOLB   C1B32649  19.371  19.128  17.681 -0.1601  0.0450 -0.4137
 1361BOLB   C2B32650  19.770  19.381  17.743 -0.1444 -0.1837  0.0569
 1361BOLB   C3B32651  20.132  19.524  17.903 -0.0804 -0.0086  0.2824
 1361BOLB   C4B32652  20.359  19.350  18.229  0.0714 -0.0006 -0.0692
 1361BOLB   NC232653  20.294  21.615  19.712 -0.1666  0.1385 -0.1521
 1361BOLB   PO232654  20.707  21.479  19.662 -0.0228 -0.1379 -0.2011
 1361BOLB   GL332655  20.601  21.147  19.512 -0.0977  0.0522  0.1548
 1361BOLB   GL432656  20.362  21.129  19.525  0.1613  0.0613 -0.0641
 1361BOLB   C1C32657  20.666  20.857  19.088 -0.0174  0.0927  0.1884
 1361BOLB   C2C32658  20.487  20.816  18.628  0.2408 -0.0011  0.1771
 1361BOLB   C3C32659  20.238  20.457  18.462 -0.1039  0.2031 -0.1052
 1361BOLB   C4C32660  19.927  20.226  18.731 -0.0634  0.1580  0.0727
 1361BOLB   C1D32661  19.990  20.875  19.509 -0.0383 -0.1128  0.0086
 1361BOLB   C2D32662  19.949  20.497  19.345 -0.0003  0.0519 -0.3731
 1361BOLB   C3D32663  19.639  20.238  19.249 -0.1086  0.1453  0.2578
 1361BOLB   C4D32664  19.219  20.287  19.121  0.0948 -0.0096 -0.2068
 1362BOLB   NC132665  14.975   5.725  21.426  0.2778 -0.0952 -0.0308
 1362BOLB   PO132666  15.138   5.845  21.879 -0.0343 -0.1097 -0.0387
 1362BOLB   GL132667  15.041   5.696  22.302 -0.4830 -0.0396 -0.1728
 1362BOLB   GL232668  15.259   5.435  22.355  0.0267 -0.1698  0.0621
 1362BOLB   C1A32669  14.799   5.407  22.468  0.2725  0.1331  0.1038
 1362BOLB   C2A32670  14.579   5.324  22.782 -0.2210 -0.2721  0.0865
 1362BOLB   C3A32671  14.424   5.364  23.066 -0.0513  0.3592  0.1213
 1362BOLB   C4A32672  14.547   5.211  23.302 -0.2330  0.0462  0.2600
 1362BOLB   C1B32673  15.207   5.171  22.698  0.2122 -0.1354  0.0197
 1362BOLB   C2B32674  14.914   4.911  22.957 -0.0684 -0.2935  0.0044
 1362BOLB   C3B32675  14.658   4.503  23.089  0.2346 -0.2330 -0.2418
 1362BOLB   C4B32676  14.231   4.275  23.103 -0.0345  0.0446 -0.0268
 1362BOLB   NC232677  14.664   3.435  25.055  0.0940  0.1542  0.1352
 1362BOLB   PO232678  15.107   3.452  25.281  0.2826  0.0279  0.2148
 1362BOLB   GL332679  15.162   3.703  24.795  0.0382  0.0078  0.3919
 1362BOLB   GL432680  15.273   3.530  24.521  0.1466  0.1018 -0.1564
 1362BOLB   C1C32681  14.988   3.911  24.382 -0.0232  0.1689 -0.2671
 1362BOLB   C2C32682  15.107   4.346  24.280 -0.0973 -0.2189  0.2117
 1362BOLB   C3C32683  14.962   4.820  24.026  0.0188  0.0123 -0.1910
 1362BOLB   C4C32684  14.692   5.139  23.795  0.1726  0.0827 -0.0517
 1362BOLB   C1D32685  15.446   3.401  24.119  0.0614 -0.0129 -0.0525
 1362BOLB   C2D32686  15.727   3.626  23.901  0.2265 -0.0811  0.1134
 1362BOLB   C3D32687  15.863   3.956  23.974  0.1103  0.3268 -0.2545
 1362BOLB   C4D32688  15.812   4.469  23.804 -0.1541  0.0950  0.0345
 1363BOLB   NC132689  15.350  17.719  20.053  0.2760 -0.3127  0.0217
 1363BOLB   PO132690  15.488  18.024  19.852 -0.3290 -0.0961 -0.0774
 1363BOLB   GL132691  15.683  18.414  19.826  0.1674  0.2350  0.1085
 1363BOLB   GL232692  16.016  18.395  19.772  0.3151 -0.0340 -0.0421
 1363BOLB   C1A32693  15.621  18.720  19.990  0.1340 -0.1373 -0.0637
 1363BOLB   C2A32694  15.472  19.018  20.217  0.0598  0.0782  0.2480
 1363BOLB   C3A32695  15.216  19.322  20.240  0.1029 -0.0136  0.0324
 1363BOLB   C4A32696  14.995  19.600  20.478  0.1215 -0.0736 -0.1120
 1363BOLB   C1B32697  16.072  18.821  19.711 -0.1516  0.0359  0.1776
 1363BOLB   C2B32698  16.263  19.152  19.892 -0.2199  0.0613  0.4003
 1363BOLB   C3B32699  16.286  19.443  20.218 -0.1236 -0.0844  0.0605
 1363BOLB   C4B32700  16.148  19.753  20.344 -0.1201 -0.1520  0.2326
 1363BOLB   NC232701  14.881  21.642  21.550 -0.0826  0.2058 -0.1716
 1363BOLB   PO232702  15.268  21.503  21.581 -0.3788  0.0444 -0.1533
 1363BOLB   GL332703  15.474  21.328  21.367  0.2651  0.2399 -0.1786
 1363BOLB   GL432704  15.751  21.351  21.519  0.1589  0.1439  0.0185
 1363BOLB   C1C32705  15.360  20.899  21.333  0.0768  0.1373 -0.0426
 1363BOLB   C2C32706  15.204  20.562  21.220 -0.1074 -0.3318  0.1398
 1363BOLB   C3C32707  14.969  20.319  20.866 -0.0621 -0.4156  0.1268
 1363BOLB   C4C32708  14.840  19.938  20.660  0.4794 -0.0783  0.0331
 1363BOLB   C1D32709  15.822  20.991  21.593  0.3039 -0.0428  0.3012
 1363BOLB   C2D32710  15.718  20.624  21.495 -0.3652  0.1419 -0.2012
 1363BOLB   C3D32711  15.813  20.279  21.200  0.2015 -0.3582 -0.0086
 1363BOLB   C4D32712  15.491  20.171  20.955 -0.2491 -0.0558 -0.1939
 1364BOLB   NC132713  20.919  16.624  13.633  0.0608 -0.2684 -0.2061
 1364BOLB   PO132714  21.220  16.850  13.844 -0.1506 -0.3213  0.1722
 1364BOLB   GL132715  21.563  17.158  13.545  0.0892 -0.0119 -0.1115
 1364BOLB   GL232716  21.683  17.213  13.860 -0.3125  0.0700  0.3330
 1364BOLB   C1A32717  21.929  17.364  13.428  0.0445  0.0502  0.2967
 1364BOLB   C2A32718  22.432  17.488  13.346 -0.1968 -0.1263 -0.0631
 1364BOLB   C3A32719  22.862  17.735  13.303  0.2788 -0.0016  0.0218
 1364BOLB   C4A32720  23.340  17.625  13.299  0.3083  0.0866 -0.0234
 1364BOLB   C1B32721  21.843  17.578  13.874 -0.0920  0.0511 -0.2149
 1364BOLB   C2B32722  21.695  17.947  13.653 -0.0439  0.0394 -0.0000
 1364BOLB   C3B32723  21.822  18.421  13.829 -0.0284 -0.6050 -0.2612
 1364BOLB   C4B32724  22.153  18.726  13.744 -0.2998 -0.3908  0.1395
 1364BOLB   NC232725  25.506  17.826  12.417  0.1537 -0.1365 -0.0654
 1364BOLB   PO232726  25.541  17.493  12.754 -0.1825 -0.0401 -0.1800
 1364BOLB   GL332727  25.158  17.514  12.758 -0.0535 -0.0792  0.0178
 1364BOLB   GL432728  25.050  17.457  13.102 -0.0546  0.0013  0.1998
 1364BOLB   C1C32729  24.752  17.643  12.631 -0.2282 -0.0707 -0.1496
 1364BOLB   C2C32730  24.274  17.586  12.600  0.4289  0.1286 -0.2817
 1364BOLB   C3C32731  23.995  17.373  12.787  0.3209 -0.1484 -0.0786
 1364BOLB   C4C32732  23.601  17.557  13.027 -0.1764 -0.0466  0.3064
 1364BOLB   C1D32733  24.763  17.426  13.472  0.3256  0.0992 -0.1178
 1364BOLB   C2D32734  24.353  17.579  13.646  0.1242 -0.2493 -0.0000
 1364BOLB   C3D32735  23.940  17.700  13.749  0.2729  0.1139  0.0832
 1364BOLB   C4D32736  23.571  17.562  13.801 -0.3413 -0.1668  0.1430
 1365BOLB   NC132737  20.281   5.019  20.237  0.5335 -0.2869  0.3289
 1365BOLB   PO132738  20.143   5.395  20.419  0.0774 -0.0288 -0.1350
 1365BOLB   GL132739  20.455   5.313  20.711 -0.0197  0.0021  0.1367
 1365BOLB   GL232740  20.616   5.070  20.581 -0.0500  0.1218 -0.1874
 1365BOLB   C1A32741  20.538   4.995  21.079  0.4271 -0.0532 -0.1020
 1365BOLB   C2A32742  20.608   4.780  21.343 -0.1334  0.2482 -0.0037
 1365BOLB   C3A32743  20.691   4.566  21.693 -0.4864  0.0509  0.1078
 1365BOLB   C4A32744  20.841   4.298  22.019 -0.0041  0.1102  0.0711
 1365BOLB   C1B32745  20.906   4.778  20.884 -0.1176 -0.0997  0.0769
 1365BOLB   C2B32746  21.192   4.529  21.000  0.0979 -0.0201 -0.0242
 1365BOLB   C3B32747  21.414   4.234  21.158 -0.3450  0.2935 -0.1025
 1365BOLB   C4B32748  21.331   3.905  21.349  0.0466 -0.3464 -0.0653
 1365BOLB   NC232749  22.201   2.412  23.772  0.0183 -0.1247 -0.2052
 1365BOLB   PO232750  21.879   2.756  23.728  0.1949 -0.1548  0.1800
 1365BOLB   GL332751  21.557   3.051  23.472 -0.0111 -0.0177 -0.0939
 1365BOLB   GL432752  21.702   3.103  23.247  0.0823 -0.0865  0.1223
 1365BOLB   C1C32753  21.190   3.146  23.186  0.0687 -0.2292  0.1036
 1365BOLB   C2C32754  21.214   3.566  22.898  0.0469  0.2790  0.2811
 1365BOLB   C3C32755  21.075   3.941  22.635 -0.0812 -0.2120 -0.0245
 1365BOLB   C4C32756  21.125   4.311  22.385  0.1821 -0.0992 -0.0635
 1365BOLB   C1D32757  21.554   3.264  22.874 -0.1115  0.0667  0.0826
 1365BOLB   C2D32758  21.279   3.181  22.558  0.2515 -0.1008 -0.2063
 1365BOLB   C3D32759  21.047   3.515  22.310 -0.1538  0.1152  0.0805
 1365BOLB   C4D32760  20.923   3.771  22.015  0.0133 -0.0169  0.0221
 1366BOLB   NC132761  18.981  17.209  14.311 -0.0541  0.2651 -0.1427
 1366BOLB   PO132762  19.094  17.535  14.065  0.1432  0.2372 -0.1294
 1366BOLB   GL132763  19.314  17.876  14.006  0.1124 -0.2314  0.1845
 1366BOLB   GL232764  19.156  18.188  13.879  0.2799  0.1230 -0.1077
 1366BOLB   C1A32765  19.606  18.264  14.030  0.0487  0.0624  0.1163
 1366BOLB   C2A32766  19.783  18.621  14.093 -0.2208  0.1597 -0.3351
 1366BOLB   C3A32767  19.971  18.991  14.151  0.3544  0.2563 -0.2774
 1366BOLB   C4A32768  20.243  19.303  14.016 -0.1766 -0.0913 -0.1399
 1366BOLB   C1B32769  19.298  18.593  13.798  0.0907 -0.0106 -0.1951
 1366BOLB   C2B32770  19.447  18.980  13.913  0.2137  0.0715 -0.3580
 1366BOLB   C3B32771  19.780  19.217  13.672 -0.0773 -0.1501  0.2317
 1366BOLB   C4B32772  20.220  19.286  13.505 -0.2879  0.1768 -0.4167
 1366BOLB   NC232773  21.398  21.284  13.497 -0.1238  0.1152 -0.3058
 1366BOLB   PO232774  21.156  21.479  13.867  0.4097 -0.2704  0.0173
 1366BOLB   GL332775  20.893  21.095  13.813 -0.1367 -0.2820  0.1369
 1366BOLB   GL432776  20.560  21.230  13.876 -0.0893  0.0983 -0.1733
 1366BOLB   C1C32777  20.634  20.792  14.096  0.2036  0.0952  0.1231
 1366BOLB   C2C32778  20.431  20.337  14.161  0.0149 -0.1523 -0.3027
 1366BOLB   C3C32779  20.432  19.950  14.084  0.0111  0.0515  0.0509
 1366BOLB   C4C32780  20.493  19.568  14.189 -0.1286 -0.3188  0.2127
 1366BOLB   C1D32781  20.268  20.855  13.778 -0.0858  0.2918 -0.0171
 1366BOLB   C2D32782  19.806  20.817  13.874 -0.1378  0.1335  0.1329
 1366BOLB   C3D32783  19.570  20.569  14.180 -0.3492  0.2797  0.0404
 1366BOLB   C4D32784  19.257  20.191  14.249 -0.2507  0.1037 -0.2515
 1367BOLB   NC132785  23.282  13.533  13.158  0.1592  0.1043  0.1348
 1367BOLB   PO132786  23.395  13.556  13.584  0.3205 -0.0848 -0.0200
 1367BOLB   GL132787  23.569  13.929  13.263  0.2591 -0.0015  0.0231
 1367BOLB   GL232788  23.834  13.989  13.446 -0.0692 -0.0009  0.0364
 1367BOLB   C1A32789  23.772  14.085  12.884  0.1525  0.2698  0.3056
 1367BOLB   C2A32790  24.014  14.091  12.534  0.0026 -0.2415  0.0570
 1367BOLB   C3A32791  24.291  14.318  12.332  0.1224 -0.0935  0.2036
 1367BOLB   C4A32792  24.714  14.456  12.034 -0.1951  0.1707  0.0278
 1367BOLB   C1B32793  24.065  14.409  13.352  0.0845 -0.0997 -0.1744
 1367BOLB   C2B32794  24.378  14.425  13.064 -0.2696 -0.0520 -0.0008
 1367BOLB   C3B32795  24.495  14.490  12.761 -0.0623  0.4465  0.1382
 1367BOLB   C4B32796  24.744  14.721  12.438  0.2529  0.1836  0.0558
 1367BOLB   NC232797  26.533  15.203  10.737 -0.0758 -0.1931  0.0709
 1367BOLB   PO232798  26.341  14.902  10.478  0.4142 -0.1129  0.0474
 1367BOLB   GL332799  26.187  14.848  10.941  0.0886 -0.2289  0.3925
 1367BOLB   GL432800  26.409  14.987  11.281  0.2566 -0.0133  0.3287
 1367BOLB   C1C32801  25.911  14.855  11.193  0.3800 -0.1533  0.0086
 1367BOLB   C2C32802  25.570  14.663  11.295  0.2386  0.0457 -0.0900
 1367BOLB   C3C32803  25.250  14.580  11.368 -0.1969 -0.1222 -0.1510
 1367BOLB   C4C32804  24.997  14.430  11.631 -0.0720  0.0524  0.1850
 1367BOLB   C1D32805  26.253  14.584  11.465  0.3673  0.0719 -0.0438
 1367BOLB   C2D32806  26.056  14.407  11.724  0.1192 -0.1460  0.2760
 1367BOLB   C3D32807  25.811  14.145  11.860 -0.0030  0.0688  0.0678
 1367BOLB   C4D32808  25.446  14.017  11.992 -0.1380  0.2280 -0.0791
 1368BOLB   NC132809  23.780   9.622  13.119  0.2434  0.2150 -0.1128
 1368BOLB   PO132810  23.985   9.814  12.872  0.2084  0.0816  0.3530
 1368BOLB   GL132811  24.305   9.691  12.545  0.1045  0.0414 -0.0229
 1368BOLB   GL232812  24.151   9.389  12.351  0.0812 -0.1300  0.1359
 1368BOLB   C1A32813  24.650   9.520  12.331  0.1305  0.3098  0.1430
 1368BOLB   C2A32814  25.064   9.313  12.227 -0.0211  0.1975  0.0151
 1368BOLB   C3A32815  25.406   9.222  12.005  0.0647 -0.0639 -0.1156
 1368BOLB   C4A32816  25.872   9.175  11.841  0.0149 -0.3387  0.2031
 1368BOLB   C1B32817  24.385   9.104  12.548 -0.1654  0.2985  0.2433
 1368BOLB   C2B32818  24.808   9.096  12.711 -0.0693 -0.0880  0.0676
 1368BOLB   C3B32819  25.237   8.997  12.822  0.2908 -0.0253  0.0933
 1368BOLB   C4B32820  25.538   9.220  13.048  0.2314  0.0562 -0.1473
 1368BOLB   NC232821  26.968   9.896  10.190  0.0917 -0.2896  0.0446
 1368BOLB   PO232822  26.802   9.677   9.874  0.1339  0.2156 -0.1623
 1368BOLB   GL332823  26.591   9.538  10.257 -0.1418  0.1854 -0.1730
 1368BOLB   GL432824  26.428   9.253  10.161  0.1341  0.0859  0.1737
 1368BOLB   C1C32825  26.700   9.171  10.623  0.1909 -0.1344 -0.1486
 1368BOLB   C2C32826  26.732   8.827  10.935 -0.2893  0.4401 -0.1646
 1368BOLB   C3C32827  26.378   8.860  11.098  0.0575  0.0793 -0.4150
 1368BOLB   C4C32828  26.051   9.113  11.387  0.0816  0.3285 -0.0619
 1368BOLB   C1D32829  26.175   9.244  10.575 -0.0218  0.2419  0.1218
 1368BOLB   C2D32830  25.976   8.980  10.913  0.1730  0.2810 -0.0875
 1368BOLB   C3D32831  25.727   8.797  11.066  0.0763  0.0866  0.0201
 1368BOLB   C4D32832  25.740   8.710  11.510  0.5067 -0.3010  0.0239
 1369BOLB   NC132833  13.478   6.469  22.349  0.0294  0.1016  0.2901
 1369BOLB   PO132834  13.125   6.310  22.237 -0.4230 -0.1506 -0.2535
 1369BOLB   GL132835  13.085   6.215  22.625  0.3101  0.0062  0.0137
 1369BOLB   GL232836  13.339   6.260  22.804 -0.2056  0.0132  0.1055
 1369BOLB   C1A32837  12.856   5.873  22.844 -0.0330 -0.0907 -0.0534
 1369BOLB   C2A32838  12.703   5.791  23.290 -0.1125  0.1028 -0.0913
 1369BOLB   C3A32839  12.703   5.610  23.606  0.0854 -0.2582  0.1282
 1369BOLB   C4A32840  12.563   5.598  23.974 -0.2686 -0.1119  0.0516
 1369BOLB   C1B32841  12.943   6.369  23.064 -0.0508  0.2491 -0.1252
 1369BOLB   C2B32842  12.662   6.273  23.337 -0.2572 -0.2480  0.4440
 1369BOLB   C3B32843  12.413   6.037  23.652 -0.2360  0.2433 -0.0028
 1369BOLB   C4B32844  12.143   5.942  23.886  0.2079 -0.0412 -0.0412
 1369BOLB   NC232845  11.261   5.122  25.520 -0.1863  0.2293  0.1641
 1369BOLB   PO232846  11.108   4.738  25.381  0.2038 -0.3693 -0.0343
 1369BOLB   GL332847  11.492   4.639  25.235 -0.1523 -0.0880  0.2156
 1369BOLB   GL432848  11.708   4.961  25.305 -0.0915  0.0708 -0.1063
 1369BOLB   C1C32849  11.737   4.643  24.979  0.3379 -0.2176 -0.3609
 1369BOLB   C2C32850  12.120   4.734  24.886  0.0937  0.1725 -0.3044
 1369BOLB   C3C32851  12.279   5.104  24.506  0.2860  0.0975  0.1330
 1369BOLB   C4C32852  12.208   5.428  24.169  0.0908 -0.0269 -0.0976
 1369BOLB   C1D32853  11.867   5.181  25.053 -0.4317  0.1404 -0.0676
 1369BOLB   C2D32854  12.241   5.404  24.994 -0.1742  0.1684 -0.2637
 1369BOLB   C3D32855  12.392   5.853  25.197 -0.2938  0.0369 -0.3149
 1369BOLB   C4D32856  12.321   6.254  25.236  0.4584  0.0081  0.2031
 1370BOLB   NC132857   2.149   6.851   9.286  0.2470 -0.1650  0.1312
 1370BOLB   PO132858   1.995   6.771   9.763  0.2987  0.0088  0.2345
 1370BOLB   GL132859   2.426   6.805   9.750 -0.0127 -0.0708 -0.6446
 1370BOLB   GL232860   2.583   6.749  10.069 -0.2745  0.0255  0.3637
 1370BOLB   C1A32861   2.601   7.226   9.830 -0.0635 -0.3027  0.3203
 1370BOLB   C2A32862   2.941   7.328   9.602 -0.2041  0.2800  0.3585
 1370BOLB   C3A32863   2.943   7.767   9.311  0.0747  0.1535  0.1528
 1370BOLB   C4A32864   3.151   8.144   9.167  0.2737  0.0050  0.0074
 1370BOLB   C1B32865   2.721   7.004  10.359  0.1897  0.2696  0.0394
 1370BOLB   C2B32866   2.743   7.370  10.671 -0.2282  0.1649  0.3295
 1370BOLB   C3B32867   2.813   7.416  11.073 -0.0631  0.1733  0.0542
 1370BOLB   C4B32868   2.461   7.583  11.287 -0.0739  0.3667 -0.1449
 1370BOLB   NC232869   1.475   9.379   9.772  0.1937 -0.0177 -0.0409
 1370BOLB   PO232870   1.665   9.168   9.552 -0.0686 -0.1908 -0.0823
 1370BOLB   GL332871   2.185   9.274   9.784  0.3308  0.1758  0.0754
 1370BOLB   GL432872   2.219   9.383  10.132 -0.3188  0.0962  0.0593
 1370BOLB   C1C32873   2.532   9.116   9.740 -0.0637  0.1119 -0.0243
 1370BOLB   C2C32874   2.996   9.153   9.577 -0.0027 -0.1605  0.0185
 1370BOLB   C3C32875   3.366   8.892   9.484  0.3313 -0.0325 -0.0683
 1370BOLB   C4C32876   3.310   8.530   9.287 -0.2094 -0.4358 -0.1399
 1370BOLB   C1D32877   2.584   9.471  10.097  0.1932 -0.1290 -0.0726
 1370BOLB   C2D32878   2.938   9.249  10.117  0.4434  0.3822 -0.0347
 1370BOLB   C3D32879   3.209   8.862  10.038 -0.2113 -0.1221  0.2674
 1370BOLB   C4D32880   3.456   8.596  10.319 -0.0099  0.3460 -0.1633
 1371BOLB   NC132881  16.681   8.983   2.271  0.0522  0.0610  0.1463
 1371BOLB   PO132882  16.523   9.455   2.138 -0.0511 -0.2296 -0.2980
 1371BOLB   GL132883  16.229   9.209   2.363 -0.0685  0.4141  0.2835
 1371BOLB   GL232884  15.925   9.085   2.160 -0.5252  0.1861  0.0458
 1371BOLB   C1A32885  15.767   9.345   2.699 -0.3067  0.2642  0.1529
 1371BOLB   C2A32886  15.548   9.447   3.117  0.1975  0.2155  0.1278
 1371BOLB   C3A32887  15.589   9.200   3.573  0.1891  0.0223  0.3632
 1371BOLB   C4A32888  15.775   8.984   4.017  0.2316  0.0077 -0.0467
 1371BOLB   C1B32889  15.977   8.821   2.548 -0.1412 -0.1402  0.0135
 1371BOLB   C2B32890  16.026   8.539   2.628 -0.0699  0.2495 -0.2994
 1371BOLB   C3B32891  16.170   8.173   2.916 -0.0128  0.0678 -0.0562
 1371BOLB   C4B32892  16.013   7.898   3.200  0.0193 -0.3179 -0.1392
 1371BOLB   NC232893  18.306   9.410   3.422  0.3104  0.0972 -0.0523
 1371BOLB   PO232894  17.906   9.186   3.418  0.2035  0.0037 -0.1238
 1371BOLB   GL332895  17.616   9.210   3.718 -0.2430  0.0535  0.2343
 1371BOLB   GL432896  17.657   9.419   3.976  0.0196 -0.0778  0.4274
 1371BOLB   C1C32897  17.186   9.288   3.941 -0.1196  0.2515  0.3700
 1371BOLB   C2C32898  17.014   9.031   4.248 -0.1939 -0.3220  0.2399
 1371BOLB   C3C32899  16.585   8.806   4.281 -0.0348 -0.0463  0.1128
 1371BOLB   C4C32900  16.162   8.788   4.040 -0.0640 -0.2855 -0.0811
 1371BOLB   C1D32901  17.463   9.275   4.353  0.3177 -0.1261 -0.2676
 1371BOLB   C2D32902  17.584   8.817   4.486  0.1550  0.0298  0.1857
 1371BOLB   C3D32903  17.874   8.749   4.757 -0.0945 -0.0194  0.1898
 1371BOLB   C4D32904  18.272   8.876   4.780 -0.1525 -0.1331 -0.0616
 1372BOLB   NC132905  13.271  12.125  22.202 -0.0095 -0.0491  0.1966
 1372BOLB   PO132906  13.387  12.032  22.721 -0.0199  0.0391  0.1592
 1372BOLB   GL132907  13.507  12.240  23.161 -0.0726 -0.1007  0.0999
 1372BOLB   GL232908  13.670  12.062  23.370 -0.0231 -0.1775 -0.0881
 1372BOLB   C1A32909  13.413  12.480  23.691  0.0066 -0.0633  0.3536
 1372BOLB   C2A32910  13.083  12.667  23.898 -0.4085  0.3931 -0.1447
 1372BOLB   C3A32911  12.726  12.780  24.141  0.2210 -0.2900 -0.0405
 1372BOLB   C4A32912  12.446  13.082  24.308  0.1102  0.2050 -0.1225
 1372BOLB   C1B32913  13.827  12.161  23.818  0.1613  0.1358  0.1196
 1372BOLB   C2B32914  13.917  12.494  24.142  0.0009  0.3294  0.1881
 1372BOLB   C3B32915  13.496  12.610  24.200  0.0024  0.3628  0.3129
 1372BOLB   C4B32916  13.097  12.694  24.405 -0.2509  0.0576  0.0939
 1372BOLB   NC232917  11.909  14.238  26.443  0.0042  0.2811 -0.0773
 1372BOLB   PO232918  11.628  14.138  26.135 -0.3674  0.1546  0.1454
 1372BOLB   GL332919  11.720  13.862  25.822  0.0559  0.2907  0.1230
 1372BOLB   GL432920  11.659  13.880  25.459 -0.0854 -0.1810 -0.0269
 1372BOLB   C1C32921  12.067  13.618  25.759 -0.3122  0.4019  0.3471
 1372BOLB   C2C32922  12.411  13.529  25.499  0.0666 -0.1970 -0.1479
 1372BOLB   C3C32923  12.510  13.343  25.095  0.1516 -0.0803 -0.1830
 1372BOLB   C4C32924  12.270  13.232  24.687 -0.1426  0.0787 -0.1423
 1372BOLB   C1D32925  11.828  13.660  25.095 -0.0824 -0.1486  0.1548
 1372BOLB   C2D32926  12.098  13.669  24.693  0.2809  0.0547 -0.3733
 1372BOLB   C3D32927  12.103  13.511  24.202 -0.0354 -0.3869 -0.1555
 1372BOLB   C4D32928  12.520  13.447  23.935  0.0334 -0.0430  0.0791
 1373BOLB   NC132929  26.098  17.199  12.098  0.0433 -0.1366 -0.1737
 1373BOLB   PO132930  26.232  16.847  12.338 -0.2580 -0.3098  0.3133
 1373BOLB   GL132931  25.957  16.568  12.569  0.0362  0.0989 -0.1972
 1373BOLB   GL232932  25.882  16.699  12.901 -0.0538  0.3195  0.1386
 1373BOLB   C1A32933  25.835  16.163  12.639  0.0468 -0.0623 -0.0772
 1373BOLB   C2A32934  25.614  15.899  12.867  0.1127 -0.2779 -0.1277
 1373BOLB   C3A32935  25.275  15.703  13.076 -0.2233  0.0637 -0.0178
 1373BOLB   C4A32936  25.256  15.528  13.487  0.0388 -0.0247 -0.0070
 1373BOLB   C1B32937  25.442  16.736  12.712  0.2948 -0.1207  0.0726
 1373BOLB   C2B32938  24.987  17.079  12.795  0.1655  0.2427  0.1817
 1373BOLB   C3B32939  24.605  17.118  12.498 -0.0111  0.1995  0.1587
 1373BOLB   C4B32940  24.234  17.087  12.334 -0.1617  0.0318 -0.4451
 1373BOLB   NC232941  27.295  16.411  13.578  0.1566  0.3047  0.1540
 1373BOLB   PO232942  27.165  16.371  14.023  0.0638  0.1593 -0.2321
 1373BOLB   GL332943  26.836  16.140  14.152  0.1075  0.0475 -0.1793
 1373BOLB   GL432944  26.677  16.332  14.277  0.0323  0.0197  0.0885
 1373BOLB   C1C32945  26.530  15.828  14.367  0.0136  0.1171 -0.0494
 1373BOLB   C2C32946  26.121  15.908  14.483  0.2942  0.0300  0.0633
 1373BOLB   C3C32947  25.803  16.049  14.113 -0.1076 -0.0801 -0.2562
 1373BOLB   C4C32948  25.461  15.755  13.806  0.1137 -0.0626  0.1496
 1373BOLB   C1D32949  26.324  16.320  14.279  0.1699 -0.1043  0.1632
 1373BOLB   C2D32950  25.962  16.443  14.414  0.2456  0.2848  0.0090
 1373BOLB   C3D32951  25.527  16.468  14.673  0.1830 -0.0022 -0.1857
 1373BOLB   C4D32952  25.229  16.279  14.682  0.0407  0.3086  0.1222
 1374BOLB   NC132953  24.265  11.178  13.007  0.1521  0.0687  0.0076
 1374BOLB   PO132954  24.194  10.743  13.019 -0.3444  0.1757 -0.0635
 1374BOLB   GL132955  24.662  10.540  12.893  0.4843  0.1321 -0.0916
 1374BOLB   GL232956  24.849  10.714  13.143 -0.1346 -0.1443 -0.0064
 1374BOLB   C1A32957  25.033  10.553  12.666  0.2431  0.0693  0.0877
 1374BOLB   C2A32958  25.496  10.357  12.524 -0.1433  0.2504 -0.1602
 1374BOLB   C3A32959  25.967  10.316  12.603 -0.0976 -0.0729 -0.0723
 1374BOLB   C4A32960  26.282  10.504  12.853 -0.0899 -0.0476 -0.0875
 1374BOLB   C1B32961  25.184  10.523  13.331  0.0656  0.3805 -0.0458
 1374BOLB   C2B32962  25.504  10.498  13.476  0.0508  0.0386  0.2005
 1374BOLB   C3B32963  25.731  10.224  13.644 -0.1738 -0.1766 -0.0619
 1374BOLB   C4B32964  26.146  10.210  13.543  0.0578 -0.1087 -0.0087
 1374BOLB   NC232965  28.384  10.344  13.222  0.1661 -0.3063  0.0310
 1374BOLB   PO232966  28.167  10.782  13.109  0.1191 -0.0234  0.0481
 1374BOLB   GL332967  27.817  10.770  13.504 -0.2169 -0.4760  0.1963
 1374BOLB   GL432968  27.816  11.080  13.650 -0.1552  0.0178  0.0765
 1374BOLB   C1C32969  27.371  10.823  13.637  0.2697  0.0668 -0.0833
 1374BOLB   C2C32970  26.962  10.747  13.722 -0.4607  0.0480 -0.0277
 1374BOLB   C3C32971  26.604  10.606  13.528  0.2590 -0.4170  0.2791
 1374BOLB   C4C32972  26.332  10.563  13.197  0.1315  0.1948 -0.0748
 1374BOLB   C1D32973  27.463  11.338  13.764  0.0287 -0.1780  0.2664
 1374BOLB   C2D32974  27.105  11.252  13.511  0.1539  0.3028  0.0839
 1374BOLB   C3D32975  26.820  11.125  13.232  0.0792  0.1697  0.0481
 1374BOLB   C4D32976  26.345  11.125  13.240 -0.1832  0.2614  0.1302
 1375BOLB   NC132977  13.357  17.864  16.283 -0.2756 -0.0068  0.0274
 1375BOLB   PO132978  13.117  17.905  16.769  0.1141  0.1019  0.2719
 1375BOLB   GL132979  12.909  18.428  16.887 -0.0506 -0.0684  0.0948
 1375BOLB   GL232980  12.915  18.422  17.136 -0.1549  0.1897 -0.1619
 1375BOLB   C1A32981  13.069  18.889  16.934 -0.4300 -0.0782  0.1641
 1375BOLB   C2A32982  13.247  19.294  17.110 -0.1232 -0.6725 -0.0191
 1375BOLB   C3A32983  13.127  19.659  17.352 -0.2969  0.1470 -0.0056
 1375BOLB   C4A32984  12.781  19.913  17.470  0.3274 -0.0086 -0.2420
 1375BOLB   C1B32985  12.552  18.699  17.320 -0.1784 -0.0141 -0.0870
 1375BOLB   C2B32986  12.345  19.011  17.580  0.2447 -0.0649  0.1549
 1375BOLB   C3B32987  12.264  19.268  17.218 -0.1246  0.0626  0.0846
 1375BOLB   C4B32988  12.353  19.585  16.897  0.1960  0.2341  0.0961
 1375BOLB   NC232989  12.452  22.141  18.491  0.1878  0.1425  0.0407
 1375BOLB   PO232990  12.588  22.028  18.182 -0.1327  0.0068 -0.0797
 1375BOLB   GL332991  12.583  21.664  18.135  0.1617 -0.1414 -0.2414
 1375BOLB   GL432992  12.687  21.632  17.831  0.0196 -0.2650 -0.5035
 1375BOLB   C1C32993  12.327  21.317  18.042  0.0103  0.0823  0.1503
 1375BOLB   C2C32994  12.414  20.969  17.914  0.0256 -0.2052 -0.1747
 1375BOLB   C3C32995  12.528  20.638  17.739 -0.0873  0.1101  0.1018
 1375BOLB   C4C32996  12.425  20.248  17.628 -0.1996 -0.1338  0.3722
 1375BOLB   C1D32997  12.799  21.166  17.712 -0.0781 -0.2105  0.1552
 1375BOLB   C2D32998  12.995  20.824  17.864  0.1516  0.0522  0.1455
 1375BOLB   C3D32999  13.233  20.534  18.022  0.1496 -0.1684 -0.1744
 1375BOLB   C4D33000  13.437  20.434  18.341 -0.1378 -0.0300 -0.1475
 1376BOLB   NC133001  23.178  14.121  19.488 -0.2001  0.1611  0.4043
 1376BOLB   PO133002  23.093  14.451  19.155 -0.1066 -0.1025  0.1126
 1376BOLB   GL133003  23.401  14.696  19.393 -0.0949 -0.0307  0.1352
 1376BOLB   GL233004  23.263  14.927  19.491 -0.4379 -0.0698 -0.2545
 1376BOLB   C1A33005  23.841  14.750  19.287  0.2862 -0.0919 -0.1299
 1376BOLB   C2A33006  24.236  14.731  19.347  0.0617 -0.1200  0.1863
 1376BOLB   C3A33007  24.659  14.833  19.505  0.2946  0.0714  0.2310
 1376BOLB   C4A33008  24.978  14.647  19.656 -0.4764 -0.1986 -0.0912
 1376BOLB   C1B33009  23.738  15.069  19.657  0.0306 -0.0681  0.0115
 1376BOLB   C2B33010  24.050  14.798  19.840 -0.4392  0.1221  0.2060
 1376BOLB   C3B33011  24.117  14.704  20.228 -0.0744  0.2962  0.0029
 1376BOLB   C4B33012  24.195  14.959  20.643  0.1490 -0.0676  0.0027
 1376BOLB   NC233013  27.109  15.977  20.300 -0.1012 -0.1091 -0.2638
 1376BOLB   PO233014  26.914  16.075  19.983 -0.1721 -0.3338  0.0971
 1376BOLB   GL333015  26.817  15.636  19.920  0.1903 -0.1729 -0.1618
 1376BOLB   GL433016  26.780  15.552  19.604 -0.1148 -0.0917  0.1811
 1376BOLB   C1C33017  26.383  15.346  19.912  0.5077 -0.1094 -0.3194
 1376BOLB   C2C33018  26.090  15.044  19.791  0.0282 -0.0896 -0.1282
 1376BOLB   C3C33019  25.821  14.806  19.592  0.0579  0.2563  0.1154
 1376BOLB   C4C33020  25.396  14.489  19.631 -0.0015  0.1508  0.2145
 1376BOLB   C1D33021  26.511  15.352  19.343 -0.1027  0.2420 -0.1483
 1376BOLB   C2D33022  26.058  15.291  19.370 -0.1989  0.0148 -0.1868
 1376BOLB   C3D33023  25.616  15.282  19.403 -0.0367 -0.0501 -0.2192
 1376BOLB   C4D33024  25.226  15.131  19.365 -0.3056  0.0961 -0.1996
 1377BOLB   NC133025  17.453   3.528  20.417 -0.1972  0.1281 -0.1977
 1377BOLB   PO133026  17.713   3.835  20.559 -0.3070 -0.1160 -0.2990
 1377BOLB   GL133027  17.822   3.571  20.912  0.0296 -0.2750  0.0543
 1377BOLB   GL233028  17.941   3.884  20.999  0.0448 -0.0971  0.1497
 1377BOLB   C1A33029  17.736   3.149  21.018  0.1292  0.0116  0.0824
 1377BOLB   C2A33030  17.969   2.750  21.156  0.0291  0.0373 -0.0694
 1377BOLB   C3A33031  17.927   2.493  21.437  0.2387 -0.0574 -0.0255
 1377BOLB   C4A33032  17.589   2.346  21.634 -0.1593 -0.1335 -0.1681
 1377BOLB   C1B33033  18.073   3.535  21.264  0.0660  0.1556 -0.4059
 1377BOLB   C2B33034  18.230   3.562  21.676 -0.2772  0.2138 -0.0890
 1377BOLB   C3B33035  18.530   3.310  21.941 -0.0890  0.3644 -0.1913
 1377BOLB   C4B33036  18.707   2.922  22.070  0.2911 -0.0484  0.2193
 1377BOLB   NC233037  17.350   0.577  22.839 -0.0022  0.1585  0.0037
 1377BOLB   PO233038  16.924   0.531  22.651 -0.0551 -0.3244 -0.0710
 1377BOLB   GL333039  17.057   0.982  22.504 -0.4188 -0.1472 -0.2058
 1377BOLB   GL433040  17.077   1.085  22.778 -0.1494 -0.1885  0.1126
 1377BOLB   C1C33041  17.055   1.446  22.397  0.0731 -0.1371 -0.1926
 1377BOLB   C2C33042  16.924   1.815  22.394 -0.0009  0.1070  0.0549
 1377BOLB   C3C33043  16.850   1.963  22.090  0.1589 -0.0507  0.3655
 1377BOLB   C4C33044  17.222   2.038  21.791  0.2218  0.0023 -0.4662
 1377BOLB   C1D33045  16.657   1.280  22.683  0.2124 -0.0516 -0.0792
 1377BOLB   C2D33046  16.510   1.557  22.418  0.2975  0.1055 -0.0099
 1377BOLB   C3D33047  16.426   1.703  21.999 -0.0142  0.1953 -0.1499
 1377BOLB   C4D33048  16.109   1.824  21.716 -0.3609 -0.1210  0.0084
 1378BOLB   NC133049  13.109   5.965  21.902 -0.0902  0.0319  0.1638
 1378BOLB   PO133050  13.556   6.154  22.014  0.3351  0.0659  0.1291
 1378BOLB   GL133051  13.408   5.913  22.395 -0.1322  0.1685  0.1496
 1378BOLB   GL233052  13.085   5.685  22.322  0.0296 -0.1957 -0.3946
 1378BOLB   C1A33053  13.329   5.773  22.807  0.0557 -0.2181  0.1294
 1378BOLB   C2A33054  13.182   5.703  23.210  0.2175  0.0253  0.1117
 1378BOLB   C3A33055  13.226   5.748  23.587  0.1734  0.2147  0.2186
 1378BOLB   C4A33056  13.004   5.782  24.015  0.0849 -0.0329 -0.0910
 1378BOLB   C1B33057  13.192   5.301  22.479  0.0008 -0.1160  0.3325
 1378BOLB   C2B33058  13.238   4.977  22.685 -0.2174 -0.0090  0.1154
 1378BOLB   C3B33059  13.140   4.887  23.032 -0.3516  0.2369  0.0113
 1378BOLB   C4B33060  13.044   4.553  23.268  0.1493 -0.1447 -0.1801
 1378BOLB   NC233061  13.206   4.748  26.277 -0.0213 -0.4376 -0.2454
 1378BOLB   PO233062  13.124   4.934  25.909  0.2089 -0.0786  0.1128
 1378BOLB   GL333063  13.356   5.072  25.514  0.0572  0.0916  0.3660
 1378BOLB   GL433064  13.501   4.748  25.501  0.0114 -0.0654  0.1104
 1378BOLB   C1C33065  13.255   5.467  25.355  0.0055  0.1069  0.0449
 1378BOLB   C2C33066  12.863   5.574  25.139 -0.0144  0.1002 -0.0665
 1378BOLB   C3C33067  12.740   5.711  24.818 -0.1253  0.0573 -0.1080
 1378BOLB   C4C33068  12.751   5.816  24.399  0.2290 -0.2571  0.6196
 1378BOLB   C1D33069  13.400   4.655  24.967 -0.2783  0.0079 -0.0731
 1378BOLB   C2D33070  13.633   4.679  24.567 -0.5309 -0.2844  0.1209
 1378BOLB   C3D33071  14.106   4.832  24.318  0.0187 -0.1252 -0.3856
 1378BOLB   C4D33072  14.455   4.977  24.230 -0.2128 -0.1590 -0.5200
 1379BOLB   NC133073  20.003  14.176  21.986  0.1891 -0.0277 -0.1418
 1379BOLB   PO133074  20.236  14.119  22.223 -0.0680  0.3849  0.1079
 1379BOLB   GL133075  20.440  14.366  22.453  0.2565  0.3533  0.0855
 1379BOLB   GL233076  20.443  14.640  22.379  0.0651 -0.1870 -0.2009
 1379BOLB   C1A33077  20.863  14.591  22.682  0.2155  0.0101  0.0451
 1379BOLB   C2A33078  20.764  14.859  22.985  0.3001  0.0305  0.3077
 1379BOLB   C3A33079  20.893  15.118  23.269 -0.0609 -0.4106 -0.0292
 1379BOLB   C4A33080  20.921  15.484  23.560  0.3246 -0.2277 -0.2115
 1379BOLB   C1B33081  20.301  14.768  22.809 -0.0462  0.1780 -0.0123
 1379BOLB   C2B33082  20.317  15.133  23.007  0.0876 -0.2616 -0.0344
 1379BOLB   C3B33083  20.627  15.467  23.043 -0.0805  0.0035 -0.0700
 1379BOLB   C4B33084  21.041  15.389  22.883 -0.2717 -0.1124  0.1236
 1379BOLB   NC233085  22.983  15.687  25.291 -0.2213  0.2058  0.2447
 1379BOLB   PO233086  22.686  15.958  25.255  0.2125  0.2676 -0.2743
 1379BOLB   GL333087  22.705  15.856  24.825  0.1308  0.2582 -0.0240
 1379BOLB   GL433088  22.646  15.545  24.960 -0.0317  0.0209 -0.1936
 1379BOLB   C1C33089  22.385  15.662  24.554  0.0105 -0.0844 -0.1927
 1379BOLB   C2C33090  21.897  15.752  24.395 -0.0841 -0.1448  0.0922
 1379BOLB   C3C33091  21.667  15.659  24.063 -0.1008 -0.0260  0.3038
 1379BOLB   C4C33092  21.319  15.619  23.764  0.1249 -0.1382 -0.0919
 1379BOLB   C1D33093  22.197  15.247  25.176  0.0240 -0.2088 -0.0511
 1379BOLB   C2D33094  21.747  15.074  25.010 -0.3805 -0.2591  0.1408
 1379BOLB   C3D33095  21.605  14.975  24.775  0.0902 -0.2380  0.0260
 1379BOLB   C4D33096  21.333  14.811  24.513 -0.2632 -0.0121  0.2334
 1380BOLB   NC133097  11.627   4.740  20.473  0.2772 -0.0467 -0.3027
 1380BOLB   PO133098  11.253   4.880  20.599  0.0705 -0.0752 -0.3023
 1380BOLB   GL133099  11.127   4.831  20.949  0.0333  0.0690  0.1141
 1380BOLB   GL233100  10.763   4.877  21.075  0.0778 -0.1680 -0.0262
 1380BOLB   C1A33101  11.132   4.647  21.312  0.3734  0.2172  0.1324
 1380BOLB   C2A33102  11.313   4.311  21.308  0.1268 -0.0359 -0.0292
 1380BOLB   C3A33103  11.480   3.908  21.423  0.1175 -0.0416  0.2879
 1380BOLB   C4A33104  11.239   3.600  21.659 -0.0174  0.0148 -0.0923
 1380BOLB   C1B33105  10.682   4.722  21.474 -0.0978 -0.0492 -0.2338
 1380BOLB   C2B33106  10.426   4.408  21.594  0.3891  0.0819 -0.1818
 1380BOLB   C3B33107  10.608   4.150  21.914  0.3348  0.2690  0.2944
 1380BOLB   C4B33108  10.837   3.768  22.125 -0.0980  0.2548  0.0483
 1380BOLB   NC233109  10.818   2.360  24.193  0.0011  0.1499  0.0494
 1380BOLB   PO233110  10.660   2.472  23.722 -0.3352  0.0684 -0.1019
 1380BOLB   GL333111  10.616   2.547  23.200  0.0432 -0.0103 -0.1498
 1380BOLB   GL433112  10.810   2.443  23.032  0.0842  0.0891 -0.0071
 1380BOLB   C1C33113  10.347   2.557  22.793 -0.0739  0.1054 -0.1850
 1380BOLB   C2C33114  10.386   2.813  22.472  0.2723 -0.0504  0.1826
 1380BOLB   C3C33115  10.729   2.967  22.278  0.0888  0.0751  0.1324
 1380BOLB   C4C33116  10.818   3.256  21.911  0.0047  0.1813 -0.0980
 1380BOLB   C1D33117  10.780   2.805  22.827  0.0429  0.0341  0.1105
 1380BOLB   C2D33118  10.648   3.136  22.718 -0.1062 -0.3706  0.0730
 1380BOLB   C3D33119  10.419   3.379  22.290  0.0548  0.0806  0.0496
 1380BOLB   C4D33120  10.232   3.884  22.166  0.0210  0.0575  0.3580
 1381BOLB   NC133121  22.113  11.276  11.049  0.0700  0.0862 -0.0495
 1381BOLB   PO133122  22.388  11.267  11.398  0.3465 -0.3822 -0.2696
 1381BOLB   GL133123  22.553  11.125  11.080 -0.0043  0.0628  0.0095
 1381BOLB   GL233124  22.926  11.108  11.104  0.2365  0.1157 -0.0513
 1381BOLB   C1A33125  22.712  11.185  10.639  0.1991  0.0080  0.0069
 1381BOLB   C2A33126  22.929  11.116  10.255  0.2311 -0.0872  0.1853
 1381BOLB   C3A33127  23.113  11.021   9.873  0.1756  0.0568  0.1598
 1381BOLB   C4A33128  23.470  11.061   9.548 -0.2293  0.2400  0.0544
 1381BOLB   C1B33129  23.180  11.156  10.797  0.3512  0.0387  0.1667
 1381BOLB   C2B33130  23.464  11.260  10.431  0.0950  0.2327  0.0413
 1381BOLB   C3B33131  23.482  11.495  10.060  0.0334 -0.0463  0.1865
 1381BOLB   C4B33132  23.682  11.545   9.717  0.1502 -0.1887  0.1231
 1381BOLB   NC233133  24.573  12.555   7.475  0.4181  0.1009 -0.0529
 1381BOLB   PO233134  24.181  12.612   7.670 -0.0279 -0.0128 -0.0259
 1381BOLB   GL333135  23.966  12.404   8.027 -0.0623 -0.0747  0.0440
 1381BOLB   GL433136  24.231  12.150   8.038  0.4715  0.1950  0.1832
 1381BOLB   C1C33137  23.703  12.197   8.256 -0.1035  0.0687 -0.0531
 1381BOLB   C2C33138  23.770  11.845   8.489  0.0815 -0.3090  0.2429
 1381BOLB   C3C33139  23.785  11.732   8.886 -0.0381 -0.1543  0.1774
 1381BOLB   C4C33140  23.569  11.342   9.155 -0.2097 -0.0533 -0.1790
 1381BOLB   C1D33141  23.943  11.954   7.760  0.1850 -0.3580 -0.0064
 1381BOLB   C2D33142  23.557  11.964   7.799  0.1823  0.0282  0.4247
 1381BOLB   C3D33143  23.202  12.107   7.820  0.0280  0.0018  0.0152
 1381BOLB   C4D33144  22.793  12.334   7.948  0.2246 -0.2271  0.0719
 1382BOLB   NC133145   9.134  14.776  15.757  0.3621 -0.1004  0.2011
 1382BOLB   PO133146   9.058  15.180  15.960  0.2962 -0.2615  0.1291
 1382BOLB   GL133147   9.092  15.566  15.814  0.0757  0.0584 -0.0561
 1382BOLB   GL233148   9.222  15.674  15.558 -0.0449  0.1615 -0.1179
 1382BOLB   C1A33149   8.872  15.948  15.791  0.0787 -0.2283  0.0926
 1382BOLB   C2A33150   8.553  16.251  16.075  0.3081 -0.3042 -0.0843
 1382BOLB   C3A33151   8.406  16.644  16.418 -0.1435 -0.2843 -0.1687
 1382BOLB   C4A33152   8.422  17.105  16.241  0.1643  0.1569  0.1782
 1382BOLB   C1B33153   8.783  15.566  15.432 -0.0339  0.2371 -0.2444
 1382BOLB   C2B33154   8.473  15.709  15.167 -0.1653 -0.1563 -0.1318
 1382BOLB   C3B33155   8.164  15.907  15.113 -0.2285  0.2028  0.2108
 1382BOLB   C4B33156   7.822  16.215  15.127  0.0975  0.0969 -0.0308
 1382BOLB   NC233157   6.722  18.475  16.279  0.0599  0.1212  0.0220
 1382BOLB   PO233158   6.852  18.307  15.925  0.1155  0.1133 -0.2447
 1382BOLB   GL333159   7.183  18.065  15.715  0.2488 -0.0822 -0.2696
 1382BOLB   GL433160   7.287  17.681  15.774 -0.4210 -0.3422 -0.1417
 1382BOLB   C1C33161   7.600  18.001  15.485  0.3781 -0.3969 -0.0918
 1382BOLB   C2C33162   7.852  17.775  15.283 -0.0444  0.0524  0.2831
 1382BOLB   C3C33163   8.110  17.601  15.610 -0.0394 -0.0876 -0.0043
 1382BOLB   C4C33164   8.194  17.347  15.919 -0.0723  0.1437 -0.0578
 1382BOLB   C1D33165   7.304  17.109  15.702  0.1093 -0.4818  0.1643
 1382BOLB   C2D33166   7.453  16.725  15.858  0.4051 -0.0980 -0.2306
 1382BOLB   C3D33167   7.620  16.553  15.626 -0.1599 -0.1514 -0.2953
 1382BOLB   C4D33168   7.957  16.413  15.524 -0.0171  0.1115  0.0993
 1383BOLB   NC133169  18.124   4.228  20.095 -0.1612  0.0047 -0.3960
 1383BOLB   PO133170  18.197   3.841  19.813  0.1355  0.0631  0.0960
 1383BOLB   GL133171  18.085   3.497  19.948 -0.0988  0.0539 -0.1439
 1383BOLB   GL233172  17.944   3.529  20.226  0.1077 -0.0763 -0.0584
 1383BOLB   C1A33173  18.226   3.110  20.156  0.0408 -0.1480 -0.1078
 1383BOLB   C2A33174  18.528   2.738  20.246 -0.1602  0.0129  0.3271
 1383BOLB   C3A33175  18.778   2.343  20.548  0.4896  0.1753 -0.0177
 1383BOLB   C4A33176  19.043   2.021  20.794 -0.0462 -0.0866 -0.1681
 1383BOLB   C1B33177  18.218   3.312  20.664 -0.1761 -0.4200 -0.2254
 1383BOLB   C2B33178  18.270   3.116  21.077 -0.1942 -0.0804 -0.1840
 1383BOLB   C3B33179  18.001   3.112  21.443 -0.3584 -0.0327  0.0124
 1383BOLB   C4B33180  18.056   3.167  21.987 -0.1840 -0.0298 -0.2293
 1383BOLB   NC233181  21.072   0.495  21.198 -0.0896 -0.0395 -0.1538
 1383BOLB   PO233182  20.705   0.169  21.231 -0.3728  0.0209 -0.1453
 1383BOLB   GL333183  20.502   0.498  21.085 -0.0560  0.1355 -0.0142
 1383BOLB   GL433184  20.682   0.855  21.174 -0.1062  0.4328  0.4503
 1383BOLB   C1C33185  20.102   0.634  21.164  0.2284  0.0425 -0.2908
 1383BOLB   C2C33186  19.742   0.881  21.304 -0.0531  0.1195 -0.1767
 1383BOLB   C3C33187  19.513   1.267  21.187 -0.1099 -0.1311 -0.3151
 1383BOLB   C4C33188  19.250   1.620  21.038 -0.0478 -0.2463  0.1159
 1383BOLB   C1D33189  20.356   1.173  21.003  0.4125  0.3354 -0.0814
 1383BOLB   C2D33190  20.140   1.573  20.977 -0.0599 -0.2722  0.1814
 1383BOLB   C3D33191  20.091   2.008  20.628  0.1784 -0.1151 -0.0400
 1383BOLB   C4D33192  19.882   2.430  20.882 -0.0304 -0.1362  0.1293
 1384BOLB   NC133193  16.567  18.721  16.350 -0.2437  0.1309 -0.0903
 1384BOLB   PO133194  16.307  19.098  16.487 -0.1017 -0.0378  0.0325
 1384BOLB   GL133195  16.273  19.530  16.781  0.2072  0.1526  0.0965
 1384BOLB   GL233196  15.961  19.690  16.795  0.0541  0.1114 -0.0697
 1384BOLB   C1A33197  16.563  19.729  16.972 -0.2003 -0.1871  0.1571
 1384BOLB   C2A33198  16.882  20.031  16.661  0.0303 -0.2165 -0.0600
 1384BOLB   C3A33199  17.020  20.131  16.332 -0.2006  0.1654  0.2019
 1384BOLB   C4A33200  16.890  20.259  15.924 -0.0298 -0.0532 -0.0510
 1384BOLB   C1B33201  15.957  20.060  17.009 -0.0572 -0.1390  0.0871
 1384BOLB   C2B33202  16.029  20.483  17.300 -0.0849  0.1402 -0.3115
 1384BOLB   C3B33203  16.321  20.689  17.472 -0.0110 -0.3716  0.0335
 1384BOLB   C4B33204  16.329  21.072  17.474 -0.0519  0.1185 -0.2342
 1384BOLB   NC233205  16.895  22.605  15.427  0.1617 -0.1429  0.0069
 1384BOLB   PO233206  16.917  22.653  15.817 -0.0449  0.0493 -0.0889
 1384BOLB   GL333207  16.965  22.209  15.905 -0.0265 -0.3070  0.0874
 1384BOLB   GL433208  17.179  22.075  16.156 -0.1052  0.0893 -0.1676
 1384BOLB   C1C33209  16.894  21.841  15.690 -0.2067 -0.0594  0.0316
 1384BOLB   C2C33210  16.849  21.435  15.644  0.2791 -0.1591  0.0029
 1384BOLB   C3C33211  16.806  21.017  15.798 -0.1250 -0.0982  0.1206
 1384BOLB   C4C33212  16.844  20.675  15.939 -0.0860 -0.1565  0.0329
 1384BOLB   C1D33213  17.172  21.696  16.168  0.1774  0.0896 -0.1821
 1384BOLB   C2D33214  16.838  21.320  16.276  0.0269 -0.1899  0.0198
 1384BOLB   C3D33215  16.816  20.864  16.361  0.0983 -0.1362  0.0698
 1384BOLB   C4D33216  16.683  20.574  16.545 -0.0380  0.1894  0.1880
 1385BOLB   NC133217  23.370   7.447  12.954  0.0858 -0.0481 -0.1677
 1385BOLB   PO133218  23.565   7.755  12.912 -0.0850 -0.0346  0.0736
 1385BOLB   GL133219  23.944   7.686  12.757  0.3217  0.3140  0.0089
 1385BOLB   GL233220  24.260   7.750  12.759  0.1467 -0.2181  0.1029
 1385BOLB   C1A33221  23.983   7.264  12.627 -0.0002  0.3024 -0.0129
 1385BOLB   C2A33222  24.108   7.081  12.229  0.2071  0.1489 -0.2894
 1385BOLB   C3A33223  24.516   7.197  11.962  0.0499  0.3022 -0.0994
 1385BOLB   C4A33224  24.954   7.161  11.888  0.1218  0.0411 -0.0696
 1385BOLB   C1B33225  24.739   7.494  12.773  0.0521 -0.2212 -0.0548
 1385BOLB   C2B33226  25.091   7.593  12.480 -0.0549 -0.1792  0.0519
 1385BOLB   C3B33227  25.470   7.481  12.228 -0.0777 -0.0305 -0.0718
 1385BOLB   C4B33228  25.837   7.493  11.992 -0.0378  0.0954 -0.2545
 1385BOLB   NC233229  27.081   5.955  11.465  0.3161 -0.0333  0.0508
 1385BOLB   PO233230  26.746   5.783  11.254 -0.0785 -0.3231 -0.1443
 1385BOLB   GL333231  26.391   5.979  11.514 -0.0689  0.2548  0.2381
 1385BOLB   GL433232  26.291   6.159  11.321  0.2586 -0.0168  0.1494
 1385BOLB   C1C33233  26.135   6.006  11.875  0.0411 -0.0300  0.1983
 1385BOLB   C2C33234  25.851   6.322  11.968 -0.0460 -0.3253 -0.1007
 1385BOLB   C3C33235  25.475   6.582  11.889 -0.4678  0.1403 -0.2011
 1385BOLB   C4C33236  25.266   6.894  11.676 -0.0428  0.0849 -0.3118
 1385BOLB   C1D33237  25.865   6.295  11.349 -0.0041 -0.1004  0.0682
 1385BOLB   C2D33238  25.447   6.644  11.302 -0.2603 -0.1672  0.2873
 1385BOLB   C3D33239  25.142   6.869  11.186 -0.0279 -0.0709  0.1057
 1385BOLB   C4D33240  24.803   6.859  10.794 -0.2510  0.1587  0.1357
 1386BOLB   NC133241  23.424  15.628  16.146 -0.0968  0.0707  0.2365
 1386BOLB   PO133242  23.485  15.186  15.852 -0.1394  0.0390  0.2747
 1386BOLB   GL133243  23.928  15.392  15.601 -0.4724  0.2821  0.0033
 1386BOLB   GL233244  23.910  15.241  15.203 -0.0299  0.1964  0.2276
 1386BOLB   C1A33245  24.363  15.403  15.456  0.0248 -0.1887 -0.2408
 1386BOLB   C2A33246  24.729  15.492  15.289  0.0172 -0.1673 -0.0691
 1386BOLB   C3A33247  25.206  15.529  15.138  0.0115  0.1340  0.1148
 1386BOLB   C4A33248  25.488  15.540  15.423  0.0326  0.4241 -0.1651
 1386BOLB   C1B33249  24.271  15.406  14.923 -0.1730 -0.2398 -0.0317
 1386BOLB   C2B33250  24.521  15.731  14.876 -0.1242 -0.1510 -0.2581
 1386BOLB   C3B33251  24.679  16.137  14.708  0.1945  0.1095 -0.1885
 1386BOLB   C4B33252  24.798  16.443  14.477 -0.0098  0.3059 -0.1722
 1386BOLB   NC233253  27.713  17.176  15.981  0.0597  0.1003  0.0858
 1386BOLB   PO233254  27.587  16.781  15.666 -0.0122 -0.1311 -0.0306
 1386BOLB   GL333255  27.201  16.738  15.598 -0.0855 -0.0785 -0.0431
 1386BOLB   GL433256  26.899  16.850  15.543  0.0697  0.0710 -0.3701
 1386BOLB   C1C33257  26.720  16.441  15.687 -0.1633 -0.4051 -0.2343
 1386BOLB   C2C33258  26.377  16.136  15.841 -0.0476 -0.5339 -0.1019
 1386BOLB   C3C33259  26.046  15.850  15.960  0.1629  0.0580  0.0694
 1386BOLB   C4C33260  25.693  15.643  15.785  0.1505 -0.1064  0.0603
 1386BOLB   C1D33261  26.583  16.676  15.286 -0.1576 -0.1213 -0.0386
 1386BOLB   C2D33262  26.246  16.456  15.437 -0.3931  0.0710 -0.0244
 1386BOLB   C3D33263  25.848  16.197  15.585 -0.0615 -0.0791 -0.0094
 1386BOLB   C4D33264  25.557  16.127  15.942 -0.4676  0.0417 -0.1187
 1387BOLB   NC133265  18.137  17.229  12.655 -0.1689  0.2354 -0.1464
 1387BOLB   PO133266  18.447  17.468  12.871 -0.2529  0.0941 -0.0485
 1387BOLB   GL133267  18.697  17.889  12.720 -0.1014 -0.2271  0.2118
 1387BOLB   GL233268  18.765  17.843  12.485 -0.0091  0.3380 -0.0921
 1387BOLB   C1A33269  18.881  18.288  12.664 -0.0935  0.0255  0.3173
 1387BOLB   C2A33270  19.268  18.580  12.638 -0.2194  0.0838  0.0147
 1387BOLB   C3A33271  19.356  19.057  12.908  0.1153  0.1710 -0.1953
 1387BOLB   C4A33272  19.656  19.350  13.092 -0.1291 -0.0266  0.1675
 1387BOLB   C1B33273  18.958  18.115  12.226 -0.3454 -0.0188 -0.1913
 1387BOLB   C2B33274  19.360  18.233  12.240  0.3888  0.1097 -0.4158
 1387BOLB   C3B33275  19.751  18.530  12.434  0.2518 -0.0241 -0.0042
 1387BOLB   C4B33276  20.193  18.653  12.394  0.2068  0.0021 -0.0016
 1387BOLB   NC233277  20.500  21.508  13.487 -0.0812 -0.1175 -0.3042
 1387BOLB   PO233278  20.916  21.333  13.354  0.2022 -0.0617  0.0603
 1387BOLB   GL333279  20.590  21.007  13.398 -0.1574 -0.2158 -0.3704
 1387BOLB   GL433280  20.892  20.730  13.558 -0.1288 -0.0494  0.0189
 1387BOLB   C1C33281  20.487  20.634  13.239  0.0384 -0.1043 -0.1219
 1387BOLB   C2C33282  20.182  20.352  13.031  0.0606  0.1663 -0.2111
 1387BOLB   C3C33283  19.826  20.020  12.859 -0.0332  0.1204  0.2259
 1387BOLB   C4C33284  19.623  19.755  12.994  0.0769  0.1543 -0.2370
 1387BOLB   C1D33285  20.563  20.403  13.661  0.2270 -0.1203 -0.1072
 1387BOLB   C2D33286  20.322  20.020  13.511  0.2419 -0.0161  0.0244
 1387BOLB   C3D33287  20.134  19.695  13.213  0.1132 -0.1189 -0.1816
 1387BOLB   C4D33288  20.185  19.262  13.029  0.1549 -0.4937  0.0818
 1388BOLB   NC133289  22.344   6.248  19.149 -0.0186 -0.1595  0.2053
 1388BOLB   PO133290  22.226   6.194  19.562 -0.1687 -0.0262  0.0555
 1388BOLB   GL133291  22.403   6.077  19.995 -0.0485 -0.0375  0.1094
 1388BOLB   GL233292  22.443   5.831  19.851 -0.4722 -0.0003  0.1911
 1388BOLB   C1A33293  22.678   6.009  20.382 -0.0185 -0.1313 -0.2577
 1388BOLB   C2A33294  22.961   5.756  20.616  0.3254 -0.1376 -0.1311
 1388BOLB   C3A33295  23.068   5.221  20.521  0.0751 -0.0728  0.0821
 1388BOLB   C4A33296  22.861   4.781  20.407 -0.1370  0.2340  0.1032
 1388BOLB   C1B33297  22.729   5.534  20.187  0.2102 -0.1104 -0.2260
 1388BOLB   C2B33298  22.747   5.139  20.055  0.2154 -0.0289  0.2041
 1388BOLB   C3B33299  23.002   4.770  19.896 -0.0719 -0.0534 -0.0695
 1388BOLB   C4B33300  23.043   4.396  19.697 -0.1752  0.2123  0.2208
 1388BOLB   NC233301  24.277   2.516  19.945  0.1847  0.0775  0.0332
 1388BOLB   PO233302  24.479   2.591  19.526  0.0777 -0.1229 -0.2751
 1388BOLB   GL333303  24.371   2.928  19.693 -0.2689 -0.1803  0.0735
 1388BOLB   GL433304  24.641   2.897  19.968  0.0309 -0.3551  0.4363
 1388BOLB   C1C33305  24.015   3.284  19.759  0.1833  0.2991 -0.2497
 1388BOLB   C2C33306  23.625   3.559  20.008 -0.0256  0.3312 -0.2012
 1388BOLB   C3C33307  23.328   3.916  20.233 -0.1767 -0.0376  0.0186
 1388BOLB   C4C33308  23.057   4.285  20.392  0.2498  0.0309  0.2392
 1388BOLB   C1D33309  24.483   3.269  20.112 -0.1170  0.1225  0.0505
 1388BOLB   C2D33310  24.143   3.615  20.194  0.3410 -0.1152  0.1500
 1388BOLB   C3D33311  23.729   3.693  20.478  0.1968  0.1619 -0.0023
 1388BOLB   C4D33312  23.544   4.105  20.654  0.2017  0.1291 -0.2187
 1389BOLB   NC133313  19.497   8.520   9.408  0.0107 -0.1622 -0.0857
 1389BOLB   PO133314  19.491   8.122   9.533  0.0127 -0.0191 -0.0913
 1389BOLB   GL133315  19.781   8.180   9.167  0.0666 -0.2135  0.2669
 1389BOLB   GL233316  19.736   8.426   8.828 -0.0827  0.2353 -0.0497
 1389BOLB   C1A33317  20.077   7.844   8.919 -0.1479  0.0574 -0.2950
 1389BOLB   C2A33318  20.335   7.710   8.568 -0.1471  0.4284  0.0654
 1389BOLB   C3A33319  20.798   7.734   8.380 -0.3421  0.1992  0.2605
 1389BOLB   C4A33320  20.804   7.768   7.973 -0.1471  0.0355  0.0082
 1389BOLB   C1B33321  19.720   8.081   8.611 -0.0144  0.1052 -0.0998
 1389BOLB   C2B33322  19.993   7.847   8.243  0.0202 -0.0690 -0.1385
 1389BOLB   C3B33323  20.374   7.654   8.074 -0.0358 -0.0526  0.0059
 1389BOLB   C4B33324  20.559   7.471   7.609  0.0165  0.2345 -0.0099
 1389BOLB   NC233325  21.652   8.936   5.391  0.2273 -0.0628  0.2557
 1389BOLB   PO233326  21.286   8.589   5.569 -0.2424  0.1208  0.0456
 1389BOLB   GL333327  21.102   8.746   6.003 -0.1887  0.0543  0.0044
 1389BOLB   GL433328  20.964   9.063   5.998  0.2075  0.0233  0.0550
 1389BOLB   C1C33329  21.049   8.585   6.380  0.1839 -0.0330 -0.3591
 1389BOLB   C2C33330  20.986   8.267   6.730 -0.1066 -0.2117 -0.0643
 1389BOLB   C3C33331  20.693   8.177   7.168  0.1073  0.3214 -0.3370
 1389BOLB   C4C33332  20.828   7.920   7.519  0.1430  0.1089 -0.4195
 1389BOLB   C1D33333  21.032   9.149   6.487  0.2242 -0.2072 -0.0650
 1389BOLB   C2D33334  20.928   9.274   6.898 -0.2221 -0.0591 -0.1875
 1389BOLB   C3D33335  20.667   9.328   7.229  0.0235 -0.2549 -0.0154
 1389BOLB   C4D33336  20.300   9.428   7.570  0.1407 -0.2434 -0.0271
 1390BOLB   NC133337  11.520  15.058  20.062  0.0893  0.2644 -0.2364
 1390BOLB   PO133338  11.224  14.800  20.248  0.2914  0.1313  0.0617
 1390BOLB   GL133339  10.858  15.009  20.517  0.4568 -0.0887 -0.0662
 1390BOLB   GL233340  10.593  14.827  20.534 -0.1608 -0.0014  0.1615
 1390BOLB   C1A33341  10.706  15.219  20.896 -0.2510  0.0197  0.0364
 1390BOLB   C2A33342  10.706  15.556  21.223  0.0190 -0.1992 -0.0837
 1390BOLB   C3A33343  10.798  15.758  21.585  0.1797 -0.1930  0.1673
 1390BOLB   C4A33344  10.704  16.160  21.744 -0.2882  0.2304  0.0112
 1390BOLB   C1B33345  10.198  14.864  20.558  0.0819 -0.1800  0.0376
 1390BOLB   C2B33346   9.940  14.983  20.942 -0.2621 -0.0689 -0.0369
 1390BOLB   C3B33347   9.750  15.471  21.095 -0.2932  0.1667 -0.0524
 1390BOLB   C4B33348   9.670  15.814  21.268  0.1033  0.3620 -0.0135
 1390BOLB   NC233349   9.688  17.709  23.297  0.0083 -0.0873  0.1449
 1390BOLB   PO233350  10.064  17.490  23.447  0.2619 -0.1565  0.0599
 1390BOLB   GL333351  10.160  17.192  23.286 -0.1699  0.1427  0.3359
 1390BOLB   GL433352  10.493  17.103  23.353 -0.3504 -0.0853 -0.0434
 1390BOLB   C1C33353  10.399  16.928  22.915  0.1731  0.0295  0.0348
 1390BOLB   C2C33354  10.386  16.646  22.693 -0.1327 -0.0385 -0.2609
 1390BOLB   C3C33355  10.203  16.571  22.252 -0.0097 -0.1769  0.0139
 1390BOLB   C4C33356  10.297  16.350  21.837  0.0950 -0.1691  0.1699
 1390BOLB   C1D33357  10.766  16.882  23.173  0.0205  0.0067  0.1993
 1390BOLB   C2D33358  10.923  16.639  23.091 -0.0048 -0.2970  0.0359
 1390BOLB   C3D33359  11.118  16.198  23.067  0.1647  0.1236 -0.0437
 1390BOLB   C4D33360  10.955  15.838  22.915 -0.2219 -0.1552 -0.3091
 1391BOLB   NC133361  11.064  12.021  21.014  0.2696 -0.2394 -0.0246
 1391BOLB   PO133362  11.136  12.004  21.445 -0.0406 -0.1088  0.0206
 1391BOLB   GL133363  10.865  11.940  21.694  0.1133  0.0758 -0.1441
 1391BOLB   GL233364  10.615  12.169  21.826 -0.1242 -0.2739 -0.2107
 1391BOLB   C1A33365  10.596  11.758  22.061  0.1237 -0.3552 -0.0019
 1391BOLB   C2A33366  10.276  11.924  22.233  0.0172  0.1057 -0.2583
 1391BOLB   C3A33367   9.925  11.822  22.559 -0.0415  0.3927  0.4278
 1391BOLB   C4A33368   9.687  11.615  22.781  0.2033  0.0271 -0.1320
 1391BOLB   C1B33369  10.641  12.305  22.188  0.3968 -0.1047  0.0651
 1391BOLB   C2B33370  10.548  12.418  22.579  0.2107 -0.2648 -0.0419
 1391BOLB   C3B33371  10.391  12.480  22.949 -0.0172  0.0434  0.2244
 1391BOLB   C4B33372  10.367  12.277  23.287 -0.4175 -0.0407 -0.1224
 1391BOLB   NC233373   7.915  11.877  24.676 -0.0031 -0.1619 -0.2380
 1391BOLB   PO233374   8.063  11.927  24.290 -0.1543  0.1349  0.1980
 1391BOLB   GL333375   8.106  11.731  23.903  0.1694  0.1868  0.1426
 1391BOLB   GL433376   7.977  11.446  23.726  0.4822 -0.2568 -0.0404
 1391BOLB   C1C33377   8.445  11.553  23.660 -0.4401  0.1074  0.2466
 1391BOLB   C2C33378   8.645  11.586  23.319 -0.0181  0.0246  0.0146
 1391BOLB   C3C33379   8.974  11.437  23.135 -0.1204  0.1449 -0.1727
 1391BOLB   C4C33380   9.420  11.531  23.027  0.0649 -0.0299  0.1080
 1391BOLB   C1D33381   8.148  11.216  23.348 -0.3841 -0.1288  0.2480
 1391BOLB   C2D33382   7.950  11.013  22.966  0.0984  0.1564  0.3980
 1391BOLB   C3D33383   7.517  11.072  22.743  0.0053 -0.1988 -0.2171
 1391BOLB   C4D33384   7.210  10.974  22.561  0.0475 -0.2225  0.0293
 1392BOLB   NC133385  10.317   6.993   0.680 -0.0683  0.0356  0.1502
 1392BOLB   PO133386  10.339   7.120   1.023  0.0741  0.0443 -0.2083
 1392BOLB   GL133387  10.522   7.080   1.401 -0.0581  0.0130 -0.4906
 1392BOLB   GL233388  10.456   6.880   1.635 -0.2272 -0.0650 -0.0192
 1392BOLB   C1A33389  10.599   7.453   1.697  0.1403 -0.2022 -0.3003
 1392BOLB   C2A33390  10.995   7.490   1.995  0.5496  0.0261 -0.2400
 1392BOLB   C3A33391  11.093   7.262   2.318  0.4897  0.1203  0.3195
 1392BOLB   C4A33392  11.243   7.003   2.620 -0.0371 -0.1277 -0.1558
 1392BOLB   C1B33393  10.796   6.983   1.841 -0.0677  0.0453 -0.0275
 1392BOLB   C2B33394  11.215   7.023   1.875 -0.0909 -0.1946  0.3497
 1392BOLB   C3B33395  11.532   7.152   2.163  0.1203  0.0121  0.0370
 1392BOLB   C4B33396  11.854   7.306   2.110 -0.2715 -0.0427 -0.1371
 1392BOLB   NC233397   9.009   6.507   1.465  0.2448  0.1713  0.1550
 1392BOLB   PO233398   9.430   6.469   1.750  0.0186  0.1426  0.4280
 1392BOLB   GL333399   9.673   6.382   2.069 -0.0890 -0.2493  0.0246
 1392BOLB   GL433400   9.676   5.970   2.093 -0.4903  0.0217  0.2097
 1392BOLB   C1C33401   9.881   6.377   2.485  0.2304  0.2372  0.1198
 1392BOLB   C2C33402  10.204   6.314   2.782 -0.0173 -0.1522 -0.0469
 1392BOLB   C3C33403  10.591   6.560   2.759  0.0618 -0.3400  0.0489
 1392BOLB   C4C33404  11.022   6.710   2.838 -0.1242  0.0077 -0.2531
 1392BOLB   C1D33405   9.877   5.861   2.563 -0.0924 -0.0357  0.0612
 1392BOLB   C2D33406   9.729   5.713   3.007 -0.1883  0.1628 -0.1738
 1392BOLB   C3D33407   9.536   6.013   3.288 -0.2812 -0.3061  0.1478
 1392BOLB   C4D33408   9.627   6.154   3.683 -0.0280  0.1010 -0.0555
 1393BOLB   NC133409  13.206  12.753   8.950  0.0741 -0.3129 -0.0674
 1393BOLB   PO133410  13.486  12.657   8.636 -0.0609  0.0251  0.3251
 1393BOLB   GL133411  13.094  12.853   8.460 -0.2787 -0.0831  0.0299
 1393BOLB   GL233412  13.246  12.928   8.162  0.0947 -0.0280  0.1590
 1393BOLB   C1A33413  12.804  13.074   8.275  0.1519 -0.0841  0.0240
 1393BOLB   C2A33414  12.500  13.331   7.952 -0.1039  0.0069  0.0708
 1393BOLB   C3A33415  12.182  13.607   7.717  0.1856  0.0461 -0.1868
 1393BOLB   C4A33416  11.907  13.672   7.353 -0.0600 -0.2018  0.1860
 1393BOLB   C1B33417  12.990  12.679   7.977 -0.0390 -0.0905 -0.0968
 1393BOLB   C2B33418  12.715  12.410   7.980  0.5048  0.0596  0.3589
 1393BOLB   C3B33419  12.587  12.103   7.776 -0.0710  0.0420  0.3292
 1393BOLB   C4B33420  12.223  11.859   7.793 -0.0050  0.0055  0.2654
 1393BOLB   NC233421  11.802  15.437   5.087  0.4614  0.1225 -0.2346
 1393BOLB   PO233422  12.118  15.475   5.313  0.0938  0.0811  0.0784
 1393BOLB   GL333423  11.999  15.055   5.519 -0.2969  0.0887 -0.3068
 1393BOLB   GL433424  12.061  14.710   5.299  0.1653  0.1373  0.1756
 1393BOLB   C1C33425  12.117  14.696   5.818  0.1004  0.0807 -0.1650
 1393BOLB   C2C33426  12.208  14.463   6.220  0.2821  0.0750 -0.2529
 1393BOLB   C3C33427  12.111  14.316   6.567 -0.0183 -0.0916  0.2079
 1393BOLB   C4C33428  12.042  14.054   6.967  0.0782  0.0741  0.2335
 1393BOLB   C1D33429  11.857  14.407   5.522  0.2141 -0.1917 -0.2650
 1393BOLB   C2D33430  11.924  14.093   5.900 -0.1005  0.0026 -0.1901
 1393BOLB   C3D33431  12.086  13.872   6.223  0.0272  0.0314  0.1675
 1393BOLB   C4D33432  12.368  13.736   6.510  0.1206 -0.2430  0.4633
 1394BOLB   NC133433  12.035  16.248  12.908 -0.1787 -0.2801 -0.3009
 1394BOLB   PO133434  11.950  16.310  12.422  0.0032  0.4111 -0.1211
 1394BOLB   GL133435  11.581  16.298  12.239 -0.0078  0.0484  0.2974
 1394BOLB   GL233436  11.443  16.626  12.222 -0.2598  0.2671  0.3976
 1394BOLB   C1A33437  11.091  16.350  12.000  0.1542  0.0225  0.1097
 1394BOLB   C2A33438  10.857  16.308  11.551 -0.0874  0.0066  0.3649
 1394BOLB   C3A33439  10.454  16.295  11.458  0.0136 -0.2615  0.1652
 1394BOLB   C4A33440  10.169  16.544  11.291 -0.2968 -0.3228 -0.1567
 1394BOLB   C1B33441  11.477  17.090  12.379 -0.1440 -0.2088 -0.2109
 1394BOLB   C2B33442  11.075  17.344  12.452 -0.1528 -0.0814  0.1643
 1394BOLB   C3B33443  10.915  17.753  12.424 -0.1096  0.3819  0.0145
 1394BOLB   C4B33444  10.656  17.939  12.612 -0.0935 -0.4082  0.0810
 1394BOLB   NC233445   8.983  17.911   9.367 -0.2066  0.1274 -0.0970
 1394BOLB   PO233446   8.774  17.637   9.692  0.0372  0.1947 -0.0983
 1394BOLB   GL333447   9.255  17.512   9.800 -0.1552  0.1517 -0.1662
 1394BOLB   GL433448   9.248  17.746   9.958 -0.2244 -0.0630 -0.0601
 1394BOLB   C1C33449   9.347  17.243  10.103  0.0323 -0.0051  0.1153
 1394BOLB   C2C33450   9.628  17.196  10.515 -0.0965  0.0347 -0.1651
 1394BOLB   C3C33451   9.966  17.054  10.754  0.1346 -0.1263 -0.0379
 1394BOLB   C4C33452  10.177  16.879  10.996 -0.0780  0.3141 -0.3695
 1394BOLB   C1D33453   9.728  17.634  10.181 -0.3267  0.0415 -0.0945
 1394BOLB   C2D33454  10.100  17.463  10.399 -0.0197 -0.5351 -0.1628
 1394BOLB   C3D33455  10.476  17.215  10.586 -0.1390 -0.0534  0.0179
 1394BOLB   C4D33456  10.691  16.836  10.721  0.0713 -0.1611 -0.3876
 1395BOLB   NC133457  21.620  14.352  20.219 -0.0714 -0.5297 -0.0074
 1395BOLB   PO133458  21.802  14.824  20.058 -0.2434 -0.0994 -0.1946
 1395BOLB   GL133459  22.048  14.774  20.422  0.0807  0.0523  0.1257
 1395BOLB   GL233460  22.003  14.521  20.601 -0.1202 -0.1316  0.2953
 1395BOLB   C1A33461  22.464  14.566  20.623  0.2081  0.1860  0.0686
 1395BOLB   C2A33462  22.819  14.748  20.833 -0.2154 -0.0918 -0.4512
 1395BOLB   C3A33463  23.268  14.765  21.001  0.0530 -0.0436 -0.1233
 1395BOLB   C4A33464  23.596  15.059  21.138  0.1971  0.3705  0.0907
 1395BOLB   C1B33465  22.295  15.014  20.743 -0.2400  0.1740  0.1907
 1395BOLB   C2B33466  22.546  15.469  20.764 -0.0976 -0.0572  0.0702
 1395BOLB   C3B33467  22.788  15.696  21.098 -0.2470  0.2546 -0.0791
 1395BOLB   C4B33468  23.221  15.917  21.006 -0.2805  0.0298  0.0880
 1395BOLB   NC233469  24.802  16.734  22.454  0.3299 -0.0420 -0.1359
 1395BOLB   PO233470  25.220  16.651  22.250  0.2002  0.2382  0.0255
 1395BOLB   GL333471  24.928  16.387  22.113  0.0627  0.0050  0.2102
 1395BOLB   GL433472  24.916  16.128  22.125 -0.1446  0.2231  0.1350
 1395BOLB   C1C33473  24.774  16.288  21.608  0.1049 -0.1992 -0.1637
 1395BOLB   C2C33474  24.564  15.995  21.310 -0.0717 -0.0010 -0.0229
 1395BOLB   C3C33475  24.334  15.547  21.264  0.0771  0.2835  0.1434
 1395BOLB   C4C33476  23.944  15.295  21.097  0.1832  0.4209  0.1167
 1395BOLB   C1D33477  25.082  15.856  21.754  0.3226 -0.0391  0.0187
 1395BOLB   C2D33478  25.210  15.402  21.663 -0.0990 -0.1220  0.1808
 1395BOLB   C3D33479  25.259  15.019  21.556 -0.0226 -0.0819  0.0348
 1395BOLB   C4D33480  25.003  14.693  21.478  0.3369  0.1226 -0.1312
 1396BOLB   NC133481  22.311  13.494  12.661 -0.0131 -0.1855  0.0705
 1396BOLB   PO133482  22.542  13.361  12.447  0.0851  0.0551 -0.1729
 1396BOLB   GL133483  22.940  13.618  12.223  0.1328  0.2011  0.1057
 1396BOLB   GL233484  23.168  13.479  12.354 -0.1779 -0.1366  0.1383
 1396BOLB   C1A33485  23.293  13.772  11.948 -0.0042  0.0410 -0.0131
 1396BOLB   C2A33486  23.468  13.772  11.487 -0.2173  0.2343  0.0970
 1396BOLB   C3A33487  23.622  13.657  11.241  0.1175  0.0460 -0.2190
 1396BOLB   C4A33488  23.813  13.750  10.888 -0.0197 -0.1835  0.0058
 1396BOLB   C1B33489  23.544  13.417  12.283  0.1466  0.2862 -0.2361
 1396BOLB   C2B33490  23.749  13.748  12.101  0.0630  0.0949  0.0183
 1396BOLB   C3B33491  24.074  13.937  11.975  0.1206 -0.2759  0.0248
 1396BOLB   C4B33492  24.465  14.069  11.825 -0.0865 -0.0063 -0.1169
 1396BOLB   NC233493  25.001  15.194   9.477 -0.2275  0.0249 -0.2376
 1396BOLB   PO233494  25.289  14.916   9.518  0.0911 -0.2042  0.0771
 1396BOLB   GL333495  25.116  14.855   9.897 -0.0106 -0.1170  0.0153
 1396BOLB   GL433496  25.190  14.619   9.981  0.3233  0.0594 -0.1162
 1396BOLB   C1C33497  24.823  14.929  10.324  0.1825 -0.0540  0.0766
 1396BOLB   C2C33498  24.552  14.614  10.530 -0.0127 -0.0538 -0.2152
 1396BOLB   C3C33499  24.277  14.368  10.722  0.1921  0.1469 -0.1596
 1396BOLB   C4C33500  24.012  14.112  10.960 -0.2948 -0.0667 -0.1170
 1396BOLB   C1D33501  24.991  14.411  10.381  0.1120  0.1806 -0.1065
 1396BOLB   C2D33502  24.860  14.221  10.685 -0.1405  0.2816  0.0426
 1396BOLB   C3D33503  24.547  13.939  10.896  0.0709  0.0568 -0.0745
 1396BOLB   C4D33504  24.316  13.697  11.149  0.3322 -0.0246  0.3595
 1397BOLB   NC133505  12.373   9.339  22.051  0.0898 -0.2181  0.2244
 1397BOLB   PO133506  12.136   9.509  22.238 -0.1119  0.4599 -0.2128
 1397BOLB   GL133507  11.946   9.295  22.630  0.1879  0.0281  0.1711
 1397BOLB   GL233508  11.790   9.017  22.698  0.0374 -0.0951  0.1147
 1397BOLB   C1A33509  11.947   9.399  23.162 -0.1303 -0.0730  0.0635
 1397BOLB   C2A33510  11.798   9.227  23.528 -0.0619 -0.2453  0.1430
 1397BOLB   C3A33511  11.485   9.130  23.867  0.0019  0.2583 -0.1762
 1397BOLB   C4A33512  11.351   8.936  24.209 -0.2702  0.0979 -0.2921
 1397BOLB   C1B33513  11.967   8.885  22.958 -0.3467 -0.0025  0.0153
 1397BOLB   C2B33514  11.860   8.753  23.314 -0.0249  0.1382 -0.2716
 1397BOLB   C3B33515  11.745   8.691  23.733 -0.0965 -0.1037 -0.0367
 1397BOLB   C4B33516  11.753   8.639  24.133 -0.0673  0.3404  0.0491
 1397BOLB   NC233517   9.515  10.240  25.491  0.1664 -0.0789 -0.1965
 1397BOLB   PO233518   9.925  10.477  25.705 -0.0951 -0.2940  0.0770
 1397BOLB   GL333519  10.024  10.258  25.335  0.0123 -0.2809 -0.1351
 1397BOLB   GL433520  10.263  10.526  25.333  0.0174  0.2113 -0.0785
 1397BOLB   C1C33521  10.194   9.893  25.084  0.0441 -0.1241  0.1984
 1397BOLB   C2C33522  10.529   9.771  24.742  0.5634  0.1244  0.1062
 1397BOLB   C3C33523  10.865   9.539  24.545  0.0158 -0.0442 -0.1113
 1397BOLB   C4C33524  11.116   9.060  24.472 -0.2851  0.3308  0.2909
 1397BOLB   C1D33525  10.347  10.776  24.937  0.0201 -0.0592  0.0481
 1397BOLB   C2D33526  10.485  10.775  24.466  0.1193 -0.3169  0.2015
 1397BOLB   C3D33527  10.516  11.151  24.442  0.2843 -0.2658 -0.0191
 1397BOLB   C4D33528  10.876  11.319  24.185  0.0018 -0.2640  0.2540
 1398BOLB   NC133529   3.122   8.895   7.458  0.1539  0.4036 -0.0023
 1398BOLB   PO133530   3.242   8.556   7.160  0.1542 -0.2249 -0.1918
 1398BOLB   GL133531   3.555   8.572   7.427 -0.2062  0.1397 -0.2592
 1398BOLB   GL233532   3.603   8.915   7.323 -0.1113  0.0819  0.3888
 1398BOLB   C1A33533   3.654   8.666   7.897 -0.0324 -0.3769  0.3734
 1398BOLB   C2A33534   4.046   8.903   8.045  0.0755 -0.3721  0.1939
 1398BOLB   C3A33535   4.277   9.294   8.135  0.2261 -0.0050  0.1119
 1398BOLB   C4A33536   4.202   9.751   8.200  0.1168  0.1084  0.2199
 1398BOLB   C1B33537   3.822   9.059   7.637  0.1410  0.2450 -0.1522
 1398BOLB   C2B33538   4.185   9.203   7.662 -0.3884 -0.0787  0.0804
 1398BOLB   C3B33539   4.572   9.519   7.771  0.4152  0.0235 -0.0666
 1398BOLB   C4B33540   4.730   9.800   8.102  0.1406 -0.0512  0.1727
 1398BOLB   NC233541   2.944   9.885   7.776 -0.0897  0.3631 -0.0127
 1398BOLB   PO233542   2.496  10.072   7.980 -0.0913 -0.1140  0.0236
 1398BOLB   GL333543   2.871  10.021   8.368  0.3016  0.0742  0.3026
 1398BOLB   GL433544   3.110   9.882   8.339  0.2037 -0.1958 -0.0474
 1398BOLB   C1C33545   3.236  10.363   8.470  0.0287  0.1431  0.1958
 1398BOLB   C2C33546   3.592  10.202   8.619  0.3744  0.3753 -0.0076
 1398BOLB   C3C33547   4.054  10.256   8.423 -0.0854 -0.1312  0.1181
 1398BOLB   C4C33548   4.307  10.119   8.331  0.0961 -0.1226  0.0211
 1398BOLB   C1D33549   3.238   9.908   8.806 -0.2964 -0.1250  0.1209
 1398BOLB   C2D33550   3.537   9.662   8.956  0.0617 -0.0150 -0.2207
 1398BOLB   C3D33551   3.585   9.337   9.377  0.0334 -0.1998  0.0416
 1398BOLB   C4D33552   3.440   9.260   9.814  0.0580  0.0345 -0.0011
 1399BOLB   NC133553  21.492  17.277  16.193  0.2377 -0.3131 -0.0932
 1399BOLB   PO133554  21.806  16.918  16.057 -0.3543  0.0703  0.0415
 1399BOLB   GL133555  21.973  17.251  16.133 -0.1203 -0.2314 -0.0285
 1399BOLB   GL233556  22.286  17.120  16.328  0.0282  0.2664  0.0554
 1399BOLB   C1A33557  22.175  17.600  16.385 -0.0136  0.1263 -0.0170
 1399BOLB   C2A33558  22.652  17.891  16.474  0.3803  0.0724  0.1099
 1399BOLB   C3A33559  22.922  18.200  16.672  0.2647  0.3893  0.1347
 1399BOLB   C4A33560  23.169  18.364  16.975  0.2314  0.0169 -0.0273
 1399BOLB   C1B33561  22.691  17.347  16.367  0.3917  0.0662 -0.0725
 1399BOLB   C2B33562  23.097  17.615  16.516  0.1088  0.2471 -0.2287
 1399BOLB   C3B33563  23.478  17.965  16.426 -0.2328 -0.1469  0.0231
 1399BOLB   C4B33564  23.870  18.153  16.185  0.0272 -0.2657 -0.2117
 1399BOLB   NC233565  24.377  19.848  18.169 -0.1059  0.1959  0.2194
 1399BOLB   PO233566  24.141  20.189  17.986  0.0041  0.1078 -0.2984
 1399BOLB   GL333567  23.932  19.787  17.758 -0.1140  0.1253  0.0900
 1399BOLB   GL433568  23.856  19.654  18.103  0.1604 -0.0942  0.1659
 1399BOLB   C1C33569  24.047  19.411  17.669 -0.1424 -0.1638  0.1790
 1399BOLB   C2C33570  23.775  19.095  17.508  0.4970  0.0676  0.0529
 1399BOLB   C3C33571  23.770  18.678  17.474 -0.1723 -0.1887  0.0433
 1399BOLB   C4C33572  23.400  18.416  17.389 -0.0811  0.1907  0.1518
 1399BOLB   C1D33573  23.568  19.479  17.923 -0.0683  0.3872 -0.4180
 1399BOLB   C2D33574  23.438  18.938  17.816 -0.0437 -0.2090  0.0560
 1399BOLB   C3D33575  23.295  18.622  17.980  0.2253  0.0020 -0.0419
 1399BOLB   C4D33576  23.387  18.260  17.849 -0.1940 -0.0941  0.1915
 1400BOLB   NC133577  15.559   1.915  18.335  0.2340  0.0937  0.0415
 1400BOLB   PO133578  15.589   2.067  17.894 -0.3111 -0.0166 -0.0357
 1400BOLB   GL133579  15.821   1.597  18.072 -0.2640  0.3097 -0.1106
 1400BOLB   GL233580  16.128   1.529  18.071 -0.1421 -0.0688 -0.3527
 1400BOLB   C1A33581  15.682   1.305  18.334 -0.3175  0.1374 -0.2046
 1400BOLB   C2A33582  15.702   0.938  18.521  0.0765  0.2527  0.0011
 1400BOLB   C3A33583  15.558   0.774  18.952  0.0601 -0.0339  0.1393
 1400BOLB   C4A33584  15.764   0.423  19.147 -0.0677 -0.2925 -0.0971
 1400BOLB   C1B33585  16.174   1.293  18.466 -0.0967 -0.3544 -0.0384
 1400BOLB   C2B33586  16.504   1.027  18.663 -0.1237 -0.3041  0.2943
 1400BOLB   C3B33587  16.743   0.761  18.661  0.1963  0.2904  0.5000
 1400BOLB   C4B33588  16.967   0.488  19.016  0.2937  0.0275  0.0493
 1400BOLB   NC233589  15.590  -2.342  18.663  0.2386 -0.2513  0.1180
 1400BOLB   PO233590  15.249  -2.110  18.974 -0.0754 -0.0787 -0.1403
 1400BOLB   GL333591  15.359  -1.759  18.981 -0.1279  0.0943  0.1594
 1400BOLB   GL433592  15.305  -1.610  19.308 -0.1704  0.2729 -0.0596
 1400BOLB   C1C33593  15.638  -1.333  19.122 -0.2160  0.0193 -0.0454
 1400BOLB   C2C33594  15.842  -0.890  19.264  0.4261  0.4022  0.1004
 1400BOLB   C3C33595  15.805  -0.451  19.413 -0.0782 -0.1628  0.5644
 1400BOLB   C4C33596  15.753  -0.020  19.327  0.0719  0.0481  0.1169
 1400BOLB   C1D33597  15.047  -1.391  19.207  0.1588  0.2026 -0.5286
 1400BOLB   C2D33598  15.003  -0.983  19.165 -0.1194 -0.1297  0.2193
 1400BOLB   C3D33599  14.956  -0.533  19.056 -0.1206  0.1267  0.3249
 1400BOLB   C4D33600  15.041  -0.176  18.850  0.1051 -0.1504 -0.1303
 1401BOLB   NC133601  14.135  14.684  22.145  0.0979  0.0170 -0.2528
 1401BOLB   PO133602  14.149  14.233  22.209 -0.2299 -0.0714  0.0208
 1401BOLB   GL133603  13.876  14.351  22.569  0.0861 -0.2148  0.3975
 1401BOLB   GL233604  13.821  14.165  22.834 -0.2403 -0.2137 -0.2283
 1401BOLB   C1A33605  13.677  14.631  22.832  0.1088 -0.0725  0.1643
 1401BOLB   C2A33606  13.608  15.046  22.923  0.0880  0.0236  0.0630
 1401BOLB   C3A33607  13.586  15.382  23.218  0.2273 -0.1487  0.1931
 1401BOLB   C4A33608  13.472  15.568  23.581 -0.0444  0.3081 -0.3363
 1401BOLB   C1B33609  13.837  14.241  23.149 -0.0590  0.0723  0.1326
 1401BOLB   C2B33610  13.681  14.547  23.471  0.1485 -0.0501 -0.3023
 1401BOLB   C3B33611  13.834  14.499  23.870 -0.0493  0.1481 -0.3636
 1401BOLB   C4B33612  13.405  14.505  24.199  0.0996 -0.0112 -0.0853
 1401BOLB   NC233613  11.707  15.608  25.848 -0.1681  0.0829 -0.0368
 1401BOLB   PO233614  12.025  15.361  25.668 -0.1066  0.2361  0.0917
 1401BOLB   GL333615  12.384  15.478  25.516 -0.1025 -0.0690  0.0646
 1401BOLB   GL433616  12.667  15.604  25.738  0.1524  0.0738  0.3456
 1401BOLB   C1C33617  12.682  15.592  25.179 -0.1698 -0.4484  0.3601
 1401BOLB   C2C33618  12.823  15.381  24.698 -0.1940 -0.1340 -0.6687
 1401BOLB   C3C33619  13.064  15.388  24.323  0.3486 -0.0223 -0.1557
 1401BOLB   C4C33620  13.415  15.494  23.982 -0.0613  0.1477  0.0887
 1401BOLB   C1D33621  13.053  15.686  25.589 -0.1080  0.0108 -0.2022
 1401BOLB   C2D33622  13.263  15.611  25.248 -0.1539 -0.2873  0.1526
 1401BOLB   C3D33623  13.415  15.586  24.868  0.1228 -0.2042 -0.3478
 1401BOLB   C4D33624  13.558  15.510  24.452  0.0178  0.1627 -0.0984
 1402BOLB   NC133625  10.992   4.613  19.795 -0.1536  0.0380 -0.2113
 1402BOLB   PO133626  11.004   4.859  20.171  0.2095 -0.0685  0.1941
 1402BOLB   GL133627  10.788   4.481  20.277  0.3097 -0.3058 -0.2359
 1402BOLB   GL233628  10.882   4.357  20.577  0.3795  0.1539 -0.0732
 1402BOLB   C1A33629  10.657   3.907  20.342  0.3358  0.2592  0.2050
 1402BOLB   C2A33630  10.593   3.671  20.694 -0.1570 -0.1511 -0.0268
 1402BOLB   C3A33631  10.598   3.214  20.852 -0.1222  0.0117  0.2328
 1402BOLB   C4A33632  10.632   2.729  20.979 -0.3828  0.0069 -0.0712
 1402BOLB   C1B33633  10.873   4.278  20.898  0.3080  0.0118 -0.0734
 1402BOLB   C2B33634  10.822   4.244  21.307  0.0262 -0.2561 -0.1754
 1402BOLB   C3B33635  11.063   4.077  21.721 -0.2079  0.1535 -0.0020
 1402BOLB   C4B33636  11.089   4.255  22.177  0.3027  0.1220  0.0207
 1402BOLB   NC233637  11.561   1.958  23.710  0.2320 -0.2423 -0.0808
 1402BOLB   PO233638  11.218   1.783  23.475  0.1225 -0.3716  0.0842
 1402BOLB   GL333639  11.130   1.917  23.041  0.0702 -0.2842  0.3148
 1402BOLB   GL433640  11.296   2.227  22.924  0.3236  0.0694  0.3432
 1402BOLB   C1C33641  10.959   1.894  22.603 -0.0244 -0.0785 -0.1367
 1402BOLB   C2C33642  10.997   2.004  22.218 -0.0742 -0.1881  0.4047
 1402BOLB   C3C33643  11.015   2.217  21.813  0.1909 -0.0799  0.1548
 1402BOLB   C4C33644  10.807   2.418  21.372  0.0188  0.2292 -0.2616
 1402BOLB   C1D33645  11.345   2.691  22.882 -0.1870  0.0507  0.3138
 1402BOLB   C2D33646  11.152   3.046  23.001 -0.3159 -0.1711  0.2180
 1402BOLB   C3D33647  11.181   3.219  23.350  0.2263 -0.0221 -0.1710
 1402BOLB   C4D33648  11.068   3.256  23.750 -0.2847 -0.1612  0.3044
 1403BOLB   NC133649  12.077  14.701  21.187 -0.0801 -0.0222  0.1237
 1403BOLB   PO133650  11.873  14.845  20.898  0.3092 -0.0584  0.0910
 1403BOLB   GL133651  11.724  15.040  21.228  0.0892  0.0463  0.1217
 1403BOLB   GL233652  11.597  15.323  21.025  0.2327  0.3637 -0.1726
 1403BOLB   C1A33653  11.469  15.220  21.513  0.1730  0.1866  0.1015
 1403BOLB   C2A33654  11.136  15.414  21.803 -0.2461 -0.0843 -0.1608
 1403BOLB   C3A33655  10.962  15.476  22.161  0.0719  0.0836  0.0970
 1403BOLB   C4A33656  10.963  15.389  22.633 -0.0176 -0.0244  0.1922
 1403BOLB   C1B33657  11.201  15.540  21.248 -0.2077 -0.0734 -0.2975
 1403BOLB   C2B33658  11.171  16.081  21.232 -0.0571  0.1847 -0.4017
 1403BOLB   C3B33659  11.332  16.456  21.023  0.0094 -0.0010  0.0370
 1403BOLB   C4B33660  11.112  16.853  21.089  0.0920 -0.0422  0.2232
 1403BOLB   NC233661   9.302  16.208  24.093  0.1427  0.2931 -0.2132
 1403BOLB   PO233662   9.209  15.778  24.155 -0.2720  0.0311 -0.1574
 1403BOLB   GL333663   9.562  15.733  24.019  0.2206 -0.1541  0.3992
 1403BOLB   GL433664   9.390  15.475  23.784 -0.2421  0.6676 -0.0518
 1403BOLB   C1C33665   9.761  15.834  23.665  0.3017 -0.1019  0.0811
 1403BOLB   C2C33666   9.911  15.488  23.306  0.0543 -0.3418 -0.1909
 1403BOLB   C3C33667  10.382  15.451  23.310  0.4778  0.2411 -0.4996
 1403BOLB   C4C33668  10.607  15.492  22.932 -0.0679  0.0704  0.0808
 1403BOLB   C1D33669   9.565  15.125  23.500 -0.1146  0.0997 -0.0006
 1403BOLB   C2D33670   9.698  14.981  23.060 -0.1866  0.2449 -0.0083
 1403BOLB   C3D33671   9.725  14.579  22.759  0.1758 -0.0919 -0.0585
 1403BOLB   C4D33672   9.802  14.211  22.539  0.0799 -0.3348 -0.0197
 1404BOLB   NC133673   8.229  16.079   8.194 -0.2310  0.0606 -0.2307
 1404BOLB   PO133674   8.464  15.884   8.626 -0.2499 -0.6289  0.0891
 1404BOLB   GL133675   8.695  15.460   8.672 -0.1295 -0.0473 -0.2687
 1404BOLB   GL233676   8.977  15.455   8.425  0.3309  0.0262 -0.3501
 1404BOLB   C1A33677   8.921  15.037   8.777 -0.0187  0.0407  0.2186
 1404BOLB   C2A33678   9.159  14.747   9.049 -0.0004 -0.0037 -0.2048
 1404BOLB   C3A33679   9.318  14.477   9.286  0.0094 -0.0421  0.1660
 1404BOLB   C4A33680   9.083  14.161   9.325  0.0299  0.0112 -0.1446
 1404BOLB   C1B33681   9.310  15.296   8.527 -0.0150 -0.0706 -0.1339
 1404BOLB   C2B33682   9.468  15.233   8.876 -0.0188  0.0535 -0.1868
 1404BOLB   C3B33683   9.660  14.936   9.089  0.3994  0.0039 -0.2176
 1404BOLB   C4B33684  10.015  14.838   9.363 -0.1060 -0.0297 -0.0153
 1404BOLB   NC233685   6.939  14.981   8.354  0.1374 -0.1794  0.0205
 1404BOLB   PO233686   7.083  15.143   8.707 -0.0342  0.4163  0.0115
 1404BOLB   GL333687   7.445  15.134   8.940  0.4932 -0.0260 -0.0755
 1404BOLB   GL433688   7.398  14.801   9.225 -0.0443 -0.0569  0.0981
 1404BOLB   C1C33689   7.856  14.734   9.017 -0.1941 -0.1354 -0.0561
 1404BOLB   C2C33690   8.157  14.380   9.138  0.1553 -0.1802 -0.1390
 1404BOLB   C3C33691   8.437  13.949   9.248  0.1115  0.1498  0.1731
 1404BOLB   C4C33692   8.784  13.807   9.186  0.0001 -0.1323 -0.0692
 1404BOLB   C1D33693   7.581  14.325   9.381  0.0264  0.2876  0.0155
 1404BOLB   C2D33694   7.729  13.917   9.355  0.0284 -0.3007  0.2416
 1404BOLB   C3D33695   7.984  13.564   9.122 -0.0972 -0.2406 -0.0057
 1404BOLB   C4D33696   8.411  13.341   9.002  0.1518  0.1081 -0.3239
 1405BOLB   NC133697  20.597   3.258  12.531  0.2182 -0.2904 -0.2208
 1405BOLB   PO133698  20.628   3.351  12.931 -0.0114 -0.2336 -0.0263
 1405BOLB   GL133699  20.945   3.006  12.980 -0.0523  0.3700  0.5490
 1405BOLB   GL233700  21.119   3.287  12.811  0.0654 -0.0365 -0.0680
 1405BOLB   C1A33701  21.318   2.785  13.041 -0.2279 -0.1737  0.0552
 1405BOLB   C2A33702  21.507   2.526  13.303 -0.1597  0.1457  0.3534
 1405BOLB   C3A33703  21.748   2.200  13.300  0.3413  0.1093  0.1035
 1405BOLB   C4A33704  22.119   1.926  13.457 -0.0392  0.1327  0.2908
 1405BOLB   C1B33705  21.512   3.181  12.674 -0.1015 -0.1840  0.4027
 1405BOLB   C2B33706  21.719   2.775  12.748  0.1587 -0.0965 -0.0713
 1405BOLB   C3B33707  21.975   2.364  12.923  0.1425 -0.0769  0.1429
 1405BOLB   C4B33708  22.011   2.005  12.937  0.3420  0.2630 -0.0132
 1405BOLB   NC233709  22.962  -0.430  12.703  0.2140 -0.1325 -0.2229
 1405BOLB   PO233710  23.224  -0.079  12.711  0.0499 -0.0349 -0.1680
 1405BOLB   GL333711  23.158   0.223  12.995 -0.0901  0.0247 -0.4393
 1405BOLB   GL433712  22.742   0.086  13.165  0.0510 -0.0706 -0.3223
 1405BOLB   C1C33713  22.981   0.643  13.166 -0.1015  0.1930 -0.4331
 1405BOLB   C2C33714  22.925   1.067  13.313 -0.1522 -0.1079  0.1438
 1405BOLB   C3C33715  22.737   1.364  13.371 -0.2047 -0.1946 -0.1416
 1405BOLB   C4C33716  22.496   1.738  13.512 -0.1775 -0.2768  0.2318
 1405BOLB   C1D33717  22.484   0.542  13.204  0.2140 -0.2421 -0.3001
 1405BOLB   C2D33718  22.286   0.862  13.458  0.1639  0.1610 -0.1696
 1405BOLB   C3D33719  22.286   1.252  13.718  0.0286  0.1562 -0.0675
 1405BOLB   C4D33720  22.091   1.538  13.810 -0.0497 -0.1615  0.1109
 1406BOLB   NC133721  20.319  11.775  23.322 -0.0203  0.3391 -0.3918
 1406BOLB   PO133722  20.585  11.752  23.123 -0.1455  0.2891 -0.1554
 1406BOLB   GL133723  20.687  11.992  23.585 -0.0907 -0.4490  0.1095
 1406BOLB   GL233724  20.570  12.341  23.647 -0.0867  0.1791  0.0516
 1406BOLB   C1A33725  21.099  11.906  23.849  0.2715  0.0071  0.0525
 1406BOLB   C2A33726  21.033  11.708  24.178  0.0406  0.4759 -0.1683
 1406BOLB   C3A33727  21.041  11.471  24.565  0.2770  0.0552  0.0337
 1406BOLB   C4A33728  20.975  11.140  24.980 -0.3221  0.3438  0.1978
 1406BOLB   C1B33729  20.914  12.692  23.783  0.0898 -0.0906  0.0312
 1406BOLB   C2B33730  20.973  12.849  24.309  0.1302  0.3102  0.1247
 1406BOLB   C3B33731  20.924  12.821  24.715 -0.1944 -0.2897 -0.2591
 1406BOLB   C4B33732  20.695  12.715  25.110  0.1169  0.2759  0.0113
 1406BOLB   NC233733  21.717  10.622  26.941 -0.2672  0.0895  0.1213
 1406BOLB   PO233734  21.388  10.545  27.107 -0.2089 -0.0818 -0.0335
 1406BOLB   GL333735  21.133  10.725  26.999 -0.2804 -0.1197  0.2479
 1406BOLB   GL433736  20.975  10.545  26.811  0.0259  0.0626 -0.4400
 1406BOLB   C1C33737  21.283  11.057  26.688  0.2462  0.1710 -0.0066
 1406BOLB   C2C33738  21.276  10.840  26.278 -0.1081 -0.1577 -0.1714
 1406BOLB   C3C33739  21.291  10.834  25.753 -0.1099 -0.1074 -0.0866
 1406BOLB   C4C33740  21.151  11.044  25.421  0.0912  0.0911 -0.3389
 1406BOLB   C1D33741  20.812  10.778  26.495  0.2006 -0.3847  0.1882
 1406BOLB   C2D33742  20.555  11.121  26.277  0.1202  0.0936  0.0767
 1406BOLB   C3D33743  20.252  11.410  26.122  0.1291 -0.0002  0.0363
 1406BOLB   C4D33744  20.189  11.723  25.799 -0.0734 -0.0989  0.0960
 1407BOLB   NC133745  12.242  13.775  21.343 -0.1199 -0.1026  0.2526
 1407BOLB   PO133746  12.120  13.863  21.662 -0.1214 -0.2153 -0.1334
 1407BOLB   GL133747  11.927  14.026  22.006 -0.0721  0.0554 -0.1969
 1407BOLB   GL233748  11.691  13.942  22.309  0.2111 -0.1476  0.1977
 1407BOLB   C1A33749  11.770  14.459  22.103 -0.5369  0.2519  0.0389
 1407BOLB   C2A33750  11.504  14.626  22.217 -0.0849  0.0167  0.0542
 1407BOLB   C3A33751  11.380  14.809  22.612  0.0024  0.1705 -0.0298
 1407BOLB   C4A33752  11.315  15.040  22.842 -0.0738  0.1285  0.2074
 1407BOLB   C1B33753  11.508  14.195  22.489 -0.1602 -0.0521  0.0442
 1407BOLB   C2B33754  11.367  14.147  22.915  0.2209  0.0509 -0.2089
 1407BOLB   C3B33755  11.144  14.139  23.297  0.1000 -0.1206  0.2911
 1407BOLB   C4B33756  10.996  14.238  23.747  0.1729  0.1225  0.2382
 1407BOLB   NC233757  10.533  16.802  24.659  0.0058 -0.1872 -0.0374
 1407BOLB   PO233758  10.411  16.489  24.308  0.1298  0.2239 -0.1420
 1407BOLB   GL333759  10.506  16.346  23.941 -0.0677  0.3176 -0.1413
 1407BOLB   GL433760  10.377  16.705  23.837  0.0624 -0.0271 -0.0309
 1407BOLB   C1C33761  10.409  16.136  23.640 -0.3827 -0.0511  0.1615
 1407BOLB   C2C33762  10.687  15.865  23.328  0.0236  0.4820 -0.0767
 1407BOLB   C3C33763  10.966  15.473  23.316  0.0378 -0.1611 -0.0651
 1407BOLB   C4C33764  11.151  15.088  23.284 -0.1649  0.2841 -0.4040
 1407BOLB   C1D33765  10.780  16.656  23.711  0.1388  0.3302  0.2796
 1407BOLB   C2D33766  10.987  16.350  23.506  0.0185 -0.0980 -0.0121
 1407BOLB   C3D33767  11.092  15.843  23.626  0.0705 -0.3242 -0.0455
 1407BOLB   C4D33768  11.448  15.485  23.535  0.0860  0.0153  0.1505
 1408BOLB   NC133769   9.044   6.897  19.293 -0.1092  0.0330 -0.1822
 1408BOLB   PO133770   9.255   6.538  19.182  0.0021 -0.0988  0.0148
 1408BOLB   GL133771   8.886   6.354  19.295  0.0725  0.2313 -0.3629
 1408BOLB   GL233772   8.635   6.629  19.301  0.0941  0.1338  0.0869
 1408BOLB   C1A33773   8.440   6.206  19.158 -0.0688  0.4304  0.0178
 1408BOLB   C2A33774   8.203   5.887  19.434  0.1786 -0.2192 -0.2562
 1408BOLB   C3A33775   8.090   5.924  19.897 -0.0301 -0.1574 -0.0379
 1408BOLB   C4A33776   7.834   5.679  20.104  0.1211 -0.2420  0.1912
 1408BOLB   C1B33777   8.422   6.458  19.586  0.1504 -0.0803 -0.1205
 1408BOLB   C2B33778   8.175   6.419  19.850  0.3583 -0.1892 -0.0236
 1408BOLB   C3B33779   7.764   6.329  20.115  0.2799  0.0334 -0.1466
 1408BOLB   C4B33780   7.355   6.322  20.293 -0.0152 -0.1463  0.0496
 1408BOLB   NC233781   5.566   4.710  21.833  0.1456 -0.0356 -0.1269
 1408BOLB   PO233782   5.838   4.880  21.454 -0.0893  0.0025 -0.1718
 1408BOLB   GL333783   6.288   5.205  21.555 -0.2474 -0.0590 -0.0767
 1408BOLB   GL433784   6.593   5.095  21.628  0.1425 -0.0490  0.3651
 1408BOLB   C1C33785   6.447   5.510  21.232 -0.0511  0.2540  0.0050
 1408BOLB   C2C33786   6.672   5.650  20.788  0.0731  0.3972 -0.1671
 1408BOLB   C3C33787   7.127   5.892  20.480 -0.0927 -0.1492 -0.1084
 1408BOLB   C4C33788   7.407   5.757  20.193 -0.2849 -0.0044  0.0261
 1408BOLB   C1D33789   6.869   5.159  21.308  0.4096  0.1217 -0.0150
 1408BOLB   C2D33790   6.885   5.224  20.953  0.1315 -0.0998  0.1398
 1408BOLB   C3D33791   7.037   5.424  20.606 -0.2263 -0.1513 -0.0998
 1408BOLB   C4D33792   7.332   5.258  20.307 -0.1538  0.0699  0.2007
 1409BOLB   NC133793   8.697  12.458  17.729  0.2424  0.0207  0.4082
 1409BOLB   PO133794   8.589  12.044  17.704 -0.1794 -0.0636  0.2519
 1409BOLB   GL133795   8.243  12.245  17.866 -0.0279  0.2562  0.1814
 1409BOLB   GL233796   8.058  12.490  17.718  0.1788  0.0240  0.1788
 1409BOLB   C1A33797   7.744  12.226  17.998  0.1582 -0.1503 -0.1246
 1409BOLB   C2A33798   7.416  12.289  18.252  0.0827 -0.1734 -0.0545
 1409BOLB   C3A33799   7.103  12.486  18.228  0.0846  0.0150  0.1257
 1409BOLB   C4A33800   6.789  12.571  18.538 -0.2838 -0.2607 -0.1075
 1409BOLB   C1B33801   7.880  12.784  17.659 -0.1238  0.2944  0.0987
 1409BOLB   C2B33802   7.521  12.682  17.873  0.2036 -0.0501  0.2046
 1409BOLB   C3B33803   7.126  12.744  17.700 -0.1366  0.1653 -0.2372
 1409BOLB   C4B33804   6.719  12.808  18.045  0.2638  0.1140  0.2026
 1409BOLB   NC233805   4.608  12.720  17.184 -0.1382 -0.0790  0.0763
 1409BOLB   PO233806   4.623  12.494  17.590  0.0090 -0.0135 -0.1131
 1409BOLB   GL333807   5.080  12.511  17.413  0.1200 -0.0935 -0.2982
 1409BOLB   GL433808   5.187  12.387  17.193 -0.2275  0.0149  0.0255
 1409BOLB   C1C33809   5.448  12.781  17.542 -0.3276 -0.0669  0.1916
 1409BOLB   C2C33810   5.847  12.863  17.677  0.1224  0.1308  0.1301
 1409BOLB   C3C33811   6.154  12.743  17.920 -0.2707 -0.0491 -0.1414
 1409BOLB   C4C33812   6.350  12.688  18.403 -0.1117  0.3968  0.0810
 1409BOLB   C1D33813   5.552  12.302  17.477 -0.1084 -0.0467  0.0219
 1409BOLB   C2D33814   6.009  12.303  17.488  0.2358  0.0904  0.1116
 1409BOLB   C3D33815   6.343  12.315  17.186  0.1672 -0.2038  0.3042
 1409BOLB   C4D33816   6.645  12.388  16.869  0.2225  0.2372 -0.3262
 1410BOLB   NC133817  10.908  10.970  21.340  0.1149  0.1561  0.1035
 1410BOLB   PO133818  11.351  11.043  21.522 -0.1387  0.2288 -0.3286
 1410BOLB   GL133819  11.071  11.102  21.894 -0.3509 -0.1093 -0.0021
 1410BOLB   GL233820  11.212  10.896  22.177 -0.4234 -0.2314 -0.1869
 1410BOLB   C1A33821  10.713  11.084  21.941 -0.2622 -0.3216  0.0901
 1410BOLB   C2A33822  10.395  10.867  22.061 -0.1821 -0.0786  0.3424
 1410BOLB   C3A33823   9.984  10.880  22.282 -0.0584 -0.0669  0.2011
 1410BOLB   C4A33824   9.670  10.901  22.636 -0.0230 -0.1723  0.0145
 1410BOLB   C1B33825  10.805  11.137  22.402 -0.1792  0.1658  0.1705
 1410BOLB   C2B33826  10.450  11.277  22.360  0.0127 -0.4194  0.0458
 1410BOLB   C3B33827  10.476  11.677  22.589  0.2348  0.4739 -0.1898
 1410BOLB   C4B33828  10.354  12.005  22.742 -0.1554 -0.1600 -0.0485
 1410BOLB   NC233829   8.823   9.724  25.071  0.4805 -0.2012  0.2724
 1410BOLB   PO233830   8.645   9.717  24.643  0.3504 -0.0104  0.0603
 1410BOLB   GL333831   8.788   9.748  24.244 -0.1352 -0.0543 -0.0597
 1410BOLB   GL433832   8.662   9.579  24.169  0.0449 -0.2098 -0.0265
 1410BOLB   C1C33833   9.059   9.921  23.878  0.2116 -0.2422  0.0210
 1410BOLB   C2C33834   9.246  10.266  23.655 -0.0345 -0.0228  0.1699
 1410BOLB   C3C33835   9.444  10.494  23.365  0.0468  0.1342 -0.0269
 1410BOLB   C4C33836   9.553  10.719  23.035  0.1312  0.0065  0.1150
 1410BOLB   C1D33837   8.829   9.412  23.744  0.2786 -0.3350 -0.0447
 1410BOLB   C2D33838   9.000   9.327  23.436  0.0519  0.1711  0.1151
 1410BOLB   C3D33839   9.091   9.208  23.041  0.2793  0.0758 -0.0737
 1410BOLB   C4D33840   9.360   8.981  22.682  0.1437 -0.3314  0.0693
 1411BOLB   NC133841  17.580  17.303  12.701  0.1536 -0.2246  0.2319
 1411BOLB   PO133842  17.334  17.614  12.474 -0.1526  0.1996 -0.1747
 1411BOLB   GL133843  17.446  18.077  12.535 -0.1457 -0.0140 -0.0377
 1411BOLB   GL233844  17.789  18.163  12.599 -0.0415 -0.0904 -0.0864
 1411BOLB   C1A33845  17.469  18.522  12.465 -0.1351 -0.2003 -0.1374
 1411BOLB   C2A33846  17.624  19.005  12.573 -0.3735  0.0386  0.1528
 1411BOLB   C3A33847  17.821  19.351  12.634  0.2308 -0.2646  0.2648
 1411BOLB   C4A33848  18.119  19.409  12.424 -0.1191  0.2729  0.0242
 1411BOLB   C1B33849  17.965  18.510  12.460 -0.3141  0.1197  0.1837
 1411BOLB   C2B33850  18.175  18.964  12.248  0.4583  0.0983  0.2429
 1411BOLB   C3B33851  18.387  19.176  11.988 -0.0964 -0.0331  0.2756
 1411BOLB   C4B33852  18.617  19.168  11.486  0.0672 -0.1330 -0.0723
 1411BOLB   NC233853  18.345  21.734  10.911 -0.1630  0.2625  0.1597
 1411BOLB   PO233854  18.253  21.324  11.100 -0.2873  0.6552  0.0583
 1411BOLB   GL333855  18.175  20.933  11.191 -0.0085 -0.0893 -0.1744
 1411BOLB   GL433856  17.852  20.944  11.081  0.3572 -0.0698 -0.4382
 1411BOLB   C1C33857  18.137  20.659  11.509 -0.1757 -0.0958  0.1862
 1411BOLB   C2C33858  17.992  20.455  11.800  0.0531 -0.0522  0.1221
 1411BOLB   C3C33859  18.125  20.067  12.039  0.1836  0.2126 -0.2437
 1411BOLB   C4C33860  18.293  19.708  12.327 -0.1178 -0.2540  0.3239
 1411BOLB   C1D33861  17.889  20.413  11.100  0.0780  0.3452  0.3568
 1411BOLB   C2D33862  17.625  20.138  10.983  0.3313  0.1131  0.0582
 1411BOLB   C3D33863  17.191  20.077  10.857  0.0031  0.1180  0.2302
 1411BOLB   C4D33864  17.059  20.115  10.520 -0.1181  0.3354  0.1912
 1412BOLB   NC133865  23.133  13.531  19.253 -0.3912 -0.3804  0.1988
 1412BOLB   PO133866  23.524  13.329  19.107 -0.1403 -0.2041  0.0211
 1412BOLB   GL133867  23.928  13.543  19.144  0.0980 -0.0426  0.2249
 1412BOLB   GL233868  23.969  13.861  19.168 -0.2207 -0.3693  0.0460
 1412BOLB   C1A33869  24.400  13.564  19.169 -0.1270 -0.3093  0.4061
 1412BOLB   C2A33870  24.694  13.726  19.434  0.0711 -0.0936  0.1093
 1412BOLB   C3A33871  24.720  13.992  19.808  0.0025 -0.2077  0.1445
 1412BOLB   C4A33872  25.039  14.279  19.990 -0.1510 -0.1843  0.0157
 1412BOLB   C1B33873  24.377  14.072  19.185  0.2473  0.0587 -0.0432
 1412BOLB   C2B33874  24.703  14.458  19.165 -0.2732 -0.0688  0.1500
 1412BOLB   C3B33875  25.090  14.650  19.120  0.1383 -0.0789 -0.0686
 1412BOLB   C4B33876  25.555  14.790  19.171 -0.3651  0.0363  0.1254
 1412BOLB   NC233877  27.011  15.560  20.696 -0.2144 -0.1014 -0.0142
 1412BOLB   PO233878  27.211  15.144  20.645 -0.1781  0.3080 -0.1435
 1412BOLB   GL333879  26.836  15.067  20.477  0.1980  0.3346  0.4298
 1412BOLB   GL433880  26.832  15.269  20.266 -0.1618 -0.1045  0.0221
 1412BOLB   C1C33881  26.423  14.951  20.258  0.0173 -0.1507 -0.2855
 1412BOLB   C2C33882  26.030  14.876  20.297  0.1795 -0.0579  0.0503
 1412BOLB   C3C33883  25.601  14.612  20.153  0.1072 -0.2372 -0.2936
 1412BOLB   C4C33884  25.234  14.576  20.113 -0.0618  0.0563  0.2754
 1412BOLB   C1D33885  26.776  15.040  19.772 -0.0132 -0.0489 -0.0291
 1412BOLB   C2D33886  26.543  14.729  19.578  0.3592  0.0335 -0.0220
 1412BOLB   C3D33887  26.438  14.275  19.418 -0.0463  0.0502  0.0158
 1412BOLB   C4D33888  26.547  13.808  19.286  0.2845 -0.2175  0.2902
 1413BOLB   NC133889  17.216  17.379  11.998 -0.1290 -0.1520  0.4257
 1413BOLB   PO133890  17.277  17.807  12.008 -0.2811 -0.3172 -0.2636
 1413BOLB   GL133891  17.437  18.218  12.086 -0.2452  0.1007 -0.1018
 1413BOLB   GL233892  17.299  18.326  11.787 -0.0345  0.2625  0.1665
 1413BOLB   C1A33893  17.663  18.674  12.032  0.0333  0.0288 -0.1419
 1413BOLB   C2A33894  17.792  19.197  11.963  0.2554 -0.0298 -0.0488
 1413BOLB   C3A33895  17.753  19.665  12.221  0.0041 -0.2524 -0.0640
 1413BOLB   C4A33896  17.920  19.926  12.529 -0.0060  0.0566  0.1781
 1413BOLB   C1B33897  17.665  18.507  11.600 -0.0853 -0.1767 -0.0071
 1413BOLB   C2B33898  17.869  18.607  11.210  0.3319 -0.1187  0.2160
 1413BOLB   C3B33899  17.893  18.347  11.001 -0.0668 -0.0003 -0.0244
 1413BOLB   C4B33900  18.138  18.028  11.023  0.0859  0.0592 -0.3082
 1413BOLB   NC233901  18.963  22.136  13.201 -0.0505 -0.2910 -0.1305
 1413BOLB   PO233902  18.757  22.073  12.846  0.0576 -0.3257 -0.3280
 1413BOLB   GL333903  18.786  21.692  12.638  0.1233 -0.0603 -0.1642
 1413BOLB   GL433904  18.589  21.523  12.386  0.0371  0.1912 -0.0670
 1413BOLB   C1C33905  18.825  21.246  12.720  0.1599 -0.0494  0.0038
 1413BOLB   C2C33906  18.739  20.888  12.900 -0.0730 -0.2723 -0.1028
 1413BOLB   C3C33907  18.440  20.556  12.793  0.0356 -0.2198  0.1481
 1413BOLB   C4C33908  18.269  20.229  12.586  0.0616 -0.1699 -0.1453
 1413BOLB   C1D33909  18.363  21.208  12.580 -0.2479 -0.2646 -0.2777
 1413BOLB   C2D33910  18.541  20.880  12.438  0.2922 -0.0396  0.2276
 1413BOLB   C3D33911  18.433  20.515  12.191 -0.0001 -0.0601 -0.0377
 1413BOLB   C4D33912  18.706  20.092  12.076 -0.1517 -0.0264  0.1669
 1414BOLB   NC133913  21.599   5.586  19.904 -0.1115 -0.4039  0.1553
 1414BOLB   PO133914  21.946   5.796  19.892 -0.1111  0.2890 -0.2603
 1414BOLB   GL133915  22.114   5.693  20.200  0.4027 -0.0233 -0.0464
 1414BOLB   GL233916  22.104   5.954  20.346 -0.1339 -0.0700 -0.1497
 1414BOLB   C1A33917  22.021   5.358  20.474 -0.0249  0.0319  0.3154
 1414BOLB   C2A33918  22.203   5.246  20.910 -0.2625 -0.1301 -0.0042
 1414BOLB   C3A33919  22.032   5.026  21.267  0.2860 -0.1964 -0.0145
 1414BOLB   C4A33920  22.147   4.760  21.614  0.1249 -0.3159 -0.2139
 1414BOLB   C1B33921  22.400   5.636  20.604  0.1218 -0.0629  0.1272
 1414BOLB   C2B33922  22.739   5.389  20.788 -0.1318 -0.1678 -0.4010
 1414BOLB   C3B33923  22.776   5.010  20.909  0.0710 -0.1011 -0.3711
 1414BOLB   C4B33924  22.712   4.632  20.857 -0.0695  0.4092  0.0602
 1414BOLB   NC233925  23.528   2.884  22.822 -0.1272 -0.2619  0.1550
 1414BOLB   PO233926  23.328   3.252  22.932 -0.3330  0.0611  0.0054
 1414BOLB   GL333927  23.289   3.504  22.710  0.1300  0.0401 -0.0136
 1414BOLB   GL433928  23.502   3.632  22.535 -0.1587 -0.4725  0.1423
 1414BOLB   C1C33929  22.986   3.850  22.574  0.1847 -0.3719 -0.4078
 1414BOLB   C2C33930  22.765   4.201  22.376 -0.0900  0.1411 -0.1436
 1414BOLB   C3C33931  22.411   4.442  22.391 -0.1731 -0.1981  0.0360
 1414BOLB   C4C33932  22.106   4.476  22.005  0.0418 -0.0559 -0.1370
 1414BOLB   C1D33933  23.407   4.030  22.386  0.2068 -0.1291  0.0850
 1414BOLB   C2D33934  23.235   4.410  22.182  0.1283  0.2347 -0.1470
 1414BOLB   C3D33935  22.894   4.378  21.886 -0.1106  0.3008 -0.1784
 1414BOLB   C4D33936  22.604   4.591  21.634  0.0691  0.0468  0.2045
 1415BOLB   NC133937  14.953  16.508  10.652  0.1765 -0.0702 -0.0159
 1415BOLB   PO133938  15.063  16.778  10.843 -0.2124  0.2652  0.0224
 1415BOLB   GL133939  14.864  17.067  10.633 -0.1641  0.0302  0.2592
 1415BOLB   GL233940  14.723  16.982  10.379 -0.1071 -0.0764 -0.1582
 1415BOLB   C1A33941  14.650  17.387  10.712 -0.1664  0.3737  0.0679
 1415BOLB   C2A33942  14.434  17.720  10.493 -0.0089 -0.1402  0.1814
 1415BOLB   C3A33943  14.445  18.133  10.536 -0.1839  0.1984 -0.1817
 1415BOLB   C4A33944  14.477  18.534  10.691 -0.0692  0.0369  0.0428
 1415BOLB   C1B33945  14.568  17.318  10.237  0.2751 -0.0191 -0.1660
 1415BOLB   C2B33946  14.757  17.726  10.064  0.0049  0.0272  0.1420
 1415BOLB   C3B33947  14.795  18.003   9.670  0.0892  0.0680 -0.0763
 1415BOLB   C4B33948  15.142  18.187   9.499  0.2840  0.2067  0.1717
 1415BOLB   NC233949  13.990  20.305   9.081  0.0167  0.2409 -0.0011
 1415BOLB   PO233950  13.602  20.259   9.274 -0.3262 -0.0134  0.4544
 1415BOLB   GL333951  13.615  19.812   9.527 -0.5029  0.0961 -0.0965
 1415BOLB   GL433952  13.380  19.624   9.503  0.0236 -0.0740  0.2421
 1415BOLB   C1C33953  13.955  19.544   9.793  0.1593 -0.0033  0.2479
 1415BOLB   C2C33954  14.318  19.392   9.914  0.0207 -0.0413  0.1163
 1415BOLB   C3C33955  14.630  19.139  10.187  0.0775 -0.2177 -0.2531
 1415BOLB   C4C33956  14.713  18.864  10.619  0.0535  0.0024  0.0632
 1415BOLB   C1D33957  13.408  19.280   9.841  0.0889 -0.1604  0.0740
 1415BOLB   C2D33958  13.444  18.960  10.225  0.0256 -0.2760  0.1258
 1415BOLB   C3D33959  13.732  18.677  10.280 -0.0639  0.0025 -0.1210
 1415BOLB   C4D33960  14.013  18.409  10.472  0.0458  0.1612  0.1379
 1416BOLB   NC133961  15.502  14.307  22.548  0.0013 -0.0563 -0.0368
 1416BOLB   PO133962  15.550  14.481  22.912 -0.1991 -0.3246 -0.0538
 1416BOLB   GL133963  15.475  14.474  23.369 -0.1521 -0.0524 -0.2990
 1416BOLB   GL233964  15.428  14.748  23.511  0.3662 -0.1294 -0.0244
 1416BOLB   C1A33965  15.282  14.287  23.755 -0.1129 -0.0332 -0.0600
 1416BOLB   C2A33966  15.245  14.213  24.248  0.1721 -0.2350  0.1698
 1416BOLB   C3A33967  14.981  14.363  24.468  0.2633 -0.2367  0.1989
 1416BOLB   C4A33968  14.689  14.722  24.566  0.1351 -0.3238  0.2583
 1416BOLB   C1B33969  15.241  15.175  23.741  0.0039  0.4367  0.0293
 1416BOLB   C2B33970  15.008  15.516  23.878 -0.1410  0.2559 -0.0311
 1416BOLB   C3B33971  14.883  15.912  23.652 -0.1491  0.0277 -0.2066
 1416BOLB   C4B33972  14.555  16.350  23.648  0.0743 -0.3616 -0.3061
 1416BOLB   NC233973  13.616  16.455  25.684 -0.2912  0.0141  0.1104
 1416BOLB   PO233974  13.632  16.051  25.888 -0.0018 -0.1798 -0.2655
 1416BOLB   GL333975  13.683  15.743  25.646  0.1207 -0.0819  0.1671
 1416BOLB   GL433976  13.563  15.363  25.780 -0.0437  0.0954 -0.1044
 1416BOLB   C1C33977  13.756  15.714  25.243  0.1283  0.0282  0.0456
 1416BOLB   C2C33978  13.886  15.471  24.914 -0.0298 -0.1761 -0.0391
 1416BOLB   C3C33979  14.008  15.124  24.627 -0.0990 -0.4733 -0.1676
 1416BOLB   C4C33980  14.362  15.055  24.458  0.0495  0.2636  0.0972
 1416BOLB   C1D33981  13.708  15.176  25.401 -0.0836  0.1722 -0.1190
 1416BOLB   C2D33982  13.989  14.779  25.263 -0.1897  0.2297  0.0747
 1416BOLB   C3D33983  14.407  14.600  25.382  0.1108 -0.2799 -0.0047
 1416BOLB   C4D33984  14.840  14.448  25.254 -0.0121  0.0019 -0.0266
 1417BOLB   NC133985  22.596  15.219  13.502  0.1464  0.0979 -0.2497
 1417BOLB   PO133986  22.780  15.452  13.681 -0.0909  0.1859 -0.3206
 1417BOLB   GL133987  23.077  15.723  13.528  0.0194 -0.1765 -0.0163
 1417BOLB   GL233988  22.860  15.937  13.586 -0.2976  0.1255  0.2179
 1417BOLB   C1A33989  23.419  15.940  13.262 -0.1747  0.0867 -0.1941
 1417BOLB   C2A33990  23.848  16.074  13.107 -0.1875  0.1262 -0.1105
 1417BOLB   C3A33991  23.936  16.430  13.060 -0.1865 -0.0529 -0.1187
 1417BOLB   C4A33992  24.275  16.535  13.189  0.1865  0.1294 -0.0897
 1417BOLB   C1B33993  22.702  16.312  13.398 -0.3288  0.1732  0.0609
 1417BOLB   C2B33994  22.471  16.651  13.411  0.2572 -0.1062  0.0030
 1417BOLB   C3B33995  22.600  16.959  13.234 -0.1921 -0.1199 -0.0215
 1417BOLB   C4B33996  22.847  17.276  13.030 -0.1667  0.2569 -0.1189
 1417BOLB   NC233997  25.242  18.452  12.682 -0.1368 -0.1646 -0.0673
 1417BOLB   PO233998  25.489  18.212  12.775  0.0002  0.0674 -0.0455
 1417BOLB   GL333999  25.192  18.095  13.102  0.2198  0.0987  0.0347
 1417BOLB   GL434000  25.363  17.797  13.142  0.0418 -0.0390  0.3193
 1417BOLB   C1C34001  24.814  17.915  13.065  0.3612  0.3766 -0.0461
 1417BOLB   C2C34002  24.471  17.712  13.040 -0.0332 -0.2775  0.1017
 1417BOLB   C3C34003  24.492  17.280  12.987  0.0492  0.0675 -0.0421
 1417BOLB   C4C34004  24.493  16.867  13.263 -0.0261  0.2691  0.0842
 1417BOLB   C1D34005  25.148  17.600  13.546  0.1290 -0.0958  0.0410
 1417BOLB   C2D34006  25.108  17.286  13.805 -0.0808  0.0516 -0.2292
 1417BOLB   C3D34007  24.851  16.933  13.831 -0.0674 -0.1220 -0.2315
 1417BOLB   C4D34008  24.619  16.739  14.072  0.0742 -0.0229 -0.4852
 1418BOLB   NC134009  17.906   0.868  13.946 -0.0290 -0.0057  0.0389
 1418BOLB   PO134010  17.627   0.846  14.339 -0.4099 -0.1022  0.0234
 1418BOLB   GL134011  17.667   0.471  14.151 -0.3448  0.0796 -0.0966
 1418BOLB   GL234012  17.550   0.389  13.837 -0.1787  0.0162  0.0971
 1418BOLB   C1A34013  17.953   0.215  14.056 -0.0619 -0.1304 -0.0169
 1418BOLB   C2A34014  18.067  -0.179  13.848 -0.4631  0.0214  0.0529
 1418BOLB   C3A34015  17.924  -0.514  13.777  0.3956 -0.0801 -0.2214
 1418BOLB   C4A34016  17.902  -0.785  13.426 -0.2194 -0.2989 -0.0015
 1418BOLB   C1B34017  17.711   0.083  13.603  0.0297 -0.2303  0.0754
 1418BOLB   C2B34018  17.957  -0.112  13.364 -0.0248 -0.1883 -0.0100
 1418BOLB   C3B34019  18.328  -0.292  13.024 -0.1322  0.2054 -0.0426
 1418BOLB   C4B34020  18.765  -0.082  12.800  0.0116 -0.0503 -0.0875
 1418BOLB   NC234021  18.457  -2.737  13.208  0.1468  0.0500  0.1229
 1418BOLB   PO234022  18.716  -2.727  13.509 -0.2805  0.1125  0.0677
 1418BOLB   GL334023  18.614  -2.286  13.313 -0.0115 -0.2383  0.3538
 1418BOLB   GL434024  18.311  -2.280  13.286  0.0732  0.0834  0.3303
 1418BOLB   C1C34025  18.765  -2.047  13.091  0.3580 -0.1770 -0.1540
 1418BOLB   C2C34026  18.522  -1.740  13.141  0.0131  0.1796  0.1617
 1418BOLB   C3C34027  18.310  -1.366  13.113 -0.0655 -0.0926  0.0573
 1418BOLB   C4C34028  18.021  -1.166  13.417  0.0435  0.0407  0.5956
 1418BOLB   C1D34029  18.540  -1.969  13.642  0.0771  0.0255  0.0600
 1418BOLB   C2D34030  18.520  -1.928  14.010  0.1553  0.1507  0.2273
 1418BOLB   C3D34031  18.561  -2.219  14.354 -0.0721 -0.0223 -0.2623
 1418BOLB   C4D34032  18.668  -2.157  14.799  0.2844 -0.0345 -0.1562
 1419BOLB   NC134033  18.338   5.975  21.730 -0.0948  0.1736 -0.4380
 1419BOLB   PO134034  17.918   5.883  22.058  0.2571 -0.0199 -0.1253
 1419BOLB   GL134035  17.835   5.639  22.378  0.0444 -0.5415  0.1375
 1419BOLB   GL234036  17.730   5.774  22.764  0.0620 -0.2018  0.1288
 1419BOLB   C1A34037  18.154   5.494  22.684  0.0544 -0.2459 -0.3573
 1419BOLB   C2A34038  18.306   5.386  23.046  0.0458  0.1737 -0.1175
 1419BOLB   C3A34039  18.465   5.327  23.455 -0.0781 -0.0565  0.0277
 1419BOLB   C4A34040  18.823   5.318  23.554  0.1451 -0.1244  0.0902
 1419BOLB   C1B34041  17.786   5.427  22.973  0.0633  0.1954  0.2056
 1419BOLB   C2B34042  18.048   5.000  22.837  0.2039 -0.3311 -0.0961
 1419BOLB   C3B34043  18.260   4.753  22.979 -0.0328  0.1462 -0.4019
 1419BOLB   C4B34044  18.555   4.702  22.726 -0.3589 -0.3074 -0.2347
 1419BOLB   NC234045  20.296   3.884  25.355 -0.0692  0.2872 -0.3722
 1419BOLB   PO234046  19.956   4.177  25.389  0.1116 -0.3940  0.1312
 1419BOLB   GL334047  19.839   4.569  25.114 -0.1778  0.1250  0.0473
 1419BOLB   GL434048  19.519   4.652  25.191  0.0526  0.1683  0.1485
 1419BOLB   C1C34049  19.962   4.741  24.701  0.0126  0.0067 -0.3535
 1419BOLB   C2C34050  19.856   4.908  24.338  0.0067  0.0866  0.0206
 1419BOLB   C3C34051  19.613   4.894  23.955 -0.3097  0.2050 -0.0080
 1419BOLB   C4C34052  19.233   5.232  23.776  0.2008 -0.0265  0.1194
 1419BOLB   C1D34053  19.533   4.559  24.702 -0.2596  0.0472 -0.1401
 1419BOLB   C2D34054  19.417   4.662  24.341 -0.2573 -0.1431 -0.1388
 1419BOLB   C3D34055  19.179   5.065  24.245 -0.1255  0.2260 -0.1294
 1419BOLB   C4D34056  18.672   4.972  23.963  0.1566 -0.4807 -0.2649
 1420BOLB   NC134057  22.953   6.875  14.142  0.1901 -0.3338 -0.0395
 1420BOLB   PO134058  23.213   6.577  14.073  0.1192 -0.1087  0.1157
 1420BOLB   GL134059  23.654   6.525  13.986  0.1204  0.0348 -0.0684
 1420BOLB   GL234060  23.816   6.391  14.211  0.0286  0.2025 -0.2954
 1420BOLB   C1A34061  24.087   6.546  13.742 -0.4407  0.1165 -0.2067
 1420BOLB   C2A34062  24.499   6.355  13.545  0.1575 -0.2185 -0.1284
 1420BOLB   C3A34063  24.793   6.146  13.370 -0.0614 -0.1119 -0.3185
 1420BOLB   C4A34064  25.172   6.050  13.232  0.0666  0.1582 -0.0540
 1420BOLB   C1B34065  24.114   5.952  14.292  0.1036 -0.1369 -0.0044
 1420BOLB   C2B34066  24.419   5.643  14.171 -0.2250  0.1143 -0.0551
 1420BOLB   C3B34067  24.669   5.428  13.918 -0.0599  0.1517  0.1350
 1420BOLB   C4B34068  24.579   4.956  13.834 -0.1189  0.2346  0.3709
 1420BOLB   NC234069  27.180   5.795  12.900  0.1113 -0.3181 -0.0461
 1420BOLB   PO234070  27.302   6.171  12.685  0.0718 -0.0736 -0.1711
 1420BOLB   GL334071  27.032   6.332  13.004 -0.0617 -0.0474  0.4293
 1420BOLB   GL434072  27.135   6.497  13.138 -0.0350 -0.0163 -0.0632
 1420BOLB   C1C34073  26.645   6.468  13.108 -0.1083 -0.1766  0.0982
 1420BOLB   C2C34074  26.314   6.338  13.329  0.1226  0.1749 -0.0005
 1420BOLB   C3C34075  25.894   6.478  13.185 -0.0730 -0.0048 -0.4187
 1420BOLB   C4C34076  25.582   6.196  13.347 -0.0330  0.1118 -0.5353
 1420BOLB   C1D34077  26.872   6.779  12.811  0.1221 -0.0831 -0.2707
 1420BOLB   C2D34078  26.800   7.193  12.697  0.2979 -0.1441  0.3338
 1420BOLB   C3D34079  26.621   7.587  12.688 -0.0516  0.0736  0.0874
 1420BOLB   C4D34080  26.451   7.959  12.543  0.1180 -0.1054 -0.0352
 1421BOLB   NC134081   9.144  13.965  17.909 -0.0217 -0.2314  0.1443
 1421BOLB   PO134082   9.014  14.266  17.873  0.1750 -0.0764 -0.0605
 1421BOLB   GL134083   8.615  14.304  17.992  0.4739 -0.0634  0.3534
 1421BOLB   GL234084   8.434  14.440  17.733 -0.0790 -0.1457  0.1689
 1421BOLB   C1A34085   8.473  14.179  18.364 -0.1013 -0.1684 -0.0174
 1421BOLB   C2A34086   8.018  14.073  18.375  0.2313  0.0999 -0.0572
 1421BOLB   C3A34087   7.617  13.914  18.540 -0.2458  0.2273  0.2172
 1421BOLB   C4A34088   7.257  13.732  18.636 -0.1011 -0.0015  0.1006
 1421BOLB   C1B34089   8.070  14.403  17.963  0.2506 -0.1626 -0.0496
 1421BOLB   C2B34090   7.915  14.749  18.334 -0.2551  0.5158  0.1211
 1421BOLB   C3B34091   8.082  15.108  18.470 -0.3353 -0.0154  0.0061
 1421BOLB   C4B34092   8.013  15.574  18.635 -0.1983 -0.1615 -0.0168
 1421BOLB   NC234093   4.896  13.907  17.826 -0.0235  0.3384 -0.1893
 1421BOLB   PO234094   5.074  14.251  18.025  0.2428 -0.4232  0.1525
 1421BOLB   GL334095   5.410  14.026  18.123 -0.0290 -0.2350  0.0957
 1421BOLB   GL434096   5.432  13.796  17.777  0.2177  0.0964  0.2600
 1421BOLB   C1C34097   5.780  13.772  18.207 -0.1577  0.0311 -0.1227
 1421BOLB   C2C34098   6.221  13.631  18.004  0.3005 -0.0467  0.1329
 1421BOLB   C3C34099   6.586  13.820  18.256  0.3882 -0.1049 -0.0874
 1421BOLB   C4C34100   6.954  13.931  18.490  0.0465  0.0332  0.0788
 1421BOLB   C1D34101   5.793  13.690  17.704 -0.1522  0.0496 -0.1451
 1421BOLB   C2D34102   5.981  13.764  17.402 -0.1095 -0.1134  0.2634
 1421BOLB   C3D34103   6.339  13.635  17.485  0.0313 -0.1284 -0.3548
 1421BOLB   C4D34104   6.658  13.678  17.677 -0.1560 -0.0442 -0.4166
 1422BOLB   NC134105  23.678   7.394  14.452 -0.3615 -0.1797  0.3846
 1422BOLB   PO134106  23.448   6.980  14.353 -0.1249 -0.2973  0.0560
 1422BOLB   GL134107  23.859   6.843  14.374 -0.0662  0.2637  0.0983
 1422BOLB   GL234108  23.953   6.945  14.013 -0.0428 -0.1524 -0.4054
 1422BOLB   C1A34109  24.248   6.648  14.320 -0.1525 -0.4837  0.1951
 1422BOLB   C2A34110  24.532   6.565  13.991 -0.4094  0.0975 -0.0703
 1422BOLB   C3A34111  24.995   6.448  13.947  0.0680 -0.0410  0.0274
 1422BOLB   C4A34112  25.412   6.268  14.121 -0.0560  0.1212 -0.0087
 1422BOLB   C1B34113  24.403   6.965  13.766 -0.0105  0.1746 -0.2284
 1422BOLB   C2B34114  24.826   6.804  13.634  0.1272  0.1242 -0.2635
 1422BOLB   C3B34115  25.058   6.551  13.409 -0.3639 -0.1322 -0.0956
 1422BOLB   C4B34116  25.425   6.715  13.108 -0.2353 -0.0639  0.0699
 1422BOLB   NC234117  27.676   4.801  14.493 -0.2278 -0.2819 -0.1873
 1422BOLB   PO234118  27.323   5.101  14.470  0.0524 -0.1108  0.2951
 1422BOLB   GL334119  27.244   5.529  14.762 -0.0303  0.2139  0.1457
 1422BOLB   GL434120  27.113   5.529  15.073 -0.1959  0.2974  0.1158
 1422BOLB   C1C34121  26.800   5.792  14.733  0.1211  0.0171  0.1829
 1422BOLB   C2C34122  26.461   6.030  14.610  0.0312 -0.0765 -0.0105
 1422BOLB   C3C34123  26.195   6.136  14.294 -0.1873  0.1664 -0.2739
 1422BOLB   C4C34124  25.780   6.347  14.284  0.0892 -0.2248  0.2662
 1422BOLB   C1D34125  26.999   5.970  15.173 -0.1254  0.2021  0.1661
 1422BOLB   C2D34126  26.525   6.078  15.180  0.0506 -0.2045  0.0953
 1422BOLB   C3D34127  26.210   6.316  14.914  0.2646  0.1778 -0.0763
 1422BOLB   C4D34128  25.764   6.229  14.786 -0.0951 -0.3780  0.3807
 1423BOLB   NC134129  18.371   9.392  23.067  0.0992 -0.3048  0.0055
 1423BOLB   PO134130  18.121   9.580  23.364  0.2254  0.1585  0.1129
 1423BOLB   GL134131  18.041   9.542  23.860  0.2255  0.3294  0.2064
 1423BOLB   GL234132  18.082   9.309  23.833 -0.1628  0.0419 -0.0328
 1423BOLB   C1A34133  18.137   9.594  24.321  0.0785  0.0977 -0.2029
 1423BOLB   C2A34134  18.164   9.622  24.764 -0.1312  0.1916 -0.2539
 1423BOLB   C3A34135  18.421   9.776  25.077  0.2089  0.4469  0.0746
 1423BOLB   C4A34136  18.515  10.055  25.455 -0.3537  0.0386  0.0895
 1423BOLB   C1B34137  18.333   9.070  24.133 -0.0820  0.0402 -0.3747
 1423BOLB   C2B34138  18.604   8.948  24.491  0.1793 -0.3448 -0.2091
 1423BOLB   C3B34139  18.823   8.752  24.882 -0.0512 -0.0537 -0.2403
 1423BOLB   C4B34140  18.676   8.435  25.090 -0.2440  0.2085  0.0204
 1423BOLB   NC234141  19.001   9.503  27.457 -0.3020  0.2617  0.0910
 1423BOLB   PO234142  18.603   9.651  27.607  0.2466 -0.2265 -0.0394
 1423BOLB   GL334143  18.598   9.748  27.227  0.1626  0.1121  0.0508
 1423BOLB   GL434144  18.445   9.537  27.122  0.1471 -0.2009 -0.0814
 1423BOLB   C1C34145  18.725  10.035  26.882  0.1275 -0.1232  0.0326
 1423BOLB   C2C34146  18.752  10.269  26.621  0.4962  0.4142  0.0853
 1423BOLB   C3C34147  18.774  10.081  26.194 -0.1545  0.1914 -0.2869
 1423BOLB   C4C34148  18.539   9.890  25.894 -0.2309  0.1776  0.0731
 1423BOLB   C1D34149  18.352   9.754  26.739 -0.1358  0.0206 -0.2095
 1423BOLB   C2D34150  18.245   9.805  26.294  0.1655  0.2425  0.0786
 1423BOLB   C3D34151  18.093   9.645  25.900  0.1861  0.1810  0.0059
 1423BOLB   C4D34152  17.943   9.878  25.466  0.2500 -0.1339  0.2393
 1424BOLB   NC134153  21.214   5.617  20.325  0.1839 -0.2360 -0.2322
 1424BOLB   PO134154  21.586   5.940  20.289 -0.1172  0.1209 -0.2318
 1424BOLB   GL134155  21.770   5.768  20.671 -0.1742 -0.0400 -0.0087
 1424BOLB   GL234156  21.575   5.506  20.688 -0.1372  0.0770  0.2218
 1424BOLB   C1A34157  22.003   5.692  20.958 -0.2717 -0.1114 -0.3462
 1424BOLB   C2A34158  22.378   5.624  21.162 -0.3263 -0.1158  0.1105
 1424BOLB   C3A34159  22.586   5.296  21.286 -0.2611  0.0200  0.1157
 1424BOLB   C4A34160  22.807   5.136  21.693  0.3358  0.3735 -0.2078
 1424BOLB   C1B34161  21.697   5.146  20.808 -0.0451 -0.2106  0.0599
 1424BOLB   C2B34162  21.520   4.923  21.208  0.4572  0.2411  0.0953
 1424BOLB   C3B34163  21.409   4.560  21.534 -0.2273  0.0231 -0.1931
 1424BOLB   C4B34164  21.078   4.359  21.467  0.0181  0.1245 -0.3385
 1424BOLB   NC234165  24.186   3.605  22.738 -0.2153 -0.0119  0.1121
 1424BOLB   PO234166  23.746   3.603  22.931 -0.1395  0.0730 -0.2296
 1424BOLB   GL334167  23.770   4.027  22.725  0.0247  0.1237 -0.1998
 1424BOLB   GL434168  23.891   3.867  22.357 -0.1256 -0.0625 -0.3261
 1424BOLB   C1C34169  23.614   4.431  22.587 -0.0854 -0.0181 -0.1245
 1424BOLB   C2C34170  23.413   4.767  22.437  0.2408 -0.2275 -0.0652
 1424BOLB   C3C34171  23.184   5.169  22.340  0.0329  0.3327  0.1255
 1424BOLB   C4C34172  22.871   5.235  22.094 -0.0203 -0.0698 -0.1208
 1424BOLB   C1D34173  23.819   4.258  22.126  0.5046 -0.1541 -0.0795
 1424BOLB   C2D34174  23.644   4.699  21.985 -0.1079  0.4157  0.0134
 1424BOLB   C3D34175  23.577   5.035  21.614 -0.0175 -0.0701  0.0106
 1424BOLB   C4D34176  23.636   5.300  21.251  0.0021  0.0371  0.2295
 1425BOLB   NC134177  20.938  12.909  22.077 -0.0815  0.0536  0.1832
 1425BOLB   PO134178  20.563  13.081  22.254  0.3995  0.3900 -0.1434
 1425BOLB   GL134179  20.553  13.423  22.593 -0.0793  0.0140  0.2599
 1425BOLB   GL234180  20.460  13.523  22.817  0.0904 -0.4007  0.2280
 1425BOLB   C1A34181  20.933  13.645  22.843  0.1070 -0.1288 -0.0717
 1425BOLB   C2A34182  21.025  13.817  23.205 -0.1623  0.2463 -0.2065
 1425BOLB   C3A34183  21.157  13.778  23.609 -0.0279 -0.3480  0.0683
 1425BOLB   C4A34184  20.936  13.693  23.963  0.0280  0.0857 -0.1491
 1425BOLB   C1B34185  20.564  13.910  23.050  0.2654 -0.1491 -0.3367
 1425BOLB   C2B34186  20.660  14.018  23.547 -0.4500 -0.4133 -0.5102
 1425BOLB   C3B34187  20.931  14.273  23.866 -0.1944  0.1831  0.0208
 1425BOLB   C4B34188  21.075  14.765  23.972 -0.3324  0.0147  0.0092
 1425BOLB   NC234189  21.804  15.383  26.204  0.1265  0.1241 -0.0871
 1425BOLB   PO234190  21.664  15.042  26.129  0.0334 -0.6023 -0.1282
 1425BOLB   GL334191  21.505  14.873  25.796 -0.4030  0.1479  0.0194
 1425BOLB   GL434192  21.215  15.147  25.742  0.0466 -0.0639  0.2235
 1425BOLB   C1C34193  21.360  14.841  25.379 -0.1932  0.4193 -0.2273
 1425BOLB   C2C34194  21.080  14.600  25.024 -0.3109  0.1693  0.2290
 1425BOLB   C3C34195  20.867  14.332  24.774  0.1939  0.0239  0.3681
 1425BOLB   C4C34196  20.763  14.034  24.360 -0.1838  0.3708  0.5391
 1425BOLB   C1D34197  20.875  14.982  25.520  0.1156 -0.0420  0.2060
 1425BOLB   C2D34198  20.674  14.982  25.177 -0.0265 -0.0174  0.0385
 1425BOLB   C3D34199  20.730  14.827  24.761 -0.2474 -0.0283 -0.1147
 1425BOLB   C4D34200  20.369  14.496  24.647  0.2369  0.1258 -0.0316
 1426BOLB   NC134201  15.464  17.642  12.733 -0.0909  0.1397 -0.2456
 1426BOLB   PO134202  15.716  17.757  12.485 -0.2486  0.2452 -0.2908
 1426BOLB   GL134203  15.661  18.090  12.144  0.2433  0.0603  0.1112
 1426BOLB   GL234204  15.702  18.299  12.312  0.1296 -0.0197 -0.0663
 1426BOLB   C1A34205  15.822  18.153  11.725 -0.0981 -0.0982  0.2240
 1426BOLB   C2A34206  15.649  18.328  11.347 -0.2307  0.1778 -0.2173
 1426BOLB   C3A34207  15.551  18.604  11.080  0.0277  0.2500  0.0047
 1426BOLB   C4A34208  15.273  18.858  10.861 -0.0822  0.0149  0.1908
 1426BOLB   C1B34209  15.841  18.639  12.062 -0.0230  0.3032  0.0404
 1426BOLB   C2B34210  15.619  18.691  11.670  0.0939 -0.0309  0.2172
 1426BOLB   C3B34211  15.712  19.024  11.284  0.2695 -0.3852  0.0236
 1426BOLB   C4B34212  15.921  19.400  11.090  0.3133  0.1658  0.2341
 1426BOLB   NC234213  15.046  20.942  10.108 -0.1123 -0.1779 -0.2503
 1426BOLB   PO234214  15.469  20.922  10.065  0.0589 -0.0252  0.1201
 1426BOLB   GL334215  15.402  20.599   9.962 -0.2701  0.0525 -0.1173
 1426BOLB   GL434216  15.113  20.468  10.016  0.1828 -0.1029  0.0719
 1426BOLB   C1C34217  15.559  20.215  10.017  0.2454  0.2745 -0.0157
 1426BOLB   C2C34218  15.500  19.806  10.029  0.0664 -0.1732  0.0832
 1426BOLB   C3C34219  15.361  19.480  10.200 -0.1213 -0.2314 -0.0503
 1426BOLB   C4C34220  15.177  19.171  10.480 -0.1089  0.0942  0.1037
 1426BOLB   C1D34221  14.973  20.030  10.050  0.0842  0.3520  0.1229
 1426BOLB   C2D34222  14.832  19.703  10.269  0.2198  0.1011  0.2692
 1426BOLB   C3D34223  14.805  19.378  10.672  0.2011  0.3518  0.0182
 1426BOLB   C4D34224  14.989  19.193  11.007 -0.0823  0.0913 -0.0591
 1427BOLB   NC134225  27.693   8.333  11.081 -0.0152 -0.1070 -0.0233
 1427BOLB   PO134226  27.360   8.159  11.183 -0.2809 -0.1279  0.0533
 1427BOLB   GL134227  26.970   8.483  11.316 -0.1049 -0.1052  0.1124
 1427BOLB   GL234228  27.198   8.405  11.643  0.0743  0.0404  0.2019
 1427BOLB   C1A34229  26.542   8.440  11.273 -0.1272  0.0988  0.3190
 1427BOLB   C2A34230  26.382   8.179  11.151 -0.0654 -0.0450  0.1192
 1427BOLB   C3A34231  26.063   7.957  11.136 -0.2846 -0.1402  0.3701
 1427BOLB   C4A34232  25.595   7.874  11.138 -0.0209  0.1059  0.2257
 1427BOLB   C1B34233  27.102   8.092  11.923  0.0878  0.0669 -0.0745
 1427BOLB   C2B34234  27.072   8.000  12.323 -0.0316  0.1867 -0.1155
 1427BOLB   C3B34235  26.929   7.955  12.702 -0.2993  0.0669  0.0127
 1427BOLB   C4B34236  26.692   8.003  13.030  0.0285 -0.1347 -0.3011
 1427BOLB   NC234237  27.005   6.873  10.586 -0.1968 -0.1325  0.3520
 1427BOLB   PO234238  26.787   7.137  10.295  0.2383  0.0015  0.0266
 1427BOLB   GL334239  26.403   7.023  10.444 -0.0599  0.0075  0.0534
 1427BOLB   GL434240  26.237   7.256  10.314  0.0856 -0.3011 -0.1714
 1427BOLB   C1C34241  26.222   6.948  10.814  0.1805  0.3267  0.2235
 1427BOLB   C2C34242  25.913   6.814  11.055 -0.1576 -0.1145  0.1946
 1427BOLB   C3C34243  25.549   7.167  11.061 -0.0128  0.0308  0.0824
 1427BOLB   C4C34244  25.353   7.446  11.202 -0.1673 -0.1966  0.1418
 1427BOLB   C1D34245  25.786   7.029  10.494 -0.0292 -0.0467 -0.0155
 1427BOLB   C2D34246  25.369   6.953  10.637  0.2285 -0.3926  0.3474
 1427BOLB   C3D34247  25.020   7.253  10.728 -0.0472 -0.2107  0.0331
 1427BOLB   C4D34248  24.821   7.529  10.902  0.1455  0.1316 -0.0112
 1428BOLB   NC134249  12.600  17.855  15.759 -0.0447  0.1215 -0.1960
 1428BOLB   PO134250  12.636  17.923  15.312  0.0460  0.1602 -0.1498
 1428BOLB   GL134251  12.519  18.284  15.319  0.1474 -0.1709 -0.0107
 1428BOLB   GL234252  12.440  18.306  15.734 -0.0556 -0.1659  0.0190
 1428BOLB   C1A34253  12.254  18.524  15.144  0.2358  0.2304  0.0745
 1428BOLB   C2A34254  11.862  18.769  15.151 -0.1514  0.0368  0.0625
 1428BOLB   C3A34255  11.608  19.120  14.954 -0.0529 -0.0855 -0.2000
 1428BOLB   C4A34256  11.310  19.250  14.759 -0.1398  0.0147 -0.3100
 1428BOLB   C1B34257  12.092  18.552  15.954 -0.0553 -0.3816 -0.2596
 1428BOLB   C2B34258  11.670  18.786  15.897 -0.1148 -0.2449  0.1518
 1428BOLB   C3B34259  11.617  19.221  15.727 -0.2686  0.0876 -0.1872
 1428BOLB   C4B34260  11.445  19.630  15.928  0.3155 -0.0069 -0.1530
 1428BOLB   NC234261  10.485  21.280  14.322  0.1567  0.0667  0.0819
 1428BOLB   PO234262  10.809  21.518  14.490  0.1808 -0.0949 -0.3572
 1428BOLB   GL334263  10.814  21.126  14.774 -0.0364  0.0742  0.0623
 1428BOLB   GL434264  10.966  21.232  14.922 -0.1762  0.1207  0.1330
 1428BOLB   C1C34265  10.890  20.622  14.733 -0.2494 -0.0542  0.1586
 1428BOLB   C2C34266  10.752  20.228  14.553 -0.1615 -0.1774 -0.0765
 1428BOLB   C3C34267  10.958  19.800  14.583  0.1003  0.0952 -0.3478
 1428BOLB   C4C34268  11.213  19.486  14.548  0.0333 -0.2733  0.3186
 1428BOLB   C1D34269  11.266  20.967  14.704  0.0326  0.1339  0.1417
 1428BOLB   C2D34270  11.490  20.587  14.789 -0.0391  0.1035  0.1227
 1428BOLB   C3D34271  11.755  20.196  14.704 -0.4755 -0.2351  0.3021
 1428BOLB   C4D34272  11.966  20.050  14.337 -0.0406  0.1414 -0.2531
 1429BOLB   NC134273  16.564   3.417  20.488  0.0926  0.2673  0.1275
 1429BOLB   PO134274  16.968   3.539  20.340 -0.3383 -0.0675 -0.0262
 1429BOLB   GL134275  17.056   3.109  20.303  0.0694 -0.3201 -0.1512
 1429BOLB   GL234276  17.042   2.813  20.183 -0.2816  0.0564 -0.0343
 1429BOLB   C1A34277  17.233   2.987  20.613 -0.2736  0.1884  0.1714
 1429BOLB   C2A34278  17.553   2.694  20.674  0.1545  0.0869  0.2990
 1429BOLB   C3A34279  17.873   2.392  20.837  0.3080 -0.2550 -0.0878
 1429BOLB   C4A34280  18.336   2.329  21.172  0.3655 -0.0601 -0.1129
 1429BOLB   C1B34281  17.067   2.461  20.473 -0.1236 -0.1636  0.1532
 1429BOLB   C2B34282  17.161   2.179  20.717  0.0373 -0.0571  0.0829
 1429BOLB   C3B34283  17.462   1.967  20.800  0.1419  0.1313  0.2190
 1429BOLB   C4B34284  17.437   1.713  20.994  0.0178 -0.1996 -0.0715
 1429BOLB   NC234285  19.683   0.814  22.364 -0.2791 -0.4059 -0.0024
 1429BOLB   PO234286  19.636   1.130  22.659 -0.0182  0.2245 -0.2150
 1429BOLB   GL334287  19.421   1.253  22.287 -0.0148 -0.0427  0.0425
 1429BOLB   GL434288  19.709   1.399  22.131 -0.1709  0.1113  0.1397
 1429BOLB   C1C34289  18.961   1.265  22.111 -0.1184  0.0487 -0.2443
 1429BOLB   C2C34290  18.853   1.744  21.840 -0.0114  0.3500  0.0423
 1429BOLB   C3C34291  18.765   1.994  21.588  0.0872  0.0896 -0.0555
 1429BOLB   C4C34292  18.487   2.298  21.537  0.0916 -0.0004 -0.0094
 1429BOLB   C1D34293  19.659   1.820  21.868  0.2137  0.0434 -0.0750
 1429BOLB   C2D34294  19.283   2.100  21.830  0.3265 -0.1991 -0.0151
 1429BOLB   C3D34295  19.232   2.502  21.531 -0.2290 -0.1636  0.3627
 1429BOLB   C4D34296  19.429   2.840  21.396  0.0375  0.0896  0.4595
 1430BOLB   NC134297  22.701  10.462  21.297 -0.0227  0.0665 -0.1349
 1430BOLB   PO134298  22.775  10.176  20.902 -0.1283  0.0255  0.1277
 1430BOLB   GL134299  23.154  10.177  21.010 -0.1053  0.0505  0.1325
 1430BOLB   GL234300  23.360  10.008  20.788  0.0870 -0.2053  0.1788
 1430BOLB   C1A34301  23.335  10.285  21.375 -0.1111  0.0217 -0.2575
 1430BOLB   C2A34302  23.702  10.074  21.551 -0.1576  0.2567 -0.0455
 1430BOLB   C3A34303  23.882  10.033  21.772 -0.2478  0.3433 -0.0004
 1430BOLB   C4A34304  23.902  10.086  22.206  0.1556 -0.1608 -0.1128
 1430BOLB   C1B34305  23.654   9.850  21.023 -0.2985  0.2929  0.0807
 1430BOLB   C2B34306  23.985   9.686  21.334  0.1519  0.3552 -0.1263
 1430BOLB   C3B34307  23.821   9.564  21.776 -0.2286  0.2946  0.2821
 1430BOLB   C4B34308  23.546   9.684  22.109  0.1826 -0.0917  0.0246
 1430BOLB   NC234309  25.635   9.689  24.030 -0.3373 -0.0281 -0.4134
 1430BOLB   PO234310  25.850  10.154  23.860 -0.3055 -0.0692 -0.0491
 1430BOLB   GL334311  25.528  10.183  23.476 -0.2091 -0.0722 -0.1137
 1430BOLB   GL434312  25.412   9.799  23.413  0.2621 -0.3233  0.3374
 1430BOLB   C1C34313  25.214  10.214  23.231 -0.5954 -0.1739 -0.0150
 1430BOLB   C2C34314  24.851  10.161  22.988 -0.0960  0.3367  0.1496
 1430BOLB   C3C34315  24.480  10.182  22.706 -0.2612  0.0300  0.0823
 1430BOLB   C4C34316  24.100  10.154  22.534  0.0708  0.0111  0.0640
 1430BOLB   C1D34317  25.162   9.760  22.985 -0.1037  0.1523 -0.1311
 1430BOLB   C2D34318  24.786   9.723  22.638  0.0149 -0.0234 -0.0910
 1430BOLB   C3D34319  24.392   9.696  22.551  0.0950 -0.0520 -0.1699
 1430BOLB   C4D34320  24.078   9.642  22.346  0.3440  0.3782 -0.0327
 1431BOLB   NC134321  16.157   7.234  22.970 -0.2933  0.0552  0.2170
 1431BOLB   PO134322  16.055   6.872  22.710  0.2744 -0.2998 -0.0654
 1431BOLB   GL134323  16.303   6.636  23.011 -0.0440 -0.1355 -0.1931
 1431BOLB   GL234324  16.649   6.574  22.957  0.0159  0.0931  0.2062
 1431BOLB   C1A34325  16.385   6.226  23.204 -0.1278  0.3191  0.0728
 1431BOLB   C2A34326  16.508   5.975  23.505 -0.3260 -0.2473  0.0837
 1431BOLB   C3A34327  16.352   5.695  23.755  0.2803  0.0351  0.1358
 1431BOLB   C4A34328  16.119   5.447  23.956 -0.1003  0.0290 -0.0408
 1431BOLB   C1B34329  16.785   6.566  23.374  0.1304 -0.4066  0.0002
 1431BOLB   C2B34330  16.720   6.425  23.806 -0.2782 -0.0271  0.0404
 1431BOLB   C3B34331  16.959   6.376  24.183  0.0949  0.0472 -0.1531
 1431BOLB   C4B34332  16.950   5.974  24.453 -0.2779 -0.1550 -0.1158
 1431BOLB   NC234333  17.447   3.803  26.183 -0.0425 -0.1548 -0.1770
 1431BOLB   PO234334  17.477   4.159  25.998 -0.0674 -0.3052 -0.2683
 1431BOLB   GL334335  17.323   4.444  25.608 -0.0153  0.1606  0.1810
 1431BOLB   GL434336  17.333   4.705  25.831  0.0512 -0.2453 -0.2912
 1431BOLB   C1C34337  17.131   4.602  25.216 -0.0666  0.0436 -0.1452
 1431BOLB   C2C34338  16.868   4.724  24.852  0.3551 -0.0362 -0.0304
 1431BOLB   C3C34339  16.590   5.027  24.542 -0.4034  0.1244 -0.1999
 1431BOLB   C4C34340  16.380   5.241  24.235 -0.2044 -0.2600 -0.0697
 1431BOLB   C1D34341  17.296   5.032  25.456 -0.0664 -0.0708  0.0170
 1431BOLB   C2D34342  17.464   5.208  25.125 -0.0790 -0.2984  0.0639
 1431BOLB   C3D34343  17.493   5.406  24.642 -0.1143  0.2222 -0.1937
 1431BOLB   C4D34344  17.270   5.576  24.315 -0.2166 -0.1043  0.0423
 1432BOLB   NC134345  19.833  15.859  21.455  0.0783  0.1663 -0.0406
 1432BOLB   PO134346  20.064  15.857  21.016 -0.0699 -0.3109 -0.1968
 1432BOLB   GL134347  20.136  16.209  21.024 -0.1283 -0.0957 -0.2377
 1432BOLB   GL234348  20.036  16.383  21.282 -0.0782 -0.2153 -0.0472
 1432BOLB   C1A34349  20.403  16.543  20.748 -0.2737 -0.0403  0.0199
 1432BOLB   C2A34350  20.783  16.909  20.846 -0.0130  0.0071 -0.0482
 1432BOLB   C3A34351  20.880  17.133  21.184  0.0652 -0.0286 -0.0740
 1432BOLB   C4A34352  21.021  17.269  21.588 -0.0168  0.1462 -0.3752
 1432BOLB   C1B34353  20.520  16.476  21.490 -0.1014 -0.1892  0.1423
 1432BOLB   C2B34354  20.801  16.852  21.585 -0.0127 -0.0009 -0.1715
 1432BOLB   C3B34355  20.790  17.151  22.069  0.1910 -0.0594  0.1730
 1432BOLB   C4B34356  20.557  17.397  22.470 -0.2506 -0.0892 -0.0966
 1432BOLB   NC234357  22.310  19.181  22.773 -0.1215  0.0674  0.5593
 1432BOLB   PO234358  22.151  18.812  22.904  0.0015 -0.0746  0.0181
 1432BOLB   GL334359  21.768  18.645  22.786 -0.1358  0.1248  0.2036
 1432BOLB   GL434360  21.619  18.647  23.150 -0.3150  0.0931 -0.0780
 1432BOLB   C1C34361  21.530  18.384  22.518  0.2593  0.1449  0.4235
 1432BOLB   C2C34362  21.343  18.317  22.131 -0.2242  0.0217  0.2602
 1432BOLB   C3C34363  21.178  17.939  21.985  0.0687 -0.0995  0.1471
 1432BOLB   C4C34364  21.138  17.522  21.898 -0.1030  0.0882  0.1670
 1432BOLB   C1D34365  21.424  18.364  23.124  0.3740 -0.0268  0.1654
 1432BOLB   C2D34366  21.071  18.074  23.090  0.1479 -0.3123 -0.2433
 1432BOLB   C3D34367  20.810  17.786  22.807 -0.2409 -0.2120 -0.0954
 1432BOLB   C4D34368  20.917  17.683  22.337  0.0366  0.0109  0.2584
 1433BOLB   NC134369  11.724   5.847   1.267 -0.4293  0.0435 -0.0275
 1433BOLB   PO134370  11.837   5.418   1.360 -0.0997 -0.1390 -0.0213
 1433BOLB   GL134371  11.799   5.237   1.817 -0.2406 -0.0977 -0.0036
 1433BOLB   GL234372  11.950   4.935   1.906 -0.0247  0.0333 -0.0854
 1433BOLB   C1A34373  11.780   5.491   2.196 -0.0956 -0.1145  0.4282
 1433BOLB   C2A34374  11.882   5.728   2.620 -0.0377  0.0220 -0.0326
 1433BOLB   C3A34375  12.112   6.039   2.862  0.2576  0.2924  0.3500
 1433BOLB   C4A34376  12.302   6.405   3.015 -0.2610 -0.2469 -0.0431
 1433BOLB   C1B34377  11.783   4.910   2.302 -0.0598  0.3889 -0.1909
 1433BOLB   C2B34378  11.685   5.027   2.674 -0.3626 -0.2520 -0.2542
 1433BOLB   C3B34379  11.546   5.096   3.126  0.2571  0.0183 -0.1679
 1433BOLB   C4B34380  11.551   5.218   3.541 -0.3076 -0.0152  0.1158
 1433BOLB   NC234381  11.987   6.804   1.198  0.0082  0.2888  0.2489
 1433BOLB   PO234382  12.271   6.640   1.337 -0.1969  0.1012  0.0630
 1433BOLB   GL334383  12.360   6.971   1.492  0.2060  0.1892 -0.1509
 1433BOLB   GL434384  12.355   6.827   1.841 -0.1150  0.0161  0.1988
 1433BOLB   C1C34385  12.508   7.290   1.828  0.2886  0.1039  0.1080
 1433BOLB   C2C34386  12.481   7.086   2.227 -0.2360  0.0481  0.0297
 1433BOLB   C3C34387  12.416   7.004   2.617 -0.3109 -0.1683 -0.0839
 1433BOLB   C4C34388  12.480   6.885   2.988 -0.1429  0.0015  0.0011
 1433BOLB   C1D34389  11.981   6.783   2.155 -0.0255 -0.1695 -0.0100
 1433BOLB   C2D34390  11.835   6.985   2.494 -0.0196  0.0156  0.4042
 1433BOLB   C3D34391  11.822   7.357   2.606  0.0515 -0.1768 -0.1239
 1433BOLB   C4D34392  11.609   7.468   3.024 -0.2322  0.1250  0.1279
 1434BOLB   NC134393  13.350  15.628  21.029  0.0850  0.3092  0.0204
 1434BOLB   PO134394  13.228  15.324  21.348 -0.2063  0.0606  0.1704
 1434BOLB   GL134395  12.955  15.711  21.360 -0.0918  0.0717 -0.0317
 1434BOLB   GL234396  12.926  15.916  21.031  0.1712 -0.1662  0.2224
 1434BOLB   C1A34397  12.753  15.969  21.755 -0.2356  0.2135  0.0676
 1434BOLB   C2A34398  12.574  16.195  22.040  0.3384  0.1857  0.1959
 1434BOLB   C3A34399  12.422  16.431  22.399  0.2902 -0.2312  0.2570
 1434BOLB   C4A34400  11.977  16.466  22.394 -0.2506 -0.1188 -0.1565
 1434BOLB   C1B34401  12.897  16.316  21.300 -0.0969  0.0080 -0.1370
 1434BOLB   C2B34402  12.791  16.672  21.524 -0.0573  0.3165  0.2351
 1434BOLB   C3B34403  12.579  16.982  21.916 -0.1778 -0.3500 -0.5682
 1434BOLB   C4B34404  12.292  16.917  22.284  0.2182 -0.0805 -0.3391
 1434BOLB   NC234405  10.945  18.043  24.080 -0.0032  0.3956  0.0569
 1434BOLB   PO234406  11.312  18.199  23.841  0.3544 -0.2704 -0.1921
 1434BOLB   GL334407  11.274  17.952  23.497 -0.1297 -0.1854 -0.0222
 1434BOLB   GL434408  11.080  17.756  23.550 -0.2432 -0.0928 -0.2011
 1434BOLB   C1C34409  11.371  17.780  23.142 -0.0007 -0.1845  0.0410
 1434BOLB   C2C34410  11.396  17.386  22.863  0.1254 -0.1618  0.3196
 1434BOLB   C3C34411  11.380  16.954  22.548 -0.0434 -0.3247 -0.1031
 1434BOLB   C4C34412  11.696  16.563  22.390  0.0483  0.1699  0.0789
 1434BOLB   C1D34413  10.948  17.446  23.248  0.2304  0.2550  0.1815
 1434BOLB   C2D34414  10.945  17.267  22.833 -0.0470  0.5393 -0.1041
 1434BOLB   C3D34415  10.775  16.904  22.571 -0.0710  0.2216  0.0611
 1434BOLB   C4D34416  10.694  16.562  22.269  0.3626  0.3183 -0.0406
 1435BOLB   NC134417  13.158  17.692  18.413  0.0728  0.1590  0.1952
 1435BOLB   PO134418  13.228  17.346  18.673 -0.2161 -0.0843  0.1301
 1435BOLB   GL134419  12.905  17.496  18.932  0.1026 -0.1645 -0.3889
 1435BOLB   GL234420  13.107  17.668  19.197  0.1542  0.1102  0.0699
 1435BOLB   C1A34421  12.706  17.923  18.814  0.0750  0.5434 -0.1246
 1435BOLB   C2A34422  12.379  18.114  18.865  0.0477 -0.2837  0.6258
 1435BOLB   C3A34423  12.025  18.330  18.796 -0.2732  0.1578  0.1605
 1435BOLB   C4A34424  11.882  18.739  18.869 -0.3813 -0.0801 -0.3983
 1435BOLB   C1B34425  12.972  18.202  19.160 -0.1952 -0.2523  0.2031
 1435BOLB   C2B34426  12.939  18.638  19.185 -0.1491 -0.2005  0.2295
 1435BOLB   C3B34427  12.717  19.054  19.170  0.3293  0.3440 -0.2089
 1435BOLB   C4B34428  12.645  19.511  19.155  0.0869 -0.0495 -0.0512
 1435BOLB   NC234429  10.044  20.567  19.573 -0.0705 -0.3529  0.1883
 1435BOLB   PO234430  10.292  20.680  19.230 -0.1416  0.0585  0.0676
 1435BOLB   GL334431  10.391  20.257  18.925 -0.1186  0.1287 -0.0177
 1435BOLB   GL434432  10.390  20.404  18.596  0.0199 -0.1524  0.5268
 1435BOLB   C1C34433  10.740  19.989  18.651  0.0907 -0.1257 -0.3233
 1435BOLB   C2C34434  11.066  19.719  18.733 -0.2231 -0.1405 -0.0957
 1435BOLB   C3C34435  11.299  19.334  18.566 -0.0679 -0.2076  0.2319
 1435BOLB   C4C34436  11.640  19.032  18.823  0.3683  0.0461  0.1454
 1435BOLB   C1D34437  10.232  19.954  18.538 -0.1424 -0.0907  0.0276
 1435BOLB   C2D34438  10.389  19.629  18.426 -0.1676 -0.1626  0.0144
 1435BOLB   C3D34439  10.666  19.402  18.571 -0.1214  0.1503 -0.0808
 1435BOLB   C4D34440  10.795  18.974  18.595  0.0128  0.0633 -0.0991
 1436BOLB   NC134441  22.037   3.962  14.904 -0.1043 -0.1821 -0.0855
 1436BOLB   PO134442  22.239   4.209  15.016 -0.1249 -0.1939 -0.0616
 1436BOLB   GL134443  22.552   3.909  15.175  0.1574  0.1552  0.0468
 1436BOLB   GL234444  22.442   3.692  14.956  0.1274  0.1695  0.2292
 1436BOLB   C1A34445  22.596   3.551  15.460 -0.6600  0.1299 -0.1833
 1436BOLB   C2A34446  22.564   3.057  15.600 -0.0809 -0.0809  0.0307
 1436BOLB   C3A34447  22.717   2.615  15.422  0.1728 -0.0421 -0.0884
 1436BOLB   C4A34448  22.757   2.244  15.620  0.0354  0.1877  0.3362
 1436BOLB   C1B34449  22.973   3.414  14.963 -0.5372 -0.2527  0.0828
 1436BOLB   C2B34450  23.285   3.247  15.243  0.1792  0.2555  0.1069
 1436BOLB   C3B34451  23.257   2.852  15.467 -0.3521  0.1026  0.0716
 1436BOLB   C4B34452  23.169   2.458  15.478  0.3539 -0.1110 -0.1227
 1436BOLB   NC234453  24.384  -0.265  15.990  0.0002 -0.1150 -0.1126
 1436BOLB   PO234454  24.040   0.055  16.017  0.1177 -0.2936 -0.0178
 1436BOLB   GL334455  23.684   0.428  15.926 -0.0815  0.3338  0.3231
 1436BOLB   GL434456  23.364   0.279  15.880  0.2980 -0.2482 -0.0294
 1436BOLB   C1C34457  23.394   0.798  15.971 -0.0970 -0.0898  0.0207
 1436BOLB   C2C34458  23.363   1.261  15.864 -0.1933  0.2150 -0.1070
 1436BOLB   C3C34459  22.931   1.450  15.814 -0.1960  0.0286  0.0162
 1436BOLB   C4C34460  22.676   1.821  15.743 -0.1965  0.1858 -0.2522
 1436BOLB   C1D34461  23.244   0.556  15.521  0.0722  0.0099  0.0770
 1436BOLB   C2D34462  22.990   0.922  15.447 -0.2481 -0.2176  0.2381
 1436BOLB   C3D34463  22.558   0.876  15.248 -0.0337  0.2480  0.0089
 1436BOLB   C4D34464  22.176   0.977  15.239  0.1021  0.0003 -0.0549
 1437BOLB   NC134465   8.226  11.464  15.289  0.0451 -0.4937  0.0310
 1437BOLB   PO134466   8.362  11.594  15.626 -0.2447  0.0835 -0.1985
 1437BOLB   GL134467   7.982  11.436  15.727 -0.2009 -0.1117  0.1136
 1437BOLB   GL234468   8.006  11.067  15.567  0.4413 -0.0133 -0.0653
 1437BOLB   C1A34469   7.547  11.556  15.470 -0.0926  0.1469 -0.1807
 1437BOLB   C2A34470   7.115  11.691  15.461 -0.1126 -0.1618 -0.0272
 1437BOLB   C3A34471   6.770  11.942  15.620 -0.2801  0.0622  0.1342
 1437BOLB   C4A34472   6.345  12.025  15.644  0.0866 -0.0318  0.0674
 1437BOLB   C1B34473   7.683  10.774  15.511  0.0370  0.1679 -0.1221
 1437BOLB   C2B34474   7.257  10.863  15.646 -0.1793 -0.0655  0.1760
 1437BOLB   C3B34475   7.044  11.241  15.770  0.0413 -0.2522 -0.0035
 1437BOLB   C4B34476   6.906  11.530  15.884 -0.0091  0.0456  0.2181
 1437BOLB   NC234477   3.704  12.543  15.490  0.1426  0.1214  0.0402
 1437BOLB   PO234478   4.001  12.197  15.696  0.1015 -0.1641 -0.0926
 1437BOLB   GL334479   4.323  11.997  15.358 -0.0580 -0.3051 -0.0914
 1437BOLB   GL434480   4.464  12.304  15.115 -0.1059  0.1159  0.1404
 1437BOLB   C1C34481   4.771  11.961  15.328  0.3320 -0.0693 -0.0457
 1437BOLB   C2C34482   5.125  12.314  15.147 -0.3826 -0.0960  0.2193
 1437BOLB   C3C34483   5.564  12.361  15.300  0.0433  0.2181  0.0105
 1437BOLB   C4C34484   5.933  12.287  15.557 -0.0668 -0.3553  0.0034
 1437BOLB   C1D34485   4.728  12.640  14.948 -0.1069  0.0464  0.2761
 1437BOLB   C2D34486   5.034  12.857  15.028  0.0047 -0.2918  0.0029
 1437BOLB   C3D34487   5.406  13.064  15.041  0.2907  0.0341 -0.1652
 1437BOLB   C4D34488   5.573  13.439  14.875 -0.1581  0.0252 -0.2657
 1438BOLB   NC134489  15.041   8.566  23.431  0.0988  0.1172  0.0589
 1438BOLB   PO134490  14.590   8.328  23.316 -0.1707  0.3068 -0.2731
 1438BOLB   GL134491  14.291   8.583  23.658  0.0233 -0.1647 -0.2321
 1438BOLB   GL234492  14.258   8.830  23.532  0.1446 -0.0208  0.1992
 1438BOLB   C1A34493  14.079   8.565  24.003 -0.1493 -0.3063 -0.0486
 1438BOLB   C2A34494  13.781   8.621  24.136 -0.3429 -0.1127 -0.1948
 1438BOLB   C3A34495  13.502   8.429  24.420 -0.4073 -0.0474  0.3840
 1438BOLB   C4A34496  13.132   8.233  24.567  0.1965 -0.0826  0.0392
 1438BOLB   C1B34497  14.128   9.095  23.868  0.0081  0.0233  0.1196
 1438BOLB   C2B34498  14.102   9.043  24.344 -0.1452 -0.1087  0.0626
 1438BOLB   C3B34499  14.060   8.639  24.558 -0.1277  0.1467  0.0481
 1438BOLB   C4B34500  14.032   8.247  24.813  0.0496  0.2277  0.2000
 1438BOLB   NC234501  12.134   7.794  26.643  0.0466 -0.0877 -0.2379
 1438BOLB   PO234502  11.996   7.375  26.624 -0.0822  0.0754  0.0355
 1438BOLB   GL334503  12.140   7.319  26.345  0.0566  0.1300  0.0809
 1438BOLB   GL434504  12.246   7.128  26.162 -0.0302 -0.0079  0.1026
 1438BOLB   C1C34505  12.314   7.533  25.937  0.1077 -0.0054 -0.0371
 1438BOLB   C2C34506  12.500   7.788  25.611  0.0308 -0.0038 -0.0894
 1438BOLB   C3C34507  12.779   8.027  25.264  0.2160  0.1833  0.1920
 1438BOLB   C4C34508  12.871   8.095  24.875 -0.1659 -0.0562  0.1255
 1438BOLB   C1D34509  12.207   7.037  25.771 -0.0774  0.1272 -0.0401
 1438BOLB   C2D34510  12.399   7.259  25.453  0.0042  0.0077  0.1817
 1438BOLB   C3D34511  12.783   7.192  25.145 -0.0814 -0.3430  0.1616
 1438BOLB   C4D34512  13.198   7.320  25.048  0.0496  0.4446  0.5504
 1439BOLB   NC134513  16.554  16.590  11.161  0.3594  0.0476 -0.0275
 1439BOLB   PO134514  16.445  16.983  10.954  0.0889 -0.1261  0.3315
 1439BOLB   GL134515  16.685  17.303  10.649 -0.2099 -0.0790 -0.3377
 1439BOLB   GL234516  16.358  17.465  10.635 -0.1772  0.2225 -0.7597
 1439BOLB   C1A34517  17.043  17.167  10.379  0.0823 -0.2382  0.0127
 1439BOLB   C2A34518  17.114  17.285   9.970  0.0669 -0.0740 -0.0588
 1439BOLB   C3A34519  17.316  17.464   9.678 -0.0531 -0.1876 -0.1076
 1439BOLB   C4A34520  17.514  17.889   9.444  0.1154  0.3220 -0.1114
 1439BOLB   C1B34521  16.473  17.817  10.507  0.0888  0.1753  0.0448
 1439BOLB   C2B34522  16.763  18.057  10.535  0.4305  0.2496  0.1422
 1439BOLB   C3B34523  16.650  18.418  10.404 -0.1254 -0.0227 -0.2284
 1439BOLB   C4B34524  16.290  18.747  10.474 -0.2104 -0.0315  0.1245
 1439BOLB   NC234525  18.394  19.192   7.612  0.3393  0.0611  0.0027
 1439BOLB   PO234526  18.594  19.415   7.933 -0.1299  0.1412 -0.1037
 1439BOLB   GL334527  18.492  18.973   8.085 -0.0809 -0.1081 -0.2054
 1439BOLB   GL434528  18.653  18.995   8.393 -0.1429 -0.1423  0.2430
 1439BOLB   C1C34529  18.110  18.985   8.393 -0.0439 -0.2076 -0.2523
 1439BOLB   C2C34530  18.027  18.562   8.704 -0.0078  0.2583 -0.0628
 1439BOLB   C3C34531  17.975  18.425   9.157 -0.2023  0.0869 -0.2201
 1439BOLB   C4C34532  17.849  18.232   9.453 -0.0392 -0.1108 -0.0225
 1439BOLB   C1D34533  18.621  18.824   8.783  0.0455  0.2421 -0.0665
 1439BOLB   C2D34534  18.450  18.603   9.049  0.0971  0.0189  0.2887
 1439BOLB   C3D34535  18.368  18.463   9.470  0.1180  0.0019  0.2362
 1439BOLB   C4D34536  18.114  18.431   9.928 -0.1299 -0.1437 -0.0197
 1440BOLB   NC134537  18.662   3.940  18.903  0.1138 -0.0597  0.0647
 1440BOLB   PO134538  18.888   3.886  19.303  0.1931 -0.2202  0.1874
 1440BOLB   GL134539  18.967   3.730  19.769  0.0386  0.4150  0.4008
 1440BOLB   GL234540  18.954   3.397  19.557  0.0354 -0.0738  0.1444
 1440BOLB   C1A34541  19.002   3.558  20.155  0.0011 -0.0208  0.0417
 1440BOLB   C2A34542  19.155   3.266  20.409  0.0791  0.0696  0.2530
 1440BOLB   C3A34543  19.690   3.346  20.605  0.0807  0.1117  0.3732
 1440BOLB   C4A34544  20.021   3.097  20.679 -0.0681  0.1070  0.1705
 1440BOLB   C1B34545  18.599   3.372  19.921  0.1723  0.1160 -0.1275
 1440BOLB   C2B34546  18.648   3.246  20.372  0.2592 -0.0760  0.2878
 1440BOLB   C3B34547  18.797   3.049  20.660 -0.0911  0.1942 -0.0681
 1440BOLB   C4B34548  19.091   2.771  20.839 -0.2101  0.1198  0.1481
 1440BOLB   NC234549  20.763   0.715  21.853  0.0546 -0.2102  0.1570
 1440BOLB   PO234550  21.012   0.845  21.573 -0.1318 -0.0052  0.1673
 1440BOLB   GL334551  20.962   1.273  21.431  0.0236  0.2524 -0.1236
 1440BOLB   GL434552  21.095   1.530  21.537 -0.0486  0.2132  0.0122
 1440BOLB   C1C34553  20.694   1.534  21.161 -0.3848 -0.3197  0.1689
 1440BOLB   C2C34554  20.508   1.957  21.009 -0.5425 -0.1158  0.1057
 1440BOLB   C3C34555  20.354   2.300  20.903 -0.1576 -0.2212  0.0560
 1440BOLB   C4C34556  20.297   2.745  20.735  0.3764 -0.1212 -0.1177
 1440BOLB   C1D34557  21.404   1.787  21.459  0.2214  0.1893  0.0091
 1440BOLB   C2D34558  21.499   2.166  21.425 -0.1140 -0.3205  0.0757
 1440BOLB   C3D34559  21.540   2.502  21.575  0.1301 -0.1170  0.1504
 1440BOLB   C4D34560  21.599   2.931  21.363  0.1855 -0.1065 -0.1837
 1441BOLB   NC134561  19.893  13.865  10.283  0.1323 -0.3322  0.1022
 1441BOLB   PO134562  19.750  14.102   9.889 -0.4058 -0.1122  0.2888
 1441BOLB   GL134563  19.951  14.308   9.542 -0.0184  0.2365  0.1300
 1441BOLB   GL234564  19.852  14.315   9.295 -0.0954 -0.1722  0.1559
 1441BOLB   C1A34565  20.040  14.745   9.350 -0.0859 -0.3809 -0.0523
 1441BOLB   C2A34566  20.337  15.092   9.200 -0.5164  0.3359 -0.2370
 1441BOLB   C3A34567  20.291  15.435   8.869  0.0532  0.1935 -0.1292
 1441BOLB   C4A34568  20.540  15.614   8.642  0.0729 -0.0606  0.0980
 1441BOLB   C1B34569  20.097  14.398   8.945  0.1174  0.0199  0.4538
 1441BOLB   C2B34570  20.319  14.311   8.649  0.1439 -0.0823  0.1990
 1441BOLB   C3B34571  20.717  14.592   8.508  0.0610 -0.0471 -0.3551
 1441BOLB   C4B34572  20.943  14.786   8.125  0.1858  0.0786 -0.1821
 1441BOLB   NC234573  21.038  17.659   7.200 -0.2672  0.0353 -0.0401
 1441BOLB   PO234574  20.970  17.301   6.937  0.0335  0.1139 -0.2092
 1441BOLB   GL334575  21.066  16.883   7.224  0.3447  0.0523 -0.3789
 1441BOLB   GL434576  20.767  16.795   7.127 -0.0246  0.0569  0.2725
 1441BOLB   C1C34577  21.207  16.698   7.594 -0.0307  0.1637 -0.2643
 1441BOLB   C2C34578  21.200  16.440   7.988 -0.1236 -0.2132  0.1750
 1441BOLB   C3C34579  21.147  16.167   8.280  0.1049  0.1477  0.1204
 1441BOLB   C4C34580  20.856  15.815   8.379 -0.0725 -0.1150  0.2299
 1441BOLB   C1D34581  20.581  16.764   7.500  0.2002  0.2224  0.0435
 1441BOLB   C2D34582  20.285  16.450   7.837  0.0105  0.1772  0.1708
 1441BOLB   C3D34583  19.858  16.235   7.928  0.0170 -0.0523 -0.0962
 1441BOLB   C4D34584  19.653  16.071   8.325 -0.1126 -0.0132 -0.2568
 1442BOLB   NC134585  15.603   7.954  23.115 -0.1353 -0.1347 -0.0536
 1442BOLB   PO134586  15.581   8.310  23.466 -0.1584 -0.0566 -0.3259
 1442BOLB   GL134587  15.285   8.485  23.853 -0.2563 -0.1179  0.1630
 1442BOLB   GL234588  15.188   8.826  23.927  0.3103 -0.2392  0.1844
 1442BOLB   C1A34589  15.031   8.451  24.215  0.2035 -0.2137 -0.0657
 1442BOLB   C2A34590  15.220   8.531  24.549  0.0001  0.0751  0.0067
 1442BOLB   C3A34591  15.016   8.609  24.884 -0.0497  0.1875 -0.3128
 1442BOLB   C4A34592  15.112   8.561  25.268 -0.0608  0.1244  0.4315
 1442BOLB   C1B34593  15.387   8.905  24.263 -0.0124 -0.3064 -0.2678
 1442BOLB   C2B34594  15.734   9.001  24.485 -0.0210  0.0587  0.0513
 1442BOLB   C3B34595  15.979   8.839  24.905 -0.1852  0.0422 -0.0623
 1442BOLB   C4B34596  16.039   9.037  25.307  0.2509  0.2048 -0.3303
 1442BOLB   NC234597  14.822   8.438  27.453 -0.2122 -0.4957 -0.0189
 1442BOLB   PO234598  15.054   8.915  27.463  0.1071  0.1528 -0.1664
 1442BOLB   GL334599  15.146   8.859  26.946  0.1895 -0.1476 -0.2159
 1442BOLB   GL434600  14.967   9.010  26.906 -0.0586 -0.1599 -0.0887
 1442BOLB   C1C34601  15.382   8.936  26.708 -0.2143 -0.0919 -0.2827
 1442BOLB   C2C34602  15.425   9.005  26.304  0.0146  0.1748  0.3774
 1442BOLB   C3C34603  15.428   8.673  26.031  0.2884 -0.2124  0.1278
 1442BOLB   C4C34604  15.326   8.439  25.665 -0.2350  0.1397  0.2692
 1442BOLB   C1D34605  14.872   8.910  26.523 -0.0005 -0.0194  0.1082
 1442BOLB   C2D34606  14.914   8.884  26.124  0.1728  0.3131  0.1186
 1442BOLB   C3D34607  14.963   8.804  25.673 -0.0028 -0.2039 -0.1123
 1442BOLB   C4D34608  14.716   8.805  25.262  0.0736 -0.0382 -0.2440
 1443BOLB   NC134609  13.750  17.534  19.780  0.1920  0.1412  0.2512
 1443BOLB   PO134610  14.216  17.657  19.690  0.2895 -0.1283  0.0256
 1443BOLB   GL134611  14.420  18.076  19.587 -0.0461  0.0629 -0.2436
 1443BOLB   GL234612  14.447  18.154  19.929 -0.0444  0.2842 -0.0157
 1443BOLB   C1A34613  14.279  18.563  19.594 -0.1269  0.3141 -0.0289
 1443BOLB   C2A34614  14.136  18.868  19.755 -0.0834 -0.2456  0.0824
 1443BOLB   C3A34615  13.918  19.365  19.759 -0.0752 -0.0472 -0.1726
 1443BOLB   C4A34616  13.841  19.728  19.633  0.0211  0.2695 -0.0424
 1443BOLB   C1B34617  14.011  18.403  20.025  0.0513 -0.3648 -0.2189
 1443BOLB   C2B34618  13.743  18.543  20.305  0.1094 -0.1485 -0.3519
 1443BOLB   C3B34619  13.676  18.755  20.699 -0.0958  0.4568 -0.0690
 1443BOLB   C4B34620  13.459  18.718  21.065 -0.0724 -0.3036 -0.1405
 1443BOLB   NC234621  13.048  20.895  21.250 -0.0438 -0.0960  0.1245
 1443BOLB   PO234622  12.657  20.707  21.389  0.1649  0.0092  0.0034
 1443BOLB   GL334623  12.775  20.522  21.023 -0.4186 -0.0824 -0.0638
 1443BOLB   GL434624  12.873  20.229  21.152 -0.1465 -0.0545 -0.0084
 1443BOLB   C1C34625  13.052  20.493  20.724  0.4399 -0.0807 -0.1061
 1443BOLB   C2C34626  13.097  20.292  20.360 -0.2913  0.1766 -0.1346
 1443BOLB   C3C34627  13.166  19.954  20.064 -0.0499 -0.0925  0.4351
 1443BOLB   C4C34628  13.539  19.910  19.934  0.0673 -0.2125 -0.0969
 1443BOLB   C1D34629  12.825  20.007  20.806  0.0417 -0.0105 -0.0077
 1443BOLB   C2D34630  12.987  19.716  20.473 -0.0488 -0.1004  0.1361
 1443BOLB   C3D34631  12.767  19.419  20.158  0.0305 -0.2571  0.1167
 1443BOLB   C4D34632  12.761  19.009  20.049 -0.2980  0.2300  0.2509
 1444BOLB   NC134633  22.622   6.707  19.440 -0.1447 -0.3732 -0.0544
 1444BOLB   PO134634  22.801   6.911  19.142  0.1038  0.0528 -0.0445
 1444BOLB   GL134635  23.040   7.010  19.577 -0.0298  0.2283  0.0633
 1444BOLB   GL234636  23.141   6.699  19.378  0.0369 -0.0806  0.2814
 1444BOLB   C1A34637  23.332   6.675  19.848 -0.0018 -0.2183  0.1448
 1444BOLB   C2A34638  23.621   6.485  20.038 -0.1204 -0.0246 -0.2638
 1444BOLB   C3A34639  23.992   6.438  19.856 -0.1597 -0.1434  0.3243
 1444BOLB   C4A34640  24.313   6.150  19.952  0.0562 -0.0604  0.0904
 1444BOLB   C1B34641  23.244   6.248  19.560  0.0606  0.1625  0.2116
 1444BOLB   C2B34642  23.600   6.060  19.670 -0.0807  0.0610 -0.1745
 1444BOLB   C3B34643  23.785   5.993  20.057 -0.0233 -0.0722  0.2198
 1444BOLB   C4B34644  24.003   6.150  20.339  0.1856  0.2446  0.0052
 1444BOLB   NC234645  27.089   5.482  19.977  0.6902 -0.2515 -0.0151
 1444BOLB   PO234646  26.665   5.411  20.014  0.2214  0.2245 -0.0243
 1444BOLB   GL334647  26.346   5.677  19.984 -0.0754  0.2261  0.3235
 1444BOLB   GL434648  26.410   5.877  19.691  0.0284 -0.1010 -0.0548
 1444BOLB   C1C34649  25.932   5.631  19.827  0.1207 -0.1028  0.2865
 1444BOLB   C2C34650  25.629   5.981  19.749  0.0537 -0.1785 -0.3979
 1444BOLB   C3C34651  25.161   6.165  19.841  0.1387  0.1961 -0.0068
 1444BOLB   C4C34652  24.723   6.037  19.773  0.3303  0.0293 -0.1925
 1444BOLB   C1D34653  26.065   6.129  19.949  0.1269  0.0634 -0.0260
 1444BOLB   C2D34654  25.889   6.346  20.076  0.0997  0.1076 -0.0433
 1444BOLB   C3D34655  25.415   6.550  20.033  0.1361 -0.0548  0.0085
 1444BOLB   C4D34656  25.065   6.919  20.148 -0.0562  0.3016 -0.4284
 1445BOLB   NC134657   2.906   6.419  18.823 -0.1971  0.2449 -0.0163
 1445BOLB   PO134658   2.813   6.583  18.387 -0.1935 -0.0131  0.1217
 1445BOLB   GL134659   3.111   6.541  18.019 -0.2068 -0.0628  0.0125
 1445BOLB   GL234660   3.167   6.802  18.105  0.1424 -0.0241 -0.1875
 1445BOLB   C1A34661   2.904   6.909  17.696 -0.1465 -0.0861 -0.2733
 1445BOLB   C2A34662   2.991   7.170  17.359 -0.0244  0.0856  0.0037
 1445BOLB   C3A34663   2.996   7.546  17.039 -0.0636  0.1565 -0.1647
 1445BOLB   C4A34664   2.927   7.382  16.552 -0.0645  0.1150  0.0532
 1445BOLB   C1B34665   3.449   6.713  17.662  0.0474  0.0556 -0.3736
 1445BOLB   C2B34666   3.883   6.845  17.632  0.1411 -0.0011 -0.2140
 1445BOLB   C3B34667   4.035   7.370  17.568 -0.3640  0.5043  0.0544
 1445BOLB   C4B34668   4.174   7.852  17.616  0.2570 -0.0807 -0.0747
 1445BOLB   NC234669   0.719   8.300  15.531  0.1620  0.3383  0.1806
 1445BOLB   PO234670   1.012   8.049  15.247  0.0933 -0.1459 -0.3465
 1445BOLB   GL334671   1.362   7.960  15.255 -0.0561 -0.2380  0.0367
 1445BOLB   GL434672   1.485   7.935  14.923  0.1580 -0.2625  0.2234
 1445BOLB   C1C34673   1.672   7.829  15.614  0.1837  0.3106 -0.2846
 1445BOLB   C2C34674   1.923   7.899  15.929  0.2473 -0.2297 -0.2210
 1445BOLB   C3C34675   2.189   7.658  16.279 -0.1802 -0.1056  0.2041
 1445BOLB   C4C34676   2.511   7.361  16.398  0.3163  0.1820 -0.2416
 1445BOLB   C1D34677   1.590   7.675  14.573 -0.1029 -0.0104  0.1882
 1445BOLB   C2D34678   1.678   7.612  14.209  0.0995  0.2790 -0.1476
 1445BOLB   C3D34679   1.890   7.840  13.954 -0.1475  0.0039  0.2158
 1445BOLB   C4D34680   2.032   8.218  13.834  0.2585 -0.2975 -0.0656
 1446BOLB   NC134681  20.760  15.944  19.095  0.2315  0.1347  0.2458
 1446BOLB   PO134682  20.994  16.127  19.485  0.1153  0.1826  0.3860
 1446BOLB   GL134683  21.132  16.470  19.720  0.2341 -0.0001  0.0304
 1446BOLB   GL234684  21.378  16.654  19.571 -0.2514 -0.2143 -0.3836
 1446BOLB   C1A34685  21.276  16.626  20.131  0.4117 -0.3432  0.1093
 1446BOLB   C2A34686  21.665  16.886  20.286 -0.0537  0.2459  0.0218
 1446BOLB   C3A34687  21.801  17.111  20.663 -0.1014 -0.1611  0.2269
 1446BOLB   C4A34688  22.214  17.077  21.024  0.1241 -0.1602 -0.0772
 1446BOLB   C1B34689  21.559  16.839  19.732  0.0677 -0.0216  0.1648
 1446BOLB   C2B34690  21.730  17.227  19.846  0.2648 -0.2952 -0.0043
 1446BOLB   C3B34691  21.806  17.437  20.167 -0.4411  0.1064  0.0329
 1446BOLB   C4B34692  22.085  17.574  20.445 -0.2268  0.0881  0.0004
 1446BOLB   NC234693  22.883  18.849  22.084 -0.2186 -0.2899  0.0568
 1446BOLB   PO234694  22.802  19.146  21.749  0.1427  0.4477  0.3069
 1446BOLB   GL334695  22.398  19.005  21.751 -0.1593 -0.0045  0.4280
 1446BOLB   GL434696  22.242  19.056  21.489  0.3663 -0.4440  0.3050
 1446BOLB   C1C34697  22.251  18.546  21.763  0.2340 -0.3305  0.3277
 1446BOLB   C2C34698  22.290  18.116  21.672 -0.0168 -0.0214 -0.2662
 1446BOLB   C3C34699  22.456  17.785  21.488 -0.0665  0.1441  0.3291
 1446BOLB   C4C34700  22.269  17.429  21.282  0.0982 -0.3044  0.0855
 1446BOLB   C1D34701  22.237  18.814  21.127 -0.0435 -0.1704 -0.0401
 1446BOLB   C2D34702  22.063  18.494  20.911 -0.1608 -0.0009 -0.2558
 1446BOLB   C3D34703  22.010  17.996  20.845 -0.3163 -0.0978 -0.1385
 1446BOLB   C4D34704  21.877  17.569  20.905  0.1983  0.0247 -0.0489
 1447BOLB   NC134705  18.748   8.329  23.044  0.2939  0.2045 -0.1285
 1447BOLB   PO134706  19.148   8.213  22.983 -0.1486 -0.2174 -0.1232
 1447BOLB   GL134707  19.214   8.247  23.399  0.1314  0.3361  0.0694
 1447BOLB   GL234708  19.082   8.033  23.518 -0.2895 -0.1929 -0.0683
 1447BOLB   C1A34709  19.504   8.138  23.748 -0.0608 -0.3844  0.1160
 1447BOLB   C2A34710  19.824   7.990  23.903 -0.0523  0.1230 -0.0863
 1447BOLB   C3A34711  20.108   7.998  24.184 -0.3504 -0.1363 -0.2214
 1447BOLB   C4A34712  20.268   7.700  24.473  0.0974  0.0721  0.4125
 1447BOLB   C1B34713  19.216   7.686  23.842  0.2732 -0.0103  0.0337
 1447BOLB   C2B34714  19.553   7.522  23.949 -0.2267 -0.0222  0.2515
 1447BOLB   C3B34715  19.927   7.249  24.147  0.3288 -0.1101  0.0401
 1447BOLB   C4B34716  20.146   7.091  24.556  0.0917  0.0629  0.1284
 1447BOLB   NC234717  21.074   6.079  26.338  0.1765 -0.1650  0.0013
 1447BOLB   PO234718  20.859   6.424  26.159  0.0251 -0.2520 -0.0240
 1447BOLB   GL334719  20.733   6.503  25.758 -0.0736  0.0050  0.2089
 1447BOLB   GL434720  20.727   6.240  25.590 -0.1709  0.1598 -0.0289
 1447BOLB   C1C34721  20.748   6.887  25.558  0.4550 -0.0786 -0.1164
 1447BOLB   C2C34722  20.871   7.176  25.266 -0.3557  0.2300  0.4887
 1447BOLB   C3C34723  20.892   7.409  24.842 -0.1760  0.2607  0.0757
 1447BOLB   C4C34724  20.599   7.431  24.476  0.2206  0.2339 -0.1161
 1447BOLB   C1D34725  20.461   6.529  25.329  0.0071  0.1761 -0.0879
 1447BOLB   C2D34726  20.404   6.982  25.169 -0.0025 -0.2572 -0.2200
 1447BOLB   C3D34727  20.044   7.316  25.100  0.1759 -0.0629 -0.1583
 1447BOLB   C4D34728  20.060   7.676  25.471  0.1982  0.0136 -0.2173
 1448BOLB   NC134729  19.775   2.991  12.549 -0.2002  0.1533  0.0658
 1448BOLB   PO134730  20.167   2.996  12.426 -0.0693 -0.0135  0.1361
 1448BOLB   GL134731  20.339   2.553  12.334 -0.0028 -0.3023  0.2723
 1448BOLB   GL234732  20.286   2.371  12.610 -0.1798  0.2489  0.1195
 1448BOLB   C1A34733  20.658   2.207  12.063  0.0564 -0.0619  0.1118
 1448BOLB   C2A34734  21.055   2.149  12.073 -0.0697 -0.2130  0.1088
 1448BOLB   C3A34735  21.467   1.936  12.084 -0.1269 -0.0378 -0.2569
 1448BOLB   C4A34736  21.747   1.680  11.813 -0.0128  0.0110  0.2879
 1448BOLB   C1B34737  20.385   2.049  12.464 -0.0835 -0.1985 -0.0796
 1448BOLB   C2B34738  20.649   1.691  12.257 -0.2054 -0.2243 -0.0230
 1448BOLB   C3B34739  21.107   1.575  12.342  0.0990  0.0774 -0.0278
 1448BOLB   C4B34740  21.594   1.380  12.379 -0.1608  0.1343  0.0672
 1448BOLB   NC234741  22.579  -0.585  10.771  0.1601 -0.3500  0.0687
 1448BOLB   PO234742  22.543  -0.182  11.004 -0.1107  0.2345 -0.2343
 1448BOLB   GL334743  22.173  -0.028  10.818  0.0694  0.1503  0.1747
 1448BOLB   GL434744  22.233   0.272  10.732  0.1373  0.0044  0.2137
 1448BOLB   C1C34745  21.857   0.149  11.020  0.0516 -0.2990  0.1025
 1448BOLB   C2C34746  21.772   0.411  11.338 -0.0945 -0.1455 -0.2404
 1448BOLB   C3C34747  21.711   0.859  11.489  0.2085 -0.2711 -0.3925
 1448BOLB   C4C34748  21.782   1.252  11.646  0.0543  0.0064  0.3440
 1448BOLB   C1D34749  22.058   0.624  10.821  0.3078  0.1710  0.1691
 1448BOLB   C2D34750  21.635   0.781  11.006  0.1666  0.0872 -0.1752
 1448BOLB   C3D34751  21.325   0.939  11.045  0.2019 -0.3578  0.0638
 1448BOLB   C4D34752  21.048   1.295  10.942 -0.0984  0.3925  0.2206
 1449BOLB   NC134753  11.440  12.903  21.392  0.0809 -0.0164  0.1600
 1449BOLB   PO134754  11.031  13.073  21.426  0.2458  0.1166 -0.1087
 1449BOLB   GL134755  10.817  13.201  21.808 -0.1198  0.2574  0.2602
 1449BOLB   GL234756  10.654  13.506  21.719  0.2717  0.0770  0.0848
 1449BOLB   C1A34757  10.409  13.186  22.023  0.3081 -0.1596 -0.1671
 1449BOLB   C2A34758  10.162  13.237  22.391  0.3809  0.1756  0.0032
 1449BOLB   C3A34759   9.699  13.156  22.585 -0.2373 -0.0615  0.2366
 1449BOLB   C4A34760   9.567  12.894  22.816 -0.1696 -0.1889  0.1730
 1449BOLB   C1B34761  10.412  13.730  21.441  0.0268 -0.1974 -0.1164
 1449BOLB   C2B34762   9.983  13.905  21.561  0.1432 -0.2148 -0.0877
 1449BOLB   C3B34763   9.670  14.165  21.444 -0.2582 -0.0376  0.1711
 1449BOLB   C4B34764   9.233  14.395  21.464  0.1733  0.0954  0.1271
 1449BOLB   NC234765   8.703  13.248  25.058 -0.2163 -0.1386 -0.0511
 1449BOLB   PO234766   8.732  13.543  24.786 -0.3042  0.3797  0.3709
 1449BOLB   GL334767   8.902  13.535  24.434  0.0048 -0.0298  0.0520
 1449BOLB   GL434768   9.172  13.314  24.373 -0.1626 -0.0321  0.1807
 1449BOLB   C1C34769   9.098  13.650  24.002 -0.0174 -0.2821 -0.0043
 1449BOLB   C2C34770   9.291  13.290  23.778 -0.1743  0.1399  0.0344
 1449BOLB   C3C34771   9.305  13.126  23.272  0.1879 -0.1423 -0.0584
 1449BOLB   C4C34772   9.432  12.808  23.108  0.1640 -0.1289  0.0576
 1449BOLB   C1D34773   9.584  13.382  24.206  0.3534  0.2271  0.1464
 1449BOLB   C2D34774   9.984  13.582  24.037  0.1901  0.1676 -0.4600
 1449BOLB   C3D34775  10.190  13.683  23.770 -0.2119 -0.0033  0.1277
 1449BOLB   C4D34776  10.045  13.717  23.351  0.1302 -0.0848  0.0734
 1450BOLB   NC134777  10.616  16.621  18.138  0.0990 -0.0904 -0.1565
 1450BOLB   PO134778  11.016  16.805  18.038 -0.0544  0.2503 -0.3595
 1450BOLB   GL134779  10.911  17.226  17.902 -0.0925  0.1225  0.0427
 1450BOLB   GL234780  10.738  17.319  18.121  0.0922 -0.0460  0.0260
 1450BOLB   C1A34781  10.598  17.555  17.680 -0.0925  0.0770  0.1246
 1450BOLB   C2A34782  10.228  17.615  17.532 -0.1721 -0.1079 -0.1539
 1450BOLB   C3A34783  10.012  17.627  17.212 -0.0551 -0.1854 -0.0199
 1450BOLB   C4A34784   9.764  17.621  16.784 -0.0780  0.0390 -0.2520
 1450BOLB   C1B34785  10.374  17.731  18.138 -0.3198  0.1381 -0.0678
 1450BOLB   C2B34786  10.124  17.995  17.906 -0.0866 -0.1161  0.0089
 1450BOLB   C3B34787   9.737  17.872  17.621  0.2396 -0.2116  0.1529
 1450BOLB   C4B34788   9.392  17.654  17.144  0.1173  0.0236  0.0300
 1450BOLB   NC234789   7.386  19.283  15.856 -0.0191 -0.2391 -0.0628
 1450BOLB   PO234790   7.844  19.162  15.912 -0.2406 -0.1960  0.0722
 1450BOLB   GL334791   8.052  18.688  16.001  0.0036 -0.0157 -0.0952
 1450BOLB   GL434792   7.838  18.523  16.255  0.3433 -0.0099  0.0887
 1450BOLB   C1C34793   8.324  18.357  16.256  0.1913  0.0554  0.0689
 1450BOLB   C2C34794   8.705  17.930  16.188  0.0273 -0.1343  0.1183
 1450BOLB   C3C34795   9.087  17.824  16.328  0.2384  0.1312 -0.2321
 1450BOLB   C4C34796   9.421  17.802  16.561  0.0792  0.2298 -0.2755
 1450BOLB   C1D34797   7.643  18.188  15.992 -0.0966 -0.0421 -0.1901
 1450BOLB   C2D34798   7.738  17.818  15.935 -0.1532  0.0026  0.0944
 1450BOLB   C3D34799   7.685  17.380  16.020 -0.1726 -0.0445 -0.0073
 1450BOLB   C4D34800   7.399  17.057  16.207 -0.1380  0.1079  0.1724
 1451BOLB   NC134801  19.318   9.303  23.113 -0.2967 -0.0522 -0.2426
 1451BOLB   PO134802  19.565   9.008  23.081  0.3517  0.2265 -0.1234
 1451BOLB   GL134803  19.444   9.125  23.580  0.0715 -0.1773  0.0209
 1451BOLB   GL234804  19.172   8.942  23.577  0.0196  0.1509 -0.0922
 1451BOLB   C1A34805  19.406   9.100  24.034 -0.0731 -0.0502  0.2586
 1451BOLB   C2A34806  19.790   8.884  24.288  0.0151 -0.0592 -0.0311
 1451BOLB   C3A34807  19.954   8.511  24.331  0.0509 -0.0256  0.2240
 1451BOLB   C4A34808  20.184   8.312  24.573 -0.2767 -0.2880 -0.0820
 1451BOLB   C1B34809  19.300   8.670  23.763  0.0760 -0.0206  0.1275
 1451BOLB   C2B34810  19.649   8.580  23.942  0.1158 -0.0462 -0.1058
 1451BOLB   C3B34811  20.051   8.447  23.851 -0.1229 -0.0098  0.0755
 1451BOLB   C4B34812  20.458   8.323  23.953 -0.0710 -0.2986 -0.2815
 1451BOLB   NC234813  21.219   7.760  26.799  0.0343 -0.2503  0.1806
 1451BOLB   PO234814  20.946   7.403  26.483  0.0438 -0.5054  0.0702
 1451BOLB   GL334815  20.845   7.735  26.232 -0.1089  0.2836 -0.0302
 1451BOLB   GL434816  20.509   7.711  25.955 -0.2891  0.0631 -0.0303
 1451BOLB   C1C34817  20.823   8.079  25.949 -0.2299 -0.1623  0.1975
 1451BOLB   C2C34818  20.862   8.116  25.471 -0.1486 -0.0842  0.1225
 1451BOLB   C3C34819  20.683   8.169  25.186  0.0385 -0.0233  0.3930
 1451BOLB   C4C34820  20.458   8.299  24.901  0.2649  0.0225 -0.0528
 1451BOLB   C1D34821  20.388   7.975  25.546  0.0467 -0.3051 -0.0431
 1451BOLB   C2D34822  20.133   8.197  25.241 -0.0682  0.2847 -0.3415
 1451BOLB   C3D34823  20.210   8.717  25.111  0.1288 -0.3139  0.0013
 1451BOLB   C4D34824  20.148   8.800  24.681 -0.0025 -0.0945 -0.3397
 1452BOLB   NC134825  21.785  12.457  10.502  0.1624  0.1738  0.0439
 1452BOLB   PO134826  21.591  12.060  10.735 -0.1008  0.3322 -0.0353
 1452BOLB   GL134827  21.953  12.000  10.423 -0.0613 -0.0608  0.0036
 1452BOLB   GL234828  21.818  11.796  10.244  0.0279  0.3965 -0.1259
 1452BOLB   C1A34829  22.331  12.086  10.280  0.0516  0.1061  0.1932
 1452BOLB   C2A34830  22.707  12.356  10.096  0.0265 -0.0569 -0.0308
 1452BOLB   C3A34831  22.905  12.455   9.755 -0.0150  0.0044 -0.2358
 1452BOLB   C4A34832  23.325  12.746   9.461  0.0355  0.0908  0.2219
 1452BOLB   C1B34833  22.123  11.649  10.064 -0.0625  0.1073 -0.1755
 1452BOLB   C2B34834  22.535  11.768   9.828  0.1276 -0.1325  0.1083
 1452BOLB   C3B34835  22.915  11.918   9.579 -0.2370 -0.1649 -0.2447
 1452BOLB   C4B34836  23.046  12.098   9.263  0.0285  0.0777  0.3421
 1452BOLB   NC234837  25.809  12.533   8.628  0.2193 -0.0731  0.3570
 1452BOLB   PO234838  25.675  12.848   8.897  0.1186 -0.4122 -0.2410
 1452BOLB   GL334839  25.209  12.809   8.891 -0.0728 -0.1534 -0.2343
 1452BOLB   GL434840  25.126  12.662   9.141  0.0492 -0.2267  0.0422
 1452BOLB   C1C34841  24.920  12.713   8.690  0.0795 -0.3064 -0.2122
 1452BOLB   C2C34842  24.466  12.699   8.764  0.1358 -0.1060  0.1359
 1452BOLB   C3C34843  24.062  12.616   8.947 -0.0446 -0.1654 -0.4135
 1452BOLB   C4C34844  23.737  12.697   9.334  0.0725 -0.0017  0.0669
 1452BOLB   C1D34845  25.278  12.779   9.604 -0.2731  0.4613  0.0553
 1452BOLB   C2D34846  25.084  12.738  10.031 -0.0622  0.0945 -0.2180
 1452BOLB   C3D34847  24.854  12.967  10.357 -0.2953  0.2485 -0.0021
 1452BOLB   C4D34848  24.538  13.009  10.637 -0.0511 -0.3554  0.3030
 1453BOLB   NC134849  14.219  15.053   9.968 -0.1106  0.0208  0.2317
 1453BOLB   PO134850  14.411  15.232   9.617  0.1907  0.1553 -0.1646
 1453BOLB   GL134851  14.325  15.626   9.368  0.4596  0.0938 -0.3325
 1453BOLB   GL234852  14.359  15.652   9.045 -0.0671 -0.0030  0.1153
 1453BOLB   C1A34853  14.400  16.060   9.310  0.0196 -0.2740  0.1613
 1453BOLB   C2A34854  14.401  16.426   9.067 -0.0861  0.1744  0.4583
 1453BOLB   C3A34855  14.368  16.597   8.633  0.2830  0.2022 -0.0715
 1453BOLB   C4A34856  14.421  16.536   8.158  0.0553 -0.2705 -0.2448
 1453BOLB   C1B34857  14.329  15.702   8.651  0.0982  0.2119  0.2810
 1453BOLB   C2B34858  13.944  15.675   8.429  0.1511  0.1935 -0.0584
 1453BOLB   C3B34859  13.508  15.849   8.336 -0.2206  0.1802  0.3006
 1453BOLB   C4B34860  13.149  15.672   8.124 -0.1277 -0.1285 -0.3005
 1453BOLB   NC234861  13.845  17.640   6.056 -0.0924 -0.2127 -0.1300
 1453BOLB   PO234862  13.716  17.259   5.943  0.0110 -0.1922  0.2148
 1453BOLB   GL334863  13.788  17.145   6.393 -0.3605 -0.0392  0.2160
 1453BOLB   GL434864  13.537  17.274   6.647 -0.0805 -0.1959 -0.0958
 1453BOLB   C1C34865  14.027  17.372   6.657 -0.1275  0.1141  0.1157
 1453BOLB   C2C34866  14.008  17.378   7.049 -0.1313  0.1774 -0.4226
 1453BOLB   C3C34867  13.989  17.040   7.377  0.1950 -0.0506 -0.1249
 1453BOLB   C4C34868  14.213  16.789   7.657  0.2197  0.0562  0.0292
 1453BOLB   C1D34869  13.820  16.940   6.871 -0.1848  0.1827 -0.0300
 1453BOLB   C2D34870  14.077  16.592   7.165  0.1207  0.1305 -0.0776
 1453BOLB   C3D34871  14.115  16.130   7.278  0.2325 -0.0954  0.1456
 1453BOLB   C4D34872  14.106  15.689   7.204 -0.0919  0.0064  0.0117
 1454BOLB   NC134873   9.364  15.223  18.085  0.1432 -0.1375  0.1604
 1454BOLB   PO134874   9.480  14.785  18.255 -0.1770  0.0785  0.2761
 1454BOLB   GL134875   9.204  14.975  18.615 -0.3511  0.1170  0.1211
 1454BOLB   GL234876   8.942  15.020  18.364 -0.1352  0.5198 -0.0595
 1454BOLB   C1A34877   8.735  15.031  18.776  0.1200  0.0751 -0.2641
 1454BOLB   C2A34878   8.426  14.909  18.952  0.2377  0.2112 -0.0700
 1454BOLB   C3A34879   7.907  14.876  18.916  0.1499  0.0522 -0.0187
 1454BOLB   C4A34880   7.489  14.920  19.081 -0.0882 -0.1039  0.0610
 1454BOLB   C1B34881   8.550  14.875  18.328  0.2863  0.1239 -0.3024
 1454BOLB   C2B34882   8.227  14.981  18.015  0.1354  0.2851 -0.2505
 1454BOLB   C3B34883   8.081  15.113  17.670 -0.4063 -0.1989  0.0729
 1454BOLB   C4B34884   7.725  15.492  17.736 -0.4708 -0.0906 -0.1854
 1454BOLB   NC234885   6.047  15.077  20.695 -0.2063 -0.3454  0.1736
 1454BOLB   PO234886   5.950  15.153  20.284 -0.0176 -0.0751  0.1991
 1454BOLB   GL334887   6.315  14.899  20.200 -0.3914  0.1062 -0.0181
 1454BOLB   GL434888   6.431  14.826  20.485  0.3387  0.1107  0.0306
 1454BOLB   C1C34889   6.686  14.732  19.946  0.0140 -0.1093 -0.0531
 1454BOLB   C2C34890   6.872  14.496  19.541 -0.0515 -0.0032  0.0196
 1454BOLB   C3C34891   7.008  14.377  19.208  0.0238  0.0614  0.2009
 1454BOLB   C4C34892   7.242  14.724  18.958 -0.2486 -0.1967 -0.0804
 1454BOLB   C1D34893   6.927  14.856  20.469 -0.0428  0.0725 -0.1678
 1454BOLB   C2D34894   7.294  15.050  20.329  0.1370  0.0130  0.0536
 1454BOLB   C3D34895   7.612  14.893  20.144 -0.0967  0.3811  0.0873
 1454BOLB   C4D34896   7.748  14.542  20.011  0.1915  0.1956 -0.1301
 1455BOLB   NC134897   9.376  15.472  16.198  0.0089 -0.0377  0.2928
 1455BOLB   PO134898   9.668  15.645  15.850  0.0590  0.1512 -0.1130
 1455BOLB   GL134899   9.318  15.992  16.043  0.2584  0.0399 -0.0321
 1455BOLB   GL234900   9.347  16.040  16.418  0.1444  0.3259 -0.1643
 1455BOLB   C1A34901   9.059  16.364  15.986  0.0524  0.2593  0.1212
 1455BOLB   C2A34902   8.787  16.683  16.019  0.1957  0.0753 -0.1394
 1455BOLB   C3A34903   8.741  17.003  15.877  0.1474 -0.3029  0.2089
 1455BOLB   C4A34904   8.470  17.226  15.473  0.3893 -0.3325  0.1318
 1455BOLB   C1B34905   8.938  16.024  16.379 -0.0356  0.1826 -0.0961
 1455BOLB   C2B34906   8.581  16.008  16.515  0.3862  0.2847 -0.1938
 1455BOLB   C3B34907   8.199  16.205  16.604 -0.1395  0.1972  0.4223
 1455BOLB   C4B34908   8.016  16.542  16.839 -0.0139 -0.1190 -0.2161
 1455BOLB   NC234909   7.261  17.807  14.707  0.0940 -0.0643  0.1150
 1455BOLB   PO234910   7.202  18.247  14.660  0.1292 -0.0253  0.0147
 1455BOLB   GL334911   7.643  18.130  14.524 -0.1131  0.2646 -0.1235
 1455BOLB   GL434912   7.808  18.366  14.351  0.0750 -0.0674  0.4023
 1455BOLB   C1C34913   7.914  17.811  14.584 -0.2097  0.1992 -0.2596
 1455BOLB   C2C34914   8.399  17.747  14.493  0.0348 -0.0527  0.0650
 1455BOLB   C3C34915   8.706  17.725  14.807 -0.0454  0.1193  0.2462
 1455BOLB   C4C34916   8.563  17.565  15.267  0.2847 -0.0427  0.1429
 1455BOLB   C1D34917   8.276  18.249  14.564 -0.0410  0.2051 -0.2089
 1455BOLB   C2D34918   8.674  18.194  14.714  0.0778 -0.0341 -0.2313
 1455BOLB   C3D34919   9.030  18.077  14.546  0.0540 -0.0965 -0.2417
 1455BOLB   C4D34920   9.345  18.073  14.403  0.0071 -0.1743  0.1338
 1456BOLB   NC134921  20.508   5.621  10.312  0.2136  0.2795 -0.1474
 1456BOLB   PO134922  20.313   5.366   9.998 -0.0271  0.2911 -0.0853
 1456BOLB   GL134923  20.372   5.100   9.730  0.0692 -0.2699 -0.0356
 1456BOLB   GL234924  20.716   5.186   9.651 -0.0615  0.1646 -0.0428
 1456BOLB   C1A34925  20.602   4.733   9.516  0.3344 -0.1029  0.0486
 1456BOLB   C2A34926  20.748   4.370   9.288  0.0325  0.0653  0.0170
 1456BOLB   C3A34927  20.847   3.981   9.300 -0.0715  0.0049 -0.1955
 1456BOLB   C4A34928  21.193   3.563   9.064 -0.2535  0.1641 -0.0417
 1456BOLB   C1B34929  20.784   5.058   9.239 -0.3794  0.1565  0.1994
 1456BOLB   C2B34930  20.974   4.901   8.855  0.0110 -0.0612 -0.2022
 1456BOLB   C3B34931  21.116   4.672   8.474 -0.0758 -0.2271  0.3134
 1456BOLB   C4B34932  21.320   4.333   8.724 -0.3251  0.3403  0.2205
 1456BOLB   NC234933  22.947   2.256   8.303  0.0353  0.1096 -0.1282
 1456BOLB   PO234934  23.101   2.119   8.723  0.2191  0.0269 -0.1022
 1456BOLB   GL334935  22.784   2.368   8.844 -0.1978 -0.0822 -0.0653
 1456BOLB   GL434936  22.720   2.386   9.275  0.3439  0.0782  0.3600
 1456BOLB   C1C34937  22.656   2.838   8.857  0.2062 -0.3263  0.1710
 1456BOLB   C2C34938  22.297   3.120   9.062 -0.2844  0.0221 -0.0616
 1456BOLB   C3C34939  21.919   3.114   9.258  0.2924 -0.1474 -0.0923
 1456BOLB   C4C34940  21.545   3.306   9.093  0.2358 -0.1597 -0.1814
 1456BOLB   C1D34941  22.768   2.716   9.637 -0.0018 -0.0351  0.1218
 1456BOLB   C2D34942  22.944   3.081   9.963  0.0015  0.0310  0.1436
 1456BOLB   C3D34943  23.002   3.493  10.229 -0.1168 -0.0635  0.0020
 1456BOLB   C4D34944  22.964   3.901  10.377  0.2010  0.1712 -0.1106
 1457BOLB   NC134945  23.610   9.046  14.023  0.0670  0.0468  0.2141
 1457BOLB   PO134946  24.035   8.883  13.761 -0.2438  0.1119  0.3468
 1457BOLB   GL134947  24.470   8.846  13.712 -0.1114  0.3112 -0.0234
 1457BOLB   GL234948  24.450   8.572  13.484  0.1424 -0.0235  0.1291
 1457BOLB   C1A34949  24.875   8.673  13.720  0.0637  0.0396 -0.2118
 1457BOLB   C2A34950  25.166   8.412  13.785 -0.1672 -0.1690  0.0276
 1457BOLB   C3A34951  25.413   8.207  13.867 -0.2017 -0.0321  0.1148
 1457BOLB   C4A34952  25.575   7.757  13.850  0.0607 -0.0044 -0.2052
 1457BOLB   C1B34953  24.719   8.750  13.151  0.0121 -0.0201 -0.1180
 1457BOLB   C2B34954  25.149   8.522  13.192 -0.1908  0.0291  0.0660
 1457BOLB   C3B34955  25.402   8.280  13.382 -0.0182 -0.1737 -0.0450
 1457BOLB   C4B34956  25.735   8.075  13.494 -0.1168  0.1251 -0.3539
 1457BOLB   NC234957  27.691   6.388  12.884 -0.2018 -0.0237 -0.1571
 1457BOLB   PO234958  27.733   6.915  13.046 -0.0599  0.0811  0.0022
 1457BOLB   GL334959  27.319   7.304  13.073 -0.0186 -0.2398  0.1842
 1457BOLB   GL434960  27.298   7.517  12.741  0.1942  0.1962 -0.0453
 1457BOLB   C1C34961  26.952   7.572  13.180  0.2078  0.1014  0.1148
 1457BOLB   C2C34962  26.498   7.534  13.181  0.1095 -0.3355  0.2282
 1457BOLB   C3C34963  26.121   7.335  13.352  0.0665  0.4698  0.1866
 1457BOLB   C4C34964  25.778   7.459  13.559  0.1217  0.2659 -0.1919
 1457BOLB   C1D34965  27.391   7.805  12.989  0.2072  0.1452  0.0567
 1457BOLB   C2D34966  27.246   8.223  13.187 -0.1135 -0.0533  0.1919
 1457BOLB   C3D34967  27.083   8.631  13.278 -0.1915 -0.2892  0.2315
 1457BOLB   C4D34968  27.111   9.048  13.441 -0.3273 -0.3910  0.0349
 1458BOLB   NC134969  19.664   7.425  21.941 -0.1366 -0.0787 -0.1297
 1458BOLB   PO134970  19.513   7.154  22.106  0.0004  0.0458  0.6018
 1458BOLB   GL134971  19.612   6.968  22.479  0.1999  0.2130 -0.3063
 1458BOLB   GL234972  19.924   7.083  22.549 -0.2848  0.1873  0.0096
 1458BOLB   C1A34973  19.660   6.682  22.688 -0.1173 -0.1298  0.0308
 1458BOLB   C2A34974  19.896   6.415  23.041  0.1179  0.1121  0.0564
 1458BOLB   C3A34975  20.077   6.136  23.457  0.0603 -0.0987  0.0598
 1458BOLB   C4A34976  20.340   5.904  23.691  0.1598 -0.0530  0.3393
 1458BOLB   C1B34977  20.317   6.854  22.576  0.0799 -0.1614  0.1946
 1458BOLB   C2B34978  20.591   6.478  22.750 -0.0953 -0.1823 -0.2185
 1458BOLB   C3B34979  20.935   6.205  22.844  0.0689 -0.1374 -0.0777
 1458BOLB   C4B34980  21.339   6.397  22.811  0.0255  0.1133 -0.2286
 1458BOLB   NC234981  22.048   4.401  24.633 -0.1005  0.0217 -0.0085
 1458BOLB   PO234982  22.297   4.740  24.503  0.0632 -0.2285 -0.1542
 1458BOLB   GL334983  21.972   4.962  24.458  0.2835 -0.0703  0.2800
 1458BOLB   GL434984  22.030   5.224  24.470  0.0206  0.1550 -0.2838
 1458BOLB   C1C34985  21.546   5.063  24.309  0.0027  0.0457 -0.3802
 1458BOLB   C2C34986  21.299   5.356  24.066  0.3160  0.2449 -0.0686
 1458BOLB   C3C34987  20.921   5.465  23.999  0.1142  0.4001 -0.4779
 1458BOLB   C4C34988  20.514   5.588  23.891 -0.0269 -0.0173 -0.1497
 1458BOLB   C1D34989  21.818   5.458  24.131 -0.2419  0.0972 -0.2012
 1458BOLB   C2D34990  21.553   5.708  23.829 -0.4247 -0.1470  0.2434
 1458BOLB   C3D34991  21.253   5.592  23.529 -0.2741 -0.0410  0.0358
 1458BOLB   C4D34992  20.856   5.693  23.515 -0.2317 -0.0865 -0.3338
 1459BOLB   NC134993  18.753  17.977  17.760 -0.1567  0.1337  0.2126
 1459BOLB   PO134994  18.689  17.752  18.137  0.1619 -0.3137  0.0538
 1459BOLB   GL134995  18.947  18.147  18.281 -0.0192  0.3515  0.0268
 1459BOLB   GL234996  18.994  18.440  18.012  0.3216  0.0528 -0.4139
 1459BOLB   C1A34997  18.857  18.516  18.528  0.0144  0.1667 -0.2093
 1459BOLB   C2A34998  19.091  18.893  18.679  0.3199 -0.1673  0.1387
 1459BOLB   C3A34999  19.267  19.148  18.869 -0.1193 -0.1638  0.2050
 1459BOLB   C4A35000  19.723  19.309  18.926 -0.1123 -0.0778  0.0179
 1459BOLB   C1B35001  19.299  18.566  18.292 -0.1808  0.1223  0.2674
 1459BOLB   C2B35002  19.525  18.914  18.424 -0.1445  0.2735  0.0865
 1459BOLB   C3B35003  19.531  19.176  18.114  0.1958  0.1621 -0.3017
 1459BOLB   C4B35004  19.358  19.609  18.009  0.2622 -0.3183  0.0774
 1459BOLB   NC235005  21.057  21.465  20.130  0.3344 -0.1607  0.3109
 1459BOLB   PO235006  20.866  21.109  19.931  0.1713  0.1108 -0.1428
 1459BOLB   GL335007  20.908  20.697  19.933 -0.0290 -0.1637  0.3344
 1459BOLB   GL435008  21.133  20.550  19.965 -0.0200  0.1516 -0.2624
 1459BOLB   C1C35009  20.894  20.262  19.690  0.4219 -0.2012  0.0033
 1459BOLB   C2C35010  20.744  19.844  19.408  0.1087  0.0066  0.0630
 1459BOLB   C3C35011  20.513  19.477  19.289  0.0544 -0.0790  0.1518
 1459BOLB   C4C35012  20.058  19.324  19.235  0.0069 -0.3145  0.0192
 1459BOLB   C1D35013  20.862  20.233  20.184 -0.0830  0.0481  0.0695
 1459BOLB   C2D35014  20.618  19.827  19.941  0.0883  0.0715 -0.3190
 1459BOLB   C3D35015  20.200  19.630  19.686 -0.0092 -0.0237  0.2305
 1459BOLB   C4D35016  19.953  19.260  19.725  0.2204 -0.1658  0.3263
 1460BOLB   NC135017  22.993  12.861  19.774 -0.2634  0.3071  0.1375
 1460BOLB   PO135018  22.903  13.339  19.726 -0.2656 -0.1402  0.1775
 1460BOLB   GL135019  23.156  13.577  19.888 -0.0166 -0.1455  0.0666
 1460BOLB   GL235020  23.420  13.351  19.848 -0.2417 -0.1769 -0.1960
 1460BOLB   C1A35021  23.562  13.786  20.111 -0.0472  0.0407  0.2925
 1460BOLB   C2A35022  23.896  13.928  20.360 -0.0545  0.0608 -0.1138
 1460BOLB   C3A35023  24.161  13.916  20.658 -0.0134 -0.0103 -0.1963
 1460BOLB   C4A35024  24.498  13.779  20.867 -0.0631 -0.2727 -0.1582
 1460BOLB   C1B35025  23.865  13.462  19.759 -0.0038 -0.5195 -0.0955
 1460BOLB   C2B35026  24.224  13.458  19.636 -0.0012 -0.0159  0.1430
 1460BOLB   C3B35027  24.617  13.549  20.010  0.1762  0.3112 -0.0150
 1460BOLB   C4B35028  24.975  13.329  20.004 -0.0539  0.3184 -0.2923
 1460BOLB   NC235029  25.976  14.633  22.287  0.1718  0.0790 -0.0557
 1460BOLB   PO235030  25.794  14.382  22.670  0.1369 -0.1528  0.2314
 1460BOLB   GL335031  25.286  14.371  22.690 -0.0223 -0.1081  0.2097
 1460BOLB   GL435032  25.092  14.488  22.904  0.0271 -0.0684  0.3735
 1460BOLB   C1C35033  25.067  14.212  22.295 -0.0671  0.1338 -0.0019
 1460BOLB   C2C35034  24.828  13.892  22.084 -0.0302 -0.0050 -0.3143
 1460BOLB   C3C35035  24.691  13.870  21.594 -0.1592  0.1070  0.0647
 1460BOLB   C4C35036  24.702  13.800  21.194 -0.0765  0.2528 -0.0158
 1460BOLB   C1D35037  24.756  14.486  22.602  0.0530  0.2070  0.0296
 1460BOLB   C2D35038  24.350  14.602  22.301  0.0057 -0.1168 -0.0064
 1460BOLB   C3D35039  24.077  14.479  21.915 -0.0744 -0.1042 -0.2383
 1460BOLB   C4D35040  23.701  14.260  21.853  0.2788 -0.3632  0.2375
 1461BOLB   NC135041   5.902  13.917  21.434  0.1969  0.2267 -0.1826
 1461BOLB   PO135042   5.822  14.218  21.238  0.2326  0.1525  0.0771
 1461BOLB   GL135043   6.200  14.032  21.042  0.1679 -0.1597 -0.2460
 1461BOLB   GL235044   6.244  13.681  21.057 -0.1319  0.3163  0.2673
 1461BOLB   C1A35045   6.651  14.010  20.984 -0.0306 -0.4070  0.1978
 1461BOLB   C2A35046   7.120  13.936  20.866 -0.2310 -0.3178 -0.3308
 1461BOLB   C3A35047   7.350  14.277  20.626 -0.2803  0.2297 -0.3320
 1461BOLB   C4A35048   7.267  14.530  20.277  0.2332  0.0946 -0.1014
 1461BOLB   C1B35049   6.799  13.568  21.030 -0.0346 -0.0760 -0.0957
 1461BOLB   C2B35050   7.243  13.315  20.952  0.1114  0.0822 -0.3451
 1461BOLB   C3B35051   7.629  13.016  20.999  0.2486  0.0307  0.2841
 1461BOLB   C4B35052   7.917  12.680  21.223  0.1294 -0.0138  0.2660
 1461BOLB   NC235053   5.149  14.421  18.889  0.3140  0.0076 -0.0265
 1461BOLB   PO235054   5.616  14.685  18.908 -0.1486 -0.1486 -0.1587
 1461BOLB   GL335055   6.033  14.616  18.850 -0.2120  0.1475  0.0769
 1461BOLB   GL435056   6.273  14.600  18.629 -0.2044  0.0216 -0.3650
 1461BOLB   C1C35057   6.335  14.614  19.188 -0.0393  0.0171  0.0467
 1461BOLB   C2C35058   6.739  14.818  19.158  0.0024  0.3395  0.1833
 1461BOLB   C3C35059   7.092  14.915  19.480  0.1491 -0.1768 -0.3139
 1461BOLB   C4C35060   7.250  14.717  19.846 -0.1409 -0.0937 -0.0850
 1461BOLB   C1D35061   6.652  14.398  18.759 -0.1480 -0.0763  0.2636
 1461BOLB   C2D35062   7.060  14.395  18.576 -0.1624 -0.4841  0.0848
 1461BOLB   C3D35063   7.313  14.724  18.337 -0.1135 -0.2414  0.1408
 1461BOLB   C4D35064   7.181  14.968  18.086 -0.0536  0.0305 -0.1614
 1462BOLB   NC135065  19.972  11.560   9.779  0.2030 -0.0005 -0.1564
 1462BOLB   PO135066  20.078  11.893   9.465 -0.2230 -0.1660  0.1073
 1462BOLB   GL135067  20.337  11.758   9.062 -0.0440  0.0913 -0.0612
 1462BOLB   GL235068  20.669  11.589   9.079  0.1397  0.0699 -0.0266
 1462BOLB   C1A35069  20.280  11.553   8.658 -0.1070  0.2451 -0.0811
 1462BOLB   C2A35070  20.012  11.493   8.320  0.0354 -0.5809 -0.0401
 1462BOLB   C3A35071  20.143  11.545   7.941 -0.0327  0.2691  0.0681
 1462BOLB   C4A35072  20.310  11.644   7.604 -0.0908 -0.0808 -0.1277
 1462BOLB   C1B35073  20.837  11.505   8.690 -0.1276 -0.0829 -0.1049
 1462BOLB   C2B35074  21.143  11.386   8.314 -0.2396  0.2411 -0.2534
 1462BOLB   C3B35075  21.136  11.371   7.973 -0.2043  0.3473  0.3835
 1462BOLB   C4B35076  21.140  11.119   7.455  0.0783 -0.0202  0.2003
 1462BOLB   NC235077  20.051  11.116   4.842  0.0781  0.0971  0.1465
 1462BOLB   PO235078  20.358  11.325   5.117  0.0966 -0.0745 -0.1293
 1462BOLB   GL335079  20.334  11.385   5.581 -0.2595 -0.0144  0.2007
 1462BOLB   GL435080  20.614  11.174   5.589  0.0401 -0.1839  0.2204
 1462BOLB   C1C35081  20.420  11.526   5.957  0.0523 -0.0129 -0.0367
 1462BOLB   C2C35082  20.468  11.656   6.431 -0.1371  0.1119 -0.0835
 1462BOLB   C3C35083  20.308  11.733   6.753  0.0103  0.1399 -0.0036
 1462BOLB   C4C35084  20.297  11.704   7.193  0.0538 -0.1077 -0.0596
 1462BOLB   C1D35085  20.220  11.000   5.836 -0.0955 -0.3560 -0.6187
 1462BOLB   C2D35086  20.037  11.133   6.290  0.0841 -0.1862 -0.0753
 1462BOLB   C3D35087  19.945  10.936   6.758  0.1828  0.3324 -0.0751
 1462BOLB   C4D35088  20.075  10.744   7.136  0.1903  0.3017 -0.0271
 1463BOLB   NC135089  13.406   4.193  20.954 -0.0746 -0.0270  0.1048
 1463BOLB   PO135090  13.529   4.297  20.509 -0.1037 -0.2598 -0.1695
 1463BOLB   GL135091  13.407   3.902  20.559  0.2007 -0.3639  0.2813
 1463BOLB   GL235092  13.433   3.715  20.872  0.0964  0.1086 -0.1565
 1463BOLB   C1A35093  13.000   3.712  20.605  0.0472 -0.3411 -0.1971
 1463BOLB   C2A35094  12.679   3.498  20.816  0.0094  0.0346  0.1336
 1463BOLB   C3A35095  12.381   3.226  21.013  0.0547  0.1659 -0.0343
 1463BOLB   C4A35096  12.198   2.779  21.030  0.0631 -0.0291 -0.1299
 1463BOLB   C1B35097  13.354   3.266  21.101  0.2125  0.3036 -0.0614
 1463BOLB   C2B35098  13.465   2.856  20.867  0.0772  0.0944  0.2315
 1463BOLB   C3B35099  13.416   2.520  21.129  0.0023  0.3345  0.1780
 1463BOLB   C4B35100  13.195   2.143  21.203  0.1164  0.0106 -0.0559
 1463BOLB   NC235101  11.196   0.581  22.640  0.2136 -0.0157 -0.2612
 1463BOLB   PO235102  11.275   0.836  22.277 -0.0215 -0.1466  0.1950
 1463BOLB   GL335103  11.348   1.111  21.913 -0.1560  0.0428 -0.0147
 1463BOLB   GL435104  11.288   1.022  21.608 -0.2897  0.0386 -0.1116
 1463BOLB   C1C35105  11.568   1.427  21.549  0.0239  0.0520  0.0751
 1463BOLB   C2C35106  11.833   1.821  21.582  0.1827 -0.1139  0.2152
 1463BOLB   C3C35107  11.980   2.222  21.496  0.0327  0.1916  0.1725
 1463BOLB   C4C35108  12.142   2.458  21.298 -0.1227  0.1347 -0.1980
 1463BOLB   C1D35109  11.235   1.131  21.202 -0.2588  0.1705 -0.1409
 1463BOLB   C2D35110  10.886   1.425  21.067 -0.3408  0.0282  0.0328
 1463BOLB   C3D35111  10.854   1.661  20.618  0.0647  0.0609  0.1289
 1463BOLB   C4D35112  10.979   1.944  20.230 -0.2803  0.0864  0.0994
 1464BOLB   NC135113   8.528  10.664  15.000  0.0797  0.1030  0.0803
 1464BOLB   PO135114   8.480  11.035  15.247 -0.1705  0.3325  0.0617
 1464BOLB   GL135115   8.093  10.967  14.941 -0.0974 -0.0098 -0.2274
 1464BOLB   GL235116   8.203  10.818  14.658 -0.0994  0.3818  0.0854
 1464BOLB   C1A35117   7.675  11.155  15.044  0.3023 -0.0642  0.3297
 1464BOLB   C2A35118   7.274  11.418  15.042  0.0503  0.0326  0.2602
 1464BOLB   C3A35119   6.774  11.469  15.125 -0.2255  0.0202 -0.4180
 1464BOLB   C4A35120   6.407  11.570  15.441 -0.2807  0.0144 -0.0403
 1464BOLB   C1B35121   7.877  10.563  14.628  0.2401 -0.0389 -0.3390
 1464BOLB   C2B35122   7.469  10.467  14.560 -0.1008 -0.1314 -0.3993
 1464BOLB   C3B35123   7.122  10.552  14.706 -0.1279 -0.0892  0.0576
 1464BOLB   C4B35124   6.719  10.421  14.644 -0.0861 -0.1376 -0.2018
 1464BOLB   NC235125   4.313  12.872  15.824  0.0088  0.0590  0.2016
 1464BOLB   PO235126   4.203  12.605  15.450  0.0384  0.0238  0.2363
 1464BOLB   GL335127   4.544  12.452  15.683 -0.1993  0.0467  0.1887
 1464BOLB   GL435128   4.780  12.697  15.593  0.2736 -0.0368  0.1431
 1464BOLB   C1C35129   4.865  12.240  15.717  0.4735 -0.0045  0.0139
 1464BOLB   C2C35130   5.206  11.932  15.563 -0.1757 -0.0102  0.0947
 1464BOLB   C3C35131   5.606  11.842  15.253 -0.3404 -0.1779  0.3367
 1464BOLB   C4C35132   5.987  11.774  15.359  0.1087 -0.1561  0.3527
 1464BOLB   C1D35133   5.201  12.618  15.813 -0.2615  0.3889 -0.1394
 1464BOLB   C2D35134   5.532  12.354  15.906 -0.2417 -0.2378  0.0666
 1464BOLB   C3D35135   5.696  11.902  15.817  0.1815  0.3140 -0.1843
 1464BOLB   C4D35136   6.005  11.549  15.906 -0.3010  0.1806 -0.1546
 1465BOLB   NC135137  23.462  14.717  16.981  0.0001  0.1759 -0.1748
 1465BOLB   PO135138  23.318  14.941  16.579 -0.3342 -0.1508  0.0702
 1465BOLB   GL135139  23.826  15.066  16.481 -0.0864 -0.0067 -0.1607
 1465BOLB   GL235140  23.779  15.303  16.294 -0.0098 -0.1639  0.0271
 1465BOLB   C1A35141  24.266  15.140  16.432 -0.0619  0.0872  0.3337
 1465BOLB   C2A35142  24.646  15.330  16.379 -0.0511 -0.1140 -0.0661
 1465BOLB   C3A35143  24.992  15.187  16.231 -0.3523  0.2045 -0.3523
 1465BOLB   C4A35144  25.406  15.026  16.097  0.0804 -0.0640  0.1062
 1465BOLB   C1B35145  24.061  15.590  16.178 -0.0169  0.0361  0.0046
 1465BOLB   C2B35146  24.538  15.795  16.132  0.1360 -0.0789  0.1310
 1465BOLB   C3B35147  24.790  15.741  15.686 -0.1828 -0.2172 -0.0128
 1465BOLB   C4B35148  25.247  15.927  15.622 -0.1684 -0.3075 -0.0123
 1465BOLB   NC235149  28.092  16.186  15.414 -0.1183 -0.3659 -0.2436
 1465BOLB   PO235150  27.681  16.051  15.609  0.2693 -0.2460 -0.0478
 1465BOLB   GL335151  27.407  15.767  15.608  0.0147 -0.2363  0.2058
 1465BOLB   GL435152  27.452  15.407  15.617  0.3979  0.1018 -0.0358
 1465BOLB   C1C35153  26.904  15.889  15.771  0.3716  0.0403  0.1079
 1465BOLB   C2C35154  26.568  15.552  15.898 -0.1509 -0.0486 -0.0099
 1465BOLB   C3C35155  26.124  15.358  15.866  0.2452 -0.3471  0.0042
 1465BOLB   C4C35156  25.743  15.148  15.940  0.0643  0.0426 -0.2715
 1465BOLB   C1D35157  26.897  15.466  15.551  0.4397  0.2582 -0.1513
 1465BOLB   C2D35158  26.460  15.232  15.526  0.5773  0.0939  0.2637
 1465BOLB   C3D35159  26.120  14.940  15.528 -0.0512 -0.1030  0.1108
 1465BOLB   C4D35160  25.860  14.557  15.577  0.2111  0.3660 -0.1745
 1466BOLB   NC135161  20.817   4.676  11.620 -0.0018 -0.1666 -0.1632
 1466BOLB   PO135162  20.669   4.959  11.283  0.0506  0.2234 -0.2846
 1466BOLB   GL135163  20.984   4.526  11.181 -0.1697 -0.1629 -0.1228
 1466BOLB   GL235164  21.418   4.617  11.176  0.1685  0.2577 -0.1552
 1466BOLB   C1A35165  21.269   4.186  11.009  0.0741 -0.0805 -0.0276
 1466BOLB   C2A35166  21.634   4.140  10.760 -0.0910 -0.0142  0.1719
 1466BOLB   C3A35167  22.103   3.966  10.564 -0.0226 -0.0321 -0.0291
 1466BOLB   C4A35168  22.459   3.753  10.345 -0.0690  0.0465  0.1498
 1466BOLB   C1B35169  21.785   4.631  10.856  0.0184 -0.2004  0.0671
 1466BOLB   C2B35170  21.978   4.476  10.601  0.0502  0.0572  0.0074
 1466BOLB   C3B35171  22.322   4.399  10.458  0.3303  0.2819  0.3502
 1466BOLB   C4B35172  22.789   4.330  10.300 -0.1457  0.0451  0.0698
 1466BOLB   NC235173  22.395   1.372   9.208 -0.2125  0.0207  0.2020
 1466BOLB   PO235174  22.824   1.392   9.445  0.2207  0.1430  0.0615
 1466BOLB   GL335175  22.571   1.643   9.704  0.1993 -0.4585  0.0188
 1466BOLB   GL435176  22.484   1.585  10.027 -0.1493  0.0660 -0.0104
 1466BOLB   C1C35177  22.505   2.067   9.966 -0.1394 -0.1601 -0.2471
 1466BOLB   C2C35178  22.462   2.497  10.066 -0.1163 -0.2691 -0.0291
 1466BOLB   C3C35179  22.391   2.914  10.023 -0.1682 -0.3344  0.1165
 1466BOLB   C4C35180  22.528   3.348  10.155 -0.1929 -0.2172 -0.0359
 1466BOLB   C1D35181  22.269   1.452  10.337  0.1803  0.0395 -0.2666
 1466BOLB   C2D35182  21.919   1.638  10.550  0.3495  0.3120 -0.0977
 1466BOLB   C3D35183  21.645   1.776  10.802 -0.0721 -0.0481 -0.1304
 1466BOLB   C4D35184  21.178   1.795  11.044  0.2509 -0.1247  0.0728
 1467BOLB   NC135185  16.832   4.077  20.505  0.0252  0.1214  0.0422
 1467BOLB   PO135186  16.873   3.796  20.832  0.1709  0.0938 -0.0961
 1467BOLB   GL135187  16.839   3.506  20.982  0.0781 -0.3607  0.1890
 1467BOLB   GL235188  16.544   3.442  21.245  0.0919 -0.2186 -0.1262
 1467BOLB   C1A35189  16.818   3.072  21.013 -0.2954 -0.1771 -0.2253
 1467BOLB   C2A35190  17.062   2.633  20.928 -0.0251 -0.3316 -0.1490
 1467BOLB   C3A35191  17.408   2.441  21.160  0.1184  0.1155  0.0933
 1467BOLB   C4A35192  17.708   2.091  21.241 -0.0288 -0.2910  0.2041
 1467BOLB   C1B35193  16.832   3.309  21.507 -0.4212  0.0926 -0.2091
 1467BOLB   C2B35194  16.995   2.878  21.413 -0.2745 -0.0870 -0.2001
 1467BOLB   C3B35195  16.985   2.446  21.547 -0.0540 -0.0842 -0.2134
 1467BOLB   C4B35196  17.051   2.116  21.235  0.1231  0.2767 -0.0423
 1467BOLB   NC235197  18.824   0.157  22.929 -0.0507 -0.0540  0.1141
 1467BOLB   PO235198  18.663   0.551  23.036 -0.0566 -0.0453  0.0198
 1467BOLB   GL335199  18.641   0.714  22.589 -0.1611 -0.3419 -0.0910
 1467BOLB   GL435200  18.287   0.821  22.557  0.1214 -0.0454 -0.0150
 1467BOLB   C1C35201  18.436   1.002  22.148 -0.1576  0.1026  0.0426
 1467BOLB   C2C35202  18.377   1.324  21.848 -0.0436  0.2007 -0.1435
 1467BOLB   C3C35203  18.325   1.675  21.489 -0.0185 -0.1249  0.0722
 1467BOLB   C4C35204  18.068   1.934  21.397  0.0181 -0.0152  0.3125
 1467BOLB   C1D35205  18.083   0.575  22.214  0.2091  0.2849  0.0867
 1467BOLB   C2D35206  17.991   0.829  21.893 -0.1691  0.0443  0.0316
 1467BOLB   C3D35207  17.895   1.160  21.589  0.0823 -0.1207  0.0923
 1467BOLB   C4D35208  17.792   1.537  21.362 -0.2434 -0.0447 -0.1436
 1468BOLB   NC135209  16.006  17.077  10.658  0.1030  0.0137 -0.0233
 1468BOLB   PO135210  15.581  16.944  10.762  0.1061 -0.1549  0.2411
 1468BOLB   GL135211  15.358  17.207  10.654  0.0969  0.1360  0.1884
 1468BOLB   GL235212  15.442  17.406  10.859 -0.0596 -0.0829 -0.1894
 1468BOLB   C1A35213  15.072  17.447  10.349 -0.1448  0.1818  0.2413
 1468BOLB   C2A35214  15.279  17.693  10.022  0.0474 -0.0613  0.0035
 1468BOLB   C3A35215  15.585  17.848   9.891  0.1402  0.5123  0.1268
 1468BOLB   C4A35216  15.714  17.964   9.484 -0.1322  0.2695  0.2159
 1468BOLB   C1B35217  15.408  17.745  10.652  0.1220  0.6532  0.2295
 1468BOLB   C2B35218  15.536  17.995  10.443 -0.2144 -0.3402 -0.0097
 1468BOLB   C3B35219  15.744  18.458  10.279  0.0073 -0.0599 -0.3567
 1468BOLB   C4B35220  15.910  18.844  10.239  0.1986 -0.2669 -0.0421
 1468BOLB   NC235221  15.313  20.433   9.372 -0.2356 -0.3027  0.0852
 1468BOLB   PO235222  15.443  20.151   8.930  0.1886  0.0985  0.0946
 1468BOLB   GL335223  15.653  19.726   9.015  0.2484  0.3049  0.1308
 1468BOLB   GL435224  15.553  19.567   8.830  0.0979  0.1413 -0.0131
 1468BOLB   C1C35225  15.959  19.474   9.252 -0.0205 -0.0847 -0.1053
 1468BOLB   C2C35226  15.826  19.042   9.335  0.1578  0.0620 -0.2366
 1468BOLB   C3C35227  16.080  18.641   9.392 -0.1952  0.1144 -0.1205
 1468BOLB   C4C35228  16.063  18.185   9.349  0.1881  0.0356  0.0896
 1468BOLB   C1D35229  15.652  19.202   8.894  0.0380 -0.6838 -0.0518
 1468BOLB   C2D35230  15.383  18.793   8.983 -0.0899 -0.2204 -0.0379
 1468BOLB   C3D35231  15.063  18.640   9.221 -0.1638  0.1267  0.1082
 1468BOLB   C4D35232  14.610  18.651   9.152 -0.0331 -0.1035  0.0502
 1469BOLB   NC135233  15.108  17.035  12.216 -0.0164 -0.3304 -0.0890
 1469BOLB   PO135234  14.646  16.981  12.109 -0.0766 -0.1327  0.2651
 1469BOLB   GL135235  14.460  17.334  12.001 -0.0978 -0.2359 -0.0229
 1469BOLB   GL235236  14.382  17.234  11.690  0.0787  0.0251 -0.2032
 1469BOLB   C1A35237  14.329  17.734  11.843  0.2400 -0.0301  0.0509
 1469BOLB   C2A35238  14.272  17.771  11.501 -0.0737 -0.1976 -0.3836
 1469BOLB   C3A35239  14.030  18.182  11.391 -0.0197 -0.1857  0.2759
 1469BOLB   C4A35240  13.683  18.443  11.286  0.0636 -0.2521 -0.1499
 1469BOLB   C1B35241  14.775  17.527  11.665 -0.0166  0.0777  0.2276
 1469BOLB   C2B35242  14.886  17.926  11.805  0.1796 -0.0747  0.1024
 1469BOLB   C3B35243  14.812  18.474  11.807  0.0627 -0.3894 -0.1188
 1469BOLB   C4B35244  14.858  18.879  11.775 -0.1018  0.0912 -0.1656
 1469BOLB   NC235245  13.304  20.354  10.284 -0.1303  0.1981  0.1241
 1469BOLB   PO235246  13.554  20.526   9.980  0.1844  0.0537 -0.0811
 1469BOLB   GL335247  13.706  20.089   9.994  0.1981 -0.3458  0.0650
 1469BOLB   GL435248  13.506  19.856  10.039 -0.1768 -0.0258 -0.0082
 1469BOLB   C1C35249  13.854  19.706  10.312 -0.2486 -0.2898 -0.1780
 1469BOLB   C2C35250  13.783  19.277  10.328  0.0463  0.1817  0.0578
 1469BOLB   C3C35251  13.684  19.021  10.687  0.0724  0.2183 -0.1151
 1469BOLB   C4C35252  13.536  18.793  11.049 -0.0489  0.2250  0.4953
 1469BOLB   C1D35253  13.365  19.534  10.262 -0.2748 -0.0728  0.3532
 1469BOLB   C2D35254  13.253  19.272  10.625 -0.1436 -0.1249  0.1689
 1469BOLB   C3D35255  13.159  18.847  10.624 -0.3593 -0.0133 -0.0111
 1469BOLB   C4D35256  12.827  18.740  10.716 -0.2167  0.1164  0.1724
 1470BOLB   NC135257  18.759  17.934  14.087  0.1851  0.1599 -0.1530
 1470BOLB   PO135258  18.406  17.955  14.255  0.2873 -0.1487 -0.1455
 1470BOLB   GL135259  18.499  18.415  14.239  0.2246 -0.0051 -0.1143
 1470BOLB   GL235260  18.807  18.454  14.093  0.0023  0.0136 -0.2651
 1470BOLB   C1A35261  18.542  18.883  14.320  0.2752 -0.0497 -0.2852
 1470BOLB   C2A35262  18.582  19.338  14.216 -0.3980 -0.0245  0.2002
 1470BOLB   C3A35263  18.565  19.567  13.939 -0.3607 -0.0900  0.1551
 1470BOLB   C4A35264  18.679  19.680  13.571 -0.0062  0.1568 -0.3195
 1470BOLB   C1B35265  18.878  18.895  13.888  0.0027  0.1724 -0.0437
 1470BOLB   C2B35266  18.956  19.257  13.892  0.2378 -0.1239 -0.2847
 1470BOLB   C3B35267  19.267  19.414  13.745 -0.1098  0.4197 -0.1099
 1470BOLB   C4B35268  19.451  19.766  13.597  0.0109 -0.0399 -0.2033
 1470BOLB   NC235269  19.904  21.451  12.041  0.1584 -0.2094 -0.1984
 1470BOLB   PO235270  19.667  21.266  12.395  0.0241  0.0634  0.1789
 1470BOLB   GL335271  19.564  21.058  12.607 -0.0574 -0.0934 -0.0138
 1470BOLB   GL435272  19.675  20.975  12.841  0.2105 -0.5662 -0.2813
 1470BOLB   C1C35273  19.380  20.709  12.546  0.2739  0.1465  0.0901
 1470BOLB   C2C35274  19.333  20.241  12.792 -0.0921 -0.3490  0.0508
 1470BOLB   C3C35275  19.172  20.046  13.167 -0.2190  0.0558  0.1170
 1470BOLB   C4C35276  18.953  19.875  13.505  0.1100 -0.0510  0.0186
 1470BOLB   C1D35277  19.789  20.615  12.835 -0.0880  0.0060  0.1619
 1470BOLB   C2D35278  19.621  20.397  13.217  0.0903 -0.0250  0.0769
 1470BOLB   C3D35279  19.726  20.033  13.403 -0.2472 -0.0743 -0.1498
 1470BOLB   C4D35280  19.951  19.662  13.710 -0.1219 -0.2309  0.1202
 1471BOLB   NC135281   7.432  33.244  15.394 -0.0259 -0.0095 -0.0934
 1471BOLB   PO135282   7.281  33.628  15.202  0.0267 -0.2354  0.4320
 1471BOLB   GL135283   7.473  33.983  14.922  0.0103 -0.0072 -0.1149
 1471BOLB   GL235284   7.387  33.978  14.583 -0.0953  0.0421  0.0729
 1471BOLB   C1A35285   7.882  34.118  14.922 -0.6900  0.1962 -0.0323
 1471BOLB   C2A35286   8.253  34.317  14.814  0.0829 -0.0684 -0.0937
 1471BOLB   C3A35287   8.609  34.383  14.992 -0.1288  0.0793  0.1729
 1471BOLB   C4A35288   8.598  34.171  15.406 -0.1145  0.1548 -0.0665
 1471BOLB   C1B35289   7.538  34.407  14.637  0.1495  0.0321  0.0220
 1471BOLB   C2B35290   7.397  34.923  14.636 -0.2381  0.1399  0.1390
 1471BOLB   C3B35291   7.465  35.270  14.758  0.0272  0.0004  0.0275
 1471BOLB   C4B35292   7.143  35.523  14.950 -0.1927 -0.2674 -0.1155
 1471BOLB   NC235293   9.787  34.137  17.963 -0.1064  0.1656  0.5023
 1471BOLB   PO235294  10.127  34.170  17.666 -0.0919 -0.0289 -0.1173
 1471BOLB   GL335295   9.970  34.098  17.206 -0.2378 -0.0908  0.1415
 1471BOLB   GL435296  10.215  33.856  17.017 -0.1963  0.1744 -0.0378
 1471BOLB   C1C35297   9.641  34.246  16.901  0.0505 -0.3823 -0.0774
 1471BOLB   C2C35298   9.366  34.150  16.547 -0.1167 -0.0488 -0.0500
 1471BOLB   C3C35299   9.201  34.155  16.108  0.0996 -0.2921 -0.2897
 1471BOLB   C4C35300   8.900  34.076  15.809 -0.0882 -0.1218 -0.0645
 1471BOLB   C1D35301  10.442  33.831  16.705  0.0921  0.1965  0.1016
 1471BOLB   C2D35302  10.803  33.756  16.431 -0.1075 -0.2467  0.0287
 1471BOLB   C3D35303  11.157  33.891  16.173 -0.2995 -0.0039 -0.0574
 1471BOLB   C4D35304  11.311  33.499  15.917  0.0695 -0.2178  0.2111
 1472BOLB   NC135305  18.910   5.385  21.114 -0.1555  0.2095 -0.0548
 1472BOLB   PO135306  19.262   5.688  21.233 -0.2567 -0.0352  0.1780
 1472BOLB   GL135307  19.226   5.372  21.554 -0.1408 -0.2339  0.0021
 1472BOLB   GL235308  19.255   5.004  21.519 -0.1005 -0.2467  0.2316
 1472BOLB   C1A35309  19.389   5.272  21.964  0.2105 -0.1537  0.1390
 1472BOLB   C2A35310  19.525   4.971  22.291  0.0905 -0.0593 -0.1108
 1472BOLB   C3A35311  19.527   4.994  22.657  0.2222  0.0675 -0.1200
 1472BOLB   C4A35312  19.622   4.941  23.033  0.0559 -0.1038  0.1885
 1472BOLB   C1B35313  19.197   4.831  21.976 -0.0117  0.0380  0.2197
 1472BOLB   C2B35314  19.061   4.569  22.285  0.3034 -0.1845  0.2092
 1472BOLB   C3B35315  18.857   4.350  22.772  0.4240  0.5289  0.4144
 1472BOLB   C4B35316  18.851   4.010  23.069 -0.0749 -0.1765 -0.1775
 1472BOLB   NC235317  19.141   3.167  25.491 -0.0716  0.3795 -0.0824
 1472BOLB   PO235318  19.315   3.389  25.144  0.3253 -0.1818  0.0307
 1472BOLB   GL335319  19.185   3.616  24.882  0.0114 -0.0104 -0.1326
 1472BOLB   GL435320  18.961   3.749  24.911  0.0218 -0.0256 -0.1220
 1472BOLB   C1C35321  19.367   3.893  24.529 -0.2319  0.1004  0.1107
 1472BOLB   C2C35322  19.427   4.207  24.146  0.3039  0.3180 -0.0830
 1472BOLB   C3C35323  19.602   4.421  23.801  0.1883 -0.0158  0.1816
 1472BOLB   C4C35324  19.632   4.599  23.392 -0.0038 -0.0456  0.0397
 1472BOLB   C1D35325  18.952   4.112  24.746 -0.0422 -0.0029 -0.1034
 1472BOLB   C2D35326  19.014   4.317  24.313 -0.1066  0.0900 -0.0945
 1472BOLB   C3D35327  18.671   4.451  24.067  0.1276  0.3234 -0.1322
 1472BOLB   C4D35328  18.327   4.377  23.779  0.0936  0.2779 -0.0687
 1473BOLB   NC135329  18.199  35.301   5.136 -0.1267 -0.2425 -0.0578
 1473BOLB   PO135330  18.580  35.541   5.017  0.0344 -0.0145 -0.1952
 1473BOLB   GL135331  18.397  35.810   5.392 -0.2540 -0.2718 -0.0005
 1473BOLB   GL235332  18.666  35.924   5.555 -0.0732  0.1985 -0.1570
 1473BOLB   C1A35333  18.140  36.119   5.735 -0.2050  0.3493  0.2263
 1473BOLB   C2A35334  17.735  36.174   6.083  0.2084 -0.1046 -0.3765
 1473BOLB   C3A35335  17.718  36.357   6.480 -0.0831  0.0041 -0.1006
 1473BOLB   C4A35336  17.714  36.542   6.883 -0.0200  0.1901 -0.4011
 1473BOLB   C1B35337  18.637  36.241   5.878 -0.0066 -0.1849 -0.1679
 1473BOLB   C2B35338  18.750  36.450   6.306 -0.1322  0.0507  0.2022
 1473BOLB   C3B35339  18.545  36.790   6.431 -0.3586  0.0013 -0.0154
 1473BOLB   C4B35340  18.253  37.129   6.459 -0.2526  0.2755  0.1708
 1473BOLB   NC235341  18.978  35.034   7.630 -0.0012  0.2161 -0.0334
 1473BOLB   PO235342  18.729  34.853   7.247 -0.1755 -0.2262 -0.1264
 1473BOLB   GL335343  18.428  35.117   7.284 -0.1021  0.0391 -0.2808
 1473BOLB   GL435344  18.155  35.223   6.952  0.0602  0.1727 -0.3909
 1473BOLB   C1C35345  18.111  35.340   7.505 -0.3081  0.3520 -0.1735
 1473BOLB   C2C35346  17.736  35.596   7.435 -0.2320 -0.0844  0.3788
 1473BOLB   C3C35347  17.527  35.948   7.539 -0.0067  0.1900 -0.0023
 1473BOLB   C4C35348  17.363  36.366   7.221  0.1474 -0.1077  0.0250
 1473BOLB   C1D35349  17.919  35.579   6.958  0.3246 -0.2812 -0.2422
 1473BOLB   C2D35350  17.701  35.932   7.092  0.3771 -0.1892  0.1347
 1473BOLB   C3D35351  17.898  36.267   7.349  0.3228 -0.1452  0.2903
 1473BOLB   C4D35352  18.187  36.380   7.656 -0.3243 -0.1208 -0.0987
 1474BOLB   NC135353  17.135  16.199  21.890  0.1000  0.0416 -0.1969
 1474BOLB   PO135354  16.933  16.584  21.701  0.0793  0.0176  0.0024
 1474BOLB   GL135355  16.831  16.988  21.993  0.1501 -0.1532 -0.4730
 1474BOLB   GL235356  16.987  17.177  21.830 -0.3168  0.1105  0.1892
 1474BOLB   C1A35357  16.759  17.135  22.385 -0.3444  0.1613 -0.2393
 1474BOLB   C2A35358  17.092  17.543  22.709 -0.2225  0.2120 -0.0720
 1474BOLB   C3A35359  17.275  17.662  23.049 -0.0734 -0.1354 -0.1514
 1474BOLB   C4A35360  17.310  18.004  23.384  0.2616  0.2446 -0.3734
 1474BOLB   C1B35361  17.272  17.580  21.803 -0.2149  0.1395 -0.0124
 1474BOLB   C2B35362  17.558  17.852  21.922  0.1928  0.0426  0.1010
 1474BOLB   C3B35363  17.740  18.242  21.996  0.0501 -0.0749  0.0192
 1474BOLB   C4B35364  17.844  18.530  22.199 -0.4887 -0.2830 -0.0807
 1474BOLB   NC235365  17.921  18.146  25.480  0.1378  0.1847  0.3652
 1474BOLB   PO235366  17.823  18.637  25.521  0.0328 -0.1539  0.0297
 1474BOLB   GL335367  17.712  18.571  25.035  0.0348  0.4779 -0.2043
 1474BOLB   GL435368  17.349  18.377  24.843 -0.0380  0.0095 -0.0198
 1474BOLB   C1C35369  17.772  18.380  24.586 -0.2400  0.0282 -0.1084
 1474BOLB   C2C35370  17.800  18.435  24.123 -0.1310 -0.1355 -0.0874
 1474BOLB   C3C35371  17.932  18.460  23.775  0.0046  0.3781 -0.0551
 1474BOLB   C4C35372  17.648  18.197  23.636  0.0494  0.2060 -0.0695
 1474BOLB   C1D35373  17.305  18.192  24.454 -0.4139  0.0634  0.3343
 1474BOLB   C2D35374  16.990  17.951  24.291  0.0647  0.0675  0.0992
 1474BOLB   C3D35375  16.676  17.749  24.048 -0.0359 -0.1442  0.0798
 1474BOLB   C4D35376  16.604  17.277  23.754 -0.1844  0.1342  0.2710
 1475BOLB   NC135377  13.505  14.367  22.226  0.0260 -0.0773 -0.0578
 1475BOLB   PO135378  13.298  14.635  21.890 -0.3630  0.4195  0.1672
 1475BOLB   GL135379  13.067  14.827  22.204 -0.0522 -0.2659 -0.0282
 1475BOLB   GL235380  12.738  14.806  22.236 -0.1867 -0.0159 -0.0330
 1475BOLB   C1A35381  12.911  15.182  22.458 -0.0901 -0.0143 -0.1247
 1475BOLB   C2A35382  12.782  15.512  22.605 -0.3873  0.0529 -0.1037
 1475BOLB   C3A35383  12.436  15.707  22.798  0.0828  0.3181 -0.2819
 1475BOLB   C4A35384  12.467  15.875  23.130  0.1544 -0.1491  0.1396
 1475BOLB   C1B35385  12.581  14.811  22.634 -0.0450 -0.0702  0.2385
 1475BOLB   C2B35386  12.274  14.674  22.971 -0.2609  0.3011  0.0493
 1475BOLB   C3B35387  12.036  14.789  23.184 -0.1365  0.1039 -0.1748
 1475BOLB   C4B35388  11.662  14.974  23.246  0.1519 -0.2110  0.2331
 1475BOLB   NC235389  10.813  15.857  25.021  0.2094  0.1999  0.0510
 1475BOLB   PO235390  10.952  16.261  25.166 -0.0209  0.1513 -0.0027
 1475BOLB   GL335391  11.115  16.294  24.769 -0.1248  0.1008 -0.1257
 1475BOLB   GL435392  10.987  16.484  24.569  0.0922 -0.0823  0.0553
 1475BOLB   C1C35393  11.403  16.234  24.404 -0.2080  0.2123 -0.0249
 1475BOLB   C2C35394  11.476  15.938  24.019 -0.1029 -0.2985  0.5965
 1475BOLB   C3C35395  11.827  15.731  23.714  0.0609  0.0210 -0.1452
 1475BOLB   C4C35396  12.183  15.896  23.474  0.0606  0.0566 -0.2939
 1475BOLB   C1D35397  11.027  16.505  24.095  0.2008 -0.4060  0.1316
 1475BOLB   C2D35398  11.355  16.519  23.806  0.1394  0.3471 -0.0563
 1475BOLB   C3D35399  11.534  16.185  23.575  0.4114  0.0680 -0.3329
 1475BOLB   C4D35400  11.585  15.909  23.232  0.0088 -0.0242 -0.3292
 1476BOLB   NC135401  21.837  15.801  13.197  0.2544 -0.3544  0.1630
 1476BOLB   PO135402  22.191  15.735  13.003  0.1444  0.1539 -0.3394
 1476BOLB   GL135403  22.578  15.927  12.950  0.1603  0.0482  0.1009
 1476BOLB   GL235404  22.710  15.664  13.171  0.1773 -0.2032  0.2356
 1476BOLB   C1A35405  22.998  16.154  12.978  0.0765 -0.2190 -0.1151
 1476BOLB   C2A35406  23.108  16.333  12.557  0.1725  0.0886 -0.0931
 1476BOLB   C3A35407  23.445  16.361  12.329  0.1014  0.1437  0.1086
 1476BOLB   C4A35408  23.748  16.042  12.132  0.1240 -0.2490  0.1706
 1476BOLB   C1B35409  23.109  15.617  12.941  0.1850 -0.0167  0.2762
 1476BOLB   C2B35410  23.331  15.946  12.754 -0.0737  0.0506  0.0285
 1476BOLB   C3B35411  23.776  16.086  12.609  0.0066 -0.0137  0.2318
 1476BOLB   C4B35412  24.106  15.822  12.435 -0.1636  0.3371  0.2739
 1476BOLB   NC235413  25.492  16.083  10.390 -0.0743  0.1510  0.1655
 1476BOLB   PO235414  25.539  16.282  10.719 -0.1249  0.2073  0.2196
 1476BOLB   GL335415  25.251  16.386  10.830 -0.2948  0.0712 -0.0805
 1476BOLB   GL435416  25.246  16.433  11.240  0.0118  0.1574  0.0862
 1476BOLB   C1C35417  24.862  16.268  10.984 -0.0022  0.0169  0.1139
 1476BOLB   C2C35418  24.450  16.139  11.216  0.3197 -0.5477  0.1860
 1476BOLB   C3C35419  24.199  15.866  11.435  0.0671 -0.1612  0.2690
 1476BOLB   C4C35420  23.833  15.948  11.657  0.4523 -0.0522  0.1319
 1476BOLB   C1D35421  24.980  16.031  11.405  0.1883  0.0652 -0.2156
 1476BOLB   C2D35422  24.694  15.740  11.272 -0.0430  0.1086  0.4537
 1476BOLB   C3D35423  24.597  15.400  11.445  0.0232 -0.0126  0.1162
 1476BOLB   C4D35424  24.219  15.086  11.350  0.1203 -0.0252  0.2026
 1477BOLB   NC135425   8.543   8.158  16.704  0.2913 -0.2777  0.0066
 1477BOLB   PO135426   8.164   8.236  17.056 -0.2223 -0.2628  0.0087
 1477BOLB   GL135427   7.739   8.219  17.406 -0.1040  0.2205 -0.2712
 1477BOLB   GL235428   7.472   8.385  17.288  0.1938  0.1480  0.0044
 1477BOLB   C1A35429   7.493   7.993  17.699  0.1690 -0.2487  0.2640
 1477BOLB   C2A35430   7.173   7.928  18.020  0.0776  0.0454 -0.3349
 1477BOLB   C3A35431   6.929   7.748  18.328 -0.4100 -0.3527  0.1280
 1477BOLB   C4A35432   6.520   7.978  18.580 -0.1983  0.2561  0.2889
 1477BOLB   C1B35433   7.097   8.162  17.510  0.1277 -0.0045 -0.0521
 1477BOLB   C2B35434   6.758   7.827  17.746 -0.1686  0.1731  0.2337
 1477BOLB   C3B35435   6.560   7.572  18.004 -0.0619  0.0553 -0.0646
 1477BOLB   C4B35436   6.509   7.480  18.538 -0.1536 -0.1882 -0.2343
 1477BOLB   NC235437   4.620   8.825  19.690 -0.1358 -0.3029  0.1163
 1477BOLB   PO235438   4.275   8.552  19.515  0.1905  0.0431 -0.2948
 1477BOLB   GL335439   4.687   8.480  19.256  0.0060 -0.0345  0.0859
 1477BOLB   GL435440   4.581   8.360  18.967  0.0470  0.1918  0.1726
 1477BOLB   C1C35441   5.100   8.437  18.945  0.0413  0.2994 -0.2847
 1477BOLB   C2C35442   5.488   8.470  18.719  0.1232 -0.0395 -0.1340
 1477BOLB   C3C35443   5.704   8.147  18.584 -0.2037  0.0215  0.0572
 1477BOLB   C4C35444   6.050   7.892  18.544 -0.0882 -0.2166 -0.2246
 1477BOLB   C1D35445   4.682   8.479  18.533 -0.0138 -0.0545 -0.1035
 1477BOLB   C2D35446   4.569   8.264  18.088  0.0873  0.0214 -0.3673
 1477BOLB   C3D35447   4.615   8.020  17.778  0.0006 -0.1237  0.0780
 1477BOLB   C4D35448   4.662   8.078  17.351 -0.2420  0.1228 -0.1838
 1478BOLB   NC135449  18.450   1.239  14.957  0.0384 -0.0663  0.1012
 1478BOLB   PO135450  18.819   1.100  14.676 -0.0498  0.0920 -0.3244
 1478BOLB   GL135451  18.791   0.790  14.844  0.1323 -0.1952  0.1642
 1478BOLB   GL235452  18.667   0.768  15.085 -0.0995 -0.1437  0.0397
 1478BOLB   C1A35453  19.070   0.481  14.755 -0.0686  0.1495 -0.0658
 1478BOLB   C2A35454  19.272   0.431  14.281  0.0579 -0.0259  0.1306
 1478BOLB   C3A35455  19.345   0.067  14.010  0.0204 -0.0469  0.0428
 1478BOLB   C4A35456  19.494  -0.239  13.927 -0.0257  0.0358  0.1075
 1478BOLB   C1B35457  18.531   0.286  14.949 -0.0965  0.0852 -0.3416
 1478BOLB   C2B35458  18.876  -0.056  14.864 -0.0581  0.1129 -0.3809
 1478BOLB   C3B35459  18.999  -0.543  14.696 -0.0104 -0.1812  0.2905
 1478BOLB   C4B35460  18.948  -1.000  14.532  0.1534 -0.2351  0.2354
 1478BOLB   NC235461  21.946  -1.010  14.298 -0.1191 -0.0330  0.0545
 1478BOLB   PO235462  21.632  -1.271  14.469 -0.1984  0.0668 -0.1208
 1478BOLB   GL335463  21.326  -1.043  14.329 -0.0073 -0.1553 -0.0895
 1478BOLB   GL435464  21.383  -0.743  14.457  0.2072  0.0417  0.2004
 1478BOLB   C1C35465  20.962  -0.939  14.091 -0.2068 -0.1497  0.0370
 1478BOLB   C2C35466  20.458  -0.799  14.126 -0.1720 -0.0606 -0.2006
 1478BOLB   C3C35467  20.081  -0.793  14.293 -0.1075  0.1265 -0.1292
 1478BOLB   C4C35468  19.722  -0.491  14.200  0.1347  0.0075 -0.0672
 1478BOLB   C1D35469  21.334  -0.248  14.390  0.2368  0.0457 -0.2989
 1478BOLB   C2D35470  21.119   0.127  14.511  0.1801 -0.0033 -0.2450
 1478BOLB   C3D35471  20.874   0.419  14.715 -0.1043  0.1575  0.0276
 1478BOLB   C4D35472  20.907   0.832  14.770 -0.0437  0.1726  0.0427
 1479BOLB   NC135473   4.558  14.871  14.049 -0.0968  0.1664  0.0945
 1479BOLB   PO135474   4.913  14.503  14.217 -0.2691 -0.4621  0.2377
 1479BOLB   GL135475   5.447  14.516  14.236 -0.1724 -0.0542 -0.1565
 1479BOLB   GL235476   5.510  14.711  14.265 -0.2250 -0.1449  0.0254
 1479BOLB   C1A35477   5.782  14.220  14.169 -0.0998  0.1123  0.1842
 1479BOLB   C2A35478   6.140  13.915  14.092 -0.1248  0.5000 -0.0572
 1479BOLB   C3A35479   6.398  13.766  14.275 -0.0225 -0.3926 -0.2178
 1479BOLB   C4A35480   6.773  13.508  14.404  0.0336 -0.2951  0.0686
 1479BOLB   C1B35481   5.995  14.893  14.034  0.0514 -0.1570  0.2026
 1479BOLB   C2B35482   6.218  15.030  13.688 -0.0674  0.1363 -0.0238
 1479BOLB   C3B35483   6.662  14.817  13.668 -0.2208 -0.1711 -0.1472
 1479BOLB   C4B35484   7.080  14.667  13.743 -0.0781  0.0164 -0.0077
 1479BOLB   NC235485   9.557  12.904  13.915 -0.1414  0.2448 -0.3080
 1479BOLB   PO235486   9.199  13.151  13.788  0.0603  0.0891  0.2695
 1479BOLB   GL335487   8.677  13.084  13.882  0.0130 -0.0926  0.0581
 1479BOLB   GL435488   8.340  13.359  13.747  0.0867 -0.2628  0.1304
 1479BOLB   C1C35489   8.240  12.923  13.977  0.0699  0.3411  0.2005
 1479BOLB   C2C35490   7.739  12.808  14.092  0.1830  0.0030  0.3439
 1479BOLB   C3C35491   7.249  12.806  14.052  0.1822 -0.0374 -0.2399
 1479BOLB   C4C35492   6.972  13.138  14.227  0.1522  0.1032 -0.2031
 1479BOLB   C1D35493   8.170  13.760  13.773 -0.0507 -0.4359  0.1781
 1479BOLB   C2D35494   7.817  13.854  13.987  0.0423  0.0563  0.1967
 1479BOLB   C3D35495   7.419  13.836  14.098  0.1295  0.2024  0.1215
 1479BOLB   C4D35496   7.058  13.901  14.273 -0.1284  0.3590  0.0471
 1480BOLB   NC135497  11.807  16.832  13.379 -0.0192  0.1996 -0.0917
 1480BOLB   PO135498  12.203  16.624  13.203 -0.0937  0.0667 -0.2018
 1480BOLB   GL135499  12.082  17.040  13.044 -0.0470  0.0773 -0.0133
 1480BOLB   GL235500  11.951  17.286  13.240 -0.3146 -0.2283 -0.2161
 1480BOLB   C1A35501  11.859  17.288  12.750  0.0492  0.1420 -0.0211
 1480BOLB   C2A35502  11.683  17.545  12.407 -0.2317  0.2606 -0.3172
 1480BOLB   C3A35503  11.400  17.863  12.266 -0.3452  0.0652 -0.3323
 1480BOLB   C4A35504  11.112  18.038  11.994 -0.1675  0.3859 -0.0345
 1480BOLB   C1B35505  11.559  17.429  13.304  0.0462  0.1989  0.0848
 1480BOLB   C2B35506  11.301  17.815  13.230  0.0022 -0.0064  0.0040
 1480BOLB   C3B35507  11.103  18.223  13.199 -0.2388 -0.1126 -0.0262
 1480BOLB   C4B35508  10.858  18.658  13.193 -0.0444  0.1272  0.0521
 1480BOLB   NC235509  10.347  20.138  11.667  0.2596  0.2106 -0.0847
 1480BOLB   PO235510  10.171  19.872  11.473  0.1189  0.0885  0.1406
 1480BOLB   GL335511  10.365  19.637  11.806 -0.1087 -0.1187  0.2719
 1480BOLB   GL435512  10.408  19.791  12.107 -0.3425  0.0310 -0.1627
 1480BOLB   C1C35513  10.240  19.264  11.706  0.1294 -0.1034 -0.0826
 1480BOLB   C2C35514  10.444  18.810  11.631 -0.2063  0.2688  0.1396
 1480BOLB   C3C35515  10.609  18.408  11.711  0.1622  0.1081 -0.1069
 1480BOLB   C4C35516  10.706  18.200  11.994 -0.1353  0.1920 -0.2173
 1480BOLB   C1D35517  10.654  19.732  12.498  0.1012  0.0802  0.0680
 1480BOLB   C2D35518  10.687  19.547  12.949  0.2673  0.0942  0.1222
 1480BOLB   C3D35519  10.582  19.574  13.421  0.5540 -0.1637 -0.0386
 1480BOLB   C4D35520  10.243  19.342  13.621 -0.0052 -0.2254 -0.1245
 1481BOLB   NC135521  16.230   8.022  22.897 -0.1288  0.0794 -0.0852
 1481BOLB   PO135522  15.921   7.622  22.956 -0.2320  0.3301  0.0324
 1481BOLB   GL135523  15.705   7.576  23.381  0.4334 -0.0908 -0.2342
 1481BOLB   GL235524  15.894   7.394  23.709  0.0390  0.1700 -0.1602
 1481BOLB   C1A35525  15.488   7.598  23.738  0.2974 -0.2018  0.2137
 1481BOLB   C2A35526  15.246   7.554  24.049 -0.0169  0.1294 -0.2473
 1481BOLB   C3A35527  15.103   7.667  24.421  0.1813 -0.2628  0.0806
 1481BOLB   C4A35528  14.799   7.666  24.786  0.0299  0.1625  0.2139
 1481BOLB   C1B35529  16.014   7.138  24.148 -0.2952 -0.0858 -0.0433
 1481BOLB   C2B35530  16.049   7.095  24.552  0.1762 -0.1103 -0.4290
 1481BOLB   C3B35531  15.849   7.303  24.882  0.1668  0.0458 -0.3624
 1481BOLB   C4B35532  15.655   7.364  25.327  0.0122  0.0579 -0.0143
 1481BOLB   NC235533  14.450   7.168  27.082  0.2858  0.1474 -0.2688
 1481BOLB   PO235534  14.922   7.265  26.920  0.1906  0.0938  0.0671
 1481BOLB   GL335535  14.944   7.667  26.701 -0.3731  0.1190  0.0173
 1481BOLB   GL435536  15.189   7.686  26.596  0.0688  0.1894  0.3423
 1481BOLB   C1C35537  14.791   7.903  26.401 -0.3240 -0.2790  0.1669
 1481BOLB   C2C35538  14.765   7.907  25.918 -0.0147 -0.2712 -0.1793
 1481BOLB   C3C35539  14.566   7.816  25.584  0.3070 -0.1325  0.2661
 1481BOLB   C4C35540  14.583   7.693  25.123 -0.2819 -0.0492 -0.0812
 1481BOLB   C1D35541  15.550   7.879  26.528  0.2981 -0.3442  0.0586
 1481BOLB   C2D35542  15.752   7.960  26.148  0.1437 -0.0892 -0.2652
 1481BOLB   C3D35543  16.057   8.121  25.825  0.1101 -0.1403  0.2040
 1481BOLB   C4D35544  16.527   8.213  25.598  0.0354 -0.0362  0.0139
 1482BOLB   NC135545  15.089  12.319  23.276 -0.1489  0.0134 -0.0911
 1482BOLB   PO135546  14.984  11.915  23.384 -0.1196  0.0676 -0.3162
 1482BOLB   GL135547  14.825  12.031  23.758 -0.2397 -0.1462  0.0338
 1482BOLB   GL235548  14.724  12.451  23.702 -0.2242  0.3008 -0.1086
 1482BOLB   C1A35549  14.783  11.943  24.153  0.2048 -0.1648 -0.2982
 1482BOLB   C2A35550  14.739  11.843  24.643  0.0156 -0.1267  0.3806
 1482BOLB   C3A35551  14.815  11.909  25.073  0.0976  0.3703  0.1968
 1482BOLB   C4A35552  14.887  11.614  25.405 -0.1884  0.1839  0.0956
 1482BOLB   C1B35553  14.913  12.431  24.060 -0.2542 -0.1057 -0.0863
 1482BOLB   C2B35554  14.755  12.367  24.517  0.1328  0.2149 -0.4887
 1482BOLB   C3B35555  14.736  12.383  24.912  0.3250 -0.1846  0.2574
 1482BOLB   C4B35556  14.744  12.596  25.229 -0.0257 -0.1573  0.1757
 1482BOLB   NC235557  14.393  10.064  27.357 -0.0384  0.3312 -0.3107
 1482BOLB   PO235558  14.719  10.370  27.199 -0.2437  0.1451  0.0344
 1482BOLB   GL335559  14.802  10.616  26.904 -0.1896 -0.1983  0.0115
 1482BOLB   GL435560  14.802  10.396  26.695  0.0916 -0.1165  0.0162
 1482BOLB   C1C35561  15.076  10.920  26.648  0.0888  0.1030 -0.4926
 1482BOLB   C2C35562  14.869  11.269  26.537  0.0257 -0.2863  0.1602
 1482BOLB   C3C35563  14.982  11.358  26.136 -0.0299  0.2207 -0.0483
 1482BOLB   C4C35564  14.821  11.496  25.765 -0.0608  0.3169  0.1213
 1482BOLB   C1D35565  15.110  10.349  26.522  0.0542  0.1192  0.1739
 1482BOLB   C2D35566  15.381  10.613  26.294  0.3123  0.2803  0.0895
 1482BOLB   C3D35567  15.654  10.869  26.553 -0.2159  0.3076 -0.1002
 1482BOLB   C4D35568  15.608  10.884  26.968 -0.1377  0.0131 -0.1535
 1483BOLB   NC135569  23.479  14.812  16.130  0.2217  0.0857 -0.1350
 1483BOLB   PO135570  23.885  14.571  16.068  0.2297 -0.1082  0.2076
 1483BOLB   GL135571  24.171  14.677  16.084  0.5023 -0.1751  0.2367
 1483BOLB   GL235572  24.074  15.065  15.939 -0.3294 -0.0664  0.2934
 1483BOLB   C1A35573  24.630  14.909  16.019 -0.2110  0.0390 -0.3920
 1483BOLB   C2A35574  24.981  14.696  16.090 -0.0723  0.0008 -0.1572
 1483BOLB   C3A35575  25.329  14.523  15.925 -0.0118 -0.2910 -0.1851
 1483BOLB   C4A35576  25.724  14.593  16.153  0.0153  0.0104  0.1341
 1483BOLB   C1B35577  24.407  15.332  15.946 -0.2414 -0.3400 -0.1606
 1483BOLB   C2B35578  24.842  15.265  15.759 -0.2442 -0.1725  0.2571
 1483BOLB   C3B35579  25.208  15.435  15.892  0.0936  0.0875  0.4064
 1483BOLB   C4B35580  25.204  15.784  16.071 -0.0391  0.0276  0.0124
 1483BOLB   NC235581  28.197  13.975  17.005 -0.1805  0.1615 -0.0619
 1483BOLB   PO235582  27.891  14.385  16.979 -0.1466  0.0039 -0.2383
 1483BOLB   GL335583  27.529  14.293  17.011  0.2013  0.0117 -0.0178
 1483BOLB   GL435584  27.284  14.123  17.099 -0.0110 -0.0669 -0.2049
 1483BOLB   C1C35585  27.128  14.388  16.721  0.1257  0.0373  0.0962
 1483BOLB   C2C35586  26.758  14.522  16.766 -0.1950  0.3358  0.2007
 1483BOLB   C3C35587  26.408  14.509  16.596 -0.1856  0.2579 -0.2182
 1483BOLB   C4C35588  25.994  14.489  16.461 -0.0047 -0.0115 -0.1350
 1483BOLB   C1D35589  26.794  14.068  17.253  0.2038 -0.3906 -0.0426
 1483BOLB   C2D35590  26.392  13.943  17.390 -0.0071  0.1697  0.0249
 1483BOLB   C3D35591  25.966  14.014  17.394 -0.0237 -0.3765  0.0151
 1483BOLB   C4D35592  25.588  14.184  17.360 -0.2256  0.0235 -0.0829
 1484BOLB   NC135593  22.453   4.401  15.441 -0.0596 -0.0066  0.0608
 1484BOLB   PO135594  22.301   4.685  15.161 -0.3057 -0.2667  0.1100
 1484BOLB   GL135595  22.733   4.456  14.984 -0.0861 -0.0019  0.0172
 1484BOLB   GL235596  22.938   4.339  15.140 -0.0422  0.0245 -0.2677
 1484BOLB   C1A35597  23.104   4.430  14.637  0.2425 -0.0141  0.0207
 1484BOLB   C2A35598  23.327   4.111  14.650  0.2235  0.0794  0.0993
 1484BOLB   C3A35599  23.704   3.834  14.653 -0.2986  0.3475  0.0982
 1484BOLB   C4A35600  24.046   3.577  14.696  0.2489  0.1199 -0.1930
 1484BOLB   C1B35601  23.045   3.979  15.003 -0.0534  0.1667  0.0136
 1484BOLB   C2B35602  23.382   3.752  14.988 -0.0767  0.4201 -0.1401
 1484BOLB   C3B35603  23.667   3.393  14.985 -0.0840  0.0590  0.0645
 1484BOLB   C4B35604  23.567   2.953  14.998 -0.1561  0.1359  0.2232
 1484BOLB   NC235605  26.185   2.345  14.458 -0.3832 -0.5398  0.2604
 1484BOLB   PO235606  26.290   2.747  14.249 -0.0736  0.0382 -0.1724
 1484BOLB   GL335607  25.899   3.038  14.341 -0.0886  0.0218 -0.1653
 1484BOLB   GL435608  26.050   3.316  14.314  0.1405 -0.1429  0.0093
 1484BOLB   C1C35609  25.598   3.306  14.565  0.0319 -0.2749 -0.2693
 1484BOLB   C2C35610  25.269   3.307  14.641 -0.2126 -0.2279  0.2100
 1484BOLB   C3C35611  24.783   3.364  14.710  0.3931 -0.2778 -0.1421
 1484BOLB   C4C35612  24.330   3.321  14.603 -0.1250 -0.1336 -0.0400
 1484BOLB   C1D35613  26.043   3.758  14.492  0.3167  0.0443  0.0226
 1484BOLB   C2D35614  25.747   4.114  14.527  0.2355  0.1480 -0.3386
 1484BOLB   C3D35615  25.498   4.223  14.228 -0.1513 -0.4526 -0.0697
 1484BOLB   C4D35616  25.227   4.056  14.051 -0.0225 -0.0659  0.2529
 1485BOLB   NC135617  19.185   4.919  10.022 -0.2221  0.1160 -0.0558
 1485BOLB   PO135618  18.881   5.051   9.680  0.1423  0.1111 -0.0382
 1485BOLB   GL135619  19.034   5.121   9.289 -0.1293  0.2733  0.2240
 1485BOLB   GL235620  19.017   4.872   9.085  0.1285 -0.2405 -0.2398
 1485BOLB   C1A35621  19.108   5.329   8.834 -0.0794  0.0309  0.0595
 1485BOLB   C2A35622  19.185   5.345   8.334  0.2718  0.0968  0.0807
 1485BOLB   C3A35623  19.386   5.380   7.891  0.0148 -0.0570  0.0065
 1485BOLB   C4A35624  19.562   5.551   7.601 -0.1977  0.0709 -0.0307
 1485BOLB   C1B35625  19.081   4.694   8.651 -0.3280  0.1392 -0.3470
 1485BOLB   C2B35626  19.280   4.374   8.212  0.1252 -0.0478  0.0078
 1485BOLB   C3B35627  19.631   4.383   7.773 -0.1754  0.1549  0.3653
 1485BOLB   C4B35628  19.833   4.187   7.427  0.3070 -0.2148 -0.0556
 1485BOLB   NC235629  21.835   6.285   6.139 -0.4813 -0.1779  0.0444
 1485BOLB   PO235630  21.514   6.137   6.177 -0.1856 -0.1267 -0.3454
 1485BOLB   GL335631  21.114   6.042   6.395 -0.1704  0.2300 -0.0358
 1485BOLB   GL435632  20.849   6.111   6.247  0.0098  0.0289 -0.0959
 1485BOLB   C1C35633  20.822   5.992   6.742 -0.1744  0.0887 -0.0815
 1485BOLB   C2C35634  20.554   5.972   6.976  0.0930  0.0396 -0.0691
 1485BOLB   C3C35635  20.125   5.795   7.099 -0.0689 -0.0393  0.1415
 1485BOLB   C4C35636  19.799   5.536   7.253  0.0308  0.0240 -0.1133
 1485BOLB   C1D35637  20.526   6.266   6.384  0.0939  0.2698 -0.0301
 1485BOLB   C2D35638  20.099   6.405   6.578  0.2404 -0.1369 -0.0026
 1485BOLB   C3D35639  19.977   6.303   6.968  0.0839  0.0783 -0.0921
 1485BOLB   C4D35640  19.758   6.099   7.316 -0.1733 -0.0064  0.2746
 1486BOLB   NC135641  23.454  12.869  18.931 -0.1660 -0.2406  0.2243
 1486BOLB   PO135642  23.583  12.707  18.613 -0.0579  0.0382  0.1910
 1486BOLB   GL135643  23.824  13.129  18.668  0.1674 -0.3634 -0.0379
 1486BOLB   GL235644  23.757  13.429  18.667  0.3096  0.0597 -0.1394
 1486BOLB   C1A35645  24.214  13.167  18.881 -0.3182  0.4539  0.2934
 1486BOLB   C2A35646  24.522  13.031  19.093 -0.2157  0.0095  0.0914
 1486BOLB   C3A35647  24.973  12.989  19.079 -0.1671  0.1734 -0.1192
 1486BOLB   C4A35648  25.327  13.087  18.932 -0.1404 -0.1362  0.0712
 1486BOLB   C1B35649  24.213  13.702  18.671  0.2592 -0.0025 -0.1125
 1486BOLB   C2B35650  24.673  13.782  18.716 -0.0538 -0.1228  0.2384
 1486BOLB   C3B35651  24.807  13.989  19.043 -0.0391 -0.0321  0.3293
 1486BOLB   C4B35652  25.023  14.098  19.423  0.0821 -0.1484 -0.0002
 1486BOLB   NC235653  27.356  12.599  20.389 -0.0636 -0.1226 -0.1433
 1486BOLB   PO235654  27.195  12.202  20.496 -0.1591  0.2776  0.0102
 1486BOLB   GL335655  26.742  12.242  20.366  0.0477 -0.3369 -0.2842
 1486BOLB   GL435656  26.872  11.922  20.244  0.0788  0.1223 -0.2454
 1486BOLB   C1C35657  26.537  12.300  20.015  0.2798 -0.1954 -0.1855
 1486BOLB   C2C35658  26.214  12.568  19.788  0.2288 -0.1521 -0.0842
 1486BOLB   C3C35659  25.857  12.603  19.361  0.3983  0.1126  0.1248
 1486BOLB   C4C35660  25.686  13.006  19.237  0.1682  0.1785 -0.4123
 1486BOLB   C1D35661  26.552  11.805  20.150  0.1991 -0.1295 -0.0143
 1486BOLB   C2D35662  26.149  12.045  20.108 -0.1118 -0.0225 -0.1402
 1486BOLB   C3D35663  25.827  12.326  20.052  0.1075 -0.2056  0.0380
 1486BOLB   C4D35664  25.481  12.499  20.175 -0.0457 -0.2398 -0.0599
 1487BOLB   NC135665  19.131   1.815  16.304  0.0852 -0.2180  0.0069
 1487BOLB   PO135666  18.871   1.608  16.062 -0.1146 -0.0807  0.0093
 1487BOLB   GL135667  18.976   1.336  16.295  0.1179  0.2058  0.2722
 1487BOLB   GL235668  19.017   1.424  16.666 -0.3227 -0.1130  0.3171
 1487BOLB   C1A35669  18.904   0.943  16.262 -0.1406  0.0523 -0.1500
 1487BOLB   C2A35670  19.186   0.559  16.154  0.4504  0.2507 -0.3459
 1487BOLB   C3A35671  19.370   0.342  16.389 -0.0415 -0.3160 -0.0634
 1487BOLB   C4A35672  19.558   0.049  16.492 -0.4687  0.0315  0.2404
 1487BOLB   C1B35673  18.926   0.986  16.810 -0.0301  0.4150 -0.0735
 1487BOLB   C2B35674  19.037   0.555  16.699  0.1241 -0.2506 -0.3159
 1487BOLB   C3B35675  19.182   0.121  16.818  0.0543 -0.1776  0.2109
 1487BOLB   C4B35676  19.155  -0.222  16.743 -0.0951  0.4111 -0.0204
 1487BOLB   NC235677  21.365  -1.736  16.566  0.1266 -0.1930  0.0885
 1487BOLB   PO235678  21.002  -1.706  16.743 -0.1051  0.4374 -0.0077
 1487BOLB   GL335679  21.064  -1.290  16.628  0.2813 -0.0343 -0.2279
 1487BOLB   GL435680  21.041  -1.368  16.279 -0.3022  0.0546  0.0625
 1487BOLB   C1C35681  20.701  -1.046  16.707  0.2417 -0.2662 -0.0926
 1487BOLB   C2C35682  20.199  -0.934  16.551 -0.1965  0.0726  0.2308
 1487BOLB   C3C35683  19.887  -0.658  16.420  0.0514 -0.1343  0.2237
 1487BOLB   C4C35684  19.706  -0.280  16.277  0.4433  0.1931  0.0917
 1487BOLB   C1D35685  21.062  -0.931  16.332 -0.0065 -0.1954 -0.0644
 1487BOLB   C2D35686  20.747  -0.559  16.362  0.1545  0.0659  0.1583
 1487BOLB   C3D35687  20.383  -0.496  16.577 -0.2635 -0.0393  0.2308
 1487BOLB   C4D35688  20.074  -0.137  16.624  0.3121  0.0373  0.0669
 1488BOLB   NC135689  17.978   8.617   9.012 -0.1920  0.1226 -0.0332
 1488BOLB   PO135690  17.872   8.709   8.502 -0.1407  0.3253  0.0675
 1488BOLB   GL135691  17.798   8.464   8.115  0.2046 -0.0089  0.0064
 1488BOLB   GL235692  17.736   8.218   8.326 -0.2729  0.0415 -0.0007
 1488BOLB   C1A35693  17.882   8.367   7.654 -0.1854 -0.1257 -0.0433
 1488BOLB   C2A35694  17.868   8.374   7.168 -0.1363 -0.0482  0.0844
 1488BOLB   C3A35695  17.987   8.288   6.726 -0.1673  0.0125 -0.0919
 1488BOLB   C4A35696  18.287   8.561   6.486 -0.0646  0.0387 -0.2057
 1488BOLB   C1B35697  17.871   7.966   7.919 -0.0574  0.1406  0.2040
 1488BOLB   C2B35698  18.081   7.872   7.503 -0.2123  0.1789  0.0970
 1488BOLB   C3B35699  18.114   7.955   7.107  0.1238  0.1074  0.1377
 1488BOLB   C4B35700  18.336   7.782   6.721 -0.0133 -0.2298  0.2242
 1488BOLB   NC235701  19.416   7.665   4.387  0.4122 -0.0491  0.5235
 1488BOLB   PO235702  19.168   7.929   4.332  0.2560 -0.0951 -0.0374
 1488BOLB   GL335703  18.868   8.340   4.546  0.1997 -0.0290  0.3331
 1488BOLB   GL435704  18.688   8.038   4.630  0.0935 -0.1148  0.0304
 1488BOLB   C1C35705  18.646   8.552   4.947  0.0925  0.0590  0.3114
 1488BOLB   C2C35706  18.668   8.530   5.426 -0.0374 -0.1278 -0.0627
 1488BOLB   C3C35707  18.585   8.609   5.755 -0.2559 -0.0651 -0.2385
 1488BOLB   C4C35708  18.349   8.562   6.076 -0.0248  0.1709 -0.2604
 1488BOLB   C1D35709  18.476   7.869   4.993  0.3083  0.1131  0.2322
 1488BOLB   C2D35710  18.085   7.702   4.985 -0.0129 -0.3929  0.0463
 1488BOLB   C3D35711  17.844   7.376   5.151 -0.2093  0.0673 -0.1105
 1488BOLB   C4D35712  18.036   7.002   5.369 -0.0597 -0.3848 -0.0928
 1489BOLB   NC135713  18.867   7.220  22.697 -0.0428 -0.1599 -0.1991
 1489BOLB   PO135714  18.452   7.128  22.716 -0.0037  0.0537  0.3915
 1489BOLB   GL135715  18.540   7.055  23.173  0.1938 -0.2813  0.2625
 1489BOLB   GL235716  18.831   7.102  23.254  0.1748  0.2198  0.2288
 1489BOLB   C1A35717  18.551   6.808  23.581 -0.0123 -0.1614 -0.0871
 1489BOLB   C2A35718  18.650   6.880  24.038 -0.1317  0.0014 -0.2163
 1489BOLB   C3A35719  18.783   6.978  24.407 -0.1974 -0.0679 -0.2382
 1489BOLB   C4A35720  18.579   7.012  24.722  0.1321  0.0351 -0.1176
 1489BOLB   C1B35721  18.883   7.394  23.488 -0.0073 -0.2243 -0.3926
 1489BOLB   C2B35722  18.816   7.292  23.879 -0.1398  0.0027  0.2044
 1489BOLB   C3B35723  19.102   7.383  24.224  0.1371  0.0058 -0.0396
 1489BOLB   C4B35724  19.532   7.499  24.403 -0.0588 -0.2645 -0.0045
 1489BOLB   NC235725  19.647   6.524  26.673  0.2283  0.0823  0.0613
 1489BOLB   PO235726  19.327   6.208  26.787 -0.2023 -0.5211  0.0054
 1489BOLB   GL335727  19.133   6.255  26.439 -0.0566  0.2479  0.2424
 1489BOLB   GL435728  19.218   6.546  26.319  0.1055 -0.2640  0.0374
 1489BOLB   C1C35729  18.731   6.254  26.122 -0.0931  0.2195 -0.1338
 1489BOLB   C2C35730  18.522   6.550  25.766 -0.1187  0.0782 -0.0897
 1489BOLB   C3C35731  18.447   6.777  25.450 -0.0014 -0.0926 -0.1648
 1489BOLB   C4C35732  18.399   6.883  25.101  0.1914 -0.0321 -0.0354
 1489BOLB   C1D35733  19.329   6.915  26.117  0.1250  0.2129  0.3072
 1489BOLB   C2D35734  19.669   7.087  25.878 -0.0568 -0.0247  0.2547
 1489BOLB   C3D35735  19.991   7.110  25.706 -0.2437 -0.2245  0.4321
 1489BOLB   C4D35736  20.387   7.359  25.622 -0.4179  0.3596 -0.2506
 1490BOLB   NC135737  12.311  17.007  13.541 -0.4069  0.0814  0.1840
 1490BOLB   PO135738  11.964  17.201  13.703  0.0692 -0.5347  0.0548
 1490BOLB   GL135739  12.048  17.625  13.608  0.0335 -0.1020 -0.1803
 1490BOLB   GL235740  12.413  17.705  13.560  0.1009  0.0353 -0.0279
 1490BOLB   C1A35741  11.920  17.870  13.348 -0.3205 -0.1182 -0.0315
 1490BOLB   C2A35742  12.124  18.139  12.997  0.0260  0.1104  0.3107
 1490BOLB   C3A35743  11.980  18.640  12.868 -0.0756  0.1581  0.4065
 1490BOLB   C4A35744  11.670  18.956  12.726  0.2238  0.1935  0.3409
 1490BOLB   C1B35745  12.576  18.060  13.378  0.1743 -0.0257 -0.0981
 1490BOLB   C2B35746  12.504  18.511  13.176  0.1038 -0.1619  0.0844
 1490BOLB   C3B35747  12.467  18.943  12.970 -0.1833  0.0605 -0.1904
 1490BOLB   C4B35748  12.061  19.247  12.910  0.0358  0.1190 -0.0006
 1490BOLB   NC235749  11.228  20.519  11.728 -0.0608  0.1545  0.1133
 1490BOLB   PO235750  10.829  20.282  11.568  0.0028 -0.0061  0.4684
 1490BOLB   GL335751  10.836  19.938  11.750  0.1231  0.0351 -0.2436
 1490BOLB   GL435752  10.872  19.946  12.043 -0.1086  0.1975  0.3538
 1490BOLB   C1C35753  10.874  19.516  11.794 -0.1673  0.0484 -0.0335
 1490BOLB   C2C35754  10.729  19.287  12.031  0.3166  0.0789  0.1191
 1490BOLB   C3C35755  10.987  19.287  12.359  0.0820  0.1181 -0.3505
 1490BOLB   C4C35756  11.223  19.137  12.714  0.1207  0.4737 -0.0350
 1490BOLB   C1D35757  11.260  19.625  12.032  0.0769 -0.0476  0.2083
 1490BOLB   C2D35758  11.501  19.251  12.264 -0.2533  0.0331  0.2535
 1490BOLB   C3D35759  11.881  19.136  12.334  0.2228 -0.1624  0.1480
 1490BOLB   C4D35760  11.866  18.704  12.357 -0.2167  0.0412 -0.3498
 1491BOLB   NC135761  18.768   2.452  17.252 -0.2041 -0.1093  0.0249
 1491BOLB   PO135762  18.899   2.026  17.098 -0.0742  0.1246  0.2587
 1491BOLB   GL135763  19.122   1.636  17.139  0.1398  0.0921  0.1724
 1491BOLB   GL235764  19.251   1.723  17.312  0.1566 -0.0481  0.2617
 1491BOLB   C1A35765  19.332   1.196  17.001 -0.2013 -0.0320 -0.1048
 1491BOLB   C2A35766  19.298   0.760  17.101 -0.1189 -0.0872  0.0283
 1491BOLB   C3A35767  19.241   0.470  17.275  0.0774 -0.0032  0.0681
 1491BOLB   C4A35768  19.406   0.068  17.450  0.1808 -0.4772 -0.0214
 1491BOLB   C1B35769  19.589   1.333  17.413 -0.1487 -0.0395 -0.1800
 1491BOLB   C2B35770  19.926   1.078  17.557 -0.0916  0.3486  0.0505
 1491BOLB   C3B35771  20.222   0.703  17.361 -0.0306  0.1193  0.1673
 1491BOLB   C4B35772  20.509   0.548  17.658  0.4045 -0.0915 -0.2425
 1491BOLB   NC235773  20.767  -1.929  17.219  0.1725  0.0400 -0.0912
 1491BOLB   PO235774  20.637  -2.068  16.775 -0.3444  0.2628 -0.2215
 1491BOLB   GL335775  20.459  -1.622  16.864  0.1645 -0.0553  0.0096
 1491BOLB   GL435776  20.593  -1.520  16.489  0.0957  0.0108  0.0484
 1491BOLB   C1C35777  20.230  -1.195  17.006 -0.3956  0.1769  0.2114
 1491BOLB   C2C35778  20.234  -0.914  17.356  0.0513  0.3953 -0.4350
 1491BOLB   C3C35779  19.951  -0.591  17.625 -0.0986  0.0583  0.1159
 1491BOLB   C4C35780  19.632  -0.335  17.516  0.0617 -0.3887  0.2580
 1491BOLB   C1D35781  20.561  -1.112  16.230 -0.0450  0.0754 -0.0235
 1491BOLB   C2D35782  20.787  -0.939  15.839 -0.3656  0.2562  0.1725
 1491BOLB   C3D35783  20.603  -0.721  15.578 -0.2619 -0.0997 -0.1569
 1491BOLB   C4D35784  20.272  -0.337  15.525 -0.0344 -0.1298  0.0106
 1492BOLB   NC135785  21.107   5.319  12.163 -0.0627 -0.3020 -0.2123
 1492BOLB   PO135786  21.304   5.462  11.759 -0.0575  0.0769  0.1408
 1492BOLB   GL135787  21.570   5.258  11.368  0.1537 -0.3994 -0.3908
 1492BOLB   GL235788  21.708   5.498  11.460  0.0518 -0.4408 -0.2022
 1492BOLB   C1A35789  21.758   5.050  11.203 -0.1885  0.0721 -0.0426
 1492BOLB   C2A35790  22.138   4.934  10.962 -0.0269 -0.1584  0.2853
 1492BOLB   C3A35791  22.394   4.900  10.645 -0.0876  0.1532  0.1135
 1492BOLB   C4A35792  22.836   4.787  10.562 -0.2405 -0.2785  0.0294
 1492BOLB   C1B35793  22.091   5.422  11.191 -0.2034  0.1567  0.0999
 1492BOLB   C2B35794  22.340   5.469  10.963  0.0497 -0.3125 -0.0429
 1492BOLB   C3B35795  22.526   5.454  10.540 -0.0807  0.0417  0.0882
 1492BOLB   C4B35796  22.677   5.211  10.227  0.1881 -0.1564  0.2825
 1492BOLB   NC235797  24.731   4.111   8.579 -0.0632  0.0089  0.1930
 1492BOLB   PO235798  24.324   4.114   8.892 -0.0126 -0.2971 -0.0253
 1492BOLB   GL335799  24.088   3.900   9.250 -0.2319  0.0693 -0.2611
 1492BOLB   GL435800  23.899   3.609   9.264 -0.1964  0.2784 -0.1441
 1492BOLB   C1C35801  24.148   4.066   9.651 -0.1976  0.1095  0.2004
 1492BOLB   C2C35802  24.004   4.270   9.946 -0.0065 -0.1443 -0.2556
 1492BOLB   C3C35803  23.634   4.372  10.045  0.1435 -0.1518 -0.0170
 1492BOLB   C4C35804  23.250   4.497  10.315 -0.0587 -0.0897 -0.3031
 1492BOLB   C1D35805  23.551   3.733   9.545  0.1201  0.0885 -0.2825
 1492BOLB   C2D35806  23.068   3.541   9.664 -0.2194 -0.2472 -0.1302
 1492BOLB   C3D35807  22.744   3.674   9.630  0.1358  0.1792 -0.2516
 1492BOLB   C4D35808  22.670   3.972   9.984  0.2113 -0.1373  0.0626
 1493BOLB   NC135809   8.752   9.857  18.490 -0.1606 -0.1679  0.3905
 1493BOLB   PO135810   8.606   9.526  18.199 -0.2494  0.1977 -0.1213
 1493BOLB   GL135811   8.197   9.626  18.395  0.0560 -0.0036 -0.3611
 1493BOLB   GL235812   8.049   9.935  18.365 -0.5492  0.1931 -0.0458
 1493BOLB   C1A35813   7.877   9.586  18.679  0.0714 -0.3661  0.1031
 1493BOLB   C2A35814   7.667   9.610  18.951 -0.2439 -0.0625  0.0803
 1493BOLB   C3A35815   7.553   9.324  19.281  0.0046  0.1150 -0.1510
 1493BOLB   C4A35816   7.124   9.088  19.398 -0.0215 -0.0236  0.0693
 1493BOLB   C1B35817   7.818  10.063  18.779  0.1394  0.1311 -0.1714
 1493BOLB   C2B35818   7.515  10.092  19.097 -0.2128 -0.0795  0.0807
 1493BOLB   C3B35819   7.326   9.834  19.301  0.2584 -0.2813 -0.0171
 1493BOLB   C4B35820   7.084   9.483  19.137  0.1720  0.2871 -0.1227
 1493BOLB   NC235821   4.952   8.783  20.432  0.1453  0.1299  0.0179
 1493BOLB   PO235822   5.221   9.037  20.696 -0.6032  0.0378  0.1919
 1493BOLB   GL335823   5.581   9.006  20.479 -0.0859 -0.0883 -0.1654
 1493BOLB   GL435824   5.758   9.251  20.448  0.0184  0.1113  0.2674
 1493BOLB   C1C35825   5.683   8.998  20.015 -0.1046 -0.2500  0.1003
 1493BOLB   C2C35826   6.095   8.885  19.864  0.1392 -0.1008 -0.0676
 1493BOLB   C3C35827   6.490   8.866  19.550 -0.1709 -0.2282  0.0514
 1493BOLB   C4C35828   6.854   8.954  19.578 -0.0508 -0.0475 -0.0478
 1493BOLB   C1D35829   6.026   9.265  20.186 -0.1398 -0.1170  0.1897
 1493BOLB   C2D35830   6.422   9.244  19.882  0.0441  0.2742 -0.0402
 1493BOLB   C3D35831   6.830   9.270  19.912  0.0378 -0.3310 -0.2315
 1493BOLB   C4D35832   7.176   9.413  20.262 -0.0903  0.4916  0.0820
 1494BOLB   NC135833  18.571   1.968  15.065  0.3614  0.3364 -0.1599
 1494BOLB   PO135834  18.760   1.591  15.107  0.1382  0.0869  0.2779
 1494BOLB   GL135835  18.849   1.284  15.385  0.0413  0.1018  0.0604
 1494BOLB   GL235836  18.962   1.289  15.595  0.1128  0.1929 -0.0477
 1494BOLB   C1A35837  19.112   1.024  15.225  0.1708 -0.0676  0.0738
 1494BOLB   C2A35838  19.121   0.645  15.269  0.1203 -0.0881  0.2784
 1494BOLB   C3A35839  19.100   0.260  15.344  0.0227 -0.3531 -0.0281
 1494BOLB   C4A35840  19.082  -0.081  15.433  0.2449 -0.2061  0.1454
 1494BOLB   C1B35841  19.038   0.886  15.775  0.0397 -0.1273  0.0564
 1494BOLB   C2B35842  19.344   0.552  15.680  0.0664  0.1869  0.2328
 1494BOLB   C3B35843  19.561   0.411  15.503  0.1696 -0.0751  0.0289
 1494BOLB   C4B35844  19.644   0.075  15.345  0.1610 -0.1488  0.0451
 1494BOLB   NC235845  19.963  -2.273  16.407 -0.5920 -0.0964  0.1603
 1494BOLB   PO235846  19.502  -2.205  16.236  0.1990  0.1958  0.2017
 1494BOLB   GL335847  19.309  -1.820  16.535 -0.2739  0.0616 -0.2555
 1494BOLB   GL435848  19.019  -1.559  16.511 -0.0044 -0.3747 -0.2233
 1494BOLB   C1C35849  19.484  -1.395  16.417  0.3027  0.2514 -0.0049
 1494BOLB   C2C35850  19.757  -1.061  16.180  0.0110  0.0820 -0.0671
 1494BOLB   C3C35851  19.579  -0.647  15.918  0.0983  0.1936  0.2927
 1494BOLB   C4C35852  19.372  -0.294  15.708 -0.1454 -0.1192 -0.0508
 1494BOLB   C1D35853  19.075  -1.117  16.604  0.1462 -0.2408  0.4027
 1494BOLB   C2D35854  18.868  -0.706  16.601 -0.1615  0.4448  0.1172
 1494BOLB   C3D35855  18.513  -0.424  16.541  0.2648 -0.2889 -0.0394
 1494BOLB   C4D35856  18.141  -0.244  16.702 -0.0870  0.0028  0.0004
 1495BOLB   NC135857  15.264   2.109  17.084  0.1810  0.2021 -0.2576
 1495BOLB   PO135858  15.214   1.598  17.285  0.0681  0.2332 -0.0207
 1495BOLB   GL135859  15.344   1.189  17.421  0.1231 -0.0070 -0.0733
 1495BOLB   GL235860  15.317   0.822  17.278 -0.0958  0.1321 -0.1374
 1495BOLB   C1A35861  15.370   0.719  17.781 -0.0343 -0.0925  0.2629
 1495BOLB   C2A35862  15.340   0.291  17.869  0.1805  0.0906  0.0795
 1495BOLB   C3A35863  15.548  -0.071  17.793  0.4032  0.0676  0.4929
 1495BOLB   C4A35864  15.805  -0.134  18.134 -0.0428 -0.1288  0.0090
 1495BOLB   C1B35865  15.064   0.429  17.445  0.3701  0.0513 -0.1755
 1495BOLB   C2B35866  14.718   0.172  17.663 -0.2508 -0.3180  0.0549
 1495BOLB   C3B35867  14.245   0.120  17.563  0.1006  0.3656 -0.0735
 1495BOLB   C4B35868  13.790  -0.105  17.530  0.1900  0.0238 -0.0815
 1495BOLB   NC235869  17.084  -1.996  18.972  0.1842 -0.1986  0.0343
 1495BOLB   PO235870  16.657  -2.059  18.935  0.3963 -0.2282  0.2426
 1495BOLB   GL335871  16.798  -1.612  18.934 -0.0381  0.0542  0.0171
 1495BOLB   GL435872  16.395  -1.527  18.929 -0.2948  0.2483 -0.1169
 1495BOLB   C1C35873  16.670  -1.154  18.952 -0.1558  0.2227 -0.0379
 1495BOLB   C2C35874  16.320  -0.835  19.002  0.1720 -0.0477 -0.6227
 1495BOLB   C3C35875  15.910  -0.585  18.919  0.0533 -0.1435 -0.0035
 1495BOLB   C4C35876  15.926  -0.221  18.596  0.5718  0.3660 -0.0423
 1495BOLB   C1D35877  16.404  -1.266  18.538 -0.0794  0.1636  0.2537
 1495BOLB   C2D35878  16.242  -1.077  18.136  0.1749  0.0144 -0.2485
 1495BOLB   C3D35879  16.160  -0.733  17.842 -0.2431  0.2924 -0.1412
 1495BOLB   C4D35880  15.964  -0.378  17.754 -0.1535  0.1784  0.1119
 1496BOLB   NC135881  21.248  10.013  22.717 -0.1298  0.1601  0.0308
 1496BOLB   PO135882  21.363  10.407  22.674 -0.2431 -0.1170  0.1929
 1496BOLB   GL135883  21.433  10.428  23.094  0.0639 -0.0893  0.0906
 1496BOLB   GL235884  21.502  10.728  23.099 -0.2402  0.2246 -0.0688
 1496BOLB   C1A35885  21.501  10.342  23.492 -0.0580  0.3304  0.0599
 1496BOLB   C2A35886  21.487  10.496  23.843 -0.0295 -0.5157 -0.2712
 1496BOLB   C3A35887  21.719  10.942  23.952  0.1470  0.0341 -0.2407
 1496BOLB   C4A35888  21.825  10.879  24.442  0.0561 -0.0252 -0.3428
 1496BOLB   C1B35889  21.400  10.909  23.474 -0.4307  0.0536  0.1148
 1496BOLB   C2B35890  21.015  10.857  23.791  0.0887 -0.2393  0.4101
 1496BOLB   C3B35891  20.851  10.571  24.054  0.0497 -0.3606 -0.1524
 1496BOLB   C4B35892  20.709  10.323  24.415  0.0670 -0.0023  0.0442
 1496BOLB   NC235893  23.044  10.635  26.479  0.0899 -0.0459  0.1322
 1496BOLB   PO235894  22.902  11.010  26.458  0.4074 -0.0267 -0.0171
 1496BOLB   GL335895  23.016  11.207  26.068 -0.0293 -0.0112  0.3000
 1496BOLB   GL435896  22.815  11.555  26.013 -0.0382 -0.1515  0.0388
 1496BOLB   C1C35897  22.976  11.130  25.655 -0.3464  0.0383  0.1703
 1496BOLB   C2C35898  22.696  11.126  25.229 -0.0264  0.2519 -0.2057
 1496BOLB   C3C35899  22.314  10.917  25.065  0.1262 -0.5439 -0.1000
 1496BOLB   C4C35900  22.031  10.764  24.793  0.0825 -0.2833 -0.0538
 1496BOLB   C1D35901  22.516  11.423  25.730 -0.0042 -0.0046  0.2161
 1496BOLB   C2D35902  22.475  11.536  25.308  0.1970 -0.0478 -0.1503
 1496BOLB   C3D35903  22.311  11.880  25.141  0.0810  0.0335 -0.1802
 1496BOLB   C4D35904  22.473  12.204  24.862  0.0135  0.1583 -0.0985
 1497BOLB   NC135905   8.675   1.481   4.966 -0.0169 -0.0118 -0.2674
 1497BOLB   PO135906   8.954   1.567   4.601  0.1103  0.0080  0.0412
 1497BOLB   GL135907   9.127   1.624   5.040 -0.2382 -0.1344 -0.0622
 1497BOLB   GL235908   9.125   1.897   4.958 -0.2880 -0.0314  0.1046
 1497BOLB   C1A35909   9.563   1.893   5.130  0.1576 -0.3193  0.2052
 1497BOLB   C2A35910   9.815   2.144   5.496  0.1494 -0.2529 -0.4364
 1497BOLB   C3A35911  10.148   2.363   5.785 -0.0383  0.2423 -0.0252
 1497BOLB   C4A35912  10.605   2.379   5.717  0.1604  0.0282  0.0281
 1497BOLB   C1B35913   9.239   2.287   5.091 -0.2465  0.0907 -0.1006
 1497BOLB   C2B35914   9.413   2.579   5.550  0.0521 -0.2193  0.3081
 1497BOLB   C3B35915   9.783   2.670   5.860 -0.0981  0.2240  0.4285
 1497BOLB   C4B35916  10.077   2.885   5.778 -0.1597 -0.0660 -0.0619
 1497BOLB   NC235917   9.774   0.298   4.368 -0.0224  0.2050  0.2147
 1497BOLB   PO235918  10.031   0.516   4.551 -0.0039  0.2380 -0.0499
 1497BOLB   GL335919  10.202   0.828   4.833 -0.0640 -0.1316  0.2415
 1497BOLB   GL435920  10.495   1.078   4.863  0.4132  0.2840  0.2438
 1497BOLB   C1C35921  10.290   1.190   5.273  0.0887 -0.2041 -0.0182
 1497BOLB   C2C35922  10.338   1.409   5.526  0.0281 -0.1452 -0.2261
 1497BOLB   C3C35923  10.486   1.776   5.797  0.0400  0.0714 -0.0419
 1497BOLB   C4C35924  10.831   1.995   5.742  0.1244 -0.0466 -0.2188
 1497BOLB   C1D35925  10.852   1.245   5.137 -0.0590  0.2763  0.2150
 1497BOLB   C2D35926  10.835   1.485   5.501  0.0801 -0.0825 -0.0880
 1497BOLB   C3D35927  10.868   1.519   5.980  0.0828 -0.4081 -0.2410
 1497BOLB   C4D35928  10.798   1.215   6.358 -0.3943  0.0020 -0.0714
 1498BOLB   NC135929  18.288   2.372  24.829  0.1372  0.2658 -0.3539
 1498BOLB   PO135930  18.348   2.541  24.463  0.0891 -0.0884 -0.1957
 1498BOLB   GL135931  18.424   2.921  24.228 -0.1831 -0.1447  0.1940
 1498BOLB   GL235932  18.714   2.862  23.960  0.0331 -0.0015 -0.1214
 1498BOLB   C1A35933  18.341   3.205  23.925  0.1299  0.0981  0.0388
 1498BOLB   C2A35934  18.240   3.381  23.503  0.2478  0.2088 -0.0693
 1498BOLB   C3A35935  18.106   3.503  23.137 -0.0478 -0.0098 -0.0368
 1498BOLB   C4A35936  18.155   3.428  22.813 -0.0242  0.0619  0.0499
 1498BOLB   C1B35937  18.529   3.000  23.541 -0.0232 -0.1179 -0.1383
 1498BOLB   C2B35938  18.303   3.007  23.194  0.1523 -0.2111 -0.0353
 1498BOLB   C3B35939  17.994   2.998  22.903  0.0486  0.1289 -0.0973
 1498BOLB   C4B35940  17.764   2.821  22.463 -0.1663  0.1933 -0.3057
 1498BOLB   NC235941  17.637   4.260  20.885 -0.2588 -0.1675 -0.0849
 1498BOLB   PO235942  17.227   4.230  20.728  0.0160 -0.0041 -0.0801
 1498BOLB   GL335943  17.450   3.842  21.050 -0.2953  0.1486 -0.0186
 1498BOLB   GL435944  17.313   3.560  20.892  0.0104  0.1665 -0.0096
 1498BOLB   C1C35945  17.600   3.679  21.467  0.1286  0.2794  0.0636
 1498BOLB   C2C35946  17.718   3.423  21.759 -0.0880  0.1078 -0.0672
 1498BOLB   C3C35947  17.632   3.510  22.187 -0.0555  0.2641 -0.1676
 1498BOLB   C4C35948  17.888   3.307  22.509 -0.1471  0.0133 -0.0025
 1498BOLB   C1D35949  17.259   3.249  21.245  0.0634 -0.1285  0.3499
 1498BOLB   C2D35950  17.524   2.854  21.455  0.2473 -0.3237 -0.1932
 1498BOLB   C3D35951  17.765   2.827  21.830 -0.2161 -0.1097 -0.1991
 1498BOLB   C4D35952  17.684   2.469  22.112  0.1180 -0.2047 -0.0854
 1499BOLB   NC135953  23.690   1.423  10.044  0.0023 -0.0580 -0.1765
 1499BOLB   PO135954  23.526   1.896   9.852 -0.0069 -0.2767  0.1329
 1499BOLB   GL135955  23.346   2.316   9.987 -0.0130 -0.1558 -0.0762
 1499BOLB   GL235956  23.271   2.499   9.770 -0.0747 -0.2561  0.2728
 1499BOLB   C1A35957  22.940   2.533  10.123  0.0253  0.1710 -0.1729
 1499BOLB   C2A35958  22.786   2.868  10.364 -0.0314 -0.2088 -0.3314
 1499BOLB   C3A35959  22.506   3.157  10.648  0.0630  0.4143 -0.2438
 1499BOLB   C4A35960  22.382   3.168  11.079 -0.2077 -0.0617 -0.2866
 1499BOLB   C1B35961  23.333   2.802  10.097  0.2568  0.1581  0.2055
 1499BOLB   C2B35962  23.270   3.105  10.441 -0.2379 -0.1842 -0.1374
 1499BOLB   C3B35963  23.347   3.176  10.828  0.0232 -0.1263  0.3416
 1499BOLB   C4B35964  23.613   3.422  10.951  0.0867  0.0064 -0.0061
 1499BOLB   NC235965  24.687   1.901  11.430  0.0643 -0.1475 -0.1515
 1499BOLB   PO235966  24.231   1.909  11.485 -0.1375 -0.3647 -0.1082
 1499BOLB   GL335967  23.815   1.982  11.547  0.1249  0.0029 -0.0233
 1499BOLB   GL435968  23.600   1.723  11.657 -0.0720  0.0117  0.2379
 1499BOLB   C1C35969  23.421   2.253  11.636  0.1154 -0.0450 -0.0362
 1499BOLB   C2C35970  23.048   2.419  11.516  0.2242 -0.0025 -0.0274
 1499BOLB   C3C35971  22.948   2.812  11.468 -0.1917 -0.3267 -0.0752
 1499BOLB   C4C35972  22.532   2.985  11.416  0.2111 -0.0216  0.0700
 1499BOLB   C1D35973  23.134   1.836  11.688 -0.0538  0.1744 -0.0942
 1499BOLB   C2D35974  22.933   2.005  11.978  0.0029 -0.0799  0.1923
 1499BOLB   C3D35975  22.652   2.157  12.265 -0.2119 -0.0688 -0.2806
 1499BOLB   C4D35976  22.479   2.140  12.747  0.1953 -0.1934 -0.1756
 1500BOLB   NC135977  17.263   2.788  19.252  0.2685 -0.1135  0.3932
 1500BOLB   PO135978  16.852   2.841  19.249  0.2988  0.0420 -0.0958
 1500BOLB   GL135979  16.882   2.471  19.487 -0.1685  0.0673 -0.0778
 1500BOLB   GL235980  17.053   2.486  19.592 -0.1073 -0.0431  0.3132
 1500BOLB   C1A35981  16.666   2.058  19.553 -0.0662  0.1833 -0.0815
 1500BOLB   C2A35982  16.590   1.710  19.833  0.2580 -0.1759  0.1166
 1500BOLB   C3A35983  16.312   1.864  20.208  0.2661  0.1899  0.1309
 1500BOLB   C4A35984  16.246   1.475  20.557 -0.3485 -0.0091 -0.0201
 1500BOLB   C1B35985  17.142   2.343  19.889  0.1554  0.1915  0.0538
 1500BOLB   C2B35986  17.262   2.067  20.245 -0.0032  0.1166  0.1170
 1500BOLB   C3B35987  17.155   1.721  20.445 -0.1371  0.2522 -0.0607
 1500BOLB   C4B35988  17.367   1.367  20.656 -0.1260  0.0024  0.0735
 1500BOLB   NC235989  15.698   0.001  22.780  0.2040  0.0787 -0.2094
 1500BOLB   PO235990  16.069   0.120  22.608  0.0037  0.0618  0.0414
 1500BOLB   GL335991  16.130   0.318  22.213 -0.1593 -0.0049 -0.0553
 1500BOLB   GL435992  15.927   0.331  21.952 -0.1844 -0.1520  0.1091
 1500BOLB   C1C35993  16.077   0.782  21.945 -0.2165  0.3323  0.5808
 1500BOLB   C2C35994  16.344   1.232  21.695 -0.0540 -0.3014 -0.0988
 1500BOLB   C3C35995  16.410   1.530  21.487 -0.1249 -0.3830  0.0336
 1500BOLB   C4C35996  16.374   1.622  20.966 -0.2429  0.2410  0.1937
 1500BOLB   C1D35997  15.679   0.563  21.638  0.1733 -0.0249 -0.1269
 1500BOLB   C2D35998  15.467   0.829  21.512 -0.0847 -0.0783  0.0232
 1500BOLB   C3D35999  15.323   1.206  21.598 -0.0819  0.0537 -0.1435
 1500BOLB   C4D36000  15.108   1.736  21.472  0.0791  0.2897 -0.2949
 1501BOLB   NC136001  16.578  14.139  23.663 -0.0946 -0.0017 -0.0364
 1501BOLB   PO136002  16.389  14.336  23.373 -0.1281  0.0521 -0.1110
 1501BOLB   GL136003  16.329  14.550  23.800  0.0649 -0.3647 -0.1552
 1501BOLB   GL236004  16.643  14.628  23.819 -0.0927  0.0120  0.1065
 1501BOLB   C1A36005  16.509  14.311  24.244 -0.0783  0.1928 -0.3619
 1501BOLB   C2A36006  16.806  14.541  24.583  0.2467 -0.0316 -0.0192
 1501BOLB   C3A36007  16.940  14.724  24.976  0.3769  0.2410 -0.0823
 1501BOLB   C4A36008  16.947  14.792  25.322 -0.2503  0.0066  0.0920
 1501BOLB   C1B36009  16.660  14.948  24.054 -0.0323 -0.3902 -0.0728
 1501BOLB   C2B36010  16.407  15.163  24.398  0.4307 -0.0909  0.0665
 1501BOLB   C3B36011  16.167  15.443  24.622  0.4558 -0.1068  0.3213
 1501BOLB   C4B36012  15.859  15.462  25.062 -0.2471 -0.2785 -0.3466
 1501BOLB   NC236013  17.676  13.946  27.565 -0.0621 -0.0371 -0.1159
 1501BOLB   PO236014  17.834  14.111  27.190 -0.2174  0.1843  0.3268
 1501BOLB   GL336015  17.734  14.166  26.780  0.1931 -0.0086 -0.1683
 1501BOLB   GL436016  17.628  14.490  26.766  0.0203 -0.3790 -0.0235
 1501BOLB   C1C36017  17.911  14.263  26.387 -0.2314 -0.0437 -0.0295
 1501BOLB   C2C36018  17.772  14.333  26.021 -0.0296  0.3427  0.2403
 1501BOLB   C3C36019  17.410  14.494  25.664  0.3037 -0.0380 -0.3414
 1501BOLB   C4C36020  17.088  14.752  25.586 -0.0785 -0.3167  0.0541
 1501BOLB   C1D36021  17.442  14.335  26.388  0.0982 -0.1263 -0.0099
 1501BOLB   C2D36022  17.159  14.276  26.163 -0.0910  0.2524 -0.1658
 1501BOLB   C3D36023  16.982  14.178  25.764 -0.3949 -0.0154  0.2899
 1501BOLB   C4D36024  16.976  14.270  25.420  0.1471 -0.0192 -0.4747
 1502BOLB   NC136025   8.484   7.147  18.527  0.1554 -0.1829 -0.0167
 1502BOLB   PO136026   8.395   6.831  18.214  0.1017  0.0092  0.3019
 1502BOLB   GL136027   8.038   7.000  18.388 -0.1343 -0.0564  0.2118
 1502BOLB   GL236028   8.027   6.745  18.648 -0.0643  0.1637  0.2776
 1502BOLB   C1A36029   7.670   7.065  18.602  0.0513 -0.2793 -0.3497
 1502BOLB   C2A36030   7.135   7.068  18.765  0.0115 -0.0048 -0.3415
 1502BOLB   C3A36031   6.625   7.138  18.909  0.0561 -0.4403  0.0239
 1502BOLB   C4A36032   6.321   7.209  19.268 -0.0158  0.1432 -0.0602
 1502BOLB   C1B36033   7.684   6.554  18.704 -0.1821  0.1973  0.0375
 1502BOLB   C2B36034   7.592   6.061  18.861  0.0780  0.1679 -0.0795
 1502BOLB   C3B36035   7.392   5.649  18.896  0.0694 -0.2614 -0.0304
 1502BOLB   C4B36036   7.453   5.337  18.677  0.0891  0.1939  0.0085
 1502BOLB   NC236037   4.296   8.226  19.881  0.0981  0.0701  0.2110
 1502BOLB   PO236038   4.539   8.527  20.110  0.1601  0.1939 -0.0871
 1502BOLB   GL336039   4.741   8.362  19.756 -0.2142 -0.0939 -0.0074
 1502BOLB   GL436040   4.728   8.040  19.708  0.2786 -0.2420  0.1108
 1502BOLB   C1C36041   5.085   8.394  19.510 -0.1848  0.0380  0.2168
 1502BOLB   C2C36042   5.501   8.158  19.436 -0.0046 -0.0323 -0.1455
 1502BOLB   C3C36043   5.564   7.672  19.426 -0.0239 -0.2266  0.2427
 1502BOLB   C4C36044   5.930   7.374  19.339  0.1710  0.2744  0.1251
 1502BOLB   C1D36045   4.980   7.668  19.665 -0.0843 -0.1190 -0.2301
 1502BOLB   C2D36046   5.155   7.297  19.557 -0.0791  0.0067  0.0317
 1502BOLB   C3D36047   5.504   7.082  19.422  0.0483 -0.0047  0.1324
 1502BOLB   C4D36048   5.872   6.904  19.167 -0.1882 -0.1444 -0.0534
 1503BOLB   NC136049  25.065  19.569  16.971 -0.2179 -0.1144 -0.1989
 1503BOLB   PO136050  24.698  19.560  16.685  0.0990 -0.0699  0.1544
 1503BOLB   GL136051  24.396  19.412  16.847 -0.1673  0.1562 -0.1917
 1503BOLB   GL236052  24.008  19.422  16.712  0.2096  0.3337  0.1170
 1503BOLB   C1A36053  24.205  19.034  17.187 -0.1742 -0.2506  0.1941
 1503BOLB   C2A36054  24.256  18.932  17.601 -0.0784  0.0250 -0.0503
 1503BOLB   C3A36055  24.374  18.557  17.703  0.1798  0.3368  0.2933
 1503BOLB   C4A36056  24.514  18.141  17.647  0.1085 -0.0867 -0.0731
 1503BOLB   C1B36057  23.701  19.309  17.029 -0.2745 -0.3858 -0.0697
 1503BOLB   C2B36058  23.398  19.404  17.410  0.0961 -0.0883  0.0407
 1503BOLB   C3B36059  23.036  19.368  17.503 -0.1833 -0.1268  0.2426
 1503BOLB   C4B36060  22.796  19.109  17.422 -0.1221 -0.0068 -0.1077
 1503BOLB   NC236061  26.616  18.127  18.205  0.3191  0.0026 -0.1517
 1503BOLB   PO236062  26.272  18.333  18.260  0.1607  0.1816 -0.5556
 1503BOLB   GL336063  26.082  17.993  18.300  0.0748  0.1815  0.0610
 1503BOLB   GL436064  25.939  17.902  18.699 -0.2423 -0.0752  0.0272
 1503BOLB   C1C36065  25.741  17.760  18.141  0.3893  0.0668 -0.2411
 1503BOLB   C2C36066  25.388  17.593  17.832  0.1155 -0.1446  0.2262
 1503BOLB   C3C36067  25.018  17.617  17.716  0.0735  0.0755 -0.4201
 1503BOLB   C4C36068  24.646  17.738  17.597  0.1205 -0.0240  0.1717
 1503BOLB   C1D36069  25.603  17.654  18.587  0.1315  0.0969  0.0005
 1503BOLB   C2D36070  25.336  17.269  18.674  0.3074 -0.1514  0.1500
 1503BOLB   C3D36071  25.144  16.917  18.497 -0.0965 -0.3301  0.5353
 1503BOLB   C4D36072  25.078  16.560  18.325  0.0312  0.1417  0.0880
 1504BOLB   NC136073   8.993  13.601  13.964 -0.0319 -0.1226 -0.3285
 1504BOLB   PO136074   8.825  13.552  13.487 -0.2073 -0.3056  0.1468
 1504BOLB   GL136075   8.473  13.338  13.270 -0.0206 -0.0203 -0.3150
 1504BOLB   GL236076   8.412  13.611  13.116  0.3153 -0.1726 -0.1290
 1504BOLB   C1A36077   8.023  13.484  13.394  0.0891 -0.0279  0.1408
 1504BOLB   C2A36078   7.787  13.856  13.415  0.1050  0.1105  0.0500
 1504BOLB   C3A36079   7.818  14.185  13.286 -0.1433 -0.4254  0.3111
 1504BOLB   C4A36080   7.559  14.475  12.938  0.0277  0.1025  0.1435
 1504BOLB   C1B36081   8.042  13.839  12.921  0.0418  0.0357 -0.2660
 1504BOLB   C2B36082   7.719  14.059  12.732 -0.1516  0.0293 -0.0728
 1504BOLB   C3B36083   7.404  14.277  12.501  0.0546 -0.0313 -0.1819
 1504BOLB   C4B36084   7.159  14.540  12.478 -0.2261 -0.1118 -0.1362
 1504BOLB   NC236085   5.552  15.588  11.678 -0.1628 -0.2316 -0.1374
 1504BOLB   PO236086   5.912  15.770  11.858  0.2250 -0.0759  0.0492
 1504BOLB   GL336087   6.166  15.465  12.050  0.0763 -0.2392  0.1835
 1504BOLB   GL436088   6.283  15.202  11.800 -0.0603 -0.3302 -0.2048
 1504BOLB   C1C36089   6.632  15.447  12.205 -0.2171 -0.1785  0.2788
 1504BOLB   C2C36090   6.905  15.255  12.483 -0.3028  0.1811  0.1581
 1504BOLB   C3C36091   7.138  15.011  12.716  0.0857 -0.1389  0.1066
 1504BOLB   C4C36092   7.557  14.895  12.829  0.1574  0.0281 -0.2371
 1504BOLB   C1D36093   6.616  15.022  11.988  0.2239  0.0263  0.0655
 1504BOLB   C2D36094   6.746  14.818  12.312 -0.2870  0.0027  0.0576
 1504BOLB   C3D36095   6.743  14.717  12.774  0.0853  0.2113 -0.0439
 1504BOLB   C4D36096   6.998  14.307  12.915  0.0333 -0.0948  0.0865
 1505BOLB   NC136097  17.048  17.828  12.866 -0.1402 -0.2013  0.1695
 1505BOLB   PO136098  17.393  17.820  12.983 -0.1412  0.0103 -0.0188
 1505BOLB   GL136099  17.615  18.182  13.085 -0.1633  0.2404 -0.0135
 1505BOLB   GL236100  17.963  18.207  13.188 -0.0056 -0.1850  0.1198
 1505BOLB   C1A36101  17.735  18.563  12.923 -0.2032 -0.2506  0.0127
 1505BOLB   C2A36102  17.948  19.027  12.974  0.1416  0.2718  0.1917
 1505BOLB   C3A36103  18.356  19.350  13.095  0.1565  0.4850 -0.0248
 1505BOLB   C4A36104  18.683  19.633  13.102 -0.6705 -0.3435 -0.2145
 1505BOLB   C1B36105  18.210  18.603  13.255 -0.1348  0.0736  0.2842
 1505BOLB   C2B36106  18.504  18.839  13.228 -0.1332  0.0334  0.1905
 1505BOLB   C3B36107  18.777  19.240  13.408 -0.3414  0.3769  0.1529
 1505BOLB   C4B36108  19.141  19.488  13.263  0.3538 -0.0542 -0.2012
 1505BOLB   NC236109  18.157  21.706  11.585  0.1530 -0.0909  0.1805
 1505BOLB   PO236110  18.440  21.673  11.939 -0.1752  0.0326  0.2514
 1505BOLB   GL336111  18.858  21.237  11.981  0.0081  0.2154  0.2157
 1505BOLB   GL436112  18.924  21.168  11.759  0.2901 -0.0072 -0.1112
 1505BOLB   C1C36113  19.037  20.954  12.342  0.1731  0.2957  0.1443
 1505BOLB   C2C36114  18.898  20.554  12.491  0.0866 -0.1208 -0.2313
 1505BOLB   C3C36115  18.781  20.141  12.560 -0.2194  0.0418  0.0006
 1505BOLB   C4C36116  18.738  19.921  12.834 -0.3419  0.1235  0.2701
 1505BOLB   C1D36117  18.585  20.869  11.811 -0.2226 -0.1287 -0.3309
 1505BOLB   C2D36118  18.543  20.448  11.663  0.2164 -0.2966 -0.0056
 1505BOLB   C3D36119  18.299  20.127  11.473 -0.2332 -0.3825  0.1375
 1505BOLB   C4D36120  17.907  19.844  11.384  0.0669 -0.1067 -0.1221
 1506BOLB   NC136121  10.329   6.482  20.623  0.1348 -0.0509 -0.1265
 1506BOLB   PO136122  10.630   6.297  20.902  0.3054 -0.4501 -0.1887
 1506BOLB   GL136123  10.579   6.179  21.257 -0.0661  0.1370  0.2922
 1506BOLB   GL236124  10.620   6.385  21.426 -0.1721 -0.2471 -0.1010
 1506BOLB   C1A36125  10.165   6.049  21.273 -0.2259  0.1693  0.0285
 1506BOLB   C2A36126   9.647   6.106  21.352  0.1725  0.0251 -0.0415
 1506BOLB   C3A36127   9.377   5.900  21.392  0.2369 -0.0890  0.0097
 1506BOLB   C4A36128   9.278   5.658  21.726 -0.0625  0.1203 -0.1469
 1506BOLB   C1B36129  10.430   6.199  21.804  0.1723 -0.0436 -0.0103
 1506BOLB   C2B36130  10.069   6.060  21.901  0.1052  0.1367 -0.0006
 1506BOLB   C3B36131   9.571   5.958  22.061  0.3842  0.0185 -0.3060
 1506BOLB   C4B36132   9.327   5.814  22.334 -0.1874  0.0413  0.0302
 1506BOLB   NC236133   7.819   4.901  23.624 -0.3193  0.1871  0.0359
 1506BOLB   PO236134   8.191   4.845  23.902  0.1138 -0.2257  0.2766
 1506BOLB   GL336135   8.346   5.104  23.551  0.1547  0.1497 -0.1707
 1506BOLB   GL436136   8.587   5.326  23.618 -0.0747  0.0846 -0.0486
 1506BOLB   C1C36137   8.577   5.268  23.111 -0.3676  0.5470 -0.3568
 1506BOLB   C2C36138   8.769   5.432  22.771  0.0529 -0.0069 -0.0285
 1506BOLB   C3C36139   9.013   5.326  22.305  0.0669 -0.3128 -0.0649
 1506BOLB   C4C36140   9.144   5.280  21.944 -0.2446 -0.0168  0.2266
 1506BOLB   C1D36141   8.786   5.790  23.653  0.2192  0.2206  0.2899
 1506BOLB   C2D36142   9.187   6.026  23.878  0.0645 -0.3841 -0.0611
 1506BOLB   C3D36143   9.472   6.308  24.063 -0.0990 -0.0040  0.1576
 1506BOLB   C4D36144   9.558   6.705  24.233 -0.1362 -0.0368 -0.3187
 1507BOLB   NC136145  16.198  17.288  20.919 -0.1671  0.0897 -0.0157
 1507BOLB   PO136146  16.601  17.372  21.122  0.2882 -0.5048  0.0128
 1507BOLB   GL136147  16.783  17.712  21.281  0.0802 -0.0580  0.0419
 1507BOLB   GL236148  17.113  17.734  21.273  0.1049  0.1995  0.1947
 1507BOLB   C1A36149  16.600  18.038  21.562 -0.0186  0.0344 -0.0616
 1507BOLB   C2A36150  16.331  17.913  21.939 -0.3584 -0.0362 -0.1628
 1507BOLB   C3A36151  16.274  18.089  22.366  0.4643  0.2682 -0.1442
 1507BOLB   C4A36152  16.558  18.309  22.693  0.0592  0.1537  0.1156
 1507BOLB   C1B36153  17.229  18.068  21.525 -0.0766  0.2590 -0.0203
 1507BOLB   C2B36154  17.030  18.098  21.965 -0.4695 -0.1552 -0.0724
 1507BOLB   C3B36155  16.696  18.253  22.126 -0.2520 -0.1446 -0.0952
 1507BOLB   C4B36156  16.437  18.375  21.869  0.0091 -0.1735 -0.0061
 1507BOLB   NC236157  17.554  20.171  23.997  0.1115 -0.2222 -0.0423
 1507BOLB   PO236158  17.982  20.163  23.935 -0.0406 -0.0109  0.4138
 1507BOLB   GL336159  17.756  19.734  23.693 -0.2138  0.1161 -0.3593
 1507BOLB   GL436160  17.995  19.617  23.455 -0.0364  0.0735  0.1146
 1507BOLB   C1C36161  17.464  19.483  23.444 -0.5556 -0.1782 -0.2139
 1507BOLB   C2C36162  17.210  19.146  23.341  0.0276  0.0378 -0.0158
 1507BOLB   C3C36163  17.007  18.957  22.947 -0.3565 -0.1459  0.0483
 1507BOLB   C4C36164  16.578  18.788  22.789 -0.3078 -0.0101  0.0776
 1507BOLB   C1D36165  17.860  19.245  23.136 -0.1217  0.1753  0.1469
 1507BOLB   C2D36166  17.578  18.893  22.962 -0.1251 -0.1114 -0.0257
 1507BOLB   C3D36167  17.513  18.669  22.572 -0.2118  0.0022  0.1089
 1507BOLB   C4D36168  17.376  18.343  22.276 -0.1925  0.1150 -0.1007
 1508BOLB   NC136169  19.205  15.115  10.328  0.3569  0.2738 -0.0966
 1508BOLB   PO136170  19.444  15.065   9.905  0.1453  0.4117  0.1388
 1508BOLB   GL136171  19.467  15.268   9.488 -0.2370 -0.2190  0.3151
 1508BOLB   GL236172  19.431  15.575   9.558 -0.1967  0.0970  0.0007
 1508BOLB   C1A36173  19.541  15.076   9.152  0.3254 -0.3736  0.0382
 1508BOLB   C2A36174  19.861  14.914   8.917  0.1139 -0.0027  0.4208
 1508BOLB   C3A36175  20.192  14.867   8.727 -0.0847 -0.0805  0.0936
 1508BOLB   C4A36176  20.481  15.125   8.466  0.0400 -0.0136  0.1840
 1508BOLB   C1B36177  19.735  15.784   9.378 -0.2586  0.1930 -0.2048
 1508BOLB   C2B36178  20.181  15.788   9.225 -0.0077 -0.1565 -0.1556
 1508BOLB   C3B36179  20.296  16.246   9.318 -0.3575 -0.0956 -0.0694
 1508BOLB   C4B36180  20.500  16.616   9.510  0.1437 -0.1226 -0.2169
 1508BOLB   NC236181  20.699  16.029   5.583  0.1073 -0.1940 -0.0535
 1508BOLB   PO236182  20.969  15.941   5.880 -0.3503  0.1987  0.0504
 1508BOLB   GL336183  20.902  15.801   6.286 -0.1543  0.1629 -0.2036
 1508BOLB   GL436184  20.573  15.933   6.391 -0.0570 -0.0821 -0.0613
 1508BOLB   C1C36185  20.917  15.608   6.745  0.1758  0.1549  0.0616
 1508BOLB   C2C36186  20.783  15.764   7.255 -0.0962 -0.2879 -0.0154
 1508BOLB   C3C36187  20.748  15.627   7.741 -0.0376  0.2679 -0.1059
 1508BOLB   C4C36188  20.494  15.493   8.070 -0.0410  0.1746 -0.3089
 1508BOLB   C1D36189  20.339  15.585   6.562  0.0024 -0.0123  0.0679
 1508BOLB   C2D36190  19.987  15.269   6.565  0.0376 -0.1776 -0.2940
 1508BOLB   C3D36191  19.791  14.969   6.880  0.1108 -0.0707  0.0720
 1508BOLB   C4D36192  19.475  15.060   7.175 -0.2328  0.1384 -0.1385
 1509BOLB   NC136193  15.763  13.514  23.532 -0.3378  0.0069 -0.0450
 1509BOLB   PO136194  15.499  13.881  23.403 -0.0301  0.2586 -0.0194
 1509BOLB   GL136195  15.494  13.801  23.889 -0.1966  0.1461  0.0949
 1509BOLB   GL236196  15.706  13.708  24.043  0.0220 -0.0087  0.2234
 1509BOLB   C1A36197  15.213  13.721  24.139 -0.1056 -0.0121 -0.0052
 1509BOLB   C2A36198  15.133  13.696  24.475  0.0767 -0.2634  0.0050
 1509BOLB   C3A36199  15.190  13.574  24.907  0.1253  0.1575  0.2134
 1509BOLB   C4A36200  15.285  13.582  25.307  0.1993 -0.3513  0.4517
 1509BOLB   C1B36201  15.625  13.804  24.397 -0.2398  0.0681 -0.1058
 1509BOLB   C2B36202  15.366  14.051  24.687 -0.2352  0.0198 -0.2896
 1509BOLB   C3B36203  15.168  14.419  24.902  0.4076 -0.4586  0.2747
 1509BOLB   C4B36204  15.364  14.633  25.328  0.1609  0.0112 -0.0639
 1509BOLB   NC236205  14.245  14.108  27.757 -0.2199  0.3062 -0.0225
 1509BOLB   PO236206  14.269  13.945  27.301  0.1643 -0.0604  0.1938
 1509BOLB   GL336207  14.543  14.118  26.944  0.0735  0.0707 -0.0487
 1509BOLB   GL436208  14.645  14.364  26.737  0.4296 -0.0276  0.0992
 1509BOLB   C1C36209  14.873  13.879  26.697  0.0323  0.0802  0.3238
 1509BOLB   C2C36210  15.014  13.604  26.366 -0.1602 -0.0053  0.0878
 1509BOLB   C3C36211  14.997  13.501  25.972  0.5133 -0.2013 -0.0462
 1509BOLB   C4C36212  15.107  13.401  25.583 -0.0874  0.2707  0.4791
 1509BOLB   C1D36213  14.934  14.300  26.328  0.1037  0.1632 -0.1827
 1509BOLB   C2D36214  15.299  14.191  26.082 -0.1266 -0.1084  0.1467
 1509BOLB   C3D36215  15.661  14.248  25.816  0.4068 -0.0590 -0.1326
 1509BOLB   C4D36216  15.877  14.602  25.503  0.1819  0.4316  0.1307
 1510BOLB   NC136217  16.423   8.719  23.677 -0.0674 -0.3101 -0.2151
 1510BOLB   PO136218  16.523   9.182  23.592 -0.0583 -0.1410  0.2039
 1510BOLB   GL136219  16.653   8.993  23.989 -0.0181 -0.1513  0.0586
 1510BOLB   GL236220  16.700   8.600  24.063 -0.0232  0.0135 -0.0430
 1510BOLB   C1A36221  16.935   8.936  24.427  0.2422  0.1693  0.0521
 1510BOLB   C2A36222  17.105   8.737  24.718  0.1069  0.0447 -0.2064
 1510BOLB   C3A36223  17.048   8.759  25.182  0.0549 -0.0204  0.3164
 1510BOLB   C4A36224  16.785   8.674  25.579 -0.1133  0.0099 -0.1630
 1510BOLB   C1B36225  16.630   8.414  24.486  0.0052 -0.2403 -0.1818
 1510BOLB   C2B36226  16.743   8.173  24.778  0.1434 -0.4133  0.1802
 1510BOLB   C3B36227  16.882   8.235  25.179 -0.1603  0.2660 -0.4045
 1510BOLB   C4B36228  17.296   8.220  25.273 -0.4823  0.2871 -0.3896
 1510BOLB   NC236229  15.230   7.827  27.069  0.0051 -0.1367 -0.0021
 1510BOLB   PO236230  15.673   7.640  27.281  0.1471 -0.2910 -0.2052
 1510BOLB   GL336231  15.704   7.582  26.866  0.1954 -0.0112  0.4593
 1510BOLB   GL436232  15.494   7.293  26.599  0.1162  0.0835 -0.0147
 1510BOLB   C1C36233  16.016   7.795  26.542  0.0119  0.1805 -0.1557
 1510BOLB   C2C36234  16.157   8.158  26.438  0.2006  0.3477 -0.0852
 1510BOLB   C3C36235  16.515   8.377  26.316 -0.0959 -0.1853 -0.0559
 1510BOLB   C4C36236  16.622   8.639  26.000 -0.3988 -0.0536  0.0217
 1510BOLB   C1D36237  15.223   7.069  26.340  0.0512 -0.2471  0.0364
 1510BOLB   C2D36238  14.775   6.993  26.116  0.3036 -0.1659  0.2246
 1510BOLB   C3D36239  14.607   7.216  25.760  0.1832  0.3156 -0.1142
 1510BOLB   C4D36240  14.679   7.206  25.402 -0.0497  0.0408  0.1049
 1511BOLB   NC136241  28.104   6.906  13.948  0.0310 -0.5351  0.2282
 1511BOLB   PO136242  27.845   6.547  13.868 -0.0040 -0.2437  0.1040
 1511BOLB   GL136243  27.391   6.863  13.797  0.1961  0.2465 -0.2255
 1511BOLB   GL236244  27.402   6.899  13.420  0.1049 -0.2396 -0.0386
 1511BOLB   C1A36245  26.933   6.993  13.923 -0.0517 -0.1171  0.1143
 1511BOLB   C2A36246  26.604   7.237  14.125  0.1321 -0.1346  0.0644
 1511BOLB   C3A36247  26.170   7.347  14.368 -0.0731  0.1177  0.1906
 1511BOLB   C4A36248  25.782   7.385  14.218  0.1971  0.0514  0.3869
 1511BOLB   C1B36249  27.044   6.964  13.326  0.2616  0.2622 -0.2449
 1511BOLB   C2B36250  26.673   7.031  13.232 -0.1548  0.3967  0.0633
 1511BOLB   C3B36251  26.354   6.979  12.902  0.0091  0.0156  0.0440
 1511BOLB   C4B36252  26.171   7.373  12.831  0.2185  0.0553 -0.0728
 1511BOLB   NC236253  23.691   7.858  14.172  0.0554 -0.1786  0.1182
 1511BOLB   PO236254  23.654   7.471  13.940 -0.1044 -0.2387 -0.0518
 1511BOLB   GL336255  23.995   7.472  14.052 -0.4672  0.2322  0.1683
 1511BOLB   GL436256  24.196   7.405  13.740 -0.1015 -0.3991  0.2131
 1511BOLB   C1C36257  24.352   7.173  14.252 -0.2678  0.1319  0.0230
 1511BOLB   C2C36258  24.764   6.990  14.257 -0.3748  0.0926  0.1952
 1511BOLB   C3C36259  25.022   7.082  13.950 -0.2563  0.0465  0.1892
 1511BOLB   C4C36260  25.444   7.188  13.909 -0.0416 -0.2125 -0.1686
 1511BOLB   C1D36261  24.650   7.413  13.667  0.2943  0.2424 -0.2553
 1511BOLB   C2D36262  24.811   7.180  13.305 -0.0670  0.1134  0.4222
 1511BOLB   C3D36263  24.876   6.945  12.890  0.2841 -0.0385  0.0808
 1511BOLB   C4D36264  24.682   6.627  12.520 -0.0489  0.3046 -0.2423
 1512BOLB   NC136265   8.307  10.029  17.402  0.0874  0.0022 -0.2043
 1512BOLB   PO136266   8.182   9.752  17.095 -0.2510 -0.2720 -0.1364
 1512BOLB   GL136267   7.727   9.618  17.096  0.0657  0.1578  0.0749
 1512BOLB   GL236268   7.582   9.400  16.795 -0.0165  0.1279 -0.1695
 1512BOLB   C1A36269   7.278   9.634  17.140 -0.0898 -0.3082  0.0690
 1512BOLB   C2A36270   6.847   9.618  17.123 -0.0972 -0.0715 -0.0377
 1512BOLB   C3A36271   6.491   9.592  17.382 -0.1427  0.4002  0.2357
 1512BOLB   C4A36272   6.152   9.396  17.476 -0.0863  0.0311  0.0557
 1512BOLB   C1B36273   7.155   9.427  16.621 -0.0638  0.3743 -0.0918
 1512BOLB   C2B36274   6.783   9.850  16.668  0.1104 -0.0875 -0.0164
 1512BOLB   C3B36275   6.741  10.245  16.789  0.4569  0.0959  0.1637
 1512BOLB   C4B36276   7.135  10.477  17.041 -0.1061 -0.1574 -0.0298
 1512BOLB   NC236277   3.989  10.304  18.227  0.1323  0.2801 -0.2721
 1512BOLB   PO236278   4.219  10.185  18.581  0.1346  0.1309 -0.0065
 1512BOLB   GL336279   4.511  10.048  18.323 -0.1660  0.3215  0.0544
 1512BOLB   GL436280   4.510   9.978  17.914  0.1158  0.0158 -0.1308
 1512BOLB   C1C36281   4.543   9.598  18.276  0.4388 -0.0195  0.0463
 1512BOLB   C2C36282   4.920   9.430  17.908 -0.0186 -0.1592 -0.0566
 1512BOLB   C3C36283   5.327   9.614  17.826 -0.2850 -0.3760  0.1086
 1512BOLB   C4C36284   5.756   9.652  17.759 -0.0710 -0.2601 -0.0177
 1512BOLB   C1D36285   4.890   9.912  18.095 -0.0129  0.2924  0.2491
 1512BOLB   C2D36286   5.229  10.227  18.279  0.1166  0.0068  0.4007
 1512BOLB   C3D36287   5.367  10.585  18.214 -0.0229 -0.0039 -0.1549
 1512BOLB   C4D36288   5.052  10.742  18.321  0.2693  0.2261  0.1861
 1513BOLB   NC136289  21.953  16.199  15.427 -0.3410  0.4307  0.1048
 1513BOLB   PO136290  22.311  16.163  15.255  0.0145 -0.1050  0.3010
 1513BOLB   GL136291  22.730  16.388  15.392  0.0252  0.1542 -0.0308
 1513BOLB   GL236292  22.696  16.729  15.506  0.2412  0.1565  0.2989
 1513BOLB   C1A36293  23.226  16.374  15.375  0.2076 -0.0124 -0.0093
 1513BOLB   C2A36294  23.437  16.802  15.276  0.2246  0.1934 -0.3175
 1513BOLB   C3A36295  23.506  17.203  15.369  0.2131 -0.2009  0.1509
 1513BOLB   C4A36296  23.343  17.541  15.512 -0.0833 -0.0060  0.2589
 1513BOLB   C1B36297  22.980  16.836  15.444 -0.3328 -0.1081 -0.0362
 1513BOLB   C2B36298  23.127  17.051  15.033  0.0706 -0.0831 -0.1449
 1513BOLB   C3B36299  23.407  17.095  14.681  0.1302  0.3003  0.1203
 1513BOLB   C4B36300  23.616  17.203  14.327 -0.1310 -0.1860  0.0636
 1513BOLB   NC236301  24.347  19.783  16.470  0.0779  0.0961  0.2981
 1513BOLB   PO236302  24.266  19.934  16.039  0.0320 -0.0827 -0.0105
 1513BOLB   GL336303  23.995  19.490  16.012  0.0113  0.0600  0.1417
 1513BOLB   GL436304  23.917  19.299  16.274  0.0003 -0.0517  0.3047
 1513BOLB   C1C36305  23.777  19.083  15.878 -0.1121 -0.0100 -0.3173
 1513BOLB   C2C36306  23.511  18.783  15.729 -0.1960  0.0195 -0.1188
 1513BOLB   C3C36307  23.214  18.453  15.704 -0.2008 -0.1425 -0.0453
 1513BOLB   C4C36308  23.129  17.970  15.580  0.2919  0.3443  0.2893
 1513BOLB   C1D36309  23.446  19.259  16.503  0.1699  0.0658 -0.1570
 1513BOLB   C2D36310  23.181  18.945  16.514  0.3743  0.1402 -0.4259
 1513BOLB   C3D36311  22.911  18.664  16.520 -0.0297  0.0994  0.1772
 1513BOLB   C4D36312  22.461  18.476  16.582 -0.0271 -0.3704  0.1840
 1514BOLB   NC136313  19.371  10.301   9.859 -0.2672 -0.0808  0.1871
 1514BOLB   PO136314  19.554  10.389   9.448 -0.2445 -0.1266  0.1546
 1514BOLB   GL136315  19.816  10.588   9.084 -0.1133 -0.2874  0.2613
 1514BOLB   GL236316  19.888  10.920   8.923  0.1395  0.1483  0.1503
 1514BOLB   C1A36317  19.987  10.571   8.600  0.1657  0.2287 -0.0834
 1514BOLB   C2A36318  20.142  10.577   8.167 -0.1305  0.0842  0.2195
 1514BOLB   C3A36319  20.296  10.645   7.749 -0.2140  0.2684  0.1438
 1514BOLB   C4A36320  20.403  10.357   7.393  0.1297 -0.0505  0.0262
 1514BOLB   C1B36321  20.035  11.087   8.682 -0.0380 -0.0132 -0.3012
 1514BOLB   C2B36322  20.391  11.141   8.382 -0.0969 -0.4157  0.1197
 1514BOLB   C3B36323  20.573  11.431   8.277 -0.0330  0.1718 -0.2109
 1514BOLB   C4B36324  20.729  11.777   8.176  0.1030 -0.2637 -0.0150
 1514BOLB   NC236325  21.345   9.017   4.913  0.1115 -0.0077  0.2455
 1514BOLB   PO236326  21.341   9.233   5.209 -0.2098  0.0200 -0.1078
 1514BOLB   GL336327  21.219   9.353   5.684  0.4127 -0.2299 -0.1333
 1514BOLB   GL436328  21.434   9.098   5.839  0.1568  0.0706 -0.2048
 1514BOLB   C1C36329  21.086   9.562   6.127  0.0020 -0.1185 -0.2351
 1514BOLB   C2C36330  21.035   9.739   6.569  0.2880  0.1306 -0.1213
 1514BOLB   C3C36331  20.766   9.994   6.732  0.4221  0.1345 -0.1343
 1514BOLB   C4C36332  20.514  10.257   6.948  0.0333  0.0143  0.0273
 1514BOLB   C1D36333  21.510   9.238   6.217  0.0924  0.1070  0.1206
 1514BOLB   C2D36334  21.490   9.455   6.688  0.1012 -0.0927  0.2134
 1514BOLB   C3D36335  21.323   9.822   6.951  0.2572 -0.3146  0.1058
 1514BOLB   C4D36336  21.131  10.082   7.309  0.1487 -0.1274 -0.0183
 1515BOLB   NC136337  16.005  17.893  19.934 -0.0656 -0.1934 -0.1275
 1515BOLB   PO136338  16.230  17.805  20.353  0.0968 -0.1088  0.1812
 1515BOLB   GL136339  16.176  18.068  20.671  0.0458 -0.1278 -0.4438
 1515BOLB   GL236340  15.878  18.110  20.937  0.0036 -0.1942  0.0112
 1515BOLB   C1A36341  16.382  18.256  20.914  0.2725  0.4416 -0.0514
 1515BOLB   C2A36342  16.413  18.448  21.294 -0.3756 -0.5687 -0.0830
 1515BOLB   C3A36343  16.265  18.771  21.660 -0.3071 -0.2732  0.0492
 1515BOLB   C4A36344  16.225  19.151  21.930 -0.1018  0.0964 -0.0231
 1515BOLB   C1B36345  15.854  18.534  21.204 -0.0358 -0.3824 -0.3069
 1515BOLB   C2B36346  15.830  18.945  21.476 -0.1859  0.0618 -0.0191
 1515BOLB   C3B36347  15.646  19.358  21.340 -0.0797 -0.0025 -0.1231
 1515BOLB   C4B36348  15.205  19.639  21.104 -0.0631 -0.1788  0.1107
 1515BOLB   NC236349  16.651  20.846  23.444  0.2650  0.0887  0.0810
 1515BOLB   PO236350  16.764  21.126  23.188 -0.3620 -0.1218 -0.4040
 1515BOLB   GL336351  16.544  20.749  22.886 -0.4026 -0.1414  0.0927
 1515BOLB   GL436352  16.426  20.512  23.193  0.0763  0.0447 -0.2280
 1515BOLB   C1C36353  16.847  20.349  22.749 -0.0534  0.0183 -0.0313
 1515BOLB   C2C36354  16.751  20.140  22.407 -0.4487  0.2173  0.0471
 1515BOLB   C3C36355  16.717  19.800  22.193 -0.2623 -0.3513  0.0744
 1515BOLB   C4C36356  16.471  19.587  21.981 -0.0628  0.1522 -0.1833
 1515BOLB   C1D36357  16.329  20.282  22.791  0.0047  0.1866  0.1472
 1515BOLB   C2D36358  16.380  19.838  22.646 -0.0549 -0.0909  0.1560
 1515BOLB   C3D36359  16.209  19.696  22.410 -0.2730 -0.1487 -0.0015
 1515BOLB   C4D36360  15.857  19.693  22.162 -0.4831 -0.2732 -0.1055
 1516BOLB   NC136361  18.850  14.299  22.479  0.2075 -0.0605 -0.0507
 1516BOLB   PO136362  19.040  14.778  22.556 -0.0855  0.1228  0.0978
 1516BOLB   GL136363  19.065  14.924  22.910 -0.0768 -0.0631 -0.3127
 1516BOLB   GL236364  18.861  14.750  23.058 -0.2568 -0.2544 -0.0639
 1516BOLB   C1A36365  18.990  15.378  23.024  0.0611 -0.1977 -0.0522
 1516BOLB   C2A36366  19.055  15.672  23.285 -0.1395 -0.2181  0.1029
 1516BOLB   C3A36367  18.959  15.852  23.724  0.3762  0.2845 -0.1982
 1516BOLB   C4A36368  18.944  16.179  24.004 -0.4560 -0.1225  0.1522
 1516BOLB   C1B36369  19.046  14.873  23.429 -0.0817  0.2552 -0.0612
 1516BOLB   C2B36370  18.789  14.681  23.804 -0.0648  0.1341  0.0128
 1516BOLB   C3B36371  18.708  14.863  24.221 -0.1206  0.1252  0.2417
 1516BOLB   C4B36372  18.703  15.093  24.698  0.2137 -0.2583  0.1350
 1516BOLB   NC236373  20.361  18.005  24.802 -0.3592  0.1732 -0.0843
 1516BOLB   PO236374  20.396  17.624  25.045  0.0970 -0.1120  0.1598
 1516BOLB   GL336375  20.097  17.591  24.673  0.0074 -0.2031  0.1457
 1516BOLB   GL436376  20.278  17.454  24.451 -0.1705  0.1196  0.2301
 1516BOLB   C1C36377  19.676  17.505  24.496 -0.1469  0.0080 -0.3680
 1516BOLB   C2C36378  19.423  17.267  24.513  0.3485 -0.2064  0.0029
 1516BOLB   C3C36379  19.231  16.871  24.442 -0.1410 -0.1236  0.0541
 1516BOLB   C4C36380  19.028  16.545  24.160 -0.2596  0.0644 -0.0319
 1516BOLB   C1D36381  20.068  17.151  24.309  0.2674  0.0911 -0.4026
 1516BOLB   C2D36382  19.764  16.872  24.075 -0.1510 -0.1350 -0.4017
 1516BOLB   C3D36383  19.489  16.662  23.942 -0.0183  0.1489  0.1347
 1516BOLB   C4D36384  19.306  16.753  23.564  0.1904 -0.2591  0.2451
 1517BOLB   NC136385   8.809   4.239  24.042  0.2447  0.1325  0.0588
 1517BOLB   PO136386   8.929   3.957  23.721 -0.2783  0.0621  0.1813
 1517BOLB   GL136387   8.865   4.194  23.433  0.1184 -0.3254 -0.1009
 1517BOLB   GL236388   8.889   3.978  23.240  0.1020 -0.1970  0.1635
 1517BOLB   C1A36389   9.078   4.440  22.979  0.1171 -0.0416 -0.4319
 1517BOLB   C2A36390   9.342   4.549  22.588 -0.0935  0.2921 -0.3482
 1517BOLB   C3A36391   9.265   4.408  22.058 -0.1013 -0.3265 -0.2495
 1517BOLB   C4A36392   8.988   4.653  21.766  0.2790  0.0248 -0.2554
 1517BOLB   C1B36393   8.624   4.184  22.844  0.3627 -0.1130  0.1260
 1517BOLB   C2B36394   8.918   4.325  22.472 -0.1386 -0.3489 -0.0244
 1517BOLB   C3B36395   8.929   4.785  22.374 -0.0104 -0.1623  0.1199
 1517BOLB   C4B36396   8.646   5.075  22.466 -0.0344  0.2201  0.0598
 1517BOLB   NC236397   7.053   4.085  22.221 -0.0179  0.0432  0.2186
 1517BOLB   PO236398   7.057   4.353  22.477  0.1500 -0.1695  0.0377
 1517BOLB   GL336399   7.207   4.620  22.058 -0.0464 -0.1623  0.0115
 1517BOLB   GL436400   7.007   4.874  21.843  0.1081 -0.2120 -0.0680
 1517BOLB   C1C36401   7.528   4.869  21.783  0.2182 -0.1959  0.1353
 1517BOLB   C2C36402   7.944   5.107  21.828  0.0720  0.0242 -0.2248
 1517BOLB   C3C36403   8.374   5.172  21.827  0.0936  0.0232  0.0101
 1517BOLB   C4C36404   8.740   5.029  21.846 -0.0540  0.1663 -0.1265
 1517BOLB   C1D36405   7.213   5.255  21.706  0.1519  0.0339 -0.1255
 1517BOLB   C2D36406   7.589   5.362  21.553 -0.0525 -0.2586  0.0580
 1517BOLB   C3D36407   8.015   5.475  21.435  0.0307  0.0354 -0.0259
 1517BOLB   C4D36408   8.431   5.480  21.286 -0.0604 -0.1393 -0.2338
 1518BOLB   NC136409  21.489  16.113  19.473 -0.1024 -0.1114  0.2999
 1518BOLB   PO136410  21.607  15.707  19.537 -0.1132 -0.1896  0.3433
 1518BOLB   GL136411  21.795  15.919  19.814 -0.0124  0.1796  0.0227
 1518BOLB   GL236412  21.989  16.080  19.574 -0.1524 -0.2503  0.1598
 1518BOLB   C1A36413  21.857  15.973  20.202 -0.1767  0.2185  0.1137
 1518BOLB   C2A36414  22.044  16.310  20.447  0.1608  0.1823 -0.1475
 1518BOLB   C3A36415  22.197  16.744  20.418  0.1672  0.0165  0.0641
 1518BOLB   C4A36416  22.324  17.118  20.499  0.2240 -0.0702 -0.0784
 1518BOLB   C1B36417  22.223  16.326  19.866  0.2535  0.4079  0.0270
 1518BOLB   C2B36418  22.509  16.290  20.315 -0.0120  0.1890  0.1326
 1518BOLB   C3B36419  22.788  16.581  20.450 -0.1567  0.0495  0.2367
 1518BOLB   C4B36420  23.041  16.938  20.480  0.2278  0.1167  0.0969
 1518BOLB   NC236421  23.366  18.129  22.326  0.2221  0.1672  0.1445
 1518BOLB   PO236422  23.723  17.957  22.125 -0.2422 -0.1913 -0.0486
 1518BOLB   GL336423  23.659  17.636  21.810 -0.0928  0.0402 -0.0219
 1518BOLB   GL436424  23.915  17.578  21.738 -0.2320 -0.4120 -0.0361
 1518BOLB   C1C36425  23.608  17.637  21.365  0.1992  0.2138  0.2294
 1518BOLB   C2C36426  23.485  17.171  21.159 -0.0041  0.0991 -0.3210
 1518BOLB   C3C36427  23.067  17.013  21.005 -0.0171 -0.0378 -0.1621
 1518BOLB   C4C36428  22.675  17.110  20.778  0.3315 -0.3647 -0.1564
 1518BOLB   C1D36429  23.962  17.310  21.388  0.1366  0.0398  0.0807
 1518BOLB   C2D36430  24.120  17.263  21.005  0.1264  0.2304 -0.1858
 1518BOLB   C3D36431  23.853  17.042  20.710  0.0786 -0.0152  0.0343
 1518BOLB   C4D36432  23.453  16.991  20.696 -0.0701  0.1809  0.3703
 1519BOLB   NC136433  15.260  19.179  17.050  0.3169  0.1172 -0.1204
 1519BOLB   PO136434  15.435  19.303  16.789 -0.4998  0.1587  0.3475
 1519BOLB   GL136435  15.307  19.704  16.834 -0.1487  0.0526 -0.0505
 1519BOLB   GL236436  15.047  19.677  17.032  0.0169  0.4673 -0.1337
 1519BOLB   C1A36437  15.431  20.055  17.015 -0.1488  0.1739  0.2826
 1519BOLB   C2A36438  15.614  20.453  16.933 -0.1268 -0.0490 -0.0877
 1519BOLB   C3A36439  15.635  20.841  16.914 -0.0597 -0.0681  0.5411
 1519BOLB   C4A36440  15.378  21.266  16.976 -0.2340 -0.5024  0.2282
 1519BOLB   C1B36441  14.990  19.959  17.313  0.0088  0.3940  0.3777
 1519BOLB   C2B36442  14.990  20.304  17.514  0.0107 -0.1466  0.0657
 1519BOLB   C3B36443  14.900  20.627  17.691  0.1454  0.1635 -0.1882
 1519BOLB   C4B36444  14.910  21.052  17.709 -0.0851 -0.0101  0.1969
 1519BOLB   NC236445  13.137  22.505  17.049 -0.4770  0.0276  0.1664
 1519BOLB   PO236446  13.576  22.665  16.893  0.0970 -0.1212  0.0870
 1519BOLB   GL336447  13.723  22.285  17.040  0.2104 -0.2011  0.0100
 1519BOLB   GL436448  13.355  22.094  17.129  0.3812 -0.0483  0.1693
 1519BOLB   C1C36449  13.908  21.873  17.198 -0.0912 -0.3566  0.0002
 1519BOLB   C2C36450  14.225  21.720  16.983 -0.1765 -0.2209  0.3285
 1519BOLB   C3C36451  14.498  21.501  16.867  0.0295 -0.1901 -0.0379
 1519BOLB   C4C36452  14.965  21.370  16.960  0.0155 -0.0996  0.0566
 1519BOLB   C1D36453  13.246  21.791  16.841  0.1222  0.1930 -0.3036
 1519BOLB   C2D36454  13.040  21.555  16.839  0.0092 -0.0119 -0.1699
 1519BOLB   C3D36455  13.074  21.139  16.829 -0.1197  0.0723 -0.1426
 1519BOLB   C4D36456  12.851  20.882  16.744 -0.1216 -0.1008  0.0253
 1520BOLB   NC136457  23.754   9.482  12.567  0.2563 -0.2416  0.2745
 1520BOLB   PO136458  23.704   9.734  12.417  0.1036  0.5825 -0.2720
 1520BOLB   GL136459  23.975   9.821  12.178  0.0789  0.1491  0.0144
 1520BOLB   GL236460  23.994  10.013  11.924  0.1420 -0.2338  0.1050
 1520BOLB   C1A36461  24.320   9.583  11.958  0.2251 -0.0814  0.3740
 1520BOLB   C2A36462  24.737   9.775  11.793  0.0085  0.0093 -0.0142
 1520BOLB   C3A36463  25.120  10.003  11.753  0.3207 -0.0426 -0.1332
 1520BOLB   C4A36464  25.466  10.224  11.812  0.1747 -0.1150 -0.0588
 1520BOLB   C1B36465  24.239   9.891  11.583 -0.0376 -0.0922  0.0733
 1520BOLB   C2B36466  24.412   9.655  11.326 -0.1676 -0.0975 -0.1107
 1520BOLB   C3B36467  24.549   9.434  10.935  0.1424 -0.0117 -0.3179
 1520BOLB   C4B36468  24.747   9.193  10.617 -0.2475  0.3003  0.0358
 1520BOLB   NC236469  27.875   9.823  11.060 -0.1405  0.1147 -0.0477
 1520BOLB   PO236470  27.682  10.131  11.095 -0.2643 -0.2047 -0.2764
 1520BOLB   GL336471  27.292  10.193  11.176  0.0858 -0.1832 -0.0755
 1520BOLB   GL436472  27.014  10.279  11.047  0.1773  0.0242 -0.1352
 1520BOLB   C1C36473  26.964  10.129  11.534  0.2102  0.0251 -0.2043
 1520BOLB   C2C36474  26.585  10.033  11.684 -0.0882 -0.0922 -0.1331
 1520BOLB   C3C36475  26.174  10.069  11.652  0.3003  0.5252  0.1133
 1520BOLB   C4C36476  25.787  10.128  11.600 -0.2029  0.1244 -0.1891
 1520BOLB   C1D36477  26.544  10.395  11.131  0.1530 -0.1492  0.0613
 1520BOLB   C2D36478  26.070  10.456  11.284 -0.1629 -0.1770 -0.0140
 1520BOLB   C3D36479  25.681  10.674  11.424  0.1914 -0.0211 -0.1688
 1520BOLB   C4D36480  25.264  10.855  11.204 -0.0972  0.2287 -0.1130
 1521BOLB   NC136481  23.781  12.862  13.572 -0.3908  0.1316  0.0316
 1521BOLB   PO136482  23.915  12.535  13.482  0.0260  0.1268 -0.0058
 1521BOLB   GL136483  24.231  12.766  13.375  0.0227  0.0900 -0.2200
 1521BOLB   GL236484  24.371  12.926  13.536 -0.0143 -0.1818 -0.0092
 1521BOLB   C1A36485  24.472  12.556  12.954  0.2025 -0.1150  0.2413
 1521BOLB   C2A36486  24.843  12.814  12.796  0.1248  0.1565 -0.1515
 1521BOLB   C3A36487  25.030  13.195  12.856  0.0054  0.0481  0.3229
 1521BOLB   C4A36488  25.203  13.632  12.929 -0.1037  0.0685  0.2821
 1521BOLB   C1B36489  24.367  13.385  13.388  0.4344 -0.1500  0.1810
 1521BOLB   C2B36490  24.308  13.904  13.188  0.0971 -0.0407  0.0517
 1521BOLB   C3B36491  24.464  13.998  12.811  0.2667  0.3241 -0.1094
 1521BOLB   C4B36492  24.768  14.162  12.478  0.0843  0.1157 -0.0101
 1521BOLB   NC236493  26.892  15.252  11.553  0.2094  0.1488 -0.3517
 1521BOLB   PO236494  27.103  15.118  11.983  0.0743  0.2395 -0.1028
 1521BOLB   GL336495  26.819  15.000  12.340 -0.1005 -0.1950 -0.1783
 1521BOLB   GL436496  26.741  14.678  12.228  0.0851  0.1032 -0.0074
 1521BOLB   C1C36497  26.524  14.837  12.708 -0.1567  0.1870 -0.2815
 1521BOLB   C2C36498  26.043  14.496  12.934 -0.0185  0.1095  0.0605
 1521BOLB   C3C36499  25.646  14.222  12.771 -0.2299 -0.0711  0.3537
 1521BOLB   C4C36500  25.270  14.059  12.736 -0.3239 -0.2008 -0.1657
 1521BOLB   C1D36501  26.273  14.533  12.141 -0.2278 -0.0028 -0.0727
 1521BOLB   C2D36502  25.822  14.373  12.260  0.1229  0.0147  0.0121
 1521BOLB   C3D36503  25.534  14.513  12.375 -0.3148 -0.2475 -0.2141
 1521BOLB   C4D36504  25.169  14.415  12.208 -0.3105 -0.2320  0.0806
 1522BOLB   NC136505   9.989   8.274  20.683  0.1655 -0.0084  0.0076
 1522BOLB   PO136506  10.250   8.712  20.786 -0.0583  0.3026 -0.1144
 1522BOLB   GL136507  10.184   8.767  21.239 -0.1033  0.1762  0.1204
 1522BOLB   GL236508   9.988   8.573  21.167  0.0563  0.1954 -0.1593
 1522BOLB   C1A36509   9.916   8.786  21.616  0.3681 -0.3344  0.0978
 1522BOLB   C2A36510   9.549   8.825  21.718  0.2211  0.3142 -0.1590
 1522BOLB   C3A36511   9.133   8.786  21.876 -0.0281 -0.0615  0.3096
 1522BOLB   C4A36512   8.789   8.573  22.067 -0.2874  0.0503 -0.0382
 1522BOLB   C1B36513   9.603   8.418  21.473 -0.0187 -0.1662  0.1875
 1522BOLB   C2B36514   9.190   8.362  21.745  0.2076  0.1455  0.0296
 1522BOLB   C3B36515   8.993   8.013  22.056 -0.0390  0.3096  0.1867
 1522BOLB   C4B36516   8.787   7.652  21.927  0.2054 -0.2764 -0.4449
 1522BOLB   NC236517   7.359   9.026  23.662 -0.2181 -0.2821  0.2067
 1522BOLB   PO236518   7.167   8.517  23.554 -0.1838  0.1258 -0.3205
 1522BOLB   GL336519   7.320   8.733  23.182 -0.3355  0.2993 -0.0570
 1522BOLB   GL436520   7.311   8.427  22.987  0.1210 -0.0993  0.0098
 1522BOLB   C1C36521   7.637   8.952  22.999 -0.3573  0.2538  0.1266
 1522BOLB   C2C36522   7.847   8.612  22.806  0.1428  0.2679  0.2087
 1522BOLB   C3C36523   8.097   8.583  22.497 -0.1161  0.2106  0.4795
 1522BOLB   C4C36524   8.473   8.523  22.212 -0.2869  0.0632  0.1498
 1522BOLB   C1D36525   7.637   8.177  22.749  0.0774 -0.3014 -0.2465
 1522BOLB   C2D36526   7.765   7.812  22.704 -0.0444  0.1571  0.3878
 1522BOLB   C3D36527   7.701   7.449  22.891 -0.1527 -0.0569 -0.0167
 1522BOLB   C4D36528   7.534   7.083  22.740  0.3890  0.1771  0.1037
 1523BOLB   NC136529  15.866  15.576   9.666 -0.1455 -0.0298  0.0702
 1523BOLB   PO136530  15.466  15.837   9.924 -0.0533 -0.5797  0.3087
 1523BOLB   GL136531  15.742  16.029   9.580 -0.0574  0.0426 -0.1642
 1523BOLB   GL236532  15.479  16.269   9.530 -0.2320  0.1342 -0.0682
 1523BOLB   C1A36533  15.831  16.406   9.165 -0.1188 -0.1419  0.2705
 1523BOLB   C2A36534  15.882  16.922   9.008  0.2103  0.1754  0.0954
 1523BOLB   C3A36535  16.238  17.038   8.807 -0.1112  0.3250 -0.1362
 1523BOLB   C4A36536  16.533  16.853   8.577 -0.3722 -0.0382  0.0951
 1523BOLB   C1B36537  15.340  16.636   9.170  0.0666 -0.0463 -0.0136
 1523BOLB   C2B36538  15.252  16.909   8.869  0.0455  0.0827  0.2366
 1523BOLB   C3B36539  15.015  17.244   8.808  0.0691 -0.2002  0.1126
 1523BOLB   C4B36540  15.011  17.643   8.802  0.0258 -0.0156 -0.2914
 1523BOLB   NC236541  17.329  18.520   6.560  0.0068  0.0209  0.5015
 1523BOLB   PO236542  16.949  18.337   6.797  0.2580  0.3202  0.2106
 1523BOLB   GL336543  17.029  17.905   7.136 -0.0390 -0.1788  0.0053
 1523BOLB   GL436544  17.182  17.541   6.976 -0.3610  0.0819 -0.0272
 1523BOLB   C1C36545  16.969  17.736   7.525 -0.0704 -0.2017 -0.4061
 1523BOLB   C2C36546  17.078  17.394   7.703  0.0078 -0.1960 -0.1091
 1523BOLB   C3C36547  16.923  17.104   7.815 -0.2776  0.0102  0.0832
 1523BOLB   C4C36548  16.777  17.005   8.246 -0.0788 -0.2940 -0.1419
 1523BOLB   C1D36549  17.118  17.170   7.271 -0.1346 -0.0282 -0.1882
 1523BOLB   C2D36550  17.146  16.803   7.490  0.2038 -0.1538 -0.0308
 1523BOLB   C3D36551  17.145  16.333   7.605 -0.1979 -0.2091  0.0387
 1523BOLB   C4D36552  17.104  15.930   7.640  0.1420 -0.0632 -0.0808
 1524BOLB   NC136553  19.987   4.519  19.858 -0.0539 -0.0638 -0.0005
 1524BOLB   PO136554  20.201   4.542  19.495 -0.1834 -0.0317  0.1497
 1524BOLB   GL136555  20.524   4.236  19.725  0.0734  0.0259  0.2828
 1524BOLB   GL236556  20.829   4.072  19.587 -0.1505 -0.0086 -0.2329
 1524BOLB   C1A36557  20.620   4.103  20.067  0.3999  0.1224  0.1705
 1524BOLB   C2A36558  20.777   3.812  20.329  0.0661 -0.2187  0.0692
 1524BOLB   C3A36559  20.927   3.352  20.495  0.1205  0.1041 -0.1658
 1524BOLB   C4A36560  21.179   2.947  20.467 -0.3302  0.2599  0.2331
 1524BOLB   C1B36561  21.020   3.725  19.836  0.0695  0.1140  0.5207
 1524BOLB   C2B36562  21.246   3.338  19.988 -0.0963  0.4135  0.2253
 1524BOLB   C3B36563  21.304   2.894  19.958  0.1858 -0.1965 -0.2312
 1524BOLB   C4B36564  21.390   2.511  20.189  0.1934 -0.1178 -0.0847
 1524BOLB   NC236565  22.063   1.692  22.181 -0.1268  0.0563 -0.1122
 1524BOLB   PO236566  22.418   1.523  21.917 -0.0796  0.1698  0.0805
 1524BOLB   GL336567  22.284   2.020  21.819  0.1000 -0.2556 -0.0228
 1524BOLB   GL436568  22.367   2.344  21.938 -0.0864 -0.1348  0.1584
 1524BOLB   C1C36569  21.956   2.167  21.650 -0.1180 -0.1127  0.2075
 1524BOLB   C2C36570  21.946   2.407  21.321 -0.3405 -0.0081  0.0731
 1524BOLB   C3C36571  21.588   2.482  21.043 -0.2157 -0.0813 -0.3176
 1524BOLB   C4C36572  21.635   2.730  20.686  0.5032 -0.0988 -0.0448
 1524BOLB   C1D36573  22.256   2.702  21.751 -0.0359  0.2409 -0.3235
 1524BOLB   C2D36574  22.090   2.895  21.484 -0.1142  0.3294 -0.1293
 1524BOLB   C3D36575  22.114   3.216  21.312 -0.0679 -0.0389 -0.1435
 1524BOLB   C4D36576  22.132   3.575  21.096 -0.0242 -0.1808  0.4465
 1525BOLB   NC136577  18.155   8.183   2.883  0.3125 -0.2331 -0.1262
 1525BOLB   PO136578  18.364   8.061   3.215  0.1469 -0.0291 -0.1934
 1525BOLB   GL136579  17.992   7.880   3.272  0.0974 -0.2359  0.1452
 1525BOLB   GL236580  17.905   7.756   3.041  0.0189 -0.1479  0.0223
 1525BOLB   C1A36581  17.700   7.976   3.590 -0.2146 -0.1060  0.3260
 1525BOLB   C2A36582  17.278   7.916   3.693  0.2240  0.0476  0.0208
 1525BOLB   C3A36583  16.840   8.074   3.873  0.2929 -0.1261  0.0536
 1525BOLB   C4A36584  16.524   8.219   3.767  0.0833 -0.0020  0.0840
 1525BOLB   C1B36585  17.441   7.980   3.187 -0.0529  0.0225  0.2057
 1525BOLB   C2B36586  17.008   7.866   3.080 -0.1776 -0.0040 -0.0187
 1525BOLB   C3B36587  16.779   8.022   2.693 -0.2317 -0.3327  0.0834
 1525BOLB   C4B36588  16.896   8.140   2.213  0.3557  0.1484 -0.0331
 1525BOLB   NC236589  16.220  10.120   2.841  0.3802 -0.0219 -0.2568
 1525BOLB   PO236590  16.603   9.879   3.002  0.1013  0.1072  0.1041
 1525BOLB   GL336591  16.303   9.843   3.346  0.0191  0.1561 -0.1593
 1525BOLB   GL436592  15.966   9.875   3.251 -0.1220 -0.0660 -0.0130
 1525BOLB   C1C36593  16.307   9.635   3.695 -0.1941  0.0768  0.0168
 1525BOLB   C2C36594  16.100   9.251   3.713 -0.0915 -0.2618  0.0987
 1525BOLB   C3C36595  16.117   8.880   3.560 -0.0555  0.1239 -0.2256
 1525BOLB   C4C36596  16.208   8.486   3.660  0.1960  0.0825 -0.1071
 1525BOLB   C1D36597  15.628   9.712   3.573  0.3525 -0.3885  0.0103
 1525BOLB   C2D36598  15.866   9.689   3.819 -0.2173 -0.0652 -0.2515
 1525BOLB   C3D36599  16.040   9.588   4.246 -0.1008 -0.0926 -0.0269
 1525BOLB   C4D36600  16.394   9.268   4.263  0.1809  0.1082  0.2391
 1526BOLB   NC136601  15.980  12.020  23.311 -0.2234  0.0485  0.0081
 1526BOLB   PO136602  15.508  12.071  23.286  0.0332 -0.1145  0.2339
 1526BOLB   GL136603  15.460  11.953  23.718  0.0628  0.2143  0.0016
 1526BOLB   GL236604  15.761  12.105  23.820  0.1857 -0.0259  0.1844
 1526BOLB   C1A36605  15.364  12.067  24.113 -0.0682 -0.1076 -0.0970
 1526BOLB   C2A36606  15.200  12.065  24.570  0.0721  0.0463 -0.3977
 1526BOLB   C3A36607  15.264  11.883  24.906 -0.0211  0.4009 -0.0675
 1526BOLB   C4A36608  15.261  11.974  25.335  0.0921  0.1956 -0.0183
 1526BOLB   C1B36609  15.893  12.086  24.287 -0.2264 -0.3382  0.2066
 1526BOLB   C2B36610  15.655  12.327  24.643  0.4324  0.1067 -0.0735
 1526BOLB   C3B36611  15.641  12.211  25.046  0.1376 -0.2185 -0.1202
 1526BOLB   C4B36612  15.770  11.889  25.371 -0.0898 -0.1200 -0.1414
 1526BOLB   NC236613  14.024  12.758  27.778  0.3340 -0.0048  0.2249
 1526BOLB   PO236614  14.033  12.524  27.400 -0.3923  0.1508 -0.3864
 1526BOLB   GL336615  14.264  12.369  27.089  0.0500 -0.1202 -0.0157
 1526BOLB   GL436616  14.323  12.660  26.909 -0.0108  0.1367 -0.0496
 1526BOLB   C1C36617  14.686  12.289  26.953  0.0123 -0.0527 -0.1845
 1526BOLB   C2C36618  14.901  12.255  26.499  0.1773 -0.4704 -0.0451
 1526BOLB   C3C36619  14.975  12.113  26.141 -0.2722  0.2540 -0.0263
 1526BOLB   C4C36620  15.060  11.985  25.798  0.0618  0.2297  0.0011
 1526BOLB   C1D36621  14.330  12.309  26.585  0.0553  0.2894 -0.3368
 1526BOLB   C2D36622  14.280  12.029  26.323 -0.2090  0.1352 -0.1545
 1526BOLB   C3D36623  14.015  11.964  25.986  0.1476  0.0835 -0.2398
 1526BOLB   C4D36624  13.667  11.650  25.906  0.0233  0.0708 -0.0148
 1527BOLB   NC136625  18.621  13.172  22.980 -0.0477 -0.0165  0.1517
 1527BOLB   PO136626  18.475  13.104  23.408 -0.2480 -0.2780 -0.2772
 1527BOLB   GL136627  18.491  13.421  23.643 -0.0547 -0.1781  0.5156
 1527BOLB   GL236628  18.358  13.317  23.864 -0.1962 -0.1885  0.0394
 1527BOLB   C1A36629  18.591  13.760  24.071  0.1479  0.0212  0.0880
 1527BOLB   C2A36630  18.772  13.996  24.487  0.1111  0.1029  0.2537
 1527BOLB   C3A36631  18.599  14.133  24.872 -0.2674 -0.1504 -0.2586
 1527BOLB   C4A36632  18.380  13.942  25.298  0.2292 -0.0173 -0.2212
 1527BOLB   C1B36633  18.341  13.336  24.315  0.0789 -0.2950 -0.2059
 1527BOLB   C2B36634  18.346  13.254  24.820 -0.0217 -0.0751 -0.0960
 1527BOLB   C3B36635  18.391  12.961  25.127 -0.0220  0.1738 -0.0955
 1527BOLB   C4B36636  18.258  12.704  25.384  0.1734 -0.1959  0.2396
 1527BOLB   NC236637  18.359  13.425  28.062 -0.0721  0.4364 -0.0717
 1527BOLB   PO236638  18.106  13.357  27.638  0.2244 -0.1965 -0.0176
 1527BOLB   GL336639  18.162  13.414  27.191 -0.1032  0.2181  0.1091
 1527BOLB   GL436640  17.959  13.632  27.049  0.1203  0.1431  0.0156
 1527BOLB   C1C36641  18.381  13.475  26.748  0.1360  0.0440  0.1853
 1527BOLB   C2C36642  18.451  13.474  26.356  0.3144  0.2569  0.0858
 1527BOLB   C3C36643  18.566  13.499  25.944  0.3432 -0.0727 -0.1612
 1527BOLB   C4C36644  18.556  13.688  25.550  0.1717  0.1547  0.0081
 1527BOLB   C1D36645  17.653  13.617  26.723 -0.0036 -0.2610 -0.2192
 1527BOLB   C2D36646  17.578  13.826  26.349 -0.1854  0.0574  0.1603
 1527BOLB   C3D36647  17.619  13.801  25.869  0.3510 -0.0014 -0.4591
 1527BOLB   C4D36648  17.395  13.978  25.527  0.1027 -0.2106  0.1990
 1528BOLB   NC136649   4.675  15.407  15.866  0.0307  0.0100  0.1274
 1528BOLB   PO136650   4.702  15.047  16.138 -0.2666  0.0169  0.2081
 1528BOLB   GL136651   5.179  14.764  16.113 -0.2147 -0.1039 -0.4193
 1528BOLB   GL236652   5.462  14.992  16.137 -0.1504  0.2026 -0.1288
 1528BOLB   C1A36653   5.450  14.411  16.266 -0.1518  0.0556  0.1928
 1528BOLB   C2A36654   5.789  14.090  16.330  0.0837  0.0406  0.2484
 1528BOLB   C3A36655   6.085  13.930  16.609  0.0212 -0.0314 -0.0338
 1528BOLB   C4A36656   6.261  14.009  17.013 -0.0314 -0.1364 -0.2081
 1528BOLB   C1B36657   5.834  14.786  16.166  0.2434  0.1274  0.0934
 1528BOLB   C2B36658   5.970  14.919  15.742  0.0118 -0.0099 -0.3334
 1528BOLB   C3B36659   6.065  14.866  15.314  0.0524 -0.3855 -0.0308
 1528BOLB   C4B36660   6.170  14.697  14.943  0.0749 -0.1076  0.0343
 1528BOLB   NC236661   5.310  14.460  18.405  0.0539  0.3119 -0.0784
 1528BOLB   PO236662   5.487  14.732  18.089 -0.0678  0.0061  0.2030
 1528BOLB   GL336663   5.920  14.687  17.948  0.0087  0.1107 -0.0659
 1528BOLB   GL436664   5.939  15.041  17.827  0.0894  0.0786 -0.0083
 1528BOLB   C1C36665   6.369  14.915  17.917 -0.2166 -0.0118 -0.1543
 1528BOLB   C2C36666   6.734  14.747  17.786 -0.2362  0.3573  0.1741
 1528BOLB   C3C36667   6.730  14.494  17.462 -0.2892  0.0432 -0.1735
 1528BOLB   C4C36668   6.554  14.108  17.272  0.1232 -0.3168 -0.1049
 1528BOLB   C1D36669   6.155  15.204  17.566 -0.1284 -0.1607 -0.0539
 1528BOLB   C2D36670   6.525  15.266  17.538 -0.0232 -0.0310  0.0071
 1528BOLB   C3D36671   6.911  15.031  17.361 -0.0552 -0.1625 -0.1714
 1528BOLB   C4D36672   7.261  14.859  17.500  0.2953  0.2376 -0.1893
 1529BOLB   NC136673  13.360  16.132  20.623 -0.0590  0.3800  0.0466
 1529BOLB   PO136674  13.725  16.384  20.830  0.1698 -0.0087 -0.1484
 1529BOLB   GL136675  13.428  16.648  21.077 -0.3180 -0.0031 -0.0245
 1529BOLB   GL236676  13.116  16.507  20.886  0.2202  0.0440 -0.3168
 1529BOLB   C1A36677  13.257  16.820  21.511  0.1212  0.0010 -0.2733
 1529BOLB   C2A36678  13.172  17.037  21.876  0.2785 -0.0955  0.2261
 1529BOLB   C3A36679  13.240  17.219  22.218 -0.2819  0.2493  0.2153
 1529BOLB   C4A36680  13.397  17.242  22.562  0.0453  0.0958 -0.2191
 1529BOLB   C1B36681  12.936  16.843  21.105 -0.0305 -0.1180 -0.0473
 1529BOLB   C2B36682  12.895  17.137  21.324 -0.0013  0.6971  0.0550
 1529BOLB   C3B36683  12.859  17.553  21.448 -0.0723  0.2425  0.2616
 1529BOLB   C4B36684  12.764  17.870  21.612 -0.1773 -0.2810 -0.1647
 1529BOLB   NC236685  12.964  18.246  24.766  0.1814  0.0434 -0.3502
 1529BOLB   PO236686  12.687  18.002  24.967 -0.0226 -0.0051 -0.1079
 1529BOLB   GL336687  12.762  17.824  24.529  0.2685  0.0219 -0.2713
 1529BOLB   GL436688  13.023  17.723  24.617 -0.0429  0.1087  0.0669
 1529BOLB   C1C36689  12.948  17.701  24.110 -0.2983 -0.0459 -0.0105
 1529BOLB   C2C36690  13.007  17.341  23.795 -0.2153 -0.0106 -0.1723
 1529BOLB   C3C36691  13.136  17.172  23.336  0.0663 -0.0441  0.0065
 1529BOLB   C4C36692  13.232  17.308  23.000  0.0501  0.0042 -0.3591
 1529BOLB   C1D36693  13.315  17.481  24.363 -0.0827  0.1969  0.2270
 1529BOLB   C2D36694  13.546  17.411  24.099 -0.0249 -0.0640 -0.1659
 1529BOLB   C3D36695  13.926  17.249  24.010 -0.1455  0.2580 -0.0194
 1529BOLB   C4D36696  14.146  17.118  23.613 -0.0017  0.2183 -0.2082
 1530BOLB   NC136697  15.051  10.693  22.836 -0.2116  0.2213  0.1180
 1530BOLB   PO136698  15.025  10.435  23.185  0.2053  0.2725 -0.2875
 1530BOLB   GL136699  15.040  10.162  23.638 -0.1802  0.0297 -0.0837
 1530BOLB   GL236700  15.198   9.841  23.729 -0.1495  0.1014  0.1316
 1530BOLB   C1A36701  14.825  10.227  24.048  0.1851 -0.0212 -0.1166
 1530BOLB   C2A36702  14.645  10.428  24.266  0.0748  0.1501  0.2282
 1530BOLB   C3A36703  14.434  10.256  24.664 -0.2947 -0.2581  0.1168
 1530BOLB   C4A36704  14.530  10.431  25.100 -0.2598 -0.3126 -0.0220
 1530BOLB   C1B36705  15.169   9.868  24.262  0.0639  0.1158  0.2313
 1530BOLB   C2B36706  15.241   9.841  24.712 -0.2990  0.0196 -0.0107
 1530BOLB   C3B36707  15.607   9.675  25.038  0.0866  0.1062 -0.0222
 1530BOLB   C4B36708  15.743   9.305  25.012 -0.1096 -0.0278 -0.0706
 1530BOLB   NC236709  13.771  11.946  27.551  0.0814 -0.1803  0.0479
 1530BOLB   PO236710  13.953  11.835  27.281 -0.0816 -0.3018  0.3204
 1530BOLB   GL336711  14.260  11.701  26.983  0.3046  0.0297 -0.0501
 1530BOLB   GL436712  14.149  11.853  26.778  0.0739 -0.2797  0.0600
 1530BOLB   C1C36713  14.365  11.404  26.604  0.0181 -0.0036  0.0110
 1530BOLB   C2C36714  14.491  11.210  26.182  0.0477  0.1850  0.1484
 1530BOLB   C3C36715  14.505  11.027  25.736  0.1876 -0.0109 -0.0844
 1530BOLB   C4C36716  14.477  10.610  25.446  0.0179  0.1210 -0.0721
 1530BOLB   C1D36717  13.870  12.097  26.606  0.0408 -0.0056 -0.0508
 1530BOLB   C2D36718  13.641  12.151  26.304 -0.1497  0.2071 -0.0222
 1530BOLB   C3D36719  13.487  12.553  26.077  0.0832 -0.1035  0.1864
 1530BOLB   C4D36720  13.312  12.686  25.735 -0.0193 -0.0223  0.0802
 1531BOLB   NC136721  15.512  16.548  11.014 -0.3963 -0.0994  0.1749
 1531BOLB   PO136722  15.506  16.493  10.584  0.0520  0.1711  0.1169
 1531BOLB   GL136723  15.287  16.733  10.283  0.1274  0.0934 -0.1169
 1531BOLB   GL236724  15.575  16.870  10.284  0.0236  0.1079  0.1411
 1531BOLB   C1A36725  15.109  17.020  10.055 -0.1240 -0.2227 -0.0384
 1531BOLB   C2A36726  15.112  17.322   9.765 -0.0952 -0.1846 -0.1499
 1531BOLB   C3A36727  15.269  17.663   9.540  0.4450  0.1565 -0.1369
 1531BOLB   C4A36728  15.397  17.880   9.139 -0.1922  0.2641 -0.0689
 1531BOLB   C1B36729  15.660  17.172   9.985  0.0333 -0.1819 -0.2115
 1531BOLB   C2B36730  15.764  17.489   9.567  0.0077  0.0383 -0.2831
 1531BOLB   C3B36731  15.919  17.637   9.140  0.2493 -0.0208 -0.0091
 1531BOLB   C4B36732  16.147  17.733   8.776  0.2800  0.2081 -0.2002
 1531BOLB   NC236733  15.325  19.653   7.995  0.0309  0.2751 -0.1036
 1531BOLB   PO236734  15.767  19.846   8.006 -0.1788  0.1662  0.1291
 1531BOLB   GL336735  15.855  19.553   8.392  0.0831  0.5092 -0.1732
 1531BOLB   GL436736  15.662  19.319   8.427  0.1948 -0.2080  0.0632
 1531BOLB   C1C36737  16.149  19.349   8.689  0.0746 -0.2090 -0.0902
 1531BOLB   C2C36738  16.132  18.952   8.978 -0.1773 -0.2838  0.2751
 1531BOLB   C3C36739  15.897  18.595   8.881  0.2325  0.0926 -0.1007
 1531BOLB   C4C36740  15.799  18.151   8.902  0.0976 -0.1247 -0.3740
 1531BOLB   C1D36741  15.633  18.795   8.541 -0.0211 -0.0151 -0.0826
 1531BOLB   C2D36742  15.642  18.372   8.464  0.2210  0.0354  0.2411
 1531BOLB   C3D36743  15.882  18.286   8.196 -0.0510 -0.1912 -0.2253
 1531BOLB   C4D36744  16.099  18.015   7.843  0.1207  0.2642 -0.1195
 1532BOLB   NC136745  17.858   1.375  13.272  0.0974  0.0198  0.2024
 1532BOLB   PO136746  17.449   1.266  13.297  0.1119 -0.3052 -0.0680
 1532BOLB   GL136747  17.385   0.916  13.194  0.2244  0.1592  0.1322
 1532BOLB   GL236748  17.115   0.873  13.062  0.0189  0.1283  0.1506
 1532BOLB   C1A36749  17.506   0.547  13.039  0.1313 -0.3867 -0.1918
 1532BOLB   C2A36750  17.722   0.274  12.905 -0.1707 -0.0329 -0.1305
 1532BOLB   C3A36751  17.781  -0.100  12.756 -0.0524 -0.1600  0.3728
 1532BOLB   C4A36752  17.730  -0.462  12.473 -0.0948  0.1403 -0.2470
 1532BOLB   C1B36753  16.977   0.527  12.956  0.1944  0.1742  0.3867
 1532BOLB   C2B36754  16.958   0.042  12.953 -0.0120 -0.1992  0.2923
 1532BOLB   C3B36755  16.679  -0.286  12.858  0.1128 -0.1012  0.0808
 1532BOLB   C4B36756  16.782  -0.655  12.739  0.1970  0.0648 -0.3428
 1532BOLB   NC236757  19.262  -2.704  11.686 -0.4684  0.0092  0.3621
 1532BOLB   PO236758  18.930  -2.462  11.380  0.1809 -0.1431 -0.0285
 1532BOLB   GL336759  18.701  -2.039  11.171 -0.1147  0.2607 -0.1333
 1532BOLB   GL436760  18.371  -2.198  10.910 -0.1063  0.3775  0.0433
 1532BOLB   C1C36761  18.711  -1.708  11.414 -0.0027 -0.0558 -0.2244
 1532BOLB   C2C36762  18.485  -1.341  11.687 -0.0951  0.2948  0.0010
 1532BOLB   C3C36763  18.230  -1.011  11.955 -0.3335  0.0334 -0.4156
 1532BOLB   C4C36764  17.973  -0.660  12.165 -0.0968  0.0375  0.0081
 1532BOLB   C1D36765  18.380  -1.673  10.936  0.0326 -0.1220 -0.1988
 1532BOLB   C2D36766  18.117  -1.362  10.834  0.0237  0.0094 -0.3486
 1532BOLB   C3D36767  18.243  -0.967  10.769 -0.0231  0.2446 -0.1117
 1532BOLB   C4D36768  18.299  -0.816  11.069 -0.2675  0.3003  0.0377
 1533BOLB   NC136769  11.547  16.342  18.467  0.2744 -0.1054 -0.1249
 1533BOLB   PO136770  11.235  16.509  18.671  0.4120 -0.2281  0.1839
 1533BOLB   GL136771  10.889  16.695  18.884 -0.1164  0.5060  0.1745
 1533BOLB   GL236772  10.827  16.878  18.502  0.3050  0.0541  0.0069
 1533BOLB   C1A36773  10.692  17.022  19.065 -0.6459  0.2383  0.0642
 1533BOLB   C2A36774  10.374  17.089  19.383 -0.2806 -0.1067  0.3209
 1533BOLB   C3A36775  10.066  16.970  19.648 -0.1309  0.0038 -0.4189
 1533BOLB   C4A36776   9.669  17.053  19.750  0.2395 -0.3006 -0.0073
 1533BOLB   C1B36777  10.569  17.295  18.581  0.0505  0.3901 -0.0646
 1533BOLB   C2B36778  10.401  17.721  18.709  0.2553  0.1328 -0.4318
 1533BOLB   C3B36779  10.183  18.102  18.514 -0.1751 -0.0557 -0.0267
 1533BOLB   C4B36780   9.921  18.463  18.520 -0.0213  0.0215  0.3117
 1533BOLB   NC236781   9.057  19.026  20.779 -0.1239 -0.3522 -0.1929
 1533BOLB   PO236782   8.661  18.739  20.826  0.0817  0.0910 -0.4558
 1533BOLB   GL336783   8.939  18.622  20.530 -0.0430  0.1769 -0.0286
 1533BOLB   GL436784   8.710  18.541  20.321  0.0566 -0.2727  0.1470
 1533BOLB   C1C36785   9.306  18.410  20.398 -0.2791 -0.0937  0.0561
 1533BOLB   C2C36786   9.540  18.145  20.200  0.1479 -0.2094  0.3575
 1533BOLB   C3C36787   9.574  17.740  20.176 -0.2175 -0.0732  0.0452
 1533BOLB   C4C36788   9.499  17.384  19.983 -0.0712  0.1430  0.0873
 1533BOLB   C1D36789   8.893  18.129  20.428 -0.1100  0.1778 -0.3127
 1533BOLB   C2D36790   9.081  17.771  20.297  0.2401  0.0110  0.0830
 1533BOLB   C3D36791   9.116  17.428  20.325 -0.1011  0.0619 -0.0155
 1533BOLB   C4D36792   9.060  17.082  20.111 -0.0931 -0.1175 -0.0656
 1534BOLB   NC136793  15.926  18.449  14.504  0.1242  0.1251  0.1154
 1534BOLB   PO136794  16.133  18.680  14.809  0.1223  0.0335  0.2644
 1534BOLB   GL136795  16.063  18.927  14.461 -0.1466  0.0401  0.0997
 1534BOLB   GL236796  15.754  18.952  14.427  0.0534  0.4346  0.0400
 1534BOLB   C1A36797  16.024  19.229  14.144 -0.0518  0.0712  0.2488
 1534BOLB   C2A36798  15.987  19.651  14.022 -0.0431 -0.0379  0.1480
 1534BOLB   C3A36799  15.834  20.057  13.877  0.1959 -0.1234  0.1429
 1534BOLB   C4A36800  15.467  20.307  13.968 -0.1241 -0.1870 -0.0598
 1534BOLB   C1B36801  15.506  19.321  14.154  0.2059  0.2366 -0.1315
 1534BOLB   C2B36802  15.086  19.454  14.007 -0.0617 -0.0674 -0.0688
 1534BOLB   C3B36803  15.037  19.941  13.991  0.2296  0.1258  0.0586
 1534BOLB   C4B36804  14.748  20.209  14.164 -0.3719 -0.2619 -0.0257
 1534BOLB   NC236805  14.892  22.378  14.041  0.2857  0.1158 -0.3671
 1534BOLB   PO236806  14.520  22.397  14.055 -0.2215  0.2527 -0.2228
 1534BOLB   GL336807  14.536  21.971  14.165 -0.0854 -0.2123  0.4733
 1534BOLB   GL436808  14.902  21.863  13.978  0.2084  0.4715  0.0779
 1534BOLB   C1C36809  14.500  21.467  14.141  0.0992 -0.0338  0.0061
 1534BOLB   C2C36810  14.515  21.044  13.973 -0.2653  0.1893  0.1024
 1534BOLB   C3C36811  14.697  20.664  13.856 -0.1822 -0.0282 -0.2642
 1534BOLB   C4C36812  15.071  20.409  13.854  0.1719  0.2910 -0.1117
 1534BOLB   C1D36813  14.972  21.626  14.367 -0.1148 -0.1760 -0.0197
 1534BOLB   C2D36814  14.820  21.258  14.426 -0.0269 -0.1235 -0.2427
 1534BOLB   C3D36815  14.412  21.412  14.643 -0.1131 -0.2073 -0.3810
 1534BOLB   C4D36816  14.449  21.442  15.161  0.2599  0.0030  0.2981
 1535BOLB   NC136817   5.866   0.515   7.909  0.1374  0.0385 -0.1000
 1535BOLB   PO136818   6.266   0.818   7.867 -0.3485  0.2272  0.0002
 1535BOLB   GL136819   6.383   0.843   8.240  0.0743  0.2016 -0.1807
 1535BOLB   GL236820   6.624   0.645   8.227  0.2002  0.2832  0.0819
 1535BOLB   C1A36821   6.544   0.900   8.684  0.1699  0.1155 -0.0263
 1535BOLB   C2A36822   6.998   0.949   8.814  0.1593 -0.0667  0.1546
 1535BOLB   C3A36823   7.402   1.214   8.919 -0.0081 -0.0211 -0.1186
 1535BOLB   C4A36824   7.657   1.356   8.525 -0.1595 -0.2842 -0.1795
 1535BOLB   C1B36825   6.961   0.816   8.347 -0.1289  0.0625 -0.0779
 1535BOLB   C2B36826   7.400   0.889   8.519  0.1892  0.1891 -0.0690
 1535BOLB   C3B36827   7.658   0.749   8.673  0.1797 -0.0626  0.1133
 1535BOLB   C4B36828   7.890   0.976   8.992 -0.0096  0.3374 -0.1200
 1535BOLB   NC236829   6.537   1.132   6.986 -0.2049  0.0771  0.1021
 1535BOLB   PO236830   6.433   1.616   6.999  0.1802 -0.0552 -0.0475
 1535BOLB   GL336831   6.645   1.768   7.287 -0.0915 -0.0271  0.1875
 1535BOLB   GL436832   6.607   1.781   7.582 -0.1648 -0.0218 -0.0406
 1535BOLB   C1C36833   7.083   1.780   7.370 -0.1179  0.1898  0.1720
 1535BOLB   C2C36834   7.119   1.900   7.699 -0.0784 -0.1216  0.0682
 1535BOLB   C3C36835   7.143   1.851   8.140 -0.0595 -0.1994 -0.0442
 1535BOLB   C4C36836   7.523   1.763   8.354  0.0093  0.4282 -0.0843
 1535BOLB   C1D36837   6.655   1.740   8.013  0.3082  0.1628  0.0265
 1535BOLB   C2D36838   6.464   1.942   8.377 -0.0157 -0.1366  0.2227
 1535BOLB   C3D36839   6.733   2.160   8.660  0.0127 -0.2182 -0.0873
 1535BOLB   C4D36840   7.035   2.407   8.462  0.1709 -0.1206 -0.2030
 1536BOLB   NC136841  27.965   6.944  13.481  0.1972  0.0499  0.0312
 1536BOLB   PO136842  27.926   7.350  13.216  0.1089  0.1484  0.1340
 1536BOLB   GL136843  27.677   7.421  13.451 -0.1012 -0.2877 -0.0777
 1536BOLB   GL236844  27.755   7.290  13.814  0.2593 -0.2935 -0.0935
 1536BOLB   C1A36845  27.278   7.691  13.463 -0.0275 -0.0561  0.0542
 1536BOLB   C2A36846  27.131   8.138  13.623 -0.2362 -0.1028  0.0365
 1536BOLB   C3A36847  26.777   8.312  13.457  0.1343  0.0205 -0.1577
 1536BOLB   C4A36848  26.347   8.517  13.271  0.2721 -0.0170 -0.2240
 1536BOLB   C1B36849  27.247   7.272  13.698  0.1625  0.0392  0.3155
 1536BOLB   C2B36850  26.851   7.467  13.688  0.1151  0.0247 -0.1377
 1536BOLB   C3B36851  26.586   7.874  13.587  0.0147 -0.2622  0.2009
 1536BOLB   C4B36852  26.189   7.846  13.369 -0.2456  0.0374  0.1031
 1536BOLB   NC236853  23.906   8.028  13.156  0.0872  0.3950 -0.2027
 1536BOLB   PO236854  23.995   8.225  12.763  0.1091 -0.0059 -0.0604
 1536BOLB   GL336855  24.453   8.256  12.741 -0.2348 -0.1326  0.2000
 1536BOLB   GL436856  24.572   8.104  12.920  0.0094  0.1259  0.1684
 1536BOLB   C1C36857  24.927   8.521  12.754  0.3022  0.1702 -0.0475
 1536BOLB   C2C36858  25.373   8.481  12.786 -0.0570  0.1582 -0.0894
 1536BOLB   C3C36859  25.695   8.235  13.008 -0.0277 -0.1705 -0.0500
 1536BOLB   C4C36860  26.031   8.329  13.238  0.2175 -0.1344 -0.4033
 1536BOLB   C1D36861  24.926   8.052  12.603 -0.0724 -0.2180  0.1109
 1536BOLB   C2D36862  25.234   8.049  12.362  0.1644 -0.1094 -0.0860
 1536BOLB   C3D36863  25.478   8.400  12.257  0.3414  0.1657 -0.0666
 1536BOLB   C4D36864  25.492   8.710  11.921 -0.1988 -0.4364  0.2102
 1537BOLB   NC136865  21.906  16.925  17.051  0.0277 -0.0710 -0.5543
 1537BOLB   PO136866  21.515  17.154  17.010  0.0082  0.2040  0.5230
 1537BOLB   GL136867  21.588  17.638  17.100 -0.4717 -0.2579 -0.3336
 1537BOLB   GL236868  21.398  17.940  17.343 -0.0753 -0.1960  0.1767
 1537BOLB   C1A36869  21.857  17.941  17.182  0.0730 -0.1569  0.3185
 1537BOLB   C2A36870  21.904  18.302  17.288  0.1391 -0.1683  0.0086
 1537BOLB   C3A36871  22.201  18.572  17.440  0.1864  0.1248  0.1133
 1537BOLB   C4A36872  22.552  18.796  17.738 -0.1043  0.0402 -0.0984
 1537BOLB   C1B36873  21.359  18.362  17.311  0.0798 -0.1623 -0.0380
 1537BOLB   C2B36874  21.697  18.729  17.276 -0.0144 -0.3661  0.0806
 1537BOLB   C3B36875  21.869  19.130  17.519  0.0563  0.0918  0.1339
 1537BOLB   C4B36876  21.910  19.481  17.699 -0.1926  0.1611 -0.1012
 1537BOLB   NC236877  23.601  20.421  19.392 -0.0274  0.1767 -0.3123
 1537BOLB   PO236878  23.860  20.514  19.075  0.0450  0.2252 -0.0814
 1537BOLB   GL336879  23.659  20.151  18.905  0.3617  0.3507  0.1319
 1537BOLB   GL436880  23.598  19.879  19.135  0.1129  0.2126 -0.1429
 1537BOLB   C1C36881  23.266  19.902  18.703  0.0476 -0.0778  0.1023
 1537BOLB   C2C36882  23.158  19.601  18.366  0.1973 -0.3747 -0.1077
 1537BOLB   C3C36883  23.077  19.327  18.006 -0.3605 -0.1123 -0.2195
 1537BOLB   C4C36884  22.875  18.975  17.902  0.1660 -0.0387  0.2630
 1537BOLB   C1D36885  23.224  19.705  19.362 -0.0614  0.0987  0.2823
 1537BOLB   C2D36886  22.903  19.342  19.333  0.2342 -0.0150  0.1619
 1537BOLB   C3D36887  23.012  18.975  19.153  0.0658 -0.2271  0.3998
 1537BOLB   C4D36888  22.951  18.764  18.785 -0.1170 -0.0472 -0.3379
 1538BOLB   NC136889  12.043  16.161  13.392  0.0882 -0.3246  0.1004
 1538BOLB   PO136890  11.665  16.383  13.274  0.0602  0.2289  0.4114
 1538BOLB   GL136891  11.426  16.696  13.119  0.0251 -0.0677  0.0437
 1538BOLB   GL236892  11.576  17.004  13.000 -0.3451 -0.1442  0.1018
 1538BOLB   C1A36893  11.097  16.942  13.020  0.2698  0.4644  0.0046
 1538BOLB   C2A36894  10.872  17.021  12.756  0.2222  0.1850  0.3166
 1538BOLB   C3A36895  10.582  17.351  12.523  0.1276 -0.0356  0.1391
 1538BOLB   C4A36896  10.206  17.618  12.558 -0.0515 -0.0373 -0.0533
 1538BOLB   C1B36897  11.343  17.377  12.840 -0.1887  0.0482  0.1497
 1538BOLB   C2B36898  11.047  17.564  12.859  0.1058  0.1061  0.3489
 1538BOLB   C3B36899  10.703  17.475  12.950  0.1872 -0.0765 -0.1686
 1538BOLB   C4B36900  10.218  17.387  13.014 -0.2823 -0.0279  0.3035
 1538BOLB   NC236901   8.419  18.849  11.842 -0.0659  0.0617 -0.0434
 1538BOLB   PO236902   8.527  19.103  12.120 -0.1290  0.0532 -0.0759
 1538BOLB   GL336903   8.649  18.828  12.518 -0.0165 -0.2553  0.1279
 1538BOLB   GL436904   8.847  19.105  12.729  0.2343 -0.3401  0.1115
 1538BOLB   C1C36905   9.104  18.708  12.505 -0.0191 -0.1366 -0.0603
 1538BOLB   C2C36906   9.407  18.417  12.631  0.1396  0.2391 -0.0000
 1538BOLB   C3C36907   9.601  18.123  12.478 -0.2128 -0.0804  0.1079
 1538BOLB   C4C36908   9.896  17.853  12.374 -0.0677 -0.3160  0.1660
 1538BOLB   C1D36909   9.000  18.749  13.010 -0.1505 -0.0929  0.0344
 1538BOLB   C2D36910   9.184  18.472  13.102 -0.1905  0.2706 -0.1634
 1538BOLB   C3D36911   9.469  18.059  12.986  0.0398 -0.0760  0.0601
 1538BOLB   C4D36912   9.749  17.691  12.824  0.0265 -0.1885 -0.0395
 1539BOLB   NC136913  14.300  14.698   8.993 -0.1491 -0.0499  0.0685
 1539BOLB   PO136914  13.836  14.454   9.054 -0.0911 -0.2792 -0.1987
 1539BOLB   GL136915  13.444  14.637   8.731  0.2396  0.2444 -0.1141
 1539BOLB   GL236916  13.602  14.731   8.549 -0.2949 -0.2135 -0.0734
 1539BOLB   C1A36917  13.096  14.904   8.599 -0.2269  0.6121 -0.1711
 1539BOLB   C2A36918  12.845  15.248   8.521 -0.4029  0.1214  0.1022
 1539BOLB   C3A36919  12.707  15.582   8.265 -0.1536 -0.1919 -0.2909
 1539BOLB   C4A36920  12.677  15.895   7.962 -0.1817 -0.0648 -0.0813
 1539BOLB   C1B36921  13.444  14.826   8.137 -0.1428 -0.3851 -0.0888
 1539BOLB   C2B36922  13.123  15.198   7.982 -0.0357 -0.0632 -0.0625
 1539BOLB   C3B36923  12.850  15.497   7.688 -0.0909 -0.1714 -0.1420
 1539BOLB   C4B36924  12.531  15.450   7.716 -0.1459  0.1328 -0.0098
 1539BOLB   NC236925  11.557  16.680   5.820 -0.0224 -0.0229  0.3256
 1539BOLB   PO236926  11.922  16.803   5.987 -0.1631  0.0713  0.1681
 1539BOLB   GL336927  12.135  16.570   6.278  0.1428  0.0524 -0.0936
 1539BOLB   GL436928  12.392  16.678   6.294  0.2173  0.0721  0.1926
 1539BOLB   C1C36929  12.120  16.452   6.721  0.1933 -0.0875 -0.1206
 1539BOLB   C2C36930  12.155  16.177   7.062  0.1928  0.0796 -0.0293
 1539BOLB   C3C36931  12.384  15.849   7.290 -0.1934  0.0253 -0.1425
 1539BOLB   C4C36932  12.661  15.914   7.527 -0.2809 -0.2418 -0.0425
 1539BOLB   C1D36933  12.627  16.424   6.570 -0.4172  0.1757 -0.0851
 1539BOLB   C2D36934  12.769  16.445   7.012 -0.1577  0.1083 -0.0774
 1539BOLB   C3D36935  12.611  16.345   7.365  0.2243  0.1341  0.1154
 1539BOLB   C4D36936  12.304  16.198   7.697  0.0622  0.0362 -0.1702
 1540BOLB   NC136937  13.387  17.893  17.212 -0.1414  0.1800 -0.1043
 1540BOLB   PO136938  12.985  17.906  17.311  0.1794 -0.0736  0.1160
 1540BOLB   GL136939  12.958  18.284  17.621  0.0831 -0.1785 -0.3066
 1540BOLB   GL236940  12.688  18.340  17.786  0.0787  0.0024 -0.1414
 1540BOLB   C1A36941  12.988  18.792  17.488  0.0370  0.0410 -0.1192
 1540BOLB   C2A36942  13.231  19.221  17.594 -0.0714 -0.1634  0.0147
 1540BOLB   C3A36943  13.022  19.542  17.904 -0.1894 -0.3163  0.3043
 1540BOLB   C4A36944  12.679  19.833  17.924  0.0243 -0.2887  0.0997
 1540BOLB   C1B36945  12.616  18.686  17.829  0.0267  0.3102  0.2336
 1540BOLB   C2B36946  12.307  18.868  18.077  0.1320  0.0901 -0.0980
 1540BOLB   C3B36947  11.756  18.930  18.249 -0.0837 -0.0592 -0.0283
 1540BOLB   C4B36948  11.464  19.255  18.012  0.2978 -0.1096  0.2881
 1540BOLB   NC236949  11.854  22.033  19.137 -0.1126  0.1291  0.2443
 1540BOLB   PO236950  11.650  21.495  19.258  0.2093  0.2108  0.1173
 1540BOLB   GL336951  11.945  21.103  19.174  0.0741 -0.1521 -0.0318
 1540BOLB   GL436952  12.244  21.117  19.293  0.1299 -0.2105 -0.2943
 1540BOLB   C1C36953  12.009  20.738  18.796  0.3748  0.1556 -0.0079
 1540BOLB   C2C36954  12.239  20.760  18.406 -0.1379  0.0385 -0.2064
 1540BOLB   C3C36955  12.311  20.462  18.105  0.0011 -0.2137  0.3046
 1540BOLB   C4C36956  12.333  20.039  18.079 -0.0871 -0.1192 -0.3434
 1540BOLB   C1D36957  12.233  20.626  19.172 -0.3882  0.3582 -0.2566
 1540BOLB   C2D36958  12.022  20.245  19.048 -0.2761 -0.1554 -0.0498
 1540BOLB   C3D36959  11.812  19.995  18.820  0.1890  0.0392 -0.1459
 1540BOLB   C4D36960  11.456  20.065  18.724 -0.3320 -0.2243 -0.1283
 1541BOLB   NC136961  23.689   8.260  16.386 -0.0481 -0.2070 -0.0452
 1541BOLB   PO136962  23.961   8.316  16.024  0.0908  0.1145 -0.1170
 1541BOLB   GL136963  24.460   8.205  16.129 -0.1423 -0.3843  0.4220
 1541BOLB   GL236964  24.531   8.353  16.488  0.2773 -0.2937 -0.2495
 1541BOLB   C1A36965  24.804   8.475  15.957  0.0842 -0.3577  0.1710
 1541BOLB   C2A36966  25.294   8.340  15.810 -0.4228  0.1382 -0.2993
 1541BOLB   C3A36967  25.758   8.504  15.831  0.2229  0.0858 -0.0330
 1541BOLB   C4A36968  26.100   8.753  16.087 -0.3152  0.0199  0.0561
 1541BOLB   C1B36969  24.876   8.179  16.374  0.3599 -0.0564  0.0978
 1541BOLB   C2B36970  25.279   8.400  16.258 -0.0958  0.2159 -0.1135
 1541BOLB   C3B36971  25.636   8.527  16.462  0.4652  0.3107  0.3303
 1541BOLB   C4B36972  25.796   8.189  16.680  0.2019  0.1287  0.0656
 1541BOLB   NC236973  28.546   8.698  16.900  0.0074 -0.2482  0.0604
 1541BOLB   PO236974  28.094   8.826  16.838  0.2633  0.1221 -0.1181
 1541BOLB   GL336975  27.698   8.879  17.054 -0.1429 -0.1075  0.1948
 1541BOLB   GL436976  27.803   9.108  17.374 -0.3867  0.0281 -0.1553
 1541BOLB   C1C36977  27.351   9.078  16.754  0.2278 -0.0609 -0.0296
 1541BOLB   C2C36978  27.095   9.070  16.419 -0.2815  0.1971 -0.1154
 1541BOLB   C3C36979  26.788   8.890  16.514  0.2669  0.1344  0.1889
 1541BOLB   C4C36980  26.437   8.690  16.385  0.1665  0.0595  0.1042
 1541BOLB   C1D36981  27.417   8.934  17.433 -0.4407  0.5292  0.0392
 1541BOLB   C2D36982  27.118   9.066  17.155  0.3081  0.2186 -0.2964
 1541BOLB   C3D36983  26.816   9.197  16.920 -0.1626  0.3911 -0.2339
 1541BOLB   C4D36984  26.398   8.963  16.816 -0.0823 -0.1154  0.1232
 1542BOLB   NC136985  17.316   7.268  22.364  0.1076  0.2500 -0.1714
 1542BOLB   PO136986  17.527   6.939  22.398 -0.2657  0.2240 -0.1003
 1542BOLB   GL136987  17.390   6.722  22.849  0.1548  0.1093 -0.0639
 1542BOLB   GL236988  17.102   6.743  23.092 -0.1831 -0.1280  0.0239
 1542BOLB   C1A36989  17.662   6.591  23.211  0.0399  0.0630  0.0276
 1542BOLB   C2A36990  17.681   6.552  23.670 -0.1499 -0.1181 -0.0673
 1542BOLB   C3A36991  17.806   6.459  24.043  0.0742  0.1448  0.1430
 1542BOLB   C4A36992  17.816   6.346  24.448  0.0665  0.1169 -0.3506
 1542BOLB   C1B36993  17.200   6.547  23.583 -0.2580  0.2527  0.0207
 1542BOLB   C2B36994  17.312   6.507  23.944 -0.1648  0.2637 -0.0065
 1542BOLB   C3B36995  17.365   6.558  24.402 -0.2819 -0.2585  0.3474
 1542BOLB   C4B36996  17.366   6.468  24.809 -0.0530 -0.0720  0.2578
 1542BOLB   NC236997  19.126   5.057  25.895  0.3170  0.2514 -0.2057
 1542BOLB   PO236998  19.169   4.838  25.576  0.2369 -0.0633 -0.0546
 1542BOLB   GL336999  18.844   5.080  25.445  0.0197 -0.1793 -0.1497
 1542BOLB   GL437000  18.817   5.431  25.644 -0.2394 -0.1305  0.2823
 1542BOLB   C1C37001  18.555   5.477  25.299 -0.1161  0.1769  0.1698
 1542BOLB   C2C37002  18.363   5.734  25.137  0.0336  0.3384 -0.1886
 1542BOLB   C3C37003  18.035   5.981  25.211 -0.1203 -0.1465  0.0494
 1542BOLB   C4C37004  17.752   6.162  24.889 -0.2652  0.0776  0.2679
 1542BOLB   C1D37005  18.973   5.735  25.337 -0.2251  0.0067  0.2352
 1542BOLB   C2D37006  18.870   5.762  24.978 -0.0916  0.0374 -0.1095
 1542BOLB   C3D37007  18.720   5.887  24.590 -0.0989  0.2841 -0.2243
 1542BOLB   C4D37008  18.605   5.822  24.270 -0.0477 -0.0419 -0.1783
 1543BOLB   NC137009  23.296   8.070  18.540  0.1231 -0.0389  0.0107
 1543BOLB   PO137010  23.580   8.465  18.515  0.0390 -0.3055 -0.0289
 1543BOLB   GL137011  23.976   8.517  18.577  0.2915  0.1219 -0.0309
 1543BOLB   GL237012  24.283   8.792  18.651  0.2714  0.0572 -0.1225
 1543BOLB   C1A37013  24.330   8.255  18.766  0.0600  0.1652 -0.0963
 1543BOLB   C2A37014  24.506   8.045  18.974 -0.2388  0.2106 -0.0543
 1543BOLB   C3A37015  24.865   8.028  19.251  0.0354 -0.0145  0.0759
 1543BOLB   C4A37016  25.222   8.055  19.566 -0.1046  0.1974  0.0871
 1543BOLB   C1B37017  24.532   8.738  18.857  0.1123 -0.0292  0.1236
 1543BOLB   C2B37018  24.757   8.543  19.143 -0.1872 -0.0152 -0.0061
 1543BOLB   C3B37019  24.948   8.580  19.448 -0.3084 -0.1121 -0.0730
 1543BOLB   C4B37020  25.376   8.687  19.550 -0.0320  0.2063 -0.0212
 1543BOLB   NC237021  27.324   7.590  20.234  0.1123  0.1029 -0.1428
 1543BOLB   PO237022  27.492   7.992  20.215  0.2331  0.0849  0.2377
 1543BOLB   GL337023  27.276   8.250  19.890 -0.2289  0.1627 -0.2797
 1543BOLB   GL437024  27.344   8.376  19.652 -0.4942  0.1155  0.0574
 1543BOLB   C1C37025  26.887   8.172  19.613  0.1014  0.0611  0.3335
 1543BOLB   C2C37026  26.522   8.167  19.459  0.1698 -0.2444 -0.0181
 1543BOLB   C3C37027  26.077   8.049  19.591 -0.1654 -0.1752 -0.0775
 1543BOLB   C4C37028  25.607   7.979  19.490 -0.0959  0.3764  0.0056
 1543BOLB   C1D37029  27.110   8.703  19.401 -0.1745 -0.0978 -0.4134
 1543BOLB   C2D37030  26.675   8.666  19.548 -0.1728  0.2546  0.1038
 1543BOLB   C3D37031  26.168   8.634  19.631 -0.0563  0.2472  0.2092
 1543BOLB   C4D37032  25.787   8.858  19.392 -0.2570  0.1713 -0.0091
 1544BOLB   NC137033  27.954   8.493  18.503 -0.1913  0.2407  0.0626
 1544BOLB   PO137034  28.055   8.282  18.019  0.1669  0.1709 -0.3513
 1544BOLB   GL137035  27.720   8.548  18.123  0.0261  0.0352  0.2283
 1544BOLB   GL237036  27.613   8.873  18.070 -0.1157 -0.3465 -0.4033
 1544BOLB   C1A37037  27.284   8.738  18.357  0.0413  0.4375 -0.1433
 1544BOLB   C2A37038  27.068   9.119  18.564 -0.1406  0.1341  0.1281
 1544BOLB   C3A37039  26.769   9.406  18.784 -0.0820  0.3711 -0.0099
 1544BOLB   C4A37040  26.346   9.389  18.772  0.2899  0.1245 -0.3731
 1544BOLB   C1B37041  27.205   8.958  17.923 -0.0877  0.4295 -0.0101
 1544BOLB   C2B37042  26.959   8.716  17.573 -0.2043 -0.2039 -0.0141
 1544BOLB   C3B37043  26.733   8.729  17.310 -0.1773 -0.0383  0.0552
 1544BOLB   C4B37044  26.316   8.763  17.245  0.3787  0.0836  0.0086
 1544BOLB   NC237045  23.796  10.378  18.454  0.0752 -0.0497 -0.3785
 1544BOLB   PO237046  23.940   9.909  18.448  0.1158  0.0082  0.0025
 1544BOLB   GL337047  24.349   9.961  18.595 -0.2367  0.0699  0.0859
 1544BOLB   GL437048  24.425  10.228  18.593  0.0828 -0.2630  0.0669
 1544BOLB   C1C37049  24.727   9.756  18.702  0.0118 -0.2287  0.0661
 1544BOLB   C2C37050  25.147   9.749  18.668 -0.1807 -0.1960  0.0171
 1544BOLB   C3C37051  25.417   9.406  18.654 -0.2918 -0.2607 -0.0009
 1544BOLB   C4C37052  25.872   9.350  18.744 -0.0468 -0.0358 -0.1103
 1544BOLB   C1D37053  24.747  10.333  18.791  0.2004 -0.2916 -0.1653
 1544BOLB   C2D37054  25.037  10.501  19.092 -0.0759  0.1049 -0.1724
 1544BOLB   C3D37055  25.480  10.514  19.297  0.1554  0.1088 -0.0624
 1544BOLB   C4D37056  25.656  10.280  19.632 -0.4223  0.1418 -0.2627
 1545BOLB   NC137057  17.531   1.137  15.359  0.0261 -0.3690  0.1584
 1545BOLB   PO137058  17.775   0.807  15.502  0.0158  0.0103 -0.0829
 1545BOLB   GL137059  17.680   0.418  15.673 -0.0518  0.0465  0.0647
 1545BOLB   GL237060  17.581   0.341  15.351 -0.2033  0.0289 -0.0727
 1545BOLB   C1A37061  17.572   0.103  15.820 -0.3953 -0.0878  0.0329
 1545BOLB   C2A37062  17.757   0.131  16.191 -0.0716 -0.2509  0.3408
 1545BOLB   C3A37063  17.636   0.000  16.605  0.1386  0.0974  0.0398
 1545BOLB   C4A37064  17.620  -0.312  16.697  0.0617 -0.0184  0.3091
 1545BOLB   C1B37065  17.501  -0.043  15.333  0.0051  0.0711 -0.3733
 1545BOLB   C2B37066  17.238  -0.453  15.308 -0.0541 -0.1504  0.0651
 1545BOLB   C3B37067  17.289  -0.763  15.162  0.2724  0.3276 -0.0054
 1545BOLB   C4B37068  17.341  -1.154  14.896 -0.0383 -0.4474 -0.1202
 1545BOLB   NC237069  16.493  -2.537  16.183  0.1727  0.1836 -0.0507
 1545BOLB   PO237070  16.808  -2.506  16.562  0.3618 -0.3068 -0.2237
 1545BOLB   GL337071  16.952  -2.265  16.276  0.1204  0.0401 -0.0571
 1545BOLB   GL437072  17.204  -2.301  16.098 -0.0501  0.0880  0.3021
 1545BOLB   C1C37073  16.827  -1.795  16.121  0.0441  0.2540 -0.1224
 1545BOLB   C2C37074  17.037  -1.410  16.310 -0.3070 -0.0550 -0.1573
 1545BOLB   C3C37075  17.275  -0.965  16.244 -0.0784 -0.0773 -0.1129
 1545BOLB   C4C37076  17.382  -0.645  16.556 -0.0624 -0.1001 -0.1599
 1545BOLB   C1D37077  17.081  -2.012  15.800 -0.3255  0.0721  0.0754
 1545BOLB   C2D37078  17.225  -1.830  15.388  0.0183 -0.1934 -0.2087
 1545BOLB   C3D37079  17.268  -1.576  15.084  0.1609 -0.2631 -0.0483
 1545BOLB   C4D37080  17.033  -1.615  14.711  0.0648  0.1938  0.1873
 1546BOLB   NC137081  22.595   6.740  17.930  0.2093 -0.1380  0.1401
 1546BOLB   PO137082  22.979   6.611  17.796  0.1558 -0.1071 -0.0731
 1546BOLB   GL137083  23.305   6.482  17.936 -0.1296  0.1677  0.1799
 1546BOLB   GL237084  23.324   6.116  18.106  0.1898  0.0265 -0.0914
 1546BOLB   C1A37085  23.672   6.554  17.874 -0.1901  0.1286  0.0444
 1546BOLB   C2A37086  24.043   6.267  17.976  0.2140  0.1027 -0.0018
 1546BOLB   C3A37087  24.492   6.144  17.935 -0.1408  0.1091  0.4828
 1546BOLB   C4A37088  24.870   6.351  18.112 -0.0522 -0.0410 -0.0534
 1546BOLB   C1B37089  23.657   5.875  18.182  0.1115 -0.1029 -0.1281
 1546BOLB   C2B37090  24.042   5.843  18.260 -0.2818 -0.2380  0.4551
 1546BOLB   C3B37091  24.221   5.595  18.461 -0.2045 -0.1391 -0.3307
 1546BOLB   C4B37092  24.512   5.520  18.856 -0.2730  0.0025  0.0408
 1546BOLB   NC237093  26.928   5.134  18.842  0.0597  0.2772 -0.0051
 1546BOLB   PO237094  26.683   5.298  18.974  0.2008  0.2196 -0.1447
 1546BOLB   GL337095  26.281   5.544  19.174  0.2516  0.0115  0.0658
 1546BOLB   GL437096  26.110   5.437  18.938  0.0139  0.0411  0.1981
 1546BOLB   C1C37097  25.891   5.649  19.358  0.2412  0.2020 -0.0481
 1546BOLB   C2C37098  25.557   5.862  19.142 -0.0748 -0.1362  0.1199
 1546BOLB   C3C37099  25.280   6.160  18.940 -0.0798 -0.0723  0.0458
 1546BOLB   C4C37100  25.180   6.224  18.521 -0.1835  0.0610  0.0149
 1546BOLB   C1D37101  25.805   5.693  18.691 -0.1366  0.0821 -0.0149
 1546BOLB   C2D37102  25.593   5.713  18.327  0.3061  0.0066 -0.1689
 1546BOLB   C3D37103  25.217   5.862  18.135 -0.0956 -0.2526  0.0183
 1546BOLB   C4D37104  24.930   5.827  17.920  0.0996  0.2229 -0.1946
 1547BOLB   NC137105  17.249   2.306  17.932  0.1235  0.1533  0.3472
 1547BOLB   PO137106  17.017   2.038  18.215  0.0427  0.0300 -0.1650
 1547BOLB   GL137107  17.071   1.641  18.449 -0.2550  0.0676 -0.0885
 1547BOLB   GL237108  16.695   1.605  18.607 -0.0149  0.1204  0.2054
 1547BOLB   C1A37109  17.405   1.403  18.546 -0.0703  0.2219  0.2871
 1547BOLB   C2A37110  17.608   1.094  18.679 -0.0066 -0.2921  0.1474
 1547BOLB   C3A37111  17.953   0.807  18.923 -0.2474 -0.2036 -0.1296
 1547BOLB   C4A37112  17.769   0.442  19.135  0.1648 -0.1295  0.1470
 1547BOLB   C1B37113  16.927   1.392  18.814 -0.3490  0.1893  0.0167
 1547BOLB   C2B37114  17.161   1.029  18.923  0.1904 -0.1951  0.0835
 1547BOLB   C3B37115  17.362   0.767  19.159 -0.0055  0.1344  0.1867
 1547BOLB   C4B37116  17.336   0.501  19.444  0.1697 -0.4168  0.0284
 1547BOLB   NC237117  17.569  -1.785  20.301  0.1302  0.4937  0.1627
 1547BOLB   PO237118  17.139  -1.549  20.284 -0.2713 -0.5101 -0.3991
 1547BOLB   GL337119  17.323  -1.121  20.216 -0.1463 -0.0029 -0.0606
 1547BOLB   GL437120  17.602  -1.174  20.466 -0.2268  0.0979  0.1740
 1547BOLB   C1C37121  17.289  -0.842  19.866  0.1624 -0.1373  0.3533
 1547BOLB   C2C37122  17.173  -0.499  19.497  0.0681  0.0734  0.1566
 1547BOLB   C3C37123  17.113  -0.078  19.246 -0.1316 -0.1844 -0.2075
 1547BOLB   C4C37124  17.425   0.185  19.043 -0.1742  0.0439 -0.3144
 1547BOLB   C1D37125  17.633  -0.717  20.434 -0.0356 -0.0684 -0.3474
 1547BOLB   C2D37126  17.440  -0.352  20.456  0.2038 -0.0998  0.0079
 1547BOLB   C3D37127  17.350  -0.037  20.168  0.1841 -0.1264  0.2326
 1547BOLB   C4D37128  17.277   0.046  19.667 -0.0662  0.1970 -0.0921
 1548BOLB   NC137129  13.940  11.934  22.968 -0.3256 -0.1821  0.2298
 1548BOLB   PO137130  14.220  12.322  22.973 -0.0921  0.1463  0.1712
 1548BOLB   GL137131  14.014  12.545  23.359  0.3733  0.1976 -0.3109
 1548BOLB   GL237132  14.221  12.443  23.594  0.0344 -0.0489 -0.2335
 1548BOLB   C1A37133  13.879  12.817  23.746 -0.1357  0.2150  0.3163
 1548BOLB   C2A37134  13.926  13.049  24.169 -0.1269  0.0026  0.1840
 1548BOLB   C3A37135  14.059  13.065  24.633 -0.1204  0.0172 -0.0411
 1548BOLB   C4A37136  13.888  13.357  24.898  0.3392  0.2268  0.1301
 1548BOLB   C1B37137  14.361  12.532  24.067  0.0773 -0.2296 -0.1431
 1548BOLB   C2B37138  14.370  12.714  24.420  0.1445  0.1407 -0.1051
 1548BOLB   C3B37139  14.193  12.588  24.706  0.1466 -0.3881  0.0633
 1548BOLB   C4B37140  13.962  12.768  24.983  0.0957 -0.1037 -0.0913
 1548BOLB   NC237141  12.750  13.881  26.575 -0.0162 -0.0718 -0.1203
 1548BOLB   PO237142  12.577  13.493  26.472 -0.0260  0.3064  0.0607
 1548BOLB   GL337143  12.882  13.325  26.217 -0.0169 -0.0746 -0.1891
 1548BOLB   GL437144  12.994  13.131  25.929  0.0642  0.4092 -0.1725
 1548BOLB   C1C37145  12.972  13.651  25.782 -0.0114 -0.1113  0.0110
 1548BOLB   C2C37146  12.862  13.653  25.287 -0.2705 -0.3268  0.1179
 1548BOLB   C3C37147  13.124  13.611  24.997 -0.4394 -0.4523  0.0173
 1548BOLB   C4C37148  13.535  13.599  24.986  0.1583  0.1154 -0.5445
 1548BOLB   C1D37149  13.513  13.119  25.788 -0.1685  0.1850 -0.0465
 1548BOLB   C2D37150  13.623  12.916  25.425  0.0342 -0.1022 -0.0250
 1548BOLB   C3D37151  13.549  12.998  25.015  0.5691  0.0342 -0.2724
 1548BOLB   C4D37152  13.569  12.967  24.589 -0.3062 -0.0415 -0.0118
 1549BOLB   NC137153  18.250  10.046  23.478 -0.0897 -0.0428 -0.2931
 1549BOLB   PO137154  18.538   9.856  23.678  0.0649 -0.0034  0.0147
 1549BOLB   GL137155  18.389   9.841  24.031 -0.0827 -0.2909 -0.1355
 1549BOLB   GL237156  18.095  10.056  24.026  0.2129 -0.2746 -0.1563
 1549BOLB   C1A37157  18.506   9.920  24.426 -0.1361 -0.2620  0.0903
 1549BOLB   C2A37158  18.600  10.144  24.723  0.1204  0.2378  0.2710
 1549BOLB   C3A37159  18.659  10.328  25.101  0.2017  0.2635  0.0703
 1549BOLB   C4A37160  19.014  10.250  25.352  0.2186  0.3339  0.2893
 1549BOLB   C1B37161  17.999  10.073  24.348 -0.1313  0.1896 -0.0285
 1549BOLB   C2B37162  17.843  10.178  24.712  0.3128 -0.1128  0.2052
 1549BOLB   C3B37163  18.122  10.184  25.140 -0.1178 -0.1312  0.0129
 1549BOLB   C4B37164  18.098  10.404  25.492 -0.1489 -0.0044  0.1195
 1549BOLB   NC237165  19.232  10.335  28.070 -0.0984 -0.3902  0.6462
 1549BOLB   PO237166  18.972  10.577  27.959 -0.1960 -0.2441 -0.0661
 1549BOLB   GL337167  18.962  10.653  27.515 -0.0537  0.0790 -0.3016
 1549BOLB   GL437168  18.803  10.893  27.298 -0.1097 -0.0514 -0.0849
 1549BOLB   C1C37169  19.044  10.425  27.073  0.0347  0.0427 -0.1466
 1549BOLB   C2C37170  19.128  10.565  26.614 -0.3011 -0.0770  0.1084
 1549BOLB   C3C37171  19.218  10.457  26.132 -0.1495 -0.0508  0.0432
 1549BOLB   C4C37172  19.034  10.441  25.724 -0.2487 -0.1408 -0.0169
 1549BOLB   C1D37173  18.628  10.707  26.884  0.2656  0.1147 -0.1926
 1549BOLB   C2D37174  18.658  10.726  26.401 -0.1437  0.0408  0.2327
 1549BOLB   C3D37175  18.753  10.811  25.931 -0.0869  0.1864  0.2618
 1549BOLB   C4D37176  18.540  10.582  25.578 -0.2311  0.2374  0.0852
 1550BOLB   NC137177  16.276  17.593  12.547  0.1100  0.3653 -0.1007
 1550BOLB   PO137178  16.739  17.493  12.582 -0.0585  0.0358  0.0875
 1550BOLB   GL137179  16.724  17.961  12.473 -0.2221 -0.1992  0.2008
 1550BOLB   GL237180  17.011  18.101  12.335  0.0318 -0.1984 -0.1187
 1550BOLB   C1A37181  16.559  18.267  12.238  0.2819  0.1477 -0.3047
 1550BOLB   C2A37182  16.546  18.713  12.149  0.0791 -0.0438  0.2063
 1550BOLB   C3A37183  16.651  19.041  11.938  0.0360 -0.1191  0.2823
 1550BOLB   C4A37184  16.957  19.259  11.861 -0.1291 -0.2406 -0.0505
 1550BOLB   C1B37185  17.070  18.504  12.201 -0.0755 -0.0200 -0.1277
 1550BOLB   C2B37186  17.180  18.948  12.216 -0.2678 -0.2354 -0.1192
 1550BOLB   C3B37187  17.365  19.287  12.208 -0.0568 -0.4010  0.2469
 1550BOLB   C4B37188  17.473  19.589  11.853  0.0621  0.1908  0.1308
 1550BOLB   NC237189  16.307  21.478  11.066  0.1375  0.1688  0.1220
 1550BOLB   PO237190  16.019  21.280  10.804  0.0712 -0.0440  0.2671
 1550BOLB   GL337191  16.276  20.984  10.983 -0.1086  0.1800 -0.1450
 1550BOLB   GL437192  16.492  20.761  10.787  0.2635 -0.1336  0.1830
 1550BOLB   C1C37193  16.647  20.961  11.191 -0.0666  0.2413  0.0754
 1550BOLB   C2C37194  16.787  20.534  11.489  0.1919 -0.0788  0.0663
 1550BOLB   C3C37195  16.840  20.090  11.752 -0.0412 -0.0131  0.2113
 1550BOLB   C4C37196  16.948  19.678  11.641 -0.0096 -0.3358 -0.1755
 1550BOLB   C1D37197  16.456  20.395  10.476 -0.2601  0.0399 -0.0227
 1550BOLB   C2D37198  16.299  20.077  10.314  0.0874  0.1105 -0.1825
 1550BOLB   C3D37199  16.194  19.762  10.554 -0.2464  0.0872 -0.0559
 1550BOLB   C4D37200  16.308  19.581  10.917  0.1694 -0.0009 -0.2171
 1551BOLB   NC137201   6.904   1.784  20.045  0.3621 -0.1226  0.3203
 1551BOLB   PO137202   7.307   1.780  20.257 -0.0724 -0.2292 -0.0227
 1551BOLB   GL137203   7.360   1.957  19.794  0.0340 -0.0306  0.0742
 1551BOLB   GL237204   7.206   2.140  19.755 -0.0339 -0.0742  0.0314
 1551BOLB   C1A37205   7.663   1.943  19.431 -0.3452 -0.3885 -0.3238
 1551BOLB   C2A37206   8.010   1.801  19.318  0.1180  0.1039 -0.0031
 1551BOLB   C3A37207   8.314   1.794  19.034  0.0556 -0.2119 -0.1119
 1551BOLB   C4A37208   8.661   1.681  18.748 -0.0695 -0.0547 -0.4975
 1551BOLB   C1B37209   7.404   2.557  19.537 -0.1843  0.0474  0.0243
 1551BOLB   C2B37210   7.470   2.689  19.178  0.2050  0.3008  0.1469
 1551BOLB   C3B37211   7.485   3.060  18.879  0.0372  0.0618  0.1128
 1551BOLB   C4B37212   7.456   3.232  18.379 -0.0076 -0.1741 -0.1192
 1551BOLB   NC237213   8.514  -0.629  18.569  0.0682 -0.0110 -0.3907
 1551BOLB   PO237214   8.100  -0.479  18.397  0.2530  0.0409  0.0617
 1551BOLB   GL337215   8.270  -0.166  18.168  0.2187  0.2056 -0.0597
 1551BOLB   GL437216   8.603  -0.184  18.219 -0.0085  0.2623  0.2129
 1551BOLB   C1C37217   8.387   0.171  17.962 -0.0184  0.1226  0.2616
 1551BOLB   C2C37218   8.617   0.577  17.782 -0.1454 -0.0640 -0.0640
 1551BOLB   C3C37219   8.681   1.013  18.002  0.2269  0.1428 -0.0826
 1551BOLB   C4C37220   8.602   1.252  18.457 -0.0403 -0.1345  0.0762
 1551BOLB   C1D37221   8.604  -0.275  17.765 -0.0675  0.0691  0.0312
 1551BOLB   C2D37222   8.341  -0.333  17.385 -0.2714  0.0138  0.4193
 1551BOLB   C3D37223   8.004  -0.373  17.265 -0.2599  0.2290 -0.1337
 1551BOLB   C4D37224   7.658  -0.488  17.044 -0.3149 -0.2247 -0.0711
 1552BOLB   NC137225   9.080  14.097  16.941 -0.3508 -0.3591 -0.0363
 1552BOLB   PO137226   9.224  14.480  17.070  0.3144 -0.1065  0.0836
 1552BOLB   GL137227   8.830  14.599  16.988  0.1976 -0.0246  0.2081
 1552BOLB   GL237228   8.629  14.364  16.842 -0.0859  0.0392  0.0066
 1552BOLB   C1A37229   8.439  14.901  17.130  0.1017  0.0739  0.0412
 1552BOLB   C2A37230   8.283  15.264  17.280  0.0779 -0.2092  0.1834
 1552BOLB   C3A37231   7.945  15.360  17.266  0.3789  0.0307 -0.0402
 1552BOLB   C4A37232   7.744  14.957  17.191  0.1248  0.1766 -0.1699
 1552BOLB   C1B37233   8.332  14.648  16.732  0.1709  0.2543  0.2183
 1552BOLB   C2B37234   8.097  14.590  16.394 -0.1985 -0.3655 -0.2802
 1552BOLB   C3B37235   7.708  14.849  16.083  0.0575 -0.0133 -0.0141
 1552BOLB   C4B37236   7.226  14.907  16.150 -0.3048  0.2022 -0.3162
 1552BOLB   NC237237   5.193  15.975  17.476 -0.0552  0.0617 -0.3189
 1552BOLB   PO237238   5.575  15.944  17.475  0.4345  0.1636 -0.0897
 1552BOLB   GL337239   5.975  15.777  17.422  0.2597 -0.0674  0.0314
 1552BOLB   GL437240   6.083  16.008  17.591 -0.1909 -0.0583  0.0320
 1552BOLB   C1C37241   6.353  15.625  17.160 -0.1287  0.2916 -0.2529
 1552BOLB   C2C37242   6.681  15.421  16.938  0.0782 -0.0338  0.3441
 1552BOLB   C3C37243   7.104  15.332  17.005  0.1746 -0.2862 -0.0465
 1552BOLB   C4C37244   7.335  14.990  17.048  0.0779 -0.0635  0.0016
 1552BOLB   C1D37245   6.428  16.080  17.338 -0.0777  0.1008 -0.0982
 1552BOLB   C2D37246   6.859  16.221  17.310 -0.2512 -0.1416 -0.1209
 1552BOLB   C3D37247   7.371  16.358  17.352 -0.0570  0.1050 -0.0519
 1552BOLB   C4D37248   7.780  16.364  17.259  0.1255  0.0479  0.2759
 1553BOLB   NC137249  22.360   4.798  16.538 -0.0667 -0.0595  0.2746
 1553BOLB   PO137250  22.719   4.786  16.295 -0.0653 -0.2303 -0.1628
 1553BOLB   GL137251  22.996   4.642  16.068 -0.2279 -0.1091  0.0803
 1553BOLB   GL237252  23.197   4.861  16.039  0.0300 -0.1204  0.1791
 1553BOLB   C1A37253  23.199   4.229  15.890  0.3296  0.1906  0.0523
 1553BOLB   C2A37254  23.393   4.027  15.570 -0.2403  0.0868 -0.0794
 1553BOLB   C3A37255  23.771   3.980  15.279  0.0929 -0.2088  0.3638
 1553BOLB   C4A37256  24.054   3.803  15.133 -0.0276  0.1140 -0.3478
 1553BOLB   C1B37257  23.604   4.599  15.977 -0.0296 -0.0394 -0.0896
 1553BOLB   C2B37258  24.026   4.619  15.896  0.1789 -0.2415  0.0973
 1553BOLB   C3B37259  24.170   4.365  15.493  0.4052  0.0726  0.0764
 1553BOLB   C4B37260  24.434   4.062  15.241  0.0397 -0.0966  0.0509
 1553BOLB   NC237261  26.296   2.730  15.084  0.1776  0.1033  0.1041
 1553BOLB   PO237262  26.412   3.045  15.303  0.0291  0.0760  0.0796
 1553BOLB   GL337263  26.065   3.196  15.204 -0.2330 -0.1409  0.0148
 1553BOLB   GL437264  25.989   3.434  14.962  0.1180 -0.2626 -0.1375
 1553BOLB   C1C37265  25.653   3.078  15.061  0.0762 -0.3529  0.0829
 1553BOLB   C2C37266  25.237   3.313  15.175 -0.0196 -0.1843 -0.0389
 1553BOLB   C3C37267  24.888   3.521  15.159  0.0942  0.2329  0.2702
 1553BOLB   C4C37268  24.431   3.632  14.975  0.0514  0.1370 -0.0168
 1553BOLB   C1D37269  25.612   3.667  15.048  0.2169  0.2606  0.0723
 1553BOLB   C2D37270  25.417   3.775  14.741  0.0324  0.0196  0.2219
 1553BOLB   C3D37271  25.231   4.074  14.628 -0.4421  0.0870 -0.0791
 1553BOLB   C4D37272  24.849   4.168  14.416 -0.1867 -0.2460 -0.1026
 1554BOLB   NC137273  15.306   9.617  23.184  0.1230  0.2145  0.0950
 1554BOLB   PO137274  15.655   9.316  23.333 -0.4253 -0.1030  0.3031
 1554BOLB   GL137275  15.555   9.471  23.642 -0.0077  0.2476  0.1011
 1554BOLB   GL237276  15.190   9.372  23.781 -0.2579  0.0246 -0.0752
 1554BOLB   C1A37277  15.693   9.357  24.080  0.0595  0.0534  0.2156
 1554BOLB   C2A37278  15.577   9.546  24.484 -0.0555  0.1096  0.2719
 1554BOLB   C3A37279  15.321   9.337  24.709  0.0180 -0.0930 -0.1254
 1554BOLB   C4A37280  15.263   9.083  25.038 -0.1087 -0.4760  0.3081
 1554BOLB   C1B37281  15.101   9.264  24.240  0.1886  0.0279  0.1890
 1554BOLB   C2B37282  14.923   9.013  24.532  0.1568 -0.2876 -0.1506
 1554BOLB   C3B37283  14.485   9.093  24.688 -0.0105  0.2585  0.2171
 1554BOLB   C4B37284  14.342   9.118  25.048 -0.2553  0.1187 -0.1366
 1554BOLB   NC237285  14.516   9.313  27.622 -0.0940  0.2182 -0.2890
 1554BOLB   PO237286  14.577   9.638  27.323  0.0385  0.1483 -0.0810
 1554BOLB   GL337287  14.581   9.598  26.984  0.0348  0.0221 -0.1538
 1554BOLB   GL437288  14.550   9.935  26.916  0.1378 -0.2836 -0.0365
 1554BOLB   C1C37289  14.871   9.457  26.747 -0.0446 -0.0516 -0.0933
 1554BOLB   C2C37290  15.036   9.322  26.330  0.0051  0.0407 -0.0596
 1554BOLB   C3C37291  15.231   9.166  25.869 -0.0666 -0.0213  0.0429
 1554BOLB   C4C37292  15.360   9.099  25.470  0.0609  0.3073 -0.1744
 1554BOLB   C1D37293  14.843   9.910  26.492 -0.0179  0.2990 -0.0545
 1554BOLB   C2D37294  15.010   9.781  26.137  0.0938 -0.0897 -0.1732
 1554BOLB   C3D37295  15.157   9.647  25.665 -0.0403 -0.2194  0.0604
 1554BOLB   C4D37296  15.224   9.796  25.274  0.0559  0.4255  0.1835
 1555BOLB   NC137297  13.198   0.768   3.281 -0.1567  0.0943 -0.2375
 1555BOLB   PO137298  13.062   1.162   3.043 -0.1119 -0.0840  0.1541
 1555BOLB   GL137299  13.068   1.234   3.440 -0.1073  0.1505  0.3708
 1555BOLB   GL237300  12.878   1.446   3.430 -0.2288  0.0640 -0.1510
 1555BOLB   C1A37301  13.079   1.276   3.921  0.0750  0.0138  0.0632
 1555BOLB   C2A37302  13.377   1.267   4.255 -0.0186 -0.3863  0.0892
 1555BOLB   C3A37303  13.717   1.500   4.435  0.3188  0.0158 -0.2178
 1555BOLB   C4A37304  13.990   1.605   4.789  0.1100 -0.0731 -0.1472
 1555BOLB   C1B37305  12.934   1.746   3.802  0.4051  0.0431  0.2254
 1555BOLB   C2B37306  13.132   2.112   3.642  0.0430  0.2356 -0.2955
 1555BOLB   C3B37307  13.365   2.446   3.697 -0.2015 -0.1388  0.1166
 1555BOLB   C4B37308  13.503   2.837   3.871  0.1817 -0.0200  0.2129
 1555BOLB   NC237309  14.031   0.409   3.307  0.0041 -0.1450 -0.2623
 1555BOLB   PO237310  14.403   0.214   3.405 -0.1907 -0.0652  0.1301
 1555BOLB   GL337311  14.271   0.550   3.754 -0.1238 -0.1449  0.1335
 1555BOLB   GL437312  14.533   0.306   3.915  0.2246  0.1206  0.1127
 1555BOLB   C1C37313  14.275   0.811   4.108 -0.1099  0.2455  0.0476
 1555BOLB   C2C37314  14.456   1.083   4.377 -0.1233  0.0925 -0.3310
 1555BOLB   C3C37315  14.553   1.225   4.662  0.0645  0.1926 -0.2780
 1555BOLB   C4C37316  14.413   1.526   4.788 -0.0561 -0.0488 -0.2407
 1555BOLB   C1D37317  14.597   0.394   4.287  0.0125  0.1207 -0.0094
 1555BOLB   C2D37318  14.648   0.522   4.734 -0.2312 -0.0098  0.3403
 1555BOLB   C3D37319  14.609   0.447   5.224 -0.0866 -0.2220 -0.0417
 1555BOLB   C4D37320  14.249   0.742   5.368 -0.4461  0.0762  0.1071
 1556BOLB   NC137321  11.120   3.603  17.976  0.2156  0.4830 -0.2651
 1556BOLB   PO137322  11.056   3.281  18.296 -0.1594 -0.0017 -0.0688
 1556BOLB   GL137323  11.033   2.927  18.217 -0.1855  0.0308 -0.0684
 1556BOLB   GL237324  11.333   2.786  18.329  0.2369  0.2111 -0.0392
 1556BOLB   C1A37325  10.881   2.459  18.209  0.1608  0.0550  0.0437
 1556BOLB   C2A37326  10.648   2.110  18.420 -0.2277 -0.3804 -0.1230
 1556BOLB   C3A37327  10.427   1.753  18.256  0.2152 -0.0650 -0.2522
 1556BOLB   C4A37328  10.189   1.335  18.124  0.2440  0.1092 -0.1184
 1556BOLB   C1B37329  11.387   2.380  18.591  0.0951 -0.1104  0.2643
 1556BOLB   C2B37330  11.192   1.977  18.534  0.0247  0.2544  0.0170
 1556BOLB   C3B37331  11.079   1.653  18.286 -0.2883  0.0538  0.1148
 1556BOLB   C4B37332  11.063   1.196  18.155 -0.0511 -0.2495  0.1380
 1556BOLB   NC237333   9.698  -1.195  19.057 -0.0097  0.1696 -0.2634
 1556BOLB   PO237334   9.645  -0.689  19.020  0.0794 -0.2663  0.0591
 1556BOLB   GL337335   9.845  -0.302  18.940 -0.1997 -0.2095  0.0784
 1556BOLB   GL437336   9.683  -0.022  19.140 -0.0208  0.1593  0.1761
 1556BOLB   C1C37337   9.810  -0.043  18.608  0.0829 -0.1216 -0.5578
 1556BOLB   C2C37338  10.029   0.328  18.474  0.1765  0.1016  0.3315
 1556BOLB   C3C37339  10.010   0.681  18.229 -0.0723  0.1681 -0.0184
 1556BOLB   C4C37340   9.993   1.092  18.051 -0.2133 -0.0228 -0.3428
 1556BOLB   C1D37341   9.817   0.381  18.894 -0.3247  0.0861 -0.2455
 1556BOLB   C2D37342  10.044   0.802  18.966 -0.4529  0.0195  0.0487
 1556BOLB   C3D37343  10.424   1.049  18.874  0.0036  0.4086  0.1663
 1556BOLB   C4D37344  10.668   1.354  18.491 -0.1211 -0.3097 -0.0539
 1557BOLB   NC137345  12.333  17.498  15.483 -0.2404 -0.0082  0.1415
 1557BOLB   PO137346  11.915  17.284  15.383  0.0940 -0.0973 -0.2363
 1557BOLB   GL137347  11.916  17.776  15.276 -0.1562  0.1190  0.1989
 1557BOLB   GL237348  12.124  17.916  15.147 -0.0575 -0.0971  0.1799
 1557BOLB   C1A37349  11.997  18.165  15.565 -0.0940  0.0471  0.1811
 1557BOLB   C2A37350  11.791  18.486  15.528 -0.0195 -0.0428  0.0441
 1557BOLB   C3A37351  11.382  18.617  15.443  0.1802  0.1373 -0.0139
 1557BOLB   C4A37352  11.145  18.964  15.587 -0.2651 -0.3131 -0.4969
 1557BOLB   C1B37353  11.910  18.136  14.736  0.0849 -0.0386  0.0366
 1557BOLB   C2B37354  11.591  18.400  14.497  0.4203  0.4484  0.2767
 1557BOLB   C3B37355  11.464  18.768  14.427 -0.1819 -0.0865  0.1026
 1557BOLB   C4B37356  11.123  18.871  14.425 -0.1462 -0.6308  0.3047
 1557BOLB   NC237357   9.670  21.269  16.207 -0.2682 -0.0062 -0.1617
 1557BOLB   PO237358  10.174  21.276  16.140 -0.3187  0.1651 -0.0411
 1557BOLB   GL337359  10.351  20.799  16.012  0.0342 -0.3332 -0.1382
 1557BOLB   GL437360  10.559  20.803  15.776 -0.0120 -0.1539 -0.1397
 1557BOLB   C1C37361  10.578  20.431  16.155  0.4135 -0.1216 -0.1179
 1557BOLB   C2C37362  10.691  20.031  16.023 -0.2390 -0.0513 -0.3217
 1557BOLB   C3C37363  10.906  19.630  15.873 -0.1469 -0.3815 -0.3041
 1557BOLB   C4C37364  11.061  19.358  15.712 -0.2760 -0.0274 -0.1477
 1557BOLB   C1D37365  10.835  20.539  15.553  0.0778 -0.3900 -0.0494
 1557BOLB   C2D37366  10.949  20.164  15.481 -0.1322  0.2351 -0.0956
 1557BOLB   C3D37367  11.368  19.920  15.399 -0.0115  0.0478  0.0125
 1557BOLB   C4D37368  11.380  19.388  15.284  0.0135 -0.1525  0.0862
 1558BOLB   NC137369  19.661   2.873  16.583 -0.0202  0.0654 -0.1413
 1558BOLB   PO137370  19.634   2.573  16.994 -0.0727  0.0611 -0.1172
 1558BOLB   GL137371  19.870   2.222  16.873  0.2059 -0.3215  0.1541
 1558BOLB   GL237372  19.923   1.983  16.582 -0.0220  0.0283 -0.3085
 1558BOLB   C1A37373  20.216   1.922  16.968 -0.0276 -0.4229 -0.3003
 1558BOLB   C2A37374  20.341   1.533  17.031 -0.2203  0.0129  0.1846
 1558BOLB   C3A37375  20.403   1.211  17.219 -0.0556  0.2435 -0.1413
 1558BOLB   C4A37376  20.631   0.890  17.212  0.4325 -0.1313  0.2548
 1558BOLB   C1B37377  20.058   1.606  16.578  0.0710 -0.2238 -0.0979
 1558BOLB   C2B37378  20.437   1.375  16.508  0.0199  0.0642  0.1577
 1558BOLB   C3B37379  20.520   0.943  16.398  0.1211  0.1370 -0.2791
 1558BOLB   C4B37380  20.704   0.586  16.354  0.1654 -0.0796 -0.3055
 1558BOLB   NC237381  20.591  -1.468  18.342 -0.2607 -0.1972  0.0430
 1558BOLB   PO237382  20.812  -1.060  18.557  0.0665 -0.1603  0.0401
 1558BOLB   GL337383  20.930  -0.715  18.393 -0.1099  0.1582 -0.1687
 1558BOLB   GL437384  21.009  -0.509  18.664  0.3715  0.1410 -0.0248
 1558BOLB   C1C37385  21.032  -0.406  18.139 -0.2224 -0.1147  0.0423
 1558BOLB   C2C37386  20.974  -0.031  17.938 -0.1347  0.4337  0.2581
 1558BOLB   C3C37387  21.066   0.212  17.589 -0.1582 -0.4178  0.2091
 1558BOLB   C4C37388  20.985   0.658  17.456  0.2033  0.0315  0.1604
 1558BOLB   C1D37389  20.679  -0.307  18.450  0.1544  0.3677  0.4415
 1558BOLB   C2D37390  20.496  -0.138  18.168 -0.0277 -0.1144 -0.0359
 1558BOLB   C3D37391  20.543  -0.033  17.722  0.1815  0.2559 -0.1341
 1558BOLB   C4D37392  20.540   0.118  17.368  0.0170 -0.0976 -0.0060
 1559BOLB   NC137393  11.785   4.636  19.640 -0.2893 -0.0429 -0.2855
 1559BOLB   PO137394  11.496   4.723  19.955  0.0592  0.2020 -0.1451
 1559BOLB   GL137395  11.321   4.384  20.226 -0.1898  0.1283  0.0863
 1559BOLB   GL237396  11.217   4.043  20.175 -0.0100  0.0631  0.2681
 1559BOLB   C1A37397  11.354   4.189  20.648 -0.1992  0.1291 -0.0674
 1559BOLB   C2A37398  11.402   3.951  20.912 -0.2413  0.4837 -0.1109
 1559BOLB   C3A37399  11.017   3.783  21.215  0.0503 -0.1959 -0.0131
 1559BOLB   C4A37400  10.679   3.659  21.534 -0.0480 -0.0908  0.0205
 1559BOLB   C1B37401  11.073   3.726  20.517  0.3417  0.0179 -0.1597
 1559BOLB   C2B37402  11.054   3.361  20.815  0.3472  0.0834  0.3036
 1559BOLB   C3B37403  11.245   2.965  20.885  0.0799 -0.0968 -0.1322
 1559BOLB   C4B37404  11.273   2.713  21.235 -0.0524 -0.0501  0.1150
 1559BOLB   NC237405   9.387   2.065  23.127  0.1609 -0.1492  0.1585
 1559BOLB   PO237406   9.836   1.942  23.104  0.3715  0.2476 -0.0958
 1559BOLB   GL337407   9.898   2.360  22.831 -0.0095  0.1434 -0.1123
 1559BOLB   GL437408   9.936   2.675  22.996  0.0270 -0.0842  0.1081
 1559BOLB   C1C37409   9.853   2.728  22.467 -0.2353 -0.0602  0.0729
 1559BOLB   C2C37410  10.006   3.035  22.285 -0.2256  0.4059  0.0724
 1559BOLB   C3C37411   9.977   3.350  21.968 -0.1123 -0.2146 -0.2572
 1559BOLB   C4C37412  10.375   3.505  21.813  0.3496 -0.0937 -0.3457
 1559BOLB   C1D37413  10.256   3.047  22.961  0.1758 -0.0434 -0.3562
 1559BOLB   C2D37414  10.302   3.412  23.128 -0.1279  0.0782  0.4837
 1559BOLB   C3D37415  10.422   3.839  23.164 -0.0236 -0.1060  0.0592
 1559BOLB   C4D37416  10.877   4.049  23.094 -0.1420  0.3121 -0.0738
 1560BOLB   NC137417  22.407  13.458  19.752 -0.0117 -0.1423  0.1189
 1560BOLB   PO137418  22.302  13.622  20.096  0.0643  0.2253 -0.1891
 1560BOLB   GL137419  22.709  13.646  20.112  0.1114 -0.1677  0.1184
 1560BOLB   GL237420  22.671  13.533  20.484  0.1436 -0.0354  0.1094
 1560BOLB   C1A37421  23.070  13.843  20.371 -0.2114  0.2701 -0.1273
 1560BOLB   C2A37422  23.422  14.035  20.629  0.1540  0.1459 -0.0126
 1560BOLB   C3A37423  23.600  14.281  20.918 -0.0792  0.3242  0.2101
 1560BOLB   C4A37424  23.831  14.280  21.290 -0.1750  0.3804  0.2470
 1560BOLB   C1B37425  22.926  13.662  20.844 -0.0234  0.0344 -0.0746
 1560BOLB   C2B37426  23.244  13.907  21.098  0.1368 -0.0359 -0.1752
 1560BOLB   C3B37427  23.369  13.912  21.494 -0.0602 -0.0681  0.0267
 1560BOLB   C4B37428  23.525  13.675  21.872 -0.0711 -0.4478  0.3562
 1560BOLB   NC237429  26.037  13.411  21.953 -0.1835  0.0426 -0.0631
 1560BOLB   PO237430  26.210  13.741  21.721 -0.2178 -0.2043  0.3236
 1560BOLB   GL337431  25.829  14.025  21.724 -0.2074  0.0710 -0.1669
 1560BOLB   GL437432  25.552  13.813  21.865 -0.0539 -0.2003 -0.0303
 1560BOLB   C1C37433  25.388  14.094  21.545 -0.3012 -0.3006  0.1393
 1560BOLB   C2C37434  25.043  14.167  21.403 -0.0024  0.2921  0.1463
 1560BOLB   C3C37435  24.604  14.352  21.452  0.0881  0.5038  0.0278
 1560BOLB   C4C37436  24.221  14.178  21.471 -0.2079 -0.2488 -0.1591
 1560BOLB   C1D37437  25.186  13.641  21.716  0.2681  0.0177  0.1166
 1560BOLB   C2D37438  24.853  13.411  21.518  0.0668 -0.1100  0.2627
 1560BOLB   C3D37439  24.606  13.086  21.377  0.0470 -0.0886 -0.3258
 1560BOLB   C4D37440  24.478  12.683  21.247  0.1298 -0.0906  0.0774
 1561BOLB   NC137441  11.386   8.052  21.987  0.0503  0.0851 -0.0078
 1561BOLB   PO137442  11.384   7.713  21.867 -0.3761 -0.0019  0.1297
 1561BOLB   GL137443  11.062   7.693  22.218  0.2583 -0.4047  0.3439
 1561BOLB   GL237444  11.266   7.925  22.496  0.2318  0.1954 -0.0997
 1561BOLB   C1A37445  10.831   7.821  22.644  0.3016 -0.4601 -0.0600
 1561BOLB   C2A37446  10.365   7.754  22.695 -0.4211  0.1415 -0.1163
 1561BOLB   C3A37447  10.046   7.822  22.405 -0.3313  0.2393  0.2460
 1561BOLB   C4A37448   9.834   8.255  22.466 -0.1605 -0.2656  0.0978
 1561BOLB   C1B37449  11.388   8.019  22.990 -0.2403  0.1148 -0.0087
 1561BOLB   C2B37450  11.521   7.809  23.269 -0.2302  0.3394  0.1144
 1561BOLB   C3B37451  11.710   7.694  23.660  0.1077 -0.1078 -0.0507
 1561BOLB   C4B37452  11.766   7.418  23.981 -0.0351 -0.2415  0.2705
 1561BOLB   NC237453   7.848   9.131  24.329 -0.2023 -0.2321  0.0621
 1561BOLB   PO237454   8.176   8.857  24.300 -0.1107  0.0838  0.0390
 1561BOLB   GL337455   8.460   8.719  23.892  0.0430 -0.0086 -0.1569
 1561BOLB   GL437456   8.726   8.595  23.857  0.0910  0.2197 -0.1637
 1561BOLB   C1C37457   8.703   8.897  23.522  0.3155 -0.0878  0.0016
 1561BOLB   C2C37458   9.009   8.768  23.234  0.1640 -0.1295 -0.0245
 1561BOLB   C3C37459   9.157   8.539  22.978  0.2416 -0.2102  0.3845
 1561BOLB   C4C37460   9.595   8.496  22.751 -0.0854  0.3629  0.1520
 1561BOLB   C1D37461   8.599   8.363  23.538  0.1988 -0.0314  0.0206
 1561BOLB   C2D37462   8.832   8.177  23.192  0.0007  0.5191 -0.0664
 1561BOLB   C3D37463   9.262   7.943  23.016 -0.0715 -0.0231 -0.1168
 1561BOLB   C4D37464   9.257   7.653  22.687 -0.0061 -0.0419  0.2353
 1562BOLB   NC137465  11.547   8.287  21.592 -0.1052 -0.2150  0.0192
 1562BOLB   PO137466  11.671   8.612  21.952  0.1540 -0.1306 -0.1028
 1562BOLB   GL137467  11.290   8.471  22.237 -0.1085  0.1565 -0.0877
 1562BOLB   GL237468  11.428   8.772  22.372  0.1999 -0.0257 -0.0243
 1562BOLB   C1A37469  11.032   8.351  22.578  0.0890 -0.1161  0.0418
 1562BOLB   C2A37470  10.796   8.289  22.950 -0.1102  0.1005  0.0371
 1562BOLB   C3A37471  10.482   8.037  23.135  0.0895  0.0501  0.2517
 1562BOLB   C4A37472  10.214   8.140  23.505 -0.1702 -0.1847 -0.2147
 1562BOLB   C1B37473  11.481   8.629  22.697  0.0260 -0.2081 -0.1215
 1562BOLB   C2B37474  11.435   8.514  23.213  0.0801 -0.0029  0.1469
 1562BOLB   C3B37475  11.175   8.353  23.363  0.0891 -0.1369 -0.0758
 1562BOLB   C4B37476  10.712   8.231  23.590 -0.3587  0.0379 -0.2236
 1562BOLB   NC237477   9.904   6.996  25.387  0.0128  0.0659  0.0741
 1562BOLB   PO237478  10.297   7.192  25.565 -0.2117 -0.0473  0.2832
 1562BOLB   GL337479  10.269   7.496  25.219  0.2505  0.2504 -0.1979
 1562BOLB   GL437480  10.457   7.334  24.992 -0.1365 -0.1850 -0.1448
 1562BOLB   C1C37481  10.134   7.675  24.815 -0.4643 -0.1813  0.0628
 1562BOLB   C2C37482  10.079   7.579  24.413  0.0248 -0.0927  0.2527
 1562BOLB   C3C37483   9.966   7.848  24.183 -0.2662 -0.1902 -0.0932
 1562BOLB   C4C37484  10.241   8.000  23.923  0.2081 -0.2466  0.1632
 1562BOLB   C1D37485  10.577   7.459  24.523  0.1544 -0.0860  0.0800
 1562BOLB   C2D37486  10.607   7.564  24.051  0.0831 -0.0041  0.1480
 1562BOLB   C3D37487  10.732   7.460  23.684 -0.1491 -0.1172  0.0783
 1562BOLB   C4D37488  10.898   7.169  23.372  0.3171  0.1046  0.0397
 1563BOLB   NC137489  13.463  18.019  13.754 -0.0014 -0.0380  0.0636
 1563BOLB   PO137490  13.609  17.751  13.361  0.2075 -0.1376 -0.0178
 1563BOLB   GL137491  13.703  18.182  13.169 -0.0408 -0.3098 -0.0279
 1563BOLB   GL237492  13.362  18.118  13.023  0.0486  0.3132  0.1427
 1563BOLB   C1A37493  13.460  18.573  13.176  0.1754 -0.3505 -0.1977
 1563BOLB   C2A37494  13.202  18.894  13.008  0.0212  0.2011  0.1946
 1563BOLB   C3A37495  13.213  19.266  12.789 -0.0107 -0.2397 -0.5224
 1563BOLB   C4A37496  12.912  19.526  13.104 -0.1142 -0.1898 -0.3358
 1563BOLB   C1B37497  13.384  18.391  12.652  0.1153  0.0218 -0.1393
 1563BOLB   C2B37498  13.395  18.821  12.523  0.0780  0.3519  0.1776
 1563BOLB   C3B37499  13.070  18.921  12.251 -0.0161  0.2161  0.1547
 1563BOLB   C4B37500  12.679  19.065  11.970  0.2536 -0.0596 -0.0154
 1563BOLB   NC237501  11.584  21.509  11.878  0.0715  0.0569 -0.1125
 1563BOLB   PO237502  11.554  21.023  11.763 -0.1568 -0.0205 -0.0628
 1563BOLB   GL337503  11.655  20.739  12.026  0.3691 -0.1045 -0.3458
 1563BOLB   GL437504  11.625  20.394  12.104 -0.3029  0.0545  0.0707
 1563BOLB   C1C37505  12.037  20.571  12.191  0.1792 -0.0533  0.0599
 1563BOLB   C2C37506  12.309  20.401  12.466 -0.3201  0.0192  0.0514
 1563BOLB   C3C37507  12.474  20.086  12.769  0.1995 -0.1832  0.1970
 1563BOLB   C4C37508  12.755  19.910  13.066 -0.1316  0.0224 -0.1999
 1563BOLB   C1D37509  11.841  20.112  11.930 -0.1134  0.1871  0.0750
 1563BOLB   C2D37510  12.260  19.940  12.033 -0.1757 -0.1355 -0.3578
 1563BOLB   C3D37511  12.613  20.030  12.183  0.0062  0.1820  0.0875
 1563BOLB   C4D37512  12.780  20.272  12.458  0.0082 -0.0162 -0.0938
 1564BOLB   NC137513  19.956  21.879  18.374  0.2068  0.1177  0.0403
 1564BOLB   PO137514  20.248  21.879  18.035  0.2637 -0.2453  0.1028
 1564BOLB   GL137515  19.887  21.484  18.058  0.0912 -0.0522 -0.3269
 1564BOLB   GL237516  19.669  21.457  18.350  0.1756  0.0097 -0.2978
 1564BOLB   C1A37517  19.825  21.041  18.122 -0.0494  0.0361 -0.0233
 1564BOLB   C2A37518  19.859  20.650  18.175  0.0222  0.0186  0.0290
 1564BOLB   C3A37519  19.740  20.280  18.269  0.0413  0.1356 -0.2088
 1564BOLB   C4A37520  19.424  20.051  18.248 -0.0811 -0.2483  0.0764
 1564BOLB   C1B37521  19.341  21.346  18.003  0.1375 -0.0398 -0.0321
 1564BOLB   C2B37522  19.244  20.884  17.788  0.0636  0.1361 -0.0636
 1564BOLB   C3B37523  18.989  20.549  17.788  0.0213  0.3579  0.2517
 1564BOLB   C4B37524  18.677  20.227  17.666 -0.0975  0.2529 -0.0333
 1564BOLB   NC237525  17.432  18.585  18.390 -0.1619  0.3550  0.0464
 1564BOLB   PO237526  17.639  18.776  18.116 -0.0027  0.0136 -0.2179
 1564BOLB   GL337527  17.968  19.139  18.040 -0.1058 -0.0897 -0.0692
 1564BOLB   GL437528  18.272  19.087  18.247  0.1847  0.0564  0.2222
 1564BOLB   C1C37529  17.967  19.547  18.214 -0.1132 -0.0188  0.1622
 1564BOLB   C2C37530  18.282  19.746  18.362  0.0442 -0.1231 -0.3324
 1564BOLB   C3C37531  18.658  19.913  18.361  0.3245  0.5118  0.0257
 1564BOLB   C4C37532  19.059  19.813  18.368  0.2102 -0.0403 -0.1047
 1564BOLB   C1D37533  18.626  19.417  18.235  0.0528 -0.0675 -0.2532
 1564BOLB   C2D37534  18.869  19.533  17.990 -0.2867 -0.1642 -0.1828
 1564BOLB   C3D37535  19.031  19.977  17.875  0.3050  0.0243 -0.3583
 1564BOLB   C4D37536  19.283  20.013  17.716 -0.2861  0.4870  0.0286
 1565BOLB   NC137537  19.837  16.556  20.303  0.1263  0.1427  0.0299
 1565BOLB   PO137538  19.747  16.325  20.706 -0.0957  0.0930  0.0338
 1565BOLB   GL137539  19.877  16.651  20.873 -0.2419 -0.1366  0.2878
 1565BOLB   GL237540  19.844  16.898  20.663 -0.0135  0.0665 -0.0965
 1565BOLB   C1A37541  20.242  16.794  21.114  0.5458  0.3295 -0.0453
 1565BOLB   C2A37542  20.366  17.160  21.298  0.3294  0.2849  0.2065
 1565BOLB   C3A37543  20.443  17.279  21.709 -0.0041 -0.0981 -0.0394
 1565BOLB   C4A37544  20.255  17.336  22.087 -0.2485 -0.1890 -0.2380
 1565BOLB   C1B37545  19.985  17.451  20.617  0.3990 -0.0134  0.0510
 1565BOLB   C2B37546  20.096  17.815  20.673 -0.2397  0.0725 -0.1673
 1565BOLB   C3B37547  20.241  18.204  20.842 -0.1964 -0.1851 -0.0543
 1565BOLB   C4B37548  20.309  18.683  20.695 -0.0444 -0.5053 -0.0968
 1565BOLB   NC237549  20.661  18.894  23.638 -0.3002 -0.0855  0.3202
 1565BOLB   PO237550  20.998  18.610  23.765 -0.2234 -0.2924 -0.1369
 1565BOLB   GL337551  20.741  18.376  23.382  0.5717 -0.3096 -0.1493
 1565BOLB   GL437552  20.465  18.506  23.452 -0.2182  0.1035 -0.2543
 1565BOLB   C1C37553  20.592  17.978  23.206  0.0392 -0.0949 -0.1846
 1565BOLB   C2C37554  20.408  17.637  23.079  0.1706 -0.0570  0.0300
 1565BOLB   C3C37555  20.146  17.616  22.766  0.0305  0.0054 -0.4353
 1565BOLB   C4C37556  20.087  17.343  22.514 -0.2477  0.0987 -0.0488
 1565BOLB   C1D37557  20.071  18.294  23.564 -0.2028  0.0029  0.2110
 1565BOLB   C2D37558  19.791  17.898  23.581  0.1346  0.1166  0.1245
 1565BOLB   C3D37559  19.541  17.609  23.573  0.2100 -0.0556  0.1745
 1565BOLB   C4D37560  19.153  17.529  23.610  0.0072  0.1738  0.3132
 1566BOLB   NC137561  10.697  15.019  19.580 -0.1688  0.2211  0.1434
 1566BOLB   PO137562  10.734  15.338  19.293 -0.1190  0.1088 -0.3397
 1566BOLB   GL137563  10.378  15.658  19.315  0.1715  0.0178  0.2778
 1566BOLB   GL237564  10.243  15.693  19.070  0.0940 -0.2283  0.2054
 1566BOLB   C1A37565  10.108  15.808  19.702  0.4362  0.1329  0.1535
 1566BOLB   C2A37566   9.925  15.985  20.003  0.0168 -0.0270  0.0912
 1566BOLB   C3A37567   9.475  15.977  20.203  0.0478 -0.2504 -0.1110
 1566BOLB   C4A37568   9.076  16.019  20.241 -0.2464 -0.0803  0.0110
 1566BOLB   C1B37569   9.940  16.114  19.091  0.1119 -0.0020 -0.2881
 1566BOLB   C2B37570   9.415  16.267  19.030  0.3620 -0.0052 -0.0077
 1566BOLB   C3B37571   9.129  16.300  19.294 -0.1422  0.1163  0.2247
 1566BOLB   C4B37572   8.920  16.190  19.739 -0.2192  0.2720  0.1318
 1566BOLB   NC237573   7.768  17.999  21.704  0.3805  0.1642 -0.2638
 1566BOLB   PO237574   7.612  17.643  21.478  0.0166  0.1006 -0.0542
 1566BOLB   GL337575   7.849  17.501  21.125 -0.1677 -0.3507  0.1491
 1566BOLB   GL437576   7.749  17.193  20.957 -0.0954 -0.0529 -0.0381
 1566BOLB   C1C37577   8.128  17.427  20.620 -0.1985 -0.0812  0.2827
 1566BOLB   C2C37578   8.256  17.075  20.285 -0.0270  0.3950  0.2119
 1566BOLB   C3C37579   8.563  16.662  20.267  0.2954 -0.1268 -0.0480
 1566BOLB   C4C37580   8.746  16.295  20.260  0.2226  0.2337 -0.1453
 1566BOLB   C1D37581   7.673  16.762  20.946  0.0000  0.1939  0.1628
 1566BOLB   C2D37582   7.809  16.376  20.978  0.2710 -0.1358  0.1126
 1566BOLB   C3D37583   8.002  16.042  21.184  0.0012  0.2877 -0.0118
 1566BOLB   C4D37584   8.210  15.656  21.360  0.0581  0.3569  0.1706
 1567BOLB   NC137585  15.885  10.536  23.272 -0.1916  0.0966  0.2675
 1567BOLB   PO137586  15.499  10.629  23.092 -0.1777  0.1015 -0.1941
 1567BOLB   GL137587  15.459  10.621  23.496 -0.0145  0.0397 -0.0516
 1567BOLB   GL237588  15.703  10.510  23.706  0.0528 -0.2360  0.1610
 1567BOLB   C1A37589  15.225  10.538  23.908  0.0903 -0.3181  0.1237
 1567BOLB   C2A37590  15.230  10.403  24.310  0.1658  0.2271 -0.0935
 1567BOLB   C3A37591  14.997  10.383  24.702 -0.2989  0.1020 -0.0801
 1567BOLB   C4A37592  15.142  10.398  25.118 -0.0019  0.2038 -0.2708
 1567BOLB   C1B37593  15.687  10.522  24.094 -0.0005  0.1838 -0.4857
 1567BOLB   C2B37594  15.660  10.501  24.550  0.1396 -0.4391  0.3947
 1567BOLB   C3B37595  15.748  10.584  24.937  0.0368  0.1565 -0.2151
 1567BOLB   C4B37596  16.059  10.909  25.071 -0.2962  0.4762 -0.2072
 1567BOLB   NC237597  16.604  11.259  27.017  0.4073 -0.0824  0.0988
 1567BOLB   PO237598  16.177  11.213  27.174  0.2776 -0.2180  0.1881
 1567BOLB   GL337599  16.120  11.023  26.835  0.0195  0.3359 -0.2317
 1567BOLB   GL437600  16.097  11.311  26.655  0.1751  0.2125  0.0234
 1567BOLB   C1C37601  16.172  10.866  26.371  0.0324 -0.1403 -0.0592
 1567BOLB   C2C37602  15.949  10.691  26.153  0.0784  0.1894 -0.0046
 1567BOLB   C3C37603  15.535  10.616  25.864 -0.0952  0.0054 -0.0862
 1567BOLB   C4C37604  15.282  10.580  25.467 -0.2336 -0.1071  0.1313
 1567BOLB   C1D37605  15.811  11.220  26.282  0.0063  0.4081 -0.1454
 1567BOLB   C2D37606  15.819  11.028  25.821  0.0500  0.0278  0.0563
 1567BOLB   C3D37607  15.817  10.760  25.515  0.2973 -0.1440  0.4492
 1567BOLB   C4D37608  15.974  10.343  25.485 -0.0295  0.0896  0.0004
 1568BOLB   NC137609  21.105   3.626  17.424 -0.0244  0.2415 -0.0864
 1568BOLB   PO137610  21.043   3.991  17.789 -0.2129  0.0037  0.2963
 1568BOLB   GL137611  21.211   3.667  17.977 -0.4907  0.1076  0.0495
 1568BOLB   GL237612  21.274   3.642  18.338 -0.2911 -0.0541  0.1511
 1568BOLB   C1A37613  21.550   3.377  18.051  0.0182  0.1566  0.2135
 1568BOLB   C2A37614  21.738   3.337  18.446 -0.0085 -0.0899  0.1595
 1568BOLB   C3A37615  21.860   2.968  18.501  0.1360  0.0949 -0.2157
 1568BOLB   C4A37616  21.796   2.494  18.670  0.0835  0.1107  0.2236
 1568BOLB   C1B37617  21.213   3.208  18.607  0.2759 -0.0715 -0.1814
 1568BOLB   C2B37618  21.438   2.854  18.789  0.0129 -0.0609  0.0449
 1568BOLB   C3B37619  21.389   2.490  19.130 -0.2676  0.0142 -0.2267
 1568BOLB   C4B37620  21.536   2.085  19.063  0.1400  0.2716 -0.0062
 1568BOLB   NC237621  22.526   0.148  18.916 -0.0916 -0.1430  0.0753
 1568BOLB   PO237622  22.522   0.155  19.332  0.1145 -0.3658 -0.1679
 1568BOLB   GL337623  22.441   0.564  19.252  0.0101 -0.0102  0.5086
 1568BOLB   GL437624  22.206   0.637  19.068  0.2211 -0.4952  0.3742
 1568BOLB   C1C37625  22.160   1.016  19.370 -0.2382 -0.2529 -0.2656
 1568BOLB   C2C37626  22.116   1.330  19.217 -0.0119 -0.4780 -0.1340
 1568BOLB   C3C37627  21.871   1.734  19.208 -0.2292  0.1828  0.0217
 1568BOLB   C4C37628  21.958   2.091  18.867 -0.1491 -0.2266  0.1792
 1568BOLB   C1D37629  21.994   0.948  18.755  0.0666  0.2659  0.2770
 1568BOLB   C2D37630  22.069   1.256  18.391  0.3289  0.4359  0.2518
 1568BOLB   C3D37631  22.001   1.136  17.955 -0.1744 -0.1486  0.4372
 1568BOLB   C4D37632  22.003   0.858  17.691 -0.0516  0.1959 -0.0931
 1569BOLB   NC137633  21.791  14.647  19.623 -0.1321  0.0517 -0.3561
 1569BOLB   PO137634  22.199  14.572  19.854  0.1184  0.1790  0.0811
 1569BOLB   GL137635  22.483  14.780  20.190  0.1661  0.1161 -0.1822
 1569BOLB   GL237636  22.238  15.094  20.091  0.0584  0.2000 -0.1284
 1569BOLB   C1A37637  22.733  15.105  20.507 -0.2052  0.1483  0.0056
 1569BOLB   C2A37638  23.039  15.268  20.701 -0.1454  0.3031 -0.3752
 1569BOLB   C3A37639  23.322  15.503  20.744 -0.1102  0.0339 -0.1155
 1569BOLB   C4A37640  23.718  15.761  20.909 -0.4240  0.1326 -0.0158
 1569BOLB   C1B37641  22.228  15.437  20.402  0.1650 -0.4666  0.0894
 1569BOLB   C2B37642  22.425  15.869  20.560  0.2950  0.0229 -0.1335
 1569BOLB   C3B37643  22.343  16.011  20.975  0.0940  0.3335 -0.0296
 1569BOLB   C4B37644  22.496  16.317  21.241  0.0370  0.0935  0.2040
 1569BOLB   NC237645  25.618  17.236  21.447 -0.1398  0.1541 -0.0526
 1569BOLB   PO237646  25.277  17.158  21.729 -0.0463 -0.0279 -0.3873
 1569BOLB   GL337647  25.186  16.965  21.404  0.1583 -0.0380 -0.2093
 1569BOLB   GL437648  25.287  17.097  21.090  0.0619  0.2493 -0.0043
 1569BOLB   C1C37649  24.768  16.838  21.483  0.1252  0.1869  0.1541
 1569BOLB   C2C37650  24.503  16.527  21.246 -0.0321 -0.2390  0.1998
 1569BOLB   C3C37651  24.187  16.350  21.176  0.0707  0.4054 -0.0082
 1569BOLB   C4C37652  23.996  15.918  21.162 -0.2862  0.1658  0.0086
 1569BOLB   C1D37653  24.932  16.845  20.860  0.1660 -0.1387 -0.0511
 1569BOLB   C2D37654  24.661  16.652  20.554 -0.0348 -0.2479  0.1983
 1569BOLB   C3D37655  24.670  16.384  20.270  0.2060 -0.2296  0.2363
 1569BOLB   C4D37656  24.584  16.228  19.995 -0.2324  0.0142  0.0021
 1570BOLB   NC137657  25.366   8.432   8.586  0.3301 -0.0648 -0.1669
 1570BOLB   PO137658  25.284   8.398   8.202  0.0433  0.0032 -0.3894
 1570BOLB   GL137659  24.843   8.578   8.303  0.1635 -0.0612  0.1534
 1570BOLB   GL237660  24.719   8.257   8.134 -0.4421  0.0947 -0.3319
 1570BOLB   C1A37661  24.605   8.858   8.499 -0.0955 -0.0415 -0.1251
 1570BOLB   C2A37662  24.450   9.206   8.699 -0.1096 -0.1648 -0.1759
 1570BOLB   C3A37663  24.089   9.449   9.017 -0.3277 -0.1721  0.2988
 1570BOLB   C4A37664  23.919   9.568   9.426 -0.0274 -0.0079  0.4665
 1570BOLB   C1B37665  24.419   8.635   8.081 -0.0095  0.1769  0.0983
 1570BOLB   C2B37666  24.025   8.566   8.121  0.1401 -0.2655 -0.2091
 1570BOLB   C3B37667  23.729   8.544   8.257  0.1900  0.0176 -0.0187
 1570BOLB   C4B37668  23.610   8.299   8.562  0.0137 -0.1627  0.0220
 1570BOLB   NC237669  24.642   9.673   7.866 -0.5419  0.0591  0.0575
 1570BOLB   PO237670  24.911  10.044   8.075  0.0836 -0.0952 -0.2095
 1570BOLB   GL337671  24.990  10.229   8.424  0.2510  0.0634  0.0825
 1570BOLB   GL437672  25.158  10.040   8.688  0.2798 -0.1248 -0.2875
 1570BOLB   C1C37673  24.945  10.494   8.851  0.0467  0.0541  0.1617
 1570BOLB   C2C37674  24.677  10.537   9.257  0.2716 -0.1556  0.3182
 1570BOLB   C3C37675  24.320  10.359   9.492  0.1121 -0.2406  0.3121
 1570BOLB   C4C37676  23.992  10.044   9.585  0.1424 -0.0020  0.1302
 1570BOLB   C1D37677  25.066   9.647   8.943  0.1146  0.1119 -0.1875
 1570BOLB   C2D37678  24.616   9.445   9.079 -0.0813  0.1397 -0.1056
 1570BOLB   C3D37679  24.400   9.165   9.314  0.2933  0.0873 -0.3325
 1570BOLB   C4D37680  24.203   9.100   9.640 -0.2578  0.0449  0.1289
 1571BOLB   NC137681  19.678   2.137  14.192 -0.0128 -0.0549 -0.0958
 1571BOLB   PO137682  19.643   2.147  13.702 -0.0722 -0.0312  0.0301
 1571BOLB   GL137683  19.832   1.780  13.863  0.3549 -0.1666 -0.0348
 1571BOLB   GL237684  20.038   1.738  14.179 -0.2110  0.0242 -0.0906
 1571BOLB   C1A37685  20.073   1.458  13.737  0.0435 -0.1490  0.1971
 1571BOLB   C2A37686  20.525   1.287  13.698 -0.4419 -0.0888  0.4520
 1571BOLB   C3A37687  20.888   1.124  13.642  0.0582 -0.0537  0.1977
 1571BOLB   C4A37688  21.208   1.187  13.374  0.1399 -0.0856  0.0078
 1571BOLB   C1B37689  20.218   1.401  14.222 -0.1020 -0.0557 -0.1139
 1571BOLB   C2B37690  20.517   1.085  14.459  0.0277  0.1771  0.0577
 1571BOLB   C3B37691  20.456   1.090  14.912 -0.0598  0.0095  0.0237
 1571BOLB   C4B37692  20.783   1.003  15.219 -0.0076 -0.0632  0.0389
 1571BOLB   NC237693  22.561  -1.149  13.781 -0.0869  0.2399  0.0613
 1571BOLB   PO237694  22.499  -0.804  13.482 -0.1508 -0.1700 -0.0116
 1571BOLB   GL337695  22.274  -0.462  13.471 -0.1478 -0.0836  0.3451
 1571BOLB   GL437696  21.881  -0.374  13.460 -0.1626  0.0778 -0.0868
 1571BOLB   C1C37697  22.258   0.002  13.394 -0.2123  0.0662 -0.1252
 1571BOLB   C2C37698  22.043   0.425  13.440  0.3783 -0.4108  0.1772
 1571BOLB   C3C37699  21.750   0.660  13.282  0.1496  0.1991 -0.0965
 1571BOLB   C4C37700  21.370   0.858  13.293 -0.2964 -0.0664 -0.1574
 1571BOLB   C1D37701  21.793   0.046  13.495 -0.2775  0.4195  0.3558
 1571BOLB   C2D37702  21.473   0.321  13.510 -0.2442  0.1588  0.0151
 1571BOLB   C3D37703  21.084   0.258  13.576 -0.1079  0.3539  0.0182
 1571BOLB   C4D37704  20.686   0.075  13.747 -0.0259  0.1349  0.1406
 1572BOLB   NC137705  21.637   3.969   5.734 -0.0316 -0.1095  0.0582
 1572BOLB   PO137706  21.405   3.675   5.762 -0.1388  0.2127  0.0067
 1572BOLB   GL137707  20.932   3.757   5.709 -0.1427 -0.0878  0.1891
 1572BOLB   GL237708  20.614   3.498   5.930 -0.3118  0.0880 -0.2692
 1572BOLB   C1A37709  20.627   4.055   5.745 -0.0885  0.0265  0.1771
 1572BOLB   C2A37710  20.352   4.387   5.992  0.3459  0.0882 -0.0494
 1572BOLB   C3A37711  20.148   4.288   6.319  0.1105  0.1656 -0.1124
 1572BOLB   C4A37712  19.950   3.988   6.466 -0.0320  0.2527 -0.2140
 1572BOLB   C1B37713  20.507   3.477   6.335 -0.1761 -0.0569 -0.1075
 1572BOLB   C2B37714  20.220   3.460   6.551 -0.2229 -0.0193 -0.0890
 1572BOLB   C3B37715  20.071   3.369   6.923 -0.0906  0.3493  0.2343
 1572BOLB   C4B37716  19.855   3.523   7.229  0.0360  0.3470 -0.2048
 1572BOLB   NC237717  20.888   2.510   5.884 -0.0193  0.2520 -0.1424
 1572BOLB   PO237718  20.620   2.150   5.869 -0.2612  0.2608 -0.2333
 1572BOLB   GL337719  20.397   2.470   5.895  0.1095  0.0237 -0.1304
 1572BOLB   GL437720  20.147   2.444   5.695  0.0501 -0.0520  0.1483
 1572BOLB   C1C37721  20.105   2.665   6.223 -0.0923 -0.0679  0.0572
 1572BOLB   C2C37722  19.851   3.033   6.264 -0.2450  0.0024  0.2475
 1572BOLB   C3C37723  19.703   3.294   6.607 -0.2530 -0.2678 -0.0937
 1572BOLB   C4C37724  19.640   3.730   6.622  0.1180 -0.0477  0.2131
 1572BOLB   C1D37725  19.826   2.344   5.932 -0.3114 -0.0989 -0.0273
 1572BOLB   C2D37726  19.586   2.430   6.132  0.2403  0.1188 -0.2764
 1572BOLB   C3D37727  19.368   2.695   6.321 -0.1253  0.0599  0.1811
 1572BOLB   C4D37728  18.967   2.817   6.285 -0.1851  0.1752 -0.2380
 1573BOLB   NC137729  16.857  17.170  19.531 -0.3040 -0.1772 -0.3629
 1573BOLB   PO137730  17.014  17.421  19.903 -0.2275 -0.0170  0.1850
 1573BOLB   GL137731  16.939  17.787  20.192 -0.1650 -0.0279 -0.0722
 1573BOLB   GL237732  17.177  17.630  20.323 -0.0922 -0.2046  0.2247
 1573BOLB   C1A37733  16.946  18.247  20.226 -0.0760 -0.3548 -0.1654
 1573BOLB   C2A37734  16.901  18.680  20.233 -0.1453 -0.0588 -0.4446
 1573BOLB   C3A37735  17.109  18.981  20.525  0.1637  0.0406  0.1835
 1573BOLB   C4A37736  17.169  19.386  20.837  0.3276 -0.1078 -0.1814
 1573BOLB   C1B37737  17.426  18.036  20.355 -0.3868 -0.1543  0.2455
 1573BOLB   C2B37738  17.339  18.442  20.568 -0.0395  0.1006 -0.0071
 1573BOLB   C3B37739  17.302  18.713  20.856  0.0719 -0.0044 -0.0539
 1573BOLB   C4B37740  17.608  18.997  21.156  0.2458 -0.1513 -0.0739
 1573BOLB   NC237741  17.605  21.171  21.945 -0.2361  0.5728  0.0079
 1573BOLB   PO237742  17.294  21.426  21.978 -0.2828  0.1444  0.5150
 1573BOLB   GL337743  17.265  20.975  22.221  0.1102  0.0258 -0.0038
 1573BOLB   GL437744  17.575  20.904  22.418 -0.4665  0.0284 -0.2462
 1573BOLB   C1C37745  17.310  20.420  22.275 -0.2617 -0.3469 -0.0993
 1573BOLB   C2C37746  17.094  20.019  22.007 -0.2575  0.1710 -0.0109
 1573BOLB   C3C37747  17.150  19.631  21.727  0.0208 -0.0766  0.0145
 1573BOLB   C4C37748  17.080  19.341  21.267 -0.1977 -0.0382 -0.0177
 1573BOLB   C1D37749  17.780  20.540  22.206  0.0223  0.1433  0.0898
 1573BOLB   C2D37750  17.685  20.145  22.152 -0.2019  0.1051  0.1146
 1573BOLB   C3D37751  17.541  19.696  22.035  0.0069  0.2334 -0.0113
 1573BOLB   C4D37752  17.531  19.297  22.122 -0.0406  0.1607 -0.3233
 1574BOLB   NC137753  16.032   1.946  17.691 -0.0455 -0.1635 -0.0886
 1574BOLB   PO137754  16.448   1.918  17.887 -0.1997  0.3325  0.0547
 1574BOLB   GL137755  16.607   1.527  17.986  0.0034 -0.0164  0.0943
 1574BOLB   GL237756  16.574   1.306  17.786  0.0768 -0.2942  0.1752
 1574BOLB   C1A37757  16.817   1.253  18.234 -0.0210 -0.1621  0.0574
 1574BOLB   C2A37758  17.143   0.970  18.414  0.1410 -0.2702 -0.0098
 1574BOLB   C3A37759  17.248   0.591  18.562  0.1564  0.1899 -0.3121
 1574BOLB   C4A37760  17.028   0.098  18.648  0.1314 -0.0905  0.0969
 1574BOLB   C1B37761  16.404   0.995  18.066  0.1109  0.1598 -0.1841
 1574BOLB   C2B37762  16.151   0.818  18.338  0.1064  0.1350 -0.3725
 1574BOLB   C3B37763  16.051   0.510  18.647 -0.1939 -0.0580 -0.2065
 1574BOLB   C4B37764  16.173   0.067  18.972 -0.1967 -0.3444  0.5530
 1574BOLB   NC237765  16.936  -1.876  19.900 -0.2101  0.2820  0.1584
 1574BOLB   PO237766  17.432  -1.996  19.752 -0.1661 -0.1507 -0.0796
 1574BOLB   GL337767  17.340  -1.521  19.768  0.0313  0.0161  0.4083
 1574BOLB   GL437768  17.584  -1.305  19.761  0.1113 -0.3447 -0.2524
 1574BOLB   C1C37769  17.034  -1.223  19.706 -0.0275  0.0405  0.2142
 1574BOLB   C2C37770  16.970  -0.988  19.339  0.0117 -0.1924 -0.1796
 1574BOLB   C3C37771  16.796  -0.615  19.076  0.1762 -0.0092  0.1801
 1574BOLB   C4C37772  16.910  -0.262  18.795 -0.1911 -0.0220  0.2979
 1574BOLB   C1D37773  17.457  -1.003  19.422  0.0394 -0.1936 -0.0441
 1574BOLB   C2D37774  17.630  -0.676  19.545 -0.1658 -0.3428 -0.1856
 1574BOLB   C3D37775  17.588  -0.267  19.430  0.1527  0.0054  0.1995
 1574BOLB   C4D37776  17.814  -0.110  19.096 -0.4778 -0.0575 -0.2206
 1575BOLB   NC137777  16.816  18.415  16.963  0.3315 -0.0167 -0.1324
 1575BOLB   PO137778  16.555  18.781  16.800  0.1140 -0.1711 -0.2227
 1575BOLB   GL137779  16.936  18.874  16.736  0.0588  0.0564  0.1501
 1575BOLB   GL237780  17.026  19.013  16.380 -0.2617 -0.0846  0.0775
 1575BOLB   C1A37781  17.175  19.267  16.820  0.2196 -0.2246  0.0161
 1575BOLB   C2A37782  17.125  19.660  16.957  0.0120  0.1118 -0.1877
 1575BOLB   C3A37783  17.323  20.118  16.943 -0.0413 -0.2320  0.3125
 1575BOLB   C4A37784  17.274  20.557  17.199 -0.0009 -0.1741 -0.0937
 1575BOLB   C1B37785  17.073  19.464  16.221 -0.1041  0.0260  0.2080
 1575BOLB   C2B37786  17.466  19.720  16.056 -0.3423 -0.2245 -0.1459
 1575BOLB   C3B37787  17.535  20.133  15.938  0.1475 -0.1744 -0.2942
 1575BOLB   C4B37788  17.247  20.521  16.074 -0.0184 -0.2386  0.0517
 1575BOLB   NC237789  17.458  22.770  17.279  0.0720  0.2483  0.2838
 1575BOLB   PO237790  16.993  22.711  17.189  0.0105  0.0652 -0.1109
 1575BOLB   GL337791  16.825  22.375  17.206  0.3166  0.0087  0.2691
 1575BOLB   GL437792  16.420  22.241  17.231  0.1409 -0.3370 -0.0510
 1575BOLB   C1C37793  16.886  21.942  17.028 -0.2107  0.1681 -0.0028
 1575BOLB   C2C37794  17.264  21.670  17.106  0.2187  0.0207 -0.5053
 1575BOLB   C3C37795  17.217  21.256  17.081 -0.1457  0.1253 -0.3249
 1575BOLB   C4C37796  17.341  20.934  17.147  0.0058  0.0754  0.0188
 1575BOLB   C1D37797  16.225  21.937  17.413  0.2353 -0.1418  0.0303
 1575BOLB   C2D37798  15.928  21.543  17.612 -0.1145 -0.2642 -0.0501
 1575BOLB   C3D37799  15.725  21.298  17.817  0.2059  0.0436  0.0438
 1575BOLB   C4D37800  15.455  21.030  18.002  0.0446 -0.1725 -0.2773
 1576BOLB   NC137801  14.559   7.844  23.308  0.1565 -0.2850  0.3291
 1576BOLB   PO137802  14.885   7.633  23.137  0.0232  0.0339  0.2895
 1576BOLB   GL137803  14.963   7.557  23.505  0.2004 -0.0857  0.1469
 1576BOLB   GL237804  14.888   7.227  23.553  0.1245 -0.0958 -0.2375
 1576BOLB   C1A37805  14.793   7.537  23.908 -0.2219  0.0914  0.0701
 1576BOLB   C2A37806  14.604   7.526  24.321 -0.0679  0.0198 -0.2312
 1576BOLB   C3A37807  14.511   7.187  24.668 -0.1811 -0.2199 -0.0210
 1576BOLB   C4A37808  14.230   7.195  25.013 -0.1663  0.0855 -0.0140
 1576BOLB   C1B37809  14.997   6.995  23.881 -0.2219  0.1010 -0.3111
 1576BOLB   C2B37810  14.955   7.100  24.313  0.2016 -0.1791 -0.2379
 1576BOLB   C3B37811  15.064   7.203  24.680  0.3634 -0.0542 -0.1966
 1576BOLB   C4B37812  15.342   7.136  24.982 -0.0440  0.1634 -0.3995
 1576BOLB   NC237813  14.068   8.761  27.244  0.1647 -0.1412  0.3382
 1576BOLB   PO237814  14.314   8.416  27.360  0.0176  0.0742 -0.0325
 1576BOLB   GL337815  14.348   8.410  26.909 -0.0849 -0.1238 -0.4267
 1576BOLB   GL437816  14.397   8.627  26.684 -0.1519 -0.1969 -0.4328
 1576BOLB   C1C37817  14.335   8.144  26.580  0.3001 -0.0896  0.0134
 1576BOLB   C2C37818  14.291   8.032  26.209 -0.1073  0.0265  0.2934
 1576BOLB   C3C37819  14.140   7.670  25.835 -0.0648  0.3821  0.0232
 1576BOLB   C4C37820  14.173   7.526  25.316 -0.0516  0.0607  0.1683
 1576BOLB   C1D37821  14.324   8.575  26.210 -0.1362 -0.2834 -0.0301
 1576BOLB   C2D37822  13.921   8.604  25.909 -0.0293  0.3751 -0.1597
 1576BOLB   C3D37823  13.426   8.549  25.756  0.0129  0.0304 -0.1667
 1576BOLB   C4D37824  13.012   8.623  25.751  0.1737 -0.2198 -0.1205
 1577BOLB   NC137825   9.213  14.517  16.158  0.2456  0.1161  0.2558
 1577BOLB   PO137826   8.947  14.498  16.496  0.0839 -0.3937 -0.2773
 1577BOLB   GL137827   8.633  14.704  16.311 -0.3570 -0.3034  0.2561
 1577BOLB   GL237828   8.716  14.836  16.005  0.2518  0.1417  0.0145
 1577BOLB   C1A37829   8.255  15.088  16.320  0.0142  0.1020  0.0563
 1577BOLB   C2A37830   7.830  15.212  16.435 -0.1096 -0.1426 -0.2991
 1577BOLB   C3A37831   7.367  15.177  16.534 -0.1652 -0.3280 -0.0792
 1577BOLB   C4A37832   7.035  14.965  16.590  0.1260 -0.2564 -0.1481
 1577BOLB   C1B37833   8.410  15.202  15.837 -0.0589  0.0833  0.0352
 1577BOLB   C2B37834   8.327  15.591  15.667 -0.1387 -0.2752 -0.2148
 1577BOLB   C3B37835   8.072  15.996  15.778  0.0864 -0.3317 -0.1775
 1577BOLB   C4B37836   8.083  16.379  16.017  0.1163 -0.1065  0.0081
 1577BOLB   NC237837   4.904  16.338  15.972 -0.1752 -0.2996  0.3883
 1577BOLB   PO237838   5.251  16.146  16.220 -0.0042 -0.2456  0.0653
 1577BOLB   GL337839   5.607  15.853  16.205  0.1737  0.0615  0.1383
 1577BOLB   GL437840   5.799  15.975  15.826  0.2212  0.1819 -0.1645
 1577BOLB   C1C37841   5.619  15.458  16.370 -0.1374  0.0580 -0.0457
 1577BOLB   C2C37842   5.849  15.128  16.570 -0.1575  0.2888 -0.0657
 1577BOLB   C3C37843   6.185  14.878  16.611  0.0326  0.0675 -0.0393
 1577BOLB   C4C37844   6.699  14.689  16.383 -0.0580  0.0420  0.0586
 1577BOLB   C1D37845   6.186  16.095  15.894 -0.0416 -0.1404 -0.0474
 1577BOLB   C2D37846   6.628  16.019  15.914  0.0805  0.1182 -0.0705
 1577BOLB   C3D37847   6.888  16.085  16.303 -0.2104 -0.3363 -0.1389
 1577BOLB   C4D37848   6.982  16.194  16.637 -0.1363 -0.2481  0.2872
 1578BOLB   NC137849  10.309  17.675   8.264 -0.2172  0.0960 -0.0849
 1578BOLB   PO137850  10.117  17.363   7.972 -0.0851 -0.2379  0.2724
 1578BOLB   GL137851  10.283  17.193   8.433 -0.3013 -0.0303 -0.1099
 1578BOLB   GL237852  10.412  17.489   8.706 -0.0973  0.0660  0.1249
 1578BOLB   C1A37853  10.428  16.967   8.707 -0.2799  0.2445  0.3199
 1578BOLB   C2A37854  10.291  16.767   9.106  0.0569  0.2812 -0.3759
 1578BOLB   C3A37855  10.560  16.503   9.445 -0.2993  0.2366 -0.2184
 1578BOLB   C4A37856  10.802  16.215   9.680 -0.0456 -0.1083 -0.3604
 1578BOLB   C1B37857  10.722  17.208   9.025  0.1271  0.1363  0.1783
 1578BOLB   C2B37858  10.915  17.033   9.448  0.1642  0.3109  0.0816
 1578BOLB   C3B37859  10.791  16.809   9.841 -0.0044 -0.4744  0.0751
 1578BOLB   C4B37860  10.560  16.460  10.088 -0.1217  0.1517 -0.1306
 1578BOLB   NC237861  12.852  14.474   9.610 -0.0378 -0.0458 -0.0172
 1578BOLB   PO237862  12.760  14.930   9.794 -0.1817  0.2007  0.2918
 1578BOLB   GL337863  12.459  15.155   9.635  0.2102  0.1316 -0.0034
 1578BOLB   GL437864  12.455  15.452   9.472 -0.1181 -0.1228 -0.0942
 1578BOLB   C1C37865  12.095  15.141   9.557  0.1117  0.3867 -0.0417
 1578BOLB   C2C37866  11.655  15.295   9.587  0.1093 -0.0076  0.0720
 1578BOLB   C3C37867  11.266  15.561   9.649 -0.1749  0.2727  0.3296
 1578BOLB   C4C37868  10.906  15.776   9.814 -0.0422  0.0597  0.1823
 1578BOLB   C1D37869  12.173  15.802   9.480  0.1297 -0.2226  0.2854
 1578BOLB   C2D37870  11.966  16.070   9.317  0.0273  0.0984 -0.0820
 1578BOLB   C3D37871  11.634  16.481   9.256 -0.2257  0.2726 -0.0627
 1578BOLB   C4D37872  11.544  16.925   9.323 -0.0268 -0.3400  0.3035
 1579BOLB   NC137873  19.042   3.737  10.867 -0.0839 -0.0252  0.0404
 1579BOLB   PO137874  19.093   3.985  10.506  0.2082 -0.3081  0.2730
 1579BOLB   GL137875  19.295   3.966  10.082  0.0982 -0.0468  0.0526
 1579BOLB   GL237876  19.074   3.869   9.768  0.0276  0.0063 -0.1326
 1579BOLB   C1A37877  19.532   3.761   9.694  0.1290 -0.2950  0.2883
 1579BOLB   C2A37878  19.682   3.596   9.307  0.0967  0.3095  0.0668
 1579BOLB   C3A37879  19.955   3.282   9.066 -0.1368 -0.2739 -0.0618
 1579BOLB   C4A37880  20.168   3.102   8.810 -0.0048  0.0967  0.0120
 1579BOLB   C1B37881  18.921   3.928   9.353  0.3811 -0.1761 -0.0240
 1579BOLB   C2B37882  18.678   3.814   9.102  0.1967  0.0106 -0.0156
 1579BOLB   C3B37883  18.241   3.605   9.043  0.3879  0.0294  0.4827
 1579BOLB   C4B37884  17.900   3.409   8.908  0.2393 -0.0039  0.1969
 1579BOLB   NC237885  22.001   2.302   7.930  0.0399 -0.1098  0.0199
 1579BOLB   PO237886  21.809   1.999   7.560 -0.2202  0.1482  0.0577
 1579BOLB   GL337887  21.461   2.234   7.823  0.1881 -0.1283  0.1289
 1579BOLB   GL437888  21.349   2.145   8.146  0.3807  0.3004 -0.1847
 1579BOLB   C1C37889  20.963   2.279   7.888  0.0088  0.1712  0.0777
 1579BOLB   C2C37890  20.641   2.629   7.964  0.0833 -0.0140  0.1610
 1579BOLB   C3C37891  20.409   2.874   8.090  0.0845 -0.0951 -0.5164
 1579BOLB   C4C37892  20.143   2.880   8.425  0.0707  0.2538  0.3252
 1579BOLB   C1D37893  21.133   2.639   8.142 -0.2256 -0.3223 -0.1566
 1579BOLB   C2D37894  21.157   2.975   8.342 -0.2274 -0.0425 -0.2076
 1579BOLB   C3D37895  21.137   3.151   8.746  0.2925 -0.1655 -0.0070
 1579BOLB   C4D37896  21.046   3.099   9.194 -0.0578  0.0613 -0.3586
 1580BOLB   NC137897  19.109   1.279  23.327  0.2238 -0.2961 -0.1503
 1580BOLB   PO137898  18.816   1.468  23.524 -0.0723 -0.2572 -0.0817
 1580BOLB   GL137899  18.876   1.898  23.266 -0.1048  0.2728 -0.3416
 1580BOLB   GL237900  18.892   2.074  23.508 -0.1565  0.1861 -0.2315
 1580BOLB   C1A37901  18.706   2.290  23.067 -0.1210 -0.2194 -0.1736
 1580BOLB   C2A37902  18.447   2.599  22.775 -0.0342  0.0808  0.0117
 1580BOLB   C3A37903  18.259   2.910  22.483  0.1377 -0.0442  0.0146
 1580BOLB   C4A37904  18.372   3.352  22.382 -0.1908 -0.0856 -0.2798
 1580BOLB   C1B37905  19.213   2.194  23.123  0.1293 -0.0149 -0.3302
 1580BOLB   C2B37906  19.587   2.058  22.947 -0.0046  0.2882  0.2859
 1580BOLB   C3B37907  19.522   1.774  22.554  0.1136  0.0940 -0.1303
 1580BOLB   C4B37908  19.260   1.713  22.209 -0.1215 -0.1256 -0.2089
 1580BOLB   NC237909  17.233   5.126  21.441 -0.0247 -0.0741  0.0842
 1580BOLB   PO237910  17.582   5.306  21.686  0.0709  0.0091  0.0142
 1580BOLB   GL337911  17.879   5.193  21.869 -0.1563  0.1274 -0.1894
 1580BOLB   GL437912  18.144   5.401  22.003  0.1831 -0.1100  0.0584
 1580BOLB   C1C37913  17.864   4.756  22.090 -0.3514 -0.0268 -0.0373
 1580BOLB   C2C37914  18.017   4.360  21.884  0.0100  0.0210  0.1510
 1580BOLB   C3C37915  17.955   4.030  22.031 -0.3786  0.1587 -0.1355
 1580BOLB   C4C37916  18.168   3.623  22.148  0.2253 -0.0685 -0.0760
 1580BOLB   C1D37917  18.136   5.083  22.346  0.0718 -0.1895 -0.1837
 1580BOLB   C2D37918  18.136   4.598  22.519  0.2035 -0.4991  0.0449
 1580BOLB   C3D37919  18.122   4.280  22.806  0.1350 -0.1645 -0.0523
 1580BOLB   C4D37920  18.133   4.299  23.250  0.0121 -0.2799  0.1514
 1581BOLB   NC137921  11.785  16.750  16.439  0.0015 -0.0612 -0.2183
 1581BOLB   PO137922  11.791  17.188  16.668 -0.0804 -0.1568  0.0889
 1581BOLB   GL137923  11.529  17.494  16.594 -0.2172 -0.0355 -0.1666
 1581BOLB   GL237924  11.639  17.713  16.730  0.4025 -0.1065 -0.3389
 1581BOLB   C1A37925  11.376  17.857  16.164 -0.4357 -0.1688 -0.2237
 1581BOLB   C2A37926  11.035  18.118  16.086  0.2083 -0.2038 -0.0576
 1581BOLB   C3A37927  10.903  18.227  15.671  0.4333  0.0758 -0.0771
 1581BOLB   C4A37928  10.740  18.591  15.489  0.1532 -0.1231 -0.1838
 1581BOLB   C1B37929  11.509  18.068  16.604 -0.0741 -0.3097  0.1680
 1581BOLB   C2B37930  11.472  18.398  16.763 -0.0635 -0.1014  0.3814
 1581BOLB   C3B37931  11.718  18.704  16.795  0.0447  0.2133 -0.0343
 1581BOLB   C4B37932  11.870  19.216  16.862  0.2585 -0.0183 -0.1191
 1581BOLB   NC237933  10.430  21.291  15.705 -0.1807  0.1796 -0.2314
 1581BOLB   PO237934  10.297  20.969  15.417  0.1692  0.0889  0.2335
 1581BOLB   GL337935  10.071  20.634  15.570 -0.1403 -0.3314 -0.1251
 1581BOLB   GL437936  10.313  20.469  15.409  0.0660  0.1651 -0.3985
 1581BOLB   C1C37937   9.904  20.177  15.598 -0.0024  0.1231 -0.0627
 1581BOLB   C2C37938  10.022  19.653  15.471  0.1837  0.1472  0.1053
 1581BOLB   C3C37939  10.132  19.234  15.673  0.0127  0.2771 -0.5001
 1581BOLB   C4C37940  10.429  18.856  15.619 -0.2018 -0.1253 -0.1656
 1581BOLB   C1D37941  10.399  20.067  15.558  0.4459  0.1553  0.1695
 1581BOLB   C2D37942  10.697  19.714  15.424  0.0619  0.1524  0.0531
 1581BOLB   C3D37943  10.583  19.229  15.360 -0.2635  0.0496 -0.1024
 1581BOLB   C4D37944  10.458  18.850  15.130  0.2385 -0.1007  0.1584
 1582BOLB   NC137945  15.065   1.200  16.960  0.0130  0.1603 -0.0109
 1582BOLB   PO137946  14.644   1.300  17.091 -0.0043  0.0922  0.1029
 1582BOLB   GL137947  14.687   1.042  17.365 -0.2028 -0.0770  0.0042
 1582BOLB   GL237948  14.820   0.776  17.211 -0.1483 -0.0858  0.2263
 1582BOLB   C1A37949  14.546   0.700  17.614  0.0283 -0.2381 -0.2702
 1582BOLB   C2A37950  14.375   0.623  17.989 -0.2320  0.0224 -0.1623
 1582BOLB   C3A37951  14.198   0.258  18.117  0.0271 -0.1393 -0.0302
 1582BOLB   C4A37952  14.028  -0.083  18.031  0.2082 -0.0794  0.1837
 1582BOLB   C1B37953  14.591   0.429  17.264  0.3582 -0.1438  0.1435
 1582BOLB   C2B37954  14.854   0.048  17.208 -0.0812  0.1015  0.1296
 1582BOLB   C3B37955  14.966  -0.432  17.102 -0.1202  0.3307 -0.0323
 1582BOLB   C4B37956  15.267  -0.470  16.773 -0.1688  0.2357 -0.0692
 1582BOLB   NC237957  14.874  -3.161  17.643 -0.0048 -0.2274  0.0527
 1582BOLB   PO237958  14.711  -2.821  17.857 -0.1973 -0.0742 -0.1125
 1582BOLB   GL337959  14.413  -2.369  17.887  0.2375  0.2734 -0.0401
 1582BOLB   GL437960  14.810  -2.304  17.818 -0.0696 -0.0042 -0.1307
 1582BOLB   C1C37961  14.313  -1.858  17.885  0.1221  0.4078  0.1496
 1582BOLB   C2C37962  14.172  -1.474  18.045 -0.1048 -0.2443  0.0675
 1582BOLB   C3C37963  14.066  -0.962  17.940 -0.2220 -0.0730 -0.2260
 1582BOLB   C4C37964  14.057  -0.559  17.926 -0.0879  0.1030  0.0464
 1582BOLB   C1D37965  14.684  -1.931  17.599 -0.3273  0.0473 -0.0621
 1582BOLB   C2D37966  14.928  -1.551  17.353 -0.2491 -0.0642  0.0401
 1582BOLB   C3D37967  14.848  -1.138  17.394  0.2974  0.1017 -0.1207
 1582BOLB   C4D37968  15.106  -0.827  17.342  0.1453 -0.0062  0.2428
 1583BOLB   NC137969  16.595  15.918  10.050  0.1642  0.0485 -0.3313
 1583BOLB   PO137970  17.016  16.022  10.138  0.0533  0.0986  0.0454
 1583BOLB   GL137971  17.020  16.254   9.885  0.1110 -0.0360 -0.0029
 1583BOLB   GL237972  16.742  16.351   9.771  0.1269 -0.0650 -0.2565
 1583BOLB   C1A37973  17.246  16.441   9.537 -0.3602 -0.2823 -0.1990
 1583BOLB   C2A37974  17.203  16.606   9.139 -0.0377  0.1194  0.0397
 1583BOLB   C3A37975  17.395  16.973   8.870 -0.0478 -0.1711 -0.1231
 1583BOLB   C4A37976  17.437  17.378   8.696  0.1019 -0.0056 -0.1912
 1583BOLB   C1B37977  16.705  16.691   9.471 -0.2711 -0.1613  0.4022
 1583BOLB   C2B37978  16.743  16.993   9.065  0.1119  0.0624 -0.0530
 1583BOLB   C3B37979  16.979  17.104   8.725  0.4455  0.1409  0.0444
 1583BOLB   C4B37980  16.982  17.533   8.683 -0.4111  0.0855 -0.5335
 1583BOLB   NC237981  18.083  19.678   7.468  0.2941 -0.0210  0.0812
 1583BOLB   PO237982  18.076  19.576   7.883 -0.0695 -0.0073  0.2387
 1583BOLB   GL337983  18.004  19.159   7.964  0.0399  0.0513 -0.1154
 1583BOLB   GL437984  17.676  19.156   8.134 -0.1427 -0.2280  0.0196
 1583BOLB   C1C37985  18.056  18.687   7.930  0.0791 -0.1201  0.3428
 1583BOLB   C2C37986  18.014  18.463   8.242  0.1208  0.1793 -0.1105
 1583BOLB   C3C37987  17.712  18.075   8.485 -0.3064 -0.0787  0.1444
 1583BOLB   C4C37988  17.563  17.785   8.674 -0.3466  0.1840  0.1126
 1583BOLB   C1D37989  17.486  19.144   8.494  0.1629 -0.0429 -0.1689
 1583BOLB   C2D37990  17.139  18.953   8.820 -0.0695  0.1242  0.0027
 1583BOLB   C3D37991  17.111  18.520   8.943 -0.1195  0.1597  0.1705
 1583BOLB   C4D37992  17.432  18.286   9.048  0.1653 -0.2575  0.1822
 1584BOLB   NC137993  14.852  12.794  22.457 -0.0575  0.2234  0.0536
 1584BOLB   PO137994  14.647  12.960  22.752  0.3749  0.0857 -0.2358
 1584BOLB   GL137995  14.369  13.207  23.172 -0.0313  0.2847  0.1786
 1584BOLB   GL237996  14.140  13.013  23.423  0.0485  0.1275 -0.0370
 1584BOLB   C1A37997  14.539  13.481  23.427 -0.2522  0.0121  0.1267
 1584BOLB   C2A37998  14.187  13.529  23.801  0.2302  0.2182  0.2286
 1584BOLB   C3A37999  13.866  13.549  24.197  0.1463 -0.0186 -0.0590
 1584BOLB   C4A38000  13.812  13.741  24.567  0.0612  0.2516  0.0130
 1584BOLB   C1B38001  13.707  13.305  23.661 -0.0151 -0.1686  0.0116
 1584BOLB   C2B38002  13.441  13.587  23.893 -0.1313 -0.0371 -0.0939
 1584BOLB   C3B38003  13.488  13.965  24.136  0.2153  0.0548 -0.3548
 1584BOLB   C4B38004  13.818  14.130  24.207 -0.1881 -0.0516 -0.0497
 1584BOLB   NC238005  13.348  14.327  26.981 -0.0352 -0.1473 -0.0393
 1584BOLB   PO238006  13.230  14.059  26.702 -0.0897  0.1042  0.3771
 1584BOLB   GL338007  13.385  14.187  26.335 -0.3059 -0.0071 -0.0775
 1584BOLB   GL438008  13.174  14.400  26.188  0.0407 -0.0197  0.1342
 1584BOLB   C1C38009  13.772  14.081  26.062 -0.1135 -0.1745  0.2127
 1584BOLB   C2C38010  13.705  14.059  25.725 -0.1850 -0.4322 -0.1128
 1584BOLB   C3C38011  13.709  13.899  25.287 -0.1628  0.0083 -0.2927
 1584BOLB   C4C38012  13.746  14.038  24.855  0.2634  0.6481 -0.0609
 1584BOLB   C1D38013  13.234  14.042  25.903 -0.0065 -0.0659 -0.0613
 1584BOLB   C2D38014  13.502  13.657  26.013 -0.0666  0.2859  0.0844
 1584BOLB   C3D38015  13.644  13.298  26.229 -0.0397  0.0978  0.1839
 1584BOLB   C4D38016  13.889  12.931  25.991 -0.2243 -0.0024  0.2278
 1585BOLB   NC138017  19.804  12.328   9.432  0.2221  0.2026  0.1415
 1585BOLB   PO138018  19.478  12.278   9.171  0.0392 -0.0953 -0.0523
 1585BOLB   GL138019  19.794  12.301   8.850 -0.2515  0.1939  0.1357
 1585BOLB   GL238020  19.992  12.070   8.968 -0.0256  0.2426  0.1020
 1585BOLB   C1A38021  20.084  12.404   8.600  0.1525  0.0027  0.2074
 1585BOLB   C2A38022  20.535  12.480   8.413 -0.0784 -0.3644 -0.0975
 1585BOLB   C3A38023  20.842  12.809   8.245 -0.2359 -0.3880  0.1511
 1585BOLB   C4A38024  20.955  13.312   8.140  0.1262  0.0150 -0.0292
 1585BOLB   C1B38025  19.871  11.894   8.598  0.1897  0.1835 -0.1386
 1585BOLB   C2B38026  19.715  11.838   8.068  0.0480 -0.0045  0.2467
 1585BOLB   C3B38027  19.682  11.828   7.706  0.0053  0.0449  0.4072
 1585BOLB   C4B38028  19.788  11.909   7.212  0.4963 -0.1147 -0.0590
 1585BOLB   NC238029  22.392  14.905   6.551  0.1867  0.0664 -0.3667
 1585BOLB   PO238030  22.364  14.592   6.370  0.0785  0.2310 -0.1858
 1585BOLB   GL338031  22.210  14.394   6.737 -0.4951  0.0564 -0.1321
 1585BOLB   GL438032  21.918  14.315   6.514 -0.1758  0.1295  0.0727
 1585BOLB   C1C38033  21.929  14.313   7.092  0.0972  0.0761 -0.1762
 1585BOLB   C2C38034  21.742  13.974   7.309  0.0282 -0.0684 -0.4787
 1585BOLB   C3C38035  21.509  13.988   7.735  0.1788  0.1252  0.2355
 1585BOLB   C4C38036  21.278  13.681   7.911  0.3109 -0.2740  0.0254
 1585BOLB   C1D38037  21.597  14.102   6.740 -0.1571 -0.0507 -0.1006
 1585BOLB   C2D38038  21.304  14.080   7.103 -0.0660  0.1538  0.1538
 1585BOLB   C3D38039  21.065  14.309   7.396  0.0389  0.1636 -0.0399
 1585BOLB   C4D38040  20.741  14.526   7.617 -0.2049 -0.3399 -0.1943
 1586BOLB   NC138041   9.444  13.476  14.224 -0.1853 -0.0447 -0.1496
 1586BOLB   PO138042   9.408  13.948  14.097 -0.0849 -0.0029  0.0194
 1586BOLB   GL138043   8.946  14.117  13.978 -0.2889 -0.0198  0.0989
 1586BOLB   GL238044   8.672  14.131  14.244 -0.0780  0.0268  0.1803
 1586BOLB   C1A38045   8.615  14.088  13.725  0.4037 -0.0038  0.1296
 1586BOLB   C2A38046   8.353  14.060  13.373 -0.6085 -0.0752 -0.3459
 1586BOLB   C3A38047   8.432  14.230  12.990 -0.0162 -0.0585  0.0812
 1586BOLB   C4A38048   8.068  14.451  12.727 -0.2216  0.1465  0.1140
 1586BOLB   C1B38049   8.234  14.157  14.051  0.0578 -0.2977 -0.3044
 1586BOLB   C2B38050   7.981  14.334  13.775  0.0717  0.1239 -0.2770
 1586BOLB   C3B38051   7.589  14.510  13.688  0.2862 -0.0660  0.1720
 1586BOLB   C4B38052   7.380  14.321  13.994 -0.0457  0.2232 -0.0131
 1586BOLB   NC238053   6.370  15.765  11.686  0.2371  0.0529  0.1649
 1586BOLB   PO238054   6.478  15.441  11.359 -0.0429  0.0743  0.1373
 1586BOLB   GL338055   6.805  15.457  11.611  0.2353  0.2230 -0.0724
 1586BOLB   GL438056   6.847  15.095  11.464  0.0723 -0.1569  0.0872
 1586BOLB   C1C38057   7.031  15.275  11.963  0.0504 -0.2178 -0.2023
 1586BOLB   C2C38058   7.296  14.861  12.051 -0.1718 -0.2188 -0.2140
 1586BOLB   C3C38059   7.522  14.578  12.075 -0.1659  0.0353  0.2027
 1586BOLB   C4C38060   7.846  14.404  12.359  0.1400 -0.3041 -0.0648
 1586BOLB   C1D38061   6.793  14.729  11.389  0.2905  0.0749  0.0085
 1586BOLB   C2D38062   6.852  14.363  11.384 -0.0833  0.0207  0.0168
 1586BOLB   C3D38063   6.960  13.940  11.445 -0.0686 -0.3216 -0.3101
 1586BOLB   C4D38064   7.351  13.700  11.610 -0.2744 -0.0185 -0.3632
 1587BOLB   NC138065  22.349   7.259  11.888 -0.3966  0.1013  0.1522
 1587BOLB   PO138066  22.060   6.996  11.987 -0.4249  0.2138  0.1270
 1587BOLB   GL138067  22.503   6.814  11.715 -0.2687 -0.1240  0.0585
 1587BOLB   GL238068  22.331   6.741  11.475  0.1491 -0.0678  0.0547
 1587BOLB   C1A38069  22.865   6.702  11.534 -0.0438 -0.1529  0.2865
 1587BOLB   C2A38070  23.015   6.465  11.311 -0.3173  0.1604 -0.0378
 1587BOLB   C3A38071  23.256   6.110  11.369  0.1429  0.0636  0.2008
 1587BOLB   C4A38072  23.665   5.867  11.330 -0.2367 -0.0800 -0.1821
 1587BOLB   C1B38073  22.485   6.712  11.168  0.2869  0.0485  0.2887
 1587BOLB   C2B38074  22.834   6.678  10.904  0.2341  0.0629 -0.0808
 1587BOLB   C3B38075  23.097   6.814  10.539 -0.1598 -0.1889 -0.0220
 1587BOLB   C4B38076  23.431   6.829  10.145  0.0686 -0.3812  0.1983
 1587BOLB   NC238077  25.621   4.640  10.652  0.0423  0.2224  0.1539
 1587BOLB   PO238078  25.841   5.062  10.529  0.3526 -0.0617 -0.2104
 1587BOLB   GL338079  25.436   5.244  10.558 -0.1082 -0.1701 -0.2421
 1587BOLB   GL438080  25.376   5.552  10.673 -0.1171 -0.0054 -0.0106
 1587BOLB   C1C38081  24.934   5.212  10.471  0.6462 -0.0962 -0.2642
 1587BOLB   C2C38082  24.544   5.125  10.624  0.0017  0.0159 -0.0182
 1587BOLB   C3C38083  24.249   5.328  10.863 -0.1474  0.0296 -0.2002
 1587BOLB   C4C38084  24.012   5.673  11.083 -0.1404 -0.0639 -0.1451
 1587BOLB   C1D38085  25.222   5.861  10.831  0.4740  0.0112 -0.3012
 1587BOLB   C2D38086  24.898   6.157  10.584  0.0770  0.0664 -0.1377
 1587BOLB   C3D38087  24.729   6.182  10.206 -0.2048  0.2748  0.2586
 1587BOLB   C4D38088  24.510   6.196   9.722  0.0899 -0.4253 -0.0488
 1588BOLB   NC138089  23.256  14.230  17.778  0.0492 -0.0371 -0.0266
 1588BOLB   PO138090  23.545  14.485  17.778 -0.2683  0.3242 -0.2871
 1588BOLB   GL138091  23.895  14.791  17.914 -0.1800  0.1318 -0.1938
 1588BOLB   GL238092  23.835  14.924  18.162 -0.1428 -0.2075 -0.1398
 1588BOLB   C1A38093  24.325  14.864  17.910 -0.1361  0.1326 -0.0332
 1588BOLB   C2A38094  24.690  15.031  18.085  0.0932 -0.0624  0.1431
 1588BOLB   C3A38095  24.901  15.148  18.349  0.2656  0.2015 -0.0797
 1588BOLB   C4A38096  24.944  15.577  18.561 -0.2420 -0.1548  0.0910
 1588BOLB   C1B38097  24.072  15.220  18.100  0.0961 -0.3788 -0.0009
 1588BOLB   C2B38098  24.187  15.614  18.297  0.1175  0.0808 -0.1587
 1588BOLB   C3B38099  24.485  15.816  18.358 -0.0853 -0.0789  0.0106
 1588BOLB   C4B38100  24.921  16.052  18.273 -0.2714  0.0797 -0.3510
 1588BOLB   NC238101  26.742  17.479  18.689 -0.0077  0.1039 -0.0399
 1588BOLB   PO238102  26.396  17.192  18.752  0.1428 -0.0017  0.1062
 1588BOLB   GL338103  26.114  17.161  18.994  0.1817 -0.2645  0.0584
 1588BOLB   GL438104  25.745  17.432  19.077  0.2386  0.0860 -0.0498
 1588BOLB   C1C38105  25.801  16.805  19.124 -0.1303  0.2629 -0.0815
 1588BOLB   C2C38106  25.528  16.447  19.167  0.0062 -0.0749 -0.1870
 1588BOLB   C3C38107  25.322  16.129  19.223  0.0519  0.1588 -0.2840
 1588BOLB   C4C38108  25.108  15.895  18.822  0.1030  0.3058 -0.1030
 1588BOLB   C1D38109  25.305  17.456  19.146 -0.1716 -0.1201  0.1959
 1588BOLB   C2D38110  25.008  17.170  18.996  0.2218 -0.0947 -0.1041
 1588BOLB   C3D38111  24.799  16.753  18.866 -0.2013 -0.1042 -0.0352
 1588BOLB   C4D38112  24.671  16.325  18.649 -0.2137 -0.1801  0.2154
 1589BOLB   NC138113  15.071  18.526  16.576 -0.1142 -0.1884 -0.0214
 1589BOLB   PO138114  14.736  18.605  16.340 -0.4329 -0.1029  0.1340
 1589BOLB   GL138115  14.756  19.135  16.169  0.4239  0.0479 -0.3672
 1589BOLB   GL238116  14.650  19.274  16.044  0.0618 -0.1521 -0.6999
 1589BOLB   C1A38117  15.111  19.498  16.237  0.1245  0.1031 -0.1346
 1589BOLB   C2A38118  15.311  19.945  16.440 -0.4086  0.3442 -0.0316
 1589BOLB   C3A38119  15.328  20.379  16.513 -0.0762 -0.1993  0.1978
 1589BOLB   C4A38120  15.299  20.820  16.551 -0.0540 -0.0227  0.1395
 1589BOLB   C1B38121  14.490  19.656  16.286  0.1762  0.0440 -0.0151
 1589BOLB   C2B38122  14.328  19.837  16.626  0.2380 -0.0880 -0.0424
 1589BOLB   C3B38123  14.113  20.224  16.759  0.3216 -0.0642 -0.0876
 1589BOLB   C4B38124  13.681  20.312  16.879 -0.0797  0.4917  0.0540
 1589BOLB   NC238125  13.872  22.862  15.957 -0.1959  0.2294  0.1811
 1589BOLB   PO238126  13.988  22.661  15.683 -0.0729  0.1666 -0.1147
 1589BOLB   GL338127  14.134  22.404  15.943 -0.2750 -0.0918 -0.1959
 1589BOLB   GL438128  14.408  22.253  15.791 -0.0227  0.0436 -0.0174
 1589BOLB   C1C38129  14.214  22.055  16.262 -0.5052  0.0771  0.0131
 1589BOLB   C2C38130  14.452  21.735  16.415 -0.3718  0.1651  0.2682
 1589BOLB   C3C38131  14.853  21.568  16.351 -0.1019  0.0497  0.1840
 1589BOLB   C4C38132  15.142  21.275  16.533  0.0874 -0.1611  0.2339
 1589BOLB   C1D38133  14.505  21.965  15.497 -0.0875  0.2312  0.2596
 1589BOLB   C2D38134  14.793  21.798  15.040 -0.0055 -0.0451  0.2019
 1589BOLB   C3D38135  14.966  21.447  14.900  0.1664 -0.0658  0.2403
 1589BOLB   C4D38136  14.779  21.103  14.963 -0.0517 -0.0423  0.0711
 1590BOLB   NC138137  12.865  15.804  20.108 -0.1476 -0.1178 -0.2519
 1590BOLB   PO138138  12.861  16.088  20.476  0.3145  0.0814 -0.2739
 1590BOLB   GL138139  12.581  16.368  20.818 -0.1914 -0.3293  0.1412
 1590BOLB   GL238140  12.792  16.723  20.591  0.2109 -0.0181 -0.0520
 1590BOLB   C1A38141  12.470  16.642  21.079 -0.1286  0.0373  0.0019
 1590BOLB   C2A38142  12.360  16.938  21.429 -0.1761 -0.4369  0.3590
 1590BOLB   C3A38143  12.102  17.156  21.618  0.0591  0.0069  0.0388
 1590BOLB   C4A38144  11.688  17.259  21.628 -0.2956  0.1834  0.2225
 1590BOLB   C1B38145  12.527  17.050  20.756 -0.0035 -0.2229 -0.0173
 1590BOLB   C2B38146  12.459  17.288  21.070 -0.0691  0.0139 -0.0824
 1590BOLB   C3B38147  12.323  17.539  21.409  0.1018 -0.0506 -0.2575
 1590BOLB   C4B38148  12.435  17.488  21.775  0.1211 -0.0901  0.0109
 1590BOLB   NC238149  10.576  18.536  23.788  0.0294  0.1881  0.2791
 1590BOLB   PO238150  10.786  18.157  23.649  0.3318 -0.1651 -0.0332
 1590BOLB   GL338151  10.836  18.016  23.192 -0.1362 -0.0885 -0.1418
 1590BOLB   GL438152  11.085  18.193  23.093 -0.2368 -0.3265  0.4545
 1590BOLB   C1C38153  10.887  17.731  22.840 -0.2301 -0.2737 -0.1959
 1590BOLB   C2C38154  11.128  17.656  22.500 -0.1231  0.2400  0.1711
 1590BOLB   C3C38155  11.327  17.421  22.307  0.0044 -0.3435 -0.0181
 1590BOLB   C4C38156  11.523  17.413  21.927  0.1175 -0.1185  0.3320
 1590BOLB   C1D38157  11.386  18.107  22.747  0.1411 -0.0185 -0.2175
 1590BOLB   C2D38158  11.608  17.766  22.519 -0.0868 -0.1158  0.1006
 1590BOLB   C3D38159  11.884  17.598  22.226  0.1827  0.0611  0.0206
 1590BOLB   C4D38160  12.158  17.371  22.121  0.1576  0.0177 -0.3431
 1591BOLB   NC138161  22.942   6.515  13.206  0.0507  0.0910  0.1326
 1591BOLB   PO138162  22.735   6.809  13.040  0.0665  0.0868  0.1569
 1591BOLB   GL138163  22.897   6.522  12.676  0.0638  0.0237  0.4299
 1591BOLB   GL238164  23.176   6.663  12.511  0.4803 -0.1378  0.0475
 1591BOLB   C1A38165  23.019   6.232  12.370  0.0233 -0.1201 -0.1112
 1591BOLB   C2A38166  23.299   5.919  12.184  0.1038 -0.1581  0.0849
 1591BOLB   C3A38167  23.577   5.599  11.897 -0.7392 -0.0666  0.1718
 1591BOLB   C4A38168  23.795   5.355  11.549 -0.1378  0.0382  0.0411
 1591BOLB   C1B38169  23.452   6.360  12.412 -0.1111  0.1216  0.0018
 1591BOLB   C2B38170  23.824   6.001  12.228  0.0891  0.0184 -0.0368
 1591BOLB   C3B38171  24.154   6.142  12.050 -0.1571 -0.0548  0.3874
 1591BOLB   C4B38172  24.593   6.308  11.895  0.2062  0.0531  0.1469
 1591BOLB   NC238173  25.167   3.843  10.750 -0.2859 -0.0010  0.2813
 1591BOLB   PO238174  25.147   3.474  11.047 -0.3057 -0.1884 -0.0158
 1591BOLB   GL338175  25.162   3.876  11.233 -0.1920  0.1075  0.0847
 1591BOLB   GL438176  25.304   4.020  11.506 -0.2392 -0.1570 -0.0498
 1591BOLB   C1C38177  24.800   4.068  11.352  0.2132 -0.4119  0.0164
 1591BOLB   C2C38178  24.509   4.432  11.235 -0.2041  0.1605 -0.0647
 1591BOLB   C3C38179  24.231   4.780  11.186 -0.2329  0.4885 -0.1757
 1591BOLB   C4C38180  23.936   5.182  11.210 -0.1485 -0.2572 -0.0274
 1591BOLB   C1D38181  25.116   4.395  11.763 -0.2782  0.6369 -0.0442
 1591BOLB   C2D38182  24.913   4.550  12.138  0.1254  0.1385  0.0989
 1591BOLB   C3D38183  24.570   4.679  12.285  0.0571  0.3276  0.1759
 1591BOLB   C4D38184  24.094   4.512  12.148 -0.3130 -0.1709  0.1993
 1592BOLB   NC138185  10.608   6.154  19.996  0.1775  0.0191  0.0564
 1592BOLB   PO138186  10.345   6.078  20.382 -0.2687 -0.2474 -0.0660
 1592BOLB   GL138187  10.120   6.082  20.793  0.0343  0.1269  0.3546
 1592BOLB   GL238188   9.878   6.318  20.893 -0.1225 -0.0223 -0.1523
 1592BOLB   C1A38189   9.812   5.845  20.982 -0.1279 -0.3625 -0.3022
 1592BOLB   C2A38190   9.567   5.580  21.041 -0.3518  0.1481 -0.1093
 1592BOLB   C3A38191   9.432   5.283  21.120  0.0298 -0.2652 -0.0164
 1592BOLB   C4A38192   9.183   4.998  21.288  0.3207 -0.1548  0.2489
 1592BOLB   C1B38193   9.528   6.545  21.147  0.0227  0.2867  0.1432
 1592BOLB   C2B38194   9.392   6.753  21.558 -0.1692 -0.1299 -0.2207
 1592BOLB   C3B38195   9.001   6.624  21.849 -0.0360  0.2354 -0.2226
 1592BOLB   C4B38196   8.728   6.699  22.305  0.1766  0.0503  0.0960
 1592BOLB   NC238197   7.644   2.585  21.940 -0.2170 -0.3164 -0.0466
 1592BOLB   PO238198   7.748   2.920  21.587  0.1464 -0.1753 -0.1484
 1592BOLB   GL338199   8.099   3.219  21.718  0.0952 -0.2806  0.0966
 1592BOLB   GL438200   8.013   3.552  21.877  0.1209 -0.0288  0.2230
 1592BOLB   C1C38201   8.157   3.571  21.432 -0.2405  0.3936 -0.1523
 1592BOLB   C2C38202   8.415   3.939  21.310 -0.0522 -0.1697  0.0233
 1592BOLB   C3C38203   8.739   4.130  21.155  0.0264 -0.3352  0.0596
 1592BOLB   C4C38204   9.018   4.525  21.238  0.2059  0.2343 -0.0362
 1592BOLB   C1D38205   7.915   3.889  21.661  0.0100  0.0803  0.0702
 1592BOLB   C2D38206   8.038   4.195  21.447 -0.0286  0.0610 -0.1272
 1592BOLB   C3D38207   8.265   4.374  21.121  0.0989  0.2474 -0.0301
 1592BOLB   C4D38208   8.637   4.599  20.933 -0.0568 -0.2815  0.0548
 1593BOLB   NC138209  12.522   2.984  18.954  0.5252  0.0735 -0.0563
 1593BOLB   PO138210  12.327   2.704  18.669 -0.5277 -0.2000  0.4360
 1593BOLB   GL138211  12.272   2.379  18.888  0.1235 -0.1399 -0.1630
 1593BOLB   GL238212  12.283   2.531  19.241  0.1270 -0.1184 -0.2162
 1593BOLB   C1A38213  11.874   2.314  19.056 -0.2057 -0.0667  0.0916
 1593BOLB   C2A38214  11.817   1.905  19.286 -0.1046  0.0866 -0.0494
 1593BOLB   C3A38215  11.985   1.610  19.498 -0.0888 -0.0456  0.0744
 1593BOLB   C4A38216  12.245   1.307  19.566  0.1983  0.0580  0.1831
 1593BOLB   C1B38217  12.333   2.071  19.247  0.0273  0.3971  0.1302
 1593BOLB   C2B38218  12.524   1.801  19.524 -0.0470 -0.0464 -0.1874
 1593BOLB   C3B38219  12.882   1.471  19.572  0.1100  0.1349  0.0303
 1593BOLB   C4B38220  12.947   1.585  20.006 -0.2440 -0.0247 -0.2353
 1593BOLB   NC238221  11.023  -0.161  20.870  0.1064  0.0797 -0.1307
 1593BOLB   PO238222  11.386  -0.133  20.638 -0.1774  0.0664 -0.0773
 1593BOLB   GL338223  11.568   0.236  20.625  0.2808 -0.0618 -0.1195
 1593BOLB   GL438224  11.782   0.444  20.892 -0.2672  0.3707  0.2905
 1593BOLB   C1C38225  12.027   0.360  20.471 -0.2395 -0.0609  0.0520
 1593BOLB   C2C38226  12.242   0.448  20.144 -0.0653  0.1269 -0.0069
 1593BOLB   C3C38227  12.522   0.753  19.986 -0.0008  0.4107 -0.0140
 1593BOLB   C4C38228  12.547   1.114  19.772  0.1064  0.1305 -0.1429
 1593BOLB   C1D38229  11.859   0.849  20.730 -0.1416  0.0544 -0.0806
 1593BOLB   C2D38230  11.692   1.197  20.628  0.0481 -0.0955 -0.0836
 1593BOLB   C3D38231  11.393   1.369  20.848  0.2368 -0.0318 -0.1407
 1593BOLB   C4D38232  11.330   1.660  21.152 -0.0435  0.1771  0.0172
 1594BOLB   NC138233  23.320  11.436  12.019 -0.2513 -0.1483  0.2026
 1594BOLB   PO138234  23.538  11.733  12.284 -0.0149  0.0501 -0.0543
 1594BOLB   GL138235  23.680  11.990  12.097  0.1524 -0.1436 -0.2846
 1594BOLB   GL238236  23.967  11.835  11.922  0.0625  0.2452  0.1114
 1594BOLB   C1A38237  23.845  12.382  11.977  0.1646 -0.0965 -0.1030
 1594BOLB   C2A38238  24.259  12.716  12.011 -0.1937  0.0948  0.1693
 1594BOLB   C3A38239  24.618  12.989  12.138  0.0585  0.0465  0.0636
 1594BOLB   C4A38240  24.779  13.155  11.821 -0.1308 -0.1515  0.0239
 1594BOLB   C1B38241  24.373  12.146  11.966 -0.1903  0.3074  0.1902
 1594BOLB   C2B38242  24.759  12.466  11.976 -0.1574  0.4943 -0.0403
 1594BOLB   C3B38243  25.273  12.317  11.927  0.3011 -0.2455  0.1833
 1594BOLB   C4B38244  25.356  12.082  11.621 -0.2372 -0.1258 -0.1804
 1594BOLB   NC238245  26.649  14.525  10.138  0.0400  0.1206  0.0294
 1594BOLB   PO238246  26.320  14.157  10.109 -0.2999 -0.0168 -0.2879
 1594BOLB   GL338247  25.979  14.271  10.448  0.0805 -0.2018  0.1090
 1594BOLB   GL438248  26.004  14.548  10.579 -0.1782  0.0848 -0.0692
 1594BOLB   C1C38249  25.838  13.916  10.757 -0.2990  0.2214 -0.0295
 1594BOLB   C2C38250  25.466  13.693  10.971  0.3017 -0.0082 -0.2664
 1594BOLB   C3C38251  25.341  13.452  11.277  0.0215 -0.0079 -0.2155
 1594BOLB   C4C38252  25.021  13.238  11.430 -0.0711  0.2007 -0.1241
 1594BOLB   C1D38253  25.714  14.503  10.869 -0.0687  0.0174  0.0991
 1594BOLB   C2D38254  25.302  14.350  10.945  0.0255 -0.1002 -0.4221
 1594BOLB   C3D38255  25.066  13.955  11.086 -0.0035  0.1845  0.0120
 1594BOLB   C4D38256  24.870  13.615  11.124  0.4149  0.1877  0.1983
 1595BOLB   NC138257  20.647  10.691  10.022  0.1113  0.0184  0.0228
 1595BOLB   PO138258  20.604  11.029   9.812  0.1095 -0.2046  0.0623
 1595BOLB   GL138259  20.906  10.993   9.379  0.0667  0.3614 -0.3139
 1595BOLB   GL238260  21.092  11.287   9.280 -0.1884  0.2212 -0.0823
 1595BOLB   C1A38261  20.935  10.681   9.055 -0.1166  0.2353  0.0721
 1595BOLB   C2A38262  21.088  10.533   8.711  0.1053 -0.2507 -0.1842
 1595BOLB   C3A38263  21.066  10.391   8.273 -0.0952 -0.4485 -0.2111
 1595BOLB   C4A38264  21.230  10.412   7.923 -0.1626 -0.0464  0.3382
 1595BOLB   C1B38265  21.256  11.018   8.878  0.1028  0.0120  0.0275
 1595BOLB   C2B38266  21.352  10.918   8.402  0.0329  0.3441  0.1336
 1595BOLB   C3B38267  21.323  10.895   8.022  0.1404 -0.0165  0.0102
 1595BOLB   C4B38268  21.550  11.123   7.703 -0.1801  0.2552  0.0124
 1595BOLB   NC238269  23.705  10.608   6.487  0.6564  0.2623  0.0813
 1595BOLB   PO238270  23.343  10.726   6.739 -0.0357  0.1302 -0.1101
 1595BOLB   GL338271  23.002  10.662   7.092  0.2400  0.0402  0.1739
 1595BOLB   GL438272  23.210  10.620   7.404  0.1723 -0.0476 -0.1583
 1595BOLB   C1C38273  22.625  10.537   7.128 -0.0410 -0.1376 -0.0388
 1595BOLB   C2C38274  22.307  10.571   7.455  0.0510  0.1754 -0.0103
 1595BOLB   C3C38275  21.832  10.641   7.525 -0.0969 -0.4391 -0.3704
 1595BOLB   C4C38276  21.465  10.399   7.557 -0.2547  0.0271  0.0662
 1595BOLB   C1D38277  22.891  10.709   7.584 -0.0983 -0.0506  0.2297
 1595BOLB   C2D38278  22.824  10.950   7.930 -0.1448 -0.2466  0.0011
 1595BOLB   C3D38279  22.390  10.986   8.209  0.1587  0.6867  0.1667
 1595BOLB   C4D38280  22.052  10.870   8.480 -0.1457  0.0165  0.1761
 1596BOLB   NC138281  20.004   5.364  10.469 -0.1787  0.1338  0.0928
 1596BOLB   PO138282  20.410   5.122  10.483  0.0184  0.1445  0.2116
 1596BOLB   GL138283  20.484   4.844  10.138  0.4008 -0.1261  0.0017
 1596BOLB   GL238284  20.663   4.706  10.351  0.0589  0.4583 -0.1147
 1596BOLB   C1A38285  20.503   4.476   9.962  0.0390 -0.0460 -0.1154
 1596BOLB   C2A38286  20.792   4.211   9.786  0.0784  0.1584  0.1073
 1596BOLB   C3A38287  21.145   3.851   9.841 -0.1870 -0.0035  0.5052
 1596BOLB   C4A38288  21.535   3.612   9.941  0.0632 -0.2610 -0.3191
 1596BOLB   C1B38289  20.962   4.480  10.229 -0.4619  0.0257  0.0802
 1596BOLB   C2B38290  21.351   4.270   9.967  0.4271 -0.0795  0.0202
 1596BOLB   C3B38291  21.727   4.200   9.674 -0.0114  0.3068 -0.0854
 1596BOLB   C4B38292  21.755   4.184   9.234  0.1667  0.1175  0.0544
 1596BOLB   NC238293  23.760   2.304   9.714  0.1977 -0.2600  0.4270
 1596BOLB   PO238294  23.577   2.522   9.341 -0.0949 -0.1282 -0.3646
 1596BOLB   GL338295  23.425   2.854   9.475  0.1605 -0.1435  0.3744
 1596BOLB   GL438296  23.573   2.986   9.631 -0.0980 -0.2419 -0.0666
 1596BOLB   C1C38297  23.092   2.975   9.461 -0.4007  0.1959 -0.1342
 1596BOLB   C2C38298  22.670   3.223   9.480  0.0231  0.0926  0.0547
 1596BOLB   C3C38299  22.334   3.391   9.526  0.1544 -0.1243 -0.1937
 1596BOLB   C4C38300  21.955   3.485   9.873  0.0556 -0.1603 -0.0236
 1596BOLB   C1D38301  23.414   3.302   9.283  0.4338  0.0008 -0.0745
 1596BOLB   C2D38302  23.169   3.225   9.023  0.0614 -0.1648  0.0777
 1596BOLB   C3D38303  22.770   3.303   8.927  0.2873 -0.0308  0.2639
 1596BOLB   C4D38304  22.596   3.580   9.162 -0.1032  0.3701  0.0238
 1597BOLB   NC138305  21.938   4.711  13.121 -0.0357 -0.1644  0.0224
 1597BOLB   PO138306  22.078   5.162  13.183  0.1738 -0.1623 -0.4065
 1597BOLB   GL138307  22.495   5.102  12.980  0.1780  0.0540  0.2657
 1597BOLB   GL238308  22.437   4.720  12.895 -0.0901  0.1517 -0.0167
 1597BOLB   C1A38309  22.890   4.892  12.799 -0.1988 -0.1815  0.0823
 1597BOLB   C2A38310  23.260   4.806  12.752 -0.2335  0.0123 -0.2685
 1597BOLB   C3A38311  23.589   4.754  12.465 -0.2840 -0.0448 -0.1647
 1597BOLB   C4A38312  23.542   4.619  12.077  0.0189 -0.0150 -0.3145
 1597BOLB   C1B38313  22.254   4.354  12.741  0.0081 -0.1751  0.1203
 1597BOLB   C2B38314  22.557   4.002  12.703  0.1865 -0.5175 -0.0767
 1597BOLB   C3B38315  22.884   3.779  12.641  0.1619  0.2824 -0.3764
 1597BOLB   C4B38316  23.326   3.749  12.724 -0.2266  0.5317 -0.1794
 1597BOLB   NC238317  24.695   3.252  10.809 -0.2824  0.1162 -0.1017
 1597BOLB   PO238318  24.764   3.608  10.650  0.0336 -0.1666 -0.1221
 1597BOLB   GL338319  24.319   3.516  10.789 -0.0254 -0.0079 -0.0954
 1597BOLB   GL438320  24.129   3.215  10.842 -0.1871  0.0540  0.0610
 1597BOLB   C1C38321  23.976   3.760  10.845  0.0185  0.2512 -0.2417
 1597BOLB   C2C38322  23.579   3.936  10.969  0.0180  0.0811 -0.1227
 1597BOLB   C3C38323  23.430   4.255  11.188  0.2809 -0.2472 -0.2144
 1597BOLB   C4C38324  23.525   4.417  11.675  0.0222  0.0726  0.2899
 1597BOLB   C1D38325  23.986   3.296  11.236 -0.1789 -0.3632  0.1477
 1597BOLB   C2D38326  23.660   3.435  11.512 -0.0292  0.0660 -0.0913
 1597BOLB   C3D38327  23.511   3.543  11.900 -0.1548 -0.2433  0.0269
 1597BOLB   C4D38328  23.175   3.766  12.036  0.0775 -0.1748 -0.1627
 1598BOLB   NC138329  18.804  10.639  23.025 -0.2406 -0.1126  0.1532
 1598BOLB   PO138330  18.439  10.912  23.296 -0.1530 -0.1854  0.1215
 1598BOLB   GL138331  18.678  10.830  23.778  0.1955  0.0347  0.2615
 1598BOLB   GL238332  18.998  10.961  23.967 -0.0594 -0.4815  0.3061
 1598BOLB   C1A38333  18.591  10.874  24.219  0.0316 -0.1387 -0.1708
 1598BOLB   C2A38334  18.673  10.726  24.584  0.1328  0.1074 -0.2051
 1598BOLB   C3A38335  18.418  10.728  24.991  0.1050 -0.1691  0.0347
 1598BOLB   C4A38336  18.459  11.004  25.349 -0.0810 -0.1316  0.1625
 1598BOLB   C1B38337  19.078  10.869  24.320  0.1591  0.3820 -0.0099
 1598BOLB   C2B38338  19.268  10.903  24.674 -0.2134  0.0657  0.2981
 1598BOLB   C3B38339  19.609  10.827  24.820  0.1159  0.2336  0.1003
 1598BOLB   C4B38340  19.914  10.504  24.614 -0.0972 -0.0054 -0.0538
 1598BOLB   NC238341  18.635  10.990  27.729  0.0000 -0.0018 -0.0679
 1598BOLB   PO238342  18.826  11.558  27.818  0.1200  0.0639  0.1300
 1598BOLB   GL338343  18.833  11.414  27.383 -0.1255 -0.1235  0.1611
 1598BOLB   GL438344  18.953  11.434  27.174  0.1803  0.0891 -0.0249
 1598BOLB   C1C38345  18.480  11.211  27.077  0.1481  0.2437 -0.1309
 1598BOLB   C2C38346  18.350  11.148  26.588 -0.2502  0.2749 -0.2122
 1598BOLB   C3C38347  18.423  11.167  26.216 -0.0495  0.0408  0.3091
 1598BOLB   C4C38348  18.419  11.264  25.704  0.4046  0.0671 -0.0394
 1598BOLB   C1D38349  19.098  11.576  26.749  0.1102 -0.1459 -0.0619
 1598BOLB   C2D38350  19.019  11.816  26.368 -0.4234  0.2889  0.2060
 1598BOLB   C3D38351  19.224  11.763  25.876 -0.1655 -0.1016  0.0379
 1598BOLB   C4D38352  19.620  11.814  25.736 -0.1475  0.1225 -0.0435
 1599BOLB   NC138353  18.125   6.718   9.190  0.0904  0.0573  0.2935
 1599BOLB   PO138354  18.448   6.985   9.072  0.1307 -0.2157 -0.0917
 1599BOLB   GL138355  18.768   7.010   8.698 -0.3317 -0.1895  0.2461
 1599BOLB   GL238356  19.156   6.938   8.595  0.1679  0.2230 -0.3103
 1599BOLB   C1A38357  18.722   6.853   8.322 -0.0310 -0.3636  0.0390
 1599BOLB   C2A38358  18.720   6.904   7.881 -0.1090  0.0681  0.0837
 1599BOLB   C3A38359  18.850   6.985   7.501  0.3820 -0.1791  0.0049
 1599BOLB   C4A38360  19.275   6.849   7.420  0.1257  0.0347 -0.4338
 1599BOLB   C1B38361  19.061   7.185   8.307  0.1614 -0.1714  0.2657
 1599BOLB   C2B38362  19.242   7.219   7.892  0.0187  0.2146 -0.2453
 1599BOLB   C3B38363  19.312   7.338   7.468  0.2425  0.2773  0.0113
 1599BOLB   C4B38364  19.262   7.608   7.222 -0.0663  0.2185 -0.0504
 1599BOLB   NC238365  20.933   6.588   5.377  0.3102  0.4169 -0.4031
 1599BOLB   PO238366  21.090   6.857   5.720  0.0741 -0.0575 -0.1701
 1599BOLB   GL338367  20.814   6.956   6.046  0.1915 -0.0785  0.4544
 1599BOLB   GL438368  20.587   6.777   6.017 -0.0042  0.2560 -0.0517
 1599BOLB   C1C38369  20.666   7.053   6.425  0.1159  0.0428 -0.1827
 1599BOLB   C2C38370  20.314   6.883   6.633 -0.0334  0.1502 -0.1187
 1599BOLB   C3C38371  20.120   6.773   7.014 -0.0004 -0.3754  0.1737
 1599BOLB   C4C38372  19.740   6.852   7.210  0.1239  0.1466 -0.3286
 1599BOLB   C1D38373  20.430   7.201   5.877 -0.4469  0.0437  0.2924
 1599BOLB   C2D38374  20.152   7.573   5.949 -0.3255  0.3428 -0.1993
 1599BOLB   C3D38375  20.103   7.989   6.066  0.1870 -0.4168 -0.0476
 1599BOLB   C4D38376  20.067   8.430   6.040  0.0431 -0.1942 -0.1293
 1600BOLB   NC138377  21.328  11.827  22.268  0.2688 -0.2781 -0.0913
 1600BOLB   PO138378  21.548  12.166  21.969 -0.0429  0.1782 -0.3663
 1600BOLB   GL138379  21.856  12.459  22.121  0.1145  0.1031  0.1703
 1600BOLB   GL238380  21.872  12.602  21.907  0.1266 -0.3686 -0.2042
 1600BOLB   C1A38381  22.119  12.411  22.366 -0.2328  0.1042 -0.1352
 1600BOLB   C2A38382  22.284  12.547  22.713  0.3218 -0.2449 -0.0181
 1600BOLB   C3A38383  22.703  12.717  22.775  0.1084  0.0445  0.2726
 1600BOLB   C4A38384  22.723  13.087  22.973  0.1928  0.0005  0.2493
 1600BOLB   C1B38385  22.176  12.889  21.846  0.1458 -0.1867  0.1970
 1600BOLB   C2B38386  22.546  13.081  22.030 -0.0159 -0.0899 -0.1913
 1600BOLB   C3B38387  22.796  13.270  22.153  0.5583 -0.4301  0.2268
 1600BOLB   C4B38388  22.923  13.442  22.525 -0.0723  0.0029  0.2112
 1600BOLB   NC238389  23.693  13.721  25.064 -0.3169 -0.0337  0.0671
 1600BOLB   PO238390  24.077  13.621  24.734  0.0780  0.1131  0.0283
 1600BOLB   GL338391  23.971  13.641  24.342  0.1762 -0.1072  0.2445
 1600BOLB   GL438392  24.005  13.360  24.134  0.1121 -0.0113  0.0089
 1600BOLB   C1C38393  23.655  13.638  23.858 -0.0082  0.0169  0.0051
 1600BOLB   C2C38394  23.330  13.423  23.630  0.0447  0.1691 -0.1583
 1600BOLB   C3C38395  23.092  13.562  23.326  0.0117  0.0439 -0.0084
 1600BOLB   C4C38396  22.777  13.442  23.007 -0.2029  0.3165 -0.0853
 1600BOLB   C1D38397  23.607  13.280  24.205  0.0778  0.3869 -0.0744
 1600BOLB   C2D38398  23.141  13.183  24.113 -0.2345  0.0636  0.1568
 1600BOLB   C3D38399  22.834  13.214  23.723 -0.2419 -0.1939  0.1222
 1600BOLB   C4D38400  22.588  13.352  23.437 -0.0555 -0.1252  0.1400
 1601BOLB   NC138401  14.139  16.636  20.580  0.0878  0.0917 -0.0743
 1601BOLB   PO138402  14.359  16.871  20.812  0.1002  0.0570 -0.0688
 1601BOLB   GL138403  14.419  17.261  20.903  0.0850  0.2356 -0.1469
 1601BOLB   GL238404  14.303  17.496  20.625  0.0882  0.1431  0.1035
 1601BOLB   C1A38405  14.271  17.548  21.128 -0.1335 -0.2197 -0.2583
 1601BOLB   C2A38406  14.061  17.947  21.259 -0.1800  0.1901 -0.0961
 1601BOLB   C3A38407  13.730  17.970  21.492 -0.0691 -0.2395 -0.0107
 1601BOLB   C4A38408  13.570  18.004  21.872  0.1892 -0.0222 -0.2214
 1601BOLB   C1B38409  14.371  17.956  20.800  0.3277  0.1283  0.0739
 1601BOLB   C2B38410  14.375  18.319  21.043 -0.3239 -0.1080  0.4023
 1601BOLB   C3B38411  14.304  18.731  21.308 -0.1777  0.2485 -0.2335
 1601BOLB   C4B38412  13.873  19.018  21.199  0.0852  0.1497  0.0482
 1601BOLB   NC238413  13.399  19.530  23.776  0.0178 -0.0521  0.0456
 1601BOLB   PO238414  13.212  19.234  23.488  0.2550 -0.1026  0.5062
 1601BOLB   GL338415  13.245  18.839  23.274  0.1017  0.0281 -0.2503
 1601BOLB   GL438416  13.372  18.529  23.353  0.3304 -0.1256  0.1214
 1601BOLB   C1C38417  13.504  18.784  22.989  0.0696 -0.3209  0.1689
 1601BOLB   C2C38418  13.826  18.675  22.756  0.1233 -0.1237  0.0584
 1601BOLB   C3C38419  13.730  18.546  22.430  0.0935 -0.1792  0.0321
 1601BOLB   C4C38420  13.515  18.218  22.255  0.0912 -0.2665 -0.0283
 1601BOLB   C1D38421  13.093  18.323  23.657 -0.2953 -0.1365  0.2855
 1601BOLB   C2D38422  13.277  18.024  23.824  0.1591  0.1283  0.1242
 1601BOLB   C3D38423  13.412  17.597  23.648 -0.1272  0.0859  0.0396
 1601BOLB   C4D38424  13.487  17.115  23.757 -0.1277 -0.0297  0.1386
 1602BOLB   NC138425  15.618  14.861  22.496 -0.3431 -0.2169 -0.1163
 1602BOLB   PO138426  15.821  15.206  22.834 -0.1893  0.0361 -0.2412
 1602BOLB   GL138427  16.022  15.548  23.151 -0.1323 -0.2841 -0.2553
 1602BOLB   GL238428  15.833  15.686  23.356  0.2493  0.1595  0.5571
 1602BOLB   C1A38429  16.375  15.951  23.171  0.0376 -0.0667  0.2012
 1602BOLB   C2A38430  16.565  16.249  23.436 -0.0384 -0.1697  0.1092
 1602BOLB   C3A38431  16.737  16.450  23.786  0.0093 -0.3865  0.2899
 1602BOLB   C4A38432  16.783  16.800  23.979  0.1609  0.0589  0.2317
 1602BOLB   C1B38433  15.897  15.827  23.775  0.1951  0.1358  0.0984
 1602BOLB   C2B38434  15.774  16.060  24.100 -0.0027  0.0506 -0.3344
 1602BOLB   C3B38435  15.966  16.244  24.345  0.2368  0.0554 -0.3863
 1602BOLB   C4B38436  16.249  16.360  24.651 -0.4680 -0.2059  0.1059
 1602BOLB   NC238437  15.667  18.220  26.000  0.1885  0.2320  0.2069
 1602BOLB   PO238438  15.742  18.146  25.537 -0.1048 -0.0637  0.0560
 1602BOLB   GL338439  15.896  17.801  25.219 -0.1728  0.1323 -0.0801
 1602BOLB   GL438440  15.720  17.900  25.055  0.1359 -0.3028  0.0931
 1602BOLB   C1C38441  16.270  17.628  25.040 -0.2897  0.1570  0.0300
 1602BOLB   C2C38442  16.543  17.663  24.798 -0.1478 -0.2169 -0.0101
 1602BOLB   C3C38443  16.742  17.494  24.459  0.2077 -0.0103 -0.0445
 1602BOLB   C4C38444  16.768  17.151  24.237  0.0954 -0.3709 -0.0233
 1602BOLB   C1D38445  16.064  17.975  24.701 -0.0305  0.1823 -0.1714
 1602BOLB   C2D38446  16.074  17.837  24.280  0.3599 -0.2485 -0.1763
 1602BOLB   C3D38447  16.123  17.702  23.868 -0.1335 -0.1571  0.0283
 1602BOLB   C4D38448  16.382  17.678  23.572 -0.1736 -0.3883  0.2121
 1603BOLB   NC138449   8.771  12.917  14.328 -0.3447 -0.3251  0.4321
 1603BOLB   PO138450   8.981  13.285  14.387  0.0159  0.1101 -0.0824
 1603BOLB   GL138451   8.670  13.611  14.421 -0.4060  0.0187  0.2111
 1603BOLB   GL238452   8.506  13.683  14.094 -0.1888 -0.1663 -0.3134
 1603BOLB   C1A38453   8.351  13.733  14.581 -0.1185 -0.1330  0.0491
 1603BOLB   C2A38454   8.006  13.941  14.426 -0.0482  0.1290 -0.3757
 1603BOLB   C3A38455   7.764  14.311  14.396  0.0316  0.0748 -0.2187
 1603BOLB   C4A38456   7.755  14.683  14.095 -0.3026 -0.0392 -0.0131
 1603BOLB   C1B38457   8.261  13.357  14.226 -0.1873 -0.0420 -0.0658
 1603BOLB   C2B38458   7.877  13.311  14.010 -0.0764  0.0312 -0.1642
 1603BOLB   C3B38459   7.566  13.534  13.751  0.0073  0.0788 -0.0837
 1603BOLB   C4B38460   7.251  13.971  13.648  0.0619 -0.0708  0.3542
 1603BOLB   NC238461   6.208  16.364  12.866 -0.0717  0.1880  0.0589
 1603BOLB   PO238462   5.970  15.934  13.161  0.3795  0.3451 -0.1301
 1603BOLB   GL338463   6.186  15.513  13.105 -0.2275  0.1396  0.1785
 1603BOLB   GL438464   6.177  15.164  13.147 -0.1292  0.2955  0.1741
 1603BOLB   C1C38465   6.600  15.384  13.374  0.2373 -0.2740  0.1088
 1603BOLB   C2C38466   6.955  15.274  13.529  0.3081 -0.0245 -0.0359
 1603BOLB   C3C38467   7.268  15.119  13.773  0.0129  0.0694 -0.1854
 1603BOLB   C4C38468   7.500  14.975  14.082 -0.0006  0.1847 -0.0439
 1603BOLB   C1D38469   6.552  14.945  13.179  0.0838  0.2606 -0.0317
 1603BOLB   C2D38470   6.951  14.747  13.201 -0.3044 -0.1008 -0.1104
 1603BOLB   C3D38471   7.274  14.363  13.348  0.1081 -0.0124 -0.0760
 1603BOLB   C4D38472   7.331  13.997  13.164 -0.3898 -0.0455 -0.0543
 1604BOLB   NC138473  20.525   2.775  16.643 -0.0994  0.1962 -0.0341
 1604BOLB   PO138474  20.165   2.529  16.599 -0.0261  0.1759  0.2613
 1604BOLB   GL138475  20.247   2.441  17.038  0.2703 -0.1547 -0.1168
 1604BOLB   GL238476  20.095   2.446  17.343 -0.0590 -0.2504 -0.1713
 1604BOLB   C1A38477  20.630   2.153  16.923  0.1123 -0.2361  0.1863
 1604BOLB   C2A38478  20.710   1.792  16.861 -0.5299 -0.5507 -0.0050
 1604BOLB   C3A38479  20.783   1.352  16.911  0.3853 -0.2044 -0.0728
 1604BOLB   C4A38480  20.869   0.885  16.748 -0.3921 -0.0423  0.1027
 1604BOLB   C1B38481  20.312   1.982  17.465  0.0151 -0.1130 -0.3224
 1604BOLB   C2B38482  20.620   1.600  17.483 -0.0488  0.3141 -0.2381
 1604BOLB   C3B38483  20.941   1.208  17.415 -0.2480  0.2938  0.3202
 1604BOLB   C4B38484  21.214   1.020  17.071  0.3012 -0.1201 -0.1997
 1604BOLB   NC238485  22.186  -0.789  18.041  0.1159 -0.1358  0.1978
 1604BOLB   PO238486  21.830  -1.047  17.780  0.3910  0.1194  0.3008
 1604BOLB   GL338487  21.654  -0.720  17.497 -0.3322 -0.0519 -0.0305
 1604BOLB   GL438488  21.801  -0.360  17.594  0.0387 -0.0091 -0.2661
 1604BOLB   C1C38489  21.451  -0.549  17.172  0.3316 -0.4066  0.1780
 1604BOLB   C2C38490  21.359  -0.260  16.945  0.0070 -0.1056  0.0851
 1604BOLB   C3C38491  21.243   0.057  16.702 -0.2354 -0.1013 -0.2787
 1604BOLB   C4C38492  21.194   0.514  16.703  0.2617  0.2222 -0.0107
 1604BOLB   C1D38493  21.449  -0.119  17.420  0.3073 -0.3196  0.0505
 1604BOLB   C2D38494  21.430   0.161  17.177  0.1315  0.1884  0.0746
 1604BOLB   C3D38495  21.512   0.521  17.231 -0.3843 -0.0796 -0.1888
 1604BOLB   C4D38496  21.680   0.891  17.191  0.1079 -0.0422 -0.3653
 1605BOLB   NC138497  21.361   3.168  15.486  0.1949 -0.1315 -0.0152
 1605BOLB   PO138498  21.386   3.092  15.864 -0.0799 -0.1338  0.0538
 1605BOLB   GL138499  21.665   2.914  15.840 -0.2000 -0.2561 -0.1210
 1605BOLB   GL238500  21.823   2.909  16.097  0.0255 -0.0551  0.2594
 1605BOLB   C1A38501  21.785   2.457  15.838 -0.0767 -0.2628 -0.3409
 1605BOLB   C2A38502  21.992   2.123  16.130 -0.1134 -0.1173 -0.0276
 1605BOLB   C3A38503  22.113   1.948  16.545  0.3788  0.3755  0.4667
 1605BOLB   C4A38504  22.322   1.698  16.853 -0.2351 -0.3380 -0.0938
 1605BOLB   C1B38505  22.051   2.652  16.290 -0.3651  0.1628 -0.1342
 1605BOLB   C2B38506  22.551   2.580  16.396  0.0049 -0.0417 -0.0397
 1605BOLB   C3B38507  22.992   2.471  16.346  0.0177  0.0181  0.0101
 1605BOLB   C4B38508  23.457   2.442  16.381  0.0143  0.1056 -0.0846
 1605BOLB   NC238509  23.752   0.007  17.547  0.0695 -0.1324 -0.2430
 1605BOLB   PO238510  23.908  -0.066  17.148  0.4063 -0.0678 -0.0476
 1605BOLB   GL338511  23.669   0.232  17.094  0.0733 -0.0638  0.0625
 1605BOLB   GL438512  23.368   0.406  16.911  0.1251  0.1505  0.3135
 1605BOLB   C1C38513  23.531   0.626  17.311 -0.0466 -0.0505  0.0221
 1605BOLB   C2C38514  23.085   0.816  17.169  0.0423  0.1472  0.1155
 1605BOLB   C3C38515  22.796   1.013  17.294 -0.0194 -0.0194  0.1849
 1605BOLB   C4C38516  22.476   1.364  17.164  0.0107  0.1219  0.0504
 1605BOLB   C1D38517  23.086   0.616  16.699  0.1480  0.2974  0.1204
 1605BOLB   C2D38518  22.824   0.848  16.668 -0.0456 -0.2119 -0.0900
 1605BOLB   C3D38519  22.492   1.120  16.707  0.3467 -0.1043 -0.2923
 1605BOLB   C4D38520  22.083   1.314  16.583  0.0448 -0.2120  0.0046
 1606BOLB   NC138521  17.537   8.698  27.531  0.1705  0.1340 -0.0935
 1606BOLB   PO138522  17.497   8.184  27.458  0.2154  0.2846  0.0805
 1606BOLB   GL138523  17.243   7.985  27.137 -0.0724 -0.2296 -0.2674
 1606BOLB   GL238524  17.580   7.993  26.940 -0.5327 -0.0706 -0.1314
 1606BOLB   C1A38525  17.162   7.806  26.757 -0.1890  0.3859  0.0983
 1606BOLB   C2A38526  17.041   7.656  26.221 -0.1806 -0.1145  0.1635
 1606BOLB   C3A38527  17.097   7.354  25.859 -0.0026 -0.0232  0.1849
 1606BOLB   C4A38528  16.968   7.034  25.688 -0.4317 -0.3298 -0.1351
 1606BOLB   C1B38529  17.776   8.175  26.611 -0.2009 -0.0950  0.1190
 1606BOLB   C2B38530  18.117   8.288  26.413 -0.2142  0.1990 -0.0852
 1606BOLB   C3B38531  18.214   8.330  25.973 -0.0019  0.0757  0.1087
 1606BOLB   C4B38532  18.272   8.360  25.608  0.1583 -0.0541 -0.1246
 1606BOLB   NC238533  16.282   5.192  26.925  0.0568 -0.0163 -0.0621
 1606BOLB   PO238534  16.681   5.408  26.786  0.1267 -0.0214 -0.0464
 1606BOLB   GL338535  16.630   5.546  26.439 -0.3700 -0.0491 -0.1837
 1606BOLB   GL438536  16.621   5.308  26.217  0.1563  0.0266 -0.1596
 1606BOLB   C1C38537  16.898   5.685  26.118 -0.0304  0.3026 -0.0348
 1606BOLB   C2C38538  16.941   5.857  25.657  0.3291 -0.0136 -0.1327
 1606BOLB   C3C38539  17.076   6.235  25.599  0.2086  0.0532 -0.1628
 1606BOLB   C4C38540  16.963   6.573  25.665 -0.0483  0.0070  0.0139
 1606BOLB   C1D38541  16.370   5.607  26.065  0.1804 -0.0199 -0.2615
 1606BOLB   C2D38542  16.296   5.818  25.770 -0.0019 -0.0351  0.2424
 1606BOLB   C3D38543  16.544   5.771  25.308  0.0128  0.0961  0.2096
 1606BOLB   C4D38544  16.615   5.813  24.755 -0.0877 -0.0864 -0.1499
 1607BOLB   NC138545  17.803   8.685  22.733 -0.2486 -0.1808  0.0681
 1607BOLB   PO138546  17.746   8.296  22.958  0.2001  0.0481  0.1300
 1607BOLB   GL138547  17.725   8.042  23.359  0.0107  0.0488  0.3379
 1607BOLB   GL238548  17.988   7.937  23.381 -0.3566  0.1075  0.0279
 1607BOLB   C1A38549  17.645   7.952  23.710  0.0630  0.0409 -0.2363
 1607BOLB   C2A38550  17.590   7.792  24.086 -0.3010 -0.1865  0.0969
 1607BOLB   C3A38551  17.534   7.811  24.539 -0.0884  0.0481 -0.0499
 1607BOLB   C4A38552  17.578   7.997  24.875  0.0872 -0.0725 -0.0288
 1607BOLB   C1B38553  18.134   7.912  23.764  0.1429 -0.1334  0.3260
 1607BOLB   C2B38554  18.318   7.929  24.127  0.0826 -0.1869 -0.1916
 1607BOLB   C3B38555  18.037   7.878  24.473  0.0403 -0.3675  0.0168
 1607BOLB   C4B38556  18.021   7.792  24.904 -0.0642  0.1924 -0.0597
 1607BOLB   NC238557  18.578   7.415  27.671  0.0398 -0.0716 -0.3267
 1607BOLB   PO238558  18.492   7.336  27.221 -0.1259  0.2604 -0.0256
 1607BOLB   GL338559  18.354   7.598  26.934  0.0819 -0.1305 -0.2087
 1607BOLB   GL438560  18.533   7.921  27.039  0.3001  0.2920  0.1167
 1607BOLB   C1C38561  18.150   7.782  26.652 -0.0397 -0.0880  0.0205
 1607BOLB   C2C38562  17.977   7.826  26.214  0.1333 -0.1303  0.0069
 1607BOLB   C3C38563  17.912   7.985  25.749  0.3351  0.0845  0.1353
 1607BOLB   C4C38564  17.756   8.039  25.289  0.0073 -0.2464 -0.1578
 1607BOLB   C1D38565  18.565   8.115  26.687 -0.1343 -0.4027 -0.1924
 1607BOLB   C2D38566  18.483   7.974  26.246 -0.4494  0.0281  0.0425
 1607BOLB   C3D38567  18.391   7.893  25.818  0.1269  0.1446 -0.0824
 1607BOLB   C4D38568  18.314   7.830  25.418  0.0923  0.0762 -0.1595
 1608BOLB   NC138569  14.185   8.528  23.125  0.3263 -0.1834 -0.1345
 1608BOLB   PO138570  14.149   9.016  23.066 -0.0313 -0.2698  0.1999
 1608BOLB   GL138571  13.854   8.998  23.272  0.0168 -0.1775  0.1304
 1608BOLB   GL238572  13.690   8.721  23.153  0.1209  0.1648 -0.1084
 1608BOLB   C1A38573  13.706   9.140  23.682 -0.0069 -0.0758 -0.1384
 1608BOLB   C2A38574  13.644   9.127  24.075  0.0480 -0.0012 -0.4121
 1608BOLB   C3A38575  13.580   8.933  24.537 -0.3063  0.3207 -0.3211
 1608BOLB   C4A38576  13.518   8.650  24.846 -0.0322  0.5114 -0.0066
 1608BOLB   C1B38577  13.714   8.633  23.573 -0.2133  0.2612  0.0803
 1608BOLB   C2B38578  13.351   8.755  23.808 -0.0364 -0.0448 -0.0793
 1608BOLB   C3B38579  13.073   8.717  24.138  0.1136 -0.1690  0.0216
 1608BOLB   C4B38580  13.076   8.828  24.633 -0.3027 -0.0428 -0.3956
 1608BOLB   NC238581  12.957   6.923  26.644 -0.1514  0.0191  0.3040
 1608BOLB   PO238582  12.763   7.301  26.823  0.1951 -0.3535  0.1601
 1608BOLB   GL338583  12.939   7.371  26.528  0.1704 -0.0532  0.2158
 1608BOLB   GL438584  12.615   7.563  26.354 -0.0534  0.3250  0.1253
 1608BOLB   C1C38585  12.919   7.525  25.969  0.0335  0.1888 -0.0864
 1608BOLB   C2C38586  13.139   7.551  25.489  0.3702  0.2893 -0.0535
 1608BOLB   C3C38587  13.325   7.854  25.240  0.0988  0.4047  0.3266
 1608BOLB   C4C38588  13.464   8.174  24.983 -0.0413  0.0144 -0.1161
 1608BOLB   C1D38589  12.651   7.921  26.042 -0.3855  0.0610  0.0859
 1608BOLB   C2D38590  12.574   8.266  25.689 -0.1257  0.3324 -0.1341
 1608BOLB   C3D38591  12.479   8.432  25.332  0.0158  0.1597 -0.1636
 1608BOLB   C4D38592  12.081   8.519  25.014 -0.2366  0.1481 -0.1754
 1609BOLB   NC138593   1.544   9.642  14.426  0.1421  0.1525 -0.0624
 1609BOLB   PO138594   1.651   9.211  14.500  0.3094  0.0627 -0.1860
 1609BOLB   GL138595   1.967   8.934  14.687 -0.2588 -0.1586 -0.0579
 1609BOLB   GL238596   1.870   8.704  14.376 -0.0621  0.2009 -0.0473
 1609BOLB   C1A38597   2.403   9.006  14.383 -0.0248  0.3376  0.3008
 1609BOLB   C2A38598   2.735   8.839  14.101 -0.4579 -0.1092 -0.2278
 1609BOLB   C3A38599   2.726   8.852  13.677 -0.0040 -0.0759  0.1436
 1609BOLB   C4A38600   2.512   9.006  13.216  0.0981  0.2044 -0.1251
 1609BOLB   C1B38601   1.923   8.436  14.742 -0.3119  0.0891 -0.2137
 1609BOLB   C2B38602   2.159   8.092  14.836  0.3049 -0.0293  0.1620
 1609BOLB   C3B38603   2.521   8.021  15.156 -0.0818  0.4516  0.1569
 1609BOLB   C4B38604   2.660   7.532  15.282  0.2477 -0.0245 -0.1491
 1609BOLB   NC238605   1.546  10.790  12.186 -0.4479 -0.0858  0.0311
 1609BOLB   PO238606   1.673  10.493  11.737 -0.1343 -0.0882 -0.2091
 1609BOLB   GL338607   1.991  10.225  11.831 -0.0703  0.1668 -0.1282
 1609BOLB   GL438608   2.147  10.365  11.984  0.0642 -0.2715 -0.2182
 1609BOLB   C1C38609   2.259   9.890  11.967  0.2050 -0.1278 -0.2742
 1609BOLB   C2C38610   2.231   9.632  12.234 -0.0348  0.0486 -0.1976
 1609BOLB   C3C38611   2.351   9.359  12.420  0.0771 -0.3660 -0.0125
 1609BOLB   C4C38612   2.471   9.199  12.745  0.0132 -0.3498 -0.4767
 1609BOLB   C1D38613   2.511  10.371  12.088 -0.5137  0.0669 -0.0103
 1609BOLB   C2D38614   2.770  10.022  12.059 -0.1374  0.0338 -0.3657
 1609BOLB   C3D38615   3.153  10.021  11.957 -0.1019 -0.2367  0.3384
 1609BOLB   C4D38616   3.421  10.128  11.604  0.0383  0.2523  0.2083
 1610BOLB   NC138617  12.541  15.597  11.242  0.3574  0.1233  0.1561
 1610BOLB   PO138618  12.916  15.670  10.973  0.1097 -0.1479  0.0496
 1610BOLB   GL138619  12.489  15.746  10.793 -0.0922  0.2303 -0.1319
 1610BOLB   GL238620  12.299  15.620  10.579 -0.1465  0.1599 -0.3936
 1610BOLB   C1A38621  12.290  16.079  10.476  0.2863 -0.0957 -0.0708
 1610BOLB   C2A38622  12.205  16.393  10.323 -0.0387 -0.4009 -0.3934
 1610BOLB   C3A38623  11.826  16.618  10.344  0.0709 -0.1474  0.1322
 1610BOLB   C4A38624  11.476  16.789  10.180 -0.1820  0.1119  0.0851
 1610BOLB   C1B38625  11.940  15.867  10.800 -0.1207  0.0491  0.0743
 1610BOLB   C2B38626  11.734  16.272  10.667 -0.1524  0.4703 -0.0033
 1610BOLB   C3B38627  11.338  16.384  10.454  0.1541  0.0171 -0.2426
 1610BOLB   C4B38628  11.082  16.153  10.110 -0.1093  0.2125 -0.1996
 1610BOLB   NC238629   9.849  18.470   8.392  0.0183 -0.0789 -0.0115
 1610BOLB   PO238630  10.206  18.250   8.255  0.2667  0.3440  0.3512
 1610BOLB   GL338631  10.569  18.007   8.535  0.0084  0.0930  0.0401
 1610BOLB   GL438632  10.638  18.088   8.917 -0.1814 -0.0502  0.0507
 1610BOLB   C1C38633  10.916  17.659   8.686 -0.0072  0.2384 -0.0896
 1610BOLB   C2C38634  11.127  17.517   9.104  0.2445  0.1153  0.0917
 1610BOLB   C3C38635  11.254  17.309   9.511 -0.2921  0.0031 -0.0333
 1610BOLB   C4C38636  11.316  16.990   9.806  0.0401  0.0711 -0.2172
 1610BOLB   C1D38637  10.662  17.782   9.189 -0.1908  0.0574 -0.0728
 1610BOLB   C2D38638  10.765  17.484   9.530  0.2025  0.0449 -0.1666
 1610BOLB   C3D38639  10.864  17.279   9.875 -0.0553 -0.1186 -0.2795
 1610BOLB   C4D38640  11.034  17.152  10.255  0.3367  0.5516 -0.2641
 1611BOLB   NC138641  13.588  10.068  22.184 -0.1144 -0.0202  0.0225
 1611BOLB   PO138642  13.341  10.316  22.551 -0.0762 -0.0634 -0.0949
 1611BOLB   GL138643  13.092  10.319  23.044 -0.0415  0.3442 -0.1194
 1611BOLB   GL238644  12.736  10.340  23.032 -0.3918 -0.0440 -0.2797
 1611BOLB   C1A38645  13.128  10.167  23.466 -0.1309 -0.1136 -0.1459
 1611BOLB   C2A38646  13.215  10.007  23.912 -0.0882 -0.1559  0.2656
 1611BOLB   C3A38647  13.007   9.698  24.288 -0.0611 -0.0186  0.1176
 1611BOLB   C4A38648  12.702   9.502  24.454 -0.0864 -0.0614  0.1890
 1611BOLB   C1B38649  12.380  10.446  23.250 -0.1026 -0.0863  0.1271
 1611BOLB   C2B38650  12.234  10.517  23.665  0.0621  0.0078 -0.1407
 1611BOLB   C3B38651  12.341  10.396  24.140  0.0401  0.1520  0.2026
 1611BOLB   C4B38652  12.239  10.483  24.605 -0.2190 -0.0092  0.2248
 1611BOLB   NC238653  11.389   9.316  26.550  0.0893 -0.2047  0.0404
 1611BOLB   PO238654  11.021   9.584  26.567  0.2037 -0.1666  0.2643
 1611BOLB   GL338655  11.135   9.668  26.068 -0.0251 -0.2549 -0.0124
 1611BOLB   GL438656  10.927   9.938  25.839  0.0163 -0.2785 -0.0460
 1611BOLB   C1C38657  11.606   9.620  25.918  0.1252 -0.0005  0.0737
 1611BOLB   C2C38658  11.879   9.543  25.491  0.1460  0.0936  0.1727
 1611BOLB   C3C38659  12.095   9.450  25.096 -0.1766 -0.1924  0.2116
 1611BOLB   C4C38660  12.394   9.588  24.831  0.0347 -0.0687  0.1569
 1611BOLB   C1D38661  11.281   9.933  25.515  0.2080  0.0231  0.2237
 1611BOLB   C2D38662  11.448   9.671  25.234 -0.0636  0.0265  0.1845
 1611BOLB   C3D38663  11.588   9.856  24.792  0.1432  0.2371  0.0881
 1611BOLB   C4D38664  11.878   9.563  24.695 -0.1907 -0.0987  0.2332
 1612BOLB   NC138665  14.709  18.681  18.051  0.0086  0.1692  0.0417
 1612BOLB   PO138666  14.998  18.646  17.876  0.1418  0.0427 -0.1048
 1612BOLB   GL138667  14.710  19.044  17.725 -0.0602 -0.1273  0.0127
 1612BOLB   GL238668  14.799  19.198  17.388  0.1997  0.1483  0.1085
 1612BOLB   C1A38669  14.607  19.466  17.998  0.2408  0.0739  0.0704
 1612BOLB   C2A38670  14.517  19.840  18.090  0.1154 -0.1358  0.0776
 1612BOLB   C3A38671  14.234  20.140  18.360 -0.0650 -0.1900  0.2906
 1612BOLB   C4A38672  13.839  20.379  18.592  0.1956  0.2455 -0.2050
 1612BOLB   C1B38673  15.007  19.537  17.669 -0.0738 -0.0708 -0.0095
 1612BOLB   C2B38674  14.713  19.872  17.644 -0.3226 -0.0527 -0.4601
 1612BOLB   C3B38675  14.506  20.106  17.553  0.0709  0.0236  0.1569
 1612BOLB   C4B38676  14.460  20.464  17.334 -0.0249 -0.0789 -0.1681
 1612BOLB   NC238677  12.775  22.092  18.987  0.0188 -0.1141 -0.0842
 1612BOLB   PO238678  12.362  21.892  18.991  0.0816 -0.2503  0.2172
 1612BOLB   GL338679  12.545  21.560  18.824  0.0459 -0.0400  0.0551
 1612BOLB   GL438680  12.750  21.395  19.019 -0.2412 -0.3021  0.0419
 1612BOLB   C1C38681  12.408  21.212  18.726 -0.0489  0.1311  0.1346
 1612BOLB   C2C38682  12.668  20.880  18.967  0.4889 -0.2211 -0.1215
 1612BOLB   C3C38683  13.145  20.840  19.065 -0.1261 -0.0205  0.0204
 1612BOLB   C4C38684  13.448  20.554  18.833 -0.2539 -0.0086 -0.2294
 1612BOLB   C1D38685  13.014  21.168  18.752 -0.3928  0.2519  0.0770
 1612BOLB   C2D38686  13.258  20.959  18.386  0.0435 -0.1355 -0.2049
 1612BOLB   C3D38687  13.616  20.847  18.008 -0.1202 -0.0293  0.1400
 1612BOLB   C4D38688  13.910  20.769  17.719  0.1818 -0.0671  0.1226
 1613BOLB   NC138689  17.760   9.906  23.555 -0.1016  0.1736  0.0469
 1613BOLB   PO138690  17.374   9.551  23.663  0.1534  0.0408 -0.0820
 1613BOLB   GL138691  17.408   9.671  24.136  0.0552 -0.1194  0.0579
 1613BOLB   GL238692  17.689   9.736  24.077  0.2880  0.1633  0.0578
 1613BOLB   C1A38693  17.225   9.387  24.494  0.1404 -0.0289 -0.3800
 1613BOLB   C2A38694  17.097   9.542  24.940 -0.1972 -0.0948  0.0757
 1613BOLB   C3A38695  16.729   9.641  25.236  0.1420 -0.0236 -0.0627
 1613BOLB   C4A38696  16.764   9.895  25.587 -0.2075  0.0001  0.1534
 1613BOLB   C1B38697  17.706   9.685  24.585  0.0810  0.1314  0.1365
 1613BOLB   C2B38698  17.645   9.726  25.033  0.1508  0.2525  0.2374
 1613BOLB   C3B38699  17.717   9.407  25.344  0.0754  0.0164 -0.3221
 1613BOLB   C4B38700  17.897   9.245  25.762 -0.2489 -0.1921  0.0451
 1613BOLB   NC238701  15.349  10.468  27.976  0.2834 -0.0532  0.2624
 1613BOLB   PO238702  15.494  10.412  27.580  0.2706 -0.3359 -0.0112
 1613BOLB   GL338703  15.683  10.438  27.091 -0.1143  0.1940 -0.0443
 1613BOLB   GL438704  15.526  10.362  26.830 -0.0231 -0.1731  0.0480
 1613BOLB   C1C38705  16.085  10.505  26.903 -0.2159 -0.0158  0.0364
 1613BOLB   C2C38706  16.334  10.177  26.630  0.0925 -0.0839 -0.0364
 1613BOLB   C3C38707  16.488  10.009  26.268 -0.1326  0.2477  0.4475
 1613BOLB   C4C38708  16.632   9.863  25.950  0.0246 -0.0703  0.1385
 1613BOLB   C1D38709  15.758  10.352  26.512  0.0698 -0.0972  0.0082
 1613BOLB   C2D38710  15.994  10.036  26.279 -0.2128 -0.1939 -0.2543
 1613BOLB   C3D38711  16.055  10.048  25.850 -0.1363 -0.3877  0.1591
 1613BOLB   C4D38712  15.933   9.829  25.476  0.0464 -0.2604 -0.3103
 1614BOLB   NC138713   8.006  33.145  11.759 -0.0837  0.2261 -0.2325
 1614BOLB   PO138714   8.418  33.034  11.607  0.2308  0.1156  0.1631
 1614BOLB   GL138715   8.423  33.388  11.900 -0.2478  0.0526  0.2524
 1614BOLB   GL238716   8.670  33.508  11.756 -0.0276  0.0680  0.3191
 1614BOLB   C1A38717   8.153  33.756  12.172 -0.2308  0.0537 -0.1662
 1614BOLB   C2A38718   8.166  33.856  12.616  0.0563 -0.3308 -0.1052
 1614BOLB   C3A38719   8.237  34.378  12.756  0.0984  0.0912 -0.2022
 1614BOLB   C4A38720   8.083  34.796  12.578  0.0731  0.0248  0.0967
 1614BOLB   C1B38721   8.884  33.892  11.861  0.2757  0.0726 -0.3569
 1614BOLB   C2B38722   9.130  34.251  12.156 -0.1545  0.0137  0.0320
 1614BOLB   C3B38723   9.514  34.301  12.388  0.1667  0.1671  0.1147
 1614BOLB   C4B38724   9.964  34.378  12.197  0.1594 -0.1576  0.3123
 1614BOLB   NC238725   6.047  34.282  11.867 -0.0375 -0.0934  0.3459
 1614BOLB   PO238726   6.372  33.994  11.869 -0.0767 -0.0304  0.0538
 1614BOLB   GL338727   6.511  34.504  11.665 -0.0685  0.0580  0.0398
 1614BOLB   GL438728   6.356  34.608  11.382 -0.3158 -0.0608 -0.0564
 1614BOLB   C1C38729   6.925  34.681  11.511  0.0071 -0.0499  0.1966
 1614BOLB   C2C38730   7.402  34.595  11.594 -0.2573  0.1528  0.0775
 1614BOLB   C3C38731   7.773  34.847  11.828  0.2376  0.0600  0.1543
 1614BOLB   C4C38732   8.026  34.831  12.089 -0.4667 -0.0081 -0.0703
 1614BOLB   C1D38733   6.623  35.047  11.389  0.1206  0.1197 -0.0136
 1614BOLB   C2D38734   6.663  35.394  11.101  0.0485  0.1027 -0.0002
 1614BOLB   C3D38735   6.909  35.786  10.988 -0.2558 -0.1505 -0.2802
 1614BOLB   C4D38736   7.120  36.122  11.316  0.2277  0.0971 -0.0065
 1615BOLB   NC138737  10.762  14.662  20.104 -0.0886 -0.1152 -0.1855
 1615BOLB   PO138738  10.672  14.182  20.135  0.1987 -0.1900 -0.2029
 1615BOLB   GL138739  10.365  14.422  20.310 -0.3095  0.0598 -0.0241
 1615BOLB   GL238740  10.119  14.564  20.179 -0.0296  0.0737 -0.1105
 1615BOLB   C1A38741  10.076  14.446  20.741  0.1507  0.2275  0.1268
 1615BOLB   C2A38742   9.637  14.388  20.791 -0.0684 -0.2440  0.1409
 1615BOLB   C3A38743   9.439  14.797  20.950  0.0727 -0.2240  0.1404
 1615BOLB   C4A38744   9.382  15.175  21.217 -0.0189  0.1085  0.1361
 1615BOLB   C1B38745   9.674  14.715  20.414  0.1426 -0.0146 -0.2150
 1615BOLB   C2B38746   9.376  15.068  20.479  0.0902  0.3046 -0.2388
 1615BOLB   C3B38747   9.074  15.161  20.685  0.0747 -0.0907  0.3349
 1615BOLB   C4B38748   8.722  15.342  20.877  0.0999 -0.0258  0.1451
 1615BOLB   NC238749   8.606  17.044  22.958  0.0544  0.1301  0.2562
 1615BOLB   PO238750   8.160  16.943  22.740  0.0284  0.0228  0.0008
 1615BOLB   GL338751   8.296  16.786  22.344  0.3739  0.1153 -0.1717
 1615BOLB   GL438752   8.497  16.924  22.138 -0.2273 -0.1272  0.0640
 1615BOLB   C1C38753   8.530  16.403  22.193 -0.0301  0.4863  0.2723
 1615BOLB   C2C38754   8.876  16.242  21.874 -0.0149 -0.0629 -0.1083
 1615BOLB   C3C38755   8.969  15.726  21.721 -0.0124 -0.0807  0.1060
 1615BOLB   C4C38756   9.281  15.564  21.423  0.0750  0.1473  0.0960
 1615BOLB   C1D38757   8.738  16.753  21.826 -0.0651 -0.2768 -0.1563
 1615BOLB   C2D38758   9.116  16.699  21.754  0.0378 -0.3262 -0.2190
 1615BOLB   C3D38759   9.557  16.626  21.797  0.0321 -0.1917  0.3871
 1615BOLB   C4D38760   9.904  16.847  21.963 -0.0228  0.0666  0.0117
 1616BOLB   NC138761  23.217  15.215  14.338  0.2230  0.4657  0.0042
 1616BOLB   PO138762  23.137  15.626  14.657  0.1615  0.1024 -0.0190
 1616BOLB   GL138763  23.468  15.738  14.755 -0.0357 -0.1455  0.0060
 1616BOLB   GL238764  23.403  16.068  14.926 -0.4052 -0.0691  0.1159
 1616BOLB   C1A38765  23.800  15.700  15.083 -0.0686  0.1272  0.0992
 1616BOLB   C2A38766  24.120  15.956  15.104 -0.1120 -0.1444 -0.0483
 1616BOLB   C3A38767  24.289  16.325  14.960 -0.1871 -0.1256  0.0540
 1616BOLB   C4A38768  24.663  16.482  15.087  0.0065  0.2258 -0.0721
 1616BOLB   C1B38769  23.777  16.245  14.810 -0.1235  0.0160  0.0016
 1616BOLB   C2B38770  23.903  16.643  15.075 -0.2228  0.1561 -0.1080
 1616BOLB   C3B38771  23.866  17.104  14.911  0.0492  0.0482 -0.2508
 1616BOLB   C4B38772  24.014  17.319  14.610  0.1724  0.2380 -0.2921
 1616BOLB   NC238773  26.336  18.221  15.383 -0.2082  0.0039  0.0972
 1616BOLB   PO238774  26.411  17.897  15.739 -0.2081 -0.0633  0.3014
 1616BOLB   GL338775  26.103  17.698  15.575 -0.0850  0.4195 -0.0636
 1616BOLB   GL438776  25.776  17.915  15.733  0.1477 -0.3987 -0.1775
 1616BOLB   C1C38777  25.917  17.251  15.616  0.1828  0.0207 -0.1449
 1616BOLB   C2C38778  25.537  17.099  15.499 -0.0844 -0.1625  0.1095
 1616BOLB   C3C38779  25.117  16.907  15.529 -0.0065  0.2737 -0.4856
 1616BOLB   C4C38780  24.817  16.797  15.213  0.0559  0.0237 -0.3359
 1616BOLB   C1D38781  25.584  17.611  15.447  0.1016 -0.1546  0.3890
 1616BOLB   C2D38782  25.294  17.457  15.169 -0.0305 -0.0245  0.0220
 1616BOLB   C3D38783  24.946  17.286  15.204 -0.1266 -0.2593  0.1990
 1616BOLB   C4D38784  24.586  17.239  15.429  0.1407 -0.1282  0.0316
 1617BOLB   NC138785  18.296  17.821  13.778  0.1061  0.0514 -0.0934
 1617BOLB   PO138786  17.874  18.019  13.839 -0.0438  0.0737 -0.1797
 1617BOLB   GL138787  18.125  18.367  13.779 -0.2176 -0.1112 -0.0065
 1617BOLB   GL238788  18.504  18.255  13.720  0.2688 -0.1148  0.0579
 1617BOLB   C1A38789  18.353  18.722  13.724  0.2321 -0.0289 -0.4564
 1617BOLB   C2A38790  18.429  19.125  13.730 -0.1300  0.0959  0.2547
 1617BOLB   C3A38791  18.186  19.572  13.553 -0.0202 -0.2731 -0.0677
 1617BOLB   C4A38792  18.120  20.002  13.347 -0.0739  0.4810  0.1568
 1617BOLB   C1B38793  18.830  18.481  13.626  0.2243 -0.1326 -0.1564
 1617BOLB   C2B38794  19.010  18.813  13.383  0.0151  0.0057  0.0752
 1617BOLB   C3B38795  19.409  18.983  13.397  0.1220 -0.0117 -0.0878
 1617BOLB   C4B38796  19.909  18.985  13.246 -0.0033 -0.0975 -0.1088
 1617BOLB   NC238797  19.111  22.037  12.496 -0.0756 -0.0233 -0.0068
 1617BOLB   PO238798  19.240  21.902  12.885  0.2155  0.0776 -0.0957
 1617BOLB   GL338799  19.339  21.625  13.185  0.1206 -0.3897 -0.0889
 1617BOLB   GL438800  19.198  21.824  13.513 -0.0130 -0.2889 -0.0931
 1617BOLB   C1C38801  19.168  21.214  13.058 -0.0943  0.0749 -0.1500
 1617BOLB   C2C38802  19.239  20.777  13.008  0.2710  0.3269  0.1112
 1617BOLB   C3C38803  18.864  20.396  13.002  0.0286 -0.1762  0.2739
 1617BOLB   C4C38804  18.444  20.146  13.127 -0.3443  0.3112  0.0054
 1617BOLB   C1D38805  19.170  21.604  13.803 -0.0677  0.4429 -0.2135
 1617BOLB   C2D38806  19.188  21.533  14.204  0.0324  0.2762 -0.4302
 1617BOLB   C3D38807  19.126  21.761  14.560  0.4583 -0.0703 -0.0903
 1617BOLB   C4D38808  19.173  21.808  15.002  0.1292  0.0328 -0.0084
 1618BOLB   NC138809  11.724  16.819  13.971 -0.2301  0.0270  0.1558
 1618BOLB   PO138810  11.447  16.659  13.682  0.0728  0.2325  0.0455
 1618BOLB   GL138811  11.062  16.920  13.516 -0.0077  0.0818 -0.3586
 1618BOLB   GL238812  10.833  17.021  13.746  0.0972 -0.2328  0.2937
 1618BOLB   C1A38813  10.984  17.364  13.338 -0.5473 -0.1824  0.1675
 1618BOLB   C2A38814  10.768  17.781  13.360  0.0735 -0.1706  0.0076
 1618BOLB   C3A38815  10.654  18.218  13.417 -0.0644 -0.1681  0.1063
 1618BOLB   C4A38816  10.359  18.483  13.259  0.2652  0.1103 -0.4182
 1618BOLB   C1B38817  10.955  17.447  13.824  0.1618 -0.3859 -0.1021
 1618BOLB   C2B38818  10.566  17.836  13.872 -0.1924 -0.1736  0.2164
 1618BOLB   C3B38819  10.258  18.058  14.027 -0.0804  0.1102  0.0386
 1618BOLB   C4B38820  10.226  18.554  14.074  0.1163  0.0727 -0.0020
 1618BOLB   NC238821   9.581  21.127  13.528 -0.0875  0.3018  0.1613
 1618BOLB   PO238822   9.956  21.071  13.813 -0.0526 -0.3969 -0.2073
 1618BOLB   GL338823   9.879  20.574  13.869  0.1474 -0.1816 -0.1831
 1618BOLB   GL438824   9.756  20.456  14.196  0.1764  0.0933  0.1205
 1618BOLB   C1C38825  10.055  20.099  13.685 -0.0456  0.1225  0.3802
 1618BOLB   C2C38826   9.930  19.714  13.497  0.2201 -0.0714  0.1160
 1618BOLB   C3C38827   9.864  19.255  13.341  0.1403 -0.0937 -0.0359
 1618BOLB   C4C38828   9.998  18.896  13.169  0.2245  0.2548  0.0711
 1618BOLB   C1D38829   9.962  20.010  14.217  0.0707  0.0623  0.1808
 1618BOLB   C2D38830  10.256  19.782  13.981 -0.1141  0.3229 -0.0140
 1618BOLB   C3D38831  10.554  19.545  14.011  0.0994  0.1553 -0.2357
 1618BOLB   C4D38832  10.871  19.252  14.286 -0.0047  0.2280  0.1917
 1619BOLB   NC138833  22.460  15.807  15.999  0.1136  0.1497 -0.2682
 1619BOLB   PO138834  22.872  15.736  16.139 -0.3208  0.1727 -0.2872
 1619BOLB   GL138835  23.155  15.992  15.975  0.1229 -0.0440 -0.0783
 1619BOLB   GL238836  23.002  16.122  15.750 -0.2003  0.1547  0.0029
 1619BOLB   C1A38837  23.514  16.350  15.906  0.1168  0.1858  0.2943
 1619BOLB   C2A38838  23.865  16.438  15.923  0.3110  0.1077 -0.0104
 1619BOLB   C3A38839  24.202  16.207  15.991 -0.2687 -0.2475  0.1213
 1619BOLB   C4A38840  24.584  16.255  15.936  0.0698  0.1198 -0.0774
 1619BOLB   C1B38841  23.124  16.582  15.849  0.1244  0.2998  0.0013
 1619BOLB   C2B38842  23.363  16.894  15.794  0.0651 -0.0599 -0.0921
 1619BOLB   C3B38843  23.465  17.157  15.829 -0.3379 -0.1091 -0.0067
 1619BOLB   C4B38844  23.783  17.345  15.853  0.2360  0.1255  0.0658
 1619BOLB   NC238845  26.812  17.579  15.933 -0.2773  0.2330 -0.2727
 1619BOLB   PO238846  26.867  17.333  15.617 -0.1962 -0.1670 -0.1609
 1619BOLB   GL338847  26.695  17.090  15.932 -0.2545 -0.0541 -0.0338
 1619BOLB   GL438848  26.722  17.192  16.185  0.0443  0.3183 -0.5973
 1619BOLB   C1C38849  26.329  16.834  15.750 -0.3713 -0.1887  0.0851
 1619BOLB   C2C38850  25.810  16.689  15.589 -0.1345 -0.0265  0.2513
 1619BOLB   C3C38851  25.390  16.487  15.726 -0.0667  0.2430  0.1174
 1619BOLB   C4C38852  25.092  16.285  16.042 -0.1026  0.2372  0.2344
 1619BOLB   C1D38853  26.325  16.974  16.246 -0.1868  0.3140  0.3261
 1619BOLB   C2D38854  25.921  16.945  16.071 -0.3981 -0.1521  0.2461
 1619BOLB   C3D38855  25.486  16.916  15.975  0.3016 -0.3717  0.0141
 1619BOLB   C4D38856  25.058  16.886  16.066 -0.2505 -0.0073  0.2495
 1620BOLB   NC138857  20.123  12.245  22.367 -0.1650  0.1039 -0.3541
 1620BOLB   PO138858  20.317  12.111  22.680  0.0987 -0.0818 -0.1571
 1620BOLB   GL138859  20.465  12.319  22.944  0.0923 -0.3506 -0.4389
 1620BOLB   GL238860  20.696  12.233  23.072  0.0019 -0.0068 -0.2968
 1620BOLB   C1A38861  20.731  12.695  23.242 -0.1164  0.1897  0.0034
 1620BOLB   C2A38862  20.598  13.030  23.560 -0.1705 -0.2317  0.1727
 1620BOLB   C3A38863  20.650  13.074  24.012 -0.0022 -0.2197  0.0064
 1620BOLB   C4A38864  20.324  13.035  24.439  0.1543  0.5380 -0.2004
 1620BOLB   C1B38865  21.011  12.280  23.316 -0.2475 -0.1871  0.1502
 1620BOLB   C2B38866  21.347  12.338  23.692 -0.2253 -0.0687  0.4748
 1620BOLB   C3B38867  21.678  12.495  23.789  0.2728  0.3282 -0.0203
 1620BOLB   C4B38868  21.948  12.487  24.012 -0.3634 -0.1530 -0.0266
 1620BOLB   NC238869  20.756  13.879  26.753  0.2848  0.1896  0.1905
 1620BOLB   PO238870  20.751  13.554  26.973  0.0340  0.2556  0.0033
 1620BOLB   GL338871  20.764  13.434  26.532  0.1046  0.0736 -0.1710
 1620BOLB   GL438872  21.035  13.231  26.323 -0.0297 -0.1647 -0.2892
 1620BOLB   C1C38873  20.652  13.385  26.042  0.0456  0.0912  0.1076
 1620BOLB   C2C38874  20.494  13.249  25.623 -0.1413 -0.0165 -0.2163
 1620BOLB   C3C38875  20.437  13.317  25.227 -0.0752  0.0245 -0.1555
 1620BOLB   C4C38876  20.491  13.060  24.848  0.0342  0.0404 -0.0742
 1620BOLB   C1D38877  21.100  12.992  25.930 -0.3989  0.0573 -0.0887
 1620BOLB   C2D38878  20.952  13.049  25.461  0.2462  0.3348  0.1678
 1620BOLB   C3D38879  21.051  13.183  24.956 -0.0540 -0.1470 -0.1381
 1620BOLB   C4D38880  20.844  13.344  24.572  0.2312  0.0393  0.1878
 1621BOLB   NC138881  11.946  12.366  21.928  0.0489  0.1891 -0.4460
 1621BOLB   PO138882  11.745  12.033  22.226  0.1046  0.2356  0.2556
 1621BOLB   GL138883  11.715  12.191  22.716  0.0614  0.0949  0.1036
 1621BOLB   GL238884  11.645  11.955  22.887  0.1082 -0.1241  0.4309
 1621BOLB   C1A38885  11.290  12.352  22.868  0.1715  0.2419 -0.6568
 1621BOLB   C2A38886  10.880  12.624  22.885  0.1691 -0.2777  0.1291
 1621BOLB   C3A38887  10.586  12.923  23.019  0.1958 -0.1010  0.0857
 1621BOLB   C4A38888  10.534  13.216  23.237  0.0582 -0.0287  0.1063
 1621BOLB   C1B38889  11.229  11.824  23.046  0.1126  0.0178  0.1111
 1621BOLB   C2B38890  10.979  11.719  23.329 -0.0580 -0.1444  0.1859
 1621BOLB   C3B38891  10.689  11.415  23.644 -0.0195 -0.1276  0.3290
 1621BOLB   C4B38892  10.245  11.501  23.603 -0.0740  0.2095  0.1076
 1621BOLB   NC238893   9.805  14.985  25.320  0.3285  0.3881 -0.0181
 1621BOLB   PO238894  10.135  14.566  25.337  0.1341 -0.2064  0.3318
 1621BOLB   GL338895  10.348  14.585  24.842 -0.0480  0.3635 -0.0717
 1621BOLB   GL438896  10.142  14.336  24.692 -0.0660 -0.0887 -0.0433
 1621BOLB   C1C38897  10.639  14.376  24.557 -0.1843  0.1404  0.2755
 1621BOLB   C2C38898  10.857  14.172  24.197  0.3439  0.1068 -0.0965
 1621BOLB   C3C38899  10.744  13.775  23.978 -0.0689 -0.0951 -0.2240
 1621BOLB   C4C38900  10.653  13.430  23.622  0.1388 -0.1315  0.0724
 1621BOLB   C1D38901  10.369  13.998  24.644 -0.1585  0.0640 -0.2172
 1621BOLB   C2D38902  10.753  13.765  24.477  0.1401  0.1029 -0.3293
 1621BOLB   C3D38903  11.138  13.608  24.262  0.1280  0.0578  0.3503
 1621BOLB   C4D38904  11.541  13.331  24.285 -0.0411  0.3604 -0.1914
 1622BOLB   NC138905   8.826  12.516  18.696  0.5099 -0.0492  0.1990
 1622BOLB   PO138906   9.005  12.983  18.567  0.1704  0.1048  0.1166
 1622BOLB   GL138907   8.614  12.903  18.608  0.2715 -0.1154  0.0009
 1622BOLB   GL238908   8.348  12.638  18.707 -0.0514  0.0432  0.1303
 1622BOLB   C1A38909   8.304  13.128  18.544  0.2599 -0.0369  0.0316
 1622BOLB   C2A38910   7.845  13.105  18.686 -0.1619 -0.0948 -0.0629
 1622BOLB   C3A38911   7.461  13.299  18.796  0.0067  0.1165 -0.1400
 1622BOLB   C4A38912   7.108  13.295  18.934  0.1013 -0.2119  0.1178
 1622BOLB   C1B38913   8.147  12.805  19.076 -0.0099 -0.0168 -0.1074
 1622BOLB   C2B38914   7.948  12.633  19.416  0.0127 -0.2644 -0.1017
 1622BOLB   C3B38915   7.910  12.462  19.759 -0.0441  0.4751 -0.0538
 1622BOLB   C4B38916   7.824  12.510  20.076 -0.1673 -0.3347 -0.1006
 1622BOLB   NC238917   4.956  13.431  18.962 -0.0131  0.1246 -0.0436
 1622BOLB   PO238918   4.960  12.955  18.940 -0.3260 -0.2414 -0.0418
 1622BOLB   GL338919   5.311  13.107  18.714  0.0919 -0.0417 -0.2419
 1622BOLB   GL438920   5.231  13.416  18.539 -0.0638  0.2075 -0.0281
 1622BOLB   C1C38921   5.677  13.075  18.509  0.0373  0.1386  0.0940
 1622BOLB   C2C38922   6.066  12.919  18.705  0.2482 -0.0832  0.0046
 1622BOLB   C3C38923   6.539  12.957  18.812  0.2172 -0.0223 -0.0003
 1622BOLB   C4C38924   6.833  13.166  19.095 -0.1324 -0.3333  0.3834
 1622BOLB   C1D38925   5.472  13.381  18.170  0.0141 -0.1031  0.1466
 1622BOLB   C2D38926   5.929  13.270  18.072  0.0362 -0.0073  0.2928
 1622BOLB   C3D38927   6.159  13.216  17.700  0.0411 -0.3647  0.0705
 1622BOLB   C4D38928   6.427  13.165  17.372 -0.0454 -0.1340  0.2955
 1623BOLB   NC138929  16.736  18.981  24.990 -0.0654 -0.2537  0.0439
 1623BOLB   PO138930  16.852  18.537  25.092  0.2401  0.0714  0.0379
 1623BOLB   GL138931  16.903  18.564  24.677 -0.0123  0.1513  0.3691
 1623BOLB   GL238932  16.616  18.576  24.611 -0.0604  0.0979  0.1196
 1623BOLB   C1A38933  16.945  18.517  24.220 -0.2301 -0.1716  0.0894
 1623BOLB   C2A38934  17.234  18.267  23.960 -0.1794  0.3046  0.3240
 1623BOLB   C3A38935  17.335  17.774  23.860 -0.2597  0.0007 -0.2512
 1623BOLB   C4A38936  17.157  17.496  24.204 -0.1115  0.2009  0.2025
 1623BOLB   C1B38937  16.516  18.185  24.312  0.0226  0.3207 -0.2444
 1623BOLB   C2B38938  16.750  18.211  23.868  0.1101  0.2094 -0.2064
 1623BOLB   C3B38939  16.752  18.091  23.455 -0.1249 -0.1523 -0.1876
 1623BOLB   C4B38940  16.917  18.043  23.022 -0.0606 -0.0073  0.0872
 1623BOLB   NC238941  18.462  16.832  25.980  0.0758  0.0013 -0.1608
 1623BOLB   PO238942  18.637  17.179  25.797 -0.2423  0.2867 -0.0523
 1623BOLB   GL338943  18.487  17.041  25.408 -0.0909  0.1457 -0.2882
 1623BOLB   GL438944  18.557  17.229  25.213  0.2277 -0.0601 -0.0177
 1623BOLB   C1C38945  18.155  16.986  24.997  0.0559 -0.1466  0.2996
 1623BOLB   C2C38946  17.764  17.150  24.885 -0.2182  0.1961  0.1717
 1623BOLB   C3C38947  17.428  16.986  24.685  0.0853  0.3744 -0.0207
 1623BOLB   C4C38948  17.230  17.026  24.332  0.0777  0.1166 -0.1740
 1623BOLB   C1D38949  18.672  16.911  24.984 -0.1028  0.1282 -0.0427
 1623BOLB   C2D38950  18.609  16.660  24.567 -0.0461 -0.0730  0.1730
 1623BOLB   C3D38951  18.555  16.232  24.535 -0.1797  0.0401  0.0197
 1623BOLB   C4D38952  18.575  15.836  24.311  0.1012  0.0086 -0.2678
 1624BOLB   NC138953  19.293   7.683   9.610 -0.0717 -0.0546 -0.0006
 1624BOLB   PO138954  19.441   7.346   9.322 -0.0992  0.3049 -0.0080
 1624BOLB   GL138955  19.500   7.263   8.879  0.2355  0.3960  0.2019
 1624BOLB   GL238956  19.721   6.979   8.824 -0.1583 -0.1158  0.2345
 1624BOLB   C1A38957  19.926   7.410   8.638 -0.3689  0.0633  0.6471
 1624BOLB   C2A38958  20.176   7.263   8.317 -0.0803 -0.0319  0.3019
 1624BOLB   C3A38959  20.407   6.882   8.381 -0.2091  0.2123 -0.2503
 1624BOLB   C4A38960  20.549   6.465   8.365  0.2938 -0.0014 -0.0388
 1624BOLB   C1B38961  20.237   7.094   8.834  0.0699  0.3522  0.0587
 1624BOLB   C2B38962  20.654   7.304   8.678 -0.1101  0.0902  0.0350
 1624BOLB   C3B38963  20.680   7.283   8.206  0.3233 -0.1571 -0.1773
 1624BOLB   C4B38964  20.417   7.036   7.864 -0.0833  0.1224 -0.1958
 1624BOLB   NC238965  22.508   6.345   6.506 -0.2662  0.0069 -0.3336
 1624BOLB   PO238966  22.100   6.310   6.544 -0.1869  0.0504 -0.0889
 1624BOLB   GL338967  21.616   6.248   6.684 -0.0194 -0.1115  0.1646
 1624BOLB   GL438968  21.424   6.498   6.555  0.1148  0.0785  0.1680
 1624BOLB   C1C38969  21.301   6.222   6.975 -0.3564 -0.2258 -0.0293
 1624BOLB   C2C38970  21.033   6.228   7.342 -0.0443 -0.4276  0.0558
 1624BOLB   C3C38971  20.869   6.247   7.749 -0.1633  0.0382  0.3764
 1624BOLB   C4C38972  20.789   6.200   8.137 -0.0183 -0.1991 -0.0213
 1624BOLB   C1D38973  20.979   6.529   6.485  0.1214  0.1342  0.2502
 1624BOLB   C2D38974  20.647   6.485   6.851 -0.0654  0.3358 -0.3168
 1624BOLB   C3D38975  20.530   6.553   7.374 -0.3898 -0.2196  0.0223
 1624BOLB   C4D38976  20.430   6.548   7.806  0.0933 -0.3197 -0.0124
 1625BOLB   NC138977  13.036  15.304   9.734 -0.0994 -0.3521 -0.3828
 1625BOLB   PO138978  13.344  14.868   9.701 -0.1850  0.0982  0.2443
 1625BOLB   GL138979  13.005  14.865   9.311  0.3106  0.0183 -0.1070
 1625BOLB   GL238980  12.941  15.114   9.289  0.0210  0.1087 -0.1517
 1625BOLB   C1A38981  12.749  14.814   8.929 -0.1778 -0.2392  0.0028
 1625BOLB   C2A38982  12.472  14.881   8.611  0.4140 -0.2932  0.0347
 1625BOLB   C3A38983  12.369  15.172   8.302 -0.0724  0.0668 -0.1515
 1625BOLB   C4A38984  12.214  15.548   8.044  0.3550 -0.3213 -0.1323
 1625BOLB   C1B38985  12.790  15.325   9.001 -0.1747 -0.5155 -0.0556
 1625BOLB   C2B38986  12.396  15.448   8.745 -0.1223 -0.4532  0.2082
 1625BOLB   C3B38987  12.009  15.562   8.481  0.2035 -0.1356 -0.0317
 1625BOLB   C4B38988  11.720  15.644   8.113 -0.0358 -0.0079  0.1278
 1625BOLB   NC238989  10.496  17.354   7.461  0.0583 -0.0324  0.0346
 1625BOLB   PO238990  10.847  17.145   7.601  0.2660 -0.0636  0.1536
 1625BOLB   GL338991  11.220  17.019   7.836 -0.0557 -0.0371 -0.0853
 1625BOLB   GL438992  11.356  17.025   8.107 -0.1337  0.1423  0.0529
 1625BOLB   C1C38993  11.296  16.574   7.710 -0.0000  0.1030 -0.5720
 1625BOLB   C2C38994  11.552  16.324   7.373  0.1824  0.2392  0.2703
 1625BOLB   C3C38995  11.854  16.045   7.463  0.1947  0.0389  0.1138
 1625BOLB   C4C38996  12.122  15.717   7.671  0.0118  0.1690 -0.1005
 1625BOLB   C1D38997  11.759  17.231   8.332  0.2158 -0.0971  0.2188
 1625BOLB   C2D38998  12.047  17.344   8.645  0.2338 -0.1961 -0.3398
 1625BOLB   C3D38999  12.198  16.939   8.638 -0.3744  0.3310  0.0525
 1625BOLB   C4D39000  11.992  16.610   8.844 -0.0879  0.0706  0.3830
 1626BOLB   NC139001  11.032  10.125  26.315 -0.1363  0.2962 -0.0564
 1626BOLB   PO139002  10.917  10.490  26.146 -0.1909 -0.1489  0.0340
 1626BOLB   GL139003  10.924  10.565  25.695  0.0737 -0.2264  0.3229
 1626BOLB   GL239004  11.019  10.864  25.592 -0.0091 -0.1483  0.3932
 1626BOLB   C1A39005  10.943  10.313  25.386 -0.1150  0.2209  0.0278
 1626BOLB   C2A39006  11.039  10.115  25.057  0.0644 -0.2981 -0.2651
 1626BOLB   C3A39007  11.128   9.948  24.778 -0.1727  0.0412  0.0433
 1626BOLB   C4A39008  11.269  10.012  24.434 -0.0984 -0.2737  0.2066
 1626BOLB   C1B39009  11.008  11.215  25.270 -0.0115  0.1451 -0.0462
 1626BOLB   C2B39010  10.942  11.182  24.781 -0.0549  0.1155 -0.3086
 1626BOLB   C3B39011  11.094  10.940  24.455 -0.1991 -0.0289 -0.1977
 1626BOLB   C4B39012  11.410  10.676  24.449  0.3833  0.0319  0.0063
 1626BOLB   NC239013  12.115  10.229  21.505  0.1548  0.0554 -0.2533
 1626BOLB   PO239014  12.021  10.451  21.935  0.0788 -0.1988  0.2951
 1626BOLB   GL339015  11.784  10.289  22.290 -0.0583  0.2811  0.4079
 1626BOLB   GL439016  11.506  10.338  22.176  0.4342  0.0133 -0.0008
 1626BOLB   C1C39017  11.610  10.245  22.706 -0.1355 -0.0107  0.0003
 1626BOLB   C2C39018  11.444  10.115  23.033 -0.0272 -0.0608 -0.0478
 1626BOLB   C3C39019  11.386  10.054  23.497 -0.0024 -0.3076 -0.3888
 1626BOLB   C4C39020  11.434  10.033  23.981  0.1278  0.4168  0.3183
 1626BOLB   C1D39021  11.163  10.430  22.503  0.0308 -0.0620  0.0920
 1626BOLB   C2D39022  10.967  10.253  22.767 -0.0073  0.3727  0.1745
 1626BOLB   C3D39023  10.546  10.122  22.922 -0.0401 -0.1524  0.1114
 1626BOLB   C4D39024  10.291   9.969  23.285  0.3337  0.1801 -0.0716
 1627BOLB   NC139025  13.147   6.497  21.796  0.0355 -0.1178  0.1742
 1627BOLB   PO139026  12.701   6.411  22.071 -0.2348 -0.0652  0.0488
 1627BOLB   GL139027  12.590   6.254  22.414  0.0998 -0.0389  0.0565
 1627BOLB   GL239028  12.233   6.299  22.433  0.0202 -0.0360 -0.2080
 1627BOLB   C1A39029  12.411   5.805  22.402 -0.2955 -0.0648  0.0331
 1627BOLB   C2A39030  12.108   5.658  22.670  0.1410  0.2686 -0.2192
 1627BOLB   C3A39031  11.972   5.305  22.810 -0.3236  0.0384  0.3210
 1627BOLB   C4A39032  11.790   5.173  23.120 -0.1132 -0.1734 -0.3231
 1627BOLB   C1B39033  12.418   6.065  22.801  0.1233  0.1075  0.0199
 1627BOLB   C2B39034  12.257   5.910  23.178  0.1433 -0.2238  0.1618
 1627BOLB   C3B39035  11.987   5.679  23.459 -0.0631 -0.0719 -0.2310
 1627BOLB   C4B39036  11.501   5.796  23.523  0.0114  0.0725 -0.1322
 1627BOLB   NC239037  10.645   4.504  25.255 -0.1072  0.0765  0.2611
 1627BOLB   PO239038  10.607   4.327  24.858  0.0590 -0.0776  0.3910
 1627BOLB   GL339039  10.640   4.581  24.523  0.0179  0.2689  0.0115
 1627BOLB   GL439040  10.483   4.993  24.513 -0.2443  0.2982  0.2000
 1627BOLB   C1C39041  10.996   4.493  24.296  0.1305  0.0850 -0.0745
 1627BOLB   C2C39042  11.318   4.612  24.034 -0.1093  0.0076 -0.0074
 1627BOLB   C3C39043  11.642   4.845  23.859  0.3190  0.2200  0.0180
 1627BOLB   C4C39044  11.688   5.180  23.481  0.2648 -0.0898  0.0503
 1627BOLB   C1D39045  10.767   4.850  24.051  0.2409  0.2009  0.0175
 1627BOLB   C2D39046  11.050   4.974  23.817  0.3246 -0.0679 -0.1003
 1627BOLB   C3D39047  11.328   5.330  23.866  0.0797 -0.0970  0.0232
 1627BOLB   C4D39048  11.749   5.474  23.900 -0.0179 -0.1094 -0.1000
 1628BOLB   NC139049  11.578  14.676  11.901  0.2020  0.0757  0.0614
 1628BOLB   PO139050  11.668  14.947  11.572 -0.0522  0.3096 -0.0957
 1628BOLB   GL139051  11.437  15.310  11.285  0.2689 -0.0034  0.3468
 1628BOLB   GL239052  11.227  15.273  11.036 -0.0017 -0.2401  0.3952
 1628BOLB   C1A39053  11.164  15.768  11.238 -0.0287 -0.0154  0.1066
 1628BOLB   C2A39054  10.838  16.069  11.063  0.0906  0.3504  0.0840
 1628BOLB   C3A39055  10.570  16.325  10.934 -0.1153  0.0824  0.0953
 1628BOLB   C4A39056  10.175  16.437  10.748  0.1686  0.2072 -0.1546
 1628BOLB   C1B39057  10.920  15.654  10.781 -0.0103  0.2619 -0.3596
 1628BOLB   C2B39058  10.647  15.975  10.568  0.0907 -0.0415  0.2757
 1628BOLB   C3B39059  10.731  16.337  10.497 -0.2467 -0.0243 -0.0578
 1628BOLB   C4B39060  11.036  16.658  10.197  0.1166 -0.0419 -0.0356
 1628BOLB   NC239061   8.541  18.156  10.989 -0.1551  0.0151  0.2650
 1628BOLB   PO239062   8.882  18.358  10.820  0.2599  0.0867 -0.2141
 1628BOLB   GL339063   9.043  17.912  10.614  0.1992 -0.1570  0.1886
 1628BOLB   GL439064   9.233  17.894  10.387 -0.1413 -0.3017 -0.1790
 1628BOLB   C1C39065   9.177  17.418  10.566  0.1389 -0.1462 -0.0446
 1628BOLB   C2C39066   9.140  16.996  10.506 -0.2597 -0.1187  0.0507
 1628BOLB   C3C39067   9.411  16.757  10.598 -0.2373  0.1390 -0.1280
 1628BOLB   C4C39068   9.785  16.545  10.637 -0.0469 -0.1240  0.0021
 1628BOLB   C1D39069   9.589  17.801  10.722 -0.1102  0.2960  0.0331
 1628BOLB   C2D39070   9.844  17.538  10.797 -0.0354  0.0770  0.0068
 1628BOLB   C3D39071  10.294  17.431  11.042 -0.0586  0.1000  0.0087
 1628BOLB   C4D39072  10.636  17.174  11.101  0.0984  0.1497 -0.0331
 1629BOLB   NC139073  21.643   2.648   7.066  0.3257 -0.2252 -0.0255
 1629BOLB   PO139074  21.732   2.581   7.591 -0.0723  0.0908 -0.2847
 1629BOLB   GL139075  21.453   2.803   7.613 -0.4961 -0.4394 -0.0613
 1629BOLB   GL239076  21.213   2.597   7.458  0.1082  0.0802 -0.1749
 1629BOLB   C1A39077  21.055   2.986   7.815  0.1153 -0.0548 -0.1555
 1629BOLB   C2A39078  20.651   3.140   7.735 -0.0161  0.2138  0.0162
 1629BOLB   C3A39079  20.463   3.479   7.908  0.2994  0.0714 -0.1710
 1629BOLB   C4A39080  20.306   3.401   8.399  0.0786 -0.2568  0.1019
 1629BOLB   C1B39081  20.799   2.599   7.515  0.1105  0.3852  0.0344
 1629BOLB   C2B39082  20.462   2.684   7.438  0.4253 -0.0844 -0.1779
 1629BOLB   C3B39083  20.171   2.628   7.745  0.1394 -0.1471  0.0517
 1629BOLB   C4B39084  20.066   2.450   8.132  0.5796 -0.2561  0.1580
 1629BOLB   NC239085  18.501   4.552   9.857  0.0272  0.0614 -0.1971
 1629BOLB   PO239086  18.788   4.603  10.082  0.0614  0.0666 -0.0046
 1629BOLB   GL339087  19.000   4.414   9.765 -0.1363 -0.1334 -0.0771
 1629BOLB   GL439088  18.984   4.580   9.478 -0.1260 -0.1560 -0.1974
 1629BOLB   C1C39089  19.369   4.250   9.633 -0.1154 -0.0056  0.2205
 1629BOLB   C2C39090  19.542   4.072   9.259  0.1805  0.0180  0.1212
 1629BOLB   C3C39091  19.776   3.865   8.903 -0.2748  0.0912 -0.0489
 1629BOLB   C4C39092  20.185   3.678   8.813  0.0144  0.1370 -0.1341
 1629BOLB   C1D39093  19.158   4.388   9.129 -0.0072 -0.0634 -0.1104
 1629BOLB   C2D39094  19.460   4.334   8.796  0.0865 -0.1567 -0.0520
 1629BOLB   C3D39095  19.516   4.006   8.514 -0.1201 -0.0261  0.1349
 1629BOLB   C4D39096  19.932   3.809   8.430  0.1139 -0.2974  0.1977
 1630BOLB   NC139097   9.735  20.299  19.922 -0.1614 -0.1391  0.0274
 1630BOLB   PO139098   9.640  19.944  20.134 -0.3124 -0.1236 -0.1793
 1630BOLB   GL139099   9.932  19.650  19.896  0.2388 -0.0557 -0.1667
 1630BOLB   GL239100  10.150  19.995  19.981 -0.0273  0.0267 -0.1980
 1630BOLB   C1A39101  10.275  19.651  19.590 -0.2129 -0.0096  0.2523
 1630BOLB   C2A39102  10.504  19.365  19.379 -0.0352  0.3168 -0.0308
 1630BOLB   C3A39103  10.737  19.165  19.143 -0.1105 -0.0065  0.1615
 1630BOLB   C4A39104  11.154  19.054  18.935  0.1499  0.1991  0.0168
 1630BOLB   C1B39105  10.509  19.902  19.963 -0.1169  0.1988 -0.1612
 1630BOLB   C2B39106  10.870  20.120  19.771  0.2132  0.3799 -0.0899
 1630BOLB   C3B39107  11.095  19.837  19.518  0.0232  0.3079 -0.2007
 1630BOLB   C4B39108  11.377  19.874  19.144  0.0429 -0.1865  0.0963
 1630BOLB   NC239109  12.642  17.220  18.627 -0.1928  0.0624 -0.0680
 1630BOLB   PO239110  12.744  17.482  18.169  0.1077 -0.2077  0.3953
 1630BOLB   GL339111  12.559  17.831  18.312  0.0854 -0.1403  0.1027
 1630BOLB   GL439112  12.697  18.025  18.165 -0.1898 -0.0291 -0.1211
 1630BOLB   C1C39113  12.244  18.035  18.334 -0.0191  0.0552 -0.1382
 1630BOLB   C2C39114  11.987  18.412  18.216  0.3857 -0.0422  0.0777
 1630BOLB   C3C39115  11.573  18.565  18.420  0.1579  0.2385 -0.0586
 1630BOLB   C4C39116  11.279  18.855  18.574  0.4471 -0.2576  0.0609
 1630BOLB   C1D39117  12.607  18.435  18.252 -0.2870 -0.0198 -0.1123
 1630BOLB   C2D39118  12.322  18.690  18.577  0.1719  0.6014  0.0642
 1630BOLB   C3D39119  12.149  19.112  18.693  0.0232  0.1067  0.0469
 1630BOLB   C4D39120  12.177  19.649  18.849 -0.2953 -0.1368  0.3303
 1631BOLB   NC139121  23.952  13.971  17.048 -0.0795  0.2110 -0.2593
 1631BOLB   PO139122  23.975  14.485  17.011 -0.1920  0.0632 -0.0118
 1631BOLB   GL139123  24.206  14.857  16.899 -0.0885 -0.2762 -0.2817
 1631BOLB   GL239124  24.110  15.158  16.909 -0.1281 -0.0220  0.0720
 1631BOLB   C1A39125  24.544  14.892  17.069 -0.0360  0.0045  0.1888
 1631BOLB   C2A39126  24.683  14.642  17.371 -0.3324 -0.1508 -0.2924
 1631BOLB   C3A39127  24.932  14.297  17.391  0.1062 -0.1992 -0.0216
 1631BOLB   C4A39128  25.202  14.547  17.382  0.0360  0.0588 -0.1803
 1631BOLB   C1B39129  24.285  15.474  17.116  0.0733  0.0472  0.2364
 1631BOLB   C2B39130  24.626  15.599  17.396 -0.0541  0.2246  0.0596
 1631BOLB   C3B39131  24.989  15.602  17.611  0.0732  0.1097 -0.1013
 1631BOLB   C4B39132  25.393  15.687  17.434 -0.2402 -0.0266 -0.0897
 1631BOLB   NC239133  27.527  15.593  17.606  0.0908  0.0853  0.1669
 1631BOLB   PO239134  27.347  15.831  17.340  0.0248 -0.1771 -0.0191
 1631BOLB   GL339135  27.097  15.497  17.440  0.2289  0.1904  0.0695
 1631BOLB   GL439136  26.935  15.693  17.120 -0.1437 -0.1169 -0.2141
 1631BOLB   C1C39137  26.736  15.309  17.372 -0.1665 -0.1550 -0.3209
 1631BOLB   C2C39138  26.405  15.071  17.584  0.2657 -0.0702 -0.0986
 1631BOLB   C3C39139  25.981  14.900  17.583  0.0425 -0.0002 -0.0073
 1631BOLB   C4C39140  25.499  14.854  17.581 -0.2326 -0.3641 -0.0284
 1631BOLB   C1D39141  26.582  15.911  17.043 -0.0801  0.2359  0.2141
 1631BOLB   C2D39142  26.447  16.039  16.645  0.2124 -0.2000  0.2033
 1631BOLB   C3D39143  26.080  16.286  16.537 -0.1858  0.0673  0.0994
 1631BOLB   C4D39144  25.825  15.943  16.436 -0.1436 -0.3613  0.0742
 1632BOLB   NC139145  11.764  13.483  21.962  0.3450 -0.0425  0.2494
 1632BOLB   PO139146  12.179  13.524  21.982  0.0606  0.0707 -0.1657
 1632BOLB   GL139147  12.097  13.623  22.368 -0.1557 -0.1339 -0.0977
 1632BOLB   GL239148  12.319  13.815  22.350 -0.0009  0.0131  0.1701
 1632BOLB   C1A39149  11.815  13.653  22.802  0.0274  0.0328  0.0126
 1632BOLB   C2A39150  11.952  13.912  23.112  0.0811  0.1496 -0.0852
 1632BOLB   C3A39151  12.246  14.215  23.197 -0.0231  0.4670  0.0928
 1632BOLB   C4A39152  12.447  14.542  23.394  0.2590 -0.2930  0.2990
 1632BOLB   C1B39153  12.314  13.636  22.800 -0.0938  0.0446 -0.0021
 1632BOLB   C2B39154  12.262  13.598  23.260  0.1596 -0.3013  0.1480
 1632BOLB   C3B39155  12.111  13.808  23.588  0.1277 -0.1648 -0.1253
 1632BOLB   C4B39156  12.032  14.152  23.635 -0.2173 -0.1699  0.1461
 1632BOLB   NC239157  12.073  14.885  25.809 -0.2849  0.2048  0.0542
 1632BOLB   PO239158  11.616  14.942  25.811  0.0829  0.1862  0.0697
 1632BOLB   GL339159  11.763  15.107  25.344 -0.2703 -0.3246 -0.2625
 1632BOLB   GL439160  12.077  14.987  25.326 -0.2965 -0.2536  0.2495
 1632BOLB   C1C39161  11.878  15.060  24.864  0.1484  0.0445 -0.6127
 1632BOLB   C2C39162  12.042  15.263  24.386 -0.1066 -0.1643 -0.1554
 1632BOLB   C3C39163  12.256  14.937  23.998  0.2391 -0.2446 -0.2681
 1632BOLB   C4C39164  12.384  14.841  23.582  0.3025 -0.0360 -0.3985
 1632BOLB   C1D39165  12.537  14.963  25.277 -0.3461  0.0484  0.0333
 1632BOLB   C2D39166  12.901  15.191  25.302 -0.0650  0.1226  0.1981
 1632BOLB   C3D39167  13.254  15.156  25.113 -0.0853  0.0135  0.1313
 1632BOLB   C4D39168  13.549  15.104  24.879 -0.0938  0.0919 -0.1124
 1633BOLB   NC139169  26.016   2.710  16.022  0.0550  0.2497 -0.2302
 1633BOLB   PO139170  25.782   2.402  15.728 -0.0819  0.3157 -0.2598
 1633BOLB   GL139171  25.492   2.385  15.496 -0.0571  0.0008  0.0559
 1633BOLB   GL239172  25.405   2.726  15.379 -0.1522 -0.0977  0.0999
 1633BOLB   C1A39173  24.981   2.446  15.656  0.0573 -0.2261 -0.0211
 1633BOLB   C2A39174  24.661   2.547  15.905 -0.0471  0.3915  0.0122
 1633BOLB   C3A39175  24.127   2.575  16.073 -0.3827  0.1817 -0.0159
 1633BOLB   C4A39176  23.802   2.796  16.202 -0.3166  0.2258  0.0321
 1633BOLB   C1B39177  25.070   3.119  15.598  0.2700 -0.1210  0.1777
 1633BOLB   C2B39178  24.721   3.275  15.590 -0.2676 -0.0264  0.3105
 1633BOLB   C3B39179  24.400   3.562  15.444  0.0666  0.1382 -0.0336
 1633BOLB   C4B39180  24.106   3.833  15.670  0.0396 -0.5739  0.1839
 1633BOLB   NC239181  21.698   4.510  16.594  0.0724 -0.3032 -0.1885
 1633BOLB   PO239182  21.862   4.241  16.399 -0.2547 -0.3815 -0.1605
 1633BOLB   GL339183  22.064   3.865  16.506  0.1407 -0.0663  0.0625
 1633BOLB   GL439184  21.916   3.624  16.248 -0.0062 -0.2779  0.0370
 1633BOLB   C1C39185  22.387   3.624  16.517  0.2728 -0.2598 -0.3901
 1633BOLB   C2C39186  22.595   3.228  16.545  0.1008 -0.1310 -0.0660
 1633BOLB   C3C39187  22.938   2.995  16.338 -0.0426 -0.0131 -0.0954
 1633BOLB   C4C39188  23.404   2.925  16.293 -0.0970 -0.1456  0.0414
 1633BOLB   C1D39189  22.042   3.151  16.512  0.0483 -0.0883  0.0594
 1633BOLB   C2D39190  22.275   2.804  16.739  0.1785 -0.1484 -0.2526
 1633BOLB   C3D39191  22.690   2.774  16.845 -0.3472 -0.1997 -0.0357
 1633BOLB   C4D39192  23.196   2.766  16.733  0.0170 -0.1489 -0.3355
 1634BOLB   NC139193  16.157  19.098  17.019  0.0521  0.3665  0.0442
 1634BOLB   PO139194  16.453  18.932  17.370  0.1087  0.2673 -0.0001
 1634BOLB   GL139195  16.261  19.350  17.413 -0.0106  0.0709  0.0931
 1634BOLB   GL239196  15.915  19.291  17.539  0.1682 -0.4160  0.0795
 1634BOLB   C1A39197  16.264  19.783  17.360  0.0690  0.1623  0.1352
 1634BOLB   C2A39198  16.506  20.170  17.444  0.0864  0.2547  0.3472
 1634BOLB   C3A39199  16.861  20.414  17.543  0.0557  0.1475  0.0462
 1634BOLB   C4A39200  17.249  20.602  17.766 -0.0331  0.1761  0.3947
 1634BOLB   C1B39201  15.910  19.695  17.689 -0.0358  0.0748 -0.1324
 1634BOLB   C2B39202  15.946  20.171  17.734 -0.0807  0.3326 -0.2875
 1634BOLB   C3B39203  15.867  20.624  17.792  0.0047  0.0988  0.0358
 1634BOLB   C4B39204  15.833  20.963  17.471  0.0741  0.1366 -0.1683
 1634BOLB   NC239205  19.072  22.217  18.421  0.2198  0.0048 -0.4491
 1634BOLB   PO239206  18.777  22.347  18.690  0.1893  0.0385 -0.0012
 1634BOLB   GL339207  18.626  21.973  18.521 -0.1184  0.2284  0.1574
 1634BOLB   GL439208  18.807  21.786  18.306  0.0707  0.3063 -0.1813
 1634BOLB   C1C39209  18.239  21.731  18.453  0.3872  0.2587 -0.0505
 1634BOLB   C2C39210  17.881  21.389  18.359 -0.2679 -0.2381  0.0578
 1634BOLB   C3C39211  17.611  21.019  18.324  0.3108 -0.0148 -0.2350
 1634BOLB   C4C39212  17.223  20.840  18.101  0.0468 -0.3430 -0.2278
 1634BOLB   C1D39213  18.854  21.384  18.124  0.1142 -0.2343 -0.1351
 1634BOLB   C2D39214  18.606  21.112  17.905 -0.0061 -0.1773  0.3299
 1634BOLB   C3D39215  18.419  20.679  17.919 -0.0293  0.2688  0.3066
 1634BOLB   C4D39216  18.113  20.456  17.816 -0.1669  0.0494  0.3028
 1635BOLB   NC139217  22.215   9.629  10.998 -0.1828  0.1471  0.0107
 1635BOLB   PO139218  21.913   9.685  10.735 -0.1679 -0.1102  0.0876
 1635BOLB   GL139219  22.101   9.491  10.490  0.1518 -0.3969 -0.2452
 1635BOLB   GL239220  22.185   9.229  10.348 -0.0937  0.0237  0.0708
 1635BOLB   C1A39221  22.539   9.592  10.353 -0.1488 -0.0054  0.0143
 1635BOLB   C2A39222  22.930   9.659  10.055 -0.0538 -0.2507  0.3447
 1635BOLB   C3A39223  23.280   9.502   9.947 -0.1988  0.1856 -0.0062
 1635BOLB   C4A39224  23.516   9.811   9.811 -0.0394 -0.2192 -0.0722
 1635BOLB   C1B39225  22.451   9.213  10.029 -0.0604 -0.0653 -0.1057
 1635BOLB   C2B39226  22.734   9.385   9.671 -0.1498 -0.0066 -0.0941
 1635BOLB   C3B39227  23.135   9.216   9.579 -0.1608 -0.4092 -0.1674
 1635BOLB   C4B39228  23.406   9.408   9.428  0.0074  0.1137 -0.1691
 1635BOLB   NC239229  24.502  10.845   7.608 -0.2111 -0.0019  0.0849
 1635BOLB   PO239230  24.663  10.506   7.911 -0.0725 -0.2769  0.0263
 1635BOLB   GL339231  24.497  10.293   8.255 -0.0727  0.1208  0.1797
 1635BOLB   GL439232  24.471   9.917   8.222 -0.3165 -0.0637 -0.1125
 1635BOLB   C1C39233  24.119  10.287   8.539 -0.1658 -0.0192  0.2201
 1635BOLB   C2C39234  23.917  10.366   8.912 -0.2460  0.1233 -0.0789
 1635BOLB   C3C39235  23.613  10.500   9.165  0.0383 -0.1392  0.0178
 1635BOLB   C4C39236  23.523  10.144   9.489  0.4379 -0.2218 -0.0947
 1635BOLB   C1D39237  24.175   9.783   8.588  0.0027 -0.0029 -0.0856
 1635BOLB   C2D39238  24.228   9.918   8.950  0.2008  0.0203 -0.0582
 1635BOLB   C3D39239  24.355   9.799   9.390  0.2113  0.2495 -0.1676
 1635BOLB   C4D39240  24.587   9.951   9.642 -0.2842  0.0278  0.0950
 1636BOLB   NC139241  22.322   4.542  14.651 -0.0159  0.0331  0.0501
 1636BOLB   PO139242  22.309   5.034  14.440  0.2775  0.2575 -0.0895
 1636BOLB   GL139243  22.731   4.972  14.328  0.0403  0.0272  0.2451
 1636BOLB   GL239244  22.620   5.062  14.023 -0.0056  0.3454 -0.1506
 1636BOLB   C1A39245  23.097   4.723  14.185  0.0878  0.1082  0.3345
 1636BOLB   C2A39246  23.296   4.296  14.083 -0.2411 -0.1823  0.1745
 1636BOLB   C3A39247  23.654   4.352  13.939  0.1216 -0.0168  0.1190
 1636BOLB   C4A39248  24.060   4.363  13.685  0.0270 -0.4002  0.0047
 1636BOLB   C1B39249  22.791   4.943  13.714  0.1602  0.1893 -0.0780
 1636BOLB   C2B39250  23.218   4.697  13.719 -0.2005  0.3125  0.0203
 1636BOLB   C3B39251  23.610   4.851  13.933 -0.1125  0.0364 -0.0826
 1636BOLB   C4B39252  24.041   4.794  13.874 -0.3137 -0.1682  0.0271
 1636BOLB   NC239253  26.458   3.198  14.075 -0.1578 -0.2156  0.1947
 1636BOLB   PO239254  26.376   3.490  13.924 -0.0353 -0.3175 -0.0582
 1636BOLB   GL339255  25.993   3.763  13.933  0.0769 -0.0766  0.0081
 1636BOLB   GL439256  25.789   3.463  13.866  0.0867  0.1143 -0.1141
 1636BOLB   C1C39257  25.860   4.144  13.771  0.1724  0.0539  0.0318
 1636BOLB   C2C39258  25.372   4.213  13.577 -0.1888 -0.2263 -0.2734
 1636BOLB   C3C39259  24.914   4.260  13.575 -0.2352  0.0075 -0.0794
 1636BOLB   C4C39260  24.567   4.431  13.629  0.3590 -0.1219  0.0330
 1636BOLB   C1D39261  25.571   3.655  14.189 -0.3327  0.1051 -0.0500
 1636BOLB   C2D39262  25.100   3.649  14.339 -0.2811 -0.1267 -0.0916
 1636BOLB   C3D39263  24.595   3.686  14.304  0.1137 -0.2129 -0.0965
 1636BOLB   C4D39264  24.300   3.959  14.463 -0.1232 -0.0323  0.1422
 1637BOLB   NC139265  17.155   5.987  27.015 -0.2412  0.0676 -0.2708
 1637BOLB   PO139266  17.547   5.886  26.788 -0.0099  0.0209  0.1597
 1637BOLB   GL139267  17.703   6.045  26.337  0.0601  0.1034  0.0577
 1637BOLB   GL239268  17.386   5.790  26.274 -0.1859 -0.2297 -0.1945
 1637BOLB   C1A39269  17.677   6.284  25.988 -0.4198  0.0523 -0.4968
 1637BOLB   C2A39270  17.465   6.668  25.678 -0.0303  0.3265 -0.0135
 1637BOLB   C3A39271  17.334   6.801  25.357 -0.0902  0.2940  0.3878
 1637BOLB   C4A39272  17.527   7.154  25.029  0.0415 -0.2217  0.0744
 1637BOLB   C1B39273  17.367   5.679  25.902  0.0899  0.0977 -0.1674
 1637BOLB   C2B39274  17.356   5.584  25.453  0.0861  0.3660  0.0585
 1637BOLB   C3B39275  17.499   5.757  25.096 -0.4037  0.0135 -0.1486
 1637BOLB   C4B39276  17.399   5.901  24.694  0.0379 -0.1904 -0.0038
 1637BOLB   NC239277  18.251   6.877  27.023 -0.1748 -0.0818 -0.0275
 1637BOLB   PO239278  17.799   6.785  26.943 -0.2306  0.1626 -0.2921
 1637BOLB   GL339279  17.802   7.159  26.591  0.1417 -0.1504  0.1055
 1637BOLB   GL439280  18.168   7.261  26.577  0.0234 -0.1065  0.3314
 1637BOLB   C1C39281  17.892   7.206  26.144 -0.2517 -0.5304 -0.1141
 1637BOLB   C2C39282  18.035   7.434  25.729 -0.1786 -0.3566 -0.3150
 1637BOLB   C3C39283  17.844   7.569  25.414 -0.3392 -0.1255 -0.1228
 1637BOLB   C4C39284  17.626   7.541  25.056  0.2614  0.2376 -0.1723
 1637BOLB   C1D39285  18.391   7.478  26.228  0.2772  0.2375  0.0384
 1637BOLB   C2D39286  18.833   7.344  26.066  0.3998  0.1570  0.3517
 1637BOLB   C3D39287  18.939   7.419  25.638 -0.1081 -0.3381  0.2223
 1637BOLB   C4D39288  19.075   7.541  25.203  0.1726  0.0766 -0.1090
 1638BOLB   NC139289  12.985   9.926  22.529 -0.0880  0.2394 -0.1927
 1638BOLB   PO139290  12.579   9.925  22.664  0.0893  0.0797 -0.1219
 1638BOLB   GL139291  12.177   9.781  22.787 -0.0580 -0.1544 -0.2428
 1638BOLB   GL239292  11.956   9.848  22.540 -0.0656  0.2250  0.2642
 1638BOLB   C1A39293  12.076   9.947  23.084  0.0633  0.1462  0.0952
 1638BOLB   C2A39294  11.839   9.850  23.399  0.1320  0.3142  0.1780
 1638BOLB   C3A39295  11.643   9.646  23.717 -0.2842  0.0637  0.4026
 1638BOLB   C4A39296  11.391   9.567  24.192  0.0509 -0.1137  0.1522
 1638BOLB   C1B39297  11.706   9.741  22.814  0.1479 -0.0084 -0.1347
 1638BOLB   C2B39298  11.442   9.478  23.271 -0.1278  0.2487  0.1690
 1638BOLB   C3B39299  11.131   9.585  23.599 -0.2431  0.0101  0.1300
 1638BOLB   C4B39300  10.969   9.808  23.932 -0.1916  0.1300  0.0763
 1638BOLB   NC239301  10.346   9.503  26.584  0.0639  0.1438  0.1593
 1638BOLB   PO239302  10.371   9.095  26.236 -0.3422 -0.1708 -0.1691
 1638BOLB   GL339303  10.444   8.987  25.760 -0.2741 -0.0460  0.0397
 1638BOLB   GL439304  10.173   9.092  25.529  0.1215 -0.0421 -0.1124
 1638BOLB   C1C39305  10.764   9.031  25.401 -0.1885  0.3857 -0.0303
 1638BOLB   C2C39306  11.013   9.251  25.099  0.1493  0.2283  0.2360
 1638BOLB   C3C39307  11.232   9.379  24.855 -0.0820  0.0049  0.2669
 1638BOLB   C4C39308  11.409   9.480  24.433  0.1756  0.2109  0.2419
 1638BOLB   C1D39309  10.195   8.924  25.084 -0.0088  0.2916  0.1536
 1638BOLB   C2D39310  10.183   8.861  24.596  0.1719 -0.2607 -0.0049
 1638BOLB   C3D39311  10.641   8.971  24.357 -0.0078  0.2601  0.1804
 1638BOLB   C4D39312  10.740   8.825  23.997  0.3929  0.4517 -0.1048
 1639BOLB   NC139313  18.838  20.314   9.866  0.3104 -0.1964  0.1887
 1639BOLB   PO139314  18.703  20.374   9.467  0.0187 -0.1031  0.1803
 1639BOLB   GL139315  18.868  19.927   9.396 -0.2843 -0.1129  0.0641
 1639BOLB   GL239316  18.784  19.841   9.678  0.0728 -0.2915  0.1500
 1639BOLB   C1A39317  18.881  19.575   9.155  0.0564  0.3287  0.0564
 1639BOLB   C2A39318  18.957  19.078   9.132  0.1188  0.0607  0.2079
 1639BOLB   C3A39319  18.869  18.697   9.254 -0.2283  0.3722 -0.4920
 1639BOLB   C4A39320  18.872  18.258   9.328 -0.0445  0.1872 -0.1344
 1639BOLB   C1B39321  18.638  19.483   9.684  0.3946  0.0199  0.2229
 1639BOLB   C2B39322  18.814  19.308  10.020 -0.2180  0.3484 -0.1378
 1639BOLB   C3B39323  19.040  19.059  10.252  0.0522 -0.0816 -0.0154
 1639BOLB   C4B39324  19.306  18.696  10.521 -0.1563  0.5398 -0.1785
 1639BOLB   NC239325  17.482  16.227  10.151 -0.1560  0.0991 -0.2942
 1639BOLB   PO239326  17.229  16.582  10.210 -0.1798 -0.1378 -0.0006
 1639BOLB   GL339327  17.520  16.786  10.052  0.0304 -0.2976  0.0291
 1639BOLB   GL439328  17.668  16.637   9.843  0.1987 -0.1951 -0.0250
 1639BOLB   C1C39329  17.662  17.144   9.939 -0.1176  0.0047 -0.2872
 1639BOLB   C2C39330  17.896  17.564   9.775  0.0313 -0.0163  0.0645
 1639BOLB   C3C39331  18.138  17.850   9.610  0.2191 -0.1397 -0.4641
 1639BOLB   C4C39332  18.653  17.841   9.525 -0.1113  0.0849  0.1347
 1639BOLB   C1D39333  17.629  16.869   9.431 -0.0476 -0.1199  0.0224
 1639BOLB   C2D39334  17.694  17.240   9.360  0.0837  0.2451  0.0789
 1639BOLB   C3D39335  17.852  17.569   9.169  0.0513 -0.3232  0.4282
 1639BOLB   C4D39336  17.906  17.963   8.947  0.0349  0.0902  0.0493
 1640BOLB   NC139337  25.238   2.594  11.217  0.2978 -0.1787  0.2244
 1640BOLB   PO139338  24.977   3.025  11.250  0.1145  0.3838  0.1883
 1640BOLB   GL139339  24.755   3.362  11.442  0.1355 -0.3896  0.2017
 1640BOLB   GL239340  24.717   3.590  11.210  0.1964 -0.0988  0.1718
 1640BOLB   C1A39341  24.382   3.430  11.553 -0.4307 -0.1912  0.1397
 1640BOLB   C2A39342  24.054   3.609  11.820  0.0141 -0.1318  0.1936
 1640BOLB   C3A39343  23.983   3.497  12.239 -0.2066 -0.1406  0.1719
 1640BOLB   C4A39344  23.757   3.760  12.455  0.1191 -0.2773 -0.0672
 1640BOLB   C1B39345  24.407   3.835  11.172 -0.3797 -0.0818  0.1196
 1640BOLB   C2B39346  23.955   3.861  11.326  0.0375  0.0046  0.1872
 1640BOLB   C3B39347  23.605   3.948  11.549  0.4462  0.0042 -0.0855
 1640BOLB   C4B39348  23.213   4.030  11.596  0.0135  0.0686 -0.1242
 1640BOLB   NC239349  23.280   6.177  13.752 -0.1507  0.3105  0.1434
 1640BOLB   PO239350  22.938   5.938  13.556  0.0807 -0.1041  0.0244
 1640BOLB   GL339351  23.145   5.589  13.397 -0.0194 -0.0455 -0.1356
 1640BOLB   GL439352  23.467   5.756  13.534  0.2318  0.1658 -0.0672
 1640BOLB   C1C39353  23.511   5.424  13.171 -0.2389 -0.1343  0.3434
 1640BOLB   C2C39354  23.716   5.002  12.932 -0.0254 -0.1377  0.1133
 1640BOLB   C3C39355  23.662   4.580  12.931 -0.0629  0.2324 -0.1275
 1640BOLB   C4C39356  23.849   4.038  12.884 -0.2918  0.0332 -0.1875
 1640BOLB   C1D39357  23.882   5.667  13.481  0.1810 -0.0907 -0.0686
 1640BOLB   C2D39358  24.011   5.439  13.144 -0.0532  0.0010 -0.0427
 1640BOLB   C3D39359  24.191   5.134  12.822 -0.2201 -0.1003  0.3892
 1640BOLB   C4D39360  24.517   4.907  12.768 -0.1586 -0.1985 -0.3729
 1641BOLB   NC139361  14.787  13.534  22.630  0.0866  0.0445 -0.2272
 1641BOLB   PO139362  14.344  13.842  22.747  0.0849 -0.0355 -0.0012
 1641BOLB   GL139363  14.173  13.870  23.124 -0.1357  0.1344 -0.0140
 1641BOLB   GL239364  14.087  13.642  23.277 -0.2082  0.1263 -0.1627
 1641BOLB   C1A39365  14.359  13.939  23.590 -0.0123 -0.2080  0.0392
 1641BOLB   C2A39366  14.267  14.011  24.020 -0.1956 -0.0724  0.2894
 1641BOLB   C3A39367  14.219  14.095  24.535  0.0309  0.2009  0.1370
 1641BOLB   C4A39368  14.145  14.301  24.880 -0.0968  0.2003 -0.2968
 1641BOLB   C1B39369  13.782  13.874  23.538 -0.2311 -0.2550 -0.0854
 1641BOLB   C2B39370  13.397  14.211  23.703 -0.3254 -0.0393 -0.1157
 1641BOLB   C3B39371  13.297  14.672  23.780  0.0782 -0.1072  0.0925
 1641BOLB   C4B39372  13.238  14.982  24.049 -0.1945 -0.1361 -0.2520
 1641BOLB   NC239373  15.296  15.211  27.063 -0.2681 -0.1360 -0.2436
 1641BOLB   PO239374  15.101  15.419  26.704 -0.2827  0.4816  0.4090
 1641BOLB   GL339375  14.926  15.430  26.227 -0.0300 -0.1886 -0.1083
 1641BOLB   GL439376  14.994  15.678  26.095 -0.0300 -0.0200 -0.0745
 1641BOLB   C1C39377  15.088  15.162  25.851  0.0515 -0.1333 -0.0251
 1641BOLB   C2C39378  14.834  14.967  25.594 -0.0637 -0.1886  0.2185
 1641BOLB   C3C39379  14.595  15.076  25.214  0.2748  0.1849 -0.0072
 1641BOLB   C4C39380  14.301  14.746  24.890 -0.3031 -0.2056 -0.2185
 1641BOLB   C1D39381  15.202  15.704  25.720 -0.0171 -0.1778 -0.2712
 1641BOLB   C2D39382  15.418  15.607  25.434  0.0093 -0.1544  0.2237
 1641BOLB   C3D39383  15.640  15.919  25.204 -0.0513 -0.1073  0.0148
 1641BOLB   C4D39384  15.972  16.031  24.892 -0.0205 -0.0748 -0.5268
 1642BOLB   NC139385  22.563  11.210  20.210 -0.0181  0.4267 -0.1560
 1642BOLB   PO139386  22.871  11.436  20.220 -0.1416 -0.1584 -0.1388
 1642BOLB   GL139387  23.191  11.362  20.579  0.1273  0.1738 -0.1307
 1642BOLB   GL239388  23.356  11.720  20.582  0.1433  0.1762  0.0389
 1642BOLB   C1A39389  23.626  11.350  20.751 -0.0466 -0.3335  0.0004
 1642BOLB   C2A39390  24.058  11.377  20.846  0.0191  0.1464  0.0173
 1642BOLB   C3A39391  24.442  11.223  20.982  0.0873 -0.1363 -0.0540
 1642BOLB   C4A39392  24.800  11.243  21.256 -0.0916 -0.2348  0.0280
 1642BOLB   C1B39393  23.549  11.817  20.969 -0.0613 -0.0136  0.1605
 1642BOLB   C2B39394  23.762  12.175  21.087  0.1565 -0.2840 -0.3584
 1642BOLB   C3B39395  23.962  12.459  21.319  0.1555  0.3763 -0.0276
 1642BOLB   C4B39396  24.066  12.671  21.613 -0.1550  0.0272 -0.1781
 1642BOLB   NC239397  27.096  10.933  21.840  0.1441 -0.1205 -0.0878
 1642BOLB   PO239398  27.062  11.046  22.263  0.1491  0.0950  0.2843
 1642BOLB   GL339399  26.622  11.171  22.156 -0.2559  0.4101 -0.1377
 1642BOLB   GL439400  26.562  11.055  21.861  0.0530 -0.0255 -0.0529
 1642BOLB   C1C39401  26.193  11.300  22.321 -0.1331 -0.1408  0.4863
 1642BOLB   C2C39402  25.755  11.450  22.068  0.3350 -0.3244 -0.0083
 1642BOLB   C3C39403  25.342  11.419  21.861 -0.0820 -0.0903 -0.1050
 1642BOLB   C4C39404  24.973  11.487  21.609  0.0728  0.2887 -0.0743
 1642BOLB   C1D39405  26.064  11.084  21.878 -0.2110 -0.0652  0.0600
 1642BOLB   C2D39406  25.773  10.930  21.797  0.3195 -0.0462 -0.1097
 1642BOLB   C3D39407  25.322  10.763  21.799 -0.0449  0.1661 -0.1508
 1642BOLB   C4D39408  25.021  10.940  21.650 -0.1660 -0.0055 -0.2233
 1643BOLB   NC139409  18.138   7.458  22.520  0.1510 -0.0336  0.1243
 1643BOLB   PO139410  18.392   7.716  22.657 -0.1669 -0.3155 -0.0274
 1643BOLB   GL139411  18.544   7.552  23.070  0.1315 -0.1396 -0.4458
 1643BOLB   GL239412  18.653   7.846  23.221 -0.2075  0.2066 -0.0621
 1643BOLB   C1A39413  18.372   7.406  23.434 -0.0039  0.4435  0.0666
 1643BOLB   C2A39414  18.331   7.426  23.899  0.3522 -0.0112 -0.0405
 1643BOLB   C3A39415  18.558   7.470  24.268  0.2419 -0.0503 -0.1748
 1643BOLB   C4A39416  18.369   7.489  24.614  0.2912  0.0082  0.0132
 1643BOLB   C1B39417  18.632   7.755  23.692  0.2814 -0.0799  0.2343
 1643BOLB   C2B39418  18.857   7.844  24.114  0.0430 -0.0492  0.1378
 1643BOLB   C3B39419  19.103   7.863  24.375 -0.0305 -0.1202 -0.2271
 1643BOLB   C4B39420  19.388   7.811  24.793  0.4297 -0.0807 -0.1860
 1643BOLB   NC239421  18.814   6.280  26.864 -0.1231  0.1789  0.2154
 1643BOLB   PO239422  18.407   6.254  26.829 -0.0336 -0.3005 -0.1235
 1643BOLB   GL339423  18.304   6.373  26.349 -0.0477  0.0002  0.3703
 1643BOLB   GL439424  18.227   6.099  26.156 -0.0153  0.0169  0.1975
 1643BOLB   C1C39425  18.033   6.682  26.084  0.2734  0.0892 -0.0411
 1643BOLB   C2C39426  17.987   6.907  25.759  0.1731  0.4691  0.1119
 1643BOLB   C3C39427  18.027   7.133  25.342 -0.0855  0.1925 -0.3262
 1643BOLB   C4C39428  18.188   7.320  24.951  0.1697  0.1949 -0.0172
 1643BOLB   C1D39429  18.115   6.195  25.708  0.2219 -0.3261  0.1888
 1643BOLB   C2D39430  18.023   6.426  25.519 -0.0776  0.2276 -0.1436
 1643BOLB   C3D39431  17.777   6.691  25.207 -0.4083  0.2525  0.2357
 1643BOLB   C4D39432  17.959   6.922  24.860 -0.1504  0.0535  0.2831
 1644BOLB   NC139433  24.169  10.907  14.832 -0.1429  0.1833  0.0990
 1644BOLB   PO139434  24.232  10.904  15.245  0.0740 -0.2647 -0.1573
 1644BOLB   GL139435  24.707  11.030  15.299 -0.1666  0.0014 -0.0334
 1644BOLB   GL239436  24.855  10.997  15.607 -0.0413 -0.0789 -0.0340
 1644BOLB   C1A39437  25.124  11.246  15.183 -0.1171 -0.1431 -0.2057
 1644BOLB   C2A39438  25.500  11.477  15.460  0.0731  0.1768 -0.1525
 1644BOLB   C3A39439  25.856  11.441  15.650 -0.0408  0.2721  0.1038
 1644BOLB   C4A39440  26.234  11.307  15.461  0.0180  0.1810  0.1554
 1644BOLB   C1B39441  25.206  10.940  15.599 -0.0422  0.0879  0.1762
 1644BOLB   C2B39442  25.596  11.002  15.392 -0.2697  0.0652 -0.1454
 1644BOLB   C3B39443  25.960  10.743  15.396  0.1304 -0.1071 -0.0841
 1644BOLB   C4B39444  26.215  10.416  15.283 -0.2083  0.1352 -0.2039
 1644BOLB   NC239445  28.151  10.975  14.087 -0.0021 -0.0039  0.1826
 1644BOLB   PO239446  28.177  10.970  14.638 -0.1049 -0.1531  0.3132
 1644BOLB   GL339447  27.807  10.795  14.747  0.0004  0.0279  0.0579
 1644BOLB   GL439448  27.910  10.885  15.064 -0.1062 -0.3283  0.0232
 1644BOLB   C1C39449  27.430  10.879  14.623 -0.1201 -0.0173  0.0487
 1644BOLB   C2C39450  27.050  11.062  14.589 -0.0364 -0.1880 -0.0342
 1644BOLB   C3C39451  26.792  11.035  15.005 -0.0431  0.1483 -0.0304
 1644BOLB   C4C39452  26.589  11.294  15.207  0.0393  0.0301 -0.0429
 1644BOLB   C1D39453  27.485  10.666  15.149 -0.1296  0.0289 -0.1061
 1644BOLB   C2D39454  27.105  10.722  15.129  0.0746 -0.0116 -0.3340
 1644BOLB   C3D39455  26.708  10.600  15.243  0.2449  0.1044  0.0498
 1644BOLB   C4D39456  26.666  10.259  15.469  0.0843 -0.0164  0.0892
 1645BOLB   NC139457   7.405   1.978   5.530 -0.2483 -0.2479  0.1010
 1645BOLB   PO139458   7.479   2.423   5.404  0.1562  0.3627 -0.4024
 1645BOLB   GL139459   7.843   2.536   5.574  0.1092  0.0319  0.1039
 1645BOLB   GL239460   7.978   2.197   5.580  0.0786  0.0081 -0.0680
 1645BOLB   C1A39461   8.021   2.587   6.035 -0.1650 -0.1091 -0.0871
 1645BOLB   C2A39462   8.347   2.453   6.270 -0.0980 -0.0837  0.1030
 1645BOLB   C3A39463   8.778   2.652   6.257  0.2005 -0.5183 -0.3122
 1645BOLB   C4A39464   8.982   2.548   5.915 -0.1696  0.0851  0.0226
 1645BOLB   C1B39465   8.371   2.242   5.838  0.1205  0.1250  0.0193
 1645BOLB   C2B39466   8.757   2.073   6.102 -0.0041 -0.2294  0.1355
 1645BOLB   C3B39467   9.160   2.023   6.095  0.0271  0.1970 -0.1295
 1645BOLB   C4B39468   9.469   2.334   6.036 -0.0801  0.1851  0.1514
 1645BOLB   NC239469   8.102   0.309   5.436  0.2194  0.3266 -0.0188
 1645BOLB   PO239470   8.263   0.474   5.764 -0.0127 -0.1455 -0.0518
 1645BOLB   GL339471   8.444   0.715   5.419  0.0920 -0.0064  0.1540
 1645BOLB   GL439472   8.867   0.741   5.421 -0.2583 -0.0433  0.1025
 1645BOLB   C1C39473   8.625   1.120   5.593  0.0993  0.1157  0.2699
 1645BOLB   C2C39474   8.929   1.329   5.669 -0.2170 -0.0084 -0.1038
 1645BOLB   C3C39475   8.932   1.670   5.686  0.2207 -0.1011 -0.0345
 1645BOLB   C4C39476   9.001   2.137   5.602 -0.1844 -0.0990  0.0029
 1645BOLB   C1D39477   8.916   0.746   5.847 -0.0287 -0.4033 -0.0970
 1645BOLB   C2D39478   8.791   1.092   6.201  0.2079 -0.1074 -0.3669
 1645BOLB   C3D39479   8.422   1.290   6.396  0.2092 -0.0270 -0.2784
 1645BOLB   C4D39480   8.012   1.373   6.242 -0.1127  0.0088  0.0410
 1646BOLB   NC139481  21.887  10.804  21.665 -0.1398 -0.0193  0.0803
 1646BOLB   PO139482  21.799  11.231  21.713  0.0379  0.1236  0.0400
 1646BOLB   GL139483  21.757  11.200  22.135  0.0953  0.0203  0.2505
 1646BOLB   GL239484  21.567  11.344  22.368  0.2829 -0.0851 -0.0160
 1646BOLB   C1A39485  22.114  11.190  22.500 -0.0435 -0.3385 -0.0708
 1646BOLB   C2A39486  22.536  11.096  22.472 -0.0438 -0.1346 -0.0489
 1646BOLB   C3A39487  22.853  11.103  22.501  0.0157 -0.2054 -0.0557
 1646BOLB   C4A39488  23.243  11.412  22.639 -0.3094  0.0083 -0.2430
 1646BOLB   C1B39489  21.870  11.588  22.575  0.1887 -0.0810  0.4104
 1646BOLB   C2B39490  22.060  11.428  22.924  0.0366 -0.0305  0.0125
 1646BOLB   C3B39491  22.295  11.334  23.364 -0.1605 -0.1632  0.0842
 1646BOLB   C4B39492  22.206  11.019  23.681  0.2155 -0.1038 -0.2361
 1646BOLB   NC239493  25.384  11.044  23.696 -0.1622  0.1138 -0.0612
 1646BOLB   PO239494  25.239  11.397  24.071  0.0905  0.3251 -0.1434
 1646BOLB   GL339495  25.042  11.460  23.607  0.0939 -0.2456  0.1445
 1646BOLB   GL439496  25.054  11.323  23.314  0.1854 -0.1984 -0.1688
 1646BOLB   C1C39497  24.619  11.386  23.547  0.1968 -0.0420 -0.0833
 1646BOLB   C2C39498  24.199  11.348  23.269  0.2479  0.1396 -0.1595
 1646BOLB   C3C39499  24.040  11.411  22.887  0.0909 -0.2833 -0.0715
 1646BOLB   C4C39500  23.637  11.512  22.728 -0.0940 -0.0547 -0.1721
 1646BOLB   C1D39501  24.750  10.986  23.159  0.1539 -0.1096  0.1361
 1646BOLB   C2D39502  24.640  10.672  22.879  0.3162  0.3058  0.1537
 1646BOLB   C3D39503  24.944  10.423  22.610  0.0913 -0.0189  0.0065
 1646BOLB   C4D39504  25.352  10.649  22.602  0.1161 -0.0700 -0.2075
 1647BOLB   NC139505  28.109  10.308  20.392  0.0523  0.1843 -0.3700
 1647BOLB   PO139506  27.754  10.137  20.521  0.0203 -0.0156  0.2285
 1647BOLB   GL139507  27.544  10.349  20.309  0.0006  0.1809  0.0059
 1647BOLB   GL239508  27.235  10.332  20.274 -0.0118  0.0727 -0.1967
 1647BOLB   C1A39509  27.338  10.711  19.967 -0.5181  0.1855 -0.0017
 1647BOLB   C2A39510  27.069  10.735  19.569  0.0823  0.1861  0.1916
 1647BOLB   C3A39511  27.098  10.724  19.200  0.0474 -0.1923  0.1423
 1647BOLB   C4A39512  26.893  10.610  18.855 -0.1386  0.1590  0.0405
 1647BOLB   C1B39513  27.014  10.373  19.921 -0.0425 -0.0132 -0.1986
 1647BOLB   C2B39514  26.706  10.160  19.761  0.0302  0.0504  0.1133
 1647BOLB   C3B39515  26.367  10.039  19.351  0.3992 -0.1121 -0.0549
 1647BOLB   C4B39516  26.339  10.191  18.967  0.0257  0.1965 -0.1189
 1647BOLB   NC239517  28.219  10.884  17.324 -0.0500  0.1350  0.0865
 1647BOLB   PO239518  28.259  11.233  17.482 -0.0907  0.0792 -0.0473
 1647BOLB   GL339519  27.769  11.079  17.307 -0.1000 -0.0431 -0.1257
 1647BOLB   GL439520  27.719  10.727  17.236 -0.1807  0.0393  0.1275
 1647BOLB   C1C39521  27.309  11.072  17.228 -0.2239  0.2730  0.0776
 1647BOLB   C2C39522  26.918  11.011  17.443  0.3669  0.2046  0.2643
 1647BOLB   C3C39523  26.853  10.894  17.903 -0.0091  0.1903  0.0378
 1647BOLB   C4C39524  26.788  10.788  18.342  0.0378 -0.2051 -0.0390
 1647BOLB   C1D39525  27.323  10.586  16.992  0.0913  0.2457  0.0582
 1647BOLB   C2D39526  26.908  10.568  16.935 -0.0862  0.1465  0.0472
 1647BOLB   C3D39527  26.466  10.423  16.979 -0.0867  0.2072  0.0840
 1647BOLB   C4D39528  26.118  10.626  16.880  0.0662 -0.1969 -0.0712
 1648BOLB   NC139529  18.195  14.141  22.976  0.1122  0.0220  0.0018
 1648BOLB   PO139530  17.938  14.284  23.321 -0.0494  0.2011  0.0897
 1648BOLB   GL139531  18.034  14.651  23.416 -0.1346  0.2942  0.2239
 1648BOLB   GL239532  17.923  14.935  23.426  0.2587  0.2656  0.3144
 1648BOLB   C1A39533  18.240  14.805  23.788  0.3092 -0.2435 -0.1021
 1648BOLB   C2A39534  18.162  14.957  24.182 -0.1817  0.0937  0.1530
 1648BOLB   C3A39535  18.251  15.207  24.504 -0.0147  0.2710 -0.3798
 1648BOLB   C4A39536  18.230  15.649  24.745 -0.1826 -0.1689 -0.0671
 1648BOLB   C1B39537  18.095  15.242  23.705 -0.2038  0.0928 -0.0053
 1648BOLB   C2B39538  18.371  15.379  24.043 -0.2180  0.0574  0.0916
 1648BOLB   C3B39539  18.854  15.313  24.244  0.0601  0.2540  0.1212
 1648BOLB   C4B39540  19.261  15.321  24.174  0.1374 -0.0756 -0.4634
 1648BOLB   NC239541  17.897  16.265  27.070  0.2152 -0.1272 -0.0326
 1648BOLB   PO239542  17.802  15.829  26.827 -0.1872  0.1274  0.3500
 1648BOLB   GL339543  17.610  15.865  26.351 -0.3497 -0.0477  0.2298
 1648BOLB   GL439544  17.344  15.789  26.312 -0.2464  0.0288  0.1243
 1648BOLB   C1C39545  17.770  15.916  25.995  0.1362  0.0878 -0.3177
 1648BOLB   C2C39546  17.879  16.163  25.614 -0.2203  0.1454 -0.0328
 1648BOLB   C3C39547  17.943  16.269  25.177 -0.0196 -0.0018  0.2032
 1648BOLB   C4C39548  18.188  15.984  24.980  0.1456  0.1242 -0.2019
 1648BOLB   C1D39549  17.287  15.612  25.942 -0.0694 -0.1070 -0.2186
 1648BOLB   C2D39550  17.509  15.711  25.606  0.3098 -0.1756  0.3158
 1648BOLB   C3D39551  17.595  15.624  25.157  0.2398 -0.2302 -0.1088
 1648BOLB   C4D39552  17.763  15.903  24.790 -0.0886  0.0736  0.2951
 1649BOLB   NC139553  10.260  15.793  18.094  0.2212  0.0359 -0.1335
 1649BOLB   PO139554   9.905  15.939  17.756  0.2231 -0.4328 -0.2738
 1649BOLB   GL139555   9.774  16.250  18.034  0.1673 -0.3865  0.1375
 1649BOLB   GL239556   9.829  15.980  18.257  0.2830 -0.1345  0.0094
 1649BOLB   C1A39557   9.348  16.409  18.302 -0.1305  0.1298  0.3080
 1649BOLB   C2A39558   8.932  16.617  18.343  0.0357  0.3527  0.0588
 1649BOLB   C3A39559   8.494  16.599  18.452 -0.0618  0.2931  0.0460
 1649BOLB   C4A39560   8.054  16.607  18.587  0.1841  0.4231  0.2455
 1649BOLB   C1B39561   9.800  16.227  18.587 -0.1011 -0.1616  0.0384
 1649BOLB   C2B39562   9.687  16.660  18.767 -0.0525  0.0323 -0.0939
 1649BOLB   C3B39563   9.315  16.799  18.917 -0.0732  0.1511  0.0697
 1649BOLB   C4B39564   8.929  16.970  19.134 -0.0526  0.0058  0.0561
 1649BOLB   NC239565   7.180  18.790  18.068  0.2960  0.0464  0.4430
 1649BOLB   PO239566   6.989  18.438  17.926  0.3968  0.1004 -0.0272
 1649BOLB   GL339567   7.263  18.136  17.881 -0.0824  0.2022 -0.1257
 1649BOLB   GL439568   7.642  18.158  17.755  0.1572  0.0633  0.4360
 1649BOLB   C1C39569   7.518  17.717  18.001  0.0143 -0.2474  0.2429
 1649BOLB   C2C39570   7.561  17.256  18.088  0.0102  0.0406  0.0873
 1649BOLB   C3C39571   7.637  17.041  18.384  0.0152 -0.1407 -0.0169
 1649BOLB   C4C39572   7.819  16.724  18.367 -0.0150  0.0154 -0.0197
 1649BOLB   C1D39573   7.752  17.844  17.574 -0.0594 -0.2145 -0.1796
 1649BOLB   C2D39574   8.050  17.679  17.281  0.2589  0.2394  0.2729
 1649BOLB   C3D39575   8.309  17.474  17.180  0.0931 -0.0864 -0.1290
 1649BOLB   C4D39576   8.492  17.154  17.157  0.2197  0.2923 -0.2929
 1650BOLB   NC139577  17.831   3.173  19.644 -0.0884  0.0125  0.1786
 1650BOLB   PO139578  17.225   3.203  19.490 -0.0520 -0.1599  0.0304
 1650BOLB   GL139579  17.416   2.838  19.751 -0.4422 -0.0183  0.0303
 1650BOLB   GL239580  17.585   2.610  19.696  0.0077  0.0660 -0.1874
 1650BOLB   C1A39581  17.502   2.590  20.192  0.0245  0.0234  0.1220
 1650BOLB   C2A39582  17.758   2.231  20.375  0.0207  0.1654  0.3705
 1650BOLB   C3A39583  17.943   1.954  20.609 -0.0291 -0.1551 -0.1429
 1650BOLB   C4A39584  18.033   1.748  20.859  0.2534  0.2413 -0.0648
 1650BOLB   C1B39585  17.605   2.159  19.806 -0.0550  0.1831 -0.0637
 1650BOLB   C2B39586  17.637   1.801  19.975 -0.0542  0.0915 -0.5163
 1650BOLB   C3B39587  17.743   1.590  20.303 -0.1111  0.1242 -0.1148
 1650BOLB   C4B39588  17.810   1.249  20.622  0.2552  0.1058  0.3873
 1650BOLB   NC239589  17.910  -0.343  22.097 -0.2698  0.0611  0.0824
 1650BOLB   PO239590  18.344  -0.312  22.244  0.3580 -0.1906  0.0138
 1650BOLB   GL339591  18.358   0.016  21.939  0.0834  0.0725  0.0886
 1650BOLB   GL439592  18.163  -0.061  21.687  0.0270  0.3276  0.1050
 1650BOLB   C1C39593  18.318   0.408  21.623 -0.0327  0.1701  0.3130
 1650BOLB   C2C39594  18.370   0.926  21.577  0.0324 -0.3275  0.0435
 1650BOLB   C3C39595  18.520   1.186  21.167  0.1795 -0.3545 -0.3578
 1650BOLB   C4C39596  18.286   1.467  20.998  0.0140  0.2615  0.2561
 1650BOLB   C1D39597  17.875   0.046  21.387 -0.2232 -0.0336  0.2408
 1650BOLB   C2D39598  17.392   0.230  21.460 -0.0322 -0.0240 -0.2670
 1650BOLB   C3D39599  17.168   0.351  21.095 -0.2841 -0.2557 -0.0775
 1650BOLB   C4D39600  16.807   0.403  20.804  0.0372 -0.4434  0.1552
 1651BOLB   NC139601  11.723  21.961  16.490 -0.0191  0.1485  0.1750
 1651BOLB   PO139602  12.057  21.870  16.241 -0.1035 -0.0200  0.1015
 1651BOLB   GL139603  12.199  21.502  16.236 -0.2047  0.0673 -0.1607
 1651BOLB   GL239604  12.067  21.364  16.459  0.0074  0.0494 -0.1677
 1651BOLB   C1A39605  12.371  21.014  16.271 -0.1591 -0.2353 -0.0715
 1651BOLB   C2A39606  12.663  20.728  16.302 -0.0853 -0.1947 -0.2285
 1651BOLB   C3A39607  12.609  20.248  15.987 -0.1889  0.0796 -0.0992
 1651BOLB   C4A39608  12.563  19.885  15.842  0.0185 -0.1748 -0.0969
 1651BOLB   C1B39609  11.884  21.142  16.120  0.1058  0.1215 -0.0814
 1651BOLB   C2B39610  11.768  20.937  15.658  0.1146 -0.1140  0.2617
 1651BOLB   C3B39611  11.695  20.644  15.297  0.1171 -0.0403  0.0322
 1651BOLB   C4B39612  11.834  20.867  14.969 -0.2223  0.1777 -0.0044
 1651BOLB   NC239613  13.965  18.558  15.114 -0.1743  0.0486  0.1525
 1651BOLB   PO239614  13.574  18.502  15.219 -0.1424  0.0963  0.0901
 1651BOLB   GL339615  13.702  18.979  15.326  0.0160  0.0209  0.3429
 1651BOLB   GL439616  13.421  19.153  15.619  0.0500  0.0107 -0.2264
 1651BOLB   C1C39617  13.651  19.441  15.259 -0.1872 -0.1509 -0.1756
 1651BOLB   C2C39618  13.403  19.658  15.166 -0.2040 -0.0070  0.0207
 1651BOLB   C3C39619  13.269  19.696  15.601 -0.1193 -0.1453 -0.0704
 1651BOLB   C4C39620  12.919  19.642  15.829  0.2326 -0.0441  0.0473
 1651BOLB   C1D39621  13.127  19.188  15.827 -0.2559 -0.0062  0.4645
 1651BOLB   C2D39622  12.754  19.125  15.999  0.1057 -0.1158  0.1634
 1651BOLB   C3D39623  12.529  19.411  16.078 -0.0920 -0.0330 -0.1464
 1651BOLB   C4D39624  12.675  19.674  16.447 -0.0083  0.0300  0.1008
 1652BOLB   NC139625  26.754   9.009  22.302  0.2086 -0.0514 -0.0583
 1652BOLB   PO139626  26.463   9.021  22.638  0.1507  0.1625 -0.3038
 1652BOLB   GL139627  26.285   9.158  22.256 -0.2157  0.0060 -0.1180
 1652BOLB   GL239628  26.379   8.831  22.107  0.2147 -0.2306 -0.0195
 1652BOLB   C1A39629  26.002   9.385  22.002 -0.2523 -0.0085 -0.2954
 1652BOLB   C2A39630  25.718   9.283  21.835 -0.1287 -0.3767  0.1400
 1652BOLB   C3A39631  25.331   9.080  21.592 -0.1267 -0.2984 -0.0434
 1652BOLB   C4A39632  24.930   8.794  21.646  0.4116  0.0072  0.2580
 1652BOLB   C1B39633  26.325   8.438  22.063 -0.0911 -0.1131  0.1968
 1652BOLB   C2B39634  26.173   8.013  21.908  0.0841 -0.1143 -0.3343
 1652BOLB   C3B39635  25.832   7.931  21.856  0.0136 -0.2637 -0.0029
 1652BOLB   C4B39636  25.404   7.991  21.908 -0.0384  0.3781  0.2024
 1652BOLB   NC239637  26.160   7.104  22.986  0.0292 -0.0773  0.0126
 1652BOLB   PO239638  26.224   7.418  22.638 -0.2377 -0.0272  0.2139
 1652BOLB   GL339639  25.866   7.685  22.560 -0.1023  0.2209  0.0455
 1652BOLB   GL439640  25.578   7.701  22.943 -0.2069  0.4603 -0.0737
 1652BOLB   C1C39641  25.389   7.915  22.429  0.0395  0.3532 -0.1250
 1652BOLB   C2C39642  24.996   7.992  22.300 -0.2550  0.1287 -0.1429
 1652BOLB   C3C39643  24.761   8.237  22.135 -0.1006  0.1448 -0.0712
 1652BOLB   C4C39644  24.628   8.533  21.740 -0.1269  0.2784 -0.2422
 1652BOLB   C1D39645  25.186   7.569  23.071 -0.2730 -0.0367 -0.1570
 1652BOLB   C2D39646  24.733   7.613  23.125 -0.0878 -0.2936  0.0373
 1652BOLB   C3D39647  24.322   7.840  22.956 -0.1321  0.2226 -0.1152
 1652BOLB   C4D39648  24.279   8.286  22.721  0.0946 -0.0585 -0.3787
 1653BOLB   NC139649  18.945  17.920  14.943 -0.0902 -0.3505 -0.2817
 1653BOLB   PO139650  19.121  18.170  15.320  0.2144  0.0619  0.0018
 1653BOLB   GL139651  19.330  18.569  15.457 -0.0791  0.2640  0.0777
 1653BOLB   GL239652  19.587  18.547  15.147  0.2473 -0.2863  0.2509
 1653BOLB   C1A39653  19.494  19.023  15.535 -0.1908 -0.1154  0.2717
 1653BOLB   C2A39654  19.574  19.374  15.709 -0.0473 -0.2418 -0.1040
 1653BOLB   C3A39655  19.564  19.782  15.723 -0.2814  0.1242  0.1494
 1653BOLB   C4A39656  19.107  20.028  15.605 -0.2920 -0.1234 -0.0230
 1653BOLB   C1B39657  19.810  19.008  15.007 -0.2454  0.1137 -0.0559
 1653BOLB   C2B39658  19.776  19.386  15.047 -0.1712 -0.0760  0.0554
 1653BOLB   C3B39659  19.838  19.743  15.347 -0.4388 -0.1633  0.0797
 1653BOLB   C4B39660  19.828  20.136  15.433 -0.0756  0.1363  0.1529
 1653BOLB   NC239661  19.049  22.345  16.024  0.1960  0.3951 -0.2289
 1653BOLB   PO239662  19.552  22.354  16.207  0.2820 -0.0993  0.1234
 1653BOLB   GL339663  19.441  21.982  16.181 -0.5144  0.0001  0.0327
 1653BOLB   GL439664  19.612  21.857  16.000 -0.3105 -0.1828  0.0101
 1653BOLB   C1C39665  19.138  21.664  16.139  0.3162 -0.0187 -0.2929
 1653BOLB   C2C39666  19.029  21.242  15.922  0.0713 -0.2079  0.0299
 1653BOLB   C3C39667  18.897  20.915  15.768  0.3659 -0.0396  0.0464
 1653BOLB   C4C39668  18.983  20.447  15.746  0.1421 -0.3175  0.0565
 1653BOLB   C1D39669  19.506  21.405  15.891  0.4897 -0.3250  0.2487
 1653BOLB   C2D39670  19.444  21.109  15.564  0.1973 -0.2801  0.0226
 1653BOLB   C3D39671  19.254  20.697  15.388 -0.3061  0.0834  0.0927
 1653BOLB   C4D39672  19.087  20.310  15.227 -0.0989 -0.0113  0.3401
 1654BOLB   NC139673  24.448  12.023  16.190  0.3549  0.4656  0.0967
 1654BOLB   PO139674  24.171  12.328  16.422  0.1809 -0.1627  0.0068
 1654BOLB   GL139675  24.651  12.496  16.502  0.2793  0.0673  0.3285
 1654BOLB   GL239676  24.814  12.383  16.179  0.1569  0.1022 -0.2931
 1654BOLB   C1A39677  24.863  12.519  16.924  0.0049 -0.2490  0.1953
 1654BOLB   C2A39678  25.183  12.584  17.243 -0.3194  0.4929 -0.0545
 1654BOLB   C3A39679  25.467  12.985  17.355 -0.3301  0.0055 -0.3233
 1654BOLB   C4A39680  25.698  13.170  17.668  0.1734 -0.2710  0.3129
 1654BOLB   C1B39681  25.070  12.588  15.882  0.0027 -0.0655  0.1722
 1654BOLB   C2B39682  25.100  12.597  15.455 -0.1979  0.2179 -0.3306
 1654BOLB   C3B39683  25.409  12.896  15.290  0.4321 -0.0229 -0.0446
 1654BOLB   C4B39684  25.447  13.362  15.419  0.0166  0.0747  0.3003
 1654BOLB   NC239685  27.398  13.372  19.677  0.0719 -0.0204  0.0167
 1654BOLB   PO239686  27.581  13.439  19.272  0.1040 -0.0524  0.3637
 1654BOLB   GL339687  27.206  13.504  18.911 -0.3425  0.2607 -0.0759
 1654BOLB   GL439688  27.161  13.789  18.862 -0.1924  0.0119 -0.1337
 1654BOLB   C1C39689  26.956  13.240  18.746  0.2048 -0.3047  0.2613
 1654BOLB   C2C39690  26.569  13.094  18.606  0.2054  0.0614  0.1971
 1654BOLB   C3C39691  26.255  13.066  18.250  0.0673 -0.0421 -0.1150
 1654BOLB   C4C39692  25.937  13.045  17.943 -0.0317 -0.1345  0.1132
 1654BOLB   C1D39693  26.706  13.704  18.846  0.0477 -0.2238  0.1459
 1654BOLB   C2D39694  26.265  13.568  18.839 -0.0498  0.1785  0.0687
 1654BOLB   C3D39695  25.866  13.386  18.601  0.0553  0.1388 -0.1897
 1654BOLB   C4D39696  25.702  13.094  18.524  0.1839  0.1553  0.0517
 1655BOLB   NC139697  16.190   3.391  20.137 -0.2310  0.2979 -0.1247
 1655BOLB   PO139698  15.929   3.144  19.838  0.0055  0.0079 -0.1406
 1655BOLB   GL139699  15.708   2.965  20.212  0.1041  0.1117 -0.0920
 1655BOLB   GL239700  15.712   3.269  20.382 -0.0435 -0.1071  0.1115
 1655BOLB   C1A39701  15.837   2.654  20.514 -0.2919  0.0957 -0.1791
 1655BOLB   C2A39702  15.740   2.358  20.871 -0.0128  0.2106 -0.4143
 1655BOLB   C3A39703  15.476   2.033  20.991 -0.1561  0.2515  0.0737
 1655BOLB   C4A39704  15.424   1.625  21.045 -0.2467  0.1636  0.1779
 1655BOLB   C1B39705  15.754   3.149  20.809  0.0687  0.2304  0.2159
 1655BOLB   C2B39706  15.765   2.808  21.096  0.0585  0.0395  0.0600
 1655BOLB   C3B39707  15.524   2.589  21.438 -0.1319  0.1876 -0.4275
 1655BOLB   C4B39708  15.230   2.235  21.351 -0.2474  0.2978  0.1191
 1655BOLB   NC239709  16.144  -0.532  22.315 -0.1656  0.2174  0.1065
 1655BOLB   PO239710  16.201  -0.519  21.912  0.2284  0.4902  0.3404
 1655BOLB   GL339711  16.099  -0.110  21.705  0.1433  0.0494 -0.2559
 1655BOLB   GL439712  16.248  -0.189  21.533  0.0606  0.0037 -0.2389
 1655BOLB   C1C39713  15.889   0.177  21.407 -0.0399  0.1179  0.1031
 1655BOLB   C2C39714  15.899   0.485  21.112 -0.0185  0.0120 -0.0384
 1655BOLB   C3C39715  15.757   0.874  21.149 -0.3234 -0.1736 -0.0431
 1655BOLB   C4C39716  15.487   1.226  21.196  0.0501  0.2225  0.1205
 1655BOLB   C1D39717  16.389   0.026  21.255  0.0364  0.2434  0.0566
 1655BOLB   C2D39718  16.356   0.426  21.035  0.1506  0.0010  0.1359
 1655BOLB   C3D39719  16.301   0.687  20.799  0.1101  0.1319  0.1906
 1655BOLB   C4D39720  16.430   0.975  20.552  0.0089 -0.1083  0.0404
 1656BOLB   NC139721  11.891   7.339  21.821 -0.0357 -0.1723  0.2844
 1656BOLB   PO139722  12.117   7.018  21.739  0.3286  0.0666 -0.3726
 1656BOLB   GL139723  11.714   6.882  21.967 -0.0732  0.1460  0.1783
 1656BOLB   GL239724  11.736   6.563  22.089  0.0795 -0.4010 -0.1571
 1656BOLB   C1A39725  11.418   6.898  22.423 -0.0566  0.1097  0.2771
 1656BOLB   C2A39726  11.314   6.620  22.849 -0.0685  0.3082 -0.0865
 1656BOLB   C3A39727  11.076   6.473  23.029  0.0543  0.0666  0.1148
 1656BOLB   C4A39728  10.768   6.415  23.211  0.0659  0.1904 -0.0029
 1656BOLB   C1B39729  11.678   6.473  22.508  0.2390 -0.0607  0.0825
 1656BOLB   C2B39730  11.895   6.296  22.848  0.1498 -0.0988  0.0923
 1656BOLB   C3B39731  11.726   5.957  23.116 -0.0364  0.0178  0.1689
 1656BOLB   C4B39732  11.541   5.586  23.074  0.0961 -0.0380 -0.2316
 1656BOLB   NC239733   9.634   5.795  25.040 -0.2706 -0.1846  0.3733
 1656BOLB   PO239734   9.642   6.155  25.347 -0.1493  0.0038 -0.2158
 1656BOLB   GL339735   9.779   6.557  25.194 -0.2359  0.0708 -0.2223
 1656BOLB   GL439736  10.058   6.378  25.060  0.0264  0.1377 -0.0879
 1656BOLB   C1C39737   9.893   6.718  24.769 -0.0573  0.1270 -0.1834
 1656BOLB   C2C39738  10.114   6.659  24.343 -0.1777 -0.0258  0.1335
 1656BOLB   C3C39739  10.444   6.587  23.979 -0.2181 -0.0327  0.0239
 1656BOLB   C4C39740  10.626   6.387  23.549  0.3070 -0.1566 -0.3263
 1656BOLB   C1D39741  10.334   6.396  24.823  0.0166 -0.3287 -0.0496
 1656BOLB   C2D39742  10.672   6.246  24.719 -0.1192  0.0134  0.0664
 1656BOLB   C3D39743  10.668   5.957  24.372  0.1008 -0.1392 -0.3443
 1656BOLB   C4D39744  10.454   5.994  23.986  0.1620 -0.2165 -0.3283
 1657BOLB   NC139745  21.770  13.605  11.538  0.0854 -0.1198 -0.1211
 1657BOLB   PO139746  21.775  13.967  11.316 -0.2462 -0.1956  0.0307
 1657BOLB   GL139747  22.118  14.035  11.189  0.0630 -0.0370  0.0346
 1657BOLB   GL239748  22.163  13.649  11.041 -0.0603  0.0229 -0.1995
 1657BOLB   C1A39749  22.344  14.332  11.083  0.1281  0.0466  0.0347
 1657BOLB   C2A39750  22.842  14.562  10.947  0.1533  0.4830  0.2875
 1657BOLB   C3A39751  23.210  14.611  10.943  0.2047  0.1002 -0.0461
 1657BOLB   C4A39752  23.578  14.599  10.934 -0.0556 -0.1379 -0.3328
 1657BOLB   C1B39753  22.389  13.942  10.744 -0.3507 -0.0596  0.4726
 1657BOLB   C2B39754  22.454  14.020  10.405 -0.0488 -0.0512  0.1262
 1657BOLB   C3B39755  22.689  13.971  10.031  0.0890 -0.0489  0.0897
 1657BOLB   C4B39756  22.777  14.041   9.654  0.0694  0.0230 -0.0206
 1657BOLB   NC239757  24.970  15.989   9.658  0.1110  0.0403 -0.1634
 1657BOLB   PO239758  25.243  16.194   9.952 -0.0136  0.0948  0.1394
 1657BOLB   GL339759  24.827  16.107  10.174  0.0290 -0.1010  0.1889
 1657BOLB   GL439760  24.665  16.150  10.488  0.0625  0.2218  0.1563
 1657BOLB   C1C39761  24.715  15.646  10.408  0.1770  0.0169 -0.0555
 1657BOLB   C2C39762  24.388  15.414  10.493 -0.4429  0.1668 -0.2832
 1657BOLB   C3C39763  24.237  14.954  10.426  0.2349 -0.0327 -0.0392
 1657BOLB   C4C39764  23.888  14.669  10.626  0.3763 -0.0154  0.0534
 1657BOLB   C1D39765  24.469  15.887  10.769 -0.0422  0.3482 -0.2443
 1657BOLB   C2D39766  24.217  15.601  10.948  0.0805  0.1873  0.3057
 1657BOLB   C3D39767  24.039  15.341  10.915  0.2257  0.3134  0.0024
 1657BOLB   C4D39768  23.845  15.045  11.018  0.2741 -0.0041 -0.0587
 1658BOLB   NC139769  20.003  16.824  13.109  0.0765  0.1087  0.1608
 1658BOLB   PO139770  19.735  16.782  12.757  0.0408 -0.0967  0.1662
 1658BOLB   GL139771  20.142  17.032  12.589  0.2114  0.0365  0.1346
 1658BOLB   GL239772  20.266  17.002  12.214 -0.1656 -0.1745  0.1822
 1658BOLB   C1A39773  20.374  17.447  12.542 -0.1805 -0.1116 -0.3424
 1658BOLB   C2A39774  20.701  17.810  12.480  0.2257 -0.0832  0.0253
 1658BOLB   C3A39775  21.062  18.097  12.541  0.2734  0.0852  0.2121
 1658BOLB   C4A39776  21.407  18.319  12.414  0.1478  0.2620  0.2971
 1658BOLB   C1B39777  20.437  17.284  11.920  0.1555  0.2598  0.2456
 1658BOLB   C2B39778  20.603  17.374  11.455  0.1144 -0.2797 -0.4161
 1658BOLB   C3B39779  20.743  17.795  11.392  0.0522  0.0765 -0.0090
 1658BOLB   C4B39780  20.749  18.159  11.599  0.4272  0.0460  0.0698
 1658BOLB   NC239781  22.938  19.214  11.080 -0.0274 -0.0746  0.2502
 1658BOLB   PO239782  23.233  19.103  11.452 -0.1292  0.0451  0.1241
 1658BOLB   GL339783  22.920  18.961  11.643 -0.0574  0.3694 -0.1743
 1658BOLB   GL439784  23.060  18.760  11.768 -0.3241  0.0130  0.0496
 1658BOLB   C1C39785  22.586  18.762  11.594  0.0877  0.0906 -0.0084
 1658BOLB   C2C39786  22.263  18.532  11.417 -0.3445 -0.0375  0.2057
 1658BOLB   C3C39787  21.987  18.449  11.689 -0.0560  0.0455  0.0518
 1658BOLB   C4C39788  21.715  18.443  12.102  0.1063 -0.3345  0.3937
 1658BOLB   C1D39789  22.979  18.425  11.765  0.0441  0.1037 -0.0811
 1658BOLB   C2D39790  22.798  18.007  11.949 -0.1640  0.1335 -0.0852
 1658BOLB   C3D39791  22.632  17.626  12.127 -0.0472 -0.2192 -0.0233
 1658BOLB   C4D39792  22.235  17.615  12.345  0.1785  0.0588  0.1489
 1659BOLB   NC139793  20.034  14.335  10.271  0.1149 -0.1410 -0.1522
 1659BOLB   PO139794  20.018  14.775  10.359 -0.3533 -0.2664  0.1568
 1659BOLB   GL139795  20.358  15.048  10.143 -0.1867 -0.0800 -0.0554
 1659BOLB   GL239796  20.423  15.306  10.206  0.1076 -0.3181  0.0396
 1659BOLB   C1A39797  20.573  15.168   9.730  0.2131  0.0664  0.3468
 1659BOLB   C2A39798  20.656  15.382   9.327 -0.0126  0.1485  0.0034
 1659BOLB   C3A39799  20.694  15.808   9.097 -0.1586  0.1010  0.2214
 1659BOLB   C4A39800  20.797  16.224   9.257 -0.1604 -0.1415 -0.1776
 1659BOLB   C1B39801  20.723  15.659  10.087  0.0279  0.1903  0.0410
 1659BOLB   C2B39802  21.193  15.851   9.906  0.0985  0.1663 -0.1304
 1659BOLB   C3B39803  21.422  16.066   9.588  0.3410 -0.1779  0.0536
 1659BOLB   C4B39804  21.476  16.295   9.243  0.2555 -0.0634  0.2711
 1659BOLB   NC239805  22.627  16.910   7.737 -0.0254  0.1468  0.1399
 1659BOLB   PO239806  22.669  17.010   8.161 -0.1567  0.1016  0.1811
 1659BOLB   GL339807  22.703  16.902   8.586 -0.0590 -0.3566 -0.2727
 1659BOLB   GL439808  22.673  16.735   8.866  0.0247  0.0586 -0.1005
 1659BOLB   C1C39809  22.294  17.098   8.917 -0.0404  0.3748  0.1361
 1659BOLB   C2C39810  21.875  17.020   8.970 -0.1635 -0.0590  0.1693
 1659BOLB   C3C39811  21.500  16.849   8.912 -0.1120  0.0143 -0.2061
 1659BOLB   C4C39812  21.051  16.666   9.121 -0.1027 -0.1365 -0.1370
 1659BOLB   C1D39813  22.394  16.578   9.105 -0.2757 -0.1258  0.0896
 1659BOLB   C2D39814  22.223  16.217   9.202  0.0968  0.2827 -0.2318
 1659BOLB   C3D39815  22.240  15.789   9.104 -0.1772 -0.1416 -0.1422
 1659BOLB   C4D39816  22.085  15.470   9.282 -0.0852  0.0305 -0.0602
 1660BOLB   NC139817   7.776   1.866  20.295  0.1300 -0.0169 -0.1207
 1660BOLB   PO139818   8.050   1.675  20.100 -0.1812  0.0334 -0.1467
 1660BOLB   GL139819   8.084   1.931  19.785 -0.1079 -0.0778  0.0282
 1660BOLB   GL239820   7.871   2.284  19.752 -0.1814 -0.1772  0.2185
 1660BOLB   C1A39821   8.327   2.285  19.958 -0.1188 -0.2048  0.4848
 1660BOLB   C2A39822   8.476   2.583  19.629 -0.1166  0.0657  0.0267
 1660BOLB   C3A39823   8.349   3.047  19.346  0.2841 -0.0656  0.1562
 1660BOLB   C4A39824   8.461   3.476  19.027  0.1548  0.0600  0.0413
 1660BOLB   C1B39825   7.956   2.478  19.404  0.0210  0.1749 -0.0200
 1660BOLB   C2B39826   8.014   2.757  19.012 -0.0732  0.3437 -0.1817
 1660BOLB   C3B39827   8.398   2.997  18.830 -0.0950 -0.3682  0.1373
 1660BOLB   C4B39828   8.819   3.085  18.906  0.1154 -0.2965 -0.2238
 1660BOLB   NC239829  10.293   4.740  17.571 -0.0066 -0.2269 -0.1706
 1660BOLB   PO239830  10.438   4.364  17.599  0.1491  0.1344 -0.2152
 1660BOLB   GL339831  10.130   4.177  17.758  0.2810 -0.1070  0.1915
 1660BOLB   GL439832   9.918   4.456  17.737  0.2464  0.1705  0.1700
 1660BOLB   C1C39833   9.869   3.860  17.984 -0.0070 -0.1629 -0.2124
 1660BOLB   C2C39834   9.444   3.773  18.134 -0.1412  0.1852  0.2979
 1660BOLB   C3C39835   9.215   3.807  18.537 -0.1916  0.1855  0.2648
 1660BOLB   C4C39836   8.923   3.580  18.852  0.2770 -0.3648  0.2461
 1660BOLB   C1D39837   9.869   4.311  17.353 -0.1460 -0.4703  0.2746
 1660BOLB   C2D39838   9.672   4.387  16.930 -0.1931  0.0261  0.2242
 1660BOLB   C3D39839   9.546   4.157  16.508  0.2318  0.1101 -0.0449
 1660BOLB   C4D39840   9.479   3.912  16.119  0.1809 -0.0550  0.0489
 1661BOLB   NC139841  13.911   3.985  20.648 -0.2975  0.0362  0.0172
 1661BOLB   PO139842  14.064   3.694  20.843  0.3216 -0.0965  0.1226
 1661BOLB   GL139843  14.086   3.484  21.137 -0.1370  0.0824  0.0647
 1661BOLB   GL239844  14.273   3.160  21.091 -0.0878  0.0009  0.1017
 1661BOLB   C1A39845  14.213   3.383  21.494 -0.0078  0.0230  0.0018
 1661BOLB   C2A39846  14.404   3.283  21.829  0.0231  0.2748 -0.1408
 1661BOLB   C3A39847  14.538   3.137  22.203 -0.0562  0.2812  0.2418
 1661BOLB   C4A39848  14.250   3.018  22.480  0.0076  0.0947  0.1491
 1661BOLB   C1B39849  14.237   2.861  21.532  0.0694 -0.0737  0.0389
 1661BOLB   C2B39850  14.017   2.585  21.610 -0.5213  0.0197  0.1664
 1661BOLB   C3B39851  14.166   2.175  21.753 -0.4337  0.0299  0.1653
 1661BOLB   C4B39852  14.334   1.875  21.987  0.1181  0.1155 -0.3245
 1661BOLB   NC239853  13.431   2.124  24.824  0.1017 -0.0077 -0.2122
 1661BOLB   PO239854  13.532   1.831  24.590 -0.0033  0.1880  0.2544
 1661BOLB   GL339855  13.719   2.178  24.267  0.2698  0.2821  0.0712
 1661BOLB   GL439856  13.765   2.040  24.021 -0.1302  0.2606 -0.0154
 1661BOLB   C1C39857  13.727   2.530  24.053  0.0689  0.0069 -0.0773
 1661BOLB   C2C39858  13.833   2.739  23.674 -0.0859  0.1033 -0.0784
 1661BOLB   C3C39859  13.943   2.962  23.273  0.0033 -0.1848 -0.0602
 1661BOLB   C4C39860  14.154   3.005  22.860 -0.0723 -0.1230 -0.1876
 1661BOLB   C1D39861  13.904   2.240  23.672  0.2684 -0.2812 -0.1592
 1661BOLB   C2D39862  13.882   2.402  23.284  0.1423 -0.2704 -0.2525
 1661BOLB   C3D39863  13.914   2.568  22.873  0.1699 -0.0842  0.2148
 1661BOLB   C4D39864  13.988   2.573  22.566 -0.1221  0.1542  0.0297
 1662BOLB   NC139865  17.430  13.644   8.411  0.0387  0.0777 -0.1161
 1662BOLB   PO139866  17.687  13.557   8.659  0.2037 -0.0325  0.0680
 1662BOLB   GL139867  17.858  13.648   8.248 -0.5185 -0.0136 -0.1019
 1662BOLB   GL239868  18.217  13.471   8.223  0.0094 -0.0141 -0.1888
 1662BOLB   C1A39869  18.027  13.771   7.809  0.1638 -0.2387 -0.4885
 1662BOLB   C2A39870  18.182  13.776   7.377  0.0278 -0.1870  0.0318
 1662BOLB   C3A39871  18.193  14.075   7.083  0.1507 -0.1664  0.1771
 1662BOLB   C4A39872  18.566  14.176   6.813 -0.2659  0.1705 -0.0499
 1662BOLB   C1B39873  18.459  13.833   8.069 -0.0926 -0.0633  0.0521
 1662BOLB   C2B39874  18.536  14.010   7.776  0.0201 -0.0632 -0.2377
 1662BOLB   C3B39875  18.579  14.206   7.413  0.4346 -0.0714  0.3045
 1662BOLB   C4B39876  18.801  14.409   7.143  0.0433 -0.3633 -0.3785
 1662BOLB   NC239877  18.478  15.113   4.502  0.1741 -0.0419 -0.1570
 1662BOLB   PO239878  18.667  15.355   4.848  0.1421  0.0042 -0.1348
 1662BOLB   GL339879  18.608  15.547   5.260  0.1317  0.0378 -0.3664
 1662BOLB   GL439880  18.232  15.584   5.469  0.0843  0.0534 -0.1813
 1662BOLB   C1C39881  18.594  15.241   5.644 -0.0856  0.0249  0.0952
 1662BOLB   C2C39882  18.417  14.831   5.751  0.1109 -0.1591  0.0087
 1662BOLB   C3C39883  18.512  14.453   5.908 -0.1076 -0.2766  0.0917
 1662BOLB   C4C39884  18.546  14.310   6.354  0.1170 -0.1337 -0.0065
 1662BOLB   C1D39885  18.269  15.524   5.784  0.2154 -0.1791 -0.1586
 1662BOLB   C2D39886  18.318  15.137   6.114  0.1129 -0.0083 -0.0658
 1662BOLB   C3D39887  18.121  14.775   6.178 -0.1852 -0.0873 -0.3645
 1662BOLB   C4D39888  18.016  14.404   6.466  0.1310  0.4008 -0.0046
 1663BOLB   NC139889   8.920  12.067  16.993  0.0335  0.1545  0.0959
 1663BOLB   PO139890   8.525  11.931  16.940  0.3246 -0.4210 -0.0051
 1663BOLB   GL139891   8.200  12.010  17.304  0.0189  0.2350 -0.0936
 1663BOLB   GL239892   7.980  12.307  17.249 -0.3070 -0.0400  0.1277
 1663BOLB   C1A39893   7.829  11.913  17.537  0.0980 -0.1891  0.1896
 1663BOLB   C2A39894   7.430  11.824  17.678  0.1321 -0.0183 -0.0699
 1663BOLB   C3A39895   7.203  12.206  17.771  0.3040  0.4390 -0.2645
 1663BOLB   C4A39896   6.779  12.372  17.851 -0.1577 -0.0417 -0.1642
 1663BOLB   C1B39897   7.590  12.315  16.926  0.1831  0.3947  0.0695
 1663BOLB   C2B39898   7.218  12.591  16.775  0.1858  0.3509  0.1161
 1663BOLB   C3B39899   7.228  13.021  16.757 -0.2590 -0.1912 -0.5211
 1663BOLB   C4B39900   6.985  13.405  16.724  0.0825 -0.0004 -0.2761
 1663BOLB   NC239901   4.468  13.586  18.111  0.0562 -0.5561  0.1493
 1663BOLB   PO239902   4.780  13.367  18.298  0.2132  0.1882  0.0176
 1663BOLB   GL339903   5.134  13.113  18.043  0.2958  0.2558 -0.0338
 1663BOLB   GL439904   5.111  13.440  17.837  0.3968  0.0434 -0.1768
 1663BOLB   C1C39905   5.463  12.824  18.038 -0.3687  0.2865  0.0216
 1663BOLB   C2C39906   5.636  12.447  17.937  0.1497 -0.2772 -0.0988
 1663BOLB   C3C39907   5.969  12.111  17.994  0.0603 -0.4154 -0.1834
 1663BOLB   C4C39908   6.374  12.243  18.049 -0.2597 -0.0262  0.2489
 1663BOLB   C1D39909   5.531  13.267  17.664 -0.2995  0.1766 -0.2368
 1663BOLB   C2D39910   5.757  13.180  17.293 -0.3565 -0.1614 -0.0057
 1663BOLB   C3D39911   6.073  12.773  17.235 -0.1521  0.0959  0.1663
 1663BOLB   C4D39912   6.336  12.755  16.996 -0.1428  0.2025 -0.0365
 1664BOLB   NC139913  21.184   5.619  19.585 -0.0484 -0.1647  0.3382
 1664BOLB   PO139914  21.110   5.313  19.976 -0.3739  0.1162 -0.2112
 1664BOLB   GL139915  21.417   4.986  20.081  0.0791 -0.2076 -0.2430
 1664BOLB   GL239916  21.614   5.170  20.288  0.0990  0.0986  0.1516
 1664BOLB   C1A39917  21.514   4.546  20.126  0.0610 -0.3247  0.2177
 1664BOLB   C2A39918  21.524   4.234  20.456  0.0628  0.0012  0.2005
 1664BOLB   C3A39919  21.762   4.142  20.787  0.1886 -0.0604  0.0360
 1664BOLB   C4A39920  21.708   3.806  20.959 -0.0740  0.0610  0.1190
 1664BOLB   C1B39921  21.913   4.908  20.279  0.1002 -0.0322 -0.2454
 1664BOLB   C2B39922  22.024   4.412  20.339 -0.1763  0.1486  0.0047
 1664BOLB   C3B39923  21.853   3.912  20.252 -0.0353  0.0449  0.1017
 1664BOLB   C4B39924  21.711   3.521  20.134  0.0291  0.1426 -0.2110
 1664BOLB   NC239925  22.744   1.786  21.651 -0.0358  0.1473  0.1968
 1664BOLB   PO239926  22.879   2.130  21.863  0.1618 -0.0543  0.1839
 1664BOLB   GL339927  22.754   2.435  21.629 -0.0638 -0.0393 -0.1713
 1664BOLB   GL439928  22.798   2.742  21.754 -0.2006  0.1049 -0.0082
 1664BOLB   C1C39929  22.536   2.516  21.200  0.2894 -0.1335  0.1432
 1664BOLB   C2C39930  22.331   2.830  21.029  0.0380 -0.1216  0.1248
 1664BOLB   C3C39931  21.944   2.960  20.936  0.4655  0.3721 -0.1207
 1664BOLB   C4C39932  21.734   3.330  21.017  0.0453 -0.1661 -0.1871
 1664BOLB   C1D39933  22.720   2.962  21.411 -0.1958  0.2989 -0.0165
 1664BOLB   C2D39934  22.641   3.225  21.069 -0.0477 -0.1959 -0.3610
 1664BOLB   C3D39935  22.503   3.552  20.698 -0.0503 -0.0406  0.0282
 1664BOLB   C4D39936  22.479   3.795  20.271 -0.1100 -0.1093  0.3142
 1665BOLB   NC139937  20.395   9.843   4.537 -0.1956  0.2392  0.1510
 1665BOLB   PO139938  20.132   9.779   4.937  0.0873 -0.0999  0.0037
 1665BOLB   GL139939  19.826   9.736   5.130 -0.0752 -0.3721 -0.0338
 1665BOLB   GL239940  19.955   9.909   5.418 -0.1329 -0.1193  0.0073
 1665BOLB   C1A39941  19.684   9.562   5.507 -0.1452 -0.1414  0.2731
 1665BOLB   C2A39942  19.518   9.690   5.781  0.1631 -0.2409 -0.2262
 1665BOLB   C3A39943  19.188   9.988   6.029 -0.4261 -0.0642  0.1296
 1665BOLB   C4A39944  18.995  10.063   6.420  0.1809 -0.3781  0.3198
 1665BOLB   C1B39945  19.863  10.070   5.761 -0.2407  0.1252 -0.3277
 1665BOLB   C2B39946  19.755  10.123   6.078  0.0568  0.0375 -0.2428
 1665BOLB   C3B39947  19.744  10.028   6.476 -0.3162 -0.0990  0.0953
 1665BOLB   C4B39948  19.426  10.260   6.660  0.0756 -0.0073 -0.0022
 1665BOLB   NC239949  18.590  10.286   8.614  0.1511  0.0055  0.1931
 1665BOLB   PO239950  18.175  10.292   8.436  0.3003  0.0608  0.0718
 1665BOLB   GL339951  18.429  10.131   8.150 -0.1188  0.1600  0.0865
 1665BOLB   GL439952  18.117   9.897   8.087 -0.0564  0.1819 -0.5407
 1665BOLB   C1C39953  18.553  10.158   7.842 -0.0176 -0.2932  0.0357
 1665BOLB   C2C39954  18.760  10.242   7.514 -0.1271  0.0096 -0.2411
 1665BOLB   C3C39955  19.103  10.276   7.075 -0.1125 -0.0385 -0.3163
 1665BOLB   C4C39956  19.020   9.929   6.840  0.0849 -0.1116 -0.0561
 1665BOLB   C1D39957  17.982   9.813   7.578  0.3774  0.3548 -0.1239
 1665BOLB   C2D39958  18.119   9.810   7.134 -0.2471  0.2538  0.1023
 1665BOLB   C3D39959  18.148  10.111   6.840 -0.0904 -0.0922 -0.3604
 1665BOLB   C4D39960  18.201  10.577   6.694  0.2555 -0.0224 -0.0134
 1666BOLB   NC139961  12.939  16.197  12.705  0.3260 -0.0443 -0.3849
 1666BOLB   PO139962  12.828  16.661  12.654 -0.2297 -0.1597 -0.1016
 1666BOLB   GL139963  12.652  16.908  12.317  0.0193 -0.1223 -0.1821
 1666BOLB   GL239964  12.792  17.215  12.124  0.0827  0.0611 -0.0989
 1666BOLB   C1A39965  12.366  16.865  11.903  0.1100 -0.0755  0.0276
 1666BOLB   C2A39966  12.190  17.182  11.653  0.0939 -0.2374 -0.2284
 1666BOLB   C3A39967  11.834  17.449  11.473  0.0093 -0.0121 -0.0482
 1666BOLB   C4A39968  11.687  17.805  11.248  0.5709  0.0667 -0.1714
 1666BOLB   C1B39969  12.511  17.509  11.976 -0.1172  0.2917  0.0385
 1666BOLB   C2B39970  12.148  17.802  11.794  0.2011  0.1876 -0.0107
 1666BOLB   C3B39971  11.951  18.062  11.975  0.4944  0.2982  0.0059
 1666BOLB   C4B39972  11.673  18.214  12.087  0.3772  0.0635  0.0897
 1666BOLB   NC239973  10.177  19.797  10.884  0.2904  0.2075 -0.1192
 1666BOLB   PO239974   9.770  19.616  11.177 -0.0451 -0.1779 -0.0400
 1666BOLB   GL339975  10.076  19.379  11.143  0.3460  0.0609  0.2011
 1666BOLB   GL439976   9.794  19.110  11.351 -0.0033  0.0781 -0.0238
 1666BOLB   C1C39977  10.495  19.101  11.208  0.0332  0.1767 -0.1763
 1666BOLB   C2C39978  10.854  18.779  11.180 -0.2160  0.0128  0.2716
 1666BOLB   C3C39979  11.259  18.581  11.192  0.0826  0.1604 -0.1572
 1666BOLB   C4C39980  11.532  18.139  11.175  0.0917 -0.1944 -0.1662
 1666BOLB   C1D39981  10.046  18.790  11.162 -0.1195  0.1149 -0.0752
 1666BOLB   C2D39982  10.330  18.568  11.173  0.0947 -0.2160  0.0568
 1666BOLB   C3D39983  10.665  18.247  11.202  0.1957 -0.2137  0.0679
 1666BOLB   C4D39984  11.004  18.105  11.289  0.0951  0.1049 -0.1993
 1667BOLB   NC139985  23.792   1.280  19.552  0.1872  0.1271  0.0605
 1667BOLB   PO139986  23.915   1.708  19.748 -0.0643  0.1449  0.1281
 1667BOLB   GL139987  23.661   1.865  19.505  0.1239  0.0372  0.0655
 1667BOLB   GL239988  23.422   2.156  19.709  0.1351  0.3325 -0.0330
 1667BOLB   C1A39989  23.277   1.922  19.293  0.2460  0.1407  0.2249
 1667BOLB   C2A39990  23.262   2.268  18.910  0.1802 -0.2686 -0.3223
 1667BOLB   C3A39991  23.213   2.500  18.461 -0.0749  0.0449  0.1080
 1667BOLB   C4A39992  23.099   2.962  18.426  0.0359  0.0057 -0.3539
 1667BOLB   C1B39993  23.121   2.367  19.514 -0.0720  0.0250 -0.0566
 1667BOLB   C2B39994  22.707   2.512  19.477  0.2473  0.0316  0.4082
 1667BOLB   C3B39995  22.349   2.322  19.680  0.3900  0.0654 -0.0183
 1667BOLB   C4B39996  22.424   2.221  20.089  0.1230 -0.2505  0.1448
 1667BOLB   NC239997  24.274   2.154  19.457  0.2145 -0.2166 -0.0040
 1667BOLB   PO239998  23.893   2.288  19.718 -0.0767 -0.1037  0.1205
 1667BOLB   GL339999  23.939   2.679  19.520 -0.0891  0.1324 -0.0533
 1667BOLB   GL440000  23.742   2.893  19.585  0.0165 -0.0341  0.1375
 1667BOLB   C1C40001  23.985   2.885  19.126 -0.1740 -0.0572 -0.1071
 1667BOLB   C2C40002  23.924   3.239  18.842  0.1140 -0.1942  0.0303
 1667BOLB   C3C40003  23.601   3.409  18.590 -0.2130  0.1114 -0.1161
 1667BOLB   C4C40004  23.189   3.326  18.616 -0.4672  0.0822 -0.1856
 1667BOLB   C1D40005  23.511   3.172  19.603  0.2256 -0.3775 -0.0395
 1667BOLB   C2D40006  23.040   3.443  19.405  0.1518  0.1170  0.0730
 1667BOLB   C3D40007  22.641   3.618  19.423 -0.1888 -0.1789 -0.0969
 1667BOLB   C4D40008  22.299   3.753  19.674 -0.0990  0.1036 -0.0728
 1668BOLB   NC140009  15.726  11.040  22.918 -0.1924 -0.2164 -0.2010
 1668BOLB   PO140010  15.259  11.121  23.016 -0.2211 -0.1757  0.1720
 1668BOLB   GL140011  15.166  11.017  23.509 -0.3050  0.3119 -0.2066
 1668BOLB   GL240012  14.918  10.808  23.486  0.3030  0.2533  0.1161
 1668BOLB   C1A40013  15.112  11.027  23.929  0.0690  0.0674  0.0714
 1668BOLB   C2A40014  14.944  10.859  24.247  0.3398 -0.0284  0.1043
 1668BOLB   C3A40015  14.831  10.904  24.647  0.1022  0.1910 -0.1593
 1668BOLB   C4A40016  14.615  10.877  24.922  0.1271  0.1710  0.2166
 1668BOLB   C1B40017  14.706  10.667  23.821 -0.0188 -0.1329  0.0173
 1668BOLB   C2B40018  14.496  10.972  24.278  0.1701  0.3653  0.2715
 1668BOLB   C3B40019  14.213  10.838  24.637  0.0510 -0.0541 -0.2375
 1668BOLB   C4B40020  14.033  10.509  24.973 -0.1117  0.3947  0.0770
 1668BOLB   NC240021  13.060  11.085  27.207 -0.0444 -0.1047  0.0658
 1668BOLB   PO240022  13.060  11.442  26.885  0.3665 -0.1709 -0.3992
 1668BOLB   GL340023  13.434  11.240  26.685  0.1306 -0.2228 -0.1054
 1668BOLB   GL440024  13.856  11.237  26.736 -0.0643  0.1574 -0.1079
 1668BOLB   C1C40025  13.670  11.137  26.321 -0.1319 -0.1633 -0.0943
 1668BOLB   C2C40026  13.946  11.017  25.942  0.0398  0.2632 -0.0382
 1668BOLB   C3C40027  14.049  10.912  25.522  0.1384 -0.2138  0.3879
 1668BOLB   C4C40028  14.157  10.987  25.133  0.3766 -0.2561  0.0686
 1668BOLB   C1D40029  14.119  10.949  26.449  0.1595 -0.1318 -0.0343
 1668BOLB   C2D40030  14.266  10.650  26.059 -0.1957  0.1443 -0.3144
 1668BOLB   C3D40031  14.097  10.337  25.912  0.1538  0.0056  0.1046
 1668BOLB   C4D40032  13.989  10.302  25.400 -0.1232  0.3397  0.1128
 1669BOLB   NC140033  13.620  11.269  22.445  0.1092  0.1576  0.1753
 1669BOLB   PO140034  13.239  11.189  22.601 -0.0595  0.0184 -0.1762
 1669BOLB   GL140035  13.056  11.325  22.904  0.0947  0.3522  0.0661
 1669BOLB   GL240036  12.986  11.648  22.902 -0.0981  0.1288 -0.0320
 1669BOLB   C1A40037  12.735  11.342  23.232  0.0649 -0.1754  0.1415
 1669BOLB   C2A40038  12.858  11.604  23.578 -0.0345  0.0892  0.3162
 1669BOLB   C3A40039  12.913  11.872  23.994  0.1400 -0.2173 -0.0948
 1669BOLB   C4A40040  12.683  11.767  24.335 -0.4410  0.0435  0.1595
 1669BOLB   C1B40041  12.758  11.919  23.222 -0.2600 -0.0742 -0.2128
 1669BOLB   C2B40042  12.653  12.074  23.621 -0.1656  0.3402  0.0441
 1669BOLB   C3B40043  12.694  12.311  23.892 -0.1837  0.1099  0.0519
 1669BOLB   C4B40044  12.807  12.324  24.325 -0.2930  0.0281  0.1416
 1669BOLB   NC240045  11.768  11.266  26.987 -0.3911  0.2739 -0.1723
 1669BOLB   PO240046  11.589  11.405  26.578  0.0000  0.1672  0.2294
 1669BOLB   GL340047  11.733  11.431  26.092  0.2205 -0.0268  0.1420
 1669BOLB   GL440048  11.691  11.713  25.892  0.4587 -0.3754  0.0362
 1669BOLB   C1C40049  12.091  11.403  25.895  0.3431 -0.1606 -0.0668
 1669BOLB   C2C40050  12.230  11.432  25.429  0.2431 -0.0794 -0.0889
 1669BOLB   C3C40051  12.357  11.443  24.999 -0.1064 -0.0842 -0.0117
 1669BOLB   C4C40052  12.478  11.656  24.650 -0.0082  0.1314  0.0894
 1669BOLB   C1D40053  11.777  11.560  25.540 -0.1025 -0.0109  0.0350
 1669BOLB   C2D40054  11.876  11.619  25.163  0.2767  0.0966 -0.3684
 1669BOLB   C3D40055  12.044  11.840  24.831 -0.0020 -0.0712 -0.3337
 1669BOLB   C4D40056  12.057  12.189  24.592 -0.2403 -0.3572 -0.2371
 1670BOLB   NC140057  16.920  18.853  17.226  0.1875 -0.0406 -0.1428
 1670BOLB   PO140058  17.297  18.715  17.093 -0.1449 -0.2714 -0.3277
 1670BOLB   GL140059  17.390  19.077  17.230  0.3286 -0.0752  0.0808
 1670BOLB   GL240060  17.158  19.333  17.295 -0.3557  0.2716 -0.0122
 1670BOLB   C1A40061  17.628  19.436  16.971  0.1190  0.0124 -0.3145
 1670BOLB   C2A40062  17.718  19.871  17.034  0.0816  0.2409 -0.4287
 1670BOLB   C3A40063  17.783  20.238  17.204  0.2738 -0.0105  0.1079
 1670BOLB   C4A40064  17.800  20.602  17.455 -0.1108  0.3077 -0.0338
 1670BOLB   C1B40065  17.486  19.668  17.413  0.1018 -0.0216 -0.2691
 1670BOLB   C2B40066  17.799  19.923  17.578  0.1671 -0.0372  0.0370
 1670BOLB   C3B40067  18.252  20.114  17.380 -0.3096  0.0408  0.0724
 1670BOLB   C4B40068  18.313  20.562  17.371 -0.1816  0.1790 -0.1131
 1670BOLB   NC240069  18.472  22.651  18.365 -0.2124 -0.3492  0.0243
 1670BOLB   PO240070  18.756  22.257  18.043 -0.0076  0.0475  0.0555
 1670BOLB   GL340071  18.627  21.930  17.891 -0.3351  0.1534  0.2373
 1670BOLB   GL440072  18.945  21.815  17.731  0.2019 -0.3081 -0.2268
 1670BOLB   C1C40073  18.517  21.531  17.709  0.0133 -0.0928 -0.0883
 1670BOLB   C2C40074  18.178  21.386  17.915 -0.1477 -0.3539  0.1170
 1670BOLB   C3C40075  17.804  21.205  17.910  0.1344  0.0498 -0.2818
 1670BOLB   C4C40076  17.719  20.809  17.762 -0.0738  0.3090 -0.0888
 1670BOLB   C1D40077  19.002  21.324  17.633  0.2965 -0.0923 -0.4633
 1670BOLB   C2D40078  18.752  20.972  17.329 -0.0989  0.2302  0.3212
 1670BOLB   C3D40079  18.854  20.540  17.273 -0.2342  0.1546  0.0981
 1670BOLB   C4D40080  19.000  20.132  17.192 -0.1224 -0.3229  0.2547
 1671BOLB   NC140081  23.484   9.037  25.641  0.0246 -0.1047 -0.0721
 1671BOLB   PO140082  23.044   8.900  25.606 -0.0044 -0.2490 -0.0599
 1671BOLB   GL140083  22.889   9.082  25.269 -0.0464 -0.0455 -0.2583
 1671BOLB   GL240084  23.173   9.103  25.143 -0.0639 -0.0333  0.1533
 1671BOLB   C1A40085  22.681   9.400  25.151 -0.1053 -0.1779  0.0142
 1671BOLB   C2A40086  22.539   9.424  24.698 -0.1398  0.0496 -0.0800
 1671BOLB   C3A40087  22.518   9.476  24.249  0.0459 -0.0845  0.1273
 1671BOLB   C4A40088  22.620   9.686  23.894  0.2203 -0.0453  0.1277
 1671BOLB   C1B40089  22.914   9.129  24.738 -0.1154 -0.0242  0.0063
 1671BOLB   C2B40090  22.608   8.998  24.311 -0.0296 -0.2649  0.1931
 1671BOLB   C3B40091  22.415   8.554  24.098  0.6157  0.2363  0.0697
 1671BOLB   C4B40092  22.039   8.385  24.247 -0.1129  0.3917 -0.3851
 1671BOLB   NC240093  24.584  10.360  25.303  0.4618 -0.2283  0.0264
 1671BOLB   PO240094  24.152  10.463  25.113  0.4954  0.0400 -0.3157
 1671BOLB   GL340095  23.934  10.503  24.734 -0.0072 -0.1731 -0.0276
 1671BOLB   GL440096  24.036  10.300  24.513 -0.1921 -0.0052 -0.0478
 1671BOLB   C1C40097  23.790  10.784  24.425 -0.0195 -0.1333 -0.1627
 1671BOLB   C2C40098  23.469  10.662  24.208  0.2514  0.0622  0.0735
 1671BOLB   C3C40099  23.099  10.315  24.197 -0.0432  0.1532 -0.0767
 1671BOLB   C4C40100  22.891  10.106  23.820  0.3632 -0.2259  0.3968
 1671BOLB   C1D40101  23.932  10.453  24.080 -0.3019  0.0401  0.1405
 1671BOLB   C2D40102  23.876  10.730  23.758  0.0640 -0.1005 -0.1544
 1671BOLB   C3D40103  23.705  10.977  23.358  0.1393 -0.3066  0.4020
 1671BOLB   C4D40104  23.738  11.051  22.894 -0.0899 -0.0761 -0.2953
 1672BOLB   NC140105  10.175   4.864  19.234 -0.1831 -0.0396  0.0888
 1672BOLB   PO140106  10.397   4.556  19.094  0.3946  0.0830  0.1567
 1672BOLB   GL140107  10.178   4.187  19.215 -0.5516  0.1092 -0.1199
 1672BOLB   GL240108  10.151   3.962  18.856  0.0472 -0.0500 -0.0950
 1672BOLB   C1A40109   9.972   3.875  19.420  0.0394  0.2444 -0.2112
 1672BOLB   C2A40110   9.931   3.447  19.513  0.1964  0.1263  0.0410
 1672BOLB   C3A40111   9.642   3.132  19.748  0.1560  0.0265 -0.0312
 1672BOLB   C4A40112   9.567   2.730  19.890 -0.3157  0.2576 -0.1040
 1672BOLB   C1B40113   9.975   3.540  18.940 -0.2014  0.1237 -0.0803
 1672BOLB   C2B40114   9.672   3.261  19.092 -0.5171 -0.2057  0.0227
 1672BOLB   C3B40115   9.514   2.872  19.029 -0.2281 -0.0491  0.1437
 1672BOLB   C4B40116   9.156   2.695  19.018  0.0459 -0.1787  0.1343
 1672BOLB   NC240117   9.818   1.156  21.366  0.1115  0.2130 -0.0669
 1672BOLB   PO240118   9.636   1.475  21.589  0.0330  0.2696  0.0259
 1672BOLB   GL340119   9.836   1.639  21.193  0.2250 -0.1793  0.3171
 1672BOLB   GL440120  10.018   1.434  20.993 -0.3410 -0.1495  0.0788
 1672BOLB   C1C40121  10.016   2.046  21.159 -0.1314  0.4159 -0.1048
 1672BOLB   C2C40122   9.907   2.361  20.868  0.0452  0.1138 -0.0006
 1672BOLB   C3C40123   9.890   2.678  20.471  0.5223 -0.1648 -0.1295
 1672BOLB   C4C40124   9.799   2.586  20.142 -0.2611  0.2217  0.2833
 1672BOLB   C1D40125  10.046   1.782  20.624  0.0621  0.0924 -0.0095
 1672BOLB   C2D40126  10.030   2.171  20.307  0.0791 -0.3651 -0.2004
 1672BOLB   C3D40127  10.278   2.489  20.127  0.2406  0.2688  0.2977
 1672BOLB   C4D40128  10.203   2.597  19.699  0.0002 -0.1662 -0.1906
 1673BOLB   NC140129  10.325  15.463  13.574  0.0720  0.2586  0.0826
 1673BOLB   PO140130   9.996  15.478  13.340  0.0840 -0.1498  0.0902
 1673BOLB   GL140131   9.709  15.579  13.126  0.3028 -0.1798 -0.0491
 1673BOLB   GL240132   9.485  15.696  13.291 -0.2047  0.2440 -0.2668
 1673BOLB   C1A40133   9.607  15.890  12.866  0.0642  0.0403 -0.1563
 1673BOLB   C2A40134   9.786  16.003  12.453 -0.1257 -0.0789  0.1102
 1673BOLB   C3A40135  10.007  16.252  12.093  0.3870  0.1074 -0.0308
 1673BOLB   C4A40136  10.061  16.555  11.777  0.0456 -0.1437  0.0728
 1673BOLB   C1B40137   9.125  16.064  13.197 -0.0738 -0.0776 -0.1972
 1673BOLB   C2B40138   8.900  16.318  12.918 -0.1230  0.0061  0.5166
 1673BOLB   C3B40139   8.838  16.340  12.507  0.3712 -0.0048  0.2890
 1673BOLB   C4B40140   8.950  16.475  12.068 -0.0249 -0.2324 -0.0729
 1673BOLB   NC240141   7.882  18.111  11.528  0.0758 -0.1248 -0.1191
 1673BOLB   PO240142   8.071  18.114  11.096  0.0002 -0.0368  0.1614
 1673BOLB   GL340143   8.356  17.923  11.448 -0.0967 -0.3265  0.1346
 1673BOLB   GL440144   8.302  17.653  11.423  0.2209 -0.0352  0.3502
 1673BOLB   C1C40145   8.875  17.763  11.468 -0.0835 -0.0627  0.3321
 1673BOLB   C2C40146   9.069  17.308  11.489  0.0062 -0.0489 -0.1629
 1673BOLB   C3C40147   9.455  17.183  11.652 -0.1754 -0.1049  0.1382
 1673BOLB   C4C40148   9.840  16.839  11.659  0.2930  0.0540  0.0955
 1673BOLB   C1D40149   8.568  17.372  11.322  0.4568  0.1635 -0.1064
 1673BOLB   C2D40150   8.772  16.906  11.251  0.4963  0.1593 -0.0615
 1673BOLB   C3D40151   8.692  16.510  11.355 -0.5309 -0.0352  0.3226
 1673BOLB   C4D40152   8.765  16.163  11.707 -0.0360  0.0901  0.1027
 1674BOLB   NC140153  16.985   4.371  21.156 -0.1642 -0.0917  0.1503
 1674BOLB   PO140154  16.550   4.293  21.043 -0.3179  0.1438  0.1364
 1674BOLB   GL140155  16.558   4.014  21.454 -0.2082 -0.3319  0.0086
 1674BOLB   GL240156  16.816   4.156  21.547  0.5186 -0.0180 -0.0833
 1674BOLB   C1A40157  16.522   3.741  21.821 -0.1292  0.3267 -0.0440
 1674BOLB   C2A40158  16.723   3.500  21.964 -0.2071 -0.2047  0.0206
 1674BOLB   C3A40159  17.012   3.226  22.198 -0.3895 -0.1531  0.2272
 1674BOLB   C4A40160  17.364   3.160  22.364  0.0102 -0.0827 -0.2225
 1674BOLB   C1B40161  16.559   4.218  21.921  0.2570 -0.0304 -0.2325
 1674BOLB   C2B40162  16.566   3.964  22.278 -0.1597 -0.1709  0.1035
 1674BOLB   C3B40163  16.815   3.644  22.446  0.1654 -0.1362  0.1604
 1674BOLB   C4B40164  17.186   3.488  22.700 -0.3116 -0.2870 -0.2512
 1674BOLB   NC240165  18.032   1.631  24.182 -0.0388 -0.1557  0.0514
 1674BOLB   PO240166  18.165   2.075  24.207  0.1545  0.2263  0.1996
 1674BOLB   GL340167  18.141   2.268  23.880  0.1393  0.1749  0.3408
 1674BOLB   GL440168  17.768   2.234  23.707 -0.0972  0.1753 -0.5419
 1674BOLB   C1C40169  18.152   2.702  23.779 -0.1146 -0.2637  0.0536
 1674BOLB   C2C40170  17.928   3.031  23.624 -0.0592 -0.1601 -0.0236
 1674BOLB   C3C40171  17.621   3.079  23.255 -0.1522 -0.0690  0.0612
 1674BOLB   C4C40172  17.529   3.167  22.823  0.1682  0.0571  0.1457
 1674BOLB   C1D40173  17.888   2.173  23.290 -0.1466 -0.0040 -0.1746
 1674BOLB   C2D40174  17.728   1.971  22.936  0.1414 -0.0229  0.0419
 1674BOLB   C3D40175  17.430   2.127  22.607  0.1312  0.4358  0.0269
 1674BOLB   C4D40176  17.115   2.310  22.783 -0.1288  0.0450  0.1981
 1675BOLB   NC140177  12.153   9.339  26.915  0.2734  0.3059  0.0904
 1675BOLB   PO140178  11.835   9.660  26.624 -0.1223 -0.0906  0.2680
 1675BOLB   GL140179  12.037   9.588  26.175 -0.4197  0.1062 -0.2034
 1675BOLB   GL240180  12.125   9.834  25.851 -0.0324  0.0525  0.2897
 1675BOLB   C1A40181  12.262   9.318  25.958  0.1095 -0.0130 -0.1836
 1675BOLB   C2A40182  12.428   9.413  25.585  0.0236 -0.3023  0.1300
 1675BOLB   C3A40183  12.597   9.416  25.232 -0.0542 -0.2224  0.0340
 1675BOLB   C4A40184  12.937   9.174  25.089 -0.5413 -0.2968 -0.0861
 1675BOLB   C1B40185  12.241   9.915  25.333 -0.3151  0.2721  0.3252
 1675BOLB   C2B40186  12.485  10.017  25.060 -0.0443  0.1426 -0.0109
 1675BOLB   C3B40187  12.787  10.081  24.716 -0.0459  0.0197 -0.0257
 1675BOLB   C4B40188  12.808  10.308  24.312 -0.1756 -0.0203  0.3118
 1675BOLB   NC240189  13.105   7.714  26.952 -0.2097  0.0324  0.0973
 1675BOLB   PO240190  13.491   7.817  26.750  0.2156 -0.0268 -0.2983
 1675BOLB   GL340191  13.286   7.778  26.426 -0.0262  0.0580 -0.0597
 1675BOLB   GL440192  13.012   7.941  26.384 -0.1074  0.2089  0.0995
 1675BOLB   C1C40193  13.384   7.986  26.017  0.0631  0.1611 -0.3167
 1675BOLB   C2C40194  13.120   8.035  25.694  0.0221  0.3210  0.2452
 1675BOLB   C3C40195  13.099   8.419  25.313 -0.0639  0.2564 -0.0914
 1675BOLB   C4C40196  13.156   8.787  25.145  0.0012 -0.0620 -0.1111
 1675BOLB   C1D40197  12.792   8.371  26.164 -0.0303 -0.1750  0.1404
 1675BOLB   C2D40198  12.602   8.721  25.985  0.1860  0.1023  0.0552
 1675BOLB   C3D40199  12.284   8.888  25.641  0.0795 -0.2188  0.1363
 1675BOLB   C4D40200  12.294   8.949  25.208 -0.1237 -0.1022 -0.1789
 1676BOLB   NC140201  12.578  16.570  19.484  0.0265 -0.0994 -0.0069
 1676BOLB   PO140202  12.324  16.479  19.175  0.1815 -0.0113  0.2212
 1676BOLB   GL140203  12.125  16.952  19.374  0.2052 -0.0744  0.3223
 1676BOLB   GL240204  11.812  17.047  19.300  0.2541 -0.0219  0.1501
 1676BOLB   C1A40205  11.896  17.213  19.770  0.1539  0.0939  0.3463
 1676BOLB   C2A40206  11.727  17.504  19.866 -0.1250 -0.2488 -0.0198
 1676BOLB   C3A40207  11.474  17.880  19.939 -0.0872  0.1005  0.2211
 1676BOLB   C4A40208  11.373  18.225  19.990 -0.3551 -0.0554 -0.1592
 1676BOLB   C1B40209  11.757  17.467  19.328  0.4550 -0.1630 -0.0385
 1676BOLB   C2B40210  11.670  17.887  19.466 -0.2556 -0.1271  0.1743
 1676BOLB   C3B40211  11.396  18.296  19.474 -0.1198  0.1786  0.0526
 1676BOLB   C4B40212  11.047  18.556  19.309 -0.1539 -0.0343  0.0735
 1676BOLB   NC240213  10.333  19.761  21.748  0.1738  0.0192 -0.1828
 1676BOLB   PO240214  10.726  19.643  21.920  0.0797 -0.0099 -0.2954
 1676BOLB   GL340215  10.777  19.356  21.576  0.0489 -0.1336  0.1726
 1676BOLB   GL440216  10.649  19.565  21.379  0.0967 -0.1251  0.3652
 1676BOLB   C1C40217  10.618  19.076  21.153  0.0198 -0.3358  0.0411
 1676BOLB   C2C40218  10.832  18.809  20.881 -0.2862  0.0959 -0.2081
 1676BOLB   C3C40219  10.986  18.689  20.524  0.4337 -0.1072 -0.1893
 1676BOLB   C4C40220  11.163  18.508  20.110  0.2493 -0.1085 -0.0248
 1676BOLB   C1D40221  10.898  19.438  21.009  0.3433 -0.0636 -0.2817
 1676BOLB   C2D40222  11.088  19.226  20.657  0.2425 -0.2060 -0.0746
 1676BOLB   C3D40223  11.386  18.996  20.455  0.1311  0.1112 -0.0329
 1676BOLB   C4D40224  11.586  18.658  20.264 -0.0803 -0.1228  0.0677
 1677BOLB   NC140225  14.980  31.853   8.925 -0.1003  0.2161  0.0763
 1677BOLB   PO140226  15.297  31.973   9.259 -0.0458 -0.0875  0.1524
 1677BOLB   GL140227  15.426  32.240   9.583 -0.1326  0.2331 -0.1048
 1677BOLB   GL240228  15.155  32.368   9.863  0.0310 -0.1803 -0.0819
 1677BOLB   C1A40229  15.460  32.687   9.519  0.2688  0.0122  0.3656
 1677BOLB   C2A40230  15.709  33.105   9.498 -0.1017 -0.1758 -0.1737
 1677BOLB   C3A40231  15.591  33.273   9.882 -0.0226 -0.0923  0.0681
 1677BOLB   C4A40232  15.316  33.246  10.248  0.1154  0.3659 -0.3594
 1677BOLB   C1B40233  14.868  32.285  10.112 -0.3297 -0.0189  0.3116
 1677BOLB   C2B40234  14.768  32.324  10.571 -0.2983  0.0072 -0.0379
 1677BOLB   C3B40235  14.779  32.325  11.000  0.2984 -0.2408  0.0914
 1677BOLB   C4B40236  14.811  32.265  11.378 -0.1353 -0.1164  0.3338
 1677BOLB   NC240237  17.440  33.001   9.831  0.4241 -0.4621  0.0354
 1677BOLB   PO240238  17.100  32.969  10.178 -0.0066 -0.2198  0.2851
 1677BOLB   GL340239  16.812  33.064  10.410  0.0270 -0.1779 -0.0045
 1677BOLB   GL440240  16.856  33.267  10.714  0.0802  0.3114  0.3524
 1677BOLB   C1C40241  16.390  33.129  10.526 -0.0601  0.0674 -0.0815
 1677BOLB   C2C40242  16.048  33.068  10.691 -0.1631 -0.0474 -0.2004
 1677BOLB   C3C40243  15.670  33.164  10.901  0.2650 -0.2599 -0.0765
 1677BOLB   C4C40244  15.296  33.176  10.698  0.0142 -0.2361  0.2412
 1677BOLB   C1D40245  16.648  33.518  10.830 -0.1159 -0.0567  0.0327
 1677BOLB   C2D40246  16.585  33.846  10.868  0.0702 -0.0213  0.1855
 1677BOLB   C3D40247  16.506  34.201  11.099 -0.0894 -0.0423  0.1628
 1677BOLB   C4D40248  16.260  34.202  11.480 -0.2547  0.1913  0.4356
 1678BOLB   NC140249  18.755   6.431   9.250  0.4469  0.0459 -0.2693
 1678BOLB   PO140250  18.862   6.676   9.016 -0.2978  0.0458 -0.2483
 1678BOLB   GL140251  18.887   6.467   8.596  0.3913  0.1597 -0.2054
 1678BOLB   GL240252  18.781   6.138   8.770 -0.3158 -0.0412 -0.1306
 1678BOLB   C1A40253  18.888   6.431   8.093  0.0336  0.1334 -0.0477
 1678BOLB   C2A40254  18.959   6.509   7.650  0.2785  0.2461 -0.0087
 1678BOLB   C3A40255  18.939   6.655   7.134 -0.1826  0.0647 -0.3066
 1678BOLB   C4A40256  18.676   6.973   6.955 -0.0528  0.2100 -0.3054
 1678BOLB   C1B40257  18.774   6.026   8.336  0.2017  0.3689  0.1895
 1678BOLB   C2B40258  18.490   6.081   7.955 -0.2479 -0.0872  0.1625
 1678BOLB   C3B40259  18.293   6.076   7.535  0.3005  0.1056  0.2592
 1678BOLB   C4B40260  18.077   6.070   7.194  0.1222 -0.1414 -0.1003
 1678BOLB   NC240261  20.290   8.006   4.846 -0.0752 -0.3328  0.3001
 1678BOLB   PO240262  20.321   8.151   5.259  0.0341  0.0825 -0.0252
 1678BOLB   GL340263  19.943   7.966   5.473 -0.0995 -0.1937 -0.0810
 1678BOLB   GL440264  19.788   8.173   5.620  0.1011 -0.0186  0.0261
 1678BOLB   C1C40265  19.605   7.587   5.656  0.4834  0.0387 -0.1885
 1678BOLB   C2C40266  19.294   7.386   5.971 -0.2253  0.0331 -0.0543
 1678BOLB   C3C40267  19.065   7.304   6.300  0.1357  0.0867 -0.0534
 1678BOLB   C4C40268  18.737   7.108   6.609  0.2408  0.3592  0.2559
 1678BOLB   C1D40269  19.566   8.322   5.966 -0.0608 -0.1027 -0.2723
 1678BOLB   C2D40270  19.404   8.666   6.256 -0.1090  0.0331 -0.1722
 1678BOLB   C3D40271  19.304   8.595   6.648  0.2704 -0.0929  0.1077
 1678BOLB   C4D40272  19.049   8.372   7.009 -0.1268 -0.2855  0.1927
 1679BOLB   NC140273  18.961  13.354  27.137 -0.2063 -0.1474 -0.2762
 1679BOLB   PO140274  18.955  12.950  27.300 -0.0227  0.0354  0.1470
 1679BOLB   GL140275  18.816  12.639  26.995 -0.2744 -0.0243  0.1192
 1679BOLB   GL240276  18.534  12.578  27.091  0.3626  0.1683 -0.0367
 1679BOLB   C1A40277  18.957  12.647  26.643 -0.2191 -0.3206  0.0333
 1679BOLB   C2A40278  18.865  12.725  26.296 -0.2285 -0.0518  0.1425
 1679BOLB   C3A40279  18.688  12.903  26.016 -0.0419  0.2476 -0.3130
 1679BOLB   C4A40280  18.779  12.765  25.634 -0.1354 -0.1145  0.2245
 1679BOLB   C1B40281  18.533  12.912  26.764  0.1380  0.0244  0.0755
 1679BOLB   C2B40282  18.373  13.004  26.433  0.2318 -0.2787  0.1169
 1679BOLB   C3B40283  18.251  13.113  26.074 -0.0827  0.1544  0.1463
 1679BOLB   C4B40284  18.510  13.188  25.594  0.3645  0.2027  0.2564
 1679BOLB   NC240285  18.003  12.025  23.867  0.0284  0.0171 -0.0239
 1679BOLB   PO240286  18.294  11.733  23.786  0.0421  0.0689  0.0086
 1679BOLB   GL340287  18.413  11.826  24.140 -0.1400 -0.0138  0.2463
 1679BOLB   GL440288  18.186  11.874  24.346 -0.1951 -0.0011 -0.0593
 1679BOLB   C1C40289  18.643  11.769  24.519 -0.0298 -0.1917  0.2313
 1679BOLB   C2C40290  18.873  11.906  24.761  0.0030 -0.1546 -0.0776
 1679BOLB   C3C40291  18.908  12.187  25.067 -0.1536  0.0216 -0.0314
 1679BOLB   C4C40292  18.667  12.440  25.321  0.1911  0.0326 -0.0189
 1679BOLB   C1D40293  18.283  11.576  24.780  0.1600  0.1791  0.2206
 1679BOLB   C2D40294  18.530  11.212  24.882  0.1423  0.3831  0.3458
 1679BOLB   C3D40295  18.855  10.976  25.046 -0.0602 -0.0452 -0.0782
 1679BOLB   C4D40296  18.911  10.872  25.477 -0.3041 -0.0478 -0.4219
 1680BOLB   NC140297  21.775  11.495  10.784 -0.1040 -0.2746  0.1008
 1680BOLB   PO140298  21.803  11.040  10.738  0.0211  0.0012  0.0198
 1680BOLB   GL140299  22.208  11.250  10.502  0.3403  0.3533 -0.1856
 1680BOLB   GL240300  22.240  11.582  10.579 -0.4031 -0.2423  0.2502
 1680BOLB   C1A40301  22.383  11.203  10.151 -0.3703  0.1399 -0.0764
 1680BOLB   C2A40302  22.600  11.197   9.743 -0.1498 -0.0655 -0.0492
 1680BOLB   C3A40303  22.758  11.343   9.417  0.0528  0.2209  0.2242
 1680BOLB   C4A40304  22.943  11.634   9.039 -0.2102 -0.1954 -0.0840
 1680BOLB   C1B40305  22.611  11.590  10.308 -0.0388 -0.0463  0.1675
 1680BOLB   C2B40306  22.956  11.516  10.037  0.0081  0.0435  0.1645
 1680BOLB   C3B40307  23.145  11.503   9.648 -0.3714 -0.0247 -0.2318
 1680BOLB   C4B40308  23.378  11.742   9.347  0.0032  0.0918  0.0213
 1680BOLB   NC240309  24.398  13.190   7.846 -0.5095  0.1765  0.2874
 1680BOLB   PO240310  24.679  12.886   7.908  0.0246 -0.1128 -0.0049
 1680BOLB   GL340311  24.433  12.612   8.177  0.1503  0.4630  0.1328
 1680BOLB   GL440312  24.210  12.817   8.304 -0.4220 -0.0905 -0.1775
 1680BOLB   C1C40313  24.094  12.401   8.492  0.1285  0.0551 -0.0957
 1680BOLB   C2C40314  23.730  12.368   8.712  0.3729  0.1088 -0.0790
 1680BOLB   C3C40315  23.420  12.150   8.960  0.1070 -0.0991  0.0685
 1680BOLB   C4C40316  23.283  11.843   8.888  0.0928 -0.2588 -0.1641
 1680BOLB   C1D40317  24.051  13.086   8.635 -0.3791  0.1138 -0.1338
 1680BOLB   C2D40318  23.952  13.473   8.767 -0.0338 -0.0170  0.0112
 1680BOLB   C3D40319  23.920  13.988   9.008  0.0367 -0.0141 -0.0130
 1680BOLB   C4D40320  23.778  14.197   9.391 -0.0236 -0.0345 -0.4665
 1681BOLB   NC140321  13.385   9.040  22.829  0.2663  0.0683  0.0297
 1681BOLB   PO140322  13.539   9.344  23.016  0.0944  0.3293 -0.0976
 1681BOLB   GL140323  13.380   9.222  23.332  0.2425  0.1262 -0.0452
 1681BOLB   GL240324  13.222   8.919  23.294 -0.0274  0.1672  0.0289
 1681BOLB   C1A40325  13.230   9.232  23.803  0.1179 -0.0481  0.3065
 1681BOLB   C2A40326  13.165   9.216  24.174 -0.0593 -0.2082  0.2459
 1681BOLB   C3A40327  13.257   9.280  24.599 -0.0030  0.0993 -0.2076
 1681BOLB   C4A40328  13.427   9.148  25.002 -0.0279  0.1096  0.0139
 1681BOLB   C1B40329  12.915   9.046  23.506  0.3011 -0.2099  0.1809
 1681BOLB   C2B40330  12.796   9.023  23.887  0.0147 -0.1693  0.0987
 1681BOLB   C3B40331  12.711   9.050  24.302  0.1619  0.0535  0.3800
 1681BOLB   C4B40332  12.564   9.098  24.727  0.4870  0.1712 -0.0524
 1681BOLB   NC240333  13.622   8.231  26.924 -0.0603  0.1375  0.2404
 1681BOLB   PO240334  13.520   8.606  27.137 -0.1162  0.3201  0.1314
 1681BOLB   GL340335  13.367   8.732  26.712  0.3188 -0.0885  0.2794
 1681BOLB   GL440336  12.977   8.740  26.652  0.1937  0.0532 -0.0236
 1681BOLB   C1C40337  13.635   8.925  26.419 -0.0037  0.0631 -0.0230
 1681BOLB   C2C40338  13.870   9.093  26.050 -0.2231 -0.4170  0.0109
 1681BOLB   C3C40339  13.981   9.079  25.642  0.1864 -0.0738 -0.0385
 1681BOLB   C4C40340  13.763   9.265  25.267  0.0402  0.1341 -0.0340
 1681BOLB   C1D40341  12.885   8.939  26.355  0.3093  0.0983 -0.2034
 1681BOLB   C2D40342  12.735   9.204  25.990 -0.3149 -0.0595  0.2111
 1681BOLB   C3D40343  12.685   9.619  26.034 -0.0534  0.1738  0.0629
 1681BOLB   C4D40344  12.842   9.918  26.212 -0.0624 -0.0360 -0.2317
 1682BOLB   NC140345  11.635  13.172   3.278 -0.3304 -0.0557 -0.0810
 1682BOLB   PO140346  11.808  13.597   3.157 -0.0056  0.1369  0.0356
 1682BOLB   GL140347  12.084  13.439   3.454 -0.1212  0.2820 -0.2582
 1682BOLB   GL240348  11.814  13.506   3.611 -0.0333  0.1947  0.3703
 1682BOLB   C1A40349  12.144  13.093   3.713  0.0809  0.3410 -0.2898
 1682BOLB   C2A40350  12.229  12.937   4.145 -0.3846 -0.0982 -0.0739
 1682BOLB   C3A40351  12.252  12.673   4.469 -0.0007  0.0316  0.0707
 1682BOLB   C4A40352  11.930  12.472   4.800  0.0289  0.0858 -0.0649
 1682BOLB   C1B40353  11.699  13.151   3.880  0.0621  0.2655 -0.3620
 1682BOLB   C2B40354  11.611  12.743   4.065 -0.1589 -0.2021 -0.1314
 1682BOLB   C3B40355  11.805  12.349   4.298 -0.0567 -0.0500  0.0165
 1682BOLB   C4B40356  11.881  11.983   4.644  0.0832  0.3013  0.4976
 1682BOLB   NC240357  11.836  14.426   4.221 -0.0859  0.1338  0.0905
 1682BOLB   PO240358  11.351  14.176   4.246 -0.0354 -0.0908 -0.1166
 1682BOLB   GL340359  11.396  14.018   4.730 -0.1000 -0.0773 -0.0298
 1682BOLB   GL440360  11.233  14.051   4.914 -0.1379 -0.3204 -0.0688
 1682BOLB   C1C40361  11.507  13.496   4.771 -0.2875 -0.1184 -0.2131
 1682BOLB   C2C40362  11.329  13.020   4.979 -0.1231  0.0161 -0.1154
 1682BOLB   C3C40363  11.364  12.586   5.198 -0.0209 -0.0574 -0.0397
 1682BOLB   C4C40364  11.561  12.246   4.968 -0.3210  0.3483  0.2612
 1682BOLB   C1D40365  11.133  13.847   5.171 -0.0135  0.0656  0.1210
 1682BOLB   C2D40366  10.999  13.977   5.554 -0.1814  0.1380  0.1616
 1682BOLB   C3D40367  10.724  14.037   5.798  0.0953 -0.1165  0.1918
 1682BOLB   C4D40368  10.625  14.224   6.173  0.1213  0.1369 -0.0808
 1683BOLB   NC140369  21.729   6.806  10.870  0.0216 -0.1300 -0.2385
 1683BOLB   PO140370  21.394   7.159  10.755 -0.0218 -0.0721  0.0039
 1683BOLB   GL140371  21.625   7.067  10.461  0.0330 -0.1986  0.5853
 1683BOLB   GL240372  21.436   7.105  10.197  0.3618  0.1561 -0.1155
 1683BOLB   C1A40373  22.104   7.070  10.347 -0.0482 -0.0036  0.4104
 1683BOLB   C2A40374  22.426   7.107  10.083 -0.3042 -0.0238  0.0255
 1683BOLB   C3A40375  22.729   7.209   9.793  0.1570  0.0085  0.1895
 1683BOLB   C4A40376  22.925   7.184   9.444 -0.3096 -0.0334  0.1802
 1683BOLB   C1B40377  21.651   7.218   9.898  0.4916 -0.1692  0.1547
 1683BOLB   C2B40378  22.078   7.228   9.659  0.1292 -0.1980  0.0346
 1683BOLB   C3B40379  22.366   7.163   9.278 -0.3526  0.2190  0.0873
 1683BOLB   C4B40380  22.686   7.316   9.038  0.0730 -0.2121  0.3161
 1683BOLB   NC240381  25.480   6.946   9.033  0.2731  0.0033  0.0037
 1683BOLB   PO240382  25.301   6.960   8.583 -0.0793 -0.0350  0.2067
 1683BOLB   GL340383  25.007   7.030   8.886 -0.1004  0.0641  0.2757
 1683BOLB   GL440384  25.070   7.247   9.153  0.1262 -0.2727 -0.2564
 1683BOLB   C1C40385  24.586   6.995   9.067  0.0784 -0.2109  0.3905
 1683BOLB   C2C40386  24.166   6.843   9.045 -0.2606  0.0788  0.2636
 1683BOLB   C3C40387  23.706   6.861   9.099  0.1498 -0.0765 -0.1640
 1683BOLB   C4C40388  23.371   7.144   9.217  0.1672  0.2136 -0.1769
 1683BOLB   C1D40389  24.705   7.402   9.338  0.0419  0.1572  0.0338
 1683BOLB   C2D40390  24.480   7.170   9.512 -0.0632 -0.1035  0.1405
 1683BOLB   C3D40391  24.103   7.023   9.741  0.1813  0.3792  0.4132
 1683BOLB   C4D40392  23.749   6.989   9.841 -0.0213  0.3770  0.0519
 1684BOLB   NC140393  16.579  18.600  14.994  0.1182  0.0661 -0.1648
 1684BOLB   PO140394  16.662  18.333  14.592  0.0079  0.0437 -0.0433
 1684BOLB   GL140395  16.904  18.719  14.376 -0.0233  0.0146  0.2981
 1684BOLB   GL240396  16.659  18.822  14.462  0.1539 -0.1848  0.0510
 1684BOLB   C1A40397  17.133  19.157  14.233  0.2362  0.1668  0.1841
 1684BOLB   C2A40398  16.996  19.597  14.214 -0.4148 -0.1525 -0.3652
 1684BOLB   C3A40399  16.869  19.970  14.212 -0.1799 -0.2109  0.0137
 1684BOLB   C4A40400  16.652  20.334  14.396 -0.0794 -0.0607 -0.1650
 1684BOLB   C1B40401  16.468  19.221  14.418 -0.1243  0.2360  0.2235
 1684BOLB   C2B40402  16.210  19.602  14.489 -0.1883 -0.1100 -0.4045
 1684BOLB   C3B40403  16.276  19.925  14.350  0.2059 -0.2399 -0.0915
 1684BOLB   C4B40404  16.402  20.122  14.050  0.0033 -0.5111 -0.0716
 1684BOLB   NC240405  16.162  22.564  14.787 -0.3432 -0.2006 -0.0619
 1684BOLB   PO240406  16.554  22.691  14.979 -0.0420 -0.3119  0.1419
 1684BOLB   GL340407  16.533  22.253  15.006  0.1566  0.2364  0.1952
 1684BOLB   GL440408  16.712  22.171  15.245  0.1154  0.1629 -0.2593
 1684BOLB   C1C40409  16.370  21.872  14.862  0.3486 -0.3311  0.0282
 1684BOLB   C2C40410  16.275  21.379  14.784 -0.0652 -0.1011  0.2780
 1684BOLB   C3C40411  16.052  20.966  14.772 -0.1270 -0.2811 -0.0844
 1684BOLB   C4C40412  16.291  20.667  14.533 -0.1965 -0.0217  0.0201
 1684BOLB   C1D40413  17.076  21.928  15.217  0.1321  0.0531  0.0087
 1684BOLB   C2D40414  17.286  21.561  15.339  0.1869  0.1881 -0.3122
 1684BOLB   C3D40415  17.260  21.383  15.834  0.0683 -0.0754  0.5378
 1684BOLB   C4D40416  17.235  21.035  16.137  0.1685 -0.0408  0.1168
 1685BOLB   NC140417   9.770  18.149   9.457  0.1082 -0.0807 -0.5080
 1685BOLB   PO140418   9.563  17.843   9.427  0.0114  0.3096  0.0071
 1685BOLB   GL140419   9.694  17.480   9.433  0.1239 -0.0191  0.0073
 1685BOLB   GL240420   9.938  17.500   9.122 -0.4746 -0.2997  0.0503
 1685BOLB   C1A40421   9.805  17.021   9.523 -0.3463 -0.0090  0.0307
 1685BOLB   C2A40422  10.059  16.611   9.638  0.3210  0.0777 -0.1440
 1685BOLB   C3A40423  10.230  16.261   9.797  0.0160 -0.1102 -0.0944
 1685BOLB   C4A40424  10.470  15.881   9.588  0.3036 -0.3575  0.2808
 1685BOLB   C1B40425  10.345  17.388   9.291  0.1982 -0.4417  0.0335
 1685BOLB   C2B40426  10.397  17.157   9.553  0.1195 -0.0549 -0.2495
 1685BOLB   C3B40427  10.348  16.955   9.907  0.1503  0.3145 -0.2213
 1685BOLB   C4B40428  10.174  16.802  10.222 -0.0184  0.1728 -0.2346
 1685BOLB   NC240429  11.596  14.463  11.141 -0.2115  0.2150 -0.0218
 1685BOLB   PO240430  11.093  14.367  11.088 -0.0432  0.0127 -0.0237
 1685BOLB   GL340431  11.116  14.690  10.809 -0.0863  0.1748  0.0049
 1685BOLB   GL440432  10.861  14.909  11.019  0.1179 -0.0569  0.1136
 1685BOLB   C1C40433  11.172  14.789  10.409  0.0446  0.1049  0.0417
 1685BOLB   C2C40434  10.838  14.795  10.228  0.3470 -0.1342  0.1616
 1685BOLB   C3C40435  10.639  15.001   9.879 -0.3506 -0.3666 -0.0921
 1685BOLB   C4C40436  10.532  15.412   9.763  0.3141  0.1841 -0.1610
 1685BOLB   C1D40437  10.464  14.689  10.762 -0.1286  0.1181  0.0524
 1685BOLB   C2D40438   9.951  14.675  10.866 -0.1491 -0.0775 -0.1731
 1685BOLB   C3D40439   9.468  14.711  10.884  0.1959  0.0069 -0.1457
 1685BOLB   C4D40440   9.155  14.542  11.058  0.2293  0.0671 -0.0567
 1686BOLB   NC140441  20.969   0.311   8.192 -0.1423 -0.0724 -0.2049
 1686BOLB   PO140442  20.711   0.607   8.061 -0.0828 -0.1635  0.1231
 1686BOLB   GL140443  20.476   0.896   8.350  0.0984 -0.0947  0.1927
 1686BOLB   GL240444  20.150   0.969   8.262  0.2553  0.2856 -0.0260
 1686BOLB   C1A40445  20.508   1.127   8.767 -0.3034 -0.0967 -0.0002
 1686BOLB   C2A40446  20.453   1.240   9.293  0.0424 -0.2273  0.3783
 1686BOLB   C3A40447  20.296   1.622   9.542  0.0869 -0.0779  0.0564
 1686BOLB   C4A40448  20.278   2.098   9.625  0.2512 -0.1690  0.0532
 1686BOLB   C1B40449  19.701   0.972   8.418 -0.0274 -0.0921 -0.0584
 1686BOLB   C2B40450  19.507   1.260   8.554 -0.0867  0.1052  0.4333
 1686BOLB   C3B40451  19.212   1.563   8.389  0.1468  0.0810  0.4388
 1686BOLB   C4B40452  18.845   1.875   8.305  0.2166  0.0999  0.0312
 1686BOLB   NC240453  18.791   2.841  10.676  0.1061 -0.0226 -0.1339
 1686BOLB   PO240454  18.848   3.302  10.723  0.1885 -0.2079  0.4442
 1686BOLB   GL340455  19.055   3.495  10.379 -0.2745 -0.1101  0.1731
 1686BOLB   GL440456  18.795   3.566  10.067 -0.2934  0.0171  0.3444
 1686BOLB   C1C40457  19.404   3.371  10.054 -0.1963 -0.0267 -0.0540
 1686BOLB   C2C40458  19.618   3.206   9.672 -0.1235  0.2916  0.1460
 1686BOLB   C3C40459  19.907   2.939   9.601  0.2029 -0.0299 -0.0519
 1686BOLB   C4C40460  20.269   2.563   9.651 -0.3206 -0.1812  0.3298
 1686BOLB   C1D40461  18.970   3.160   9.910  0.2550 -0.0954  0.2447
 1686BOLB   C2D40462  19.168   2.824   9.582 -0.2032 -0.1719  0.0503
 1686BOLB   C3D40463  19.407   2.515   9.392  0.2038  0.0032  0.0192
 1686BOLB   C4D40464  19.603   2.134   9.131  0.2433 -0.0551  0.2702
 1687BOLB   NC140465  19.924  35.742  20.633  0.4177 -0.0202  0.0506
 1687BOLB   PO140466  19.482  35.974  20.927  0.1607 -0.0959  0.0179
 1687BOLB   GL140467  19.388  36.280  20.726 -0.0882 -0.1912 -0.2141
 1687BOLB   GL240468  19.025  36.349  20.568  0.0110 -0.1657  0.0990
 1687BOLB   C1A40469  19.513  36.549  20.402 -0.2325 -0.1213  0.1370
 1687BOLB   C2A40470  19.723  36.761  20.038  0.1653 -0.3164 -0.1418
 1687BOLB   C3A40471  19.919  37.123  19.823 -0.0923 -0.1175 -0.1040
 1687BOLB   C4A40472  19.808  37.435  19.542 -0.0572  0.0803  0.3250
 1687BOLB   C1B40473  19.247  36.768  20.771  0.3631  0.2693  0.0612
 1687BOLB   C2B40474  18.979  37.113  20.929  0.0995 -0.1409  0.1831
 1687BOLB   C3B40475  18.668  37.269  20.750  0.0851  0.1382  0.2954
 1687BOLB   C4B40476  18.456  37.646  20.639  0.0175 -0.2518  0.2940
 1687BOLB   NC240477  18.534  39.622  18.791 -0.0550 -0.1092  0.0022
 1687BOLB   PO240478  18.608  39.274  18.504 -0.1437 -0.2552 -0.2448
 1687BOLB   GL340479  18.925  38.980  18.614  0.1250 -0.0037 -0.0165
 1687BOLB   GL440480  18.752  38.737  18.449 -0.0752  0.2030  0.0689
 1687BOLB   C1C40481  19.163  38.565  18.668 -0.0217 -0.2381 -0.1322
 1687BOLB   C2C40482  19.166  38.159  18.779  0.2689 -0.1923  0.0574
 1687BOLB   C3C40483  19.329  37.946  19.036  0.0116 -0.1718 -0.0341
 1687BOLB   C4C40484  19.581  37.715  19.380  0.2364 -0.0330 -0.0030
 1687BOLB   C1D40485  18.719  38.317  18.370 -0.3231  0.2449 -0.1799
 1687BOLB   C2D40486  18.993  37.891  18.398 -0.1142 -0.2201  0.0076
 1687BOLB   C3D40487  19.299  37.616  18.592 -0.1643 -0.1333  0.1864
 1687BOLB   C4D40488  19.659  37.435  18.419 -0.0503  0.7901  0.0531
 1688BOLB   NC140489  18.309  33.113   9.505  0.0069  0.1263 -0.0115
 1688BOLB   PO140490  18.483  33.561   9.592 -0.3001  0.0663  0.1576
 1688BOLB   GL140491  18.305  33.881   9.599 -0.0579  0.1855 -0.2353
 1688BOLB   GL240492  18.200  34.013   9.925 -0.2405  0.1924 -0.1982
 1688BOLB   C1A40493  17.843  34.035   9.491 -0.1765 -0.2133 -0.0364
 1688BOLB   C2A40494  17.451  34.044   9.525  0.0474  0.1847 -0.2304
 1688BOLB   C3A40495  17.013  34.069   9.278  0.2030 -0.0946  0.0223
 1688BOLB   C4A40496  16.934  34.137   8.787  0.0345 -0.4381  0.0186
 1688BOLB   C1B40497  18.027  34.454  10.001 -0.0939 -0.0742  0.0620
 1688BOLB   C2B40498  17.649  34.648  10.191 -0.0281 -0.2834 -0.2268
 1688BOLB   C3B40499  17.350  34.884  10.173 -0.1206  0.2343  0.2425
 1688BOLB   C4B40500  17.209  35.252   9.910  0.4612 -0.0632 -0.0394
 1688BOLB   NC240501  16.811  32.942   7.529 -0.1645  0.1613 -0.1339
 1688BOLB   PO240502  16.978  33.050   7.876  0.1589 -0.3737  0.1612
 1688BOLB   GL340503  16.586  33.320   7.857 -0.0017  0.2790 -0.0710
 1688BOLB   GL440504  16.308  33.217   8.180  0.1838  0.2145 -0.0136
 1688BOLB   C1C40505  16.463  33.751   7.632  0.2013  0.2803 -0.1254
 1688BOLB   C2C40506  16.303  34.039   7.864  0.1075  0.0406  0.0298
 1688BOLB   C3C40507  16.450  34.232   8.151  0.2770  0.0976  0.2648
 1688BOLB   C4C40508  16.593  34.181   8.585  0.2983  0.0653  0.1349
 1688BOLB   C1D40509  16.220  33.660   8.070 -0.1361  0.2184 -0.2814
 1688BOLB   C2D40510  16.020  33.926   8.293 -0.0323  0.0799 -0.2097
 1688BOLB   C3D40511  16.112  34.204   8.498  0.1699 -0.0546 -0.1638
 1688BOLB   C4D40512  16.197  34.599   8.612 -0.2706  0.0344  0.2270
 1689BOLB   NC140513  27.475  10.458  10.300 -0.2420 -0.0167  0.1215
 1689BOLB   PO140514  27.214  10.153  10.554  0.4100  0.1010 -0.1285
 1689BOLB   GL140515  26.657  10.167  10.618 -0.2168  0.1359  0.1695
 1689BOLB   GL240516  26.503  10.088  10.260 -0.0192  0.0824 -0.0297
 1689BOLB   C1A40517  26.188  10.161  10.716  0.4223 -0.4035  0.1388
 1689BOLB   C2A40518  25.814  10.173  10.559  0.0743 -0.0473  0.4576
 1689BOLB   C3A40519  25.452  10.328  10.432 -0.0886 -0.0509 -0.0881
 1689BOLB   C4A40520  25.096  10.556  10.323  0.0225  0.2640 -0.1767
 1689BOLB   C1B40521  26.124  10.154  10.161  0.1693 -0.1850 -0.1917
 1689BOLB   C2B40522  25.690   9.947  10.158 -0.0341  0.4635  0.0172
 1689BOLB   C3B40523  25.749   9.428  10.355  0.0226  0.1770 -0.2305
 1689BOLB   C4B40524  25.636   9.132  10.071 -0.0901 -0.1428  0.1583
 1689BOLB   NC240525  22.693  10.640  11.253  0.3119  0.3725  0.0710
 1689BOLB   PO240526  22.880  10.842  11.531 -0.1089  0.2965 -0.0486
 1689BOLB   GL340527  23.278  10.922  11.532 -0.1508  0.0503  0.1195
 1689BOLB   GL440528  23.537  10.860  11.786 -0.0710 -0.2688 -0.1362
 1689BOLB   C1C40529  23.564  10.982  11.225  0.0171 -0.1331  0.0837
 1689BOLB   C2C40530  23.915  11.086  10.868 -0.1437 -0.0181  0.0329
 1689BOLB   C3C40531  24.325  10.896  10.744 -0.0358  0.1381 -0.0016
 1689BOLB   C4C40532  24.630  10.761  10.409  0.1805  0.0078 -0.2835
 1689BOLB   C1D40533  23.777  11.185  11.675 -0.3324  0.3785 -0.0516
 1689BOLB   C2D40534  23.939  11.325  11.298 -0.0721  0.1933  0.0363
 1689BOLB   C3D40535  24.097  11.768  11.267 -0.1123  0.2650 -0.4314
 1689BOLB   C4D40536  24.467  12.073  11.240 -0.0902 -0.2634  0.0254
 1690BOLB   NC140537  10.674  21.129  12.238 -0.1662 -0.0727  0.2081
 1690BOLB   PO140538  10.955  21.143  12.597 -0.0748 -0.1753 -0.0466
 1690BOLB   GL140539  11.125  20.795  12.682  0.0444  0.0354  0.2216
 1690BOLB   GL240540  11.439  20.771  12.479 -0.0810 -0.1484  0.3334
 1690BOLB   C1A40541  11.321  20.304  12.794 -0.1272  0.2099  0.2903
 1690BOLB   C2A40542  11.565  20.000  12.787  0.0516  0.0884 -0.1170
 1690BOLB   C3A40543  11.761  19.576  12.578 -0.2780 -0.0739 -0.1200
 1690BOLB   C4A40544  11.903  19.612  12.203 -0.1149 -0.0613 -0.0713
 1690BOLB   C1B40545  11.765  20.441  12.661 -0.0187 -0.1117  0.0661
 1690BOLB   C2B40546  12.004  20.017  12.512  0.2646  0.0647 -0.0066
 1690BOLB   C3B40547  12.274  19.662  12.497  0.0043  0.0026 -0.1641
 1690BOLB   C4B40548  12.414  19.492  12.126  0.0874 -0.3055  0.3862
 1690BOLB   NC240549  13.039  20.650   9.945 -0.4424  0.0859  0.0432
 1690BOLB   PO240550  12.871  20.283   9.971  0.1510 -0.0402  0.0193
 1690BOLB   GL340551  12.640  20.026  10.301  0.0255  0.0774 -0.2277
 1690BOLB   GL440552  12.867  19.983  10.534  0.1996 -0.0074  0.0577
 1690BOLB   C1C40553  12.486  19.713  10.665  0.0602 -0.0967 -0.4443
 1690BOLB   C2C40554  12.110  19.732  10.967  0.2220  0.0650  0.0658
 1690BOLB   C3C40555  11.849  19.713  11.289 -0.0809 -0.0197 -0.2278
 1690BOLB   C4C40556  11.846  19.628  11.749  0.0832  0.1744 -0.0506
 1690BOLB   C1D40557  12.873  19.548  10.421 -0.0024 -0.1530 -0.0337
 1690BOLB   C2D40558  12.540  19.151  10.544  0.0861  0.3856 -0.1848
 1690BOLB   C3D40559  12.190  18.915  10.672  0.1549  0.1245  0.2404
 1690BOLB   C4D40560  12.157  18.420  10.849 -0.0859 -0.1236  0.0152
 1691BOLB   NC140561  15.273  15.657   9.489 -0.0720 -0.4201 -0.3321
 1691BOLB   PO140562  15.598  15.632   9.252  0.1644  0.0543  0.1684
 1691BOLB   GL140563  15.606  15.863   8.973 -0.1805  0.1642  0.2594
 1691BOLB   GL240564  15.915  15.918   8.821 -0.0063 -0.4230 -0.1312
 1691BOLB   C1A40565  15.385  16.146   8.908  0.2363 -0.1090 -0.0241
 1691BOLB   C2A40566  15.241  16.447   8.549  0.0487 -0.1069 -0.0012
 1691BOLB   C3A40567  14.865  16.645   8.487 -0.1606  0.1521 -0.0220
 1691BOLB   C4A40568  14.607  16.996   8.412 -0.0304 -0.0595  0.4087
 1691BOLB   C1B40569  15.894  16.162   8.401 -0.4184 -0.0292  0.0596
 1691BOLB   C2B40570  15.633  16.560   8.208  0.2772  0.0717 -0.1427
 1691BOLB   C3B40571  15.447  16.673   7.882  0.0646  0.0262 -0.0443
 1691BOLB   C4B40572  15.113  16.810   7.618  0.2309 -0.1814 -0.2613
 1691BOLB   NC240573  14.419  18.585   6.927 -0.2453 -0.2096  0.1962
 1691BOLB   PO240574  14.268  18.217   6.657  0.3807  0.1212 -0.0026
 1691BOLB   GL340575  14.123  17.872   6.867 -0.0637  0.1133  0.1549
 1691BOLB   GL440576  13.819  17.869   7.093 -0.0733  0.0031 -0.4841
 1691BOLB   C1C40577  14.426  17.586   7.010  0.0060  0.0075  0.1713
 1691BOLB   C2C40578  14.426  17.276   7.318 -0.4202 -0.3584 -0.2502
 1691BOLB   C3C40579  14.212  17.299   7.805 -0.2865  0.2183  0.1598
 1691BOLB   C4C40580  14.261  17.090   8.088  0.1279 -0.3125 -0.1816
 1691BOLB   C1D40581  13.710  17.613   7.375  0.1958 -0.1236  0.1315
 1691BOLB   C2D40582  13.686  17.305   7.761  0.0912 -0.1203  0.1394
 1691BOLB   C3D40583  13.766  16.945   7.958  0.0532  0.1797 -0.0895
 1691BOLB   C4D40584  13.956  16.692   8.205  0.1344 -0.0866  0.0406
 1692BOLB   NC140585  16.019  18.810  17.421 -0.0043  0.0990  0.0768
 1692BOLB   PO140586  15.698  19.003  17.244  0.0401  0.1624  0.1572
 1692BOLB   GL140587  15.436  19.397  17.513  0.0557 -0.1359  0.2695
 1692BOLB   GL240588  15.528  19.720  17.362 -0.2734 -0.1113 -0.1647
 1692BOLB   C1A40589  15.370  19.536  17.963  0.2495 -0.2811 -0.6384
 1692BOLB   C2A40590  15.079  19.820  18.121  0.3784 -0.0372  0.1212
 1692BOLB   C3A40591  14.948  20.171  18.064 -0.0347  0.4119 -0.2692
 1692BOLB   C4A40592  14.597  20.420  18.037  0.1648 -0.0620  0.0426
 1692BOLB   C1B40593  15.388  19.997  17.681  0.1288 -0.0233  0.0487
 1692BOLB   C2B40594  15.362  20.368  17.933  0.1432  0.2354  0.2405
 1692BOLB   C3B40595  15.035  20.663  18.136 -0.5921 -0.0671 -0.1311
 1692BOLB   C4B40596  15.013  21.096  18.228  0.0151 -0.0837  0.1916
 1692BOLB   NC240597  15.078  22.903  17.790 -0.1093  0.0870 -0.2716
 1692BOLB   PO240598  15.469  22.757  17.914  0.1851  0.0672 -0.1939
 1692BOLB   GL340599  15.358  22.330  17.905 -0.0232  0.0761 -0.0354
 1692BOLB   GL440600  15.218  22.159  17.621 -0.1090  0.0299 -0.1388
 1692BOLB   C1C40601  15.122  21.987  18.142  0.0064 -0.0322  0.3607
 1692BOLB   C2C40602  14.710  21.668  18.173  0.2379  0.0177  0.0390
 1692BOLB   C3C40603  14.553  21.188  18.047 -0.3791 -0.3014  0.0291
 1692BOLB   C4C40604  14.463  20.812  17.870  0.2301  0.4384  0.0674
 1692BOLB   C1D40605  15.299  21.749  17.322  0.2035  0.2546 -0.0465
 1692BOLB   C2D40606  15.399  21.326  17.480 -0.2559  0.0931 -0.2137
 1692BOLB   C3D40607  15.398  20.833  17.558  0.4609  0.2589  0.2709
 1692BOLB   C4D40608  15.548  20.449  17.429  0.0147 -0.0552 -0.2418
 1693BOLB   NC140609  20.944   4.952  19.672  0.2329  0.0890 -0.1598
 1693BOLB   PO140610  20.488   4.719  19.854  0.3330  0.1125  0.0429
 1693BOLB   GL140611  20.490   4.556  20.249  0.2831  0.0881  0.2319
 1693BOLB   GL240612  20.234   4.265  20.217 -0.0794  0.1410  0.0221
 1693BOLB   C1A40613  20.508   4.565  20.687 -0.0532  0.0809 -0.2662
 1693BOLB   C2A40614  20.588   4.315  20.964 -0.1056  0.0596 -0.0330
 1693BOLB   C3A40615  20.704   3.946  21.308 -0.4552  0.0881 -0.2296
 1693BOLB   C4A40616  20.906   3.651  21.517 -0.1644  0.0627 -0.0951
 1693BOLB   C1B40617  20.461   4.081  20.547  0.1476 -0.2150  0.0345
 1693BOLB   C2B40618  20.705   3.783  20.840 -0.3311  0.4885 -0.2508
 1693BOLB   C3B40619  20.767   3.447  21.069 -0.1640 -0.0950  0.1494
 1693BOLB   C4B40620  20.834   3.066  21.347 -0.1774  0.0865  0.1006
 1693BOLB   NC240621  22.956   2.945  22.964  0.1776 -0.0522 -0.1245
 1693BOLB   PO240622  23.065   2.924  22.555 -0.2508  0.3119  0.0502
 1693BOLB   GL340623  22.914   3.018  22.140 -0.1444 -0.1370 -0.4506
 1693BOLB   GL440624  23.121   3.086  21.885  0.1287 -0.1260 -0.2703
 1693BOLB   C1C40625  22.517   3.215  21.842  0.1630  0.1184  0.1417
 1693BOLB   C2C40626  22.022   3.180  21.858 -0.2871  0.1421 -0.1386
 1693BOLB   C3C40627  21.638   3.314  21.613 -0.0704  0.0630 -0.3126
 1693BOLB   C4C40628  21.291   3.365  21.358 -0.1232  0.3615 -0.2712
 1693BOLB   C1D40629  23.028   3.446  21.568  0.0259  0.1407 -0.0946
 1693BOLB   C2D40630  22.568   3.612  21.444  0.0648  0.2761  0.1991
 1693BOLB   C3D40631  22.176   3.593  21.627  0.0748  0.4441  0.2243
 1693BOLB   C4D40632  21.844   3.767  21.501  0.4538  0.2170  0.2131
 1694BOLB   NC140633  10.434   0.552  21.319 -0.0712 -0.1409 -0.2410
 1694BOLB   PO140634  10.560   0.341  20.975 -0.0213  0.1882  0.1336
 1694BOLB   GL140635  10.579   0.363  20.597  0.0097 -0.1284  0.1029
 1694BOLB   GL240636  10.463   0.351  20.404  0.0581  0.0483  0.0542
 1694BOLB   C1A40637  10.912   0.649  20.348 -0.0838 -0.1291  0.0029
 1694BOLB   C2A40638  10.960   0.861  19.980 -0.1223 -0.2364  0.6608
 1694BOLB   C3A40639  11.145   1.247  19.786  0.0793  0.0507  0.1207
 1694BOLB   C4A40640  11.158   1.456  19.332  0.0986 -0.1468 -0.0460
 1694BOLB   C1B40641  10.487   0.801  20.245 -0.1717  0.0054 -0.2221
 1694BOLB   C2B40642  10.386   1.218  19.976 -0.2341 -0.1843  0.0728
 1694BOLB   C3B40643  10.186   1.491  19.736  0.0737  0.1986 -0.0727
 1694BOLB   C4B40644  10.199   1.816  19.462 -0.3382  0.1440 -0.4400
 1694BOLB   NC240645  11.287   3.653  18.780 -0.3647  0.1100  0.2907
 1694BOLB   PO240646  11.521   3.412  18.439  0.0315  0.2650 -0.2666
 1694BOLB   GL340647  11.429   3.189  18.829  0.1090 -0.0580 -0.0950
 1694BOLB   GL440648  11.494   2.969  18.777 -0.1561 -0.3868  0.0540
 1694BOLB   C1C40649  11.035   2.872  18.755  0.2247  0.1263  0.0606
 1694BOLB   C2C40650  10.960   2.473  18.789  0.0893 -0.2061 -0.3178
 1694BOLB   C3C40651  10.861   2.067  18.877 -0.3213 -0.1658  0.1084
 1694BOLB   C4C40652  10.898   1.668  18.989  0.4261  0.1333  0.2694
 1694BOLB   C1D40653  11.438   2.648  19.021 -0.2181  0.2352  0.0867
 1694BOLB   C2D40654  11.333   2.161  19.009 -0.0569  0.1385 -0.1000
 1694BOLB   C3D40655  11.423   1.735  18.964 -0.0249 -0.1789 -0.0827
 1694BOLB   C4D40656  11.725   1.400  18.992  0.3520 -0.0830 -0.2423
 1695BOLB   NC140657  15.542  14.955   9.060 -0.2540  0.2437  0.3211
 1695BOLB   PO140658  15.265  14.803   8.863 -0.1663 -0.0314  0.2591
 1695BOLB   GL140659  15.177  14.753   8.487  0.2241  0.1410  0.2235
 1695BOLB   GL240660  15.037  14.394   8.227  0.1520  0.1675  0.0933
 1695BOLB   C1A40661  15.055  15.052   8.085  0.0162 -0.0615 -0.2080
 1695BOLB   C2A40662  14.857  14.812   7.698 -0.3088 -0.0802  0.1900
 1695BOLB   C3A40663  14.701  14.780   7.304 -0.0909  0.1127 -0.1567
 1695BOLB   C4A40664  14.626  14.806   6.835 -0.0973  0.1019 -0.1963
 1695BOLB   C1B40665  15.403  14.568   8.018  0.0233  0.0968 -0.0459
 1695BOLB   C2B40666  15.382  14.793   7.592 -0.1083 -0.0318 -0.0382
 1695BOLB   C3B40667  15.233  15.002   7.169  0.1836 -0.2654  0.2663
 1695BOLB   C4B40668  15.034  15.447   7.152 -0.2149 -0.0170  0.0477
 1695BOLB   NC240669  14.485  16.182   5.042  0.2806  0.2907  0.0664
 1695BOLB   PO240670  14.505  16.527   5.296  0.0128  0.3623  0.1178
 1695BOLB   GL340671  14.472  16.196   5.655  0.2888 -0.2747  0.1404
 1695BOLB   GL440672  14.279  16.354   5.936 -0.1054  0.1589 -0.2700
 1695BOLB   C1C40673  14.826  16.002   5.814  0.2303  0.1318 -0.1120
 1695BOLB   C2C40674  15.091  15.775   6.113  0.0343  0.0046  0.1647
 1695BOLB   C3C40675  15.154  15.439   6.448 -0.0620  0.2879  0.0245
 1695BOLB   C4C40676  14.794  15.243   6.693  0.0138 -0.2145 -0.1508
 1695BOLB   C1D40677  13.968  16.178   6.189 -0.1566  0.0569 -0.1981
 1695BOLB   C2D40678  13.679  15.798   6.433 -0.1728 -0.2581 -0.2348
 1695BOLB   C3D40679  13.569  15.373   6.527 -0.0556 -0.2700  0.2996
 1695BOLB   C4D40680  13.296  15.031   6.439  0.1770  0.2122  0.1235
 1696BOLB   NC140681  17.142  17.208  11.514 -0.2517  0.2495  0.0854
 1696BOLB   PO140682  16.726  16.992  11.594 -0.0170  0.0412 -0.1493
 1696BOLB   GL140683  16.713  17.320  11.159 -0.2584 -0.1159 -0.0494
 1696BOLB   GL240684  16.424  17.426  11.197 -0.0686 -0.2421  0.2860
 1696BOLB   C1A40685  16.882  17.661  10.909  0.0658 -0.0816  0.1271
 1696BOLB   C2A40686  17.047  18.016  11.064 -0.2362  0.3355  0.1252
 1696BOLB   C3A40687  17.037  18.427  10.819 -0.0925 -0.2515 -0.0666
 1696BOLB   C4A40688  17.042  18.723  10.479  0.0398  0.1425  0.1818
 1696BOLB   C1B40689  16.467  17.874  11.014 -0.3001 -0.1565 -0.2988
 1696BOLB   C2B40690  16.382  18.178  10.842  0.2698  0.1122  0.2327
 1696BOLB   C3B40691  16.491  18.587  10.881  0.0479 -0.0955  0.0201
 1696BOLB   C4B40692  16.822  18.751  11.143  0.0080 -0.1887 -0.2932
 1696BOLB   NC240693  17.859  21.369  10.794  0.1921 -0.3340 -0.1303
 1696BOLB   PO240694  18.257  21.164  10.620  0.1627  0.0661 -0.2252
 1696BOLB   GL340695  18.053  20.715  10.638  0.1498  0.1648 -0.0110
 1696BOLB   GL440696  17.742  20.689  10.436  0.1957  0.0916 -0.1122
 1696BOLB   C1C40697  18.028  20.188  10.555 -0.4517 -0.0815 -0.3186
 1696BOLB   C2C40698  17.932  19.733  10.431 -0.0948 -0.0487  0.2126
 1696BOLB   C3C40699  17.711  19.339  10.490 -0.0371 -0.0993  0.0427
 1696BOLB   C4C40700  17.326  19.056  10.463  0.1004  0.0944 -0.0606
 1696BOLB   C1D40701  17.375  20.566  10.749 -0.0365  0.0650  0.2871
 1696BOLB   C2D40702  17.113  20.687  11.053 -0.1140 -0.0971 -0.1260
 1696BOLB   C3D40703  16.817  20.403  10.974 -0.0435 -0.0444 -0.1217
 1696BOLB   C4D40704  16.591  20.065  10.838 -0.4809  0.0178  0.0004
 1697BOLB   NC140705  16.008  11.390   7.695 -0.1582 -0.0705  0.2607
 1697BOLB   PO140706  16.389  11.099   7.746 -0.0631  0.2093  0.2579
 1697BOLB   GL140707  16.324  11.054   7.359  0.1035  0.0378 -0.1724
 1697BOLB   GL240708  16.184  11.289   7.230 -0.2406  0.0586 -0.0383
 1697BOLB   C1A40709  16.467  10.818   7.060  0.2307 -0.3698 -0.1999
 1697BOLB   C2A40710  16.668  10.787   6.594  0.2789  0.0317 -0.4275
 1697BOLB   C3A40711  16.641  10.878   6.144 -0.3462 -0.3691  0.0172
 1697BOLB   C4A40712  16.517  10.720   5.743  0.1702 -0.1255  0.1904
 1697BOLB   C1B40713  16.345  11.312   6.813 -0.0199  0.2471 -0.0112
 1697BOLB   C2B40714  16.330  11.267   6.379  0.0392  0.2485  0.3138
 1697BOLB   C3B40715  16.410  11.271   5.917  0.0256 -0.0418 -0.0940
 1697BOLB   C4B40716  16.346  11.588   5.599  0.1750 -0.1844 -0.0821
 1697BOLB   NC240717  17.915  10.198   3.565  0.2197  0.1141  0.2010
 1697BOLB   PO240718  17.862  10.364   3.981  0.1623 -0.2573 -0.1443
 1697BOLB   GL340719  17.769  10.580   4.340 -0.0941 -0.3043 -0.0003
 1697BOLB   GL440720  17.982  10.630   4.605 -0.2910  0.0078  0.2120
 1697BOLB   C1C40721  17.467  10.633   4.689 -0.0890 -0.1430  0.0772
 1697BOLB   C2C40722  17.231  10.745   4.934  0.1448 -0.0531 -0.3154
 1697BOLB   C3C40723  16.873  10.785   5.085  0.2366  0.0462 -0.0878
 1697BOLB   C4C40724  16.638  10.602   5.381  0.0677  0.3970 -0.0161
 1697BOLB   C1D40725  17.851  10.692   5.006  0.0492 -0.0913 -0.0383
 1697BOLB   C2D40726  17.608  10.713   5.261  0.1459  0.1335 -0.2951
 1697BOLB   C3D40727  17.389  10.769   5.589 -0.1522 -0.0755 -0.3011
 1697BOLB   C4D40728  17.033  10.843   5.559 -0.2183 -0.0131  0.2256
 1698BOLB   NC140729  22.628  14.294  19.332  0.2730 -0.0405 -0.0098
 1698BOLB   PO140730  22.713  14.445  19.665  0.0012  0.1660  0.0722
 1698BOLB   GL140731  23.021  14.593  19.820 -0.0519 -0.1534 -0.0556
 1698BOLB   GL240732  22.882  14.904  19.844 -0.0557  0.0223  0.0542
 1698BOLB   C1A40733  23.455  14.784  20.076  0.0096  0.1446 -0.1939
 1698BOLB   C2A40734  23.733  15.102  20.152  0.2851 -0.0060 -0.1396
 1698BOLB   C3A40735  24.037  15.315  20.136  0.0690 -0.3267  0.0089
 1698BOLB   C4A40736  24.435  15.105  19.922 -0.1286 -0.1295 -0.0639
 1698BOLB   C1B40737  23.183  15.174  20.008 -0.1030  0.1115  0.0907
 1698BOLB   C2B40738  23.375  15.407  20.277  0.1867  0.0842  0.0213
 1698BOLB   C3B40739  23.448  15.839  20.346 -0.3629 -0.4489 -0.2523
 1698BOLB   C4B40740  23.780  16.100  20.493 -0.0588  0.0943 -0.0372
 1698BOLB   NC240741  26.657  14.972  21.272  0.0128 -0.1173 -0.0349
 1698BOLB   PO240742  26.673  15.279  20.933 -0.0042 -0.3444 -0.1323
 1698BOLB   GL340743  26.397  15.311  20.647 -0.0921  0.0781  0.0337
 1698BOLB   GL440744  26.104  15.141  20.704 -0.0115 -0.0083  0.2738
 1698BOLB   C1C40745  26.127  15.542  20.293  0.2009 -0.2366  0.0452
 1698BOLB   C2C40746  25.688  15.345  20.065  0.0593 -0.3383 -0.0398
 1698BOLB   C3C40747  25.247  15.426  19.799 -0.1063  0.0794  0.3770
 1698BOLB   C4C40748  24.860  15.260  19.689 -0.1533 -0.1831 -0.0696
 1698BOLB   C1D40749  25.708  14.720  20.656 -0.0191  0.4840  0.0886
 1698BOLB   C2D40750  25.306  14.445  20.603  0.0844 -0.1891  0.1580
 1698BOLB   C3D40751  24.958  14.237  20.481  0.2382  0.0104 -0.1835
 1698BOLB   C4D40752  24.647  13.938  20.355  0.1786  0.2606  0.3351
 1699BOLB   NC140753  10.875   5.578   1.067  0.0745 -0.1068 -0.1153
 1699BOLB   PO140754  10.945   5.194   1.382  0.0170  0.0180  0.0256
 1699BOLB   GL140755  11.073   5.488   1.594  0.3002 -0.0852  0.0292
 1699BOLB   GL240756  11.394   5.531   1.630 -0.0433 -0.2631 -0.1959
 1699BOLB   C1A40757  10.976   5.952   1.770  0.1356 -0.3521 -0.0490
 1699BOLB   C2A40758  11.043   6.148   2.168  0.0555 -0.2756 -0.0177
 1699BOLB   C3A40759  11.055   6.129   2.681 -0.0277  0.0625  0.0105
 1699BOLB   C4A40760  11.205   5.868   2.916  0.0533 -0.0580 -0.3819
 1699BOLB   C1B40761  11.324   5.647   2.054  0.1478  0.4078 -0.0306
 1699BOLB   C2B40762  11.440   5.830   2.451  0.0416  0.1318 -0.3462
 1699BOLB   C3B40763  11.577   6.101   2.825  0.1942 -0.3593  0.0766
 1699BOLB   C4B40764  11.356   6.475   3.078  0.0792  0.1049  0.1191
 1699BOLB   NC240765  10.582   4.838   1.348  0.0187  0.0998  0.1406
 1699BOLB   PO240766  10.410   4.789   1.863 -0.0925  0.1700  0.0515
 1699BOLB   GL340767  10.788   4.752   2.158 -0.3005  0.0434  0.1018
 1699BOLB   GL440768  10.732   4.484   2.339 -0.2713  0.0009 -0.3563
 1699BOLB   C1C40769  10.833   5.054   2.509  0.1342  0.1830 -0.0457
 1699BOLB   C2C40770  10.972   5.162   2.842  0.3153  0.2481 -0.2330
 1699BOLB   C3C40771  11.062   5.228   3.277 -0.1155  0.2744  0.0385
 1699BOLB   C4C40772  11.295   5.634   3.301 -0.4105  0.2336  0.2405
 1699BOLB   C1D40773  10.829   4.619   2.680  0.1398 -0.1434 -0.1911
 1699BOLB   C2D40774  10.774   4.817   3.139 -0.1614  0.2206  0.2186
 1699BOLB   C3D40775  10.603   4.967   3.556  0.3444 -0.1817 -0.0878
 1699BOLB   C4D40776  10.762   5.450   3.720 -0.0815 -0.0598  0.0525
 1700BOLB   NC140777  14.995  12.391   7.247 -0.1387  0.3679 -0.2390
 1700BOLB   PO140778  14.936  12.723   7.642  0.1475  0.1050 -0.1052
 1700BOLB   GL140779  15.134  12.942   7.303 -0.2764 -0.0412  0.0699
 1700BOLB   GL240780  15.327  13.161   7.491 -0.2024  0.0646 -0.0102
 1700BOLB   C1A40781  15.232  13.089   6.961  0.1251  0.0821  0.1343
 1700BOLB   C2A40782  15.507  13.414   6.758 -0.3073 -0.1988  0.2280
 1700BOLB   C3A40783  15.726  13.481   6.411 -0.1508 -0.3971  0.2415
 1700BOLB   C4A40784  15.452  13.412   6.053  0.1218 -0.0966 -0.0207
 1700BOLB   C1B40785  15.584  13.511   7.338  0.4398  0.0294  0.5147
 1700BOLB   C2B40786  15.924  13.641   7.125 -0.2110 -0.2113 -0.2191
 1700BOLB   C3B40787  15.967  13.795   6.822 -0.1240 -0.3523 -0.2353
 1700BOLB   C4B40788  16.058  13.839   6.435  0.2523 -0.3946  0.2746
 1700BOLB   NC240789  14.929  14.195   4.002  0.2002 -0.1175 -0.0232
 1700BOLB   PO240790  15.460  14.180   4.073  0.1905  0.1916  0.0701
 1700BOLB   GL340791  15.286  13.986   4.366 -0.1396 -0.0974  0.0537
 1700BOLB   GL440792  15.011  14.281   4.531  0.1939  0.4299 -0.0669
 1700BOLB   C1C40793  15.263  13.564   4.573 -0.0496 -0.3963  0.4630
 1700BOLB   C2C40794  15.107  13.463   4.941 -0.0579  0.4325 -0.1202
 1700BOLB   C3C40795  15.056  13.313   5.316  0.0648  0.3618  0.0218
 1700BOLB   C4C40796  15.207  13.241   5.783 -0.0679 -0.2513 -0.0014
 1700BOLB   C1D40797  15.083  13.930   4.849 -0.2150 -0.2204 -0.2315
 1700BOLB   C2D40798  14.794  13.772   5.158  0.1617 -0.2022 -0.2469
 1700BOLB   C3D40799  14.727  13.608   5.544 -0.0826 -0.1186  0.1431
 1700BOLB   C4D40800  14.890  13.589   5.813  0.1692  0.0774  0.0508
 1701BOLB   NC140801  24.324   8.359  15.176 -0.2059  0.2321 -0.3077
 1701BOLB   PO140802  24.399   8.062  14.757 -0.1392 -0.0392  0.1180
 1701BOLB   GL140803  24.701   7.985  14.466 -0.1454 -0.1412 -0.0405
 1701BOLB   GL240804  24.857   7.829  14.667  0.2074  0.0930 -0.0250
 1701BOLB   C1A40805  25.046   8.142  14.239 -0.3073  0.1452 -0.1239
 1701BOLB   C2A40806  25.214   8.533  14.288  0.0158  0.1688 -0.3683
 1701BOLB   C3A40807  25.554   8.672  14.030 -0.1798 -0.2055  0.0544
 1701BOLB   C4A40808  25.830   8.575  13.686 -0.1730  0.2011 -0.1782
 1701BOLB   C1B40809  25.146   7.621  14.757 -0.0677 -0.0451  0.1788
 1701BOLB   C2B40810  25.533   7.447  14.621 -0.0479 -0.1245 -0.0637
 1701BOLB   C3B40811  25.756   7.088  14.614 -0.1231  0.2637  0.0633
 1701BOLB   C4B40812  25.616   6.691  14.852 -0.0206  0.3277  0.1518
 1701BOLB   NC240813  27.901   8.921  14.943  0.1789 -0.3844 -0.0439
 1701BOLB   PO240814  27.990   8.703  14.522  0.0554  0.0543 -0.0161
 1701BOLB   GL340815  27.654   8.513  14.661  0.1522 -0.1745  0.4781
 1701BOLB   GL440816  27.533   8.375  14.976  0.0731  0.1594  0.0114
 1701BOLB   C1C40817  27.273   8.526  14.498  0.4446  0.0173  0.2212
 1701BOLB   C2C40818  27.034   8.335  14.106 -0.0056 -0.0479 -0.2681
 1701BOLB   C3C40819  26.557   8.242  14.061  0.3036 -0.0236  0.3030
 1701BOLB   C4C40820  26.197   8.361  13.836 -0.2534 -0.0691  0.0994
 1701BOLB   C1D40821  27.268   8.472  15.386 -0.2967  0.0006  0.1724
 1701BOLB   C2D40822  26.941   8.590  15.595  0.1206 -0.1761 -0.0041
 1701BOLB   C3D40823  26.588   8.805  15.453 -0.0543  0.3287 -0.4624
 1701BOLB   C4D40824  26.240   8.896  15.602 -0.1014 -0.3775  0.1007
 1702BOLB   NC140825  10.927  16.236  16.865  0.3387  0.0575 -0.1720
 1702BOLB   PO140826  10.578  16.577  16.800  0.2093  0.0474  0.0710
 1702BOLB   GL140827  10.354  16.876  16.984  0.1993 -0.2668 -0.2216
 1702BOLB   GL240828  10.094  16.704  17.098  0.3049  0.2502 -0.0654
 1702BOLB   C1A40829  10.270  17.118  17.335  0.1600  0.2331  0.0596
 1702BOLB   C2A40830   9.878  17.237  17.594  0.2859 -0.2259  0.1172
 1702BOLB   C3A40831   9.484  17.287  17.745 -0.0979  0.3545  0.0098
 1702BOLB   C4A40832   9.254  17.529  17.588 -0.0539 -0.3010  0.0086
 1702BOLB   C1B40833   9.582  16.628  17.061  0.2555  0.3546 -0.0770
 1702BOLB   C2B40834   9.222  16.872  16.928  0.0612 -0.0600  0.0385
 1702BOLB   C3B40835   8.767  16.759  17.063  0.0031 -0.1440  0.1140
 1702BOLB   C4B40836   8.519  16.450  16.881  0.0639 -0.2271 -0.3072
 1702BOLB   NC240837   8.171  19.204  17.079 -0.0551 -0.0670  0.3159
 1702BOLB   PO240838   7.959  19.277  17.458  0.1316  0.2172  0.1618
 1702BOLB   GL340839   8.360  19.103  17.588  0.0131  0.0027  0.1670
 1702BOLB   GL440840   8.535  19.125  17.348 -0.0384  0.0198  0.0516
 1702BOLB   C1C40841   8.568  18.837  17.752  0.0285 -0.0788 -0.2110
 1702BOLB   C2C40842   8.507  18.487  17.468 -0.1805 -0.0419 -0.1009
 1702BOLB   C3C40843   8.894  18.262  17.431  0.0149  0.2146 -0.0993
 1702BOLB   C4C40844   9.204  17.918  17.546 -0.2350  0.2070  0.0490
 1702BOLB   C1D40845   9.014  18.753  17.249 -0.2389 -0.0569  0.0789
 1702BOLB   C2D40846   9.331  18.461  17.277 -0.2472  0.1253 -0.1929
 1702BOLB   C3D40847   9.536  18.137  17.144 -0.0495  0.2597 -0.0146
 1702BOLB   C4D40848   9.926  18.056  16.961 -0.1520 -0.4820 -0.0114
 1703BOLB   NC140849  20.647  14.500  10.991 -0.2861 -0.1054  0.2636
 1703BOLB   PO140850  21.089  14.471  10.991  0.1867  0.3882 -0.0185
 1703BOLB   GL140851  21.333  14.758  10.948  0.0570 -0.3143  0.3365
 1703BOLB   GL240852  21.136  15.005  10.836  0.0349 -0.4176  0.0411
 1703BOLB   C1A40853  21.693  15.052  11.014  0.2409  0.0945  0.0020
 1703BOLB   C2A40854  21.861  15.435  10.862  0.2744 -0.3177  0.2093
 1703BOLB   C3A40855  22.286  15.550  10.867 -0.0474 -0.2511 -0.5361
 1703BOLB   C4A40856  22.324  15.984  10.863  0.2632 -0.0628  0.0555
 1703BOLB   C1B40857  21.474  15.100  10.578  0.0527  0.3863  0.1425
 1703BOLB   C2B40858  21.682  15.356  10.310  0.0379 -0.0735 -0.2121
 1703BOLB   C3B40859  22.118  15.536  10.412  0.0910 -0.1946 -0.0486
 1703BOLB   C4B40860  22.515  15.733  10.427 -0.2390 -0.2615 -0.0122
 1703BOLB   NC240861  22.889  17.326   8.809 -0.2751 -0.0053 -0.0876
 1703BOLB   PO240862  23.233  17.262   9.096  0.2235 -0.1834 -0.0553
 1703BOLB   GL340863  22.996  17.273   9.421  0.0312 -0.3799 -0.1423
 1703BOLB   GL440864  22.688  17.274   9.291  0.3748 -0.1808  0.1093
 1703BOLB   C1C40865  23.000  16.963   9.694 -0.0308  0.0119 -0.2160
 1703BOLB   C2C40866  22.701  16.801   9.965  0.4111 -0.0764 -0.1961
 1703BOLB   C3C40867  22.460  16.605  10.186  0.0745 -0.0744 -0.0492
 1703BOLB   C4C40868  22.448  16.334  10.492 -0.3062 -0.2074 -0.2332
 1703BOLB   C1D40869  22.527  16.889   9.483  0.1735  0.2190  0.1064
 1703BOLB   C2D40870  22.413  16.512   9.599 -0.0290 -0.1635  0.2888
 1703BOLB   C3D40871  22.301  16.231   9.934  0.3889  0.2131  0.1705
 1703BOLB   C4D40872  22.625  16.099  10.072 -0.0726 -0.1402 -0.0993
 1704BOLB   NC140873  20.562   3.237  14.778 -0.3160 -0.4821  0.2236
 1704BOLB   PO140874  20.625   3.061  14.356  0.2019 -0.1586  0.0365
 1704BOLB   GL140875  20.810   2.808  14.587 -0.0698  0.0116  0.0734
 1704BOLB   GL240876  21.174   2.862  14.596 -0.1548 -0.0601 -0.1425
 1704BOLB   C1A40877  20.988   2.374  14.745 -0.2903  0.0183 -0.3644
 1704BOLB   C2A40878  21.336   2.085  14.936  0.0697 -0.0645 -0.0894
 1704BOLB   C3A40879  21.632   1.847  15.116 -0.2709  0.1632  0.3391
 1704BOLB   C4A40880  22.120   1.734  15.091  0.0028  0.1055 -0.2000
 1704BOLB   C1B40881  21.478   2.614  14.539  0.0045  0.0628 -0.2288
 1704BOLB   C2B40882  21.637   2.370  14.119 -0.0572  0.1027 -0.0992
 1704BOLB   C3B40883  21.840   2.016  13.857  0.1533 -0.2322  0.3006
 1704BOLB   C4B40884  21.692   1.709  13.578  0.0555 -0.2134 -0.0949
 1704BOLB   NC240885  22.959  -0.544  15.394 -0.0814  0.0690  0.2080
 1704BOLB   PO240886  23.211  -0.329  15.026  0.2520  0.0318  0.1305
 1704BOLB   GL340887  23.033  -0.058  15.274  0.0542  0.2448  0.1972
 1704BOLB   GL440888  23.192  -0.102  15.577 -0.2210 -0.2045  0.1518
 1704BOLB   C1C40889  22.877   0.394  15.189  0.0509 -0.1246 -0.1524
 1704BOLB   C2C40890  22.684   0.678  14.829 -0.0626  0.3960 -0.0418
 1704BOLB   C3C40891  22.348   0.978  14.758  0.1917  0.0151 -0.0838
 1704BOLB   C4C40892  22.244   1.434  15.032 -0.1345  0.0777 -0.2545
 1704BOLB   C1D40893  22.880   0.224  15.724 -0.0117 -0.0406 -0.2379
 1704BOLB   C2D40894  22.627   0.632  15.647 -0.1491 -0.0278 -0.3468
 1704BOLB   C3D40895  22.590   1.023  15.792  0.0543 -0.2012 -0.1889
 1704BOLB   C4D40896  22.407   1.386  15.561  0.0580  0.0158 -0.0205
 1705BOLB   NC140897  10.451  10.423  25.781  0.0473 -0.0347 -0.0549
 1705BOLB   PO140898  10.352  10.094  25.987 -0.1598 -0.0297  0.3031
 1705BOLB   GL140899  10.424   9.815  25.598  0.1615 -0.1702  0.1908
 1705BOLB   GL240900  10.567   9.999  25.476  0.3068 -0.2323  0.1260
 1705BOLB   C1A40901  10.503   9.390  25.273 -0.2188 -0.0427  0.1949
 1705BOLB   C2A40902  10.552   9.160  24.890 -0.0276  0.2449  0.2306
 1705BOLB   C3A40903  10.832   8.769  24.799  0.1544 -0.4405  0.2162
 1705BOLB   C4A40904  11.110   8.551  24.524 -0.1875  0.0071  0.0970
 1705BOLB   C1B40905  10.563  10.218  25.088  0.1284 -0.0174  0.3043
 1705BOLB   C2B40906  10.731  10.448  24.776  0.2690  0.2521  0.0014
 1705BOLB   C3B40907  10.923  10.525  24.336 -0.1016  0.1360  0.4387
 1705BOLB   C4B40908  10.977  10.412  23.884 -0.0721 -0.1669 -0.0326
 1705BOLB   NC240909  11.442   7.449  26.515 -0.1161  0.0001 -0.2177
 1705BOLB   PO240910  11.128   7.725  26.381  0.1028  0.2499 -0.2440
 1705BOLB   GL340911  11.251   7.716  25.948 -0.4586  0.0475  0.0149
 1705BOLB   GL440912  11.054   7.949  25.745  0.0035  0.0783 -0.0516
 1705BOLB   C1C40913  11.306   7.716  25.428  0.2592  0.1742  0.0314
 1705BOLB   C2C40914  11.413   7.795  24.960 -0.0755  0.0525  0.0567
 1705BOLB   C3C40915  11.514   7.935  24.495  0.0800 -0.1656 -0.2080
 1705BOLB   C4C40916  11.344   8.225  24.328  0.0708  0.0931  0.0662
 1705BOLB   C1D40917  11.077   8.200  25.408 -0.1724 -0.2783  0.0765
 1705BOLB   C2D40918  11.000   8.575  25.238 -0.1755  0.3610 -0.2693
 1705BOLB   C3D40919  11.300   8.770  24.997 -0.0984  0.0550  0.0525
 1705BOLB   C4D40920  11.519   8.871  24.662 -0.3924  0.1878  0.2366
 1706BOLB   NC140921  15.132   3.095  19.147 -0.3725 -0.1177 -0.1760
 1706BOLB   PO140922  15.144   2.831  19.383  0.1739 -0.0651  0.1175
 1706BOLB   GL140923  15.156   2.477  19.736 -0.1353 -0.0729  0.1406
 1706BOLB   GL240924  15.182   2.287  19.475 -0.0620  0.2920 -0.2984
 1706BOLB   C1A40925  15.028   2.193  20.153 -0.0853 -0.1365 -0.1481
 1706BOLB   C2A40926  15.112   1.935  20.538  0.2895 -0.0203 -0.3151
 1706BOLB   C3A40927  15.127   1.583  20.636  0.0508 -0.0652  0.1668
 1706BOLB   C4A40928  15.416   1.224  20.688  0.0385  0.2352 -0.2384
 1706BOLB   C1B40929  15.272   1.959  19.817 -0.1368 -0.1288 -0.1389
 1706BOLB   C2B40930  15.179   1.590  20.107  0.0253 -0.3015  0.1427
 1706BOLB   C3B40931  15.271   1.209  20.210 -0.0807 -0.1285 -0.1396
 1706BOLB   C4B40932  15.142   0.797  20.204 -0.0753 -0.1633  0.0911
 1706BOLB   NC240933  15.972  -0.882  21.488 -0.2322 -0.2478  0.0295
 1706BOLB   PO240934  15.520  -1.002  21.482 -0.1992 -0.0131 -0.3653
 1706BOLB   GL340935  15.527  -0.735  21.151  0.0800  0.0351  0.3549
 1706BOLB   GL440936  15.201  -0.791  21.089 -0.0519  0.3666 -0.0436
 1706BOLB   C1C40937  15.411  -0.411  20.877 -0.0434 -0.2595  0.1738
 1706BOLB   C2C40938  15.443  -0.020  20.859  0.2694  0.0113 -0.1260
 1706BOLB   C3C40939  15.481   0.341  20.634 -0.1512 -0.1811 -0.1460
 1706BOLB   C4C40940  15.448   0.788  20.570  0.3212 -0.0323  0.0203
 1706BOLB   C1D40941  14.945  -0.463  21.061 -0.0823 -0.1084  0.0277
 1706BOLB   C2D40942  14.858  -0.137  20.827  0.1054 -0.1172 -0.2756
 1706BOLB   C3D40943  15.045  -0.082  20.478  0.2645 -0.1467 -0.1997
 1706BOLB   C4D40944  15.022   0.242  20.245 -0.0750 -0.0447 -0.0871
 1707BOLB   NC140945  27.418  14.634  20.469  0.1358  0.1215  0.0055
 1707BOLB   PO140946  27.300  14.993  20.104 -0.0818  0.0400  0.1629
 1707BOLB   GL140947  27.001  14.681  20.111  0.2198  0.0549 -0.1000
 1707BOLB   GL240948  26.823  14.580  20.449 -0.3172  0.1984 -0.1357
 1707BOLB   C1A40949  26.641  14.482  19.982  0.4590  0.4570  0.2295
 1707BOLB   C2A40950  26.182  14.499  19.897  0.1262  0.0429 -0.2648
 1707BOLB   C3A40951  25.865  14.341  19.789  0.2511 -0.0763 -0.0583
 1707BOLB   C4A40952  25.734  14.127  19.482 -0.1646  0.1232 -0.0220
 1707BOLB   C1B40953  26.408  14.434  20.575  0.0880  0.0040  0.0313
 1707BOLB   C2B40954  26.012  14.373  20.492  0.3284 -0.2167  0.3024
 1707BOLB   C3B40955  25.675  14.129  20.503 -0.1639 -0.1925  0.4528
 1707BOLB   C4B40956  25.463  13.698  20.607 -0.0160  0.0542  0.3584
 1707BOLB   NC240957  27.641  13.889  19.051  0.3154 -0.2669 -0.1835
 1707BOLB   PO240958  27.263  13.801  19.396 -0.3014  0.0036  0.2498
 1707BOLB   GL340959  26.974  13.460  19.363 -0.0831  0.1515 -0.0948
 1707BOLB   GL440960  27.090  13.163  19.312 -0.0652  0.1268 -0.0732
 1707BOLB   C1C40961  26.607  13.353  19.176 -0.0203  0.1654 -0.2593
 1707BOLB   C2C40962  26.170  13.236  19.208  0.1177  0.2379 -0.2973
 1707BOLB   C3C40963  25.850  13.519  19.230  0.0298  0.0757  0.1016
 1707BOLB   C4C40964  25.597  13.961  19.212  0.3272  0.0187  0.2068
 1707BOLB   C1D40965  26.700  12.939  19.401 -0.1309 -0.1385 -0.0967
 1707BOLB   C2D40966  26.338  12.695  19.340  0.0230 -0.2063 -0.2094
 1707BOLB   C3D40967  26.140  12.808  18.944  0.1971  0.1172 -0.2996
 1707BOLB   C4D40968  26.072  12.738  18.521  0.0175  0.1637 -0.1951
 1708BOLB   NC140969  17.906   4.010  19.488  0.0207 -0.1683  0.0344
 1708BOLB   PO140970  18.093   3.497  19.393 -0.1100  0.2138 -0.1354
 1708BOLB   GL140971  18.348   3.137  19.559 -0.1293  0.0197  0.1459
 1708BOLB   GL240972  18.428   2.875  19.277  0.1401 -0.1515  0.1338
 1708BOLB   C1A40973  18.461   2.907  19.773  0.0393  0.2157 -0.1322
 1708BOLB   C2A40974  18.712   2.520  19.780 -0.1875 -0.1049 -0.5425
 1708BOLB   C3A40975  18.930   2.403  20.070 -0.2510  0.3221 -0.0895
 1708BOLB   C4A40976  19.205   2.118  20.209  0.1848 -0.1731 -0.1555
 1708BOLB   C1B40977  18.400   2.425  19.395  0.2166  0.0444 -0.3511
 1708BOLB   C2B40978  18.544   2.114  19.503  0.3136 -0.1046 -0.2692
 1708BOLB   C3B40979  18.607   1.733  19.769  0.0287 -0.0717 -0.0271
 1708BOLB   C4B40980  18.598   1.304  19.846  0.0224 -0.0792  0.0446
 1708BOLB   NC240981  19.984   0.421  21.885  0.1039  0.1018  0.1660
 1708BOLB   PO240982  20.287   0.679  22.077  0.1315 -0.0151  0.0547
 1708BOLB   GL340983  19.981   0.993  21.917 -0.0578  0.1985  0.0334
 1708BOLB   GL440984  19.709   0.892  21.844  0.3491 -0.0401  0.2753
 1708BOLB   C1C40985  19.896   1.339  21.633 -0.0402 -0.2720 -0.4033
 1708BOLB   C2C40986  19.901   1.693  21.354  0.2588  0.1981  0.3132
 1708BOLB   C3C40987  19.683   1.847  20.901  0.1040  0.3081 -0.0020
 1708BOLB   C4C40988  19.445   1.979  20.554 -0.0428 -0.3236 -0.3354
 1708BOLB   C1D40989  19.451   1.189  21.682 -0.2381 -0.0268 -0.2240
 1708BOLB   C2D40990  19.286   1.657  21.631 -0.2079  0.3137  0.0072
 1708BOLB   C3D40991  19.254   2.046  21.285  0.1760 -0.2616 -0.0380
 1708BOLB   C4D40992  18.934   2.338  21.209  0.0589 -0.3420 -0.0761
 1709BOLB   NC140993  18.367  15.690  22.317 -0.0859  0.1348  0.2450
 1709BOLB   PO140994  17.831  15.723  22.319  0.0565 -0.1099 -0.3722
 1709BOLB   GL140995  18.099  16.087  22.568  0.1592 -0.0457  0.2571
 1709BOLB   GL240996  18.110  16.448  22.388  0.0142  0.0067  0.0486
 1709BOLB   C1A40997  18.291  16.303  22.873  0.3732  0.0605  0.0276
 1709BOLB   C2A40998  18.366  16.662  23.079  0.1525  0.1069  0.1120
 1709BOLB   C3A40999  18.110  16.850  23.388  0.0620 -0.1133  0.2072
 1709BOLB   C4A41000  17.875  17.086  23.649 -0.1609  0.0055  0.1692
 1709BOLB   C1B41001  18.160  16.906  22.527  0.0779 -0.0104 -0.2367
 1709BOLB   C2B41002  18.123  17.401  22.571 -0.1812  0.1990  0.2065
 1709BOLB   C3B41003  18.084  17.748  22.802 -0.1029 -0.1289  0.1920
 1709BOLB   C4B41004  18.212  18.145  22.853 -0.0184  0.3561 -0.2560
 1709BOLB   NC241005  18.245  17.480  25.663 -0.0227 -0.0697  0.2548
 1709BOLB   PO241006  17.954  17.771  25.802 -0.4197 -0.2075  0.0052
 1709BOLB   GL341007  17.784  17.695  25.395 -0.0694  0.1804 -0.2796
 1709BOLB   GL441008  17.684  17.359  25.617 -0.2003  0.4231  0.0698
 1709BOLB   C1C41009  17.950  17.630  25.025  0.1772  0.1530 -0.0514
 1709BOLB   C2C41010  17.935  17.454  24.523 -0.0851 -0.1911 -0.1341
 1709BOLB   C3C41011  17.623  17.360  24.235  0.0774  0.0742 -0.1747
 1709BOLB   C4C41012  17.625  17.227  23.911 -0.3195 -0.3851  0.1087
 1709BOLB   C1D41013  17.795  16.958  25.322  0.1011  0.2631  0.1271
 1709BOLB   C2D41014  17.667  16.681  25.079 -0.0211  0.2618 -0.1502
 1709BOLB   C3D41015  17.589  16.534  24.715 -0.2266 -0.0338 -0.3413
 1709BOLB   C4D41016  17.738  16.320  24.397  0.3031 -0.0610 -0.1268
 1710BOLB   NC141017   3.644  13.233  10.769 -0.0703 -0.0540  0.1853
 1710BOLB   PO141018   3.597  13.636  10.548 -0.2858 -0.3026  0.2558
 1710BOLB   GL141019   3.938  13.353  10.306 -0.0169  0.0667 -0.1027
 1710BOLB   GL241020   3.662  13.146  10.248  0.3047 -0.1232 -0.1149
 1710BOLB   C1A41021   4.321  13.132  10.125 -0.2077 -0.0948 -0.1571
 1710BOLB   C2A41022   4.331  12.674  10.071  0.0977  0.2783 -0.2913
 1710BOLB   C3A41023   4.249  12.242  10.121 -0.3161 -0.0910  0.2533
 1710BOLB   C4A41024   4.204  11.882  10.013 -0.1240  0.0094 -0.0384
 1710BOLB   C1B41025   3.544  12.693  10.356  0.1398  0.2238  0.1392
 1710BOLB   C2B41026   3.833  12.529  10.446 -0.1804 -0.1548  0.2937
 1710BOLB   C3B41027   4.142  12.885  10.520  0.2498 -0.0804  0.1930
 1710BOLB   C4B41028   4.448  13.178  10.605 -0.0218  0.0498 -0.1287
 1710BOLB   NC241029   1.796  11.111   9.339 -0.0751  0.1974 -0.0160
 1710BOLB   PO241030   2.158  10.877   9.237  0.4591 -0.3080 -0.0754
 1710BOLB   GL341031   2.659  10.863   9.227  0.0059  0.1653  0.3734
 1710BOLB   GL441032   2.733  11.130   9.024 -0.0110  0.2083  0.0755
 1710BOLB   C1C41033   3.076  10.907   9.359  0.0139 -0.0751  0.1465
 1710BOLB   C2C41034   3.491  11.035   9.350  0.0569  0.1439  0.1662
 1710BOLB   C3C41035   3.921  11.093   9.511 -0.1879 -0.1657  0.3323
 1710BOLB   C4C41036   4.252  11.412   9.791 -0.0735  0.0722  0.0693
 1710BOLB   C1D41037   2.998  11.124   8.944  0.1129 -0.0844 -0.0812
 1710BOLB   C2D41038   3.178  11.316   8.570 -0.0494 -0.3263 -0.3232
 1710BOLB   C3D41039   3.464  11.615   8.561 -0.4051  0.0968 -0.0853
 1710BOLB   C4D41040   3.621  11.992   8.369 -0.0491 -0.1751 -0.5009
 1711BOLB   NC141041  10.471  34.264   7.821 -0.1193  0.0492 -0.1592
 1711BOLB   PO141042  10.099  34.426   7.611 -0.1710 -0.2101 -0.0980
 1711BOLB   GL141043  10.262  34.843   7.799 -0.0097 -0.2506  0.2286
 1711BOLB   GL241044   9.980  35.212   7.762  0.0557  0.4903 -0.0244
 1711BOLB   C1A41045  10.070  34.947   8.247  0.0532 -0.1270  0.0581
 1711BOLB   C2A41046  10.283  35.182   8.637 -0.1690 -0.0429 -0.2394
 1711BOLB   C3A41047  10.661  35.283   8.890 -0.1330  0.0462 -0.0907
 1711BOLB   C4A41048  11.091  35.319   8.653 -0.3023  0.3009 -0.0117
 1711BOLB   C1B41049  10.072  35.599   7.612 -0.2278 -0.2175 -0.2898
 1711BOLB   C2B41050  10.068  35.933   7.317 -0.3867 -0.1914  0.0511
 1711BOLB   C3B41051   9.888  36.327   7.147 -0.0667  0.3312  0.4125
 1711BOLB   C4B41052   9.799  36.717   6.959  0.1524  0.2381 -0.1389
 1711BOLB   NC241053  10.306  33.342   7.894 -0.4479  0.3195 -0.1715
 1711BOLB   PO241054  10.700  33.407   8.128  0.2433  0.1194  0.4646
 1711BOLB   GL341055  10.796  33.634   8.502 -0.2876 -0.1365 -0.2218
 1711BOLB   GL441056  11.079  33.665   8.378 -0.2700  0.1120  0.2330
 1711BOLB   C1C41057  10.856  33.922   8.722  0.0802 -0.2227  0.2505
 1711BOLB   C2C41058  11.185  34.227   8.862  0.0428  0.0809  0.2662
 1711BOLB   C3C41059  11.362  34.589   8.737 -0.3234 -0.2591 -0.0530
 1711BOLB   C4C41060  11.404  35.023   8.749 -0.3786 -0.0128  0.0444
 1711BOLB   C1D41061  11.236  34.033   8.392  0.1177  0.2177  0.1551
 1711BOLB   C2D41062  11.504  34.445   8.265  0.0189  0.1460  0.3410
 1711BOLB   C3D41063  11.283  34.876   8.257  0.3111  0.1528  0.0438
 1711BOLB   C4D41064  11.096  35.257   8.126  0.1734  0.1277 -0.2878
 1712BOLB   NC141065  24.880   1.059  13.466 -0.2406 -0.0554 -0.0269
 1712BOLB   PO141066  24.550   0.857  13.735 -0.2914 -0.0602  0.2996
 1712BOLB   GL141067  24.518   1.405  13.871  0.2137  0.1330  0.0276
 1712BOLB   GL241068  24.319   1.411  14.146 -0.1180 -0.0765  0.0519
 1712BOLB   C1A41069  24.389   1.769  13.701  0.1399  0.0900 -0.0928
 1712BOLB   C2A41070  24.118   2.024  13.622 -0.4632 -0.3089 -0.1226
 1712BOLB   C3A41071  24.154   2.373  13.501  0.0840  0.0109  0.3106
 1712BOLB   C4A41072  24.292   2.788  13.230  0.0045 -0.2443  0.1253
 1712BOLB   C1B41073  23.946   1.528  13.964  0.3776 -0.2860 -0.4303
 1712BOLB   C2B41074  23.528   1.674  13.843 -0.0705  0.3702  0.0303
 1712BOLB   C3B41075  23.300   1.667  14.069  0.1951  0.1394 -0.4264
 1712BOLB   C4B41076  22.995   1.420  14.342 -0.0020 -0.2754 -0.0188
 1712BOLB   NC241077  26.514   3.647  13.467  0.0061 -0.1075 -0.1756
 1712BOLB   PO241078  26.067   3.688  13.416  0.3206 -0.2621 -0.1676
 1712BOLB   GL341079  25.616   3.713  13.448  0.1805  0.1301  0.2773
 1712BOLB   GL441080  25.380   3.454  13.671  0.4563  0.2017  0.1529
 1712BOLB   C1C41081  25.291   3.912  13.151 -0.1446 -0.0605 -0.1848
 1712BOLB   C2C41082  24.840   3.781  13.339  0.1183  0.2547 -0.0198
 1712BOLB   C3C41083  24.621   3.478  13.427  0.1618  0.1138 -0.4291
 1712BOLB   C4C41084  24.604   3.034  13.320  0.1291 -0.3313  0.0721
 1712BOLB   C1D41085  24.934   3.645  13.887  0.0961  0.1586  0.1838
 1712BOLB   C2D41086  24.650   4.070  13.928 -0.1980 -0.0598  0.0371
 1712BOLB   C3D41087  24.416   4.452  14.140 -0.1879 -0.2933 -0.1768
 1712BOLB   C4D41088  24.125   4.660  14.398  0.1166 -0.1988 -0.3225
 1713BOLB   NC141089  22.305  12.536  19.915 -0.3082 -0.0369  0.0315
 1713BOLB   PO141090  22.778  12.571  20.185  0.1060 -0.1757 -0.0791
 1713BOLB   GL141091  23.178  12.701  20.209 -0.0840  0.0581  0.0953
 1713BOLB   GL241092  23.315  13.011  20.175 -0.2273  0.0727  0.0823
 1713BOLB   C1A41093  23.547  12.554  20.499  0.1473 -0.0235 -0.3917
 1713BOLB   C2A41094  23.794  12.534  20.757  0.0528 -0.0055 -0.1453
 1713BOLB   C3A41095  24.272  12.496  20.766  0.3326 -0.3072  0.0315
 1713BOLB   C4A41096  24.325  12.221  21.125  0.0323  0.0507 -0.0634
 1713BOLB   C1B41097  23.727  13.165  20.239  0.1305  0.0688 -0.0074
 1713BOLB   C2B41098  24.063  13.053  19.948 -0.2971 -0.0265 -0.2870
 1713BOLB   C3B41099  24.534  13.028  20.024 -0.1677 -0.3316 -0.1310
 1713BOLB   C4B41100  24.943  12.965  20.352 -0.0822 -0.1050  0.1121
 1713BOLB   NC241101  26.669  12.827  22.312  0.0582  0.1561 -0.2523
 1713BOLB   PO241102  26.438  13.207  22.166 -0.0236  0.1970  0.0474
 1713BOLB   GL341103  26.036  12.932  22.093 -0.0772  0.0013 -0.1412
 1713BOLB   GL441104  26.234  12.658  22.123  0.1637  0.2146  0.2337
 1713BOLB   C1C41105  25.758  12.764  21.906 -0.0958  0.2107 -0.0156
 1713BOLB   C2C41106  25.406  12.617  21.707  0.0537  0.1288  0.3342
 1713BOLB   C3C41107  25.144  12.269  21.563 -0.1955 -0.1096  0.0487
 1713BOLB   C4C41108  24.735  12.072  21.313 -0.4317  0.1542  0.0146
 1713BOLB   C1D41109  26.032  12.349  21.866 -0.1215  0.2373  0.2078
 1713BOLB   C2D41110  25.785  12.351  21.395  0.1093  0.1434  0.1184
 1713BOLB   C3D41111  25.441  12.549  21.089  0.1628 -0.1512  0.4191
 1713BOLB   C4D41112  25.213  12.564  20.634 -0.0584 -0.0190 -0.0631
 1714BOLB   NC141113  18.044   1.403  16.143 -0.0557 -0.0819  0.0360
 1714BOLB   PO141114  17.971   1.270  15.751  0.0246  0.1145  0.1867
 1714BOLB   GL141115  18.180   0.877  15.874  0.1321 -0.1070 -0.0869
 1714BOLB   GL241116  18.525   0.719  15.803 -0.0795 -0.2177  0.0868
 1714BOLB   C1A41117  18.116   0.396  15.967  0.1212 -0.1356  0.1037
 1714BOLB   C2A41118  18.085  -0.000  15.795  0.0869  0.0407 -0.1690
 1714BOLB   C3A41119  17.766  -0.386  15.744 -0.1530  0.0095  0.0375
 1714BOLB   C4A41120  17.461  -0.807  15.724  0.0495  0.1189  0.1203
 1714BOLB   C1B41121  18.829   0.371  15.762  0.2337  0.0165  0.2368
 1714BOLB   C2B41122  19.140   0.162  15.873  0.1065 -0.0739  0.1090
 1714BOLB   C3B41123  19.572   0.150  15.948  0.0764 -0.2836 -0.1060
 1714BOLB   C4B41124  19.929  -0.041  15.730 -0.1577 -0.0071 -0.2833
 1714BOLB   NC241125  17.945  -2.852  14.624 -0.1494  0.0343 -0.0899
 1714BOLB   PO241126  17.840  -2.955  15.023 -0.1309  0.1267  0.1696
 1714BOLB   GL341127  17.888  -2.569  15.079  0.1089 -0.3077  0.1359
 1714BOLB   GL441128  18.148  -2.486  14.894  0.1852 -0.1890  0.1429
 1714BOLB   C1C41129  17.745  -2.191  14.922 -0.0119  0.3532  0.0290
 1714BOLB   C2C41130  17.763  -1.744  15.141  0.0577  0.1909 -0.0735
 1714BOLB   C3C41131  17.777  -1.335  15.146 -0.0369  0.2475 -0.2194
 1714BOLB   C4C41132  17.474  -1.135  15.424  0.0086  0.0657  0.0369
 1714BOLB   C1D41133  18.175  -1.930  14.888  0.1653  0.3887 -0.2529
 1714BOLB   C2D41134  18.281  -1.768  14.520 -0.1267  0.3132  0.0835
 1714BOLB   C3D41135  18.060  -1.983  14.214  0.0547  0.5582 -0.1527
 1714BOLB   C4D41136  18.053  -2.314  13.758  0.3697 -0.2842 -0.0436
 1715BOLB   NC141137  16.656  17.404  20.294  0.1317  0.0854 -0.0514
 1715BOLB   PO141138  16.595  17.514  20.624  0.3815 -0.0470 -0.2252
 1715BOLB   GL141139  16.651  17.961  20.636 -0.1655  0.0449 -0.0554
 1715BOLB   GL241140  16.926  17.939  20.818  0.2857  0.3859 -0.1127
 1715BOLB   C1A41141  16.848  18.439  20.700  0.0445  0.2632 -0.0850
 1715BOLB   C2A41142  16.809  18.766  21.020 -0.4319 -0.0402 -0.0091
 1715BOLB   C3A41143  16.642  18.929  21.356  0.1883  0.2229  0.3857
 1715BOLB   C4A41144  16.779  18.911  21.697  0.0136  0.0978  0.1915
 1715BOLB   C1B41145  16.823  18.241  21.157 -0.0303  0.2812  0.2217
 1715BOLB   C2B41146  16.899  18.457  21.496  0.1848  0.2743  0.2551
 1715BOLB   C3B41147  17.211  18.531  21.812  0.1668  0.2587  0.2349
 1715BOLB   C4B41148  17.471  18.790  22.085 -0.1471 -0.0382 -0.1042
 1715BOLB   NC241149  17.320  21.048  23.291  0.0310  0.0305  0.0396
 1715BOLB   PO241150  17.687  20.749  23.164  0.0716  0.3113 -0.4878
 1715BOLB   GL341151  17.538  20.546  22.781 -0.1659 -0.2966 -0.0754
 1715BOLB   GL441152  17.192  20.678  22.676 -0.1204 -0.1178 -0.0821
 1715BOLB   C1C41153  17.709  20.124  22.687  0.0329 -0.0480 -0.0334
 1715BOLB   C2C41154  17.524  19.659  22.538  0.1356 -0.1723  0.0473
 1715BOLB   C3C41155  17.150  19.560  22.329 -0.2588  0.1527  0.3331
 1715BOLB   C4C41156  16.996  19.174  21.983 -0.1632 -0.0725  0.0145
 1715BOLB   C1D41157  16.820  20.680  22.418 -0.0531 -0.1696  0.1125
 1715BOLB   C2D41158  16.758  20.483  22.035  0.1534  0.0493 -0.1681
 1715BOLB   C3D41159  16.714  20.236  21.796  0.0615  0.2278  0.0053
 1715BOLB   C4D41160  16.738  19.857  21.601 -0.0366 -0.4955 -0.0405
 1716BOLB   NC141161  10.970  15.821  13.404  0.0170 -0.0643 -0.0096
 1716BOLB   PO141162  10.525  15.917  13.494  0.1046 -0.0446 -0.3153
 1716BOLB   GL141163  10.384  16.238  13.422 -0.1717  0.1568 -0.2172
 1716BOLB   GL241164  10.728  16.500  13.374 -0.1137 -0.0031 -0.1469
 1716BOLB   C1A41165  10.276  16.606  13.201  0.4059 -0.0454 -0.0435
 1716BOLB   C2A41166   9.976  16.925  13.002  0.0668  0.0392 -0.2507
 1716BOLB   C3A41167   9.650  17.079  12.854 -0.0231  0.0592  0.0799
 1716BOLB   C4A41168   9.247  17.215  12.664 -0.3277  0.2468 -0.0501
 1716BOLB   C1B41169  10.615  16.982  13.230 -0.2685  0.0062  0.3582
 1716BOLB   C2B41170  10.527  17.357  13.489 -0.1680 -0.0717 -0.3125
 1716BOLB   C3B41171  10.257  17.654  13.453  0.0795 -0.2268 -0.1548
 1716BOLB   C4B41172   9.794  17.807  13.436 -0.2101 -0.0160 -0.2347
 1716BOLB   NC241173   7.905  19.434  12.824 -0.3453  0.2403  0.0249
 1716BOLB   PO241174   8.016  19.392  13.245 -0.0652 -0.1875  0.1431
 1716BOLB   GL341175   8.130  18.949  12.941 -0.4905  0.2319 -0.0191
 1716BOLB   GL441176   8.410  18.947  12.959 -0.0557 -0.2992 -0.0111
 1716BOLB   C1C41177   8.267  18.550  12.683  0.0705  0.0411  0.0539
 1716BOLB   C2C41178   8.328  18.105  12.605 -0.4944 -0.1564 -0.2834
 1716BOLB   C3C41179   8.535  17.672  12.704  0.4532  0.1295 -0.1724
 1716BOLB   C4C41180   8.878  17.354  12.637 -0.1026 -0.1215  0.0738
 1716BOLB   C1D41181   8.595  18.769  13.286  0.0658 -0.2058  0.0372
 1716BOLB   C2D41182   8.844  18.431  13.477 -0.1591 -0.0588 -0.2173
 1716BOLB   C3D41183   8.870  18.057  13.275 -0.3308 -0.0633 -0.2225
 1716BOLB   C4D41184   8.937  17.772  12.934  0.0810  0.1118 -0.2554
 1717BOLB   NC141185  12.566  12.956   9.196 -0.1164  0.2868 -0.1233
 1717BOLB   PO141186  12.562  13.428   9.182 -0.3876 -0.0554 -0.0201
 1717BOLB   GL141187  12.389  13.549   8.898 -0.0313 -0.2222  0.3335
 1717BOLB   GL241188  12.132  13.650   9.067  0.1519  0.0122 -0.2994
 1717BOLB   C1A41189  12.459  13.953   8.524  0.0034 -0.0453  0.1356
 1717BOLB   C2A41190  12.211  14.071   8.299  0.1133 -0.6267  0.1414
 1717BOLB   C3A41191  12.028  14.258   8.003 -0.1738 -0.1676  0.2840
 1717BOLB   C4A41192  11.917  14.177   7.617  0.1576 -0.0464  0.1097
 1717BOLB   C1B41193  12.092  14.090   8.894 -0.2302  0.2064  0.0671
 1717BOLB   C2B41194  11.819  14.324   8.918 -0.0863 -0.0707  0.0998
 1717BOLB   C3B41195  11.394  14.309   8.977  0.1216 -0.0219 -0.2916
 1717BOLB   C4B41196  10.888  14.320   8.869 -0.0325  0.1612 -0.1843
 1717BOLB   NC241197  11.018  15.342   5.696 -0.1275  0.0855  0.0742
 1717BOLB   PO241198  11.385  15.687   5.728 -0.3243 -0.0444 -0.1175
 1717BOLB   GL341199  11.459  15.503   6.135 -0.1258 -0.0356  0.0531
 1717BOLB   GL441200  11.465  15.829   6.351 -0.2200  0.0730 -0.1017
 1717BOLB   C1C41201  11.881  15.189   6.203  0.0435 -0.1136 -0.1536
 1717BOLB   C2C41202  11.890  14.803   6.441 -0.0912 -0.2965 -0.1540
 1717BOLB   C3C41203  11.717  14.577   6.792 -0.1167  0.3978  0.0049
 1717BOLB   C4C41204  11.650  14.265   7.190 -0.3225 -0.4111  0.0592
 1717BOLB   C1D41205  11.584  15.543   6.613  0.3302 -0.0283  0.1798
 1717BOLB   C2D41206  12.054  15.364   6.664  0.1262 -0.2247 -0.0518
 1717BOLB   C3D41207  12.304  15.059   6.533  0.3099  0.1967 -0.1652
 1717BOLB   C4D41208  12.784  15.044   6.609 -0.2979 -0.0039  0.1162
 1718BOLB   NC141209  17.666   3.582  19.073 -0.1496 -0.2955  0.2014
 1718BOLB   PO141210  17.662   3.146  19.233  0.1251  0.0463 -0.1465
 1718BOLB   GL141211  17.900   2.799  19.309 -0.1035  0.1841 -0.0537
 1718BOLB   GL241212  18.071   2.711  19.611 -0.1310 -0.3132 -0.2170
 1718BOLB   C1A41213  17.796   2.314  19.349  0.0500  0.2176 -0.1336
 1718BOLB   C2A41214  18.016   1.879  19.659 -0.1384  0.0235 -0.0680
 1718BOLB   C3A41215  18.084   1.689  19.963 -0.2895 -0.0033  0.1039
 1718BOLB   C4A41216  18.244   1.612  20.340  0.1898  0.0915  0.1499
 1718BOLB   C1B41217  18.149   2.369  19.816  0.1641  0.2219 -0.0036
 1718BOLB   C2B41218  18.331   2.134  20.127 -0.2272  0.1521  0.0629
 1718BOLB   C3B41219  18.742   1.916  20.200  0.1088 -0.4336 -0.0655
 1718BOLB   C4B41220  19.116   1.658  20.351 -0.2109  0.3179  0.2767
 1718BOLB   NC241221  19.050   0.232  21.843  0.1786 -0.0295  0.2384
 1718BOLB   PO241222  19.474   0.364  22.013  0.0056 -0.2920  0.1873
 1718BOLB   GL341223  19.401   0.501  21.552 -0.0732  0.2584 -0.1229
 1718BOLB   GL441224  19.769   0.403  21.457  0.0812 -0.2639  0.5469
 1718BOLB   C1C41225  19.277   0.793  21.293 -0.3643  0.0368 -0.1517
 1718BOLB   C2C41226  19.025   1.119  21.092  0.0561 -0.0052 -0.4592
 1718BOLB   C3C41227  18.850   1.437  20.795  0.0561 -0.1859 -0.0355
 1718BOLB   C4C41228  18.556   1.660  20.566  0.0479 -0.0887 -0.2350
 1718BOLB   C1D41229  19.622   0.474  21.058  0.1568 -0.1796  0.1627
 1718BOLB   C2D41230  19.416   0.801  20.776  0.1828 -0.3645 -0.3777
 1718BOLB   C3D41231  19.085   0.958  20.592  0.0140  0.1225 -0.1255
 1718BOLB   C4D41232  18.895   1.241  20.309 -0.0082 -0.2368  0.1825
 1719BOLB   NC141233   9.535   8.779  20.010  0.2203 -0.1775  0.1318
 1719BOLB   PO141234   9.512   8.374  19.796 -0.1088 -0.1655  0.1448
 1719BOLB   GL141235   9.116   8.488  20.100 -0.2187  0.1129  0.0412
 1719BOLB   GL241236   9.063   8.655  20.282  0.0029  0.2846 -0.0277
 1719BOLB   C1A41237   8.727   8.206  20.198  0.1108 -0.1537 -0.0761
 1719BOLB   C2A41238   8.421   7.881  20.455 -0.1120  0.0358  0.1603
 1719BOLB   C3A41239   8.040   7.779  20.581  0.1741  0.1354 -0.0673
 1719BOLB   C4A41240   7.726   7.735  20.930 -0.3350 -0.0350 -0.1529
 1719BOLB   C1B41241   8.642   8.669  20.420  0.1048 -0.1930  0.4883
 1719BOLB   C2B41242   8.352   8.968  20.279  0.1841  0.1479  0.0674
 1719BOLB   C3B41243   7.906   8.893  20.226 -0.0898 -0.4213  0.0886
 1719BOLB   C4B41244   7.551   9.038  20.083  0.0287  0.2124  0.2720
 1719BOLB   NC241245   5.648   6.867  21.931 -0.2146  0.2329 -0.3301
 1719BOLB   PO241246   5.930   6.522  22.063 -0.3573  0.2858 -0.0399
 1719BOLB   GL341247   6.163   6.732  21.771 -0.2893 -0.0074  0.2003
 1719BOLB   GL441248   5.939   6.887  21.463  0.0806  0.2252  0.0819
 1719BOLB   C1C41249   6.412   7.043  21.726  0.0273  0.1430 -0.1769
 1719BOLB   C2C41250   6.655   7.296  21.493  0.2167  0.0596 -0.0986
 1719BOLB   C3C41251   6.978   7.363  21.179  0.1663 -0.2830  0.0205
 1719BOLB   C4C41252   7.335   7.588  21.031 -0.3030 -0.0478 -0.2329
 1719BOLB   C1D41253   6.156   6.869  21.092  0.5263  0.2398  0.1035
 1719BOLB   C2D41254   6.422   6.535  20.886  0.0204 -0.1093  0.1897
 1719BOLB   C3D41255   6.558   6.563  20.455  0.1678 -0.2974  0.1492
 1719BOLB   C4D41256   6.517   6.682  20.057 -0.2103  0.0986 -0.0011
 1720BOLB   NC141257  23.260   7.806  12.510  0.1626  0.4184 -0.1214
 1720BOLB   PO141258  23.120   8.187  12.247 -0.1175 -0.1283  0.0562
 1720BOLB   GL141259  23.532   8.037  12.074  0.2016  0.0075 -0.0326
 1720BOLB   GL241260  23.686   8.291  11.888  0.0570 -0.0972  0.0854
 1720BOLB   C1A41261  23.847   7.692  12.240 -0.1508  0.0543  0.3134
 1720BOLB   C2A41262  24.183   7.595  12.292 -0.1384 -0.0780 -0.3147
 1720BOLB   C3A41263  24.650   7.587  12.254  0.0501 -0.1179 -0.0905
 1720BOLB   C4A41264  25.017   7.661  11.962  0.0656  0.0160  0.3772
 1720BOLB   C1B41265  24.016   7.907  11.775  0.1332  0.1764 -0.2228
 1720BOLB   C2B41266  24.375   7.740  11.871 -0.0297  0.1649 -0.0128
 1720BOLB   C3B41267  24.707   7.500  11.638  0.0472 -0.2457 -0.2347
 1720BOLB   C4B41268  24.771   7.223  11.334 -0.5182  0.1719  0.1257
 1720BOLB   NC241269  27.208   6.841  11.315 -0.1443 -0.0060 -0.1109
 1720BOLB   PO241270  26.990   6.587  10.945  0.1960  0.1178  0.0771
 1720BOLB   GL341271  26.616   6.759  11.050  0.0612 -0.1236 -0.2007
 1720BOLB   GL441272  26.680   6.897  11.308  0.0585 -0.0920  0.0418
 1720BOLB   C1C41273  26.236   6.610  11.406 -0.2707 -0.0600 -0.0471
 1720BOLB   C2C41274  25.852   6.764  11.602 -0.2654  0.0859  0.0069
 1720BOLB   C3C41275  25.603   7.209  11.582 -0.3316  0.1019  0.2269
 1720BOLB   C4C41276  25.316   7.414  11.760  0.1917 -0.0302  0.2346
 1720BOLB   C1D41277  26.255   7.220  11.246 -0.0907  0.4370 -0.1313
 1720BOLB   C2D41278  25.936   7.444  11.285 -0.0568 -0.0554 -0.2114
 1720BOLB   C3D41279  25.635   7.739  11.577 -0.3681 -0.1026 -0.1799
 1720BOLB   C4D41280  25.194   7.944  11.639  0.1600 -0.1184  0.1549
 1721BOLB   NC141281  14.724  16.669  11.288  0.2765 -0.3901 -0.0890
 1721BOLB   PO141282  14.454  16.720  11.653 -0.1996  0.2199 -0.3271
 1721BOLB   GL141283  14.126  16.942  11.401  0.0635  0.0225  0.1536
 1721BOLB   GL241284  13.805  16.986  11.374  0.2462 -0.0974  0.0683
 1721BOLB   C1A41285  14.143  17.335  11.282 -0.0488  0.2016 -0.1284
 1721BOLB   C2A41286  14.100  17.821  11.002 -0.3693  0.0753 -0.1417
 1721BOLB   C3A41287  14.142  18.218  10.893  0.1071 -0.1925  0.1162
 1721BOLB   C4A41288  14.054  18.619  10.957  0.0034 -0.1851  0.3303
 1721BOLB   C1B41289  13.499  17.242  11.268 -0.2111  0.0484 -0.1033
 1721BOLB   C2B41290  13.169  17.536  11.230  0.2802 -0.1377 -0.0800
 1721BOLB   C3B41291  13.148  17.808  10.885 -0.1542 -0.2490  0.1526
 1721BOLB   C4B41292  13.158  18.274  10.738 -0.1877  0.0563 -0.0169
 1721BOLB   NC241293  14.222  21.053  10.689  0.1907  0.2715  0.1221
 1721BOLB   PO241294  13.912  20.849  10.737 -0.0655 -0.3463  0.2731
 1721BOLB   GL341295  14.095  20.578  11.029 -0.1932  0.2099  0.0642
 1721BOLB   GL441296  14.128  20.719  11.315  0.0868 -0.2799 -0.1618
 1721BOLB   C1C41297  14.114  20.228  11.219 -0.0021 -0.2924 -0.0132
 1721BOLB   C2C41298  14.146  19.932  11.133 -0.1423  0.0050  0.0821
 1721BOLB   C3C41299  14.259  19.444  10.996  0.0525 -0.1717  0.2051
 1721BOLB   C4C41300  14.284  19.059  10.924 -0.1191  0.2990  0.2344
 1721BOLB   C1D41301  14.479  20.727  11.626 -0.0453  0.2032  0.1511
 1721BOLB   C2D41302  14.819  20.928  11.901  0.1344 -0.3291  0.0967
 1721BOLB   C3D41303  15.141  21.071  12.224  0.0774  0.1269  0.3266
 1721BOLB   C4D41304  15.372  21.078  12.571 -0.0725  0.1931  0.0919
 1722BOLB   NC141305  18.730  12.237   8.721 -0.0471 -0.2736 -0.0396
 1722BOLB   PO141306  18.384  12.132   8.643 -0.1213  0.1791 -0.1681
 1722BOLB   GL141307  18.606  12.612   8.437 -0.0516  0.3497  0.2830
 1722BOLB   GL241308  18.729  12.858   8.630  0.1122  0.2057  0.0806
 1722BOLB   C1A41309  18.830  12.732   8.075  0.1044 -0.1181 -0.0387
 1722BOLB   C2A41310  19.156  13.106   7.965  0.2841  0.1743 -0.0334
 1722BOLB   C3A41311  19.434  13.278   7.620  0.0615 -0.3447  0.0110
 1722BOLB   C4A41312  19.589  13.025   7.274  0.1127  0.1300  0.0130
 1722BOLB   C1B41313  19.142  12.937   8.429 -0.0146 -0.1309 -0.0469
 1722BOLB   C2B41314  19.610  12.770   8.497  0.0030 -0.4603 -0.3314
 1722BOLB   C3B41315  20.029  12.920   8.454  0.2547 -0.0859 -0.0024
 1722BOLB   C4B41316  20.405  13.099   8.308  0.0000  0.1743 -0.0370
 1722BOLB   NC241317  20.513  13.025   4.631 -0.3070 -0.1289  0.3019
 1722BOLB   PO241318  20.631  12.869   5.056 -0.0790 -0.4303 -0.1263
 1722BOLB   GL341319  20.533  12.911   5.468  0.1290  0.0397  0.2923
 1722BOLB   GL441320  20.229  12.849   5.406  0.0525 -0.0973 -0.3373
 1722BOLB   C1C41321  20.324  12.807   6.005 -0.0336 -0.0225  0.0003
 1722BOLB   C2C41322  20.132  12.732   6.351  0.0007  0.1310 -0.0811
 1722BOLB   C3C41323  20.210  12.671   6.767 -0.0669 -0.0670 -0.0013
 1722BOLB   C4C41324  19.902  12.733   7.083 -0.1054  0.2261 -0.4810
 1722BOLB   C1D41325  19.773  12.797   5.520 -0.0135 -0.0367  0.1583
 1722BOLB   C2D41326  19.441  12.646   5.777 -0.0139 -0.0485  0.2418
 1722BOLB   C3D41327  19.272  12.315   6.014 -0.1941  0.0991  0.0534
 1722BOLB   C4D41328  19.044  12.123   6.450  0.1604 -0.0185  0.2031
 1723BOLB   NC141329  21.965   6.860  12.551 -0.0435 -0.4650 -0.0403
 1723BOLB   PO141330  22.092   6.500  12.265 -0.5216 -0.0745 -0.1414
 1723BOLB   GL141331  22.292   6.344  11.983  0.2894 -0.0269  0.3300
 1723BOLB   GL241332  22.305   6.100  11.966  0.2378 -0.0396 -0.0695
 1723BOLB   C1A41333  22.545   6.346  11.607  0.0675  0.1565  0.0645
 1723BOLB   C2A41334  22.809   6.048  11.531  0.2713 -0.0778  0.3323
 1723BOLB   C3A41335  23.127   5.796  11.701 -0.2922  0.3001 -0.0123
 1723BOLB   C4A41336  23.364   5.528  11.500 -0.3056  0.0285 -0.2221
 1723BOLB   C1B41337  22.734   5.849  11.980  0.1976  0.1610 -0.0245
 1723BOLB   C2B41338  22.907   5.504  12.192 -0.2488  0.1456 -0.0587
 1723BOLB   C3B41339  22.861   5.070  12.266 -0.2252  0.0969 -0.1762
 1723BOLB   C4B41340  23.086   4.798  12.293  0.0666  0.0134  0.3662
 1723BOLB   NC241341  25.032   4.043   9.680 -0.3015 -0.2828 -0.1898
 1723BOLB   PO241342  24.752   4.445   9.731 -0.1966  0.0931  0.0052
 1723BOLB   GL341343  24.373   4.628   9.892  0.0073 -0.0058 -0.4117
 1723BOLB   GL441344  24.251   4.760   9.616 -0.1573  0.1354 -0.1010
 1723BOLB   C1C41345  24.186   5.005  10.247  0.1686  0.2659  0.0899
 1723BOLB   C2C41346  23.966   5.184  10.509 -0.0423  0.0307  0.1706
 1723BOLB   C3C41347  23.612   5.237  10.837 -0.3505 -0.2125  0.1401
 1723BOLB   C4C41348  23.403   5.229  11.203  0.0065 -0.0519 -0.0831
 1723BOLB   C1D41349  23.782   4.854   9.992 -0.0263 -0.1006 -0.1113
 1723BOLB   C2D41350  23.597   4.834  10.420 -0.3257 -0.2333  0.0616
 1723BOLB   C3D41351  23.278   4.806  10.816  0.0855 -0.0465 -0.2307
 1723BOLB   C4D41352  23.077   4.720  11.228 -0.0612  0.1448  0.2544
 1724BOLB   NC141353  23.353   7.476  18.049 -0.1649 -0.2607  0.2801
 1724BOLB   PO141354  23.187   7.599  18.381  0.0304  0.1824 -0.0463
 1724BOLB   GL141355  23.548   7.366  18.594  0.0699  0.0286  0.2052
 1724BOLB   GL241356  23.801   7.379  18.313 -0.1562  0.0143 -0.2828
 1724BOLB   C1A41357  23.835   7.261  18.888  0.0975 -0.1349  0.1659
 1724BOLB   C2A41358  24.260   7.108  18.978 -0.0983 -0.0044  0.1808
 1724BOLB   C3A41359  24.648   7.001  19.011 -0.1791  0.1222 -0.1297
 1724BOLB   C4A41360  24.940   6.647  19.042 -0.2913 -0.1677 -0.3993
 1724BOLB   C1B41361  24.131   7.194  18.473  0.0333 -0.2870 -0.0592
 1724BOLB   C2B41362  24.553   7.074  18.500  0.2083  0.2051  0.1610
 1724BOLB   C3B41363  25.005   7.077  18.671  0.2796 -0.0792 -0.2043
 1724BOLB   C4B41364  25.492   7.234  18.557  0.0342 -0.0535 -0.0969
 1724BOLB   NC241365  27.508   5.246  18.830 -0.0767 -0.1298 -0.0496
 1724BOLB   PO241366  27.177   5.608  18.914  0.0093  0.1983  0.1400
 1724BOLB   GL341367  26.731   5.835  18.640  0.2019  0.1271  0.3223
 1724BOLB   GL441368  26.709   5.988  18.369 -0.3053 -0.3505 -0.0825
 1724BOLB   C1C41369  26.318   5.903  18.753 -0.1292 -0.1347 -0.5652
 1724BOLB   C2C41370  26.009   6.185  18.765 -0.0557  0.1699  0.2276
 1724BOLB   C3C41371  25.765   6.470  19.020  0.1898 -0.0150 -0.1840
 1724BOLB   C4C41372  25.368   6.666  19.014  0.2814 -0.2070 -0.1010
 1724BOLB   C1D41373  26.484   6.183  18.041 -0.1854 -0.1076 -0.0620
 1724BOLB   C2D41374  26.117   6.008  17.770  0.0789  0.1350 -0.2018
 1724BOLB   C3D41375  25.838   5.788  17.461  0.2291 -0.2170 -0.2068
 1724BOLB   C4D41376  25.867   5.523  17.054  0.1223  0.0546  0.2821
 1725BOLB   NC141377  19.665  17.978  15.290  0.2007  0.3106 -0.2931
 1725BOLB   PO141378  19.412  17.864  14.885 -0.2113  0.0058 -0.0764
 1725BOLB   GL141379  19.356  18.222  14.641 -0.0133 -0.0926 -0.0964
 1725BOLB   GL241380  19.176  18.313  14.395 -0.0920  0.1887 -0.2700
 1725BOLB   C1A41381  19.683  18.526  14.571 -0.1570  0.1991  0.2243
 1725BOLB   C2A41382  20.086  18.673  14.553  0.0723  0.1604 -0.0033
 1725BOLB   C3A41383  20.099  19.238  14.621  0.0902  0.0024  0.4533
 1725BOLB   C4A41384  19.790  19.639  14.582  0.1331 -0.1180 -0.0882
 1725BOLB   C1B41385  19.277  18.716  14.289  0.1963  0.0005 -0.0930
 1725BOLB   C2B41386  19.153  19.092  14.321  0.2111 -0.0844  0.2274
 1725BOLB   C3B41387  19.053  19.448  14.328 -0.1558  0.0160 -0.3522
 1725BOLB   C4B41388  18.967  19.788  14.045  0.0404  0.1630  0.1787
 1725BOLB   NC241389  20.142  21.799  13.201  0.1979 -0.2169  0.2180
 1725BOLB   PO241390  20.381  21.431  13.013  0.2221 -0.2921 -0.0421
 1725BOLB   GL341391  20.185  21.034  13.010  0.2096  0.1926 -0.1660
 1725BOLB   GL441392  20.395  20.856  12.841  0.1524  0.3042 -0.0489
 1725BOLB   C1C41393  19.991  20.810  13.296 -0.0323 -0.2323 -0.4825
 1725BOLB   C2C41394  19.970  20.464  13.560  0.2965 -0.0473 -0.1344
 1725BOLB   C3C41395  19.958  20.300  13.962  0.0340  0.0335 -0.3112
 1725BOLB   C4C41396  19.994  19.972  14.331 -0.0516 -0.0586  0.0721
 1725BOLB   C1D41397  20.306  20.523  12.432 -0.1272 -0.2339 -0.1551
 1725BOLB   C2D41398  20.218  20.412  12.060 -0.2611 -0.1371 -0.1580
 1725BOLB   C3D41399  19.921  20.284  11.828 -0.2139 -0.1839 -0.0198
 1725BOLB   C4D41400  19.670  20.006  12.008  0.2149 -0.2229 -0.1272
 1726BOLB   NC141401   8.719  11.573  17.828  0.3385  0.1948 -0.0991
 1726BOLB   PO141402   8.450  11.334  18.082  0.1104 -0.0744  0.0430
 1726BOLB   GL141403   8.097  11.397  18.314 -0.1665  0.0940  0.0567
 1726BOLB   GL241404   7.925  11.594  18.607 -0.0891 -0.0327 -0.1637
 1726BOLB   C1A41405   7.575  11.280  18.370  0.2283  0.3144  0.2208
 1726BOLB   C2A41406   7.192  11.082  18.357  0.2318  0.1988 -0.1313
 1726BOLB   C3A41407   6.754  11.044  18.573  0.1972 -0.1522  0.0568
 1726BOLB   C4A41408   6.424  11.249  18.727  0.3159  0.1538  0.2695
 1726BOLB   C1B41409   7.536  11.676  18.840 -0.0852  0.0695  0.0730
 1726BOLB   C2B41410   7.218  11.911  19.024 -0.1272 -0.0682  0.1700
 1726BOLB   C3B41411   7.052  11.833  19.343  0.0500 -0.1145  0.3932
 1726BOLB   C4B41412   6.797  12.143  19.573 -0.5535  0.3284  0.0678
 1726BOLB   NC241413   4.544  11.964  18.445  0.3006 -0.2783  0.1542
 1726BOLB   PO241414   4.711  12.146  18.893  0.1300 -0.2975  0.3314
 1726BOLB   GL341415   5.071  11.856  18.949  0.0276  0.1092 -0.0580
 1726BOLB   GL441416   5.250  11.638  18.699 -0.1636 -0.1183 -0.4291
 1726BOLB   C1C41417   5.214  11.901  19.289 -0.2232  0.0688 -0.3062
 1726BOLB   C2C41418   5.568  11.643  19.606  0.0298 -0.3707 -0.0397
 1726BOLB   C3C41419   6.072  11.595  19.634  0.0214  0.2722  0.1617
 1726BOLB   C4C41420   6.274  11.399  19.146 -0.0530  0.1716 -0.0170
 1726BOLB   C1D41421   5.380  11.236  18.578 -0.3939  0.0820 -0.1145
 1726BOLB   C2D41422   5.609  10.990  18.344  0.0426  0.0128  0.2374
 1726BOLB   C3D41423   5.930  10.733  17.935  0.1750 -0.4614 -0.1700
 1726BOLB   C4D41424   6.229  10.747  17.817 -0.2215 -0.0485 -0.0067
 1727BOLB   NC141425  23.910  10.299  12.910  0.0088  0.3256 -0.0456
 1727BOLB   PO141426  23.821  10.186  12.516  0.1187 -0.2598  0.1807
 1727BOLB   GL141427  24.154  10.210  12.485 -0.0120  0.0010  0.1956
 1727BOLB   GL241428  24.216  10.505  12.579  0.0350  0.1713 -0.0215
 1727BOLB   C1A41429  24.431  10.150  12.195  0.3374 -0.0577 -0.0720
 1727BOLB   C2A41430  24.698  10.267  11.977 -0.0186 -0.3295  0.1126
 1727BOLB   C3A41431  25.117  10.426  12.132 -0.1368 -0.2287 -0.0142
 1727BOLB   C4A41432  25.440  10.632  12.043 -0.0559  0.4068 -0.0248
 1727BOLB   C1B41433  24.512  10.651  12.283 -0.0312 -0.0926 -0.2779
 1727BOLB   C2B41434  24.776  10.768  11.996 -0.1296  0.1557  0.2406
 1727BOLB   C3B41435  24.946  10.516  11.601  0.1407  0.3582 -0.2912
 1727BOLB   C4B41436  25.212  10.189  11.292 -0.0342 -0.0678 -0.1479
 1727BOLB   NC241437  27.732  10.380  11.515 -0.3750  0.0181 -0.0197
 1727BOLB   PO241438  27.921  10.496  11.877  0.2141  0.1339  0.0859
 1727BOLB   GL341439  27.557  10.324  12.026 -0.0822 -0.0453  0.2456
 1727BOLB   GL441440  27.640   9.978  11.917 -0.0236  0.0266  0.1799
 1727BOLB   C1C41441  27.116  10.414  11.895 -0.0903  0.1826 -0.0804
 1727BOLB   C2C41442  26.684  10.455  11.849 -0.1696  0.0586  0.0259
 1727BOLB   C3C41443  26.286  10.602  11.788 -0.0332 -0.0607 -0.1486
 1727BOLB   C4C41444  25.886  10.528  11.964 -0.4594  0.0886 -0.2424
 1727BOLB   C1D41445  27.244   9.807  11.967  0.0847  0.0022  0.0131
 1727BOLB   C2D41446  27.109   9.535  12.411  0.1329 -0.2269  0.0129
 1727BOLB   C3D41447  26.883   9.299  12.773 -0.0583 -0.0431  0.1242
 1727BOLB   C4D41448  26.638   8.978  13.145  0.2218 -0.2632  0.0193
 1728BOLB   NC141449  15.560  18.058  13.437  0.0950  0.0749  0.3444
 1728BOLB   PO141450  15.393  18.051  13.871 -0.1038  0.1540  0.3009
 1728BOLB   GL141451  15.158  18.336  13.700 -0.3129  0.1507 -0.0108
 1728BOLB   GL241452  15.414  18.580  13.590  0.1494  0.0861 -0.1297
 1728BOLB   C1A41453  14.850  18.599  13.603  0.0616  0.0250 -0.0530
 1728BOLB   C2A41454  14.865  18.995  13.365 -0.2536 -0.0898 -0.0752
 1728BOLB   C3A41455  15.005  19.301  13.001  0.2337  0.0467 -0.0293
 1728BOLB   C4A41456  14.754  19.661  13.027 -0.1486 -0.1460  0.0842
 1728BOLB   C1B41457  15.518  18.961  13.312  0.0444 -0.1796  0.3874
 1728BOLB   C2B41458  15.683  19.382  13.153 -0.1306 -0.1721  0.1876
 1728BOLB   C3B41459  15.503  19.705  13.273  0.2328  0.2050  0.0072
 1728BOLB   C4B41460  15.436  19.711  13.725 -0.3270  0.2911 -0.0542
 1728BOLB   NC241461  14.286  21.693  12.056 -0.0602  0.2302 -0.2490
 1728BOLB   PO241462  14.113  21.778  12.503 -0.1158 -0.1238 -0.1859
 1728BOLB   GL341463  14.150  21.422  12.867 -0.2817  0.0025 -0.2720
 1728BOLB   GL441464  13.980  21.483  13.115  0.4054  0.1519  0.1030
 1728BOLB   C1C41465  13.842  21.018  12.980  0.0840  0.0817  0.3288
 1728BOLB   C2C41466  13.922  20.633  12.783  0.0764  0.1129 -0.0972
 1728BOLB   C3C41467  14.268  20.312  12.877  0.1500 -0.0461 -0.1800
 1728BOLB   C4C41468  14.559  20.090  13.003 -0.0785 -0.1151  0.0042
 1728BOLB   C1D41469  14.269  21.075  13.184 -0.0471  0.0679  0.0493
 1728BOLB   C2D41470  14.364  20.613  13.330 -0.0418 -0.3624 -0.0904
 1728BOLB   C3D41471  14.720  20.328  13.413  0.2043  0.0131  0.1029
 1728BOLB   C4D41472  15.131  20.053  13.488 -0.1222 -0.2610  0.0040
 1729BOLB   NC141473  20.939  15.172   5.374 -0.3823  0.0716  0.1565
 1729BOLB   PO141474  20.641  15.146   5.680  0.0278 -0.3737  0.0521
 1729BOLB   GL141475  20.299  15.170   5.977 -0.0291  0.0326 -0.0906
 1729BOLB   GL241476  20.048  15.401   6.076 -0.0383  0.0290  0.0339
 1729BOLB   C1A41477  19.872  14.960   6.185 -0.1531  0.2708 -0.3061
 1729BOLB   C2A41478  19.623  14.680   6.452 -0.3217  0.3104  0.1522
 1729BOLB   C3A41479  19.375  14.371   6.380  0.6069  0.1811  0.0869
 1729BOLB   C4A41480  19.043  14.110   6.402 -0.2340 -0.3043 -0.1302
 1729BOLB   C1B41481  19.594  15.426   6.171 -0.1879  0.1234  0.1095
 1729BOLB   C2B41482  19.197  15.525   6.499  0.0694  0.2359  0.1514
 1729BOLB   C3B41483  19.115  15.290   6.872 -0.4761  0.0042  0.1735
 1729BOLB   C4B41484  18.922  15.440   7.211 -0.0224  0.1850 -0.0394
 1729BOLB   NC241485  18.388  14.191   4.346 -0.1210 -0.0020  0.2067
 1729BOLB   PO241486  18.707  14.498   4.261  0.0058  0.1640 -0.1123
 1729BOLB   GL341487  18.661  14.423   4.701 -0.2286  0.1593  0.1410
 1729BOLB   GL441488  18.805  14.491   5.051 -0.0756  0.1030 -0.0704
 1729BOLB   C1C41489  18.276  14.381   5.006  0.0776 -0.0423  0.1047
 1729BOLB   C2C41490  18.374  14.257   5.498  0.0365 -0.2183  0.4108
 1729BOLB   C3C41491  18.483  13.882   5.803  0.3492  0.1916  0.0820
 1729BOLB   C4C41492  18.794  13.938   6.169  0.1664 -0.0170 -0.0736
 1729BOLB   C1D41493  18.811  14.556   5.383 -0.3394 -0.0652  0.2942
 1729BOLB   C2D41494  18.932  14.720   5.784  0.0043 -0.2653  0.1940
 1729BOLB   C3D41495  18.961  14.560   6.204 -0.0833  0.0851  0.3092
 1729BOLB   C4D41496  18.940  14.571   6.607 -0.1183  0.0712  0.2299
 1730BOLB   NC141497  15.819   1.825  15.874 -0.0923 -0.1863 -0.2622
 1730BOLB   PO141498  15.657   1.395  15.740 -0.3045  0.1884 -0.1482
 1730BOLB   GL141499  15.710   0.969  15.896 -0.0380 -0.2049  0.2651
 1730BOLB   GL241500  15.665   0.796  15.625  0.2622 -0.2717  0.0242
 1730BOLB   C1A41501  15.539   0.673  16.175 -0.1803  0.0575  0.0032
 1730BOLB   C2A41502  15.545   0.325  16.466 -0.1903  0.1131 -0.0629
 1730BOLB   C3A41503  15.558  -0.129  16.489  0.2164 -0.1453 -0.2763
 1730BOLB   C4A41504  15.350  -0.404  16.257 -0.2186 -0.1006 -0.0615
 1730BOLB   C1B41505  15.139   0.729  15.744  0.1199 -0.1797  0.0906
 1730BOLB   C2B41506  14.906   0.303  15.726 -0.0898 -0.1895  0.0713
 1730BOLB   C3B41507  14.779  -0.129  15.577 -0.2207 -0.0445 -0.1349
 1730BOLB   C4B41508  14.817  -0.483  15.234 -0.3009  0.0848 -0.0588
 1730BOLB   NC241509  15.627  -2.846  16.729 -0.0473 -0.2430 -0.1208
 1730BOLB   PO241510  15.649  -2.614  16.284  0.0099 -0.1032  0.2576
 1730BOLB   GL341511  15.600  -2.175  16.311  0.2189 -0.2114  0.2358
 1730BOLB   GL441512  15.346  -2.204  16.587  0.0285  0.1495  0.2518
 1730BOLB   C1C41513  15.309  -1.757  16.272  0.3037 -0.1645 -0.1939
 1730BOLB   C2C41514  15.266  -1.422  16.444  0.0302  0.0585 -0.1187
 1730BOLB   C3C41515  14.933  -1.088  16.398  0.2864  0.0928 -0.0234
 1730BOLB   C4C41516  15.022  -0.745  16.189  0.3106 -0.0675  0.0879
 1730BOLB   C1D41517  15.018  -1.975  16.574 -0.1328  0.0406  0.1060
 1730BOLB   C2D41518  14.844  -1.713  16.363 -0.1232 -0.0810 -0.3647
 1730BOLB   C3D41519  14.940  -1.553  15.988  0.2706  0.0340 -0.1885
 1730BOLB   C4D41520  14.738  -1.133  15.731  0.2423 -0.1921 -0.0385
 1731BOLB   NC141521  10.932   2.110   3.308  0.1287 -0.1983  0.2497
 1731BOLB   PO141522  10.548   2.214   3.310  0.1007  0.1260  0.0789
 1731BOLB   GL141523  10.343   2.466   3.731 -0.1629  0.1007  0.2036
 1731BOLB   GL241524  10.177   2.442   3.988  0.0147  0.1504  0.0642
 1731BOLB   C1A41525  10.362   2.895   3.905  0.0891 -0.0957 -0.1539
 1731BOLB   C2A41526  10.483   3.289   3.747 -0.3048  0.0780  0.2561
 1731BOLB   C3A41527  10.871   3.388   3.886 -0.0424  0.1640  0.0051
 1731BOLB   C4A41528  11.150   3.711   3.727  0.0991  0.0142  0.0001
 1731BOLB   C1B41529   9.826   2.430   4.272  0.0495  0.2001 -0.1137
 1731BOLB   C2B41530   9.598   2.428   4.651 -0.1212  0.3365  0.1027
 1731BOLB   C3B41531   9.740   2.486   5.112  0.0732  0.0542 -0.2585
 1731BOLB   C4B41532   9.952   2.767   5.285  0.3942  0.5326  0.2980
 1731BOLB   NC241533   8.765   4.227   3.838  0.1716  0.0077 -0.3261
 1731BOLB   PO241534   9.012   4.134   3.538 -0.0737 -0.1245  0.0657
 1731BOLB   GL341535   9.367   4.224   3.621  0.4659 -0.0517  0.3453
 1731BOLB   GL441536   9.218   4.365   4.001 -0.2151 -0.2513 -0.1792
 1731BOLB   C1C41537   9.689   4.192   3.898  0.1390  0.1447 -0.0689
 1731BOLB   C2C41538  10.144   4.318   4.037  0.0358  0.4091  0.0152
 1731BOLB   C3C41539  10.562   4.263   3.905  0.0434  0.0638  0.2387
 1731BOLB   C4C41540  10.951   4.115   3.787 -0.4315 -0.0691  0.0952
 1731BOLB   C1D41541   9.578   4.489   4.299 -0.2779  0.4636  0.0580
 1731BOLB   C2D41542   9.938   4.576   4.438 -0.0167  0.1017  0.0525
 1731BOLB   C3D41543  10.393   4.648   4.381  0.3333 -0.0221 -0.2203
 1731BOLB   C4D41544  10.858   4.373   4.280  0.1210  0.0186 -0.0178
 1732BOLB   NC141545  23.291  12.999  18.162  0.2535 -0.1816 -0.0070
 1732BOLB   PO141546  23.739  13.182  18.166  0.0634 -0.2642 -0.1623
 1732BOLB   GL141547  24.074  13.472  18.218  0.0913 -0.3166 -0.4888
 1732BOLB   GL241548  24.253  13.707  18.136 -0.0965  0.2283 -0.0256
 1732BOLB   C1A41549  24.602  13.414  18.458 -0.0945  0.1112  0.0797
 1732BOLB   C2A41550  24.966  13.413  18.848  0.2109 -0.2813  0.0014
 1732BOLB   C3A41551  25.189  13.648  19.160 -0.5178 -0.3132  0.0056
 1732BOLB   C4A41552  25.217  13.706  19.614  0.2795  0.5100  0.0415
 1732BOLB   C1B41553  24.523  14.058  18.072 -0.0628  0.0923 -0.1213
 1732BOLB   C2B41554  24.626  14.433  17.877  0.0930 -0.1326  0.0408
 1732BOLB   C3B41555  25.004  14.625  17.852  0.1301  0.2537 -0.0566
 1732BOLB   C4B41556  25.200  14.853  18.155 -0.1130  0.0071 -0.0816
 1732BOLB   NC241557  26.195  14.928  21.649  0.0016  0.1022 -0.1189
 1732BOLB   PO241558  26.247  14.655  21.233 -0.2452  0.2255  0.0024
 1732BOLB   GL341559  26.055  14.376  21.025 -0.2302 -0.2660  0.3062
 1732BOLB   GL441560  25.876  14.052  21.242 -0.0661 -0.2275  0.0220
 1732BOLB   C1C41561  26.173  14.057  20.854  0.0965  0.1473 -0.0762
 1732BOLB   C2C41562  26.084  13.838  20.480  0.0381 -0.1264 -0.2248
 1732BOLB   C3C41563  25.892  13.958  20.117 -0.3534  0.0630 -0.2071
 1732BOLB   C4C41564  25.495  14.004  19.892 -0.2278 -0.2423 -0.1382
 1732BOLB   C1D41565  25.607  13.652  21.341 -0.0772  0.0459  0.1902
 1732BOLB   C2D41566  25.183  13.563  21.189  0.1470  0.0573  0.2498
 1732BOLB   C3D41567  24.794  13.337  20.920 -0.0303  0.0300 -0.0882
 1732BOLB   C4D41568  24.643  12.925  20.825  0.2117 -0.4957  0.3456
 1733BOLB   NC141569  26.198   2.388  17.914  0.3153 -0.1325 -0.0942
 1733BOLB   PO141570  26.087   2.846  17.737  0.1630 -0.0178 -0.0387
 1733BOLB   GL141571  25.674   2.970  17.602  0.1971 -0.2176  0.0032
 1733BOLB   GL241572  25.678   3.118  17.776  0.1649 -0.3583 -0.0624
 1733BOLB   C1A41573  25.444   3.152  17.317  0.0454 -0.0568 -0.1803
 1733BOLB   C2A41574  25.072   3.519  17.184 -0.1083  0.2352  0.1996
 1733BOLB   C3A41575  24.602   3.481  17.046 -0.3770 -0.0804  0.0266
 1733BOLB   C4A41576  24.328   3.317  17.017  0.0447 -0.3270 -0.1039
 1733BOLB   C1B41577  25.460   3.497  17.876  0.2390  0.0024 -0.0887
 1733BOLB   C2B41578  25.044   3.546  17.905  0.0654  0.1411  0.3429
 1733BOLB   C3B41579  24.735   3.791  17.846 -0.0857  0.1051 -0.0330
 1733BOLB   C4B41580  24.438   4.064  17.655  0.2185  0.2846 -0.1061
 1733BOLB   NC241581  25.132   1.333  15.851 -0.2059 -0.1405  0.2215
 1733BOLB   PO241582  25.226   1.225  16.295 -0.1458 -0.3243 -0.2542
 1733BOLB   GL341583  24.987   1.668  16.257  0.1614 -0.0878 -0.0309
 1733BOLB   GL441584  25.167   1.892  16.386 -0.2766 -0.1697  0.2340
 1733BOLB   C1C41585  24.586   1.870  16.251  0.0707 -0.3215  0.0996
 1733BOLB   C2C41586  24.426   2.299  16.330 -0.3095 -0.0666 -0.1405
 1733BOLB   C3C41587  24.332   2.650  16.523 -0.1813  0.1192 -0.3082
 1733BOLB   C4C41588  24.200   3.035  16.738 -0.1386  0.1575 -0.1517
 1733BOLB   C1D41589  24.986   2.264  16.659  0.2796  0.1199 -0.2579
 1733BOLB   C2D41590  24.839   2.594  16.892  0.0041 -0.3564  0.0551
 1733BOLB   C3D41591  24.527   2.741  17.029 -0.2166 -0.1346  0.0320
 1733BOLB   C4D41592  24.075   2.849  17.133  0.2761  0.2961  0.0139
 1734BOLB   NC141593  10.601   7.383  21.078 -0.0465 -0.0693 -0.2356
 1734BOLB   PO141594  10.368   7.299  20.643 -0.0287 -0.1658 -0.0427
 1734BOLB   GL141595  10.056   7.017  20.718 -0.3871  0.2837  0.1956
 1734BOLB   GL241596   9.977   6.804  20.552  0.0800 -0.0074  0.1546
 1734BOLB   C1A41597   9.733   7.008  20.955 -0.1452 -0.0935 -0.0987
 1734BOLB   C2A41598   9.351   7.030  21.146  0.1017  0.3493 -0.2471
 1734BOLB   C3A41599   8.887   6.896  21.117  0.2550 -0.1452 -0.0040
 1734BOLB   C4A41600   8.619   6.859  21.513 -0.1515  0.2605  0.2908
 1734BOLB   C1B41601   9.523   6.661  20.677 -0.1095 -0.2030  0.2376
 1734BOLB   C2B41602   9.121   6.508  20.857  0.0379 -0.0936  0.1901
 1734BOLB   C3B41603   9.088   6.415  21.349 -0.0010 -0.2217 -0.1718
 1734BOLB   C4B41604   9.071   6.148  21.698  0.1536 -0.1771  0.0977
 1734BOLB   NC241605   7.080   6.802  23.588 -0.0418 -0.0027 -0.1868
 1734BOLB   PO241606   6.936   6.574  23.219  0.3772  0.0222 -0.3157
 1734BOLB   GL341607   7.368   6.652  23.172 -0.1730  0.5097  0.3438
 1734BOLB   GL441608   7.484   6.980  23.324 -0.0064 -0.1036  0.4087
 1734BOLB   C1C41609   7.678   6.603  22.735 -0.2377  0.0199 -0.2912
 1734BOLB   C2C41610   7.980   6.883  22.406  0.1120 -0.5514  0.1629
 1734BOLB   C3C41611   8.157   6.838  22.057 -0.2668  0.0328 -0.1565
 1734BOLB   C4C41612   8.441   6.691  21.897  0.1030 -0.2892  0.0425
 1734BOLB   C1D41613   7.847   6.966  23.111  0.3057 -0.0411 -0.0356
 1734BOLB   C2D41614   8.128   7.172  22.963  0.1959 -0.0762 -0.1912
 1734BOLB   C3D41615   8.186   7.392  22.566  0.1790  0.0028 -0.3847
 1734BOLB   C4D41616   8.452   7.639  22.311 -0.0411 -0.3117 -0.1796
 1735BOLB   NC141617   9.989  12.119  20.695 -0.2515 -0.2541 -0.0284
 1735BOLB   PO141618   9.677  11.998  20.300  0.2913  0.1452  0.0028
 1735BOLB   GL141619   9.558  11.833  20.716  0.0973  0.2594  0.1683
 1735BOLB   GL241620   9.551  12.050  20.860  0.1945  0.0557 -0.2609
 1735BOLB   C1A41621   9.043  11.952  20.873 -0.0665  0.0804  0.3621
 1735BOLB   C2A41622   8.665  11.641  20.899  0.1039 -0.2428 -0.3025
 1735BOLB   C3A41623   8.503  11.759  21.257  0.2999 -0.1085 -0.0825
 1735BOLB   C4A41624   8.385  12.105  21.510  0.0736 -0.2148 -0.0171
 1735BOLB   C1B41625   9.408  12.432  21.062 -0.0901  0.2189 -0.1723
 1735BOLB   C2B41626   9.075  12.599  21.328 -0.2704 -0.0053  0.0512
 1735BOLB   C3B41627   8.689  12.515  21.516  0.0298 -0.0545  0.1185
 1735BOLB   C4B41628   8.732  12.316  21.770 -0.1435  0.3978  0.1505
 1735BOLB   NC241629   6.076  12.093  22.847 -0.0421 -0.0163 -0.0572
 1735BOLB   PO241630   6.453  12.177  22.729  0.1209 -0.0307  0.1327
 1735BOLB   GL341631   6.784  12.273  22.404 -0.2807 -0.0285 -0.1475
 1735BOLB   GL441632   7.170  12.288  22.497  0.2163 -0.3379 -0.0891
 1735BOLB   C1C41633   7.013  12.427  22.054  0.1411  0.1117 -0.1305
 1735BOLB   C2C41634   7.405  12.565  21.792  0.2127  0.0684 -0.2412
 1735BOLB   C3C41635   7.720  12.451  21.657  0.0575  0.1674 -0.4572
 1735BOLB   C4C41636   8.119  12.396  21.588  0.0004 -0.0045  0.1792
 1735BOLB   C1D41637   7.395  12.072  22.041  0.0869  0.3057 -0.1167
 1735BOLB   C2D41638   7.097  12.183  21.650 -0.3241  0.1036 -0.2062
 1735BOLB   C3D41639   7.258  12.263  21.267  0.2237  0.0692  0.2389
 1735BOLB   C4D41640   7.537  12.480  20.924 -0.1379 -0.0394  0.3664
 1736BOLB   NC141641  15.270   1.606  17.906 -0.2330 -0.3755  0.1453
 1736BOLB   PO141642  14.872   1.575  18.121 -0.0709 -0.1237 -0.1907
 1736BOLB   GL141643  14.789   1.268  18.299  0.0323 -0.0296  0.2198
 1736BOLB   GL241644  14.422   1.065  18.246  0.2133 -0.2260 -0.0818
 1736BOLB   C1A41645  14.641   1.138  18.719  0.0960 -0.3534 -0.0030
 1736BOLB   C2A41646  14.547   0.840  18.948 -0.0721 -0.1065 -0.1508
 1736BOLB   C3A41647  14.340   0.538  19.098  0.1892 -0.3709  0.0571
 1736BOLB   C4A41648  14.136   0.275  19.250  0.1393 -0.1918 -0.1823
 1736BOLB   C1B41649  14.709   0.777  18.363  0.1122  0.1067 -0.2558
 1736BOLB   C2B41650  14.943   0.471  18.545  0.1288  0.1778 -0.1216
 1736BOLB   C3B41651  15.204   0.337  18.827  0.0597  0.1553 -0.0309
 1736BOLB   C4B41652  15.628   0.194  18.657 -0.1202 -0.1741 -0.0940
 1736BOLB   NC241653  13.855  -2.197  19.234  0.0639  0.0451 -0.1447
 1736BOLB   PO241654  14.206  -1.826  19.271 -0.2503  0.1521  0.0538
 1736BOLB   GL341655  14.140  -1.394  19.084 -0.0486  0.0800 -0.4218
 1736BOLB   GL441656  13.899  -1.353  19.248  0.1674 -0.1705 -0.1932
 1736BOLB   C1C41657  14.123  -1.030  18.882 -0.0373  0.0126 -0.1065
 1736BOLB   C2C41658  13.800  -0.705  18.814 -0.0050  0.2525 -0.2414
 1736BOLB   C3C41659  13.747  -0.346  18.962 -0.1941 -0.3454  0.0288
 1736BOLB   C4C41660  14.106  -0.133  18.978  0.0504 -0.0075  0.0913
 1736BOLB   C1D41661  13.624  -1.226  18.895 -0.0890  0.0965  0.3262
 1736BOLB   C2D41662  13.383  -0.912  18.719  0.4111  0.1295  0.1071
 1736BOLB   C3D41663  13.202  -0.524  18.842 -0.0750  0.0405 -0.2360
 1736BOLB   C4D41664  13.412  -0.387  19.267 -0.0340 -0.0386  0.0109
 1737BOLB   NC141665  15.927  18.125  18.480  0.2365  0.1573  0.1686
 1737BOLB   PO141666  15.524  18.432  18.465 -0.2175 -0.1607  0.0863
 1737BOLB   GL141667  15.421  18.739  18.668 -0.0169  0.1518 -0.0614
 1737BOLB   GL241668  15.672  18.882  18.610 -0.0197 -0.0220 -0.2010
 1737BOLB   C1A41669  15.510  19.085  19.084  0.3828  0.0373 -0.0149
 1737BOLB   C2A41670  15.325  19.380  19.426 -0.2161 -0.0031  0.0430
 1737BOLB   C3A41671  15.385  19.744  19.622 -0.4093 -0.2172 -0.2690
 1737BOLB   C4A41672  15.267  19.832  20.014 -0.2972 -0.0387 -0.0398
 1737BOLB   C1B41673  15.377  19.325  18.441 -0.3819  0.1199  0.0111
 1737BOLB   C2B41674  15.511  19.667  18.393  0.3370 -0.0762  0.0503
 1737BOLB   C3B41675  15.572  19.874  18.641  0.1630  0.2246 -0.1746
 1737BOLB   C4B41676  15.609  20.252  18.866 -0.0158 -0.2346 -0.1055
 1737BOLB   NC241677  14.007  21.443  21.326 -0.3439 -0.0717  0.0709
 1737BOLB   PO241678  14.382  21.529  21.433 -0.0508  0.2831  0.1395
 1737BOLB   GL341679  14.673  21.175  21.186 -0.1497 -0.0546  0.2062
 1737BOLB   GL441680  15.013  21.309  21.114 -0.2222  0.3108 -0.1283
 1737BOLB   C1C41681  14.765  20.735  21.088  0.0768  0.0295 -0.2715
 1737BOLB   C2C41682  14.536  20.599  20.750  0.0965  0.1025  0.1949
 1737BOLB   C3C41683  14.730  20.375  20.359  0.1734  0.2871 -0.0389
 1737BOLB   C4C41684  15.000  20.079  20.177 -0.2595 -0.0466 -0.1773
 1737BOLB   C1D41685  15.301  21.115  20.771  0.0079  0.0595 -0.1055
 1737BOLB   C2D41686  15.284  20.719  20.793  0.1360 -0.0112  0.1080
 1737BOLB   C3D41687  15.302  20.345  20.475  0.0912  0.3017  0.2190
 1737BOLB   C4D41688  15.503  19.924  20.535  0.1851  0.2068 -0.0409
 1738BOLB   NC141689  15.060  16.676  20.773 -0.4530  0.1659  0.1472
 1738BOLB   PO141690  15.175  16.987  20.574 -0.1998 -0.1296 -0.0012
 1738BOLB   GL141691  14.992  17.395  20.732 -0.2956 -0.0487  0.0158
 1738BOLB   GL241692  15.211  17.351  21.024 -0.1061  0.1659  0.2089
 1738BOLB   C1A41693  14.753  17.609  20.990  0.0472 -0.0491  0.0114
 1738BOLB   C2A41694  14.625  17.867  21.299  0.5131  0.0664  0.2126
 1738BOLB   C3A41695  14.485  18.229  21.581  0.1205 -0.0494  0.0758
 1738BOLB   C4A41696  14.354  18.625  21.886  0.0239  0.2157 -0.1264
 1738BOLB   C1B41697  15.162  17.701  21.328 -0.2536 -0.1940 -0.2800
 1738BOLB   C2B41698  14.985  18.123  21.499 -0.1983 -0.0382  0.2552
 1738BOLB   C3B41699  14.899  18.569  21.724 -0.0607 -0.0572  0.2049
 1738BOLB   C4B41700  14.698  19.003  21.917  0.1468 -0.1246 -0.0182
 1738BOLB   NC241701  12.352  20.312  22.520 -0.2392  0.0135  0.1765
 1738BOLB   PO241702  12.721  20.046  22.697  0.0068 -0.0981  0.1015
 1738BOLB   GL341703  12.933  19.679  22.555  0.0787 -0.2670  0.1351
 1738BOLB   GL441704  12.791  19.524  22.288 -0.0275  0.1261  0.0627
 1738BOLB   C1C41705  13.363  19.650  22.553  0.1915  0.2496  0.1491
 1738BOLB   C2C41706  13.605  19.503  22.200  0.0234 -0.3465 -0.0165
 1738BOLB   C3C41707  13.995  19.315  22.037  0.0153 -0.0456  0.2558
 1738BOLB   C4C41708  14.219  19.012  22.051  0.1519 -0.2859 -0.1383
 1738BOLB   C1D41709  13.144  19.522  21.977  0.0416  0.4462 -0.0373
 1738BOLB   C2D41710  13.228  19.435  21.593  0.1860  0.0623  0.3418
 1738BOLB   C3D41711  13.517  19.391  21.233 -0.0088  0.0736  0.4399
 1738BOLB   C4D41712  13.895  19.393  20.945 -0.3076 -0.1111  0.1109
 1739BOLB   NC141713  13.471   7.847  22.288  0.0321 -0.0272  0.2522
 1739BOLB   PO141714  13.191   7.689  22.637 -0.1853  0.2453  0.0775
 1739BOLB   GL141715  12.949   7.493  22.943 -0.1514 -0.3214 -0.0795
 1739BOLB   GL241716  13.019   7.253  23.113 -0.2180 -0.3139 -0.1493
 1739BOLB   C1A41717  12.545   7.503  23.181 -0.3172 -0.1357 -0.2890
 1739BOLB   C2A41718  12.251   7.535  23.562  0.1090  0.0251 -0.1299
 1739BOLB   C3A41719  12.235   7.554  24.021  0.0496 -0.0364  0.1902
 1739BOLB   C4A41720  12.441   7.495  24.294 -0.1607  0.2566  0.1227
 1739BOLB   C1B41721  12.805   7.147  23.526  0.4739  0.0567  0.0390
 1739BOLB   C2B41722  12.551   7.232  23.768  0.4006  0.1234 -0.1699
 1739BOLB   C3B41723  12.386   7.006  24.140  0.0628  0.0778 -0.1508
 1739BOLB   C4B41724  12.197   6.673  24.429 -0.1576  0.1204  0.0393
 1739BOLB   NC241725  11.878   5.983  26.374  0.1458  0.0544 -0.1938
 1739BOLB   PO241726  12.183   5.866  26.137 -0.0402  0.1617  0.1951
 1739BOLB   GL341727  12.024   6.096  25.753 -0.0103 -0.2214 -0.0599
 1739BOLB   GL441728  11.907   6.063  25.417  0.1999  0.1033 -0.3002
 1739BOLB   C1C41729  12.127   6.500  25.625  0.0465  0.0895 -0.3517
 1739BOLB   C2C41730  12.108   6.822  25.268  0.3342 -0.1546 -0.2389
 1739BOLB   C3C41731  12.102   7.050  25.026 -0.0526  0.2104 -0.2093
 1739BOLB   C4C41732  12.372   7.327  24.766  0.1940  0.0739  0.3405
 1739BOLB   C1D41733  11.854   6.393  25.187  0.0938  0.0717  0.1310
 1739BOLB   C2D41734  12.068   6.487  24.876  0.3925  0.1014  0.1528
 1739BOLB   C3D41735  12.481   6.653  24.932  0.3141  0.1274 -0.3213
 1739BOLB   C4D41736  12.665   6.885  24.589 -0.3644 -0.1957 -0.4292
 1740BOLB   NC141737  10.290  15.341  12.871 -0.1063 -0.0551  0.0091
 1740BOLB   PO141738  10.544  15.541  13.139 -0.0424  0.1440  0.2939
 1740BOLB   GL141739  10.243  15.824  13.063  0.5066 -0.1821 -0.1335
 1740BOLB   GL241740  10.103  15.786  12.769 -0.1209  0.2213 -0.0897
 1740BOLB   C1A41741   9.924  16.199  13.206 -0.0551 -0.0067 -0.0106
 1740BOLB   C2A41742   9.518  16.324  13.128 -0.1725  0.0688  0.2574
 1740BOLB   C3A41743   9.276  16.639  12.919  0.3146 -0.2503  0.0230
 1740BOLB   C4A41744   8.913  16.792  12.716  0.3022  0.1135  0.0117
 1740BOLB   C1B41745  10.184  16.200  12.805  0.2849 -0.0917 -0.2716
 1740BOLB   C2B41746   9.878  16.446  12.749 -0.0848 -0.1143 -0.1137
 1740BOLB   C3B41747   9.656  16.660  12.575  0.0791  0.3309  0.1491
 1740BOLB   C4B41748   9.309  16.770  12.374 -0.0169  0.0348  0.2413
 1740BOLB   NC241749   7.153  17.897  10.737  0.0388  0.1020  0.2256
 1740BOLB   PO241750   7.430  17.530  10.854 -0.0310  0.0095  0.0735
 1740BOLB   GL341751   7.765  17.290  11.030 -0.0438 -0.1856  0.3236
 1740BOLB   GL441752   7.613  16.986  11.157  0.1795  0.0938 -0.0492
 1740BOLB   C1C41753   8.152  17.107  11.166 -0.0666  0.2828 -0.4140
 1740BOLB   C2C41754   8.256  16.836  11.549  0.0944  0.2015 -0.2313
 1740BOLB   C3C41755   8.397  16.722  11.962  0.2593  0.2998 -0.2577
 1740BOLB   C4C41756   8.773  16.885  12.336  0.1065  0.1304 -0.0663
 1740BOLB   C1D41757   7.896  16.647  11.188  0.0772 -0.0220 -0.1275
 1740BOLB   C2D41758   8.073  16.287  11.232 -0.2170  0.0629 -0.2086
 1740BOLB   C3D41759   8.327  15.975  11.303 -0.0016  0.0159  0.1330
 1740BOLB   C4D41760   8.487  15.727  11.588 -0.1474  0.0132  0.1753
 1741BOLB   NC141761  16.225  15.577  10.242 -0.1418 -0.2324  0.0343
 1741BOLB   PO141762  16.352  15.581   9.759 -0.0517 -0.0971 -0.1177
 1741BOLB   GL141763  16.406  15.988   9.564 -0.1675 -0.1735  0.2865
 1741BOLB   GL241764  16.625  15.918   9.369  0.2651 -0.2057  0.0880
 1741BOLB   C1A41765  16.380  16.382   9.396  0.1789 -0.0708 -0.4130
 1741BOLB   C2A41766  16.360  16.625   9.100 -0.3547 -0.0461 -0.1107
 1741BOLB   C3A41767  16.074  16.498   8.712  0.3329 -0.2881 -0.1463
 1741BOLB   C4A41768  15.748  16.543   8.688  0.0725 -0.1319 -0.0338
 1741BOLB   C1B41769  16.783  16.255   9.207  0.1853  0.0434  0.0958
 1741BOLB   C2B41770  16.807  16.491   8.846  0.0025 -0.1220 -0.2220
 1741BOLB   C3B41771  16.960  16.595   8.493 -0.1256  0.0935  0.1910
 1741BOLB   C4B41772  17.035  16.655   7.996  0.0585  0.1287 -0.3989
 1741BOLB   NC241773  15.729  19.001   7.522  0.0522  0.0922 -0.1188
 1741BOLB   PO241774  15.912  18.768   7.448 -0.5005 -0.1501 -0.0959
 1741BOLB   GL341775  15.778  18.494   7.622 -0.2902 -0.0261  0.1201
 1741BOLB   GL441776  15.655  18.226   7.382 -0.1651 -0.1325  0.3420
 1741BOLB   C1C41777  15.581  18.109   7.860 -0.0685 -0.1864 -0.1885
 1741BOLB   C2C41778  15.513  17.708   8.043  0.2811 -0.2735 -0.0341
 1741BOLB   C3C41779  15.552  17.208   8.251 -0.0194  0.0715 -0.2622
 1741BOLB   C4C41780  15.610  16.992   8.541  0.2201  0.1070  0.0120
 1741BOLB   C1D41781  15.309  17.969   7.407 -0.0985 -0.1061  0.0956
 1741BOLB   C2D41782  15.192  17.605   7.613  0.1647  0.2060  0.1032
 1741BOLB   C3D41783  15.126  17.240   7.916 -0.2714 -0.1914 -0.0505
 1741BOLB   C4D41784  15.107  16.948   8.155  0.1419 -0.1848  0.0773
 1742BOLB   NC141785  18.918   1.587  14.496 -0.0240  0.1314  0.1670
 1742BOLB   PO141786  18.823   1.734  14.101 -0.1948  0.1180 -0.1301
 1742BOLB   GL141787  19.127   1.371  14.067  0.1247  0.0413 -0.0345
 1742BOLB   GL241788  19.245   1.232  14.410  0.2856  0.1438  0.1388
 1742BOLB   C1A41789  19.300   0.955  13.920 -0.4276 -0.0963 -0.2401
 1742BOLB   C2A41790  19.398   0.722  13.541  0.0913 -0.0744 -0.2384
 1742BOLB   C3A41791  19.447   0.305  13.558  0.3789  0.3148 -0.3279
 1742BOLB   C4A41792  19.239  -0.017  13.430  0.0958 -0.0077 -0.1515
 1742BOLB   C1B41793  19.312   0.876  14.474 -0.2234 -0.1246  0.1304
 1742BOLB   C2B41794  19.700   0.603  14.532  0.2210 -0.0644  0.1017
 1742BOLB   C3B41795  19.826   0.236  14.591 -0.0179 -0.0473  0.0275
 1742BOLB   C4B41796  20.074   0.229  15.051 -0.0751  0.3678 -0.2586
 1742BOLB   NC241797  20.564  -2.222  13.787  0.2599 -0.2896  0.0276
 1742BOLB   PO241798  20.469  -1.854  13.506 -0.0668 -0.3177  0.3210
 1742BOLB   GL341799  20.259  -1.474  13.572  0.0230 -0.1738  0.1481
 1742BOLB   GL441800  20.264  -1.232  13.342 -0.2444 -0.1219 -0.0770
 1742BOLB   C1C41801  20.099  -1.150  13.954 -0.1089 -0.1015 -0.2026
 1742BOLB   C2C41802  19.714  -0.908  13.870  0.0417  0.0092 -0.2424
 1742BOLB   C3C41803  19.379  -0.752  13.721 -0.2803  0.1933  0.1274
 1742BOLB   C4C41804  19.212  -0.422  13.411 -0.1254 -0.0401 -0.1643
 1742BOLB   C1D41805  19.893  -1.191  13.485 -0.0622  0.0075 -0.0099
 1742BOLB   C2D41806  19.733  -0.881  13.342  0.1527 -0.0064 -0.1657
 1742BOLB   C3D41807  19.580  -0.956  12.831 -0.2046  0.1761 -0.2395
 1742BOLB   C4D41808  19.323  -0.775  12.486  0.0504 -0.1225 -0.0003
 1743BOLB   NC141809  12.686  17.125  16.273 -0.0883  0.1102  0.0803
 1743BOLB   PO141810  12.484  17.494  16.113  0.1764 -0.1708 -0.0021
 1743BOLB   GL141811  12.244  17.910  16.065 -0.2801 -0.2420  0.0830
 1743BOLB   GL241812  12.484  18.121  16.238  0.2049  0.1355  0.1502
 1743BOLB   C1A41813  11.823  18.009  15.991 -0.4656 -0.0996 -0.0350
 1743BOLB   C2A41814  11.453  18.253  15.860 -0.0512  0.1965 -0.1913
 1743BOLB   C3A41815  11.139  18.581  15.860 -0.1522  0.0844  0.1626
 1743BOLB   C4A41816  10.768  18.869  15.955 -0.0993  0.3422 -0.2205
 1743BOLB   C1B41817  12.526  18.456  16.586 -0.2183  0.0423 -0.1455
 1743BOLB   C2B41818  12.468  18.862  16.880  0.2110  0.2053 -0.1288
 1743BOLB   C3B41819  12.709  19.149  17.067  0.3382  0.0221  0.0969
 1743BOLB   C4B41820  12.765  19.247  17.423  0.0571 -0.1356 -0.2774
 1743BOLB   NC241821   9.069  20.734  15.971  0.1773  0.0233 -0.2890
 1743BOLB   PO241822   9.487  20.866  16.008 -0.0455  0.3939  0.2384
 1743BOLB   GL341823   9.791  20.607  16.240 -0.1201 -0.0970  0.5916
 1743BOLB   GL441824  10.089  20.723  16.499 -0.0536 -0.4106  0.1925
 1743BOLB   C1C41825  10.106  20.368  16.016 -0.1651  0.0904  0.0279
 1743BOLB   C2C41826  10.095  19.881  15.902  0.2084  0.0586  0.0062
 1743BOLB   C3C41827  10.386  19.651  15.807  0.0204  0.0266  0.1795
 1743BOLB   C4C41828  10.597  19.271  15.884 -0.1161 -0.2963  0.2999
 1743BOLB   C1D41829  10.494  20.600  16.663  0.0560 -0.0663  0.0318
 1743BOLB   C2D41830  10.660  20.221  16.644  0.3574  0.0162 -0.0647
 1743BOLB   C3D41831  10.753  19.797  16.719  0.1571 -0.0975  0.0885
 1743BOLB   C4D41832  10.858  19.388  16.810  0.1327 -0.0254  0.2773
 1744BOLB   NC141833  15.315  16.098  10.328 -0.1790  0.3079 -0.2446
 1744BOLB   PO141834  14.943  16.268  10.160  0.2689  0.1618 -0.4281
 1744BOLB   GL141835  14.813  16.520   9.874  0.1679  0.1103 -0.0249
 1744BOLB   GL241836  15.050  16.565   9.593  0.0478 -0.0837  0.2962
 1744BOLB   C1A41837  14.603  16.973   9.814 -0.1040 -0.5272  0.0494
 1744BOLB   C2A41838  14.602  17.456   9.666 -0.0197  0.1011 -0.1743
 1744BOLB   C3A41839  14.377  17.769   9.403 -0.3095 -0.1720 -0.0470
 1744BOLB   C4A41840  14.235  18.136   9.202 -0.0305  0.0297 -0.2308
 1744BOLB   C1B41841  14.996  16.949   9.385 -0.0618  0.0266  0.3885
 1744BOLB   C2B41842  14.989  17.318   9.295 -0.2431 -0.3779 -0.1592
 1744BOLB   C3B41843  14.895  17.792   9.275 -0.1537 -0.2675  0.3843
 1744BOLB   C4B41844  14.840  18.191   9.076  0.1899 -0.0039  0.0408
 1744BOLB   NC241845  12.935  19.811   8.061  0.0289 -0.3754 -0.2282
 1744BOLB   PO241846  12.830  19.346   8.084  0.0629 -0.0961  0.1284
 1744BOLB   GL341847  13.088  19.018   8.152  0.0166 -0.2972  0.4497
 1744BOLB   GL441848  13.005  18.712   8.344 -0.1592 -0.0325 -0.1640
 1744BOLB   C1C41849  13.397  18.973   8.453  0.0160 -0.0678  0.1173
 1744BOLB   C2C41850  13.555  19.129   8.858 -0.0466  0.0114 -0.0279
 1744BOLB   C3C41851  13.869  18.958   9.056  0.1853 -0.2334  0.1208
 1744BOLB   C4C41852  14.028  18.523   8.946 -0.0192 -0.1201 -0.3775
 1744BOLB   C1D41853  13.185  18.309   8.361 -0.2223  0.1932 -0.0186
 1744BOLB   C2D41854  13.368  17.911   8.536 -0.0891 -0.2328  0.0026
 1744BOLB   C3D41855  13.740  17.732   8.827 -0.1030  0.0617 -0.0557
 1744BOLB   C4D41856  13.897  17.327   8.940  0.3395 -0.1274 -0.0359
 1745BOLB   NC141857  27.424   5.334  13.647  0.1773  0.1580  0.5218
 1745BOLB   PO141858  27.188   5.573  13.355  0.0724 -0.0019 -0.2676
 1745BOLB   GL141859  26.782   5.636  13.280  0.3430 -0.1013 -0.1223
 1745BOLB   GL241860  26.822   5.915  13.142  0.1665 -0.0538  0.1183
 1745BOLB   C1A41861  26.450   5.877  13.520  0.0520 -0.0876  0.2707
 1745BOLB   C2A41862  26.022   6.051  13.611 -0.1567 -0.2457  0.0780
 1745BOLB   C3A41863  25.941   6.455  13.772 -0.2400 -0.0379  0.1767
 1745BOLB   C4A41864  25.959   6.894  13.954  0.1369 -0.0452  0.1791
 1745BOLB   C1B41865  26.430   5.999  12.992 -0.0746  0.0377 -0.1614
 1745BOLB   C2B41866  25.969   6.010  13.080  0.0127 -0.2585  0.2469
 1745BOLB   C3B41867  25.858   5.753  13.235  0.0166 -0.0761  0.2241
 1745BOLB   C4B41868  25.583   5.443  13.305  0.0737 -0.2027  0.0448
 1745BOLB   NC241869  28.083   8.302  14.264 -0.0002  0.0598 -0.0196
 1745BOLB   PO241870  27.876   7.909  14.178  0.5276  0.1314  0.2093
 1745BOLB   GL341871  27.529   7.985  14.310  0.2951  0.2227 -0.0976
 1745BOLB   GL441872  27.468   7.758  14.709  0.4246  0.0974  0.3769
 1745BOLB   C1C41873  27.083   7.931  14.408  0.2187  0.1758  0.0846
 1745BOLB   C2C41874  26.689   7.792  14.160 -0.2834  0.1426 -0.1158
 1745BOLB   C3C41875  26.286   7.554  13.845 -0.3674  0.0805  0.0649
 1745BOLB   C4C41876  26.102   7.244  13.877  0.2326  0.2192  0.2518
 1745BOLB   C1D41877  27.171   7.989  14.900  0.0809  0.1925 -0.3913
 1745BOLB   C2D41878  26.809   7.982  14.812 -0.1179 -0.2815  0.2040
 1745BOLB   C3D41879  26.658   8.227  14.530  0.1245 -0.0014  0.2532
 1745BOLB   C4D41880  26.772   8.593  14.497  0.1443 -0.1155 -0.2088
 1746BOLB   NC141881  24.228  19.407  19.903 -0.2370 -0.0514 -0.0669
 1746BOLB   PO141882  24.486  19.068  20.108  0.2699 -0.2188 -0.0698
 1746BOLB   GL141883  24.252  18.725  20.008 -0.0472  0.1854 -0.1608
 1746BOLB   GL241884  24.149  18.535  19.724  0.3437  0.1527 -0.3785
 1746BOLB   C1A41885  23.828  18.399  20.181  0.2748  0.1589 -0.0206
 1746BOLB   C2A41886  23.412  18.333  20.095  0.3691 -0.1795  0.0482
 1746BOLB   C3A41887  23.038  18.338  19.865 -0.1164  0.0235 -0.1126
 1746BOLB   C4A41888  22.600  18.402  19.755 -0.1355 -0.1223 -0.2523
 1746BOLB   C1B41889  23.917  18.183  19.740  0.2796 -0.2706 -0.0611
 1746BOLB   C2B41890  23.698  17.798  19.586  0.2952  0.0275  0.1264
 1746BOLB   C3B41891  23.582  17.438  19.303 -0.0062  0.3797 -0.0960
 1746BOLB   C4B41892  23.618  17.081  18.929  0.0392 -0.1526 -0.1955
 1746BOLB   NC241893  23.129  20.423  21.280  0.0289 -0.1151 -0.1822
 1746BOLB   PO241894  22.865  20.089  21.285  0.1688 -0.3261  0.1429
 1746BOLB   GL341895  22.794  19.702  21.088  0.1106  0.2289  0.3168
 1746BOLB   GL441896  22.931  19.504  21.216 -0.0280 -0.0308  0.0518
 1746BOLB   C1C41897  22.554  19.264  20.993 -0.0037  0.0915 -0.0651
 1746BOLB   C2C41898  22.509  18.918  20.659 -0.1827 -0.1474  0.0413
 1746BOLB   C3C41899  22.412  18.618  20.441  0.2594 -0.1731  0.4225
 1746BOLB   C4C41900  22.334  18.471  20.116 -0.3054  0.1877 -0.2498
 1746BOLB   C1D41901  23.047  19.100  20.928 -0.2240  0.2133  0.5226
 1746BOLB   C2D41902  22.975  19.090  20.465  0.1234 -0.1448  0.0386
 1746BOLB   C3D41903  23.035  19.226  20.072 -0.1275 -0.3378  0.1414
 1746BOLB   C4D41904  22.714  19.404  19.780  0.1301  0.0267  0.0644
 1747BOLB   NC141905  19.633   4.026  10.398 -0.1462  0.0380 -0.0059
 1747BOLB   PO141906  19.494   3.661  10.593  0.1944 -0.0134 -0.2274
 1747BOLB   GL141907  19.863   3.507  10.339  0.2071  0.0546 -0.1012
 1747BOLB   GL241908  19.868   3.721  10.083  0.3215 -0.0088 -0.0240
 1747BOLB   C1A41909  20.008   3.226  10.033 -0.0749  0.0868 -0.1803
 1747BOLB   C2A41910  20.218   2.827  10.091  0.0930  0.1086 -0.2165
 1747BOLB   C3A41911  20.199   2.374  10.107 -0.2780  0.1821  0.1020
 1747BOLB   C4A41912  20.265   1.930  10.084 -0.1392  0.0289 -0.1149
 1747BOLB   C1B41913  20.045   3.575   9.681 -0.0527  0.2345  0.0651
 1747BOLB   C2B41914  20.389   3.434   9.416  0.3484  0.1658  0.2495
 1747BOLB   C3B41915  20.513   3.425   9.053  0.1160  0.0058  0.0312
 1747BOLB   C4B41916  20.795   3.702   8.778  0.0983  0.1322  0.2546
 1747BOLB   NC241917  20.386  -0.379   8.854  0.3480  0.0845 -0.1262
 1747BOLB   PO241918  20.866  -0.131   9.027  0.3483  0.0495  0.1891
 1747BOLB   GL341919  20.588   0.194   8.970 -0.1548 -0.1772 -0.0772
 1747BOLB   GL441920  20.434   0.156   8.794 -0.0911 -0.0081  0.1933
 1747BOLB   C1C41921  20.435   0.666   9.055 -0.0489 -0.2749  0.0764
 1747BOLB   C2C41922  20.165   0.866   9.320  0.0363 -0.2557  0.1933
 1747BOLB   C3C41923  20.087   1.143   9.677  0.2531 -0.0463 -0.1560
 1747BOLB   C4C41924  20.062   1.535   9.933  0.1167  0.1795  0.1667
 1747BOLB   C1D41925  20.038   0.336   9.021 -0.1102  0.0351 -0.0129
 1747BOLB   C2D41926  19.737   0.624   9.269  0.0864  0.0276 -0.1544
 1747BOLB   C3D41927  19.640   0.998   9.574  0.0723  0.1528 -0.3435
 1747BOLB   C4D41928  19.575   1.335   9.801 -0.2256 -0.1443 -0.0644
 1748BOLB   NC141929  18.450  14.206  22.141 -0.0827  0.1066  0.0475
 1748BOLB   PO141930  18.278  14.396  22.612 -0.2495 -0.2662  0.6198
 1748BOLB   GL141931  18.411  14.870  22.806  0.0265  0.4994  0.0368
 1748BOLB   GL241932  18.076  15.092  22.950  0.1667  0.1607  0.2381
 1748BOLB   C1A41933  18.511  15.027  23.250  0.0736 -0.0754 -0.1307
 1748BOLB   C2A41934  18.636  15.108  23.614  0.1943 -0.1578 -0.0076
 1748BOLB   C3A41935  18.981  15.330  23.731 -0.1481 -0.0021 -0.1332
 1748BOLB   C4A41936  19.392  15.595  23.849  0.0731  0.0774 -0.0486
 1748BOLB   C1B41937  18.109  15.386  23.214  0.1204  0.0545 -0.2437
 1748BOLB   C2B41938  17.972  15.731  23.553  0.2422 -0.0822 -0.0281
 1748BOLB   C3B41939  17.669  15.927  23.780  0.0506 -0.1132  0.0627
 1748BOLB   C4B41940  17.586  15.875  24.180  0.2824  0.1643 -0.2385
 1748BOLB   NC241941  19.737  17.191  25.974 -0.4022 -0.1959 -0.2334
 1748BOLB   PO241942  19.800  16.873  25.615  0.4729  0.0873  0.1012
 1748BOLB   GL341943  20.071  16.925  25.257  0.1079 -0.0400  0.2608
 1748BOLB   GL441944  20.171  17.152  24.982 -0.3071 -0.2034  0.1479
 1748BOLB   C1C41945  20.030  16.643  24.926 -0.0492 -0.0080  0.4370
 1748BOLB   C2C41946  19.990  16.227  24.778 -0.0804 -0.0549 -0.5238
 1748BOLB   C3C41947  19.847  16.061  24.382  0.1861  0.2629  0.0351
 1748BOLB   C4C41948  19.629  15.784  24.133 -0.1082 -0.2445 -0.1499
 1748BOLB   C1D41949  20.350  16.843  24.614 -0.1890  0.1025  0.1174
 1748BOLB   C2D41950  20.517  16.649  24.233 -0.0854  0.3452 -0.1351
 1748BOLB   C3D41951  20.628  16.292  24.047  0.1927 -0.0901 -0.0204
 1748BOLB   C4D41952  20.806  15.897  24.007 -0.0145  0.0308  0.1099
 1749BOLB   NC141953  14.237   7.798   0.739 -0.3367  0.2251  0.0470
 1749BOLB   PO141954  14.678   7.767   0.874 -0.2691 -0.1320  0.2312
 1749BOLB   GL141955  14.528   7.807   1.249 -0.1342  0.1992  0.0771
 1749BOLB   GL241956  14.164   7.719   1.294  0.1321 -0.0238 -0.0970
 1749BOLB   C1A41957  14.534   7.407   1.393 -0.1607 -0.1003 -0.1114
 1749BOLB   C2A41958  14.433   7.086   1.550 -0.1124 -0.0758  0.0229
 1749BOLB   C3A41959  14.254   6.933   1.928  0.4604 -0.0816  0.0449
 1749BOLB   C4A41960  14.005   6.852   2.210  0.1072  0.0862  0.2184
 1749BOLB   C1B41961  13.985   7.234   1.238 -0.0523 -0.1187 -0.1305
 1749BOLB   C2B41962  14.039   6.872   1.407 -0.2935 -0.1368  0.2030
 1749BOLB   C3B41963  14.337   6.604   1.635 -0.1315  0.1154  0.2209
 1749BOLB   C4B41964  14.520   6.218   1.795  0.2075 -0.2326 -0.0610
 1749BOLB   NC241965  12.847   5.056   0.883 -0.2821  0.0050 -0.2156
 1749BOLB   PO241966  13.123   5.415   0.965  0.0287  0.0279  0.1988
 1749BOLB   GL341967  13.343   5.510   1.329  0.1538  0.2028 -0.1445
 1749BOLB   GL441968  13.713   5.286   1.401 -0.0553 -0.1082  0.2604
 1749BOLB   C1C41969  13.378   5.854   1.545 -0.2078 -0.1280 -0.1078
 1749BOLB   C2C41970  13.365   6.034   2.021  0.2415  0.0741 -0.2300
 1749BOLB   C3C41971  13.637   6.137   2.200 -0.1048 -0.2263  0.0434
 1749BOLB   C4C41972  13.753   6.617   2.439 -0.0702  0.4264 -0.2404
 1749BOLB   C1D41973  13.479   5.358   1.793  0.0863  0.0672 -0.1428
 1749BOLB   C2D41974  13.524   5.171   2.144 -0.0348 -0.2521  0.1500
 1749BOLB   C3D41975  13.544   4.866   2.391 -0.2585 -0.1870 -0.4811
 1749BOLB   C4D41976  13.251   4.534   2.412  0.3255  0.0182 -0.0165
 1750BOLB   NC141977   9.586  12.527  20.204 -0.1132 -0.1252 -0.0977
 1750BOLB   PO141978   9.307  12.352  19.937  0.0552  0.1261  0.0784
 1750BOLB   GL141979   9.117  12.402  20.217  0.0654  0.1990 -0.2550
 1750BOLB   GL241980   9.273  12.297  20.564 -0.0392  0.0764  0.1443
 1750BOLB   C1A41981   8.827  12.697  20.382 -0.0059  0.0328  0.1753
 1750BOLB   C2A41982   8.319  12.711  20.637  0.2082  0.2149  0.2030
 1750BOLB   C3A41983   7.937  12.629  20.571 -0.1741 -0.2751  0.3027
 1750BOLB   C4A41984   7.624  12.813  20.509  0.0619  0.0561 -0.0970
 1750BOLB   C1B41985   9.031  12.445  20.726  0.0176  0.2567 -0.2252
 1750BOLB   C2B41986   8.790  12.752  20.954  0.3588  0.1900 -0.0215
 1750BOLB   C3B41987   8.449  12.703  21.120  0.0395  0.3718 -0.4001
 1750BOLB   C4B41988   8.332  12.852  21.445 -0.1316 -0.0437  0.0148
 1750BOLB   NC241989   5.411  13.575  20.175  0.3800 -0.1502 -0.0461
 1750BOLB   PO241990   5.748  13.935  20.344  0.2396 -0.2699 -0.0763
 1750BOLB   GL341991   5.953  13.561  20.532  0.0833  0.0760  0.2208
 1750BOLB   GL441992   5.966  13.165  20.577 -0.1990  0.4188 -0.0919
 1750BOLB   C1C41993   6.151  13.369  20.125  0.1352 -0.1821  0.2341
 1750BOLB   C2C41994   6.443  13.147  20.280  0.1853 -0.3967 -0.1972
 1750BOLB   C3C41995   6.827  12.808  20.350  0.0512 -0.0562 -0.0463
 1750BOLB   C4C41996   7.212  12.860  20.638  0.1350 -0.0131  0.0561
 1750BOLB   C1D41997   6.438  13.306  20.828  0.1349 -0.0057 -0.1818
 1750BOLB   C2D41998   6.738  13.009  21.048  0.0350 -0.2642  0.6663
 1750BOLB   C3D41999   6.855  12.613  20.899  0.2477 -0.0143 -0.0040
 1750BOLB   C4D42000   6.949  12.092  20.911 -0.1779 -0.1202  0.0360
 1751BOLB   NC142001   8.721   6.557  17.973 -0.2099  0.2589  0.2345
 1751BOLB   PO142002   9.020   6.433  18.277 -0.2183 -0.0298  0.0223
 1751BOLB   GL142003   8.879   6.157  18.609 -0.2191 -0.1528  0.5503
 1751BOLB   GL242004   9.098   6.130  18.866  0.0382 -0.0834 -0.2571
 1751BOLB   C1A42005   8.527   5.947  18.781  0.2356  0.1227  0.3303
 1751BOLB   C2A42006   8.458   5.651  19.098 -0.0583  0.3060 -0.0541
 1751BOLB   C3A42007   8.145   5.407  19.338 -0.0098 -0.0697 -0.0072
 1751BOLB   C4A42008   8.084   4.967  19.540 -0.0847  0.0630 -0.3790
 1751BOLB   C1B42009   8.930   5.881  19.163 -0.0213 -0.3200  0.3304
 1751BOLB   C2B42010   8.892   5.506  19.316  0.0614 -0.2738 -0.0135
 1751BOLB   C3B42011   8.642   5.077  19.536  0.1074  0.1047 -0.1517
 1751BOLB   C4B42012   8.583   4.593  19.555  0.1439  0.0663 -0.0619
 1751BOLB   NC242013   6.738   3.482  21.597  0.1187  0.0698 -0.0675
 1751BOLB   PO242014   6.735   3.777  21.269 -0.0645  0.2687  0.0966
 1751BOLB   GL342015   6.899   3.930  20.944 -0.1903  0.1271  0.1594
 1751BOLB   GL442016   6.935   4.251  21.100  0.0463  0.1916  0.2067
 1751BOLB   C1C42017   7.399   3.882  20.827  0.0748  0.1667 -0.1515
 1751BOLB   C2C42018   7.512   4.168  20.451 -0.2060 -0.1786 -0.3343
 1751BOLB   C3C42019   7.640   4.377  20.076 -0.2744  0.0770 -0.0398
 1751BOLB   C4C42020   7.901   4.644  19.715 -0.0189 -0.1033  0.1415
 1751BOLB   C1D42021   7.408   4.425  20.953  0.3696 -0.2927  0.0259
 1751BOLB   C2D42022   7.756   4.680  20.778 -0.2090  0.0513 -0.0616
 1751BOLB   C3D42023   7.967   5.028  20.796 -0.1035  0.0099  0.0457
 1751BOLB   C4D42024   8.231   5.258  20.751  0.1307  0.2555 -0.4631
 1752BOLB   NC142025  11.554  13.898   9.937  0.2275  0.0534  0.2403
 1752BOLB   PO142026  11.748  14.127  10.264 -0.2716  0.2415  0.0882
 1752BOLB   GL142027  11.519  14.423  10.143 -0.1053  0.4406  0.0554
 1752BOLB   GL242028  11.544  14.641  10.048  0.1666 -0.2142 -0.0287
 1752BOLB   C1A42029  11.098  14.415  10.104  0.3468  0.1033  0.0158
 1752BOLB   C2A42030  10.861  14.314   9.761 -0.0086  0.2610 -0.1277
 1752BOLB   C3A42031  10.612  14.613   9.486 -0.1220 -0.0709  0.1133
 1752BOLB   C4A42032  10.527  15.063   9.387  0.1757 -0.2387  0.1315
 1752BOLB   C1B42033  11.250  14.865   9.815  0.3814  0.1612 -0.0997
 1752BOLB   C2B42034  11.004  15.074   9.504 -0.2002 -0.1568 -0.5019
 1752BOLB   C3B42035  11.166  15.340   9.202  0.0303  0.3173  0.3513
 1752BOLB   C4B42036  11.113  15.653   8.845 -0.0390 -0.1060 -0.3488
 1752BOLB   NC242037   9.697  17.159   8.267 -0.0576  0.0209 -0.2462
 1752BOLB   PO242038   9.453  16.790   8.167  0.1024 -0.3253  0.1388
 1752BOLB   GL342039   9.912  16.753   8.397  0.1668  0.0753  0.0553
 1752BOLB   GL442040  10.204  16.682   8.243 -0.2162 -0.0676  0.1030
 1752BOLB   C1C42041  10.065  16.542   8.701  0.1360 -0.0229  0.2576
 1752BOLB   C2C42042  10.177  16.081   8.691 -0.1328 -0.3280 -0.0070
 1752BOLB   C3C42043  10.531  15.806   8.847  0.2311  0.0443  0.1343
 1752BOLB   C4C42044  10.575  15.415   9.236  0.1178  0.2771  0.2826
 1752BOLB   C1D42045  10.613  16.559   8.485 -0.0175 -0.3199  0.1501
 1752BOLB   C2D42046  10.594  16.301   8.928 -0.1306 -0.1099  0.3577
 1752BOLB   C3D42047  10.885  16.155   9.156  0.0890  0.3480  0.0913
 1752BOLB   C4D42048  10.949  15.750   9.318 -0.0329  0.0874  0.1789
 1753BOLB   NC142049  11.793   6.660  21.343  0.0018  0.0619  0.1891
 1753BOLB   PO142050  11.352   6.780  21.317  0.0803 -0.0474 -0.2158
 1753BOLB   GL142051  11.000   6.725  21.559 -0.0257  0.0883 -0.3259
 1753BOLB   GL242052  10.774   7.034  21.568  0.1550  0.3551  0.1611
 1753BOLB   C1A42053  10.788   6.545  21.885  0.1535  0.1824  0.0007
 1753BOLB   C2A42054  10.632   6.518  22.241 -0.2511 -0.0858  0.1253
 1753BOLB   C3A42055  10.437   6.412  22.655  0.0391  0.0368 -0.0319
 1753BOLB   C4A42056  10.296   6.659  23.010  0.2594 -0.0597 -0.2432
 1753BOLB   C1B42057  10.679   7.058  22.014 -0.3257 -0.1594 -0.2217
 1753BOLB   C2B42058  10.451   6.920  22.443 -0.0745 -0.1388  0.1382
 1753BOLB   C3B42059  10.736   6.804  22.752 -0.1475  0.2619  0.2312
 1753BOLB   C4B42060  11.022   7.026  22.874  0.3523 -0.1418  0.4754
 1753BOLB   NC242061  10.370   5.421  25.258 -0.0135  0.0384 -0.1664
 1753BOLB   PO242062  10.619   5.833  25.250 -0.4963  0.0168  0.1080
 1753BOLB   GL342063  10.471   5.719  24.787  0.1166  0.0948 -0.3063
 1753BOLB   GL442064  10.388   5.401  24.765 -0.4823  0.1226 -0.2324
 1753BOLB   C1C42065  10.179   6.028  24.534  0.1201 -0.4918  0.0300
 1753BOLB   C2C42066   9.986   6.060  24.140 -0.1364 -0.0932  0.1479
 1753BOLB   C3C42067  10.018   6.313  23.885  0.3569 -0.3314  0.0735
 1753BOLB   C4C42068  10.112   6.488  23.409 -0.0619  0.1256 -0.2050
 1753BOLB   C1D42069  10.782   5.436  24.519 -0.4233  0.0392  0.1204
 1753BOLB   C2D42070  11.059   5.208  24.296 -0.0376  0.1719  0.2448
 1753BOLB   C3D42071  11.163   4.974  24.449 -0.0797 -0.2471 -0.0910
 1753BOLB   C4D42072  11.386   4.981  24.856  0.1461 -0.1961 -0.2749
 1754BOLB   NC142073  20.452  17.566  18.241 -0.1433 -0.2408  0.2917
 1754BOLB   PO142074  20.309  17.217  18.554 -0.0972 -0.2591  0.1828
 1754BOLB   GL142075  20.489  17.361  18.904  0.0898  0.0025 -0.0280
 1754BOLB   GL242076  20.353  17.300  19.212  0.0456  0.2225 -0.2885
 1754BOLB   C1A42077  20.464  17.802  19.081  0.0775  0.1146  0.0102
 1754BOLB   C2A42078  20.576  18.005  19.423 -0.0693  0.1742  0.1264
 1754BOLB   C3A42079  20.899  18.276  19.451 -0.4377  0.0418  0.0061
 1754BOLB   C4A42080  21.122  18.632  19.400 -0.1631 -0.1249  0.0705
 1754BOLB   C1B42081  20.341  17.467  19.670 -0.0295 -0.0021  0.1423
 1754BOLB   C2B42082  20.549  17.806  19.863  0.0715  0.1913  0.2555
 1754BOLB   C3B42083  20.763  18.193  19.922  0.1115 -0.2027 -0.3139
 1754BOLB   C4B42084  20.805  18.437  20.281 -0.0092 -0.3313 -0.0404
 1754BOLB   NC242085  21.974  21.141  20.236 -0.2577  0.0205 -0.1954
 1754BOLB   PO242086  21.629  20.918  20.027  0.0858 -0.1819  0.1145
 1754BOLB   GL342087  21.519  20.571  19.694 -0.4092 -0.1895  0.1650
 1754BOLB   GL442088  21.777  20.565  19.392  0.0987 -0.1152  0.0997
 1754BOLB   C1C42089  21.455  20.110  19.550 -0.1305 -0.1332 -0.0981
 1754BOLB   C2C42090  21.385  19.678  19.430  0.2760  0.3699  0.0445
 1754BOLB   C3C42091  21.496  19.313  19.217 -0.1996  0.0169 -0.1959
 1754BOLB   C4C42092  21.347  18.983  19.183  0.4563 -0.0922  0.0661
 1754BOLB   C1D42093  21.993  20.182  19.248  0.3230 -0.0151 -0.0034
 1754BOLB   C2D42094  22.184  19.853  19.051 -0.3637 -0.1172 -0.0974
 1754BOLB   C3D42095  22.313  19.583  18.847 -0.1996 -0.0004 -0.1882
 1754BOLB   C4D42096  22.241  19.354  18.483 -0.1815  0.0137 -0.3044
 1755BOLB   NC142097   9.670  15.383  15.444  0.2298  0.3830 -0.2587
 1755BOLB   PO142098   9.280  15.077  15.426  0.1646 -0.1072 -0.0980
 1755BOLB   GL142099   9.140  15.297  15.180  0.0612  0.0624  0.4293
 1755BOLB   GL242100   9.308  15.522  15.033 -0.0128 -0.0360  0.0537
 1755BOLB   C1A42101   8.771  15.387  14.962 -0.3610 -0.4658 -0.0183
 1755BOLB   C2A42102   8.342  15.127  14.732  0.3594 -0.1448 -0.1274
 1755BOLB   C3A42103   7.950  15.178  14.854 -0.0159 -0.2277 -0.0253
 1755BOLB   C4A42104   7.654  15.537  14.957 -0.1633 -0.1063  0.2554
 1755BOLB   C1B42105   8.969  15.874  15.103 -0.1354 -0.2057  0.2436
 1755BOLB   C2B42106   8.735  16.085  15.332 -0.2500 -0.3919 -0.1522
 1755BOLB   C3B42107   8.453  16.349  15.595  0.1963 -0.1712 -0.1536
 1755BOLB   C4B42108   8.366  16.686  15.734  0.1281  0.0250 -0.1225
 1755BOLB   NC242109   5.874  17.498  15.307 -0.0013 -0.8034 -0.3632
 1755BOLB   PO242110   6.121  17.257  15.050 -0.0102 -0.1308 -0.0671
 1755BOLB   GL342111   6.305  16.982  15.046 -0.3083  0.1676 -0.3982
 1755BOLB   GL442112   6.369  16.784  14.948 -0.2221  0.1943  0.0794
 1755BOLB   C1C42113   6.719  16.940  15.300 -0.4624  0.2672  0.0788
 1755BOLB   C2C42114   7.091  16.703  15.429 -0.0517 -0.0629 -0.2749
 1755BOLB   C3C42115   7.370  16.276  15.324 -0.1763 -0.0507 -0.0234
 1755BOLB   C4C42116   7.369  15.860  15.259  0.2255 -0.0533 -0.0632
 1755BOLB   C1D42117   6.714  16.567  15.035  0.2801  0.1352 -0.1428
 1755BOLB   C2D42118   7.030  16.720  14.880  0.0895  0.0522 -0.4522
 1755BOLB   C3D42119   7.126  16.579  14.437 -0.1065  0.0906 -0.3482
 1755BOLB   C4D42120   7.310  16.523  14.086  0.1608 -0.0727 -0.3044
 1756BOLB   NC142121  14.548   4.849  21.058  0.0877 -0.1462 -0.1738
 1756BOLB   PO142122  14.618   4.443  21.177 -0.3890  0.2389  0.0665
 1756BOLB   GL142123  14.590   4.446  21.560 -0.0934  0.0119  0.0763
 1756BOLB   GL242124  14.595   4.240  21.725  0.2543  0.2445  0.4006
 1756BOLB   C1A42125  14.532   4.566  22.110  0.1775  0.1503 -0.0625
 1756BOLB   C2A42126  14.448   4.384  22.467 -0.1597 -0.2571  0.0040
 1756BOLB   C3A42127  14.127   4.081  22.667  0.2531  0.0548  0.3618
 1756BOLB   C4A42128  14.033   3.693  22.816 -0.1731  0.0167 -0.3290
 1756BOLB   C1B42129  14.772   4.103  22.054  0.0543 -0.2652 -0.4406
 1756BOLB   C2B42130  14.683   3.963  22.390 -0.1102  0.1043  0.0430
 1756BOLB   C3B42131  14.548   3.878  22.873  0.0695  0.0888 -0.0971
 1756BOLB   C4B42132  14.439   3.492  23.073  0.0555 -0.0717 -0.0316
 1756BOLB   NC242133  13.536   2.850  24.894 -0.1343  0.0289 -0.2390
 1756BOLB   PO242134  13.590   3.048  25.206  0.2859 -0.0634 -0.0714
 1756BOLB   GL342135  13.835   3.197  24.810  0.0370  0.0880  0.2131
 1756BOLB   GL442136  14.073   3.086  24.641  0.0504 -0.2553 -0.0335
 1756BOLB   C1C42137  13.666   3.429  24.464 -0.1655  0.2179 -0.2042
 1756BOLB   C2C42138  13.509   3.613  24.085 -0.2082 -0.2563  0.0299
 1756BOLB   C3C42139  13.648   3.544  23.670 -0.1068 -0.0101  0.1298
 1756BOLB   C4C42140  13.953   3.541  23.231  0.0250 -0.0565  0.1998
 1756BOLB   C1D42141  13.805   3.036  24.223 -0.1540 -0.3806  0.1975
 1756BOLB   C2D42142  13.958   3.232  23.859  0.0986 -0.1267  0.0544
 1756BOLB   C3D42143  14.274   3.224  23.502 -0.0587  0.2053  0.1456
 1756BOLB   C4D42144  14.461   3.006  23.228  0.0922 -0.0342  0.1431
 1757BOLB   NC142145  21.618  16.548  18.643 -0.0827 -0.2304  0.0409
 1757BOLB   PO142146  21.177  16.813  18.803 -0.2396  0.1054 -0.1150
 1757BOLB   GL142147  21.329  17.187  19.056  0.0975  0.0717  0.4200
 1757BOLB   GL242148  21.050  17.402  18.963  0.0267  0.3652  0.3354
 1757BOLB   C1A42149  21.586  17.521  19.238 -0.3872 -0.0200  0.3175
 1757BOLB   C2A42150  21.619  17.792  19.559  0.0637 -0.0439  0.1757
 1757BOLB   C3A42151  21.824  17.841  19.900  0.2510 -0.4201  0.0149
 1757BOLB   C4A42152  22.213  17.847  20.088 -0.0342 -0.1688 -0.0971
 1757BOLB   C1B42153  21.386  17.616  18.768 -0.0298  0.2936  0.0635
 1757BOLB   C2B42154  21.694  17.795  18.868 -0.2832  0.0128  0.1123
 1757BOLB   C3B42155  22.041  18.110  18.822  0.2327 -0.2270 -0.0924
 1757BOLB   C4B42156  22.556  18.151  19.048 -0.1131 -0.2386 -0.1402
 1757BOLB   NC242157  24.206  19.176  21.842  0.2953 -0.1655 -0.2056
 1757BOLB   PO242158  23.790  19.178  21.621 -0.1321  0.0953 -0.0938
 1757BOLB   GL342159  23.718  18.965  21.196 -0.0070  0.0234  0.0057
 1757BOLB   GL442160  23.581  19.118  20.923  0.3694 -0.4009 -0.1062
 1757BOLB   C1C42161  23.340  18.678  21.062 -0.0021 -0.0484 -0.0834
 1757BOLB   C2C42162  22.802  18.620  20.932  0.6346 -0.0270 -0.0217
 1757BOLB   C3C42163  22.607  18.330  20.777 -0.0505  0.5531  0.2511
 1757BOLB   C4C42164  22.420  18.028  20.520  0.1730  0.1720  0.0368
 1757BOLB   C1D42165  23.426  18.981  20.524 -0.1552  0.2530  0.1886
 1757BOLB   C2D42166  23.277  18.820  20.089  0.0102  0.1008  0.0960
 1757BOLB   C3D42167  23.114  18.777  19.625 -0.1850  0.1167 -0.1650
 1757BOLB   C4D42168  22.869  18.544  19.341  0.0512 -0.1819 -0.0756
 1758BOLB   NC142169  16.497   6.537  22.495 -0.2952  0.0616  0.0471
 1758BOLB   PO142170  16.963   6.310  22.306 -0.1125 -0.0331  0.2210
 1758BOLB   GL142171  16.994   6.207  22.700  0.2708  0.0755 -0.0282
 1758BOLB   GL242172  16.675   6.120  22.722  0.0541 -0.1287  0.3719
 1758BOLB   C1A42173  17.142   6.220  23.067  0.1190  0.1753 -0.1120
 1758BOLB   C2A42174  17.452   6.118  23.360  0.0489 -0.1082 -0.0711
 1758BOLB   C3A42175  17.627   5.878  23.698 -0.2120 -0.2917 -0.0691
 1758BOLB   C4A42176  17.760   5.515  23.909  0.3016  0.0851  0.1964
 1758BOLB   C1B42177  16.728   5.822  22.996 -0.0836  0.3605 -0.1830
 1758BOLB   C2B42178  16.998   5.869  23.442 -0.2822  0.0920  0.2178
 1758BOLB   C3B42179  17.050   5.932  23.812 -0.1659 -0.2324  0.0819
 1758BOLB   C4B42180  17.499   6.049  24.153  0.1521 -0.0970 -0.1974
 1758BOLB   NC242181  18.506   4.803  26.430  0.0112 -0.0424  0.1884
 1758BOLB   PO242182  18.350   4.590  26.029 -0.1061  0.0615  0.1109
 1758BOLB   GL342183  17.990   4.789  25.833  0.2808  0.0035  0.4980
 1758BOLB   GL442184  17.793   4.479  25.665 -0.1789 -0.2096 -0.3158
 1758BOLB   C1C42185  17.875   5.027  25.490 -0.0779  0.2546  0.2809
 1758BOLB   C2C42186  17.974   5.054  25.054  0.0075  0.1026 -0.0872
 1758BOLB   C3C42187  17.830   5.078  24.678 -0.0940  0.0258  0.0622
 1758BOLB   C4C42188  17.861   5.381  24.348  0.2043 -0.1989  0.4130
 1758BOLB   C1D42189  17.678   4.252  25.306 -0.2599 -0.2193 -0.1565
 1758BOLB   C2D42190  17.413   4.266  24.826  0.3658 -0.0887  0.1814
 1758BOLB   C3D42191  17.185   4.472  24.522 -0.2435  0.0915 -0.1202
 1758BOLB   C4D42192  16.829   4.642  24.298  0.2328  0.2350  0.5692
 1759BOLB   NC142193  19.584  17.478  14.100  0.0985  0.2355  0.5282
 1759BOLB   PO142194  19.874  17.503  14.228 -0.1509 -0.3414  0.0084
 1759BOLB   GL142195  20.131  17.822  14.168 -0.1567  0.0198 -0.1111
 1759BOLB   GL242196  20.153  18.048  14.343 -0.1305 -0.0292  0.1105
 1759BOLB   C1A42197  20.650  17.792  14.009  0.0411  0.0625 -0.1376
 1759BOLB   C2A42198  20.938  17.977  14.143 -0.1296 -0.1697 -0.0593
 1759BOLB   C3A42199  21.206  18.313  14.357  0.2224 -0.2240 -0.0709
 1759BOLB   C4A42200  21.535  18.765  14.321 -0.1034  0.0817 -0.1309
 1759BOLB   C1B42201  20.516  18.241  14.499 -0.2849 -0.3896 -0.0928
 1759BOLB   C2B42202  20.786  18.471  14.619  0.0632  0.2270  0.1229
 1759BOLB   C3B42203  20.963  18.792  14.421 -0.0500 -0.0520  0.1450
 1759BOLB   C4B42204  21.248  19.259  14.557  0.2611  0.2912 -0.1077
 1759BOLB   NC242205  22.903  20.294  13.770 -0.1977  0.0254 -0.2284
 1759BOLB   PO242206  23.281  20.135  13.868  0.2741  0.3819  0.3036
 1759BOLB   GL342207  23.032  19.706  13.892 -0.2568 -0.3721 -0.2229
 1759BOLB   GL442208  23.184  19.459  13.821 -0.1475 -0.0997  0.1603
 1759BOLB   C1C42209  22.932  19.457  14.296 -0.0273 -0.0057  0.2645
 1759BOLB   C2C42210  22.649  19.190  14.401  0.1905  0.2509  0.2034
 1759BOLB   C3C42211  22.327  18.891  14.201  0.2570  0.1873 -0.0178
 1759BOLB   C4C42212  21.993  18.782  14.385  0.0205  0.1394  0.1190
 1759BOLB   C1D42213  23.324  19.079  13.835  0.3834  0.1078  0.3225
 1759BOLB   C2D42214  23.157  18.689  13.760  0.0441  0.0777  0.2212
 1759BOLB   C3D42215  23.047  18.351  14.034 -0.2467 -0.2529  0.0629
 1759BOLB   C4D42216  23.012  18.126  14.352 -0.3385 -0.4064  0.0685
 1760BOLB   NC142217  20.086  11.101   9.778  0.0950 -0.0456 -0.1182
 1760BOLB   PO142218  20.201  10.614   9.755 -0.3982 -0.1707  0.2557
 1760BOLB   GL142219  20.596  10.439   9.393 -0.3198 -0.0271  0.2034
 1760BOLB   GL242220  21.023  10.462   9.509 -0.0854  0.2109 -0.0337
 1760BOLB   C1A42221  20.716  10.248   9.012  0.1551 -0.3191  0.0392
 1760BOLB   C2A42222  21.037  10.028   8.662  0.1372  0.1417 -0.1354
 1760BOLB   C3A42223  21.423   9.918   8.413  0.1215 -0.0552  0.2261
 1760BOLB   C4A42224  21.623   9.639   8.050  0.1471 -0.1712 -0.0738
 1760BOLB   C1B42225  21.192  10.175   9.192  0.2489  0.1028  0.3032
 1760BOLB   C2B42226  21.427  10.167   8.943 -0.0759  0.0210 -0.2236
 1760BOLB   C3B42227  21.811  10.056   8.843 -0.1567  0.1370  0.0728
 1760BOLB   C4B42228  21.941   9.899   8.370  0.0509 -0.2106  0.2470
 1760BOLB   NC242229  23.451   8.353   6.765 -0.1224  0.0755 -0.0613
 1760BOLB   PO242230  23.620   8.802   6.743  0.0895  0.0832  0.1673
 1760BOLB   GL342231  23.237   8.793   6.973  0.0004  0.0962  0.2443
 1760BOLB   GL442232  22.978   8.867   6.728 -0.2153 -0.1925 -0.0681
 1760BOLB   C1C42233  23.026   9.112   7.175  0.1983  0.1734  0.2965
 1760BOLB   C2C42234  22.707   9.204   7.379  0.0560 -0.0111  0.2624
 1760BOLB   C3C42235  22.418   9.416   7.672 -0.1715 -0.1776  0.0236
 1760BOLB   C4C42236  21.967   9.601   7.808  0.1931 -0.1613 -0.0009
 1760BOLB   C1D42237  22.676   8.829   7.005 -0.2874  0.0162 -0.0135
 1760BOLB   C2D42238  22.229   8.882   7.172 -0.0675  0.2980 -0.0319
 1760BOLB   C3D42239  21.917   9.001   7.415 -0.1545  0.0124  0.0570
 1760BOLB   C4D42240  21.582   9.320   7.593  0.2268 -0.1241 -0.0336
 1761BOLB   NC142241  16.151  17.630  19.543 -0.2167 -0.1702 -0.1841
 1761BOLB   PO142242  15.852  18.072  19.385  0.1365  0.2680  0.0050
 1761BOLB   GL142243  15.892  18.537  19.337  0.0896 -0.0293 -0.2169
 1761BOLB   GL242244  15.883  18.785  19.118 -0.0537  0.3977 -0.2221
 1761BOLB   C1A42245  15.617  18.912  19.541  0.1256  0.3601 -0.1897
 1761BOLB   C2A42246  15.687  19.284  19.793  0.3670  0.0804  0.0650
 1761BOLB   C3A42247  15.836  19.688  20.004  0.2691 -0.1912  0.0733
 1761BOLB   C4A42248  15.692  20.054  20.101  0.0627 -0.1634 -0.0558
 1761BOLB   C1B42249  15.990  19.208  19.250  0.2838  0.0492  0.0426
 1761BOLB   C2B42250  15.965  19.654  19.498  0.3419  0.3262 -0.1189
 1761BOLB   C3B42251  16.255  19.912  19.621  0.0796 -0.1594 -0.0855
 1761BOLB   C4B42252  16.494  20.283  19.649 -0.2310 -0.2171  0.1762
 1761BOLB   NC242253  14.707  22.114  21.316  0.0652 -0.1223 -0.1974
 1761BOLB   PO242254  14.735  22.111  20.877 -0.0006  0.0925  0.1394
 1761BOLB   GL342255  14.842  21.757  20.515  0.0365  0.0927 -0.2072
 1761BOLB   GL442256  14.650  21.475  20.600  0.1289 -0.1143 -0.2210
 1761BOLB   C1C42257  15.132  21.450  20.283  0.1297 -0.1770 -0.0118
 1761BOLB   C2C42258  15.558  21.291  20.321  0.2168 -0.4431  0.1593
 1761BOLB   C3C42259  15.624  20.852  20.365 -0.2679  0.1404 -0.0081
 1761BOLB   C4C42260  15.811  20.546  20.030 -0.1054 -0.0869  0.0039
 1761BOLB   C1D42261  14.821  21.066  20.624  0.2456  0.0269  0.0876
 1761BOLB   C2D42262  15.082  20.797  20.344  0.3893  0.1911  0.1057
 1761BOLB   C3D42263  15.179  20.511  20.012 -0.2010 -0.2000  0.2421
 1761BOLB   C4D42264  15.466  20.328  19.713  0.2933 -0.0388  0.1923
 1762BOLB   NC142265  22.000   8.664  21.398 -0.2118  0.0336 -0.2277
 1762BOLB   PO142266  21.852   8.893  21.771 -0.1668 -0.0209 -0.2272
 1762BOLB   GL142267  22.083   8.842  22.179 -0.2565 -0.3531  0.0823
 1762BOLB   GL242268  21.904   8.861  22.456 -0.2078 -0.1815  0.1286
 1762BOLB   C1A42269  22.498   8.770  22.426  0.3308  0.2339 -0.1871
 1762BOLB   C2A42270  22.848   8.637  22.455  0.1308  0.1019 -0.0890
 1762BOLB   C3A42271  22.986   8.174  22.771  0.0934 -0.0232 -0.2055
 1762BOLB   C4A42272  23.205   8.160  23.099 -0.2160  0.1142 -0.2286
 1762BOLB   C1B42273  22.194   8.752  22.810 -0.1366 -0.0207 -0.0084
 1762BOLB   C2B42274  22.405   8.665  23.132 -0.1197 -0.0005 -0.0267
 1762BOLB   C3B42275  22.714   8.533  23.103  0.1715 -0.2015 -0.3644
 1762BOLB   C4B42276  23.103   8.620  22.997  0.1158  0.2426 -0.0994
 1762BOLB   NC242277  24.522   6.623  24.475  0.1747  0.0274  0.0958
 1762BOLB   PO242278  24.674   6.414  24.049 -0.2050  0.2137 -0.2493
 1762BOLB   GL342279  24.391   6.620  23.842 -0.0298  0.1615  0.1411
 1762BOLB   GL442280  24.055   6.413  23.816 -0.3214  0.0501  0.0564
 1762BOLB   C1C42281  24.288   7.031  23.736  0.1742 -0.0057  0.0691
 1762BOLB   C2C42282  24.186   7.413  23.529 -0.1860  0.2779  0.1316
 1762BOLB   C3C42283  23.960   7.768  23.297  0.0911 -0.1177  0.1970
 1762BOLB   C4C42284  23.713   8.079  23.173 -0.0385  0.0748  0.0208
 1762BOLB   C1D42285  23.830   6.681  23.582  0.1282 -0.1706 -0.0635
 1762BOLB   C2D42286  23.678   6.819  23.156 -0.1524 -0.0738 -0.1403
 1762BOLB   C3D42287  23.415   7.089  22.966 -0.2093  0.0420  0.1358
 1762BOLB   C4D42288  23.110   7.331  22.743  0.1392  0.3720 -0.3767
 1763BOLB   NC142289  12.287  17.185  18.198  0.1347 -0.3271  0.0848
 1763BOLB   PO142290  12.091  17.116  18.518 -0.0142  0.3244 -0.0191
 1763BOLB   GL142291  12.142  17.572  18.530  0.2699  0.0195 -0.0192
 1763BOLB   GL242292  12.381  17.583  18.841  0.2338  0.1755 -0.2091
 1763BOLB   C1A42293  11.869  17.862  18.664 -0.0485  0.0264 -0.0482
 1763BOLB   C2A42294  11.684  18.026  18.945 -0.1782 -0.1430  0.0914
 1763BOLB   C3A42295  11.471  18.507  18.988 -0.1830  0.0731  0.0950
 1763BOLB   C4A42296  11.483  18.748  19.213  0.1413  0.2198  0.1343
 1763BOLB   C1B42297  12.079  17.865  19.207 -0.0327 -0.1068  0.2788
 1763BOLB   C2B42298  11.943  18.337  19.271  0.2598 -0.0374  0.2916
 1763BOLB   C3B42299  11.981  18.720  19.432  0.2614  0.3402  0.1441
 1763BOLB   C4B42300  11.820  19.019  19.467  0.1157 -0.1096  0.4941
 1763BOLB   NC242301  10.402  20.684  20.707 -0.1015  0.2345  0.1769
 1763BOLB   PO242302  10.572  20.427  20.366 -0.2990  0.3376  0.1788
 1763BOLB   GL342303  10.565  19.920  20.562  0.0910 -0.2087 -0.2760
 1763BOLB   GL442304  10.435  19.759  20.732 -0.0928  0.0322  0.0296
 1763BOLB   C1C42305  10.805  19.572  20.378  0.3860  0.1320  0.1498
 1763BOLB   C2C42306  10.913  19.497  20.001 -0.0732 -0.1788  0.1650
 1763BOLB   C3C42307  11.107  19.345  19.721 -0.1290 -0.2854  0.3977
 1763BOLB   C4C42308  11.273  19.086  19.388  0.0873 -0.1965 -0.2169
 1763BOLB   C1D42309  10.487  19.380  20.716  0.0721 -0.3119 -0.0977
 1763BOLB   C2D42310  10.659  19.103  20.351  0.0170  0.3197 -0.0424
 1763BOLB   C3D42311  10.976  18.980  20.095 -0.0203  0.0628  0.0829
 1763BOLB   C4D42312  11.045  18.821  19.710 -0.1925 -0.0079 -0.0345
 1764BOLB   NC142313  23.886  11.824  16.975 -0.2108  0.1278  0.0829
 1764BOLB   PO142314  24.223  11.891  16.589 -0.0758  0.2071 -0.1439
 1764BOLB   GL142315  24.468  11.823  17.048  0.0377 -0.0081  0.3439
 1764BOLB   GL242316  24.616  12.139  17.208 -0.2121 -0.1387 -0.1652
 1764BOLB   C1A42317  24.865  11.572  17.115  0.0731 -0.4876  0.0114
 1764BOLB   C2A42318  25.345  11.535  17.133 -0.4220 -0.1949 -0.0790
 1764BOLB   C3A42319  25.803  11.550  17.047  0.0343 -0.0998 -0.0516
 1764BOLB   C4A42320  26.053  11.862  17.022 -0.0696  0.2298  0.2868
 1764BOLB   C1B42321  25.133  11.999  17.299  0.0920 -0.2448  0.0584
 1764BOLB   C2B42322  25.659  11.924  17.391 -0.0416 -0.1218 -0.0254
 1764BOLB   C3B42323  26.076  12.217  17.451  0.3072  0.3174  0.2471
 1764BOLB   C4B42324  26.536  12.207  17.453 -0.0460  0.1282  0.2907
 1764BOLB   NC242325  28.339  11.926  16.693 -0.0931  0.0984  0.1117
 1764BOLB   PO242326  28.574  12.280  16.930 -0.1795  0.1974  0.0183
 1764BOLB   GL342327  28.063  12.285  17.053  0.0911  0.1430 -0.1966
 1764BOLB   GL442328  27.784  12.563  16.989 -0.0031  0.1038 -0.0491
 1764BOLB   C1C42329  27.690  12.132  17.254 -0.4319 -0.0816 -0.0362
 1764BOLB   C2C42330  27.344  11.949  17.344 -0.2153 -0.0341 -0.2235
 1764BOLB   C3C42331  26.972  12.012  17.156 -0.2160  0.1016  0.1585
 1764BOLB   C4C42332  26.514  11.957  16.949  0.1581 -0.0038 -0.0610
 1764BOLB   C1D42333  27.324  12.527  17.156  0.0165  0.1694  0.0741
 1764BOLB   C2D42334  26.977  12.496  17.408 -0.0123 -0.0158  0.1190
 1764BOLB   C3D42335  26.843  12.324  17.875  0.3009  0.2146  0.2133
 1764BOLB   C4D42336  27.081  12.193  18.209 -0.0147  0.1446 -0.1025
 1765BOLB   NC142337  22.831   5.306  16.394 -0.2115  0.0356 -0.1168
 1765BOLB   PO142338  22.595   5.195  16.740  0.3174 -0.1932  0.1528
 1765BOLB   GL142339  22.986   4.947  16.742  0.2716 -0.4358 -0.0188
 1765BOLB   GL242340  23.137   5.043  17.108 -0.0090  0.0418 -0.2040
 1765BOLB   C1A42341  23.144   4.559  16.935  0.1350 -0.1254  0.0712
 1765BOLB   C2A42342  23.117   4.065  16.854 -0.0766 -0.0865 -0.2508
 1765BOLB   C3A42343  23.356   3.675  16.890 -0.1282 -0.0523 -0.1506
 1765BOLB   C4A42344  23.448   3.285  16.693 -0.0464 -0.3390  0.4162
 1765BOLB   C1B42345  23.535   4.833  16.901  0.1276 -0.2327  0.0372
 1765BOLB   C2B42346  24.035   4.574  16.830 -0.1620 -0.1486  0.3256
 1765BOLB   C3B42347  24.526   4.377  16.715  0.0697 -0.0808  0.1068
 1765BOLB   C4B42348  24.637   4.128  16.374 -0.1843 -0.0551  0.2703
 1765BOLB   NC242349  25.135   1.376  16.800  0.1830  0.1857  0.0990
 1765BOLB   PO242350  25.205   1.509  17.307 -0.2094 -0.0047  0.0783
 1765BOLB   GL342351  24.829   1.771  17.107  0.0755  0.0499 -0.1173
 1765BOLB   GL442352  24.813   1.805  16.774 -0.0965  0.2403  0.3114
 1765BOLB   C1C42353  24.550   2.194  17.141 -0.2256  0.1946  0.0850
 1765BOLB   C2C42354  24.117   2.318  16.932  0.0878  0.3941 -0.1622
 1765BOLB   C3C42355  23.854   2.572  16.648 -0.4057  0.1437 -0.1554
 1765BOLB   C4C42356  23.717   2.949  16.708 -0.2199 -0.5798 -0.0818
 1765BOLB   C1D42357  24.363   1.962  16.706  0.2378  0.0233 -0.3646
 1765BOLB   C2D42358  24.043   1.625  16.561 -0.0838 -0.0426  0.1286
 1765BOLB   C3D42359  23.752   1.463  16.811 -0.4232  0.5771 -0.2327
 1765BOLB   C4D42360  23.377   1.662  16.784  0.3220 -0.0531  0.0278
 1766BOLB   NC142361  21.892  15.264  13.128 -0.0573  0.1417 -0.0163
 1766BOLB   PO142362  22.336  15.238  13.052 -0.0059  0.3351  0.0207
 1766BOLB   GL142363  22.552  15.369  12.822 -0.0789  0.1986 -0.0821
 1766BOLB   GL242364  22.523  15.219  12.455 -0.4029  0.0985  0.2005
 1766BOLB   C1A42365  22.770  15.648  12.567 -0.2285 -0.2795  0.1289
 1766BOLB   C2A42366  22.859  15.936  12.261 -0.1188 -0.0511 -0.2833
 1766BOLB   C3A42367  22.958  16.254  12.075  0.0515 -0.0241 -0.1570
 1766BOLB   C4A42368  23.170  16.695  12.165 -0.2744 -0.3313 -0.4482
 1766BOLB   C1B42369  22.839  15.256  12.137 -0.0678 -0.0334  0.0475
 1766BOLB   C2B42370  23.068  15.586  11.892 -0.3595  0.1825 -0.1480
 1766BOLB   C3B42371  23.347  15.652  11.641  0.1439 -0.3639  0.0145
 1766BOLB   C4B42372  23.749  15.457  11.398 -0.3430 -0.1143 -0.1220
 1766BOLB   NC242373  25.211  17.961  11.282 -0.1045 -0.0812  0.0134
 1766BOLB   PO242374  25.131  17.493  11.265 -0.1519 -0.1497  0.0441
 1766BOLB   GL342375  24.934  17.181  11.413 -0.2766 -0.1332 -0.0721
 1766BOLB   GL442376  25.073  16.979  11.428  0.0110  0.0875 -0.1970
 1766BOLB   C1C42377  24.638  16.930  11.664 -0.1086  0.1820 -0.0399
 1766BOLB   C2C42378  24.339  16.878  11.864 -0.1354  0.2561  0.2591
 1766BOLB   C3C42379  23.880  16.952  11.998  0.1196 -0.1553  0.1851
 1766BOLB   C4C42380  23.439  16.898  12.230  0.0483  0.1089  0.3400
 1766BOLB   C1D42381  24.830  16.637  11.326 -0.4332 -0.0588 -0.1644
 1766BOLB   C2D42382  24.612  16.362  11.693 -0.3163 -0.4398  0.1157
 1766BOLB   C3D42383  24.312  16.168  11.918 -0.1841  0.1276 -0.4239
 1766BOLB   C4D42384  24.127  15.719  11.982  0.5247 -0.0053 -0.1907
 1767BOLB   NC142385  22.420  13.516  11.967 -0.0762 -0.1915  0.0043
 1767BOLB   PO142386  22.117  13.267  11.723 -0.0888 -0.1483 -0.1530
 1767BOLB   GL142387  22.411  13.560  11.455  0.2078 -0.0505  0.0510
 1767BOLB   GL242388  22.537  13.721  11.483 -0.3968 -0.1329 -0.1923
 1767BOLB   C1A42389  22.600  13.522  11.023 -0.0649 -0.0154  0.1697
 1767BOLB   C2A42390  22.851  13.357  10.767 -0.1407  0.0732 -0.1407
 1767BOLB   C3A42391  23.112  13.258  10.341  0.3090 -0.1437  0.1628
 1767BOLB   C4A42392  23.420  13.133  10.107  0.2349 -0.1649 -0.0206
 1767BOLB   C1B42393  22.669  14.004  11.169 -0.0077 -0.1360  0.1405
 1767BOLB   C2B42394  22.917  13.919  10.883  0.2885  0.0116 -0.1138
 1767BOLB   C3B42395  22.924  13.825  10.458  0.0192 -0.0573 -0.1789
 1767BOLB   C4B42396  23.224  13.738  10.222 -0.1986  0.2117 -0.0643
 1767BOLB   NC242397  24.956  13.140   8.180 -0.1638 -0.0787  0.0036
 1767BOLB   PO242398  25.062  13.478   8.445  0.1353  0.1536  0.0471
 1767BOLB   GL342399  24.841  13.531   8.870 -0.4975 -0.0967 -0.0181
 1767BOLB   GL442400  24.776  13.855   8.886  0.0906  0.0056 -0.1704
 1767BOLB   C1C42401  24.438  13.397   8.971 -0.0219  0.4160 -0.0910
 1767BOLB   C2C42402  24.255  13.040   9.171 -0.2788 -0.0274  0.0908
 1767BOLB   C3C42403  24.127  12.961   9.578  0.1560  0.3901 -0.2486
 1767BOLB   C4C42404  23.782  12.948   9.815  0.6064  0.1507 -0.1064
 1767BOLB   C1D42405  24.368  13.804   9.229  0.0869  0.0382  0.1933
 1767BOLB   C2D42406  23.956  13.698   9.434 -0.0561 -0.1468  0.2428
 1767BOLB   C3D42407  23.544  13.799   9.489  0.0296  0.3017 -0.0938
 1767BOLB   C4D42408  23.357  14.055   9.157  0.0739  0.1073  0.1981
 1768BOLB   NC142409  15.796  12.551  23.518  0.1364  0.1889  0.0063
 1768BOLB   PO142410  16.169  12.376  23.581  0.1151  0.0916  0.1553
 1768BOLB   GL142411  16.229  12.399  24.015  0.1622  0.3285  0.0724
 1768BOLB   GL242412  15.989  12.575  24.083  0.0066 -0.0285  0.0379
 1768BOLB   C1A42413  16.434  12.127  24.375  0.1205  0.0018 -0.2475
 1768BOLB   C2A42414  16.206  11.687  24.486 -0.3506 -0.2693 -0.0907
 1768BOLB   C3A42415  16.296  11.275  24.585  0.1974 -0.0022 -0.1339
 1768BOLB   C4A42416  16.336  11.257  25.075 -0.3667  0.0098 -0.0493
 1768BOLB   C1B42417  16.076  12.564  24.510  0.0623 -0.2838 -0.4375
 1768BOLB   C2B42418  15.941  12.645  24.896 -0.0888  0.1269  0.0799
 1768BOLB   C3B42419  15.586  12.865  25.117  0.2008  0.3597  0.0460
 1768BOLB   C4B42420  15.535  13.144  25.449 -0.0698  0.0055 -0.0327
 1768BOLB   NC242421  15.162  11.834  27.325 -0.0687 -0.1655  0.1049
 1768BOLB   PO242422  15.563  11.630  27.360  0.5400  0.2692  0.1440
 1768BOLB   GL342423  15.442  11.647  26.903  0.0543 -0.0387  0.2285
 1768BOLB   GL442424  15.638  11.395  26.841  0.2046 -0.2922  0.0408
 1768BOLB   C1C42425  15.639  11.789  26.545 -0.1409  0.4100  0.1104
 1768BOLB   C2C42426  15.874  11.719  26.180 -0.0869 -0.1511  0.1441
 1768BOLB   C3C42427  15.900  11.558  25.796 -0.1522 -0.0344  0.0517
 1768BOLB   C4C42428  16.110  11.284  25.481  0.0848 -0.0501 -0.0515
 1768BOLB   C1D42429  15.339  11.303  26.520  0.0050 -0.1144 -0.1619
 1768BOLB   C2D42430  15.378  11.052  26.162  0.0731 -0.2173 -0.1068
 1768BOLB   C3D42431  15.256  11.152  25.734 -0.1288  0.0211 -0.0693
 1768BOLB   C4D42432  14.987  11.036  25.388 -0.0518 -0.0071  0.0677
 1769BOLB   NC142433  12.652  16.440  20.270 -0.0384 -0.3775 -0.0443
 1769BOLB   PO142434  12.419  16.012  20.171  0.1214 -0.1254  0.1976
 1769BOLB   GL142435  12.140  16.313  20.412 -0.2477 -0.2878 -0.3225
 1769BOLB   GL242436  12.246  16.645  20.550  0.1353 -0.0377  0.0539
 1769BOLB   C1A42437  11.973  16.361  20.906 -0.2802  0.1195  0.0826
 1769BOLB   C2A42438  11.889  16.635  21.199 -0.3593  0.1242  0.3386
 1769BOLB   C3A42439  11.601  16.818  21.438  0.0979  0.1839  0.0098
 1769BOLB   C4A42440  11.237  16.660  21.557 -0.1666  0.0790  0.0689
 1769BOLB   C1B42441  12.052  16.871  20.815  0.0876 -0.0605  0.0341
 1769BOLB   C2B42442  11.961  17.202  21.135  0.2451  0.1765  0.0141
 1769BOLB   C3B42443  11.779  17.605  21.120 -0.1151 -0.0245 -0.1081
 1769BOLB   C4B42444  11.443  18.031  20.964  0.1715  0.0459  0.0554
 1769BOLB   NC242445  10.466  18.303  23.292  0.5316  0.1483 -0.1986
 1769BOLB   PO242446   9.996  18.133  22.978 -0.0793  0.3639  0.0483
 1769BOLB   GL342447  10.342  18.019  22.641 -0.0116  0.0346  0.1250
 1769BOLB   GL442448  10.545  18.092  22.776 -0.2458 -0.1305 -0.0170
 1769BOLB   C1C42449  10.654  17.741  22.398 -0.2123  0.1375  0.0988
 1769BOLB   C2C42450  10.705  17.328  22.320  0.0956  0.1732 -0.1985
 1769BOLB   C3C42451  11.076  16.888  22.177  0.3123  0.0478 -0.0561
 1769BOLB   C4C42452  11.102  16.541  22.002  0.2600 -0.2231 -0.1477
 1769BOLB   C1D42453  10.917  18.142  22.583 -0.1004 -0.0395 -0.1030
 1769BOLB   C2D42454  11.240  18.072  22.258 -0.0661 -0.1521  0.2117
 1769BOLB   C3D42455  11.457  17.942  21.877  0.3950  0.1926 -0.1037
 1769BOLB   C4D42456  11.816  17.732  21.722 -0.0907 -0.0433 -0.0162
 1770BOLB   NC142457  10.782   4.990  20.562 -0.2234 -0.0848  0.2107
 1770BOLB   PO142458  10.449   5.171  20.306  0.2026  0.2478  0.0195
 1770BOLB   GL142459  10.245   4.862  20.499  0.0473  0.0919 -0.0344
 1770BOLB   GL242460  10.479   4.564  20.730  0.2010 -0.3318  0.0713
 1770BOLB   C1A42461   9.950   4.571  20.764 -0.0576  0.2301  0.2257
 1770BOLB   C2A42462   9.880   4.267  20.978  0.0839 -0.0446 -0.1325
 1770BOLB   C3A42463   9.770   3.828  21.150 -0.0158  0.0357 -0.0973
 1770BOLB   C4A42464   9.852   3.368  21.228  0.2245  0.0212 -0.0818
 1770BOLB   C1B42465  10.370   4.387  21.072 -0.1147  0.0932 -0.0956
 1770BOLB   C2B42466  10.379   3.947  21.191 -0.1529  0.2739 -0.0036
 1770BOLB   C3B42467  10.192   3.907  21.630  0.0570 -0.0328  0.2801
 1770BOLB   C4B42468   9.714   3.704  21.612  0.0390  0.2437 -0.1381
 1770BOLB   NC242469  10.142   1.729  22.769 -0.2279 -0.0285 -0.0623
 1770BOLB   PO242470  10.099   1.468  22.358 -0.2656  0.2812  0.3226
 1770BOLB   GL342471  10.180   1.783  22.080  0.0651  0.2692 -0.0872
 1770BOLB   GL442472  10.466   1.655  22.014  0.1591 -0.2588 -0.0430
 1770BOLB   C1C42473  10.400   2.137  21.943  0.0963  0.2347  0.5297
 1770BOLB   C2C42474  10.552   2.470  21.902  0.0367 -0.3920  0.1736
 1770BOLB   C3C42475  10.406   2.909  21.899  0.3944 -0.2089  0.1140
 1770BOLB   C4C42476  10.093   3.146  21.520  0.2613  0.0586  0.3737
 1770BOLB   C1D42477  10.765   1.788  21.645 -0.2466 -0.4330 -0.1377
 1770BOLB   C2D42478  10.857   1.941  21.319  0.0813 -0.0951  0.1012
 1770BOLB   C3D42479  10.955   1.987  20.988 -0.1334  0.3802  0.2063
 1770BOLB   C4D42480  11.272   1.918  20.681  0.2000 -0.0628  0.1455
 1771BOLB   NC142481  19.119  17.568  18.767  0.0225  0.0449 -0.3063
 1771BOLB   PO142482  18.784  17.648  19.086 -0.0740  0.0288 -0.1379
 1771BOLB   GL142483  18.842  18.014  19.248 -0.1394  0.1839 -0.0418
 1771BOLB   GL242484  18.622  18.145  19.088 -0.0761 -0.1874  0.0666
 1771BOLB   C1A42485  19.156  18.408  19.314  0.2918 -0.0926 -0.0924
 1771BOLB   C2A42486  19.339  18.726  19.207  0.0278  0.0422 -0.3731
 1771BOLB   C3A42487  19.523  19.064  19.385 -0.0896  0.5366  0.0144
 1771BOLB   C4A42488  19.532  19.409  19.621  0.0618 -0.1065 -0.0677
 1771BOLB   C1B42489  18.791  18.507  19.004 -0.2085 -0.2195 -0.1379
 1771BOLB   C2B42490  18.858  18.951  19.164  0.0297 -0.0722 -0.1427
 1771BOLB   C3B42491  18.800  19.435  19.237  0.2437  0.0479  0.4736
 1771BOLB   C4B42492  18.582  19.707  19.543  0.3860  0.4196  0.1850
 1771BOLB   NC242493  20.377  21.518  21.088  0.0479  0.0196 -0.0903
 1771BOLB   PO242494  20.033  21.351  21.060  0.0624  0.1130  0.1217
 1771BOLB   GL342495  19.853  20.921  20.770 -0.0167  0.1106 -0.1379
 1771BOLB   GL442496  19.496  20.933  20.607 -0.0984  0.2038 -0.0062
 1771BOLB   C1C42497  19.839  20.520  20.401  0.2069  0.0524  0.3325
 1771BOLB   C2C42498  19.954  20.132  20.285  0.0803  0.2617 -0.2626
 1771BOLB   C3C42499  19.771  19.851  20.174  0.2151  0.5330  0.0074
 1771BOLB   C4C42500  19.498  19.617  19.980 -0.2745  0.1430 -0.0725
 1771BOLB   C1D42501  19.343  20.668  20.266 -0.0137 -0.2643 -0.1030
 1771BOLB   C2D42502  19.440  20.335  19.954  0.0055 -0.1886  0.3759
 1771BOLB   C3D42503  19.365  19.939  19.563 -0.0466  0.0413 -0.2065
 1771BOLB   C4D42504  19.323  19.615  19.175 -0.1249  0.2846  0.2420
 1772BOLB   NC142505  19.878  17.333  18.344 -0.2829  0.2426  0.1678
 1772BOLB   PO142506  19.542  17.469  18.514 -0.2748  0.1039 -0.2620
 1772BOLB   GL142507  19.971  17.748  18.495 -0.0701 -0.0107  0.3223
 1772BOLB   GL242508  20.087  17.683  18.778 -0.4284  0.3436  0.1023
 1772BOLB   C1A42509  19.984  18.143  18.372 -0.1084  0.1265 -0.1343
 1772BOLB   C2A42510  20.105  18.510  18.486  0.3273 -0.0419  0.2054
 1772BOLB   C3A42511  20.052  18.979  18.541  0.1823 -0.4174  0.1331
 1772BOLB   C4A42512  19.901  19.474  18.508  0.1173 -0.0487 -0.0682
 1772BOLB   C1B42513  20.099  18.119  18.923  0.1200 -0.2978 -0.0313
 1772BOLB   C2B42514  20.378  18.396  19.066  0.0744 -0.1004  0.2192
 1772BOLB   C3B42515  20.864  18.570  19.003  0.3972  0.3246 -0.0656
 1772BOLB   C4B42516  20.962  19.000  18.895  0.2179 -0.0634  0.1389
 1772BOLB   NC242517  21.596  21.566  17.975  0.2955  0.0389 -0.1642
 1772BOLB   PO242518  21.260  21.536  18.279  0.0990 -0.1530 -0.1518
 1772BOLB   GL342519  21.192  21.182  18.278  0.0543  0.0310  0.0842
 1772BOLB   GL442520  21.328  20.943  18.453 -0.0665 -0.0159  0.2474
 1772BOLB   C1C42521  20.953  20.879  18.090 -0.2990  0.2776 -0.0731
 1772BOLB   C2C42522  20.678  20.380  18.066  0.1360  0.1020 -0.1346
 1772BOLB   C3C42523  20.442  19.973  18.219 -0.1194  0.1406 -0.0392
 1772BOLB   C4C42524  20.101  19.929  18.387 -0.0444 -0.4042  0.1747
 1772BOLB   C1D42525  21.394  20.554  18.587  0.0807  0.0344  0.0005
 1772BOLB   C2D42526  21.331  20.138  18.656 -0.2959 -0.2298  0.1401
 1772BOLB   C3D42527  21.394  19.679  18.619  0.1678  0.2079  0.0181
 1772BOLB   C4D42528  21.316  19.252  18.703 -0.3517 -0.3557 -0.0653
 1773BOLB   NC142529  20.771   2.878  16.096 -0.1196  0.1397  0.0909
 1773BOLB   PO142530  20.506   2.465  16.223  0.0171 -0.2143  0.1490
 1773BOLB   GL142531  20.794   2.147  16.228 -0.0785 -0.2665  0.1391
 1773BOLB   GL242532  21.107   2.096  16.173  0.1635  0.0198  0.2653
 1773BOLB   C1A42533  20.764   1.740  16.387 -0.1550 -0.1208  0.1409
 1773BOLB   C2A42534  20.854   1.230  16.240 -0.2442 -0.1609 -0.1013
 1773BOLB   C3A42535  20.751   0.891  15.981  0.1985  0.0086 -0.0218
 1773BOLB   C4A42536  20.843   0.695  15.621 -0.3237 -0.1367 -0.0820
 1773BOLB   C1B42537  21.520   2.088  16.039  0.0539 -0.2662  0.2424
 1773BOLB   C2B42538  21.790   1.947  15.704  0.0209  0.0189 -0.3096
 1773BOLB   C3B42539  21.885   1.562  15.520 -0.1963 -0.0086  0.0573
 1773BOLB   C4B42540  21.732   1.127  15.608 -0.2905 -0.3653 -0.1157
 1773BOLB   NC242541  21.852  -1.269  15.080  0.2411  0.4851 -0.1809
 1773BOLB   PO242542  22.236  -1.367  15.306 -0.1350 -0.2392 -0.2339
 1773BOLB   GL342543  22.140  -0.910  15.286 -0.0175 -0.3468 -0.0183
 1773BOLB   GL442544  22.023  -0.718  15.651  0.0835 -0.2236 -0.1647
 1773BOLB   C1C42545  21.923  -0.528  15.039 -0.1841  0.2656 -0.0836
 1773BOLB   C2C42546  21.546  -0.230  14.894 -0.0957 -0.0353  0.0441
 1773BOLB   C3C42547  21.126   0.106  15.003 -0.0118 -0.0689 -0.3190
 1773BOLB   C4C42548  20.884   0.433  15.244 -0.0238  0.1404  0.0929
 1773BOLB   C1D42549  21.643  -0.423  15.427 -0.0071 -0.2335  0.0065
 1773BOLB   C2D42550  21.453  -0.025  15.374  0.0990  0.0620 -0.0931
 1773BOLB   C3D42551  21.428   0.383  15.348  0.1228  0.0286 -0.1669
 1773BOLB   C4D42552  21.775   0.712  15.365  0.2428  0.5603 -0.1184
 1774BOLB   NC142553   4.156   5.013  19.128  0.0570  0.3283  0.0095
 1774BOLB   PO142554   3.940   4.595  19.262  0.0896  0.0609 -0.0391
 1774BOLB   GL142555   4.327   4.502  19.035  0.2745  0.1153 -0.0608
 1774BOLB   GL242556   4.537   4.244  18.994  0.0825 -0.2137 -0.3305
 1774BOLB   C1A42557   4.361   4.653  18.603 -0.1262  0.4087  0.0402
 1774BOLB   C2A42558   4.369   4.952  18.329  0.1395 -0.0842  0.2149
 1774BOLB   C3A42559   4.757   4.976  18.013 -0.0631 -0.3658 -0.1953
 1774BOLB   C4A42560   5.098   5.208  17.952  0.0022 -0.1756  0.0835
 1774BOLB   C1B42561   4.814   4.561  18.691  0.0971 -0.2121  0.0362
 1774BOLB   C2B42562   4.943   4.395  18.329  0.0706 -0.2864  0.5569
 1774BOLB   C3B42563   5.119   4.517  17.918 -0.0427 -0.3223  0.0350
 1774BOLB   C4B42564   5.162   4.758  17.728  0.0420  0.2190 -0.3515
 1774BOLB   NC242565   4.664   5.736  19.793 -0.0123  0.0290 -0.1611
 1774BOLB   PO242566   4.476   6.131  19.747  0.1890  0.2496  0.2132
 1774BOLB   GL342567   4.868   6.211  19.470 -0.3759  0.0842 -0.2858
 1774BOLB   GL442568   4.791   6.429  19.152 -0.3665  0.4433 -0.0548
 1774BOLB   C1C42569   5.231   6.183  19.165  0.1529  0.0023  0.3775
 1774BOLB   C2C42570   5.364   5.998  18.732  0.1957 -0.1386 -0.2940
 1774BOLB   C3C42571   5.142   5.773  18.485  0.2312 -0.0363 -0.2495
 1774BOLB   C4C42572   5.118   5.451  18.264 -0.0126 -0.2539  0.1440
 1774BOLB   C1D42573   4.552   6.574  18.782  0.1905 -0.0511 -0.1405
 1774BOLB   C2D42574   4.730   6.613  18.334 -0.1925  0.1768  0.0182
 1774BOLB   C3D42575   4.636   6.730  17.890 -0.3143 -0.1448 -0.1442
 1774BOLB   C4D42576   4.342   6.960  17.805 -0.1629 -0.1533  0.2687
 1775BOLB   NC142577  20.714  11.771  22.623 -0.0445 -0.3205 -0.2478
 1775BOLB   PO142578  21.054  12.066  22.626 -0.2822  0.2289 -0.0389
 1775BOLB   GL142579  21.388  12.149  22.851 -0.0791 -0.3535  0.1689
 1775BOLB   GL242580  21.608  12.250  22.522 -0.0335  0.0713  0.0857
 1775BOLB   C1A42581  21.558  12.313  23.156  0.0362  0.0941  0.1588
 1775BOLB   C2A42582  21.708  12.639  23.292 -0.1952  0.0524  0.1484
 1775BOLB   C3A42583  21.904  12.870  23.656  0.1826 -0.3186 -0.2197
 1775BOLB   C4A42584  22.184  13.143  23.842  0.0287  0.1446  0.5343
 1775BOLB   C1B42585  22.002  12.106  22.780 -0.0670  0.1147  0.0954
 1775BOLB   C2B42586  22.174  12.373  23.190 -0.2266  0.0877 -0.0671
 1775BOLB   C3B42587  22.415  12.353  23.495  0.2614  0.0712 -0.1987
 1775BOLB   C4B42588  22.717  12.139  23.634  0.4862 -0.0538  0.1831
 1775BOLB   NC242589  24.128  14.134  24.571 -0.0312 -0.0930 -0.1243
 1775BOLB   PO242590  23.805  14.302  24.894 -0.1463  0.2074 -0.0534
 1775BOLB   GL342591  23.611  14.056  24.580 -0.0909 -0.1841 -0.1700
 1775BOLB   GL442592  23.293  14.217  24.490 -0.0517 -0.1246 -0.1485
 1775BOLB   C1C42593  23.432  13.764  24.441  0.0430 -0.2721  0.1574
 1775BOLB   C2C42594  23.254  13.661  24.087  0.0963  0.1813  0.3097
 1775BOLB   C3C42595  22.861  13.704  23.903 -0.0328  0.0798  0.0163
 1775BOLB   C4C42596  22.434  13.549  23.895 -0.2732  0.1283 -0.1881
 1775BOLB   C1D42597  22.938  14.221  24.289  0.3181  0.1146  0.2332
 1775BOLB   C2D42598  22.510  14.012  24.121  0.0197 -0.5312 -0.1803
 1775BOLB   C3D42599  22.145  13.975  23.988  0.1013  0.0622 -0.3021
 1775BOLB   C4D42600  21.760  13.905  23.748  0.1270 -0.1103 -0.0764
 1776BOLB   NC142601  24.057   9.395  13.908 -0.1262 -0.0037 -0.0835
 1776BOLB   PO142602  24.068   9.011  14.207 -0.1578  0.5070  0.0857
 1776BOLB   GL142603  24.451   9.158  14.134  0.1028 -0.4038 -0.3149
 1776BOLB   GL242604  24.600   9.377  13.879  0.2054  0.0853  0.4665
 1776BOLB   C1A42605  24.958   9.104  14.060 -0.0405 -0.4153 -0.0135
 1776BOLB   C2A42606  25.339   9.332  14.112 -0.0006  0.2797 -0.0464
 1776BOLB   C3A42607  25.596   9.522  14.179  0.0615 -0.1098  0.0556
 1776BOLB   C4A42608  26.059   9.524  14.307  0.4136 -0.0506  0.1696
 1776BOLB   C1B42609  25.040   9.653  13.832 -0.0699  0.1637  0.2216
 1776BOLB   C2B42610  25.436   9.848  13.869  0.1498 -0.3125 -0.1700
 1776BOLB   C3B42611  25.767   9.775  13.684 -0.2959 -0.5220 -0.1804
 1776BOLB   C4B42612  26.172   9.700  13.666 -0.3167  0.3531 -0.1724
 1776BOLB   NC242613  28.176   9.179  14.586 -0.0412 -0.0707 -0.1167
 1776BOLB   PO242614  28.192   9.604  14.346 -0.1456  0.1685 -0.1991
 1776BOLB   GL342615  27.754   9.742  14.265  0.2904  0.1496 -0.2753
 1776BOLB   GL442616  27.699  10.053  14.092  0.1750 -0.0127 -0.0139
 1776BOLB   C1C42617  27.461   9.969  14.495 -0.0148  0.1280  0.0521
 1776BOLB   C2C42618  27.067  10.006  14.441  0.1432 -0.0638 -0.1142
 1776BOLB   C3C42619  26.783   9.949  14.209  0.1442 -0.0011  0.0443
 1776BOLB   C4C42620  26.345   9.852  14.342  0.4909 -0.2034 -0.1401
 1776BOLB   C1D42621  27.269   9.829  14.011  0.0427 -0.1698  0.1494
 1776BOLB   C2D42622  26.972   9.714  13.803 -0.1465 -0.1159 -0.1845
 1776BOLB   C3D42623  26.687   9.811  13.622 -0.1570  0.0911  0.1431
 1776BOLB   C4D42624  26.636  10.084  13.355 -0.0215 -0.2156  0.2198
 1777BOLB   NC142625  11.595   5.388  20.708  0.2960  0.1703 -0.1548
 1777BOLB   PO142626  11.606   5.057  20.934 -0.1642 -0.1035  0.2047
 1777BOLB   GL142627  11.409   5.126  21.323 -0.1706  0.2567  0.0158
 1777BOLB   GL242628  11.423   5.387  21.604  0.2437  0.3036  0.3546
 1777BOLB   C1A42629  11.499   4.811  21.666 -0.0844 -0.1731  0.0505
 1777BOLB   C2A42630  11.182   4.610  21.832  0.0938 -0.2108 -0.0374
 1777BOLB   C3A42631  10.870   4.677  21.947 -0.0677  0.1738  0.1120
 1777BOLB   C4A42632  10.448   4.705  22.008  0.0097  0.0177 -0.1061
 1777BOLB   C1B42633  11.054   5.106  21.679 -0.1395  0.1131 -0.1044
 1777BOLB   C2B42634  10.715   5.206  21.868  0.0648 -0.0783  0.2224
 1777BOLB   C3B42635  10.555   5.167  22.192  0.1145  0.4691  0.2147
 1777BOLB   C4B42636  10.338   4.837  22.424 -0.4931 -0.0247  0.1310
 1777BOLB   NC242637   8.504   3.619  23.328 -0.1197  0.1310  0.1523
 1777BOLB   PO242638   8.539   3.280  23.156 -0.1858  0.0955  0.2090
 1777BOLB   GL342639   8.929   3.436  22.904  0.0595  0.0754  0.0123
 1777BOLB   GL442640   8.874   3.327  22.661 -0.0770  0.0112 -0.3227
 1777BOLB   C1C42641   9.036   3.823  22.747  0.2643  0.0210  0.0060
 1777BOLB   C2C42642   9.426   4.029  22.480  0.0411 -0.1068  0.2911
 1777BOLB   C3C42643   9.753   4.273  22.210 -0.4436 -0.1684 -0.2655
 1777BOLB   C4C42644  10.183   4.390  22.079  0.1676  0.0463 -0.0424
 1777BOLB   C1D42645   9.125   3.434  22.222  0.0539 -0.0609  0.0924
 1777BOLB   C2D42646   9.305   3.892  21.979 -0.2513 -0.1615  0.0978
 1777BOLB   C3D42647   9.582   4.142  21.786  0.0630  0.0366 -0.0367
 1777BOLB   C4D42648   9.853   4.249  21.461  0.0810  0.2569 -0.4625
 1778BOLB   NC142649  28.803  11.575  15.759  0.3454  0.1355  0.2508
 1778BOLB   PO142650  28.720  11.106  15.807 -0.2818 -0.1450 -0.2468
 1778BOLB   GL142651  28.402  11.071  16.125  0.0841  0.1505  0.2452
 1778BOLB   GL242652  28.107  10.930  15.958  0.2053 -0.0351 -0.0999
 1778BOLB   C1A42653  28.024  11.200  16.400 -0.4026  0.2112 -0.2835
 1778BOLB   C2A42654  27.715  11.410  16.398  0.0366 -0.1239 -0.0846
 1778BOLB   C3A42655  27.621  11.766  16.725  0.0514 -0.4343 -0.1552
 1778BOLB   C4A42656  27.379  12.201  16.817 -0.2195 -0.4087 -0.2692
 1778BOLB   C1B42657  27.742  10.754  16.217 -0.0609  0.1250 -0.0879
 1778BOLB   C2B42658  27.434  10.680  16.482  0.0416  0.0159  0.1751
 1778BOLB   C3B42659  27.094  10.441  16.419  0.4704 -0.1710  0.1004
 1778BOLB   C4B42660  26.732  10.139  16.634 -0.4592 -0.1533  0.1083
 1778BOLB   NC242661  27.830  13.425  15.444 -0.2806 -0.2150  0.0154
 1778BOLB   PO242662  27.821  13.308  15.079 -0.3523 -0.0449 -0.4385
 1778BOLB   GL342663  27.613  12.925  15.246 -0.0896 -0.0061  0.0052
 1778BOLB   GL442664  27.380  13.169  15.475 -0.1161 -0.1565 -0.1378
 1778BOLB   C1C42665  27.352  12.715  15.594  0.0412  0.1875 -0.0441
 1778BOLB   C2C42666  27.017  12.782  15.878  0.1918  0.3826  0.0994
 1778BOLB   C3C42667  27.011  12.745  16.310 -0.1929  0.1375  0.1645
 1778BOLB   C4C42668  27.130  12.382  16.550 -0.0930 -0.3362  0.0079
 1778BOLB   C1D42669  27.110  12.939  15.235 -0.0861  0.1078  0.0734
 1778BOLB   C2D42670  26.823  12.723  15.417 -0.0840 -0.0996 -0.2256
 1778BOLB   C3D42671  26.390  12.776  15.523 -0.0311 -0.0643  0.0582
 1778BOLB   C4D42672  26.003  12.777  15.425  0.0235 -0.1405 -0.1228
 1779BOLB   NC142673  15.357  18.156  19.376 -0.0767  0.0490  0.0329
 1779BOLB   PO142674  15.561  18.300  19.008 -0.0859  0.2609 -0.0858
 1779BOLB   GL142675  15.408  18.631  19.210  0.5403 -0.1012 -0.0499
 1779BOLB   GL242676  15.250  18.593  19.597 -0.3171 -0.5793  0.0476
 1779BOLB   C1A42677  15.059  18.898  19.246 -0.2440  0.2335 -0.1855
 1779BOLB   C2A42678  14.842  19.288  19.222  0.2340  0.0301  0.0860
 1779BOLB   C3A42679  14.833  19.692  19.461  0.0826 -0.0946  0.0723
 1779BOLB   C4A42680  14.824  19.969  19.748  0.0072 -0.4329 -0.0843
 1779BOLB   C1B42681  15.172  19.020  19.814  0.2033  0.1182 -0.1197
 1779BOLB   C2B42682  15.025  19.406  19.835  0.2058 -0.6160 -0.1823
 1779BOLB   C3B42683  14.695  19.652  20.078  0.0386 -0.2372 -0.3190
 1779BOLB   C4B42684  14.404  19.887  20.334 -0.1504 -0.2214 -0.0968
 1779BOLB   NC242685  14.785  22.620  19.540  0.0818 -0.2390  0.0967
 1779BOLB   PO242686  14.653  22.348  19.750  0.1396 -0.1721 -0.0798
 1779BOLB   GL342687  14.682  21.948  19.545 -0.0572  0.0329 -0.2659
 1779BOLB   GL442688  15.003  21.927  19.674 -0.3824 -0.0627 -0.3942
 1779BOLB   C1C42689  14.691  21.550  19.551 -0.3559 -0.0506 -0.0165
 1779BOLB   C2C42690  14.578  21.241  19.413  0.2038  0.0132 -0.1600
 1779BOLB   C3C42691  14.785  20.892  19.638 -0.2028  0.2061  0.2449
 1779BOLB   C4C42692  14.717  20.411  19.833 -0.2244 -0.0862  0.1965
 1779BOLB   C1D42693  15.163  21.449  19.762  0.2122  0.1366 -0.1007
 1779BOLB   C2D42694  15.322  21.114  19.923 -0.0688 -0.1114  0.0655
 1779BOLB   C3D42695  15.494  20.801  19.647  0.1906  0.2486  0.1858
 1779BOLB   C4D42696  15.619  20.524  19.255  0.1419 -0.3370 -0.0850
 1780BOLB   NC142697   9.995   7.484  20.402  0.0055  0.0672  0.2764
 1780BOLB   PO142698   9.734   7.838  20.618  0.0154  0.1791  0.0502
 1780BOLB   GL142699   9.672   7.892  21.040  0.0470 -0.1191 -0.0671
 1780BOLB   GL242700   9.903   7.980  21.166  0.0841 -0.0440 -0.1065
 1780BOLB   C1A42701   9.439   7.911  21.530  0.1774  0.2540 -0.1478
 1780BOLB   C2A42702   9.284   7.713  21.746 -0.0812  0.1853  0.1611
 1780BOLB   C3A42703   9.255   7.596  22.071  0.3748 -0.0337  0.1277
 1780BOLB   C4A42704   8.995   7.426  22.369 -0.0162  0.4377  0.0509
 1780BOLB   C1B42705   9.828   8.095  21.685  0.3227 -0.0926  0.0299
 1780BOLB   C2B42706   9.722   7.857  22.029 -0.3082 -0.1411  0.2836
 1780BOLB   C3B42707   9.518   7.906  22.365  0.0594 -0.0403 -0.0752
 1780BOLB   C4B42708   9.198   8.150  22.520  0.3251 -0.1468  0.0888
 1780BOLB   NC242709   7.633   6.856  24.388 -0.1839 -0.1727 -0.0082
 1780BOLB   PO242710   7.395   6.793  24.084 -0.0463 -0.3989  0.2614
 1780BOLB   GL342711   7.705   6.777  23.742  0.0890 -0.3933 -0.0322
 1780BOLB   GL442712   7.791   6.466  23.585  0.2008  0.0322  0.1713
 1780BOLB   C1C42713   8.055   6.866  23.566  0.0031 -0.0146  0.1714
 1780BOLB   C2C42714   8.441   6.721  23.164 -0.0258 -0.3042 -0.1460
 1780BOLB   C3C42715   8.429   6.831  22.757  0.0835 -0.0096  0.0105
 1780BOLB   C4C42716   8.630   7.176  22.562  0.0690 -0.1522  0.3298
 1780BOLB   C1D42717   7.846   6.435  23.200 -0.0157 -0.0017  0.0667
 1780BOLB   C2D42718   8.128   6.318  22.781 -0.0027  0.1347 -0.0945
 1780BOLB   C3D42719   8.341   6.431  22.444  0.0427  0.4476  0.0352
 1780BOLB   C4D42720   8.641   6.179  22.054 -0.2297  0.2760 -0.3922
 1781BOLB   NC142721  13.559  13.011  22.649 -0.4334 -0.1373  0.0741
 1781BOLB   PO142722  13.432  13.458  22.585  0.3899  0.0024 -0.2273
 1781BOLB   GL142723  13.118  13.332  22.797 -0.1760  0.1795  0.1498
 1781BOLB   GL242724  13.139  13.099  22.942 -0.0591 -0.1158 -0.0537
 1781BOLB   C1A42725  12.842  13.489  22.978 -0.1186  0.1936  0.0331
 1781BOLB   C2A42726  12.729  13.545  23.483 -0.3214 -0.1162 -0.3073
 1781BOLB   C3A42727  13.010  13.816  23.770 -0.0407 -0.0677 -0.1611
 1781BOLB   C4A42728  13.007  13.748  24.169  0.1425 -0.3696 -0.1659
 1781BOLB   C1B42729  12.900  13.065  23.380  0.0419 -0.0724 -0.1834
 1781BOLB   C2B42730  12.645  12.869  23.679 -0.0759 -0.1638 -0.0205
 1781BOLB   C3B42731  12.300  12.814  23.891 -0.0906 -0.1161 -0.2154
 1781BOLB   C4B42732  11.931  12.927  24.157 -0.1849 -0.0281 -0.2899
 1781BOLB   NC242733  11.801  14.627  26.225  0.2728  0.2291 -0.0812
 1781BOLB   PO242734  12.223  14.637  26.212  0.3428  0.2091  0.1582
 1781BOLB   GL342735  12.497  14.493  25.955 -0.2863 -0.2363  0.3408
 1781BOLB   GL442736  12.636  14.257  26.038  0.0447  0.0411  0.0056
 1781BOLB   C1C42737  12.447  14.497  25.515  0.2982 -0.0182  0.3333
 1781BOLB   C2C42738  12.441  14.520  25.116  0.1376 -0.0349  0.1430
 1781BOLB   C3C42739  12.806  14.427  24.802 -0.0222  0.1357  0.5497
 1781BOLB   C4C42740  13.006  14.161  24.509  0.4728  0.0061  0.0544
 1781BOLB   C1D42741  12.634  14.001  25.558  0.1370  0.0452 -0.3370
 1781BOLB   C2D42742  12.793  14.146  25.196 -0.3071 -0.0856 -0.0278
 1781BOLB   C3D42743  12.721  13.953  24.853 -0.1735 -0.1743 -0.3323
 1781BOLB   C4D42744  12.818  13.532  24.642  0.1654  0.0350 -0.1527
 1782BOLB   NC142745  17.506   1.118  15.885  0.2993 -0.1024  0.3537
 1782BOLB   PO142746  17.731   0.842  16.196 -0.0835 -0.0637  0.1613
 1782BOLB   GL142747  17.475   0.542  16.161 -0.3437 -0.2868  0.1030
 1782BOLB   GL242748  17.052   0.619  16.270 -0.0399  0.0199  0.3392
 1782BOLB   C1A42749  17.240   0.065  16.182  0.2806  0.0028  0.0073
 1782BOLB   C2A42750  17.512  -0.318  16.235 -0.0656 -0.0032  0.0801
 1782BOLB   C3A42751  17.922  -0.301  16.284  0.2352 -0.1877  0.0017
 1782BOLB   C4A42752  18.285  -0.450  16.022  0.1376 -0.0096 -0.0708
 1782BOLB   C1B42753  17.029   0.314  16.619 -0.1469  0.1216 -0.0147
 1782BOLB   C2B42754  17.111  -0.061  16.780  0.0628  0.2066 -0.2318
 1782BOLB   C3B42755  17.050  -0.488  16.990  0.2990 -0.0770 -0.2338
 1782BOLB   C4B42756  17.169  -0.945  16.894 -0.0848  0.1383  0.4242
 1782BOLB   NC242757  20.585  -2.043  15.719 -0.2857  0.0966 -0.1886
 1782BOLB   PO242758  20.183  -2.081  15.996 -0.2847 -0.0691 -0.2010
 1782BOLB   GL342759  20.010  -1.745  15.765 -0.1405 -0.2790  0.1431
 1782BOLB   GL442760  20.208  -1.751  15.510  0.2431 -0.2361 -0.1840
 1782BOLB   C1C42761  19.768  -1.338  15.767  0.1817  0.2443 -0.5458
 1782BOLB   C2C42762  19.393  -1.252  15.787 -0.0926  0.0813 -0.2489
 1782BOLB   C3C42763  19.019  -0.919  15.897 -0.0125 -0.0152 -0.0205
 1782BOLB   C4C42764  18.690  -0.618  16.104 -0.0704  0.0076 -0.0475
 1782BOLB   C1D42765  20.093  -1.296  15.333  0.0323  0.0851 -0.1540
 1782BOLB   C2D42766  20.278  -0.969  15.193 -0.1771 -0.1610  0.1065
 1782BOLB   C3D42767  20.106  -0.651  15.120  0.0262 -0.2840 -0.1680
 1782BOLB   C4D42768  19.767  -0.425  15.351 -0.2404  0.1820  0.0437
 1783BOLB   NC142769   8.978  13.605  12.984 -0.0299  0.1476  0.0328
 1783BOLB   PO142770   8.809  13.271  12.881  0.0806 -0.2362  0.2419
 1783BOLB   GL142771   8.534  13.242  12.559 -0.3957  0.2552  0.1134
 1783BOLB   GL242772   8.685  13.130  12.254  0.2389 -0.2971 -0.3108
 1783BOLB   C1A42773   8.145  13.424  12.383  0.1105 -0.2145 -0.3909
 1783BOLB   C2A42774   8.186  13.505  11.919  0.4138  0.1098 -0.1986
 1783BOLB   C3A42775   7.888  13.543  11.595  0.0308 -0.0482  0.2037
 1783BOLB   C4A42776   7.735  13.717  11.278 -0.1423 -0.0655  0.3367
 1783BOLB   C1B42777   8.404  12.970  11.989  0.0813 -0.0826  0.0087
 1783BOLB   C2B42778   8.094  13.088  11.708  0.2801  0.4152  0.0024
 1783BOLB   C3B42779   8.093  13.202  11.310  0.2635 -0.2683 -0.0424
 1783BOLB   C4B42780   8.201  13.199  10.935  0.1961 -0.3302 -0.1793
 1783BOLB   NC242781   6.038  15.260  11.045 -0.1753 -0.0949 -0.0620
 1783BOLB   PO242782   5.788  15.066  10.724  0.0152  0.4749 -0.3402
 1783BOLB   GL342783   6.130  14.711  10.903 -0.0894  0.4070 -0.0439
 1783BOLB   GL442784   6.075  14.348  10.845  0.0250  0.0314  0.3037
 1783BOLB   C1C42785   6.576  14.586  10.944 -0.3213  0.0963  0.1907
 1783BOLB   C2C42786   6.990  14.356  10.841  0.2734  0.1169 -0.2565
 1783BOLB   C3C42787   7.262  14.292  11.146 -0.0203  0.3905  0.5327
 1783BOLB   C4C42788   7.368  13.991  11.192 -0.2119 -0.0307 -0.2039
 1783BOLB   C1D42789   6.294  14.181  10.696 -0.1966  0.3217  0.1618
 1783BOLB   C2D42790   6.708  14.008  10.629 -0.0720 -0.2209 -0.1716
 1783BOLB   C3D42791   7.050  13.845  10.905  0.0485  0.3189 -0.0668
 1783BOLB   C4D42792   7.102  13.545  11.193  0.0465 -0.0177 -0.0463
 1784BOLB   NC142793  20.380  10.170   9.900 -0.3607 -0.1128  0.1751
 1784BOLB   PO142794  20.845  10.160   9.937 -0.0367  0.1858 -0.0213
 1784BOLB   GL142795  21.248  10.094   9.743  0.0782 -0.0708  0.1678
 1784BOLB   GL242796  21.575  10.046   9.866  0.0102 -0.0111 -0.0266
 1784BOLB   C1A42797  21.444   9.801   9.431 -0.3722 -0.1316 -0.1463
 1784BOLB   C2A42798  21.844   9.680   9.190  0.0474  0.0403  0.1448
 1784BOLB   C3A42799  22.160   9.612   8.824 -0.1486 -0.1152  0.0585
 1784BOLB   C4A42800  22.217   9.425   8.487  0.0912 -0.1794 -0.2001
 1784BOLB   C1B42801  21.761  10.262   9.422  0.1043 -0.0045 -0.2885
 1784BOLB   C2B42802  22.070  10.501   9.109  0.2969  0.2251  0.2572
 1784BOLB   C3B42803  22.124  10.435   8.780 -0.2495 -0.2038  0.0309
 1784BOLB   C4B42804  22.435  10.453   8.418  0.3236 -0.3960 -0.0478
 1784BOLB   NC242805  24.472   9.541   7.018 -0.2695 -0.2081 -0.0052
 1784BOLB   PO242806  24.321   9.188   7.059  0.2019  0.1385 -0.2536
 1784BOLB   GL342807  23.934   9.012   7.286  0.0364  0.1562  0.1050
 1784BOLB   GL442808  23.965   8.701   7.567  0.1235 -0.0816 -0.0897
 1784BOLB   C1C42809  23.456   8.996   7.488  0.1727 -0.1060  0.1432
 1784BOLB   C2C42810  23.176   9.232   7.804  0.0986 -0.1224 -0.1505
 1784BOLB   C3C42811  22.762   9.232   7.997  0.0586 -0.1755  0.2543
 1784BOLB   C4C42812  22.406   9.161   8.188 -0.4148  0.2424 -0.1702
 1784BOLB   C1D42813  23.529   8.566   7.769 -0.2885 -0.2251 -0.0048
 1784BOLB   C2D42814  23.233   8.808   8.001 -0.1488  0.0219  0.1329
 1784BOLB   C3D42815  22.883   8.769   8.208 -0.2775 -0.2160  0.1854
 1784BOLB   C4D42816  22.366   8.648   8.078 -0.0980 -0.1411  0.0429
 1785BOLB   NC142817  15.343  21.565  10.629 -0.1671 -0.0755 -0.5807
 1785BOLB   PO142818  15.091  21.174  10.625 -0.0750  0.2352  0.4374
 1785BOLB   GL142819  15.275  20.776  10.682 -0.0132  0.0374  0.0811
 1785BOLB   GL242820  15.314  20.662  10.441  0.3856 -0.2190  0.1232
 1785BOLB   C1A42821  15.502  20.320  10.794  0.0413 -0.5547 -0.2684
 1785BOLB   C2A42822  15.547  19.914  11.042  0.4657  0.0130  0.1863
 1785BOLB   C3A42823  15.527  19.810  11.494  0.1278  0.1038 -0.2174
 1785BOLB   C4A42824  15.216  19.836  11.794 -0.3657  0.2404  0.0111
 1785BOLB   C1B42825  15.237  20.243  10.382  0.0707 -0.1947 -0.0102
 1785BOLB   C2B42826  15.138  19.898  10.652  0.2529  0.0502 -0.3353
 1785BOLB   C3B42827  15.246  19.553  10.846  0.0625 -0.0138 -0.1163
 1785BOLB   C4B42828  15.415  19.414  11.146 -0.0326 -0.1039  0.0706
 1785BOLB   NC242829  14.981  22.170  12.448  0.2416  0.0751 -0.0306
 1785BOLB   PO242830  14.748  21.819  12.101  0.3423 -0.1620 -0.0337
 1785BOLB   GL342831  14.655  21.397  12.299 -0.0911  0.2847 -0.1839
 1785BOLB   GL442832  14.388  21.339  12.404  0.1804 -0.1265  0.0179
 1785BOLB   C1C42833  14.797  21.141  12.609  0.1162 -0.1059 -0.3764
 1785BOLB   C2C42834  14.877  20.705  12.452  0.3085  0.1157 -0.1621
 1785BOLB   C3C42835  14.826  20.355  12.291 -0.0372 -0.3510  0.3574
 1785BOLB   C4C42836  15.121  20.060  12.154  0.2910  0.2332 -0.0233
 1785BOLB   C1D42837  14.316  20.933  12.674  0.0299 -0.2033 -0.0498
 1785BOLB   C2D42838  14.623  20.760  12.874 -0.1176  0.3136 -0.3092
 1785BOLB   C3D42839  14.993  20.516  13.039  0.2841 -0.3377 -0.1929
 1785BOLB   C4D42840  15.307  20.259  13.039  0.1768  0.4099  0.1054
 1786BOLB   NC142841  19.641  15.303  10.901 -0.0518 -0.0455  0.1099
 1786BOLB   PO142842  20.025  15.564  10.990 -0.1419 -0.0247  0.0397
 1786BOLB   GL142843  20.139  15.757  10.544 -0.2585  0.0849 -0.4638
 1786BOLB   GL242844  20.140  16.043  10.720  0.0864 -0.0799 -0.0532
 1786BOLB   C1A42845  20.312  15.943  10.149 -0.2463  0.0840  0.2389
 1786BOLB   C2A42846  20.147  16.115   9.818  0.0206  0.2692 -0.0062
 1786BOLB   C3A42847  20.008  16.543   9.557 -0.1226  0.1133  0.3185
 1786BOLB   C4A42848  19.973  16.968   9.283  0.3662 -0.2495 -0.0488
 1786BOLB   C1B42849  20.230  16.363  10.362  0.2458  0.1872 -0.0942
 1786BOLB   C2B42850  20.554  16.699  10.416  0.1416 -0.1719 -0.1184
 1786BOLB   C3B42851  20.650  17.084  10.285  0.0716  0.1691  0.0421
 1786BOLB   C4B42852  20.935  17.298  10.084 -0.0389 -0.4339  0.3961
 1786BOLB   NC242853  21.546  18.982   8.742 -0.2606  0.1415  0.0841
 1786BOLB   PO242854  21.126  18.865   8.774 -0.1167 -0.1222  0.2580
 1786BOLB   GL342855  20.887  18.482   8.837  0.0308  0.1324 -0.0906
 1786BOLB   GL442856  20.870  18.490   8.458  0.2344  0.0838  0.1557
 1786BOLB   C1C42857  20.901  18.023   8.673  0.0074 -0.0934 -0.4497
 1786BOLB   C2C42858  20.490  17.832   8.562  0.2532  0.1234 -0.1640
 1786BOLB   C3C42859  20.356  17.478   8.768  0.2399 -0.1455  0.0123
 1786BOLB   C4C42860  20.079  17.241   8.956 -0.0408 -0.0985 -0.0086
 1786BOLB   C1D42861  20.592  18.259   8.242  0.0784  0.2022 -0.0150
 1786BOLB   C2D42862  20.111  18.171   8.424  0.0890 -0.3049  0.0303
 1786BOLB   C3D42863  19.755  18.108   8.315 -0.2079 -0.1842 -0.1192
 1786BOLB   C4D42864  19.375  18.129   8.564  0.0981  0.2097 -0.0849
 1787BOLB   NC142865  15.906  17.654  20.743  0.2528  0.0335  0.0450
 1787BOLB   PO142866  15.735  17.898  20.361 -0.0108  0.2672 -0.1663
 1787BOLB   GL142867  15.873  18.325  20.232 -0.2522 -0.0039 -0.2559
 1787BOLB   GL242868  15.666  18.531  20.461 -0.0870 -0.0101  0.0129
 1787BOLB   C1A42869  16.073  18.736  20.183 -0.1077  0.2979  0.0606
 1787BOLB   C2A42870  15.951  19.090  20.288 -0.3072  0.0473 -0.0863
 1787BOLB   C3A42871  15.725  19.466  20.463 -0.0299  0.1740 -0.3426
 1787BOLB   C4A42872  15.730  19.680  20.936 -0.0157 -0.2827  0.2470
 1787BOLB   C1B42873  15.996  18.535  20.712  0.0474 -0.3052  0.1979
 1787BOLB   C2B42874  16.233  18.839  20.979 -0.2055  0.0013 -0.1513
 1787BOLB   C3B42875  16.186  19.179  21.272  0.0712 -0.2977  0.1228
 1787BOLB   C4B42876  16.115  19.513  21.569 -0.2137 -0.1508 -0.0356
 1787BOLB   NC242877  15.775  21.438  22.678  0.1190 -0.2306 -0.0258
 1787BOLB   PO242878  16.148  21.103  22.664  0.0693  0.3027  0.0338
 1787BOLB   GL342879  16.027  20.812  22.357 -0.0322 -0.1464  0.0354
 1787BOLB   GL442880  15.989  20.541  22.570 -0.2206 -0.0131 -0.0412
 1787BOLB   C1C42881  16.143  20.720  21.922 -0.0962 -0.0742  0.0241
 1787BOLB   C2C42882  16.246  20.412  21.693 -0.3387 -0.1584 -0.0597
 1787BOLB   C3C42883  16.320  20.077  21.374 -0.1949  0.0512 -0.1688
 1787BOLB   C4C42884  16.090  19.787  21.186  0.3670 -0.2282  0.1507
 1787BOLB   C1D42885  16.207  20.333  22.320 -0.1759  0.1155 -0.0040
 1787BOLB   C2D42886  16.252  20.043  22.029 -0.0057 -0.0719 -0.1934
 1787BOLB   C3D42887  15.987  19.971  21.754  0.0046  0.1668 -0.1420
 1787BOLB   C4D42888  15.658  19.882  21.495  0.1782 -0.1831 -0.1620
 1788BOLB   NC142889  22.914   6.373  14.503 -0.2710 -0.0524 -0.0687
 1788BOLB   PO142890  23.216   6.136  14.833  0.1362 -0.2647  0.0751
 1788BOLB   GL142891  23.620   6.042  14.709  0.3115  0.0793 -0.1989
 1788BOLB   GL242892  23.907   6.314  14.696  0.0686  0.0889  0.5296
 1788BOLB   C1A42893  23.845   5.645  14.662 -0.0710  0.1882  0.4216
 1788BOLB   C2A42894  24.067   5.371  14.482 -0.2920  0.0972 -0.0770
 1788BOLB   C3A42895  24.337   5.046  14.280  0.0480 -0.0985 -0.1503
 1788BOLB   C4A42896  24.753   4.834  14.272  0.1908  0.4597  0.3494
 1788BOLB   C1B42897  24.268   6.295  14.666  0.1128  0.1465  0.2534
 1788BOLB   C2B42898  24.621   6.243  14.399 -0.0365 -0.1851  0.0376
 1788BOLB   C3B42899  24.963   5.922  14.349 -0.3212 -0.1802 -0.1169
 1788BOLB   C4B42900  25.414   5.892  14.386  0.1067 -0.1795  0.2702
 1788BOLB   NC242901  27.073   4.123  14.155 -0.0318  0.1255 -0.0578
 1788BOLB   PO242902  26.807   4.119  13.775 -0.1474 -0.1840 -0.6036
 1788BOLB   GL342903  26.464   4.316  13.728 -0.0506 -0.1667 -0.0179
 1788BOLB   GL442904  26.358   4.013  13.691 -0.0883 -0.0141  0.2861
 1788BOLB   C1C42905  26.184   4.627  13.788 -0.2170 -0.3569 -0.1754
 1788BOLB   C2C42906  25.836   4.669  13.685 -0.0404 -0.2404  0.1441
 1788BOLB   C3C42907  25.477   4.638  13.852 -0.1501 -0.0143 -0.1861
 1788BOLB   C4C42908  25.049   4.525  13.987  0.1754 -0.0254  0.2227
 1788BOLB   C1D42909  26.198   4.195  14.081  0.0222  0.0502 -0.1294
 1788BOLB   C2D42910  25.889   4.542  14.177 -0.2116  0.3174 -0.0049
 1788BOLB   C3D42911  25.813   4.963  14.445 -0.0526 -0.1595  0.1180
 1788BOLB   C4D42912  25.591   5.358  14.619  0.0643 -0.1644 -0.2019
 1789BOLB   NC142913  14.656  17.266  13.012  0.1154  0.0397  0.0942
 1789BOLB   PO142914  14.514  17.677  12.905 -0.4290 -0.3225 -0.4757
 1789BOLB   GL142915  14.427  17.873  12.575 -0.0339 -0.4045  0.0058
 1789BOLB   GL242916  14.561  17.771  12.295  0.1047 -0.1914 -0.1587
 1789BOLB   C1A42917  14.352  18.340  12.560 -0.2614 -0.2571 -0.1631
 1789BOLB   C2A42918  14.337  18.682  12.421  0.1366 -0.3233 -0.2498
 1789BOLB   C3A42919  13.942  18.944  12.262 -0.0689  0.1720 -0.3074
 1789BOLB   C4A42920  13.890  19.310  11.964  0.2182 -0.1675 -0.0877
 1789BOLB   C1B42921  14.488  18.194  12.097 -0.1436  0.0751 -0.1653
 1789BOLB   C2B42922  14.408  18.233  11.702  0.1608 -0.2443  0.3097
 1789BOLB   C3B42923  14.373  18.541  11.380 -0.0007 -0.5395  0.1628
 1789BOLB   C4B42924  14.623  18.954  11.315 -0.0571  0.0273 -0.0261
 1789BOLB   NC242925  13.305  21.462  11.752 -0.2701  0.2071 -0.3287
 1789BOLB   PO242926  12.836  21.550  11.666 -0.0773 -0.1516  0.1239
 1789BOLB   GL342927  12.832  21.252  11.943  0.1876 -0.0147 -0.3182
 1789BOLB   GL442928  12.525  21.314  12.063  0.0247 -0.5882 -0.0973
 1789BOLB   C1C42929  12.797  20.852  12.166 -0.0951 -0.1588 -0.0393
 1789BOLB   C2C42930  13.187  20.564  12.279  0.1222  0.1305 -0.0457
 1789BOLB   C3C42931  13.474  20.197  12.172 -0.1698 -0.1110 -0.4028
 1789BOLB   C4C42932  13.619  19.702  12.061  0.0639 -0.2898 -0.3432
 1789BOLB   C1D42933  12.372  20.889  11.948  0.2438  0.2284 -0.0962
 1789BOLB   C2D42934  12.630  20.477  11.926  0.1895 -0.1319  0.0070
 1789BOLB   C3D42935  13.007  20.260  11.952  0.3298 -0.3200  0.2950
 1789BOLB   C4D42936  13.094  19.952  12.041  0.3338  0.2596 -0.1834
 1790BOLB   NC142937  13.225  18.083  14.549  0.3356 -0.0697 -0.2065
 1790BOLB   PO142938  13.069  17.977  14.160 -0.1200  0.0689 -0.3022
 1790BOLB   GL142939  12.699  18.247  14.317  0.3394  0.0219  0.0310
 1790BOLB   GL242940  12.832  18.401  14.410 -0.1246 -0.1013 -0.1184
 1790BOLB   C1A42941  12.495  18.628  14.150  0.2835 -0.2011  0.1632
 1790BOLB   C2A42942  12.437  19.004  14.305  0.0313  0.2380 -0.0877
 1790BOLB   C3A42943  12.309  19.415  14.425  0.0754 -0.1760 -0.0803
 1790BOLB   C4A42944  12.533  19.864  14.416  0.1538 -0.0708  0.3080
 1790BOLB   C1B42945  12.934  18.896  14.548 -0.1220 -0.0977 -0.2636
 1790BOLB   C2B42946  12.792  19.249  14.647  0.1127  0.0429 -0.1484
 1790BOLB   C3B42947  12.484  19.616  14.934  0.1634 -0.1264  0.2303
 1790BOLB   C4B42948  12.068  19.780  14.844 -0.0605 -0.1799  0.1767
 1790BOLB   NC242949  11.509  21.963  13.676 -0.5271  0.1315 -0.0634
 1790BOLB   PO242950  11.730  21.558  13.636 -0.3901 -0.0067  0.1018
 1790BOLB   GL342951  11.582  21.203  13.712  0.2819 -0.2517  0.2523
 1790BOLB   GL442952  11.425  20.950  13.611  0.1114  0.0100  0.0755
 1790BOLB   C1C42953  11.617  21.035  14.201 -0.2963  0.1001 -0.1072
 1790BOLB   C2C42954  11.843  20.714  14.386  0.0052 -0.0420 -0.2759
 1790BOLB   C3C42955  12.196  20.463  14.428 -0.3938  0.0712 -0.1560
 1790BOLB   C4C42956  12.656  20.365  14.376 -0.0990  0.0880 -0.2793
 1790BOLB   C1D42957  11.628  20.594  13.694  0.0517 -0.1095 -0.2483
 1790BOLB   C2D42958  11.939  20.257  13.758 -0.0381 -0.0579  0.5651
 1790BOLB   C3D42959  12.069  20.000  13.546  0.2661 -0.1833  0.4476
 1790BOLB   C4D42960  11.973  19.565  13.373  0.0636  0.0219 -0.1467
 1791BOLB   NC142961  14.815   6.910  22.853 -0.0435  0.3219  0.2446
 1791BOLB   PO142962  14.328   6.861  22.770 -0.0346  0.0054  0.0834
 1791BOLB   GL142963  14.072   6.815  23.028  0.2200 -0.2660 -0.0317
 1791BOLB   GL242964  13.753   6.578  22.900 -0.0039 -0.1724  0.3144
 1791BOLB   C1A42965  14.211   6.646  23.416 -0.0344  0.1397  0.3560
 1791BOLB   C2A42966  14.111   6.554  23.820 -0.1101  0.1796  0.0544
 1791BOLB   C3A42967  14.055   6.465  24.269  0.2233 -0.3129  0.3258
 1791BOLB   C4A42968  14.002   6.353  24.757  0.1170  0.2614 -0.2279
 1791BOLB   C1B42969  13.756   6.355  23.266  0.2118  0.2909  0.0687
 1791BOLB   C2B42970  13.315   6.256  23.385 -0.2456  0.1506 -0.0117
 1791BOLB   C3B42971  13.130   6.276  23.634 -0.4230 -0.1783 -0.0762
 1791BOLB   C4B42972  12.746   6.200  23.965 -0.1635  0.1671  0.1606
 1791BOLB   NC242973  14.040   6.054  27.382 -0.3801  0.0099  0.0087
 1791BOLB   PO242974  13.779   5.908  26.946 -0.2166 -0.1149  0.0685
 1791BOLB   GL342975  14.037   6.056  26.592  0.1125 -0.3242  0.0936
 1791BOLB   GL442976  14.028   6.454  26.504 -0.0694  0.0078  0.0436
 1791BOLB   C1C42977  14.098   6.076  26.145  0.0580  0.2256  0.1277
 1791BOLB   C2C42978  14.374   6.123  25.878 -0.1676 -0.3327 -0.3272
 1791BOLB   C3C42979  14.480   6.224  25.447  0.1517 -0.1118 -0.0372
 1791BOLB   C4C42980  14.223   6.246  25.148 -0.0729 -0.3188 -0.0096
 1791BOLB   C1D42981  14.156   6.611  26.074 -0.1847  0.2405  0.1175
 1791BOLB   C2D42982  14.468   6.629  25.741 -0.0562 -0.0971  0.2397
 1791BOLB   C3D42983  14.833   6.714  25.699 -0.0842 -0.0950  0.2781
 1791BOLB   C4D42984  15.171   6.705  25.361 -0.1239 -0.0991  0.0138
 1792BOLB   NC142985  18.614   3.317  18.314  0.0577  0.1578 -0.0611
 1792BOLB   PO142986  18.930   3.105  18.112  0.2565  0.0288 -0.4453
 1792BOLB   GL142987  19.173   2.660  18.183 -0.1921  0.1590 -0.1117
 1792BOLB   GL242988  19.457   2.701  17.978 -0.1288  0.2017 -0.3872
 1792BOLB   C1A42989  19.443   2.370  18.415 -0.0672  0.0956 -0.3583
 1792BOLB   C2A42990  19.683   2.086  18.673 -0.0600  0.4031 -0.1274
 1792BOLB   C3A42991  19.716   1.802  18.949  0.3039  0.0264 -0.0402
 1792BOLB   C4A42992  19.964   1.617  19.271  0.3382  0.1817 -0.2095
 1792BOLB   C1B42993  19.732   2.346  18.065  0.0118  0.0291  0.2707
 1792BOLB   C2B42994  19.999   2.364  18.447 -0.0421  0.0274  0.1586
 1792BOLB   C3B42995  20.188   2.142  18.754  0.2508  0.0825  0.0086
 1792BOLB   C4B42996  20.258   2.011  19.173  0.5463 -0.1832 -0.0964
 1792BOLB   NC242997  21.061   0.009  20.909 -0.1610 -0.0863 -0.2107
 1792BOLB   PO242998  21.123   0.378  20.738  0.1579 -0.2940  0.1107
 1792BOLB   GL342999  20.823   0.601  20.631 -0.0794  0.0307 -0.4711
 1792BOLB   GL443000  20.523   0.515  20.416 -0.2087 -0.4271 -0.3252
 1792BOLB   C1C43001  20.659   0.979  20.484  0.0645  0.0536  0.4224
 1792BOLB   C2C43002  20.312   1.301  20.423  0.3842 -0.0282 -0.0787
 1792BOLB   C3C43003  20.121   1.534  20.044 -0.0855 -0.1818  0.0449
 1792BOLB   C4C43004  20.137   1.428  19.652 -0.1845 -0.3791  0.2464
 1792BOLB   C1D43005  20.245   0.787  20.704 -0.1314  0.1140  0.3107
 1792BOLB   C2D43006  19.932   1.091  20.732  0.0061 -0.1329 -0.0719
 1792BOLB   C3D43007  19.865   1.493  20.492  0.0319 -0.1546  0.0333
 1792BOLB   C4D43008  19.648   1.654  20.241  0.4467 -0.0458  0.1020
 1793BOLB   NC143009  10.431  12.956  11.694  0.0063 -0.0622 -0.1915
 1793BOLB   PO143010  10.185  13.157  11.380 -0.0643  0.1168  0.3774
 1793BOLB   GL143011   9.834  13.255  11.240 -0.0080 -0.2220  0.3474
 1793BOLB   GL243012   9.801  13.219  11.052  0.1700 -0.0220  0.1501
 1793BOLB   C1A43013   9.543  13.698  11.129  0.0419  0.1516 -0.0100
 1793BOLB   C2A43014   9.219  13.747  10.827  0.3223 -0.0094 -0.0992
 1793BOLB   C3A43015   8.996  14.089  10.700 -0.1575  0.4597 -0.1910
 1793BOLB   C4A43016   8.685  14.447  10.717 -0.0333  0.0140 -0.0397
 1793BOLB   C1B43017   9.663  13.361  10.674 -0.0799 -0.1571 -0.0146
 1793BOLB   C2B43018   9.462  13.218  10.236 -0.1006 -0.0023 -0.1083
 1793BOLB   C3B43019   9.278  13.524   9.980  0.0682  0.0717 -0.0784
 1793BOLB   C4B43020   8.918  13.724   9.670 -0.0895 -0.2812 -0.0567
 1793BOLB   NC243021   7.851  16.887  10.282 -0.1859 -0.1439 -0.1685
 1793BOLB   PO243022   7.667  16.580  10.074  0.0936 -0.0304  0.2296
 1793BOLB   GL343023   8.035  16.431  10.318 -0.2819 -0.0190  0.0413
 1793BOLB   GL443024   8.019  16.475  10.658  0.1342  0.0603  0.2175
 1793BOLB   C1C43025   8.172  15.963  10.260  0.4745 -0.1789 -0.0342
 1793BOLB   C2C43026   8.512  15.625  10.385 -0.0600 -0.1215  0.0930
 1793BOLB   C3C43027   8.531  15.243  10.507 -0.0988  0.0327  0.4572
 1793BOLB   C4C43028   8.464  14.839  10.513  0.2514  0.1744 -0.1552
 1793BOLB   C1D43029   8.306  16.166  10.669  0.3092  0.0393  0.0813
 1793BOLB   C2D43030   8.796  16.037  10.585  0.0912 -0.3812  0.1042
 1793BOLB   C3D43031   9.220  15.858  10.709  0.0425 -0.1851  0.1577
 1793BOLB   C4D43032   9.435  15.670  10.868  0.0152 -0.3646  0.0297
 1794BOLB   NC143033  20.377   3.956  11.189  0.4568 -0.0378  0.0016
 1794BOLB   PO143034  20.129   3.622  11.345 -0.4260 -0.3218  0.1851
 1794BOLB   GL143035  20.497   3.376  11.048 -0.3442 -0.0440 -0.1238
 1794BOLB   GL243036  20.721   3.181  11.314  0.1104  0.1199  0.2359
 1794BOLB   C1A43037  20.592   2.952  10.899 -0.2336 -0.1123 -0.1158
 1794BOLB   C2A43038  20.952   2.681  10.795 -0.0231  0.0091 -0.3759
 1794BOLB   C3A43039  21.379   2.550  10.730  0.2439  0.4771  0.0583
 1794BOLB   C4A43040  21.720   2.302  10.703 -0.1006  0.0280  0.2332
 1794BOLB   C1B43041  21.094   3.242  11.142  0.0521 -0.1676  0.2729
 1794BOLB   C2B43042  21.528   3.456  10.886  0.0498  0.0685  0.1929
 1794BOLB   C3B43043  21.940   3.292  10.658  0.2052  0.1226 -0.1405
 1794BOLB   C4B43044  22.054   3.434  10.396 -0.0478 -0.1110 -0.0678
 1794BOLB   NC243045  23.032   0.472  10.548  0.3286 -0.3649 -0.3325
 1794BOLB   PO243046  22.686   0.388  10.874 -0.1358 -0.1780 -0.1875
 1794BOLB   GL343047  22.535   0.708  10.912  0.0655 -0.1886 -0.0659
 1794BOLB   GL443048  22.640   0.714  11.291 -0.2519 -0.0117 -0.1086
 1794BOLB   C1C43049  22.689   1.122  11.077 -0.0232  0.2064 -0.5584
 1794BOLB   C2C43050  22.566   1.505  10.984 -0.4234 -0.4997  0.0976
 1794BOLB   C3C43051  22.436   1.937  10.906  0.2217 -0.1025 -0.1972
 1794BOLB   C4C43052  22.045   2.124  10.967  0.1498 -0.1465  0.2304
 1794BOLB   C1D43053  22.544   0.937  11.636 -0.0217 -0.1084 -0.1468
 1794BOLB   C2D43054  22.364   1.227  11.965 -0.0005 -0.0277 -0.1087
 1794BOLB   C3D43055  22.016   1.400  12.068  0.3028  0.0830  0.0778
 1794BOLB   C4D43056  21.924   1.768  12.367 -0.0600 -0.3646 -0.4379
 1795BOLB   NC143057  12.056   8.639  22.416  0.1697 -0.0078 -0.1977
 1795BOLB   PO143058  12.368   8.906  22.397 -0.0554 -0.0039 -0.1343
 1795BOLB   GL143059  12.362   8.746  22.790 -0.1403  0.1836 -0.0899
 1795BOLB   GL243060  12.483   8.953  22.935 -0.1474  0.0632 -0.1788
 1795BOLB   C1A43061  12.298   8.462  22.997 -0.0636 -0.1284  0.0674
 1795BOLB   C2A43062  12.306   8.486  23.421  0.1120  0.1035  0.0364
 1795BOLB   C3A43063  12.182   8.477  23.833  0.0969  0.0751  0.0229
 1795BOLB   C4A43064  12.191   8.774  24.275 -0.3630  0.0694 -0.1743
 1795BOLB   C1B43065  12.405   8.999  23.340 -0.1937  0.4619  0.1265
 1795BOLB   C2B43066  12.345   8.981  23.785  0.1993  0.2196  0.1325
 1795BOLB   C3B43067  11.991   9.107  23.960  0.1659 -0.0943  0.0859
 1795BOLB   C4B43068  11.797   9.143  24.329  0.1386  0.2334  0.0426
 1795BOLB   NC243069  11.329   8.287  26.540 -0.0517  0.1376 -0.0704
 1795BOLB   PO243070  11.355   8.847  26.492  0.2220  0.0028 -0.2450
 1795BOLB   GL343071  11.377   9.037  26.035 -0.0129  0.1887 -0.3145
 1795BOLB   GL443072  11.772   9.144  26.170  0.0121  0.0771  0.0620
 1795BOLB   C1C43073  11.403   9.133  25.503  0.1861 -0.4030  0.0592
 1795BOLB   C2C43074  11.653   9.235  25.090  0.2324 -0.0672 -0.1327
 1795BOLB   C3C43075  11.949   9.029  24.843  0.0757  0.2604  0.2084
 1795BOLB   C4C43076  12.116   8.753  24.574 -0.1943 -0.3595  0.0880
 1795BOLB   C1D43077  11.826   9.086  25.753  0.0109  0.1571 -0.0129
 1795BOLB   C2D43078  11.786   8.836  25.325  0.0179  0.1383  0.2079
 1795BOLB   C3D43079  11.631   8.423  25.277  0.0571 -0.2504  0.2067
 1795BOLB   C4D43080  11.321   8.252  24.917  0.1819 -0.0225  0.0664
 1796BOLB   NC143081  23.894   9.833  17.686 -0.1573 -0.3610 -0.0571
 1796BOLB   PO143082  24.169   9.546  17.847  0.2094  0.1940 -0.1893
 1796BOLB   GL143083  24.332   9.834  18.036  0.0180 -0.4716  0.1045
 1796BOLB   GL243084  24.618   9.865  17.771  0.0059  0.2054  0.0427
 1796BOLB   C1A43085  24.736   9.989  18.270  0.0432  0.1025  0.1221
 1796BOLB   C2A43086  25.057  10.176  18.419 -0.0493 -0.1196 -0.0492
 1796BOLB   C3A43087  25.435  10.290  18.638 -0.0607 -0.0385 -0.4036
 1796BOLB   C4A43088  25.943  10.435  18.641  0.0935 -0.0705 -0.2820
 1796BOLB   C1B43089  24.830   9.530  17.743  0.1221 -0.1708 -0.2125
 1796BOLB   C2B43090  25.202   9.361  17.756 -0.1031  0.2444  0.1991
 1796BOLB   C3B43091  25.666   9.283  17.645  0.2190  0.0638  0.0241
 1796BOLB   C4B43092  26.129   9.243  17.551  0.1767 -0.2640 -0.0202
 1796BOLB   NC243093  27.997  10.619  18.680 -0.0071  0.1277  0.0049
 1796BOLB   PO243094  28.004  11.036  18.810 -0.3680 -0.2630  0.0475
 1796BOLB   GL343095  27.656  10.991  18.835 -0.0175 -0.2894  0.0428
 1796BOLB   GL443096  27.529  10.675  18.929 -0.2994  0.2803  0.2235
 1796BOLB   C1C43097  27.272  11.153  18.840 -0.0504  0.5344 -0.2455
 1796BOLB   C2C43098  26.835  11.104  18.864  0.0304  0.1337  0.0103
 1796BOLB   C3C43099  26.426  11.076  18.641  0.0819 -0.1114  0.1779
 1796BOLB   C4C43100  26.140  10.787  18.600 -0.2395  0.0123  0.0556
 1796BOLB   C1D43101  27.270  10.750  18.551 -0.1192 -0.3338  0.2381
 1796BOLB   C2D43102  26.986  10.359  18.426 -0.0586  0.2403  0.0057
 1796BOLB   C3D43103  26.525  10.375  18.392  0.1358  0.1573 -0.0646
 1796BOLB   C4D43104  26.371  10.724  18.103  0.1542 -0.0145  0.1708
 1797BOLB   NC143105  12.198  14.091  10.136 -0.0275  0.2002 -0.0460
 1797BOLB   PO143106  12.532  14.098   9.762 -0.0329  0.2915  0.3846
 1797BOLB   GL143107  12.086  14.124   9.601 -0.0109 -0.0124  0.5524
 1797BOLB   GL243108  11.811  14.322   9.774  0.0317 -0.1639  0.2057
 1797BOLB   C1A43109  11.663  14.106   9.377  0.1370 -0.0262 -0.1238
 1797BOLB   C2A43110  11.296  14.357   9.530 -0.3230 -0.1152  0.0668
 1797BOLB   C3A43111  11.067  14.574   9.295  0.3400 -0.1081  0.2874
 1797BOLB   C4A43112  10.854  14.922   9.076 -0.2257 -0.1572  0.2527
 1797BOLB   C1B43113  11.647  14.693   9.499 -0.0613  0.1076 -0.1389
 1797BOLB   C2B43114  11.474  14.904   9.099 -0.0959  0.1106 -0.0495
 1797BOLB   C3B43115  11.608  15.218   8.911  0.1751 -0.2808  0.1099
 1797BOLB   C4B43116  11.552  15.608   8.699  0.0453 -0.0550 -0.3804
 1797BOLB   NC243117  10.503  16.591   6.958 -0.2710  0.1723 -0.1028
 1797BOLB   PO243118  10.873  16.435   6.936 -0.2186  0.0916 -0.3503
 1797BOLB   GL343119  10.825  16.148   7.282 -0.2053  0.0680  0.3401
 1797BOLB   GL443120  11.020  16.187   7.446 -0.1270 -0.0990 -0.3570
 1797BOLB   C1C43121  10.586  15.940   7.683 -0.2037  0.0573  0.2686
 1797BOLB   C2C43122  10.836  15.666   8.044 -0.1157  0.1184  0.1993
 1797BOLB   C3C43123  10.817  15.571   8.464 -0.1000  0.1676  0.0462
 1797BOLB   C4C43124  10.764  15.251   8.700  0.0643 -0.1573 -0.0257
 1797BOLB   C1D43125  11.014  16.111   7.882 -0.0029 -0.1610 -0.0051
 1797BOLB   C2D43126  11.274  15.860   8.068 -0.2317 -0.2075 -0.0692
 1797BOLB   C3D43127  11.244  15.531   8.275 -0.1473 -0.0945  0.3242
 1797BOLB   C4D43128  11.217  15.140   8.524  0.0698 -0.1268 -0.0652
 1798BOLB   NC143129  23.170  17.691  23.093  0.0802 -0.0646  0.3602
 1798BOLB   PO143130  23.296  18.056  22.822 -0.2632  0.0818 -0.0483
 1798BOLB   GL143131  23.030  17.806  22.607  0.0865  0.0066 -0.1967
 1798BOLB   GL243132  22.756  17.577  22.799 -0.2711  0.0540  0.2847
 1798BOLB   C1A43133  22.985  17.331  22.452 -0.1177  0.0612 -0.1830
 1798BOLB   C2A43134  22.807  17.130  22.113  0.0172 -0.3768  0.0385
 1798BOLB   C3A43135  22.768  17.299  21.648  0.1124 -0.0294  0.2145
 1798BOLB   C4A43136  22.786  17.368  21.252  0.1513  0.0609  0.1909
 1798BOLB   C1B43137  22.473  17.297  22.491  0.1937 -0.1645  0.2854
 1798BOLB   C2B43138  22.312  17.162  22.171  0.2521  0.0126  0.0366
 1798BOLB   C3B43139  22.296  17.062  21.703  0.4200 -0.0175 -0.0338
 1798BOLB   C4B43140  22.577  16.850  21.419  0.0072  0.2242  0.0781
 1798BOLB   NC243141  24.320  17.805  22.172  0.2020 -0.0370  0.0183
 1798BOLB   PO243142  24.218  18.306  21.991 -0.3861  0.0867 -0.0939
 1798BOLB   GL343143  24.045  18.071  21.685 -0.1409 -0.0804  0.0157
 1798BOLB   GL443144  23.828  18.195  21.489 -0.0229 -0.0599  0.0629
 1798BOLB   C1C43145  24.092  17.821  21.292  0.3744 -0.0507  0.0663
 1798BOLB   C2C43146  23.848  17.688  20.908 -0.0176  0.0042 -0.3303
 1798BOLB   C3C43147  23.483  17.511  20.796  0.0471  0.1279 -0.1032
 1798BOLB   C4C43148  23.090  17.501  20.843 -0.0250 -0.1176  0.1649
 1798BOLB   C1D43149  23.523  18.391  21.507 -0.3252 -0.1230 -0.1637
 1798BOLB   C2D43150  23.048  18.423  21.511  0.1640 -0.0711  0.3668
 1798BOLB   C3D43151  22.641  18.370  21.400 -0.3527 -0.1181  0.3586
 1798BOLB   C4D43152  22.356  18.184  21.186  0.0602  0.0618 -0.0067
 1799BOLB   NC143153  12.416  15.834  20.646 -0.5827  0.2936  0.0098
 1799BOLB   PO143154  12.495  15.682  21.042 -0.0478 -0.0939  0.1706
 1799BOLB   GL143155  12.455  16.041  21.216  0.1481  0.0079 -0.1885
 1799BOLB   GL243156  12.149  16.044  21.253 -0.3641  0.2142  0.1584
 1799BOLB   C1A43157  12.347  16.322  21.602 -0.3357  0.1330  0.1401
 1799BOLB   C2A43158  12.080  16.553  21.725 -0.3335 -0.2290 -0.0768
 1799BOLB   C3A43159  11.911  16.888  22.003 -0.0483 -0.0636 -0.0828
 1799BOLB   C4A43160  11.511  16.938  21.933  0.0189  0.0017 -0.3724
 1799BOLB   C1B43161  11.991  15.962  21.648  0.4395  0.0849 -0.5080
 1799BOLB   C2B43162  12.038  16.073  22.090  0.1441 -0.0970  0.0473
 1799BOLB   C3B43163  12.119  15.995  22.493  0.0684 -0.0315  0.2999
 1799BOLB   C4B43164  12.200  16.182  22.819 -0.3743 -0.1156  0.0429
 1799BOLB   NC243165   9.815  18.591  22.993 -0.4276  0.5141 -0.1827
 1799BOLB   PO243166  10.295  18.555  22.910 -0.3198  0.3235 -0.0148
 1799BOLB   GL343167  10.464  18.544  22.555  0.2304  0.0887 -0.0512
 1799BOLB   GL443168  10.750  18.809  22.450 -0.2178 -0.0639 -0.2487
 1799BOLB   C1C43169  10.593  18.289  22.277  0.0084 -0.0016 -0.0765
 1799BOLB   C2C43170  10.781  18.046  22.048 -0.2550  0.4836 -0.0450
 1799BOLB   C3C43171  11.058  17.613  21.858  0.2331 -0.1669 -0.0802
 1799BOLB   C4C43172  11.145  17.145  21.776 -0.0879 -0.1779  0.1742
 1799BOLB   C1D43173  10.960  18.531  22.122  0.1819 -0.2434 -0.1194
 1799BOLB   C2D43174  11.028  18.330  21.752 -0.0812  0.1423 -0.3066
 1799BOLB   C3D43175  11.131  17.953  21.415  0.1449 -0.2482 -0.0485
 1799BOLB   C4D43176  11.383  17.594  21.473 -0.5403  0.0639 -0.1383
 1800BOLB   NC143177  10.296  12.516   2.070 -0.2722 -0.1157 -0.2033
 1800BOLB   PO143178  10.627  12.279   1.932 -0.2316 -0.3276  0.0516
 1800BOLB   GL143179  10.875  11.999   2.115  0.1772 -0.1463  0.1970
 1800BOLB   GL243180  10.555  11.689   2.165 -0.2048  0.0111  0.0480
 1800BOLB   C1A43181  11.030  11.745   2.447  0.2644  0.3014  0.0862
 1800BOLB   C2A43182  10.820  11.372   2.697  0.1157  0.0327  0.1465
 1800BOLB   C3A43183  10.725  11.321   3.058 -0.0098 -0.2084  0.0967
 1800BOLB   C4A43184  10.336  11.506   3.389  0.2135 -0.2904  0.1401
 1800BOLB   C1B43185  10.357  11.786   2.560 -0.0423  0.1981  0.2059
 1800BOLB   C2B43186  10.657  11.804   3.042 -0.1400 -0.2040  0.2156
 1800BOLB   C3B43187  10.759  11.711   3.456 -0.0493  0.1007  0.1987
 1800BOLB   C4B43188  10.858  11.585   3.895 -0.0938  0.2073  0.2069
 1800BOLB   NC243189   9.288  13.354   2.834 -0.0018 -0.2688  0.1339
 1800BOLB   PO243190   9.310  12.972   2.637  0.0029  0.3079  0.0376
 1800BOLB   GL343191   9.445  12.754   3.015 -0.1063  0.1574 -0.2332
 1800BOLB   GL443192   9.083  12.683   3.242 -0.1113  0.0051  0.1304
 1800BOLB   C1C43193   9.611  12.719   3.339 -0.0746  0.1656 -0.2401
 1800BOLB   C2C43194   9.915  12.511   3.541 -0.2015 -0.0320  0.0108
 1800BOLB   C3C43195  10.081  12.235   3.770  0.2506 -0.0453  0.0814
 1800BOLB   C4C43196  10.277  11.786   3.692 -0.1006  0.1001 -0.1545
 1800BOLB   C1D43197   8.808  12.552   3.542  0.2422  0.2571  0.0850
 1800BOLB   C2D43198   8.515  12.596   3.910 -0.2206 -0.0391 -0.0823
 1800BOLB   C3D43199   8.349  12.848   4.232 -0.0905  0.1759 -0.0572
 1800BOLB   C4D43200   8.561  13.088   4.572 -0.0364  0.0935 -0.0358
 1801BOLB   NC143201  16.661   2.742  18.756 -0.2399  0.0839 -0.2572
 1801BOLB   PO143202  16.250   2.604  19.068 -0.4484 -0.2866  0.1908
 1801BOLB   GL143203  16.221   2.233  19.321  0.2448 -0.3153  0.1751
 1801BOLB   GL243204  15.996   2.072  19.167 -0.2340  0.1668 -0.3651
 1801BOLB   C1A43205  16.107   1.982  19.617 -0.1883 -0.2147  0.0345
 1801BOLB   C2A43206  16.095   1.551  19.752 -0.1447 -0.1254 -0.2984
 1801BOLB   C3A43207  16.286   1.370  20.077  0.0385  0.2410 -0.2075
 1801BOLB   C4A43208  16.578   0.942  19.962 -0.0769  0.2809  0.4734
 1801BOLB   C1B43209  15.887   1.605  19.236  0.2699  0.1373  0.0773
 1801BOLB   C2B43210  15.896   1.258  19.391 -0.3351 -0.3097  0.0623
 1801BOLB   C3B43211  15.873   0.871  19.369 -0.0612 -0.3044 -0.0820
 1801BOLB   C4B43212  15.957   0.479  19.641  0.3142 -0.3061  0.0256
 1801BOLB   NC243213  18.117  -0.909  21.482 -0.1638 -0.0949 -0.0503
 1801BOLB   PO243214  17.775  -0.546  21.568  0.2472  0.0230  0.1873
 1801BOLB   GL343215  17.559  -0.348  21.212 -0.0540  0.1496  0.0400
 1801BOLB   GL443216  17.382  -0.515  20.980  0.1314  0.3754 -0.1354
 1801BOLB   C1C43217  17.502   0.007  21.036  0.0645  0.1750  0.0041
 1801BOLB   C2C43218  17.482   0.242  20.616 -0.0272  0.0054  0.0124
 1801BOLB   C3C43219  17.178   0.493  20.486  0.1953  0.0068  0.0466
 1801BOLB   C4C43220  16.938   0.836  20.194 -0.2674  0.1866  0.0328
 1801BOLB   C1D43221  17.784  -0.426  20.817 -0.2506  0.1463 -0.2267
 1801BOLB   C2D43222  18.057  -0.061  20.826  0.2373 -0.0857 -0.2049
 1801BOLB   C3D43223  17.993   0.347  20.781 -0.2563 -0.0758  0.0082
 1801BOLB   C4D43224  18.090   0.752  20.736 -0.1081 -0.0755  0.2631
 1802BOLB   NC143225  23.024   8.133  17.741  0.4594 -0.1827 -0.0022
 1802BOLB   PO143226  23.301   7.969  18.077  0.0330 -0.1519  0.2199
 1802BOLB   GL143227  23.721   7.906  18.264 -0.1280  0.0324 -0.0193
 1802BOLB   GL243228  23.768   7.927  18.620 -0.2085 -0.0048 -0.0450
 1802BOLB   C1A43229  24.199   8.060  18.310 -0.2722  0.0881  0.1101
 1802BOLB   C2A43230  24.621   7.999  18.497 -0.2209  0.1323 -0.1624
 1802BOLB   C3A43231  25.031   8.010  18.723  0.0066  0.1729 -0.1043
 1802BOLB   C4A43232  25.240   7.622  18.921  0.3063 -0.1155 -0.3307
 1802BOLB   C1B43233  24.119   7.728  18.756  0.0943  0.3322  0.4649
 1802BOLB   C2B43234  24.536   7.573  18.804  0.1037  0.1764 -0.5510
 1802BOLB   C3B43235  24.788   7.437  19.078  0.2052  0.1422 -0.1315
 1802BOLB   C4B43236  24.992   7.589  19.439  0.0496 -0.0926 -0.2759
 1802BOLB   NC243237  27.008   6.322  20.206 -0.2529 -0.2699 -0.1047
 1802BOLB   PO243238  26.843   6.729  20.109  0.0319 -0.1207  0.2161
 1802BOLB   GL343239  26.598   7.046  20.176  0.4510  0.0057  0.0040
 1802BOLB   GL443240  26.606   7.422  20.114  0.2272  0.0549  0.2826
 1802BOLB   C1C43241  26.131   7.225  20.106  0.5696 -0.2895 -0.0857
 1802BOLB   C2C43242  25.847   7.392  19.900  0.1602 -0.4237 -0.0656
 1802BOLB   C3C43243  25.871   7.552  19.417  0.0374  0.3140  0.0048
 1802BOLB   C4C43244  25.610   7.719  19.115 -0.3677  0.2541  0.1406
 1802BOLB   C1D43245  26.494   7.433  19.676  0.1791  0.2881  0.0017
 1802BOLB   C2D43246  26.391   7.662  19.323  0.1604  0.1651  0.0227
 1802BOLB   C3D43247  26.114   7.886  19.105 -0.0396  0.0389 -0.0566
 1802BOLB   C4D43248  25.779   8.165  18.858  0.1938 -0.1942  0.3173
 1803BOLB   NC143249  23.066   6.358  15.285  0.1057  0.1487 -0.1907
 1803BOLB   PO143250  22.960   5.917  15.566  0.1364  0.1787 -0.0925
 1803BOLB   GL143251  23.374   5.558  15.595 -0.0083  0.0602 -0.3649
 1803BOLB   GL243252  23.259   5.177  15.636 -0.0942  0.0532  0.0446
 1803BOLB   C1A43253  23.716   5.510  15.686 -0.0618 -0.1404  0.0263
 1803BOLB   C2A43254  24.068   5.465  15.527 -0.0444 -0.1721  0.0544
 1803BOLB   C3A43255  24.456   5.296  15.329  0.2595 -0.2820  0.0753
 1803BOLB   C4A43256  24.832   4.961  15.118 -0.2114 -0.1044 -0.5241
 1803BOLB   C1B43257  23.599   5.036  15.781 -0.2404 -0.2176  0.0114
 1803BOLB   C2B43258  24.029   5.146  15.999  0.1668  0.2457  0.0198
 1803BOLB   C3B43259  24.343   4.999  16.098 -0.1969  0.2811  0.0778
 1803BOLB   C4B43260  24.400   4.799  16.450  0.2177  0.1235  0.0531
 1803BOLB   NC243261  27.020   3.932  16.065 -0.0662  0.0109  0.0784
 1803BOLB   PO243262  26.520   3.952  16.160 -0.1155  0.3080 -0.0713
 1803BOLB   GL343263  26.185   3.948  15.926 -0.2093  0.2929 -0.0170
 1803BOLB   GL443264  26.058   4.159  15.668 -0.4527  0.2716 -0.0284
 1803BOLB   C1C43265  25.730   3.933  15.933 -0.1629 -0.1834  0.1064
 1803BOLB   C2C43266  25.611   4.262  15.771  0.0428 -0.0532 -0.0010
 1803BOLB   C3C43267  25.536   4.535  15.418 -0.1629 -0.1320 -0.2332
 1803BOLB   C4C43268  25.203   4.826  15.279 -0.1256  0.2986 -0.1191
 1803BOLB   C1D43269  25.946   4.606  15.687 -0.0843  0.3877 -0.1123
 1803BOLB   C2D43270  25.589   5.033  15.511  0.0174  0.3674  0.0022
 1803BOLB   C3D43271  25.393   5.312  15.206 -0.1313  0.2544  0.3723
 1803BOLB   C4D43272  24.940   5.455  15.125 -0.1199  0.1338 -0.0045
 1804BOLB   NC143273  22.581   7.513  20.127 -0.1318  0.2718 -0.0993
 1804BOLB   PO143274  22.288   7.689  20.408  0.0881 -0.0212 -0.0202
 1804BOLB   GL143275  22.647   7.689  20.699 -0.0024  0.2540  0.1042
 1804BOLB   GL243276  22.512   7.500  20.871  0.0924 -0.0403  0.0082
 1804BOLB   C1A43277  23.107   7.655  20.871 -0.0516 -0.2601 -0.0171
 1804BOLB   C2A43278  23.586   7.644  20.870  0.0279 -0.0745  0.2656
 1804BOLB   C3A43279  24.067   7.499  20.859  0.0492 -0.1016 -0.0432
 1804BOLB   C4A43280  24.570   7.503  20.869 -0.1376  0.2625  0.0627
 1804BOLB   C1B43281  22.835   7.338  21.118 -0.0397 -0.1637  0.2270
 1804BOLB   C2B43282  23.118   7.078  21.344 -0.0332  0.0771 -0.0374
 1804BOLB   C3B43283  23.137   6.762  21.674  0.0760  0.2795 -0.0312
 1804BOLB   C4B43284  23.038   6.607  22.212  0.0715  0.2464  0.3138
 1804BOLB   NC243285  26.135   6.475  21.546 -0.2290  0.1524  0.0143
 1804BOLB   PO243286  25.831   6.625  21.784 -0.0879  0.1021 -0.3821
 1804BOLB   GL343287  25.451   6.787  21.991  0.1524  0.0087  0.0136
 1804BOLB   GL443288  25.500   7.026  22.091 -0.0306 -0.0815  0.2597
 1804BOLB   C1C43289  25.040   6.676  22.025 -0.1703 -0.1549 -0.2773
 1804BOLB   C2C43290  24.745   6.945  21.941  0.0875 -0.0422 -0.2969
 1804BOLB   C3C43291  24.664   7.281  21.692 -0.2502 -0.2184  0.4890
 1804BOLB   C4C43292  24.672   7.450  21.324 -0.1560 -0.1760 -0.1362
 1804BOLB   C1D43293  25.175   7.098  21.789  0.1658 -0.1509  0.1228
 1804BOLB   C2D43294  25.171   7.204  21.355  0.3408 -0.1306  0.1156
 1804BOLB   C3D43295  25.207   7.644  21.137  0.2010 -0.1042  0.4658
 1804BOLB   C4D43296  25.115   7.704  20.758  0.0434 -0.2527  0.0694
 1805BOLB   NC143297  14.350  14.180   8.722 -0.1506  0.1262 -0.2118
 1805BOLB   PO143298  14.537  13.943   8.400 -0.3105  0.2810 -0.0608
 1805BOLB   GL143299  14.459  13.955   7.856  0.1670  0.2593  0.0660
 1805BOLB   GL243300  14.284  13.679   7.668 -0.0861 -0.0119  0.0452
 1805BOLB   C1A43301  14.479  14.100   7.501 -0.1214  0.0287  0.0090
 1805BOLB   C2A43302  14.377  14.390   7.141 -0.0290  0.1306  0.2917
 1805BOLB   C3A43303  14.205  14.747   7.088  0.0015  0.2259 -0.1269
 1805BOLB   C4A43304  14.183  15.124   6.764 -0.0890 -0.1823  0.0678
 1805BOLB   C1B43305  14.030  13.519   7.352  0.0560 -0.0095 -0.1796
 1805BOLB   C2B43306  13.686  13.343   7.095  0.0573 -0.1281  0.0331
 1805BOLB   C3B43307  13.335  13.124   7.003  0.1470  0.2007  0.3164
 1805BOLB   C4B43308  13.178  13.233   6.552  0.1026  0.0649  0.2543
 1805BOLB   NC243309  14.076  17.137   5.607  0.1997 -0.2281  0.1608
 1805BOLB   PO243310  14.298  17.501   5.863 -0.1364  0.0305 -0.2043
 1805BOLB   GL343311  14.201  17.140   6.122 -0.2782 -0.2330 -0.1620
 1805BOLB   GL443312  14.375  16.863   6.023 -0.0079  0.0376 -0.2465
 1805BOLB   C1C43313  14.020  16.688   6.427  0.2375 -0.1732 -0.2489
 1805BOLB   C2C43314  14.106  16.400   6.666  0.2467  0.0308  0.0128
 1805BOLB   C3C43315  13.881  16.038   6.837 -0.0039  0.1036 -0.4098
 1805BOLB   C4C43316  13.958  15.533   6.761  0.2720  0.0082 -0.0327
 1805BOLB   C1D43317  14.487  16.518   6.404  0.3042 -0.2440 -0.0542
 1805BOLB   C2D43318  14.549  16.552   6.896  0.2517  0.2906  0.0813
 1805BOLB   C3D43319  14.724  16.824   7.270 -0.4407 -0.1196  0.1389
 1805BOLB   C4D43320  14.607  16.989   7.751 -0.1249  0.1199  0.2167
 1806BOLB   NC143321  10.416   4.334  18.094 -0.0939 -0.0641 -0.0157
 1806BOLB   PO143322  10.249   4.720  18.082 -0.0239 -0.0936 -0.2428
 1806BOLB   GL143323   9.881   4.273  18.256  0.0113 -0.4228 -0.1478
 1806BOLB   GL243324  10.031   4.201  18.442 -0.1322  0.2840 -0.0687
 1806BOLB   C1A43325   9.466   4.306  18.450  0.1567 -0.1796  0.4315
 1806BOLB   C2A43326   9.285   4.184  18.820  0.3615  0.3138  0.0583
 1806BOLB   C3A43327   8.864   3.966  19.080 -0.2181 -0.2975  0.1653
 1806BOLB   C4A43328   8.883   3.679  19.360 -0.0701 -0.1859  0.0815
 1806BOLB   C1B43329   9.837   3.778  18.464 -0.3446  0.1469 -0.0760
 1806BOLB   C2B43330   9.668   3.415  18.573 -0.0471  0.0692 -0.2542
 1806BOLB   C3B43331   9.359   3.257  18.704 -0.1338  0.0124  0.4398
 1806BOLB   C4B43332   9.390   2.831  18.560  0.2270  0.1801  0.1399
 1806BOLB   NC243333   8.435   1.607  21.285  0.2243  0.2601 -0.0916
 1806BOLB   PO243334   8.401   1.833  20.975  0.2444  0.1300  0.2242
 1806BOLB   GL343335   8.493   2.107  20.653  0.0379  0.2864 -0.1784
 1806BOLB   GL443336   8.408   1.877  20.408 -0.2122  0.1066 -0.4445
 1806BOLB   C1C43337   8.651   2.311  20.339 -0.1006 -0.0448  0.1922
 1806BOLB   C2C43338   8.680   2.728  20.085  0.1635 -0.0344 -0.1493
 1806BOLB   C3C43339   8.603   3.096  19.745  0.2309 -0.2906  0.3279
 1806BOLB   C4C43340   8.706   3.358  19.515  0.0721  0.0708  0.3073
 1806BOLB   C1D43341   8.627   1.908  20.051  0.3047 -0.1080 -0.4876
 1806BOLB   C2D43342   8.783   2.214  19.739 -0.0539  0.1548 -0.0722
 1806BOLB   C3D43343   9.070   2.576  19.707  0.0768 -0.1420 -0.1802
 1806BOLB   C4D43344   9.370   2.730  19.465 -0.3335  0.1115 -0.3732
 1807BOLB   NC143345  27.538   8.187  20.722  0.4121 -0.3393 -0.2650
 1807BOLB   PO143346  27.335   8.495  20.957  0.2927  0.3505  0.0480
 1807BOLB   GL143347  26.897   8.310  21.167 -0.1048  0.2796  0.1817
 1807BOLB   GL243348  26.706   8.617  21.294 -0.0775 -0.2808  0.2682
 1807BOLB   C1A43349  26.667   8.027  21.002 -0.0400 -0.1329 -0.0275
 1807BOLB   C2A43350  26.292   8.199  20.917 -0.1761  0.0096 -0.1679
 1807BOLB   C3A43351  26.131   8.406  20.607  0.2074  0.0499 -0.0569
 1807BOLB   C4A43352  26.043   8.736  20.456  0.2451 -0.2104  0.1647
 1807BOLB   C1B43353  26.229   8.584  21.216  0.1090 -0.1208  0.0869
 1807BOLB   C2B43354  25.840   8.585  20.989  0.0845 -0.2077  0.1697
 1807BOLB   C3B43355  25.523   8.718  20.686  0.0195  0.0962  0.4003
 1807BOLB   C4B43356  25.121   8.699  20.447 -0.0688  0.0396 -0.0349
 1807BOLB   NC243357  27.709   9.807  20.939 -0.2541 -0.1185 -0.0326
 1807BOLB   PO243358  27.566   9.410  20.839 -0.1559  0.2662  0.1987
 1807BOLB   GL343359  27.326   9.696  20.631 -0.1882  0.0435  0.1183
 1807BOLB   GL443360  27.204  10.062  20.717 -0.2232 -0.0048  0.2109
 1807BOLB   C1C43361  26.849   9.718  20.588  0.0381  0.1481  0.1262
 1807BOLB   C2C43362  26.547   9.480  20.681 -0.3590  0.2773  0.4662
 1807BOLB   C3C43363  26.127   9.415  20.640 -0.0003 -0.1158 -0.0382
 1807BOLB   C4C43364  25.809   9.225  20.436  0.2172 -0.3239 -0.0031
 1807BOLB   C1D43365  26.813  10.230  20.757  0.0460 -0.0216 -0.0786
 1807BOLB   C2D43366  26.407  10.475  20.671 -0.2726  0.3775 -0.2428
 1807BOLB   C3D43367  25.969  10.542  20.508 -0.0947  0.3985  0.4305
 1807BOLB   C4D43368  25.718  10.731  20.644 -0.0358 -0.1245  0.0217
 1808BOLB   NC143369  14.126  17.785  13.285 -0.0186 -0.1739 -0.3306
 1808BOLB   PO143370  13.962  17.996  13.564  0.3456  0.0111 -0.1960
 1808BOLB   GL143371  13.810  18.506  13.604 -0.1275 -0.1304  0.0112
 1808BOLB   GL243372  13.698  18.524  13.848  0.1885 -0.1381  0.1328
 1808BOLB   C1A43373  13.975  18.870  13.292  0.1339 -0.1081  0.0568
 1808BOLB   C2A43374  13.862  19.365  13.293  0.0999  0.1096  0.0104
 1808BOLB   C3A43375  13.716  19.822  13.380  0.2077  0.2297 -0.1338
 1808BOLB   C4A43376  13.510  20.126  13.493 -0.2072 -0.2560 -0.1551
 1808BOLB   C1B43377  13.765  19.047  13.797  0.2052 -0.1180 -0.0531
 1808BOLB   C2B43378  13.575  19.459  13.680 -0.0232  0.0264  0.0843
 1808BOLB   C3B43379  13.343  19.666  13.780 -0.0396 -0.2088 -0.2098
 1808BOLB   C4B43380  13.098  19.868  13.499  0.1337 -0.0807 -0.1967
 1808BOLB   NC243381  12.424  21.788  14.182  0.1466  0.1979 -0.3816
 1808BOLB   PO243382  12.708  21.779  13.787 -0.0179  0.0790 -0.0204
 1808BOLB   GL343383  12.886  21.497  14.153  0.2409  0.1762  0.2214
 1808BOLB   GL443384  13.135  21.440  14.132 -0.0884  0.0281 -0.1157
 1808BOLB   C1C43385  12.931  21.139  14.477 -0.0744  0.3857 -0.1831
 1808BOLB   C2C43386  13.038  20.738  14.440 -0.4358  0.0477  0.1013
 1808BOLB   C3C43387  13.241  20.390  14.261 -0.2506  0.0946 -0.0359
 1808BOLB   C4C43388  13.363  20.211  13.904 -0.0450 -0.2114 -0.2300
 1808BOLB   C1D43389  13.406  21.241  14.269  0.0860  0.2134  0.1133
 1808BOLB   C2D43390  13.717  21.103  14.608  0.3549 -0.0198 -0.0748
 1808BOLB   C3D43391  13.984  21.214  14.873 -0.1189 -0.0550 -0.3519
 1808BOLB   C4D43392  13.982  21.625  14.832 -0.0470  0.1056  0.0229
 1809BOLB   NC143393  20.801  17.057  18.639 -0.2847 -0.3095  0.0578
 1809BOLB   PO143394  20.748  16.963  19.138  0.0476  0.0190  0.0587
 1809BOLB   GL143395  21.050  17.063  19.440 -0.1483 -0.1410  0.2121
 1809BOLB   GL243396  21.061  16.949  19.770  0.2311  0.3315  0.0222
 1809BOLB   C1A43397  21.318  17.342  19.574  0.0862 -0.0416 -0.2278
 1809BOLB   C2A43398  21.360  17.624  19.960 -0.3986  0.2382  0.0977
 1809BOLB   C3A43399  21.645  17.839  20.362  0.2844  0.0593  0.0438
 1809BOLB   C4A43400  21.467  18.143  20.609 -0.1343 -0.0587 -0.0699
 1809BOLB   C1B43401  21.274  17.163  20.024  0.1652  0.1541 -0.3265
 1809BOLB   C2B43402  21.392  17.318  20.411 -0.1954  0.3239  0.1244
 1809BOLB   C3B43403  21.338  17.648  20.610 -0.0625  0.0993  0.0656
 1809BOLB   C4B43404  20.996  17.963  20.641 -0.0055  0.2105 -0.1516
 1809BOLB   NC243405  22.390  19.989  21.327  0.0830  0.1783 -0.1074
 1809BOLB   PO243406  21.949  20.079  21.275  0.1056  0.4124 -0.0190
 1809BOLB   GL343407  21.668  19.810  21.084  0.1839 -0.3059  0.2009
 1809BOLB   GL443408  21.406  20.021  21.050  0.0157  0.1091  0.1191
 1809BOLB   C1C43409  21.643  19.510  20.856  0.2116 -0.4797 -0.2515
 1809BOLB   C2C43410  21.465  19.223  20.765  0.1260  0.0913  0.1440
 1809BOLB   C3C43411  21.391  18.843  20.628 -0.1253 -0.1666  0.4452
 1809BOLB   C4C43412  21.198  18.484  20.551 -0.1996  0.2511 -0.1535
 1809BOLB   C1D43413  21.130  19.622  20.932  0.1268  0.2732 -0.4131
 1809BOLB   C2D43414  20.901  19.277  20.767 -0.0295 -0.1591  0.3824
 1809BOLB   C3D43415  20.856  18.856  20.596  0.3277  0.0084  0.2018
 1809BOLB   C4D43416  20.742  18.449  20.763 -0.1632 -0.1220 -0.4110
 1810BOLB   NC143417  19.464  11.107   9.099 -0.0414 -0.3088 -0.1356
 1810BOLB   PO143418  19.204  11.366   8.723 -0.2725 -0.1517  0.0246
 1810BOLB   GL143419  19.373  11.395   8.312  0.1593  0.0583 -0.2274
 1810BOLB   GL243420  19.681  11.092   8.363 -0.1502 -0.1668  0.0503
 1810BOLB   C1A43421  19.636  11.350   7.929  0.1948 -0.1273 -0.2477
 1810BOLB   C2A43422  19.842  11.410   7.514 -0.0747  0.0934 -0.0093
 1810BOLB   C3A43423  20.194  11.155   7.323 -0.3314 -0.3619 -0.0887
 1810BOLB   C4A43424  20.353  11.274   6.879 -0.3326  0.1372 -0.0947
 1810BOLB   C1B43425  20.039  11.043   8.080  0.0576  0.0965  0.2847
 1810BOLB   C2B43426  20.401  11.131   7.806  0.0260 -0.2251 -0.3546
 1810BOLB   C3B43427  20.664  11.167   7.706  0.0427 -0.0383  0.0787
 1810BOLB   C4B43428  20.776  11.621   7.707 -0.1491 -0.0106 -0.4101
 1810BOLB   NC243429  22.159  11.054   6.026 -0.0374 -0.2499 -0.1279
 1810BOLB   PO243430  21.964  11.510   5.973  0.0658  0.2595  0.3171
 1810BOLB   GL343431  21.743  11.275   6.238  0.0035  0.1007  0.0742
 1810BOLB   GL443432  21.663  11.492   6.390 -0.0593  0.1071  0.2607
 1810BOLB   C1C43433  21.409  11.092   6.180  0.0252 -0.1605 -0.2301
 1810BOLB   C2C43434  20.981  10.879   6.025  0.1629  0.0983  0.2062
 1810BOLB   C3C43435  20.607  10.808   6.117 -0.0124 -0.3231 -0.0479
 1810BOLB   C4C43436  20.529  11.082   6.410 -0.0462  0.1768  0.2863
 1810BOLB   C1D43437  21.721  11.336   6.758 -0.3885  0.0221 -0.0171
 1810BOLB   C2D43438  21.575  10.992   7.149  0.1732  0.0292  0.3353
 1810BOLB   C3D43439  21.441  10.523   7.102 -0.3258 -0.3215  0.2026
 1810BOLB   C4D43440  21.682  10.201   7.113  0.0768  0.0131 -0.0897
 1811BOLB   NC143441  22.458  15.046  19.665  0.3683  0.1518  0.0383
 1811BOLB   PO143442  22.491  15.229  19.327  0.0032 -0.1482 -0.1930
 1811BOLB   GL143443  22.797  15.377  19.583 -0.1565 -0.0244 -0.1002
 1811BOLB   GL243444  22.637  15.429  19.947  0.0406 -0.2465  0.1938
 1811BOLB   C1A43445  23.134  15.664  19.798  0.1633  0.4537  0.0394
 1811BOLB   C2A43446  23.561  15.519  19.851 -0.0299  0.3976  0.1622
 1811BOLB   C3A43447  23.824  15.862  19.976  0.1852  0.1432 -0.1764
 1811BOLB   C4A43448  24.098  16.134  19.885 -0.2017 -0.1072 -0.0960
 1811BOLB   C1B43449  22.908  15.547  20.289 -0.1199 -0.1770  0.0070
 1811BOLB   C2B43450  22.927  15.910  20.555 -0.1937 -0.0900 -0.0767
 1811BOLB   C3B43451  22.795  16.222  20.835  0.0768  0.0095 -0.1510
 1811BOLB   C4B43452  22.430  16.573  20.839 -0.0693  0.2940  0.0214
 1811BOLB   NC243453  26.059  18.059  19.259  0.1873 -0.0161  0.4156
 1811BOLB   PO243454  25.928  17.741  19.507 -0.0001  0.1850  0.3747
 1811BOLB   GL343455  25.681  17.295  19.615 -0.0251  0.1963  0.2260
 1811BOLB   GL443456  25.366  17.407  19.649  0.0571 -0.2671  0.1615
 1811BOLB   C1C43457  25.400  16.942  19.404 -0.0062 -0.0117  0.1863
 1811BOLB   C2C43458  25.061  16.746  19.328  0.0930  0.0957  0.0856
 1811BOLB   C3C43459  24.579  16.703  19.357  0.1986 -0.0268 -0.3288
 1811BOLB   C4C43460  24.343  16.485  19.698 -0.0406  0.0552  0.3002
 1811BOLB   C1D43461  24.995  17.245  19.514  0.0716 -0.1815  0.0245
 1811BOLB   C2D43462  24.757  16.886  19.830  0.1424 -0.1030 -0.0956
 1811BOLB   C3D43463  24.492  16.832  20.100  0.0141 -0.4863 -0.0068
 1811BOLB   C4D43464  24.202  16.502  20.239  0.2587 -0.0310  0.0202
 1812BOLB   NC143465  21.457   3.416  16.211  0.1679  0.0378  0.2830
 1812BOLB   PO143466  21.144   3.504  16.691  0.1188 -0.1093 -0.0220
 1812BOLB   GL143467  21.447   3.161  16.753  0.0521 -0.3123  0.2792
 1812BOLB   GL243468  21.454   3.191  17.102  0.2104 -0.1869  0.1488
 1812BOLB   C1A43469  21.619   2.823  16.787  0.2248 -0.2390 -0.1960
 1812BOLB   C2A43470  21.927   2.480  16.756 -0.0175 -0.1975  0.2669
 1812BOLB   C3A43471  22.361   2.326  16.845 -0.3124 -0.0904  0.1483
 1812BOLB   C4A43472  22.826   2.273  16.801 -0.0503  0.0078 -0.1382
 1812BOLB   C1B43473  21.422   2.791  17.313  0.0576 -0.0545 -0.1306
 1812BOLB   C2B43474  21.382   2.413  17.535  0.2784  0.1621 -0.3572
 1812BOLB   C3B43475  21.176   2.093  17.776 -0.1404  0.0330 -0.0573
 1812BOLB   C4B43476  21.168   1.619  17.625  0.1567 -0.1473  0.1819
 1812BOLB   NC243477  24.705   0.606  15.786  0.1890  0.0694  0.3541
 1812BOLB   PO243478  24.918   0.876  16.014  0.1165  0.1692 -0.0002
 1812BOLB   GL343479  24.612   1.255  15.995  0.0755  0.3602 -0.0830
 1812BOLB   GL443480  24.656   1.533  15.869  0.2190  0.2559 -0.0775
 1812BOLB   C1C43481  24.118   1.418  16.046  0.0729  0.2388  0.1131
 1812BOLB   C2C43482  23.694   1.577  16.154  0.0664 -0.0015 -0.0335
 1812BOLB   C3C43483  23.474   1.915  16.227 -0.0861 -0.1013  0.1675
 1812BOLB   C4C43484  23.186   2.076  16.567 -0.0243  0.1110 -0.0817
 1812BOLB   C1D43485  24.294   1.707  15.644 -0.0972  0.2700  0.0136
 1812BOLB   C2D43486  24.042   2.024  15.455  0.0985  0.1428 -0.0910
 1812BOLB   C3D43487  24.045   2.330  15.086  0.2446 -0.1720 -0.0219
 1812BOLB   C4D43488  24.200   2.479  14.738  0.1717 -0.1465  0.1123
 1813BOLB   NC143489  21.115  12.879  20.874 -0.0784 -0.1135 -0.0099
 1813BOLB   PO143490  21.237  13.257  21.243  0.1576 -0.2375  0.2298
 1813BOLB   GL143491  21.563  13.442  21.471  0.1282  0.2338  0.0084
 1813BOLB   GL243492  21.739  13.600  21.323  0.1779 -0.1273 -0.2822
 1813BOLB   C1A43493  21.844  13.389  21.768 -0.0330  0.3771 -0.4927
 1813BOLB   C2A43494  22.172  13.375  22.145 -0.3621  0.2757  0.2063
 1813BOLB   C3A43495  22.488  13.686  22.331  0.3666 -0.1343  0.0974
 1813BOLB   C4A43496  22.639  13.824  22.766  0.1202  0.3235  0.2466
 1813BOLB   C1B43497  22.105  13.700  21.455 -0.0630  0.4379  0.0318
 1813BOLB   C2B43498  22.607  13.710  21.398  0.2182 -0.2916 -0.1267
 1813BOLB   C3B43499  22.906  13.731  21.616 -0.0497 -0.0727 -0.1663
 1813BOLB   C4B43500  23.049  13.679  22.117  0.0973 -0.3081  0.1329
 1813BOLB   NC243501  24.190  15.067  24.332 -0.1681 -0.0637 -0.1436
 1813BOLB   PO243502  24.005  15.430  24.251  0.1003  0.0117  0.0398
 1813BOLB   GL343503  23.876  14.988  23.935  0.0315 -0.2143 -0.1529
 1813BOLB   GL443504  24.058  14.901  23.768  0.2845 -0.0402 -0.0861
 1813BOLB   C1C43505  23.599  14.836  23.604 -0.1960 -0.0104 -0.0423
 1813BOLB   C2C43506  23.503  14.476  23.484  0.0756 -0.0130  0.4411
 1813BOLB   C3C43507  23.348  14.314  23.186 -0.0038 -0.0309 -0.0082
 1813BOLB   C4C43508  23.039  13.944  22.962 -0.1059  0.1616 -0.0194
 1813BOLB   C1D43509  23.951  15.048  23.304 -0.0295 -0.1226 -0.0117
 1813BOLB   C2D43510  23.904  15.242  22.915 -0.0957 -0.1388 -0.0523
 1813BOLB   C3D43511  23.928  15.320  22.513 -0.0951 -0.1028  0.5147
 1813BOLB   C4D43512  23.695  15.167  22.173 -0.2225  0.0623  0.0445
 1814BOLB   NC143513  13.572  17.295  12.336  0.2298 -0.1644 -0.1998
 1814BOLB   PO143514  13.511  17.031  11.978  0.1358 -0.1566  0.1580
 1814BOLB   GL143515  13.236  17.404  11.906  0.2273 -0.0881 -0.3003
 1814BOLB   GL243516  13.095  17.649  12.191 -0.0623  0.2942  0.0856
 1814BOLB   C1A43517  13.104  17.773  11.661 -0.0188 -0.0068 -0.2103
 1814BOLB   C2A43518  12.979  18.178  11.524 -0.0820  0.1025  0.0492
 1814BOLB   C3A43519  12.736  18.390  11.065 -0.0694  0.0476  0.4213
 1814BOLB   C4A43520  12.453  18.719  11.109 -0.1198 -0.1844 -0.2629
 1814BOLB   C1B43521  12.921  18.036  12.017 -0.0430 -0.2299 -0.1779
 1814BOLB   C2B43522  12.550  18.031  11.712  0.0475 -0.3033  0.0419
 1814BOLB   C3B43523  12.407  18.233  11.442  0.1872 -0.2539 -0.0584
 1814BOLB   C4B43524  12.026  18.273  11.284  0.4388 -0.0069  0.1137
 1814BOLB   NC243525  10.867  20.090  11.115  0.0050 -0.0496 -0.2498
 1814BOLB   PO243526  10.667  19.944  10.814  0.1921 -0.1312 -0.3283
 1814BOLB   GL343527  10.904  19.571  10.870  0.0382  0.2069  0.0419
 1814BOLB   GL443528  11.184  19.768  11.040  0.0605  0.1436  0.2164
 1814BOLB   C1C43529  10.940  19.065  10.726 -0.2439  0.0331  0.2623
 1814BOLB   C2C43530  11.294  18.843  10.753  0.2270  0.1141  0.1282
 1814BOLB   C3C43531  11.708  18.750  10.883  0.0178  0.0561 -0.0074
 1814BOLB   C4C43532  11.986  18.810  11.141 -0.0113 -0.2289  0.3229
 1814BOLB   C1D43533  10.983  19.319  11.325 -0.0505  0.0647  0.1203
 1814BOLB   C2D43534  11.117  18.955  11.599 -0.0247 -0.1685 -0.3164
 1814BOLB   C3D43535  11.170  18.460  11.678  0.2274 -0.1495 -0.0088
 1814BOLB   C4D43536  11.592  18.242  11.621  0.0290  0.1047 -0.0841
 1815BOLB   NC143537  15.070  15.352  22.223 -0.1880 -0.0844  0.1222
 1815BOLB   PO143538  14.700  15.549  22.078  0.1109 -0.0757 -0.0326
 1815BOLB   GL143539  14.575  15.423  22.460  0.1370 -0.0846  0.1320
 1815BOLB   GL243540  14.381  15.324  22.556 -0.3255 -0.0219  0.0059
 1815BOLB   C1A43541  14.416  15.727  22.836  0.0733 -0.2105 -0.0292
 1815BOLB   C2A43542  14.123  15.799  23.175  0.1573 -0.1351 -0.0276
 1815BOLB   C3A43543  13.719  15.926  23.362  0.1568  0.0554  0.0088
 1815BOLB   C4A43544  13.337  16.104  23.543 -0.0074  0.0843  0.1924
 1815BOLB   C1B43545  14.217  15.268  22.904 -0.1855 -0.0911 -0.0947
 1815BOLB   C2B43546  14.397  15.254  23.300  0.1375  0.1784 -0.1140
 1815BOLB   C3B43547  14.305  15.249  23.786  0.1226 -0.1690  0.2484
 1815BOLB   C4B43548  13.962  15.437  24.107 -0.3015 -0.2277 -0.1486
 1815BOLB   NC243549  12.564  17.154  25.796 -0.3414 -0.2523  0.0077
 1815BOLB   PO243550  12.567  17.299  25.401  0.0703 -0.1410  0.2677
 1815BOLB   GL343551  12.519  17.142  24.940  0.0003 -0.0899 -0.1103
 1815BOLB   GL443552  12.268  16.904  25.012 -0.1650 -0.0102 -0.2232
 1815BOLB   C1C43553  12.679  16.914  24.537 -0.0299  0.3528 -0.0293
 1815BOLB   C2C43554  12.675  16.843  24.151  0.0363 -0.3349 -0.0081
 1815BOLB   C3C43555  12.650  16.501  23.862  0.1345  0.0009 -0.4403
 1815BOLB   C4C43556  12.940  16.316  23.689 -0.0025 -0.2164  0.0851
 1815BOLB   C1D43557  12.626  16.625  24.925  0.1378 -0.2038 -0.1641
 1815BOLB   C2D43558  12.973  16.434  24.691  0.2372 -0.0147 -0.2462
 1815BOLB   C3D43559  13.013  16.489  24.250  0.1446  0.1156  0.2183
 1815BOLB   C4D43560  13.303  16.373  24.002  0.2739 -0.0019  0.1586
 1816BOLB   NC143561  12.485  14.086  21.893 -0.0233 -0.1243 -0.5814
 1816BOLB   PO143562  12.254  14.357  21.611 -0.2062 -0.1963 -0.3190
 1816BOLB   GL143563  12.249  14.666  21.944  0.0556  0.1307  0.0474
 1816BOLB   GL243564  12.354  14.465  22.143  0.3960 -0.1280 -0.0136
 1816BOLB   C1A43565  11.955  14.932  22.056 -0.0700 -0.0169 -0.3868
 1816BOLB   C2A43566  11.753  15.051  22.247  0.2586 -0.1164  0.5249
 1816BOLB   C3A43567  11.240  15.070  22.226 -0.0646 -0.0274  0.1830
 1816BOLB   C4A43568  10.876  14.914  22.468 -0.2157  0.0162  0.1077
 1816BOLB   C1B43569  12.022  14.613  22.498 -0.2890 -0.2343 -0.2403
 1816BOLB   C2B43570  11.863  14.929  22.770  0.1225 -0.2530 -0.0354
 1816BOLB   C3B43571  11.818  15.341  22.839 -0.0439  0.4639 -0.0237
 1816BOLB   C4B43572  11.980  15.710  23.034 -0.2196  0.1248 -0.0670
 1816BOLB   NC243573   8.841  15.354  24.030 -0.0579 -0.0725  0.0076
 1816BOLB   PO243574   9.260  15.251  24.285  0.2380 -0.1376 -0.0999
 1816BOLB   GL343575   9.706  15.203  24.157  0.0565 -0.1902 -0.3036
 1816BOLB   GL443576   9.479  14.965  23.947 -0.0961  0.1233 -0.1184
 1816BOLB   C1C43577  10.135  15.080  24.079 -0.1250  0.2316  0.0347
 1816BOLB   C2C43578  10.467  15.074  23.727 -0.5267  0.2376 -0.0177
 1816BOLB   C3C43579  10.628  14.908  23.277  0.2820  0.0280 -0.1156
 1816BOLB   C4C43580  10.797  15.002  22.959  0.1775 -0.1883  0.3895
 1816BOLB   C1D43581   9.193  14.719  23.703 -0.2243 -0.5075  0.0150
 1816BOLB   C2D43582   8.906  14.553  23.382 -0.2137 -0.1534 -0.1412
 1816BOLB   C3D43583   8.922  14.279  23.020  0.2784 -0.2707 -0.1082
 1816BOLB   C4D43584   8.856  14.254  22.653  0.2369  0.1650  0.1103
 1817BOLB   NC143585  21.173   4.978  11.516 -0.0397  0.3980  0.1612
 1817BOLB   PO143586  21.255   4.923  11.909  0.0459  0.1028 -0.0364
 1817BOLB   GL143587  21.657   4.896  11.658  0.2736  0.0534 -0.2916
 1817BOLB   GL243588  21.946   5.091  11.732 -0.1556  0.0499 -0.0567
 1817BOLB   C1A43589  21.942   4.629  11.347 -0.1785  0.2956  0.0788
 1817BOLB   C2A43590  22.137   4.393  11.122  0.0093  0.1184  0.1724
 1817BOLB   C3A43591  22.460   4.025  11.228 -0.1197  0.2333 -0.3879
 1817BOLB   C4A43592  22.660   3.630  11.257  0.4093  0.0434  0.0840
 1817BOLB   C1B43593  22.310   5.048  11.448 -0.5695 -0.1891 -0.1385
 1817BOLB   C2B43594  22.653   5.091  11.244  0.4440  0.2172 -0.0052
 1817BOLB   C3B43595  22.831   5.219  10.838 -0.0839 -0.0419  0.1158
 1817BOLB   C4B43596  23.122   5.388  10.480  0.1911 -0.2352  0.3262
 1817BOLB   NC243597  23.898   1.946  11.023  0.0993 -0.0847 -0.2610
 1817BOLB   PO243598  23.593   1.636  10.854  0.2372  0.0640 -0.1181
 1817BOLB   GL343599  23.436   2.021  10.664  0.0162  0.1440  0.1120
 1817BOLB   GL443600  23.340   1.881  10.388  0.2437 -0.0002  0.1762
 1817BOLB   C1C43601  23.355   2.396  10.543  0.0339  0.0940 -0.1335
 1817BOLB   C2C43602  23.129   2.610  10.630 -0.1221 -0.0741 -0.1223
 1817BOLB   C3C43603  22.902   2.880  10.918  0.0486 -0.2413 -0.0141
 1817BOLB   C4C43604  22.906   3.241  11.194 -0.1258 -0.0419  0.0500
 1817BOLB   C1D43605  22.893   2.029  10.333  0.1465 -0.0079  0.4435
 1817BOLB   C2D43606  22.704   2.318  10.523  0.1394 -0.3964 -0.0507
 1817BOLB   C3D43607  22.468   2.645  10.774 -0.0636  0.0138  0.1385
 1817BOLB   C4D43608  22.056   2.855  10.815 -0.1936  0.1628 -0.2393
 1818BOLB   NC143609  14.201  22.160  19.556 -0.0994 -0.1786  0.0037
 1818BOLB   PO143610  14.271  22.525  19.274 -0.1021 -0.1868 -0.2439
 1818BOLB   GL143611  14.486  22.222  19.030 -0.1789 -0.0409 -0.1349
 1818BOLB   GL243612  14.205  21.939  18.951  0.0807 -0.1971 -0.1369
 1818BOLB   C1A43613  14.738  21.905  18.959 -0.1990 -0.0761  0.0581
 1818BOLB   C2A43614  14.715  21.374  18.968 -0.2098 -0.3286 -0.3101
 1818BOLB   C3A43615  14.759  20.929  18.861  0.1842  0.2865 -0.4595
 1818BOLB   C4A43616  14.581  20.612  19.253  0.1134  0.0720 -0.0753
 1818BOLB   C1B43617  14.320  21.589  19.140 -0.0597  0.0151 -0.0307
 1818BOLB   C2B43618  14.280  21.156  18.951 -0.0562  0.2032  0.0188
 1818BOLB   C3B43619  14.228  20.694  18.845  0.0552  0.2251  0.1099
 1818BOLB   C4B43620  14.329  20.171  18.828 -0.3899 -0.1899  0.2282
 1818BOLB   NC243621  13.936  22.471  18.944 -0.0468  0.1231  0.0190
 1818BOLB   PO243622  13.755  22.050  19.152  0.1492 -0.0351 -0.2744
 1818BOLB   GL343623  13.658  21.633  19.221 -0.1555 -0.0261  0.1082
 1818BOLB   GL443624  13.586  21.449  19.543  0.2238  0.0266 -0.3003
 1818BOLB   C1C43625  13.492  21.192  19.158  0.0970  0.0676  0.1550
 1818BOLB   C2C43626  13.655  20.820  19.238 -0.1699 -0.1407 -0.0499
 1818BOLB   C3C43627  13.866  20.466  19.103 -0.1716 -0.1518 -0.0408
 1818BOLB   C4C43628  14.233  20.433  19.263 -0.0320 -0.4429 -0.0576
 1818BOLB   C1D43629  13.988  21.259  19.352  0.0777 -0.0042  0.1774
 1818BOLB   C2D43630  14.173  20.929  19.367 -0.0843 -0.1368  0.1463
 1818BOLB   C3D43631  14.280  20.609  19.786 -0.3231  0.1669  0.0512
 1818BOLB   C4D43632  14.454  20.681  20.138  0.0247 -0.0064  0.1432
 1819BOLB   NC143633  22.987  12.023  20.341  0.0289 -0.2386 -0.1308
 1819BOLB   PO143634  23.397  11.671  20.090  0.0838  0.2847 -0.0634
 1819BOLB   GL143635  23.672  11.441  20.231 -0.0063  0.0084 -0.3149
 1819BOLB   GL243636  23.970  11.182  20.240  0.0294  0.0169  0.0210
 1819BOLB   C1A43637  24.018  11.652  20.361 -0.3847 -0.1422 -0.0489
 1819BOLB   C2A43638  24.422  11.631  20.448 -0.0984  0.0689  0.2473
 1819BOLB   C3A43639  24.865  11.632  20.513 -0.1483  0.0024 -0.1922
 1819BOLB   C4A43640  25.234  11.518  20.543  0.0445 -0.1786  0.3626
 1819BOLB   C1B43641  24.324  11.160  20.518  0.0337 -0.2895  0.0399
 1819BOLB   C2B43642  24.684  11.112  20.568  0.0075 -0.2426 -0.2709
 1819BOLB   C3B43643  25.081  11.075  20.732  0.0016  0.2771  0.0039
 1819BOLB   C4B43644  25.516  11.168  20.745 -0.3421 -0.2142 -0.0696
 1819BOLB   NC243645  27.518  11.253  21.933 -0.2366  0.0433 -0.0647
 1819BOLB   PO243646  27.421  11.126  21.514 -0.1896 -0.0086 -0.1416
 1819BOLB   GL343647  26.964  11.169  21.434  0.6433 -0.1159 -0.0678
 1819BOLB   GL443648  26.880  11.341  21.128 -0.3275 -0.0833  0.0218
 1819BOLB   C1C43649  26.564  11.105  21.391 -0.0980  0.0052 -0.0677
 1819BOLB   C2C43650  26.322  11.237  21.232  0.4409 -0.0589 -0.3348
 1819BOLB   C3C43651  26.070  11.423  20.928 -0.3108  0.0603 -0.0430
 1819BOLB   C4C43652  25.648  11.677  20.679  0.0979 -0.2847  0.1917
 1819BOLB   C1D43653  26.788  11.132  20.805  0.0974 -0.0065 -0.2188
 1819BOLB   C2D43654  26.394  11.006  20.593  0.4614 -0.1100  0.0620
 1819BOLB   C3D43655  26.245  10.791  20.178  0.0505 -0.1700  0.0798
 1819BOLB   C4D43656  25.910  10.534  20.055 -0.3408 -0.0267  0.0122
 1820BOLB   NC143657  12.347   5.962  21.303  0.1588 -0.0091 -0.0144
 1820BOLB   PO143658  12.791   5.815  21.516 -0.2655 -0.1152  0.0956
 1820BOLB   GL143659  12.731   5.597  21.849  0.0186 -0.3779 -0.2580
 1820BOLB   GL243660  12.397   5.454  21.845 -0.0301 -0.2779 -0.0490
 1820BOLB   C1A43661  12.687   5.336  22.208 -0.2385  0.1220 -0.0857
 1820BOLB   C2A43662  12.681   5.391  22.641 -0.0271 -0.0863 -0.0512
 1820BOLB   C3A43663  12.960   5.338  22.951  0.2822 -0.0146 -0.0647
 1820BOLB   C4A43664  12.924   5.199  23.428 -0.2957 -0.3593  0.0305
 1820BOLB   C1B43665  12.196   5.268  22.216 -0.0547  0.1964 -0.0935
 1820BOLB   C2B43666  12.344   4.987  22.527  0.0520 -0.0203 -0.0585
 1820BOLB   C3B43667  12.416   5.009  22.895 -0.1839 -0.0028 -0.1638
 1820BOLB   C4B43668  12.460   5.406  23.071  0.2406 -0.1616  0.0942
 1820BOLB   NC243669  12.102   4.113  25.550  0.2181  0.1006  0.2189
 1820BOLB   PO243670  12.080   3.702  25.441 -0.2080  0.2078  0.1669
 1820BOLB   GL343671  12.242   3.922  25.094 -0.0763 -0.1416 -0.1849
 1820BOLB   GL443672  12.104   3.729  24.873 -0.1622 -0.5007  0.1761
 1820BOLB   C1C43673  12.422   4.285  24.871 -0.0403 -0.0847  0.1171
 1820BOLB   C2C43674  12.519   4.581  24.454 -0.0288 -0.0706  0.1570
 1820BOLB   C3C43675  12.671   4.912  24.293 -0.2132 -0.0043  0.0807
 1820BOLB   C4C43676  12.699   5.123  23.882  0.0379 -0.3487 -0.0080
 1820BOLB   C1D43677  12.212   4.081  24.508  0.1804  0.1490  0.1908
 1820BOLB   C2D43678  12.293   4.376  24.055 -0.0722  0.1040  0.1615
 1820BOLB   C3D43679  12.723   4.608  23.845  0.2425  0.1482 -0.1286
 1820BOLB   C4D43680  12.612   4.726  23.491  0.2549  0.2060 -0.1970
 1821BOLB   NC143681  14.540   3.021  18.811  0.0745  0.4011  0.0529
 1821BOLB   PO143682  14.769   2.695  19.047 -0.0569  0.0400  0.0442
 1821BOLB   GL143683  14.641   2.350  19.195 -0.1333  0.2311 -0.0443
 1821BOLB   GL243684  14.818   2.088  19.204  0.0820  0.0831 -0.0670
 1821BOLB   C1A43685  14.719   2.206  19.656  0.2844 -0.1804 -0.0668
 1821BOLB   C2A43686  14.795   1.836  19.892  0.3794  0.0777 -0.0925
 1821BOLB   C3A43687  14.738   1.718  20.304 -0.2847 -0.0995  0.0157
 1821BOLB   C4A43688  14.410   1.416  20.355  0.0301 -0.2858  0.3090
 1821BOLB   C1B43689  15.009   1.807  19.434  0.1046  0.0238  0.0363
 1821BOLB   C2B43690  15.070   1.387  19.644 -0.1232 -0.1597  0.0604
 1821BOLB   C3B43691  15.055   0.967  19.719  0.0675 -0.3000 -0.0050
 1821BOLB   C4B43692  14.925   0.551  19.781 -0.1359  0.1602  0.0684
 1821BOLB   NC243693  14.014  -0.328  22.018 -0.1187  0.1269 -0.0174
 1821BOLB   PO243694  14.115  -0.645  21.746 -0.2276  0.1939 -0.1466
 1821BOLB   GL343695  13.912  -0.248  21.536  0.1244  0.0293 -0.0895
 1821BOLB   GL443696  13.567  -0.185  21.342  0.1218  0.2799  0.0852
 1821BOLB   C1C43697  13.965   0.230  21.438 -0.3940 -0.1195  0.0462
 1821BOLB   C2C43698  13.959   0.724  21.290  0.0628  0.0682  0.1704
 1821BOLB   C3C43699  13.904   1.207  21.085 -0.1610 -0.0971  0.2771
 1821BOLB   C4C43700  14.158   1.370  20.776 -0.0559  0.1249  0.1131
 1821BOLB   C1D43701  13.546   0.211  21.154 -0.1079  0.0873  0.2146
 1821BOLB   C2D43702  13.505   0.531  21.015  0.1382  0.0188 -0.1212
 1821BOLB   C3D43703  13.541   0.937  20.947  0.1389 -0.1743 -0.0525
 1821BOLB   C4D43704  13.583   1.385  20.740 -0.0564 -0.1594 -0.0000
 1822BOLB   NC143705  13.994   2.597  17.665  0.3195 -0.0353 -0.1407
 1822BOLB   PO143706  13.626   2.598  17.938  0.0297  0.1582 -0.0462
 1822BOLB   GL143707  13.445   2.199  18.123 -0.5041 -0.0198 -0.1378
 1822BOLB   GL243708  13.620   1.869  17.969  0.0637  0.1142  0.0753
 1822BOLB   C1A43709  13.388   1.950  18.509  0.2036  0.2791 -0.0245
 1822BOLB   C2A43710  13.186   1.703  18.812 -0.1796 -0.0576  0.3218
 1822BOLB   C3A43711  13.083   1.393  19.124 -0.0539 -0.1642  0.1105
 1822BOLB   C4A43712  12.968   1.012  19.331 -0.0029 -0.0326 -0.4094
 1822BOLB   C1B43713  13.441   1.527  18.242 -0.0359 -0.0576 -0.0906
 1822BOLB   C2B43714  13.154   1.335  18.482 -0.2102 -0.3037 -0.4440
 1822BOLB   C3B43715  12.971   0.946  18.609  0.2546 -0.0767 -0.2218
 1822BOLB   C4B43716  12.730   0.759  19.001 -0.4928 -0.1089 -0.2589
 1822BOLB   NC243717  11.529  -0.685  20.255 -0.2272  0.1107 -0.1225
 1822BOLB   PO243718  11.790  -0.498  20.747  0.0248  0.2118  0.2758
 1822BOLB   GL343719  11.921  -0.137  20.475  0.2086  0.0174 -0.4098
 1822BOLB   GL443720  11.575  -0.122  20.189 -0.0384 -0.0755 -0.1712
 1822BOLB   C1C43721  12.215  -0.061  20.178 -0.1143  0.2660  0.1244
 1822BOLB   C2C43722  12.644   0.045  20.050 -0.0645  0.2067  0.0428
 1822BOLB   C3C43723  12.912   0.357  19.865 -0.0866 -0.3369 -0.1706
 1822BOLB   C4C43724  12.902   0.791  19.653 -0.1225  0.0299 -0.3381
 1822BOLB   C1D43725  11.804   0.263  20.022  0.0850  0.2029 -0.2083
 1822BOLB   C2D43726  11.915   0.545  19.652 -0.1769  0.2065  0.2016
 1822BOLB   C3D43727  11.893   0.910  19.452 -0.1625  0.2118 -0.2018
 1822BOLB   C4D43728  11.619   1.216  19.524  0.1798  0.2778  0.0141
 1823DPPE   NH343729  21.198  22.208  16.993 -0.1703  0.3368  0.2493
 1823DPPE   PO443730  21.457  21.868  16.998 -0.1771  0.1287  0.4505
 1823DPPE   GL143731  21.423  21.508  17.000 -0.1283  0.0354 -0.0263
 1823DPPE   GL243732  21.611  21.276  17.254  0.1141 -0.0704 -0.3059
 1823DPPE   C1A43733  21.092  21.300  16.748 -0.0354  0.1131  0.3463
 1823DPPE   C2A43734  20.791  21.022  16.609 -0.2063  0.1562  0.0852
 1823DPPE   C3A43735  20.518  20.649  16.545 -0.2611 -0.2502  0.0480
 1823DPPE   C4A43736  20.320  20.285  16.315  0.0176  0.4079  0.0308
 1823DPPE   C1B43737  21.547  21.077  16.834  0.1582 -0.2810  0.0149
 1823DPPE   C2B43738  21.359  20.871  16.444  0.1504 -0.1212  0.1221
 1823DPPE   C3B43739  20.954  20.851  16.181 -0.0834  0.0795  0.0679
 1823DPPE   C4B43740  20.491  20.977  16.185 -0.1011 -0.1392  0.2069
 1824DPPE   NH343741   3.795   0.076  12.947  0.3357  0.0773 -0.2383
 1824DPPE   PO443742   3.566   0.216  13.314 -0.3617  0.0388  0.1041
 1824DPPE   GL143743   4.089   0.246  13.379 -0.0834  0.0804 -0.1807
 1824DPPE   GL243744   4.128   0.083  13.691  0.4090 -0.0074 -0.2418
 1824DPPE   C1A43745   4.442   0.138  13.204 -0.0801 -0.3422  0.2622
 1824DPPE   C2A43746   4.700   0.175  12.850  0.2156  0.1002  0.0737
 1824DPPE   C3A43747   4.927   0.501  12.723 -0.1171 -0.0558  0.0676
 1824DPPE   C4A43748   5.205   0.949  12.888  0.0173  0.0097 -0.1969
 1824DPPE   C1B43749   4.541   0.152  13.677 -0.1281 -0.0544  0.2994
 1824DPPE   C2B43750   4.886   0.278  13.354 -0.3211 -0.1625 -0.0368
 1824DPPE   C3B43751   5.245   0.440  13.108  0.0601  0.0441  0.0725
 1824DPPE   C4B43752   5.465   0.417  12.628 -0.3882 -0.0833 -0.1919
 1825DPPE   NH343753  20.412  19.843  22.888 -0.0737 -0.0175  0.0828
 1825DPPE   PO443754  20.039  19.855  23.085  0.0594 -0.3056  0.0260
 1825DPPE   GL143755  19.899  19.635  22.805 -0.1954  0.4599 -0.1625
 1825DPPE   GL243756  20.131  19.623  22.450  0.1738 -0.0821 -0.0895
 1825DPPE   C1A43757  19.451  19.389  22.709  0.2006  0.0635  0.0349
 1825DPPE   C2A43758  19.272  19.166  22.347 -0.0219 -0.5458  0.4093
 1825DPPE   C3A43759  19.188  18.841  22.100  0.1386 -0.1857  0.0203
 1825DPPE   C4A43760  19.234  18.559  21.749 -0.3315 -0.1425  0.2617
 1825DPPE   C1B43761  19.796  19.319  22.331 -0.0883  0.1314 -0.1539
 1825DPPE   C2B43762  19.472  19.291  21.964  0.1402  0.0830  0.3109
 1825DPPE   C3B43763  19.194  19.060  21.646  0.0621  0.1301 -0.0686
 1825DPPE   C4B43764  18.812  18.928  21.684  0.0271 -0.1331 -0.0542
 1826DPPE   NH343765  15.504   6.875  10.081 -0.2310 -0.0857 -0.1979
 1826DPPE   PO443766  15.064   6.833  10.253  0.2135 -0.3160  0.1472
 1826DPPE   GL143767  14.814   6.703   9.839 -0.1531  0.1898  0.0815
 1826DPPE   GL243768  14.417   6.700   9.861  0.1222 -0.0098 -0.1291
 1826DPPE   C1A43769  14.518   6.710   9.429 -0.0862 -0.0383 -0.1178
 1826DPPE   C2A43770  14.290   6.374   9.271  0.2128 -0.0362 -0.0161
 1826DPPE   C3A43771  14.445   5.990   9.074 -0.1207  0.1789 -0.2609
 1826DPPE   C4A43772  14.651   5.589   9.274 -0.2181  0.0824  0.0069
 1826DPPE   C1B43773  14.115   6.366   9.699  0.2922 -0.0288  0.2159
 1826DPPE   C2B43774  13.813   6.172   9.428 -0.0284  0.0122  0.2042
 1826DPPE   C3B43775  13.883   5.987   9.069  0.2286  0.0555 -0.0603
 1826DPPE   C4B43776  14.003   5.792   8.828 -0.1435 -0.0338  0.0864
 1827DPPE   NH343777  20.619  20.368  21.980 -0.2671 -0.0748 -0.0637
 1827DPPE   PO443778  20.864  20.365  21.605  0.3083 -0.2030  0.4747
 1827DPPE   GL143779  20.499  20.392  21.285 -0.0284  0.0450  0.1175
 1827DPPE   GL243780  20.483  20.017  21.498 -0.3162  0.0548  0.1768
 1827DPPE   C1A43781  20.313  20.073  20.991 -0.3586  0.0801  0.1706
 1827DPPE   C2A43782  19.847  20.036  20.707 -0.1142  0.2764 -0.1281
 1827DPPE   C3A43783  19.471  20.141  20.513 -0.0712  0.3665  0.1773
 1827DPPE   C4A43784  19.139  19.959  20.188  0.1202 -0.0974 -0.0560
 1827DPPE   C1B43785  20.358  19.642  21.298 -0.0026  0.0510 -0.0740
 1827DPPE   C2B43786  20.511  19.315  21.147  0.2336 -0.3138 -0.1006
 1827DPPE   C3B43787  20.651  18.884  21.030  0.2252  0.0838 -0.3739
 1827DPPE   C4B43788  20.585  18.390  21.251 -0.0550  0.0224  0.0768
 1828DPPE   NH343789   5.396   0.743   8.720  0.1828  0.2717 -0.3878
 1828DPPE   PO443790   5.138   1.136   8.789 -0.0536 -0.1411  0.0969
 1828DPPE   GL143791   5.226   0.978   9.162  0.4110 -0.0050  0.0595
 1828DPPE   GL243792   5.053   1.045   9.529  0.0866 -0.0069  0.1856
 1828DPPE   C1A43793   5.490   0.817   9.587 -0.0775 -0.0752  0.2860
 1828DPPE   C2A43794   5.828   0.797   9.770  0.0873 -0.0197 -0.0952
 1828DPPE   C3A43795   6.233   0.863  10.043 -0.0085 -0.3691  0.1128
 1828DPPE   C4A43796   6.741   0.779   9.958 -0.1286 -0.1245 -0.1759
 1828DPPE   C1B43797   5.242   1.299   9.833 -0.0768 -0.1890 -0.3332
 1828DPPE   C2B43798   5.664   1.497   9.836  0.1509 -0.3367 -0.2001
 1828DPPE   C3B43799   6.055   1.358  10.094  0.1721  0.2239  0.1461
 1828DPPE   C4B43800   6.268   1.180  10.410  0.1456  0.1719 -0.3263
 1829DPPE   NH343801   3.811  12.911  14.547 -0.2764 -0.3114 -0.1660
 1829DPPE   PO443802   4.196  12.751  14.439 -0.0112 -0.0714 -0.1467
 1829DPPE   GL143803   4.583  12.638  14.329 -0.0086  0.1370  0.1120
 1829DPPE   GL243804   4.426  12.327  14.238  0.4006 -0.1011 -0.1537
 1829DPPE   C1A43805   4.981  12.369  14.237  0.0011  0.1498  0.2513
 1829DPPE   C2A43806   5.291  12.149  14.119  0.2572  0.2367  0.0387
 1829DPPE   C3A43807   5.624  11.841  14.332  0.0460  0.3546  0.0239
 1829DPPE   C4A43808   6.137  11.674  14.412  0.0689 -0.4652  0.3620
 1829DPPE   C1B43809   4.624  12.076  13.925  0.0367  0.0525 -0.2328
 1829DPPE   C2B43810   4.596  11.600  13.912 -0.0084 -0.1214 -0.2177
 1829DPPE   C3B43811   4.882  11.199  13.758 -0.0783  0.0708 -0.0444
 1829DPPE   C4B43812   5.222  11.008  13.479 -0.1895  0.0796  0.0895
 1830DPPE   NH343813   6.077  10.733  23.259  0.1037  0.2183 -0.0088
 1830DPPE   PO443814   6.573  10.863  23.219 -0.1806 -0.0171  0.0006
 1830DPPE   GL143815   6.877  10.791  22.878 -0.3895 -0.1009 -0.1841
 1830DPPE   GL243816   6.840  10.541  22.577 -0.0305  0.3480 -0.0061
 1830DPPE   C1A43817   7.293  10.587  22.843  0.0201 -0.1462  0.0094
 1830DPPE   C2A43818   7.674  10.634  22.597 -0.3248  0.1632  0.0158
 1830DPPE   C3A43819   8.075  10.483  22.345  0.0090 -0.0613 -0.1135
 1830DPPE   C4A43820   8.393  10.656  22.120 -0.1001  0.2375  0.4247
 1830DPPE   C1B43821   7.099  10.627  22.213 -0.1360  0.5122  0.1822
 1830DPPE   C2B43822   7.258  10.440  21.822 -0.3069 -0.0253 -0.3425
 1830DPPE   C3B43823   7.297  10.280  21.370 -0.3477 -0.1433 -0.2475
 1830DPPE   C4B43824   7.535  10.421  21.078  0.2608  0.1010 -0.0186
 1831DPPE   NH343825  24.526  18.437  11.929 -0.1206  0.1499 -0.0935
 1831DPPE   PO443826  24.345  18.562  12.273 -0.2219  0.1676  0.0936
 1831DPPE   GL143827  24.013  18.484  12.513 -0.0654 -0.0863 -0.0039
 1831DPPE   GL243828  23.803  18.793  12.663  0.4466 -0.1622  0.1264
 1831DPPE   C1A43829  23.699  18.393  12.419 -0.1224  0.2714 -0.0772
 1831DPPE   C2A43830  23.375  18.211  12.410  0.2982  0.0867  0.1406
 1831DPPE   C3A43831  23.024  18.034  12.403 -0.0799 -0.2335  0.1289
 1831DPPE   C4A43832  22.541  18.025  12.492  0.0118 -0.0556  0.2609
 1831DPPE   C1B43833  23.450  18.552  12.842  0.2032  0.1657 -0.0662
 1831DPPE   C2B43834  23.388  18.481  13.249  0.1675  0.0062  0.2472
 1831DPPE   C3B43835  23.548  18.602  13.531  0.2248  0.0661 -0.1996
 1831DPPE   C4B43836  23.819  18.680  13.777  0.1564  0.0254 -0.0283
 1832DPPE   NH343837  17.722  21.651  20.994 -0.1654 -0.0413  0.1037
 1832DPPE   PO443838  18.153  21.441  21.182  0.3777  0.2075  0.3917
 1832DPPE   GL143839  17.775  21.162  20.988 -0.1724 -0.2887 -0.0555
 1832DPPE   GL243840  17.852  21.306  20.706 -0.0671  0.0607  0.1561
 1832DPPE   C1A43841  17.600  20.860  20.860 -0.0571 -0.1372  0.0392
 1832DPPE   C2A43842  17.532  20.466  20.613 -0.0158  0.1548  0.1038
 1832DPPE   C3A43843  17.702  20.144  20.313  0.2451  0.0721  0.1284
 1832DPPE   C4A43844  17.490  19.905  20.111  0.1813 -0.0646  0.1723
 1832DPPE   C1B43845  17.572  21.180  20.438 -0.0210  0.0590 -0.1865
 1832DPPE   C2B43846  17.311  20.965  20.139  0.0322 -0.1209  0.3830
 1832DPPE   C3B43847  17.044  20.883  19.818  0.0615 -0.1705  0.0629
 1832DPPE   C4B43848  16.762  20.777  19.499  0.1538  0.4034  0.1166
 1833DPPE   NH343849  12.438   3.264   1.434 -0.1843 -0.3002  0.1848
 1833DPPE   PO443850  12.778   3.088   1.861  0.1269  0.0085 -0.1048
 1833DPPE   GL143851  12.539   3.417   2.005  0.0446 -0.0001  0.2610
 1833DPPE   GL243852  12.574   3.559   1.785 -0.1006  0.2334  0.3042
 1833DPPE   C1A43853  12.337   3.661   2.329  0.0467 -0.1911  0.4752
 1833DPPE   C2A43854  12.632   3.849   2.716 -0.2719 -0.3638  0.1545
 1833DPPE   C3A43855  12.727   3.662   3.042  0.2468  0.1824  0.1936
 1833DPPE   C4A43856  12.985   3.511   3.272  0.0808  0.0106  0.1290
 1833DPPE   C1B43857  13.013   3.776   1.761  0.1718 -0.2686  0.1207
 1833DPPE   C2B43858  13.410   4.113   1.737 -0.0767  0.1937  0.0378
 1833DPPE   C3B43859  13.444   4.150   2.184  0.0174 -0.0490 -0.0735
 1833DPPE   C4B43860  13.205   4.081   2.588 -0.0692 -0.0802  0.1371
 1834DPPE   NH343861   2.389  11.003  15.515 -0.2067 -0.0814 -0.2304
 1834DPPE   PO443862   2.470  10.648  15.797  0.2323  0.1091  0.2870
 1834DPPE   GL143863   2.661  10.230  15.579  0.1917 -0.1571 -0.1783
 1834DPPE   GL243864   2.397  10.041  15.652  0.2052 -0.2401 -0.0658
 1834DPPE   C1A43865   2.832  10.139  15.205  0.4525  0.0975 -0.2620
 1834DPPE   C2A43866   3.028  10.273  14.793  0.1668  0.2208 -0.3670
 1834DPPE   C3A43867   3.127  10.499  14.501  0.2880 -0.1278 -0.3672
 1834DPPE   C4A43868   3.321  10.935  14.509 -0.1397 -0.2764  0.1774
 1834DPPE   C1B43869   2.598   9.705  15.433  0.1978  0.0376  0.4323
 1834DPPE   C2B43870   3.051   9.711  15.345  0.1442  0.1136  0.3404
 1834DPPE   C3B43871   3.437   9.528  15.213 -0.0571  0.0255  0.1285
 1834DPPE   C4B43872   3.883   9.532  15.103  0.0143 -0.3348 -0.0637
 1835DPPE   NH343873  15.896   8.866   1.753  0.0083 -0.1466 -0.0223
 1835DPPE   PO443874  16.296   8.775   1.998  0.0530  0.1420  0.3538
 1835DPPE   GL143875  16.081   8.437   2.069 -0.0807  0.0866  0.1055
 1835DPPE   GL243876  15.785   8.540   2.121  0.1205 -0.0413 -0.3103
 1835DPPE   C1A43877  15.974   8.089   2.432 -0.1022  0.1120  0.1074
 1835DPPE   C2A43878  15.708   8.009   2.792  0.1579 -0.0122  0.2091
 1835DPPE   C3A43879  15.452   7.978   3.137 -0.3033 -0.1489  0.0351
 1835DPPE   C4A43880  15.026   8.043   3.225  0.0089  0.0263 -0.2177
 1835DPPE   C1B43881  15.587   8.106   2.114  0.0702  0.1545 -0.0441
 1835DPPE   C2B43882  15.515   7.791   2.354 -0.1227 -0.1426  0.3714
 1835DPPE   C3B43883  15.447   7.582   2.750  0.2137  0.0665 -0.1955
 1835DPPE   C4B43884  15.255   7.276   3.017  0.0231 -0.0124  0.2570
 1836DPPE   NH343885  24.244   8.598  24.731 -0.0137  0.3786  0.0556
 1836DPPE   PO443886  24.589   8.916  24.810  0.1468 -0.0611 -0.1146
 1836DPPE   GL143887  24.494   8.918  24.406 -0.1025 -0.2078  0.0046
 1836DPPE   GL243888  24.155   9.016  24.407 -0.0795  0.0866  0.0298
 1836DPPE   C1A43889  24.550   8.827  24.055 -0.0459  0.2090 -0.0996
 1836DPPE   C2A43890  24.233   8.508  23.859 -0.4594  0.1172 -0.0051
 1836DPPE   C3A43891  23.677   8.509  23.835 -0.2121 -0.1756  0.1545
 1836DPPE   C4A43892  23.365   8.778  23.851 -0.0950 -0.0722  0.1017
 1836DPPE   C1B43893  24.024   9.139  23.962  0.0211 -0.2344  0.0168
 1836DPPE   C2B43894  23.791   8.984  23.606  0.0014  0.1706 -0.0462
 1836DPPE   C3B43895  23.795   8.932  23.127 -0.5072 -0.2786 -0.0227
 1836DPPE   C4B43896  23.607   8.925  22.691  0.0139 -0.1236 -0.2887
 1837DPPE   NH343897   9.684  34.251   7.717 -0.0321 -0.3581 -0.0705
 1837DPPE   PO443898   9.529  33.958   8.043 -0.1179 -0.2819  0.0955
 1837DPPE   GL143899   9.583  34.289   8.343  0.2936 -0.1203  0.0263
 1837DPPE   GL243900   9.457  34.266   8.586  0.2050  0.1236 -0.1975
 1837DPPE   C1A43901   9.934  34.559   8.561 -0.0146 -0.2469 -0.1358
 1837DPPE   C2A43902  10.060  34.605   8.963 -0.0202 -0.1245 -0.2508
 1837DPPE   C3A43903  10.477  34.804   9.308  0.2796 -0.0944 -0.2225
 1837DPPE   C4A43904  10.642  34.565   9.655 -0.1128 -0.2621  0.0971
 1837DPPE   C1B43905   9.527  34.520   8.893  0.1479 -0.2066 -0.0714
 1837DPPE   C2B43906   9.630  34.862   9.204  0.0255 -0.0714  0.2297
 1837DPPE   C3B43907   9.640  35.292   9.362 -0.0519  0.0143 -0.2696
 1837DPPE   C4B43908   9.601  35.748   9.363  0.0938  0.2031  0.0252
 1838DPPE   NH343909   9.474  14.821  24.488  0.1297 -0.1576  0.0907
 1838DPPE   PO443910   9.750  15.135  24.694  0.0447  0.0133  0.2282
 1838DPPE   GL143911  10.098  14.992  24.558  0.1748 -0.4344 -0.0048
 1838DPPE   GL243912  10.003  14.746  24.392 -0.3587 -0.1874 -0.1147
 1838DPPE   C1A43913  10.541  14.872  24.385 -0.1834 -0.2235  0.5014
 1838DPPE   C2A43914  10.733  14.657  23.993  0.1266  0.2230 -0.1670
 1838DPPE   C3A43915  10.920  14.794  23.644  0.1413 -0.3483  0.1376
 1838DPPE   C4A43916  11.080  14.641  23.202 -0.0005  0.0141  0.3157
 1838DPPE   C1B43917  10.194  14.593  23.986  0.0619 -0.0280  0.0398
 1838DPPE   C2B43918  10.291  14.577  23.513 -0.2287 -0.0560 -0.1973
 1838DPPE   C3B43919  10.589  14.414  23.430 -0.1665  0.0912 -0.0972
 1838DPPE   C4B43920  10.721  14.155  23.050 -0.2544 -0.0446 -0.0019
 1839DPPE   NH343921  17.204   7.627   9.110  0.0301  0.1642  0.1303
 1839DPPE   PO443922  16.907   7.315   9.414 -0.0852 -0.1633 -0.0685
 1839DPPE   GL143923  16.528   7.241   9.279  0.2402  0.0307  0.1435
 1839DPPE   GL243924  16.252   7.177   9.444  0.1498  0.0113 -0.4322
 1839DPPE   C1A43925  16.153   7.034   8.991 -0.2833 -0.3711  0.0273
 1839DPPE   C2A43926  15.759   6.957   8.704 -0.1262 -0.0584  0.0629
 1839DPPE   C3A43927  15.512   7.160   8.573 -0.1183  0.0598  0.1991
 1839DPPE   C4A43928  15.270   6.996   8.384  0.2657  0.0736 -0.0964
 1839DPPE   C1B43929  16.147   6.793   9.397  0.1955  0.0648  0.0208
 1839DPPE   C2B43930  16.001   6.563   9.058 -0.2175  0.0716 -0.0577
 1839DPPE   C3B43931  15.845   6.458   8.736 -0.2169 -0.0349  0.1629
 1839DPPE   C4B43932  15.610   5.965   8.778 -0.3206  0.3035 -0.0306
 1840DPPE   NH343933  22.393   0.212  11.273 -0.1784 -0.1242  0.1961
 1840DPPE   PO443934  22.484  -0.033  11.693 -0.1407  0.0188  0.0516
 1840DPPE   GL143935  22.211   0.404  11.676 -0.0100  0.0339  0.1142
 1840DPPE   GL243936  22.224   0.620  11.879  0.0119 -0.1433 -0.0958
 1840DPPE   C1A43937  22.183   0.824  11.366 -0.0118 -0.2102  0.1112
 1840DPPE   C2A43938  22.080   1.180  11.148  0.1476 -0.3397 -0.1004
 1840DPPE   C3A43939  21.578   1.391  11.081  0.1639 -0.1559  0.1116
 1840DPPE   C4A43940  21.251   1.376  11.405  0.1739  0.0650  0.0148
 1840DPPE   C1B43941  21.949   0.838  12.154  0.0904  0.0171  0.2739
 1840DPPE   C2B43942  21.705   1.023  12.054  0.1811  0.0715 -0.0280
 1840DPPE   C3B43943  21.399   1.354  11.938 -0.1223 -0.0062 -0.2065
 1840DPPE   C4B43944  20.964   1.502  11.898  0.0466  0.2036  0.0781
 1841DPPE   NH343945  19.652   2.528  24.004  0.0241 -0.2048 -0.1759
 1841DPPE   PO443946  20.161   2.664  23.940 -0.0411 -0.0579  0.1987
 1841DPPE   GL143947  19.859   2.981  23.889 -0.1931 -0.3371  0.0930
 1841DPPE   GL243948  19.910   3.257  23.901  0.2063 -0.0982 -0.1068
 1841DPPE   C1A43949  19.531   3.117  23.678  0.4131 -0.0319 -0.0686
 1841DPPE   C2A43950  19.331   3.463  23.521  0.0802 -0.0510  0.0819
 1841DPPE   C3A43951  18.898   3.387  23.431 -0.0027  0.2272 -0.1945
 1841DPPE   C4A43952  18.610   3.484  23.238 -0.0994 -0.3231 -0.0733
 1841DPPE   C1B43953  19.662   3.657  23.843 -0.0463  0.0060 -0.1274
 1841DPPE   C2B43954  19.495   3.930  23.604  0.1794 -0.0803 -0.1008
 1841DPPE   C3B43955  19.415   4.172  23.187 -0.1159  0.1348  0.2606
 1841DPPE   C4B43956  19.373   4.436  22.803  0.1633  0.3742  0.1077
 1842DPPE   NH343957   4.460   7.049  14.460 -0.3486  0.2790 -0.2682
 1842DPPE   PO443958   4.133   7.381  14.492  0.1493 -0.0731  0.0328
 1842DPPE   GL143959   3.938   7.005  14.366 -0.0532 -0.1574 -0.3353
 1842DPPE   GL243960   3.739   7.122  14.200  0.1285  0.2211  0.2609
 1842DPPE   C1A43961   3.541   6.687  14.654  0.1266 -0.0177  0.1497
 1842DPPE   C2A43962   3.293   6.701  14.963  0.0017  0.2509  0.4643
 1842DPPE   C3A43963   3.087   6.715  15.270  0.0528 -0.1066 -0.1026
 1842DPPE   C4A43964   3.107   6.538  15.599  0.2409 -0.0090 -0.1397
 1842DPPE   C1B43965   3.438   6.823  14.195  0.2276  0.1468  0.3235
 1842DPPE   C2B43966   3.095   6.684  13.910  0.0260 -0.2242  0.2220
 1842DPPE   C3B43967   2.978   6.553  13.522 -0.2931 -0.3799  0.2568
 1842DPPE   C4B43968   2.717   6.598  13.165  0.0514  0.2456 -0.0774
 1843DPPE   NH343969  11.593   0.109  10.406 -0.3825 -0.5809 -0.3134
 1843DPPE   PO443970  11.394  -0.075  10.795  0.3591 -0.2951 -0.1849
 1843DPPE   GL143971  11.158  -0.189  10.447 -0.0215 -0.1283  0.0860
 1843DPPE   GL243972  11.314  -0.299  10.174  0.2228  0.0239 -0.0192
 1843DPPE   C1A43973  10.776  -0.379  10.332  0.0014 -0.1073 -0.2934
 1843DPPE   C2A43974  10.592  -0.782  10.251  0.0824  0.1471  0.1160
 1843DPPE   C3A43975  10.427  -1.137  10.124  0.3921  0.1569  0.2384
 1843DPPE   C4A43976  10.037  -1.357  10.244  0.1826  0.0412  0.2203
 1843DPPE   C1B43977  11.043  -0.556   9.942 -0.0308 -0.1603 -0.1858
 1843DPPE   C2B43978  10.796  -0.876   9.752  0.1119 -0.0559  0.3073
 1843DPPE   C3B43979  10.495  -1.180   9.523 -0.0694  0.0638  0.0872
 1843DPPE   C4B43980  10.168  -1.296   9.205 -0.0241  0.2279  0.0902
 1844DPPE   NH343981   7.107   4.942  11.839  0.3155  0.2813 -0.3519
 1844DPPE   PO443982   7.501   5.262  11.833  0.3128 -0.3503 -0.1368
 1844DPPE   GL143983   7.847   5.418  12.113 -0.1870 -0.1429  0.0565
 1844DPPE   GL243984   7.685   5.575  12.442 -0.4334 -0.0304 -0.0959
 1844DPPE   C1A43985   8.236   5.617  12.133  0.3674  0.1803  0.1433
 1844DPPE   C2A43986   8.609   5.732  12.200  0.0561  0.1324  0.2708
 1844DPPE   C3A43987   8.932   5.968  12.528 -0.0530 -0.1515 -0.0655
 1844DPPE   C4A43988   8.883   6.283  12.774 -0.1259  0.1872  0.2174
 1844DPPE   C1B43989   8.040   5.935  12.455  0.2538 -0.0409  0.2079
 1844DPPE   C2B43990   8.413   6.181  12.470  0.0772 -0.0931  0.4133
 1844DPPE   C3B43991   8.709   6.284  12.238 -0.0225  0.2636 -0.1661
 1844DPPE   C4B43992   8.906   6.521  12.000  0.4003 -0.1057  0.0533
 1845DPPE   NH343993   8.633  11.164   8.436 -0.0859 -0.3231 -0.2327
 1845DPPE   PO443994   8.157  11.225   8.737 -0.0661 -0.3209  0.1007
 1845DPPE   GL143995   8.233  11.555   9.042  0.1382  0.1874 -0.2089
 1845DPPE   GL243996   8.223  11.823   8.994 -0.2907  0.3196  0.0742
 1845DPPE   C1A43997   8.396  11.780   9.436  0.0350  0.0784  0.3538
 1845DPPE   C2A43998   8.344  12.128   9.731  0.1271 -0.1292 -0.0946
 1845DPPE   C3A43999   8.714  12.381   9.934  0.0545 -0.0399  0.2470
 1845DPPE   C4A44000   8.970  12.618  10.102  0.1031 -0.1513  0.1525
 1845DPPE   C1B44001   8.279  12.234   8.714 -0.0360 -0.0588  0.2911
 1845DPPE   C2B44002   8.430  12.693   8.711  0.0296  0.1356 -0.1442
 1845DPPE   C3B44003   8.680  12.973   8.668 -0.0421  0.0038  0.0933
 1845DPPE   C4B44004   8.814  13.333   8.485  0.2456 -0.3736  0.1827
 1846DPPE   NH344005   7.340   1.685  14.644  0.1299 -0.1931  0.1689
 1846DPPE   PO444006   7.090   2.008  14.876 -0.0321 -0.3292  0.0927
 1846DPPE   GL144007   6.847   1.597  14.736  0.1363  0.2670 -0.0091
 1846DPPE   GL244008   6.499   1.642  14.600  0.1173  0.0467 -0.1977
 1846DPPE   C1A44009   6.643   1.191  14.810  0.1869  0.3262 -0.0776
 1846DPPE   C2A44010   6.381   0.892  14.754  0.1087  0.3376 -0.1147
 1846DPPE   C3A44011   6.272   0.556  14.820  0.2086  0.0465  0.1319
 1846DPPE   C4A44012   6.279   0.095  14.743 -0.0842  0.0042  0.2299
 1846DPPE   C1B44013   6.310   1.259  14.446  0.2108 -0.1228  0.0647
 1846DPPE   C2B44014   6.146   1.027  14.106 -0.0191 -0.2617 -0.5375
 1846DPPE   C3B44015   5.910   0.691  14.216  0.2900 -0.0036  0.2319
 1846DPPE   C4B44016   5.845   0.370  14.594  0.3563 -0.0708  0.2757
 1847DPPE   NH344017  12.187  11.166   5.952 -0.2082  0.0441 -0.1016
 1847DPPE   PO444018  12.348  11.061   5.536  0.1461  0.3567 -0.0150
 1847DPPE   GL144019  12.821  11.270   5.330 -0.0290  0.0327 -0.1943
 1847DPPE   GL244020  12.854  11.515   5.446  0.1355 -0.0449 -0.2122
 1847DPPE   C1A44021  13.252  11.402   5.170 -0.1850  0.3890 -0.3813
 1847DPPE   C2A44022  13.584  11.496   5.286 -0.1922  0.0565  0.2782
 1847DPPE   C3A44023  14.001  11.636   5.336  0.0594 -0.0177 -0.0033
 1847DPPE   C4A44024  14.176  11.959   5.553 -0.0156 -0.3520 -0.0582
 1847DPPE   C1B44025  13.169  11.887   5.379 -0.3253 -0.1223 -0.0030
 1847DPPE   C2B44026  13.556  12.193   5.434  0.1125  0.1436  0.0787
 1847DPPE   C3B44027  13.751  12.524   5.330  0.0777  0.2765  0.4946
 1847DPPE   C4B44028  13.777  12.865   4.988  0.2907 -0.3749 -0.4669
 1848DPPE   NH344029  14.215  36.149  11.941  0.2384 -0.0801  0.0772
 1848DPPE   PO444030  13.927  36.367  11.682  0.0891 -0.3307  0.0018
 1848DPPE   GL144031  14.279  36.708  11.883 -0.3222  0.1895 -0.2630
 1848DPPE   GL244032  14.545  36.588  12.116 -0.3801  0.3135  0.0620
 1848DPPE   C1A44033  14.313  37.061  12.087 -0.3364 -0.1373 -0.0127
 1848DPPE   C2A44034  14.383  37.449  12.096  0.3388  0.0417 -0.1304
 1848DPPE   C3A44035  14.731  37.676  12.064  0.1330  0.0101 -0.1401
 1848DPPE   C4A44036  15.065  37.811  12.417  0.1281  0.2165 -0.2794
 1848DPPE   C1B44037  14.912  36.855  12.171 -0.0958 -0.2847  0.2889
 1848DPPE   C2B44038  15.295  36.888  12.289  0.2180  0.4484 -0.1628
 1848DPPE   C3B44039  15.562  36.749  12.565  0.0556  0.2825  0.1617
 1848DPPE   C4B44040  15.955  36.620  12.843 -0.1455  0.0170  0.0789
 1849DPPE   NH344041  12.281   5.465   5.828  0.2080 -0.1897 -0.2972
 1849DPPE   PO444042  11.912   5.452   6.033 -0.0586 -0.2184  0.0866
 1849DPPE   GL144043  11.675   5.102   5.872  0.1703 -0.0998  0.0205
 1849DPPE   GL244044  11.795   4.643   5.826 -0.0226  0.2880  0.1696
 1849DPPE   C1A44045  11.463   4.940   5.492  0.0342  0.1132  0.0525
 1849DPPE   C2A44046  11.389   4.803   5.127 -0.1615 -0.2201 -0.1405
 1849DPPE   C3A44047  11.032   4.627   4.758 -0.1191 -0.3472  0.3892
 1849DPPE   C4A44048  10.798   4.194   4.726 -0.0218  0.1397 -0.0187
 1849DPPE   C1B44049  11.644   4.439   5.436 -0.2496 -0.1285  0.2431
 1849DPPE   C2B44050  11.399   4.318   5.049 -0.2045 -0.0362 -0.0661
 1849DPPE   C3B44051  11.367   4.012   4.691 -0.0870 -0.1082  0.1713
 1849DPPE   C4B44052  11.027   3.851   4.267  0.0980 -0.4229  0.3661
 1850DPPE   NH344053   6.738   6.763  10.175  0.0567  0.0158 -0.2053
 1850DPPE   PO444054   6.766   7.191   9.854  0.2733  0.2647  0.0671
 1850DPPE   GL144055   6.609   7.022   9.585 -0.1332 -0.1626 -0.0764
 1850DPPE   GL244056   6.604   6.694   9.515  0.0765  0.3053  0.2077
 1850DPPE   C1A44057   6.263   7.009   9.227  0.3137 -0.1609 -0.0470
 1850DPPE   C2A44058   6.002   7.338   9.127  0.2478  0.0088 -0.3833
 1850DPPE   C3A44059   5.663   7.444   8.844 -0.1206  0.2283 -0.0311
 1850DPPE   C4A44060   5.406   7.478   8.455 -0.4244  0.0818 -0.2910
 1850DPPE   C1B44061   6.194   6.420   9.556 -0.2152 -0.1238  0.0476
 1850DPPE   C2B44062   5.875   6.259   9.245 -0.0060  0.3719 -0.0311
 1850DPPE   C3B44063   5.897   6.215   8.860 -0.0450 -0.2683 -0.0688
 1850DPPE   C4B44064   5.847   5.883   8.581  0.2611 -0.0679  0.0301
 1851DPPE   NH344065  16.806   1.246   9.005  0.1466 -0.2163 -0.2195
 1851DPPE   PO444066  17.215   1.211   8.818  0.0077 -0.2827  0.1032
 1851DPPE   GL144067  17.518   1.156   9.051  0.1058 -0.0496  0.2956
 1851DPPE   GL244068  17.640   0.969   8.825  0.0934  0.0138 -0.1044
 1851DPPE   C1A44069  17.986   1.144   9.256 -0.1844  0.2789 -0.0949
 1851DPPE   C2A44070  18.238   0.992   9.748 -0.0396 -0.2145  0.4008
 1851DPPE   C3A44071  18.428   1.101  10.111  0.0830 -0.1362  0.1477
 1851DPPE   C4A44072  18.821   1.058  10.317  0.3352 -0.0042  0.1116
 1851DPPE   C1B44073  17.778   0.684   9.029 -0.1823  0.1237 -0.1035
 1851DPPE   C2B44074  18.152   0.666   9.269  0.0884  0.0738 -0.2535
 1851DPPE   C3B44075  18.461   0.655   9.481  0.1970  0.0230 -0.2118
 1851DPPE   C4B44076  18.726   0.839   9.704  0.1739  0.1613 -0.0117
 1852DPPE   NH344077  12.986  34.787  13.262 -0.0591 -0.2673  0.0404
 1852DPPE   PO444078  13.139  34.803  13.665 -0.0434 -0.3016 -0.3027
 1852DPPE   GL144079  13.325  34.536  13.804  0.1322 -0.2291  0.3217
 1852DPPE   GL244080  13.436  34.621  14.097  0.0788 -0.0213 -0.2058
 1852DPPE   C1A44081  13.289  34.059  13.831 -0.1145 -0.0804 -0.1231
 1852DPPE   C2A44082  13.378  33.631  14.068 -0.0223 -0.0121 -0.0095
 1852DPPE   C3A44083  13.380  33.604  14.601  0.0994 -0.2821 -0.0205
 1852DPPE   C4A44084  13.590  33.603  14.941  0.7669 -0.0193 -0.1446
 1852DPPE   C1B44085  13.304  34.396  14.389 -0.4663  0.1756 -0.1724
 1852DPPE   C2B44086  13.145  34.036  14.316  0.1662 -0.1340  0.1165
 1852DPPE   C3B44087  12.819  33.820  14.400  0.0935 -0.0837 -0.1266
 1852DPPE   C4B44088  12.528  33.817  14.201  0.2093 -0.0998  0.0341
 1853DPPE   NH344089   6.468   2.963  16.686 -0.0493 -0.1192 -0.1084
 1853DPPE   PO444090   6.660   3.191  17.057 -0.0134  0.5223  0.1555
 1853DPPE   GL144091   6.430   3.110  17.597 -0.1140 -0.3459  0.2847
 1853DPPE   GL244092   6.234   3.307  17.722  0.2098  0.2765 -0.2296
 1853DPPE   C1A44093   6.114   2.715  17.725  0.1057  0.2128 -0.1737
 1853DPPE   C2A44094   6.021   2.320  18.078  0.3022 -0.3531  0.2461
 1853DPPE   C3A44095   5.668   2.238  18.364  0.0886  0.0721 -0.0459
 1853DPPE   C4A44096   5.228   2.216  18.623 -0.2807 -0.1070  0.0509
 1853DPPE   C1B44097   5.819   3.175  17.909  0.2694 -0.0277 -0.0993
 1853DPPE   C2B44098   5.456   3.061  17.974 -0.0324 -0.1388 -0.4273
 1853DPPE   C3B44099   5.175   3.333  18.272 -0.0995 -0.0513 -0.2280
 1853DPPE   C4B44100   4.793   3.517  18.592 -0.2635  0.2686  0.0238
 1854DPPE   NH344101  15.962   7.588   4.764 -0.2146  0.2022 -0.1937
 1854DPPE   PO444102  15.615   7.622   4.862 -0.3210  0.1166 -0.2436
 1854DPPE   GL144103  15.612   7.684   4.399  0.3263  0.1041  0.1442
 1854DPPE   GL244104  15.908   7.498   4.247 -0.1215  0.0926 -0.0476
 1854DPPE   C1A44105  15.693   7.952   4.095 -0.1094  0.3691  0.3357
 1854DPPE   C2A44106  16.088   8.243   4.071  0.1813 -0.0389 -0.0981
 1854DPPE   C3A44107  16.595   8.260   4.260 -0.1377 -0.0218  0.1842
 1854DPPE   C4A44108  16.778   8.144   4.641 -0.3169 -0.0311 -0.0016
 1854DPPE   C1B44109  15.975   7.367   3.872 -0.1704 -0.1745 -0.2854
 1854DPPE   C2B44110  16.368   7.219   3.814 -0.0371 -0.0937 -0.1136
 1854DPPE   C3B44111  16.667   6.860   3.764 -0.3516 -0.3207  0.0434
 1854DPPE   C4B44112  16.754   6.450   3.472 -0.0134 -0.0683  0.0797
 1855DPPE   NH344113  13.233  36.265   9.768  0.0169  0.3303 -0.1103
 1855DPPE   PO444114  12.951  36.208  10.123 -0.1300 -0.0808 -0.1130
 1855DPPE   GL144115  12.783  35.855   9.973  0.3278 -0.0758 -0.3168
 1855DPPE   GL244116  12.735  35.589  10.323  0.0052 -0.0928  0.1792
 1855DPPE   C1A44117  12.644  35.651   9.591 -0.1046  0.0873  0.0585
 1855DPPE   C2A44118  12.403  35.423   9.399 -0.0451  0.1829 -0.0144
 1855DPPE   C3A44119  12.295  35.278   8.937 -0.1616 -0.1340  0.0906
 1855DPPE   C4A44120  12.004  35.077   8.569 -0.0357  0.0418  0.1665
 1855DPPE   C1B44121  12.844  35.335   9.889 -0.3539 -0.1366  0.3430
 1855DPPE   C2B44122  12.730  35.110   9.577 -0.1596 -0.0902 -0.1467
 1855DPPE   C3B44123  12.392  34.882   9.430  0.1804 -0.1086  0.2698
 1855DPPE   C4B44124  12.288  34.487   9.583 -0.1282 -0.2821  0.0490
 1856DPPE   NH344125  16.161   0.532   7.822  0.0760 -0.2791 -0.0590
 1856DPPE   PO444126  16.260   0.829   7.571  0.1097  0.0906 -0.1249
 1856DPPE   GL144127  16.433   0.840   7.151  0.0701 -0.2051 -0.0615
 1856DPPE   GL244128  16.148   0.929   6.920  0.3288 -0.1453  0.3089
 1856DPPE   C1A44129  16.661   0.559   6.942 -0.4417 -0.0657  0.1984
 1856DPPE   C2A44130  16.744   0.551   6.577 -0.0197  0.3448  0.2926
 1856DPPE   C3A44131  16.763   0.453   6.163  0.1505  0.0659  0.3694
 1856DPPE   C4A44132  16.777   0.153   5.784  0.0517 -0.0869  0.0941
 1856DPPE   C1B44133  16.313   1.063   6.622 -0.1716  0.2072 -0.2162
 1856DPPE   C2B44134  16.360   0.893   6.360 -0.3291 -0.0078  0.1695
 1856DPPE   C3B44135  16.315   0.650   5.989  0.2246 -0.1051  0.0960
 1856DPPE   C4B44136  16.376   0.581   5.521  0.0122  0.0729  0.0876
 1857DPPE   NH344137  14.586   1.891   7.156  0.1593  0.1737  0.1621
 1857DPPE   PO444138  14.231   2.109   7.364 -0.0795 -0.1547 -0.3885
 1857DPPE   GL144139  14.072   1.883   7.024  0.0441 -0.0650 -0.2256
 1857DPPE   GL244140  13.855   1.707   7.139  0.0931 -0.0854  0.0706
 1857DPPE   C1A44141  13.704   1.833   6.693 -0.0350  0.0984 -0.0448
 1857DPPE   C2A44142  13.456   1.688   6.371 -0.5251  0.0593  0.2305
 1857DPPE   C3A44143  13.234   1.533   6.005  0.2110  0.3317 -0.0185
 1857DPPE   C4A44144  13.006   1.304   5.719 -0.0020 -0.1272  0.1244
 1857DPPE   C1B44145  13.677   1.331   7.205 -0.2304  0.0134 -0.1862
 1857DPPE   C2B44146  13.606   1.001   6.930 -0.3096  0.1908 -0.1773
 1857DPPE   C3B44147  13.658   0.639   6.643 -0.1171 -0.2005  0.0261
 1857DPPE   C4B44148  13.707   0.284   6.456  0.0941 -0.0809  0.1800
 1858DPPE   NH344149  11.693   9.993   6.062 -0.1917 -0.2223 -0.0883
 1858DPPE   PO444150  11.722  10.409   6.319  0.5472 -0.1338  0.0936
 1858DPPE   GL144151  11.684  10.695   6.696 -0.1691 -0.1359 -0.1325
 1858DPPE   GL244152  11.467  10.550   6.830  0.0162 -0.0724  0.1484
 1858DPPE   C1A44153  12.073  10.703   6.838 -0.3022 -0.0247 -0.2596
 1858DPPE   C2A44154  12.300  11.103   7.100  0.0993  0.2646  0.3611
 1858DPPE   C3A44155  12.118  11.507   7.290  0.2722 -0.0564 -0.0967
 1858DPPE   C4A44156  11.778  11.742   7.496 -0.3863 -0.1556 -0.2848
 1858DPPE   C1B44157  11.736  10.613   7.190 -0.0687  0.2037  0.0581
 1858DPPE   C2B44158  12.081  10.763   7.431 -0.0195 -0.0050  0.0856
 1858DPPE   C3B44159  12.331  10.755   7.853 -0.0255  0.1631 -0.1236
 1858DPPE   C4B44160  12.527  10.871   8.318  0.0940  0.0113 -0.1954
 1859DPPE   NH344161  10.374   9.729   6.262  0.1852 -0.1122 -0.1382
 1859DPPE   PO444162  10.554   9.771   5.848 -0.0520  0.1194  0.1945
 1859DPPE   GL144163  10.421   9.617   5.434 -0.0631  0.2561 -0.1244
 1859DPPE   GL244164  10.528   9.633   5.130 -0.0715  0.1777 -0.0718
 1859DPPE   C1A44165  10.020   9.596   5.196  0.1121 -0.0791  0.1098
 1859DPPE   C2A44166  10.071   9.763   4.801 -0.0707 -0.1457 -0.1496
 1859DPPE   C3A44167  10.120   9.822   4.362  0.0304 -0.3578  0.2737
 1859DPPE   C4A44168  10.290   9.881   4.036  0.0433  0.0338 -0.0137
 1859DPPE   C1B44169  10.504   9.936   4.721 -0.0407 -0.0716  0.0388
 1859DPPE   C2B44170  10.556  10.097   4.415  0.1046  0.0672  0.2083
 1859DPPE   C3B44171  10.557  10.298   3.978 -0.1614  0.1459 -0.2995
 1859DPPE   C4B44172  10.402  10.697   3.742  0.0823 -0.2906  0.2496
 1860DPPE   NH344173  14.807   7.171   4.401 -0.0066 -0.1094  0.0351
 1860DPPE   PO444174  14.496   7.430   4.496  0.1817  0.1813  0.1809
 1860DPPE   GL144175  14.457   7.359   4.038 -0.1882 -0.1941  0.0180
 1860DPPE   GL244176  14.085   7.251   3.858  0.0287  0.1575 -0.4158
 1860DPPE   C1A44177  14.481   7.448   3.588  0.2424 -0.2584 -0.2290
 1860DPPE   C2A44178  14.596   7.479   3.195  0.0353  0.1285 -0.3796
 1860DPPE   C3A44179  14.803   7.652   2.829 -0.0901  0.1852 -0.0358
 1860DPPE   C4A44180  15.151   7.991   2.709  0.1605  0.0956  0.1911
 1860DPPE   C1B44181  13.669   7.140   3.899 -0.1359 -0.1653 -0.2242
 1860DPPE   C2B44182  13.358   6.931   3.888  0.0483 -0.1145 -0.0544
 1860DPPE   C3B44183  12.998   6.761   3.659  0.0558 -0.3433  0.1741
 1860DPPE   C4B44184  12.573   6.710   3.496 -0.0565  0.2666  0.0393
 1861DPPE   NH344185   9.574   5.410   8.709  0.1169 -0.0667  0.0991
 1861DPPE   PO444186   9.637   5.376   9.128 -0.0139 -0.0237 -0.1167
 1861DPPE   GL144187   9.886   5.407   9.657 -0.0798 -0.5240 -0.1761
 1861DPPE   GL244188   9.625   5.315   9.888  0.1295  0.0239  0.0818
 1861DPPE   C1A44189  10.091   5.767   9.879 -0.2222 -0.3329 -0.2938
 1861DPPE   C2A44190  10.378   5.952   9.909  0.1430 -0.1020  0.0304
 1861DPPE   C3A44191  10.712   6.265  10.114  0.0643  0.0700 -0.0293
 1861DPPE   C4A44192  10.839   6.555  10.477  0.1619  0.3335  0.2910
 1861DPPE   C1B44193   9.720   5.232  10.350  0.0344 -0.0554  0.2101
 1861DPPE   C2B44194  10.000   5.414  10.548 -0.1339  0.1911 -0.1142
 1861DPPE   C3B44195  10.245   5.603  10.742  0.0975 -0.1884 -0.1219
 1861DPPE   C4B44196  10.477   5.903  11.066  0.0363 -0.1763  0.1840
 1862DPPE   NH344197  22.901   5.424  15.420 -0.2404  0.1503  0.0732
 1862DPPE   PO444198  22.805   4.980  15.291  0.4864 -0.1962  0.2092
 1862DPPE   GL144199  23.087   4.788  15.166  0.0921 -0.2509  0.2284
 1862DPPE   GL244200  23.324   4.753  15.348  0.3398  0.1690  0.0371
 1862DPPE   C1A44201  23.400   4.368  15.071 -0.0559 -0.0592  0.3893
 1862DPPE   C2A44202  23.749   4.285  14.891  0.1530 -0.0786 -0.1704
 1862DPPE   C3A44203  24.091   4.209  14.837 -0.1797 -0.2321  0.2252
 1862DPPE   C4A44204  24.490   4.310  14.717 -0.1201  0.1242 -0.1276
 1862DPPE   C1B44205  23.632   4.460  15.527  0.1742  0.0625  0.0726
 1862DPPE   C2B44206  23.774   4.206  15.799 -0.1126 -0.1987 -0.3192
 1862DPPE   C3B44207  23.773   4.037  16.165 -0.0975 -0.0400 -0.3324
 1862DPPE   C4B44208  23.503   3.827  16.437  0.0306 -0.1403  0.2118
 1863DPPE   NH344209  18.929  14.537   9.584  0.0716  0.0500  0.0431
 1863DPPE   PO444210  18.888  14.857   9.850  0.0724  0.1591  0.0684
 1863DPPE   GL144211  19.055  14.920   9.253 -0.3265 -0.3144  0.0669
 1863DPPE   GL244212  18.803  15.170   9.105  0.0289  0.2863  0.2110
 1863DPPE   C1A44213  19.167  15.043   8.814  0.0726  0.0678  0.2870
 1863DPPE   C2A44214  19.301  15.225   8.401  0.0373 -0.3742 -0.3411
 1863DPPE   C3A44215  19.456  15.111   7.988  0.0562  0.0278  0.1571
 1863DPPE   C4A44216  19.333  14.937   7.718 -0.0341  0.0400 -0.0245
 1863DPPE   C1B44217  19.085  15.434   9.082 -0.1028  0.6952  0.0401
 1863DPPE   C2B44218  19.375  15.742   8.852 -0.0026 -0.2002  0.3439
 1863DPPE   C3B44219  19.722  15.943   8.873 -0.0781  0.0459 -0.2945
 1863DPPE   C4B44220  20.074  16.029   8.748 -0.3590  0.0552 -0.1555
 1864DPPE   NH344221  13.688   1.465  24.105 -0.3335 -0.1155 -0.1235
 1864DPPE   PO444222  13.449   1.336  23.756  0.0991 -0.2659 -0.0920
 1864DPPE   GL144223  13.454   1.446  23.340  0.2704 -0.1057  0.0410
 1864DPPE   GL244224  13.747   1.399  23.113  0.1784 -0.0457  0.4519
 1864DPPE   C1A44225  13.269   1.666  23.092  0.1752 -0.0428  0.0468
 1864DPPE   C2A44226  13.073   1.947  22.761  0.1786 -0.3786  0.0060
 1864DPPE   C3A44227  12.796   2.271  22.504  0.2364 -0.2067  0.1934
 1864DPPE   C4A44228  12.487   2.203  22.267  0.0259 -0.0507  0.3332
 1864DPPE   C1B44229  13.815   1.663  22.752  0.3754 -0.1372  0.1030
 1864DPPE   C2B44230  14.154   1.973  22.689  0.0794  0.3731 -0.0249
 1864DPPE   C3B44231  14.222   2.216  22.312 -0.1275 -0.2648  0.0327
 1864DPPE   C4B44232  13.900   2.469  22.074 -0.0262 -0.0846 -0.1270
 1865DPPE   NH344233   5.063   9.997  20.494  0.0796  0.0592 -0.1623
 1865DPPE   PO444234   5.185  10.350  20.440  0.2081  0.2495  0.0121
 1865DPPE   GL144235   5.578  10.070  20.517  0.3399  0.2868 -0.0030
 1865DPPE   GL244236   5.693  10.328  20.392 -0.0920  0.0862  0.1981
 1865DPPE   C1A44237   6.012  10.107  20.655 -0.0953 -0.2785 -0.2480
 1865DPPE   C2A44238   6.319   9.961  20.475  0.0123 -0.0366 -0.1424
 1865DPPE   C3A44239   6.566   9.764  20.254 -0.2549 -0.1223 -0.2510
 1865DPPE   C4A44240   6.913   9.814  20.046  0.0506  0.1698 -0.1668
 1865DPPE   C1B44241   5.961  10.472  20.230 -0.0545 -0.3113 -0.1590
 1865DPPE   C2B44242   6.333  10.396  20.113 -0.0399  0.0603 -0.0966
 1865DPPE   C3B44243   6.594  10.801  19.918  0.0248 -0.1390  0.0339
 1865DPPE   C4B44244   6.954  11.020  19.700 -0.5536 -0.1940 -0.0705
 1866DPPE   NH344245  14.584  16.675  26.197 -0.0363 -0.2113 -0.1852
 1866DPPE   PO444246  14.591  17.185  25.958  0.0546  0.1558  0.2047
 1866DPPE   GL144247  14.756  16.876  25.736 -0.3074  0.1865  0.1797
 1866DPPE   GL244248  14.392  16.924  25.578  0.1584  0.2890  0.2155
 1866DPPE   C1A44249  15.123  16.642  25.501 -0.2595  0.2406  0.1804
 1866DPPE   C2A44250  15.215  16.385  25.276 -0.0349  0.1332  0.0783
 1866DPPE   C3A44251  15.432  16.198  24.904  0.2504 -0.1788 -0.0152
 1866DPPE   C4A44252  15.535  15.918  24.577 -0.3231  0.0870 -0.0234
 1866DPPE   C1B44253  14.661  16.602  25.195  0.0890 -0.0107 -0.3424
 1866DPPE   C2B44254  14.838  16.227  24.932  0.1226  0.3062 -0.0477
 1866DPPE   C3B44255  15.049  16.025  24.579  0.1008  0.1636 -0.0734
 1866DPPE   C4B44256  15.043  15.724  24.308 -0.0426  0.2746 -0.2376
 1867DPPE   NH344257  18.555   1.245  15.828  0.0645 -0.0008  0.0647
 1867DPPE   PO444258  18.406   1.043  15.467 -0.1420  0.1069  0.0061
 1867DPPE   GL144259  18.248   0.650  15.312 -0.1409  0.1790  0.0463
 1867DPPE   GL244260  18.449   0.384  15.439 -0.3516 -0.2266 -0.1508
 1867DPPE   C1A44261  18.043   0.209  15.251 -0.2085 -0.2682  0.0269
 1867DPPE   C2A44262  18.017  -0.235  15.292 -0.1321 -0.2855 -0.1848
 1867DPPE   C3A44263  18.328  -0.442  15.528  0.0373 -0.0201 -0.1562
 1867DPPE   C4A44264  18.775  -0.436  15.682  0.0021 -0.1205 -0.0637
 1867DPPE   C1B44265  18.527   0.004  15.435  0.2350  0.0673  0.2696
 1867DPPE   C2B44266  18.472  -0.273  15.118  0.0993 -0.2397  0.1887
 1867DPPE   C3B44267  18.436  -0.116  14.612 -0.5520 -0.6378 -0.0847
 1867DPPE   C4B44268  18.427  -0.019  14.108 -0.0082  0.2094 -0.1949
 1868DPPE   NH344269  10.060  12.759  11.136 -0.3021  0.0201  0.0561
 1868DPPE   PO444270  10.335  12.491  10.994  0.0980 -0.1106 -0.3544
 1868DPPE   GL144271   9.994  12.328  10.720  0.0358 -0.1206  0.2885
 1868DPPE   GL244272  10.009  12.218  10.299 -0.1318  0.5355  0.1312
 1868DPPE   C1A44273   9.607  12.329  10.708  0.1181  0.0737  0.0849
 1868DPPE   C2A44274   9.381  12.021  10.797  0.1367 -0.0789 -0.1309
 1868DPPE   C3A44275   9.158  11.726  11.042  0.0074 -0.0826  0.5712
 1868DPPE   C4A44276   8.709  11.849  11.030  0.0497  0.2189 -0.1034
 1868DPPE   C1B44277   9.695  12.402  10.192  0.0851 -0.2966 -0.1613
 1868DPPE   C2B44278   9.402  12.735  10.245  0.1362  0.2215  0.2766
 1868DPPE   C3B44279   9.201  13.033   9.851  0.0518  0.0598 -0.3457
 1868DPPE   C4B44280   8.961  13.193   9.572  0.4303 -0.0549  0.0302
 1869DPPE   NH344281   9.412   5.637  18.148 -0.1037  0.3338  0.2614
 1869DPPE   PO444282   9.820   5.400  18.126  0.0558 -0.3682  0.0681
 1869DPPE   GL144283   9.483   5.145  18.038  0.1612 -0.0147 -0.0011
 1869DPPE   GL244284   9.117   5.157  18.136 -0.2072  0.2878  0.2389
 1869DPPE   C1A44285   9.252   4.960  17.725  0.1467  0.4627  0.2004
 1869DPPE   C2A44286   9.070   4.592  17.656  0.3237  0.1156 -0.1562
 1869DPPE   C3A44287   8.866   4.532  17.271  0.1757 -0.1104  0.2562
 1869DPPE   C4A44288   8.705   4.387  16.890 -0.3524 -0.0187  0.0919
 1869DPPE   C1B44289   8.997   4.782  18.129  0.1525 -0.3348  0.0416
 1869DPPE   C2B44290   8.773   4.565  18.113  0.1759  0.1360 -0.0254
 1869DPPE   C3B44291   8.391   4.262  18.150 -0.2663  0.0981 -0.2381
 1869DPPE   C4B44292   8.193   3.988  18.180  0.1689  0.2176 -0.0965
 1870DPPE   NH344293  16.852  12.748   8.137  0.2069 -0.1009 -0.2485
 1870DPPE   PO444294  17.177  12.487   7.954 -0.0697  0.1406 -0.1166
 1870DPPE   GL144295  17.535  12.448   7.790 -0.0999 -0.3849  0.0618
 1870DPPE   GL244296  17.783  12.645   7.857 -0.0420  0.0836  0.0035
 1870DPPE   C1A44297  17.515  12.585   7.410 -0.1275 -0.0677 -0.1285
 1870DPPE   C2A44298  17.516  12.697   7.051  0.0811 -0.0145  0.0315
 1870DPPE   C3A44299  17.767  12.843   6.818  0.0202 -0.2384  0.0030
 1870DPPE   C4A44300  18.081  13.004   6.904 -0.1560  0.1912  0.1579
 1870DPPE   C1B44301  17.915  12.818   7.449  0.2013  0.0355 -0.0650
 1870DPPE   C2B44302  18.190  12.515   7.133  0.2115 -0.0441  0.0642
 1870DPPE   C3B44303  18.323  12.093   7.016 -0.1889  0.0178 -0.0108
 1870DPPE   C4B44304  18.592  11.995   6.681 -0.1466  0.2573 -0.3033
 1871DPPE   NH344305   4.503  13.803  12.393 -0.1088  0.1801 -0.0613
 1871DPPE   PO444306   4.782  13.726  12.063  0.1120 -0.1550 -0.2151
 1871DPPE   GL144307   5.041  13.525  11.941  0.1633  0.0685 -0.1430
 1871DPPE   GL244308   5.205  13.594  11.632  0.0162 -0.1439 -0.2046
 1871DPPE   C1A44309   5.475  13.295  12.141  0.1067 -0.1974 -0.1245
 1871DPPE   C2A44310   5.756  13.470  12.445 -0.0827  0.0751  0.2115
 1871DPPE   C3A44311   6.201  13.245  12.335  0.1946 -0.0994 -0.1905
 1871DPPE   C4A44312   6.267  12.874  12.150 -0.2156  0.0678 -0.2046
 1871DPPE   C1B44313   5.609  13.631  11.595 -0.0019  0.0101  0.0983
 1871DPPE   C2B44314   5.971  13.438  11.549 -0.3176  0.0239 -0.0656
 1871DPPE   C3B44315   6.239  13.038  11.624 -0.2693  0.0714  0.1161
 1871DPPE   C4B44316   6.615  12.930  11.579  0.0822  0.2003 -0.1887
 1872DPPE   NH344317   4.066   8.388   5.926  0.0067  0.0380 -0.0591
 1872DPPE   PO444318   4.439   8.563   5.685 -0.0939  0.1333  0.1085
 1872DPPE   GL144319   4.821   8.493   5.893  0.3441  0.1441 -0.0444
 1872DPPE   GL244320   5.065   8.238   5.751  0.1574  0.2823 -0.1727
 1872DPPE   C1A44321   4.841   8.211   6.165 -0.1580  0.3895  0.0168
 1872DPPE   C2A44322   5.102   8.156   6.501 -0.2564  0.4130 -0.0238
 1872DPPE   C3A44323   5.403   8.021   6.792 -0.1012  0.0645  0.0320
 1872DPPE   C4A44324   5.795   7.885   6.885  0.1256 -0.3521 -0.1684
 1872DPPE   C1B44325   5.372   8.253   6.090  0.2553 -0.1591  0.1286
 1872DPPE   C2B44326   5.686   8.266   6.069  0.1296 -0.1140  0.0290
 1872DPPE   C3B44327   5.959   8.167   5.711  0.0533 -0.5784  0.2035
 1872DPPE   C4B44328   6.300   8.311   5.323  0.2576 -0.0507  0.1147
 1873DPPE   NH344329  17.388  10.858  23.345  0.1427  0.2052  0.0355
 1873DPPE   PO444330  17.603  11.220  23.669 -0.1421  0.1314 -0.1595
 1873DPPE   GL144331  17.560  11.167  24.087  0.2562 -0.0832  0.2386
 1873DPPE   GL244332  17.252  10.946  24.255 -0.1685  0.0274 -0.1532
 1873DPPE   C1A44333  17.384  11.437  24.446  0.0991 -0.3675 -0.1462
 1873DPPE   C2A44334  17.199  11.464  24.891  0.1022  0.4639 -0.2124
 1873DPPE   C3A44335  17.309  11.155  25.375 -0.1824  0.2749 -0.1481
 1873DPPE   C4A44336  17.201  11.074  25.805  0.1407 -0.0303  0.0971
 1873DPPE   C1B44337  17.154  11.026  24.695  0.1845  0.6406 -0.0285
 1873DPPE   C2B44338  16.868  11.064  25.098  0.0896 -0.0076 -0.0377
 1873DPPE   C3B44339  16.591  10.789  25.331  0.1322  0.2529 -0.2574
 1873DPPE   C4B44340  16.382  10.867  25.621 -0.0884  0.0716 -0.3318
 1874DPPE   NH344341  15.561   9.402   9.463  0.0949 -0.0605 -0.1578
 1874DPPE   PO444342  15.099   9.383   9.411 -0.1823 -0.2565 -0.0933
 1874DPPE   GL144343  15.120   9.086   9.190 -0.1166 -0.2909  0.0077
 1874DPPE   GL244344  14.806   8.847   9.410  0.0736 -0.0909 -0.1679
 1874DPPE   C1A44345  15.088   8.995   8.727  0.0704  0.1857  0.0107
 1874DPPE   C2A44346  15.162   8.927   8.248  0.2563  0.0103 -0.4002
 1874DPPE   C3A44347  15.245   8.762   7.795  0.0041 -0.2217 -0.1409
 1874DPPE   C4A44348  15.571   8.807   7.436  0.1006 -0.0564  0.1701
 1874DPPE   C1B44349  14.871   8.643   9.045 -0.0041 -0.1044 -0.1354
 1874DPPE   C2B44350  15.022   8.485   8.653 -0.1883 -0.2074  0.1688
 1874DPPE   C3B44351  15.255   8.361   8.275  0.3170  0.4289 -0.2065
 1874DPPE   C4B44352  15.599   8.494   8.233 -0.2515  0.0644  0.0014
 1875DPPE   NH344353  20.896   4.436   4.605 -0.1754 -0.1926  0.0861
 1875DPPE   PO444354  20.584   4.347   4.247 -0.3279 -0.0140 -0.1632
 1875DPPE   GL144355  20.126   4.333   4.482 -0.0941  0.0931  0.2774
 1875DPPE   GL244356  19.966   4.180   4.313 -0.0765  0.1140  0.0035
 1875DPPE   C1A44357  19.907   4.467   4.748  0.0038 -0.1108 -0.3806
 1875DPPE   C2A44358  19.887   4.921   4.879 -0.0932  0.0896 -0.0109
 1875DPPE   C3A44359  19.980   5.104   5.337  0.0543 -0.0260  0.0478
 1875DPPE   C4A44360  19.937   5.322   5.644 -0.1154 -0.0247  0.2496
 1875DPPE   C1B44361  19.605   4.240   4.425  0.1430  0.1348  0.0555
 1875DPPE   C2B44362  19.368   4.142   4.756 -0.1927 -0.1322  0.0624
 1875DPPE   C3B44363  19.200   3.782   5.015  0.0233  0.3691  0.0009
 1875DPPE   C4B44364  19.215   3.481   5.376  0.2356 -0.0021  0.1079
 1876DPPE   NH344365   1.511  10.870  11.378 -0.0679 -0.0080  0.0458
 1876DPPE   PO444366   1.602  11.146  11.822  0.0826  0.1189 -0.1790
 1876DPPE   GL144367   1.960  10.907  11.750  0.3488 -0.0630  0.0504
 1876DPPE   GL244368   2.145  10.979  11.844  0.1957  0.1067  0.0613
 1876DPPE   C1A44369   2.379  10.638  11.539  0.1048 -0.0976 -0.2042
 1876DPPE   C2A44370   2.800  10.601  11.344 -0.0420 -0.1646 -0.4660
 1876DPPE   C3A44371   3.047  10.387  11.076  0.1224  0.1040 -0.1978
 1876DPPE   C4A44372   3.370  10.276  10.877  0.1513  0.0488 -0.2058
 1876DPPE   C1B44373   2.456  11.297  11.764  0.2614 -0.2239 -0.5089
 1876DPPE   C2B44374   2.660  11.546  11.398  0.1519  0.1155 -0.0815
 1876DPPE   C3B44375   2.910  11.596  11.078 -0.2967 -0.0260 -0.1632
 1876DPPE   C4B44376   3.373  11.455  11.020 -0.4828  0.1527  0.2012
 1877DPPE   NH344377   3.747  13.560  12.748 -0.3112 -0.2914 -0.0324
 1877DPPE   PO444378   4.084  13.530  12.371 -0.2817 -0.0146  0.3364
 1877DPPE   GL144379   4.439  13.155  12.410  0.0858 -0.3139 -0.0868
 1877DPPE   GL244380   4.808  13.117  12.542 -0.0359  0.0928  0.0839
 1877DPPE   C1A44381   4.720  12.893  12.022  0.2305 -0.1493 -0.0848
 1877DPPE   C2A44382   5.092  12.818  12.224  0.0422  0.0783  0.2489
 1877DPPE   C3A44383   5.447  12.800  12.333  0.0726  0.2228  0.0682
 1877DPPE   C4A44384   5.810  12.941  12.366  0.0041 -0.1266 -0.2932
 1877DPPE   C1B44385   4.630  12.781  12.662  0.2705  0.0880  0.1610
 1877DPPE   C2B44386   4.174  12.711  12.637  0.0467 -0.0397  0.3511
 1877DPPE   C3B44387   3.939  12.314  12.604  0.0854 -0.1538 -0.2740
 1877DPPE   C4B44388   3.740  11.950  12.747 -0.2338  0.3468 -0.2675
 1878DPPE   NH344389  13.286  12.622  22.775 -0.1802 -0.4697  0.1208
 1878DPPE   PO444390  13.009  12.903  22.505  0.1067 -0.1929 -0.1526
 1878DPPE   GL144391  12.751  12.983  22.731  0.0223 -0.1184 -0.0564
 1878DPPE   GL244392  12.778  12.776  22.965  0.1811  0.2447 -0.1631
 1878DPPE   C1A44393  12.462  13.170  23.083 -0.0341 -0.3915  0.2754
 1878DPPE   C2A44394  12.366  13.175  23.456 -0.3087 -0.2127  0.0423
 1878DPPE   C3A44395  12.066  13.184  23.709 -0.2637 -0.1408  0.2703
 1878DPPE   C4A44396  11.771  13.555  23.840 -0.0472  0.1964  0.0312
 1878DPPE   C1B44397  12.554  12.644  23.252  0.1925  0.1750 -0.2087
 1878DPPE   C2B44398  12.399  12.452  23.520 -0.0139  0.1298 -0.3170
 1878DPPE   C3B44399  12.012  12.454  23.726  0.3037  0.1721 -0.3664
 1878DPPE   C4B44400  11.492  12.371  23.738  0.2207 -0.0153  0.2465
 1879DPPE   NH344401   7.868   6.647   3.192 -0.0680  0.0628 -0.1414
 1879DPPE   PO444402   7.600   6.245   3.309  0.0623  0.2326 -0.0734
 1879DPPE   GL144403   7.476   6.253   3.770  0.2983 -0.5406 -0.0235
 1879DPPE   GL244404   7.767   6.300   3.834  0.1571  0.2188  0.0086
 1879DPPE   C1A44405   7.261   6.532   4.108  0.2900 -0.1181 -0.0444
 1879DPPE   C2A44406   7.138   6.794   4.098 -0.0551  0.0899  0.1370
 1879DPPE   C3A44407   6.963   7.037   4.365 -0.1834  0.0798 -0.1687
 1879DPPE   C4A44408   6.610   7.249   4.412  0.0519  0.3394  0.2841
 1879DPPE   C1B44409   8.222   6.202   3.808 -0.1067  0.2228 -0.2270
 1879DPPE   C2B44410   8.632   6.142   4.026 -0.1502  0.0404  0.1207
 1879DPPE   C3B44411   8.968   5.963   4.354  0.0338 -0.1216  0.1314
 1879DPPE   C4B44412   9.412   5.948   4.610 -0.1528  0.1991 -0.0575
 1880DPPE   NH344413  13.757  12.829   8.243 -0.0883  0.0653  0.0834
 1880DPPE   PO444414  14.100  12.983   8.227 -0.0952 -0.1741  0.0927
 1880DPPE   GL144415  13.958  13.076   7.777 -0.0012 -0.1389  0.0417
 1880DPPE   GL244416  14.059  12.910   7.451  0.3013  0.1439 -0.1941
 1880DPPE   C1A44417  13.638  13.195   7.537  0.2016 -0.1568 -0.0861
 1880DPPE   C2A44418  13.275  13.428   7.416  0.1809 -0.1608 -0.0640
 1880DPPE   C3A44419  12.892  13.324   7.239 -0.1234  0.1224  0.0048
 1880DPPE   C4A44420  12.466  13.258   7.465 -0.4913  0.0341 -0.3108
 1880DPPE   C1B44421  13.775  12.777   7.172 -0.3961 -0.0027  0.0183
 1880DPPE   C2B44422  13.737  12.674   6.793 -0.2612  0.0863  0.1048
 1880DPPE   C3B44423  13.594  12.884   6.358  0.1852 -0.0838 -0.0455
 1880DPPE   C4B44424  13.640  13.236   6.038 -0.2123  0.1526 -0.1282
 1881DPPE   NH344425   8.260  19.298  19.587 -0.0706 -0.0549  0.2544
 1881DPPE   PO444426   8.094  18.899  19.667  0.2148 -0.1081 -0.0987
 1881DPPE   GL144427   8.366  18.715  19.559  0.0285  0.1932  0.0922
 1881DPPE   GL244428   8.204  18.416  19.273  0.2026 -0.2454 -0.1145
 1881DPPE   C1A44429   8.681  18.620  19.230 -0.1231  0.3975  0.3432
 1881DPPE   C2A44430   8.997  18.404  19.011  0.0282  0.1721  0.2355
 1881DPPE   C3A44431   9.381  18.581  19.114  0.1873  0.0894 -0.1024
 1881DPPE   C4A44432   9.641  18.866  19.414  0.2685  0.0786  0.2176
 1881DPPE   C1B44433   8.472  17.989  19.079  0.2611 -0.2053 -0.0264
 1881DPPE   C2B44434   8.710  17.843  18.735  0.0442  0.2061  0.2924
 1881DPPE   C3B44435   8.832  17.533  18.637  0.0307  0.2454 -0.1192
 1881DPPE   C4B44436   8.719  17.056  18.636 -0.2094 -0.1088 -0.1064
 1882DPPE   NH344437  20.097   0.124   6.570 -0.1044  0.1307 -0.1641
 1882DPPE   PO444438  19.767  -0.176   6.569  0.0900 -0.0781 -0.1277
 1882DPPE   GL144439  19.574   0.115   6.801  0.0839 -0.0200  0.1660
 1882DPPE   GL244440  19.361  -0.076   6.962 -0.0835  0.0898  0.0516
 1882DPPE   C1A44441  19.505   0.331   7.139  0.2048 -0.1008 -0.0066
 1882DPPE   C2A44442  19.160   0.391   7.259  0.1609 -0.3247  0.3744
 1882DPPE   C3A44443  18.992   0.300   7.477  0.0140  0.1031 -0.1702
 1882DPPE   C4A44444  18.595   0.045   7.347 -0.1559  0.0451 -0.0721
 1882DPPE   C1B44445  19.061  -0.140   7.348  0.1384  0.3451  0.5550
 1882DPPE   C2B44446  18.835  -0.225   7.673  0.0142 -0.0528 -0.1515
 1882DPPE   C3B44447  18.573  -0.519   7.936  0.3782 -0.0667 -0.0194
 1882DPPE   C4B44448  18.206  -0.680   8.311 -0.4206 -0.0309  0.1160
 1883DPPE   NH344449  17.044  17.451  20.868  0.0440 -0.0414 -0.2009
 1883DPPE   PO444450  17.197  17.209  21.297  0.0786 -0.0382  0.0501
 1883DPPE   GL144451  17.541  17.140  21.611 -0.2407 -0.1928 -0.3572
 1883DPPE   GL244452  17.479  17.051  21.874 -0.2768 -0.0921  0.0608
 1883DPPE   C1A44453  17.884  17.482  21.720  0.1419  0.1607  0.1137
 1883DPPE   C2A44454  18.080  17.841  21.687  0.1517  0.2005 -0.0679
 1883DPPE   C3A44455  18.201  18.102  21.981  0.2102  0.0673 -0.1069
 1883DPPE   C4A44456  18.276  18.381  22.386 -0.1326 -0.0405  0.2563
 1883DPPE   C1B44457  17.310  17.303  22.226  0.4335 -0.3325 -0.0296
 1883DPPE   C2B44458  17.337  17.763  22.351 -0.2139 -0.1744 -0.1333
 1883DPPE   C3B44459  17.070  18.047  22.500  0.0502  0.5213  0.2993
 1883DPPE   C4B44460  17.006  18.517  22.654  0.2232 -0.1023 -0.0721
 1884DPPE   NH344461  17.617  18.672  17.457  0.1554  0.1833  0.0668
 1884DPPE   PO444462  17.988  18.682  17.767  0.2139  0.1266  0.0415
 1884DPPE   GL144463  18.112  18.950  17.566 -0.1437  0.1467  0.0986
 1884DPPE   GL244464  18.440  19.117  17.707 -0.2927 -0.0460 -0.1030
 1884DPPE   C1A44465  18.031  19.321  17.394  0.0061  0.2347 -0.0704
 1884DPPE   C2A44466  18.153  19.579  17.052 -0.1469  0.0517 -0.1773
 1884DPPE   C3A44467  18.146  19.961  16.878  0.0595 -0.0269 -0.0702
 1884DPPE   C4A44468  18.578  20.192  16.894 -0.3421 -0.0843 -0.1878
 1884DPPE   C1B44469  18.415  19.511  17.742 -0.3235 -0.0565 -0.2700
 1884DPPE   C2B44470  18.324  19.960  17.878  0.0961 -0.0575 -0.0248
 1884DPPE   C3B44471  18.288  20.224  18.224 -0.2666 -0.1702 -0.3071
 1884DPPE   C4B44472  18.424  20.591  18.465 -0.3203  0.3948  0.1778
 1885DPPE   NH344473  10.519   5.854  20.791 -0.1031  0.4485 -0.0797
 1885DPPE   PO444474  10.633   5.513  20.645  0.0963  0.1476  0.0346
 1885DPPE   GL144475  10.373   5.340  20.941  0.4025  0.0035  0.1017
 1885DPPE   GL244476  10.261   5.590  21.157 -0.2323  0.1248  0.2815
 1885DPPE   C1A44477  10.262   4.947  21.004  0.2999  0.1599  0.2203
 1885DPPE   C2A44478  10.064   4.683  21.338 -0.1675  0.3970  0.2454
 1885DPPE   C3A44479   9.898   4.669  21.783 -0.0831  0.0392  0.2805
 1885DPPE   C4A44480   9.885   4.811  22.168 -0.0360 -0.0690  0.0104
 1885DPPE   C1B44481  10.031   5.589  21.612  0.3676 -0.1220  0.2913
 1885DPPE   C2B44482   9.640   5.351  21.957  0.0904 -0.1447  0.3610
 1885DPPE   C3B44483   9.679   5.264  22.352 -0.2534 -0.1259  0.2727
 1885DPPE   C4B44484   9.831   5.254  22.707 -0.1199  0.0545  0.3766
 1886DPPE   NH344485  16.467   2.638  12.738 -0.0805 -0.0620  0.0518
 1886DPPE   PO444486  16.188   2.881  12.549  0.1211  0.3325  0.2428
 1886DPPE   GL144487  16.230   2.533  12.247  0.3287 -0.1356 -0.0765
 1886DPPE   GL244488  16.482   2.384  12.183  0.0768  0.2198 -0.1943
 1886DPPE   C1A44489  16.003   2.235  12.014 -0.1190  0.1441  0.1410
 1886DPPE   C2A44490  16.136   2.252  11.608  0.5717 -0.0870  0.0067
 1886DPPE   C3A44491  16.309   2.240  11.197 -0.2728  0.0699  0.1873
 1886DPPE   C4A44492  16.178   2.023  10.885 -0.0845  0.1558 -0.0676
 1886DPPE   C1B44493  16.425   1.935  12.070 -0.4127  0.1104  0.1207
 1886DPPE   C2B44494  16.111   1.686  11.905  0.1146  0.1124 -0.0543
 1886DPPE   C3B44495  15.664   1.683  11.888 -0.1490 -0.2742 -0.3760
 1886DPPE   C4B44496  15.297   1.861  11.763 -0.2447 -0.3642  0.0852
 1887DPPE   NH344497  17.775  17.793  12.251  0.0705  0.0424 -0.1567
 1887DPPE   PO444498  17.796  17.341  12.243  0.3730  0.2950  0.3777
 1887DPPE   GL144499  18.173  17.546  12.039  0.0388  0.0247  0.3136
 1887DPPE   GL244500  18.286  17.726  12.361 -0.2662  0.1649  0.2122
 1887DPPE   C1A44501  18.257  17.852  11.658 -0.0618  0.0210  0.1389
 1887DPPE   C2A44502  18.355  18.368  11.466 -0.2679  0.0177  0.0979
 1887DPPE   C3A44503  18.452  18.782  11.257  0.0187 -0.2463  0.1153
 1887DPPE   C4A44504  18.341  19.168  11.027 -0.0583  0.0093  0.1811
 1887DPPE   C1B44505  18.332  18.167  12.286 -0.2209 -0.2118 -0.0018
 1887DPPE   C2B44506  18.635  18.491  12.305  0.0950  0.0189  0.1304
 1887DPPE   C3B44507  18.830  18.716  12.318  0.1162 -0.1616 -0.0563
 1887DPPE   C4B44508  19.191  19.073  12.289 -0.4021 -0.0673  0.0373
 1888DPPE   NH344509  21.212  12.551   5.655  0.1286  0.1512 -0.1028
 1888DPPE   PO444510  21.435  12.931   5.863  0.1621 -0.0148  0.1518
 1888DPPE   GL144511  21.402  12.990   6.243  0.2810  0.1216 -0.3053
 1888DPPE   GL244512  21.434  13.434   6.279  0.2142 -0.1084  0.0782
 1888DPPE   C1A44513  21.116  12.939   6.630  0.0949  0.1138  0.2242
 1888DPPE   C2A44514  20.788  13.301   6.787 -0.1949  0.0853  0.1645
 1888DPPE   C3A44515  20.351  13.166   6.831  0.2736  0.3578  0.1306
 1888DPPE   C4A44516  20.037  13.257   7.169  0.0707 -0.1058  0.1224
 1888DPPE   C1B44517  21.264  13.414   6.675  0.3964  0.1199 -0.2898
 1888DPPE   C2B44518  21.311  13.202   7.094 -0.1826 -0.0684 -0.2249
 1888DPPE   C3B44519  21.305  12.831   7.425 -0.0855  0.0797  0.1241
 1888DPPE   C4B44520  21.402  12.378   7.501 -0.0484 -0.1391 -0.1723
 1889DPPE   NH344521   7.771  35.656  18.324  0.0017 -0.2509  0.1530
 1889DPPE   PO444522   7.923  35.356  17.997 -0.1498 -0.1425  0.0779
 1889DPPE   GL144523   7.717  35.671  17.817  0.0868  0.0390  0.1258
 1889DPPE   GL244524   7.406  35.877  17.936 -0.1135 -0.0132 -0.0747
 1889DPPE   C1A44525   8.100  35.939  17.731 -0.0874 -0.1208  0.3169
 1889DPPE   C2A44526   8.057  36.406  17.656 -0.0961  0.0720  0.0090
 1889DPPE   C3A44527   7.988  36.848  17.617 -0.4500  0.0712  0.1469
 1889DPPE   C4A44528   7.725  37.094  17.726 -0.2733  0.2999  0.1338
 1889DPPE   C1B44529   7.623  36.060  17.565 -0.0477 -0.3488 -0.2720
 1889DPPE   C2B44530   7.629  36.504  17.382  0.0302 -0.0925 -0.1212
 1889DPPE   C3B44531   7.489  36.905  17.284  0.1376  0.2366 -0.0790
 1889DPPE   C4B44532   7.806  37.205  17.157 -0.0424  0.0379 -0.0511
 1890DPPE   NH344533  10.516   9.780  12.174 -0.1335  0.0276  0.1921
 1890DPPE   PO444534  10.339   9.658  12.573 -0.1551  0.3257 -0.0966
 1890DPPE   GL144535  10.056   9.420  12.810  0.3751 -0.0422 -0.1204
 1890DPPE   GL244536   9.801   9.756  12.846  0.3684  0.1714  0.0369
 1890DPPE   C1A44537   9.866   8.981  12.847  0.1725 -0.3518  0.0591
 1890DPPE   C2A44538   9.581   8.642  12.759  0.1368 -0.1420  0.0644
 1890DPPE   C3A44539   9.202   8.602  12.440  0.1494  0.0828  0.2675
 1890DPPE   C4A44540   9.071   8.706  12.008 -0.1487 -0.0302 -0.2710
 1890DPPE   C1B44541   9.450   9.420  12.806  0.2507  0.0076  0.1283
 1890DPPE   C2B44542   9.254   9.084  12.655 -0.2769  0.0315  0.3608
 1890DPPE   C3B44543   8.805   8.854  12.839  0.2486 -0.1252  0.0903
 1890DPPE   C4B44544   8.638   8.506  12.697  0.0973  0.2636 -0.2229
 1891DPPE   NH344545  10.196  35.055   6.049  0.3596 -0.2463  0.2361
 1891DPPE   PO444546  10.581  35.217   5.826 -0.1837 -0.0879 -0.5489
 1891DPPE   GL144547  10.666  35.682   6.079 -0.1699  0.0162 -0.1364
 1891DPPE   GL244548  10.699  36.057   5.912  0.0604  0.1951 -0.0188
 1891DPPE   C1A44549  10.765  35.881   6.323 -0.2713  0.1186  0.2261
 1891DPPE   C2A44550  10.762  36.219   6.537 -0.1090 -0.0483  0.0248
 1891DPPE   C3A44551  10.380  36.505   6.601  0.3628 -0.1607 -0.1518
 1891DPPE   C4A44552  10.066  36.820   6.554 -0.3862 -0.2035  0.3365
 1891DPPE   C1B44553  10.661  36.500   6.126  0.0778 -0.1132  0.1014
 1891DPPE   C2B44554  10.708  36.808   6.471 -0.1214  0.0396 -0.0514
 1891DPPE   C3B44555  10.580  37.086   6.779 -0.1059  0.0990  0.0145
 1891DPPE   C4B44556  10.541  37.423   6.879 -0.2983  0.1005 -0.1632
 1892DPPE   NH344557  14.361  10.734  27.216 -0.1068 -0.2764  0.0491
 1892DPPE   PO444558  14.102  10.440  27.423  0.3038 -0.4557 -0.1923
 1892DPPE   GL144559  14.108  10.347  27.021  0.1861 -0.0224 -0.0319
 1892DPPE   GL244560  14.315  10.482  26.780  0.0069 -0.0073 -0.0451
 1892DPPE   C1A44561  14.101  10.007  26.771 -0.1296 -0.0563  0.3673
 1892DPPE   C2A44562  13.886   9.961  26.363 -0.5015 -0.0894  0.1377
 1892DPPE   C3A44563  13.916   9.879  25.969  0.1623 -0.3417  0.2600
 1892DPPE   C4A44564  13.648   9.452  25.796  0.1813 -0.0012 -0.1451
 1892DPPE   C1B44565  14.591  10.734  26.456  0.1333 -0.0149  0.0597
 1892DPPE   C2B44566  14.891  10.880  26.138  0.3567 -0.1799 -0.1477
 1892DPPE   C3B44567  14.819  10.654  25.769  0.0905  0.1452  0.0998
 1892DPPE   C4B44568  14.770  10.209  25.539 -0.2582  0.2033 -0.0779
 1893DPPE   NH344569   4.989  36.278  17.558  0.1038  0.0500  0.5245
 1893DPPE   PO444570   5.120  36.749  17.646  0.1686  0.0475 -0.0525
 1893DPPE   GL144571   5.189  37.062  17.435 -0.0176  0.1462  0.1875
 1893DPPE   GL244572   5.077  37.378  17.581  0.0499 -0.2681 -0.0779
 1893DPPE   C1A44573   5.255  37.382  17.111  0.2416 -0.0804  0.1469
 1893DPPE   C2A44574   5.492  37.382  16.716  0.2573  0.0419 -0.0881
 1893DPPE   C3A44575   5.923  37.225  16.689 -0.0329  0.0546 -0.0167
 1893DPPE   C4A44576   6.134  36.966  16.931  0.2221  0.0576  0.3501
 1893DPPE   C1B44577   5.095  37.788  17.455 -0.1664  0.2074 -0.0940
 1893DPPE   C2B44578   5.276  38.097  17.120  0.1101 -0.2739 -0.0317
 1893DPPE   C3B44579   5.179  38.322  16.839 -0.1826 -0.0282 -0.0062
 1893DPPE   C4B44580   5.017  38.597  16.611  0.1944 -0.0002  0.0805
 1894DPPE   NH344581   9.438  10.064  14.335 -0.0939  0.1235 -0.1109
 1894DPPE   PO444582   9.164  10.183  14.675  0.0884 -0.1684 -0.0226
 1894DPPE   GL144583   8.754  10.002  14.377  0.2799  0.5128 -0.1641
 1894DPPE   GL244584   8.901  10.032  14.193  0.0756 -0.0185  0.0390
 1894DPPE   C1A44585   8.365   9.787  14.384  0.0766  0.0276  0.3360
 1894DPPE   C2A44586   8.015   9.653  14.369 -0.1619 -0.2093 -0.0315
 1894DPPE   C3A44587   7.714   9.430  14.135  0.1072 -0.2467  0.2584
 1894DPPE   C4A44588   7.365   9.249  13.989  0.0943 -0.2239 -0.0163
 1894DPPE   C1B44589   8.741  10.225  13.916 -0.1584 -0.2300  0.1700
 1894DPPE   C2B44590   8.567  10.378  13.698  0.1890  0.1690 -0.1444
 1894DPPE   C3B44591   8.529  10.568  13.417 -0.0421  0.2993 -0.0714
 1894DPPE   C4B44592   8.408  10.498  12.981  0.1345  0.0489  0.3793
 1895DPPE   NH344593  12.264   7.747  12.146  0.4085 -0.1039  0.3847
 1895DPPE   PO444594  12.060   7.400  11.780 -0.1764 -0.2474 -0.1092
 1895DPPE   GL144595  11.867   7.349  11.495 -0.2091  0.3483  0.4635
 1895DPPE   GL244596  11.535   7.483  11.524 -0.1113  0.0680 -0.1985
 1895DPPE   C1A44597  11.499   7.039  11.234  0.1437 -0.0199 -0.0347
 1895DPPE   C2A44598  11.417   6.885  10.865 -0.0627 -0.1099  0.1374
 1895DPPE   C3A44599  11.365   6.581  10.485  0.0269 -0.1451  0.3352
 1895DPPE   C4A44600  11.219   6.122  10.379  0.1113  0.0834  0.0110
 1895DPPE   C1B44601  11.220   7.542  11.244 -0.1801 -0.1252 -0.1891
 1895DPPE   C2B44602  10.787   7.468  11.154  0.3438 -0.1047  0.0596
 1895DPPE   C3B44603  10.434   7.235  10.998 -0.2069  0.0799 -0.2591
 1895DPPE   C4B44604  10.077   7.396  10.974 -0.3006 -0.0915  0.2404
 1896DPPE   NH344605  25.878   6.776   9.311 -0.2640 -0.4677  0.1160
 1896DPPE   PO444606  26.031   7.051   9.155  0.0425  0.0536  0.1679
 1896DPPE   GL144607  25.716   7.269   9.378  0.1628 -0.1174 -0.0092
 1896DPPE   GL244608  25.866   7.522   9.356 -0.0054 -0.1642 -0.3401
 1896DPPE   C1A44609  25.319   7.214   9.600 -0.1741 -0.1107 -0.0191
 1896DPPE   C2A44610  24.887   7.076   9.733 -0.1839 -0.2278 -0.0381
 1896DPPE   C3A44611  24.550   7.123   9.989  0.2607  0.2910 -0.0486
 1896DPPE   C4A44612  24.177   7.029  10.254 -0.1638  0.5037 -0.0849
 1896DPPE   C1B44613  26.154   7.741   9.673 -0.0717  0.1322  0.2856
 1896DPPE   C2B44614  26.092   7.758  10.113 -0.1713  0.2390  0.2286
 1896DPPE   C3B44615  25.721   7.592  10.283 -0.2840 -0.1525  0.1259
 1896DPPE   C4B44616  25.288   7.573  10.175  0.3049 -0.1268 -0.0398
 1897DPPE   NH344617  13.644   9.637   0.849 -0.4756  0.2314  0.1654
 1897DPPE   PO444618  13.764   9.582   1.249  0.1053  0.0187 -0.1094
 1897DPPE   GL144619  13.500   9.408   1.455 -0.1124 -0.3185 -0.0653
 1897DPPE   GL244620  13.169   9.325   1.385  0.0929 -0.0189  0.0195
 1897DPPE   C1A44621  13.414   9.159   1.813  0.2997 -0.0019 -0.0047
 1897DPPE   C2A44622  13.173   9.000   2.131 -0.2288  0.0129  0.2448
 1897DPPE   C3A44623  12.942   8.764   2.347 -0.0500  0.1987  0.0572
 1897DPPE   C4A44624  12.632   8.752   2.598  0.0204  0.0560  0.0515
 1897DPPE   C1B44625  12.958   9.075   1.583  0.1422  0.1158 -0.0601
 1897DPPE   C2B44626  12.738   8.814   1.799  0.0805 -0.2142 -0.4550
 1897DPPE   C3B44627  12.375   8.611   1.983  0.0146  0.3573 -0.5940
 1897DPPE   C4B44628  12.206   8.485   2.364  0.0726  0.1369  0.2225
 1898DPPE   NH344629  11.524  19.170   9.196 -0.1093 -0.0317 -0.0392
 1898DPPE   PO444630  11.731  18.850   8.897  0.0947  0.0181 -0.1121
 1898DPPE   GL144631  11.462  18.618   9.140 -0.1731  0.1108 -0.1820
 1898DPPE   GL244632  11.401  18.850   9.520  0.0949 -0.0560 -0.1645
 1898DPPE   C1A44633  11.503  18.368   9.372 -0.2011  0.2538 -0.2091
 1898DPPE   C2A44634  11.447  18.062   9.691  0.1093  0.1878  0.0059
 1898DPPE   C3A44635  11.505  18.047  10.180 -0.0212  0.0141  0.4845
 1898DPPE   C4A44636  11.710  17.781  10.295  0.1594  0.1415 -0.0336
 1898DPPE   C1B44637  11.593  18.732   9.875  0.0536 -0.2075 -0.0812
 1898DPPE   C2B44638  11.785  18.344  10.017  0.2722 -0.0436  0.0159
 1898DPPE   C3B44639  11.979  17.931   9.881 -0.0467  0.0096  0.0570
 1898DPPE   C4B44640  12.214  17.644   9.944  0.1016 -0.1390  0.0690
 1899DPPE   NH344641  14.526   1.774  15.653  0.2205  0.0157  0.0797
 1899DPPE   PO444642  14.138   1.668  15.773 -0.1054 -0.0698  0.2621
 1899DPPE   GL144643  13.862   1.274  15.774  0.2634  0.2938  0.1957
 1899DPPE   GL244644  13.688   1.168  15.412  0.1573  0.2378 -0.1315
 1899DPPE   C1A44645  13.965   0.818  15.943 -0.0896 -0.0105 -0.1635
 1899DPPE   C2A44646  13.989   0.378  16.178  0.0023  0.1652 -0.0124
 1899DPPE   C3A44647  13.941   0.026  16.471  0.2642  0.0713 -0.0783
 1899DPPE   C4A44648  13.660  -0.328  16.579 -0.1789 -0.2727 -0.0706
 1899DPPE   C1B44649  13.676   0.815  15.362  0.1833  0.0237 -0.2750
 1899DPPE   C2B44650  13.728   0.435  15.143 -0.0502 -0.1499 -0.0425
 1899DPPE   C3B44651  13.482   0.265  14.979 -0.0210  0.1212 -0.0619
 1899DPPE   C4B44652  13.470  -0.012  14.680 -0.1353 -0.0728 -0.3698
 1900DPPE   NH344653  28.093  14.149  16.483  0.0576 -0.0404  0.0291
 1900DPPE   PO444654  28.297  13.785  16.575  0.0513  0.0028  0.3378
 1900DPPE   GL144655  27.883  13.687  16.586 -0.0452 -0.2542 -0.1323
 1900DPPE   GL244656  27.718  13.941  16.750  0.2126  0.2891  0.5945
 1900DPPE   C1A44657  27.453  13.472  16.416 -0.2956  0.0528  0.2626
 1900DPPE   C2A44658  27.145  13.233  16.392 -0.0595  0.1758  0.0960
 1900DPPE   C3A44659  26.724  13.190  16.315 -0.0689 -0.0144 -0.1035
 1900DPPE   C4A44660  26.529  12.831  16.171  0.1338  0.1205 -0.2611
 1900DPPE   C1B44661  27.392  13.930  16.583  0.0152 -0.0922 -0.1180
 1900DPPE   C2B44662  26.942  13.935  16.748  0.1197 -0.0186  0.0099
 1900DPPE   C3B44663  26.490  14.072  16.868 -0.2024  0.0174 -0.2444
 1900DPPE   C4B44664  26.127  13.839  16.964  0.0509  0.1181 -0.0696
 1901DPPE   NH344665  23.703   7.741  17.326  0.2749 -0.1325  0.1044
 1901DPPE   PO444666  23.477   7.278  17.299  0.1980  0.2155  0.1317
 1901DPPE   GL144667  23.796   7.373  17.614 -0.1705  0.1832 -0.1342
 1901DPPE   GL244668  23.751   7.645  17.828 -0.1545  0.1389  0.0958
 1901DPPE   C1A44669  24.097   7.200  17.868 -0.2188 -0.2957  0.1016
 1901DPPE   C2A44670  24.506   7.148  17.958  0.0849 -0.1980  0.0880
 1901DPPE   C3A44671  24.803   6.920  18.084  0.0440 -0.1652 -0.1876
 1901DPPE   C4A44672  25.079   6.729  18.290 -0.1754 -0.0182 -0.1886
 1901DPPE   C1B44673  24.076   7.694  18.005 -0.0015  0.1637  0.5225
 1901DPPE   C2B44674  24.473   7.587  18.221 -0.0413 -0.1301 -0.1320
 1901DPPE   C3B44675  24.910   7.576  18.379  0.2647  0.0164  0.4659
 1901DPPE   C4B44676  25.281   7.611  18.436  0.0648  0.0773  0.1660
 1902DPPE   NH344677   9.108  15.674   7.762  0.0715 -0.1298  0.0827
 1902DPPE   PO444678   9.466  15.606   7.432  0.0416  0.1257 -0.1402
 1902DPPE   GL144679   9.528  15.236   7.625 -0.3857  0.1307  0.1203
 1902DPPE   GL244680   9.150  15.177   7.770 -0.3708  0.2083  0.3651
 1902DPPE   C1A44681   9.694  14.928   7.746  0.1013  0.3603  0.0843
 1902DPPE   C2A44682  10.079  14.782   8.059 -0.5002  0.2196  0.0074
 1902DPPE   C3A44683   9.930  14.936   8.624 -0.3550 -0.3414 -0.1559
 1902DPPE   C4A44684  10.237  15.097   8.983 -0.2435  0.1909  0.0544
 1902DPPE   C1B44685   9.166  15.009   8.158 -0.1624 -0.3624 -0.1023
 1902DPPE   C2B44686   9.402  14.768   8.467  0.1662 -0.4121  0.0047
 1902DPPE   C3B44687   9.518  14.457   8.774 -0.1977  0.0634  0.2467
 1902DPPE   C4B44688   9.810  14.452   9.109  0.0791  0.1771 -0.2765
 1903DPPE   NH344689  24.574   8.025  24.168 -0.3006 -0.3644 -0.0395
 1903DPPE   PO444690  24.325   7.992  24.516 -0.3894  0.0257  0.1680
 1903DPPE   GL144691  24.064   8.165  24.227  0.0407 -0.3138 -0.1595
 1903DPPE   GL244692  23.985   8.493  24.261  0.3492  0.2055  0.1083
 1903DPPE   C1A44693  23.946   8.115  23.835  0.0769 -0.0632  0.3954
 1903DPPE   C2A44694  23.581   8.068  23.626 -0.0429 -0.2307 -0.1219
 1903DPPE   C3A44695  23.214   7.749  23.358 -0.2051 -0.0045 -0.3412
 1903DPPE   C4A44696  22.994   7.434  23.304  0.0837 -0.1157  0.3243
 1903DPPE   C1B44697  23.556   8.474  24.333 -0.2839  0.2665 -0.0174
 1903DPPE   C2B44698  23.252   8.309  24.517 -0.0578  0.0741 -0.0100
 1903DPPE   C3B44699  22.842   8.058  24.748 -0.1699 -0.0818  0.1601
 1903DPPE   C4B44700  22.618   7.851  25.080 -0.3348  0.1467 -0.1216
 1904DPPE   NH344701  10.535   7.503  14.610 -0.2001 -0.0462  0.0416
 1904DPPE   PO444702  10.929   7.317  14.418  0.2043 -0.0390 -0.1501
 1904DPPE   GL144703  11.152   6.911  14.107 -0.1103 -0.2163 -0.0775
 1904DPPE   GL244704  10.897   6.792  13.907 -0.1693 -0.1723  0.2306
 1904DPPE   C1A44705  11.212   6.471  14.039  0.4114 -0.2878  0.3188
 1904DPPE   C2A44706  10.950   6.171  14.208 -0.5382 -0.0808  0.1616
 1904DPPE   C3A44707  10.677   5.917  14.116 -0.2075  0.0529  0.0602
 1904DPPE   C4A44708  10.254   5.758  13.989  0.0193  0.3163 -0.1658
 1904DPPE   C1B44709  10.440   6.744  13.735 -0.1389  0.0980  0.0747
 1904DPPE   C2B44710   9.990   6.657  13.617 -0.0405 -0.0796 -0.4124
 1904DPPE   C3B44711   9.675   6.386  13.604 -0.0680  0.1079 -0.0496
 1904DPPE   C4B44712   9.267   6.398  13.446 -0.0827  0.3259 -0.0072
 1905DPPE   NH344713  12.192  11.097  22.626  0.2827 -0.2187  0.3619
 1905DPPE   PO444714  12.012  11.348  22.253 -0.0825 -0.0666  0.1947
 1905DPPE   GL144715  11.518  11.205  22.407 -0.0645 -0.1503  0.0151
 1905DPPE   GL244716  11.333  11.335  22.445  0.1511 -0.0832  0.1739
 1905DPPE   C1A44717  11.186  10.973  22.742  0.2038 -0.0169  0.1744
 1905DPPE   C2A44718  10.945  10.746  22.859  0.0772 -0.2917  0.0853
 1905DPPE   C3A44719  10.558  10.586  23.043 -0.0317  0.0206 -0.1512
 1905DPPE   C4A44720  10.112  10.806  22.939 -0.0395  0.1820  0.0900
 1905DPPE   C1B44721  10.934  11.463  22.762  0.0303  0.0438  0.0738
 1905DPPE   C2B44722  10.582  11.649  23.073 -0.1969  0.0060 -0.1106
 1905DPPE   C3B44723  10.538  11.862  23.481 -0.1973 -0.0960  0.3403
 1905DPPE   C4B44724  10.483  12.067  23.792  0.2624 -0.1420  0.0375
 1906DPPE   NH344725   8.941   6.896  18.462 -0.0523 -0.2513  0.1196
 1906DPPE   PO444726   8.720   7.037  18.940 -0.0893  0.2143 -0.3357
 1906DPPE   GL144727   8.359   6.858  19.009 -0.2329 -0.0410 -0.2470
 1906DPPE   GL244728   8.190   7.034  19.291  0.2591  0.0491 -0.0927
 1906DPPE   C1A44729   8.052   6.556  19.160 -0.1576 -0.2839  0.1926
 1906DPPE   C2A44730   7.848   6.380  19.397 -0.0872 -0.3528  0.0994
 1906DPPE   C3A44731   7.746   6.079  19.622  0.1880 -0.1737 -0.0255
 1906DPPE   C4A44732   7.517   5.710  19.708 -0.0596 -0.1387  0.1497
 1906DPPE   C1B44733   8.084   6.835  19.626 -0.0680  0.0453 -0.0169
 1906DPPE   C2B44734   7.761   6.720  19.873  0.0751 -0.1399  0.2772
 1906DPPE   C3B44735   7.448   6.993  20.030 -0.1469 -0.0380  0.0812
 1906DPPE   C4B44736   7.202   7.253  20.191  0.2573 -0.2752 -0.2931
 1907DPPE   NH344737  27.123   5.706  17.540 -0.1069 -0.1293 -0.0576
 1907DPPE   PO444738  27.445   5.885  17.162 -0.0103  0.1386  0.0055
 1907DPPE   GL144739  27.220   6.254  17.297 -0.0623  0.4660 -0.0200
 1907DPPE   GL244740  27.354   6.494  17.463  0.2011 -0.3539 -0.1315
 1907DPPE   C1A44741  26.896   6.522  17.136 -0.2064 -0.1653  0.0701
 1907DPPE   C2A44742  26.513   6.830  17.211  0.0217  0.0128  0.4764
 1907DPPE   C3A44743  26.081   6.936  17.262  0.0514 -0.0875  0.0025
 1907DPPE   C4A44744  25.695   6.866  17.324  0.0135 -0.4157  0.2526
 1907DPPE   C1B44745  26.972   6.711  17.651 -0.1334  0.0944 -0.3487
 1907DPPE   C2B44746  26.995   7.074  17.913  0.1633  0.2517  0.2410
 1907DPPE   C3B44747  26.989   7.500  17.992  0.0255 -0.0084 -0.1391
 1907DPPE   C4B44748  27.180   7.909  18.118 -0.1553 -0.0889  0.2574
 1908DPPE   NH344749  24.299  12.946  15.605 -0.0490 -0.0110  0.1738
 1908DPPE   PO444750  24.208  12.822  15.165 -0.2860 -0.0184  0.0500
 1908DPPE   GL144751  24.622  12.934  15.071  0.1123 -0.1909  0.0818
 1908DPPE   GL244752  24.774  12.745  15.122  0.0271  0.0391  0.1223
 1908DPPE   C1A44753  25.012  13.228  15.017 -0.2975 -0.0056 -0.0385
 1908DPPE   C2A44754  25.214  13.607  15.093 -0.3401  0.1806  0.1075
 1908DPPE   C3A44755  25.416  13.909  15.373  0.0351  0.0561 -0.3211
 1908DPPE   C4A44756  25.488  14.115  15.700 -0.1437 -0.1253  0.3058
 1908DPPE   C1B44757  25.003  12.378  14.945  0.0629 -0.1473  0.1546
 1908DPPE   C2B44758  25.361  12.175  14.715 -0.3125  0.0028 -0.3678
 1908DPPE   C3B44759  25.681  12.064  14.480 -0.1245  0.0918  0.0642
 1908DPPE   C4B44760  25.970  12.080  14.139 -0.2773 -0.0682 -0.1395
 1909DPPE   NH344761  10.000   5.447  17.678  0.0399 -0.0116  0.1103
 1909DPPE   PO444762   9.709   5.761  17.713 -0.3255 -0.0320  0.4553
 1909DPPE   GL144763   9.128   5.759  17.666  0.0617 -0.0430 -0.0380
 1909DPPE   GL244764   8.972   5.534  17.883 -0.0435 -0.2061  0.2282
 1909DPPE   C1A44765   8.652   5.719  17.500 -0.2796 -0.1417 -0.2907
 1909DPPE   C2A44766   8.300   5.849  17.268  0.1234  0.2965  0.0307
 1909DPPE   C3A44767   8.462   6.019  16.871 -0.3087  0.0752 -0.1297
 1909DPPE   C4A44768   8.316   6.279  16.532  0.2671 -0.0436  0.0268
 1909DPPE   C1B44769   8.676   5.193  17.819 -0.2443  0.2181  0.0649
 1909DPPE   C2B44770   8.506   4.834  17.640 -0.0584  0.0849  0.5818
 1909DPPE   C3B44771   8.395   4.421  17.651  0.1418  0.1863 -0.1395
 1909DPPE   C4B44772   8.134   4.050  17.695  0.0935  0.0564  0.0938
 1910DPPE   NH344773  17.068   5.482  10.158 -0.0662  0.1645 -0.0269
 1910DPPE   PO444774  17.438   5.484  10.012  0.0551  0.3409  0.1429
 1910DPPE   GL144775  17.512   5.246   9.760  0.1067  0.1646 -0.0192
 1910DPPE   GL244776  17.159   5.170   9.711  0.2465 -0.2717  0.1135
 1910DPPE   C1A44777  17.676   5.167   9.384 -0.0831  0.5048  0.2686
 1910DPPE   C2A44778  17.687   5.090   9.014 -0.2221  0.2845 -0.0572
 1910DPPE   C3A44779  17.357   4.791   8.783 -0.2992  0.1429  0.2120
 1910DPPE   C4A44780  17.060   4.442   8.759 -0.2253 -0.1153 -0.0616
 1910DPPE   C1B44781  16.819   5.090   9.485  0.3253 -0.3402 -0.0471
 1910DPPE   C2B44782  16.367   5.098   9.417  0.0955 -0.2125  0.0745
 1910DPPE   C3B44783  16.169   4.836   9.080 -0.1868 -0.0209 -0.4899
 1910DPPE   C4B44784  16.423   4.388   8.995 -0.0760  0.0301 -0.0331
 1911DPPE   NH344785  16.857  35.826  22.480  0.0804 -0.3103  0.1448
 1911DPPE   PO444786  17.017  36.175  22.466  0.2026 -0.1870 -0.1246
 1911DPPE   GL144787  17.167  36.414  22.101  0.1179  0.3789  0.0033
 1911DPPE   GL244788  16.927  36.731  22.100  0.0600  0.2059 -0.1094
 1911DPPE   C1A44789  17.159  36.297  21.661  0.2709 -0.0469 -0.1181
 1911DPPE   C2A44790  17.044  36.303  21.219  0.0265 -0.1872  0.2859
 1911DPPE   C3A44791  17.023  36.402  20.843  0.1249 -0.2277 -0.1139
 1911DPPE   C4A44792  16.945  36.332  20.463  0.3574  0.0948  0.1603
 1911DPPE   C1B44793  17.103  37.076  21.746  0.2621 -0.0397 -0.2184
 1911DPPE   C2B44794  17.190  37.290  21.329  0.1673 -0.0595  0.1578
 1911DPPE   C3B44795  17.247  37.339  20.947 -0.1465  0.0659  0.0737
 1911DPPE   C4B44796  16.958  37.449  20.644  0.0069 -0.0140  0.1086
 1912DPPE   NH344797  11.786  33.964  17.460  0.2310  0.2866 -0.3942
 1912DPPE   PO444798  11.705  33.664  17.204  0.1408  0.4311  0.0958
 1912DPPE   GL144799  11.642  34.017  16.956 -0.0507  0.1158 -0.0287
 1912DPPE   GL244800  11.452  34.251  17.157 -0.1665  0.0274 -0.4823
 1912DPPE   C1A44801  11.746  34.514  16.861 -0.1555  0.0933  0.0189
 1912DPPE   C2A44802  11.930  34.537  16.481  0.0744  0.4367 -0.4414
 1912DPPE   C3A44803  12.267  34.564  16.352  0.0590  0.1218 -0.0583
 1912DPPE   C4A44804  12.637  34.811  16.115  0.0833  0.1196  0.4828
 1912DPPE   C1B44805  11.306  34.728  17.020  0.1474  0.0998  0.0089
 1912DPPE   C2B44806  11.235  35.027  16.812  0.2308 -0.2165 -0.0839
 1912DPPE   C3B44807  11.326  35.381  16.749  0.0708  0.1136 -0.1647
 1912DPPE   C4B44808  11.318  35.724  17.070  0.0088 -0.2948 -0.0610
 1913DPPE   NH344809  16.102   7.460   9.845 -0.1707  0.1190 -0.0172
 1913DPPE   PO444810  16.059   7.092   9.942  0.0686 -0.0807  0.1221
 1913DPPE   GL144811  15.771   6.976   9.660 -0.1917  0.0835 -0.2282
 1913DPPE   GL244812  15.775   6.567   9.762  0.0317 -0.0103  0.0371
 1913DPPE   C1A44813  15.522   6.810   9.201 -0.1011 -0.0699 -0.0198
 1913DPPE   C2A44814  15.319   6.741   8.869 -0.3001 -0.2350 -0.0783
 1913DPPE   C3A44815  14.917   6.620   8.844  0.1947 -0.1167 -0.0040
 1913DPPE   C4A44816  14.480   6.576   8.873 -0.1747  0.1367 -0.1726
 1913DPPE   C1B44817  15.649   6.359   9.393 -0.1563  0.0845 -0.3078
 1913DPPE   C2B44818  15.433   6.242   9.116 -0.1692 -0.1239  0.0569
 1913DPPE   C3B44819  15.091   6.128   8.839 -0.1101 -0.0278 -0.1487
 1913DPPE   C4B44820  14.858   5.784   8.858  0.0249  0.0525  0.1545
 1914DPPE   NH344821   8.523   7.345  17.104 -0.2612 -0.0505  0.0226
 1914DPPE   PO444822   8.194   7.296  17.374  0.3033 -0.0334 -0.1471
 1914DPPE   GL144823   7.803   7.389  17.700  0.3195 -0.0518 -0.1855
 1914DPPE   GL244824   7.824   7.235  18.002 -0.0268  0.1809 -0.0788
 1914DPPE   C1A44825   7.245   7.571  17.707  0.1025 -0.1977 -0.3378
 1914DPPE   C2A44826   6.886   7.345  17.588  0.3430 -0.0508 -0.2501
 1914DPPE   C3A44827   6.433   7.476  17.522 -0.3780 -0.1548  0.1335
 1914DPPE   C4A44828   6.157   7.641  17.202  0.4387  0.0081  0.3371
 1914DPPE   C1B44829   7.464   7.162  18.045  0.1566 -0.0433  0.2087
 1914DPPE   C2B44830   7.116   6.843  17.835 -0.3818 -0.0400  0.0249
 1914DPPE   C3B44831   6.788   6.693  17.576 -0.0000 -0.2019  0.2352
 1914DPPE   C4B44832   6.569   6.296  17.433 -0.0069  0.2970 -0.0410
 1915DPPE   NH344833  19.289   1.814  13.903 -0.1059  0.0942  0.3670
 1915DPPE   PO444834  19.100   1.859  13.469 -0.0395 -0.1791  0.1257
 1915DPPE   GL144835  19.511   1.615  13.516  0.0347  0.0519  0.2011
 1915DPPE   GL244836  19.401   1.486  13.377  0.2217  0.0795  0.1679
 1915DPPE   C1A44837  19.687   1.178  13.563  0.1093  0.2868 -0.2443
 1915DPPE   C2A44838  20.032   0.962  13.814 -0.0357  0.0486  0.0679
 1915DPPE   C3A44839  20.462   0.848  13.917  0.0629 -0.1563  0.1271
 1915DPPE   C4A44840  20.864   0.698  13.836 -0.3422 -0.0779  0.0875
 1915DPPE   C1B44841  19.248   1.049  13.136  0.2139  0.1305 -0.0374
 1915DPPE   C2B44842  19.320   0.616  13.075  0.0160  0.2070 -0.1182
 1915DPPE   C3B44843  19.615   0.290  13.130 -0.0104  0.0930  0.2514
 1915DPPE   C4B44844  19.594  -0.070  12.997 -0.5272  0.2775  0.1339
 1916DPPE   NH344845  15.977  22.404  13.166 -0.1002 -0.0498 -0.1824
 1916DPPE   PO444846  16.512  22.497  13.207 -0.0151  0.2573  0.0074
 1916DPPE   GL144847  16.833  22.124  13.296  0.0036 -0.1891 -0.3263
 1916DPPE   GL244848  16.829  22.146  13.548  0.1328  0.0539  0.1525
 1916DPPE   C1A44849  16.762  21.640  13.258 -0.0958  0.0219 -0.2002
 1916DPPE   C2A44850  16.813  21.307  13.495  0.2255  0.4467 -0.0501
 1916DPPE   C3A44851  16.781  20.828  13.626 -0.1683 -0.0103 -0.1806
 1916DPPE   C4A44852  16.759  20.398  13.838 -0.1180 -0.1895  0.1182
 1916DPPE   C1B44853  16.979  21.855  13.783 -0.5748  0.0016  0.0099
 1916DPPE   C2B44854  17.023  21.468  13.976 -0.0948 -0.1144  0.0390
 1916DPPE   C3B44855  16.958  21.140  14.068  0.1317 -0.2612 -0.0112
 1916DPPE   C4B44856  16.646  20.872  14.138 -0.0784  0.1850 -0.1843
 1917DPPE   NH344857  10.723  11.639  10.692 -0.3289  0.3568  0.2111
 1917DPPE   PO444858  10.507  12.048  10.707  0.0980 -0.4546 -0.1853
 1917DPPE   GL144859  10.179  11.792  10.549  0.0948 -0.2903 -0.1820
 1917DPPE   GL244860  10.120  11.496  10.631 -0.2300 -0.1989  0.2382
 1917DPPE   C1A44861   9.725  11.837  10.408 -0.0136 -0.0736  0.3052
 1917DPPE   C2A44862   9.281  11.665  10.388 -0.1037 -0.4048  0.4642
 1917DPPE   C3A44863   8.883  11.533  10.597  0.0921  0.0341  0.1537
 1917DPPE   C4A44864   8.525  11.303  10.654  0.1240  0.3555  0.1485
 1917DPPE   C1B44865  10.007  11.450  10.193 -0.1293 -0.0420  0.3770
 1917DPPE   C2B44866   9.590  11.648   9.973 -0.0601 -0.1456  0.1600
 1917DPPE   C3B44867   9.405  11.881   9.725  0.0915  0.0249 -0.0715
 1917DPPE   C4B44868   9.308  12.354   9.790  0.2170  0.3816 -0.0729
 1918DPPE   NH344869  12.989  32.708  16.497  0.4089  0.1709 -0.1712
 1918DPPE   PO444870  13.119  33.139  16.563  0.1314 -0.0696 -0.2552
 1918DPPE   GL144871  13.365  33.523  16.448 -0.0709  0.2152 -0.2767
 1918DPPE   GL244872  13.262  33.710  16.712 -0.1080  0.2862 -0.1170
 1918DPPE   C1A44873  13.355  33.723  16.004 -0.0924  0.0552 -0.2360
 1918DPPE   C2A44874  13.385  33.925  15.665 -0.0183 -0.0342 -0.1776
 1918DPPE   C3A44875  13.352  34.319  15.514  0.1804 -0.1272  0.0953
 1918DPPE   C4A44876  13.135  34.681  15.270  0.0520 -0.0887  0.0928
 1918DPPE   C1B44877  13.290  34.236  16.634 -0.1158  0.0852 -0.0117
 1918DPPE   C2B44878  13.520  34.559  16.781 -0.2879 -0.1206  0.2862
 1918DPPE   C3B44879  13.640  34.949  16.719  0.2182 -0.0659 -0.2388
 1918DPPE   C4B44880  13.491  35.226  16.411  0.2172  0.1468 -0.3503
 1919DPPE   NH344881   9.552   8.339   1.327 -0.2922 -0.1155 -0.1335
 1919DPPE   PO444882   9.373   8.620   1.821 -0.0052 -0.2661  0.1935
 1919DPPE   GL144883   9.559   8.504   2.199 -0.0578  0.1075 -0.1323
 1919DPPE   GL244884   9.701   8.260   2.230 -0.3153  0.1200  0.2172
 1919DPPE   C1A44885   9.695   8.829   2.371 -0.0260 -0.0019 -0.0317
 1919DPPE   C2A44886  10.049   9.011   2.495 -0.0100 -0.3060 -0.1936
 1919DPPE   C3A44887  10.371   9.158   2.750  0.0207  0.1669 -0.1069
 1919DPPE   C4A44888  10.732   9.100   3.093 -0.1328  0.1107  0.0208
 1919DPPE   C1B44889   9.720   8.269   2.719  0.1534 -0.0002  0.3290
 1919DPPE   C2B44890  10.053   8.312   3.015 -0.1580  0.0995  0.3958
 1919DPPE   C3B44891  10.436   8.519   3.219  0.3761  0.2697  0.0076
 1919DPPE   C4B44892  10.422   8.920   3.536 -0.2108 -0.1926 -0.0116
 1920DPPE   NH344893  10.151   8.259  14.479 -0.2661  0.3713 -0.0184
 1920DPPE   PO444894  10.319   7.910  14.418 -0.0365  0.0864 -0.2699
 1920DPPE   GL144895  10.157   7.534  14.130 -0.5929 -0.5069  0.1309
 1920DPPE   GL244896  10.184   7.443  13.801 -0.0185  0.0055  0.4873
 1920DPPE   C1A44897   9.790   7.404  14.118 -0.0565  0.0962  0.0568
 1920DPPE   C2A44898   9.588   6.997  14.330 -0.2574 -0.0738 -0.1970
 1920DPPE   C3A44899   9.375   6.702  14.575 -0.1981 -0.1208  0.0414
 1920DPPE   C4A44900   9.214   6.364  14.330  0.1641 -0.1212 -0.3567
 1920DPPE   C1B44901   9.882   7.140  13.731 -0.3047  0.1199 -0.0525
 1920DPPE   C2B44902   9.404   6.876  13.580  0.0506 -0.2514 -0.2277
 1920DPPE   C3B44903   9.008   6.824  13.490  0.1498 -0.0717  0.1562
 1920DPPE   C4B44904   8.873   7.260  13.571 -0.0445  0.2045 -0.1580
 1921DPPE   NH344905  12.582   9.475  10.430 -0.1188  0.3492  0.2618
 1921DPPE   PO444906  12.303   9.619  10.860 -0.2216 -0.0931 -0.4158
 1921DPPE   GL144907  11.979   9.351  10.534  0.0337  0.0163  0.2048
 1921DPPE   GL244908  12.205   9.138  10.452 -0.2073  0.1488  0.1933
 1921DPPE   C1A44909  11.476   9.195  10.374  0.1196 -0.1106 -0.2967
 1921DPPE   C2A44910  11.236   9.010  10.138  0.1495  0.2065  0.3026
 1921DPPE   C3A44911  11.061   8.921   9.835 -0.0076  0.0239 -0.3293
 1921DPPE   C4A44912  11.074   9.215   9.406  0.0752  0.0996  0.0438
 1921DPPE   C1B44913  12.210   8.884  10.054 -0.0775 -0.1209 -0.2589
 1921DPPE   C2B44914  12.006   8.879   9.702 -0.1650 -0.2055 -0.0493
 1921DPPE   C3B44915  11.991   8.666   9.354  0.0773 -0.0701  0.1521
 1921DPPE   C4B44916  11.790   8.465   9.103  0.1297  0.1289  0.0159
 1922DPPE   NH344917  15.661   5.253  11.015 -0.1351 -0.1718  0.0603
 1922DPPE   PO444918  15.516   4.919  11.223  0.1380 -0.0144  0.2570
 1922DPPE   GL144919  15.095   4.610  11.188 -0.0522 -0.0949  0.1455
 1922DPPE   GL244920  14.812   4.719  11.235 -0.0149  0.0287  0.3282
 1922DPPE   C1A44921  14.889   4.252  11.241 -0.0835  0.2866  0.1876
 1922DPPE   C2A44922  14.796   4.010  10.917 -0.1016 -0.1782 -0.0113
 1922DPPE   C3A44923  14.610   3.785  10.535  0.1133 -0.1121  0.1185
 1922DPPE   C4A44924  14.769   3.430  10.520  0.2414  0.0780  0.2147
 1922DPPE   C1B44925  14.437   4.653  11.000 -0.1388 -0.2187  0.0432
 1922DPPE   C2B44926  14.067   4.455  10.710  0.1207  0.2025  0.0697
 1922DPPE   C3B44927  13.638   4.344  10.597 -0.1679 -0.1526 -0.1177
 1922DPPE   C4B44928  13.150   4.340  10.444 -0.2891 -0.0688 -0.0429
 1923DPPE   NH344929  17.726  10.173   8.264  0.2650  0.2562  0.0230
 1923DPPE   PO444930  17.670  10.652   8.286 -0.0357 -0.1547 -0.1174
 1923DPPE   GL144931  17.812  10.474   7.897  0.1061  0.1150 -0.1269
 1923DPPE   GL244932  18.023  10.330   7.910  0.2854 -0.1441 -0.1628
 1923DPPE   C1A44933  17.820  10.639   7.487 -0.2118 -0.0353  0.1607
 1923DPPE   C2A44934  18.085  10.688   7.142 -0.0228 -0.0420 -0.1292
 1923DPPE   C3A44935  18.507  10.418   7.104 -0.1066  0.2928 -0.0144
 1923DPPE   C4A44936  18.677  10.284   6.732 -0.1262 -0.1863 -0.0163
 1923DPPE   C1B44937  18.157  10.274   7.495  0.2950  0.1148 -0.0641
 1923DPPE   C2B44938  17.800  10.147   7.236 -0.0762 -0.0941 -0.1441
 1923DPPE   C3B44939  17.655   9.699   7.141 -0.1904 -0.0082 -0.0287
 1923DPPE   C4B44940  17.440   9.378   6.863 -0.3408 -0.0472  0.0437
 1924DPPE   NH344941   9.630   9.456  14.912 -0.1953 -0.0948  0.2543
 1924DPPE   PO444942   9.497   9.051  15.029 -0.0776 -0.0994 -0.1932
 1924DPPE   GL144943   9.129   9.162  14.641 -0.1383 -0.0847 -0.2068
 1924DPPE   GL244944   9.132   8.918  14.344 -0.0288 -0.0983  0.0225
 1924DPPE   C1A44945   8.720   9.410  14.746  0.2726 -0.1068 -0.0954
 1924DPPE   C2A44946   8.414   9.443  14.965 -0.1964  0.0400  0.1516
 1924DPPE   C3A44947   7.988   9.377  14.877 -0.2289 -0.3112  0.1911
 1924DPPE   C4A44948   7.670   9.506  14.686 -0.1452 -0.0837  0.1066
 1924DPPE   C1B44949   8.747   8.896  14.521  0.0891 -0.3453  0.1851
 1924DPPE   C2B44950   8.435   8.622  14.532 -0.2177 -0.0288 -0.0769
 1924DPPE   C3B44951   8.032   8.775  14.458  0.1363  0.1167 -0.2008
 1924DPPE   C4B44952   7.646   8.991  14.515 -0.4939 -0.1411 -0.0152
 1925DPPE   NH344953   6.362   2.167   6.791  0.1816  0.0755 -0.3472
 1925DPPE   PO444954   6.642   2.200   6.569  0.0491  0.2925 -0.1198
 1925DPPE   GL144955   6.713   2.499   6.925  0.2906  0.1042  0.0778
 1925DPPE   GL244956   6.509   2.680   6.836 -0.0632  0.3088 -0.2181
 1925DPPE   C1A44957   6.990   2.688   7.107 -0.0557 -0.4369  0.2915
 1925DPPE   C2A44958   7.253   2.983   6.865 -0.1000 -0.0143 -0.2066
 1925DPPE   C3A44959   7.576   3.270   6.723  0.0008 -0.0813 -0.0268
 1925DPPE   C4A44960   7.521   3.757   6.633  0.1797 -0.1086 -0.2135
 1925DPPE   C1B44961   6.524   2.810   7.275  0.0309  0.1059 -0.0341
 1925DPPE   C2B44962   6.447   2.642   7.670 -0.0730  0.0145 -0.2130
 1925DPPE   C3B44963   6.346   2.890   8.077  0.1908  0.1077  0.4048
 1925DPPE   C4B44964   6.208   2.938   8.465 -0.1730  0.1219 -0.0170
 1926DPPE   NH344965  21.106   7.143  21.528 -0.2757 -0.1019  0.3035
 1926DPPE   PO444966  20.967   7.426  21.905  0.1489  0.0941  0.0280
 1926DPPE   GL144967  21.144   7.184  22.191  0.1142  0.0053 -0.3086
 1926DPPE   GL244968  21.220   6.883  21.912 -0.0900 -0.0026 -0.1303
 1926DPPE   C1A44969  21.367   6.870  22.477 -0.0155 -0.1024 -0.0959
 1926DPPE   C2A44970  21.757   6.534  22.568 -0.1886  0.0922  0.0082
 1926DPPE   C3A44971  22.113   6.376  22.660 -0.0442  0.1839 -0.0944
 1926DPPE   C4A44972  22.419   6.004  22.588  0.2823 -0.2380 -0.3166
 1926DPPE   C1B44973  21.685   6.576  22.008 -0.2121 -0.0815  0.0080
 1926DPPE   C2B44974  22.064   6.473  22.125 -0.3856 -0.1593  0.1119
 1926DPPE   C3B44975  22.245   6.121  22.082  0.1984 -0.1243  0.1117
 1926DPPE   C4B44976  22.346   5.768  21.973  0.1943 -0.0304 -0.0174
 1927DPPE   NH344977  16.658  10.204  23.521  0.2791 -0.0523 -0.0591
 1927DPPE   PO444978  16.888  10.618  23.500  0.0707 -0.1951  0.2570
 1927DPPE   GL144979  16.651  10.706  23.917  0.1733  0.0050  0.0084
 1927DPPE   GL244980  16.494  10.991  23.898  0.0276 -0.0023 -0.0284
 1927DPPE   C1A44981  16.545  10.544  24.327  0.0379 -0.1262  0.4186
 1927DPPE   C2A44982  16.670  10.195  24.702  0.2107 -0.1228 -0.1447
 1927DPPE   C3A44983  16.659   9.673  24.716  0.2784  0.1417  0.0129
 1927DPPE   C4A44984  16.502   9.320  24.465  0.1057 -0.2514  0.0148
 1927DPPE   C1B44985  16.590  11.011  24.302  0.3732 -0.0870  0.1243
 1927DPPE   C2B44986  16.503  10.882  24.775  0.1450 -0.1730  0.2140
 1927DPPE   C3B44987  16.844  10.564  24.945 -0.3775 -0.1444  0.3561
 1927DPPE   C4B44988  16.838  10.331  25.293 -0.0476 -0.2925  0.1923
 1928DPPE   NH344989  12.206   4.448  14.500 -0.4239  0.2998  0.2396
 1928DPPE   PO444990  12.103   4.441  14.974  0.0567 -0.1932  0.1801
 1928DPPE   GL144991  11.868   4.192  14.767  0.0812  0.0242  0.3731
 1928DPPE   GL244992  12.042   3.966  14.527 -0.4707  0.2915  0.1161
 1928DPPE   C1A44993  11.606   4.270  14.338  0.1928 -0.2704 -0.2127
 1928DPPE   C2A44994  11.278   4.052  14.033  0.1498 -0.0885 -0.1599
 1928DPPE   C3A44995  10.919   4.064  13.903 -0.0620  0.1346 -0.2001
 1928DPPE   C4A44996  10.639   3.912  13.949  0.0838 -0.1459 -0.1912
 1928DPPE   C1B44997  11.896   3.726  14.073 -0.0469  0.3376 -0.0060
 1928DPPE   C2B44998  11.690   3.579  13.740 -0.1506 -0.0937 -0.0317
 1928DPPE   C3B44999  11.723   3.272  13.484 -0.0556  0.3443  0.0877
 1928DPPE   C4B45000  11.608   2.908  13.179 -0.0563  0.0058  0.2219
 1929DPPE   NH345001  23.558  10.250  19.870  0.4314  0.0675 -0.2326
 1929DPPE   PO445002  23.889   9.904  19.853 -0.1070 -0.3682  0.1199
 1929DPPE   GL145003  24.161   9.782  20.152  0.0342 -0.1502 -0.2516
 1929DPPE   GL245004  24.529   9.590  20.036  0.1897  0.1518 -0.1657
 1929DPPE   C1A45005  24.185  10.152  20.480 -0.0818 -0.2098  0.1651
 1929DPPE   C2A45006  24.493  10.268  20.858  0.0052  0.1384 -0.0552
 1929DPPE   C3A45007  24.678  10.288  21.307  0.3776 -0.1682  0.0052
 1929DPPE   C4A45008  24.694  10.500  21.732  0.2379 -0.3217  0.0739
 1929DPPE   C1B45009  24.898   9.810  20.114 -0.1992  0.0279 -0.0919
 1929DPPE   C2B45010  25.040  10.260  20.021  0.2198 -0.0701  0.0181
 1929DPPE   C3B45011  25.344  10.708  19.881  0.2521  0.5461 -0.1449
 1929DPPE   C4B45012  25.697  10.805  19.661 -0.0009 -0.0910  0.0459
 1930DPPE   NH345013  11.471   5.700  14.475 -0.1888  0.3054  0.1589
 1930DPPE   PO445014  11.929   5.516  14.326 -0.1273 -0.1653 -0.0306
 1930DPPE   GL145015  11.631   5.756  14.001  0.0566 -0.0628 -0.0761
 1930DPPE   GL245016  11.491   6.024  14.076 -0.0053 -0.0250 -0.2347
 1930DPPE   C1A45017  11.240   5.529  13.863 -0.0787  0.0516 -0.0707
 1930DPPE   C2A45018  10.806   5.408  13.937 -0.2038 -0.1068  0.2947
 1930DPPE   C3A45019  10.382   5.336  13.792  0.0794  0.4485 -0.0258
 1930DPPE   C4A45020   9.974   5.140  13.566  0.2122 -0.2845 -0.4332
 1930DPPE   C1B45021  11.157   6.033  13.792  0.0254 -0.1410 -0.0707
 1930DPPE   C2B45022  10.805   5.807  13.680  0.1869  0.2431 -0.1203
 1930DPPE   C3B45023  10.418   5.728  13.538  0.2805 -0.0384 -0.0671
 1930DPPE   C4B45024  10.097   5.751  13.225  0.1362 -0.1681 -0.4259
 1931DPPE   NH345025  14.827   3.763  13.311 -0.2255 -0.3224 -0.0194
 1931DPPE   PO445026  14.972   3.775  12.761 -0.0156  0.0212  0.1817
 1931DPPE   GL145027  14.864   3.457  12.466 -0.3933  0.0440  0.0871
 1931DPPE   GL245028  15.149   3.401  12.188 -0.0539  0.0654 -0.4157
 1931DPPE   C1A45029  14.625   3.224  12.121 -0.0062  0.0473  0.1126
 1931DPPE   C2A45030  14.594   2.802  11.801 -0.0062 -0.1726 -0.0266
 1931DPPE   C3A45031  14.325   2.601  11.430  0.3419 -0.0325 -0.1103
 1931DPPE   C4A45032  14.411   2.539  11.044 -0.1343 -0.0093 -0.3265
 1931DPPE   C1B45033  15.113   3.173  11.931 -0.0669 -0.1001  0.3014
 1931DPPE   C2B45034  15.101   2.776  11.734 -0.1797 -0.0343 -0.0225
 1931DPPE   C3B45035  15.174   2.358  11.584  0.1885  0.0828  0.1977
 1931DPPE   C4B45036  15.204   1.993  11.227 -0.1815 -0.1170  0.0678
 1932DPPE   NH345037  20.126   2.179  13.738 -0.1817 -0.1409 -0.1204
 1932DPPE   PO445038  20.119   2.332  14.130 -0.2738 -0.0853 -0.0562
 1932DPPE   GL145039  20.378   2.083  14.153 -0.0526  0.4463 -0.1443
 1932DPPE   GL245040  20.492   1.764  13.988  0.0682  0.1186 -0.1375
 1932DPPE   C1A45041  20.765   1.984  14.467  0.0816 -0.3089  0.1389
 1932DPPE   C2A45042  21.097   1.774  14.615 -0.0450 -0.0332  0.2288
 1932DPPE   C3A45043  21.449   1.418  14.385 -0.2214 -0.1208 -0.2354
 1932DPPE   C4A45044  21.786   1.485  14.198 -0.2039  0.1419  0.1180
 1932DPPE   C1B45045  20.767   1.542  14.117  0.0811 -0.2366  0.0618
 1932DPPE   C2B45046  21.096   1.433  14.015 -0.1743  0.0801 -0.0661
 1932DPPE   C3B45047  21.458   1.346  13.756  0.0534 -0.0357  0.1452
 1932DPPE   C4B45048  21.810   1.042  13.626 -0.1132 -0.2481  0.1986
 1933DPPE   NH345049  11.023   8.480  12.416  0.1222 -0.4052 -0.0744
 1933DPPE   PO445050  11.168   8.420  12.849  0.3347 -0.0379  0.1084
 1933DPPE   GL145051  10.835   8.086  12.778 -0.2562  0.0031  0.1853
 1933DPPE   GL245052  10.587   8.290  12.545  0.0735  0.1026  0.2285
 1933DPPE   C1A45053  10.615   7.749  12.586 -0.0294 -0.2643  0.1896
 1933DPPE   C2A45054  10.269   7.694  12.350 -0.2113  0.1114 -0.1425
 1933DPPE   C3A45055   9.956   7.442  12.333  0.3169  0.1135 -0.0393
 1933DPPE   C4A45056   9.477   7.392  12.400 -0.2931  0.1792 -0.0734
 1933DPPE   C1B45057  10.420   8.151  12.326  0.0164  0.1026 -0.0174
 1933DPPE   C2B45058  10.048   8.204  12.103 -0.1007 -0.0982  0.0562
 1933DPPE   C3B45059   9.853   8.109  11.830 -0.1407 -0.0439 -0.1365
 1933DPPE   C4B45060   9.668   8.115  11.380 -0.2527  0.1019  0.0058
 1934DPPE   NH345061  15.313  18.862  15.583 -0.0467  0.0180  0.2251
 1934DPPE   PO445062  15.341  18.670  15.222 -0.0889 -0.3582  0.0726
 1934DPPE   GL145063  15.199  19.124  15.138 -0.1090  0.1281 -0.3282
 1934DPPE   GL245064  14.902  19.194  14.979  0.0961  0.2956 -0.2757
 1934DPPE   C1A45065  15.187  19.524  15.128  0.0281 -0.0043  0.0209
 1934DPPE   C2A45066  15.318  19.987  14.928  0.2608  0.3682  0.0206
 1934DPPE   C3A45067  15.457  20.370  15.142  0.1615 -0.0764 -0.1069
 1934DPPE   C4A45068  15.560  20.524  15.567  0.1325  0.0556 -0.0639
 1934DPPE   C1B45069  14.610  19.575  14.869  0.0680 -0.1055  0.0511
 1934DPPE   C2B45070  14.397  20.028  15.096 -0.2432 -0.0379 -0.0218
 1934DPPE   C3B45071  14.471  20.097  15.513 -0.0505  0.1535  0.0201
 1934DPPE   C4B45072  14.555  20.306  15.869 -0.0891 -0.1488 -0.1500
 1935DPPE   NH345073  12.508  10.304  10.081  0.1367  0.0182 -0.3713
 1935DPPE   PO445074  12.419  10.762  10.304 -0.2088  0.0147  0.0859
 1935DPPE   GL145075  12.162  10.669  10.034  0.0560  0.1425  0.1879
 1935DPPE   GL245076  11.805  10.478  10.155 -0.4664  0.0671 -0.1173
 1935DPPE   C1A45077  11.951  10.497   9.613 -0.3568 -0.1381  0.2039
 1935DPPE   C2A45078  11.886  10.427   9.148  0.2743  0.0865 -0.2239
 1935DPPE   C3A45079  11.808  10.371   8.716 -0.1958  0.0656  0.1785
 1935DPPE   C4A45080  11.568  10.142   8.371 -0.0279 -0.2530 -0.1896
 1935DPPE   C1B45081  11.415  10.558   9.893 -0.2389  0.1256  0.0514
 1935DPPE   C2B45082  11.342  10.404   9.493  0.2525  0.2853  0.0401
 1935DPPE   C3B45083  11.359  10.623   9.138 -0.1678  0.0634  0.3412
 1935DPPE   C4B45084  11.568  10.767   8.901  0.2383 -0.1255  0.1330
 1936DPPE   NH345085  15.387   8.364   1.185  0.2901  0.2968  0.3881
 1936DPPE   PO445086  15.101   8.721   1.057  0.1156 -0.1338 -0.4394
 1936DPPE   GL145087  14.956   8.906   1.400 -0.1491 -0.0741 -0.1873
 1936DPPE   GL245088  14.750   8.775   1.629  0.1872  0.2560 -0.0280
 1936DPPE   C1A45089  14.911   9.180   1.859  0.0794 -0.0551 -0.1447
 1936DPPE   C2A45090  14.934   8.900   2.301  0.1649 -0.2056 -0.3916
 1936DPPE   C3A45091  14.725   8.693   2.701 -0.1341  0.2680 -0.0319
 1936DPPE   C4A45092  14.744   8.248   2.878  0.0521  0.1851 -0.3876
 1936DPPE   C1B45093  14.433   8.734   1.865  0.1333 -0.0446  0.3226
 1936DPPE   C2B45094  13.931   8.810   1.977 -0.0039  0.3989  0.1418
 1936DPPE   C3B45095  13.542   8.561   2.111  0.0201  0.2770 -0.0695
 1936DPPE   C4B45096  13.240   8.349   2.399  0.1451  0.3550 -0.0518
 1937DPPE   NH345097  14.039   6.324  10.757 -0.2078  0.2109  0.1714
 1937DPPE   PO445098  14.124   6.813  10.642 -0.0203  0.3216  0.0862
 1937DPPE   GL145099  13.857   6.923  10.341  0.3332  0.2044 -0.0560
 1937DPPE   GL245100  13.977   6.798  10.093  0.0332 -0.1257 -0.0725
 1937DPPE   C1A45101  13.480   6.893   9.902  0.0261  0.2584 -0.4063
 1937DPPE   C2A45102  13.282   7.011   9.567 -0.3773 -0.3334  0.2356
 1937DPPE   C3A45103  13.311   7.308   9.256  0.2424  0.0461 -0.2918
 1937DPPE   C4A45104  12.981   7.587   9.108 -0.0400  0.1891 -0.0278
 1937DPPE   C1B45105  13.683   6.437   9.924 -0.1607 -0.0515 -0.1548
 1937DPPE   C2B45106  13.466   6.117   9.806  0.1536 -0.5617  0.2712
 1937DPPE   C3B45107  12.882   6.049   9.865 -0.0341  0.0155 -0.0554
 1937DPPE   C4B45108  12.645   5.742  10.135  0.0531 -0.0016 -0.0779
 1938DPPE   NH345109  14.816  33.426  16.286  0.0291 -0.0207 -0.2787
 1938DPPE   PO445110  14.909  33.599  16.845  0.0078 -0.2455 -0.1671
 1938DPPE   GL145111  14.722  33.957  16.638  0.2660  0.0312  0.0045
 1938DPPE   GL245112  14.765  34.141  16.788 -0.0605  0.0748 -0.4267
 1938DPPE   C1A45113  14.875  34.153  16.322  0.2167 -0.4568  0.0090
 1938DPPE   C2A45114  14.707  34.467  15.994 -0.2801 -0.0699 -0.2849
 1938DPPE   C3A45115  14.509  34.624  15.597  0.2019  0.2495  0.2395
 1938DPPE   C4A45116  14.187  34.788  15.268  0.3761  0.2879  0.1278
 1938DPPE   C1B45117  14.506  34.458  16.480  0.1405 -0.3436  0.0991
 1938DPPE   C2B45118  14.384  34.761  16.237  0.1858 -0.0928 -0.0641
 1938DPPE   C3B45119  14.421  35.095  16.058 -0.0270  0.0299  0.0220
 1938DPPE   C4B45120  14.223  35.442  15.882 -0.2688 -0.5483 -0.0509
 1939DPPE   NH345121  21.347  15.583  19.961 -0.0442  0.2207  0.1990
 1939DPPE   PO445122  21.127  15.308  20.148  0.0855 -0.3547  0.0579
 1939DPPE   GL145123  21.470  15.582  20.466 -0.1319 -0.3576  0.2087
 1939DPPE   GL245124  21.404  15.904  20.518  0.3935  0.2250  0.1089
 1939DPPE   C1A45125  21.906  15.817  20.656 -0.0511  0.3871  0.2520
 1939DPPE   C2A45126  21.735  16.171  20.901  0.3972 -0.2123 -0.2306
 1939DPPE   C3A45127  21.964  16.421  21.059 -0.0024  0.0239  0.3535
 1939DPPE   C4A45128  22.106  16.666  21.384 -0.0004 -0.0295  0.4426
 1939DPPE   C1B45129  21.520  16.295  20.467  0.1336 -0.0267  0.0006
 1939DPPE   C2B45130  21.733  16.579  20.706 -0.1071 -0.2643  0.2544
 1939DPPE   C3B45131  21.758  16.873  21.104  0.0656 -0.1230  0.1728
 1939DPPE   C4B45132  21.914  17.093  21.415  0.2660  0.0529 -0.0874
 1940DPPE   NH345133  19.760  18.381   6.913 -0.3340 -0.2887 -0.1966
 1940DPPE   PO445134  19.616  18.698   7.168  0.2305 -0.0818  0.0419
 1940DPPE   GL145135  19.517  18.410   7.394 -0.0485  0.2271  0.1929
 1940DPPE   GL245136  19.272  18.213   7.346  0.2601 -0.1174  0.1980
 1940DPPE   C1A45137  19.742  18.099   7.730  0.1268  0.0049 -0.0937
 1940DPPE   C2A45138  19.866  17.740   8.021 -0.0677 -0.2899  0.2458
 1940DPPE   C3A45139  19.984  17.621   8.487  0.1051 -0.1262  0.1303
 1940DPPE   C4A45140  19.794  17.617   8.798 -0.1664 -0.0103  0.0319
 1940DPPE   C1B45141  19.023  17.944   7.697 -0.1043 -0.1278 -0.1138
 1940DPPE   C2B45142  18.770  18.024   8.168 -0.1500 -0.1141 -0.1020
 1940DPPE   C3B45143  18.832  18.037   8.596 -0.0885 -0.0427  0.3570
 1940DPPE   C4B45144  18.851  17.852   9.017 -0.0922 -0.1478 -0.1013
 1941DPPE   NH345145   5.608  14.221  19.105  0.1696 -0.1202 -0.2600
 1941DPPE   PO445146   5.434  14.032  18.661  0.3860  0.1834 -0.0678
 1941DPPE   GL145147   5.875  13.895  18.724  0.3318 -0.0575  0.2743
 1941DPPE   GL245148   6.099  14.149  19.016  0.1315  0.0909 -0.3370
 1941DPPE   C1A45149   6.177  14.092  18.451 -0.1245  0.2894  0.1879
 1941DPPE   C2A45150   6.507  14.294  18.251 -0.1205 -0.2242 -0.1106
 1941DPPE   C3A45151   6.708  14.696  18.281 -0.0701 -0.2179  0.1258
 1941DPPE   C4A45152   6.893  14.880  18.568  0.0500 -0.1549 -0.1998
 1941DPPE   C1B45153   6.489  13.905  18.893  0.1381 -0.3140 -0.3495
 1941DPPE   C2B45154   7.011  13.911  19.030  0.2130 -0.1187 -0.1568
 1941DPPE   C3B45155   7.387  14.183  18.858 -0.2543 -0.2630 -0.1040
 1941DPPE   C4B45156   7.635  14.445  18.639 -0.1569 -0.0689  0.0880
 1942DPPE   NH345157  12.958  14.092  10.026 -0.0443 -0.1098  0.2135
 1942DPPE   PO445158  12.566  14.443  10.133  0.0642 -0.0695  0.0215
 1942DPPE   GL145159  12.335  14.627   9.719 -0.1127  0.2500 -0.1916
 1942DPPE   GL245160  12.463  14.735   9.429  0.2281  0.2701 -0.0061
 1942DPPE   C1A45161  12.073  14.481   9.309 -0.0338 -0.2702  0.3575
 1942DPPE   C2A45162  11.927  14.798   9.001  0.1964 -0.3047  0.0851
 1942DPPE   C3A45163  11.994  15.059   8.598 -0.0635  0.1777  0.0462
 1942DPPE   C4A45164  11.690  15.135   8.280 -0.0545 -0.1308 -0.1256
 1942DPPE   C1B45165  12.404  15.073   9.129  0.0018 -0.1119 -0.2015
 1942DPPE   C2B45166  12.009  15.349   9.130  0.1642 -0.2010  0.0182
 1942DPPE   C3B45167  11.679  15.671   9.295  0.1059 -0.1642  0.1186
 1942DPPE   C4B45168  11.417  16.035   9.525 -0.1359 -0.3282 -0.2995
 1943DPPE   NH345169  26.303  12.757  23.007 -0.4033 -0.1209 -0.0604
 1943DPPE   PO445170  26.376  12.287  23.007  0.1566  0.1588 -0.1462
 1943DPPE   GL145171  25.973  12.335  23.016  0.0932 -0.3754 -0.1681
 1943DPPE   GL245172  25.812  12.635  22.936  0.0704 -0.0628  0.1945
 1943DPPE   C1A45173  25.721  12.113  22.602 -0.0931  0.0313  0.1589
 1943DPPE   C2A45174  25.487  11.775  22.374 -0.1299  0.2209  0.2238
 1943DPPE   C3A45175  25.148  11.638  22.282 -0.1275  0.0529  0.1735
 1943DPPE   C4A45176  24.719  11.693  22.348  0.3284  0.0151 -0.1277
 1943DPPE   C1B45177  25.475  12.656  22.668  0.1295 -0.2074 -0.1755
 1943DPPE   C2B45178  25.049  12.628  22.582 -0.3795  0.0696 -0.2478
 1943DPPE   C3B45179  24.626  12.544  22.774 -0.1240  0.1683 -0.1942
 1943DPPE   C4B45180  24.443  12.261  23.139  0.1516 -0.1025 -0.1369
 1944DPPE   NH345181  17.711  17.784   6.370 -0.0439 -0.0385 -0.0455
 1944DPPE   PO445182  18.003  18.017   6.222 -0.0883  0.1750 -0.2171
 1944DPPE   GL145183  18.099  17.616   6.584 -0.3445  0.2044 -0.1395
 1944DPPE   GL245184  18.388  17.382   6.490 -0.0892 -0.0421 -0.0628
 1944DPPE   C1A45185  18.220  17.540   6.981 -0.0998  0.3151 -0.0251
 1944DPPE   C2A45186  18.076  17.183   7.233 -0.1181  0.2035  0.3852
 1944DPPE   C3A45187  17.953  16.905   7.603 -0.0500  0.0735  0.1772
 1944DPPE   C4A45188  17.966  16.872   8.071  0.1698 -0.5549  0.2992
 1944DPPE   C1B45189  18.724  17.099   6.373 -0.0742  0.1229  0.1687
 1944DPPE   C2B45190  18.789  16.647   6.438 -0.1155 -0.0385  0.4441
 1944DPPE   C3B45191  19.196  16.342   6.515 -0.2347  0.3036 -0.3778
 1944DPPE   C4B45192  19.360  15.963   6.733 -0.1369 -0.0816 -0.1389
 1945DPPE   NH345193   8.157  16.157   8.965 -0.1075  0.1114 -0.0787
 1945DPPE   PO445194   7.676  16.105   9.052  0.0259  0.1587 -0.0395
 1945DPPE   GL145195   7.978  15.851   9.266 -0.0171  0.1177 -0.1405
 1945DPPE   GL245196   8.150  16.161   9.492  0.1607  0.3165  0.2540
 1945DPPE   C1A45197   8.024  15.720   9.654 -0.1589  0.3135 -0.2482
 1945DPPE   C2A45198   8.199  15.537   9.996  0.2230  0.0760  0.1153
 1945DPPE   C3A45199   8.675  15.474   9.944 -0.0961 -0.1709  0.1054
 1945DPPE   C4A45200   8.980  15.215  10.072  0.0604  0.0860  0.0357
 1945DPPE   C1B45201   8.423  15.963   9.652  0.0731 -0.4376  0.2585
 1945DPPE   C2B45202   8.766  15.747   9.537 -0.2386  0.1357 -0.4791
 1945DPPE   C3B45203   9.136  15.601   9.788  0.0014 -0.2750 -0.1120
 1945DPPE   C4B45204   9.443  15.333  10.050 -0.0503  0.0264 -0.2635
 1946DPPE   NH345205   3.766  11.797  15.817 -0.0303  0.0295  0.0731
 1946DPPE   PO445206   3.632  11.332  15.747  0.1384  0.1249 -0.0796
 1946DPPE   GL145207   3.759  11.128  15.402  0.5082 -0.1581 -0.1511
 1946DPPE   GL245208   3.414  11.021  15.407  0.1367  0.0823 -0.3646
 1946DPPE   C1A45209   4.153  11.032  15.284  0.3718  0.0441  0.1159
 1946DPPE   C2A45210   4.396  10.620  15.192  0.0166 -0.1320  0.1867
 1946DPPE   C3A45211   4.479  10.266  15.185  0.0795  0.1615  0.0947
 1946DPPE   C4A45212   4.270   9.842  15.225 -0.2225  0.2106  0.3000
 1946DPPE   C1B45213   3.359  10.569  15.571 -0.1568 -0.0681  0.1998
 1946DPPE   C2B45214   3.626  10.161  15.557 -0.4246 -0.1818 -0.3187
 1946DPPE   C3B45215   3.814   9.772  15.499 -0.0288  0.2018 -0.2498
 1946DPPE   C4B45216   3.855   9.343  15.650 -0.0486 -0.1717 -0.1934
 1947DPPE   NH345217  10.489   9.125  12.805 -0.3833 -0.0388 -0.0245
 1947DPPE   PO445218  10.678   8.785  12.646 -0.0010  0.1064 -0.4177
 1947DPPE   GL145219  10.300   8.787  12.471 -0.1549 -0.2881  0.0150
 1947DPPE   GL245220  10.219   9.184  12.353  0.0793  0.1471 -0.1203
 1947DPPE   C1A45221   9.852   8.767  12.362 -0.0436 -0.0917 -0.1497
 1947DPPE   C2A45222   9.629   8.631  12.036  0.1098 -0.3912 -0.0374
 1947DPPE   C3A45223   9.500   8.496  11.689  0.1711  0.0811  0.2625
 1947DPPE   C4A45224   9.335   8.541  11.249 -0.3569 -0.2777  0.2035
 1947DPPE   C1B45225   9.750   9.357  12.352  0.2532 -0.1064  0.0624
 1947DPPE   C2B45226   9.512   9.053  12.188 -0.0530  0.0991  0.3234
 1947DPPE   C3B45227   9.438   9.007  11.743 -0.1402 -0.1682  0.0102
 1947DPPE   C4B45228   9.075   8.838  11.493 -0.1941  0.2800  0.2858
 1948DPPE   NH345229   9.003  10.425  15.079 -0.0281 -0.0678  0.1635
 1948DPPE   PO445230   8.699  10.403  15.414 -0.0188  0.0779  0.4249
 1948DPPE   GL145231   8.384  10.210  15.196 -0.0302 -0.0960  0.3341
 1948DPPE   GL245232   8.249   9.911  15.080 -0.2185 -0.0792 -0.1188
 1948DPPE   C1A45233   7.931  10.317  15.190  0.1797  0.1175 -0.1252
 1948DPPE   C2A45234   7.617  10.348  15.073 -0.4542  0.3531 -0.0922
 1948DPPE   C3A45235   7.377  10.718  15.146  0.2020  0.0114  0.0256
 1948DPPE   C4A45236   6.955  11.021  15.230  0.1067  0.0217  0.3419
 1948DPPE   C1B45237   7.906   9.933  14.875 -0.1378  0.1439  0.1013
 1948DPPE   C2B45238   7.467   9.994  14.798  0.2073  0.0653 -0.0590
 1948DPPE   C3B45239   7.048  10.168  15.019  0.1404  0.2998 -0.2629
 1948DPPE   C4B45240   6.715  10.093  14.972  0.2884 -0.4366  0.0979
 1949DPPE   NH345241  20.870   8.674  22.106 -0.2236  0.0146 -0.1644
 1949DPPE   PO445242  21.084   8.583  22.526  0.0489 -0.1504  0.1534
 1949DPPE   GL145243  20.933   8.409  22.898 -0.1330  0.1197  0.3212
 1949DPPE   GL245244  20.732   8.131  22.794  0.1849 -0.0843 -0.0748
 1949DPPE   C1A45245  21.260   8.407  23.155  0.0120 -0.2328 -0.2620
 1949DPPE   C2A45246  21.456   8.513  23.635  0.1428 -0.0397 -0.1088
 1949DPPE   C3A45247  21.503   8.438  24.143 -0.1389 -0.4272  0.1022
 1949DPPE   C4A45248  21.510   8.482  24.479  0.1159 -0.1698 -0.0873
 1949DPPE   C1B45249  21.167   7.961  22.967  0.1884  0.0416  0.0693
 1949DPPE   C2B45250  21.362   7.593  23.082  0.2508 -0.0224 -0.2741
 1949DPPE   C3B45251  21.559   7.326  23.349 -0.0546  0.2681  0.1922
 1949DPPE   C4B45252  21.926   7.255  23.324  0.2136 -0.1105 -0.0944
 1950DPPE   NH345253  23.360  11.068  20.185  0.1272  0.4674  0.2419
 1950DPPE   PO445254  23.310  10.692  20.161 -0.0414 -0.0447 -0.0353
 1950DPPE   GL145255  23.685  10.635  20.160 -0.0630 -0.0136  0.0882
 1950DPPE   GL245256  23.785  10.348  20.323 -0.1272  0.1444  0.0640
 1950DPPE   C1A45257  24.200  10.680  20.239 -0.2242  0.3354 -0.0097
 1950DPPE   C2A45258  24.516  10.657  20.571 -0.2511  0.0027  0.0451
 1950DPPE   C3A45259  24.834  10.592  20.837  0.1328  0.1414 -0.2302
 1950DPPE   C4A45260  24.878  10.769  21.172 -0.1421  0.0059  0.0646
 1950DPPE   C1B45261  23.830  10.256  20.766  0.3470  0.0328 -0.1219
 1950DPPE   C2B45262  24.090  10.186  21.184  0.1505 -0.0512  0.1246
 1950DPPE   C3B45263  24.300  10.125  21.538 -0.0355  0.1475  0.0943
 1950DPPE   C4B45264  24.360   9.951  21.991  0.0085  0.2639 -0.0598
 1951DPPE   NH345265  17.457   8.455  23.366 -0.1552 -0.3079 -0.0538
 1951DPPE   PO445266  17.385   8.816  23.469  0.2192 -0.1506 -0.0319
 1951DPPE   GL145267  17.552   8.899  23.818  0.1074 -0.2211 -0.1127
 1951DPPE   GL245268  17.549   9.165  23.926 -0.0900 -0.0876 -0.0592
 1951DPPE   C1A45269  17.812   8.758  24.110  0.0467  0.4265 -0.0669
 1951DPPE   C2A45270  18.177   8.651  24.429 -0.0740 -0.1795  0.0502
 1951DPPE   C3A45271  18.420   8.389  24.675  0.4050 -0.2513 -0.2361
 1951DPPE   C4A45272  18.571   7.938  24.545  0.0662  0.3129  0.0277
 1951DPPE   C1B45273  17.809   9.242  24.223  0.1316  0.0030 -0.0773
 1951DPPE   C2B45274  18.127   9.160  24.546  0.1391 -0.1507 -0.0744
 1951DPPE   C3B45275  18.329   9.070  24.937 -0.4316 -0.5721 -0.2505
 1951DPPE   C4B45276  18.079   9.050  25.335  0.1665  0.1231  0.0830
 1952DPPE   NH345277  13.404   4.245  13.841  0.0961  0.4328 -0.1225
 1952DPPE   PO445278  13.369   3.821  13.909 -0.3305  0.0298  0.1385
 1952DPPE   GL145279  13.094   3.719  13.628  0.1693  0.0776 -0.0434
 1952DPPE   GL245280  13.100   3.848  13.384 -0.1331 -0.0744 -0.1538
 1952DPPE   C1A45281  12.819   3.294  13.613  0.2127  0.2904  0.2424
 1952DPPE   C2A45282  12.630   3.031  13.204  0.2905 -0.1376 -0.2852
 1952DPPE   C3A45283  12.438   2.695  13.048  0.2968  0.4642 -0.0736
 1952DPPE   C4A45284  12.208   2.203  13.019  0.0003  0.2425 -0.0447
 1952DPPE   C1B45285  12.829   3.711  13.109  0.0992  0.1878  0.0901
 1952DPPE   C2B45286  12.698   3.382  12.903  0.1522 -0.1238 -0.2001
 1952DPPE   C3B45287  12.371   3.309  12.752  0.0598  0.0935 -0.0394
 1952DPPE   C4B45288  11.958   3.188  12.722  0.1871  0.0681 -0.0033
 1953DPPE   NH345289  22.958  14.429  13.225 -0.5427 -0.1437  0.1709
 1953DPPE   PO445290  22.721  14.365  12.938 -0.2120  0.1085  0.2667
 1953DPPE   GL145291  23.013  14.277  12.615 -0.0245 -0.0237  0.4033
 1953DPPE   GL245292  22.758  14.240  12.365  0.0508 -0.1964  0.0478
 1953DPPE   C1A45293  23.207  14.532  12.325  0.2221  0.2018  0.2094
 1953DPPE   C2A45294  23.465  14.637  12.016  0.0762 -0.5247  0.1675
 1953DPPE   C3A45295  23.790  15.004  12.092 -0.3157 -0.3879  0.2147
 1953DPPE   C4A45296  24.189  15.224  11.904  0.0533 -0.1397  0.3588
 1953DPPE   C1B45297  22.688  14.547  12.027 -0.3153 -0.1767 -0.0040
 1953DPPE   C2B45298  22.920  14.880  11.829  0.1389 -0.0029 -0.4891
 1953DPPE   C3B45299  22.886  15.045  11.364  0.0064  0.3036  0.0030
 1953DPPE   C4B45300  22.834  15.092  10.955  0.3407 -0.1022  0.3575
 1954DPPE   NH345301  15.476   3.437  19.797 -0.1205 -0.0829  0.0984
 1954DPPE   PO445302  15.084   3.414  20.067  0.2919  0.0143 -0.0200
 1954DPPE   GL145303  15.096   3.081  20.379  0.0916 -0.0396 -0.0593
 1954DPPE   GL245304  14.965   2.746  20.207 -0.0424 -0.1703 -0.0071
 1954DPPE   C1A45305  15.344   2.814  20.620  0.2242  0.2291  0.0848
 1954DPPE   C2A45306  15.240   2.663  21.083  0.1216 -0.1359  0.1432
 1954DPPE   C3A45307  14.932   2.619  21.400 -0.4079  0.0062  0.1406
 1954DPPE   C4A45308  14.557   2.516  21.602  0.1816 -0.2338  0.1367
 1954DPPE   C1B45309  14.791   2.528  20.552 -0.2463  0.4027 -0.0469
 1954DPPE   C2B45310  14.949   2.272  20.918 -0.2041 -0.2773 -0.1462
 1954DPPE   C3B45311  14.758   2.133  21.376 -0.3272 -0.0523 -0.0767
 1954DPPE   C4B45312  14.679   2.040  21.739 -0.1059 -0.3316 -0.0870
 1955DPPE   NH345313   9.625   9.060  20.410 -0.0693 -0.0383 -0.2119
 1955DPPE   PO445314   9.934   8.699  20.382 -0.3115  0.0396  0.0338
 1955DPPE   GL145315   9.740   8.732  20.773 -0.0813  0.1111 -0.0277
 1955DPPE   GL245316   9.825   8.988  20.897  0.1312  0.1819  0.1646
 1955DPPE   C1A45317   9.415   8.546  21.049 -0.0286 -0.0611  0.4001
 1955DPPE   C2A45318   9.144   8.657  21.394 -0.0841 -0.0630  0.0002
 1955DPPE   C3A45319   8.771   8.717  21.561  0.0351 -0.0635 -0.2005
 1955DPPE   C4A45320   8.402   8.606  21.696  0.1674  0.1622 -0.0649
 1955DPPE   C1B45321   9.498   9.032  21.261  0.1138  0.0223  0.0643
 1955DPPE   C2B45322   9.161   9.127  21.490 -0.2552  0.1328  0.1946
 1955DPPE   C3B45323   8.665   9.186  21.484 -0.1379  0.1385 -0.0711
 1955DPPE   C4B45324   8.545   9.489  21.689 -0.1950 -0.0579  0.1727
 1956DPPE   NH345325  20.036  35.288   9.444 -0.1087 -0.0004 -0.0897
 1956DPPE   PO445326  19.902  34.942   9.693 -0.1224  0.1546  0.3529
 1956DPPE   GL145327  19.513  35.074   9.656 -0.0649  0.2928  0.2367
 1956DPPE   GL245328  19.553  35.397   9.522  0.0974 -0.0583  0.0122
 1956DPPE   C1A45329  19.275  35.428   9.911  0.3727 -0.2929 -0.0191
 1956DPPE   C2A45330  19.097  35.565  10.353 -0.0169 -0.0552  0.3965
 1956DPPE   C3A45331  19.114  36.020  10.605 -0.1617 -0.3380 -0.3855
 1956DPPE   C4A45332  19.122  36.433  10.573  0.0343  0.1205  0.0212
 1956DPPE   C1B45333  19.082  35.313   9.488 -0.0041  0.0557 -0.1848
 1956DPPE   C2B45334  18.626  35.212   9.240 -0.3235  0.0384 -0.0755
 1956DPPE   C3B45335  18.213  35.217   9.293  0.1169 -0.1826 -0.2554
 1956DPPE   C4B45336  18.033  35.668   9.301 -0.1132 -0.0515 -0.0704
 1957DPPE   NH345337  12.726   3.984  14.449 -0.1097  0.0639  0.1296
 1957DPPE   PO445338  12.615   4.388  14.158 -0.0279  0.3064  0.0929
 1957DPPE   GL145339  12.318   4.169  14.003 -0.3349  0.0254 -0.0787
 1957DPPE   GL245340  12.012   4.231  14.078  0.1737 -0.1147  0.0342
 1957DPPE   C1A45341  12.090   3.879  13.680 -0.0894  0.0001  0.0681
 1957DPPE   C2A45342  11.886   3.803  13.336  0.0314  0.1848  0.1591
 1957DPPE   C3A45343  11.742   3.581  12.994 -0.0654 -0.2264  0.1102
 1957DPPE   C4A45344  11.376   3.370  12.759  0.0573 -0.2487 -0.0884
 1957DPPE   C1B45345  11.657   4.131  13.711  0.1496  0.2571  0.1701
 1957DPPE   C2B45346  11.412   3.793  13.428  0.1459  0.1889 -0.1192
 1957DPPE   C3B45347  11.241   3.411  13.382  0.1016 -0.2928  0.0304
 1957DPPE   C4B45348  11.290   3.156  13.669 -0.0298  0.2872 -0.0267
 1958DPPE   NH345349  20.247  34.392  13.108  0.1317 -0.2779  0.0575
 1958DPPE   PO445350  19.919  34.454  12.891  0.1023 -0.0776 -0.2372
 1958DPPE   GL145351  19.814  34.642  13.241  0.0471 -0.0537 -0.0201
 1958DPPE   GL245352  19.647  34.856  13.131  0.2011 -0.0694  0.3558
 1958DPPE   C1A45353  19.790  34.878  13.592  0.0405 -0.1561  0.2230
 1958DPPE   C2A45354  19.453  35.045  13.750 -0.1680 -0.0577 -0.2742
 1958DPPE   C3A45355  19.078  35.341  13.732  0.1423 -0.2939 -0.1442
 1958DPPE   C4A45356  18.802  35.544  14.091 -0.0865  0.2675 -0.0675
 1958DPPE   C1B45357  19.393  35.220  13.263 -0.2575  0.1362 -0.2740
 1958DPPE   C2B45358  19.216  35.610  13.233 -0.1593  0.3082 -0.1517
 1958DPPE   C3B45359  19.063  35.681  12.907 -0.3019  0.1644 -0.2246
 1958DPPE   C4B45360  18.768  35.873  12.638  0.1257 -0.1412  0.1021
 1959DPPE   NH345361  17.871  22.142  13.162  0.0302 -0.4578 -0.1051
 1959DPPE   PO445362  18.043  22.461  13.444 -0.0816  0.1054 -0.2514
 1959DPPE   GL145363  18.137  22.053  13.555  0.0985 -0.2342 -0.0267
 1959DPPE   GL245364  17.865  21.739  13.499 -0.1026  0.0427 -0.1379
 1959DPPE   C1A45365  18.297  21.638  13.511 -0.0264 -0.0504 -0.0527
 1959DPPE   C2A45366  18.419  21.309  13.816  0.0158 -0.1800 -0.1274
 1959DPPE   C3A45367  18.349  21.014  14.181 -0.2683 -0.2261 -0.0493
 1959DPPE   C4A45368  18.417  20.674  14.232 -0.2420  0.3488  0.1624
 1959DPPE   C1B45369  17.873  21.388  13.694  0.2452  0.1103 -0.1902
 1959DPPE   C2B45370  18.052  20.929  13.756 -0.1051 -0.2373 -0.0378
 1959DPPE   C3B45371  18.543  20.724  13.751 -0.1507  0.2783 -0.1177
 1959DPPE   C4B45372  18.648  20.408  13.483  0.0176 -0.2453 -0.2713
 1960DPPE   NH345373  12.243   3.024   2.034 -0.0462 -0.1087  0.1897
 1960DPPE   PO445374  12.042   3.306   1.822 -0.1576  0.1019  0.0387
 1960DPPE   GL145375  11.882   3.621   1.962 -0.1154 -0.0864 -0.4998
 1960DPPE   GL245376  12.042   3.924   1.940 -0.2840 -0.1374 -0.0334
 1960DPPE   C1A45377  11.863   3.709   2.411 -0.1715 -0.0841  0.1855
 1960DPPE   C2A45378  12.143   3.818   2.775 -0.0548 -0.1606 -0.0869
 1960DPPE   C3A45379  12.325   3.992   3.117  0.2468  0.2074 -0.5556
 1960DPPE   C4A45380  12.711   4.218   3.082 -0.2364  0.1322  0.1308
 1960DPPE   C1B45381  12.149   4.083   2.382 -0.0116 -0.0338 -0.0837
 1960DPPE   C2B45382  12.385   4.335   2.656 -0.0770 -0.1718  0.0232
 1960DPPE   C3B45383  12.910   4.480   2.747  0.1434 -0.1397 -0.0992
 1960DPPE   C4B45384  13.409   4.472   2.889  0.1393  0.1975  0.0224
 1961DPPE   NH345385  23.592  11.289  19.746  0.4198 -0.0119  0.5436
 1961DPPE   PO445386  23.485  10.832  19.715  0.0821  0.1370  0.0938
 1961DPPE   GL145387  23.981  10.946  19.750 -0.1200  0.1240 -0.0836
 1961DPPE   GL245388  24.339  10.790  19.586 -0.0630 -0.1756 -0.0906
 1961DPPE   C1A45389  24.201  11.421  19.869 -0.1635  0.1206 -0.0736
 1961DPPE   C2A45390  24.593  11.571  19.941  0.3641 -0.1130 -0.1356
 1961DPPE   C3A45391  25.018  11.765  20.059 -0.2771  0.0645 -0.1638
 1961DPPE   C4A45392  25.429  11.679  20.064 -0.1680  0.0570 -0.1082
 1961DPPE   C1B45393  24.569  11.059  19.844 -0.0612 -0.1067  0.1548
 1961DPPE   C2B45394  24.949  11.293  20.077  0.0153 -0.1973  0.1844
 1961DPPE   C3B45395  25.414  11.169  20.253 -0.2394 -0.3567  0.1892
 1961DPPE   C4B45396  25.787  10.971  20.217  0.0867  0.1674  0.2094
 1962DPPE   NH345397  20.648  34.993  13.242 -0.3414 -0.2956 -0.1226
 1962DPPE   PO445398  20.278  34.893  13.015  0.0408  0.2172 -0.0759
 1962DPPE   GL145399  20.027  35.221  12.874  0.1664 -0.1033 -0.2057
 1962DPPE   GL245400  19.709  35.153  12.582 -0.0029 -0.3621  0.1856
 1962DPPE   C1A45401  20.091  35.665  13.000  0.2095  0.2112  0.0792
 1962DPPE   C2A45402  20.027  35.987  13.099  0.1686 -0.0823 -0.3538
 1962DPPE   C3A45403  20.333  36.177  13.369 -0.1645 -0.0669 -0.0611
 1962DPPE   C4A45404  20.202  36.450  13.589  0.0025 -0.1348 -0.0346
 1962DPPE   C1B45405  19.263  35.150  12.599 -0.2348  0.3527  0.1009
 1962DPPE   C2B45406  18.929  35.414  12.412 -0.3065  0.0693  0.0639
 1962DPPE   C3B45407  18.771  35.377  12.096  0.0399 -0.3177  0.1177
 1962DPPE   C4B45408  18.991  35.270  11.781 -0.0822  0.0632  0.1461
 1963DPPE   NH345409  24.028   1.591  19.238 -0.2457  0.0726  0.2109
 1963DPPE   PO445410  23.866   1.228  19.081  0.0230  0.0749  0.1490
 1963DPPE   GL145411  23.672   1.242  18.711 -0.1096 -0.0083  0.0206
 1963DPPE   GL245412  23.472   1.105  18.613 -0.1115 -0.0061  0.1737
 1963DPPE   C1A45413  23.769   1.652  18.407 -0.3062 -0.0376 -0.3628
 1963DPPE   C2A45414  23.525   2.063  18.238 -0.0813  0.1594 -0.1691
 1963DPPE   C3A45415  23.127   2.235  18.078 -0.0280 -0.1406 -0.0041
 1963DPPE   C4A45416  22.776   2.168  17.902  0.2469 -0.2884 -0.1214
 1963DPPE   C1B45417  23.203   1.381  18.752 -0.1251 -0.0427  0.0804
 1963DPPE   C2B45418  22.802   1.540  18.609 -0.2388  0.0133 -0.1207
 1963DPPE   C3B45419  22.476   1.858  18.505 -0.1669 -0.2283 -0.0708
 1963DPPE   C4B45420  22.062   2.155  18.360 -0.3324  0.0221  0.1893
 1964DPPE   NH345421   7.974   9.386  17.495  0.1122  0.1062 -0.0674
 1964DPPE   PO445422   7.866   9.074  17.807  0.2141 -0.0292  0.0044
 1964DPPE   GL145423   7.599   9.437  17.841 -0.1209  0.0577 -0.0163
 1964DPPE   GL245424   7.422   9.309  17.650  0.3617  0.2150 -0.0710
 1964DPPE   C1A45425   7.092   9.465  18.043  0.0564 -0.1295  0.0751
 1964DPPE   C2A45426   6.682   9.568  18.135 -0.0027 -0.2990 -0.1987
 1964DPPE   C3A45427   6.567   9.606  18.528 -0.1113  0.0509  0.0823
 1964DPPE   C4A45428   6.649   9.671  18.999  0.1120  0.0229  0.1980
 1964DPPE   C1B45429   7.103   9.077  17.719  0.0755  0.2454  0.0261
 1964DPPE   C2B45430   6.854   8.866  17.927 -0.1736 -0.2478 -0.4509
 1964DPPE   C3B45431   6.446   8.644  18.019 -0.1438  0.0676 -0.0337
 1964DPPE   C4B45432   6.207   8.363  17.753  0.0326  0.1303 -0.4792
 1965DPPE   NH345433  13.171   1.553  16.577 -0.0779 -0.0976  0.2352
 1965DPPE   PO445434  13.133   1.742  16.925 -0.1871  0.0815  0.1824
 1965DPPE   GL145435  12.961   1.316  17.031  0.1486  0.0174  0.1444
 1965DPPE   GL245436  13.065   1.112  16.806  0.1304 -0.1626  0.3357
 1965DPPE   C1A45437  12.779   0.906  17.162 -0.2080  0.0787  0.1444
 1965DPPE   C2A45438  12.590   0.606  17.404 -0.0465  0.1561  0.1924
 1965DPPE   C3A45439  12.467   0.588  17.844 -0.0822 -0.2981  0.0183
 1965DPPE   C4A45440  12.196   0.259  18.080  0.0712  0.0550  0.0158
 1965DPPE   C1B45441  12.966   0.810  16.457 -0.0036 -0.0580  0.1066
 1965DPPE   C2B45442  12.939   0.329  16.415  0.0380 -0.1368 -0.1082
 1965DPPE   C3B45443  12.800  -0.003  16.660  0.2248 -0.0738  0.0274
 1965DPPE   C4B45444  12.476  -0.158  16.590  0.1254 -0.2386  0.0194
 1966DPPE   NH345445  21.987  16.671  24.707 -0.1110  0.1300  0.2545
 1966DPPE   PO445446  21.972  16.462  25.074  0.1465 -0.1847  0.2282
 1966DPPE   GL145447  21.637  16.290  24.830 -0.0568 -0.0366  0.0359
 1966DPPE   GL245448  21.734  15.957  24.877 -0.0056 -0.0763 -0.2967
 1966DPPE   C1A45449  21.227  16.153  24.783  0.1519 -0.1291 -0.0421
 1966DPPE   C2A45450  20.949  15.815  24.665  0.0822  0.0191  0.1691
 1966DPPE   C3A45451  20.618  15.699  24.400  0.1220 -0.3131  0.2495
 1966DPPE   C4A45452  20.211  15.473  24.330  0.0640  0.0091 -0.0001
 1966DPPE   C1B45453  21.418  15.728  24.748  0.1340 -0.4138 -0.0503
 1966DPPE   C2B45454  21.412  15.346  24.580 -0.0672  0.3396  0.0041
 1966DPPE   C3B45455  21.421  15.211  24.104  0.0006 -0.0312  0.0763
 1966DPPE   C4B45456  21.178  15.138  23.714 -0.2978  0.0347  0.2948
 1967DPPE   NH345457  11.824   7.905  11.574  0.1579  0.3387  0.1063
 1967DPPE   PO445458  12.312   7.867  11.622 -0.1641 -0.1649  0.1788
 1967DPPE   GL145459  12.261   7.561  11.254  0.1136  0.1226 -0.0172
 1967DPPE   GL245460  12.369   7.594  10.812 -0.2317 -0.0787  0.1628
 1967DPPE   C1A45461  12.013   7.289  10.896  0.0164 -0.2510  0.0612
 1967DPPE   C2A45462  11.847   7.117  10.496  0.0977 -0.0209 -0.0095
 1967DPPE   C3A45463  11.578   6.883  10.133 -0.1497 -0.0162  0.0301
 1967DPPE   C4A45464  11.460   6.819   9.711 -0.4093 -0.2099  0.1548
 1967DPPE   C1B45465  12.260   7.443  10.388  0.5249  0.0512  0.2241
 1967DPPE   C2B45466  12.027   7.371  10.088  0.1361 -0.0870 -0.0363
 1967DPPE   C3B45467  11.804   7.150   9.775 -0.1579  0.3067  0.2527
 1967DPPE   C4B45468  11.741   7.169   9.302  0.1113  0.2077 -0.0313
 1968DPPE   NH345469  14.165  20.680  22.956 -0.3274 -0.4151  0.1279
 1968DPPE   PO445470  14.188  20.263  22.990 -0.1824  0.4605  0.2338
 1968DPPE   GL145471  14.059  20.151  22.695 -0.2483  0.1131  0.1352
 1968DPPE   GL245472  13.824  20.302  22.582 -0.2253 -0.0007 -0.1068
 1968DPPE   C1A45473  14.215  20.106  22.299  0.1533 -0.1588 -0.0161
 1968DPPE   C2A45474  14.434  19.869  22.057 -0.0496 -0.0356  0.1030
 1968DPPE   C3A45475  14.404  19.544  21.872  0.0321 -0.0118 -0.1327
 1968DPPE   C4A45476  14.300  19.215  21.587  0.0048  0.0524 -0.1018
 1968DPPE   C1B45477  13.783  19.878  22.400  0.0400  0.0170 -0.1726
 1968DPPE   C2B45478  14.085  19.620  22.495 -0.0517  0.0510 -0.0144
 1968DPPE   C3B45479  14.531  19.477  22.330 -0.0556  0.2251 -0.2141
 1968DPPE   C4B45480  14.686  19.027  22.472  0.4032  0.4943  0.1414
 1969DPPE   NH345481  20.978   6.329  20.929  0.0179  0.2538  0.2732
 1969DPPE   PO445482  20.968   6.766  21.048  0.0028  0.0864 -0.0706
 1969DPPE   GL145483  21.033   6.537  21.454 -0.0751 -0.1067 -0.4244
 1969DPPE   GL245484  20.969   6.146  21.391 -0.2878  0.0443 -0.2449
 1969DPPE   C1A45485  21.364   6.296  21.727  0.3019  0.3135  0.0980
 1969DPPE   C2A45486  21.737   6.064  21.796  0.3186  0.3088  0.1832
 1969DPPE   C3A45487  21.789   5.605  21.917 -0.1208 -0.0407  0.1475
 1969DPPE   C4A45488  21.966   5.279  22.256  0.2868 -0.1339 -0.4458
 1969DPPE   C1B45489  21.312   5.846  21.552  0.1902 -0.4143 -0.2554
 1969DPPE   C2B45490  21.308   5.741  21.952 -0.2269  0.0275 -0.0016
 1969DPPE   C3B45491  21.441   5.587  22.300 -0.1139  0.1733 -0.2643
 1969DPPE   C4B45492  21.606   5.454  22.566 -0.0605  0.0054  0.0124
 1970DPPE   NH345493  10.513   5.968  16.648  0.2790  0.0254  0.0111
 1970DPPE   PO445494  10.507   5.642  16.364 -0.0741 -0.2663  0.2758
 1970DPPE   GL145495  10.150   5.308  16.390 -0.0838 -0.0409 -0.2865
 1970DPPE   GL245496   9.858   5.454  16.374 -0.0589  0.1912  0.1177
 1970DPPE   C1A45497   9.983   4.790  16.310 -0.0881  0.2773  0.0988
 1970DPPE   C2A45498   9.965   4.369  16.251 -0.3592  0.1465  0.2567
 1970DPPE   C3A45499  10.115   4.072  16.438 -0.2114 -0.2990 -0.0223
 1970DPPE   C4A45500   9.915   3.780  16.603  0.1326  0.2161 -0.3129
 1970DPPE   C1B45501   9.668   5.099  16.145 -0.0837 -0.2404  0.0681
 1970DPPE   C2B45502   9.236   4.988  15.966 -0.2734 -0.2511 -0.3107
 1970DPPE   C3B45503   8.875   4.846  16.036 -0.0058 -0.1448  0.0212
 1970DPPE   C4B45504   8.666   4.605  16.420  0.2847 -0.2587  0.1517
 1971DPPE   NH345505  14.709   5.276  11.215  0.2961 -0.0159 -0.1928
 1971DPPE   PO445506  15.137   5.380  11.107  0.1896  0.1372  0.0936
 1971DPPE   GL145507  15.023   5.103  10.743  0.0147 -0.1334  0.1304
 1971DPPE   GL245508  15.316   4.944  10.723 -0.0604  0.4432 -0.2146
 1971DPPE   C1A45509  14.857   4.680  10.775 -0.1373 -0.0004  0.1525
 1971DPPE   C2A45510  14.613   4.359  10.569 -0.1910  0.0941  0.0910
 1971DPPE   C3A45511  14.312   4.216  10.243  0.0886 -0.1975 -0.1308
 1971DPPE   C4A45512  14.266   3.910   9.989 -0.0390 -0.0496  0.0603
 1971DPPE   C1B45513  15.330   4.770  10.443  0.3275  0.2781 -0.1569
 1971DPPE   C2B45514  14.916   4.727  10.287  0.1040  0.2222  0.5650
 1971DPPE   C3B45515  14.591   4.594  10.026 -0.3383  0.0624  0.2437
 1971DPPE   C4B45516  14.386   4.963   9.979 -0.0092 -0.1356 -0.0498
 1972DPPE   NH345517  16.979   2.170  12.275  0.1069 -0.1423 -0.2090
 1972DPPE   PO445518  16.682   2.194  12.655 -0.0724  0.2248 -0.2179
 1972DPPE   GL145519  16.634   1.820  12.465 -0.0332  0.0602 -0.2534
 1972DPPE   GL245520  16.724   1.497  12.629  0.0642 -0.2525  0.0595
 1972DPPE   C1A45521  16.439   1.441  12.213 -0.0759 -0.0319  0.2696
 1972DPPE   C2A45522  16.548   1.395  11.725 -0.0050 -0.2982  0.0162
 1972DPPE   C3A45523  16.553   0.999  11.575  0.2367 -0.2916 -0.0030
 1972DPPE   C4A45524  16.679   0.847  11.194  0.0804 -0.1229 -0.0824
 1972DPPE   C1B45525  16.403   1.072  12.587  0.1515 -0.1740  0.0033
 1972DPPE   C2B45526  16.117   0.960  12.290  0.0377  0.0747 -0.1549
 1972DPPE   C3B45527  15.702   0.758  12.386  0.1144  0.2788  0.2367
 1972DPPE   C4B45528  15.342   0.860  12.714  0.0827 -0.2893 -0.0383
 1973DPPE   NH345529  16.423  35.568   3.576  0.0694 -0.1541 -0.1196
 1973DPPE   PO445530  16.439  35.312   3.972 -0.0167 -0.0983 -0.0032
 1973DPPE   GL145531  16.209  35.519   4.299  0.0280  0.0971  0.0920
 1973DPPE   GL245532  15.826  35.408   4.415  0.2827  0.2422 -0.1150
 1973DPPE   C1A45533  16.364  35.441   4.761  0.1402  0.1154 -0.0649
 1973DPPE   C2A45534  16.384  35.694   5.112 -0.1663 -0.1984 -0.2087
 1973DPPE   C3A45535  16.228  36.098   5.252  0.0924 -0.1627  0.3576
 1973DPPE   C4A45536  16.378  36.555   5.421 -0.0109 -0.0529 -0.2266
 1973DPPE   C1B45537  15.620  35.726   4.479  0.0114 -0.3194 -0.0129
 1973DPPE   C2B45538  15.703  36.153   4.403 -0.4469 -0.2007 -0.0323
 1973DPPE   C3B45539  15.479  36.499   4.212  0.0466  0.2030 -0.0452
 1973DPPE   C4B45540  15.563  36.907   4.242 -0.1314 -0.0175  0.1302
 1974DPPE   NH345541   8.140  35.021  17.640  0.5199 -0.0661  0.3227
 1974DPPE   PO445542   7.907  34.787  17.484  0.1463 -0.0759  0.1308
 1974DPPE   GL145543   8.210  34.766  17.182  0.3895  0.0856  0.0692
 1974DPPE   GL245544   8.229  35.092  17.059 -0.1451  0.4406  0.1798
 1974DPPE   C1A45545   8.616  34.773  16.813 -0.2206  0.1851  0.1130
 1974DPPE   C2A45546   8.961  34.901  16.871 -0.1160  0.1973 -0.2171
 1974DPPE   C3A45547   9.339  35.180  17.141 -0.2931 -0.1912  0.2082
 1974DPPE   C4A45548   9.151  35.532  17.487  0.0015 -0.1610 -0.1268
 1974DPPE   C1B45549   8.430  35.277  16.812  0.0872  0.0813 -0.1906
 1974DPPE   C2B45550   8.692  35.157  16.534  0.0008  0.0636  0.0043
 1974DPPE   C3B45551   9.179  35.206  16.387  0.2130  0.2708 -0.3321
 1974DPPE   C4B45552   9.446  34.914  16.653  0.0334  0.0431  0.2472
 1975DPPE   NH345553  15.246   2.871  13.507 -0.1699  0.0535  0.0436
 1975DPPE   PO445554  14.989   3.312  13.530 -0.2358 -0.3386 -0.1094
 1975DPPE   GL145555  14.701   2.967  13.454 -0.2400 -0.4022 -0.2249
 1975DPPE   GL245556  14.791   2.856  13.848  0.0092  0.0494 -0.1852
 1975DPPE   C1A45557  14.494   2.741  13.191 -0.2581 -0.1056  0.0927
 1975DPPE   C2A45558  14.356   2.584  12.808  0.1931 -0.2035 -0.1396
 1975DPPE   C3A45559  14.432   2.273  12.497  0.3806 -0.1552  0.4908
 1975DPPE   C4A45560  14.243   2.051  12.173  0.2855 -0.1656 -0.0940
 1975DPPE   C1B45561  14.612   2.452  13.609 -0.0146  0.3345  0.1534
 1975DPPE   C2B45562  14.379   2.267  13.349 -0.1978  0.0086 -0.1743
 1975DPPE   C3B45563  14.332   2.059  12.976  0.0075 -0.4844  0.1005
 1975DPPE   C4B45564  14.213   1.706  12.708  0.0502  0.0026  0.2985
 1976DPPE   NH345565   6.464   0.396   7.806 -0.1872  0.1212  0.3537
 1976DPPE   PO445566   6.747   0.279   7.577 -0.1944 -0.0696  0.1137
 1976DPPE   GL145567   7.011   0.598   7.843  0.1429 -0.0502  0.1776
 1976DPPE   GL245568   6.795   0.818   7.777 -0.3112  0.1822 -0.2785
 1976DPPE   C1A45569   7.387   0.723   8.040  0.3401 -0.2368 -0.0875
 1976DPPE   C2A45570   7.703   1.010   8.141  0.2728 -0.4380  0.3370
 1976DPPE   C3A45571   8.050   1.014   8.515  0.3030 -0.2695 -0.2659
 1976DPPE   C4A45572   8.326   0.980   8.691 -0.1355 -0.4211 -0.3401
 1976DPPE   C1B45573   7.117   1.112   7.972  0.0734  0.0464  0.0271
 1976DPPE   C2B45574   7.174   1.362   8.455 -0.3157 -0.1709 -0.0553
 1976DPPE   C3B45575   7.194   1.725   8.764  0.0361  0.1374  0.0596
 1976DPPE   C4B45576   7.587   1.643   9.082 -0.0271  0.1305  0.2064
 1977DPPE   NH345577   9.237  33.317   9.373  0.0928  0.2176 -0.0028
 1977DPPE   PO445578   9.033  33.334   9.739 -0.0013  0.0631  0.0738
 1977DPPE   GL145579   9.414  33.550   9.753  0.0406  0.0111 -0.0834
 1977DPPE   GL245580   9.257  33.780   9.927  0.1718  0.2173 -0.1628
 1977DPPE   C1A45581   9.696  33.628  10.072  0.4319  0.1893  0.1818
 1977DPPE   C2A45582   9.792  33.815  10.437 -0.0035  0.2839  0.2301
 1977DPPE   C3A45583   9.817  33.958  10.784  0.1445 -0.0616  0.2874
 1977DPPE   C4A45584   9.905  34.203  11.098  0.2608  0.0549  0.0743
 1977DPPE   C1B45585   9.512  34.171  10.122  0.1067 -0.0119  0.0905
 1977DPPE   C2B45586   9.575  34.319  10.570  0.0969  0.2900  0.0686
 1977DPPE   C3B45587   9.461  34.388  11.029 -0.0813 -0.3178  0.0045
 1977DPPE   C4B45588   9.631  34.684  11.366  0.0886 -0.1170 -0.2444
 1978DPPE   NH345589  21.576  17.067  15.257  0.2080 -0.0764  0.0112
 1978DPPE   PO445590  21.946  16.763  15.134  0.1411 -0.0436 -0.0576
 1978DPPE   GL145591  22.047  17.101  15.038  0.1561 -0.1851  0.1253
 1978DPPE   GL245592  21.807  17.462  15.041  0.5696 -0.1026  0.0903
 1978DPPE   C1A45593  22.190  17.394  14.683  0.0424 -0.1207  0.1328
 1978DPPE   C2A45594  22.508  17.543  14.447 -0.3105 -0.1344  0.3404
 1978DPPE   C3A45595  22.605  17.948  14.214 -0.2068  0.3149  0.0712
 1978DPPE   C4A45596  22.387  18.335  14.435  0.1383  0.1894  0.3240
 1978DPPE   C1B45597  22.167  17.600  15.241 -0.1544 -0.3504 -0.1634
 1978DPPE   C2B45598  22.262  17.989  15.408 -0.1874  0.3680 -0.2939
 1978DPPE   C3B45599  22.533  18.418  15.443 -0.2942 -0.2040  0.0206
 1978DPPE   C4B45600  22.673  18.802  15.201  0.2486  0.0066 -0.0702
 1979DPPE   NH345601  12.383  14.946  10.119  0.2347  0.1308 -0.2336
 1979DPPE   PO445602  12.203  15.070  10.546 -0.0187  0.2198  0.2776
 1979DPPE   GL145603  12.071  15.305  10.162 -0.2824 -0.2030  0.1004
 1979DPPE   GL245604  11.925  15.101   9.968 -0.2904 -0.1976  0.0714
 1979DPPE   C1A45605  11.907  15.605   9.874  0.2734 -0.3008 -0.0579
 1979DPPE   C2A45606  11.414  15.768  10.033 -0.1285  0.0050 -0.2909
 1979DPPE   C3A45607  11.339  15.879  10.476  0.0515 -0.2691  0.0519
 1979DPPE   C4A45608  11.466  15.727  10.868  0.1328  0.3836  0.4394
 1979DPPE   C1B45609  11.490  15.250  10.030 -0.1532 -0.3303 -0.0051
 1979DPPE   C2B45610  11.050  15.279  10.039  0.2664  0.2056 -0.2746
 1979DPPE   C3B45611  10.759  15.611  10.258  0.1604  0.0345 -0.0527
 1979DPPE   C4B45612  10.495  15.938  10.088 -0.1688 -0.0473 -0.2092
 1980DPPE   NH345613  11.462   5.595  21.182 -0.2342 -0.2561  0.2697
 1980DPPE   PO445614  11.258   5.935  21.134 -0.0148 -0.2089  0.0439
 1980DPPE   GL145615  11.087   5.790  21.490  0.0856  0.0085  0.1818
 1980DPPE   GL245616  10.973   6.048  21.628  0.0634 -0.1594 -0.1390
 1980DPPE   C1A45617  11.059   5.588  21.862 -0.1948 -0.5405 -0.0828
 1980DPPE   C2A45618  11.155   5.225  22.117 -0.0966 -0.0687 -0.1307
 1980DPPE   C3A45619  10.990   5.172  22.493  0.2513  0.3738 -0.1001
 1980DPPE   C4A45620  10.820   5.007  22.792  0.3722  0.2976  0.0446
 1980DPPE   C1B45621  10.787   6.063  22.097 -0.2217  0.2557  0.0477
 1980DPPE   C2B45622  10.419   6.057  22.280 -0.2486  0.2177 -0.2121
 1980DPPE   C3B45623  10.173   5.938  22.585 -0.0925 -0.0503  0.0234
 1980DPPE   C4B45624   9.783   5.801  22.731  0.0837  0.1682  0.2077
 1981DPPE   NH345625  17.596   1.948  12.767  0.0198  0.4212 -0.1621
 1981DPPE   PO445626  17.657   1.562  12.864  0.2729 -0.1232  0.1138
 1981DPPE   GL145627  17.658   1.201  12.730  0.0197 -0.1030 -0.3422
 1981DPPE   GL245628  17.845   1.064  12.873 -0.0746 -0.1020 -0.0649
 1981DPPE   C1A45629  17.440   0.821  12.651  0.1413  0.0114  0.0183
 1981DPPE   C2A45630  17.327   0.451  12.522 -0.3615  0.1929 -0.0714
 1981DPPE   C3A45631  17.247  -0.033  12.577  0.0880  0.0248  0.1500
 1981DPPE   C4A45632  17.244  -0.407  12.742 -0.0884 -0.1324  0.0577
 1981DPPE   C1B45633  17.963   0.669  12.640 -0.0493  0.2825  0.1145
 1981DPPE   C2B45634  18.044   0.309  12.375  0.0958 -0.3621  0.4072
 1981DPPE   C3B45635  18.311   0.016  12.119 -0.1528 -0.1037  0.1061
 1981DPPE   C4B45636  18.600  -0.158  11.923  0.2120  0.1192 -0.0367
 1982DPPE   NH345637  20.385   3.919   4.341 -0.0219  0.0078 -0.3789
 1982DPPE   PO445638  20.475   3.581   4.523 -0.0826  0.2092 -0.7232
 1982DPPE   GL145639  20.284   3.745   4.870 -0.1605 -0.0090 -0.0619
 1982DPPE   GL245640  19.991   3.908   4.748 -0.0377  0.0006  0.0012
 1982DPPE   C1A45641  20.131   3.709   5.214  0.2951 -0.0803 -0.0568
 1982DPPE   C2A45642  20.087   3.808   5.632 -0.0106 -0.2215 -0.0647
 1982DPPE   C3A45643  20.251   3.800   6.055 -0.2332 -0.1119 -0.0605
 1982DPPE   C4A45644  20.636   3.959   6.257 -0.0109 -0.5174  0.0474
 1982DPPE   C1B45645  19.797   4.102   5.076  0.2115 -0.0043  0.2558
 1982DPPE   C2B45646  19.558   3.981   5.411  0.5226 -0.0520 -0.0155
 1982DPPE   C3B45647  19.181   4.028   5.629 -0.0522  0.2823  0.2413
 1982DPPE   C4B45648  18.814   3.817   5.415  0.4331  0.2263 -0.0060
 1983DPPE   NH345649   9.031  34.861   7.566 -0.0679  0.0814  0.1216
 1983DPPE   PO445650   9.364  34.933   7.654 -0.0036 -0.2340  0.0332
 1983DPPE   GL145651   9.396  35.277   7.813 -0.0509  0.2363 -0.0658
 1983DPPE   GL245652   9.393  35.184   8.141  0.0971  0.6068  0.2443
 1983DPPE   C1A45653   9.604  35.665   7.875  0.0409  0.3830  0.1574
 1983DPPE   C2A45654   9.861  35.903   7.934 -0.2235  0.0427  0.3267
 1983DPPE   C3A45655   9.993  36.079   8.363  0.2146  0.1692 -0.0998
 1983DPPE   C4A45656  10.021  36.074   8.785  0.2673 -0.0682  0.2875
 1983DPPE   C1B45657   9.732  35.407   8.285  0.2100  0.0255  0.0522
 1983DPPE   C2B45658   9.962  35.612   8.506 -0.1789  0.1417 -0.2708
 1983DPPE   C3B45659  10.327  35.676   8.830  0.1105 -0.4228 -0.2738
 1983DPPE   C4B45660  10.583  35.933   9.063  0.2055  0.2061 -0.0710
 1984DPPE   NH345661  11.349   8.717  11.556  0.1491  0.3714 -0.0481
 1984DPPE   PO445662  11.440   9.227  11.460 -0.1225 -0.4222  0.2104
 1984DPPE   GL145663  11.009   9.114  11.404  0.2493  0.2799 -0.2042
 1984DPPE   GL245664  10.725   9.412  11.322 -0.3816 -0.0964 -0.2473
 1984DPPE   C1A45665  10.778   8.801  11.079  0.0787  0.0029 -0.0880
 1984DPPE   C2A45666  10.523   8.439  10.820  0.0354 -0.0230 -0.0885
 1984DPPE   C3A45667  10.240   8.159  10.590  0.3287  0.3618 -0.1005
 1984DPPE   C4A45668   9.890   8.280  10.335  0.2479 -0.5137  0.4496
 1984DPPE   C1B45669  10.350   9.410  11.220 -0.0131  0.0339 -0.1228
 1984DPPE   C2B45670   9.983   9.658  11.255 -0.2197 -0.0020 -0.1931
 1984DPPE   C3B45671   9.885   9.974  10.985  0.1265  0.3115 -0.0591
 1984DPPE   C4B45672   9.851  10.206  10.525  0.2810 -0.1000 -0.1052
 1985DPPE   NH345673  27.623  15.158  14.084 -0.1168  0.0882  0.3619
 1985DPPE   PO445674  27.439  15.198  13.662 -0.1033 -0.0104 -0.0528
 1985DPPE   GL145675  27.033  15.144  13.471  0.1574  0.2067 -0.0875
 1985DPPE   GL245676  26.889  15.413  13.600 -0.2099 -0.2273 -0.0815
 1985DPPE   C1A45677  26.752  14.885  13.782  0.2541  0.1254 -0.1543
 1985DPPE   C2A45678  26.339  14.757  13.766 -0.0126 -0.1050  0.2020
 1985DPPE   C3A45679  26.176  14.355  14.014 -0.2717  0.1275  0.1597
 1985DPPE   C4A45680  25.981  14.075  14.288  0.0662  0.1298 -0.0162
 1985DPPE   C1B45681  26.530  15.256  13.366 -0.2375  0.1284 -0.0762
 1985DPPE   C2B45682  26.185  15.290  13.108  0.2567 -0.0342 -0.1351
 1985DPPE   C3B45683  26.097  15.112  12.840  0.1154 -0.0279  0.2152
 1985DPPE   C4B45684  25.858  15.235  12.449  0.0117 -0.0286  0.2763
 1986DPPE   NH345685  13.545   5.076  12.788  0.1748 -0.0789 -0.0344
 1986DPPE   PO445686  13.202   5.000  13.161 -0.1150  0.0545 -0.1188
 1986DPPE   GL145687  13.030   4.649  12.951 -0.0663  0.4315  0.2190
 1986DPPE   GL245688  12.692   4.678  12.862 -0.0287  0.2962  0.1246
 1986DPPE   C1A45689  13.066   4.455  12.619 -0.0456 -0.0733  0.0957
 1986DPPE   C2A45690  12.935   4.222  12.300  0.0089  0.0612 -0.0693
 1986DPPE   C3A45691  12.741   3.848  12.077  0.2436 -0.3094 -0.1328
 1986DPPE   C4A45692  12.798   3.477  11.947  0.1066  0.2887 -0.0221
 1986DPPE   C1B45693  12.385   4.459  12.602  0.3656 -0.2576  0.0126
 1986DPPE   C2B45694  12.132   4.107  12.320 -0.2367  0.1379  0.2601
 1986DPPE   C3B45695  12.303   3.671  12.109  0.0302  0.1103 -0.1811
 1986DPPE   C4B45696  12.381   3.339  11.739  0.2436 -0.1375 -0.1726
 1987DPPE   NH345697  16.285  17.036  11.380  0.1766  0.0847  0.0209
 1987DPPE   PO445698  15.920  17.175  11.149  0.0596  0.0895 -0.3533
 1987DPPE   GL145699  15.940  17.519  10.948 -0.1382  0.0296  0.2184
 1987DPPE   GL245700  15.807  17.501  10.479 -0.0733  0.0899 -0.0341
 1987DPPE   C1A45701  16.043  17.826  10.754 -0.4463  0.0927 -0.2257
 1987DPPE   C2A45702  16.152  18.155  10.390 -0.3107 -0.3988 -0.0798
 1987DPPE   C3A45703  16.261  18.443  10.001  0.3744  0.1011 -0.0487
 1987DPPE   C4A45704  16.429  18.873   9.965 -0.0841 -0.3157 -0.3730
 1987DPPE   C1B45705  16.014  17.576  10.076  0.0916  0.1463 -0.2074
 1987DPPE   C2B45706  16.116  17.942   9.837  0.2337 -0.0173 -0.0681
 1987DPPE   C3B45707  15.811  18.397   9.759  0.0571  0.2086  0.1211
 1987DPPE   C4B45708  15.558  18.484   9.353  0.2301 -0.0765 -0.0568
 1988DPPE   NH345709   9.618  11.472  20.348  0.0067  0.1510  0.1532
 1988DPPE   PO445710   9.829  11.088  20.571 -0.0901  0.0265  0.1532
 1988DPPE   GL145711   9.797  11.357  20.873  0.1972 -0.1874 -0.2221
 1988DPPE   GL245712   9.967  11.593  21.065  0.4025  0.2545  0.2744
 1988DPPE   C1A45713   9.412  11.496  21.059  0.1572 -0.1650  0.1958
 1988DPPE   C2A45714   9.078  11.496  21.361 -0.0865 -0.0780 -0.0383
 1988DPPE   C3A45715   8.859  11.695  21.686  0.0610  0.0589  0.1397
 1988DPPE   C4A45716   8.560  11.512  21.788  0.1245  0.2481 -0.2596
 1988DPPE   C1B45717   9.720  11.803  21.335 -0.2375 -0.2608 -0.1127
 1988DPPE   C2B45718   9.368  11.895  21.515  0.0709 -0.1035  0.1574
 1988DPPE   C3B45719   8.973  12.108  21.354 -0.1862 -0.1426  0.2224
 1988DPPE   C4B45720   8.708  12.242  21.105  0.3639 -0.0192 -0.1503
 1989DPPE   NH345721  10.978   5.055  16.537 -0.1527  0.0919  0.0383
 1989DPPE   PO445722  10.908   4.659  16.816 -0.3485  0.1041  0.2006
 1989DPPE   GL145723  10.631   4.235  16.565 -0.1303 -0.0173 -0.1386
 1989DPPE   GL245724  10.771   3.934  16.608 -0.1172 -0.0936 -0.0874
 1989DPPE   C1A45725  10.496   3.939  16.191 -0.1767  0.0318  0.1684
 1989DPPE   C2A45726  10.534   3.613  15.912 -0.2773 -0.2050  0.3381
 1989DPPE   C3A45727  10.505   3.432  15.444 -0.0837 -0.2019 -0.1297
 1989DPPE   C4A45728  10.784   3.123  15.463  0.1161  0.0355 -0.1787
 1989DPPE   C1B45729  10.401   3.750  16.697 -0.1136  0.0787 -0.2280
 1989DPPE   C2B45730  10.114   3.359  16.757 -0.1628  0.1350 -0.0218
 1989DPPE   C3B45731   9.877   2.966  16.605 -0.0158  0.3161 -0.0461
 1989DPPE   C4B45732   9.649   2.626  16.602  0.0483  0.0826 -0.3254
 1990DPPE   NH345733  11.547  31.686  11.385 -0.2416 -0.3137  0.0624
 1990DPPE   PO445734  11.065  31.551  11.530  0.1962  0.1141  0.2116
 1990DPPE   GL145735  10.968  31.955  11.463  0.0266  0.2078 -0.0978
 1990DPPE   GL245736  10.970  32.091  11.725 -0.2617 -0.1807 -0.3153
 1990DPPE   C1A45737  11.052  32.366  11.247 -0.2921 -0.2038  0.1987
 1990DPPE   C2A45738  11.028  32.736  10.900 -0.2592  0.2472 -0.1806
 1990DPPE   C3A45739  10.734  33.029  10.826 -0.3652  0.1688 -0.1069
 1990DPPE   C4A45740  10.704  33.474  10.871 -0.0122  0.0238  0.1905
 1990DPPE   C1B45741  10.842  32.640  11.581 -0.2132  0.1091 -0.0135
 1990DPPE   C2B45742  10.685  32.920  11.270  0.1072 -0.0524  0.3202
 1990DPPE   C3B45743  10.947  33.289  11.258 -0.0870  0.0138  0.1759
 1990DPPE   C4B45744  11.230  33.519  11.002  0.1345 -0.3469 -0.3572
 1991DPPE   NH345745  15.262   3.944  12.271 -0.1047 -0.0385 -0.3872
 1991DPPE   PO445746  15.281   4.325  12.087 -0.3543 -0.0536  0.1189
 1991DPPE   GL145747  15.123   3.990  11.796 -0.3686 -0.1950  0.1773
 1991DPPE   GL245748  14.891   3.773  11.947 -0.0220  0.0972  0.2321
 1991DPPE   C1A45749  15.081   3.780  11.412 -0.1290  0.2278  0.4242
 1991DPPE   C2A45750  15.012   3.460  11.026 -0.2187 -0.0233 -0.1023
 1991DPPE   C3A45751  14.943   2.997  10.923  0.2101 -0.0173  0.0770
 1991DPPE   C4A45752  14.817   2.674  10.622  0.2717 -0.1763  0.3495
 1991DPPE   C1B45753  14.772   3.507  11.718  0.4286 -0.2036  0.0895
 1991DPPE   C2B45754  14.817   3.163  11.451 -0.0433 -0.0139  0.2315
 1991DPPE   C3B45755  14.804   2.789  11.335 -0.3066  0.1003  0.0207
 1991DPPE   C4B45756  14.708   2.369  11.610  0.4533  0.1081  0.0114
 1992DPPE   NH345757  23.624   8.567  12.303 -0.1155  0.1372 -0.0770
 1992DPPE   PO445758  23.557   8.207  12.546  0.1817 -0.1823  0.0421
 1992DPPE   GL145759  23.985   8.182  12.264  0.2389  0.1755 -0.2652
 1992DPPE   GL245760  24.338   8.024  12.275  0.1117  0.1803 -0.0850
 1992DPPE   C1A45761  24.168   8.398  11.944  0.2090 -0.0056  0.1192
 1992DPPE   C2A45762  24.538   8.662  11.815 -0.2708 -0.0244  0.2631
 1992DPPE   C3A45763  24.758   8.623  11.500  0.2087 -0.3586 -0.0016
 1992DPPE   C4A45764  24.778   8.423  11.154 -0.3117 -0.0806 -0.0090
 1992DPPE   C1B45765  24.731   8.044  12.077  0.1394  0.1198  0.2993
 1992DPPE   C2B45766  24.992   8.352  11.994 -0.2829 -0.0510 -0.3086
 1992DPPE   C3B45767  25.191   8.458  11.658  0.1340 -0.0128  0.2337
 1992DPPE   C4B45768  25.271   8.581  11.254 -0.1312 -0.2741 -0.0203
 1993DPPE   NH345769  16.443   6.119  10.696  0.1790  0.0315  0.1735
 1993DPPE   PO445770  16.302   6.344  10.382  0.0196  0.4011  0.0304
 1993DPPE   GL145771  16.118   6.274   9.993 -0.1400  0.1127 -0.2510
 1993DPPE   GL245772  15.963   6.071   9.856 -0.0227 -0.1262  0.2285
 1993DPPE   C1A45773  16.133   6.317   9.458 -0.3245  0.3398 -0.1465
 1993DPPE   C2A45774  15.982   6.071   9.076 -0.0593 -0.0684 -0.0973
 1993DPPE   C3A45775  15.974   5.659   8.960  0.1700 -0.5116  0.1698
 1993DPPE   C4A45776  16.126   5.264   8.831 -0.2722  0.0701  0.2138
 1993DPPE   C1B45777  15.734   5.885   9.464  0.3518  0.0415  0.1643
 1993DPPE   C2B45778  15.595   5.563   9.187  0.0455  0.0431 -0.0084
 1993DPPE   C3B45779  15.662   5.152   9.202  0.1750 -0.0620  0.3235
 1993DPPE   C4B45780  15.798   4.794   9.416 -0.4386 -0.0206 -0.0047
 1994DPPE   NH345781   8.155  34.310  17.486  0.0776  0.0046  0.0337
 1994DPPE   PO445782   8.242  34.260  17.083  0.1877 -0.0500 -0.0456
 1994DPPE   GL145783   8.339  34.291  16.683 -0.0297  0.0971  0.1563
 1994DPPE   GL245784   8.014  34.302  16.582  0.2168 -0.1673  0.1893
 1994DPPE   C1A45785   8.398  34.516  16.355  0.1979 -0.1327  0.0067
 1994DPPE   C2A45786   8.025  34.659  16.100 -0.1640  0.2410  0.0168
 1994DPPE   C3A45787   7.721  34.464  15.996  0.1029  0.0191  0.1994
 1994DPPE   C4A45788   7.514  34.228  15.598  0.2043  0.1899  0.0472
 1994DPPE   C1B45789   8.113  34.761  16.651  0.1662  0.2386  0.1559
 1994DPPE   C2B45790   8.187  35.080  16.328  0.1850  0.2457  0.0108
 1994DPPE   C3B45791   8.309  35.451  16.326  0.2424  0.0658 -0.0205
 1994DPPE   C4B45792   8.593  35.749  16.531 -0.1198 -0.2656  0.3709
 1995DPPE   NH345793  11.168  34.104   6.463 -0.1576 -0.1745  0.3457
 1995DPPE   PO445794  11.420  34.323   6.682  0.1731 -0.4800  0.0143
 1995DPPE   GL145795  11.314  34.726   6.848  0.4969  0.2039 -0.0927
 1995DPPE   GL245796  11.357  34.961   6.630 -0.1593 -0.1408 -0.0903
 1995DPPE   C1A45797  11.018  35.063   7.084  0.2264 -0.2418  0.2447
 1995DPPE   C2A45798  10.962  35.447   7.321  0.0430 -0.0912 -0.0532
 1995DPPE   C3A45799  11.011  35.902   7.296 -0.1123 -0.0309  0.0850
 1995DPPE   C4A45800  10.966  36.199   7.100 -0.2969  0.3820 -0.1527
 1995DPPE   C1B45801  11.722  35.149   6.853  0.3381  0.1490 -0.0475
 1995DPPE   C2B45802  12.068  35.198   6.894 -0.4161  0.0438  0.4638
 1995DPPE   C3B45803  12.325  35.006   6.557  0.2598 -0.0646  0.1490
 1995DPPE   C4B45804  12.697  34.750   6.477 -0.0956 -0.0676  0.2113
 1996DPPE   NH345805  11.107   8.627  13.287 -0.1803 -0.2694 -0.1819
 1996DPPE   PO445806  10.784   8.257  13.332  0.0494  0.0119 -0.1918
 1996DPPE   GL145807  10.453   8.223  13.019  0.0167  0.2226  0.1004
 1996DPPE   GL245808  10.234   8.534  12.921  0.0924 -0.1813  0.1108
 1996DPPE   C1A45809  10.178   7.925  12.775 -0.1433  0.2475 -0.2093
 1996DPPE   C2A45810   9.798   7.863  12.556 -0.0718  0.0417  0.1192
 1996DPPE   C3A45811   9.614   7.758  12.093  0.1297 -0.4580 -0.3779
 1996DPPE   C4A45812   9.245   7.482  11.855  0.4486  0.0454 -0.1735
 1996DPPE   C1B45813   9.949   8.378  12.659 -0.0860  0.2192  0.0940
 1996DPPE   C2B45814   9.573   8.298  12.409 -0.1597  0.1474  0.0274
 1996DPPE   C3B45815   9.229   8.219  12.077 -0.0412  0.3752  0.1657
 1996DPPE   C4B45816   8.899   7.972  11.969  0.1658  0.2664  0.0756
 1997DPPE   NH345817  13.805  31.706  13.665  0.1734 -0.2320 -0.0835
 1997DPPE   PO445818  14.263  31.721  13.569  0.1419 -0.0559 -0.0329
 1997DPPE   GL145819  14.256  32.165  13.593 -0.0015  0.2007 -0.0880
 1997DPPE   GL245820  13.877  32.182  13.489  0.2834  0.2403 -0.1152
 1997DPPE   C1A45821  14.387  32.459  13.618  0.0269 -0.1519 -0.0990
 1997DPPE   C2A45822  14.482  32.857  13.499  0.0364 -0.0748  0.2279
 1997DPPE   C3A45823  14.430  33.352  13.670  0.0822  0.2284 -0.0156
 1997DPPE   C4A45824  14.212  33.590  13.991 -0.1973 -0.1521 -0.0123
 1997DPPE   C1B45825  13.537  32.528  13.281 -0.0872 -0.1297  0.1497
 1997DPPE   C2B45826  13.314  32.770  12.979 -0.0877  0.0808  0.0711
 1997DPPE   C3B45827  13.377  33.019  12.695 -0.1481 -0.1199  0.1998
 1997DPPE   C4B45828  13.301  33.498  12.538  0.1056  0.0847 -0.1109
 1998DPPE   NH345829  17.757   9.183  23.449 -0.0931  0.0425  0.3922
 1998DPPE   PO445830  18.274   9.000  23.390  0.1088 -0.1076  0.1426
 1998DPPE   GL145831  18.092   8.821  23.712 -0.1598 -0.2053 -0.2228
 1998DPPE   GL245832  17.941   8.470  23.663  0.0534 -0.0997  0.2788
 1998DPPE   C1A45833  18.320   8.535  23.969 -0.0188  0.2747 -0.1268
 1998DPPE   C2A45834  18.632   8.332  24.238  0.0866  0.1918 -0.1517
 1998DPPE   C3A45835  18.977   8.311  24.546  0.0160  0.1692 -0.0064
 1998DPPE   C4A45836  18.963   7.975  24.945 -0.1866  0.1253  0.0951
 1998DPPE   C1B45837  17.874   8.227  24.036 -0.0187 -0.0628 -0.1487
 1998DPPE   C2B45838  17.738   8.311  24.452  0.1268 -0.0883  0.0106
 1998DPPE   C3B45839  17.886   8.351  24.817  0.1623  0.1022  0.0047
 1998DPPE   C4B45840  18.222   8.577  25.164 -0.0888  0.1608  0.0441
 1999DPPE   NH345841  16.675  13.669  23.538 -0.1046  0.3232  0.0166
 1999DPPE   PO445842  17.047  13.877  23.537  0.1461 -0.1354 -0.0193
 1999DPPE   GL145843  17.099  14.229  23.822  0.1193 -0.1508  0.1600
 1999DPPE   GL245844  17.412  14.168  24.027  0.0985  0.1051  0.2176
 1999DPPE   C1A45845  17.015  14.360  24.188  0.3060  0.1736  0.1629
 1999DPPE   C2A45846  17.361  14.304  24.515  0.1288  0.2547 -0.3604
 1999DPPE   C3A45847  17.529  14.505  24.806 -0.1392  0.2352 -0.1562
 1999DPPE   C4A45848  17.378  14.481  25.188  0.0738  0.0572 -0.0150
 1999DPPE   C1B45849  17.690  13.973  24.334  0.1047 -0.2539  0.0046
 1999DPPE   C2B45850  17.716  14.046  24.722  0.2030 -0.4468 -0.1828
 1999DPPE   C3B45851  17.809  13.926  25.200 -0.3157  0.1649  0.1414
 1999DPPE   C4B45852  17.698  13.559  25.446 -0.0800 -0.0405  0.3249
 2000DPPE   NH345853  12.829   1.730   2.246  0.1609 -0.0024  0.0733
 2000DPPE   PO445854  12.660   1.957   2.583 -0.0115  0.0439 -0.0109
 2000DPPE   GL145855  12.867   2.081   2.889 -0.0724 -0.1658 -0.2133
 2000DPPE   GL245856  13.023   1.960   3.183 -0.0400  0.0122 -0.0419
 2000DPPE   C1A45857  13.021   2.446   3.263 -0.1029 -0.2451  0.3677
 2000DPPE   C2A45858  13.346   2.697   3.187 -0.0018  0.0020  0.0438
 2000DPPE   C3A45859  13.677   2.858   3.426 -0.1146 -0.0004 -0.0897
 2000DPPE   C4A45860  13.872   3.294   3.459  0.3286  0.1451 -0.3102
 2000DPPE   C1B45861  13.459   1.896   3.364  0.1281 -0.0399 -0.1326
 2000DPPE   C2B45862  13.710   2.075   3.774  0.1918 -0.0772 -0.3858
 2000DPPE   C3B45863  13.846   1.847   4.033  0.0481 -0.4082 -0.1119
 2000DPPE   C4B45864  14.129   1.440   4.185  0.2181 -0.0917 -0.0995
 2001DPPE   NH345865  17.761   5.227  10.284  0.1576 -0.0848 -0.1529
 2001DPPE   PO445866  18.156   5.051  10.168  0.1515 -0.1012 -0.1029
 2001DPPE   GL145867  17.886   4.869   9.924 -0.0995  0.1345  0.1348
 2001DPPE   GL245868  18.057   4.697   9.652  0.3373 -0.0742 -0.0329
 2001DPPE   C1A45869  17.550   4.715   9.695 -0.0329 -0.1649 -0.0967
 2001DPPE   C2A45870  17.306   4.803   9.306 -0.1262  0.3176  0.1861
 2001DPPE   C3A45871  16.887   4.713   9.217  0.0397  0.0345  0.0222
 2001DPPE   C4A45872  16.552   4.620   9.363 -0.1168 -0.0690 -0.2378
 2001DPPE   C1B45873  17.923   4.710   9.274  0.2213  0.3058  0.1592
 2001DPPE   C2B45874  18.175   4.508   8.897  0.3796 -0.2010  0.1414
 2001DPPE   C3B45875  18.451   4.394   8.539 -0.4559  0.3126 -0.1228
 2001DPPE   C4B45876  18.723   4.383   8.204  0.0334 -0.1398  0.5759
 2002DPPE   NH345877  12.808   5.159  12.948 -0.1747  0.0853  0.4311
 2002DPPE   PO445878  13.171   5.398  12.727 -0.4049 -0.0791  0.3534
 2002DPPE   GL145879  13.113   4.955  12.470  0.2929  0.0653  0.0212
 2002DPPE   GL245880  12.832   5.015  12.450  0.2779 -0.1953  0.1545
 2002DPPE   C1A45881  13.218   4.579  12.152  0.1639  0.1941 -0.3950
 2002DPPE   C2A45882  13.216   4.164  11.832  0.0475  0.3745  0.1427
 2002DPPE   C3A45883  13.194   4.068  11.405 -0.3463  0.0923  0.1404
 2002DPPE   C4A45884  12.955   4.222  11.152 -0.1116  0.0496 -0.1812
 2002DPPE   C1B45885  12.582   4.753  12.215  0.2850  0.0325  0.0036
 2002DPPE   C2B45886  12.438   4.399  12.054  0.2036 -0.0472  0.2123
 2002DPPE   C3B45887  12.202   4.059  11.782  0.4809  0.1415  0.1430
 2002DPPE   C4B45888  12.299   3.849  11.393  0.3110 -0.2242 -0.0788
 2003DPPE   NH345889   1.306   8.902  14.238 -0.2125  0.1325  0.1712
 2003DPPE   PO445890   1.404   9.330  14.106 -0.0886  0.3177 -0.0932
 2003DPPE   GL145891   1.651   9.245  13.952 -0.0658 -0.1136 -0.1819
 2003DPPE   GL245892   1.989   9.281  14.143  0.1145 -0.0653 -0.1125
 2003DPPE   C1A45893   1.866   9.194  13.636 -0.1398 -0.0511  0.0008
 2003DPPE   C2A45894   2.150   8.969  13.599 -0.1799  0.1422 -0.4299
 2003DPPE   C3A45895   2.354   8.537  13.470  0.2223 -0.5717 -0.2235
 2003DPPE   C4A45896   2.470   8.156  13.282  0.0548  0.0554  0.2716
 2003DPPE   C1B45897   2.335   9.500  14.351  0.1502 -0.5308  0.1558
 2003DPPE   C2B45898   2.756   9.392  14.535  0.1667  0.0817 -0.0864
 2003DPPE   C3B45899   2.871   8.910  14.556 -0.0886  0.1912  0.0567
 2003DPPE   C4B45900   3.257   8.718  14.701 -0.1859  0.1404 -0.2713
 2004DPPE   NH345901  10.172  10.485  12.578  0.1720  0.0091 -0.0693
 2004DPPE   PO445902  10.518  10.240  12.426 -0.0620 -0.2726 -0.0064
 2004DPPE   GL145903  10.153  10.112  12.214  0.0596  0.0441 -0.0299
 2004DPPE   GL245904  10.041   9.748  12.136 -0.1635  0.1638 -0.0218
 2004DPPE   C1A45905   9.730  10.183  12.087  0.2950 -0.0050 -0.0907
 2004DPPE   C2A45906   9.496  10.052  11.884 -0.2584 -0.2929  0.0125
 2004DPPE   C3A45907   9.571   9.573  11.612 -0.2876  0.0543  0.0405
 2004DPPE   C4A45908   9.598   9.517  11.076  0.0702  0.0725  0.1116
 2004DPPE   C1B45909   9.986   9.834  11.724  0.2197  0.0870  0.2378
 2004DPPE   C2B45910   9.923  10.137  11.464 -0.3010  0.2043 -0.4352
 2004DPPE   C3B45911   9.813  10.590  11.481  0.1345  0.2103  0.1971
 2004DPPE   C4B45912   9.743  10.931  11.446  0.2146  0.0553 -0.0925
 2005DPPE   NH345913  25.663   2.122  13.825  0.1038 -0.0101 -0.0536
 2005DPPE   PO445914  25.587   2.521  13.617 -0.1146 -0.0081 -0.3090
 2005DPPE   GL145915  25.520   2.914  13.714 -0.0971 -0.0685 -0.0844
 2005DPPE   GL245916  25.156   2.777  13.830  0.0407 -0.2609  0.1386
 2005DPPE   C1A45917  25.418   3.153  14.155 -0.1961  0.2675 -0.0249
 2005DPPE   C2A45918  24.917   3.073  14.297  0.0763  0.1388  0.0612
 2005DPPE   C3A45919  24.609   2.891  14.660 -0.1622 -0.1016  0.2005
 2005DPPE   C4A45920  24.084   2.984  14.860  0.2312  0.0571 -0.1964
 2005DPPE   C1B45921  25.273   2.634  14.136 -0.5267  0.2016 -0.0827
 2005DPPE   C2B45922  25.469   2.801  14.509 -0.1993  0.1307 -0.1014
 2005DPPE   C3B45923  25.278   2.832  14.828  0.0138  0.0805 -0.2065
 2005DPPE   C4B45924  24.967   2.941  14.948 -0.0319  0.3223 -0.0005
 2006DPPE   NH345925  19.852  35.268   7.868 -0.0391 -0.2304 -0.3728
 2006DPPE   PO445926  19.430  35.067   7.735 -0.1053  0.0008  0.2157
 2006DPPE   GL145927  19.051  35.236   8.056 -0.1634 -0.1813  0.0882
 2006DPPE   GL245928  18.947  35.481   7.862  0.2210  0.0195 -0.1872
 2006DPPE   C1A45929  18.998  35.307   8.494 -0.0318 -0.1141 -0.6101
 2006DPPE   C2A45930  18.816  35.483   8.829  0.1993  0.2506 -0.1059
 2006DPPE   C3A45931  18.482  35.701   8.713  0.1506  0.3073  0.1106
 2006DPPE   C4A45932  18.104  35.704   8.790  0.1487 -0.2189 -0.1818
 2006DPPE   C1B45933  19.000  35.836   7.592 -0.3353  0.2103 -0.0390
 2006DPPE   C2B45934  18.691  36.049   7.299  0.0721  0.2131 -0.1081
 2006DPPE   C3B45935  18.347  36.118   7.014 -0.1424  0.0178  0.2837
 2006DPPE   C4B45936  18.017  36.151   6.762 -0.0840  0.0433 -0.0674
 2007DPPE   NH345937  23.527   5.017   7.679 -0.2196  0.1905 -0.0721
 2007DPPE   PO445938  23.671   5.297   7.487 -0.2246  0.1086  0.4846
 2007DPPE   GL145939  23.246   5.465   7.705  0.0190 -0.2424  0.2592
 2007DPPE   GL245940  23.047   5.251   7.594  0.0316  0.0547  0.0234
 2007DPPE   C1A45941  23.156   5.783   8.073 -0.1106 -0.0472 -0.0989
 2007DPPE   C2A45942  22.976   6.174   8.053  0.0004 -0.1125  0.2210
 2007DPPE   C3A45943  22.588   6.467   7.989  0.3590 -0.2263 -0.1324
 2007DPPE   C4A45944  22.313   6.579   7.826  0.0694 -0.1383  0.1935
 2007DPPE   C1B45945  22.792   5.610   7.792  0.0278 -0.4024  0.0110
 2007DPPE   C2B45946  22.588   5.727   8.097  0.1725  0.1328 -0.1288
 2007DPPE   C3B45947  22.253   5.656   8.393 -0.1476  0.0178 -0.3103
 2007DPPE   C4B45948  22.240   5.822   8.828  0.2515  0.2531  0.3965
 2008DPPE   NH345949   4.852   0.767   8.777  0.1771 -0.0262 -0.3825
 2008DPPE   PO445950   5.054   0.459   9.035 -0.0799 -0.0634  0.0518
 2008DPPE   GL145951   5.528   0.413   9.306  0.0875  0.0489  0.0405
 2008DPPE   GL245952   5.600   0.491   9.058 -0.1161 -0.1122  0.2262
 2008DPPE   C1A45953   5.757   0.324   9.720  0.1574  0.2838  0.3342
 2008DPPE   C2A45954   5.607   0.456  10.063 -0.1312  0.2310  0.2599
 2008DPPE   C3A45955   5.670   0.909  10.279  0.3740  0.2920 -0.0418
 2008DPPE   C4A45956   5.575   1.311  10.288 -0.0225  0.1155 -0.0846
 2008DPPE   C1B45957   5.929   0.744   9.263 -0.0626 -0.1121 -0.0176
 2008DPPE   C2B45958   6.281   0.874   9.477 -0.1002 -0.0928 -0.2493
 2008DPPE   C3B45959   6.497   1.194   9.653  0.1259 -0.0361 -0.0131
 2008DPPE   C4B45960   6.762   1.294   9.966  0.1390  0.0983  0.1462
 2009DPPE   NH345961  21.733   8.389  21.876  0.0776 -0.1730 -0.2576
 2009DPPE   PO445962  22.133   8.447  21.907  0.1237 -0.2901  0.2912
 2009DPPE   GL145963  22.329   8.266  22.084 -0.0021 -0.1495  0.0170
 2009DPPE   GL245964  22.611   8.408  22.094 -0.2180 -0.1107 -0.4021
 2009DPPE   C1A45965  22.205   8.173  22.542 -0.2421  0.0579 -0.3699
 2009DPPE   C2A45966  22.359   8.206  22.880  0.3797  0.0221 -0.1374
 2009DPPE   C3A45967  22.207   8.190  23.326 -0.1884 -0.2596 -0.2782
 2009DPPE   C4A45968  22.252   8.191  23.762 -0.2969 -0.2906 -0.0382
 2009DPPE   C1B45969  22.985   8.447  22.036 -0.0749 -0.0610  0.2018
 2009DPPE   C2B45970  23.365   8.444  21.899 -0.2045 -0.2191 -0.1623
 2009DPPE   C3B45971  23.761   8.307  21.898  0.0169  0.1470 -0.0410
 2009DPPE   C4B45972  24.158   8.266  21.636  0.0061  0.2243 -0.1664
 2010DPPE   NH345973   5.206   3.903   6.173  0.2262  0.4389  0.0036
 2010DPPE   PO445974   5.607   3.851   6.373  0.0760 -0.0741 -0.3212
 2010DPPE   GL145975   5.891   4.098   6.434  0.0654 -0.2576 -0.1658
 2010DPPE   GL245976   6.104   3.879   6.610 -0.4242  0.2732 -0.2925
 2010DPPE   C1A45977   6.334   4.265   6.283  0.3560  0.1440  0.2766
 2010DPPE   C2A45978   6.584   4.540   6.387 -0.1058 -0.2893  0.1239
 2010DPPE   C3A45979   6.844   4.920   6.660  0.3442 -0.2122 -0.0793
 2010DPPE   C4A45980   7.121   5.113   6.910 -0.0450 -0.0689 -0.0852
 2010DPPE   C1B45981   6.567   3.932   6.548 -0.1749 -0.1484 -0.1956
 2010DPPE   C2B45982   6.979   4.113   6.604  0.2026 -0.0116 -0.1061
 2010DPPE   C3B45983   7.337   4.259   6.766 -0.2394  0.1341 -0.2248
 2010DPPE   C4B45984   7.757   4.137   6.940  0.0423 -0.0421  0.1596
 2011DPPE   NH345985   1.947   8.554   9.005  0.2647 -0.1026  0.2115
 2011DPPE   PO445986   2.115   9.049   8.910 -0.0124 -0.2912  0.3841
 2011DPPE   GL145987   2.515   8.891   8.915  0.0358 -0.0895 -0.3006
 2011DPPE   GL245988   2.773   9.162   8.912  0.0738 -0.0312  0.0976
 2011DPPE   C1A45989   2.701   8.809   9.368  0.0650 -0.2591 -0.0760
 2011DPPE   C2A45990   2.877   8.699   9.760  0.0651  0.1858 -0.0841
 2011DPPE   C3A45991   2.678   8.840  10.216  0.1784 -0.0813 -0.1264
 2011DPPE   C4A45992   2.611   9.048  10.600  0.3882  0.1063 -0.0903
 2011DPPE   C1B45993   3.088   9.385   9.030 -0.2233  0.2200 -0.0158
 2011DPPE   C2B45994   3.141   9.817   9.264 -0.3544 -0.1490  0.1853
 2011DPPE   C3B45995   3.501  10.070   9.269 -0.1113 -0.1308  0.0334
 2011DPPE   C4B45996   3.786  10.319   9.092 -0.1070  0.2647 -0.1574
 2012DPPE   NH345997   8.578  12.377  18.210 -0.0421  0.2890 -0.1198
 2012DPPE   PO445998   8.742  11.903  18.220 -0.0888 -0.0412  0.1566
 2012DPPE   GL145999   8.297  11.916  18.265  0.0276  0.0344  0.0023
 2012DPPE   GL246000   8.152  12.259  18.452  0.1265  0.1323 -0.1287
 2012DPPE   C1A46001   7.918  11.795  18.144 -0.2760 -0.2068 -0.1142
 2012DPPE   C2A46002   7.523  11.795  18.222 -0.1260 -0.2047  0.2388
 2012DPPE   C3A46003   7.168  11.909  18.313  0.1615  0.0837  0.0736
 2012DPPE   C4A46004   6.774  12.067  18.279 -0.0856  0.2054  0.0927
 2012DPPE   C1B46005   7.797  12.149  18.485  0.4062 -0.0985  0.0607
 2012DPPE   C2B46006   7.503  12.133  18.672 -0.3535 -0.1237 -0.0910
 2012DPPE   C3B46007   7.171  12.310  18.710  0.0224 -0.2532 -0.3101
 2012DPPE   C4B46008   6.910  12.363  19.061 -0.0981 -0.0014  0.0383
 2013DPPE   NH346009  17.024   9.120  23.714 -0.1198  0.1647  0.1366
 2013DPPE   PO446010  16.899   8.696  23.606  0.2016 -0.0533 -0.0378
 2013DPPE   GL146011  17.167   8.524  23.897 -0.2567  0.0628  0.1132
 2013DPPE   GL246012  17.435   8.434  23.905 -0.2405 -0.1716  0.3184
 2013DPPE   C1A46013  17.159   8.305  24.347 -0.1868  0.0019 -0.1420
 2013DPPE   C2A46014  17.211   8.291  24.768  0.0892  0.2137  0.0712
 2013DPPE   C3A46015  17.443   8.568  24.973 -0.2122 -0.2964  0.0237
 2013DPPE   C4A46016  17.780   8.845  25.005  0.1081  0.2343 -0.3438
 2013DPPE   C1B46017  17.356   8.751  24.273  0.1879  0.1856  0.2307
 2013DPPE   C2B46018  17.505   9.026  24.593 -0.1281  0.0194 -0.1695
 2013DPPE   C3B46019  17.409   9.161  25.057 -0.0418  0.0582  0.1646
 2013DPPE   C4B46020  17.513   8.895  25.481 -0.0706 -0.1316 -0.1990
 2014DPPE   NH346021  24.142   9.017  13.301  0.2627 -0.0618 -0.2627
 2014DPPE   PO446022  24.183   9.450  13.417  0.1977  0.1120 -0.3804
 2014DPPE   GL146023  24.611   9.292  13.334  0.1220  0.2422  0.0210
 2014DPPE   GL246024  24.926   9.540  13.329  0.0022  0.1540 -0.0981
 2014DPPE   C1A46025  25.029   9.042  13.417 -0.0173  0.0895 -0.1121
 2014DPPE   C2A46026  25.378   8.831  13.530 -0.2817  0.0754 -0.2074
 2014DPPE   C3A46027  25.744   8.803  13.218 -0.0294  0.0787  0.2582
 2014DPPE   C4A46028  26.162   8.876  12.994 -0.1286  0.2912 -0.0068
 2014DPPE   C1B46029  25.356   9.389  13.579 -0.2967  0.0319 -0.2041
 2014DPPE   C2B46030  25.730   9.257  13.700 -0.1928  0.0545 -0.0850
 2014DPPE   C3B46031  26.154   9.255  13.925  0.3470  0.0307  0.1763
 2014DPPE   C4B46032  26.568   9.525  14.040  0.1042 -0.1863 -0.1233
 2015DPPE   NH346033  17.888  33.907  15.753 -0.1614  0.0141  0.1701
 2015DPPE   PO446034  17.734  33.987  16.131  0.1775  0.1707 -0.5041
 2015DPPE   GL146035  17.807  34.389  16.007  0.2264  0.3612  0.2028
 2015DPPE   GL246036  17.662  34.386  15.713  0.1687 -0.0945  0.1630
 2015DPPE   C1A46037  17.866  34.649  16.393 -0.2819  0.0242  0.2555
 2015DPPE   C2A46038  17.945  34.816  16.826 -0.0560  0.0491 -0.1068
 2015DPPE   C3A46039  17.917  35.181  17.101 -0.1066  0.1610  0.2703
 2015DPPE   C4A46040  17.918  35.358  17.537  0.2806 -0.1307 -0.1524
 2015DPPE   C1B46041  17.577  34.797  15.684  0.4096 -0.2379 -0.1253
 2015DPPE   C2B46042  17.287  35.008  15.807  0.1360 -0.3669  0.0295
 2015DPPE   C3B46043  16.855  35.085  15.790  0.2286  0.2008 -0.0114
 2015DPPE   C4B46044  16.405  34.964  15.646 -0.1835  0.3889 -0.1981
 2016DPPE   NH346045  15.683  22.937  16.162  0.1215  0.1618  0.0741
 2016DPPE   PO446046  16.148  22.886  16.259 -0.2319 -0.0444 -0.1504
 2016DPPE   GL146047  16.172  22.441  16.014 -0.1278  0.1786 -0.0144
 2016DPPE   GL246048  16.468  22.373  16.053 -0.1448 -0.2254  0.0950
 2016DPPE   C1A46049  15.888  22.096  15.760  0.1600 -0.1544 -0.1156
 2016DPPE   C2A46050  15.826  21.656  15.754 -0.4471  0.0330 -0.1453
 2016DPPE   C3A46051  15.546  21.383  15.895  0.3973 -0.1957  0.2349
 2016DPPE   C4A46052  15.388  20.991  16.103  0.2630  0.0076  0.0669
 2016DPPE   C1B46053  16.412  22.015  15.768 -0.1157  0.0321 -0.0155
 2016DPPE   C2B46054  16.466  21.698  15.482 -0.0521 -0.1564 -0.1706
 2016DPPE   C3B46055  16.429  21.247  15.427 -0.4146  0.1616 -0.0128
 2016DPPE   C4B46056  16.280  20.865  15.298  0.3730  0.3791  0.0226
 2017DPPE   NH346057   1.239   4.931  13.843  0.3527  0.2992 -0.1783
 2017DPPE   PO446058   1.344   4.548  14.000  0.1456  0.1893  0.2548
 2017DPPE   GL146059   1.703   4.689  14.042  0.2397  0.0179 -0.0743
 2017DPPE   GL246060   1.796   4.728  14.403 -0.0250  0.3273  0.1390
 2017DPPE   C1A46061   1.929   4.961  14.019 -0.1823  0.0430  0.0104
 2017DPPE   C2A46062   2.338   4.957  13.981 -0.2344  0.0038 -0.4524
 2017DPPE   C3A46063   2.610   4.862  13.812 -0.1387  0.1768  0.0649
 2017DPPE   C4A46064   3.043   4.792  13.792  0.3989 -0.1975 -0.3660
 2017DPPE   C1B46065   2.171   4.569  14.571 -0.1655  0.0612 -0.4360
 2017DPPE   C2B46066   2.556   4.335  14.900 -0.1359  0.0576  0.0104
 2017DPPE   C3B46067   2.990   4.655  14.809 -0.0311 -0.1858  0.3157
 2017DPPE   C4B46068   3.040   4.890  14.485 -0.2495  0.0801 -0.3707
 2018DPPE   NH346069  23.708  17.502  23.520  0.4064 -0.0263 -0.0132
 2018DPPE   PO446070  23.927  17.146  23.366 -0.4045 -0.4340 -0.1033
 2018DPPE   GL146071  23.787  16.943  22.957 -0.0217  0.2399  0.1662
 2018DPPE   GL246072  23.876  16.638  22.720  0.0074 -0.3151 -0.1048
 2018DPPE   C1A46073  23.404  16.860  22.736  0.0033  0.0653  0.0809
 2018DPPE   C2A46074  22.991  16.921  22.688 -0.0866  0.2400  0.3061
 2018DPPE   C3A46075  22.611  16.849  22.451 -0.4333  0.1067 -0.3462
 2018DPPE   C4A46076  22.248  16.695  22.291  0.2789 -0.0083  0.0575
 2018DPPE   C1B46077  23.722  16.636  22.314 -0.2256 -0.0009 -0.3201
 2018DPPE   C2B46078  23.492  16.463  21.949 -0.0449  0.1763  0.5485
 2018DPPE   C3B46079  23.056  16.362  21.679 -0.1970 -0.0698  0.0207
 2018DPPE   C4B46080  22.927  16.548  21.231  0.3032  0.1475  0.3489
 2019DPPE   NH346081  23.259   2.476  21.766 -0.2340  0.1503 -0.1353
 2019DPPE   PO446082  23.409   2.599  21.432 -0.0230 -0.1905  0.1818
 2019DPPE   GL146083  23.282   3.059  21.386 -0.2017  0.0055  0.0159
 2019DPPE   GL246084  23.543   3.310  21.535  0.1509  0.0673  0.1340
 2019DPPE   C1A46085  23.145   3.353  21.090  0.0386 -0.0341  0.1200
 2019DPPE   C2A46086  22.869   3.729  21.023  0.0901  0.0772 -0.1427
 2019DPPE   C3A46087  22.579   3.992  21.123 -0.0798 -0.2872 -0.2299
 2019DPPE   C4A46088  22.247   3.981  20.815  0.0422 -0.1729  0.3938
 2019DPPE   C1B46089  23.673   3.761  21.563  0.0757 -0.0610 -0.2344
 2019DPPE   C2B46090  23.568   4.193  21.698  0.2526  0.3708  0.0240
 2019DPPE   C3B46091  23.360   4.515  21.619  0.0687  0.2001  0.6997
 2019DPPE   C4B46092  23.202   4.929  21.874  0.0440 -0.2811 -0.0756
 2020DPPE   NH346093  21.813  19.161  22.741 -0.0042  0.0520 -0.0920
 2020DPPE   PO446094  21.660  19.148  23.072 -0.0642 -0.0896  0.1569
 2020DPPE   GL146095  21.280  18.907  22.842 -0.2153  0.0917 -0.2254
 2020DPPE   GL246096  21.382  18.893  22.576 -0.1525 -0.1244 -0.3227
 2020DPPE   C1A46097  20.977  18.560  22.897  0.0380 -0.4784  0.1675
 2020DPPE   C2A46098  20.526  18.391  22.912  0.1076 -0.0929  0.2324
 2020DPPE   C3A46099  20.415  18.106  22.741  0.1008 -0.0360  0.2636
 2020DPPE   C4A46100  20.417  17.841  22.336  0.1496 -0.1034 -0.1289
 2020DPPE   C1B46101  21.084  18.668  22.463 -0.0840  0.0708  0.2208
 2020DPPE   C2B46102  20.861  18.392  22.139 -0.0755 -0.4035  0.1016
 2020DPPE   C3B46103  20.651  18.071  21.975 -0.0349 -0.2711  0.0804
 2020DPPE   C4B46104  20.660  17.699  21.867 -0.2244  0.0398 -0.0500
 2021DPPE   NH346105   4.909   6.925   5.172  0.1308 -0.1329 -0.0864
 2021DPPE   PO446106   4.913   7.195   5.556  0.0132 -0.0511  0.1438
 2021DPPE   GL146107   5.238   7.382   5.865 -0.1985 -0.0517  0.0859
 2021DPPE   GL246108   5.259   7.780   5.888 -0.2511  0.0575  0.2046
 2021DPPE   C1A46109   5.622   7.347   6.152 -0.4078 -0.1999  0.1491
 2021DPPE   C2A46110   5.863   7.787   6.290 -0.1679 -0.1101 -0.0858
 2021DPPE   C3A46111   5.933   8.246   6.538  0.1952 -0.1691 -0.0887
 2021DPPE   C4A46112   6.161   8.587   6.756 -0.0245 -0.1938 -0.0157
 2021DPPE   C1B46113   5.274   7.752   6.302 -0.2156 -0.2450 -0.2600
 2021DPPE   C2B46114   5.466   7.521   6.664  0.2191  0.0782  0.0924
 2021DPPE   C3B46115   5.641   7.206   6.998  0.1626  0.1279 -0.0080
 2021DPPE   C4B46116   5.953   7.020   7.296 -0.2191  0.2706 -0.1324
 2022DPPE   NH346117  11.082  11.148  10.802  0.2631  0.0961  0.1173
 2022DPPE   PO446118  11.575  11.066  10.694 -0.0652  0.0039 -0.1040
 2022DPPE   GL146119  11.505  11.035  10.171  0.0159  0.2969 -0.3520
 2022DPPE   GL246120  11.751  10.950   9.895  0.0714 -0.1992 -0.1412
 2022DPPE   C1A46121  11.277  11.110   9.839 -0.2708 -0.1127  0.2342
 2022DPPE   C2A46122  11.097  10.940   9.506 -0.0824 -0.0870 -0.0276
 2022DPPE   C3A46123  10.800  10.675   9.350 -0.1069 -0.0346 -0.1732
 2022DPPE   C4A46124  10.400  10.547   9.622 -0.1394  0.1542 -0.2027
 2022DPPE   C1B46125  11.580  10.927   9.481  0.1232 -0.2113 -0.1788
 2022DPPE   C2B46126  11.389  11.154   9.150  0.1501  0.4557  0.2186
 2022DPPE   C3B46127  10.963  11.097   9.061 -0.1064 -0.1536  0.3316
 2022DPPE   C4B46128  10.673  11.269   9.245  0.0577 -0.0264 -0.1475
 2023DPPE   NH346129   5.660  35.907  18.104 -0.1807 -0.2987  0.1616
 2023DPPE   PO446130   5.642  36.207  17.851  0.2736 -0.1411  0.3151
 2023DPPE   GL146131   6.102  36.206  17.564  0.1017  0.1086  0.2136
 2023DPPE   GL246132   6.236  36.461  17.732  0.0206  0.1801 -0.0289
 2023DPPE   C1A46133   6.236  36.448  17.142 -0.1834 -0.1204 -0.0765
 2023DPPE   C2A46134   6.170  36.434  16.783 -0.0914 -0.0116  0.2155
 2023DPPE   C3A46135   6.059  36.355  16.395 -0.0073  0.4472  0.0515
 2023DPPE   C4A46136   5.875  36.350  16.018  0.3007  0.2019 -0.2599
 2023DPPE   C1B46137   6.345  36.855  17.584 -0.1176  0.2604  0.0524
 2023DPPE   C2B46138   6.545  37.075  17.217 -0.0919  0.0199 -0.0790
 2023DPPE   C3B46139   6.780  36.980  16.913 -0.0931  0.0871  0.1483
 2023DPPE   C4B46140   7.295  37.086  16.844  0.1134  0.1710  0.2567
 2024DPPE   NH346141  18.967  35.546  21.226  0.1129 -0.5503 -0.0688
 2024DPPE   PO446142  18.525  35.413  21.353 -0.6050  0.0083  0.2128
 2024DPPE   GL146143  18.578  35.831  21.185 -0.0479 -0.1566  0.1322
 2024DPPE   GL246144  18.245  36.094  21.251 -0.2349  0.1450  0.4382
 2024DPPE   C1A46145  18.439  36.096  20.789  0.0356 -0.0877 -0.0750
 2024DPPE   C2A46146  18.489  36.444  20.449 -0.0594 -0.3646  0.0020
 2024DPPE   C3A46147  18.364  36.863  20.385  0.0083 -0.3022  0.2192
 2024DPPE   C4A46148  18.399  37.345  20.262 -0.2232 -0.2172 -0.1909
 2024DPPE   C1B46149  18.407  36.548  21.155  0.2022  0.0291 -0.0543
 2024DPPE   C2B46150  18.288  37.046  21.187 -0.0204  0.0674 -0.0827
 2024DPPE   C3B46151  18.035  37.420  21.153  0.1292  0.0038 -0.1751
 2024DPPE   C4B46152  17.622  37.605  21.085 -0.1670 -0.1791 -0.1110
 2025DPPE   NH346153  15.817  14.836  23.198 -0.1042  0.0636  0.1004
 2025DPPE   PO446154  15.981  14.593  23.402 -0.0493 -0.0895 -0.3635
 2025DPPE   GL146155  15.885  14.741  23.756 -0.2738 -0.1479 -0.1481
 2025DPPE   GL246156  15.596  14.771  24.017 -0.3236 -0.1729 -0.0692
 2025DPPE   C1A46157  16.059  14.599  24.197 -0.0035  0.0569 -0.1729
 2025DPPE   C2A46158  16.296  14.548  24.621  0.0959 -0.4400  0.5577
 2025DPPE   C3A46159  16.492  14.423  25.018  0.0726 -0.0470 -0.1646
 2025DPPE   C4A46160  16.403  14.311  25.385  0.2627  0.0276 -0.0537
 2025DPPE   C1B46161  15.883  15.073  24.315  0.1254  0.3070 -0.3148
 2025DPPE   C2B46162  15.957  14.957  24.794  0.1091  0.2155  0.0020
 2025DPPE   C3B46163  15.674  14.900  25.131 -0.3832  0.0658  0.0177
 2025DPPE   C4B46164  15.441  15.080  25.464 -0.1483  0.1336  0.1614
 2026DPPE   NH346165  19.865  13.821   9.470 -0.2885  0.2985  0.1356
 2026DPPE   PO446166  20.154  13.677   9.828 -0.1300  0.0138 -0.1230
 2026DPPE   GL146167  20.555  13.647   9.579  0.2034  0.1007  0.1621
 2026DPPE   GL246168  20.508  13.328   9.494  0.1445 -0.0914 -0.1072
 2026DPPE   C1A46169  20.808  13.744   9.176 -0.0446 -0.3892 -0.0741
 2026DPPE   C2A46170  21.196  13.881   9.031  0.0431  0.3009 -0.2390
 2026DPPE   C3A46171  21.496  14.151   9.030 -0.2545  0.2232  0.1919
 2026DPPE   C4A46172  21.845  14.329   9.052 -0.1714 -0.1296 -0.2252
 2026DPPE   C1B46173  20.537  13.358   8.965  0.3326  0.0748  0.2839
 2026DPPE   C2B46174  20.695  13.461   8.532  0.0626  0.1314  0.2438
 2026DPPE   C3B46175  20.859  13.802   8.320 -0.1988 -0.1100  0.0154
 2026DPPE   C4B46176  20.822  14.266   8.071  0.0688  0.1229  0.0741
 2027DPPE   NH346177  12.902   4.024  13.987  0.1705 -0.0259  0.1130
 2027DPPE   PO446178  12.888   4.241  13.674  0.0704 -0.0696  0.0452
 2027DPPE   GL146179  12.639   4.039  13.469 -0.3234 -0.2266 -0.2092
 2027DPPE   GL246180  12.687   4.243  13.178  0.2893  0.1234 -0.0019
 2027DPPE   C1A46181  12.577   3.671  13.492 -0.1340  0.0461  0.1862
 2027DPPE   C2A46182  12.293   3.341  13.741  0.1377 -0.2169  0.3658
 2027DPPE   C3A46183  11.989   3.248  13.959 -0.0182  0.2674  0.1311
 2027DPPE   C4A46184  11.904   2.967  14.410 -0.3502 -0.0763 -0.1086
 2027DPPE   C1B46185  12.647   4.093  12.779 -0.1027  0.0552  0.0029
 2027DPPE   C2B46186  12.461   3.770  12.571  0.2242 -0.0147 -0.4502
 2027DPPE   C3B46187  12.063   3.720  12.578  0.2061  0.3270 -0.0745
 2027DPPE   C4B46188  11.615   3.630  12.343  0.2253 -0.0859 -0.0630
 2028DPPE   NH346189  23.989   7.894  14.624 -0.0792  0.1733 -0.0399
 2028DPPE   PO446190  23.714   7.578  14.972 -0.2052 -0.0535 -0.0569
 2028DPPE   GL146191  24.043   7.423  15.022 -0.0089 -0.3004 -0.0868
 2028DPPE   GL246192  24.089   7.279  14.718 -0.2071  0.0851  0.2384
 2028DPPE   C1A46193  24.432   7.254  15.100 -0.2143 -0.0175  0.2075
 2028DPPE   C2A46194  24.894   7.024  15.074  0.0323  0.3559  0.0665
 2028DPPE   C3A46195  25.252   7.007  14.997  0.0834  0.1884 -0.3218
 2028DPPE   C4A46196  25.405   6.899  15.387  0.1866  0.1643 -0.0219
 2028DPPE   C1B46197  24.570   7.436  14.694 -0.0355  0.1175 -0.0441
 2028DPPE   C2B46198  24.936   7.200  14.639  0.1795 -0.0919  0.3801
 2028DPPE   C3B46199  25.222   7.017  14.471 -0.1496 -0.0370  0.1992
 2028DPPE   C4B46200  25.388   6.777  14.151  0.0527  0.3116  0.0140
 2029DPPE   NH346201  23.161  36.373  16.997  0.0855  0.0088 -0.4837
 2029DPPE   PO446202  22.736  36.336  17.360  0.3167 -0.0068  0.2293
 2029DPPE   GL146203  22.667  36.727  17.471 -0.1713  0.1620  0.3033
 2029DPPE   GL246204  22.981  36.839  17.211 -0.2586 -0.3303 -0.0198
 2029DPPE   C1A46205  22.550  37.159  17.548  0.4795  0.0874 -0.0333
 2029DPPE   C2A46206  22.435  37.588  17.721  0.0372  0.3402 -0.3559
 2029DPPE   C3A46207  22.095  37.851  17.494  0.2085 -0.2015  0.0507
 2029DPPE   C4A46208  22.193  38.189  17.394  0.0031  0.1937 -0.1152
 2029DPPE   C1B46209  23.003  37.071  17.667  0.0236  0.0877  0.2311
 2029DPPE   C2B46210  22.910  37.465  17.885 -0.1640 -0.1266 -0.1036
 2029DPPE   C3B46211  23.151  37.670  18.062  0.0901 -0.0174  0.1640
 2029DPPE   C4B46212  23.327  38.066  18.306  0.0635 -0.3010 -0.0531
 2030DPPE   NH346213   1.947   5.078  10.732 -0.3386 -0.1288 -0.0062
 2030DPPE   PO446214   1.856   5.413  10.337 -0.2787 -0.0493 -0.0690
 2030DPPE   GL146215   2.161   5.603  10.591  0.0571 -0.3757  0.0620
 2030DPPE   GL246216   2.387   5.478  10.673 -0.0288 -0.1817  0.2456
 2030DPPE   C1A46217   2.275   5.966  10.894  0.1562  0.1756 -0.3289
 2030DPPE   C2A46218   2.624   6.123  11.086 -0.0985  0.1687 -0.0156
 2030DPPE   C3A46219   2.866   6.463  11.276 -0.2942 -0.2417  0.2329
 2030DPPE   C4A46220   3.220   6.613  11.140  0.1153 -0.0652 -0.3937
 2030DPPE   C1B46221   2.676   5.507  10.942  0.3703 -0.0244 -0.0550
 2030DPPE   C2B46222   3.028   5.700  11.041  0.2165  0.1213  0.0952
 2030DPPE   C3B46223   3.424   5.436  11.068 -0.1200 -0.0086 -0.0334
 2030DPPE   C4B46224   3.614   5.207  11.352 -0.0884  0.1872  0.2175
 2031DPPE   NH346225  11.484   5.275  15.320 -0.3098 -0.2377  0.1798
 2031DPPE   PO446226  11.113   5.448  15.690  0.0576  0.1365  0.0036
 2031DPPE   GL146227  10.754   5.507  15.374  0.0916 -0.1461  0.1714
 2031DPPE   GL246228  10.886   5.252  15.174  0.0505 -0.0852 -0.0619
 2031DPPE   C1A46229  10.312   5.395  15.424 -0.0346  0.0202  0.3032
 2031DPPE   C2A46230  10.188   5.026  15.421 -0.3747  0.1035  0.0517
 2031DPPE   C3A46231   9.989   4.859  15.171  0.1540  0.0309  0.1140
 2031DPPE   C4A46232  10.046   4.623  14.925  0.0007  0.0993  0.3015
 2031DPPE   C1B46233  10.940   4.805  15.001  0.2624 -0.0981 -0.2057
 2031DPPE   C2B46234  10.839   4.352  14.953 -0.0024 -0.4801 -0.2144
 2031DPPE   C3B46235  10.579   4.185  14.772 -0.1490  0.2020  0.0719
 2031DPPE   C4B46236  10.199   4.076  14.562 -0.0278  0.0453 -0.1567
 2032DPPE   NH346237  27.722   7.281  12.659  0.2912 -0.1350  0.1012
 2032DPPE   PO446238  27.307   7.158  12.309  0.0256  0.1837 -0.1219
 2032DPPE   GL146239  26.964   7.095  11.826 -0.0692 -0.2243 -0.3122
 2032DPPE   GL246240  26.782   7.169  12.185  0.1735  0.1314 -0.1147
 2032DPPE   C1A46241  26.623   7.341  11.703  0.2865  0.1465  0.2211
 2032DPPE   C2A46242  26.344   7.540  12.093 -0.0217  0.0949 -0.2088
 2032DPPE   C3A46243  26.034   7.745  12.393 -0.0756  0.4021 -0.0727
 2032DPPE   C4A46244  25.690   7.917  12.252  0.0291 -0.0658 -0.2019
 2032DPPE   C1B46245  26.858   7.627  12.114  0.3095  0.4519  0.1726
 2032DPPE   C2B46246  26.601   8.001  12.038 -0.2129  0.0397  0.2293
 2032DPPE   C3B46247  26.422   8.281  11.726 -0.6753  0.1804 -0.1644
 2032DPPE   C4B46248  26.064   8.348  11.440  0.1056 -0.1977  0.0347
 2033DPPE   NH346249  21.041   3.821  12.768  0.2184  0.1376  0.3653
 2033DPPE   PO446250  20.822   4.090  12.353 -0.1763 -0.1824 -0.0662
 2033DPPE   GL146251  21.263   3.877  12.252  0.0154  0.2740 -0.2986
 2033DPPE   GL246252  21.407   3.771  11.849  0.3234  0.0466 -0.0864
 2033DPPE   C1A46253  21.549   3.599  12.387 -0.0944  0.2293 -0.4633
 2033DPPE   C2A46254  21.868   3.254  12.264 -0.1199  0.1451  0.1223
 2033DPPE   C3A46255  22.068   2.807  12.397  0.4995 -0.0948 -0.0456
 2033DPPE   C4A46256  22.329   2.516  12.460  0.4095 -0.1320  0.0545
 2033DPPE   C1B46257  21.794   3.792  11.916 -0.4688  0.2157 -0.0257
 2033DPPE   C2B46258  22.257   3.757  12.020  0.2416 -0.2911  0.0418
 2033DPPE   C3B46259  22.681   3.644  12.198 -0.0206  0.1229 -0.0018
 2033DPPE   C4B46260  22.913   3.377  12.233  0.2889  0.2480 -0.3383
 2034DPPE   NH346261  21.908   6.576  11.678 -0.0887  0.0050  0.0875
 2034DPPE   PO446262  21.810   6.628  11.318  0.2576 -0.2072 -0.0851
 2034DPPE   GL146263  22.077   6.488  11.011  0.0665  0.3013 -0.0458
 2034DPPE   GL246264  22.118   6.245  11.246  0.0067  0.2432 -0.1531
 2034DPPE   C1A46265  22.381   6.494  10.694 -0.3639  0.1953  0.1273
 2034DPPE   C2A46266  22.723   6.293  10.458  0.0959 -0.0738  0.2499
 2034DPPE   C3A46267  23.187   6.308  10.487 -0.1665 -0.1925 -0.0433
 2034DPPE   C4A46268  23.591   6.280  10.418  0.2335 -0.2267  0.0005
 2034DPPE   C1B46269  22.529   6.245  11.110 -0.1458 -0.1114  0.0163
 2034DPPE   C2B46270  22.970   6.131  10.997 -0.2363 -0.0669  0.0669
 2034DPPE   C3B46271  23.395   6.246  10.919 -0.1856  0.1201  0.2626
 2034DPPE   C4B46272  23.907   6.222  10.770 -0.0019  0.1914 -0.1506
 2035DPPE   NH346273  13.633   4.570  12.987  0.0353  0.0216  0.1282
 2035DPPE   PO446274  13.845   4.215  12.981 -0.0294 -0.0095 -0.3096
 2035DPPE   GL146275  14.007   3.858  12.988  0.2276  0.1598 -0.0440
 2035DPPE   GL246276  13.935   3.856  12.608  0.1515 -0.1342  0.2091
 2035DPPE   C1A46277  13.977   3.477  12.862 -0.0728 -0.1064 -0.0058
 2035DPPE   C2A46278  13.780   3.175  12.536 -0.2174  0.0179  0.0437
 2035DPPE   C3A46279  13.664   2.839  12.321  0.0317 -0.2265  0.1032
 2035DPPE   C4A46280  13.515   2.747  11.904  0.0503  0.0185  0.0342
 2035DPPE   C1B46281  13.849   3.564  12.217  0.1228 -0.1677 -0.3587
 2035DPPE   C2B46282  13.810   3.396  11.691 -0.1994 -0.2048 -0.0598
 2035DPPE   C3B46283  13.780   2.905  11.519  0.2070  0.0070  0.1770
 2035DPPE   C4B46284  13.438   2.585  11.177 -0.0955 -0.1070 -0.1686
 2036DPPE   NH346285  21.143   5.943   5.829  0.1533  0.0710  0.1740
 2036DPPE   PO446286  20.978   5.598   6.079 -0.1360  0.2523  0.2466
 2036DPPE   GL146287  20.632   5.718   5.949  0.2986 -0.1354  0.1211
 2036DPPE   GL246288  20.357   5.524   5.845  0.0906 -0.4796  0.0060
 2036DPPE   C1A46289  20.283   6.009   5.989  0.4055 -0.0751  0.3016
 2036DPPE   C2A46290  19.914   6.161   6.215  0.3150 -0.0651 -0.0560
 2036DPPE   C3A46291  19.640   6.091   6.554  0.1087 -0.0212  0.2491
 2036DPPE   C4A46292  19.704   5.819   6.854 -0.2709 -0.2312 -0.0252
 2036DPPE   C1B46293  19.941   5.611   6.106  0.0491  0.0536 -0.2520
 2036DPPE   C2B46294  19.592   5.565   6.322  0.3759 -0.1767  0.2881
 2036DPPE   C3B46295  19.242   5.336   6.610  0.1608  0.0027 -0.1180
 2036DPPE   C4B46296  19.047   5.007   6.764 -0.3319  0.0711 -0.0575
 2037DPPE   NH346297  10.759   5.786  15.820  0.0443  0.0393  0.2955
 2037DPPE   PO446298  10.886   5.994  15.449  0.1113 -0.0337  0.0592
 2037DPPE   GL146299  10.538   6.137  15.330  0.1453 -0.2184 -0.4306
 2037DPPE   GL246300  10.537   5.930  15.131  0.0147 -0.2797  0.4364
 2037DPPE   C1A46301  10.128   6.261  15.195 -0.0343 -0.2557 -0.0158
 2037DPPE   C2A46302   9.835   5.974  15.046  0.0580 -0.0190 -0.0704
 2037DPPE   C3A46303   9.497   5.861  15.199 -0.0897 -0.1980 -0.1698
 2037DPPE   C4A46304   9.097   5.866  15.045  0.3545  0.0838 -0.2852
 2037DPPE   C1B46305  10.219   5.643  14.985  0.0353  0.1325 -0.0808
 2037DPPE   C2B46306  10.347   5.145  14.962 -0.0714 -0.4365  0.0926
 2037DPPE   C3B46307  10.269   4.928  14.631 -0.0560 -0.2577 -0.0632
 2037DPPE   C4B46308   9.987   4.831  14.330  0.2990  0.0507 -0.3191
 2038DPPE   NH346309  24.509  11.343  25.128  0.0401  0.3849 -0.0042
 2038DPPE   PO446310  24.512  11.287  24.741  0.0761  0.0664  0.1005
 2038DPPE   GL146311  24.303  11.429  24.334  0.2592 -0.3111  0.3369
 2038DPPE   GL246312  23.939  11.326  24.254 -0.2098  0.2325  0.3647
 2038DPPE   C1A46313  24.263  11.637  23.967 -0.1900  0.2429  0.1183
 2038DPPE   C2A46314  24.209  11.787  23.635  0.3252  0.2908  0.4354
 2038DPPE   C3A46315  24.123  11.894  23.177 -0.2086 -0.2063  0.1008
 2038DPPE   C4A46316  24.049  12.184  22.836  0.1563  0.0354 -0.1906
 2038DPPE   C1B46317  23.723  11.085  24.081 -0.1387  0.0150  0.1157
 2038DPPE   C2B46318  23.423  11.086  23.793  0.1149 -0.1327  0.3877
 2038DPPE   C3B46319  23.229  11.183  23.457 -0.1800  0.3244  0.1189
 2038DPPE   C4B46320  23.388  11.316  23.147  0.0469 -0.2066  0.1852
 2039DPPE   NH346321  14.662  17.667  19.938  0.0318 -0.3361  0.0719
 2039DPPE   PO446322  14.392  17.389  20.130 -0.1861  0.1538  0.1878
 2039DPPE   GL146323  14.005  17.617  20.216  0.1342  0.3339  0.0045
 2039DPPE   GL246324  13.943  17.935  20.025 -0.4371 -0.3903 -0.1496
 2039DPPE   C1A46325  13.878  17.811  20.535 -0.0097 -0.0273  0.0028
 2039DPPE   C2A46326  13.895  18.163  20.809  0.1699  0.1067 -0.0523
 2039DPPE   C3A46327  13.906  18.500  21.110  0.0804 -0.2247  0.0326
 2039DPPE   C4A46328  14.007  18.401  21.522 -0.0030  0.3245  0.3253
 2039DPPE   C1B46329  13.591  18.181  19.869  0.2474 -0.2011 -0.2511
 2039DPPE   C2B46330  13.302  18.544  20.080  0.2591  0.3294  0.0361
 2039DPPE   C3B46331  13.304  19.023  20.053 -0.1431  0.1467  0.0508
 2039DPPE   C4B46332  13.487  19.451  20.126  0.0769  0.2557 -0.2483
 2040DPPE   NH346333   8.808  34.952  17.929 -0.1252  0.2190  0.3720
 2040DPPE   PO446334   8.506  35.240  18.069  0.1459 -0.2153 -0.0407
 2040DPPE   GL146335   8.576  35.361  17.719  0.0534  0.3052  0.0542
 2040DPPE   GL246336   8.298  35.483  17.580 -0.3290 -0.3562  0.1426
 2040DPPE   C1A46337   8.664  35.310  17.325  0.1617 -0.0066  0.1507
 2040DPPE   C2A46338   8.881  35.468  16.982 -0.1352 -0.2706  0.0411
 2040DPPE   C3A46339   9.105  35.632  16.569 -0.3911  0.1535 -0.0483
 2040DPPE   C4A46340   9.315  35.911  16.164  0.0894  0.5174 -0.0886
 2040DPPE   C1B46341   8.339  35.670  17.145  0.2173  0.2615  0.0668
 2040DPPE   C2B46342   8.253  35.945  16.920 -0.1628 -0.3499 -0.0562
 2040DPPE   C3B46343   8.001  36.341  16.802  0.2676  0.1568  0.1190
 2040DPPE   C4B46344   7.734  36.289  16.494  0.0380 -0.4246  0.1372
 2041DPPE   NH346345  17.282   7.112   9.663 -0.0158 -0.1471  0.0212
 2041DPPE   PO446346  17.548   6.878   9.345  0.0170  0.0729 -0.0663
 2041DPPE   GL146347  17.782   7.005   8.919 -0.2173  0.1091 -0.0848
 2041DPPE   GL246348  18.014   6.884   8.756 -0.1646  0.1021 -0.1770
 2041DPPE   C1A46349  17.607   6.958   8.430  0.1276  0.1780 -0.1308
 2041DPPE   C2A46350  17.721   7.027   7.963  0.4388  0.2770  0.1664
 2041DPPE   C3A46351  17.959   6.990   7.646  0.3673  0.4264  0.0287
 2041DPPE   C4A46352  18.160   7.034   7.330  0.1028 -0.1534 -0.2907
 2041DPPE   C1B46353  18.353   6.622   8.566 -0.0464  0.1310 -0.2564
 2041DPPE   C2B46354  18.307   6.257   8.461  0.1375  0.2143  0.0439
 2041DPPE   C3B46355  18.265   5.795   8.315 -0.0832  0.2951 -0.4397
 2041DPPE   C4B46356  18.345   5.281   8.193 -0.0994 -0.0847  0.2106
 2042DPPE   NH346357  13.091   2.341  24.297 -0.2785  0.0280  0.0761
 2042DPPE   PO446358  13.185   2.522  24.647  0.1972 -0.1535 -0.0435
 2042DPPE   GL146359  13.276   2.909  24.358  0.2470 -0.0473 -0.1040
 2042DPPE   GL246360  13.030   3.123  24.234 -0.1011  0.0610  0.3959
 2042DPPE   C1A46361  13.409   2.958  23.935  0.2181 -0.2873  0.2555
 2042DPPE   C2A46362  13.401   3.064  23.526  0.0569 -0.1551 -0.2636
 2042DPPE   C3A46363  13.564   3.280  23.128 -0.1078  0.0915 -0.0534
 2042DPPE   C4A46364  13.824   3.280  22.648 -0.1545 -0.1096  0.1494
 2042DPPE   C1B46365  13.121   3.357  23.799 -0.2927  0.2587  0.0098
 2042DPPE   C2B46366  13.246   3.608  23.409 -0.1230  0.2065 -0.0805
 2042DPPE   C3B46367  13.068   3.692  23.005  0.2021  0.1357 -0.0687
 2042DPPE   C4B46368  12.900   3.620  22.608 -0.0042  0.2811  0.2516
 2043DPPE   NH346369  23.112   5.720  15.061 -0.1048 -0.0655  0.2904
 2043DPPE   PO446370  23.421   5.962  15.306 -0.0097  0.2646  0.0945
 2043DPPE   GL146371  23.690   5.647  15.145  0.1264 -0.1704 -0.3200
 2043DPPE   GL246372  23.943   5.903  15.210  0.2976  0.0260  0.2297
 2043DPPE   C1A46373  23.988   5.349  15.003 -0.1848  0.3819  0.1986
 2043DPPE   C2A46374  24.330   5.086  14.828  0.1563  0.2536 -0.4526
 2043DPPE   C3A46375  24.596   4.780  14.724  0.2020 -0.1732  0.0834
 2043DPPE   C4A46376  24.983   4.605  14.659 -0.1977  0.1282 -0.0952
 2043DPPE   C1B46377  24.293   5.861  14.974  0.0552  0.0386  0.1543
 2043DPPE   C2B46378  24.557   5.719  14.644  0.1560  0.0703  0.1868
 2043DPPE   C3B46379  24.827   5.392  14.393  0.1474  0.0080 -0.0900
 2043DPPE   C4B46380  25.114   5.551  14.075 -0.0055 -0.0694  0.0989
 2044DPPE   NH346381  14.016   7.123  11.091 -0.1067  0.0055  0.0898
 2044DPPE   PO446382  13.725   6.918  11.147  0.0010  0.0857  0.0287
 2044DPPE   GL146383  13.445   6.710  10.807  0.2065 -0.3105  0.1933
 2044DPPE   GL246384  13.664   6.569  10.597  0.0881 -0.2710  0.0740
 2044DPPE   C1A46385  13.288   6.795  10.397 -0.1711  0.1214  0.0499
 2044DPPE   C2A46386  13.175   6.438  10.027  0.1444  0.0889  0.1377
 2044DPPE   C3A46387  13.154   6.483   9.697  0.2818 -0.3178  0.0299
 2044DPPE   C4A46388  12.825   6.362   9.460 -0.0013 -0.0530  0.1927
 2044DPPE   C1B46389  13.407   6.307  10.393 -0.2057  0.1910 -0.0407
 2044DPPE   C2B46390  13.000   6.153  10.390  0.1088  0.2129  0.2441
 2044DPPE   C3B46391  13.180   5.734  10.248  0.4283  0.0768 -0.0445
 2044DPPE   C4B46392  13.131   5.654   9.753 -0.1320 -0.1512 -0.1647
 2045DPPE   NH346393  11.227   7.061  13.622  0.3844  0.1976  0.0317
 2045DPPE   PO446394  11.247   7.132  13.168  0.0166 -0.0586  0.1748
 2045DPPE   GL146395  11.035   6.752  13.107 -0.0334  0.2320  0.2674
 2045DPPE   GL246396  10.782   6.777  13.245 -0.0326 -0.0519 -0.1488
 2045DPPE   C1A46397  11.045   6.429  12.821  0.3474 -0.2600 -0.2560
 2045DPPE   C2A46398  10.879   6.278  12.414  0.1582 -0.0629  0.0254
 2045DPPE   C3A46399  10.515   6.110  12.161 -0.1196 -0.0919  0.2136
 2045DPPE   C4A46400  10.198   6.141  12.277  0.3117 -0.0335 -0.0151
 2045DPPE   C1B46401  10.420   6.519  13.264  0.0468 -0.2186 -0.0619
 2045DPPE   C2B46402  10.109   6.294  13.244  0.0075 -0.0960  0.1350
 2045DPPE   C3B46403   9.726   6.079  13.128 -0.0900 -0.2634  0.2116
 2045DPPE   C4B46404   9.506   5.744  13.285 -0.2534 -0.3282  0.1104
 2046DPPE   NH346405  15.011   7.265  10.491 -0.0642 -0.0321  0.0208
 2046DPPE   PO446406  14.612   7.381  10.313  0.0466  0.0549  0.2419
 2046DPPE   GL146407  14.477   7.213   9.960  0.0215 -0.0824  0.0908
 2046DPPE   GL246408  14.616   7.403   9.679 -0.1206  0.0146  0.2758
 2046DPPE   C1A46409  14.211   7.128   9.648 -0.1350  0.0092  0.0272
 2046DPPE   C2A46410  13.842   6.938   9.455  0.1259  0.1220 -0.3372
 2046DPPE   C3A46411  13.560   6.605   9.394 -0.1764 -0.0699  0.0467
 2046DPPE   C4A46412  13.288   6.204   9.309  0.1177 -0.0092 -0.2154
 2046DPPE   C1B46413  14.779   7.104   9.467 -0.0886  0.0294 -0.0777
 2046DPPE   C2B46414  14.651   7.006   9.058 -0.3847 -0.1306 -0.0130
 2046DPPE   C3B46415  14.847   7.197   8.644  0.1395  0.1247  0.0308
 2046DPPE   C4B46416  14.956   7.459   8.291  0.1173 -0.3886  0.2977
 2047DPPE   NH346417  17.891   4.327  11.144 -0.3684 -0.1746 -0.0101
 2047DPPE   PO446418  18.017   4.404  10.705 -0.1252  0.1711  0.0257
 2047DPPE   GL146419  17.806   4.231  10.325  0.1243 -0.0436  0.2605
 2047DPPE   GL246420  17.840   4.408  10.020  0.0170  0.0380  0.1432
 2047DPPE   C1A46421  17.787   3.851  10.016 -0.2487  0.2998 -0.2613
 2047DPPE   C2A46422  17.559   3.666   9.641 -0.0032 -0.1637 -0.0877
 2047DPPE   C3A46423  17.595   3.543   9.237 -0.1889  0.0651 -0.0652
 2047DPPE   C4A46424  17.427   3.252   8.921  0.1861  0.0185 -0.3199
 2047DPPE   C1B46425  17.710   4.134   9.585  0.0371  0.2584 -0.0815
 2047DPPE   C2B46426  17.381   4.223   9.301  0.0439 -0.1939 -0.2655
 2047DPPE   C3B46427  16.959   4.182   9.203 -0.1961  0.0877  0.1470
 2047DPPE   C4B46428  16.627   3.905   9.150 -0.1371  0.1298  0.0228
 2048DPPE   NH346429  21.068   3.348  14.717  0.4241 -0.0448 -0.0600
 2048DPPE   PO446430  21.397   3.114  14.964 -0.0888 -0.1912 -0.1744
 2048DPPE   GL146431  21.783   3.007  15.088 -0.1223 -0.0171 -0.0390
 2048DPPE   GL246432  21.815   2.818  15.352  0.0151 -0.0488 -0.2764
 2048DPPE   C1A46433  22.112   2.824  14.840  0.0889  0.1983  0.3306
 2048DPPE   C2A46434  22.282   2.504  14.640  0.0706 -0.2047  0.1740
 2048DPPE   C3A46435  22.400   2.150  14.657 -0.2629 -0.4312  0.0499
 2048DPPE   C4A46436  22.267   1.760  14.625  0.1657 -0.1041 -0.0844
 2048DPPE   C1B46437  22.221   2.583  15.224 -0.2368 -0.1813 -0.3439
 2048DPPE   C2B46438  22.494   2.276  15.094  0.1777  0.4262 -0.1180
 2048DPPE   C3B46439  22.600   1.812  15.249 -0.0835  0.0113  0.1261
 2048DPPE   C4B46440  22.757   1.428  15.225  0.5561 -0.2841  0.2702
 2049DPPE   NH346441  12.853   5.592  12.361 -0.3307 -0.0556 -0.0862
 2049DPPE   PO446442  12.749   5.681  12.807 -0.1787  0.0399 -0.2887
 2049DPPE   GL146443  12.434   5.286  12.650 -0.0329  0.0972  0.3132
 2049DPPE   GL246444  12.336   5.058  12.842  0.3507 -0.1934 -0.2948
 2049DPPE   C1A46445  12.171   5.026  12.289 -0.1295 -0.1153  0.2178
 2049DPPE   C2A46446  12.012   4.618  12.151  0.6079 -0.3676 -0.0374
 2049DPPE   C3A46447  12.095   4.619  11.725 -0.4419  0.0415 -0.1529
 2049DPPE   C4A46448  12.366   4.391  11.447 -0.2351  0.0206  0.0475
 2049DPPE   C1B46449  11.983   4.750  12.654 -0.2098  0.1279  0.4952
 2049DPPE   C2B46450  11.499   4.547  12.451  0.2136  0.2492  0.4553
 2049DPPE   C3B46451  11.149   4.369  12.756  0.3152 -0.1014 -0.1171
 2049DPPE   C4B46452  10.861   4.110  12.918  0.2562  0.1647 -0.0783
 2050DPPE   NH346453  21.473  14.084  10.920 -0.1095  0.1809  0.0593
 2050DPPE   PO446454  21.713  13.979  10.663 -0.3388 -0.0886 -0.1399
 2050DPPE   GL146455  21.910  14.133  10.322 -0.2399  0.1746 -0.5195
 2050DPPE   GL246456  21.746  14.401  10.123 -0.0243 -0.1147  0.0804
 2050DPPE   C1A46457  22.258  14.213   9.991 -0.1935 -0.3590  0.1700
 2050DPPE   C2A46458  22.347  14.070   9.482  0.2256 -0.0763 -0.0555
 2050DPPE   C3A46459  22.342  14.024   9.198 -0.2881  0.2559  0.2767
 2050DPPE   C4A46460  22.036  13.955   8.745 -0.2437 -0.0711  0.1356
 2050DPPE   C1B46461  21.843  14.766  10.137  0.1062  0.1444  0.0141
 2050DPPE   C2B46462  21.892  15.132   9.915 -0.2432 -0.0309  0.0245
 2050DPPE   C3B46463  21.996  15.564   9.891 -0.1351 -0.0927 -0.1225
 2050DPPE   C4B46464  21.785  15.849  10.014 -0.0006 -0.2029  0.1519
 2051DPPE   NH346465  24.550  10.622  15.586  0.0800 -0.0031  0.0854
 2051DPPE   PO446466  24.673  10.196  15.481 -0.2144  0.3396  0.2524
 2051DPPE   GL146467  25.015  10.029  15.798 -0.3266 -0.2074  0.2460
 2051DPPE   GL246468  25.248   9.765  15.603  0.0400 -0.0411 -0.3031
 2051DPPE   C1A46469  25.296  10.078  16.016 -0.0584  0.0359  0.2011
 2051DPPE   C2A46470  25.688  10.158  16.127  0.1455  0.0798  0.0801
 2051DPPE   C3A46471  26.090  10.266  16.239 -0.0024 -0.0868 -0.1441
 2051DPPE   C4A46472  26.251  10.268  16.587 -0.0615 -0.4199  0.0937
 2051DPPE   C1B46473  25.586  10.097  15.444 -0.0258 -0.1502  0.3206
 2051DPPE   C2B46474  25.919  10.214  15.673  0.3456 -0.2140  0.1784
 2051DPPE   C3B46475  26.310  10.508  15.874  0.2637 -0.1212 -0.0093
 2051DPPE   C4B46476  26.612  10.396  16.167  0.1761 -0.0023  0.1267
 2052DPPE   NH346477  22.220  36.095  12.014  0.1731  0.0034  0.0394
 2052DPPE   PO446478  22.014  35.925  11.757  0.4455 -0.1357 -0.0082
 2052DPPE   GL146479  21.791  36.328  11.843  0.0874 -0.1865 -0.0869
 2052DPPE   GL246480  21.451  36.410  12.065 -0.2908  0.1107  0.2344
 2052DPPE   C1A46481  21.763  36.808  11.903 -0.2618  0.0705 -0.0047
 2052DPPE   C2A46482  21.541  37.049  11.883 -0.0570 -0.2113 -0.0032
 2052DPPE   C3A46483  21.270  37.263  12.107 -0.3308  0.0424 -0.2049
 2052DPPE   C4A46484  21.223  37.577  12.380  0.2573  0.3351  0.0864
 2052DPPE   C1B46485  21.278  36.761  12.313 -0.2207  0.0607  0.2521
 2052DPPE   C2B46486  20.965  37.043  12.446  0.0901  0.3237 -0.1622
 2052DPPE   C3B46487  20.433  37.239  12.601  0.0780 -0.1603  0.0750
 2052DPPE   C4B46488  20.170  37.302  12.939 -0.0204  0.0065  0.2462
 2053DPPE   NH346489  13.062   9.597  10.237 -0.2458 -0.3476 -0.3411
 2053DPPE   PO446490  12.787   9.859  10.027  0.1702  0.2375 -0.2237
 2053DPPE   GL146491  12.341   9.846   9.875  0.1047 -0.0146  0.2324
 2053DPPE   GL246492  12.193   9.625  10.029  0.0548  0.0559  0.1085
 2053DPPE   C1A46493  12.019   9.859   9.617 -0.0741  0.0051 -0.0031
 2053DPPE   C2A46494  11.587   9.660   9.612 -0.1450 -0.1436 -0.1458
 2053DPPE   C3A46495  11.276   9.455   9.861 -0.0352  0.0327  0.1363
 2053DPPE   C4A46496  10.801   9.456   9.785  0.0827 -0.1628  0.0468
 2053DPPE   C1B46497  11.801   9.532  10.030  0.1771  0.1963  0.2354
 2053DPPE   C2B46498  11.702   9.185   9.944  0.0558  0.1131 -0.2753
 2053DPPE   C3B46499  11.513   9.002   9.620  0.1716 -0.2252 -0.0973
 2053DPPE   C4B46500  11.472   8.824   9.168  0.1833  0.0166 -0.0099
 2054DPPE   NH346501  13.307   5.842  12.458  0.2410 -0.1599  0.1131
 2054DPPE   PO446502  13.099   5.800  11.995  0.0517 -0.1116  0.0586
 2054DPPE   GL146503  13.017   5.355  11.880 -0.0642 -0.3494 -0.0419
 2054DPPE   GL246504  12.646   5.261  12.000 -0.2413  0.1991 -0.0475
 2054DPPE   C1A46505  13.026   4.939  11.797 -0.1427 -0.2154  0.0284
 2054DPPE   C2A46506  12.814   4.617  11.830 -0.0488  0.0184  0.1613
 2054DPPE   C3A46507  12.698   4.138  11.699 -0.0659 -0.1451 -0.1313
 2054DPPE   C4A46508  12.817   3.720  11.517  0.1596  0.3021  0.0072
 2054DPPE   C1B46509  12.428   4.989  11.757 -0.0748 -0.2023 -0.1844
 2054DPPE   C2B46510  12.332   4.895  11.320 -0.3229  0.1313  0.0441
 2054DPPE   C3B46511  12.148   5.095  10.867 -0.2584  0.1442 -0.0349
 2054DPPE   C4B46512  12.068   4.925  10.528  0.0891  0.1758 -0.0946
 2055DPPE   NH346513  25.348   5.093  22.646  0.3959 -0.1052 -0.1249
 2055DPPE   PO446514  25.290   5.457  22.318 -0.2037 -0.0325 -0.2952
 2055DPPE   GL146515  24.843   5.665  22.363 -0.0478 -0.2327  0.1696
 2055DPPE   GL246516  24.743   5.949  22.512 -0.1549  0.0644  0.3046
 2055DPPE   C1A46517  24.387   5.618  22.317 -0.0484  0.0594 -0.0192
 2055DPPE   C2A46518  23.947   5.580  22.147  0.1492 -0.0605  0.0263
 2055DPPE   C3A46519  23.628   5.904  21.967 -0.0082  0.1058  0.2770
 2055DPPE   C4A46520  23.354   6.321  21.886 -0.2376 -0.0357 -0.1988
 2055DPPE   C1B46521  24.681   6.283  22.076 -0.3863 -0.0905 -0.3284
 2055DPPE   C2B46522  24.420   6.519  21.797  0.2082 -0.1429  0.1143
 2055DPPE   C3B46523  24.244   6.893  21.614  0.0596  0.2377  0.1568
 2055DPPE   C4B46524  24.200   7.250  21.312 -0.0134  0.3736 -0.1097
 2056DPPE   NH346525  15.809   7.842   9.706  0.0657 -0.0922 -0.0894
 2056DPPE   PO446526  15.471   7.835  10.054  0.0577  0.3335  0.3062
 2056DPPE   GL146527  15.287   7.720   9.619  0.3809  0.1662 -0.2710
 2056DPPE   GL246528  15.079   7.508   9.529 -0.1184 -0.0303  0.1891
 2056DPPE   C1A46529  15.431   7.585   9.178 -0.2597 -0.0827  0.2748
 2056DPPE   C2A46530  15.725   7.651   8.771 -0.0035 -0.0986  0.0226
 2056DPPE   C3A46531  15.955   7.962   8.611  0.2239  0.0477 -0.0417
 2056DPPE   C4A46532  15.850   8.438   8.729 -0.0833  0.0816  0.1129
 2056DPPE   C1B46533  14.762   7.524   9.158 -0.1046  0.0303 -0.1127
 2056DPPE   C2B46534  14.554   7.485   8.855 -0.3298 -0.3933 -0.2737
 2056DPPE   C3B46535  14.536   7.671   8.358 -0.2412  0.1743  0.1781
 2056DPPE   C4B46536  14.552   7.445   8.003  0.0678 -0.3479 -0.1166
 2057DPPE   NH346537  23.793  11.346   7.225  0.0794 -0.1440  0.1412
 2057DPPE   PO446538  23.480  10.956   7.237 -0.4808 -0.1686 -0.2187
 2057DPPE   GL146539  23.097  11.211   7.402 -0.0928 -0.2451  0.1273
 2057DPPE   GL246540  23.239  11.538   7.200  0.2893  0.0517 -0.0629
 2057DPPE   C1A46541  22.795  11.505   7.544  0.3812 -0.1080 -0.0967
 2057DPPE   C2A46542  22.797  11.804   7.867  0.2800 -0.3038 -0.0587
 2057DPPE   C3A46543  22.704  11.957   8.273  0.0882 -0.0067  0.0347
 2057DPPE   C4A46544  22.805  11.966   8.709 -0.1919  0.2603  0.0546
 2057DPPE   C1B46545  23.258  11.588   7.692 -0.0442 -0.2291 -0.0070
 2057DPPE   C2B46546  23.031  11.424   8.056  0.0140  0.1554 -0.2260
 2057DPPE   C3B46547  22.540  11.475   8.173 -0.0491 -0.0372 -0.2616
 2057DPPE   C4B46548  22.167  11.443   8.416 -0.1206  0.0572 -0.0944
 2058DPPE   NH346549  24.784   0.724  14.681  0.0015  0.0068 -0.1595
 2058DPPE   PO446550  24.537   0.832  14.244 -0.2052 -0.2568 -0.0967
 2058DPPE   GL146551  24.333   1.179  14.596 -0.0622  0.2348 -0.0897
 2058DPPE   GL246552  24.127   1.069  14.832  0.0251  0.0648 -0.3023
 2058DPPE   C1A46553  23.967   1.459  14.595  0.0854  0.0902 -0.1510
 2058DPPE   C2A46554  23.784   1.762  14.379  0.0255 -0.1258  0.1382
 2058DPPE   C3A46555  23.733   2.084  13.939 -0.1408 -0.0381  0.4167
 2058DPPE   C4A46556  23.261   2.182  13.800  0.3083  0.1538 -0.0499
 2058DPPE   C1B46557  23.670   1.241  14.952  0.0438  0.0149  0.1708
 2058DPPE   C2B46558  23.231   1.333  14.953 -0.4610  0.3187 -0.0286
 2058DPPE   C3B46559  23.142   1.760  15.004  0.1776 -0.1433  0.0265
 2058DPPE   C4B46560  23.056   2.190  15.075  0.0286 -0.0438  0.0153
 2059DPPE   NH346561   4.007  11.097   6.595 -0.1192 -0.0397 -0.0724
 2059DPPE   PO446562   3.817  11.359   6.808 -0.0356  0.1273 -0.1072
 2059DPPE   GL146563   4.116  11.422   7.022 -0.0554  0.3350  0.0120
 2059DPPE   GL246564   4.140  11.096   7.194 -0.2037  0.3683 -0.0954
 2059DPPE   C1A46565   4.256  11.577   7.422  0.1950  0.3132 -0.1680
 2059DPPE   C2A46566   4.396  11.374   7.763  0.0380 -0.0071  0.1018
 2059DPPE   C3A46567   4.507  11.192   8.050  0.2114  0.0943  0.2625
 2059DPPE   C4A46568   4.799  10.810   8.032  0.0705  0.2129 -0.0463
 2059DPPE   C1B46569   4.023  11.114   7.633  0.0115 -0.3988  0.0957
 2059DPPE   C2B46570   4.018  11.005   8.095  0.2638  0.2360 -0.2578
 2059DPPE   C3B46571   4.245  10.947   8.346  0.0557  0.4768 -0.0504
 2059DPPE   C4B46572   4.491  10.553   8.350 -0.1637 -0.0956  0.1062
 2060DPPE   NH346573  17.291   3.888  11.468 -0.1619  0.0084 -0.1973
 2060DPPE   PO446574  17.430   4.246  11.310  0.2238 -0.3203  0.3109
 2060DPPE   GL146575  17.484   4.168  10.833  0.0312 -0.0562 -0.1435
 2060DPPE   GL246576  17.062   4.218  10.928 -0.1037  0.0400 -0.1713
 2060DPPE   C1A46577  17.342   4.135  10.405  0.0637  0.2793 -0.0097
 2060DPPE   C2A46578  16.927   4.188  10.174 -0.0051 -0.2295 -0.2719
 2060DPPE   C3A46579  16.652   3.862  10.068  0.0903 -0.4705  0.0309
 2060DPPE   C4A46580  16.241   3.942   9.850 -0.0782 -0.2812  0.1080
 2060DPPE   C1B46581  16.755   4.425  10.683 -0.0444  0.1186 -0.2246
 2060DPPE   C2B46582  16.428   4.198  10.395 -0.1039  0.0350  0.0363
 2060DPPE   C3B46583  16.094   4.433  10.132 -0.0731  0.3103  0.1666
 2060DPPE   C4B46584  15.768   4.316   9.820  0.3140  0.1909  0.0572
 2061DPPE   NH346585  22.601  16.357  24.986 -0.0490  0.2174  0.0074
 2061DPPE   PO446586  22.377  16.357  24.618 -0.2038 -0.1126  0.0420
 2061DPPE   GL146587  22.005  16.205  24.527  0.2203 -0.0886  0.2195
 2061DPPE   GL246588  21.978  16.412  24.270  0.1766  0.1558  0.2203
 2061DPPE   C1A46589  21.569  16.176  24.335  0.2897 -0.3075  0.0822
 2061DPPE   C2A46590  21.271  15.802  24.301 -0.1407  0.0025 -0.1359
 2061DPPE   C3A46591  20.946  15.427  24.136  0.2009 -0.0170  0.1260
 2061DPPE   C4A46592  20.527  15.424  23.947  0.1745  0.3336  0.0817
 2061DPPE   C1B46593  21.911  16.112  23.987 -0.5365 -0.0341 -0.1060
 2061DPPE   C2B46594  21.731  15.869  23.599 -0.0757 -0.0617  0.2271
 2061DPPE   C3B46595  21.425  15.636  23.255  0.1161  0.1166 -0.0145
 2061DPPE   C4B46596  20.980  15.805  23.224 -0.1137 -0.2365  0.1170
 2062DPPE   NH346597  23.688   3.799  23.384  0.0245  0.0579  0.1118
 2062DPPE   PO446598  23.958   4.072  23.197 -0.0584 -0.1196  0.0195
 2062DPPE   GL146599  23.749   4.477  23.089  0.1005  0.0400 -0.0216
 2062DPPE   GL246600  23.677   4.750  23.442  0.0805 -0.0760  0.0328
 2062DPPE   C1A46601  23.430   4.809  22.972 -0.0120  0.0798  0.0479
 2062DPPE   C2A46602  23.043   5.033  22.798 -0.5336 -0.0610  0.0321
 2062DPPE   C3A46603  22.669   5.102  22.602  0.1421  0.1548  0.3357
 2062DPPE   C4A46604  22.460   5.453  22.661  0.1061 -0.2668 -0.0293
 2062DPPE   C1B46605  23.637   5.142  23.202 -0.2847  0.2006 -0.0230
 2062DPPE   C2B46606  23.371   5.396  22.938 -0.2101  0.0110  0.0449
 2062DPPE   C3B46607  23.410   5.593  22.479  0.1435  0.1979 -0.5991
 2062DPPE   C4B46608  23.196   5.592  22.041 -0.1808  0.2462  0.2079
 2063DPPE   NH346609  17.814   9.083   2.915  0.1968  0.3303 -0.0793
 2063DPPE   PO446610  18.202   8.844   3.201  0.1193 -0.0025 -0.3069
 2063DPPE   GL146611  17.977   8.715   3.595 -0.0727  0.1015  0.0136
 2063DPPE   GL246612  17.938   8.837   3.985  0.3321 -0.1660 -0.0918
 2063DPPE   C1A46613  17.956   8.296   3.863  0.0538 -0.0395 -0.0343
 2063DPPE   C2A46614  17.703   7.926   4.106  0.2814 -0.2094 -0.4127
 2063DPPE   C3A46615  17.409   7.607   4.092  0.1541  0.2586  0.3446
 2063DPPE   C4A46616  17.522   7.326   4.415 -0.1806  0.0797  0.1406
 2063DPPE   C1B46617  17.517   8.776   3.945  0.0671 -0.1782 -0.0224
 2063DPPE   C2B46618  17.506   8.430   3.716  0.3400  0.0486 -0.0028
 2063DPPE   C3B46619  17.377   8.374   3.487 -0.1494 -0.0348 -0.2530
 2063DPPE   C4B46620  16.909   8.302   3.476 -0.0486 -0.1932 -0.2108
 2064DPPE   NH346621  18.565  16.685  20.299  0.0078  0.1578  0.5441
 2064DPPE   PO446622  18.353  16.622  20.658 -0.1610  0.2697 -0.0920
 2064DPPE   GL146623  18.330  16.892  20.904  0.1887 -0.0978 -0.0650
 2064DPPE   GL246624  18.023  17.136  20.824  0.1091 -0.2301 -0.0759
 2064DPPE   C1A46625  18.528  17.129  21.220 -0.0096 -0.2659  0.2922
 2064DPPE   C2A46626  18.737  17.361  21.440  0.0113 -0.0554  0.1433
 2064DPPE   C3A46627  19.023  17.664  21.610 -0.1237 -0.0213 -0.1009
 2064DPPE   C4A46628  19.135  18.081  21.650  0.0706  0.0366  0.3391
 2064DPPE   C1B46629  18.083  17.641  20.910 -0.0436  0.2041  0.0120
 2064DPPE   C2B46630  18.188  18.062  21.249  0.1083  0.0036 -0.1907
 2064DPPE   C3B46631  18.306  18.461  21.579 -0.2346  0.3496 -0.1906
 2064DPPE   C4B46632  18.257  18.668  21.988  0.1857  0.1912 -0.0550
 2065DPPE   NH346633  10.835   8.419  21.594 -0.0195 -0.1830 -0.3110
 2065DPPE   PO446634  11.159   8.580  21.778 -0.1522  0.0153 -0.1045
 2065DPPE   GL146635  11.011   8.920  22.125 -0.1727 -0.0269  0.0225
 2065DPPE   GL246636  10.813   9.114  21.966  0.0749 -0.1906  0.2225
 2065DPPE   C1A46637  10.927   8.814  22.510  0.0351 -0.2467  0.1037
 2065DPPE   C2A46638  11.011   8.736  22.892  0.0881 -0.1537  0.2418
 2065DPPE   C3A46639  10.684   8.620  23.291 -0.1643 -0.1787  0.1853
 2065DPPE   C4A46640  10.460   8.690  23.635  0.0557 -0.0424  0.4582
 2065DPPE   C1B46641  10.550   9.224  22.295  0.3785 -0.1541  0.0927
 2065DPPE   C2B46642  10.139   9.214  22.550  0.0212  0.1849  0.2507
 2065DPPE   C3B46643   9.954   9.185  22.914 -0.2697  0.2721  0.0305
 2065DPPE   C4B46644   9.696   9.027  23.143  0.2728 -0.0579  0.1565
 2066DPPE   NH346645  17.881   1.912  13.824 -0.1910 -0.0968 -0.0551
 2066DPPE   PO446646  18.277   1.797  13.608 -0.4365 -0.4656 -0.0835
 2066DPPE   GL146647  18.606   1.619  13.429  0.2178 -0.2036  0.1651
 2066DPPE   GL246648  18.841   1.591  13.155 -0.3221  0.2677 -0.1009
 2066DPPE   C1A46649  18.874   1.230  13.646  0.0194  0.1180  0.0552
 2066DPPE   C2A46650  18.952   0.871  13.562  0.1047 -0.1053 -0.0813
 2066DPPE   C3A46651  18.972   0.468  13.337 -0.1498  0.2716 -0.1157
 2066DPPE   C4A46652  18.641   0.339  13.098  0.1192  0.2254  0.1705
 2066DPPE   C1B46653  18.824   1.166  13.147  0.1776 -0.2683 -0.2832
 2066DPPE   C2B46654  18.816   0.777  13.009  0.1861  0.0914 -0.1215
 2066DPPE   C3B46655  18.990   0.523  12.710 -0.1564  0.2148 -0.0915
 2066DPPE   C4B46656  19.219   0.253  12.749 -0.0633  0.3505 -0.1885
 2067DPPE   NH346657  17.979   3.891  10.808 -0.1650  0.1494 -0.0969
 2067DPPE   PO446658  17.708   3.862  11.193  0.1584 -0.2039  0.3151
 2067DPPE   GL146659  17.437   3.646  10.920 -0.2775  0.0704  0.3344
 2067DPPE   GL246660  17.583   3.667  10.634 -0.0398  0.1095  0.0898
 2067DPPE   C1A46661  17.101   3.647  10.773 -0.2406  0.1506  0.1004
 2067DPPE   C2A46662  16.749   3.783  10.575 -0.3069  0.0395 -0.1975
 2067DPPE   C3A46663  16.377   3.537  10.356 -0.1870  0.0741 -0.4100
 2067DPPE   C4A46664  16.289   3.443  10.021  0.0951  0.0774  0.1183
 2067DPPE   C1B46665  17.530   3.326  10.424 -0.1224 -0.0542  0.1621
 2067DPPE   C2B46666  17.625   2.895  10.188 -0.2111 -0.1294  0.0515
 2067DPPE   C3B46667  18.025   2.949   9.860 -0.0594  0.2503  0.0251
 2067DPPE   C4B46668  18.135   2.786   9.594  0.1016 -0.2143  0.1447
 2068DPPE   NH346669   1.889  10.098  15.268 -0.0016  0.1774  0.0507
 2068DPPE   PO446670   2.193  10.545  15.378 -0.0285  0.1415 -0.1757
 2068DPPE   GL146671   2.606  10.595  15.225  0.3070  0.0564  0.0479
 2068DPPE   GL246672   2.599  10.665  14.884  0.0579  0.2200  0.2610
 2068DPPE   C1A46673   3.104  10.722  15.104 -0.1882  0.1328  0.1121
 2068DPPE   C2A46674   3.460  10.633  14.983  0.1464 -0.2460 -0.0442
 2068DPPE   C3A46675   3.526  10.292  14.675  0.1414  0.2096  0.2469
 2068DPPE   C4A46676   3.632   9.966  14.311  0.0832  0.0310  0.0006
 2068DPPE   C1B46677   2.874  10.895  14.687 -0.1238  0.0403  0.0712
 2068DPPE   C2B46678   2.918  10.833  14.141  0.0805  0.0897  0.0311
 2068DPPE   C3B46679   2.980  11.070  13.751  0.2562 -0.2780  0.2841
 2068DPPE   C4B46680   3.133  11.041  13.356  0.1426 -0.0703 -0.0699
 2069DPPE   NH346681  14.503  11.330   7.923 -0.1611  0.1042  0.1769
 2069DPPE   PO446682  14.570  10.988   8.060  0.1549  0.0686 -0.0402
 2069DPPE   GL146683  14.706  10.773   7.796  0.0717 -0.0342 -0.4312
 2069DPPE   GL246684  15.035  10.565   7.647  0.0255 -0.3213  0.1522
 2069DPPE   C1A46685  14.556  10.523   7.455  0.0992 -0.0343 -0.0159
 2069DPPE   C2A46686  14.303  10.436   7.062  0.0760 -0.1293  0.0278
 2069DPPE   C3A46687  14.187  10.272   6.704  0.4623  0.0024  0.0484
 2069DPPE   C4A46688  13.983  10.386   6.316  0.1270 -0.1910 -0.1305
 2069DPPE   C1B46689  15.067  10.581   7.228  0.2969 -0.2710  0.1442
 2069DPPE   C2B46690  14.714  10.618   6.868 -0.0005  0.2601  0.1074
 2069DPPE   C3B46691  14.448  10.750   6.625  0.3464  0.1689  0.1526
 2069DPPE   C4B46692  14.117  10.862   6.389 -0.1651  0.0186 -0.2492
 2070DPPE   NH346693  19.644  34.424  10.866 -0.0231  0.1616  0.2974
 2070DPPE   PO446694  19.666  34.451  10.467  0.0983 -0.1320  0.1126
 2070DPPE   GL146695  19.313  34.713  10.660 -0.2461  0.0445 -0.0115
 2070DPPE   GL246696  19.313  35.014  10.495 -0.2828 -0.4368  0.1098
 2070DPPE   C1A46697  19.024  34.884  11.064 -0.0928  0.0664  0.0441
 2070DPPE   C2A46698  18.660  35.157  11.156 -0.0746  0.2659 -0.0462
 2070DPPE   C3A46699  18.606  35.540  11.477  0.2726 -0.1651 -0.0351
 2070DPPE   C4A46700  18.516  35.879  11.725  0.1180  0.0581  0.0574
 2070DPPE   C1B46701  19.610  35.426  10.431  0.1503  0.2857 -0.0153
 2070DPPE   C2B46702  19.563  35.881  10.527  0.1221 -0.2626  0.1668
 2070DPPE   C3B46703  19.552  36.253  10.828  0.0577  0.2178 -0.1356
 2070DPPE   C4B46704  19.450  36.441  11.363 -0.3598 -0.1056  0.0921
 2071DPPE   NH346705  17.952   7.862   8.626  0.0832 -0.4232  0.0677
 2071DPPE   PO446706  18.424   7.796   8.641  0.0597  0.0784  0.2806
 2071DPPE   GL146707  18.158   7.750   8.212 -0.0778  0.0212  0.2379
 2071DPPE   GL246708  17.922   7.434   8.148 -0.1826 -0.0107  0.1660
 2071DPPE   C1A46709  18.305   7.533   7.766 -0.1279 -0.3752 -0.3271
 2071DPPE   C2A46710  18.399   7.439   7.436  0.0896 -0.0859 -0.1588
 2071DPPE   C3A46711  18.288   7.343   6.997  0.1936 -0.0737 -0.1239
 2071DPPE   C4A46712  18.055   7.083   6.714 -0.3168 -0.0354 -0.0787
 2071DPPE   C1B46713  17.838   7.440   7.638  0.1640  0.1759 -0.3326
 2071DPPE   C2B46714  17.803   7.487   7.199 -0.1524 -0.0255 -0.1522
 2071DPPE   C3B46715  17.455   7.415   7.007 -0.4839  0.0991 -0.0621
 2071DPPE   C4B46716  17.264   7.570   6.693  0.2233  0.0517 -0.1288
 2072DPPE   NH346717   4.628   1.346  19.032 -0.2072  0.4373 -0.1025
 2072DPPE   PO446718   4.980   1.472  18.966  0.0581 -0.0030 -0.4064
 2072DPPE   GL146719   5.375   1.720  18.821 -0.1279  0.0086 -0.1994
 2072DPPE   GL246720   5.536   1.999  18.947  0.4290  0.2164  0.3052
 2072DPPE   C1A46721   5.731   1.791  18.494  0.0361  0.1303  0.0790
 2072DPPE   C2A46722   5.870   1.681  18.135  0.1096 -0.1128 -0.1608
 2072DPPE   C3A46723   5.960   1.915  17.756 -0.1859 -0.3402 -0.1205
 2072DPPE   C4A46724   6.281   2.116  17.557 -0.0107  0.1484  0.2890
 2072DPPE   C1B46725   5.622   2.381  18.882 -0.1056 -0.0184  0.2259
 2072DPPE   C2B46726   5.781   2.861  18.915 -0.0726  0.0480  0.1360
 2072DPPE   C3B46727   5.894   3.276  18.930 -0.2000  0.0734  0.1546
 2072DPPE   C4B46728   5.903   3.737  19.102 -0.2411 -0.0751 -0.2105
 2073DPPE   NH346729  23.593   9.875  20.334  0.0840 -0.2664 -0.0144
 2073DPPE   PO446730  23.281  10.233  20.351  0.0086  0.1483  0.2642
 2073DPPE   GL146731  23.437  10.520  20.716 -0.1983 -0.0429 -0.3373
 2073DPPE   GL246732  23.382  10.830  20.633  0.2080  0.1673 -0.2636
 2073DPPE   C1A46733  23.672  10.537  21.110  0.1337  0.0660 -0.0854
 2073DPPE   C2A46734  23.933  10.595  21.487 -0.2281  0.0407  0.0613
 2073DPPE   C3A46735  24.176  10.592  21.760  0.2061 -0.2687  0.1458
 2073DPPE   C4A46736  24.247  10.444  22.092  0.0817  0.0727 -0.3433
 2073DPPE   C1B46737  23.789  10.854  20.628 -0.0893 -0.3737  0.5586
 2073DPPE   C2B46738  24.117  10.693  20.949 -0.0267 -0.0327  0.2367
 2073DPPE   C3B46739  24.422  10.819  21.346 -0.2220 -0.1217  0.0075
 2073DPPE   C4B46740  24.568  11.092  21.658  0.0559  0.3760  0.1918
 2074DPPE   NH346741  13.624   2.533  15.619 -0.2471  0.0857  0.2042
 2074DPPE   PO446742  13.780   2.816  15.289  0.1338  0.0185 -0.0429
 2074DPPE   GL146743  13.938   2.604  14.953  0.0303 -0.0033 -0.3072
 2074DPPE   GL246744  13.853   2.707  14.624 -0.1513  0.0256 -0.2072
 2074DPPE   C1A46745  13.890   2.231  14.814  0.0352 -0.1271 -0.0336
 2074DPPE   C2A46746  13.727   1.816  14.785 -0.2675 -0.0531 -0.0944
 2074DPPE   C3A46747  13.658   1.341  14.894  0.1512 -0.1034 -0.1954
 2074DPPE   C4A46748  13.339   1.104  15.135  0.0844 -0.0983  0.0193
 2074DPPE   C1B46749  13.580   2.572  14.262  0.1034  0.0882  0.0785
 2074DPPE   C2B46750  13.404   2.231  14.095  0.3074  0.2670  0.2571
 2074DPPE   C3B46751  13.216   2.157  13.636  0.0622  0.1362 -0.0996
 2074DPPE   C4B46752  12.902   1.948  13.374 -0.1150 -0.0057  0.0267
 2075DPPE   NH346753   9.398  13.921  12.400 -0.1485  0.0808  0.2350
 2075DPPE   PO446754   9.290  13.412  12.587 -0.0335  0.2130 -0.1009
 2075DPPE   GL146755   8.886  13.681  12.560  0.0420 -0.0224  0.2149
 2075DPPE   GL246756   8.927  14.016  12.659  0.1314 -0.1887  0.0090
 2075DPPE   C1A46757   8.466  13.854  12.604  0.3523  0.0134  0.0366
 2075DPPE   C2A46758   8.072  13.925  12.231 -0.0840 -0.1558  0.0933
 2075DPPE   C3A46759   7.717  13.694  12.168 -0.2672 -0.0022  0.2598
 2075DPPE   C4A46760   7.321  13.508  12.135 -0.0469  0.0373 -0.0625
 2075DPPE   C1B46761   8.627  14.376  12.574  0.4220 -0.1520  0.2919
 2075DPPE   C2B46762   8.371  14.800  12.362  0.0928  0.1259 -0.3211
 2075DPPE   C3B46763   8.269  15.000  11.993  0.0158 -0.1008 -0.1816
 2075DPPE   C4B46764   8.288  14.937  11.501 -0.2177 -0.2711  0.1859
 2076DPPE   NH346765  27.035  16.411  18.667  0.2658 -0.1653  0.1451
 2076DPPE   PO446766  27.256  16.127  18.999 -0.1208  0.1223  0.0020
 2076DPPE   GL146767  26.819  15.985  18.991  0.1234  0.1264  0.1056
 2076DPPE   GL246768  26.678  16.013  18.626  0.0818  0.1045  0.2321
 2076DPPE   C1A46769  26.752  15.512  18.803  0.3215  0.0876 -0.3720
 2076DPPE   C2A46770  26.801  15.035  18.822  0.0609  0.0027 -0.1919
 2076DPPE   C3A46771  26.585  14.690  19.014  0.0590  0.1637  0.0227
 2076DPPE   C4A46772  26.158  14.696  19.194  0.5587 -0.0903 -0.1927
 2076DPPE   C1B46773  26.323  16.181  18.428 -0.1936 -0.2731  0.2795
 2076DPPE   C2B46774  26.085  16.487  18.281 -0.1689 -0.1591  0.1263
 2076DPPE   C3B46775  25.624  16.599  18.122  0.1212  0.1343 -0.0244
 2076DPPE   C4B46776  25.442  16.277  18.189  0.0289  0.0312 -0.1630
 2077DPPE   NH346777  20.189   1.724   4.149  0.1978 -0.0444  0.0902
 2077DPPE   PO446778  19.906   2.173   4.106  0.1436  0.0478  0.0918
 2077DPPE   GL146779  19.555   2.199   4.456 -0.1393 -0.1526 -0.0100
 2077DPPE   GL246780  19.163   2.240   4.349 -0.1881 -0.2271  0.2822
 2077DPPE   C1A46781  19.339   2.357   4.863 -0.3072  0.0490  0.1283
 2077DPPE   C2A46782  19.249   2.065   5.243 -0.1582  0.0331 -0.0928
 2077DPPE   C3A46783  18.879   1.809   5.212  0.0273  0.2142  0.3024
 2077DPPE   C4A46784  18.613   1.722   5.461  0.1165  0.0591  0.0062
 2077DPPE   C1B46785  18.980   2.584   4.581 -0.0544 -0.0190  0.1388
 2077DPPE   C2B46786  18.674   2.791   4.701  0.0773  0.0115  0.1720
 2077DPPE   C3B46787  18.412   2.896   5.085 -0.0645 -0.1506  0.1487
 2077DPPE   C4B46788  18.133   3.076   5.444 -0.0651 -0.0518 -0.3315
 2078DPPE   NH346789  20.010   5.514   9.632  0.2115  0.0667  0.0539
 2078DPPE   PO446790  19.900   5.125   9.719  0.1697  0.0538 -0.1320
 2078DPPE   GL146791  19.982   4.916   9.356 -0.0199 -0.0947 -0.2378
 2078DPPE   GL246792  20.257   5.025   9.264 -0.1475 -0.0862  0.1893
 2078DPPE   C1A46793  19.989   4.834   8.853  0.0439  0.1351  0.0125
 2078DPPE   C2A46794  19.764   4.642   8.460 -0.1783 -0.4546  0.1500
 2078DPPE   C3A46795  19.906   4.338   8.221  0.1637  0.4293  0.0078
 2078DPPE   C4A46796  20.157   4.218   7.946  0.0208  0.0936 -0.0825
 2078DPPE   C1B46797  20.399   5.162   8.932  0.2520 -0.1602  0.2435
 2078DPPE   C2B46798  20.315   5.364   8.517  0.0077 -0.2816 -0.0113
 2078DPPE   C3B46799  20.404   5.328   8.120  0.1971  0.2752 -0.2067
 2078DPPE   C4B46800  20.431   5.016   7.855  0.0515 -0.0638 -0.2993
 2079DPPE   NH346801  14.513  35.874  21.451 -0.2370  0.0686  0.1481
 2079DPPE   PO446802  14.626  35.529  21.164  0.4478 -0.0551 -0.0043
 2079DPPE   GL146803  14.522  35.832  20.870 -0.2472  0.2348 -0.0921
 2079DPPE   GL246804  14.493  35.566  20.624  0.0088 -0.1080  0.0017
 2079DPPE   C1A46805  14.315  36.148  20.819 -0.2936 -0.3046 -0.3656
 2079DPPE   C2A46806  14.281  36.506  21.008 -0.0798  0.0036 -0.1231
 2079DPPE   C3A46807  14.035  36.846  20.894  0.1676  0.0232 -0.2861
 2079DPPE   C4A46808  14.013  37.263  20.832 -0.2237  0.3816  0.1771
 2079DPPE   C1B46809  14.611  35.577  20.229 -0.1185  0.3127  0.3909
 2079DPPE   C2B46810  14.654  35.666  19.924  0.2699 -0.1278  0.1978
 2079DPPE   C3B46811  14.394  35.588  19.558  0.2649  0.1764 -0.1293
 2079DPPE   C4B46812  14.563  35.347  19.294  0.1386 -0.0027  0.2460
 2080DPPE   NH346813  23.344  17.978  10.194  0.0754 -0.0555  0.3894
 2080DPPE   PO446814  23.568  17.680  10.435  0.2116  0.0368 -0.0845
 2080DPPE   GL146815  23.320  17.625  10.721 -0.1040  0.0697 -0.2007
 2080DPPE   GL246816  23.098  17.878  10.632 -0.1506  0.2300  0.2735
 2080DPPE   C1A46817  23.148  17.560  11.233  0.0484 -0.4288  0.0710
 2080DPPE   C2A46818  23.157  17.189  11.420 -0.0046 -0.1562 -0.4214
 2080DPPE   C3A46819  23.093  16.835  11.610  0.0705 -0.1085 -0.0549
 2080DPPE   C4A46820  22.801  16.429  11.630 -0.2410 -0.1699  0.2080
 2080DPPE   C1B46821  22.760  17.579  10.897  0.2852  0.1705 -0.1499
 2080DPPE   C2B46822  22.340  17.266  10.824 -0.0748 -0.2798  0.2550
 2080DPPE   C3B46823  21.859  17.285  10.765  0.0433 -0.0770  0.0021
 2080DPPE   C4B46824  21.462  17.224  10.772  0.3824  0.0001 -0.0744
 2081DPPE   NH346825   3.820   5.827  19.013  0.0755  0.0658 -0.2931
 2081DPPE   PO446826   3.781   6.300  18.980  0.0791 -0.1048  0.2979
 2081DPPE   GL146827   3.931   6.150  18.582  0.0663  0.3537  0.0890
 2081DPPE   GL246828   4.252   6.143  18.659  0.0664 -0.0115  0.3704
 2081DPPE   C1A46829   4.171   5.806  18.249 -0.1360  0.2085 -0.1903
 2081DPPE   C2A46830   4.104   5.574  17.836 -0.3695  0.3665 -0.0362
 2081DPPE   C3A46831   4.264   5.518  17.419 -0.1029  0.1345 -0.1990
 2081DPPE   C4A46832   4.813   5.495  17.256  0.0699  0.0405  0.1919
 2081DPPE   C1B46833   4.461   5.983  19.071  0.5406 -0.0224  0.0723
 2081DPPE   C2B46834   4.818   5.883  19.094  0.1697  0.1658  0.0197
 2081DPPE   C3B46835   5.201   5.656  19.131  0.1084 -0.2171  0.0190
 2081DPPE   C4B46836   5.428   5.410  19.398  0.1213 -0.3391 -0.4972
 2082DPPE   NH346837  11.170   9.616  11.504  0.0429  0.0482  0.1057
 2082DPPE   PO446838  11.136  10.160  11.654 -0.0413  0.1789  0.2490
 2082DPPE   GL146839  10.796  10.021  11.440 -0.0406  0.3326  0.0771
 2082DPPE   GL246840  11.008   9.951  11.126 -0.2558 -0.0174  0.1682
 2082DPPE   C1A46841  10.383  10.109  11.271  0.0804 -0.1298 -0.1431
 2082DPPE   C2A46842  10.137  10.450  11.029 -0.0734  0.1196 -0.2331
 2082DPPE   C3A46843  10.090  10.678  10.670  0.1484 -0.0608 -0.3277
 2082DPPE   C4A46844  10.087  10.944  10.416 -0.1262  0.1974  0.0732
 2082DPPE   C1B46845  10.625   9.827  10.997 -0.1568 -0.1617 -0.4853
 2082DPPE   C2B46846  10.340   9.806  10.754  0.0223  0.0355 -0.1712
 2082DPPE   C3B46847   9.926   9.523  10.511 -0.2200  0.2398  0.0300
 2082DPPE   C4B46848   9.767   9.393  10.108  0.0302  0.0563 -0.0870
 2083DPPE   NH346849   6.176  17.703  16.250 -0.0497  0.0428 -0.1778
 2083DPPE   PO446850   6.108  17.348  16.577  0.1353  0.3720  0.1139
 2083DPPE   GL146851   6.345  17.018  16.552  0.1280  0.2682 -0.0906
 2083DPPE   GL246852   6.529  17.047  16.314  0.4772 -0.1620  0.0141
 2083DPPE   C1A46853   6.558  16.709  16.634  0.2957  0.3159 -0.2362
 2083DPPE   C2A46854   6.461  16.303  16.813  0.0536  0.1356 -0.0716
 2083DPPE   C3A46855   6.536  15.902  16.815 -0.0953 -0.1618 -0.0557
 2083DPPE   C4A46856   6.882  15.879  17.000 -0.3494 -0.3312 -0.0963
 2083DPPE   C1B46857   6.938  16.844  16.109  0.1493 -0.4305 -0.2301
 2083DPPE   C2B46858   7.193  16.548  16.288 -0.3755  0.0309 -0.2591
 2083DPPE   C3B46859   7.655  16.546  16.295 -0.2839  0.1967  0.1497
 2083DPPE   C4B46860   7.833  16.163  16.339  0.1785  0.5145 -0.0438
 2084DPPE   NH346861  23.115   8.361  19.868 -0.3848  0.1366  0.6205
 2084DPPE   PO446862  22.692   8.287  20.217  0.1222 -0.2640 -0.1317
 2084DPPE   GL146863  23.064   8.068  20.342  0.0969  0.1414  0.2081
 2084DPPE   GL246864  23.037   7.799  20.207 -0.0066  0.1430 -0.3740
 2084DPPE   C1A46865  23.412   8.079  20.684  0.2578 -0.2074 -0.0301
 2084DPPE   C2A46866  23.786   8.153  20.925 -0.2772 -0.1481 -0.2883
 2084DPPE   C3A46867  24.202   8.277  21.140 -0.2178 -0.2256  0.1844
 2084DPPE   C4A46868  24.559   8.437  21.278  0.0002 -0.1121  0.0126
 2084DPPE   C1B46869  23.423   7.614  20.331  0.2443  0.2895 -0.0147
 2084DPPE   C2B46870  23.688   7.325  20.492  0.2412  0.1965 -0.2100
 2084DPPE   C3B46871  23.653   7.010  20.654 -0.1615  0.2036  0.0532
 2084DPPE   C4B46872  23.557   6.790  20.983 -0.1620  0.6023  0.2000
 2085DPPE   NH346873  11.032   4.161  16.922 -0.1868  0.1112  0.1341
 2085DPPE   PO446874  11.139   3.802  17.074  0.2073 -0.4208 -0.1937
 2085DPPE   GL146875  10.716   3.738  17.071 -0.1793 -0.0748  0.0737
 2085DPPE   GL246876  10.512   3.950  17.322 -0.1394  0.5709  0.1186
 2085DPPE   C1A46877  10.488   3.409  17.064 -0.2569 -0.0363 -0.1101
 2085DPPE   C2A46878  10.095   3.267  17.304  0.2039  0.0882 -0.1167
 2085DPPE   C3A46879   9.782   3.236  17.673  0.0501  0.0769 -0.0317
 2085DPPE   C4A46880   9.372   3.364  17.797 -0.2299  0.0506 -0.0824
 2085DPPE   C1B46881  10.141   3.730  17.536 -0.0577 -0.0335 -0.1854
 2085DPPE   C2B46882   9.686   3.878  17.556  0.1586  0.0210 -0.2974
 2085DPPE   C3B46883   9.514   4.195  17.787 -0.0755  0.3197  0.4655
 2085DPPE   C4B46884   9.503   4.602  18.016 -0.2653  0.0801 -0.0384
 2086DPPE   NH346885  11.579  11.497  10.386  0.1894 -0.0354 -0.1940
 2086DPPE   PO446886  11.245  11.642  10.625  0.2955 -0.0826 -0.1179
 2086DPPE   GL146887  11.101  11.333  10.294 -0.3270 -0.1386 -0.4600
 2086DPPE   GL246888  10.943  11.480   9.973  0.1759 -0.0742 -0.0511
 2086DPPE   C1A46889  10.913  10.969  10.164  0.1066  0.2964 -0.0749
 2086DPPE   C2A46890  10.914  10.574   9.940 -0.2608  0.1154 -0.0601
 2086DPPE   C3A46891  10.695  10.169  10.059  0.2184  0.0048  0.1532
 2086DPPE   C4A46892  10.584   9.818   9.932 -0.4754 -0.2377 -0.0441
 2086DPPE   C1B46893  10.996  11.549   9.601  0.0473  0.1286  0.1266
 2086DPPE   C2B46894  11.154  11.599   9.230  0.0848 -0.2175 -0.1243
 2086DPPE   C3B46895  11.187  11.501   8.814  0.1335 -0.2805 -0.0596
 2086DPPE   C4B46896  11.173  11.685   8.444 -0.1195 -0.1073  0.2695
 2087DPPE   NH346897  11.832   2.742  17.114  0.0978  0.1016  0.0300
 2087DPPE   PO446898  11.874   3.100  16.864  0.1461  0.2264 -0.1659
 2087DPPE   GL146899  11.539   2.880  16.780 -0.2470  0.2170  0.1064
 2087DPPE   GL246900  11.290   2.922  16.895 -0.0380  0.1321 -0.0889
 2087DPPE   C1A46901  11.361   2.413  16.708 -0.2480  0.1589 -0.2277
 2087DPPE   C2A46902  11.018   2.107  16.798 -0.0059 -0.1611 -0.3825
 2087DPPE   C3A46903  10.641   1.861  16.984 -0.0616  0.1360  0.0153
 2087DPPE   C4A46904  10.659   1.515  17.211  0.2492  0.4638  0.0518
 2087DPPE   C1B46905  10.770   2.894  17.088 -0.3114 -0.0307  0.2893
 2087DPPE   C2B46906  10.444   2.895  17.406  0.2876 -0.1207 -0.3858
 2087DPPE   C3B46907   9.963   2.799  17.488 -0.2567  0.1787  0.2749
 2087DPPE   C4B46908   9.727   2.551  17.848  0.4822  0.2261  0.1432
 2088DPPE   NH346909  14.342   4.011  13.346 -0.0461  0.0681  0.3138
 2088DPPE   PO446910  14.631   4.123  13.036  0.1530 -0.1734 -0.1245
 2088DPPE   GL146911  14.438   3.952  12.667  0.1347 -0.2946 -0.2202
 2088DPPE   GL246912  14.682   3.940  12.365  0.0667 -0.1003 -0.0922
 2088DPPE   C1A46913  14.390   3.429  12.560  0.1449 -0.1180 -0.2448
 2088DPPE   C2A46914  14.158   3.171  12.258  0.5177  0.0685  0.1022
 2088DPPE   C3A46915  14.004   2.818  11.940  0.0187 -0.0475 -0.1268
 2088DPPE   C4A46916  13.839   2.412  12.081 -0.2492  0.1087 -0.0075
 2088DPPE   C1B46917  14.324   3.709  12.124 -0.2320 -0.2689 -0.0197
 2088DPPE   C2B46918  14.270   3.460  11.855  0.1997 -0.1233 -0.1737
 2088DPPE   C3B46919  14.317   3.154  11.607  0.2498  0.0138  0.2610
 2088DPPE   C4B46920  14.273   3.075  11.208 -0.0744  0.0105  0.1238
 2089DPPE   NH346921  22.174  10.230  10.755 -0.1034 -0.1018 -0.0442
 2089DPPE   PO446922  22.396  10.249  11.092 -0.1860 -0.2836 -0.0398
 2089DPPE   GL146923  22.929  10.227  11.058  0.3311  0.3039 -0.0409
 2089DPPE   GL246924  23.239  10.397  11.272  0.0113 -0.0161  0.0170
 2089DPPE   C1A46925  23.260  10.167  10.869 -0.1019  0.0409  0.2048
 2089DPPE   C2A46926  23.680  10.053  10.654  0.1483  0.0583  0.3274
 2089DPPE   C3A46927  24.115  10.106  10.454  0.0758 -0.0396 -0.3013
 2089DPPE   C4A46928  24.308  10.046  10.050 -0.1398  0.3963 -0.1546
 2089DPPE   C1B46929  23.666  10.471  11.106  0.1412 -0.1881 -0.0160
 2089DPPE   C2B46930  24.029  10.518  10.919 -0.2658  0.1468 -0.0627
 2089DPPE   C3B46931  24.482  10.458  10.877  0.2711  0.0773  0.0378
 2089DPPE   C4B46932  24.746  10.879  10.998 -0.1313  0.1268  0.2790
 2090DPPE   NH346933   9.975   5.711  17.270  0.2651 -0.3285 -0.1119
 2090DPPE   PO446934  10.230   5.268  17.327 -0.4321 -0.0458 -0.4546
 2090DPPE   GL146935   9.774   5.090  17.257  0.0030 -0.1528 -0.1528
 2090DPPE   GL246936   9.738   4.767  17.290  0.1284  0.0462  0.0454
 2090DPPE   C1A46937   9.207   4.974  17.204 -0.0224 -0.2183  0.0015
 2090DPPE   C2A46938   8.931   5.087  17.437  0.1067  0.1290  0.2523
 2090DPPE   C3A46939   8.522   5.164  17.308  0.0298  0.0728  0.1306
 2090DPPE   C4A46940   8.168   5.072  17.076 -0.1464  0.4094  0.0220
 2090DPPE   C1B46941   9.428   4.448  17.390  0.1654 -0.1206 -0.1003
 2090DPPE   C2B46942   9.213   4.334  16.986 -0.2719  0.4111 -0.1707
 2090DPPE   C3B46943   9.101   4.649  16.727 -0.0862  0.1849  0.2657
 2090DPPE   C4B46944   9.114   4.980  16.513  0.0346 -0.0536  0.2464
 2091DPPE   NH346945  13.085  16.647   5.818  0.0982  0.2061 -0.0298
 2091DPPE   PO446946  12.763  16.885   5.984  0.2173 -0.3043  0.3314
 2091DPPE   GL146947  12.985  16.682   6.325 -0.1086  0.0795 -0.1010
 2091DPPE   GL246948  13.117  16.446   6.281 -0.3850  0.2505 -0.2002
 2091DPPE   C1A46949  12.827  16.821   6.740 -0.0067  0.0706  0.1081
 2091DPPE   C2A46950  12.795  16.931   7.186 -0.0595 -0.1145 -0.0248
 2091DPPE   C3A46951  12.624  17.020   7.476  0.1680 -0.2295  0.3724
 2091DPPE   C4A46952  12.733  17.283   7.845 -0.1640 -0.2436 -0.0720
 2091DPPE   C1B46953  13.168  16.275   6.665  0.1350  0.1373 -0.1513
 2091DPPE   C2B46954  13.380  16.006   6.900 -0.1619 -0.1639 -0.0086
 2091DPPE   C3B46955  13.546  15.625   7.016 -0.0124  0.0558 -0.2670
 2091DPPE   C4B46956  13.715  15.306   7.198  0.0590  0.0268  0.2007
 2092DPPE   NH346957   9.573  16.217   7.439 -0.0135 -0.1792 -0.3891
 2092DPPE   PO446958   9.485  15.973   7.839 -0.1727  0.2413  0.2420
 2092DPPE   GL146959   9.701  15.677   8.043 -0.1195  0.2968  0.3080
 2092DPPE   GL246960   9.489  15.463   8.072  0.0365  0.1812 -0.1573
 2092DPPE   C1A46961   9.988  15.290   7.931  0.2876 -0.1178 -0.2022
 2092DPPE   C2A46962  10.256  15.101   7.614  0.1097  0.0922 -0.0151
 2092DPPE   C3A46963  10.606  14.920   7.341 -0.1051 -0.2716  0.0678
 2092DPPE   C4A46964  10.787  14.997   6.969 -0.1189 -0.1109  0.2283
 2092DPPE   C1B46965   9.695  15.100   8.245  0.0084  0.1833  0.1538
 2092DPPE   C2B46966   9.804  14.545   8.365 -0.1751 -0.0231 -0.0038
 2092DPPE   C3B46967  10.186  14.498   8.686  0.0112 -0.0959 -0.1234
 2092DPPE   C4B46968  10.478  14.675   8.948  0.1833  0.1409 -0.0225
 2093DPPE   NH346969  11.997  11.037  10.333 -0.0801 -0.1959  0.0510
 2093DPPE   PO446970  12.420  11.278  10.410  0.0028 -0.0882 -0.2040
 2093DPPE   GL146971  12.338  11.132   9.962  0.0100 -0.0652  0.0976
 2093DPPE   GL246972  12.311  11.389   9.636  0.0939 -0.0566 -0.2752
 2093DPPE   C1A46973  12.110  10.989   9.547  0.1144  0.2624  0.5130
 2093DPPE   C2A46974  11.932  10.978   9.125 -0.0297 -0.0366 -0.1562
 2093DPPE   C3A46975  11.711  11.190   8.715 -0.2237  0.1520  0.1656
 2093DPPE   C4A46976  11.505  11.266   8.299  0.3125  0.1262  0.0810
 2093DPPE   C1B46977  12.291  11.349   9.240 -0.0380 -0.1290  0.0211
 2093DPPE   C2B46978  12.221  11.214   8.789  0.0373 -0.0042  0.0584
 2093DPPE   C3B46979  12.112  10.776   8.727  0.2285  0.0916  0.3376
 2093DPPE   C4B46980  12.214  10.504   8.297  0.2219  0.0301 -0.0937
 2094DPPE   NH346981  12.745   5.745   1.037 -0.1620 -0.4909  0.1839
 2094DPPE   PO446982  12.609   5.428   1.048  0.1691 -0.0992 -0.2903
 2094DPPE   GL146983  12.720   5.281   1.320  0.1952 -0.1239 -0.5170
 2094DPPE   GL246984  12.928   5.089   1.411 -0.0675 -0.4093  0.0570
 2094DPPE   C1A46985  12.648   5.353   1.708 -0.0943  0.1826 -0.0219
 2094DPPE   C2A46986  12.688   5.379   2.195  0.0820  0.1714  0.1156
 2094DPPE   C3A46987  12.720   5.445   2.605 -0.0585 -0.0507 -0.1911
 2094DPPE   C4A46988  12.904   5.550   3.025 -0.2850 -0.1022 -0.1185
 2094DPPE   C1B46989  13.003   5.099   1.829 -0.0101 -0.0856 -0.2354
 2094DPPE   C2B46990  12.971   4.896   2.224  0.1095  0.2193 -0.2175
 2094DPPE   C3B46991  12.678   4.861   2.547  0.0886  0.2019  0.2236
 2094DPPE   C4B46992  12.667   4.924   2.917 -0.2052 -0.0253 -0.3993
 2095DPPE   NH346993  12.055   5.324  20.846 -0.0694  0.0012  0.1117
 2095DPPE   PO446994  12.055   5.637  20.940 -0.2404 -0.4544 -0.0636
 2095DPPE   GL146995  12.022   5.565  21.460  0.2888 -0.2852  0.2647
 2095DPPE   GL246996  12.067   5.713  21.643 -0.0270 -0.2519  0.0046
 2095DPPE   C1A46997  11.896   5.250  21.804 -0.0360  0.0509 -0.4163
 2095DPPE   C2A46998  11.615   5.131  22.167  0.1426  0.0476  0.1213
 2095DPPE   C3A46999  11.764   4.887  22.523  0.1760  0.1141  0.0843
 2095DPPE   C4A47000  12.010   4.761  22.797  0.2698 -0.0159 -0.1589
 2095DPPE   C1B47001  11.980   5.700  22.117  0.0764 -0.0786 -0.0445
 2095DPPE   C2B47002  11.788   5.997  22.305  0.0282  0.1384  0.1579
 2095DPPE   C3B47003  11.606   5.938  22.605 -0.0478  0.0446 -0.1517
 2095DPPE   C4B47004  11.411   6.126  22.762 -0.1402  0.2761  0.2432
 2096DPPE   NH347005  24.544  11.467  15.549 -0.1000  0.3865  0.0569
 2096DPPE   PO447006  24.273  11.827  15.765  0.0387  0.1159  0.2771
 2096DPPE   GL147007  24.679  12.049  15.633  0.0207  0.3689  0.2389
 2096DPPE   GL247008  24.851  12.192  15.331  0.1735 -0.1227 -0.0261
 2096DPPE   C1A47009  25.061  12.129  15.781 -0.1041  0.2113  0.1170
 2096DPPE   C2A47010  25.438  12.212  15.831  0.0060 -0.4095  0.1581
 2096DPPE   C3A47011  25.608  12.515  15.606  0.0699  0.0436 -0.4426
 2096DPPE   C4A47012  25.588  12.430  15.086  0.2644  0.1013 -0.0182
 2096DPPE   C1B47013  25.319  12.084  15.288 -0.2866  0.1784 -0.1772
 2096DPPE   C2B47014  25.786  12.002  15.545  0.4630  0.1971 -0.1678
 2096DPPE   C3B47015  25.835  11.907  16.048 -0.3283  0.2519  0.0068
 2096DPPE   C4B47016  26.179  11.663  16.028  0.1088 -0.0838 -0.0405
 2097DPPE   NH347017  15.301   8.704   9.560 -0.1189 -0.4108  0.0414
 2097DPPE   PO447018  15.179   8.641   9.981 -0.1343  0.0647  0.2880
 2097DPPE   GL147019  14.916   8.367   9.561  0.1822  0.0698 -0.0620
 2097DPPE   GL247020  14.880   8.055   9.592  0.1064  0.1457  0.0037
 2097DPPE   C1A47021  14.608   8.220   9.167 -0.1139 -0.2671  0.0977
 2097DPPE   C2A47022  14.499   7.988   8.789  0.0306  0.0278  0.3926
 2097DPPE   C3A47023  14.136   8.115   8.452 -0.1270 -0.0968 -0.1155
 2097DPPE   C4A47024  14.150   8.486   8.205  0.2611 -0.2463  0.0278
 2097DPPE   C1B47025  14.527   7.874   9.709 -0.0896  0.4748 -0.1360
 2097DPPE   C2B47026  14.258   7.682   9.492 -0.1741 -0.1026 -0.3475
 2097DPPE   C3B47027  14.209   7.333   9.191  0.0368 -0.1602  0.1674
 2097DPPE   C4B47028  14.194   6.848   9.084  0.1344  0.1041  0.2257
 2098DPPE   NH347029  12.262  14.074   3.903  0.2816 -0.1166 -0.2229
 2098DPPE   PO447030  12.612  13.968   4.106 -0.1724 -0.1022 -0.0901
 2098DPPE   GL147031  12.334  13.759   4.357  0.0231 -0.0803 -0.0642
 2098DPPE   GL247032  12.401  13.946   4.741 -0.0800  0.0719  0.1615
 2098DPPE   C1A47033  12.229  13.277   4.572 -0.0661  0.0230 -0.1892
 2098DPPE   C2A47034  12.217  13.007   4.873 -0.3647 -0.1118  0.0191
 2098DPPE   C3A47035  12.231  13.052   5.302  0.4461  0.1278  0.0691
 2098DPPE   C4A47036  12.081  12.913   5.652 -0.1498  0.2324  0.2078
 2098DPPE   C1B47037  12.651  13.899   5.136 -0.3709  0.2412 -0.1262
 2098DPPE   C2B47038  12.903  13.600   5.467 -0.0781  0.1369 -0.1057
 2098DPPE   C3B47039  12.801  13.313   5.665 -0.0162 -0.1574  0.1851
 2098DPPE   C4B47040  12.743  12.983   6.057 -0.1582  0.0724 -0.0291
 2099DPPE   NH347041   5.954  16.770  19.222 -0.1279  0.0326  0.0383
 2099DPPE   PO447042   6.193  16.589  19.615  0.1161 -0.0183  0.0957
 2099DPPE   GL147043   6.330  16.135  19.499  0.1301 -0.5961  0.2610
 2099DPPE   GL247044   6.301  15.876  19.797  0.0746 -0.0415 -0.1389
 2099DPPE   C1A47045   6.755  16.110  19.472 -0.2217  0.3883 -0.1992
 2099DPPE   C2A47046   7.158  16.329  19.300  0.2184 -0.1720  0.0426
 2099DPPE   C3A47047   7.654  16.322  19.351  0.0120  0.3001  0.0444
 2099DPPE   C4A47048   7.965  16.261  19.657  0.2990  0.3140  0.5247
 2099DPPE   C1B47049   6.698  15.572  19.625  0.0255 -0.0771 -0.0944
 2099DPPE   C2B47050   7.070  15.441  19.488  0.1291  0.1045  0.0267
 2099DPPE   C3B47051   7.481  15.421  19.244 -0.1420  0.1518 -0.1750
 2099DPPE   C4B47052   7.783  15.358  19.044 -0.1323  0.1741  0.0325
 2100DPPE   NH347053  14.847  18.705  15.830  0.4670 -0.0006  0.5538
 2100DPPE   PO447054  14.855  18.809  15.318  0.3784 -0.2126  0.0907
 2100DPPE   GL147055  14.862  19.231  15.495  0.4803 -0.1248 -0.2219
 2100DPPE   GL247056  15.013  19.179  15.765  0.3136  0.1293 -0.3965
 2100DPPE   C1A47057  14.791  19.750  15.352  0.4985  0.2017  0.0173
 2100DPPE   C2A47058  14.915  20.182  15.155  0.0481  0.0419  0.2985
 2100DPPE   C3A47059  14.578  20.554  15.134 -0.1779  0.0586  0.2045
 2100DPPE   C4A47060  14.473  20.697  15.545  0.2389  0.2095 -0.0837
 2100DPPE   C1B47061  14.901  19.671  15.813  0.0322  0.1432 -0.2231
 2100DPPE   C2B47062  14.864  19.993  16.135  0.0744  0.1817  0.2373
 2100DPPE   C3B47063  14.586  20.160  16.347 -0.0792  0.4171  0.0716
 2100DPPE   C4B47064  14.369  20.549  16.420 -0.1600  0.0571  0.2558
 2101DPPE   NH347065   9.349  14.663  17.835  0.0692 -0.2257 -0.0481
 2101DPPE   PO447066   9.187  15.167  17.665 -0.0746 -0.0491  0.5109
 2101DPPE   GL147067   8.980  15.332  17.373  0.0926 -0.4133  0.1640
 2101DPPE   GL247068   8.683  15.138  17.496 -0.0102 -0.3433  0.1073
 2101DPPE   C1A47069   8.558  15.668  17.325 -0.2005 -0.3293  0.4493
 2101DPPE   C2A47070   8.218  15.978  17.136 -0.1122  0.2867  0.1436
 2101DPPE   C3A47071   7.812  16.017  16.863  0.2535 -0.1052  0.0179
 2101DPPE   C4A47072   7.479  16.320  16.835 -0.1390 -0.0422 -0.1718
 2101DPPE   C1B47073   8.523  15.347  17.955 -0.1962  0.1162  0.0116
 2101DPPE   C2B47074   8.108  15.430  18.063  0.2996 -0.0167  0.0028
 2101DPPE   C3B47075   7.726  15.430  18.308 -0.2150 -0.0008  0.2464
 2101DPPE   C4B47076   7.482  15.114  18.514 -0.0374  0.3478  0.3352
 2102DPPE   NH347077   6.797  17.593  14.130 -0.1603  0.1435 -0.1028
 2102DPPE   PO447078   6.963  17.507  14.486 -0.1452  0.1159  0.0968
 2102DPPE   GL147079   7.166  17.277  14.778 -0.1216  0.0948 -0.0557
 2102DPPE   GL247080   7.077  17.234  15.214 -0.2306  0.3125  0.0361
 2102DPPE   C1A47081   7.422  16.905  14.648  0.0611  0.0671  0.0663
 2102DPPE   C2A47082   7.899  16.844  14.741 -0.3586  0.1011 -0.2074
 2102DPPE   C3A47083   7.967  16.417  14.708  0.1665 -0.2811  0.0192
 2102DPPE   C4A47084   8.353  16.132  14.565  0.0546  0.1155  0.1287
 2102DPPE   C1B47085   7.430  17.028  15.240 -0.1579 -0.1354  0.1192
 2102DPPE   C2B47086   7.735  16.744  15.207 -0.2917 -0.0543  0.2890
 2102DPPE   C3B47087   8.231  16.763  15.259  0.3573  0.4316 -0.3228
 2102DPPE   C4B47088   8.383  16.378  15.051 -0.1198  0.5006  0.0645
 2103DPPE   NH347089  13.622  10.339  27.264  0.1243 -0.2146 -0.0912
 2103DPPE   PO447090  13.336  10.053  26.992  0.2604 -0.5515 -0.0054
 2103DPPE   GL147091  13.201  10.183  26.555  0.0478 -0.0802  0.0225
 2103DPPE   GL247092  12.998  10.382  26.384 -0.2600  0.1944 -0.0461
 2103DPPE   C1A47093  13.400  10.080  26.223 -0.0089 -0.0394  0.0367
 2103DPPE   C2A47094  13.306   9.930  25.797 -0.2210 -0.1379  0.1205
 2103DPPE   C3A47095  13.527   9.955  25.379 -0.1479  0.1016 -0.3557
 2103DPPE   C4A47096  13.918   9.736  25.483 -0.0713 -0.1376 -0.0489
 2103DPPE   C1B47097  13.039  10.383  25.957 -0.0727 -0.0583  0.2064
 2103DPPE   C2B47098  13.102  10.291  25.533  0.0148 -0.1324  0.1851
 2103DPPE   C3B47099  12.997  10.088  25.121  0.0184 -0.1520  0.1599
 2103DPPE   C4B47100  12.898   9.640  24.973  0.2010  0.1862  0.3002
 2104DPPE   NH347101  14.889  18.372  15.043  0.1837 -0.0453  0.0041
 2104DPPE   PO447102  14.422  18.606  14.945 -0.2366 -0.1094  0.0012
 2104DPPE   GL147103  14.241  18.914  14.854 -0.1385  0.2053  0.3297
 2104DPPE   GL247104  13.884  18.934  14.745 -0.3824  0.1773 -0.2896
 2104DPPE   C1A47105  14.194  19.294  14.557 -0.1389 -0.0947 -0.0103
 2104DPPE   C2A47106  14.153  19.763  14.604 -0.2626  0.2331  0.3548
 2104DPPE   C3A47107  14.150  20.005  14.360  0.1893  0.1508  0.2460
 2104DPPE   C4A47108  14.255  20.411  14.310 -0.4467 -0.0870 -0.1193
 2104DPPE   C1B47109  13.681  19.224  14.834 -0.0907 -0.0362 -0.1393
 2104DPPE   C2B47110  13.341  19.435  14.587 -0.0800  0.0572 -0.1735
 2104DPPE   C3B47111  13.173  19.537  14.277 -0.2063  0.1908  0.0402
 2104DPPE   C4B47112  12.767  19.407  14.154  0.2380  0.0458 -0.1619
 2105DPPE   NH347113  11.023  32.091  10.444 -0.2586  0.2742  0.4658
 2105DPPE   PO447114  10.521  32.223  10.430 -0.0842 -0.1946  0.1432
 2105DPPE   GL147115  10.845  32.578  10.455 -0.0918 -0.3621 -0.1321
 2105DPPE   GL247116  10.854  32.941  10.333  0.0423  0.2501 -0.0529
 2105DPPE   C1A47117  11.350  32.675  10.565  0.1941  0.3095  0.2373
 2105DPPE   C2A47118  11.696  32.469  10.372  0.0527 -0.0952  0.0005
 2105DPPE   C3A47119  11.909  32.504   9.968 -0.0812 -0.2166 -0.0789
 2105DPPE   C4A47120  12.209  32.716   9.635  0.0548  0.1843  0.2473
 2105DPPE   C1B47121  11.134  33.237  10.568  0.2452 -0.2534  0.2084
 2105DPPE   C2B47122  11.456  33.082  10.848  0.0398  0.2183  0.1044
 2105DPPE   C3B47123  11.558  33.023  11.212  0.0835  0.0177  0.3005
 2105DPPE   C4B47124  11.198  32.847  11.372 -0.2072  0.0714 -0.2011
 2106DPPE   NH347125   4.669   4.994   6.688 -0.2911  0.1641  0.0998
 2106DPPE   PO447126   4.748   4.796   6.230 -0.1144 -0.0592  0.0070
 2106DPPE   GL147127   5.145   4.928   6.514  0.1520 -0.1471  0.0350
 2106DPPE   GL247128   5.137   4.765   6.745 -0.0053  0.1135 -0.0824
 2106DPPE   C1A47129   5.390   5.248   6.701 -0.0241 -0.4627  0.1154
 2106DPPE   C2A47130   5.776   5.583   6.882 -0.1976 -0.0317  0.0349
 2106DPPE   C3A47131   6.183   5.626   6.978 -0.0602  0.2411  0.1544
 2106DPPE   C4A47132   6.498   5.866   6.953 -0.0368 -0.0988  0.3870
 2106DPPE   C1B47133   5.357   5.033   7.121 -0.3285 -0.1326  0.0510
 2106DPPE   C2B47134   5.747   5.104   7.257 -0.4537  0.2416 -0.0260
 2106DPPE   C3B47135   6.232   5.187   7.263 -0.4713  0.1602  0.3620
 2106DPPE   C4B47136   6.704   4.978   7.179  0.0499  0.3877 -0.0315
 2107DPPE   NH347137  16.383  32.835   7.832  0.0203 -0.2117  0.0812
 2107DPPE   PO447138  16.087  32.636   7.654 -0.0253 -0.1976  0.0050
 2107DPPE   GL147139  15.917  33.119   7.798 -0.0975  0.2268 -0.1595
 2107DPPE   GL247140  15.910  33.477   7.643 -0.0689 -0.0130  0.0700
 2107DPPE   C1A47141  15.795  33.265   8.277 -0.2408  0.0799 -0.0059
 2107DPPE   C2A47142  15.517  33.507   8.534 -0.0044  0.2944  0.1671
 2107DPPE   C3A47143  15.235  33.598   8.795  0.0127 -0.1107 -0.3593
 2107DPPE   C4A47144  14.968  33.731   9.111  0.1791  0.1061  0.0585
 2107DPPE   C1B47145  15.982  33.841   7.466 -0.1694  0.2535  0.1050
 2107DPPE   C2B47146  16.123  34.278   7.405 -0.1765 -0.2532  0.1782
 2107DPPE   C3B47147  15.767  34.585   7.127 -0.0621  0.1890 -0.0816
 2107DPPE   C4B47148  15.479  34.746   6.867  0.0622 -0.0149  0.1360
 2108DPPE   NH347149   9.233  20.465  17.529  0.1232  0.1111 -0.0741
 2108DPPE   PO447150   9.553  20.478  17.218 -0.1154  0.2263 -0.1365
 2108DPPE   GL147151   9.458  20.251  16.822  0.1394  0.1241 -0.0730
 2108DPPE   GL247152   9.748  20.298  16.649 -0.0111  0.2554 -0.0864
 2108DPPE   C1A47153   9.498  19.832  16.662 -0.1534 -0.0700  0.3425
 2108DPPE   C2A47154   9.589  19.481  16.596  0.4099 -0.0351 -0.0056
 2108DPPE   C3A47155   9.594  19.058  16.532 -0.1306  0.3759  0.0533
 2108DPPE   C4A47156  10.004  18.951  16.641 -0.2595  0.0650 -0.0269
 2108DPPE   C1B47157  10.189  20.094  16.482 -0.0370 -0.0612  0.0019
 2108DPPE   C2B47158  10.435  19.757  16.293 -0.0613 -0.0244 -0.1776
 2108DPPE   C3B47159  10.647  19.351  16.381  0.1575 -0.2685  0.1508
 2108DPPE   C4B47160  10.926  19.006  16.456  0.0390 -0.0214 -0.0519
 2109DPPE   NH347161  14.820   6.347  10.372  0.0898 -0.1027  0.4701
 2109DPPE   PO447162  15.114   6.117  10.359  0.0936 -0.2370 -0.4191
 2109DPPE   GL147163  15.017   5.808  10.213  0.1261 -0.1101 -0.0216
 2109DPPE   GL247164  14.765   5.639  10.368 -0.0731 -0.1562  0.1286
 2109DPPE   C1A47165  14.846   5.660   9.745 -0.0630  0.2091  0.0800
 2109DPPE   C2A47166  15.001   5.298   9.420 -0.0120  0.0089 -0.1508
 2109DPPE   C3A47167  14.764   5.105   9.133 -0.1657 -0.2670 -0.1338
 2109DPPE   C4A47168  14.795   4.708   9.161 -0.0405 -0.1320  0.1035
 2109DPPE   C1B47169  14.657   5.189  10.492  0.0871  0.0691 -0.3093
 2109DPPE   C2B47170  14.380   4.805  10.488  0.1531 -0.3479 -0.3065
 2109DPPE   C3B47171  14.043   4.774  10.272  0.1092  0.1379  0.0392
 2109DPPE   C4B47172  13.949   4.665   9.789  0.0214 -0.3110 -0.2117
 2110DPPE   NH347173  10.170   6.428  16.487  0.0815  0.0509 -0.0988
 2110DPPE   PO447174  10.026   6.100  16.861 -0.0372  0.3697 -0.3601
 2110DPPE   GL147175   9.685   5.791  16.793 -0.0024 -0.2106 -0.1045
 2110DPPE   GL247176   9.755   5.459  16.835  0.2097 -0.2188  0.0057
 2110DPPE   C1A47177   9.411   5.745  16.402 -0.0280  0.0118 -0.4294
 2110DPPE   C2A47178   9.252   5.457  16.112  0.0842 -0.2584  0.0373
 2110DPPE   C3A47179   9.211   5.469  15.666  0.4711  0.0705  0.2903
 2110DPPE   C4A47180   8.950   5.722  15.500  0.1818  0.0340 -0.2656
 2110DPPE   C1B47181   9.343   5.393  16.785  0.3481 -0.0776  0.1102
 2110DPPE   C2B47182   8.900   5.455  16.497 -0.0757 -0.2588 -0.0644
 2110DPPE   C3B47183   8.550   5.185  16.406 -0.2991 -0.1487 -0.1269
 2110DPPE   C4B47184   8.423   4.944  16.099  0.1306 -0.3181  0.0082
 2111DPPE   NH347185  12.604  12.234   9.476 -0.1436 -0.1093  0.1323
 2111DPPE   PO447186  12.725  12.479   9.340  0.0423 -0.3164  0.0650
 2111DPPE   GL147187  12.497  12.556   8.973  0.0565 -0.0826 -0.3872
 2111DPPE   GL247188  12.235  12.519   9.271  0.0960 -0.2423 -0.0055
 2111DPPE   C1A47189  12.223  12.688   8.627 -0.1468 -0.1910 -0.0610
 2111DPPE   C2A47190  11.938  12.842   8.296  0.1459 -0.1093  0.0309
 2111DPPE   C3A47191  11.668  12.890   7.914  0.2880 -0.4263  0.1115
 2111DPPE   C4A47192  11.470  13.050   7.561 -0.6627 -0.2455  0.0082
 2111DPPE   C1B47193  12.081  12.287   8.934  0.0229 -0.1230  0.0909
 2111DPPE   C2B47194  11.896  12.241   8.586 -0.2723 -0.0396  0.0887
 2111DPPE   C3B47195  11.663  12.366   8.237 -0.0851 -0.0112  0.2532
 2111DPPE   C4B47196  11.361  12.478   7.852  0.0203 -0.2377  0.2235
 2112DPPE   NH347197  11.783   5.298  14.769 -0.2894  0.0213  0.0991
 2112DPPE   PO447198  11.879   4.933  14.425  0.4030  0.0796 -0.0797
 2112DPPE   GL147199  11.525   5.074  14.289 -0.1071  0.0432 -0.1253
 2112DPPE   GL247200  11.683   5.200  13.938  0.0133  0.3466  0.3158
 2112DPPE   C1A47201  11.099   5.022  14.140  0.1798 -0.0234  0.0245
 2112DPPE   C2A47202  10.865   4.704  13.776  0.2654 -0.1762 -0.1083
 2112DPPE   C3A47203  10.523   4.334  13.613 -0.0513 -0.1914  0.2987
 2112DPPE   C4A47204  10.233   3.989  13.612 -0.2829  0.1382  0.3115
 2112DPPE   C1B47205  11.324   5.041  13.732 -0.1946  0.2353  0.1017
 2112DPPE   C2B47206  11.044   5.178  13.573 -0.1431  0.4233 -0.2552
 2112DPPE   C3B47207  10.791   5.353  13.421 -0.1232 -0.2244 -0.2503
 2112DPPE   C4B47208  10.398   5.327  13.214 -0.0848  0.0425  0.0558
 2113DPPE   NH347209  19.623  20.209   9.490 -0.0704  0.0494  0.2881
 2113DPPE   PO447210  19.262  20.068   9.808 -0.0890 -0.2687  0.2374
 2113DPPE   GL147211  19.230  19.767   9.991 -0.0253  0.0528 -0.0832
 2113DPPE   GL247212  19.278  19.515  10.213  0.1177 -0.0630 -0.0479
 2113DPPE   C1A47213  18.792  19.739  10.112  0.0310  0.1367 -0.0588
 2113DPPE   C2A47214  18.371  19.554  10.235  0.1732  0.2919  0.1724
 2113DPPE   C3A47215  18.217  19.294  10.526  0.3042  0.3419  0.0308
 2113DPPE   C4A47216  18.121  18.926  10.232  0.0408 -0.0688  0.2347
 2113DPPE   C1B47217  19.576  19.447  10.448 -0.3690 -0.1651 -0.1319
 2113DPPE   C2B47218  19.691  19.345  10.884 -0.0815 -0.1643 -0.2673
 2113DPPE   C3B47219  19.439  19.298  11.241 -0.2731 -0.2368 -0.0340
 2113DPPE   C4B47220  19.237  19.029  11.495 -0.1177 -0.3204 -0.1437
 2114DPPE   NH347221  24.461  11.065  16.388  0.0624  0.1028 -0.5358
 2114DPPE   PO447222  24.515  10.742  16.681  0.5453  0.2838 -0.0861
 2114DPPE   GL147223  24.920  10.630  16.713 -0.0352  0.0968  0.2032
 2114DPPE   GL247224  24.934  10.229  16.795  0.1274  0.0666 -0.1536
 2114DPPE   C1A47225  25.303  10.661  16.881 -0.0974 -0.0666  0.1509
 2114DPPE   C2A47226  25.717  10.515  17.127 -0.0189  0.0391  0.1123
 2114DPPE   C3A47227  26.164  10.543  17.395  0.0707 -0.2225 -0.2076
 2114DPPE   C4A47228  26.554  10.710  17.565 -0.1913 -0.0886 -0.1685
 2114DPPE   C1B47229  25.348  10.132  16.925 -0.1207 -0.1437 -0.1256
 2114DPPE   C2B47230  25.668  10.054  17.040  0.1684  0.1161  0.0138
 2114DPPE   C3B47231  26.089  10.142  17.147 -0.2055  0.1648  0.4075
 2114DPPE   C4B47232  26.445   9.904  16.931  0.1546 -0.0304  0.3228
 2115DPPE   NH347233  20.815   2.892   4.891 -0.0806 -0.3853  0.0819
 2115DPPE   PO447234  21.056   3.129   5.229  0.0456  0.0373  0.0858
 2115DPPE   GL147235  20.711   3.409   5.356  0.0523  0.0947  0.2910
 2115DPPE   GL247236  20.588   3.727   5.320 -0.0465  0.1469  0.3325
 2115DPPE   C1A47237  20.297   3.358   5.554 -0.3267 -0.0910 -0.1290
 2115DPPE   C2A47238  19.971   3.387   5.866  0.2036  0.2288 -0.1961
 2115DPPE   C3A47239  19.788   3.592   6.210 -0.2055 -0.1682 -0.1450
 2115DPPE   C4A47240  19.378   3.348   6.235  0.2435  0.4490 -0.2010
 2115DPPE   C1B47241  20.405   4.147   5.286 -0.4161  0.2269  0.1424
 2115DPPE   C2B47242  20.098   4.327   5.519  0.3557 -0.1507 -0.2203
 2115DPPE   C3B47243  19.814   4.583   5.280  0.1105  0.0470  0.1563
 2115DPPE   C4B47244  19.542   4.829   5.170  0.1276  0.0564  0.1304
 2116DPPE   NH347245  11.831   8.679  26.392 -0.0600 -0.0296 -0.3119
 2116DPPE   PO447246  11.827   8.260  26.448  0.1623  0.0766  0.1337
 2116DPPE   GL147247  11.629   8.316  26.103  0.3478  0.2498  0.0136
 2116DPPE   GL247248  11.423   8.536  26.076  0.1268 -0.2358 -0.3354
 2116DPPE   C1A47249  11.564   8.144  25.719  0.1398  0.0329  0.1008
 2116DPPE   C2A47250  11.759   7.988  25.324 -0.0172 -0.0365  0.0596
 2116DPPE   C3A47251  11.781   8.101  24.892  0.1042  0.3342  0.0679
 2116DPPE   C4A47252  11.759   8.363  24.614  0.0754  0.1735 -0.0061
 2116DPPE   C1B47253  11.542   8.661  25.766 -0.1186  0.0125  0.0236
 2116DPPE   C2B47254  11.857   8.592  25.714 -0.2531  0.2220  0.2154
 2116DPPE   C3B47255  12.006   8.304  25.548 -0.1767 -0.2440  0.0292
 2116DPPE   C4B47256  12.066   7.962  25.843  0.1319 -0.1735  0.2058
 2117DPPE   NH347257   5.091  14.946  17.368  0.2482  0.1279 -0.1097
 2117DPPE   PO447258   5.039  14.597  17.103  0.0450  0.0002 -0.2953
 2117DPPE   GL147259   5.389  14.752  16.981 -0.0339 -0.2311 -0.0012
 2117DPPE   GL247260   5.456  14.774  16.681 -0.1180  0.0124 -0.0097
 2117DPPE   C1A47261   5.861  14.790  17.030  0.2667  0.0508 -0.1463
 2117DPPE   C2A47262   6.243  14.507  16.980 -0.0348  0.1054  0.0162
 2117DPPE   C3A47263   6.650  14.302  16.856 -0.0695  0.1182 -0.1827
 2117DPPE   C4A47264   7.109  14.127  16.993 -0.1169 -0.0041 -0.0193
 2117DPPE   C1B47265   5.820  14.544  16.632  0.0807  0.1215  0.2191
 2117DPPE   C2B47266   6.216  14.440  16.329 -0.0261 -0.0468 -0.0084
 2117DPPE   C3B47267   6.510  14.382  16.036  0.0011 -0.0147  0.1695
 2117DPPE   C4B47268   6.658  14.278  15.664  0.1713 -0.2369 -0.0266
 2118DPPE   NH347269  10.735   1.498   3.548  0.1281  0.0942  0.0501
 2118DPPE   PO447270  11.053   1.306   3.790  0.1764  0.0542  0.1492
 2118DPPE   GL147271  11.452   1.498   3.817  0.3051 -0.1665  0.2699
 2118DPPE   GL247272  11.710   1.392   3.948  0.1771  0.2958 -0.0287
 2118DPPE   C1A47273  11.801   1.887   3.975  0.0060 -0.2926 -0.1788
 2118DPPE   C2A47274  12.050   2.154   4.211 -0.0662 -0.0386 -0.1658
 2118DPPE   C3A47275  12.296   2.200   4.531  0.3077  0.0539  0.2288
 2118DPPE   C4A47276  12.502   2.177   4.887  0.1380  0.0200 -0.2043
 2118DPPE   C1B47277  11.653   1.551   4.310 -0.0515  0.1327  0.1635
 2118DPPE   C2B47278  11.668   1.795   4.517  0.0084  0.0761 -0.0581
 2118DPPE   C3B47279  11.811   2.256   4.639 -0.0247  0.2167  0.0617
 2118DPPE   C4B47280  11.628   2.623   4.653  0.0144 -0.0532  0.2142
 2119DPPE   NH347281  19.012  12.506  27.466 -0.0298 -0.0513  0.3538
 2119DPPE   PO447282  18.715  12.223  27.523 -0.0544 -0.2424  0.0358
 2119DPPE   GL147283  18.686  11.979  27.172  0.1536  0.2288  0.0717
 2119DPPE   GL247284  18.482  11.713  27.224  0.1398  0.1020 -0.0052
 2119DPPE   C1A47285  18.489  12.032  26.802 -0.0286 -0.5145 -0.3487
 2119DPPE   C2A47286  18.394  12.429  26.683  0.1211 -0.0203 -0.1730
 2119DPPE   C3A47287  17.984  12.678  26.563  0.0862 -0.0537 -0.0014
 2119DPPE   C4A47288  17.628  12.756  26.644  0.2219  0.0549 -0.0867
 2119DPPE   C1B47289  18.607  11.568  26.797  0.0970 -0.3220 -0.0893
 2119DPPE   C2B47290  18.543  11.799  26.389  0.1063 -0.0989 -0.0238
 2119DPPE   C3B47291  18.726  11.805  25.961  0.1108  0.0127  0.1410
 2119DPPE   C4B47292  18.744  11.963  25.540  0.0041 -0.0578  0.0621
 2120DPPE   NH347293   9.924  10.946  12.617 -0.2640 -0.2478  0.2597
 2120DPPE   PO447294   9.897  10.833  12.956 -0.0098  0.4351 -0.1121
 2120DPPE   GL147295   9.611  10.608  12.735 -0.0049  0.0020  0.1942
 2120DPPE   GL247296   9.681  10.346  12.583  0.0514 -0.1147 -0.2059
 2120DPPE   C1A47297   9.192  10.523  12.572 -0.0649  0.0406  0.2067
 2120DPPE   C2A47298   9.184  10.242  12.312  0.1182 -0.2190 -0.0620
 2120DPPE   C3A47299   8.850  10.103  12.117  0.0339 -0.2972 -0.0455
 2120DPPE   C4A47300   8.597   9.603  12.165  0.2748 -0.0650  0.3682
 2120DPPE   C1B47301   9.502   9.938  12.505 -0.0540  0.1977 -0.0853
 2120DPPE   C2B47302   9.284   9.668  12.219 -0.1936 -0.0345 -0.0144
 2120DPPE   C3B47303   9.025   9.745  11.813  0.0353  0.0427 -0.2288
 2120DPPE   C4B47304   8.973  10.139  11.652  0.4665 -0.0641 -0.0053
 2121DPPE   NH347305  15.463   1.975  24.418 -0.0046  0.0420  0.2620
 2121DPPE   PO447306  15.861   1.843  24.471 -0.1683 -0.5564 -0.0650
 2121DPPE   GL147307  15.940   2.112  24.195  0.1160  0.0760  0.0340
 2121DPPE   GL247308  16.275   2.108  24.070  0.1586  0.1665 -0.2221
 2121DPPE   C1A47309  16.122   2.567  24.213  0.1294 -0.2852 -0.1984
 2121DPPE   C2A47310  16.346   2.971  24.314  0.2270  0.4535 -0.2901
 2121DPPE   C3A47311  16.126   3.288  24.452 -0.2830  0.3836  0.0241
 2121DPPE   C4A47312  15.826   3.696  24.439 -0.1715 -0.0507 -0.0861
 2121DPPE   C1B47313  16.031   2.264  23.761  0.0612  0.2400  0.1115
 2121DPPE   C2B47314  15.782   2.625  23.811  0.1119  0.2064 -0.3353
 2121DPPE   C3B47315  15.677   3.017  23.627  0.1826  0.1300 -0.0993
 2121DPPE   C4B47316  15.783   3.180  23.162 -0.0154  0.0171 -0.1678
 2122DPPE   NH347317   8.283  12.862  16.146 -0.3415  0.0319  0.0417
 2122DPPE   PO447318   8.249  12.524  16.269 -0.1511  0.0215 -0.1203
 2122DPPE   GL147319   7.963  12.790  16.568 -0.0393  0.1183 -0.0229
 2122DPPE   GL247320   7.781  13.098  16.476  0.2625 -0.1202  0.0109
 2122DPPE   C1A47321   7.730  12.818  16.894  0.3947 -0.1686 -0.2915
 2122DPPE   C2A47322   7.404  12.872  17.258  0.2706  0.1809  0.0087
 2122DPPE   C3A47323   6.949  12.798  17.186 -0.0502 -0.0579  0.0826
 2122DPPE   C4A47324   6.610  12.678  17.509  0.1653  0.0070 -0.0441
 2122DPPE   C1B47325   7.414  13.185  16.277  0.1840 -0.2028  0.1391
 2122DPPE   C2B47326   7.012  13.128  16.192 -0.1424  0.0774 -0.1501
 2122DPPE   C3B47327   6.653  13.340  16.331 -0.0646 -0.3933  0.1240
 2122DPPE   C4B47328   6.432  13.543  16.650  0.0592  0.3063  0.1710
 2123DPPE   NH347329  11.009  13.406   2.785  0.0903 -0.0667  0.0774
 2123DPPE   PO447330  11.337  13.221   2.782  0.1960 -0.0309 -0.0506
 2123DPPE   GL147331  11.194  13.012   3.080 -0.0496  0.0577 -0.0290
 2123DPPE   GL247332  11.426  12.737   3.206  0.1808  0.2450  0.1883
 2123DPPE   C1A47333  10.949  12.834   3.390  0.3344 -0.0925 -0.3396
 2123DPPE   C2A47334  10.901  12.471   3.198  0.1039  0.2238  0.0427
 2123DPPE   C3A47335  11.079  12.064   3.261  0.2000  0.1186 -0.0301
 2123DPPE   C4A47336  11.161  11.756   2.955  0.1817 -0.0512  0.3609
 2123DPPE   C1B47337  11.303  12.474   3.545 -0.0458  0.0007  0.0163
 2123DPPE   C2B47338  11.034  12.172   3.828 -0.4045  0.0350  0.2667
 2123DPPE   C3B47339  11.174  11.851   4.165  0.0011 -0.0078  0.2993
 2123DPPE   C4B47340  11.551  11.635   4.356 -0.2256  0.0172  0.1862
 2124DPPE   NH347341   9.046   8.550  16.134 -0.1530  0.3377  0.1873
 2124DPPE   PO447342   8.618   8.470  16.334 -0.1034 -0.1534  0.0138
 2124DPPE   GL147343   8.544   8.025  16.205  0.1846  0.3340  0.2662
 2124DPPE   GL247344   8.851   8.042  16.139  0.1441  0.0664 -0.1454
 2124DPPE   C1A47345   8.222   7.832  16.029  0.4659 -0.0630 -0.1653
 2124DPPE   C2A47346   7.867   7.821  15.629  0.1407  0.2110  0.0537
 2124DPPE   C3A47347   7.862   7.903  15.195  0.0364  0.3229  0.3241
 2124DPPE   C4A47348   7.955   7.686  14.896  0.2213 -0.1182  0.1560
 2124DPPE   C1B47349   8.676   7.589  15.988 -0.1883 -0.2346 -0.0522
 2124DPPE   C2B47350   8.251   7.405  15.738  0.0801 -0.0794  0.1446
 2124DPPE   C3B47351   8.152   7.377  15.317 -0.2075  0.1824 -0.1836
 2124DPPE   C4B47352   8.260   7.149  14.940  0.1834  0.2194 -0.1887
 2125DPPE   NH347353   8.920  32.910  10.984  0.3143 -0.0928 -0.2338
 2125DPPE   PO447354   9.319  32.884  10.919  0.2524 -0.0477 -0.1571
 2125DPPE   GL147355   9.276  33.276  11.144 -0.1044 -0.1291  0.2493
 2125DPPE   GL247356   9.420  33.489  11.272  0.2862 -0.0261  0.0170
 2125DPPE   C1A47357   8.917  33.605  11.213 -0.1007 -0.2792  0.1665
 2125DPPE   C2A47358   8.770  33.847  11.398 -0.2662  0.2425 -0.0946
 2125DPPE   C3A47359   8.301  33.936  11.668 -0.0306  0.0966  0.2510
 2125DPPE   C4A47360   8.139  34.345  11.744  0.0528 -0.1627 -0.4627
 2125DPPE   C1B47361   9.185  33.560  11.650  0.2973 -0.1403  0.3958
 2125DPPE   C2B47362   9.402  33.906  11.974 -0.5637  0.0744 -0.0979
 2125DPPE   C3B47363   9.680  33.831  12.372 -0.0993 -0.1881  0.0590
 2125DPPE   C4B47364   9.982  34.063  12.615 -0.0401 -0.0011 -0.2264
 2126DPPE   NH347365   4.293   9.769   6.538 -0.1321  0.1130  0.1466
 2126DPPE   PO447366   3.886   9.988   6.835 -0.0918 -0.0524  0.1976
 2126DPPE   GL147367   4.044   9.674   7.013 -0.0371  0.0592 -0.1227
 2126DPPE   GL247368   3.922   9.414   7.293  0.0020  0.2484  0.2155
 2126DPPE   C1A47369   4.365   9.687   7.343  0.1115  0.4357 -0.2079
 2126DPPE   C2A47370   4.821   9.931   7.564 -0.0401  0.0977  0.0556
 2126DPPE   C3A47371   5.257  10.008   7.529  0.0811 -0.0282  0.0041
 2126DPPE   C4A47372   5.702  10.307   7.570  0.3275 -0.0692  0.2846
 2126DPPE   C1B47373   4.146   8.971   7.228 -0.0894  0.2518 -0.3181
 2126DPPE   C2B47374   4.391   8.898   7.329 -0.2238 -0.0513  0.0379
 2126DPPE   C3B47375   4.574   8.829   7.765 -0.2808 -0.0327 -0.0831
 2126DPPE   C4B47376   4.839   9.093   8.031  0.3815 -0.1555  0.1080
 2127DPPE   NH347377  21.773  20.197  12.180 -0.1616 -0.2497 -0.2705
 2127DPPE   PO447378  21.731  20.189  11.734 -0.0543  0.3321 -0.3500
 2127DPPE   GL147379  21.576  19.823  11.884 -0.1020  0.2097  0.3095
 2127DPPE   GL247380  21.769  19.602  12.108  0.0259 -0.2385 -0.0782
 2127DPPE   C1A47381  21.261  19.662  12.277 -0.0621  0.2928  0.0123
 2127DPPE   C2A47382  20.778  19.483  12.413 -0.2333  0.1169 -0.1103
 2127DPPE   C3A47383  20.786  19.144  12.775  0.4531 -0.0343  0.1652
 2127DPPE   C4A47384  21.053  18.935  12.843 -0.2852 -0.0373  0.1000
 2127DPPE   C1B47385  22.072  19.244  11.946 -0.0292  0.1676 -0.0435
 2127DPPE   C2B47386  22.101  18.762  12.118  0.1611 -0.1443  0.2491
 2127DPPE   C3B47387  21.983  18.578  12.501 -0.1800 -0.1564  0.2765
 2127DPPE   C4B47388  21.949  18.082  12.564  0.0960  0.1687  0.1436
 2128DPPE   NH347389  26.644   5.448  19.496 -0.1062 -0.1779 -0.1443
 2128DPPE   PO447390  26.326   5.023  19.658  0.1455 -0.4759 -0.0345
 2128DPPE   GL147391  25.981   5.194  19.614 -0.2294 -0.3162 -0.1603
 2128DPPE   GL247392  26.003   5.102  19.262 -0.0769 -0.4884 -0.0760
 2128DPPE   C1A47393  25.528   5.320  19.564 -0.0140 -0.2955 -0.2104
 2128DPPE   C2A47394  25.242   5.098  19.515  0.2284  0.2668  0.3578
 2128DPPE   C3A47395  24.888   4.911  19.667  0.0616 -0.1286 -0.3784
 2128DPPE   C4A47396  24.453   4.841  19.685  0.3729  0.1617  0.1259
 2128DPPE   C1B47397  25.649   5.096  19.070  0.0593 -0.1306  0.2855
 2128DPPE   C2B47398  25.283   5.472  19.114  0.1127  0.1656  0.1298
 2128DPPE   C3B47399  25.188   5.772  18.674  0.1853  0.0670  0.2548
 2128DPPE   C4B47400  24.868   5.863  18.497  0.5750 -0.2163 -0.5341
 2129DPPE   NH347401   8.137   9.768  15.997 -0.6853 -0.0983  0.0616
 2129DPPE   PO447402   8.315   9.630  15.546 -0.0810  0.0543 -0.1435
 2129DPPE   GL147403   8.002   9.796  15.527 -0.0373  0.2087  0.1369
 2129DPPE   GL247404   7.956  10.056  15.657  0.2831  0.1377  0.0624
 2129DPPE   C1A47405   7.684   9.835  15.304 -0.0816  0.1776 -0.2818
 2129DPPE   C2A47406   7.306   9.903  15.429 -0.0602  0.2648 -0.2484
 2129DPPE   C3A47407   6.846   9.907  15.517 -0.0354  0.0644  0.1475
 2129DPPE   C4A47408   6.432  10.037  15.687 -0.1150 -0.3966  0.0711
 2129DPPE   C1B47409   7.633  10.243  15.625  0.1383  0.0861  0.0691
 2129DPPE   C2B47410   7.217  10.358  15.478  0.1216 -0.1872  0.1867
 2129DPPE   C3B47411   6.871  10.472  15.306 -0.0560 -0.1026  0.0273
 2129DPPE   C4B47412   6.472  10.358  15.360  0.1101 -0.1342  0.3378
 2130DPPE   NH347413  17.501   5.653  22.008 -0.3076  0.0272  0.1359
 2130DPPE   PO447414  17.149   5.536  21.740  0.1546  0.1224 -0.2048
 2130DPPE   GL147415  17.236   5.272  22.129  0.0083  0.0999  0.1835
 2130DPPE   GL247416  17.549   5.242  22.311 -0.2379 -0.0691 -0.0436
 2130DPPE   C1A47417  17.191   4.916  22.427 -0.0675  0.1178  0.0893
 2130DPPE   C2A47418  17.223   4.713  22.794  0.1000 -0.2783 -0.3720
 2130DPPE   C3A47419  17.050   4.885  23.184 -0.2565 -0.0181  0.0194
 2130DPPE   C4A47420  16.983   5.188  23.535  0.0155  0.0077  0.1259
 2130DPPE   C1B47421  17.671   4.788  22.542  0.2189  0.2173 -0.0022
 2130DPPE   C2B47422  17.741   4.593  22.947 -0.0906 -0.1700 -0.3434
 2130DPPE   C3B47423  17.440   4.493  23.183  0.2245 -0.0192  0.1867
 2130DPPE   C4B47424  17.414   4.273  23.500 -0.0342 -0.0984  0.2101
 2131DPPE   NH347425  21.640  13.297   5.496  0.3211 -0.2604  0.0060
 2131DPPE   PO447426  21.257  13.471   5.392  0.0990 -0.6084 -0.0539
 2131DPPE   GL147427  21.173  13.340   5.838  0.3006  0.0900  0.1218
 2131DPPE   GL247428  20.925  13.074   5.879 -0.0946 -0.2877 -0.3689
 2131DPPE   C1A47429  20.881  13.377   6.250 -0.0126  0.2445  0.0868
 2131DPPE   C2A47430  20.555  13.609   6.394  0.0647  0.0120 -0.2172
 2131DPPE   C3A47431  20.387  13.678   6.817 -0.2163 -0.0699  0.0970
 2131DPPE   C4A47432  20.474  13.417   7.269  0.0010  0.0880  0.0950
 2131DPPE   C1B47433  20.845  12.867   6.135 -0.0416 -0.4239  0.0804
 2131DPPE   C2B47434  20.610  12.911   6.449  0.3181 -0.0632 -0.2193
 2131DPPE   C3B47435  20.677  12.781   6.938  0.0340  0.0089  0.0568
 2131DPPE   C4B47436  20.840  13.031   7.234  0.4174  0.1155 -0.2815
 2132DPPE   NH347437   8.766  20.301  18.277 -0.0076 -0.1948 -0.2310
 2132DPPE   PO447438   8.892  20.501  17.945  0.0903  0.1806  0.2380
 2132DPPE   GL147439   9.176  20.164  17.958 -0.0559 -0.2461 -0.0772
 2132DPPE   GL247440   8.916  20.020  17.913  0.0568  0.2081 -0.1999
 2132DPPE   C1A47441   9.722  20.058  18.081 -0.3104  0.2577 -0.0231
 2132DPPE   C2A47442   9.914  19.676  18.132  0.2646 -0.1975  0.2627
 2132DPPE   C3A47443  10.030  19.329  18.102 -0.1540  0.0614  0.4411
 2132DPPE   C4A47444  10.460  19.177  18.135  0.2777  0.1108 -0.2392
 2132DPPE   C1B47445   9.118  19.651  17.952  0.1636 -0.2153 -0.2825
 2132DPPE   C2B47446   9.049  19.361  18.349  0.0061  0.1051 -0.0111
 2132DPPE   C3B47447   9.170  19.332  18.686 -0.4415  0.0904  0.1061
 2132DPPE   C4B47448   9.133  18.983  18.948  0.2236 -0.1825  0.0724
 2133DPPE   NH347449  10.820  10.835  11.110  0.2074 -0.2000  0.1308
 2133DPPE   PO447450  11.010  10.518  11.299  0.1291  0.1901 -0.0293
 2133DPPE   GL147451  10.735  10.295  11.016  0.0821 -0.5621  0.0812
 2133DPPE   GL247452  10.941  10.192  10.590 -0.3595 -0.3714 -0.2282
 2133DPPE   C1A47453  10.411  10.295  10.633 -0.0233 -0.0985  0.1685
 2133DPPE   C2A47454  10.267  10.008  10.256  0.1202  0.3026  0.2469
 2133DPPE   C3A47455  10.138   9.706   9.890  0.0755  0.0271  0.3434
 2133DPPE   C4A47456  10.318   9.640   9.558  0.2825  0.0871  0.0437
 2133DPPE   C1B47457  10.707   9.839  10.419 -0.1048 -0.0286  0.1091
 2133DPPE   C2B47458  10.317   9.519  10.282 -0.3845  0.4627 -0.1287
 2133DPPE   C3B47459  10.316   9.232  10.022  0.2618 -0.1699  0.3025
 2133DPPE   C4B47460  10.080   8.809   9.753  0.0038  0.0204  0.0296
 2134DPPE   NH347461  12.167   5.218  14.082 -0.4069  0.0694 -0.1789
 2134DPPE   PO447462  12.197   5.168  13.568 -0.2903  0.3066 -0.2371
 2134DPPE   GL147463  11.989   4.911  13.201  0.0331 -0.1508  0.1644
 2134DPPE   GL247464  11.961   5.244  13.093 -0.1259 -0.0738 -0.1960
 2134DPPE   C1A47465  11.794   4.512  13.098  0.2162  0.1654  0.4320
 2134DPPE   C2A47466  11.424   4.215  13.136 -0.0445  0.0080 -0.0347
 2134DPPE   C3A47467  11.328   3.824  12.933 -0.3529 -0.0348  0.3291
 2134DPPE   C4A47468  11.095   3.709  12.495  0.1396  0.3161  0.3437
 2134DPPE   C1B47469  11.625   4.976  12.860 -0.1096  0.2164  0.2980
 2134DPPE   C2B47470  11.156   4.873  12.518 -0.1265  0.1694  0.0590
 2134DPPE   C3B47471  10.794   4.719  12.485  0.2571 -0.0721  0.0461
 2134DPPE   C4B47472  10.610   4.260  12.493 -0.0890  0.0350  0.2570
 2135DPPE   NH347473  15.529   1.205   2.234 -0.0853 -0.2291 -0.0427
 2135DPPE   PO447474  15.294   1.563   2.336 -0.1699 -0.0521  0.1395
 2135DPPE   GL147475  15.389   1.985   2.451 -0.0989 -0.0692 -0.0805
 2135DPPE   GL247476  15.713   1.985   2.440 -0.0230  0.1996  0.0346
 2135DPPE   C1A47477  15.262   2.352   2.801  0.4551  0.1010  0.0720
 2135DPPE   C2A47478  15.108   2.503   3.186 -0.0438 -0.1994  0.0304
 2135DPPE   C3A47479  14.813   2.528   3.515 -0.0777  0.1645  0.0723
 2135DPPE   C4A47480  14.928   2.466   3.995  0.2187  0.1139 -0.0249
 2135DPPE   C1B47481  15.770   2.206   2.823  0.1989  0.2712 -0.1049
 2135DPPE   C2B47482  15.814   2.245   3.215 -0.3592 -0.1638 -0.0755
 2135DPPE   C3B47483  15.818   2.241   3.701  0.1787 -0.3510 -0.2023
 2135DPPE   C4B47484  15.948   2.150   4.101  0.0399  0.1746 -0.1271
 2136DPPE   NH347485   9.479  11.107  13.059 -0.3051  0.0864  0.3701
 2136DPPE   PO447486   9.784  11.366  12.804 -0.0185  0.1919  0.2779
 2136DPPE   GL147487   9.417  11.379  12.613 -0.0583 -0.0847  0.1467
 2136DPPE   GL247488   9.434  11.073  12.468  0.0303  0.2158  0.0477
 2136DPPE   C1A47489   9.023  11.444  12.620  0.0227  0.1365  0.0074
 2136DPPE   C2A47490   8.669  11.281  12.660  0.0099  0.1318 -0.2711
 2136DPPE   C3A47491   8.213  10.970  12.727 -0.0963  0.1521  0.2078
 2136DPPE   C4A47492   8.077  10.570  12.626 -0.0684  0.2361  0.4575
 2136DPPE   C1B47493   9.010  11.008  12.385  0.0388  0.0352 -0.0993
 2136DPPE   C2B47494   8.588  11.213  12.162  0.1037 -0.1476  0.1806
 2136DPPE   C3B47495   8.187  11.100  12.256 -0.0326 -0.0954  0.1918
 2136DPPE   C4B47496   7.757  11.184  12.515 -0.0905  0.2211  0.0704
 2137DPPE   NH347497  13.220  34.654   5.002 -0.0738  0.0954 -0.0192
 2137DPPE   PO447498  12.903  34.920   4.999 -0.1365 -0.2612  0.0112
 2137DPPE   GL147499  13.273  35.148   5.247  0.0643  0.2348 -0.0111
 2137DPPE   GL247500  13.302  35.335   5.509  0.1174  0.1147  0.2729
 2137DPPE   C1A47501  13.736  35.095   5.529 -0.0729  0.0724  0.1085
 2137DPPE   C2A47502  14.071  35.364   5.702  0.0875  0.0501 -0.3735
 2137DPPE   C3A47503  14.224  35.186   6.003 -0.2633  0.0169 -0.4246
 2137DPPE   C4A47504  14.136  35.267   6.404  0.6061  0.0545 -0.0934
 2137DPPE   C1B47505  13.366  35.045   5.786  0.0085  0.0945 -0.0421
 2137DPPE   C2B47506  13.588  35.111   6.139  0.0420 -0.0750  0.0694
 2137DPPE   C3B47507  13.635  35.365   6.601 -0.1503  0.2967  0.1967
 2137DPPE   C4B47508  13.687  35.601   6.990 -0.1854 -0.0252  0.1725
 2138DPPE   NH347509  10.876  16.777  15.897 -0.5237  0.3536  0.2019
 2138DPPE   PO447510  10.640  16.443  15.615  0.0734  0.0564  0.2955
 2138DPPE   GL147511  10.214  16.620  15.499 -0.4854 -0.4064  0.0863
 2138DPPE   GL247512  10.302  16.806  15.795 -0.3510 -0.3653  0.0107
 2138DPPE   C1A47513   9.897  16.908  15.521 -0.0083 -0.0553 -0.0208
 2138DPPE   C2A47514   9.760  17.354  15.453 -0.3793 -0.0213  0.2519
 2138DPPE   C3A47515   9.579  17.759  15.381  0.0508  0.2185 -0.0033
 2138DPPE   C4A47516   9.496  18.185  15.296 -0.3459  0.1383  0.4153
 2138DPPE   C1B47517  10.301  17.200  15.521 -0.0394  0.1674 -0.2194
 2138DPPE   C2B47518  10.216  17.601  15.517  0.0484 -0.2196  0.3532
 2138DPPE   C3B47519  10.011  17.912  15.729 -0.2148  0.1858  0.1181
 2138DPPE   C4B47520  10.201  18.091  16.130  0.0885 -0.2172  0.0787
 2139DPPE   NH347521   8.925  11.192  13.794  0.2208  0.0155 -0.2619
 2139DPPE   PO447522   9.089  10.912  14.124  0.1192 -0.0951 -0.2495
 2139DPPE   GL147523   8.948  10.723  13.669  0.0674  0.3416  0.0057
 2139DPPE   GL247524   9.082  10.864  13.375  0.2831 -0.1229 -0.1861
 2139DPPE   C1A47525   9.051  10.337  13.481  0.0235  0.2681 -0.1591
 2139DPPE   C2A47526   9.344  10.237  13.282  0.0529 -0.1299 -0.1274
 2139DPPE   C3A47527   9.335  10.202  12.915  0.3699  0.1235  0.2624
 2139DPPE   C4A47528   9.061   9.879  12.689 -0.0733 -0.1793 -0.1188
 2139DPPE   C1B47529   8.915  10.541  13.056  0.2220 -0.3179  0.0928
 2139DPPE   C2B47530   8.788  10.250  12.761 -0.0316 -0.0078  0.0483
 2139DPPE   C3B47531   8.556   9.808  12.624 -0.1051 -0.2750  0.1734
 2139DPPE   C4B47532   8.154   9.557  12.557 -0.1705  0.0386 -0.1743
 2140DPPE   NH347533  16.828  15.628   9.717 -0.3432  0.0488  0.0523
 2140DPPE   PO447534  17.114  15.882   9.556  0.0331  0.2768 -0.1314
 2140DPPE   GL147535  17.501  16.028   9.162 -0.2483  0.3360  0.0985
 2140DPPE   GL247536  17.404  15.825   8.878 -0.0117  0.0995 -0.0732
 2140DPPE   C1A47537  17.863  16.228   8.856 -0.2125 -0.1318 -0.0227
 2140DPPE   C2A47538  18.284  16.578   9.006 -0.3226  0.1106  0.0115
 2140DPPE   C3A47539  18.630  16.514   8.936 -0.1880  0.2762  0.2858
 2140DPPE   C4A47540  18.797  16.539   8.571 -0.0469  0.1082 -0.1504
 2140DPPE   C1B47541  17.228  16.186   8.763 -0.1900 -0.1772  0.0432
 2140DPPE   C2B47542  17.445  16.484   8.582 -0.2987 -0.0665  0.0360
 2140DPPE   C3B47543  17.363  16.937   8.401  0.1082 -0.1125  0.1673
 2140DPPE   C4B47544  17.256  17.251   8.216  0.1698  0.0485  0.0459
 2141DPPE   NH347545   8.437   9.997  18.040 -0.0466 -0.3824 -0.3998
 2141DPPE   PO447546   8.323  10.289  17.829  0.1546  0.1197  0.0438
 2141DPPE   GL147547   8.007  10.537  17.872 -0.3252 -0.1137  0.2062
 2141DPPE   GL247548   7.846  10.264  17.952 -0.1327 -0.0267  0.1001
 2141DPPE   C1A47549   7.753  10.830  18.115  0.0043 -0.0779  0.1847
 2141DPPE   C2A47550   7.386  10.853  17.971  0.1281 -0.1643  0.1742
 2141DPPE   C3A47551   7.009  10.639  18.102 -0.0643 -0.1060 -0.2399
 2141DPPE   C4A47552   6.654  10.729  18.036 -0.0196  0.3497  0.0781
 2141DPPE   C1B47553   7.458  10.385  17.959  0.0818 -0.1464 -0.3194
 2141DPPE   C2B47554   7.024  10.206  17.786  0.1288  0.0503 -0.0292
 2141DPPE   C3B47555   6.677  10.031  17.833  0.0196 -0.0513 -0.1033
 2141DPPE   C4B47556   6.259   9.730  17.825 -0.1001 -0.0729  0.3098
 2142DPPE   NH347557   1.291   3.972  14.079 -0.0954 -0.0309  0.1783
 2142DPPE   PO447558   1.541   3.640  13.889  0.1821  0.1474  0.3839
 2142DPPE   GL147559   1.839   3.865  14.050 -0.0536 -0.2958 -0.0671
 2142DPPE   GL247560   1.704   4.228  14.136  0.1899  0.0944  0.1828
 2142DPPE   C1A47561   2.153   4.032  13.757  0.3829  0.1684 -0.1851
 2142DPPE   C2A47562   2.283   3.728  13.515 -0.0092 -0.2646 -0.0131
 2142DPPE   C3A47563   2.334   3.356  13.503 -0.0273 -0.4324 -0.0092
 2142DPPE   C4A47564   2.341   3.062  13.818 -0.1634 -0.0324 -0.2301
 2142DPPE   C1B47565   2.131   4.438  14.077 -0.0568 -0.2810  0.0354
 2142DPPE   C2B47566   2.594   4.259  13.911  0.1322  0.4340 -0.1814
 2142DPPE   C3B47567   3.035   4.239  13.623  0.0765  0.0637 -0.1473
 2142DPPE   C4B47568   3.497   4.069  13.688  0.3914  0.1117  0.3547
 2143DPPE   NH347569  16.650  16.447  10.275 -0.0014  0.2282  0.3174
 2143DPPE   PO447570  16.273  16.441   9.999  0.0767 -0.2252  0.0348
 2143DPPE   GL147571  16.455  16.789   9.881 -0.0602  0.1204 -0.1458
 2143DPPE   GL247572  16.857  16.891   9.996  0.4261  0.1292 -0.0829
 2143DPPE   C1A47573  16.634  17.191   9.666 -0.4156 -0.1852 -0.1648
 2143DPPE   C2A47574  16.732  17.421   9.370 -0.2846  0.2465 -0.0698
 2143DPPE   C3A47575  16.774  17.852   9.498  0.2566 -0.1076 -0.1203
 2143DPPE   C4A47576  16.745  18.187   9.145 -0.0378 -0.2548  0.2461
 2143DPPE   C1B47577  17.076  16.914   9.661  0.1961 -0.1300 -0.0340
 2143DPPE   C2B47578  17.206  17.093   9.407  0.2187 -0.2285  0.0308
 2143DPPE   C3B47579  17.213  17.450   9.142  0.3422 -0.2342 -0.1758
 2143DPPE   C4B47580  17.206  17.883   8.991 -0.0688 -0.1052  0.0089
 2144DPPE   NH347581   4.218   3.610  19.174  0.2631 -0.2540 -0.2729
 2144DPPE   PO447582   4.112   3.996  19.143  0.1298  0.1417  0.1455
 2144DPPE   GL147583   4.141   3.978  18.751 -0.0934 -0.3351  0.0172
 2144DPPE   GL247584   4.062   4.271  18.653 -0.1245 -0.0423 -0.2325
 2144DPPE   C1A47585   4.480   4.105  18.474  0.2216  0.3599  0.2126
 2144DPPE   C2A47586   4.426   4.042  18.115  0.2211 -0.0926 -0.0738
 2144DPPE   C3A47587   4.671   3.829  17.761  0.0504  0.1777  0.1100
 2144DPPE   C4A47588   4.902   3.743  17.421  0.0794  0.0968 -0.2182
 2144DPPE   C1B47589   3.992   4.525  18.285  0.0082  0.0180  0.1327
 2144DPPE   C2B47590   3.652   4.648  17.939 -0.1641 -0.3360  0.2058
 2144DPPE   C3B47591   3.490   4.825  17.441 -0.1578 -0.2784 -0.2152
 2144DPPE   C4B47592   3.896   5.173  17.424 -0.0370 -0.0217 -0.3595
 2145DPPE   NH347593  12.614   8.261  11.486 -0.2619  0.2636  0.1314
 2145DPPE   PO447594  12.334   8.098  11.171 -0.2287  0.0572  0.0709
 2145DPPE   GL147595  11.987   7.917  11.050 -0.2058 -0.2512  0.0758
 2145DPPE   GL247596  11.639   7.889  11.064  0.3956 -0.1122 -0.0406
 2145DPPE   C1A47597  11.848   7.843  10.642  0.1558  0.1892  0.3185
 2145DPPE   C2A47598  11.652   7.642  10.329 -0.0996 -0.0082 -0.1105
 2145DPPE   C3A47599  11.384   7.579   9.975 -0.0767  0.2147 -0.1338
 2145DPPE   C4A47600  11.268   7.245   9.733  0.0122 -0.4442 -0.0716
 2145DPPE   C1B47601  11.533   7.508  10.796  0.0912  0.2415 -0.1372
 2145DPPE   C2B47602  11.305   7.312  10.428  0.0780  0.2398 -0.0012
 2145DPPE   C3B47603  11.074   6.969  10.153 -0.1339  0.1572 -0.0161
 2145DPPE   C4B47604  10.848   6.758   9.829  0.4393  0.0823 -0.0396
 2146DPPE   NH347605  11.194   6.998  14.718 -0.0335  0.3235 -0.2973
 2146DPPE   PO447606  10.855   6.700  14.998  0.1249 -0.0945 -0.3209
 2146DPPE   GL147607  10.680   6.876  14.625  0.2156 -0.0926  0.1062
 2146DPPE   GL247608  10.713   6.785  14.375 -0.0940 -0.0016 -0.2132
 2146DPPE   C1A47609  10.264   6.839  14.531 -0.3919  0.0955  0.0625
 2146DPPE   C2A47610   9.945   6.679  14.318 -0.0975  0.1682  0.2735
 2146DPPE   C3A47611   9.520   6.555  14.049 -0.2380 -0.2930  0.2014
 2146DPPE   C4A47612   9.092   6.558  13.877 -0.0263  0.0439  0.0324
 2146DPPE   C1B47613  10.624   6.569  14.201  0.0305  0.2677 -0.0878
 2146DPPE   C2B47614  10.373   6.244  14.299 -0.2222 -0.0677 -0.0261
 2146DPPE   C3B47615   9.980   6.085  14.156 -0.1397  0.3631 -0.0774
 2146DPPE   C4B47616   9.591   6.041  14.052  0.5705 -0.0054  0.2071
 2147DPPE   NH347617  17.172   3.127  11.791  0.0586 -0.3705 -0.2209
 2147DPPE   PO447618  17.358   2.713  11.722  0.1289  0.1583  0.1394
 2147DPPE   GL147619  17.156   2.404  11.588  0.2713  0.3213 -0.0491
 2147DPPE   GL247620  17.131   2.118  11.767  0.1465  0.2193 -0.0181
 2147DPPE   C1A47621  17.161   2.220  11.097  0.0415  0.4468 -0.2081
 2147DPPE   C2A47622  17.299   1.775  10.971  0.1069  0.1901 -0.2657
 2147DPPE   C3A47623  17.390   1.326  10.812 -0.0484  0.2954 -0.2169
 2147DPPE   C4A47624  17.547   1.012  10.550  0.1805 -0.3533  0.0415
 2147DPPE   C1B47625  17.156   1.757  11.458  0.2085 -0.0577 -0.2232
 2147DPPE   C2B47626  16.746   1.668  11.224 -0.2923 -0.1391  0.1910
 2147DPPE   C3B47627  16.447   1.312  11.233  0.1712  0.1760  0.0875
 2147DPPE   C4B47628  16.268   1.071  11.018 -0.1607  0.2118 -0.1100
 2148DPPE   NH347629  11.483   7.533  13.392 -0.1132  0.0474 -0.2883
 2148DPPE   PO447630  11.072   7.484  13.570  0.3914 -0.0767 -0.1558
 2148DPPE   GL147631  10.759   7.243  13.335  0.2773 -0.0649 -0.0811
 2148DPPE   GL247632  10.704   7.312  13.037  0.2305 -0.1872 -0.7318
 2148DPPE   C1A47633  10.340   7.032  13.264  0.0494 -0.0055  0.0928
 2148DPPE   C2A47634   9.939   7.177  13.274  0.1505 -0.1957  0.0633
 2148DPPE   C3A47635   9.600   7.298  13.309 -0.1390  0.3341  0.2036
 2148DPPE   C4A47636   9.238   7.541  13.374 -0.1415 -0.3054  0.3373
 2148DPPE   C1B47637  10.415   7.314  12.785 -0.0913 -0.2622 -0.1563
 2148DPPE   C2B47638  10.111   6.977  12.767  0.1424 -0.0888 -0.2604
 2148DPPE   C3B47639   9.973   6.629  12.902 -0.2195 -0.2052 -0.0356
 2148DPPE   C4B47640   9.742   6.736  13.220  0.0448 -0.0700 -0.3617
 2149DPPE   NH347641  22.035  12.198   5.915  0.0188 -0.0296  0.0150
 2149DPPE   PO447642  21.703  12.381   5.823  0.1629  0.0517  0.0001
 2149DPPE   GL147643  21.464  12.381   6.164  0.1712  0.0660 -0.1694
 2149DPPE   GL247644  21.239  12.442   6.221 -0.2420  0.0597  0.5211
 2149DPPE   C1A47645  21.488  12.082   6.492 -0.1588  0.1240  0.1177
 2149DPPE   C2A47646  21.303  11.658   6.690  0.0314 -0.0513 -0.1254
 2149DPPE   C3A47647  21.256  11.406   7.040  0.1057 -0.0323  0.5009
 2149DPPE   C4A47648  21.203  11.624   7.461 -0.0172 -0.2591  0.1155
 2149DPPE   C1B47649  21.050  12.450   6.587 -0.0930  0.2800  0.0984
 2149DPPE   C2B47650  21.216  12.111   6.948 -0.1063 -0.1810  0.1398
 2149DPPE   C3B47651  21.501  11.887   7.112 -0.0832  0.1779  0.2102
 2149DPPE   C4B47652  21.923  11.780   6.890 -0.0810  0.0788 -0.2806
 2150DPPE   NH347653   8.770   6.447  24.685  0.0494  0.0417 -0.2004
 2150DPPE   PO447654   9.065   6.485  24.992 -0.2977 -0.1338 -0.2032
 2150DPPE   GL147655   9.229   6.724  24.778  0.0700 -0.3987 -0.1258
 2150DPPE   GL247656   9.124   6.825  24.535  0.0354 -0.1848  0.0995
 2150DPPE   C1A47657   9.585   7.047  24.546 -0.1755 -0.0231  0.0012
 2150DPPE   C2A47658   9.879   7.079  24.166 -0.2653 -0.1335 -0.1712
 2150DPPE   C3A47659  10.107   7.346  23.966 -0.2162 -0.5540  0.1019
 2150DPPE   C4A47660  10.233   7.421  23.640 -0.3118 -0.0876 -0.0202
 2150DPPE   C1B47661   9.230   7.100  24.108 -0.1765 -0.0716 -0.0730
 2150DPPE   C2B47662   9.570   7.130  23.790 -0.2385  0.2193  0.2821
 2150DPPE   C3B47663  10.069   6.932  23.688  0.0668  0.1283  0.1578
 2150DPPE   C4B47664  10.528   6.912  23.624 -0.0387  0.1968 -0.2004
 2151DPPE   NH347665  25.371  18.030  20.738  0.2256  0.0187 -0.4142
 2151DPPE   PO447666  25.130  17.863  20.931 -0.0718  0.0424 -0.1613
 2151DPPE   GL147667  24.954  17.503  20.981  0.4119  0.2322 -0.0940
 2151DPPE   GL247668  24.679  17.668  21.242 -0.0099  0.1263 -0.0810
 2151DPPE   C1A47669  24.729  17.230  20.651 -0.1663  0.2431 -0.1225
 2151DPPE   C2A47670  24.283  17.029  20.455  0.0674  0.0507 -0.0426
 2151DPPE   C3A47671  23.955  17.039  20.137 -0.3624 -0.2444  0.1367
 2151DPPE   C4A47672  23.869  16.723  19.912 -0.0983 -0.0409 -0.1125
 2151DPPE   C1B47673  24.581  17.214  21.152  0.0368  0.0677  0.4384
 2151DPPE   C2B47674  24.346  16.849  20.907 -0.0786 -0.1171 -0.2522
 2151DPPE   C3B47675  24.056  16.567  20.723 -0.0098  0.1609  0.1669
 2151DPPE   C4B47676  23.754  16.600  20.422 -0.2829  0.3495 -0.0720
 2152DPPE   NH347677  27.360  14.768  13.372  0.3903  0.3513  0.1980
 2152DPPE   PO447678  27.335  14.381  13.086  0.0117  0.0944 -0.0233
 2152DPPE   GL147679  26.947  14.288  13.210  0.0901  0.0079  0.3259
 2152DPPE   GL247680  26.939  14.461  13.509 -0.2444  0.1536 -0.2048
 2152DPPE   C1A47681  26.522  14.319  13.164  0.2318  0.2460 -0.1225
 2152DPPE   C2A47682  26.118  14.395  13.416 -0.1119  0.1787 -0.4294
 2152DPPE   C3A47683  25.657  14.379  13.328  0.0554  0.0580 -0.1116
 2152DPPE   C4A47684  25.340  14.231  13.188 -0.3633 -0.2919 -0.0849
 2152DPPE   C1B47685  26.649  14.771  13.299 -0.0426  0.0083 -0.1356
 2152DPPE   C2B47686  26.275  14.818  13.229 -0.1840 -0.0159  0.0226
 2152DPPE   C3B47687  25.776  14.841  13.281 -0.1401 -0.1292  0.2471
 2152DPPE   C4B47688  25.519  15.128  13.536 -0.0152 -0.1847 -0.2307
 2153DPPE   NH347689   8.951  11.763  13.511 -0.0003 -0.1015  0.0963
 2153DPPE   PO447690   9.046  11.356  13.272  0.0997 -0.1041 -0.1795
 2153DPPE   GL147691   8.676  11.214  13.367  0.3797 -0.0970 -0.2123
 2153DPPE   GL247692   8.561  11.509  13.399  0.0255 -0.4207  0.0191
 2153DPPE   C1A47693   8.314  11.010  13.247 -0.1302  0.0952  0.0685
 2153DPPE   C2A47694   7.893  10.698  13.279  0.0953  0.0522 -0.2791
 2153DPPE   C3A47695   7.612  10.439  13.098  0.2564  0.0730 -0.1212
 2153DPPE   C4A47696   7.510  10.255  12.834 -0.3399  0.1405  0.1100
 2153DPPE   C1B47697   8.257  11.563  13.097 -0.1334  0.1606 -0.2804
 2153DPPE   C2B47698   8.194  11.464  12.692  0.1207 -0.2521  0.3624
 2153DPPE   C3B47699   7.746  11.679  12.418  0.0860  0.0820  0.2818
 2153DPPE   C4B47700   7.342  11.492  12.295 -0.0229  0.1848 -0.1681
 2154DPPE   NH347701  23.743  11.898  25.606 -0.2704  0.2231  0.0003
 2154DPPE   PO447702  23.327  11.737  25.723  0.2827 -0.0444 -0.1597
 2154DPPE   GL147703  22.943  11.824  25.465  0.4022 -0.0044 -0.1150
 2154DPPE   GL247704  22.634  11.879  25.646 -0.0445  0.1008  0.2959
 2154DPPE   C1A47705  22.824  11.721  24.984  0.0716 -0.1211 -0.1754
 2154DPPE   C2A47706  22.400  11.457  24.817 -0.1466 -0.2548  0.0146
 2154DPPE   C3A47707  22.170  11.209  24.527 -0.0612 -0.0931  0.0730
 2154DPPE   C4A47708  22.000  11.300  24.226  0.3713  0.0063 -0.0098
 2154DPPE   C1B47709  22.199  11.810  25.835 -0.2300  0.0172 -0.1367
 2154DPPE   C2B47710  21.789  11.697  25.869  0.0161 -0.0230 -0.1982
 2154DPPE   C3B47711  21.498  11.873  26.000  0.0185 -0.1829  0.1357
 2154DPPE   C4B47712  21.344  12.234  26.262 -0.1095 -0.0969  0.0338
 2155DPPE   NH347713  20.508  34.455  14.320 -0.0226  0.1796  0.0807
 2155DPPE   PO447714  20.697  34.507  14.774 -0.0991  0.3479 -0.1397
 2155DPPE   GL147715  20.397  34.910  14.791 -0.2344 -0.0356  0.0542
 2155DPPE   GL247716  20.099  34.928  14.830 -0.0234 -0.0710 -0.3508
 2155DPPE   C1A47717  20.277  35.237  14.466 -0.0340 -0.5570 -0.1095
 2155DPPE   C2A47718  20.403  35.647  14.678  0.0057  0.2749  0.1451
 2155DPPE   C3A47719  20.420  36.059  14.529  0.1217  0.1292 -0.2971
 2155DPPE   C4A47720  20.071  36.264  14.492 -0.1733  0.2178  0.0119
 2155DPPE   C1B47721  19.932  35.392  14.774 -0.2674 -0.4544  0.4103
 2155DPPE   C2B47722  19.772  35.706  14.712 -0.1628  0.2547  0.0436
 2155DPPE   C3B47723  19.520  35.902  14.629  0.0330 -0.0280 -0.1054
 2155DPPE   C4B47724  19.374  36.328  14.446 -0.0339 -0.1310  0.1361
 2156DPPE   NH347725  15.122   8.181  10.054  0.2749 -0.1781 -0.0728
 2156DPPE   PO447726  15.446   8.258   9.704 -0.1041 -0.0671 -0.0798
 2156DPPE   GL147727  15.350   8.218   9.315  0.1070 -0.2239  0.1510
 2156DPPE   GL247728  15.400   8.473   9.073 -0.0193  0.1086 -0.3945
 2156DPPE   C1A47729  15.041   7.983   9.028  0.0830  0.0072 -0.0678
 2156DPPE   C2A47730  14.904   7.905   8.537  0.0372 -0.1798  0.1423
 2156DPPE   C3A47731  14.938   7.953   8.109 -0.2515 -0.2213 -0.0398
 2156DPPE   C4A47732  15.312   7.762   7.935  0.0909 -0.1018  0.0354
 2156DPPE   C1B47733  15.527   8.812   8.850 -0.1690  0.0379  0.0062
 2156DPPE   C2B47734  15.603   9.039   8.386 -0.1613 -0.0240 -0.2203
 2156DPPE   C3B47735  15.393   9.267   8.000 -0.0505  0.1594 -0.0739
 2156DPPE   C4B47736  15.255   9.204   7.546  0.3615  0.1872  0.1970
 2157DPPE   NH347737  17.236   9.608   8.212  0.0384 -0.1296 -0.0758
 2157DPPE   PO447738  17.631   9.652   8.234 -0.1128  0.1031  0.2412
 2157DPPE   GL147739  17.648   9.444   7.887 -0.3726 -0.1571  0.2798
 2157DPPE   GL247740  17.332   9.286   7.853 -0.3178  0.0998 -0.0569
 2157DPPE   C1A47741  17.798   9.293   7.515  0.3086 -0.1478  0.4028
 2157DPPE   C2A47742  17.887   8.956   7.156  0.0758  0.4383  0.2097
 2157DPPE   C3A47743  17.872   8.857   6.575 -0.0456  0.1308 -0.0490
 2157DPPE   C4A47744  17.840   8.816   6.111  0.0315 -0.2243 -0.3729
 2157DPPE   C1B47745  17.198   8.922   7.683 -0.2178 -0.4585 -0.0378
 2157DPPE   C2B47746  17.319   9.006   7.231 -0.0328  0.1459 -0.0730
 2157DPPE   C3B47747  17.442   8.837   6.781 -0.0029 -0.1484  0.0089
 2157DPPE   C4B47748  17.453   8.548   6.463  0.2732 -0.0236  0.0012
 2158DPPE   NH347749   1.940   2.481  15.303  0.0006 -0.0225 -0.0214
 2158DPPE   PO447750   1.772   2.869  15.010  0.1720  0.1141 -0.2759
 2158DPPE   GL147751   2.194   2.695  14.927  0.2016  0.1227 -0.0353
 2158DPPE   GL247752   2.281   2.404  14.966 -0.0851 -0.2213 -0.4592
 2158DPPE   C1A47753   2.639   2.898  14.962  0.0207  0.1961  0.2532
 2158DPPE   C2A47754   2.747   3.249  15.004  0.0409  0.0296  0.1655
 2158DPPE   C3A47755   3.091   3.479  14.841 -0.1962 -0.3722  0.0670
 2158DPPE   C4A47756   3.537   3.611  14.801  0.0582  0.3877  0.1993
 2158DPPE   C1B47757   2.671   2.374  14.894  0.1591 -0.1943 -0.2373
 2158DPPE   C2B47758   3.041   2.598  14.973 -0.1126 -0.0703 -0.1464
 2158DPPE   C3B47759   2.989   2.892  15.281  0.0065  0.2354  0.3327
 2158DPPE   C4B47760   2.838   3.239  15.546  0.6519  0.1608  0.0418
 2159DPPE   NH347761  20.667   4.783  10.819  0.1285  0.1291  0.0097
 2159DPPE   PO447762  20.567   4.332  10.956  0.0796 -0.1291 -0.0695
 2159DPPE   GL147763  20.856   4.340  10.675  0.0691 -0.0994  0.1675
 2159DPPE   GL247764  20.704   4.168  10.427  0.0820 -0.1462  0.2275
 2159DPPE   C1A47765  21.248   4.157  10.476  0.0458  0.3021  0.0144
 2159DPPE   C2A47766  21.709   3.850  10.304  0.0100  0.0760  0.1719
 2159DPPE   C3A47767  22.113   3.952  10.021  0.1006 -0.1757 -0.2939
 2159DPPE   C4A47768  22.261   3.890   9.612 -0.4302  0.0021  0.0394
 2159DPPE   C1B47769  20.824   3.850  10.201 -0.1941 -0.3103  0.0990
 2159DPPE   C2B47770  20.981   3.440  10.072  0.0766  0.2208 -0.0788
 2159DPPE   C3B47771  20.967   3.080   9.863 -0.2363  0.1418  0.0131
 2159DPPE   C4B47772  20.773   2.703   9.911  0.2157  0.0699  0.1699
 2160DPPE   NH347773  15.941  10.054   8.395 -0.0367 -0.0924 -0.0194
 2160DPPE   PO447774  15.749  10.292   8.089  0.1857 -0.2081 -0.3557
 2160DPPE   GL147775  15.820   9.901   7.919 -0.3022  0.2536 -0.1264
 2160DPPE   GL247776  16.141   9.785   7.912 -0.4624  0.0702  0.1746
 2160DPPE   C1A47777  15.825   9.558   7.616  0.0278 -0.4571  0.0272
 2160DPPE   C2A47778  15.579   9.364   7.209  0.0225  0.0757  0.0713
 2160DPPE   C3A47779  15.432   9.246   6.800 -0.0735 -0.1832  0.1086
 2160DPPE   C4A47780  15.106   9.141   6.628 -0.3336  0.3652  0.1254
 2160DPPE   C1B47781  16.288   9.393   7.751 -0.1338  0.0562 -0.2603
 2160DPPE   C2B47782  16.039   9.090   7.522  0.0224 -0.1926  0.3468
 2160DPPE   C3B47783  16.138   8.871   7.205  0.0599  0.3683 -0.2654
 2160DPPE   C4B47784  16.075   8.442   7.045  0.1101 -0.3556  0.2357
 2161DPPE   NH347785  15.048  18.823  24.579 -0.1357 -0.0031 -0.1931
 2161DPPE   PO447786  15.050  19.180  24.346  0.0916 -0.0864 -0.0777
 2161DPPE   GL147787  15.120  18.870  24.031  0.2522 -0.0525 -0.3072
 2161DPPE   GL247788  14.910  18.605  24.135 -0.1652  0.2299 -0.1719
 2161DPPE   C1A47789  15.579  18.786  23.841  0.1895 -0.3166  0.2531
 2161DPPE   C2A47790  16.007  18.857  23.768  0.0883 -0.2593 -0.2110
 2161DPPE   C3A47791  16.451  18.860  23.662  0.0129  0.1968  0.1698
 2161DPPE   C4A47792  16.959  18.687  23.741  0.3632 -0.1310  0.0000
 2161DPPE   C1B47793  14.716  18.489  23.719 -0.0860 -0.1125 -0.0199
 2161DPPE   C2B47794  14.760  18.533  23.265  0.0123 -0.0727 -0.2895
 2161DPPE   C3B47795  14.874  18.540  22.776  0.1862 -0.1277 -0.2711
 2161DPPE   C4B47796  15.129  18.776  22.642  0.0087  0.0999 -0.1161
 2162DPPE   NH347797  27.206  16.596  17.805 -0.0313  0.0151 -0.2624
 2162DPPE   PO447798  27.288  16.501  17.285 -0.1607 -0.0037 -0.1079
 2162DPPE   GL147799  26.954  16.161  17.437 -0.0045 -0.2415  0.0455
 2162DPPE   GL247800  26.638  16.281  17.323  0.4103 -0.0096  0.1076
 2162DPPE   C1A47801  26.640  15.839  17.572  0.0327  0.0011 -0.0814
 2162DPPE   C2A47802  26.348  15.636  17.449 -0.1246  0.2871  0.2359
 2162DPPE   C3A47803  25.941  15.371  17.390 -0.0659  0.0781 -0.2562
 2162DPPE   C4A47804  25.629  15.041  17.090  0.1205  0.1674  0.1888
 2162DPPE   C1B47805  26.179  16.278  17.327 -0.0965 -0.0132  0.0916
 2162DPPE   C2B47806  25.918  16.445  17.080 -0.1150 -0.1197 -0.0999
 2162DPPE   C3B47807  25.631  16.338  16.736  0.2098  0.2698 -0.3278
 2162DPPE   C4B47808  25.122  16.181  16.708  0.0226 -0.2598 -0.0344
 2163DPPE   NH347809   9.132   9.206  19.535  0.1976  0.1751  0.1375
 2163DPPE   PO447810   9.058   8.840  19.814 -0.0274 -0.0040  0.0260
 2163DPPE   GL147811   8.585   8.729  19.811  0.1433 -0.5981 -0.0681
 2163DPPE   GL247812   8.398   8.448  19.857 -0.1164 -0.3032 -0.3114
 2163DPPE   C1A47813   8.181   8.953  19.829  0.0201 -0.1685 -0.0633
 2163DPPE   C2A47814   7.825   9.255  19.763 -0.1856 -0.2231 -0.0254
 2163DPPE   C3A47815   7.357   9.368  19.767 -0.7438 -0.0141  0.0216
 2163DPPE   C4A47816   7.087   9.576  19.608 -0.1934 -0.0398 -0.2640
 2163DPPE   C1B47817   8.191   8.326  20.281 -0.3748 -0.0004  0.0544
 2163DPPE   C2B47818   8.029   8.238  20.756  0.0538  0.2878  0.1365
 2163DPPE   C3B47819   8.252   7.937  21.105  0.0832  0.0141 -0.0840
 2163DPPE   C4B47820   7.949   7.675  21.349 -0.2327 -0.1463 -0.2021
 2164DPPE   NH347821  11.132   4.390  16.489  0.3497 -0.3368 -0.3464
 2164DPPE   PO447822  11.496   4.472  16.267 -0.2255  0.1654  0.1516
 2164DPPE   GL147823  11.286   4.134  16.068 -0.2977 -0.0217  0.0216
 2164DPPE   GL247824  10.962   4.121  16.076 -0.0554  0.0700 -0.1309
 2164DPPE   C1A47825  11.181   3.971  15.654  0.0787 -0.0677 -0.1691
 2164DPPE   C2A47826  10.951   3.615  15.432 -0.2274  0.0819  0.2059
 2164DPPE   C3A47827  10.936   3.587  14.972  0.3234 -0.0631  0.3685
 2164DPPE   C4A47828  11.039   3.781  14.655 -0.0172  0.5791  0.1147
 2164DPPE   C1B47829  10.621   4.429  16.080  0.0481  0.0943 -0.1752
 2164DPPE   C2B47830  10.332   4.601  15.933 -0.0071 -0.1214 -0.1142
 2164DPPE   C3B47831   9.932   4.726  15.829 -0.0174 -0.3388  0.1884
 2164DPPE   C4B47832   9.702   4.515  15.512 -0.3278 -0.4553 -0.1600
 2165DPPE   NH347833  25.902   6.562  22.287 -0.1479 -0.0615 -0.2522
 2165DPPE   PO447834  26.265   6.755  22.526 -0.0852 -0.0132 -0.0164
 2165DPPE   GL147835  25.805   6.925  22.597  0.1647  0.0808 -0.0862
 2165DPPE   GL247836  25.706   7.193  22.514 -0.1484  0.2485  0.1891
 2165DPPE   C1A47837  25.356   6.853  22.522  0.2267 -0.1145  0.0097
 2165DPPE   C2A47838  25.060   7.125  22.296 -0.2912  0.0594  0.0197
 2165DPPE   C3A47839  24.644   7.264  22.310  0.0541  0.1991  0.0152
 2165DPPE   C4A47840  24.267   7.385  22.468  0.2838 -0.1068  0.2908
 2165DPPE   C1B47841  25.290   7.326  22.671 -0.0849  0.0629  0.1408
 2165DPPE   C2B47842  24.854   7.509  22.645  0.2474  0.0009 -0.1738
 2165DPPE   C3B47843  24.561   7.817  22.400  0.3027 -0.2793 -0.3949
 2165DPPE   C4B47844  24.279   8.094  22.207  0.0624 -0.2632 -0.0773
 2166DPPE   NH347845   3.224   2.503   9.996 -0.1512  0.1278 -0.0561
 2166DPPE   PO447846   3.471   2.119   9.939  0.2414  0.0195  0.1040
 2166DPPE   GL147847   3.790   2.469  10.142 -0.0705  0.0857  0.5289
 2166DPPE   GL247848   4.149   2.559  10.402  0.0154  0.0792  0.1002
 2166DPPE   C1A47849   4.042   2.887  10.038  0.2342  0.4399 -0.1595
 2166DPPE   C2A47850   4.505   3.007  10.158  0.2281 -0.1648 -0.2154
 2166DPPE   C3A47851   4.787   3.130   9.957 -0.4002  0.3978 -0.3339
 2166DPPE   C4A47852   5.042   3.382   9.787 -0.0582  0.0262 -0.3303
 2166DPPE   C1B47853   3.965   2.985  10.547 -0.3580 -0.2949 -0.2870
 2166DPPE   C2B47854   3.912   3.138  10.958  0.0403  0.2608 -0.1876
 2166DPPE   C3B47855   4.204   3.352  11.241 -0.0324  0.1703  0.2050
 2166DPPE   C4B47856   4.148   3.834  11.399 -0.0993 -0.1933  0.1179
 2167DPPE   NH347857  11.077   6.224  15.063 -0.2424 -0.4424  0.0180
 2167DPPE   PO447858  11.159   5.924  14.748 -0.1727  0.2108  0.0301
 2167DPPE   GL147859  10.721   6.083  14.655  0.2605 -0.0998 -0.0673
 2167DPPE   GL247860  10.532   6.374  14.800  0.1115  0.6300 -0.2098
 2167DPPE   C1A47861  10.375   5.846  14.604 -0.0635 -0.0285  0.0891
 2167DPPE   C2A47862   9.958   5.798  14.600  0.1531 -0.1482 -0.1665
 2167DPPE   C3A47863   9.638   5.603  14.248 -0.1328  0.0399  0.2138
 2167DPPE   C4A47864   9.300   5.657  13.825 -0.1725 -0.0456 -0.0370
 2167DPPE   C1B47865  10.090   6.310  14.706  0.1437 -0.0584  0.0145
 2167DPPE   C2B47866   9.727   6.321  14.547  0.2244 -0.2294  0.0588
 2167DPPE   C3B47867   9.353   5.938  14.637  0.0296 -0.0253  0.1964
 2167DPPE   C4B47868   9.478   5.647  14.761 -0.0130 -0.0200  0.1125
 2168DPPE   NH347869  22.786   1.202   9.889 -0.3446 -0.0774  0.2805
 2168DPPE   PO447870  22.732   0.793   9.968  0.1087 -0.0045  0.0219
 2168DPPE   GL147871  22.243   0.953  10.237  0.1145 -0.0371 -0.1496
 2168DPPE   GL247872  22.200   1.010  10.551  0.0300  0.2334  0.0496
 2168DPPE   C1A47873  21.874   1.299  10.133 -0.1167 -0.0707  0.0700
 2168DPPE   C2A47874  21.588   1.509  10.056 -0.0440 -0.0219 -0.0270
 2168DPPE   C3A47875  21.274   1.380   9.689  0.1620  0.3553 -0.2485
 2168DPPE   C4A47876  21.012   1.033   9.686 -0.1196  0.1137  0.2412
 2168DPPE   C1B47877  21.851   1.136  10.643  0.1872 -0.3936  0.0903
 2168DPPE   C2B47878  21.462   1.355  10.525  0.2689  0.0794  0.4028
 2168DPPE   C3B47879  21.099   1.625  10.590 -0.1254 -0.0596 -0.0737
 2168DPPE   C4B47880  20.681   1.630  10.867  0.0868  0.1247 -0.1191
 2169DPPE   NH347881  15.499  10.148   9.190 -0.0273  0.4802  0.1847
 2169DPPE   PO447882  15.720   9.804   9.127  0.0439  0.0416 -0.0896
 2169DPPE   GL147883  15.516   9.770   8.657  0.1769  0.3568  0.1163
 2169DPPE   GL247884  15.697   9.639   8.410  0.1659  0.1087 -0.0788
 2169DPPE   C1A47885  15.216   9.478   8.464 -0.2570  0.0076  0.0691
 2169DPPE   C2A47886  14.930   9.384   8.250 -0.1525  0.2917 -0.0735
 2169DPPE   C3A47887  14.853   9.112   7.830  0.0140  0.2361  0.1971
 2169DPPE   C4A47888  14.783   8.931   7.517  0.1133 -0.0028 -0.1540
 2169DPPE   C1B47889  15.865   9.303   8.107 -0.2486 -0.0338  0.1492
 2169DPPE   C2B47890  15.864   8.819   7.935 -0.0553 -0.2126  0.1647
 2169DPPE   C3B47891  15.991   8.585   7.574  0.0046  0.1445 -0.0328
 2169DPPE   C4B47892  15.688   8.305   7.324  0.2045  0.0795  0.0917
 2170DPPE   NH347893  19.731   3.686  19.028 -0.2842 -0.0265 -0.0076
 2170DPPE   PO447894  19.531   3.989  19.154  0.0783  0.1923 -0.0206
 2170DPPE   GL147895  19.494   3.724  19.533  0.0489  0.0933 -0.0339
 2170DPPE   GL247896  19.794   3.618  19.559 -0.1718  0.1950  0.1707
 2170DPPE   C1A47897  19.358   3.425  19.809  0.2972  0.2895 -0.2404
 2170DPPE   C2A47898  19.531   3.088  19.950 -0.3027  0.2760  0.1372
 2170DPPE   C3A47899  19.797   2.925  20.262  0.2642 -0.0802  0.0830
 2170DPPE   C4A47900  19.904   2.496  20.428  0.2332  0.0003 -0.2815
 2170DPPE   C1B47901  20.009   3.266  19.713  0.0434  0.0866 -0.2563
 2170DPPE   C2B47902  20.288   3.008  20.069 -0.0111  0.2100 -0.2073
 2170DPPE   C3B47903  20.585   2.773  20.329 -0.1653  0.0320  0.0767
 2170DPPE   C4B47904  20.927   2.618  20.141  0.1521  0.0550  0.3497
 2171DPPE   NH347905  13.448   8.070  23.021 -0.0854  0.3826  0.0855
 2171DPPE   PO447906  13.706   7.764  22.775  0.0687 -0.1286  0.1832
 2171DPPE   GL147907  13.900   7.592  23.127 -0.0836 -0.0996 -0.2973
 2171DPPE   GL247908  13.949   7.303  23.193 -0.2118 -0.1892  0.1247
 2171DPPE   C1A47909  13.751   7.615  23.563 -0.4403  0.0527 -0.1277
 2171DPPE   C2A47910  13.849   7.514  24.046  0.1031 -0.1300  0.1145
 2171DPPE   C3A47911  13.977   7.530  24.518 -0.2830  0.2863  0.0382
 2171DPPE   C4A47912  14.134   7.793  24.884 -0.1742  0.0474  0.4658
 2171DPPE   C1B47913  14.199   7.366  23.576 -0.1185  0.0469 -0.1475
 2171DPPE   C2B47914  14.333   7.134  23.891  0.1074 -0.3068 -0.0445
 2171DPPE   C3B47915  14.317   6.944  24.258 -0.0528  0.0071  0.0212
 2171DPPE   C4B47916  14.222   6.832  24.702  0.1177  0.2132  0.0899
 2172DPPE   NH347917  24.062  13.437  14.445  0.2138 -0.2955 -0.2309
 2172DPPE   PO447918  24.101  13.648  14.773  0.2116  0.1732  0.1023
 2172DPPE   GL147919  24.461  13.834  14.681  0.1249  0.1809 -0.2734
 2172DPPE   GL247920  24.350  13.987  14.431  0.1311 -0.0364  0.1409
 2172DPPE   C1A47921  24.804  14.045  14.569  0.0603 -0.0214 -0.0779
 2172DPPE   C2A47922  25.001  14.397  14.393  0.3888  0.3969  0.1677
 2172DPPE   C3A47923  25.088  14.626  14.061 -0.3355 -0.6409  0.0370
 2172DPPE   C4A47924  25.341  14.703  13.639 -0.0382 -0.2597 -0.0412
 2172DPPE   C1B47925  24.750  13.646  14.162  0.0385 -0.1677 -0.1181
 2172DPPE   C2B47926  25.118  13.391  14.089 -0.0894  0.0764 -0.4664
 2172DPPE   C3B47927  25.378  13.224  14.322  0.0112 -0.0028  0.0857
 2172DPPE   C4B47928  25.468  13.269  14.830 -0.1435  0.1163 -0.0299
 2173DPPE   NH347929  22.364  35.451  15.713  0.0826 -0.4873  0.2552
 2173DPPE   PO447930  22.489  35.780  15.574 -0.1352  0.0030  0.1272
 2173DPPE   GL147931  22.341  36.067  15.307  0.1982 -0.2010 -0.2734
 2173DPPE   GL247932  22.586  36.164  15.134  0.0977 -0.0900  0.2185
 2173DPPE   C1A47933  22.023  36.395  15.192  0.0610  0.0805 -0.2424
 2173DPPE   C2A47934  21.785  36.697  14.946 -0.1693  0.3600  0.2951
 2173DPPE   C3A47935  21.451  36.898  14.799  0.0163  0.3639  0.1022
 2173DPPE   C4A47936  21.396  37.308  14.749 -0.0119  0.5147 -0.0814
 2173DPPE   C1B47937  22.543  36.602  15.378  0.0009  0.1112  0.0214
 2173DPPE   C2B47938  22.137  36.808  15.527 -0.0418  0.1060  0.1005
 2173DPPE   C3B47939  22.086  37.155  15.749 -0.3181 -0.0284 -0.0760
 2173DPPE   C4B47940  21.727  37.141  16.118 -0.0449  0.0844 -0.0053
 2174DPPE   NH347941   8.238  18.548  20.980 -0.2051  0.1324  0.0445
 2174DPPE   PO447942   8.185  18.196  21.338 -0.0177 -0.3550 -0.0812
 2174DPPE   GL147943   8.318  18.059  20.952  0.5327 -0.0101  0.1250
 2174DPPE   GL247944   8.105  17.934  20.861 -0.1195  0.0864 -0.4268
 2174DPPE   C1A47945   8.463  17.818  20.553  0.1466  0.1166  0.0854
 2174DPPE   C2A47946   8.654  17.439  20.293  0.0488 -0.1807 -0.2667
 2174DPPE   C3A47947   8.635  17.148  20.604  0.2524  0.0667  0.1274
 2174DPPE   C4A47948   8.205  17.011  20.972 -0.2234 -0.1047 -0.0195
 2174DPPE   C1B47949   8.365  17.594  21.036 -0.0607 -0.0943  0.0469
 2174DPPE   C2B47950   8.751  17.294  21.208  0.0327 -0.0355  0.0394
 2174DPPE   C3B47951   9.106  16.929  21.259  0.2731 -0.2008 -0.2262
 2174DPPE   C4B47952   9.511  16.782  20.935 -0.0106 -0.1923 -0.1597
 2175DPPE   NH347953   9.270  19.148  11.992 -0.1161 -0.0062  0.3181
 2175DPPE   PO447954   9.161  19.347  12.374 -0.0591 -0.3036  0.1939
 2175DPPE   GL147955   9.306  19.167  12.769  0.1371  0.3781 -0.2125
 2175DPPE   GL247956   9.622  19.316  12.784  0.1410 -0.0370  0.2465
 2175DPPE   C1A47957   9.402  19.049  13.239 -0.1819 -0.1325 -0.0299
 2175DPPE   C2A47958   9.543  18.780  13.375 -0.0662  0.0951  0.1250
 2175DPPE   C3A47959   9.519  18.254  13.477  0.1198  0.0569 -0.3743
 2175DPPE   C4A47960   9.311  17.910  13.527  0.1629 -0.0843  0.0654
 2175DPPE   C1B47961  10.013  19.071  12.717  0.0447  0.0801  0.1891
 2175DPPE   C2B47962  10.483  19.116  12.736  0.0502  0.1032 -0.2769
 2175DPPE   C3B47963  10.759  18.834  12.616  0.3071  0.0743  0.3206
 2175DPPE   C4B47964  10.871  18.707  12.087 -0.0524 -0.2457  0.0142
 2176DPPE   NH347965   9.348  14.525  13.284 -0.0868 -0.1001  0.0952
 2176DPPE   PO447966   9.305  14.226  12.929 -0.1160 -0.1744 -0.0665
 2176DPPE   GL147967   9.187  14.429  12.488  0.2110 -0.0965  0.1920
 2176DPPE   GL247968   9.053  14.240  12.202 -0.0682  0.1431  0.2919
 2176DPPE   C1A47969   8.902  14.747  12.318  0.2765 -0.2297 -0.2082
 2176DPPE   C2A47970   8.786  15.152  12.196  0.1248 -0.1596 -0.1120
 2176DPPE   C3A47971   8.635  15.575  12.032  0.0714 -0.3778  0.1354
 2176DPPE   C4A47972   8.535  15.756  12.467 -0.0456  0.0343  0.1302
 2176DPPE   C1B47973   8.764  14.462  11.977  0.0624 -0.0890  0.2531
 2176DPPE   C2B47974   8.515  14.481  11.686 -0.0178 -0.2484 -0.0534
 2176DPPE   C3B47975   8.141  14.424  11.495  0.0073  0.2581  0.1387
 2176DPPE   C4B47976   7.669  14.397  11.548  0.1403 -0.0062  0.1948
 2177DPPE   NH347977  22.737   1.349  20.981 -0.0249  0.1177  0.0723
 2177DPPE   PO447978  22.790   1.714  21.117 -0.0348  0.0334  0.0449
 2177DPPE   GL147979  22.499   1.831  21.176  0.0694  0.2968  0.0692
 2177DPPE   GL247980  22.276   1.555  21.140 -0.1081  0.0201  0.1838
 2177DPPE   C1A47981  22.188   2.123  20.948  0.3606  0.0650 -0.2721
 2177DPPE   C2A47982  22.102   2.464  20.813  0.3202 -0.0237  0.2946
 2177DPPE   C3A47983  22.026   2.618  20.382 -0.2959  0.0631 -0.2854
 2177DPPE   C4A47984  21.753   2.888  20.190  0.0099 -0.0933  0.0514
 2177DPPE   C1B47985  21.853   1.827  21.158  0.1204  0.0005 -0.0562
 2177DPPE   C2B47986  21.619   1.838  20.823 -0.1559  0.3725  0.1199
 2177DPPE   C3B47987  21.244   1.648  20.569  0.2093  0.1761 -0.0486
 2177DPPE   C4B47988  20.754   1.702  20.658  0.0720 -0.1549  0.1873
 2178DPPE   NH347989  11.745  10.794  11.063 -0.0748  0.1852  0.1242
 2178DPPE   PO447990  11.346  10.746  11.005  0.0203  0.1922 -0.6196
 2178DPPE   GL147991  11.130  10.686  10.695  0.0350  0.2146  0.1245
 2178DPPE   GL247992  11.249  10.662  10.402 -0.1631 -0.0916 -0.0981
 2178DPPE   C1A47993  10.738  10.619  10.471 -0.3475 -0.1581 -0.1145
 2178DPPE   C2A47994  10.372  10.574  10.226 -0.0504  0.1844  0.0133
 2178DPPE   C3A47995  10.264  10.938   9.896  0.1850 -0.0044 -0.1937
 2178DPPE   C4A47996  10.648  11.023   9.705  0.1574 -0.0909 -0.0608
 2178DPPE   C1B47997  11.274  10.279  10.228 -0.2421 -0.1219 -0.1050
 2178DPPE   C2B47998  11.172  10.018   9.994 -0.0094  0.3796 -0.3396
 2178DPPE   C3B47999  11.147   9.914   9.521  0.0719 -0.1767  0.2644
 2178DPPE   C4B48000  11.243   9.795   9.077 -0.0882  0.1098  0.1479
 2179DPPE   NH348001   6.255  17.401  18.362 -0.5285 -0.1763  0.1208
 2179DPPE   PO448002   6.031  17.053  18.396 -0.1252 -0.2491  0.1245
 2179DPPE   GL148003   6.537  16.994  18.266  0.3900 -0.1383 -0.2310
 2179DPPE   GL248004   6.616  16.846  17.937 -0.0230 -0.0015  0.1532
 2179DPPE   C1A48005   6.927  16.685  18.349  0.1407 -0.1228  0.0981
 2179DPPE   C2A48006   7.007  16.347  18.194 -0.0452  0.1509 -0.0861
 2179DPPE   C3A48007   7.260  15.992  18.228  0.2587 -0.0614 -0.0350
 2179DPPE   C4A48008   7.244  15.530  18.179 -0.1508 -0.0303  0.0742
 2179DPPE   C1B48009   6.803  16.495  17.743  0.2758  0.1722 -0.1123
 2179DPPE   C2B48010   7.109  16.134  17.798  0.1083 -0.0180  0.3798
 2179DPPE   C3B48011   7.526  15.923  17.579  0.0563  0.0246  0.0060
 2179DPPE   C4B48012   7.780  15.811  17.332 -0.2146  0.1629 -0.0704
 2180DPPE   NH348013  17.891  15.495   9.579 -0.2006  0.1595 -0.1815
 2180DPPE   PO448014  18.095  15.651   9.918  0.1803 -0.0104 -0.0516
 2180DPPE   GL148015  18.247  15.851   9.577  0.0276 -0.0999 -0.0488
 2180DPPE   GL248016  18.023  15.974   9.359  0.1466 -0.0228  0.0002
 2180DPPE   C1A48017  18.564  16.224   9.431 -0.1162  0.2325  0.0078
 2180DPPE   C2A48018  18.552  16.629   9.442 -0.2337 -0.2830  0.2643
 2180DPPE   C3A48019  18.642  16.956   9.155 -0.2709 -0.1108  0.0206
 2180DPPE   C4A48020  18.923  17.279   9.041  0.1970 -0.0099  0.1773
 2180DPPE   C1B48021  18.282  16.003   8.973  0.0138  0.2013  0.0709
 2180DPPE   C2B48022  18.325  16.061   8.508  0.2543  0.0328  0.1553
 2180DPPE   C3B48023  18.497  15.796   8.322 -0.1117 -0.0808  0.1691
 2180DPPE   C4B48024  18.877  15.682   8.043  0.1810  0.0490 -0.1280
 2181DPPE   NH348025  12.343  34.084   6.331 -0.1085  0.0280 -0.0817
 2181DPPE   PO448026  12.365  34.184   5.846 -0.2354 -0.1122 -0.0777
 2181DPPE   GL148027  12.560  34.592   5.712 -0.0137  0.0705  0.1314
 2181DPPE   GL248028  12.512  34.906   5.458 -0.1320  0.1631  0.2518
 2181DPPE   C1A48029  12.740  34.895   5.995  0.0348  0.1161 -0.2762
 2181DPPE   C2A48030  13.031  35.098   6.203  0.1214 -0.1101 -0.1628
 2181DPPE   C3A48031  13.164  35.254   6.510 -0.2206  0.2470 -0.0201
 2181DPPE   C4A48032  13.225  35.405   6.902 -0.1370 -0.0671 -0.2466
 2181DPPE   C1B48033  12.462  35.412   5.658 -0.0925 -0.1522 -0.5117
 2181DPPE   C2B48034  12.481  35.743   5.877  0.0354  0.2992  0.2878
 2181DPPE   C3B48035  12.634  35.998   6.235  0.2252  0.1394 -0.1100
 2181DPPE   C4B48036  12.719  36.066   6.716  0.1455  0.3018  0.3457
 2182DPPE   NH348037  10.712  36.096   5.379 -0.2996 -0.0359 -0.1278
 2182DPPE   PO448038  10.352  36.315   5.238  0.2834 -0.0557  0.0293
 2182DPPE   GL148039  10.580  36.588   5.506  0.0773  0.0874  0.2334
 2182DPPE   GL248040  10.925  36.455   5.674 -0.3001  0.0431  0.0600
 2182DPPE   C1A48041  10.657  36.896   5.735 -0.2844  0.2163 -0.2162
 2182DPPE   C2A48042  10.755  37.129   6.090 -0.0702  0.2517 -0.2443
 2182DPPE   C3A48043  10.953  37.208   6.514  0.0288  0.0517  0.0678
 2182DPPE   C4A48044  11.305  37.536   6.549 -0.1542 -0.0216  0.0678
 2182DPPE   C1B48045  11.202  36.323   6.027 -0.1595 -0.0553  0.1734
 2182DPPE   C2B48046  11.150  36.600   6.391  0.0279 -0.3144 -0.0679
 2182DPPE   C3B48047  11.146  36.752   6.757 -0.1934  0.1484  0.1888
 2182DPPE   C4B48048  11.065  36.692   7.150 -0.1111  0.0153  0.3713
 2183DPPE   NH348049  16.844  34.125  17.093 -0.0817 -0.1440  0.0157
 2183DPPE   PO448050  16.465  33.924  16.939  0.1095 -0.2572  0.1419
 2183DPPE   GL148051  16.367  34.378  16.787  0.1407 -0.0759  0.0065
 2183DPPE   GL248052  16.648  34.540  16.621 -0.2235  0.0689 -0.0323
 2183DPPE   C1A48053  16.222  34.937  16.866  0.3990  0.0688  0.0518
 2183DPPE   C2A48054  16.054  35.220  16.576 -0.1622  0.3814  0.0959
 2183DPPE   C3A48055  16.167  35.567  16.364 -0.3320  0.2173  0.0581
 2183DPPE   C4A48056  15.895  35.876  16.173  0.0460 -0.1743  0.1198
 2183DPPE   C1B48057  16.619  34.725  17.025  0.1668  0.2425 -0.1809
 2183DPPE   C2B48058  16.578  35.160  17.230 -0.2484  0.1070 -0.1575
 2183DPPE   C3B48059  16.596  35.492  16.898  0.0629 -0.2959 -0.1704
 2183DPPE   C4B48060  16.509  35.873  16.736 -0.1341  0.0476  0.0244
 2184DPPE   NH348061  10.797   1.719   4.089 -0.0044 -0.0555  0.0451
 2184DPPE   PO448062  10.532   1.956   3.754 -0.0244  0.1060  0.0638
 2184DPPE   GL148063  10.361   1.952   4.191 -0.0371  0.3072  0.1506
 2184DPPE   GL248064  10.542   2.245   4.238  0.2514 -0.0366  0.0206
 2184DPPE   C1A48065  10.181   2.189   4.599  0.3457 -0.1574  0.6486
 2184DPPE   C2A48066  10.060   2.569   4.764 -0.0352 -0.1835 -0.0586
 2184DPPE   C3A48067  10.351   2.817   5.012  0.1028 -0.2021  0.1141
 2184DPPE   C4A48068  10.402   2.747   5.457 -0.2067  0.1132 -0.0163
 2184DPPE   C1B48069  10.621   2.583   4.181  0.0068  0.0388 -0.0375
 2184DPPE   C2B48070  10.774   3.036   4.291  0.1672  0.2234 -0.0068
 2184DPPE   C3B48071  11.035   3.351   4.417  0.0489  0.1088 -0.1454
 2184DPPE   C4B48072  10.834   3.726   4.779  0.1261 -0.1128 -0.0220
 2185DPPE   NH348073  18.147   0.006   3.610  0.0062  0.0296  0.3503
 2185DPPE   PO448074  17.851   0.045   3.337  0.1124 -0.0321 -0.0763
 2185DPPE   GL148075  17.455   0.256   3.690 -0.2063  0.2191 -0.1669
 2185DPPE   GL248076  17.284  -0.005   3.863  0.0625 -0.0146  0.3006
 2185DPPE   C1A48077  17.469   0.447   4.085 -0.2197 -0.1959 -0.1354
 2185DPPE   C2A48078  17.005   0.652   4.285 -0.1982 -0.0500  0.0217
 2185DPPE   C3A48079  16.775   0.648   4.670 -0.0257  0.2333  0.0298
 2185DPPE   C4A48080  16.667   0.887   5.033 -0.1288 -0.0715  0.0889
 2185DPPE   C1B48081  16.926   0.110   4.111  0.0384  0.0213 -0.0895
 2185DPPE   C2B48082  16.934   0.207   4.511  0.4555  0.1461  0.1601
 2185DPPE   C3B48083  16.923  -0.025   4.766 -0.0863 -0.3107  0.2899
 2185DPPE   C4B48084  16.975   0.048   5.208  0.0721  0.0321 -0.0165
 2186DPPE   NH348085  11.922   6.184  13.290  0.1664  0.3970  0.3075
 2186DPPE   PO448086  11.972   6.531  12.969  0.1285 -0.2167 -0.1289
 2186DPPE   GL148087  11.576   6.383  12.932 -0.3715 -0.3367 -0.0946
 2186DPPE   GL248088  11.462   6.540  12.667 -0.1197 -0.0456 -0.1679
 2186DPPE   C1A48089  11.401   6.023  12.962 -0.2782  0.0759 -0.0930
 2186DPPE   C2A48090  11.069   5.903  12.773  0.1883  0.2167 -0.1949
 2186DPPE   C3A48091  10.788   5.754  12.528 -0.2567 -0.0297 -0.0700
 2186DPPE   C4A48092  11.013   5.895  12.098  0.2710  0.4834  0.0327
 2186DPPE   C1B48093  11.361   6.186  12.489  0.3148  0.1278 -0.3230
 2186DPPE   C2B48094  11.434   5.775  12.443  0.0264  0.1233  0.2139
 2186DPPE   C3B48095  11.505   5.565  12.047 -0.2505 -0.0247  0.1003
 2186DPPE   C4B48096  11.790   5.624  11.752  0.1539 -0.0740 -0.1752
 2187DPPE   NH348097   6.807   1.471  19.354  0.2084 -0.1767  0.0522
 2187DPPE   PO448098   6.433   1.218  19.397  0.1887 -0.2727  0.0266
 2187DPPE   GL148099   6.590   1.109  18.997 -0.2013  0.0738  0.2921
 2187DPPE   GL248100   6.467   1.499  18.955 -0.0445 -0.0145 -0.2248
 2187DPPE   C1A48101   6.606   1.041  18.493 -0.0423  0.3098  0.2301
 2187DPPE   C2A48102   6.933   0.950  18.144  0.1592 -0.2847  0.1999
 2187DPPE   C3A48103   7.141   1.043  17.755  0.0238  0.0043  0.0698
 2187DPPE   C4A48104   7.376   0.823  17.499 -0.1307 -0.1284 -0.2087
 2187DPPE   C1B48105   6.234   1.689  18.640  0.2296 -0.1924 -0.0883
 2187DPPE   C2B48106   6.321   1.931  18.232  0.2509  0.2083 -0.0785
 2187DPPE   C3B48107   6.393   1.728  17.920  0.2455 -0.0467  0.2173
 2187DPPE   C4B48108   6.316   1.311  17.882 -0.0848  0.3552 -0.2767
 2188DPPE   NH348109  23.410   6.987  13.850 -0.0959 -0.0518  0.1971
 2188DPPE   PO448110  23.319   6.617  13.548  0.0530  0.1071 -0.3881
 2188DPPE   GL148111  23.677   6.603  13.346 -0.2185 -0.2306  0.0219
 2188DPPE   GL248112  23.709   6.298  13.507 -0.1774 -0.0280 -0.3047
 2188DPPE   C1A48113  24.120   6.515  13.167  0.1212  0.0767 -0.0541
 2188DPPE   C2A48114  24.388   6.194  12.949 -0.1616  0.2655  0.3018
 2188DPPE   C3A48115  24.767   5.868  12.923  0.1615  0.0107  0.2810
 2188DPPE   C4A48116  25.065   5.589  13.117 -0.1409 -0.0927  0.0476
 2188DPPE   C1B48117  24.073   6.085  13.374  0.0905  0.1118  0.1475
 2188DPPE   C2B48118  24.396   5.816  13.288 -0.0669  0.1395 -0.0633
 2188DPPE   C3B48119  24.728   5.682  13.523  0.3306 -0.1457 -0.3195
 2188DPPE   C4B48120  25.168   5.453  13.559 -0.2795 -0.5751  0.1765
 2189DPPE   NH348121  14.793   3.081  19.894  0.1718  0.1631 -0.2574
 2189DPPE   PO448122  14.363   2.968  19.777  0.2722 -0.0754  0.2942
 2189DPPE   GL148123  14.238   2.653  20.045 -0.1080  0.1645  0.1094
 2189DPPE   GL248124  14.554   2.485  20.006 -0.0622 -0.0097 -0.0444
 2189DPPE   C1A48125  14.047   2.400  20.224 -0.1132  0.2087 -0.2073
 2189DPPE   C2A48126  13.790   2.110  20.381 -0.2261 -0.1256  0.1398
 2189DPPE   C3A48127  13.680   2.050  20.821  0.2202  0.2721  0.1423
 2189DPPE   C4A48128  13.773   1.723  21.163  0.0731  0.0365  0.0744
 2189DPPE   C1B48129  14.556   2.245  20.245  0.1921 -0.1085  0.0315
 2189DPPE   C2B48130  14.264   1.898  20.258  0.0641 -0.1059  0.1156
 2189DPPE   C3B48131  13.892   1.632  20.381  0.0097 -0.4480  0.1026
 2189DPPE   C4B48132  13.863   1.156  20.421  0.1381 -0.0157 -0.1678
 2190DPPE   NH348133  13.965  10.695   2.080  0.2612  0.0657 -0.1469
 2190DPPE   PO448134  14.458  10.679   2.008 -0.1104 -0.1743 -0.0173
 2190DPPE   GL148135  14.361  10.637   2.405  0.1916 -0.2528  0.2265
 2190DPPE   GL248136  14.390  10.994   2.513  0.3874  0.0730 -0.1997
 2190DPPE   C1A48137  13.937  10.542   2.698  0.0949 -0.1279  0.1351
 2190DPPE   C2A48138  14.045  10.533   3.137 -0.1599 -0.2159  0.0643
 2190DPPE   C3A48139  14.350  10.724   3.389 -0.0002  0.1211  0.1125
 2190DPPE   C4A48140  14.596  11.032   3.364 -0.1132  0.1028  0.1589
 2190DPPE   C1B48141  14.429  10.761   2.917 -0.2627 -0.0551  0.2101
 2190DPPE   C2B48142  14.524  10.355   3.072  0.0308  0.0662 -0.3420
 2190DPPE   C3B48143  14.476  10.236   3.433 -0.2540 -0.0527  0.0079
 2190DPPE   C4B48144  14.482   9.994   3.887  0.2519 -0.1893  0.0751
 2191DPPE   NH348145  20.013   8.515   5.244  0.0730 -0.0759  0.3180
 2191DPPE   PO448146  19.858   8.176   5.000 -0.0761 -0.0879 -0.0734
 2191DPPE   GL148147  19.568   8.272   5.157 -0.1521  0.2958  0.1327
 2191DPPE   GL248148  19.248   8.359   5.004  0.0909  0.1167  0.1004
 2191DPPE   C1A48149  19.198   8.414   5.527 -0.0613 -0.2877 -0.0575
 2191DPPE   C2A48150  19.045   8.357   5.903  0.0701 -0.1628 -0.0088
 2191DPPE   C3A48151  18.833   8.481   6.334 -0.2018 -0.0518 -0.1557
 2191DPPE   C4A48152  18.790   8.761   6.730 -0.1302  0.1585  0.2584
 2191DPPE   C1B48153  18.962   8.086   5.199  0.3221  0.0362  0.0146
 2191DPPE   C2B48154  18.633   7.962   5.459  0.2365  0.0640  0.1418
 2191DPPE   C3B48155  18.627   8.116   5.923 -0.0114  0.1018 -0.3752
 2191DPPE   C4B48156  18.393   8.078   6.312  0.2633 -0.1853  0.0240
 2192DPPE   NH348157  14.218   8.727  10.176 -0.1275 -0.3031  0.0431
 2192DPPE   PO448158  13.835   8.885  10.207  0.3337 -0.0579 -0.1087
 2192DPPE   GL148159  13.499   8.844   9.907 -0.2500 -0.2171 -0.0269
 2192DPPE   GL248160  13.615   8.547   9.757 -0.3081 -0.2082 -0.1119
 2192DPPE   C1A48161  13.070   8.638   9.718 -0.1089  0.1344 -0.1773
 2192DPPE   C2A48162  12.935   8.339   9.436  0.0567 -0.1289  0.1517
 2192DPPE   C3A48163  12.657   8.201   9.150 -0.0007 -0.0538 -0.0405
 2192DPPE   C4A48164  12.573   8.182   8.568 -0.0177  0.1423  0.1969
 2192DPPE   C1B48165  13.495   8.341   9.388  0.1035 -0.0064 -0.1608
 2192DPPE   C2B48166  13.655   8.363   8.907 -0.1420  0.2120  0.1342
 2192DPPE   C3B48167  13.737   8.483   8.538  0.3906 -0.1987  0.0250
 2192DPPE   C4B48168  13.617   8.692   8.135  0.2892  0.0044  0.1091
 2193DPPE   NH348169  12.131   3.538  15.875 -0.0833  0.1860 -0.2042
 2193DPPE   PO448170  12.350   3.162  16.075 -0.2968  0.0626 -0.2969
 2193DPPE   GL148171  12.059   2.974  15.889  0.2528 -0.0918 -0.2613
 2193DPPE   GL248172  11.706   3.195  15.743 -0.1657 -0.0348  0.0032
 2193DPPE   C1A48173  12.087   2.728  15.507  0.0921 -0.0820 -0.3373
 2193DPPE   C2A48174  11.948   2.636  15.198 -0.0408 -0.4134 -0.2002
 2193DPPE   C3A48175  11.694   2.670  14.882 -0.1603 -0.4152  0.0064
 2193DPPE   C4A48176  11.417   2.785  14.535 -0.1342  0.1922  0.0700
 2193DPPE   C1B48177  11.434   2.820  15.799 -0.1156  0.0361  0.2079
 2193DPPE   C2B48178  11.075   2.725  16.080 -0.1488  0.2388  0.2506
 2193DPPE   C3B48179  11.026   2.786  16.533  0.1444 -0.2905 -0.0478
 2193DPPE   C4B48180  10.915   2.560  16.674  0.0453  0.1031 -0.0117
 2194DPPE   NH348181  18.191   0.821  23.030 -0.2442 -0.2532 -0.0507
 2194DPPE   PO448182  17.800   0.681  22.775  0.0330 -0.1176  0.0011
 2194DPPE   GL148183  17.725   1.020  22.537  0.0400  0.0226  0.0777
 2194DPPE   GL248184  17.923   1.218  22.766  0.1348  0.0453  0.1729
 2194DPPE   C1A48185  17.981   1.178  22.191 -0.2953 -0.1875  0.2285
 2194DPPE   C2A48186  17.931   1.551  21.872 -0.1412  0.1077 -0.0243
 2194DPPE   C3A48187  17.755   1.878  21.783  0.0372 -0.3277 -0.0503
 2194DPPE   C4A48188  18.016   2.226  21.866 -0.1939 -0.0241 -0.1529
 2194DPPE   C1B48189  17.462   1.506  22.800  0.0776 -0.0309  0.0696
 2194DPPE   C2B48190  17.084   1.672  22.834  0.0178  0.0485 -0.1036
 2194DPPE   C3B48191  16.674   1.813  22.851 -0.0320  0.0978  0.1669
 2194DPPE   C4B48192  16.331   1.904  23.101  0.2522 -0.0346 -0.0176
 2195DPPE   NH348193  14.638  15.294   9.150  0.0310 -0.3272 -0.3105
 2195DPPE   PO448194  14.272  15.159   9.094  0.0730 -0.0254 -0.0240
 2195DPPE   GL148195  14.265  15.208   8.602  0.1839 -0.0344  0.2059
 2195DPPE   GL248196  13.935  15.133   8.403  0.2398  0.3034 -0.1254
 2195DPPE   C1A48197  14.263  15.319   8.159 -0.1776  0.0483 -0.0972
 2195DPPE   C2A48198  14.727  15.374   7.881 -0.1523  0.0008  0.0011
 2195DPPE   C3A48199  14.846  15.729   7.522  0.2042  0.1780 -0.1573
 2195DPPE   C4A48200  14.889  16.023   7.165  0.1902  0.1586 -0.1024
 2195DPPE   C1B48201  13.855  15.004   7.972 -0.1209 -0.1963 -0.3152
 2195DPPE   C2B48202  13.575  15.029   7.584 -0.6451 -0.6073  0.0833
 2195DPPE   C3B48203  13.517  14.865   7.246 -0.2172  0.3482  0.0456
 2195DPPE   C4B48204  13.690  14.969   6.761  0.0181 -0.2571 -0.1810
 2196DPPE   NH348205  15.823  19.026  16.655 -0.0293  0.1244 -0.1452
 2196DPPE   PO448206  15.773  19.077  16.239  0.2394  0.3372  0.2410
 2196DPPE   GL148207  16.063  19.406  16.192  0.2521 -0.3754 -0.0313
 2196DPPE   GL248208  16.355  19.439  15.991 -0.2522  0.0362  0.1177
 2196DPPE   C1A48209  16.055  19.811  16.339  0.1805 -0.2229  0.2762
 2196DPPE   C2A48210  16.353  20.010  16.599  0.0209  0.2322 -0.3278
 2196DPPE   C3A48211  16.433  20.180  16.929 -0.0661 -0.0417  0.1075
 2196DPPE   C4A48212  16.864  20.305  17.055 -0.1299  0.1172 -0.3448
 2196DPPE   C1B48213  16.565  19.936  16.127  0.3678  0.1064  0.1537
 2196DPPE   C2B48214  16.388  20.304  16.026  0.0163 -0.1739 -0.0870
 2196DPPE   C3B48215  16.213  20.550  16.242 -0.0238 -0.1027  0.0016
 2196DPPE   C4B48216  16.135  20.480  16.713  0.0847 -0.1457 -0.0759
 2197DPPE   NH348217  17.357  15.623  22.543 -0.5050 -0.2676  0.3270
 2197DPPE   PO448218  17.256  15.311  22.872  0.1548 -0.1112 -0.2181
 2197DPPE   GL148219  17.110  15.737  22.977 -0.1231  0.0510 -0.1344
 2197DPPE   GL248220  16.983  15.976  22.716 -0.1281 -0.4046  0.0136
 2197DPPE   C1A48221  17.470  16.088  23.214  0.3065  0.1489 -0.0790
 2197DPPE   C2A48222  17.902  16.328  23.397 -0.1020 -0.0290  0.3042
 2197DPPE   C3A48223  18.331  16.508  23.629 -0.1352  0.1558 -0.1567
 2197DPPE   C4A48224  18.583  16.509  24.036  0.1344  0.1619 -0.0703
 2197DPPE   C1B48225  16.800  16.212  23.044  0.0158  0.0347  0.2502
 2197DPPE   C2B48226  16.915  16.549  23.234  0.3667 -0.0187  0.1170
 2197DPPE   C3B48227  16.823  16.885  23.452 -0.3361 -0.1136 -0.2689
 2197DPPE   C4B48228  17.083  17.159  23.657  0.0935  0.2096  0.1578
 2198DPPE   NH348229  19.257  16.088   5.113 -0.2746 -0.3366 -0.2342
 2198DPPE   PO448230  19.543  15.708   5.071 -0.3921 -0.0635  0.2554
 2198DPPE   GL148231  19.350  15.549   5.457  0.3409 -0.2987  0.0318
 2198DPPE   GL248232  19.061  15.701   5.564 -0.2546 -0.0905  0.1057
 2198DPPE   C1A48233  19.179  15.257   5.734 -0.1370 -0.2453 -0.2848
 2198DPPE   C2A48234  18.880  15.179   6.064  0.3445  0.0514  0.0582
 2198DPPE   C3A48235  18.840  15.032   6.476 -0.2066  0.1423  0.1202
 2198DPPE   C4A48236  18.717  14.961   6.906 -0.2779 -0.0958 -0.0753
 2198DPPE   C1B48237  19.165  15.685   6.019 -0.1399 -0.0986  0.1780
 2198DPPE   C2B48238  19.561  15.916   6.224 -0.3651  0.2469  0.0509
 2198DPPE   C3B48239  19.814  15.728   6.549 -0.0448  0.1002  0.2413
 2198DPPE   C4B48240  19.843  15.823   6.990  0.0540  0.1077  0.0048
 2199DPPE   NH348241  27.522   6.199  14.134  0.0642  0.2253  0.1826
 2199DPPE   PO448242  27.653   6.130  14.495  0.4022  0.0230  0.0848
 2199DPPE   GL148243  27.287   6.118  14.568 -0.0165 -0.3653  0.0816
 2199DPPE   GL248244  27.155   5.918  14.396 -0.0354  0.0119 -0.0490
 2199DPPE   C1A48245  26.880   6.301  14.697 -0.2471  0.0567  0.0352
 2199DPPE   C2A48246  26.540   6.534  14.608 -0.4013 -0.1841  0.0299
 2199DPPE   C3A48247  26.401   6.568  14.156  0.0342 -0.0477 -0.3298
 2199DPPE   C4A48248  26.424   6.239  13.837 -0.3650 -0.3516 -0.2851
 2199DPPE   C1B48249  26.854   5.790  14.191 -0.0206  0.2482  0.1890
 2199DPPE   C2B48250  26.393   5.683  14.135  0.0003  0.0191  0.0137
 2199DPPE   C3B48251  26.047   5.632  13.948  0.1458 -0.3325  0.1454
 2199DPPE   C4B48252  25.652   5.517  14.142 -0.2642 -0.2445 -0.1202
 2200DPPE   NH348253  19.252  22.146  20.012  0.0292  0.0883  0.0093
 2200DPPE   PO448254  19.497  21.811  20.117  0.1302 -0.1778  0.2143
 2200DPPE   GL148255  19.365  21.693  19.824  0.1795  0.2625 -0.0248
 2200DPPE   GL248256  19.010  21.679  19.797 -0.2094 -0.0292 -0.0141
 2200DPPE   C1A48257  19.424  21.328  19.625  0.1795 -0.1586 -0.1055
 2200DPPE   C2A48258  19.108  20.980  19.655 -0.1257 -0.0780 -0.0885
 2200DPPE   C3A48259  18.949  20.691  19.387  0.4177  0.0114 -0.2505
 2200DPPE   C4A48260  18.690  20.446  19.199 -0.1835  0.0476 -0.1680
 2200DPPE   C1B48261  18.713  21.373  19.840 -0.2752  0.1466  0.0705
 2200DPPE   C2B48262  18.613  20.940  19.687  0.2973 -0.0750 -0.2143
 2200DPPE   C3B48263  18.463  20.490  19.702 -0.1995 -0.3247 -0.3683
 2200DPPE   C4B48264  18.323  20.106  19.386 -0.0347 -0.0488  0.1283
 2201DPPE   NH348265  14.610   7.965  10.402 -0.0449  0.2193 -0.0823
 2201DPPE   PO448266  14.271   8.263  10.366 -0.1911 -0.1655  0.0268
 2201DPPE   GL148267  14.081   8.228   9.926 -0.1483  0.1043 -0.2338
 2201DPPE   GL248268  13.820   8.020   9.716  0.2590 -0.2057 -0.3925
 2201DPPE   C1A48269  14.217   8.185   9.465 -0.0245 -0.0128  0.1927
 2201DPPE   C2A48270  14.090   8.094   9.012  0.0663 -0.3225 -0.1211
 2201DPPE   C3A48271  14.088   7.683   8.723  0.1979 -0.2752  0.0251
 2201DPPE   C4A48272  13.713   7.492   8.505 -0.0074  0.2441 -0.1098
 2201DPPE   C1B48273  13.843   7.799   9.335 -0.1595  0.0746 -0.2487
 2201DPPE   C2B48274  13.639   7.796   8.922 -0.0807 -0.2958  0.0901
 2201DPPE   C3B48275  13.425   7.987   8.532 -0.0055 -0.1957  0.1876
 2201DPPE   C4B48276  12.966   8.069   8.243  0.1360 -0.3959  0.0742
 2202DPPE   NH348277   8.600  11.007  14.473  0.0726 -0.2633  0.0532
 2202DPPE   PO448278   8.703  11.310  14.325 -0.1549  0.0394 -0.4274
 2202DPPE   GL148279   8.353  11.319  14.183  0.1077  0.1888 -0.0945
 2202DPPE   GL248280   8.441  11.102  13.878  0.0045 -0.1367 -0.1654
 2202DPPE   C1A48281   7.950  11.270  14.096 -0.2753 -0.0839 -0.0001
 2202DPPE   C2A48282   7.434  11.176  14.021  0.1673 -0.2625  0.1108
 2202DPPE   C3A48283   7.056  11.271  14.194 -0.0368 -0.1333  0.0009
 2202DPPE   C4A48284   6.664  11.380  14.316 -0.2517  0.0530 -0.0484
 2202DPPE   C1B48285   8.190  10.793  13.716 -0.0123 -0.3244  0.4159
 2202DPPE   C2B48286   7.878  10.525  13.796 -0.0327  0.3787 -0.0233
 2202DPPE   C3B48287   7.731  10.336  14.083  0.0285  0.0079  0.0001
 2202DPPE   C4B48288   7.671  10.023  14.357  0.2510  0.2983  0.0926
 2203DPPE   NH348289  20.969   3.229  17.070  0.0182  0.0612  0.4453
 2203DPPE   PO448290  20.520   3.042  17.070 -0.0663  0.0243  0.0876
 2203DPPE   GL148291  20.732   2.705  17.143 -0.2908 -0.4506  0.0454
 2203DPPE   GL248292  20.521   2.759  17.472  0.1266 -0.0565  0.1277
 2203DPPE   C1A48293  20.937   2.347  17.223 -0.1602  0.0937  0.0886
 2203DPPE   C2A48294  21.170   2.002  17.170 -0.0925  0.1442 -0.1679
 2203DPPE   C3A48295  21.364   1.487  17.088  0.1331  0.0151  0.2679
 2203DPPE   C4A48296  21.785   1.325  17.034  0.2316 -0.0914  0.2534
 2203DPPE   C1B48297  20.588   2.396  17.601  0.1870 -0.0947 -0.1828
 2203DPPE   C2B48298  20.654   2.011  17.938 -0.3214 -0.0483  0.2745
 2203DPPE   C3B48299  20.875   1.622  18.045 -0.0871  0.0342  0.2481
 2203DPPE   C4B48300  20.913   1.221  17.877  0.2036 -0.1650 -0.2488
 2204DPPE   NH348301  16.333  34.690  18.050 -0.3835  0.2041 -0.0326
 2204DPPE   PO448302  16.183  34.667  18.453 -0.1901  0.0130 -0.1145
 2204DPPE   GL148303  15.905  34.984  18.285  0.1843  0.1113  0.0195
 2204DPPE   GL248304  15.889  34.923  17.897  0.2420  0.2505 -0.0257
 2204DPPE   C1A48305  15.711  35.415  17.963  0.1667  0.2012  0.0748
 2204DPPE   C2A48306  15.754  35.603  17.591  0.0728 -0.2979 -0.0431
 2204DPPE   C3A48307  16.082  35.900  17.292 -0.2419  0.0978 -0.0025
 2204DPPE   C4A48308  16.204  36.116  17.034  0.1693 -0.2227 -0.3977
 2204DPPE   C1B48309  15.858  35.063  17.424  0.1232  0.0596  0.0416
 2204DPPE   C2B48310  15.733  35.028  17.020 -0.0212  0.1761  0.0840
 2204DPPE   C3B48311  15.623  35.325  16.723 -0.3004 -0.0957 -0.0254
 2204DPPE   C4B48312  15.460  35.633  16.473 -0.1947 -0.1947 -0.0578
 2205DPPE   NH348313  17.976  11.461  23.441  0.0079 -0.1510  0.3357
 2205DPPE   PO448314  17.714  11.678  23.508  0.1375 -0.1766 -0.0277
 2205DPPE   GL148315  17.655  11.690  23.965  0.1144 -0.2234  0.2061
 2205DPPE   GL248316  17.925  11.469  24.011  0.3606  0.1414  0.5229
 2205DPPE   C1A48317  17.607  11.898  24.322  0.1092 -0.1557 -0.0058
 2205DPPE   C2A48318  17.818  12.046  24.687  0.0391 -0.0002 -0.0280
 2205DPPE   C3A48319  17.709  12.153  25.146  0.0019 -0.0232 -0.0305
 2205DPPE   C4A48320  17.627  12.511  25.410  0.3016 -0.1641 -0.2297
 2205DPPE   C1B48321  17.892  11.415  24.382 -0.1142  0.2877 -0.4825
 2205DPPE   C2B48322  17.723  11.543  24.774 -0.0397  0.0679 -0.1620
 2205DPPE   C3B48323  17.382  11.889  24.756 -0.0756 -0.2430 -0.1828
 2205DPPE   C4B48324  17.285  12.212  24.503 -0.0310  0.0044 -0.1851
 2206DPPE   NH348325   1.846  10.392  14.071  0.1359 -0.1046  0.1344
 2206DPPE   PO448326   1.601  10.398  14.486 -0.1698 -0.1011  0.0573
 2206DPPE   GL148327   1.888  10.118  14.482  0.0449 -0.0054  0.1515
 2206DPPE   GL248328   1.946   9.874  14.170  0.0656  0.2671 -0.0011
 2206DPPE   C1A48329   2.358  10.029  14.577  0.0756 -0.1631  0.0090
 2206DPPE   C2A48330   2.824   9.882  14.500  0.0125 -0.0261  0.3779
 2206DPPE   C3A48331   3.110   9.731  14.330 -0.2043 -0.2793  0.1079
 2206DPPE   C4A48332   3.358   9.554  14.213 -0.2333 -0.0950  0.1217
 2206DPPE   C1B48333   2.453   9.878  14.007  0.0650  0.1935  0.4475
 2206DPPE   C2B48334   2.780   9.706  13.796 -0.1672 -0.1470  0.1858
 2206DPPE   C3B48335   2.917   9.357  13.609 -0.4450 -0.3333  0.1442
 2206DPPE   C4B48336   3.250   9.063  13.473  0.1481 -0.0102 -0.1668
 2207DPPE   NH348337   7.386   2.573  20.901  0.6757  0.1739 -0.1295
 2207DPPE   PO448338   7.181   2.654  20.496  0.0033 -0.3561 -0.1739
 2207DPPE   GL148339   7.135   3.067  20.396  0.1148  0.0746  0.2001
 2207DPPE   GL248340   7.194   2.975  20.064  0.0960 -0.0182 -0.1978
 2207DPPE   C1A48341   7.273   3.455  20.384 -0.1292 -0.2891 -0.1484
 2207DPPE   C2A48342   7.044   3.721  20.384  0.1832  0.0895  0.1651
 2207DPPE   C3A48343   6.664   3.897  20.185 -0.1509 -0.2040 -0.0406
 2207DPPE   C4A48344   6.661   4.299  19.878 -0.1517  0.1055 -0.0837
 2207DPPE   C1B48345   7.522   3.203  19.749 -0.2277  0.0570 -0.3407
 2207DPPE   C2B48346   7.609   3.572  19.458  0.0250 -0.3028 -0.2350
 2207DPPE   C3B48347   7.557   3.983  19.385 -0.1100 -0.3463 -0.0986
 2207DPPE   C4B48348   7.442   4.298  19.610 -0.0763 -0.0557  0.0049
 2208DPPE   NH348349  23.381   7.738  19.011 -0.0341  0.1166  0.0260
 2208DPPE   PO448350  23.165   8.132  19.070 -0.1392  0.0472  0.1557
 2208DPPE   GL148351  23.671   8.228  19.010  0.2083 -0.0619 -0.3671
 2208DPPE   GL248352  23.825   8.579  19.037  0.0493  0.0960 -0.1218
 2208DPPE   C1A48353  24.005   8.032  19.142 -0.0964 -0.0040  0.0685
 2208DPPE   C2A48354  24.335   7.632  19.257  0.2261 -0.2060 -0.2768
 2208DPPE   C3A48355  24.524   7.264  19.488 -0.3449  0.1121 -0.2612
 2208DPPE   C4A48356  24.817   7.053  19.550 -0.1588 -0.1079  0.0250
 2208DPPE   C1B48357  24.249   8.473  19.255  0.1219 -0.1095  0.0496
 2208DPPE   C2B48358  24.420   8.073  19.601 -0.3493 -0.2250 -0.0970
 2208DPPE   C3B48359  24.805   7.889  19.785  0.5167 -0.3489 -0.0403
 2208DPPE   C4B48360  24.991   7.897  20.176 -0.1973  0.0294  0.1888
 2209DPPE   NH348361  11.971   3.458  16.488  0.1244 -0.1058  0.0968
 2209DPPE   PO448362  11.786   3.730  16.171  0.1923  0.5007  0.2253
 2209DPPE   GL148363  11.568   3.436  16.188  0.1213  0.1357  0.0481
 2209DPPE   GL248364  11.687   3.133  16.244  0.3525 -0.1477  0.2640
 2209DPPE   C1A48365  11.159   3.208  16.144  0.1419  0.1248  0.1307
 2209DPPE   C2A48366  10.618   3.099  16.138 -0.0113  0.0728 -0.1678
 2209DPPE   C3A48367  10.233   2.919  16.279  0.0449  0.1570 -0.0408
 2209DPPE   C4A48368  10.079   2.530  16.443  0.1652 -0.0948 -0.0146
 2209DPPE   C1B48369  11.712   2.671  16.251  0.1036 -0.1903  0.0749
 2209DPPE   C2B48370  11.616   2.290  16.318  0.3316 -0.2689 -0.0520
 2209DPPE   C3B48371  11.388   1.818  16.404 -0.1812 -0.3653 -0.0953
 2209DPPE   C4B48372  11.320   1.421  16.281  0.1177 -0.2050 -0.1189
 2210DPPE   NH348373   9.981   7.083  16.646  0.1918 -0.0666  0.1087
 2210DPPE   PO448374   9.969   7.413  16.319  0.0480 -0.0644 -0.2049
 2210DPPE   GL148375   9.825   7.079  16.121 -0.5762  0.1313 -0.2902
 2210DPPE   GL248376   9.542   6.869  16.344 -0.1794  0.1274 -0.2101
 2210DPPE   C1A48377   9.490   6.944  15.793 -0.0641 -0.1785  0.1889
 2210DPPE   C2A48378   9.335   6.641  15.545 -0.0615 -0.2190 -0.2388
 2210DPPE   C3A48379   9.633   6.294  15.465  0.6272 -0.0038  0.0937
 2210DPPE   C4A48380   9.879   6.074  15.569 -0.0129  0.0809  0.4872
 2210DPPE   C1B48381   9.114   6.930  16.151  0.1933  0.1165  0.0748
 2210DPPE   C2B48382   8.666   7.126  15.974 -0.1002  0.1216 -0.2353
 2210DPPE   C3B48383   8.480   7.035  15.496  0.1441 -0.0788 -0.2331
 2210DPPE   C4B48384   8.487   6.708  15.146 -0.0612  0.1835  0.3107
 2211DPPE   NH348385  12.324  17.684  25.168 -0.4081  0.1996  0.3145
 2211DPPE   PO448386  12.200  17.771  24.706 -0.1779 -0.0244  0.0600
 2211DPPE   GL148387  12.323  17.370  24.528  0.1188 -0.1045  0.2684
 2211DPPE   GL248388  12.273  17.284  24.309 -0.0775  0.3300 -0.1158
 2211DPPE   C1A48389  12.762  17.314  24.363  0.1370 -0.1451 -0.2358
 2211DPPE   C2A48390  13.128  17.039  24.239  0.0158  0.2517 -0.2057
 2211DPPE   C3A48391  13.097  16.834  23.757  0.1147 -0.2520 -0.0500
 2211DPPE   C4A48392  13.357  16.561  23.398 -0.1619 -0.1378  0.0293
 2211DPPE   C1B48393  12.511  17.431  23.924  0.4018  0.1742  0.4260
 2211DPPE   C2B48394  12.576  17.325  23.398 -0.2222 -0.0096  0.1521
 2211DPPE   C3B48395  12.860  17.577  23.183 -0.2311 -0.0442  0.0991
 2211DPPE   C4B48396  13.188  17.774  22.845 -0.2324 -0.0548 -0.0345
 2212DPPE   NH348397  24.578  15.894  22.982  0.2993  0.0107  0.1212
 2212DPPE   PO448398  24.872  16.143  22.590 -0.2413 -0.2055 -0.2132
 2212DPPE   GL148399  24.594  15.856  22.449  0.2485  0.0780 -0.0556
 2212DPPE   GL248400  24.316  15.584  22.596 -0.2217 -0.0297  0.2135
 2212DPPE   C1A48401  24.450  15.977  22.031 -0.1931 -0.2844 -0.1346
 2212DPPE   C2A48402  24.188  15.898  21.682  0.2632  0.1273  0.0471
 2212DPPE   C3A48403  23.733  15.936  21.620  0.4739  0.0873  0.0921
 2212DPPE   C4A48404  23.454  15.674  21.411  0.0551 -0.0435  0.0740
 2212DPPE   C1B48405  24.118  15.849  22.360 -0.0210  0.3782  0.3432
 2212DPPE   C2B48406  23.988  15.585  22.044  0.0684 -0.3439 -0.1232
 2212DPPE   C3B48407  23.583  15.512  21.855 -0.3143 -0.0535 -0.1753
 2212DPPE   C4B48408  23.514  15.116  21.585 -0.2101  0.2993  0.0739
 2213DPPE   NH348409  22.874  10.741   6.587 -0.0261  0.0889 -0.2972
 2213DPPE   PO448410  22.716  10.846   6.134  0.0084  0.1071 -0.2696
 2213DPPE   GL148411  22.364  10.650   6.374 -0.0594  0.0718  0.0818
 2213DPPE   GL248412  22.292  10.843   6.565  0.1478  0.4737 -0.4001
 2213DPPE   C1A48413  22.005  10.444   6.299 -0.1968 -0.0281 -0.0203
 2213DPPE   C2A48414  21.694  10.324   6.051  0.2459 -0.3486 -0.0662
 2213DPPE   C3A48415  21.212  10.196   5.912  0.0056  0.2751  0.0217
 2213DPPE   C4A48416  20.799  10.410   5.908  0.1298  0.2959 -0.0661
 2213DPPE   C1B48417  21.819  10.847   6.562 -0.1169 -0.2048 -0.0724
 2213DPPE   C2B48418  21.384  10.939   6.709  0.2189  0.0720 -0.0815
 2213DPPE   C3B48419  21.040  10.953   7.024 -0.2167  0.0266 -0.2995
 2213DPPE   C4B48420  20.734  11.267   7.211  0.1507 -0.0115 -0.3310
 2214DPPE   NH348421  18.359   3.082  10.789 -0.1136  0.3234  0.4257
 2214DPPE   PO448422  18.309   3.509  10.767 -0.1544 -0.1311 -0.1081
 2214DPPE   GL148423  18.082   3.561  10.385  0.0055  0.0486 -0.1328
 2214DPPE   GL248424  18.233   3.544  10.108  0.0864 -0.3048  0.0452
 2214DPPE   C1A48425  17.797   3.355   9.986 -0.3417  0.3612 -0.1482
 2214DPPE   C2A48426  17.513   3.210   9.764 -0.1353  0.0675 -0.2751
 2214DPPE   C3A48427  17.227   3.008   9.845 -0.0326 -0.3620 -0.0657
 2214DPPE   C4A48428  16.909   2.858   9.780  0.0036 -0.1550  0.1302
 2214DPPE   C1B48429  18.367   3.324   9.750  0.0680  0.2326  0.0887
 2214DPPE   C2B48430  18.554   2.971   9.719  0.3154 -0.1491 -0.1728
 2214DPPE   C3B48431  18.548   2.533   9.560 -0.0774 -0.3400  0.0606
 2214DPPE   C4B48432  18.693   2.085   9.691 -0.0717  0.2424  0.1620
 2215DPPE   NH348433  14.463  19.601  23.853  0.2506  0.0533 -0.0080
 2215DPPE   PO448434  13.983  19.541  23.743  0.2446 -0.1620 -0.0410
 2215DPPE   GL148435  13.992  19.198  23.394  0.0416  0.2326 -0.3180
 2215DPPE   GL248436  13.734  18.950  23.388 -0.0532  0.3501 -0.0547
 2215DPPE   C1A48437  14.091  19.059  23.010  0.1203 -0.0051  0.4867
 2215DPPE   C2A48438  14.155  19.003  22.558 -0.1565 -0.2081  0.0010
 2215DPPE   C3A48439  14.231  18.624  22.383  0.0254 -0.5445 -0.2451
 2215DPPE   C4A48440  14.510  18.265  22.469  0.0622 -0.1306 -0.0188
 2215DPPE   C1B48441  14.016  18.578  23.328 -0.0420  0.3498 -0.0141
 2215DPPE   C2B48442  14.150  18.146  23.292  0.1844 -0.1613 -0.1654
 2215DPPE   C3B48443  14.175  17.846  22.985 -0.1457  0.2206 -0.0136
 2215DPPE   C4B48444  14.368  17.712  22.575  0.0931 -0.2775 -0.1729
 2216DPPE   NH348445  23.152  15.900  24.539 -0.2677  0.2980 -0.1547
 2216DPPE   PO448446  23.233  15.638  24.873  0.0592  0.2105  0.0974
 2216DPPE   GL148447  23.025  15.365  24.633  0.3467 -0.2077 -0.0497
 2216DPPE   GL248448  23.213  15.138  24.514 -0.0419  0.0019  0.2127
 2216DPPE   C1A48449  22.655  15.232  24.535  0.0034  0.1264  0.0445
 2216DPPE   C2A48450  22.346  14.890  24.382 -0.0623 -0.3883  0.1001
 2216DPPE   C3A48451  22.157  14.492  24.181 -0.0942 -0.0550 -0.0182
 2216DPPE   C4A48452  21.966  14.404  23.789 -0.0457  0.3565  0.1276
 2216DPPE   C1B48453  23.025  14.878  24.225  0.0574  0.0737 -0.2742
 2216DPPE   C2B48454  22.714  14.665  24.025  0.0055 -0.2137  0.1560
 2216DPPE   C3B48455  22.454  14.417  23.705 -0.3877 -0.1551  0.0534
 2216DPPE   C4B48456  22.278  14.579  23.298  0.1733  0.1654  0.0539
 2217DPPE   NH348457  10.747  10.836  11.689  0.1318 -0.3215  0.2217
 2217DPPE   PO448458  10.274  10.946  11.798  0.0811 -0.0083  0.0926
 2217DPPE   GL148459   9.906  10.673  11.957 -0.2103  0.1612  0.0095
 2217DPPE   GL248460   9.759  10.678  12.218  0.1779  0.1958  0.2114
 2217DPPE   C1A48461   9.425  10.520  11.778  0.2033  0.0159 -0.1115
 2217DPPE   C2A48462   9.011  10.650  11.850  0.0642 -0.1129 -0.2770
 2217DPPE   C3A48463   8.680  10.565  12.220  0.0608 -0.2536  0.2778
 2217DPPE   C4A48464   8.636  10.814  12.603 -0.0092  0.0708 -0.1298
 2217DPPE   C1B48465   9.490  10.979  11.958 -0.3143 -0.1035 -0.1179
 2217DPPE   C2B48466   9.666  11.347  11.744 -0.0448  0.1269  0.1643
 2217DPPE   C3B48467   9.388  11.474  11.436 -0.0003  0.0647 -0.0226
 2217DPPE   C4B48468   9.341  11.216  11.079 -0.3100 -0.0835 -0.4470
 2218DPPE   NH348469   9.001   6.707  17.607  0.2486  0.2198 -0.2164
 2218DPPE   PO448470   8.960   6.274  17.673 -0.1448  0.1860 -0.1097
 2218DPPE   GL148471   8.595   6.280  17.593  0.0963  0.0713  0.2489
 2218DPPE   GL248472   8.563   6.462  17.323 -0.0923  0.0231  0.2707
 2218DPPE   C1A48473   8.188   6.178  17.695 -0.1822  0.0471  0.1483
 2218DPPE   C2A48474   7.760   6.091  17.850  0.0796 -0.1755  0.0822
 2218DPPE   C3A48475   7.360   5.896  17.759 -0.1339  0.0169 -0.1415
 2218DPPE   C4A48476   6.882   5.847  17.840  0.1857  0.1546  0.3332
 2218DPPE   C1B48477   8.181   6.409  17.116  0.3222 -0.0265 -0.3554
 2218DPPE   C2B48478   7.720   6.314  16.843 -0.2253 -0.1094 -0.0803
 2218DPPE   C3B48479   7.394   6.458  16.495 -0.2630 -0.2005 -0.6396
 2218DPPE   C4B48480   7.230   6.713  16.246 -0.0140 -0.1290  0.0945
 2219DPPE   NH348481  11.926   6.507  12.495  0.3710 -0.1905  0.4208
 2219DPPE   PO448482  12.168   6.266  12.279 -0.0447  0.3713 -0.0953
 2219DPPE   GL148483  11.689   6.204  12.152 -0.1171 -0.0063 -0.4179
 2219DPPE   GL248484  11.592   6.513  12.075 -0.0044  0.0748 -0.0073
 2219DPPE   C1A48485  11.463   6.024  11.762 -0.3195 -0.3965  0.1228
 2219DPPE   C2A48486  11.229   5.626  11.641 -0.1755 -0.0701 -0.2020
 2219DPPE   C3A48487  11.031   5.303  11.762  0.1171  0.3262 -0.1819
 2219DPPE   C4A48488  11.117   4.941  11.938  0.2267  0.0113 -0.2233
 2219DPPE   C1B48489  11.228   6.383  11.993  0.0529  0.0171 -0.2350
 2219DPPE   C2B48490  10.794   6.426  11.897 -0.0997 -0.2640  0.0583
 2219DPPE   C3B48491  10.412   6.337  11.681  0.1213 -0.3234  0.0024
 2219DPPE   C4B48492  10.013   6.361  11.527  0.4602  0.1803  0.1543
 2220DPPE   NH348493  13.235   9.770   9.801 -0.0019 -0.2185 -0.1799
 2220DPPE   PO448494  13.620   9.672  10.066 -0.0610 -0.0079  0.0938
 2220DPPE   GL148495  13.448   9.330   9.759  0.1604 -0.0555 -0.0475
 2220DPPE   GL248496  13.055   9.267   9.853 -0.2583 -0.1562 -0.0092
 2220DPPE   C1A48497  13.360   8.940   9.449 -0.0636 -0.3368  0.2359
 2220DPPE   C2A48498  13.194   8.601   9.105  0.0052  0.2958  0.2953
 2220DPPE   C3A48499  12.968   8.579   8.838  0.1447  0.3999 -0.0276
 2220DPPE   C4A48500  13.170   8.541   8.398 -0.0714 -0.0089  0.2431
 2220DPPE   C1B48501  12.899   9.068   9.510  0.0301  0.0715 -0.3047
 2220DPPE   C2B48502  12.630   8.695   9.229 -0.2052  0.1362 -0.3226
 2220DPPE   C3B48503  12.238   8.596   8.941  0.0346  0.1356 -0.0603
 2220DPPE   C4B48504  11.951   8.546   8.640  0.0527 -0.0612  0.2722
 2221DPPE   NH348505  13.872  13.654  22.796 -0.0537  0.0150 -0.1040
 2221DPPE   PO448506  13.937  13.237  22.953 -0.0693  0.1831 -0.4805
 2221DPPE   GL148507  13.585  13.369  23.163 -0.2213 -0.1332 -0.0319
 2221DPPE   GL248508  13.434  13.747  23.013 -0.1073  0.0347  0.1142
 2221DPPE   C1A48509  13.225  13.413  23.465  0.0289  0.1180 -0.1906
 2221DPPE   C2A48510  13.014  13.279  23.880  0.0360 -0.1290  0.1610
 2221DPPE   C3A48511  12.920  13.235  24.291 -0.1654 -0.1564 -0.2049
 2221DPPE   C4A48512  13.142  13.159  24.697 -0.0513 -0.2233  0.1520
 2221DPPE   C1B48513  13.063  13.976  23.293  0.1046  0.1856 -0.3201
 2221DPPE   C2B48514  12.649  14.030  23.463 -0.1525 -0.0938  0.3119
 2221DPPE   C3B48515  12.459  13.951  24.019 -0.1746 -0.5127  0.1694
 2221DPPE   C4B48516  12.468  13.809  24.444 -0.2771 -0.0017  0.1846
 2222DPPE   NH348517  13.740   3.146  14.824  0.0822 -0.2210 -0.3068
 2222DPPE   PO448518  13.875   3.175  14.487  0.2344  0.2025  0.1207
 2222DPPE   GL148519  13.665   3.112  14.088 -0.0655  0.0808  0.1177
 2222DPPE   GL248520  13.551   3.324  13.936  0.0790  0.1116 -0.0441
 2222DPPE   C1A48521  13.232   2.967  14.030  0.2213  0.0748  0.5132
 2222DPPE   C2A48522  12.981   2.780  13.660 -0.1496 -0.2109 -0.5180
 2222DPPE   C3A48523  12.825   2.497  13.349  0.0232 -0.1450 -0.1463
 2222DPPE   C4A48524  12.694   2.236  12.922 -0.0878  0.1273 -0.1227
 2222DPPE   C1B48525  13.294   3.170  13.534  0.3719  0.1671  0.0375
 2222DPPE   C2B48526  13.074   2.872  13.183 -0.1060 -0.0526  0.3458
 2222DPPE   C3B48527  13.061   2.625  12.748 -0.1420  0.0100  0.0491
 2222DPPE   C4B48528  12.960   2.459  12.278  0.0280 -0.3229 -0.0186
 2223DPPE   NH348529   5.862   8.667  21.797 -0.0320 -0.3561  0.1833
 2223DPPE   PO448530   5.471   8.808  21.520  0.0566 -0.3192 -0.2089
 2223DPPE   GL148531   5.814   8.801  21.286  0.0161  0.0461  0.1249
 2223DPPE   GL248532   6.160   8.853  21.444 -0.0983 -0.2195  0.0559
 2223DPPE   C1A48533   6.110   8.923  20.939 -0.0878  0.3882 -0.1041
 2223DPPE   C2A48534   6.352   8.810  20.576  0.0665 -0.2302 -0.1243
 2223DPPE   C3A48535   6.010   8.814  20.424 -0.2377 -0.3554  0.2384
 2223DPPE   C4A48536   5.766   8.470  20.197  0.0642 -0.1430  0.2935
 2223DPPE   C1B48537   6.598   8.888  21.513 -0.1715 -0.2319 -0.0219
 2223DPPE   C2B48538   7.084   8.761  21.498  0.2484 -0.1266 -0.2554
 2223DPPE   C3B48539   7.560   8.704  21.430  0.1584 -0.0187 -0.1855
 2223DPPE   C4B48540   7.927   8.615  21.633  0.0864 -0.1006  0.1322
 2224DPPE   NH348541  15.076  18.391  18.823  0.2647  0.2508  0.1822
 2224DPPE   PO448542  14.750  18.415  18.736 -0.3455 -0.0260  0.1433
 2224DPPE   GL148543  14.634  18.760  18.833  0.0489  0.2845  0.0087
 2224DPPE   GL248544  14.336  18.776  18.666  0.4793  0.0176  0.0588
 2224DPPE   C1A48545  14.509  19.279  18.868 -0.1028  0.0107  0.0885
 2224DPPE   C2A48546  14.638  19.681  19.025  0.2586  0.2072 -0.1853
 2224DPPE   C3A48547  14.794  20.138  19.022  0.1272  0.1638  0.0423
 2224DPPE   C4A48548  15.072  20.452  18.812 -0.3372  0.2736 -0.0893
 2224DPPE   C1B48549  13.956  18.745  18.681 -0.0933  0.0345 -0.0193
 2224DPPE   C2B48550  13.681  19.122  18.841  0.0475 -0.0241 -0.0593
 2224DPPE   C3B48551  13.469  19.558  18.741 -0.0445 -0.0987 -0.3887
 2224DPPE   C4B48552  13.205  20.006  18.717 -0.3447 -0.1278  0.1293
 2225DPPE   NH348553  20.902   9.776  22.957  0.1286  0.0702  0.0548
 2225DPPE   PO448554  21.104   9.494  22.712  0.0159 -0.3074  0.3629
 2225DPPE   GL148555  21.551   9.485  22.896 -0.2381  0.1298  0.0874
 2225DPPE   GL248556  21.764   9.300  22.719 -0.2702 -0.1176  0.3869
 2225DPPE   C1A48557  21.422   9.242  23.218 -0.2775 -0.3002  0.0021
 2225DPPE   C2A48558  21.620   9.126  23.603  0.5571  0.1574  0.2808
 2225DPPE   C3A48559  21.775   9.204  23.919  0.1114 -0.4276  0.4577
 2225DPPE   C4A48560  22.216   9.102  24.036  0.0222 -0.5069  0.0958
 2225DPPE   C1B48561  22.261   9.410  23.038 -0.0990  0.3870 -0.1737
 2225DPPE   C2B48562  22.355   9.767  23.166 -0.2380 -0.0648 -0.1823
 2225DPPE   C3B48563  22.417   9.979  23.505 -0.2575  0.1179  0.1039
 2225DPPE   C4B48564  22.506  10.517  23.668  0.1666 -0.1271 -0.2124
 2226DPPE   NH348565   7.604  13.567   4.106 -0.1111  0.1080  0.4003
 2226DPPE   PO448566   7.482  13.739   4.538  0.0458 -0.0533 -0.1088
 2226DPPE   GL148567   7.791  13.460   4.597 -0.1285 -0.0276 -0.3192
 2226DPPE   GL248568   7.789  13.496   4.899 -0.1115  0.1621 -0.1560
 2226DPPE   C1A48569   8.049  13.065   4.677  0.2361 -0.1121  0.1228
 2226DPPE   C2A48570   8.174  12.719   4.687  0.2362  0.0324 -0.1627
 2226DPPE   C3A48571   8.537  12.583   4.756  0.1187 -0.1460 -0.1643
 2226DPPE   C4A48572   8.741  12.226   4.911 -0.3802  0.1793  0.1975
 2226DPPE   C1B48573   7.505  13.116   4.766 -0.0591 -0.1502  0.0121
 2226DPPE   C2B48574   7.350  12.724   4.944  0.3192 -0.0281 -0.3109
 2226DPPE   C3B48575   7.231  12.413   5.295  0.2453  0.3874 -0.1984
 2226DPPE   C4B48576   7.240  12.188   5.686  0.0334 -0.1941  0.2065
 2227DPPE   NH348577  16.284   1.307  13.402 -0.1001  0.0760 -0.0592
 2227DPPE   PO448578  16.234   1.846  13.363  0.1162 -0.2085 -0.0036
 2227DPPE   GL148579  15.909   1.621  13.447  0.3072 -0.0760  0.2137
 2227DPPE   GL248580  15.922   1.308  13.697  0.0747 -0.1882 -0.3415
 2227DPPE   C1A48581  15.686   1.338  13.259 -0.2865 -0.3083  0.3032
 2227DPPE   C2A48582  15.519   1.036  13.142  0.2439  0.0395 -0.1599
 2227DPPE   C3A48583  15.706   0.564  12.999 -0.4810  0.1467 -0.1919
 2227DPPE   C4A48584  16.094   0.616  12.757  0.2924 -0.0934 -0.0592
 2227DPPE   C1B48585  15.482   1.498  13.902 -0.0002  0.1455 -0.1492
 2227DPPE   C2B48586  15.226   1.365  14.208  0.0821 -0.1176  0.2083
 2227DPPE   C3B48587  14.948   1.217  14.464 -0.0422  0.2041  0.3111
 2227DPPE   C4B48588  14.444   1.347  14.595  0.0713 -0.1898  0.1504
 2228DPPE   NH348589   9.360  10.030   2.102  0.3085 -0.0054 -0.1812
 2228DPPE   PO448590   9.486  10.400   2.033  0.0210  0.0913 -0.1202
 2228DPPE   GL148591   9.592  10.317   2.478 -0.0583  0.0704  0.2686
 2228DPPE   GL248592   9.621   9.981   2.527 -0.0789 -0.0176 -0.3044
 2228DPPE   C1A48593   9.607  10.499   2.843 -0.0540 -0.1821 -0.1128
 2228DPPE   C2A48594   9.500  10.531   3.281 -0.3109 -0.0234  0.3569
 2228DPPE   C3A48595   9.399  10.856   3.509  0.0079 -0.0100 -0.0590
 2228DPPE   C4A48596   9.351  11.297   3.336  0.0987  0.1854  0.0764
 2228DPPE   C1B48597   9.595   9.614   2.781  0.0810 -0.5824 -0.2214
 2228DPPE   C2B48598   9.829   9.202   2.911 -0.0045 -0.1326 -0.1426
 2228DPPE   C3B48599  10.004   8.879   3.205  0.1429  0.0082  0.0893
 2228DPPE   C4B48600   9.972   8.580   3.486  0.0674  0.1227  0.1964
 2229DPPE   NH348601   9.600   6.308  17.070  0.0086 -0.0686  0.1607
 2229DPPE   PO448602   9.429   6.689  17.287  0.1761 -0.0809  0.1768
 2229DPPE   GL148603   9.090   6.426  17.148  0.1386 -0.1279  0.1025
 2229DPPE   GL248604   8.929   6.058  17.194  0.0188 -0.1164 -0.1459
 2229DPPE   C1A48605   8.825   6.436  16.829 -0.0400  0.0718 -0.1434
 2229DPPE   C2A48606   8.758   6.557  16.462 -0.2843  0.1809  0.0067
 2229DPPE   C3A48607   8.420   6.698  16.182 -0.1686  0.3950  0.1713
 2229DPPE   C4A48608   8.172   6.947  16.196  0.1359 -0.0043  0.1840
 2229DPPE   C1B48609   8.810   5.682  16.994 -0.1127 -0.1286 -0.1624
 2229DPPE   C2B48610   8.415   5.458  16.823 -0.0015  0.0770 -0.4199
 2229DPPE   C3B48611   8.031   5.398  16.743 -0.3460 -0.0727 -0.2209
 2229DPPE   C4B48612   7.611   5.159  16.978 -0.0283 -0.1160  0.0717
 2230DPPE   NH348613  13.197  11.653   9.282 -0.2329  0.3408  0.2819
 2230DPPE   PO448614  13.136  11.299   9.462 -0.0552 -0.2972  0.0328
 2230DPPE   GL148615  12.811  11.237   9.254  0.2597 -0.1275 -0.3724
 2230DPPE   GL248616  12.689  11.013   9.514  0.2841  0.1983 -0.0215
 2230DPPE   C1A48617  12.541  10.944   9.069 -0.1908  0.1045 -0.1715
 2230DPPE   C2A48618  12.473  10.584   8.981  0.0052  0.1277 -0.3699
 2230DPPE   C3A48619  12.287  10.235   8.822  0.2488  0.1015  0.0920
 2230DPPE   C4A48620  11.991   9.941   8.705 -0.1063  0.1304 -0.0931
 2230DPPE   C1B48621  12.411  10.597   9.486 -0.0264 -0.1166 -0.1008
 2230DPPE   C2B48622  12.260  10.218   9.374 -0.1634 -0.0058  0.1447
 2230DPPE   C3B48623  12.292   9.822   9.184 -0.0364  0.0827 -0.0026
 2230DPPE   C4B48624  12.142   9.474   8.961  0.3211 -0.1032  0.2398
 2231DPPE   NH348625  15.244   1.625  15.326 -0.2379 -0.0651 -0.2815
 2231DPPE   PO448626  14.790   1.719  15.184  0.0277  0.3804  0.3697
 2231DPPE   GL148627  14.525   1.300  15.377 -0.2540 -0.0940  0.1530
 2231DPPE   GL248628  14.769   1.019  15.456 -0.1288 -0.0566  0.1484
 2231DPPE   C1A48629  14.143   0.989  15.342 -0.1858  0.1536  0.2290
 2231DPPE   C2A48630  13.985   0.777  14.945 -0.1217  0.0784  0.2689
 2231DPPE   C3A48631  13.803   0.923  14.623  0.0077 -0.1594 -0.1750
 2231DPPE   C4A48632  13.606   1.290  14.317 -0.2362 -0.1674  0.2060
 2231DPPE   C1B48633  14.516   0.720  15.563 -0.2700  0.0368  0.1013
 2231DPPE   C2B48634  14.376   0.357  15.823 -0.3401 -0.0788 -0.1559
 2231DPPE   C3B48635  14.293  -0.100  15.818  0.3840  0.0500 -0.1613
 2231DPPE   C4B48636  14.082  -0.539  16.195  0.0786 -0.2477  0.1273
 2232DPPE   NH348637  25.125  16.462  10.378  0.3091 -0.2349 -0.0151
 2232DPPE   PO448638  24.967  16.795  10.675  0.0601 -0.0823 -0.1401
 2232DPPE   GL148639  24.520  16.829  10.813 -0.1135 -0.2305 -0.2101
 2232DPPE   GL248640  24.434  16.511  10.853  0.2099 -0.1209  0.1842
 2232DPPE   C1A48641  24.136  16.934  10.979 -0.0477  0.1020 -0.1465
 2232DPPE   C2A48642  23.846  16.628  11.088  0.1885 -0.1808  0.0291
 2232DPPE   C3A48643  23.626  16.305  11.302 -0.0571  0.0774  0.1356
 2232DPPE   C4A48644  23.801  15.946  11.054  0.1444 -0.0878 -0.1217
 2232DPPE   C1B48645  24.069  16.322  10.761  0.2645  0.0335 -0.0410
 2232DPPE   C2B48646  23.535  16.308  10.753  0.2041  0.0018  0.2288
 2232DPPE   C3B48647  23.169  16.500  10.633  0.0516  0.0114  0.2148
 2232DPPE   C4B48648  22.916  16.428  10.333  0.2168 -0.1201 -0.3438
 2233DPPE   NH348649  14.719   3.491  13.974 -0.0939 -0.1544  0.4017
 2233DPPE   PO448650  14.694   3.806  13.755 -0.1425  0.2607  0.0398
 2233DPPE   GL148651  14.404   3.536  13.577 -0.0054  0.1956  0.1040
 2233DPPE   GL248652  14.089   3.502  13.699  0.1595  0.0234 -0.1463
 2233DPPE   C1A48653  14.263   3.215  13.301  0.1347 -0.0513  0.3884
 2233DPPE   C2A48654  14.129   2.992  12.831  0.1561 -0.1313  0.0128
 2233DPPE   C3A48655  14.008   2.561  12.497  0.0731 -0.0463  0.0815
 2233DPPE   C4A48656  13.860   2.100  12.498  0.0859  0.0483 -0.2663
 2233DPPE   C1B48657  13.867   3.203  13.629 -0.0111  0.4596  0.1073
 2233DPPE   C2B48658  13.667   2.876  13.675 -0.2847 -0.1836 -0.0804
 2233DPPE   C3B48659  13.449   2.599  13.480  0.1277  0.1233  0.0196
 2233DPPE   C4B48660  13.313   2.401  13.101  0.1957 -0.1436 -0.1795
 2234DPPE   NH348661  11.101  13.314  10.235 -0.2015  0.3473  0.1782
 2234DPPE   PO448662  11.225  13.668  10.134  0.1124  0.0447 -0.4371
 2234DPPE   GL148663  10.887  13.679   9.914  0.0142  0.0738 -0.1501
 2234DPPE   GL248664  11.055  13.861   9.660 -0.0699 -0.1824 -0.0406
 2234DPPE   C1A48665  10.538  13.877   9.712  0.0692  0.0151 -0.0902
 2234DPPE   C2A48666  10.260  13.733   9.325 -0.0432 -0.1577  0.0786
 2234DPPE   C3A48667   9.877  13.968   9.319  0.1587  0.2118 -0.0220
 2234DPPE   C4A48668   9.588  14.145   9.513 -0.3171  0.1725  0.1088
 2234DPPE   C1B48669  11.088  13.934   9.262 -0.1056 -0.0974 -0.3212
 2234DPPE   C2B48670  11.077  13.823   8.818  0.0764  0.0414 -0.0150
 2234DPPE   C3B48671  11.246  14.155   8.519 -0.2821  0.0658 -0.2446
 2234DPPE   C4B48672  11.184  14.235   7.976 -0.0510 -0.1140  0.1826
 2235DPPE   NH348673  23.810  10.775  17.829 -0.0760  0.1566  0.3097
 2235DPPE   PO448674  23.787  10.524  17.384  0.0832 -0.1556  0.0212
 2235DPPE   GL148675  24.155  10.253  17.446  0.2781 -0.0547 -0.0312
 2235DPPE   GL248676  24.264   9.888  17.349  0.0719 -0.1547 -0.2266
 2235DPPE   C1A48677  24.553  10.260  17.540 -0.3003  0.0556 -0.0001
 2235DPPE   C2A48678  24.850   9.958  17.359 -0.2100  0.2147 -0.0988
 2235DPPE   C3A48679  25.210   9.748  17.245 -0.0913  0.4242  0.3351
 2235DPPE   C4A48680  25.614   9.645  17.358 -0.1969  0.0844  0.1808
 2235DPPE   C1B48681  24.553   9.479  17.313 -0.1466  0.1322  0.2446
 2235DPPE   C2B48682  25.025   9.290  17.274  0.0440  0.0341  0.0126
 2235DPPE   C3B48683  25.432   9.204  17.246 -0.1272  0.2126 -0.2041
 2235DPPE   C4B48684  25.856   9.066  17.105 -0.3806  0.1496  0.1390
 2236DPPE   NH348685  12.526   2.788  16.411 -0.2464 -0.1176 -0.2463
 2236DPPE   PO448686  12.621   2.421  16.236 -0.2218  0.4925 -0.0082
 2236DPPE   GL148687  12.383   2.198  16.019  0.2816 -0.0232  0.2175
 2236DPPE   GL248688  12.126   2.425  16.105  0.1307  0.2352  0.3848
 2236DPPE   C1A48689  12.184   2.251  15.630  0.6322  0.0263 -0.0934
 2236DPPE   C2A48690  11.701   2.377  15.811 -0.1660 -0.0811 -0.2292
 2236DPPE   C3A48691  11.322   2.208  15.893  0.1519  0.0472 -0.4566
 2236DPPE   C4A48692  10.852   2.256  15.920 -0.2947  0.1866 -0.0964
 2236DPPE   C1B48693  11.973   2.024  16.227 -0.0321 -0.2938  0.1952
 2236DPPE   C2B48694  11.828   1.663  16.447 -0.0550 -0.2000 -0.1253
 2236DPPE   C3B48695  12.000   1.291  16.708  0.2389  0.2035  0.1311
 2236DPPE   C4B48696  11.864   0.777  16.756 -0.2671  0.0704 -0.2285
 2237DPPE   NH348697   9.592  15.586  24.504  0.0077 -0.0303  0.0679
 2237DPPE   PO448698   9.942  15.691  24.754 -0.0346 -0.2937  0.0448
 2237DPPE   GL148699  10.243  15.555  24.602 -0.0905 -0.0459  0.0317
 2237DPPE   GL248700  10.313  15.624  24.261 -0.1245 -0.1842 -0.2878
 2237DPPE   C1A48701  10.465  15.275  24.698  0.0156  0.1866  0.0107
 2237DPPE   C2A48702  10.859  15.135  24.746  0.0050 -0.0571  0.1730
 2237DPPE   C3A48703  11.331  15.206  24.705  0.3473  0.0812  0.0336
 2237DPPE   C4A48704  11.596  15.460  24.968  0.1899  0.0448 -0.1651
 2237DPPE   C1B48705  10.708  15.363  24.178  0.0103  0.0710  0.2335
 2237DPPE   C2B48706  10.979  15.260  23.754 -0.0047 -0.1120  0.0541
 2237DPPE   C3B48707  11.380  15.050  23.756  0.1078  0.2185  0.1087
 2237DPPE   C4B48708  11.894  15.223  23.729 -0.1301  0.1653 -0.2148
 2238DPPE   NH348709  18.844   2.539  24.318  0.0457 -0.1814 -0.0792
 2238DPPE   PO448710  19.177   2.230  24.220  0.1056 -0.1652  0.3073
 2238DPPE   GL148711  19.129   2.482  23.920  0.0104  0.3131 -0.1037
 2238DPPE   GL248712  19.288   2.385  23.655 -0.0930  0.0842 -0.3128
 2238DPPE   C1A48713  19.133   2.893  23.722 -0.1945  0.1372 -0.0577
 2238DPPE   C2A48714  19.313   2.706  23.246 -0.3455 -0.3507 -0.2065
 2238DPPE   C3A48715  19.447   2.612  22.886  0.0106  0.2452 -0.0633
 2238DPPE   C4A48716  19.375   2.850  22.485  0.0410 -0.0166 -0.2940
 2238DPPE   C1B48717  18.939   2.539  23.435 -0.2132 -0.1127 -0.2389
 2238DPPE   C2B48718  18.802   2.754  23.195  0.1552 -0.0601 -0.2352
 2238DPPE   C3B48719  18.593   3.117  22.819 -0.1161  0.1308 -0.0259
 2238DPPE   C4B48720  18.738   3.529  22.662 -0.1910  0.2364 -0.1093
 2239DPPE   NH348721  14.495   6.868  10.304 -0.1244  0.0741  0.1280
 2239DPPE   PO448722  14.309   6.363  10.287  0.0212  0.2085 -0.0181
 2239DPPE   GL148723  14.437   6.009  10.182  0.0118  0.1287  0.0960
 2239DPPE   GL248724  14.298   5.845  10.364 -0.0177  0.1345 -0.0222
 2239DPPE   C1A48725  14.424   5.549   9.998  0.2892 -0.2003  0.1291
 2239DPPE   C2A48726  14.366   5.279   9.600  0.0970 -0.0577 -0.0363
 2239DPPE   C3A48727  14.216   4.893   9.430  0.0311  0.3258 -0.0534
 2239DPPE   C4A48728  14.029   4.583   9.263  0.1054 -0.1174  0.0781
 2239DPPE   C1B48729  13.839   5.809  10.030 -0.0613  0.1712  0.0653
 2239DPPE   C2B48730  13.554   5.460   9.941  0.1317  0.1080  0.3834
 2239DPPE   C3B48731  13.276   5.219   9.626 -0.0137  0.1896 -0.0481
 2239DPPE   C4B48732  13.185   4.847   9.245 -0.1148  0.4171  0.1904
 2240DPPE   NH348733  26.120  12.073  23.387 -0.3394 -0.1209  0.2085
 2240DPPE   PO448734  25.675  12.096  23.543  0.0945  0.0678 -0.1315
 2240DPPE   GL148735  25.197  12.083  23.430 -0.0757 -0.0737  0.2708
 2240DPPE   GL248736  25.164  12.308  23.608 -0.2140 -0.3548  0.2670
 2240DPPE   C1A48737  24.995  12.372  23.105  0.1451 -0.2063 -0.1417
 2240DPPE   C2A48738  25.039  12.836  22.995  0.0176 -0.0749  0.2128
 2240DPPE   C3A48739  24.801  13.214  22.947 -0.1624 -0.2071  0.0693
 2240DPPE   C4A48740  24.822  13.538  22.595 -0.3190 -0.3288  0.1338
 2240DPPE   C1B48741  24.763  12.469  23.549  0.1020  0.0714 -0.1418
 2240DPPE   C2B48742  24.602  12.798  23.291 -0.6385  0.0383  0.4104
 2240DPPE   C3B48743  24.338  12.954  22.996  0.0687  0.1845  0.1199
 2240DPPE   C4B48744  24.106  12.606  22.616 -0.0901  0.2003  0.2292
 2241DPPE   NH348745  23.299   9.258   6.512  0.1646 -0.0465  0.2608
 2241DPPE   PO448746  23.616   9.580   6.523  0.0540  0.2313 -0.0547
 2241DPPE   GL148747  23.329   9.527   6.903  0.0802  0.0114  0.0543
 2241DPPE   GL248748  23.483   9.411   7.187  0.0029 -0.2036 -0.0854
 2241DPPE   C1A48749  23.032   9.672   7.186  0.2697  0.3937 -0.1367
 2241DPPE   C2A48750  22.896   9.636   7.609  0.1070 -0.1375 -0.1948
 2241DPPE   C3A48751  22.788   9.740   8.047 -0.0058 -0.2039  0.1616
 2241DPPE   C4A48752  23.109   9.823   8.359 -0.0982 -0.2971  0.1067
 2241DPPE   C1B48753  23.662   9.424   7.613 -0.1693  0.0332  0.1898
 2241DPPE   C2B48754  23.519   9.550   8.059  0.0212  0.0499 -0.2269
 2241DPPE   C3B48755  23.482   9.571   8.581 -0.1789  0.1652  0.0999
 2241DPPE   C4B48756  23.334   9.522   8.924  0.1977  0.3275 -0.1589
 2242DPPE   NH348757   9.333   6.760  16.782 -0.0044  0.1758  0.1444
 2242DPPE   PO448758   9.674   6.520  16.645  0.1451  0.1370  0.0350
 2242DPPE   GL148759   9.275   6.284  16.617  0.0073 -0.1773  0.1660
 2242DPPE   GL248760   9.188   6.019  16.799 -0.0955  0.1339  0.2286
 2242DPPE   C1A48761   9.116   6.124  16.223 -0.1321 -0.1185 -0.1390
 2242DPPE   C2A48762   8.843   5.746  16.049  0.1228 -0.0249  0.3525
 2242DPPE   C3A48763   8.600   5.386  15.886  0.0225  0.2523  0.2528
 2242DPPE   C4A48764   8.440   5.228  15.555 -0.3520 -0.2223 -0.2359
 2242DPPE   C1B48765   8.790   5.964  16.562 -0.2846 -0.1803 -0.0981
 2242DPPE   C2B48766   8.470   5.698  16.327 -0.1140 -0.1606  0.1126
 2242DPPE   C3B48767   8.091   5.842  16.409  0.0304 -0.0530 -0.0224
 2242DPPE   C4B48768   7.679   5.953  16.385  0.2061  0.0114 -0.0337
 2243DPPE   NH348769  10.402  16.111  15.357  0.1707 -0.0262 -0.0877
 2243DPPE   PO448770  10.208  16.039  14.961  0.1859  0.2113 -0.0974
 2243DPPE   GL148771   9.878  16.202  14.814 -0.0640 -0.1591 -0.4212
 2243DPPE   GL248772   9.771  16.075  14.450  0.3931 -0.0416  0.0171
 2243DPPE   C1A48773   9.828  16.555  14.571 -0.0836  0.0317  0.1248
 2243DPPE   C2A48774   9.609  16.894  14.366 -0.0695  0.0088 -0.0751
 2243DPPE   C3A48775   9.406  17.345  14.134  0.1903  0.1176  0.1391
 2243DPPE   C4A48776   9.200  17.747  13.990 -0.2062 -0.0887  0.0253
 2243DPPE   C1B48777   9.762  16.228  14.143 -0.1377  0.1724  0.2534
 2243DPPE   C2B48778   9.607  16.548  14.006  0.3396 -0.0622  0.3413
 2243DPPE   C3B48779   9.332  16.884  13.875  0.0942 -0.1200  0.1486
 2243DPPE   C4B48780   9.021  17.101  13.725 -0.0298  0.0832  0.2504
 2244DPPE   NH348781  10.792  15.733  18.364  0.1125  0.0740  0.0376
 2244DPPE   PO448782  10.464  15.862  18.635  0.0035 -0.0006  0.1855
 2244DPPE   GL148783  10.557  16.080  19.032 -0.1384 -0.1140  0.0596
 2244DPPE   GL248784  10.524  16.335  19.014  0.1808  0.1303 -0.1536
 2244DPPE   C1A48785  10.341  16.114  19.433  0.3106  0.0172  0.0240
 2244DPPE   C2A48786  10.001  16.403  19.605  0.3336 -0.3455  0.0030
 2244DPPE   C3A48787   9.655  16.616  19.473  0.0904 -0.1315 -0.2919
 2244DPPE   C4A48788   9.239  16.773  19.523  0.5498  0.0474  0.1261
 2244DPPE   C1B48789  10.148  16.625  19.088  0.2603  0.1726  0.0307
 2244DPPE   C2B48790   9.938  16.938  19.122  0.2543 -0.3516 -0.0526
 2244DPPE   C3B48791   9.701  17.171  18.815  0.1878 -0.0775  0.1506
 2244DPPE   C4B48792   9.609  17.577  18.797  0.0024  0.0035 -0.1113
 2245DPPE   NH348793  10.660  11.843   1.642  0.2785  0.0575 -0.0771
 2245DPPE   PO448794  10.880  11.503   1.533 -0.3645  0.1375  0.3936
 2245DPPE   GL148795  11.017  11.421   1.946  0.1206  0.1799 -0.0874
 2245DPPE   GL248796  11.417  11.388   2.149 -0.0877 -0.3016 -0.1609
 2245DPPE   C1A48797  10.991  11.147   2.285  0.2100  0.0987 -0.1463
 2245DPPE   C2A48798  10.933  10.750   2.396  0.0502 -0.0169  0.4957
 2245DPPE   C3A48799  11.063  10.423   2.766 -0.3521  0.0745  0.2416
 2245DPPE   C4A48800  11.006  10.118   3.103 -0.1401 -0.2646  0.2870
 2245DPPE   C1B48801  11.317  11.393   2.600  0.2400  0.1706  0.2461
 2245DPPE   C2B48802  11.563  11.452   2.975  0.1477 -0.1985 -0.3730
 2245DPPE   C3B48803  11.777  11.590   3.298  0.1583 -0.0776  0.1358
 2245DPPE   C4B48804  11.926  11.425   3.701  0.1345 -0.2838 -0.0985
 2246DPPE   NH348805   8.426  12.156  14.638  0.0786 -0.1139  0.3261
 2246DPPE   PO448806   8.569  12.028  14.255 -0.1413  0.1199  0.1036
 2246DPPE   GL148807   8.145  11.996  14.196  0.2304  0.0123 -0.2252
 2246DPPE   GL248808   7.916  11.715  14.265 -0.3521  0.1260 -0.1753
 2246DPPE   C1A48809   7.819  12.242  14.083 -0.0087  0.0361 -0.1434
 2246DPPE   C2A48810   7.455  12.418  14.269  0.0801  0.1815 -0.2753
 2246DPPE   C3A48811   7.046  12.600  14.448 -0.1086  0.0168  0.0816
 2246DPPE   C4A48812   6.647  12.698  14.396  0.0613 -0.1678  0.0171
 2246DPPE   C1B48813   7.574  11.738  14.059  0.0494 -0.0018  0.0919
 2246DPPE   C2B48814   7.107  11.765  14.204  0.0366 -0.4079  0.2676
 2246DPPE   C3B48815   6.648  11.836  14.155  0.2843  0.0758 -0.3064
 2246DPPE   C4B48816   6.415  11.544  13.872 -0.2655 -0.3743 -0.3452
 2247DPPE   NH348817  11.670   6.927  12.919 -0.4319  0.2268 -0.2186
 2247DPPE   PO448818  11.672   7.040  12.509 -0.0166 -0.2222 -0.0654
 2247DPPE   GL148819  11.463   6.994  12.119 -0.0728  0.0529  0.2688
 2247DPPE   GL248820  11.637   7.159  11.848 -0.0807 -0.1480 -0.4903
 2247DPPE   C1A48821  11.101   6.848  11.834 -0.3680 -0.0095 -0.3121
 2247DPPE   C2A48822  10.667   6.864  11.708  0.0219 -0.1492 -0.1605
 2247DPPE   C3A48823  10.459   7.224  11.850 -0.2540 -0.1789  0.1880
 2247DPPE   C4A48824  10.355   7.218  12.328 -0.1827 -0.0268  0.1659
 2247DPPE   C1B48825  11.560   6.746  11.646  0.4523 -0.0111 -0.1242
 2247DPPE   C2B48826  11.347   6.466  11.532  0.0751  0.1606  0.4570
 2247DPPE   C3B48827  11.040   6.078  11.462 -0.0378 -0.0077 -0.0441
 2247DPPE   C4B48828  10.764   5.827  11.619  0.3159  0.0438 -0.1400
 2248DPPE   NH348829  20.692  17.559  16.786 -0.0016 -0.0585  0.0378
 2248DPPE   PO448830  20.516  17.763  16.895 -0.0236 -0.1665  0.1288
 2248DPPE   GL148831  20.724  18.119  16.657  0.0300 -0.2616  0.1405
 2248DPPE   GL248832  20.876  18.034  16.502 -0.2319  0.0734 -0.0642
 2248DPPE   C1A48833  21.012  18.413  16.881 -0.1537 -0.3311  0.0139
 2248DPPE   C2A48834  21.052  18.758  17.132 -0.0574  0.0859  0.2385
 2248DPPE   C3A48835  21.236  19.134  17.213 -0.1787  0.0591  0.1230
 2248DPPE   C4A48836  21.422  19.450  17.591  0.1171  0.2508 -0.2558
 2248DPPE   C1B48837  21.229  18.202  16.495  0.2353  0.1435 -0.2684
 2248DPPE   C2B48838  21.460  18.517  16.289  0.1119 -0.0042 -0.3111
 2248DPPE   C3B48839  21.835  18.630  16.046  0.1998  0.2582 -0.2121
 2248DPPE   C4B48840  22.118  18.431  15.783  0.1301  0.1754  0.0764
 2249DPPE   NH348841  13.760  13.192   2.940 -0.1896 -0.0867  0.2135
 2249DPPE   PO448842  14.167  13.377   3.070  0.0648 -0.0359  0.2130
 2249DPPE   GL148843  14.046  13.138   3.348 -0.0266  0.0792  0.2136
 2249DPPE   GL248844  13.903  12.910   3.419  0.2068  0.1384  0.0677
 2249DPPE   C1A48845  14.123  13.110   3.784  0.1458 -0.1118 -0.1857
 2249DPPE   C2A48846  14.315  12.964   4.127  0.0256 -0.1449 -0.3347
 2249DPPE   C3A48847  14.418  13.023   4.465  0.0832 -0.0276 -0.0188
 2249DPPE   C4A48848  14.329  12.917   4.857  0.0188 -0.0943  0.0637
 2249DPPE   C1B48849  14.020  12.617   3.749 -0.2041 -0.1544 -0.0471
 2249DPPE   C2B48850  14.124  12.440   4.154 -0.1754 -0.2346  0.0192
 2249DPPE   C3B48851  14.091  11.991   4.338  0.0397 -0.0974  0.2881
 2249DPPE   C4B48852  14.046  11.784   4.846 -0.0081 -0.2347  0.3662
 2250DPPE   NH348853  12.564  11.630  10.070 -0.0571  0.0259  0.1137
 2250DPPE   PO448854  12.231  11.864   9.914  0.0534  0.1428 -0.0110
 2250DPPE   GL148855  11.815  11.924   9.709 -0.3301 -0.1943  0.2319
 2250DPPE   GL248856  11.669  12.195   9.715  0.1159  0.1213  0.0381
 2250DPPE   C1A48857  11.564  11.851   9.322  0.2491  0.2704 -0.2143
 2250DPPE   C2A48858  11.540  11.899   8.921  0.1828  0.1503  0.0902
 2250DPPE   C3A48859  11.523  11.949   8.511  0.1784  0.0337  0.2814
 2250DPPE   C4A48860  11.874  11.900   8.139  0.2036  0.2182 -0.1417
 2250DPPE   C1B48861  11.547  12.391   9.270 -0.2833 -0.0746  0.0097
 2250DPPE   C2B48862  11.316  12.365   8.942 -0.1317  0.1727  0.0256
 2250DPPE   C3B48863  11.154  12.371   8.523  0.3460 -0.3250  0.3849
 2250DPPE   C4B48864  11.197  12.188   8.224 -0.1949 -0.2610 -0.3934
 2251DPPE   NH348865   9.185  18.699  21.711 -0.1095 -0.1254  0.4217
 2251DPPE   PO448866   9.625  18.902  21.708  0.0352  0.2426 -0.1749
 2251DPPE   GL148867  10.031  18.681  21.692 -0.0302 -0.1626  0.0255
 2251DPPE   GL248868  10.347  18.841  21.766 -0.0966  0.0287 -0.3873
 2251DPPE   C1A48869  10.053  18.396  22.013  0.2068  0.0407  0.3377
 2251DPPE   C2A48870  10.275  17.980  22.107 -0.2661 -0.1235 -0.1148
 2251DPPE   C3A48871  10.523  17.656  21.874  0.0356  0.0434  0.0752
 2251DPPE   C4A48872  10.655  17.257  21.717  0.0865 -0.1261 -0.0199
 2251DPPE   C1B48873  10.502  18.411  21.746 -0.0290 -0.0912  0.1214
 2251DPPE   C2B48874  10.537  18.105  21.612 -0.0941  0.0284  0.1711
 2251DPPE   C3B48875  10.716  17.647  21.450 -0.0510  0.2647  0.1339
 2251DPPE   C4B48876  10.945  17.388  21.333  0.1148 -0.1725 -0.1822
 2252DPPE   NH348877  11.649   3.630  25.131  0.0717  0.2406  0.2753
 2252DPPE   PO448878  11.703   4.062  25.214  0.0846  0.1509  0.2721
 2252DPPE   GL148879  11.846   4.152  24.850  0.0307 -0.1166  0.1139
 2252DPPE   GL248880  11.627   3.897  24.687  0.1818  0.1747  0.0021
 2252DPPE   C1A48881  12.013   4.503  24.483  0.3691  0.0847 -0.1284
 2252DPPE   C2A48882  12.042   4.834  24.181 -0.0790 -0.1363  0.1118
 2252DPPE   C3A48883  12.176   4.944  23.789 -0.0188  0.0765 -0.1214
 2252DPPE   C4A48884  12.247   5.283  23.610 -0.0705 -0.1983 -0.0409
 2252DPPE   C1B48885  11.650   4.145  24.303  0.1255 -0.4047 -0.1007
 2252DPPE   C2B48886  11.826   4.397  23.897  0.0787  0.0093 -0.1496
 2252DPPE   C3B48887  11.989   4.606  23.451 -0.2186 -0.0802  0.0545
 2252DPPE   C4B48888  12.146   4.854  23.283 -0.3683 -0.0997 -0.0448
 2253DPPE   NH348889  17.096   6.299   9.799  0.1602 -0.0794  0.0113
 2253DPPE   PO448890  17.195   5.992  10.119 -0.1341 -0.1334 -0.0817
 2253DPPE   GL148891  17.220   5.825   9.729 -0.2474 -0.1733 -0.0629
 2253DPPE   GL248892  17.029   6.033   9.396  0.1916 -0.0686  0.0845
 2253DPPE   C1A48893  17.205   5.527   9.413 -0.0830  0.0318  0.0792
 2253DPPE   C2A48894  17.174   5.214   9.053 -0.0338 -0.1822  0.3055
 2253DPPE   C3A48895  16.973   5.462   8.706  0.0749  0.1017 -0.0150
 2253DPPE   C4A48896  16.957   5.720   8.201  0.1368  0.1072 -0.0469
 2253DPPE   C1B48897  16.672   6.075   9.168 -0.1896  0.0028  0.0441
 2253DPPE   C2B48898  16.372   6.168   8.821  0.4297  0.0511  0.4891
 2253DPPE   C3B48899  16.170   6.152   8.451  0.0771  0.1855 -0.2630
 2253DPPE   C4B48900  16.222   6.523   8.164 -0.2355 -0.2670  0.1331
 2254DPPE   NH348901   5.095  12.200  20.119 -0.4483  0.0410  0.0651
 2254DPPE   PO448902   5.340  12.101  20.495  0.2023 -0.0751  0.3628
 2254DPPE   GL148903   5.607  12.212  20.179  0.1887 -0.2016  0.2944
 2254DPPE   GL248904   5.505  12.481  19.967  0.2160  0.1338 -0.2257
 2254DPPE   C1A48905   5.855  11.968  19.906  0.1257  0.0902  0.0191
 2254DPPE   C2A48906   6.239  12.034  19.830  0.1298 -0.2126 -0.0800
 2254DPPE   C3A48907   6.622  11.755  19.967  0.0555 -0.1751  0.2107
 2254DPPE   C4A48908   6.852  11.507  19.718  0.1145 -0.1174  0.1774
 2254DPPE   C1B48909   5.772  12.881  19.864  0.0613 -0.2406 -0.2208
 2254DPPE   C2B48910   5.970  13.230  19.587 -0.2076  0.0646 -0.1716
 2254DPPE   C3B48911   6.342  13.538  19.569 -0.2244  0.0697 -0.2098
 2254DPPE   C4B48912   6.677  13.590  19.264 -0.3567 -0.1763  0.2822
 2255DPPE   NH348913  13.473  15.313   9.522  0.1702 -0.0026  0.1320
 2255DPPE   PO448914  13.471  15.060   9.208 -0.3605  0.4807 -0.3949
 2255DPPE   GL148915  13.407  15.318   8.955  0.3647 -0.3580  0.2295
 2255DPPE   GL248916  13.225  15.615   8.912  0.0220  0.2977  0.1795
 2255DPPE   C1A48917  13.491  15.383   8.489  0.2134 -0.0587  0.1718
 2255DPPE   C2A48918  13.640  15.510   8.038 -0.2799  0.3051  0.0452
 2255DPPE   C3A48919  13.969  15.445   7.640  0.0113  0.3054  0.0732
 2255DPPE   C4A48920  14.351  15.657   7.657 -0.1899  0.0901 -0.2494
 2255DPPE   C1B48921  13.044  15.857   8.565  0.0296  0.1498 -0.2122
 2255DPPE   C2B48922  12.940  16.149   8.330  0.3455 -0.1435  0.1793
 2255DPPE   C3B48923  12.575  16.369   8.270  0.1134 -0.0574  0.3414
 2255DPPE   C4B48924  12.272  16.389   8.492  0.1011 -0.1882  0.0657
 2256DPPE   NH348925  17.543  17.371  20.087  0.2540  0.0921 -0.1555
 2256DPPE   PO448926  17.727  17.368  19.715  0.2706  0.0093  0.0942
 2256DPPE   GL148927  17.823  17.769  20.095 -0.0523  0.0772  0.1470
 2256DPPE   GL248928  17.813  18.044  19.982 -0.2759  0.0398  0.1545
 2256DPPE   C1A48929  17.998  17.990  20.440  0.1420  0.1036  0.0296
 2256DPPE   C2A48930  17.948  18.401  20.474 -0.3342  0.0496  0.2171
 2256DPPE   C3A48931  17.780  18.691  20.762 -0.2089  0.1617  0.0305
 2256DPPE   C4A48932  17.613  19.084  20.678 -0.0083 -0.0213  0.1235
 2256DPPE   C1B48933  18.030  18.450  19.993 -0.1331 -0.0264  0.1842
 2256DPPE   C2B48934  18.377  18.699  19.924  0.1731  0.1609  0.0651
 2256DPPE   C3B48935  18.564  19.026  19.694 -0.0815  0.1321  0.2535
 2256DPPE   C4B48936  18.336  19.404  19.779 -0.1386  0.2413  0.0110
 2257DPPE   NH348937  12.011   6.935  12.118  0.2224 -0.1461 -0.1546
 2257DPPE   PO448938  12.295   6.834  11.826 -0.1884  0.2113  0.1922
 2257DPPE   GL148939  12.021   6.811  11.455 -0.2901  0.5166 -0.1235
 2257DPPE   GL248940  12.141   6.881  11.157  0.4338 -0.1420  0.3111
 2257DPPE   C1A48941  11.769   6.513  11.264 -0.1759  0.1922  0.2321
 2257DPPE   C2A48942  11.459   6.421  10.978  0.1634 -0.1821  0.2298
 2257DPPE   C3A48943  11.059   6.409  11.139 -0.1606 -0.0585  0.1509
 2257DPPE   C4A48944  10.696   6.316  11.165 -0.1105  0.1271  0.3080
 2257DPPE   C1B48945  11.871   6.699  10.798  0.1293  0.1133  0.0426
 2257DPPE   C2B48946  12.067   6.375  10.481  0.0457  0.4487 -0.1667
 2257DPPE   C3B48947  12.187   6.164  10.067 -0.0381 -0.1760 -0.3208
 2257DPPE   C4B48948  12.136   5.985   9.717  0.2796  0.2197 -0.6533
 2258DPPE   NH348949   8.286  14.586   5.291  0.2056 -0.2339 -0.2204
 2258DPPE   PO448950   8.305  14.393   5.666 -0.1451 -0.0811  0.0411
 2258DPPE   GL148951   8.490  14.262   6.023  0.1363 -0.0350 -0.3862
 2258DPPE   GL248952   8.753  14.379   6.152  0.2362 -0.2379 -0.0147
 2258DPPE   C1A48953   8.689  13.935   5.908  0.1877  0.1548  0.1405
 2258DPPE   C2A48954   8.960  13.463   6.133  0.0943  0.1319  0.2586
 2258DPPE   C3A48955   9.161  13.181   6.509 -0.0685  0.2725 -0.0724
 2258DPPE   C4A48956   9.036  12.681   6.665  0.2021  0.0358 -0.0101
 2258DPPE   C1B48957   8.837  13.982   6.398  0.1172  0.0329  0.0563
 2258DPPE   C2B48958   8.974  13.631   6.618  0.0100  0.0952 -0.1819
 2258DPPE   C3B48959   9.250  13.599   7.031 -0.3823 -0.0704  0.0640
 2258DPPE   C4B48960   9.393  13.455   7.525 -0.1456 -0.0528  0.0017
 2259DPPE   NH348961  22.304   1.718   8.645  0.1003  0.1199 -0.2180
 2259DPPE   PO448962  22.054   1.544   8.816 -0.0782 -0.2411 -0.2921
 2259DPPE   GL148963  22.023   1.759   9.243 -0.2483  0.1786  0.0054
 2259DPPE   GL248964  22.096   1.623   9.493 -0.1022  0.2169  0.2255
 2259DPPE   C1A48965  21.894   2.112   9.502  0.0986 -0.1311  0.1635
 2259DPPE   C2A48966  21.542   2.062   9.804  0.2322 -0.0543 -0.4271
 2259DPPE   C3A48967  21.196   1.881   9.981  0.1798 -0.0858 -0.2067
 2259DPPE   C4A48968  20.813   1.778  10.190  0.1367 -0.1158 -0.1526
 2259DPPE   C1B48969  22.006   1.877   9.913 -0.0718 -0.1150  0.0566
 2259DPPE   C2B48970  21.736   2.034  10.208  0.1592 -0.1689  0.1990
 2259DPPE   C3B48971  21.535   2.413  10.261 -0.2939 -0.2185  0.4118
 2259DPPE   C4B48972  21.439   2.830  10.057  0.2649 -0.1359  0.1799
 2260DPPE   NH348973  16.142  36.317   3.062  0.0986 -0.0800 -0.2544
 2260DPPE   PO448974  16.102  36.017   3.424 -0.0138  0.0179  0.0049
 2260DPPE   GL148975  16.087  36.392   3.577  0.1264  0.2176 -0.4843
 2260DPPE   GL248976  15.817  36.570   3.511 -0.1409  0.2664 -0.1019
 2260DPPE   C1A48977  16.215  36.453   3.992  0.0041  0.2240  0.1556
 2260DPPE   C2A48978  16.001  36.596   4.340  0.1103 -0.0886  0.1699
 2260DPPE   C3A48979  15.832  37.054   4.640  0.0071  0.1962  0.1079
 2260DPPE   C4A48980  15.501  37.281   4.846  0.1122 -0.1966  0.1345
 2260DPPE   C1B48981  15.833  36.809   3.893 -0.1713 -0.0131  0.2079
 2260DPPE   C2B48982  16.105  37.190   4.015  0.1320  0.2788 -0.0223
 2260DPPE   C3B48983  16.049  37.618   4.018  0.0739 -0.0537  0.0472
 2260DPPE   C4B48984  16.109  37.850   4.351  0.1969 -0.1331 -0.0853
 2261DPPE   NH348985  13.559   3.547  14.482 -0.2533 -0.1766 -0.3345
 2261DPPE   PO448986  13.167   3.725  14.367  0.4525 -0.0206  0.3383
 2261DPPE   GL148987  12.960   3.511  14.048 -0.2297 -0.2457  0.0249
 2261DPPE   GL248988  12.652   3.572  14.003  0.3978  0.1835  0.2681
 2261DPPE   C1A48989  12.632   3.066  14.008  0.1648  0.3484  0.0573
 2261DPPE   C2A48990  12.431   2.805  13.658 -0.5025  0.1750 -0.1538
 2261DPPE   C3A48991  12.459   2.407  13.615 -0.2249  0.3130 -0.1582
 2261DPPE   C4A48992  12.462   2.071  13.884 -0.1108  0.1895 -0.0602
 2261DPPE   C1B48993  12.437   3.355  14.354  0.0854 -0.0517 -0.2325
 2261DPPE   C2B48994  12.356   3.040  14.685 -0.1485  0.0694 -0.0018
 2261DPPE   C3B48995  12.170   2.627  14.717 -0.1351  0.2354 -0.0353
 2261DPPE   C4B48996  12.022   2.142  14.687 -0.2309 -0.3577 -0.2566
 2262DPPE   NH348997   8.996  12.618   2.718  0.0811 -0.0193  0.0659
 2262DPPE   PO448998   8.920  12.169   2.491  0.2281 -0.0754 -0.2895
 2262DPPE   GL148999   9.207  12.021   2.697  0.1659 -0.0390 -0.0128
 2262DPPE   GL249000   9.258  12.275   2.947 -0.0361  0.5350  0.1977
 2262DPPE   C1A49001   9.442  11.704   2.880  0.1649 -0.2050  0.2299
 2262DPPE   C2A49002   9.614  11.395   2.845  0.0755  0.1073  0.1201
 2262DPPE   C3A49003   9.709  11.010   3.083 -0.1826 -0.0782  0.1674
 2262DPPE   C4A49004   9.893  10.784   3.427 -0.1064 -0.0387  0.2420
 2262DPPE   C1B49005   9.247  12.193   3.395  0.3912 -0.4256 -0.2725
 2262DPPE   C2B49006   9.579  12.256   3.880 -0.0211 -0.3106  0.1140
 2262DPPE   C3B49007   9.718  12.307   4.259  0.0492  0.0652 -0.2209
 2262DPPE   C4B49008   9.629  12.629   4.601 -0.2540  0.1983 -0.0939
 2263DPPE   NH349009  18.545   7.495   9.032  0.1899  0.0875  0.2891
 2263DPPE   PO449010  18.027   7.432   8.977 -0.3940 -0.1129 -0.1425
 2263DPPE   GL149011  18.114   7.310   8.572  0.4427 -0.1095 -0.0811
 2263DPPE   GL249012  18.348   7.219   8.576 -0.3025  0.1467 -0.2012
 2263DPPE   C1A49013  18.129   6.952   8.254  0.0878  0.1870  0.0631
 2263DPPE   C2A49014  18.352   6.588   8.010 -0.3412  0.0655 -0.1799
 2263DPPE   C3A49015  18.348   6.586   7.569 -0.3948  0.2262 -0.2717
 2263DPPE   C4A49016  18.650   6.324   7.319 -0.2133  0.0479 -0.0294
 2263DPPE   C1B49017  18.538   7.308   8.174  0.0307  0.1519 -0.0921
 2263DPPE   C2B49018  18.775   7.564   7.899  0.0090 -0.1581  0.3387
 2263DPPE   C3B49019  18.869   7.449   7.640 -0.0077 -0.0684  0.4965
 2263DPPE   C4B49020  18.821   7.375   7.199  0.1377 -0.0207  0.2999
 2264DPPE   NH349021  10.389   8.159  13.575  0.1910  0.0567  0.1285
 2264DPPE   PO449022  10.479   8.155  14.010 -0.3243 -0.0482  0.0429
 2264DPPE   GL149023   9.960   8.021  13.866 -0.2550 -0.1560 -0.0949
 2264DPPE   GL249024   9.621   7.941  14.107 -0.4661 -0.0117  0.0810
 2264DPPE   C1A49025   9.658   8.084  13.551  0.1924  0.3313 -0.0583
 2264DPPE   C2A49026   9.257   8.045  13.299  0.2410 -0.1981  0.0139
 2264DPPE   C3A49027   8.837   7.749  13.125 -0.0937 -0.1688 -0.0771
 2264DPPE   C4A49028   8.575   7.313  13.187 -0.3103  0.1424 -0.0555
 2264DPPE   C1B49029   9.301   7.837  13.876  0.4502  0.0596  0.0649
 2264DPPE   C2B49030   8.931   7.874  13.642  0.0151 -0.2630  0.1956
 2264DPPE   C3B49031   8.462   8.086  13.632 -0.2035 -0.3257  0.0198
 2264DPPE   C4B49032   8.312   8.412  13.430 -0.2462 -0.0528 -0.2562
 2265DPPE   NH349033  12.164  20.741  11.049  0.1730 -0.3199  0.0342
 2265DPPE   PO449034  12.518  20.952  11.119  0.1322  0.1879  0.0377
 2265DPPE   GL149035  12.517  20.629  11.373 -0.2056  0.0047  0.1996
 2265DPPE   GL249036  12.897  20.613  11.568  0.0539  0.1105 -0.1927
 2265DPPE   C1A49037  12.239  20.347  11.697 -0.4132 -0.2524 -0.1936
 2265DPPE   C2A49038  12.277  19.935  11.500 -0.2145 -0.1317 -0.1299
 2265DPPE   C3A49039  12.306  19.542  11.550 -0.2643  0.2081  0.2029
 2265DPPE   C4A49040  12.336  19.206  11.310 -0.2608  0.3500  0.3149
 2265DPPE   C1B49041  12.732  20.220  11.513 -0.1948  0.3353 -0.2408
 2265DPPE   C2B49042  12.743  19.809  11.687  0.0444 -0.1762  0.0291
 2265DPPE   C3B49043  12.952  19.464  11.992 -0.2104  0.0180 -0.4381
 2265DPPE   C4B49044  13.205  19.504  12.342  0.0321  0.1073 -0.1281
 2266DPPE   NH349045   5.703   0.251   8.588 -0.1893 -0.1631 -0.1135
 2266DPPE   PO449046   5.631   0.509   8.331 -0.0846  0.1302  0.0453
 2266DPPE   GL149047   5.937   0.720   8.682  0.0401 -0.2373  0.0679
 2266DPPE   GL249048   6.217   0.518   8.855  0.1971 -0.1461  0.0750
 2266DPPE   C1A49049   6.107   1.083   8.818 -0.0397  0.0755 -0.3178
 2266DPPE   C2A49050   6.358   1.302   9.142 -0.3169  0.1418 -0.0406
 2266DPPE   C3A49051   6.552   1.584   9.294  0.2186 -0.0237  0.1496
 2266DPPE   C4A49052   6.807   1.694   9.686 -0.0124  0.0281 -0.0649
 2266DPPE   C1B49053   6.530   0.390   8.660  0.0209 -0.0964  0.1320
 2266DPPE   C2B49054   6.948   0.429   8.656  0.1939  0.0834 -0.0645
 2266DPPE   C3B49055   7.275   0.500   9.024 -0.0092 -0.0954 -0.3315
 2266DPPE   C4B49056   7.436   0.796   9.222  0.2946 -0.0767 -0.2060
 2267DPPE   NH349057  11.203   5.606  16.360 -0.2241 -0.0830 -0.0476
 2267DPPE   PO449058  10.848   5.441  16.120 -0.1100 -0.1194  0.3021
 2267DPPE   GL149059  10.638   5.280  15.825  0.0384  0.0774  0.1213
 2267DPPE   GL249060  10.781   5.050  15.757  0.0492  0.0782  0.1807
 2267DPPE   C1A49061  10.201   5.175  15.894 -0.1405 -0.1278 -0.2330
 2267DPPE   C2A49062   9.722   5.146  15.703 -0.1823 -0.0310 -0.0946
 2267DPPE   C3A49063   9.476   4.956  15.347  0.1154  0.0949 -0.3678
 2267DPPE   C4A49064   9.578   4.883  14.889 -0.2166  0.1440 -0.1346
 2267DPPE   C1B49065  10.730   4.930  15.467 -0.1350  0.3290  0.0206
 2267DPPE   C2B49066  10.488   4.699  15.207  0.2084  0.4221 -0.0718
 2267DPPE   C3B49067  10.254   4.313  15.254 -0.0751  0.0258  0.1933
 2267DPPE   C4B49068   9.870   4.216  15.096  0.0008 -0.0649 -0.3135
 2268DPPE   NH349069  23.088  12.805  25.847  0.0704  0.4039  0.2962
 2268DPPE   PO449070  22.637  12.597  25.897  0.1849  0.2985 -0.1181
 2268DPPE   GL149071  22.302  12.450  25.797  0.1327 -0.2997  0.2591
 2268DPPE   GL249072  22.269  12.238  25.623 -0.2513  0.3719 -0.0070
 2268DPPE   C1A49073  21.887  12.606  25.633  0.3766 -0.0391  0.3229
 2268DPPE   C2A49074  21.549  12.940  25.506 -0.1961 -0.0024 -0.0913
 2268DPPE   C3A49075  21.476  13.271  25.603  0.0058  0.0044  0.0192
 2268DPPE   C4A49076  21.127  13.442  25.819  0.0910  0.1215  0.0054
 2268DPPE   C1B49077  21.894  11.962  25.384  0.0471 -0.0350 -0.2894
 2268DPPE   C2B49078  21.686  11.697  25.095 -0.2606 -0.2945 -0.1328
 2268DPPE   C3B49079  21.273  11.556  25.022  0.0229 -0.1371  0.0955
 2268DPPE   C4B49080  21.003  11.494  25.398  0.5753 -0.0270  0.0994
 2269DPPE   NH349081  13.202   6.876  11.315  0.0271  0.1511 -0.0902
 2269DPPE   PO449082  13.081   6.595  11.669  0.1958  0.3412  0.1587
 2269DPPE   GL149083  12.984   6.360  11.356  0.0213  0.2283 -0.1247
 2269DPPE   GL249084  13.164   6.354  11.106  0.1516  0.1634 -0.4348
 2269DPPE   C1A49085  12.761   6.081  11.185 -0.1752  0.0620 -0.1386
 2269DPPE   C2A49086  12.444   5.968  10.972 -0.0843 -0.0795 -0.2532
 2269DPPE   C3A49087  12.228   5.610  10.870 -0.1340  0.0709  0.0573
 2269DPPE   C4A49088  11.759   5.573  10.914  0.1883 -0.0882  0.0908
 2269DPPE   C1B49089  12.904   6.536  10.786 -0.1034 -0.1927 -0.1594
 2269DPPE   C2B49090  12.569   6.300  10.520 -0.3094  0.0324  0.0566
 2269DPPE   C3B49091  12.398   5.957  10.501 -0.0388 -0.0604  0.1927
 2269DPPE   C4B49092  12.156   5.710  10.120 -0.2973 -0.2486 -0.1698
 2270DPPE   NH349093  17.446  14.210  23.460 -0.0985 -0.2617 -0.1012
 2270DPPE   PO449094  17.775  14.063  23.720 -0.0558 -0.2271 -0.0832
 2270DPPE   GL149095  17.953  14.275  24.056  0.1559 -0.3519 -0.0294
 2270DPPE   GL249096  18.247  14.215  23.875 -0.0183  0.0590 -0.0888
 2270DPPE   C1A49097  17.825  14.469  24.423  0.1512 -0.1002 -0.3256
 2270DPPE   C2A49098  17.991  14.749  24.732 -0.0221  0.1152  0.0658
 2270DPPE   C3A49099  17.703  14.874  25.076 -0.0261 -0.1270  0.1401
 2270DPPE   C4A49100  17.462  14.968  25.365 -0.4021  0.2198 -0.0318
 2270DPPE   C1B49101  18.455  14.459  24.152 -0.2210  0.0038  0.0085
 2270DPPE   C2B49102  18.498  14.501  24.577 -0.1183 -0.3267 -0.2108
 2270DPPE   C3B49103  18.808  14.633  24.848  0.2939 -0.0490 -0.2429
 2270DPPE   C4B49104  18.925  14.883  25.121  0.1148  0.3240  0.2779
 2271DPPE   NH349105  12.738   7.694  11.316  0.4491  0.2596  0.3009
 2271DPPE   PO449106  12.985   7.441  11.381 -0.0770  0.1599 -0.1032
 2271DPPE   GL149107  12.820   7.177  11.112  0.0255  0.2172  0.1086
 2271DPPE   GL249108  13.048   7.001  10.828  0.1152 -0.0059  0.3714
 2271DPPE   C1A49109  12.513   7.014  10.787 -0.4655 -0.2661  0.1974
 2271DPPE   C2A49110  12.286   6.840  10.438 -0.3017  0.0094 -0.0939
 2271DPPE   C3A49111  12.052   6.702  10.074  0.2427 -0.2547  0.2335
 2271DPPE   C4A49112  11.705   6.412  10.085  0.0229 -0.0612 -0.2924
 2271DPPE   C1B49113  12.788   6.844  10.455 -0.2111 -0.1041  0.0031
 2271DPPE   C2B49114  12.645   6.493  10.077 -0.1817  0.1256  0.0173
 2271DPPE   C3B49115  12.402   6.456   9.715  0.1871 -0.1744  0.0015
 2271DPPE   C4B49116  11.939   6.456   9.609  0.1935 -0.1949 -0.0613
 2272DPPE   NH349117  15.091  10.496   8.654 -0.1609 -0.0538  0.0665
 2272DPPE   PO449118  15.281  10.551   8.143  0.4044 -0.2941  0.1846
 2272DPPE   GL149119  15.378  10.213   7.733  0.1668 -0.1996 -0.2257
 2272DPPE   GL249120  15.499  10.386   7.362  0.0252 -0.2293  0.3874
 2272DPPE   C1A49121  15.452   9.919   7.472 -0.0993 -0.1813  0.0698
 2272DPPE   C2A49122  15.632   9.850   7.124 -0.2467 -0.0779  0.0764
 2272DPPE   C3A49123  15.673   9.653   6.722 -0.0001 -0.1498 -0.0842
 2272DPPE   C4A49124  15.614   9.391   6.339 -0.0622  0.3440 -0.2480
 2272DPPE   C1B49125  15.422  10.310   7.021  0.1591  0.2493  0.2048
 2272DPPE   C2B49126  15.097  10.382   6.798 -0.0030 -0.0329  0.1458
 2272DPPE   C3B49127  14.780  10.186   6.606  0.0096 -0.2680 -0.1156
 2272DPPE   C4B49128  14.458  10.207   6.287 -0.0392 -0.0536  0.1056
 2273DPPE   NH349129   8.216  19.557  16.012  0.1510 -0.2437  0.1861
 2273DPPE   PO449130   8.308  19.703  16.494 -0.0792 -0.0569  0.2202
 2273DPPE   GL149131   8.403  19.324  16.576  0.1978  0.0263 -0.1929
 2273DPPE   GL249132   8.160  19.127  16.344 -0.1272 -0.0865 -0.2413
 2273DPPE   C1A49133   8.696  19.017  16.691  0.0964 -0.0186  0.0557
 2273DPPE   C2A49134   9.025  19.104  16.874  0.2152 -0.1077 -0.1781
 2273DPPE   C3A49135   9.449  18.975  17.124 -0.0942  0.3571 -0.0071
 2273DPPE   C4A49136   9.743  18.684  17.158  0.0385  0.0151 -0.0394
 2273DPPE   C1B49137   8.290  18.761  16.507  0.0371 -0.0952  0.1814
 2273DPPE   C2B49138   8.462  18.561  16.932 -0.0365  0.0191  0.2025
 2273DPPE   C3B49139   8.097  18.326  17.282  0.1759  0.3723  0.2253
 2273DPPE   C4B49140   7.776  18.041  17.123  0.3079  0.1692 -0.0158
 2274DPPE   NH349141  21.639  19.890  21.563 -0.2018 -0.1445 -0.0497
 2274DPPE   PO449142  21.334  19.841  21.982  0.1842  0.0143 -0.2456
 2274DPPE   GL149143  21.344  19.547  21.741 -0.1381 -0.2435 -0.0533
 2274DPPE   GL249144  21.649  19.355  21.736 -0.0499 -0.2579 -0.2672
 2274DPPE   C1A49145  21.318  19.350  21.332  0.0437  0.2160  0.0902
 2274DPPE   C2A49146  21.117  19.047  21.147 -0.3354  0.0034 -0.4296
 2274DPPE   C3A49147  21.114  18.653  21.041 -0.0609  0.1472  0.0407
 2274DPPE   C4A49148  21.006  18.183  21.113  0.0080 -0.2741  0.2364
 2274DPPE   C1B49149  21.417  18.944  21.561 -0.1627 -0.2327  0.1300
 2274DPPE   C2B49150  21.343  18.512  21.492 -0.2200  0.0037 -0.1922
 2274DPPE   C3B49151  21.342  18.060  21.468 -0.2484  0.3002 -0.0074
 2274DPPE   C4B49152  21.083  17.818  21.445  0.2895 -0.2413 -0.1656
 2275DPPE   NH349153  10.584  15.616  12.588 -0.0133  0.1214  0.0485
 2275DPPE   PO449154  10.533  15.182  12.484  0.0379  0.1335 -0.3047
 2275DPPE   GL149155  10.138  15.436  12.303  0.0148 -0.0744  0.1477
 2275DPPE   GL249156  10.383  15.555  12.116  0.0217  0.2332  0.1661
 2275DPPE   C1A49157   9.857  15.614  12.032  0.0094  0.0664 -0.2498
 2275DPPE   C2A49158   9.615  15.980  11.918  0.3803 -0.0676  0.1619
 2275DPPE   C3A49159   9.526  16.425  12.078 -0.0576  0.2561 -0.1509
 2275DPPE   C4A49160   9.693  16.830  12.086  0.1649  0.2381 -0.1564
 2275DPPE   C1B49161  10.237  15.792  11.824  0.0983 -0.0961 -0.2014
 2275DPPE   C2B49162  10.054  16.062  11.592  0.0278 -0.0249 -0.0482
 2275DPPE   C3B49163   9.693  16.376  11.484 -0.1592 -0.0083 -0.0181
 2275DPPE   C4B49164   9.648  16.683  11.088 -0.3090 -0.0469  0.0358
 2276DPPE   NH349165  14.006  18.154  14.007 -0.3453  0.1067 -0.0741
 2276DPPE   PO449166  13.650  18.188  14.281 -0.1314 -0.1019  0.0572
 2276DPPE   GL149167  13.288  18.455  14.229 -0.0459 -0.1108 -0.0683
 2276DPPE   GL249168  13.226  18.411  13.927 -0.2915 -0.2420 -0.3100
 2276DPPE   C1A49169  12.950  18.807  14.071 -0.1795 -0.2168  0.3383
 2276DPPE   C2A49170  12.628  19.029  13.846 -0.0946 -0.1949 -0.2807
 2276DPPE   C3A49171  12.285  19.398  13.899  0.1914 -0.0394  0.0891
 2276DPPE   C4A49172  11.862  19.628  13.879 -0.2335 -0.0219  0.3523
 2276DPPE   C1B49173  13.241  18.712  13.594 -0.1646  0.2040  0.1796
 2276DPPE   C2B49174  13.428  19.049  13.393 -0.0510 -0.0169 -0.0410
 2276DPPE   C3B49175  13.330  19.408  13.287  0.1947  0.0169  0.1086
 2276DPPE   C4B49176  13.338  19.806  13.063 -0.0933 -0.0028  0.0651
 2277DPPE   NH349177   8.991  12.915  12.570  0.1805  0.1162  0.3680
 2277DPPE   PO449178   9.344  12.455  12.633 -0.0812  0.0448  0.0892
 2277DPPE   GL149179   8.886  12.406  12.613  0.2776 -0.0798 -0.1271
 2277DPPE   GL249180   8.699  12.237  12.892  0.0446  0.0076 -0.3393
 2277DPPE   C1A49181   8.611  12.397  12.324  0.0707 -0.1854 -0.1987
 2277DPPE   C2A49182   8.196  12.525  12.186 -0.0544  0.3645  0.0339
 2277DPPE   C3A49183   7.861  12.700  12.004  0.3557  0.0384 -0.0379
 2277DPPE   C4A49184   7.345  12.729  12.048 -0.1811  0.1063  0.0902
 2277DPPE   C1B49185   8.347  12.280  12.729  0.0353  0.1198  0.2030
 2277DPPE   C2B49186   8.023  12.475  12.664 -0.1882  0.0833 -0.2554
 2277DPPE   C3B49187   7.700  12.594  12.438 -0.2404 -0.0378  0.0344
 2277DPPE   C4B49188   7.217  12.498  12.497 -0.3108  0.0810 -0.1890
 2278DPPE   NH349189  18.450   2.074  11.121 -0.4677  0.1546  0.2354
 2278DPPE   PO449190  18.574   2.615  11.040 -0.3965  0.1922 -0.4625
 2278DPPE   GL149191  18.429   2.432  10.686 -0.0231  0.0990 -0.0847
 2278DPPE   GL249192  18.633   2.327  10.638  0.0320  0.2028 -0.0503
 2278DPPE   C1A49193  18.096   2.290  10.430  0.1127  0.1180  0.1511
 2278DPPE   C2A49194  17.838   2.356  10.055  0.1227 -0.0821  0.1871
 2278DPPE   C3A49195  17.714   2.545   9.740 -0.3376  0.1991 -0.0936
 2278DPPE   C4A49196  17.528   2.831   9.468 -0.5448  0.0302  0.1959
 2278DPPE   C1B49197  18.616   2.106  10.227  0.0275  0.0501  0.1046
 2278DPPE   C2B49198  18.974   1.769   9.998 -0.0913  0.0282 -0.0889
 2278DPPE   C3B49199  19.186   1.594   9.685  0.0527 -0.1379  0.1301
 2278DPPE   C4B49200  19.453   1.538   9.401 -0.0453  0.1219  0.0886
 2279DPPE   NH349201  11.403   7.511  12.370  0.0311  0.1341 -0.0742
 2279DPPE   PO449202  11.620   7.740  12.028  0.1425  0.0119  0.0891
 2279DPPE   GL149203  11.300   7.780  11.800  0.2891  0.0414  0.0751
 2279DPPE   GL249204  11.337   7.974  11.457  0.1976  0.2159  0.0485
 2279DPPE   C1A49205  10.889   7.774  11.616 -0.2691 -0.1711 -0.3559
 2279DPPE   C2A49206  10.446   7.584  11.521 -0.2915  0.5184  0.0488
 2279DPPE   C3A49207  10.297   7.149  11.424  0.2690  0.0556  0.0107
 2279DPPE   C4A49208  10.412   6.654  11.373 -0.1448 -0.0481 -0.0293
 2279DPPE   C1B49209  11.133   7.987  11.046 -0.0196  0.0024 -0.1213
 2279DPPE   C2B49210  10.962   7.834  10.792 -0.2423  0.1803 -0.0291
 2279DPPE   C3B49211  10.843   7.480  10.660  0.3527 -0.1340  0.2392
 2279DPPE   C4B49212  11.119   7.241  10.890  0.0442  0.2383  0.4342
 2280DPPE   NH349213  11.198   9.204  11.870  0.2170 -0.0045  0.2331
 2280DPPE   PO449214  11.286   8.678  12.019  0.1050  0.1897 -0.3536
 2280DPPE   GL149215  11.111   8.290  11.885  0.1377  0.2317 -0.0418
 2280DPPE   GL249216  10.908   8.211  12.023  0.1535  0.2182 -0.0456
 2280DPPE   C1A49217  10.882   8.267  11.489 -0.0801  0.1438  0.0743
 2280DPPE   C2A49218  10.672   8.087  11.207  0.2345 -0.0486 -0.2479
 2280DPPE   C3A49219  10.441   7.744  10.985 -0.1788  0.0931 -0.0180
 2280DPPE   C4A49220  10.355   7.593  10.593 -0.0362 -0.0436 -0.1002
 2280DPPE   C1B49221  10.545   8.275  11.828 -0.1295 -0.3442  0.1131
 2280DPPE   C2B49222  10.274   8.053  11.533 -0.0002  0.2207 -0.0284
 2280DPPE   C3B49223  10.013   7.749  11.397 -0.2438 -0.1171 -0.2820
 2280DPPE   C4B49224   9.821   7.352  11.370 -0.2578  0.0045 -0.2036
 2281DPPE   NH349225  19.213  11.564  23.795 -0.1507 -0.0561 -0.3166
 2281DPPE   PO449226  19.335  11.836  23.492 -0.3004 -0.1823  0.1650
 2281DPPE   GL149227  19.287  12.121  23.829 -0.0038  0.2511  0.5112
 2281DPPE   GL249228  19.470  12.408  23.877  0.0691  0.1293  0.2725
 2281DPPE   C1A49229  19.292  12.211  24.256 -0.2435  0.3310 -0.0508
 2281DPPE   C2A49230  19.537  12.504  24.443  0.1114 -0.2097 -0.0370
 2281DPPE   C3A49231  19.547  12.805  24.753  0.0415 -0.0901 -0.1019
 2281DPPE   C4A49232  19.949  13.045  24.847 -0.2439 -0.0885  0.0269
 2281DPPE   C1B49233  19.266  12.762  24.079 -0.0686  0.1644  0.0121
 2281DPPE   C2B49234  19.326  13.142  24.294  0.0113 -0.1884 -0.1496
 2281DPPE   C3B49235  19.344  13.507  24.419 -0.2033 -0.0604 -0.1208
 2281DPPE   C4B49236  19.168  13.726  24.764  0.3389 -0.1623  0.1988
 2282DPPE   NH349237  23.196  36.032  14.581  0.2940 -0.0188 -0.0796
 2282DPPE   PO449238  22.735  35.927  14.677 -0.1828  0.1134 -0.0247
 2282DPPE   GL149239  22.441  36.245  14.540  0.2747 -0.3267  0.1427
 2282DPPE   GL249240  22.145  36.288  14.673 -0.2478 -0.0073  0.0540
 2282DPPE   C1A49241  22.200  36.666  14.312 -0.1751  0.2211  0.1578
 2282DPPE   C2A49242  21.902  36.805  13.898  0.0985 -0.1107  0.1090
 2282DPPE   C3A49243  21.679  37.126  13.799  0.2560 -0.3061 -0.2309
 2282DPPE   C4A49244  21.335  37.341  13.764  0.2365 -0.1065 -0.0392
 2282DPPE   C1B49245  21.767  36.456  14.421 -0.0667 -0.1550  0.0017
 2282DPPE   C2B49246  21.486  36.714  14.128 -0.4162 -0.3085 -0.0474
 2282DPPE   C3B49247  21.233  37.140  14.336 -0.0768  0.0170  0.1781
 2282DPPE   C4B49248  21.048  37.563  14.333 -0.0410  0.0490  0.0249
 2283DPPE   NH349249   9.505  10.715  13.844 -0.2258 -0.4165  0.0494
 2283DPPE   PO449250   9.604  10.291  13.932  0.2068  0.0891  0.0237
 2283DPPE   GL149251   9.424   9.929  13.829  0.0054  0.2472  0.2445
 2283DPPE   GL249252   9.550   9.869  13.501  0.2093 -0.0359 -0.2285
 2283DPPE   C1A49253   9.051   9.884  13.707 -0.3577  0.2247  0.2790
 2283DPPE   C2A49254   8.625   9.658  13.854 -0.1040 -0.1462 -0.0967
 2283DPPE   C3A49255   8.285   9.743  13.546  0.2624 -0.2256  0.2621
 2283DPPE   C4A49256   8.199   9.757  13.105 -0.4720  0.0534  0.2726
 2283DPPE   C1B49257   9.279   9.755  13.217  0.2689 -0.0515  0.0540
 2283DPPE   C2B49258   8.908  10.005  13.165 -0.3696 -0.0073  0.0720
 2283DPPE   C3B49259   8.530  10.106  13.307 -0.1292 -0.3868 -0.0832
 2283DPPE   C4B49260   8.081  10.255  13.307  0.2972  0.1399  0.2320
 2284DPPE   NH349261  20.106  36.100   7.678  0.1448 -0.1739  0.0141
 2284DPPE   PO449262  20.440  36.139   7.876 -0.1707 -0.0309  0.0307
 2284DPPE   GL149263  20.097  36.386   8.112 -0.0817  0.0133 -0.2402
 2284DPPE   GL249264  19.864  36.565   7.944  0.0688  0.0998 -0.1117
 2284DPPE   C1A49265  19.932  36.598   8.454  0.4238  0.2635  0.1235
 2284DPPE   C2A49266  19.717  36.878   8.665  0.1774  0.0397  0.0772
 2284DPPE   C3A49267  19.419  37.152   8.728  0.2975 -0.0612 -0.0295
 2284DPPE   C4A49268  19.540  37.483   8.996 -0.2547  0.1831 -0.3318
 2284DPPE   C1B49269  19.465  36.588   8.196 -0.2967  0.0090  0.1035
 2284DPPE   C2B49270  19.303  36.629   8.561  0.0590 -0.1814  0.2361
 2284DPPE   C3B49271  18.969  36.679   8.839 -0.0954 -0.0398 -0.2227
 2284DPPE   C4B49272  18.614  36.834   9.100  0.2032  0.1274  0.1731
 2285DPPE   NH349273  27.583   5.651  14.341 -0.0155 -0.0525  0.0840
 2285DPPE   PO449274  27.615   5.677  13.937 -0.3803 -0.2561 -0.1667
 2285DPPE   GL149275  27.209   5.929  13.796  0.0635 -0.3192 -0.0240
 2285DPPE   GL249276  26.936   5.799  13.756 -0.1215 -0.1873 -0.1415
 2285DPPE   C1A49277  26.918   6.301  14.089 -0.0476 -0.4048 -0.0174
 2285DPPE   C2A49278  26.980   6.678  14.278  0.1733  0.1251 -0.1064
 2285DPPE   C3A49279  27.274   7.096  14.356 -0.0900 -0.1994 -0.2234
 2285DPPE   C4A49280  27.293   7.491  14.190  0.0339 -0.0826 -0.1966
 2285DPPE   C1B49281  26.806   6.200  13.583  0.2500 -0.0699 -0.1277
 2285DPPE   C2B49282  26.761   6.550  13.649 -0.0380 -0.0507  0.0770
 2285DPPE   C3B49283  26.322   6.775  13.516  0.0808  0.2824 -0.3238
 2285DPPE   C4B49284  25.912   6.912  13.459  0.2733 -0.3415 -0.0517
 2286DPPE   NH349285  25.932   3.463  12.982 -0.1337  0.0937 -0.0735
 2286DPPE   PO449286  25.664   3.435  12.599 -0.1140  0.0896 -0.0606
 2286DPPE   GL149287  25.206   3.686  12.683  0.0887  0.0696  0.3360
 2286DPPE   GL249288  25.000   3.695  12.478  0.2279 -0.3869  0.2092
 2286DPPE   C1A49289  24.950   4.051  12.868 -0.0592 -0.0414 -0.1670
 2286DPPE   C2A49290  24.738   4.399  13.100  0.0589 -0.1677 -0.1213
 2286DPPE   C3A49291  24.602   4.846  13.252  0.1002  0.1622  0.1692
 2286DPPE   C4A49292  24.853   5.126  13.412 -0.1064 -0.0112  0.0888
 2286DPPE   C1B49293  24.636   3.984  12.505  0.0926 -0.0387  0.2126
 2286DPPE   C2B49294  24.457   4.312  12.640 -0.2331 -0.1784 -0.0418
 2286DPPE   C3B49295  24.118   4.636  12.694 -0.2374 -0.1266  0.3844
 2286DPPE   C4B49296  24.029   4.943  12.408 -0.2213 -0.1254 -0.1910
 2287DPPE   NH349297  13.192   2.701  15.905  0.0765  0.2071  0.1055
 2287DPPE   PO449298  13.448   2.338  16.084  0.0309  0.0847  0.0002
 2287DPPE   GL149299  13.024   2.192  15.910  0.1481  0.0526 -0.3830
 2287DPPE   GL249300  12.815   1.919  15.941 -0.4329  0.0684  0.2815
 2287DPPE   C1A49301  12.750   2.251  15.608 -0.0202 -0.1305  0.3253
 2287DPPE   C2A49302  12.464   2.305  15.196  0.0172 -0.2273 -0.0729
 2287DPPE   C3A49303  12.484   2.168  14.749 -0.2120 -0.0321  0.0026
 2287DPPE   C4A49304  12.661   2.120  14.319 -0.1465  0.0396  0.0824
 2287DPPE   C1B49305  12.898   1.521  15.907 -0.0561 -0.1691 -0.3107
 2287DPPE   C2B49306  12.827   1.070  15.793 -0.0203 -0.0176  0.1513
 2287DPPE   C3B49307  12.795   0.829  15.452 -0.0531 -0.0794  0.1630
 2287DPPE   C4B49308  13.198   0.566  15.277 -0.2267 -0.1967 -0.0107
 2288DPPE   NH349309  22.205   2.735   7.755  0.1247  0.0772  0.1402
 2288DPPE   PO449310  22.435   2.516   8.062  0.2370  0.2172  0.0592
 2288DPPE   GL149311  22.193   2.618   8.350  0.0768 -0.1771  0.1770
 2288DPPE   GL249312  21.975   2.795   8.226 -0.2846 -0.0952  0.3710
 2288DPPE   C1A49313  21.989   2.781   8.732  0.4989 -0.0482 -0.0327
 2288DPPE   C2A49314  21.615   2.834   8.976  0.0592  0.0007  0.0645
 2288DPPE   C3A49315  21.179   2.615   9.106  0.0039 -0.0299 -0.2971
 2288DPPE   C4A49316  20.761   2.748   9.403 -0.1707  0.0443  0.2038
 2288DPPE   C1B49317  21.619   2.656   8.390 -0.2780  0.0674 -0.0537
 2288DPPE   C2B49318  21.336   2.616   8.651  0.0368 -0.1631  0.0006
 2288DPPE   C3B49319  20.958   2.534   8.594  0.0226 -0.0713 -0.0241
 2288DPPE   C4B49320  20.521   2.566   8.487 -0.0743 -0.2210 -0.3006
 2289DPPE   NH349321  22.985   9.010  11.860  0.1660 -0.0883  0.3052
 2289DPPE   PO449322  23.298   8.912  12.127  0.2604  0.2669  0.1312
 2289DPPE   GL149323  23.722   8.882  11.892 -0.4498 -0.0618  0.1331
 2289DPPE   GL249324  23.890   9.266  11.904  0.1067 -0.2249 -0.3266
 2289DPPE   C1A49325  24.088   8.840  11.658  0.1654  0.0746  0.0587
 2289DPPE   C2A49326  24.311   8.833  11.296  0.1773 -0.4186  0.0447
 2289DPPE   C3A49327  24.646   8.914  11.009 -0.0114 -0.0013 -0.3617
 2289DPPE   C4A49328  24.919   8.657  10.749  0.2386 -0.0866 -0.2423
 2289DPPE   C1B49329  24.265   9.268  11.602 -0.1279 -0.1138 -0.4088
 2289DPPE   C2B49330  24.693   9.326  11.665  0.0781 -0.0715  0.2188
 2289DPPE   C3B49331  25.157   9.471  11.654  0.2654 -0.0432  0.2836
 2289DPPE   C4B49332  25.383   9.661  11.394 -0.1497  0.0791  0.1982
 2290DPPE   NH349333   2.263   1.288  14.571  0.2554 -0.0811  0.0045
 2290DPPE   PO449334   2.609   1.507  14.711 -0.1173  0.1121 -0.1901
 2290DPPE   GL149335   2.928   1.732  14.717  0.2944  0.0955 -0.3073
 2290DPPE   GL249336   2.891   1.941  14.586 -0.2965 -0.1065  0.1757
 2290DPPE   C1A49337   3.414   1.719  14.644  0.1505  0.0588 -0.0317
 2290DPPE   C2A49338   3.874   1.757  14.736 -0.0126  0.0167 -0.4239
 2290DPPE   C3A49339   4.207   1.707  14.405 -0.2290 -0.0772 -0.1607
 2290DPPE   C4A49340   4.703   1.756  14.455  0.1547 -0.2675  0.2498
 2290DPPE   C1B49341   3.244   2.192  14.790  0.2229  0.2755  0.1879
 2290DPPE   C2B49342   3.601   2.136  14.910 -0.2907  0.2334 -0.0095
 2290DPPE   C3B49343   3.999   2.232  15.027  0.1323 -0.0201 -0.3268
 2290DPPE   C4B49344   4.274   2.559  15.006 -0.0845  0.1235  0.0836
 2291DPPE   NH349345   9.571  32.915   9.244  0.2147 -0.1876 -0.0810
 2291DPPE   PO449346   9.982  33.030   9.006  0.1056 -0.1326  0.2233
 2291DPPE   GL149347  10.096  33.417   8.915  0.2421 -0.2457 -0.2344
 2291DPPE   GL249348   9.911  33.562   8.743  0.1140 -0.1534  0.1655
 2291DPPE   C1A49349  10.048  33.775   9.186  0.0034  0.1091  0.2112
 2291DPPE   C2A49350  10.290  34.235   9.200 -0.0590  0.1702 -0.0287
 2291DPPE   C3A49351  10.642  34.413   8.910  0.3061 -0.0974 -0.1467
 2291DPPE   C4A49352  10.916  34.468   8.450  0.1141 -0.0133  0.0522
 2291DPPE   C1B49353   9.787  34.096   8.866 -0.2860 -0.0720 -0.3211
 2291DPPE   C2B49354   9.811  34.246   9.234  0.2373 -0.6182  0.1514
 2291DPPE   C3B49355  10.044  34.679   9.529 -0.1331 -0.1908  0.1190
 2291DPPE   C4B49356  10.310  34.905   9.825 -0.0476  0.1564 -0.0898
 2292DPPE   NH349357  14.753  10.514   8.221  0.2378 -0.1493 -0.0927
 2292DPPE   PO449358  14.486  10.710   8.548  0.2196  0.2908 -0.2481
 2292DPPE   GL149359  14.246  10.328   8.401  0.0288  0.0428 -0.1621
 2292DPPE   GL249360  14.222  10.048   8.723 -0.0674 -0.3193 -0.1506
 2292DPPE   C1A49361  14.348   9.964   8.221 -0.0452  0.0377  0.0972
 2292DPPE   C2A49362  14.665   9.763   8.447 -0.0226 -0.1498  0.1405
 2292DPPE   C3A49363  14.692   9.332   8.722  0.0037 -0.1467 -0.2725
 2292DPPE   C4A49364  14.502   9.073   8.931 -0.1194 -0.0613 -0.0535
 2292DPPE   C1B49365  13.975   9.717   8.478  0.0930  0.0232  0.1997
 2292DPPE   C2B49366  14.012   9.548   8.039  0.1472  0.1940  0.1064
 2292DPPE   C3B49367  13.942   9.651   7.594 -0.0066 -0.0174 -0.0986
 2292DPPE   C4B49368  14.149   9.464   7.104 -0.2400 -0.3596  0.0179
 2293DPPE   NH349369  13.706  12.060   7.791 -0.1167  0.1480  0.1254
 2293DPPE   PO449370  14.130  11.768   7.952 -0.2356 -0.1509  0.0711
 2293DPPE   GL149371  14.039  11.627   7.710  0.0177 -0.2434  0.2670
 2293DPPE   GL249372  13.647  11.563   7.727 -0.2099 -0.0975 -0.0160
 2293DPPE   C1A49373  13.979  11.624   7.306 -0.0885 -0.2538  0.4579
 2293DPPE   C2A49374  13.767  11.925   6.975 -0.1908 -0.0561  0.0923
 2293DPPE   C3A49375  13.629  12.195   6.760 -0.0095 -0.2306  0.0141
 2293DPPE   C4A49376  13.829  12.341   6.325  0.0079 -0.1796  0.0373
 2293DPPE   C1B49377  13.518  11.537   7.341  0.2875 -0.4164  0.1510
 2293DPPE   C2B49378  13.120  11.358   7.297 -0.2190  0.2678 -0.1729
 2293DPPE   C3B49379  12.705  11.436   7.312 -0.0314  0.1697 -0.0138
 2293DPPE   C4B49380  12.530  11.880   7.355  0.2178  0.1199 -0.2283
 2294DPPE   NH349381   9.925  20.734  17.419  0.2797 -0.0945 -0.2380
 2294DPPE   PO449382   9.578  20.803  17.725 -0.2657 -0.1057  0.0270
 2294DPPE   GL149383   9.667  20.305  17.676 -0.0450 -0.1524  0.0820
 2294DPPE   GL249384  10.000  20.256  17.511 -0.1080 -0.0260 -0.3315
 2294DPPE   C1A49385   9.834  19.775  17.627  0.0196  0.0822 -0.0266
 2294DPPE   C2A49386  10.136  19.556  17.353  0.0715  0.3166  0.0123
 2294DPPE   C3A49387  10.601  19.477  17.311  0.0672  0.0037 -0.1542
 2294DPPE   C4A49388  10.882  19.159  17.269 -0.0291 -0.1647  0.0303
 2294DPPE   C1B49389  10.410  20.058  17.441 -0.2949  0.0045 -0.0159
 2294DPPE   C2B49390  10.810  19.892  17.546  0.0072 -0.0167  0.0121
 2294DPPE   C3B49391  11.069  19.809  17.326  0.0280  0.0721 -0.1402
 2294DPPE   C4B49392  11.359  19.410  17.131 -0.2013  0.2022  0.0805
 2295DPPE   NH349393   9.226   7.775  16.864 -0.2312  0.1987 -0.0595
 2295DPPE   PO449394   8.765   7.809  17.063 -0.3590 -0.1180 -0.1988
 2295DPPE   GL149395   8.698   7.619  16.665  0.3633 -0.2064 -0.1428
 2295DPPE   GL249396   8.903   7.670  16.451 -0.0696  0.1116 -0.1235
 2295DPPE   C1A49397   8.335   7.526  16.478 -0.1164  0.4767  0.4998
 2295DPPE   C2A49398   8.026   7.187  16.588  0.1104 -0.2674 -0.0863
 2295DPPE   C3A49399   7.667   7.149  16.852 -0.0987 -0.0768 -0.4100
 2295DPPE   C4A49400   7.272   7.390  16.848  0.0278 -0.1652 -0.4287
 2295DPPE   C1B49401   8.902   7.297  16.448  0.0239 -0.0109  0.2571
 2295DPPE   C2B49402   8.541   7.025  16.526  0.3586 -0.0478  0.1175
 2295DPPE   C3B49403   8.301   6.800  16.804 -0.2383  0.0956 -0.1656
 2295DPPE   C4B49404   7.834   6.754  17.107 -0.1068  0.3310 -0.0812
 2296DPPE   NH349405  16.064  21.689  21.371 -0.1929  0.1722 -0.1197
 2296DPPE   PO449406  16.207  21.573  21.780 -0.0208  0.1442  0.1792
 2296DPPE   GL149407  16.306  21.251  21.408  0.2410 -0.2099  0.2715
 2296DPPE   GL249408  16.382  20.998  21.649  0.1275 -0.0805 -0.0843
 2296DPPE   C1A49409  16.158  20.818  21.248  0.0487 -0.0429  0.0184
 2296DPPE   C2A49410  16.270  20.517  20.982  0.0965 -0.0193 -0.1679
 2296DPPE   C3A49411  16.370  20.067  20.910 -0.1538  0.1528 -0.2133
 2296DPPE   C4A49412  16.483  19.636  20.771  0.0207 -0.1514 -0.0050
 2296DPPE   C1B49413  16.677  20.692  21.592  0.0932 -0.0883 -0.0475
 2296DPPE   C2B49414  16.997  20.729  21.275 -0.0772 -0.0490 -0.0551
 2296DPPE   C3B49415  17.206  20.351  21.001 -0.1634  0.2276 -0.0875
 2296DPPE   C4B49416  17.402  19.935  20.807  0.0875 -0.1683  0.0531
 2297DPPE   NH349417   6.076  11.288  21.981  0.2398  0.1102 -0.0033
 2297DPPE   PO449418   6.335  11.109  22.246  0.1650  0.2290  0.1844
 2297DPPE   GL149419   6.580  10.830  22.165 -0.2523  0.3075 -0.2111
 2297DPPE   GL249420   6.859  11.021  22.020  0.0576 -0.0448  0.0180
 2297DPPE   C1A49421   6.694  10.619  21.870 -0.1340 -0.3881 -0.3543
 2297DPPE   C2A49422   6.810  10.307  21.672  0.1355 -0.0507 -0.2002
 2297DPPE   C3A49423   7.011   9.954  21.625  0.0140 -0.1285 -0.1023
 2297DPPE   C4A49424   7.189   9.738  21.215  0.1489  0.1210  0.1428
 2297DPPE   C1B49425   7.133  10.852  21.647  0.0590  0.0248 -0.1482
 2297DPPE   C2B49426   7.546  10.871  21.298 -0.1336  0.0630 -0.0479
 2297DPPE   C3B49427   7.947  10.617  21.152 -0.0333  0.0317 -0.0237
 2297DPPE   C4B49428   8.023  10.395  20.791  0.0190  0.2716 -0.0964
 2298DPPE   NH349429  18.083  33.527   8.048  0.1213  0.1588  0.0655
 2298DPPE   PO449430  17.842  33.467   8.334 -0.1731  0.1278 -0.3086
 2298DPPE   GL149431  17.461  33.682   8.287 -0.4427  0.0288 -0.2546
 2298DPPE   GL249432  17.489  33.767   7.935  0.0994 -0.0979  0.0030
 2298DPPE   C1A49433  17.166  33.910   8.305  0.0020  0.1646 -0.0327
 2298DPPE   C2A49434  16.940  34.153   8.208  0.1664  0.2236  0.0335
 2298DPPE   C3A49435  16.785  34.566   8.019 -0.1125  0.3948  0.0526
 2298DPPE   C4A49436  16.678  35.031   8.175 -0.1008 -0.0824  0.1268
 2298DPPE   C1B49437  17.377  33.892   7.472  0.1360 -0.0756 -0.0256
 2298DPPE   C2B49438  17.077  34.059   7.151  0.1533  0.0613  0.0239
 2298DPPE   C3B49439  16.800  34.393   7.079 -0.2190  0.2820 -0.1159
 2298DPPE   C4B49440  16.657  34.664   6.782 -0.0252 -0.1827 -0.0965
 2299DPPE   NH349441  14.162   2.499  15.418 -0.0027  0.2987 -0.0244
 2299DPPE   PO449442  13.991   2.154  15.660 -0.0794 -0.0362  0.4210
 2299DPPE   GL149443  13.807   1.979  15.259 -0.2409  0.2647  0.0944
 2299DPPE   GL249444  13.512   2.195  15.177  0.2557 -0.0494 -0.0895
 2299DPPE   C1A49445  13.621   1.684  15.305  0.2338  0.0574  0.0604
 2299DPPE   C2A49446  13.146   1.553  15.019  0.1224 -0.0838 -0.0835
 2299DPPE   C3A49447  12.796   1.201  15.084  0.5688  0.2785  0.2577
 2299DPPE   C4A49448  12.429   1.266  14.849 -0.0611 -0.0609  0.0896
 2299DPPE   C1B49449  13.139   2.198  15.143  0.2844 -0.0882 -0.1796
 2299DPPE   C2B49450  12.839   2.037  15.047 -0.1039  0.0916  0.0955
 2299DPPE   C3B49451  12.544   1.812  15.069 -0.1091 -0.2394  0.0985
 2299DPPE   C4B49452  12.087   1.682  15.066  0.4115  0.2947 -0.1944
 2300DPPE   NH349453  20.886  17.333  25.754  0.3440  0.0771 -0.0640
 2300DPPE   PO449454  20.900  16.893  25.710 -0.0330  0.0564 -0.0456
 2300DPPE   GL149455  20.596  16.675  25.381  0.0986 -0.2418 -0.2562
 2300DPPE   GL249456  20.521  16.815  25.093 -0.0700 -0.0469 -0.1722
 2300DPPE   C1A49457  20.203  16.387  25.313 -0.2300  0.0457  0.1025
 2300DPPE   C2A49458  20.200  16.008  25.273 -0.1657  0.2298 -0.0611
 2300DPPE   C3A49459  20.460  15.631  25.326  0.1687 -0.2321 -0.1796
 2300DPPE   C4A49460  20.866  15.434  25.216  0.0825  0.3030  0.1457
 2300DPPE   C1B49461  20.469  16.456  24.875 -0.3221 -0.3102 -0.2242
 2300DPPE   C2B49462  20.797  16.277  24.521 -0.2643  0.0366  0.2457
 2300DPPE   C3B49463  21.097  16.293  24.239 -0.1239 -0.2576 -0.1245
 2300DPPE   C4B49464  21.367  16.132  23.889 -0.1938 -0.0613 -0.1639
 2301DPPE   NH349465   1.916   9.435  16.060 -0.2727  0.2417 -0.1462
 2301DPPE   PO449466   1.802   9.040  16.116  0.2052 -0.0306 -0.4539
 2301DPPE   GL149467   2.208   8.957  16.188 -0.0990 -0.1700  0.2014
 2301DPPE   GL249468   2.385   9.161  16.324 -0.2568 -0.0322 -0.2331
 2301DPPE   C1A49469   2.578   8.693  16.071  0.1412  0.0113  0.0700
 2301DPPE   C2A49470   2.854   8.420  15.981  0.0720 -0.3378  0.0198
 2301DPPE   C3A49471   3.225   8.379  16.032  0.0917  0.0874 -0.0367
 2301DPPE   C4A49472   3.637   8.286  15.770 -0.3439 -0.2405 -0.3769
 2301DPPE   C1B49473   2.709   8.876  16.535 -0.0469  0.3704 -0.1574
 2301DPPE   C2B49474   3.058   8.748  16.404 -0.2059  0.0968  0.0669
 2301DPPE   C3B49475   3.469   8.690  16.333  0.2041  0.2259  0.0261
 2301DPPE   C4B49476   3.775   8.589  16.173  0.0961 -0.3442  0.1784
 2302DPPE   NH349477  14.270   5.849  11.430 -0.0013 -0.0216  0.0731
 2302DPPE   PO449478  14.260   5.922  11.060 -0.0113  0.0895  0.0982
 2302DPPE   GL149479  14.343   5.523  10.839 -0.0051  0.2629  0.0862
 2302DPPE   GL249480  14.343   5.234  10.922 -0.0293 -0.0408 -0.0261
 2302DPPE   C1A49481  14.104   5.355  10.394 -0.0168 -0.2039  0.1187
 2302DPPE   C2A49482  13.985   5.258   9.979  0.0280  0.0600 -0.1332
 2302DPPE   C3A49483  13.791   5.081   9.615 -0.2607  0.0625  0.1518
 2302DPPE   C4A49484  13.607   5.245   9.254  0.0507  0.2259  0.0267
 2302DPPE   C1B49485  13.985   4.973  10.740 -0.0297 -0.1918  0.2130
 2302DPPE   C2B49486  13.498   4.850  10.610  0.2824  0.1555 -0.0081
 2302DPPE   C3B49487  13.059   4.762  10.720  0.1654  0.1153 -0.3293
 2302DPPE   C4B49488  12.623   4.590  10.866  0.0913  0.0569 -0.0685
 2303DPPE   NH349489  17.706   5.812   9.624  0.1040 -0.0196  0.1326
 2303DPPE   PO449490  17.514   6.174   9.532 -0.0430 -0.0952  0.3484
 2303DPPE   GL149491  17.519   6.158   9.142 -0.0236  0.1254  0.1096
 2303DPPE   GL249492  17.545   6.459   9.046  0.0197  0.0067  0.0140
 2303DPPE   C1A49493  17.350   6.117   8.686  0.1825  0.1621 -0.0682
 2303DPPE   C2A49494  17.497   6.117   8.178 -0.2007 -0.1553 -0.0597
 2303DPPE   C3A49495  17.438   6.174   7.781 -0.2368 -0.0757  0.0603
 2303DPPE   C4A49496  17.232   5.988   7.483  0.1338  0.2417  0.1901
 2303DPPE   C1B49497  17.693   6.490   8.685 -0.2685  0.1071  0.3666
 2303DPPE   C2B49498  17.878   6.488   8.245 -0.0577  0.4431 -0.0067
 2303DPPE   C3B49499  17.857   6.566   7.879  0.0479 -0.0935  0.1431
 2303DPPE   C4B49500  17.859   6.375   7.537  0.1045  0.1626 -0.2098
 2304DPPE   NH349501  18.116   1.678  12.142  0.1048 -0.1672  0.0528
 2304DPPE   PO449502  17.777   1.841  11.824 -0.0878  0.3330  0.0881
 2304DPPE   GL149503  17.745   1.533  11.490  0.1037 -0.0977 -0.1981
 2304DPPE   GL249504  17.471   1.382  11.314 -0.0972  0.1530 -0.5081
 2304DPPE   C1A49505  17.865   1.087  11.417  0.2920  0.0623 -0.1528
 2304DPPE   C2A49506  17.916   0.691  11.325 -0.2721  0.1066 -0.2306
 2304DPPE   C3A49507  17.805   0.229  11.294  0.0816  0.1554  0.0883
 2304DPPE   C4A49508  17.558  -0.014  11.001 -0.1789  0.0595  0.0711
 2304DPPE   C1B49509  17.532   0.921  11.697 -0.0774  0.0641  0.0317
 2304DPPE   C2B49510  17.484   0.458  11.650 -0.1051 -0.1200 -0.1781
 2304DPPE   C3B49511  17.423   0.094  11.591  0.1992 -0.1029 -0.2201
 2304DPPE   C4B49512  17.246  -0.301  11.526  0.0040 -0.2349 -0.1151
 2305DPPE   NH349513  16.551  14.782  23.353 -0.1012 -0.2180  0.1572
 2305DPPE   PO449514  16.311  14.998  23.056 -0.3257  0.2213  0.1846
 2305DPPE   GL149515  16.203  15.147  23.422 -0.1754 -0.0683 -0.1629
 2305DPPE   GL249516  15.967  15.199  23.544 -0.0985  0.0059  0.3524
 2305DPPE   C1A49517  16.204  15.209  23.926  0.0334  0.1898 -0.2112
 2305DPPE   C2A49518  16.164  15.600  24.127 -0.1445  0.2722  0.1391
 2305DPPE   C3A49519  16.402  15.864  24.400 -0.2159 -0.4510  0.0298
 2305DPPE   C4A49520  16.648  16.253  24.277  0.3104 -0.0876  0.2202
 2305DPPE   C1B49521  15.679  15.388  23.785 -0.0434 -0.0544  0.1072
 2305DPPE   C2B49522  15.685  15.535  24.186 -0.1708  0.0606  0.0274
 2305DPPE   C3B49523  15.577  15.283  24.638 -0.0105 -0.2818  0.2224
 2305DPPE   C4B49524  15.311  15.215  25.008 -0.3082 -0.1733  0.2501
 2306DPPE   NH349525  11.870   9.314  11.061 -0.0435 -0.0317 -0.3140
 2306DPPE   PO449526  11.819   8.925  11.321 -0.2438  0.0424 -0.0096
 2306DPPE   GL149527  11.547   8.857  10.940  0.0366  0.0321  0.1925
 2306DPPE   GL249528  11.743   8.943  10.712  0.2069  0.0954  0.0931
 2306DPPE   C1A49529  11.332   8.659  10.508 -0.1284  0.2492 -0.1310
 2306DPPE   C2A49530  11.117   8.434  10.190 -0.0752  0.0766 -0.0487
 2306DPPE   C3A49531  10.893   8.425   9.843 -0.3486  0.1412  0.0815
 2306DPPE   C4A49532  10.771   8.317   9.460  0.1018 -0.0019 -0.1836
 2306DPPE   C1B49533  11.759   8.685  10.331  0.1000  0.1543 -0.2263
 2306DPPE   C2B49534  11.600   8.596   9.928 -0.1234  0.1202 -0.0140
 2306DPPE   C3B49535  11.380   8.536   9.512  0.1919  0.2264 -0.4302
 2306DPPE   C4B49536  10.994   8.759   9.345 -0.2656  0.0259 -0.0831
 2307DPPE   NH349537  24.066  19.666  14.792 -0.1480  0.1480  0.2084
 2307DPPE   PO449538  24.241  19.513  14.425 -0.3021  0.3060 -0.4907
 2307DPPE   GL149539  23.861  19.242  14.680 -0.0533  0.2795  0.3896
 2307DPPE   GL249540  23.678  19.354  14.885  0.1104  0.0315  0.0505
 2307DPPE   C1A49541  23.688  18.774  14.452  0.0669 -0.0135  0.2787
 2307DPPE   C2A49542  23.547  18.372  14.236  0.0931  0.1712 -0.0050
 2307DPPE   C3A49543  23.480  17.982  14.069 -0.0284  0.0523  0.0848
 2307DPPE   C4A49544  23.074  17.783  13.839  0.0862  0.0340 -0.3285
 2307DPPE   C1B49545  23.540  18.925  14.885 -0.0164 -0.2016  0.0872
 2307DPPE   C2B49546  23.195  18.693  15.082  0.2121 -0.0507 -0.1587
 2307DPPE   C3B49547  23.013  18.323  15.257  0.2393  0.0483 -0.1272
 2307DPPE   C4B49548  22.740  17.971  15.135 -0.3185  0.0483  0.1466
 2308DPPE   NH349549   9.726   0.690  15.473  0.0962 -0.0844  0.4649
 2308DPPE   PO449550   9.868   0.483  15.731  0.0478  0.2725 -0.1147
 2308DPPE   GL149551   9.917   0.402  16.142 -0.3290  0.3255  0.2152
 2308DPPE   GL249552   9.779   0.598  16.418 -0.0265  0.1643 -0.0041
 2308DPPE   C1A49553   9.988   0.165  16.431  0.0614 -0.3201  0.1226
 2308DPPE   C2A49554  10.219   0.085  16.678  0.2190  0.2741  0.0858
 2308DPPE   C3A49555  10.445   0.278  16.902  0.4017 -0.1524 -0.1985
 2308DPPE   C4A49556  10.699   0.337  17.311 -0.1363 -0.1720  0.1204
 2308DPPE   C1B49557  10.041   0.707  16.697  0.4835  0.2138 -0.3052
 2308DPPE   C2B49558   9.911   0.764  17.217  0.0612  0.1950  0.3462
 2308DPPE   C3B49559  10.012   0.869  17.564 -0.3319  0.0032  0.0366
 2308DPPE   C4B49560  10.334   1.257  17.566 -0.0113  0.0527  0.0642
 2309DPPE   NH349561  13.261   8.981   5.813  0.0770  0.3403 -0.0338
 2309DPPE   PO449562  13.419   9.351   5.640 -0.2290 -0.0179  0.0379
 2309DPPE   GL149563  13.512   9.352   6.031  0.1299 -0.1761 -0.0730
 2309DPPE   GL249564  13.231   9.271   6.308  0.0484  0.3738  0.3076
 2309DPPE   C1A49565  13.606   9.600   6.387 -0.3447 -0.2421  0.0920
 2309DPPE   C2A49566  13.885   9.541   6.711  0.1014 -0.2848  0.1736
 2309DPPE   C3A49567  13.992   9.946   7.071  0.1701 -0.1225 -0.1424
 2309DPPE   C4A49568  13.761  10.152   7.559 -0.0257 -0.0557 -0.2843
 2309DPPE   C1B49569  13.425   9.286   6.715  0.1226 -0.1482 -0.0578
 2309DPPE   C2B49570  13.773   9.169   6.997 -0.1918  0.0316  0.0130
 2309DPPE   C3B49571  14.147   8.976   7.098  0.4307 -0.0751 -0.0449
 2309DPPE   C4B49572  14.594   8.798   7.063 -0.2217 -0.3046  0.0314
 2310DPPE   NH349573   6.010   4.305  17.321 -0.2103 -0.0115 -0.0217
 2310DPPE   PO449574   6.212   4.734  17.199 -0.4301 -0.1764 -0.2482
 2310DPPE   GL149575   6.388   5.081  17.648  0.2751  0.0363 -0.2500
 2310DPPE   GL249576   6.242   5.001  18.026 -0.1465  0.1314 -0.0352
 2310DPPE   C1A49577   6.602   5.314  17.943 -0.1657  0.2673  0.0427
 2310DPPE   C2A49578   6.564   5.701  18.227  0.2260 -0.2245  0.1690
 2310DPPE   C3A49579   6.070   5.909  18.220  0.0259  0.2062  0.1495
 2310DPPE   C4A49580   5.871   6.023  18.585 -0.2016  0.1997  0.3103
 2310DPPE   C1B49581   5.759   4.811  17.985  0.1476  0.3404  0.0980
 2310DPPE   C2B49582   5.341   4.787  18.266 -0.1572  0.3253  0.1237
 2310DPPE   C3B49583   5.300   4.681  18.616 -0.5568  0.2371 -0.4540
 2310DPPE   C4B49584   5.289   4.477  19.050 -0.0075  0.2842 -0.0763
 2311DPPE   NH349585   7.258  10.961   8.460  0.0636 -0.2819  0.0829
 2311DPPE   PO449586   7.216  11.065   8.777  0.3705 -0.1973 -0.1296
 2311DPPE   GL149587   6.858  11.351   8.634  0.1590  0.0277  0.1148
 2311DPPE   GL249588   7.162  11.468   8.449 -0.1354 -0.2704  0.1633
 2311DPPE   C1A49589   6.531  11.525   8.600  0.0406  0.1984  0.1525
 2311DPPE   C2A49590   6.535  11.945   8.630  0.2010 -0.2990 -0.2379
 2311DPPE   C3A49591   6.534  12.393   8.786  0.1163  0.3277  0.0775
 2311DPPE   C4A49592   6.909  12.761   8.738  0.0075 -0.3595  0.3512
 2311DPPE   C1B49593   6.823  11.730   8.265 -0.3649 -0.0794 -0.3196
 2311DPPE   C2B49594   6.565  11.957   8.007  0.1324  0.0783 -0.0624
 2311DPPE   C3B49595   6.132  12.242   7.870 -0.2330 -0.0465 -0.1369
 2311DPPE   C4B49596   5.828  12.159   7.662  0.0729 -0.1302  0.2633
 2312DPPE   NH349597  14.471  35.981   9.688 -0.1274 -0.0460  0.0506
 2312DPPE   PO449598  14.251  35.758   9.913 -0.0152  0.1237  0.1502
 2312DPPE   GL149599  14.028  35.334   9.720  0.1163  0.0824  0.0998
 2312DPPE   GL249600  14.038  35.170   9.931 -0.2403  0.1450  0.1416
 2312DPPE   C1A49601  14.077  34.943   9.476 -0.3380  0.2244 -0.0576
 2312DPPE   C2A49602  13.942  34.585   9.098  0.0774 -0.2788  0.0682
 2312DPPE   C3A49603  13.997  34.202   8.897  0.0086 -0.1504  0.0172
 2312DPPE   C4A49604  13.650  33.876   8.708 -0.1799  0.2122  0.2197
 2312DPPE   C1B49605  14.031  34.741   9.937  0.1097  0.0389 -0.1020
 2312DPPE   C2B49606  13.905  34.484   9.641  0.1166 -0.0362  0.0411
 2312DPPE   C3B49607  13.851  34.065   9.435  0.1134 -0.1629  0.0211
 2312DPPE   C4B49608  13.966  33.716   9.167  0.1999  0.3228 -0.2402
 2313DPPE   NH349609   7.226   4.554   9.739  0.0281 -0.0124  0.1011
 2313DPPE   PO449610   7.634   4.272   9.875  0.2406  0.2145  0.0684
 2313DPPE   GL149611   7.263   4.019   9.651  0.0581 -0.0932 -0.0743
 2313DPPE   GL249612   7.506   3.774   9.575 -0.2074 -0.3107 -0.0339
 2313DPPE   C1A49613   6.813   4.037   9.524  0.1484  0.0225 -0.2999
 2313DPPE   C2A49614   6.424   3.796   9.415 -0.0136  0.1269  0.1006
 2313DPPE   C3A49615   6.384   3.669   9.001  0.1538 -0.1623  0.0871
 2313DPPE   C4A49616   6.091   3.375   8.746 -0.0315  0.0661  0.1707
 2313DPPE   C1B49617   7.366   3.440   9.402 -0.2015 -0.3849  0.4053
 2313DPPE   C2B49618   7.325   3.242   9.038  0.2436  0.0577  0.0981
 2313DPPE   C3B49619   7.081   3.044   8.639 -0.1478 -0.1953 -0.0325
 2313DPPE   C4B49620   7.247   3.113   8.125 -0.0134 -0.0728 -0.0373
 2314DPPE   NH349621  14.247  34.931  13.390  0.0711 -0.4281 -0.2559
 2314DPPE   PO449622  13.919  34.820  12.995  0.1082  0.0348 -0.2254
 2314DPPE   GL149623  14.371  34.632  12.982 -0.1791  0.1515  0.0090
 2314DPPE   GL249624  14.574  34.734  12.662  0.2128 -0.3194 -0.1501
 2314DPPE   C1A49625  14.435  34.239  12.928 -0.4584 -0.1206 -0.2249
 2314DPPE   C2A49626  14.709  33.913  12.781 -0.1074 -0.0460 -0.0095
 2314DPPE   C3A49627  14.721  33.700  12.346  0.0280  0.1387  0.3399
 2314DPPE   C4A49628  14.541  33.977  12.016 -0.0304  0.1810  0.2739
 2314DPPE   C1B49629  14.870  34.484  12.748 -0.3319  0.0130  0.0001
 2314DPPE   C2B49630  14.974  34.207  12.316  0.0804 -0.0876  0.1648
 2314DPPE   C3B49631  15.044  33.926  12.040 -0.1869 -0.3139  0.3104
 2314DPPE   C4B49632  15.175  33.522  12.158 -0.0246 -0.2410 -0.2522
 2315DPPE   NH349633   6.934   3.138  14.531  0.1924  0.2262  0.3619
 2315DPPE   PO449634   6.865   2.869  14.840 -0.1895  0.2319  0.1122
 2315DPPE   GL149635   6.512   2.729  14.542  0.2642 -0.2035 -0.2731
 2315DPPE   GL249636   6.484   2.487  14.320 -0.0681 -0.2797 -0.1289
 2315DPPE   C1A49637   6.114   2.557  14.607 -0.1210  0.0806  0.0644
 2315DPPE   C2A49638   5.778   2.586  14.954  0.3111 -0.0306  0.0970
 2315DPPE   C3A49639   5.320   2.439  15.058 -0.2698  0.1763  0.0916
 2315DPPE   C4A49640   4.922   2.246  15.161  0.0111  0.0369  0.0091
 2315DPPE   C1B49641   6.223   2.089  14.350 -0.0104 -0.0318  0.0038
 2315DPPE   C2B49642   5.797   2.129  14.447  0.0444 -0.2703 -0.2010
 2315DPPE   C3B49643   5.545   1.996  14.716  0.0566  0.2205 -0.2039
 2315DPPE   C4B49644   5.298   1.978  15.028 -0.1629  0.0583  0.0158
 2316DPPE   NH349645  14.074  35.648  13.095  0.0658 -0.1676 -0.1296
 2316DPPE   PO449646  14.055  35.743  13.531  0.1505  0.1391  0.0036
 2316DPPE   GL149647  14.346  35.739  13.946 -0.1795 -0.1120 -0.1471
 2316DPPE   GL249648  14.700  35.669  13.937  0.0284  0.1710 -0.0736
 2316DPPE   C1A49649  14.427  35.951  14.340  0.2126  0.0929  0.0529
 2316DPPE   C2A49650  14.726  35.798  14.615  0.1318  0.0083 -0.0137
 2316DPPE   C3A49651  14.557  35.617  15.004  0.2813 -0.3313  0.2296
 2316DPPE   C4A49652  14.125  35.614  15.204  0.2845 -0.0816 -0.1613
 2316DPPE   C1B49653  14.935  35.524  14.257 -0.1282 -0.2242  0.0809
 2316DPPE   C2B49654  15.222  35.562  14.536  0.1982  0.1132  0.1568
 2316DPPE   C3B49655  15.615  35.588  14.803 -0.1710  0.5146  0.2913
 2316DPPE   C4B49656  15.892  35.842  15.154  0.0460  0.3290 -0.0781
 2317DPPE   NH349657  15.649   6.280   5.796 -0.1924 -0.1636  0.4518
 2317DPPE   PO449658  15.797   5.839   5.901  0.1973  0.3001  0.3225
 2317DPPE   GL149659  15.987   5.896   6.379  0.2287 -0.1007  0.1209
 2317DPPE   GL249660  16.275   5.860   6.409 -0.0615 -0.1123 -0.1427
 2317DPPE   C1A49661  16.043   6.331   6.668  0.0500 -0.0183 -0.1674
 2317DPPE   C2A49662  16.087   6.787   6.531  0.0871 -0.0816 -0.1926
 2317DPPE   C3A49663  16.262   7.186   6.529  0.1352  0.2678  0.0730
 2317DPPE   C4A49664  16.243   7.566   6.701 -0.2476  0.0275 -0.1270
 2317DPPE   C1B49665  16.615   6.158   6.634  0.2564 -0.1908  0.0349
 2317DPPE   C2B49666  16.774   6.373   6.936 -0.2043  0.0355 -0.2694
 2317DPPE   C3B49667  16.709   6.553   7.320  0.0170 -0.3347 -0.1425
 2317DPPE   C4B49668  16.713   6.192   7.519 -0.4206 -0.0126  0.1721
 2318DPPE   NH349669  18.504   2.401   7.056  0.2471 -0.4051 -0.1842
 2318DPPE   PO449670  18.640   2.261   6.584 -0.0779 -0.3438  0.0555
 2318DPPE   GL149671  18.395   1.960   6.737 -0.0028 -0.2258 -0.1888
 2318DPPE   GL249672  18.145   1.766   6.475  0.1620  0.2066 -0.2422
 2318DPPE   C1A49673  18.526   1.528   6.797  0.2504  0.3371  0.5615
 2318DPPE   C2A49674  18.475   1.066   6.526 -0.1494  0.1065  0.0475
 2318DPPE   C3A49675  18.797   0.727   6.452  0.0428 -0.1923  0.0189
 2318DPPE   C4A49676  19.005   0.375   6.638 -0.1667  0.0723  0.0878
 2318DPPE   C1B49677  18.192   1.816   6.045  0.0408  0.0241  0.2392
 2318DPPE   C2B49678  18.295   2.131   5.680  0.0053  0.2328  0.4341
 2318DPPE   C3B49679  18.466   2.152   5.306 -0.4440 -0.0453 -0.0134
 2318DPPE   C4B49680  18.715   2.456   5.061  0.3557 -0.0547  0.1329
 2319DPPE   NH349681   9.680   1.341  14.015  0.0569 -0.3814  0.1192
 2319DPPE   PO449682   9.628   1.461  13.529 -0.0727  0.0389  0.0551
 2319DPPE   GL149683   9.808   1.868  13.745 -0.0763  0.2064  0.1658
 2319DPPE   GL249684   9.601   2.124  13.734  0.0233  0.1579  0.1854
 2319DPPE   C1A49685  10.097   2.145  13.932  0.0154 -0.3774  0.1343
 2319DPPE   C2A49686  10.406   2.240  13.797  0.0570  0.0801 -0.0257
 2319DPPE   C3A49687  10.715   2.566  13.868  0.1535  0.1440 -0.2760
 2319DPPE   C4A49688  10.949   2.797  14.110  0.0149 -0.1503  0.0997
 2319DPPE   C1B49689   9.821   2.613  13.826  0.0487 -0.0048  0.1729
 2319DPPE   C2B49690  10.205   2.699  13.992 -0.1817 -0.0403  0.0399
 2319DPPE   C3B49691  10.458   2.983  14.118 -0.3717  0.2737 -0.1844
 2319DPPE   C4B49692  10.826   3.249  13.954  0.3817 -0.2035  0.0763
 2320DPPE   NH349693  11.705  36.178  11.132  0.1166 -0.5208 -0.1713
 2320DPPE   PO449694  12.065  36.061  10.854  0.0113  0.1507 -0.3199
 2320DPPE   GL149695  11.854  35.741  10.937  0.3270 -0.3056  0.0461
 2320DPPE   GL249696  11.615  35.722  11.191 -0.0390 -0.1634  0.3288
 2320DPPE   C1A49697  11.514  35.516  10.729  0.2725 -0.0043 -0.1672
 2320DPPE   C2A49698  11.413  35.275  10.412  0.1395 -0.0951 -0.4914
 2320DPPE   C3A49699  11.401  34.965  10.070 -0.2953 -0.2936  0.3576
 2320DPPE   C4A49700  11.123  34.629   9.976 -0.1639  0.0393  0.0057
 2320DPPE   C1B49701  11.210  35.394  11.152  0.4244  0.1346 -0.1916
 2320DPPE   C2B49702  11.044  35.146  10.688  0.1964  0.1836  0.0777
 2320DPPE   C3B49703  10.981  34.826  10.397  0.1197  0.0789  0.5708
 2320DPPE   C4B49704  10.567  34.654  10.220  0.1523  0.0063  0.2884
 2321DPPE   NH349705   5.879   5.320  12.183  0.1285 -0.1369  0.1891
 2321DPPE   PO449706   5.705   5.079  11.947  0.3856  0.5498 -0.0902
 2321DPPE   GL149707   5.334   5.053  11.626  0.2729  0.3445  0.0550
 2321DPPE   GL249708   5.066   5.352  11.574 -0.0308 -0.2024  0.0093
 2321DPPE   C1A49709   5.113   4.984  11.188  0.0420 -0.0038 -0.0162
 2321DPPE   C2A49710   4.789   4.898  10.833  0.5909  0.0237 -0.3256
 2321DPPE   C3A49711   4.450   5.047  10.732  0.5317  0.0098 -0.1736
 2321DPPE   C4A49712   4.032   4.884  10.603 -0.0407  0.2091 -0.0656
 2321DPPE   C1B49713   4.782   5.286  11.433 -0.0220  0.0664  0.2213
 2321DPPE   C2B49714   4.476   5.154  11.282 -0.0230  0.0709  0.1818
 2321DPPE   C3B49715   4.136   5.006  11.130 -0.1193 -0.2232  0.1306
 2321DPPE   C4B49716   3.754   5.169  10.894  0.0188 -0.1375 -0.1519
 2322DPPE   NH349717   6.407   3.824  12.372  0.3788 -0.2607 -0.1044
 2322DPPE   PO449718   6.728   3.652  12.272  0.1980 -0.1404  0.1093
 2322DPPE   GL149719   6.490   3.577  11.914 -0.3614  0.2745  0.2489
 2322DPPE   GL249720   6.205   3.637  11.965  0.1707  0.1489  0.1925
 2322DPPE   C1A49721   6.361   3.702  11.446  0.0186  0.0023 -0.2178
 2322DPPE   C2A49722   6.141   3.395  11.370 -0.2172  0.0991  0.1352
 2322DPPE   C3A49723   5.860   3.142  11.065 -0.0552  0.1648 -0.3064
 2322DPPE   C4A49724   5.650   2.921  10.708 -0.0485 -0.0753 -0.2587
 2322DPPE   C1B49725   6.086   3.172  11.830  0.0717 -0.3057 -0.2554
 2322DPPE   C2B49726   5.703   2.894  11.670 -0.2264 -0.1859  0.0583
 2322DPPE   C3B49727   5.417   2.834  11.341  0.1566 -0.2310 -0.2646
 2322DPPE   C4B49728   4.972   2.843  11.378  0.2029 -0.0964  0.3152
 2323DPPE   NH349729  16.187   0.635   9.443  0.0614 -0.1739 -0.1452
 2323DPPE   PO449730  16.444   0.414   9.818 -0.1514  0.4002 -0.2452
 2323DPPE   GL149731  16.869   0.109   9.854 -0.1119 -0.0599 -0.1010
 2323DPPE   GL249732  16.965  -0.124   9.625  0.2232 -0.2636 -0.0157
 2323DPPE   C1A49733  17.319   0.303  10.056  0.1626 -0.2115  0.0391
 2323DPPE   C2A49734  17.569   0.662  10.218 -0.2454 -0.3580  0.4082
 2323DPPE   C3A49735  18.020   0.702  10.238  0.0421 -0.0228 -0.1332
 2323DPPE   C4A49736  18.471   0.659  10.095  0.2495 -0.3304 -0.2182
 2323DPPE   C1B49737  17.388  -0.179   9.805 -0.1422 -0.1706  0.0644
 2323DPPE   C2B49738  17.658  -0.333  10.083  0.0205  0.0877  0.1411
 2323DPPE   C3B49739  17.961  -0.470  10.241 -0.0226  0.2178  0.1922
 2323DPPE   C4B49740  18.271  -0.581  10.264 -0.0523 -0.0495  0.2729
 2324DPPE   NH349741   9.632  35.960  13.405 -0.0099  0.0485 -0.2212
 2324DPPE   PO449742   9.809  35.810  13.792  0.3210  0.2141 -0.0562
 2324DPPE   GL149743   9.850  35.437  13.982  0.2948  0.1729  0.1328
 2324DPPE   GL249744  10.124  35.271  13.939 -0.0851 -0.0026 -0.0001
 2324DPPE   C1A49745   9.650  35.017  14.026 -0.1635 -0.1386 -0.1054
 2324DPPE   C2A49746   9.641  34.624  14.036 -0.0340 -0.1012 -0.2455
 2324DPPE   C3A49747   9.604  34.233  14.231 -0.0824  0.0583  0.0511
 2324DPPE   C4A49748   9.306  33.974  14.226  0.1655  0.0061 -0.1329
 2324DPPE   C1B49749  10.026  34.821  13.775 -0.2384 -0.1208 -0.1816
 2324DPPE   C2B49750  10.224  34.670  13.477 -0.4349  0.1758 -0.0719
 2324DPPE   C3B49751  10.123  34.316  13.302 -0.4097 -0.1261 -0.0967
 2324DPPE   C4B49752   9.852  34.365  12.954 -0.0633 -0.2248  0.0748
 2325DPPE   NH349753   6.190  10.839   9.778  0.0755  0.1309  0.1290
 2325DPPE   PO449754   5.971  10.623   9.491  0.1607  0.1289  0.0445
 2325DPPE   GL149755   5.670  10.857   9.349  0.1082 -0.1402  0.0579
 2325DPPE   GL249756   5.758  11.138   9.552 -0.0650 -0.0101  0.0701
 2325DPPE   C1A49757   5.471  11.131   9.096  0.0399  0.2827  0.0620
 2325DPPE   C2A49758   5.366  11.066   8.641 -0.1136  0.0569 -0.0262
 2325DPPE   C3A49759   5.231  10.786   8.379  0.1549  0.0425  0.0747
 2325DPPE   C4A49760   5.058  10.463   8.279  0.0640  0.2129  0.0579
 2325DPPE   C1B49761   5.441  11.524   9.454  0.5865 -0.0088 -0.2542
 2325DPPE   C2B49762   5.204  11.656   9.156  0.0217  0.1726  0.2528
 2325DPPE   C3B49763   5.085  11.473   8.817  0.0715  0.1972 -0.1560
 2325DPPE   C4B49764   4.940  11.227   8.485 -0.0776 -0.0337 -0.1366
 2326DPPE   NH349765   6.146   3.309  15.208 -0.1346 -0.0767 -0.0965
 2326DPPE   PO449766   6.016   3.728  15.285  0.2390 -0.1763  0.0132
 2326DPPE   GL149767   5.629   3.464  15.358 -0.0954 -0.5308  0.4724
 2326DPPE   GL249768   5.406   3.563  15.071 -0.0733 -0.2684 -0.0903
 2326DPPE   C1A49769   5.188   3.350  15.567  0.0133 -0.0148  0.1423
 2326DPPE   C2A49770   4.831   3.125  15.617 -0.4416 -0.0956  0.1464
 2326DPPE   C3A49771   4.615   3.014  15.199 -0.1307 -0.0868 -0.1044
 2326DPPE   C4A49772   4.271   3.115  15.020  0.1280  0.3564  0.0402
 2326DPPE   C1B49773   5.078   3.324  15.040 -0.0146  0.0104 -0.3251
 2326DPPE   C2B49774   4.771   3.234  14.719  0.2356  0.2014  0.0304
 2326DPPE   C3B49775   4.649   2.956  14.366  0.1733  0.0859  0.0320
 2326DPPE   C4B49776   4.553   2.659  14.027  0.0740 -0.0981 -0.0703
 2327DPPE   NH349777  16.032   1.214   7.486  0.1645  0.0186 -0.1123
 2327DPPE   PO449778  15.915   1.359   7.116 -0.1046  0.2041  0.2992
 2327DPPE   GL149779  15.705   1.014   7.100  0.0409 -0.1538  0.1755
 2327DPPE   GL249780  15.487   1.032   6.840 -0.0673  0.1940 -0.1228
 2327DPPE   C1A49781  15.762   0.655   6.872 -0.1713  0.2152 -0.3089
 2327DPPE   C2A49782  15.752   0.326   6.698 -0.0014  0.2210  0.1790
 2327DPPE   C3A49783  15.875  -0.003   6.445 -0.1589  0.0267 -0.0823
 2327DPPE   C4A49784  15.876  -0.120   6.074  0.2000 -0.1203  0.0829
 2327DPPE   C1B49785  15.392   0.746   6.542 -0.4204  0.1297  0.0376
 2327DPPE   C2B49786  15.446   0.827   6.170  0.0515 -0.3032 -0.2230
 2327DPPE   C3B49787  15.785   0.815   5.837 -0.0988  0.1526  0.2424
 2327DPPE   C4B49788  16.004   0.331   5.802 -0.2276  0.2357 -0.1162
 2328DPPE   NH349789  16.319   1.607   7.314  0.0863 -0.3096 -0.1790
 2328DPPE   PO449790  16.720   1.321   7.378  0.1522 -0.2916 -0.1713
 2328DPPE   GL149791  16.920   0.972   7.007  0.4593  0.1755 -0.4221
 2328DPPE   GL249792  17.085   0.757   7.226  0.0460 -0.0983  0.1620
 2328DPPE   C1A49793  17.184   0.751   6.706 -0.3593  0.4529 -0.3362
 2328DPPE   C2A49794  17.225   0.670   6.243  0.1254 -0.2044 -0.2646
 2328DPPE   C3A49795  17.192   0.565   5.831  0.3852 -0.2401  0.1282
 2328DPPE   C4A49796  16.944   0.518   5.433 -0.3141 -0.1170  0.2096
 2328DPPE   C1B49797  17.345   0.418   7.016  0.2953 -0.0169 -0.0859
 2328DPPE   C2B49798  17.407   0.336   6.561 -0.0502 -0.1663  0.1605
 2328DPPE   C3B49799  17.126   0.132   6.175  0.2780  0.4049 -0.1850
 2328DPPE   C4B49800  16.780  -0.167   6.198  0.1113 -0.0621 -0.1154
 2329DPPE   NH349801  14.776  36.262  11.181  0.0379 -0.1934  0.0157
 2329DPPE   PO449802  14.634  36.564  10.920 -0.1904 -0.3302  0.4746
 2329DPPE   GL149803  14.862  36.776  11.126 -0.2918  0.0561  0.3604
 2329DPPE   GL249804  14.871  36.712  11.543  0.0247 -0.2313 -0.1033
 2329DPPE   C1A49805  14.767  37.227  11.227 -0.0812 -0.1581  0.0338
 2329DPPE   C2A49806  14.637  37.696  11.094 -0.1640 -0.1126 -0.2390
 2329DPPE   C3A49807  14.605  38.194  11.133  0.0224  0.2506 -0.1883
 2329DPPE   C4A49808  14.312  38.470  11.199 -0.2342 -0.0100 -0.2238
 2329DPPE   C1B49809  14.750  37.145  11.754 -0.0419  0.0703 -0.0890
 2329DPPE   C2B49810  14.963  37.559  11.568  0.0102 -0.0613  0.1923
 2329DPPE   C3B49811  15.022  37.971  11.497  0.0730 -0.0225 -0.2733
 2329DPPE   C4B49812  14.842  38.388  11.612 -0.0453 -0.1425  0.3124
 2330DPPE   NH349813   8.080   2.733  13.842  0.2187  0.0824 -0.0335
 2330DPPE   PO449814   8.465   2.704  13.939  0.0280  0.1260  0.3005
 2330DPPE   GL149815   8.705   3.099  14.041 -0.1428 -0.2813 -0.1686
 2330DPPE   GL249816   8.665   3.122  14.375  0.1691 -0.0052  0.1549
 2330DPPE   C1A49817   9.059   3.269  14.116  0.2529  0.2781 -0.2346
 2330DPPE   C2A49818   9.239   3.640  14.243 -0.0904 -0.1149 -0.0379
 2330DPPE   C3A49819   9.581   3.782  14.175  0.4087  0.0388 -0.3330
 2330DPPE   C4A49820  10.065   3.817  14.135 -0.1857 -0.0093 -0.1302
 2330DPPE   C1B49821   8.675   3.580  14.549  0.2373  0.0681  0.0125
 2330DPPE   C2B49822   9.002   3.862  14.625 -0.2512 -0.2657 -0.1008
 2330DPPE   C3B49823   9.394   4.209  14.686  0.2313 -0.0703 -0.0742
 2330DPPE   C4B49824   9.672   4.504  14.538  0.1229 -0.1033  0.0231
 2331DPPE   NH349825   5.547   7.888  11.988 -0.2470 -0.1943  0.0849
 2331DPPE   PO449826   5.150   8.045  12.158 -0.0405 -0.4312  0.1994
 2331DPPE   GL149827   4.737   7.912  12.217 -0.2685  0.1221  0.0624
 2331DPPE   GL249828   4.659   7.676  12.081 -0.0367  0.0882  0.2265
 2331DPPE   C1A49829   4.275   7.989  11.994 -0.1593  0.1437  0.2272
 2331DPPE   C2A49830   3.895   8.179  12.206 -0.0177 -0.1482  0.0828
 2331DPPE   C3A49831   3.432   8.345  12.061  0.4574  0.0966 -0.0400
 2331DPPE   C4A49832   2.936   8.330  12.118 -0.0254  0.1409 -0.0495
 2331DPPE   C1B49833   4.240   7.498  11.800  0.4387  0.2534 -0.1119
 2331DPPE   C2B49834   4.028   7.799  11.569  0.1860  0.1021 -0.3574
 2331DPPE   C3B49835   3.761   8.229  11.689 -0.0769  0.2775 -0.0812
 2331DPPE   C4B49836   3.186   8.202  11.655 -0.1458 -0.2064 -0.0693
 2332DPPE   NH349837   8.219   3.494  11.949 -0.2457 -0.1097 -0.1600
 2332DPPE   PO449838   8.397   3.407  12.300 -0.0102 -0.2089  0.1071
 2332DPPE   GL149839   8.858   3.472  12.451  0.1474  0.0611  0.1864
 2332DPPE   GL249840   9.039   3.795  12.483 -0.0336 -0.1226  0.2099
 2332DPPE   C1A49841   9.125   3.271  12.744 -0.2714 -0.0138 -0.1277
 2332DPPE   C2A49842   9.266   3.398  13.195  0.0415  0.0060  0.1565
 2332DPPE   C3A49843   9.321   3.742  13.378 -0.0997 -0.0414  0.2548
 2332DPPE   C4A49844   9.242   3.943  13.742  0.0450  0.0495 -0.2655
 2332DPPE   C1B49845   9.362   3.745  12.826 -0.2735  0.1319  0.0737
 2332DPPE   C2B49846   9.531   4.011  13.022  0.0189 -0.1586 -0.0780
 2332DPPE   C3B49847   9.806   4.284  13.110 -0.2111  0.0962  0.6538
 2332DPPE   C4B49848  10.101   4.379  13.333 -0.0246 -0.0316  0.4521
 2333DPPE   NH349849   9.252   0.032  15.262 -0.0464  0.1886  0.0169
 2333DPPE   PO449850   9.594  -0.141  14.914 -0.4200  0.0609 -0.2036
 2333DPPE   GL149851   9.285  -0.441  15.074  0.3166 -0.1182 -0.0760
 2333DPPE   GL249852   9.304  -0.466  15.400  0.0262  0.0150 -0.0048
 2333DPPE   C1A49853   8.790  -0.457  15.007  0.2630 -0.1374 -0.1623
 2333DPPE   C2A49854   8.492  -0.673  15.245 -0.0710  0.0473 -0.2675
 2333DPPE   C3A49855   8.099  -0.773  15.307 -0.0496  0.3129  0.1288
 2333DPPE   C4A49856   7.917  -1.128  15.570  0.1252  0.1610  0.1384
 2333DPPE   C1B49857   9.016  -0.598  15.690 -0.3212  0.0065  0.1319
 2333DPPE   C2B49858   8.622  -0.715  15.710 -0.1021 -0.0846 -0.0128
 2333DPPE   C3B49859   8.281  -0.939  15.857 -0.2184 -0.1215 -0.0182
 2333DPPE   C4B49860   7.889  -0.981  16.060  0.0748  0.0894  0.2701
 2334DPPE   NH349861   4.913   6.596  12.146  0.0535 -0.0983 -0.0162
 2334DPPE   PO449862   4.982   6.290  12.439 -0.1514  0.0936 -0.0445
 2334DPPE   GL149863   4.746   5.977  12.416  0.0135 -0.1529 -0.0518
 2334DPPE   GL249864   4.711   6.148  12.047  0.0963  0.0081 -0.0202
 2334DPPE   C1A49865   4.480   5.662  12.661 -0.0209 -0.2067  0.1685
 2334DPPE   C2A49866   3.999   5.862  12.510 -0.0875 -0.0450 -0.0837
 2334DPPE   C3A49867   3.725   5.907  12.178  0.3688  0.0912 -0.1956
 2334DPPE   C4A49868   3.329   5.930  11.922 -0.3125 -0.2084  0.1038
 2334DPPE   C1B49869   4.268   6.017  12.066 -0.2105 -0.1947  0.2213
 2334DPPE   C2B49870   3.924   5.904  11.705  0.1695  0.1531  0.2222
 2334DPPE   C3B49871   3.634   5.802  11.472  0.0126  0.0927 -0.0616
 2334DPPE   C4B49872   3.583   5.906  11.064  0.1494  0.1079  0.1855
 2335DPPE   NH349873  10.069  12.213   6.654 -0.0242 -0.1258  0.3589
 2335DPPE   PO449874  10.248  11.840   6.811 -0.3741  0.0435  0.1505
 2335DPPE   GL149875  10.408  12.178   6.984 -0.0887  0.0047 -0.4408
 2335DPPE   GL249876  10.166  12.411   7.149 -0.0546  0.2336  0.3200
 2335DPPE   C1A49877  10.691  12.476   7.141  0.1255  0.1866 -0.0403
 2335DPPE   C2A49878  10.584  12.671   7.468  0.0062  0.0115 -0.3504
 2335DPPE   C3A49879  10.405  12.879   7.817 -0.1825 -0.0240  0.0810
 2335DPPE   C4A49880  10.663  13.206   7.940 -0.3232  0.0332 -0.1084
 2335DPPE   C1B49881  10.040  12.660   7.420  0.1820 -0.1264 -0.1190
 2335DPPE   C2B49882  10.042  13.089   7.584  0.2429 -0.1298  0.3884
 2335DPPE   C3B49883  10.311  13.302   7.522  0.1619  0.4530  0.0300
 2335DPPE   C4B49884  10.600  13.507   7.375 -0.0664 -0.1816  0.0596
 2336DPPE   NH349885   8.842   2.291  15.099 -0.0581 -0.0594 -0.1576
 2336DPPE   PO449886   8.847   2.292  14.767  0.0204  0.0432  0.0002
 2336DPPE   GL149887   9.304   2.331  14.765  0.0851 -0.1355  0.0974
 2336DPPE   GL249888   9.513   2.077  14.708 -0.0017  0.0325 -0.1842
 2336DPPE   C1A49889   9.549   2.627  14.793 -0.2076 -0.2321 -0.3741
 2336DPPE   C2A49890   9.922   2.719  14.629  0.1529  0.0057 -0.2501
 2336DPPE   C3A49891  10.297   2.819  14.562 -0.0095 -0.3347  0.3093
 2336DPPE   C4A49892  10.644   3.105  14.533 -0.1383 -0.1649  0.1374
 2336DPPE   C1B49893   9.870   2.266  14.810 -0.1495 -0.0207 -0.3681
 2336DPPE   C2B49894  10.396   2.424  14.871 -0.0162 -0.0485 -0.0094
 2336DPPE   C3B49895  10.674   2.781  15.016 -0.0821 -0.2470 -0.1149
 2336DPPE   C4B49896  11.091   2.874  15.009 -0.0406 -0.0670  0.1189
 2337DPPE   NH349897   6.730   4.461  15.400 -0.1290 -0.1967 -0.1627
 2337DPPE   PO449898   7.033   4.468  15.803 -0.1638  0.0832 -0.2078
 2337DPPE   GL149899   7.423   4.786  15.806  0.0015  0.2439 -0.2284
 2337DPPE   GL249900   7.418   5.110  16.009  0.1903  0.1030  0.0513
 2337DPPE   C1A49901   7.661   4.688  16.230 -0.1205  0.0553  0.1913
 2337DPPE   C2A49902   7.673   4.648  16.669 -0.1011 -0.0880 -0.1505
 2337DPPE   C3A49903   7.754   4.720  17.170  0.3579  0.2781 -0.0699
 2337DPPE   C4A49904   7.941   4.786  17.506 -0.2390 -0.1404  0.0134
 2337DPPE   C1B49905   7.478   5.145  16.356  0.0591 -0.2051 -0.0040
 2337DPPE   C2B49906   7.602   5.563  16.630 -0.0143  0.0322 -0.0972
 2337DPPE   C3B49907   7.856   5.807  17.017  0.0807  0.0171  0.0248
 2337DPPE   C4B49908   7.735   6.122  17.347  0.1322  0.1095  0.2668
 2338DPPE   NH349909  14.527   3.900   7.623 -0.1783 -0.1283  0.2144
 2338DPPE   PO449910  14.753   3.548   7.744 -0.3610 -0.0569 -0.3720
 2338DPPE   GL149911  14.837   3.661   8.121  0.2029  0.1111  0.1293
 2338DPPE   GL249912  14.728   4.002   8.053 -0.1818 -0.0449 -0.2357
 2338DPPE   C1A49913  15.125   3.706   8.433  0.2457  0.2508  0.1461
 2338DPPE   C2A49914  15.335   4.023   8.643 -0.1280 -0.1552  0.1629
 2338DPPE   C3A49915  15.539   4.117   8.980 -0.2393  0.2988  0.0939
 2338DPPE   C4A49916  15.907   4.418   9.038  0.5444 -0.0849  0.1454
 2338DPPE   C1B49917  15.042   4.168   8.237 -0.1898 -0.4891  0.2414
 2338DPPE   C2B49918  15.045   4.419   8.650  0.4624 -0.0338 -0.4229
 2338DPPE   C3B49919  15.094   4.311   9.095 -0.0387 -0.1295 -0.1758
 2338DPPE   C4B49920  15.385   4.346   9.497 -0.1663 -0.0081  0.1057
 2339DPPE   NH349921   7.949   1.320  16.305 -0.1910  0.1474 -0.0205
 2339DPPE   PO449922   8.264   1.140  16.168  0.2214 -0.2217 -0.0528
 2339DPPE   GL149923   8.568   1.035  16.380 -0.0020 -0.0085  0.0013
 2339DPPE   GL249924   8.717   0.671  16.479  0.3273  0.0645  0.0242
 2339DPPE   C1A49925   8.851   1.076  16.732  0.2583  0.0403  0.0775
 2339DPPE   C2A49926   9.163   1.166  16.987  0.0074 -0.1110 -0.3105
 2339DPPE   C3A49927   9.472   0.996  17.291 -0.1705 -0.0479  0.2436
 2339DPPE   C4A49928   9.525   0.585  17.586  0.0759 -0.2161 -0.2432
 2339DPPE   C1B49929   8.530   0.196  16.652 -0.1272 -0.0707  0.2699
 2339DPPE   C2B49930   8.510  -0.097  17.000  0.2454 -0.0104  0.4667
 2339DPPE   C3B49931   8.822  -0.223  17.269 -0.0606 -0.0957  0.2777
 2339DPPE   C4B49932   9.103  -0.308  17.628 -0.0048 -0.1632  0.0246
 2340DPPE   NH349933   6.156   3.465  14.400  0.1550 -0.3496  0.0095
 2340DPPE   PO449934   6.354   3.202  14.654  0.0783  0.4679 -0.1839
 2340DPPE   GL149935   5.957   3.066  14.666  0.5256  0.2582  0.0468
 2340DPPE   GL249936   5.814   3.065  15.006  0.0075 -0.0126 -0.2738
 2340DPPE   C1A49937   5.674   2.818  14.534  0.0546 -0.0342  0.1140
 2340DPPE   C2A49938   5.399   2.430  14.558 -0.1249  0.1724 -0.0347
 2340DPPE   C3A49939   5.267   2.108  14.274 -0.2144 -0.2788 -0.2022
 2340DPPE   C4A49940   5.255   1.742  13.879  0.1387 -0.0436  0.2719
 2340DPPE   C1B49941   5.469   2.948  15.028  0.2048  0.0363  0.0403
 2340DPPE   C2B49942   5.171   2.883  15.295  0.1616  0.3009  0.3630
 2340DPPE   C3B49943   4.818   2.658  15.450 -0.1342  0.1794 -0.0354
 2340DPPE   C4B49944   4.416   2.453  15.459 -0.0110  0.0473 -0.1431
 2341DPPE   NH349945  10.570  35.786  14.712  0.2702 -0.0969 -0.1845
 2341DPPE   PO449946  10.471  36.108  14.959  0.3578  0.0709  0.0540
 2341DPPE   GL149947  10.343  35.835  15.285  0.0929 -0.0005  0.0333
 2341DPPE   GL249948  10.464  35.564  15.318 -0.2011  0.0321  0.0446
 2341DPPE   C1A49949  10.001  35.471  15.592  0.0365 -0.0725 -0.2499
 2341DPPE   C2A49950   9.913  35.033  15.684  0.0006  0.0647 -0.3534
 2341DPPE   C3A49951   9.839  34.718  15.975  0.1137 -0.1429 -0.0265
 2341DPPE   C4A49952  10.211  34.562  16.138  0.0170  0.0100 -0.0418
 2341DPPE   C1B49953  10.414  35.151  15.288 -0.2697 -0.4481 -0.1154
 2341DPPE   C2B49954  10.634  34.738  15.249  0.0030  0.3544  0.3234
 2341DPPE   C3B49955  11.014  34.545  15.262  0.0707  0.0233  0.3345
 2341DPPE   C4B49956  11.227  34.125  15.278  0.3366 -0.1776  0.1632
 2342DPPE   NH349957   6.590   7.563   9.520  0.3666 -0.0704 -0.0157
 2342DPPE   PO449958   6.555   7.976   9.654  0.0864 -0.0075  0.2379
 2342DPPE   GL149959   6.402   7.891   9.181 -0.1589  0.0887 -0.2475
 2342DPPE   GL249960   6.473   8.027   9.061 -0.2852  0.1000 -0.4105
 2342DPPE   C1A49961   6.052   7.764   8.885 -0.1204  0.1616  0.4496
 2342DPPE   C2A49962   5.655   7.962   8.711 -0.1896  0.2739 -0.0438
 2342DPPE   C3A49963   5.239   7.995   8.460 -0.0544  0.0658  0.0895
 2342DPPE   C4A49964   5.112   7.753   8.145  0.3077 -0.1082  0.0081
 2342DPPE   C1B49965   6.110   8.282   8.902 -0.0782 -0.2193 -0.1003
 2342DPPE   C2B49966   5.763   8.471   8.807 -0.4032  0.2883  0.1914
 2342DPPE   C3B49967   5.414   8.422   8.605 -0.2548  0.0881 -0.2613
 2342DPPE   C4B49968   4.982   8.649   8.537 -0.0619 -0.0870  0.1331
 2343DPPE   NH349969   8.584   1.145  12.654 -0.2410  0.2834 -0.0366
 2343DPPE   PO449970   8.593   0.978  13.152  0.1697  0.2161  0.2718
 2343DPPE   GL149971   8.315   0.768  12.920  0.1246 -0.1379 -0.0530
 2343DPPE   GL249972   8.293   0.791  12.644 -0.1021 -0.3852  0.2405
 2343DPPE   C1A49973   7.925   0.666  13.069  0.0414 -0.1831 -0.1437
 2343DPPE   C2A49974   7.524   0.497  12.961 -0.0604 -0.5659  0.1349
 2343DPPE   C3A49975   7.271   0.344  12.675 -0.1446  0.2711  0.1438
 2343DPPE   C4A49976   6.820   0.141  12.478 -0.3245 -0.1456 -0.3676
 2343DPPE   C1B49977   7.824   0.641  12.552 -0.2237  0.1922 -0.4796
 2343DPPE   C2B49978   7.817   0.510  12.177 -0.1747  0.1088 -0.1800
 2343DPPE   C3B49979   7.639   0.222  11.858  0.3409  0.4563 -0.2425
 2343DPPE   C4B49980   7.448   0.010  11.538 -0.0514 -0.0186 -0.2961
 2344DPPE   NH349981   7.686  11.256   8.619 -0.0137  0.1650 -0.2733
 2344DPPE   PO449982   7.633  11.510   8.337  0.2429 -0.2650  0.0238
 2344DPPE   GL149983   7.477  11.966   8.323  0.0403  0.1140 -0.0893
 2344DPPE   GL249984   7.210  12.061   8.262  0.5507  0.0364  0.0030
 2344DPPE   C1A49985   7.383  12.500   8.354 -0.0926  0.4156 -0.0884
 2344DPPE   C2A49986   7.335  12.972   8.479  0.0855 -0.0830 -0.4040
 2344DPPE   C3A49987   7.270  13.153   8.770 -0.0614  0.0255 -0.0784
 2344DPPE   C4A49988   7.030  13.373   9.064  0.0243 -0.0702 -0.1435
 2344DPPE   C1B49989   6.809  12.341   8.339 -0.1913 -0.3709 -0.2386
 2344DPPE   C2B49990   6.541  12.489   8.063 -0.1553  0.1699 -0.4552
 2344DPPE   C3B49991   6.177  12.696   7.968 -0.4451 -0.0858  0.1658
 2344DPPE   C4B49992   5.925  13.054   8.202  0.0746 -0.2066  0.3373
 2345DPPE   NH349993  15.563   3.728   6.801  0.2065  0.0196  0.0461
 2345DPPE   PO449994  15.740   4.169   6.862 -0.0399  0.3441  0.0815
 2345DPPE   GL149995  15.894   4.417   7.117  0.1577  0.1660 -0.3132
 2345DPPE   GL249996  16.186   4.546   7.057  0.2080  0.0865  0.1118
 2345DPPE   C1A49997  16.136   4.339   7.529 -0.0736  0.4002 -0.5710
 2345DPPE   C2A49998  16.109   4.421   7.958  0.0955  0.4374 -0.1535
 2345DPPE   C3A49999  15.898   4.766   8.236 -0.3264 -0.0902 -0.2171
 2345DPPE   C4A50000  15.761   4.911   8.642 -0.0167  0.1326  0.0701
 2345DPPE   C1B50001  16.609   4.703   7.221  0.0490 -0.1419  0.0078
 2345DPPE   C2B50002  16.834   4.792   7.503  0.0356  0.1063  0.0484
 2345DPPE   C3B50003  16.963   4.862   7.817  0.1033 -0.0642  0.2905
 2345DPPE   C4B50004  17.267   4.745   8.130 -0.0506 -0.5006 -0.0162
 2346DPPE   NH350005  10.715   7.060   6.831  0.2231 -0.1405 -0.0281
 2346DPPE   PO450006  10.582   6.895   7.279 -0.4021 -0.1733  0.0631
 2346DPPE   GL150007  10.787   7.076   7.528  0.0590  0.0212 -0.0125
 2346DPPE   GL250008  11.029   6.847   7.678 -0.1772  0.1336  0.2737
 2346DPPE   C1A50009  10.848   7.377   7.799 -0.0792  0.0663 -0.0238
 2346DPPE   C2A50010  11.104   7.619   8.111  0.0325  0.2591  0.2248
 2346DPPE   C3A50011  11.428   7.586   8.330 -0.1276 -0.1536  0.2217
 2346DPPE   C4A50012  11.645   7.872   8.643 -0.0253  0.2453  0.0188
 2346DPPE   C1B50013  10.996   7.000   8.129 -0.1001  0.0877 -0.3138
 2346DPPE   C2B50014  11.075   7.304   8.483 -0.2007  0.2761 -0.0484
 2346DPPE   C3B50015  11.242   7.605   8.796 -0.2699  0.2293  0.0831
 2346DPPE   C4B50016  11.260   8.134   8.929  0.0148 -0.2727  0.2618
 2347DPPE   NH350017  13.488   6.095   6.412 -0.5030 -0.2156 -0.1623
 2347DPPE   PO450018  13.836   6.387   6.487  0.1166 -0.3120  0.0678
 2347DPPE   GL150019  13.793   6.429   6.928  0.0663 -0.0200  0.2129
 2347DPPE   GL250020  13.849   6.173   7.006 -0.1074  0.1594  0.0109
 2347DPPE   C1A50021  13.813   6.443   7.431  0.0013  0.3942 -0.2216
 2347DPPE   C2A50022  14.110   6.621   7.786  0.1351 -0.0120 -0.0353
 2347DPPE   C3A50023  14.002   6.741   8.099  0.3397 -0.4534 -0.2986
 2347DPPE   C4A50024  14.195   6.743   8.436 -0.0944  0.0037 -0.0790
 2347DPPE   C1B50025  14.177   6.090   7.358 -0.2254 -0.0073  0.0033
 2347DPPE   C2B50026  14.542   6.149   7.557 -0.1320 -0.1482 -0.1349
 2347DPPE   C3B50027  14.679   6.425   7.917 -0.1549 -0.0557 -0.0002
 2347DPPE   C4B50028  14.677   6.454   8.375  0.0756  0.0844 -0.1351
 2348DPPE   NH350029  13.376   2.375   8.517  0.0629  0.0378 -0.0627
 2348DPPE   PO450030  13.847   2.442   8.207 -0.2698 -0.0483  0.1839
 2348DPPE   GL150031  13.920   2.509   8.537  0.1397  0.3166  0.0567
 2348DPPE   GL250032  13.753   2.794   8.594  0.0503  0.2367 -0.0728
 2348DPPE   C1A50033  14.181   2.573   8.964  0.3428 -0.1622 -0.1968
 2348DPPE   C2A50034  14.252   2.912   9.277 -0.4383  0.2918 -0.3290
 2348DPPE   C3A50035  14.299   3.026   9.744  0.1860  0.0345 -0.2144
 2348DPPE   C4A50036  14.453   3.113  10.126 -0.0832 -0.0688  0.1339
 2348DPPE   C1B50037  13.857   3.184   8.853 -0.2696 -0.1062 -0.0064
 2348DPPE   C2B50038  13.729   3.483   9.022  0.0856  0.3267  0.1463
 2348DPPE   C3B50039  13.750   3.985   9.126  0.1473  0.1527  0.2488
 2348DPPE   C4B50040  14.027   4.280   8.867  0.0832  0.0989 -0.1108
 2349DPPE   NH350041   4.987   6.398  14.909 -0.1022 -0.0665 -0.1190
 2349DPPE   PO450042   5.030   6.701  15.246  0.0286 -0.0714 -0.0286
 2349DPPE   GL150043   4.842   7.069  15.624  0.3904  0.1354 -0.1090
 2349DPPE   GL250044   4.700   6.743  15.596 -0.0307  0.0781 -0.0933
 2349DPPE   C1A50045   4.539   7.079  16.059  0.0537 -0.1088  0.0039
 2349DPPE   C2A50046   4.454   6.715  16.392  0.3651  0.0332 -0.0092
 2349DPPE   C3A50047   4.202   6.264  16.557 -0.0580  0.2661 -0.0914
 2349DPPE   C4A50048   3.856   5.909  16.594  0.0384 -0.1274 -0.2434
 2349DPPE   C1B50049   4.407   6.632  15.910  0.1794 -0.3453  0.1909
 2349DPPE   C2B50050   3.988   6.871  16.238  0.1990 -0.0848  0.1666
 2349DPPE   C3B50051   3.575   6.900  16.220 -0.0035 -0.1466 -0.0197
 2349DPPE   C4B50052   3.267   6.665  16.108 -0.0819  0.0305 -0.0846
 2350DPPE   NH350053   6.397   6.242  14.146  0.2175 -0.2338 -0.1523
 2350DPPE   PO450054   6.401   6.715  14.184 -0.2556  0.2821  0.0204
 2350DPPE   GL150055   6.596   6.961  14.350  0.0493  0.0940 -0.0378
 2350DPPE   GL250056   6.661   7.235  14.116 -0.1684 -0.0522 -0.1990
 2350DPPE   C1A50057   6.744   7.190  14.642  0.0771 -0.1526  0.1200
 2350DPPE   C2A50058   7.093   7.402  14.736  0.1718 -0.2404  0.1929
 2350DPPE   C3A50059   7.504   7.490  14.945  0.3970 -0.0150  0.0520
 2350DPPE   C4A50060   7.538   7.565  15.340 -0.0670 -0.0435  0.1712
 2350DPPE   C1B50061   6.874   7.625  14.131  0.1425 -0.0024 -0.1632
 2350DPPE   C2B50062   7.275   7.761  14.386  0.0844 -0.0502 -0.2243
 2350DPPE   C3B50063   7.647   7.966  14.538  0.4457 -0.0135  0.2050
 2350DPPE   C4B50064   7.710   8.351  14.669  0.0790 -0.2732  0.2355
 2351DPPE   NH350065  13.898  35.524  10.238 -0.1373  0.0029 -0.0259
 2351DPPE   PO450066  14.205  35.200  10.503 -0.2667 -0.0680  0.0722
 2351DPPE   GL150067  13.855  35.038  10.406 -0.0232 -0.1674 -0.0430
 2351DPPE   GL250068  13.700  35.028  10.625  0.3112 -0.0675 -0.0101
 2351DPPE   C1A50069  13.583  34.712  10.177  0.2502 -0.1053 -0.0218
 2351DPPE   C2A50070  13.448  34.504   9.814  0.0342  0.1758 -0.1546
 2351DPPE   C3A50071  13.174  34.159   9.621  0.2202  0.4539 -0.2099
 2351DPPE   C4A50072  13.297  33.826   9.623 -0.1367 -0.2511  0.0306
 2351DPPE   C1B50073  13.679  34.609  10.730 -0.1375 -0.0306 -0.0007
 2351DPPE   C2B50074  13.622  34.209  10.491  0.0132  0.0530  0.0780
 2351DPPE   C3B50075  13.928  33.893  10.408 -0.2666 -0.0892  0.0060
 2351DPPE   C4B50076  14.275  33.640  10.168  0.1120  0.2918  0.0737
 2352DPPE   NH350077   7.848   6.050  10.538 -0.1113 -0.1249  0.1202
 2352DPPE   PO450078   8.036   5.697  10.770  0.0980  0.0674 -0.0139
 2352DPPE   GL150079   8.270   5.813  11.120 -0.3672 -0.0184  0.0826
 2352DPPE   GL250080   8.499   5.535  11.136 -0.4361 -0.1655  0.0169
 2352DPPE   C1A50081   8.463   6.061  11.537  0.4069  0.1938 -0.3026
 2352DPPE   C2A50082   8.632   6.345  11.423  0.1904 -0.2374 -0.0594
 2352DPPE   C3A50083   8.624   6.738  11.596  0.0725 -0.0382  0.0034
 2352DPPE   C4A50084   8.822   7.158  11.743 -0.0156 -0.0927  0.4232
 2352DPPE   C1B50085   8.856   5.885  11.247  0.3494  0.1392  0.2507
 2352DPPE   C2B50086   9.181   6.132  11.480 -0.2483 -0.1363 -0.2384
 2352DPPE   C3B50087   9.440   6.500  11.548  0.0889  0.0708 -0.1182
 2352DPPE   C4B50088   9.189   6.846  11.737 -0.0429 -0.0626  0.1836
 2353DPPE   NH350089  15.871   1.981   6.573 -0.0534  0.1908  0.1386
 2353DPPE   PO450090  15.604   1.785   6.831  0.1427 -0.2974 -0.0023
 2353DPPE   GL150091  15.744   1.409   6.648 -0.1469  0.1494 -0.1147
 2353DPPE   GL250092  15.767   1.539   6.316 -0.0200 -0.1644 -0.0440
 2353DPPE   C1A50093  15.829   1.031   6.441 -0.1337  0.0693  0.0819
 2353DPPE   C2A50094  15.876   0.726   6.317  0.0995 -0.0398  0.2739
 2353DPPE   C3A50095  15.615   0.367   6.170 -0.2528 -0.0206 -0.1725
 2353DPPE   C4A50096  15.366   0.003   6.266 -0.0550  0.0095  0.2557
 2353DPPE   C1B50097  15.609   1.302   6.048  0.3901  0.1178 -0.0183
 2353DPPE   C2B50098  15.306   1.086   5.769 -0.3164 -0.1320 -0.1668
 2353DPPE   C3B50099  15.387   0.935   5.374 -0.0985  0.2284 -0.1668
 2353DPPE   C4B50100  15.471   1.258   5.132  0.1642  0.2050 -0.3000
 2354DPPE   NH350101   7.399   3.644  15.321 -0.0650 -0.0477  0.1296
 2354DPPE   PO450102   7.517   3.874  15.003  0.0333 -0.2571 -0.1543
 2354DPPE   GL150103   8.006   3.738  14.917 -0.0630 -0.3349 -0.2974
 2354DPPE   GL250104   8.117   3.504  15.230  0.1179 -0.0874 -0.1491
 2354DPPE   C1A50105   8.378   3.855  14.870 -0.1669  0.0406 -0.0158
 2354DPPE   C2A50106   8.746   4.049  15.037  0.1482  0.0930  0.0152
 2354DPPE   C3A50107   8.961   4.363  15.334 -0.0025 -0.0537  0.1800
 2354DPPE   C4A50108   9.212   4.588  15.623  0.3347  0.0601  0.2003
 2354DPPE   C1B50109   8.468   3.646  15.365 -0.0647  0.0258 -0.0043
 2354DPPE   C2B50110   8.811   3.641  15.232 -0.2129  0.0605 -0.0148
 2354DPPE   C3B50111   9.200   3.906  15.240  0.0397 -0.1624  0.0502
 2354DPPE   C4B50112   9.538   3.906  15.332 -0.1953  0.1935  0.0561
 2355DPPE   NH350113   8.956   0.086  13.328 -0.2220  0.0075  0.1691
 2355DPPE   PO450114   9.029   0.211  12.968 -0.0563 -0.3431 -0.1146
 2355DPPE   GL150115   8.621   0.054  12.961 -0.0972 -0.1102 -0.0399
 2355DPPE   GL250116   8.497   0.321  13.081  0.2719 -0.0640 -0.2305
 2355DPPE   C1A50117   8.338  -0.192  13.066  0.3327 -0.1199 -0.1387
 2355DPPE   C2A50118   8.116  -0.425  12.897  0.3128  0.1785 -0.1719
 2355DPPE   C3A50119   7.749  -0.462  12.633 -0.1304  0.1908 -0.1756
 2355DPPE   C4A50120   7.538  -0.703  12.341  0.0157 -0.0014  0.0561
 2355DPPE   C1B50121   8.162   0.326  12.856 -0.1813 -0.1189  0.2181
 2355DPPE   C2B50122   7.953   0.156  12.565  0.1582  0.0643 -0.0124
 2355DPPE   C3B50123   7.584   0.110  12.366 -0.1039  0.0152 -0.0340
 2355DPPE   C4B50124   7.282  -0.119  12.177  0.0730 -0.1396  0.1267
 2356DPPE   NH350125   7.021   4.472  17.228 -0.0930  0.1112 -0.2012
 2356DPPE   PO450126   6.908   4.033  17.237 -0.1892  0.1513  0.0593
 2356DPPE   GL150127   7.205   4.154  17.580 -0.1794  0.2304  0.3162
 2356DPPE   GL250128   7.424   4.023  17.374  0.1452  0.2172 -0.1909
 2356DPPE   C1A50129   7.401   4.253  17.948 -0.4250  0.0693 -0.1188
 2356DPPE   C2A50130   7.314   4.174  18.389  0.4477 -0.0127 -0.1763
 2356DPPE   C3A50131   7.215   4.447  18.612  0.1857  0.0119  0.0878
 2356DPPE   C4A50132   7.207   4.859  18.577  0.1761 -0.1781  0.1198
 2356DPPE   C1B50133   7.756   4.290  17.454 -0.0552  0.0626  0.0170
 2356DPPE   C2B50134   7.897   4.457  17.896  0.0497 -0.2068 -0.0811
 2356DPPE   C3B50135   8.115   4.690  18.229 -0.3833 -0.2254  0.3252
 2356DPPE   C4B50136   8.056   4.953  18.555  0.3084  0.3244 -0.0174
 2357DPPE   NH350137   9.790   4.987   7.815 -0.2403  0.0327 -0.0773
 2357DPPE   PO450138  10.254   4.957   7.755  0.0465 -0.0522  0.2183
 2357DPPE   GL150139  10.128   4.806   7.371  0.0293  0.0190 -0.0617
 2357DPPE   GL250140   9.930   4.632   7.500 -0.0283 -0.3409  0.3322
 2357DPPE   C1A50141   9.979   4.847   7.031  0.1150 -0.0405  0.0265
 2357DPPE   C2A50142   9.809   4.605   6.643  0.0359 -0.3002  0.0515
 2357DPPE   C3A50143   9.679   4.365   6.264  0.0212  0.0286  0.5497
 2357DPPE   C4A50144   9.382   4.176   5.894 -0.2864 -0.0394  0.2313
 2357DPPE   C1B50145   9.718   4.409   7.070  0.0620  0.3273  0.1359
 2357DPPE   C2B50146   9.725   4.082   6.750 -0.0641 -0.1980  0.0762
 2357DPPE   C3B50147   9.338   3.984   6.404 -0.0229  0.0823  0.2167
 2357DPPE   C4B50148   9.095   3.897   6.103 -0.1787 -0.1100  0.1552
 2358DPPE   NH350149   9.944   0.874  13.564 -0.0515 -0.3527  0.1053
 2358DPPE   PO450150  10.044   1.003  13.955 -0.0932  0.1913  0.2183
 2358DPPE   GL150151  10.135   1.348  14.334  0.0430 -0.1916  0.0549
 2358DPPE   GL250152  10.274   1.638  14.109 -0.0767  0.2730 -0.3891
 2358DPPE   C1A50153  10.596   1.534  14.436  0.3311 -0.4854 -0.0168
 2358DPPE   C2A50154  10.945   1.666  14.301  0.0942  0.1597 -0.2280
 2358DPPE   C3A50155  11.355   1.931  14.428  0.3202  0.2153 -0.2953
 2358DPPE   C4A50156  11.641   2.163  14.452  0.0500 -0.1226  0.0558
 2358DPPE   C1B50157  10.558   1.968  14.147 -0.0481  0.1528 -0.0583
 2358DPPE   C2B50158  10.955   2.172  14.080 -0.1900  0.0567 -0.0991
 2358DPPE   C3B50159  11.214   2.359  14.240  0.1066 -0.2409 -0.2118
 2358DPPE   C4B50160  11.619   2.535  14.104  0.0157 -0.1469 -0.0666
 2359DPPE   NH350161  13.338   4.150   5.819  0.0891 -0.1942  0.1049
 2359DPPE   PO450162  13.747   4.351   5.736  0.1994 -0.0858 -0.2076
 2359DPPE   GL150163  13.526   4.310   5.371 -0.1030  0.3060  0.1777
 2359DPPE   GL250164  13.742   4.247   5.094  0.2393  0.3869 -0.0871
 2359DPPE   C1A50165  13.169   4.225   5.133  0.0665 -0.1081 -0.0645
 2359DPPE   C2A50166  12.989   4.055   4.833 -0.3714  0.4191 -0.1302
 2359DPPE   C3A50167  12.809   3.956   4.480 -0.1949 -0.1313 -0.3567
 2359DPPE   C4A50168  12.616   3.908   4.075 -0.1349  0.1779  0.4114
 2359DPPE   C1B50169  13.485   4.197   4.757  0.0057  0.1601 -0.2223
 2359DPPE   C2B50170  13.281   3.954   4.368  0.1889  0.5106  0.3010
 2359DPPE   C3B50171  13.144   3.722   4.022  0.2931  0.2127 -0.0282
 2359DPPE   C4B50172  12.935   3.494   3.737 -0.0082 -0.0812 -0.0573
 2360DPPE   NH350173  11.238   1.504  10.804 -0.2347  0.1725  0.0015
 2360DPPE   PO450174  11.358   1.173  11.079 -0.3889  0.0489  0.2443
 2360DPPE   GL150175  11.351   1.164  11.523  0.0574  0.1933  0.1300
 2360DPPE   GL250176  11.389   0.947  11.785 -0.3310  0.0611 -0.0250
 2360DPPE   C1A50177  11.219   1.510  11.714 -0.0195 -0.0426 -0.0368
 2360DPPE   C2A50178  10.948   1.837  12.028 -0.2998 -0.1637 -0.2638
 2360DPPE   C3A50179  10.581   2.080  12.208 -0.1615 -0.0050  0.0134
 2360DPPE   C4A50180  10.295   2.191  12.439  0.1930 -0.1522  0.0452
 2360DPPE   C1B50181  11.719   1.277  11.936  0.0511  0.0294 -0.0673
 2360DPPE   C2B50182  12.080   1.576  11.930  0.0357  0.1395 -0.2028
 2360DPPE   C3B50183  12.432   1.799  12.097 -0.1257 -0.0026  0.0112
 2360DPPE   C4B50184  12.780   1.525  12.055  0.0674  0.2741 -0.3551
 2361DPPE   NH350185   5.491  10.183  12.073  0.2036 -0.0806  0.0692
 2361DPPE   PO450186   5.839  10.170  12.469 -0.2346 -0.2084  0.0907
 2361DPPE   GL150187   5.989  10.376  12.816  0.3585  0.0045 -0.0373
 2361DPPE   GL250188   6.238  10.368  12.786  0.0208 -0.1978 -0.0146
 2361DPPE   C1A50189   6.193  10.858  12.982  0.3680  0.1373 -0.0032
 2361DPPE   C2A50190   6.239  11.165  13.379  0.1506 -0.2496  0.0633
 2361DPPE   C3A50191   6.044  11.679  13.481  0.2305  0.1140 -0.1921
 2361DPPE   C4A50192   5.777  11.729  13.840 -0.1191  0.0544  0.3313
 2361DPPE   C1B50193   6.627  10.504  12.985  0.0803 -0.0134  0.0401
 2361DPPE   C2B50194   6.691  10.920  13.073  0.2279  0.2392 -0.1135
 2361DPPE   C3B50195   6.802  11.157  13.487  0.1764 -0.3111 -0.1565
 2361DPPE   C4B50196   6.961  11.458  13.771  0.0111  0.2100 -0.2146
 2362DPPE   NH350197   9.631  11.686   7.616 -0.0359  0.0715  0.3259
 2362DPPE   PO450198   9.286  11.346   7.749  0.3199 -0.0635  0.1326
 2362DPPE   GL150199   9.539  11.371   8.041  0.0796 -0.0659  0.0125
 2362DPPE   GL250200   9.507  11.692   8.096 -0.1081 -0.3572  0.1799
 2362DPPE   C1A50201   9.678  11.474   8.491  0.0988 -0.0289 -0.2143
 2362DPPE   C2A50202   9.926  11.276   8.963 -0.0367 -0.1001 -0.4067
 2362DPPE   C3A50203   9.770  11.054   9.312  0.0590  0.2778  0.0918
 2362DPPE   C4A50204   9.970  10.741   9.600 -0.3302 -0.0893  0.0834
 2362DPPE   C1B50205   9.799  11.940   8.308 -0.1612  0.0731 -0.0303
 2362DPPE   C2B50206   9.834  12.356   8.393  0.0272  0.2104 -0.1949
 2362DPPE   C3B50207   9.596  12.785   8.496  0.0465  0.2804 -0.1606
 2362DPPE   C4B50208   9.255  13.116   8.510 -0.0530 -0.0676  0.1128
 2363DPPE   NH350209   5.249   8.294  12.569 -0.0657 -0.1964  0.0136
 2363DPPE   PO450210   5.107   8.655  12.753  0.3871 -0.3492  0.0202
 2363DPPE   GL150211   4.716   8.679  12.776  0.0684 -0.1598 -0.1365
 2363DPPE   GL250212   4.499   8.849  12.499  0.2738 -0.0531  0.3827
 2363DPPE   C1A50213   4.292   8.360  12.746  0.0088  0.3635  0.1197
 2363DPPE   C2A50214   3.874   8.314  12.695 -0.1513  0.0169 -0.1632
 2363DPPE   C3A50215   3.521   8.492  12.698  0.1042  0.0888 -0.0865
 2363DPPE   C4A50216   3.191   8.646  12.579  0.1823  0.4753 -0.0552
 2363DPPE   C1B50217   3.994   8.918  12.612 -0.1779  0.1641  0.1494
 2363DPPE   C2B50218   3.610   9.052  12.650 -0.1432  0.0045  0.1371
 2363DPPE   C3B50219   3.414   9.345  12.960 -0.4795 -0.1835  0.0315
 2363DPPE   C4B50220   3.274   9.631  13.303  0.2882  0.0980 -0.1012
 2364DPPE   NH350221   7.367   9.136  10.261 -0.3656  0.1403  0.1513
 2364DPPE   PO450222   7.552   9.638  10.196  0.1267  0.0893 -0.2256
 2364DPPE   GL150223   7.862   9.745  10.436 -0.0445  0.1007  0.0792
 2364DPPE   GL250224   8.105   9.835  10.270  0.3718 -0.2977 -0.0765
 2364DPPE   C1A50225   8.000  10.066  10.727  0.0609 -0.0678  0.3993
 2364DPPE   C2A50226   8.209  10.414  10.804  0.2502 -0.0603  0.2820
 2364DPPE   C3A50227   8.381  10.814  10.859 -0.2174  0.2637  0.1561
 2364DPPE   C4A50228   8.359  10.991  11.266  0.0522  0.0820 -0.2619
 2364DPPE   C1B50229   8.462   9.846  10.520  0.3380 -0.0593  0.0481
 2364DPPE   C2B50230   8.797   9.534  10.754 -0.0008 -0.0104 -0.2204
 2364DPPE   C3B50231   9.085   9.718  10.979  0.0011  0.0968 -0.0154
 2364DPPE   C4B50232   9.224   9.793  11.348  0.2453 -0.5788  0.0750
 2365DPPE   NH350233   8.417   2.112  15.294 -0.0155  0.1004 -0.1608
 2365DPPE   PO450234   8.751   2.169  15.607  0.0399  0.1284  0.0919
 2365DPPE   GL150235   8.963   2.445  15.917  0.1902 -0.0057 -0.1553
 2365DPPE   GL250236   9.112   2.788  15.871  0.0472  0.0867 -0.0121
 2365DPPE   C1A50237   9.240   2.375  16.135 -0.3668 -0.0874  0.0642
 2365DPPE   C2A50238   9.256   2.296  16.546 -0.1521 -0.0886 -0.1953
 2365DPPE   C3A50239   9.341   2.116  16.906 -0.0923 -0.0136 -0.0930
 2365DPPE   C4A50240   9.299   1.998  17.414 -0.1437 -0.1056 -0.1437
 2365DPPE   C1B50241   9.002   3.142  16.053 -0.1417  0.1196  0.0189
 2365DPPE   C2B50242   9.227   3.379  16.293 -0.1229 -0.5270 -0.2427
 2365DPPE   C3B50243   9.309   3.716  16.608 -0.0242 -0.1387  0.2028
 2365DPPE   C4B50244   9.380   3.877  16.960 -0.1485  0.0954 -0.1342
 2366DPPE   NH350245   6.117   9.559  10.013  0.1314  0.0915  0.1021
 2366DPPE   PO450246   6.136   9.988  10.051 -0.1329 -0.0029  0.0045
 2366DPPE   GL150247   5.686   9.877   9.825 -0.1593 -0.3893  0.2150
 2366DPPE   GL250248   5.632   9.570   9.918 -0.2495  0.1189 -0.0470
 2366DPPE   C1A50249   5.396   9.864   9.431  0.1935  0.1021  0.0016
 2366DPPE   C2A50250   5.116   9.829   9.013  0.2371  0.1418 -0.2011
 2366DPPE   C3A50251   4.855   9.725   8.697 -0.0665  0.0172  0.0555
 2366DPPE   C4A50252   4.521   9.785   8.681 -0.0798 -0.2964  0.5531
 2366DPPE   C1B50253   5.195   9.704   9.900 -0.1036 -0.0845 -0.0114
 2366DPPE   C2B50254   4.756   9.791   9.886  0.0814  0.0214  0.0202
 2366DPPE   C3B50255   4.418  10.091  10.004 -0.0512  0.2757  0.0139
 2366DPPE   C4B50256   3.934  10.099  10.114  0.0789 -0.1220 -0.2790
 2367DPPE   NH350257   9.222   8.934   7.598  0.1630  0.1114 -0.2517
 2367DPPE   PO450258   9.193   8.508   7.727 -0.0055 -0.0171  0.1271
 2367DPPE   GL150259   9.460   8.351   7.995  0.0446 -0.1669  0.1217
 2367DPPE   GL250260   9.285   8.083   7.976 -0.2520 -0.1336  0.0985
 2367DPPE   C1A50261   9.752   8.286   8.313  0.3063 -0.0505  0.0843
 2367DPPE   C2A50262  10.089   8.433   8.550  0.2077 -0.0996  0.1191
 2367DPPE   C3A50263  10.257   8.252   8.812  0.1095 -0.2586 -0.1069
 2367DPPE   C4A50264  10.595   8.362   8.987  0.4804 -0.1279  0.1932
 2367DPPE   C1B50265   9.698   7.770   8.119  0.0289  0.0546  0.2512
 2367DPPE   C2B50266  10.025   7.423   8.101 -0.1831  0.0687  0.2834
 2367DPPE   C3B50267  10.391   7.524   7.817  0.1544  0.0334  0.0304
 2367DPPE   C4B50268  10.298   7.854   7.457 -0.2572 -0.2264 -0.4673
 2368DPPE   NH350269   5.912  10.679  12.338  0.0494  0.0431 -0.0685
 2368DPPE   PO450270   5.621  10.700  12.110 -0.1722  0.2629 -0.0769
 2368DPPE   GL150271   5.400  11.049  12.193  0.0020  0.1668 -0.2959
 2368DPPE   GL250272   5.678  11.130  12.324  0.1998 -0.0082  0.1316
 2368DPPE   C1A50273   5.152  11.285  12.522 -0.1342 -0.0062  0.1491
 2368DPPE   C2A50274   4.949  11.756  12.647  0.0165  0.4038 -0.1225
 2368DPPE   C3A50275   4.955  12.019  12.405  0.4202 -0.1176  0.1401
 2368DPPE   C4A50276   5.221  12.291  12.311  0.0833  0.2541 -0.0885
 2368DPPE   C1B50277   5.741  11.464  12.551 -0.0707  0.2372 -0.0092
 2368DPPE   C2B50278   5.845  11.858  12.703 -0.3258  0.0037  0.2914
 2368DPPE   C3B50279   6.165  11.974  12.931  0.0060  0.1564 -0.1106
 2368DPPE   C4B50280   6.404  11.781  13.136  0.1450  0.4701  0.2815
 2369DPPE   NH350281   4.742   8.502  14.722 -0.1997  0.2980  0.2401
 2369DPPE   PO450282   4.525   8.814  14.933 -0.0729 -0.1031 -0.0007
 2369DPPE   GL150283   4.471   9.215  15.081  0.3958 -0.1908 -0.0064
 2369DPPE   GL250284   4.483   9.564  14.859 -0.2856  0.3532 -0.1985
 2369DPPE   C1A50285   4.738   9.592  15.280 -0.0448 -0.1374 -0.1745
 2369DPPE   C2A50286   5.091   9.765  15.460  0.3097 -0.3010 -0.2298
 2369DPPE   C3A50287   5.433  10.027  15.760 -0.0084  0.4370 -0.1843
 2369DPPE   C4A50288   5.824  10.159  15.807 -0.0941  0.2451  0.0411
 2369DPPE   C1B50289   4.167   9.283  14.649 -0.0677  0.1843 -0.0176
 2369DPPE   C2B50290   3.754   9.513  14.491  0.0666  0.1545  0.0386
 2369DPPE   C3B50291   3.543   9.792  14.796  0.1250  0.0730  0.2310
 2369DPPE   C4B50292   3.408  10.104  15.125 -0.3391  0.0296  0.1013
 2370DPPE   NH350293  13.973   9.385   5.589 -0.0807 -0.2257  0.2574
 2370DPPE   PO450294  13.662   9.591   5.299  0.1098 -0.2166  0.4249
 2370DPPE   GL150295  13.684   9.986   5.086 -0.0187 -0.0203 -0.2609
 2370DPPE   GL250296  13.885   9.986   4.760 -0.0916  0.0558 -0.0826
 2370DPPE   C1A50297  13.978  10.243   5.250  0.0350 -0.3802 -0.3288
 2370DPPE   C2A50298  14.229  10.517   5.441 -0.3278  0.0880 -0.1652
 2370DPPE   C3A50299  14.665  10.692   5.522  0.1919  0.1101 -0.3135
 2370DPPE   C4A50300  15.068  10.659   5.343 -0.1799  0.1347 -0.0802
 2370DPPE   C1B50301  13.956  10.394   4.789  0.1699 -0.1385 -0.3317
 2370DPPE   C2B50302  14.331  10.731   4.981  0.3181  0.0684  0.2678
 2370DPPE   C3B50303  14.726  10.943   5.046  0.2852  0.2804 -0.3026
 2370DPPE   C4B50304  15.031  11.134   5.239 -0.2321  0.4667 -0.0781
 2371DPPE   NH350305  12.529   0.033   9.276  0.0121 -0.0569  0.2296
 2371DPPE   PO450306  12.958   0.097   9.466 -0.2288 -0.1904 -0.0405
 2371DPPE   GL150307  12.950  -0.225   9.199 -0.1118  0.0774 -0.0318
 2371DPPE   GL250308  12.651  -0.457   9.192  0.0714  0.2495 -0.2273
 2371DPPE   C1A50309  13.057  -0.445   8.853 -0.2354  0.2769  0.2290
 2371DPPE   C2A50310  13.042  -0.867   8.610  0.0436  0.1558  0.3570
 2371DPPE   C3A50311  13.145  -1.225   8.233 -0.2215 -0.0962  0.1911
 2371DPPE   C4A50312  13.010  -1.375   7.869  0.1535  0.2143 -0.1069
 2371DPPE   C1B50313  12.292  -0.656   9.041  0.1182 -0.0460 -0.1579
 2371DPPE   C2B50314  11.965  -0.834   8.742  0.1190  0.0922 -0.0507
 2371DPPE   C3B50315  11.492  -0.947   8.730  0.1431 -0.2073 -0.1719
 2371DPPE   C4B50316  10.968  -0.725   8.855 -0.3368  0.0379 -0.1700
 2372DPPE   NH350317  14.195   5.075   6.217 -0.0678  0.0057  0.1055
 2372DPPE   PO450318  14.540   5.131   6.449 -0.2709 -0.1753  0.0785
 2372DPPE   GL150319  14.586   5.281   6.897  0.0497 -0.1418 -0.0197
 2372DPPE   GL250320  14.957   5.593   6.921  0.1326 -0.0209 -0.2924
 2372DPPE   C1A50321  14.875   5.141   7.126 -0.1939  0.0488 -0.0469
 2372DPPE   C2A50322  14.908   4.964   7.620  0.1797  0.0855  0.1778
 2372DPPE   C3A50323  14.888   5.134   8.043 -0.0076 -0.2311 -0.0039
 2372DPPE   C4A50324  14.950   5.428   8.441 -0.0263 -0.1796  0.1258
 2372DPPE   C1B50325  14.864   5.881   7.285 -0.1733 -0.3609  0.0018
 2372DPPE   C2B50326  15.005   6.059   7.707  0.0020 -0.0374 -0.0216
 2372DPPE   C3B50327  15.250   6.289   7.947  0.0874 -0.1329 -0.1933
 2372DPPE   C4B50328  15.186   6.435   8.406 -0.1335  0.0513 -0.1546
 2373DPPE   NH350329  14.494   5.784   4.691 -0.1833  0.0894  0.0362
 2373DPPE   PO450330  14.184   6.097   4.888  0.2177  0.4051  0.0346
 2373DPPE   GL150331  14.073   6.031   4.377  0.3258  0.0432 -0.0313
 2373DPPE   GL250332  14.042   6.287   4.180  0.0275  0.0516  0.0581
 2373DPPE   C1A50333  14.125   5.689   3.996  0.3329 -0.0161  0.0793
 2373DPPE   C2A50334  13.985   5.689   3.562  0.0870 -0.0909 -0.0725
 2373DPPE   C3A50335  13.881   5.528   3.172  0.2591 -0.2940  0.2803
 2373DPPE   C4A50336  13.946   5.719   2.753 -0.3578 -0.1782  0.1172
 2373DPPE   C1B50337  13.929   6.231   3.776  0.1630  0.5356  0.2493
 2373DPPE   C2B50338  13.994   6.145   3.332 -0.0044 -0.0515  0.1383
 2373DPPE   C3B50339  13.946   6.347   2.910  0.3240  0.1755 -0.0569
 2373DPPE   C4B50340  14.039   6.195   2.561  0.0258  0.0757 -0.1273
 2374DPPE   NH350341  12.196   0.648   9.812 -0.1188  0.3962 -0.1850
 2374DPPE   PO450342  12.539   0.945  10.004  0.2902 -0.0668  0.1416
 2374DPPE   GL150343  12.823   1.305  10.157  0.2247  0.0901  0.2842
 2374DPPE   GL250344  12.923   1.534  10.021  0.1507  0.2641 -0.0599
 2374DPPE   C1A50345  12.782   1.488  10.553 -0.0387  0.1113 -0.0653
 2374DPPE   C2A50346  13.153   1.510  10.846 -0.1044  0.3548  0.1203
 2374DPPE   C3A50347  13.364   1.724  11.205  0.1915 -0.1274 -0.0168
 2374DPPE   C4A50348  13.812   1.853  11.336  0.0906 -0.1048  0.0299
 2374DPPE   C1B50349  12.833   1.848   9.812  0.0460  0.1933  0.1438
 2374DPPE   C2B50350  12.839   2.107   9.453  0.1046  0.0383  0.0878
 2374DPPE   C3B50351  12.773   2.538   9.354 -0.3405 -0.0012 -0.0334
 2374DPPE   C4B50352  13.021   2.913   9.124  0.0974  0.0877  0.3764
 2375DPPE   NH350353  11.275   6.053   6.978  0.0614 -0.1507  0.0388
 2375DPPE   PO450354  11.419   6.343   6.950  0.2379 -0.3468  0.1065
 2375DPPE   GL150355  11.551   6.689   7.345  0.1243 -0.0630  0.1378
 2375DPPE   GL250356  11.844   7.044   7.317  0.3378 -0.2362 -0.2170
 2375DPPE   C1A50357  11.676   6.765   7.755  0.0099 -0.0612 -0.0367
 2375DPPE   C2A50358  11.880   6.823   8.097  0.0098  0.3626 -0.2685
 2375DPPE   C3A50359  12.030   7.000   8.498  0.2700  0.0420  0.0044
 2375DPPE   C4A50360  12.205   7.287   8.973 -0.0589  0.1078 -0.1687
 2375DPPE   C1B50361  11.933   7.224   7.783  0.1979 -0.2280 -0.1387
 2375DPPE   C2B50362  11.866   7.448   8.200 -0.3207  0.1683 -0.1744
 2375DPPE   C3B50363  11.898   7.462   8.616 -0.2267 -0.2892  0.0122
 2375DPPE   C4B50364  11.837   7.589   9.029  0.0187  0.0064  0.3579
 2376DPPE   NH350365  11.056   9.840   5.954  0.4163  0.0186  0.2482
 2376DPPE   PO450366  11.254   9.886   6.346  0.0485  0.1257  0.3579
 2376DPPE   GL150367  11.444  10.082   6.619 -0.2692 -0.2101 -0.2799
 2376DPPE   GL250368  11.746   9.979   6.585 -0.0246  0.2577 -0.1621
 2376DPPE   C1A50369  11.703  10.151   7.083 -0.1449  0.0923 -0.1214
 2376DPPE   C2A50370  11.913  10.103   7.510 -0.3605 -0.0897  0.1361
 2376DPPE   C3A50371  12.114   9.754   7.721  0.1925 -0.0235 -0.0311
 2376DPPE   C4A50372  12.364   9.570   7.965 -0.3878 -0.0470 -0.0203
 2376DPPE   C1B50373  11.986   9.766   6.921 -0.0489  0.0195 -0.1147
 2376DPPE   C2B50374  12.088   9.506   7.294 -0.1269  0.1086 -0.4101
 2376DPPE   C3B50375  12.127   9.095   7.484  0.1184 -0.0655  0.0550
 2376DPPE   C4B50376  11.893   8.884   7.746  0.0070 -0.0170  0.2757
 2377DPPE   NH350377   5.550  10.352  11.192 -0.2240 -0.3055 -0.0574
 2377DPPE   PO450378   5.422  10.624  10.907  0.0255  0.2168 -0.0734
 2377DPPE   GL150379   5.064  10.786  10.625 -0.2911  0.0401 -0.3298
 2377DPPE   GL250380   4.903  10.565  10.795 -0.0355 -0.0510  0.0097
 2377DPPE   C1A50381   4.910  10.968  10.190 -0.0674  0.0186 -0.2838
 2377DPPE   C2A50382   4.756  11.308   9.890 -0.0428  0.1370 -0.2785
 2377DPPE   C3A50383   4.934  11.318   9.497 -0.3078 -0.4571 -0.0218
 2377DPPE   C4A50384   4.843  11.078   9.165  0.0972  0.2109 -0.0498
 2377DPPE   C1B50385   4.557  10.609  10.520 -0.0476 -0.0904 -0.0154
 2377DPPE   C2B50386   4.076  10.617  10.325  0.1312  0.2571  0.2816
 2377DPPE   C3B50387   3.668  10.664  10.212  0.0626  0.0973 -0.2834
 2377DPPE   C4B50388   3.328  10.693  10.189 -0.0949  0.3515 -0.2045
 2378DPPE   NH350389   8.519   6.011   9.733 -0.0066 -0.0824  0.1495
 2378DPPE   PO450390   8.664   6.148   9.415 -0.2921 -0.2578  0.3502
 2378DPPE   GL150391   8.819   6.579   9.212  0.0811 -0.0220  0.2725
 2378DPPE   GL250392   8.634   6.892   9.044 -0.0819 -0.0496  0.2417
 2378DPPE   C1A50393   9.243   6.875   9.328  0.1508  0.2607 -0.2298
 2378DPPE   C2A50394   9.617   7.194   9.342  0.0739 -0.1641 -0.3200
 2378DPPE   C3A50395  10.079   7.283   9.317 -0.3026  0.0060  0.1238
 2378DPPE   C4A50396  10.429   7.494   9.391 -0.2570  0.2783  0.2065
 2378DPPE   C1B50397   8.816   7.079   9.344  0.0400  0.0039  0.3002
 2378DPPE   C2B50398   8.760   7.335   9.761  0.1625 -0.1622  0.0786
 2378DPPE   C3B50399   8.683   7.594  10.124  0.1574 -0.0762  0.0346
 2378DPPE   C4B50400   8.709   7.824  10.503 -0.4012 -0.2018  0.3632
 2379DPPE   NH350401  13.148   4.960   6.735 -0.2424 -0.1516  0.3920
 2379DPPE   PO450402  13.559   5.163   6.814  0.1123 -0.0761 -0.1621
 2379DPPE   GL150403  13.912   5.237   7.027 -0.1824 -0.0592 -0.5357
 2379DPPE   GL250404  14.082   5.066   7.029 -0.2083 -0.1778 -0.2070
 2379DPPE   C1A50405  14.098   5.428   7.439  0.0324 -0.1056  0.0228
 2379DPPE   C2A50406  14.317   5.704   7.691  0.0181 -0.1333 -0.2493
 2379DPPE   C3A50407  14.577   5.895   8.041 -0.1684  0.0937  0.1232
 2379DPPE   C4A50408  15.012   5.956   8.382 -0.1565 -0.2416 -0.0758
 2379DPPE   C1B50409  14.369   5.069   7.320  0.1781  0.1648  0.0346
 2379DPPE   C2B50410  14.597   5.326   7.516  0.1630 -0.0144  0.3392
 2379DPPE   C3B50411  14.756   5.513   7.773 -0.2106 -0.0569  0.0174
 2379DPPE   C4B50412  15.095   5.417   7.590 -0.3434  0.0058  0.2969
 2380DPPE   NH350413  13.073  35.833  11.262 -0.2357  0.1991 -0.0283
 2380DPPE   PO450414  13.023  36.188  10.969  0.0011  0.0371 -0.0599
 2380DPPE   GL150415  12.685  35.759  10.850  0.0006 -0.0611  0.0985
 2380DPPE   GL250416  12.411  35.736  10.972 -0.3210  0.1280  0.0695
 2380DPPE   C1A50417  12.597  35.315  10.692  0.5450  0.1178 -0.0952
 2380DPPE   C2A50418  12.716  35.139  10.385  0.1842  0.2167  0.0270
 2380DPPE   C3A50419  12.760  34.707  10.222 -0.0756 -0.2267  0.0453
 2380DPPE   C4A50420  12.780  34.300   9.998 -0.3186  0.0091 -0.2981
 2380DPPE   C1B50421  12.082  35.362  10.817 -0.0803 -0.0727 -0.1070
 2380DPPE   C2B50422  11.847  34.994  10.794  0.0309 -0.2513 -0.0133
 2380DPPE   C3B50423  11.957  34.742  11.066  0.0892  0.2270 -0.1078
 2380DPPE   C4B50424  12.261  34.515  10.954  0.1465 -0.0941 -0.0895
 2381DPPE   NH350425  12.401  35.186  11.979 -0.0367  0.0468 -0.0156
 2381DPPE   PO450426  11.938  35.071  12.078 -0.2528  0.2439  0.2562
 2381DPPE   GL150427  12.164  34.749  11.930 -0.3529 -0.0476  0.2649
 2381DPPE   GL250428  12.471  34.725  12.159 -0.1013  0.0445 -0.2148
 2381DPPE   C1A50429  12.197  34.433  11.648  0.2828 -0.0831 -0.1345
 2381DPPE   C2A50430  11.997  34.155  11.281  0.2007 -0.0709 -0.0018
 2381DPPE   C3A50431  12.039  34.076  10.822  0.0917  0.3612  0.0129
 2381DPPE   C4A50432  12.260  33.944  10.480 -0.0980  0.2554  0.0188
 2381DPPE   C1B50433  12.468  34.223  12.056 -0.1268 -0.1333 -0.2235
 2381DPPE   C2B50434  12.149  33.957  11.884 -0.3102  0.0921 -0.3014
 2381DPPE   C3B50435  11.988  33.694  11.632  0.3973  0.0059 -0.4165
 2381DPPE   C4B50436  11.836  33.598  11.285  0.0092  0.0552 -0.0193
 2382DPPE   NH350437  10.853   0.581  13.691 -0.1401  0.2266 -0.0289
 2382DPPE   PO450438  11.154   0.473  13.981 -0.2884 -0.1503 -0.2312
 2382DPPE   GL150439  11.213   0.879  13.832 -0.1360 -0.1035 -0.1169
 2382DPPE   GL250440  10.976   1.039  13.713  0.1204  0.0078  0.2082
 2382DPPE   C1A50441  11.620   1.161  13.761  0.2657 -0.0099  0.4989
 2382DPPE   C2A50442  11.998   1.167  13.734 -0.0864  0.0805 -0.1720
 2382DPPE   C3A50443  12.297   1.604  13.733  0.2091  0.1864  0.0751
 2382DPPE   C4A50444  12.364   1.897  13.436  0.2391 -0.2678 -0.1993
 2382DPPE   C1B50445  11.203   1.472  13.730  0.0780  0.2075 -0.2595
 2382DPPE   C2B50446  11.275   1.751  13.944 -0.0439 -0.2001 -0.0507
 2382DPPE   C3B50447  11.513   2.102  13.870 -0.0606 -0.1442 -0.0824
 2382DPPE   C4B50448  11.932   2.256  13.749  0.1516 -0.1506  0.1023
 2383DPPE   NH350449  11.563  11.000   5.190 -0.1620 -0.1027  0.1752
 2383DPPE   PO450450  11.536  10.539   5.313  0.3486  0.4125  0.1549
 2383DPPE   GL150451  11.423  10.617   4.845 -0.0106 -0.1675 -0.0147
 2383DPPE   GL250452  11.716  10.939   4.707 -0.3625  0.2195  0.0087
 2383DPPE   C1A50453  11.465  10.610   4.426 -0.0428 -0.1943 -0.1991
 2383DPPE   C2A50454  11.338  10.652   3.959  0.1302 -0.0630  0.1582
 2383DPPE   C3A50455  11.420  10.978   3.652 -0.0783 -0.1643  0.1994
 2383DPPE   C4A50456  11.707  11.103   3.396  0.0332  0.1589  0.0751
 2383DPPE   C1B50457  11.904  11.130   4.322  0.0806 -0.0687 -0.1514
 2383DPPE   C2B50458  11.883  10.846   3.888  0.0510  0.0406  0.1279
 2383DPPE   C3B50459  12.048  10.790   3.502 -0.0298 -0.0280  0.0185
 2383DPPE   C4B50460  12.061  10.871   3.016  0.0334  0.2915  0.0983
 2384DPPE   NH350461  10.605   0.180  12.006  0.4689  0.2955  0.1283
 2384DPPE   PO450462  10.360   0.118  12.481  0.0316  0.2005 -0.1388
 2384DPPE   GL150463  10.241  -0.137  12.135 -0.2024 -0.1819 -0.0068
 2384DPPE   GL250464  10.003  -0.226  12.272  0.1641 -0.0411  0.0735
 2384DPPE   C1A50465  10.045  -0.404  11.851  0.1815 -0.4124 -0.2050
 2384DPPE   C2A50466   9.711  -0.665  11.675 -0.0579 -0.3373 -0.1626
 2384DPPE   C3A50467   9.341  -0.752  11.301  0.0964 -0.3119 -0.5399
 2384DPPE   C4A50468   9.021  -0.964  11.333 -0.1769  0.0230  0.2659
 2384DPPE   C1B50469   9.583  -0.440  12.117  0.1171  0.0631 -0.3379
 2384DPPE   C2B50470   9.234  -0.490  12.245  0.0862  0.2321  0.3927
 2384DPPE   C3B50471   9.064  -0.947  12.262  0.0637 -0.1695 -0.0772
 2384DPPE   C4B50472   8.903  -1.252  11.914 -0.2367  0.2530  0.0674
 2385DPPE   NH350473   7.058   6.760   9.313  0.3093 -0.0367  0.1164
 2385DPPE   PO450474   6.977   6.390   9.648 -0.2298  0.0259 -0.0008
 2385DPPE   GL150475   6.727   6.299   9.242 -0.2193  0.4864  0.3224
 2385DPPE   GL250476   6.597   6.044   9.365  0.1810 -0.1287 -0.0279
 2385DPPE   C1A50477   6.336   6.469   9.127 -0.0891 -0.0537 -0.0641
 2385DPPE   C2A50478   5.982   6.694   9.005  0.3029  0.2937 -0.0129
 2385DPPE   C3A50479   5.804   6.975   8.776 -0.1127 -0.1873 -0.3035
 2385DPPE   C4A50480   5.794   7.074   8.370  0.1864 -0.0807  0.4383
 2385DPPE   C1B50481   6.232   5.970   9.298  0.0505  0.2134 -0.3012
 2385DPPE   C2B50482   5.971   5.713   9.025 -0.0920  0.0896 -0.2689
 2385DPPE   C3B50483   5.681   5.461   8.797  0.0723  0.2942 -0.2813
 2385DPPE   C4B50484   5.622   4.993   8.802 -0.4956  0.1532  0.1462
 2386DPPE   NH350485  12.724   2.776   7.774  0.2154  0.2870 -0.0658
 2386DPPE   PO450486  12.523   2.567   7.949 -0.0670 -0.2863  0.0187
 2386DPPE   GL150487  12.350   2.424   7.620 -0.1232 -0.1866  0.1527
 2386DPPE   GL250488  12.122   2.534   7.392  0.1462 -0.0664 -0.2520
 2386DPPE   C1A50489  12.085   2.084   7.281  0.0238 -0.1830  0.0997
 2386DPPE   C2A50490  11.841   1.770   6.996 -0.0848  0.0650  0.1081
 2386DPPE   C3A50491  11.710   1.369   6.743  0.2967  0.5463 -0.1572
 2386DPPE   C4A50492  11.752   1.276   6.385  0.1873  0.1870  0.0628
 2386DPPE   C1B50493  11.783   2.432   7.094 -0.2946 -0.0702 -0.1074
 2386DPPE   C2B50494  11.394   2.417   6.860 -0.1651 -0.4547  0.2376
 2386DPPE   C3B50495  11.068   2.269   6.672  0.1235 -0.1197  0.0043
 2386DPPE   C4B50496  10.676   2.078   6.783 -0.0482  0.4480  0.1618
 2387DPPE   NH350497   8.392   5.059  11.339  0.0063  0.1380 -0.1256
 2387DPPE   PO450498   8.045   5.270  11.146  0.1550  0.1032  0.3306
 2387DPPE   GL150499   7.989   5.561  11.450 -0.0702 -0.0193  0.3623
 2387DPPE   GL250500   8.234   5.521  11.558 -0.3043 -0.0208  0.4263
 2387DPPE   C1A50501   7.990   5.903  11.809  0.1533  0.1465 -0.1244
 2387DPPE   C2A50502   8.284   6.097  12.012 -0.0378  0.2448 -0.3590
 2387DPPE   C3A50503   8.357   6.541  12.012  0.0564  0.1900  0.5043
 2387DPPE   C4A50504   8.498   7.040  12.174  0.0886  0.2184  0.2189
 2387DPPE   C1B50505   8.638   5.585  11.669 -0.2877 -0.0120  0.1463
 2387DPPE   C2B50506   8.949   5.909  11.911 -0.1578 -0.1251  0.0425
 2387DPPE   C3B50507   9.219   6.159  12.093  0.0583 -0.0159 -0.1717
 2387DPPE   C4B50508   9.211   6.496  12.379 -0.1206 -0.2055  0.1050
 2388DPPE   NH350509   4.819   6.400  14.388 -0.2094  0.1965  0.0940
 2388DPPE   PO450510   4.772   6.778  14.689 -0.1836  0.0784 -0.1696
 2388DPPE   GL150511   4.511   6.657  15.049  0.1323 -0.2812  0.2082
 2388DPPE   GL250512   4.581   6.350  15.247 -0.0809  0.1380  0.0753
 2388DPPE   C1A50513   4.232   6.926  15.307  0.1990 -0.4379  0.2164
 2388DPPE   C2A50514   4.021   7.083  15.586  0.2529 -0.1791 -0.3050
 2388DPPE   C3A50515   3.899   7.403  15.648 -0.3626 -0.0197  0.0593
 2388DPPE   C4A50516   3.767   7.756  15.531 -0.2758  0.1332 -0.0613
 2388DPPE   C1B50517   4.181   6.479  15.473 -0.0197 -0.1715  0.2777
 2388DPPE   C2B50518   3.887   6.214  15.519  0.2510 -0.2350 -0.0893
 2388DPPE   C3B50519   3.464   5.876  15.575  0.1729 -0.0759 -0.4890
 2388DPPE   C4B50520   3.185   5.642  15.933 -0.1837  0.1101 -0.0856
 2389DPPE   NH350521   5.928   3.539  15.766 -0.0127 -0.1437  0.0281
 2389DPPE   PO450522   6.108   3.203  15.771 -0.3608  0.0866  0.2115
 2389DPPE   GL150523   5.853   2.981  15.887  0.0276  0.0860 -0.1742
 2389DPPE   GL250524   5.883   2.728  15.935 -0.3269  0.1276 -0.0697
 2389DPPE   C1A50525   5.382   2.884  15.802 -0.1799  0.1400 -0.1721
 2389DPPE   C2A50526   5.015   2.797  15.961  0.3019 -0.2005  0.0865
 2389DPPE   C3A50527   4.615   2.790  16.011  0.1414  0.0484 -0.1996
 2389DPPE   C4A50528   4.248   2.581  15.940 -0.0094  0.0858 -0.2264
 2389DPPE   C1B50529   5.747   2.247  15.835 -0.0074  0.0576  0.0848
 2389DPPE   C2B50530   5.416   1.996  16.028  0.2194  0.1463 -0.2702
 2389DPPE   C3B50531   5.354   1.763  16.327 -0.1402  0.2950  0.0779
 2389DPPE   C4B50532   5.294   1.372  16.590  0.1157 -0.3897 -0.2880
 2390DPPE   NH350533   6.449   6.531  13.008  0.0977 -0.2425 -0.1209
 2390DPPE   PO450534   6.229   6.854  13.328  0.0462  0.3175 -0.0017
 2390DPPE   GL150535   6.673   6.683  13.433 -0.0998  0.0739  0.0829
 2390DPPE   GL250536   6.747   6.810  13.748 -0.0278 -0.0175 -0.1727
 2390DPPE   C1A50537   7.093   6.698  13.308 -0.0049 -0.0513 -0.2290
 2390DPPE   C2A50538   7.597   6.702  13.359 -0.1782  0.0549 -0.1360
 2390DPPE   C3A50539   8.055   6.803  13.300  0.0250 -0.0896 -0.0145
 2390DPPE   C4A50540   8.310   7.043  13.597  0.1417 -0.3769  0.1590
 2390DPPE   C1B50541   7.191   6.671  13.956 -0.1439  0.1306  0.0063
 2390DPPE   C2B50542   7.580   6.876  14.026 -0.0562  0.0363 -0.2814
 2390DPPE   C3B50543   7.933   7.095  14.091 -0.0934  0.1190 -0.2635
 2390DPPE   C4B50544   8.314   7.366  14.065 -0.2068 -0.0572 -0.0824
 2391DPPE   NH350545  10.844  35.927  12.424  0.1605  0.0405 -0.0783
 2391DPPE   PO450546  10.727  36.248  12.158  0.2730 -0.1304  0.0868
 2391DPPE   GL150547  10.408  35.889  12.083 -0.2822  0.3659 -0.0036
 2391DPPE   GL250548  10.318  35.893  12.339 -0.3026 -0.0756 -0.3273
 2391DPPE   C1A50549  10.139  35.603  11.670 -0.1170  0.1265 -0.3870
 2391DPPE   C2A50550   9.759  35.394  11.394 -0.0038 -0.2172 -0.0799
 2391DPPE   C3A50551   9.343  35.166  11.324 -0.1815 -0.3387  0.0960
 2391DPPE   C4A50552   8.992  34.914  11.489 -0.4617 -0.1435 -0.0381
 2391DPPE   C1B50553   9.996  35.604  12.244 -0.3773 -0.3308  0.1093
 2391DPPE   C2B50554   9.658  35.414  12.018 -0.0406 -0.4715 -0.1534
 2391DPPE   C3B50555   9.362  35.471  11.723  0.3053  0.0105  0.2538
 2391DPPE   C4B50556   9.177  35.743  11.830  0.0139 -0.0072  0.3192
 2392DPPE   NH350557  11.881   2.054   9.502  0.2081 -0.0779 -0.0721
 2392DPPE   PO450558  11.957   1.650   9.702  0.0948  0.2785  0.0810
 2392DPPE   GL150559  12.100   1.918  10.034 -0.0082 -0.0889  0.0586
 2392DPPE   GL250560  11.917   2.262   9.974  0.3055 -0.1095 -0.0762
 2392DPPE   C1A50561  12.585   1.897  10.225 -0.0157 -0.2470  0.1789
 2392DPPE   C2A50562  13.004   1.914  10.498 -0.0114 -0.1798 -0.3157
 2392DPPE   C3A50563  13.002   1.945  10.881  0.0157 -0.1536 -0.0431
 2392DPPE   C4A50564  13.118   2.149  11.242 -0.2294  0.3081 -0.2356
 2392DPPE   C1B50565  12.146   2.637  10.057  0.2164  0.1187  0.1103
 2392DPPE   C2B50566  12.249   3.051  10.063 -0.0554  0.5059 -0.1550
 2392DPPE   C3B50567  12.611   3.220  10.223  0.3980 -0.1926 -0.1234
 2392DPPE   C4B50568  12.819   3.368  10.643 -0.0222  0.2453 -0.0307
 2393DPPE   NH350569  15.948   4.672   6.598 -0.1856  0.0057  0.2546
 2393DPPE   PO450570  16.175   4.973   6.399 -0.1413  0.0582  0.2751
 2393DPPE   GL150571  16.223   5.166   6.782  0.1358  0.4625 -0.0054
 2393DPPE   GL250572  16.188   5.489   6.885  0.5108 -0.2944  0.0170
 2393DPPE   C1A50573  16.574   5.197   7.095 -0.0694 -0.1681 -0.3632
 2393DPPE   C2A50574  16.850   5.286   7.531  0.0938 -0.0243  0.2713
 2393DPPE   C3A50575  17.211   5.539   7.661  0.3370  0.0137  0.0233
 2393DPPE   C4A50576  17.471   5.680   7.837  0.2368 -0.0898  0.0948
 2393DPPE   C1B50577  16.397   5.808   6.904  0.1408  0.0597 -0.4040
 2393DPPE   C2B50578  16.283   6.154   7.162 -0.0313  0.1854  0.0595
 2393DPPE   C3B50579  16.030   6.515   7.416 -0.1006 -0.1862  0.2982
 2393DPPE   C4B50580  16.083   6.872   7.800  0.0595  0.1356  0.1682
 2394DPPE   NH350581   8.612  10.478   8.888  0.0473 -0.0985 -0.0932
 2394DPPE   PO450582   8.420  10.779   8.770 -0.2203 -0.1032  0.0759
 2394DPPE   GL150583   8.618  10.865   9.154  0.2351 -0.0472  0.1756
 2394DPPE   GL250584   8.500  10.835   9.406  0.1148  0.0289  0.0282
 2394DPPE   C1A50585   8.948  11.238   9.068  0.1310  0.1677  0.0575
 2394DPPE   C2A50586   9.077  11.575   9.335 -0.0104  0.3878  0.1735
 2394DPPE   C3A50587   8.924  11.962   9.588 -0.1506  0.1663  0.3870
 2394DPPE   C4A50588   9.039  12.264   9.398 -0.1972  0.0356 -0.4266
 2394DPPE   C1B50589   8.983  10.688   9.417 -0.0159 -0.1113  0.0595
 2394DPPE   C2B50590   9.267  11.045   9.443  0.2175 -0.2004  0.0066
 2394DPPE   C3B50591   9.446  11.381   9.530 -0.0127  0.1714  0.0337
 2394DPPE   C4B50592   9.825  11.676   9.415  0.1146 -0.1865  0.0245
 2395DPPE   NH350593  14.464  35.350  10.135 -0.4407 -0.4007  0.1691
 2395DPPE   PO450594  14.776  35.579   9.942 -0.0433 -0.2924  0.0347
 2395DPPE   GL150595  14.887  35.151   9.747 -0.0839  0.1813  0.1657
 2395DPPE   GL250596  14.615  34.953   9.805 -0.1824 -0.2502  0.1841
 2395DPPE   C1A50597  15.080  34.822   9.517  0.0189 -0.2337  0.0445
 2395DPPE   C2A50598  14.987  34.581   9.209 -0.2395 -0.1696  0.0134
 2395DPPE   C3A50599  14.697  34.583   8.864  0.0601  0.1040  0.0209
 2395DPPE   C4A50600  14.865  34.327   8.386 -0.2158 -0.1119 -0.0360
 2395DPPE   C1B50601  14.532  34.665   9.471 -0.3340  0.0536  0.2494
 2395DPPE   C2B50602  14.431  34.331   9.274  0.0697 -0.2539 -0.3671
 2395DPPE   C3B50603  14.393  33.961   9.077 -0.1099 -0.3141  0.2391
 2395DPPE   C4B50604  14.420  33.675   9.029 -0.0300 -0.2799 -0.1735
 2396DPPE   NH350605  12.074  35.471  13.600 -0.1062  0.2340 -0.3421
 2396DPPE   PO450606  12.094  35.572  14.078  0.3590  0.2966 -0.3133
 2396DPPE   GL150607  12.137  35.166  13.994 -0.2743  0.0690 -0.0752
 2396DPPE   GL250608  12.073  35.015  13.787  0.2431 -0.0639  0.0454
 2396DPPE   C1A50609  12.233  34.765  14.332 -0.1594  0.1852 -0.2704
 2396DPPE   C2A50610  12.339  34.705  14.801  0.3288 -0.0282 -0.4325
 2396DPPE   C3A50611  12.553  34.535  15.054 -0.1291  0.3330 -0.1170
 2396DPPE   C4A50612  12.881  34.234  15.298  0.2607 -0.1305 -0.1145
 2396DPPE   C1B50613  11.925  34.652  13.957  0.2448  0.0451 -0.3165
 2396DPPE   C2B50614  11.718  34.329  14.175 -0.0689 -0.1176  0.0206
 2396DPPE   C3B50615  11.525  34.092  14.528  0.1864 -0.0641 -0.0436
 2396DPPE   C4B50616  11.146  34.036  14.721  0.1283  0.1070 -0.0221
 2397DPPE   NH350617   8.287   5.258  10.690 -0.2471  0.0335  0.3155
 2397DPPE   PO450618   8.354   4.919  10.889 -0.1171 -0.0487 -0.0318
 2397DPPE   GL150619   8.790   5.139  10.846  0.2578 -0.0478 -0.2044
 2397DPPE   GL250620   8.843   5.069  11.207  0.4170  0.3141  0.1249
 2397DPPE   C1A50621   8.994   5.520  10.915  0.1070  0.0466 -0.0568
 2397DPPE   C2A50622   9.352   5.783  11.115 -0.1370 -0.0675 -0.4942
 2397DPPE   C3A50623   9.649   5.945  11.351  0.1630 -0.0106  0.2158
 2397DPPE   C4A50624  10.093   5.901  11.344  0.1063  0.1809 -0.1641
 2397DPPE   C1B50625   9.039   5.392  11.410  0.2534 -0.0201  0.0293
 2397DPPE   C2B50626   9.316   5.656  11.630 -0.1177  0.0413 -0.1239
 2397DPPE   C3B50627   9.611   5.866  11.884  0.0326  0.0704 -0.1539
 2397DPPE   C4B50628   9.867   5.567  12.194 -0.0253  0.2722  0.0247
 2398DPPE   NH350629   9.272   1.704  13.817 -0.0707  0.2955 -0.2320
 2398DPPE   PO450630   9.297   1.505  14.283 -0.0633 -0.0970 -0.3805
 2398DPPE   GL150631   9.547   1.805  14.253  0.0075  0.0104 -0.2907
 2398DPPE   GL250632   9.724   1.646  14.405  0.0553 -0.0976  0.0700
 2398DPPE   C1A50633   9.857   2.084  14.358  0.0364  0.2141 -0.3615
 2398DPPE   C2A50634  10.252   2.308  14.396  0.0270 -0.2131 -0.3484
 2398DPPE   C3A50635  10.586   2.473  14.340  0.0732 -0.2376 -0.2254
 2398DPPE   C4A50636  10.926   2.694  14.608 -0.0220 -0.1329 -0.1624
 2398DPPE   C1B50637  10.030   1.746  14.713 -0.1890  0.2721  0.0448
 2398DPPE   C2B50638  10.412   1.907  14.673 -0.2118 -0.0106 -0.2380
 2398DPPE   C3B50639  10.878   2.072  14.629  0.1965 -0.3689 -0.0405
 2398DPPE   C4B50640  11.331   2.336  14.827  0.1569  0.2078  0.2281
 2399DPPE   NH350641   5.572   5.291  16.127  0.3029  0.1803 -0.2168
 2399DPPE   PO450642   5.466   5.638  15.761 -0.3471 -0.0915 -0.1076
 2399DPPE   GL150643   5.156   5.675  16.169 -0.0041 -0.1583  0.0302
 2399DPPE   GL250644   4.762   5.568  16.072  0.0771 -0.2374 -0.2174
 2399DPPE   C1A50645   4.957   5.800  16.554 -0.1230 -0.2852  0.0501
 2399DPPE   C2A50646   4.697   5.877  16.927 -0.4349 -0.0329  0.1160
 2399DPPE   C3A50647   4.453   6.204  16.970 -0.0920  0.1106  0.0518
 2399DPPE   C4A50648   4.530   6.671  16.835 -0.1267  0.2819  0.0670
 2399DPPE   C1B50649   4.341   5.670  16.083  0.1163 -0.0010  0.0742
 2399DPPE   C2B50650   4.017   5.506  16.227  0.1421  0.2341  0.1776
 2399DPPE   C3B50651   3.913   5.364  16.553 -0.0907  0.0635 -0.2114
 2399DPPE   C4B50652   3.918   5.469  17.009 -0.1416 -0.1430  0.0058
 2400DPPE   NH350653  14.320   5.122   5.275 -0.0585 -0.3735 -0.3606
 2400DPPE   PO450654  14.472   5.282   4.861 -0.2040  0.0702 -0.0988
 2400DPPE   GL150655  14.360   5.322   4.417 -0.0305  0.2007  0.1478
 2400DPPE   GL250656  14.149   4.922   4.368  0.1747 -0.0572  0.0658
 2400DPPE   C1A50657  14.549   5.448   4.027  0.0070  0.0440  0.0669
 2400DPPE   C2A50658  14.409   5.501   3.624 -0.1093  0.0283 -0.4653
 2400DPPE   C3A50659  14.334   5.314   3.242 -0.0431 -0.0642  0.1461
 2400DPPE   C4A50660  14.540   5.007   3.030  0.1990 -0.2745  0.0820
 2400DPPE   C1B50661  13.938   4.673   4.035  0.0862  0.2228 -0.1965
 2400DPPE   C2B50662  13.762   4.485   3.662 -0.1603 -0.0575 -0.0420
 2400DPPE   C3B50663  13.887   4.594   3.262  0.0703 -0.1135  0.0326
 2400DPPE   C4B50664  14.151   4.824   3.240  0.0425  0.5032  0.0119
 2401DPPE   NH350665  15.037   5.596   5.436 -0.0218 -0.1386 -0.0387
 2401DPPE   PO450666  15.020   5.441   5.041 -0.1243  0.0736  0.1337
 2401DPPE   GL150667  15.148   5.467   4.711  0.0466 -0.2158  0.3018
 2401DPPE   GL250668  14.894   5.363   4.511  0.1617  0.2516 -0.2117
 2401DPPE   C1A50669  15.422   5.405   4.330 -0.2908 -0.2279  0.0788
 2401DPPE   C2A50670  15.488   5.070   3.992 -0.1007 -0.0963 -0.0797
 2401DPPE   C3A50671  15.404   5.000   3.505 -0.1184  0.0090 -0.1132
 2401DPPE   C4A50672  15.495   5.080   3.027 -0.0203  0.0918  0.1754
 2401DPPE   C1B50673  15.022   5.319   4.170  0.2832  0.0415 -0.0376
 2401DPPE   C2B50674  15.017   5.117   3.829  0.1838 -0.2699  0.3144
 2401DPPE   C3B50675  14.593   4.995   3.582  0.0081  0.0678 -0.1205
 2401DPPE   C4B50676  14.327   4.621   3.683  0.1297  0.0047  0.1376
 2402DPPE   NH350677   8.753   7.632   6.731 -0.1884 -0.0892  0.0077
 2402DPPE   PO450678   8.635   8.026   6.762 -0.1718  0.1277  0.0012
 2402DPPE   GL150679   8.510   8.080   6.445  0.0445  0.0922  0.1122
 2402DPPE   GL250680   8.205   8.199   6.644  0.2433 -0.0149  0.2430
 2402DPPE   C1A50681   8.343   7.840   6.095 -0.3454 -0.2238 -0.1014
 2402DPPE   C2A50682   8.419   7.704   5.640 -0.1547 -0.0506 -0.2583
 2402DPPE   C3A50683   8.337   7.546   5.213 -0.2435  0.0273 -0.0276
 2402DPPE   C4A50684   8.014   7.492   4.907  0.1312 -0.1974 -0.1718
 2402DPPE   C1B50685   7.997   8.011   6.377 -0.0148  0.0946 -0.2510
 2402DPPE   C2B50686   7.660   7.884   6.103  0.2279  0.2009 -0.0804
 2402DPPE   C3B50687   7.242   8.170   5.936  0.2921  0.0509 -0.0073
 2402DPPE   C4B50688   6.818   8.234   6.151 -0.1310  0.0229  0.4332
 2403DPPE   NH350689   7.499   9.355   7.965  0.0838 -0.1310 -0.0974
 2403DPPE   PO450690   7.594   9.666   7.580  0.0146  0.0997 -0.0685
 2403DPPE   GL150691   7.411   9.824   7.313 -0.3732  0.0852  0.0567
 2403DPPE   GL250692   7.706   9.901   7.173  0.0177  0.1786 -0.1730
 2403DPPE   C1A50693   7.215  10.114   7.053 -0.0120  0.0747  0.1822
 2403DPPE   C2A50694   6.973  10.228   6.810  0.2234 -0.2371 -0.2049
 2403DPPE   C3A50695   6.877  10.118   6.394  0.2268  0.2104  0.0702
 2403DPPE   C4A50696   6.855  10.349   6.042 -0.0353  0.1699 -0.1845
 2403DPPE   C1B50697   7.646  10.140   6.784 -0.2778  0.0765  0.0594
 2403DPPE   C2B50698   7.340   9.986   6.533  0.1482  0.0971 -0.0769
 2403DPPE   C3B50699   7.280   9.876   6.063 -0.3198 -0.0171 -0.4181
 2403DPPE   C4B50700   7.224  10.218   5.716 -0.0088  0.2458 -0.1733
 2404DPPE   NH350701   8.697   1.886  16.192  0.5074 -0.1718 -0.3889
 2404DPPE   PO450702   8.519   2.297  16.081 -0.0238 -0.1343 -0.4452
 2404DPPE   GL150703   8.762   2.291  16.496  0.1596  0.0336  0.2711
 2404DPPE   GL250704   8.659   2.050  16.705  0.1687  0.2935  0.0359
 2404DPPE   C1A50705   8.997   2.554  16.848  0.0722 -0.3893 -0.0157
 2404DPPE   C2A50706   9.273   2.617  17.152 -0.0017  0.0030  0.0175
 2404DPPE   C3A50707   9.571   2.413  17.406 -0.1650 -0.2558  0.1009
 2404DPPE   C4A50708   9.784   1.948  17.361  0.0421 -0.4150  0.0125
 2404DPPE   C1B50709   8.787   2.116  17.126  0.0532  0.1931  0.0565
 2404DPPE   C2B50710   8.875   2.293  17.383 -0.1672  0.0658  0.3215
 2404DPPE   C3B50711   9.158   2.446  17.700 -0.5192 -0.2251  0.1431
 2404DPPE   C4B50712   9.444   2.158  17.949  0.1222 -0.0222  0.2641
 2405DPPE   NH350713  11.426   0.839   9.922 -0.1000 -0.3035  0.0343
 2405DPPE   PO450714  11.768   0.490  10.028 -0.1193 -0.0310  0.1625
 2405DPPE   GL150715  11.846   0.043   9.868  0.5134  0.1864 -0.0585
 2405DPPE   GL250716  12.068   0.013   9.545  0.1247  0.2053  0.1290
 2405DPPE   C1A50717  11.636  -0.400   9.762  0.1691 -0.0175  0.0646
 2405DPPE   C2A50718  11.497  -0.699   9.581 -0.2899  0.2201  0.1025
 2405DPPE   C3A50719  11.359  -1.042   9.228 -0.1043  0.1340  0.2188
 2405DPPE   C4A50720  11.395  -1.550   9.199 -0.2837 -0.1779 -0.1134
 2405DPPE   C1B50721  12.179  -0.441   9.622 -0.1101 -0.1314 -0.1427
 2405DPPE   C2B50722  11.971  -0.771   9.485 -0.0200  0.1622  0.3266
 2405DPPE   C3B50723  11.798  -1.124   9.321 -0.0540 -0.0670  0.0043
 2405DPPE   C4B50724  11.790  -1.299   9.006  0.1221  0.2656 -0.5312
 2406DPPE   NH350725   8.729   6.849   7.124 -0.4226 -0.2869  0.0012
 2406DPPE   PO450726   9.159   6.690   7.346 -0.0092  0.1165  0.0544
 2406DPPE   GL150727   8.829   6.322   7.330 -0.1101  0.0821  0.1347
 2406DPPE   GL250728   8.522   6.434   7.315  0.0495  0.2670 -0.0005
 2406DPPE   C1A50729   8.811   6.126   6.871 -0.3717 -0.2242  0.0303
 2406DPPE   C2A50730   8.555   6.066   6.526  0.1261  0.1501 -0.2682
 2406DPPE   C3A50731   8.138   6.048   6.220  0.0438  0.0371  0.1880
 2406DPPE   C4A50732   7.665   5.978   6.212  0.2054  0.1535 -0.1436
 2406DPPE   C1B50733   8.338   6.363   6.857 -0.1749 -0.2168 -0.2802
 2406DPPE   C2B50734   8.257   6.480   6.417 -0.4886  0.2658  0.1908
 2406DPPE   C3B50735   8.028   6.592   6.060 -0.0317 -0.5701  0.0236
 2406DPPE   C4B50736   8.073   6.605   5.675  0.1084 -0.1302  0.3682
 2407DPPE   NH350737   5.874   3.357  16.293 -0.1074 -0.0431  0.1446
 2407DPPE   PO450738   5.601   3.280  16.696 -0.2257 -0.2559 -0.0409
 2407DPPE   GL150739   5.317   3.043  16.893  0.2138  0.1233  0.3053
 2407DPPE   GL250740   5.067   2.815  16.903 -0.1212 -0.3263  0.1455
 2407DPPE   C1A50741   5.302   3.044  17.441  0.1421 -0.1083 -0.2632
 2407DPPE   C2A50742   4.978   3.268  17.759 -0.2866 -0.1267  0.1534
 2407DPPE   C3A50743   4.602   3.308  17.955  0.0065  0.0807  0.1084
 2407DPPE   C4A50744   4.183   3.049  17.959 -0.1124 -0.3070 -0.1027
 2407DPPE   C1B50745   5.021   2.763  16.480  0.0922 -0.2373 -0.1000
 2407DPPE   C2B50746   5.011   2.355  16.188 -0.0982 -0.0184  0.0304
 2407DPPE   C3B50747   4.758   2.282  15.760 -0.0956 -0.2633  0.4050
 2407DPPE   C4B50748   4.545   1.989  15.475 -0.2037 -0.1583  0.2402
 2408DPPE   NH350749  13.589   4.764   5.536 -0.2537 -0.0164  0.1544
 2408DPPE   PO450750  13.285   4.697   5.912 -0.1188 -0.2021  0.1326
 2408DPPE   GL150751  13.131   4.601   5.577 -0.0007  0.1534 -0.2205
 2408DPPE   GL250752  12.763   4.495   5.572  0.1418 -0.0747 -0.1572
 2408DPPE   C1A50753  12.846   4.707   5.141  0.2370  0.0907 -0.0821
 2408DPPE   C2A50754  12.724   4.569   4.781  0.2345 -0.2165 -0.4095
 2408DPPE   C3A50755  12.528   4.321   4.523 -0.1924  0.1218  0.0370
 2408DPPE   C4A50756  12.221   4.161   4.226 -0.1309 -0.0662  0.0919
 2408DPPE   C1B50757  12.575   4.250   5.194 -0.1327 -0.1095 -0.2988
 2408DPPE   C2B50758  12.325   4.002   4.869 -0.0274  0.2334 -0.0023
 2408DPPE   C3B50759  12.181   3.761   4.537  0.3890 -0.3215 -0.1011
 2408DPPE   C4B50760  12.119   3.459   4.327 -0.3676 -0.1506  0.1033
 2409DPPE   NH350761  10.581   5.974   7.824 -0.0109  0.0833  0.0416
 2409DPPE   PO450762  10.202   5.864   8.023  0.0033  0.2034  0.2058
 2409DPPE   GL150763  10.259   6.219   8.332 -0.1202 -0.0989  0.0356
 2409DPPE   GL250764  10.451   6.329   8.208  0.3954  0.3468 -0.3424
 2409DPPE   C1A50765  10.205   6.549   8.650 -0.0619 -0.4333 -0.3265
 2409DPPE   C2A50766  10.314   6.875   8.865  0.1075  0.0921  0.1889
 2409DPPE   C3A50767  10.480   7.267   8.935  0.0572 -0.5322 -0.0329
 2409DPPE   C4A50768  10.825   7.559   9.086  0.1120 -0.2405 -0.0246
 2409DPPE   C1B50769  10.685   6.665   8.427  0.0393  0.1407 -0.1075
 2409DPPE   C2B50770  10.743   6.944   8.627  0.2439  0.0588  0.4362
 2409DPPE   C3B50771  11.035   7.137   8.945 -0.1213 -0.0333  0.2205
 2409DPPE   C4B50772  11.301   7.417   9.274 -0.0269  0.1087  0.0403
 2410DPPE   NH350773   8.050   7.181   7.820 -0.2789  0.0440 -0.0714
 2410DPPE   PO450774   7.970   7.532   8.137 -0.2114 -0.0252 -0.0655
 2410DPPE   GL150775   7.508   7.384   7.918  0.1521 -0.5095 -0.2443
 2410DPPE   GL250776   7.255   7.600   7.777  0.1396  0.1531 -0.3519
 2410DPPE   C1A50777   7.395   7.077   7.639  0.0330 -0.2783  0.1849
 2410DPPE   C2A50778   7.134   6.837   7.579  0.0963  0.1158  0.0450
 2410DPPE   C3A50779   6.808   6.842   7.427  0.1903 -0.1894  0.0835
 2410DPPE   C4A50780   6.531   6.897   7.163 -0.2417 -0.0797  0.5291
 2410DPPE   C1B50781   6.968   7.480   7.385 -0.2664  0.1736  0.2129
 2410DPPE   C2B50782   6.484   7.414   7.336 -0.2267  0.1797  0.1117
 2410DPPE   C3B50783   6.227   7.459   6.974 -0.0173 -0.1445 -0.0648
 2410DPPE   C4B50784   6.045   7.522   6.648  0.0327  0.0834  0.2261
 2411DPPE   NH350785  15.412   1.452   7.211  0.0188  0.3149  0.0804
 2411DPPE   PO450786  14.975   1.571   7.368 -0.1885 -0.1767  0.2437
 2411DPPE   GL150787  15.022   1.301   6.977 -0.0409 -0.2701 -0.0177
 2411DPPE   GL250788  14.873   1.440   6.789 -0.1073  0.1407  0.0920
 2411DPPE   C1A50789  14.933   0.939   6.772 -0.0269  0.1330  0.0726
 2411DPPE   C2A50790  14.900   0.556   6.689 -0.2198 -0.1841  0.3197
 2411DPPE   C3A50791  14.909   0.218   6.491 -0.0694  0.1499 -0.0254
 2411DPPE   C4A50792  14.846  -0.205   6.469 -0.1150  0.0186 -0.4568
 2411DPPE   C1B50793  14.539   1.302   6.553  0.3026 -0.0742  0.1594
 2411DPPE   C2B50794  14.350   1.170   6.116  0.0767  0.2272 -0.5776
 2411DPPE   C3B50795  14.325   1.246   5.591 -0.0763  0.1607 -0.0014
 2411DPPE   C4B50796  14.212   1.459   5.211 -0.1981  0.2284  0.0344
 2412DPPE   NH350797   7.758   4.975   9.019  0.1160  0.3486 -0.0496
 2412DPPE   PO450798   7.972   4.599   9.161 -0.1813 -0.0256  0.0731
 2412DPPE   GL150799   7.835   4.488   8.807  0.0791 -0.0498 -0.1001
 2412DPPE   GL250800   7.649   4.138   8.802  0.2342 -0.1146 -0.0282
 2412DPPE   C1A50801   7.608   4.452   8.307 -0.0086 -0.0600  0.0245
 2412DPPE   C2A50802   7.709   4.305   7.905  0.1912 -0.0091 -0.0216
 2412DPPE   C3A50803   7.711   4.168   7.495 -0.1487  0.1651 -0.1359
 2412DPPE   C4A50804   7.331   3.954   7.224  0.1677  0.1009 -0.1995
 2412DPPE   C1B50805   7.691   3.999   8.454 -0.2470  0.3341 -0.2469
 2412DPPE   C2B50806   7.448   3.905   8.193  0.1515  0.1563  0.1562
 2412DPPE   C3B50807   7.278   3.897   7.841 -0.1235  0.2329  0.0269
 2412DPPE   C4B50808   7.145   3.662   7.620 -0.1162 -0.2165  0.2174
 2413DPPE   NH350809  13.887   2.371   7.172 -0.0784  0.1970  0.0293
 2413DPPE   PO450810  13.445   2.441   7.228  0.0573 -0.0889  0.0637
 2413DPPE   GL150811  13.194   2.421   6.836  0.1900 -0.3191  0.2013
 2413DPPE   GL250812  13.254   2.101   6.763 -0.0630 -0.0078  0.1793
 2413DPPE   C1A50813  12.785   2.265   6.685  0.1937 -0.2454  0.3052
 2413DPPE   C2A50814  12.468   2.080   6.402 -0.0677 -0.3041 -0.0383
 2413DPPE   C3A50815  12.233   1.892   6.178  0.0578 -0.2218  0.0109
 2413DPPE   C4A50816  12.093   1.457   5.983 -0.0947 -0.0094 -0.0203
 2413DPPE   C1B50817  13.075   1.895   6.672  0.3436  0.3394 -0.0309
 2413DPPE   C2B50818  12.853   1.656   6.436  0.2053  0.0320  0.0161
 2413DPPE   C3B50819  12.608   1.484   6.068 -0.2612 -0.1291 -0.2668
 2413DPPE   C4B50820  12.570   1.174   5.947  0.0107  0.0546 -0.1780
 2414DPPE   NH350821   9.596   5.700   7.348  0.0679 -0.0464  0.0526
 2414DPPE   PO450822   9.386   5.493   7.700 -0.2948 -0.0322  0.0913
 2414DPPE   GL150823   9.077   5.182   7.493  0.1452 -0.0637  0.2689
 2414DPPE   GL250824   8.895   4.950   7.588  0.1805 -0.2170 -0.0686
 2414DPPE   C1A50825   8.799   5.153   7.162  0.0857  0.3891 -0.1911
 2414DPPE   C2A50826   8.427   5.032   7.017  0.3260  0.1873  0.1666
 2414DPPE   C3A50827   8.387   4.628   7.020  0.0852 -0.0779  0.3455
 2414DPPE   C4A50828   8.333   4.234   7.000  0.1634 -0.2034  0.2664
 2414DPPE   C1B50829   8.706   4.594   7.387 -0.2320 -0.1642 -0.3937
 2414DPPE   C2B50830   8.804   4.163   7.163  0.1534  0.0847  0.0091
 2414DPPE   C3B50831   8.591   3.841   6.907 -0.0645 -0.3279 -0.0263
 2414DPPE   C4B50832   8.503   3.459   6.711 -0.2769 -0.2410  0.1918
 2415DPPE   NH350833  16.033   7.571   5.260 -0.0673 -0.0484 -0.0601
 2415DPPE   PO450834  15.972   7.214   5.446 -0.0511  0.0103 -0.0324
 2415DPPE   GL150835  16.233   7.451   5.712 -0.0123  0.1655  0.1244
 2415DPPE   GL250836  16.419   7.642   5.665 -0.1317 -0.0734  0.2059
 2415DPPE   C1A50837  16.370   7.497   6.133  0.2695 -0.0029  0.2029
 2415DPPE   C2A50838  16.744   7.558   6.440 -0.1526 -0.1762 -0.2010
 2415DPPE   C3A50839  16.727   7.658   6.789  0.1632 -0.2082  0.1418
 2415DPPE   C4A50840  16.997   7.765   7.161 -0.1405  0.0344 -0.0434
 2415DPPE   C1B50841  16.684   7.803   5.990  0.2568 -0.1940 -0.1554
 2415DPPE   C2B50842  17.185   7.804   6.078 -0.0163 -0.0758 -0.1402
 2415DPPE   C3B50843  17.510   7.526   6.219 -0.0004  0.0942 -0.0855
 2415DPPE   C4B50844  17.712   7.465   6.573  0.1662  0.3467  0.1543
 2416DPPE   NH350845  15.346   8.040   4.640  0.1241 -0.3698 -0.1298
 2416DPPE   PO450846  15.420   8.416   4.507 -0.1963 -0.1078  0.2348
 2416DPPE   GL150847  15.154   8.674   4.350 -0.0843 -0.0517 -0.1118
 2416DPPE   GL250848  15.209   8.558   4.000  0.0193 -0.1410 -0.1945
 2416DPPE   C1A50849  15.371   9.072   4.392  0.0817  0.1038  0.0856
 2416DPPE   C2A50850  15.527   9.275   4.769  0.1002 -0.1053  0.0561
 2416DPPE   C3A50851  15.529   9.377   5.262  0.0508  0.2741  0.0208
 2416DPPE   C4A50852  15.625   9.730   5.480  0.1285  0.1078  0.2472
 2416DPPE   C1B50853  15.136   8.886   3.700  0.0434  0.5937  0.1906
 2416DPPE   C2B50854  15.248   9.060   3.192 -0.3079 -0.0616  0.1640
 2416DPPE   C3B50855  15.160   9.093   2.825  0.0721 -0.0314 -0.0424
 2416DPPE   C4B50856  15.242   9.467   2.605 -0.1320  0.0572  0.0469
 2417DPPE   NH350857   5.829   8.661  10.659  0.0836 -0.1274  0.0066
 2417DPPE   PO450858   5.983   8.214  10.802  0.3765  0.2251  0.0706
 2417DPPE   GL150859   5.648   8.173  10.578  0.0222  0.3454 -0.0041
 2417DPPE   GL250860   5.773   8.280  10.260  0.2653 -0.1875  0.0582
 2417DPPE   C1A50861   5.289   8.040  10.425  0.0281  0.0236  0.1441
 2417DPPE   C2A50862   4.953   7.855  10.237  0.4141 -0.0501  0.3452
 2417DPPE   C3A50863   4.553   7.648  10.199  0.1850 -0.1927 -0.2298
 2417DPPE   C4A50864   4.163   7.318  10.315 -0.0111 -0.2305 -0.0047
 2417DPPE   C1B50865   5.438   8.214   9.958 -0.1607 -0.1234  0.2819
 2417DPPE   C2B50866   5.072   8.144   9.731 -0.0221 -0.3419 -0.1222
 2417DPPE   C3B50867   5.068   7.913   9.367  0.1062  0.0723 -0.3928
 2417DPPE   C4B50868   5.035   7.414   9.376  0.0810  0.2384  0.1655
 2418DPPE   NH350869   6.321   7.893  12.145 -0.5246 -0.1800  0.1844
 2418DPPE   PO450870   6.308   7.666  12.455  0.3644 -0.0800  0.1771
 2418DPPE   GL150871   6.720   7.690  12.626 -0.2527  0.0846  0.1022
 2418DPPE   GL250872   6.755   8.031  12.440  0.1509 -0.1052  0.1856
 2418DPPE   C1A50873   7.105   7.675  12.899 -0.0282  0.1350  0.0850
 2418DPPE   C2A50874   7.553   7.553  13.139  0.1188  0.1017 -0.2618
 2418DPPE   C3A50875   7.939   7.492  13.337  0.0811 -0.1184 -0.1391
 2418DPPE   C4A50876   8.392   7.612  13.546 -0.2646  0.2466  0.2052
 2418DPPE   C1B50877   7.137   8.153  12.781  0.1820  0.1692  0.0071
 2418DPPE   C2B50878   7.336   8.113  13.058 -0.2586 -0.1162  0.0176
 2418DPPE   C3B50879   7.705   8.152  13.106 -0.0534 -0.1401 -0.0234
 2418DPPE   C4B50880   8.109   7.937  13.247  0.0173 -0.0057 -0.1057
 2419DPPE   NH350881  15.419   4.141   7.274 -0.2109 -0.2438 -0.0577
 2419DPPE   PO450882  14.971   4.247   7.281  0.0654 -0.2783  0.0792
 2419DPPE   GL150883  15.078   4.453   7.568 -0.0499  0.0625  0.0281
 2419DPPE   GL250884  15.323   4.323   7.813  0.4244 -0.0945 -0.2459
 2419DPPE   C1A50885  15.287   4.797   7.862 -0.2432 -0.3199  0.0047
 2419DPPE   C2A50886  15.388   4.954   8.228  0.2239  0.2267 -0.1308
 2419DPPE   C3A50887  15.369   5.217   8.535 -0.0670 -0.2004 -0.1883
 2419DPPE   C4A50888  15.287   5.630   8.775  0.0500  0.2831  0.1095
 2419DPPE   C1B50889  15.479   4.463   8.185  0.0677 -0.3288  0.2356
 2419DPPE   C2B50890  15.528   4.456   8.617 -0.0052 -0.0352  0.4087
 2419DPPE   C3B50891  15.460   4.690   8.991  0.0469  0.3087  0.0304
 2419DPPE   C4B50892  15.187   4.805   9.364 -0.3835  0.0248  0.2895
 2420DPPE   NH350893  17.990   1.845   7.511  0.0333  0.1396  0.3004
 2420DPPE   PO450894  18.329   1.973   7.268 -0.2266 -0.0260 -0.1440
 2420DPPE   GL150895  18.630   2.190   7.502  0.3869  0.2318 -0.1447
 2420DPPE   GL250896  18.401   2.536   7.565 -0.1933 -0.1807  0.0846
 2420DPPE   C1A50897  18.811   2.138   7.910  0.0221  0.1668 -0.1257
 2420DPPE   C2A50898  19.245   2.097   8.118 -0.0085  0.1427 -0.2764
 2420DPPE   C3A50899  19.601   2.295   7.955 -0.0745  0.2549  0.5231
 2420DPPE   C4A50900  19.720   2.140   7.605  0.2233  0.0806  0.0960
 2420DPPE   C1B50901  18.864   2.593   7.663  0.5067 -0.0951  0.1094
 2420DPPE   C2B50902  19.099   2.618   7.918 -0.0035  0.0200  0.3664
 2420DPPE   C3B50903  19.231   2.768   8.292 -0.0259 -0.0184  0.2952
 2420DPPE   C4B50904  19.431   3.015   8.590  0.1442 -0.0839  0.2211
 2421DPPE   NH350905   6.425   7.576  10.014  0.1590  0.3247  0.1700
 2421DPPE   PO450906   6.404   7.178  10.199  0.0727 -0.1473 -0.1816
 2421DPPE   GL150907   6.146   7.103   9.965  0.0898  0.3330  0.1544
 2421DPPE   GL250908   6.154   6.887   9.686  0.1599 -0.1688  0.1186
 2421DPPE   C1A50909   5.890   7.355   9.589  0.0097 -0.0631  0.1795
 2421DPPE   C2A50910   5.483   7.277   9.337  0.0852  0.0743  0.1325
 2421DPPE   C3A50911   5.217   7.173   9.000 -0.1994 -0.0452 -0.0353
 2421DPPE   C4A50912   4.929   6.997   9.038 -0.2075 -0.2369  0.1530
 2421DPPE   C1B50913   5.811   6.873   9.428 -0.1535  0.2709 -0.5629
 2421DPPE   C2B50914   5.295   6.870   9.524 -0.2248 -0.4943  0.2455
 2421DPPE   C3B50915   4.934   6.608   9.412  0.1631  0.1691 -0.0428
 2421DPPE   C4B50916   4.650   6.321   9.248  0.2095  0.1636 -0.0713
 2422DPPE   NH350917   5.211   5.966  15.332 -0.2078 -0.1156  0.1735
 2422DPPE   PO450918   5.080   5.608  15.138  0.1244 -0.1473  0.1188
 2422DPPE   GL150919   4.894   5.544  15.471 -0.1543 -0.1671  0.0961
 2422DPPE   GL250920   4.786   5.856  15.599 -0.1609  0.3081 -0.2364
 2422DPPE   C1A50921   4.456   5.503  15.638  0.1015 -0.3681  0.2029
 2422DPPE   C2A50922   3.979   5.720  15.740  0.0347 -0.3912 -0.0112
 2422DPPE   C3A50923   3.731   5.900  16.057 -0.3723 -0.0234  0.0014
 2422DPPE   C4A50924   3.372   6.177  16.042 -0.2612  0.1321 -0.3070
 2422DPPE   C1B50925   4.452   6.040  15.746 -0.0031 -0.0236  0.0268
 2422DPPE   C2B50926   4.172   6.229  16.050  0.0148  0.1076  0.2519
 2422DPPE   C3B50927   3.914   6.551  15.905 -0.0257 -0.1282 -0.1657
 2422DPPE   C4B50928   3.580   6.538  15.701  0.3191 -0.2166 -0.0392
 2423DPPE   NH350929  11.904   0.081  10.763  0.1319  0.0888 -0.1684
 2423DPPE   PO450930  12.417  -0.078  10.657  0.1356 -0.0940  0.1032
 2423DPPE   GL150931  12.355  -0.521  10.408  0.0565  0.2507 -0.0564
 2423DPPE   GL250932  12.162  -0.741  10.518 -0.1348  0.0025  0.1337
 2423DPPE   C1A50933  12.310  -0.773   9.977 -0.2924  0.1646  0.4365
 2423DPPE   C2A50934  12.359  -1.179   9.866 -0.1457  0.0249  0.3216
 2423DPPE   C3A50935  12.406  -1.564  10.014  0.1056 -0.1490 -0.3959
 2423DPPE   C4A50936  12.224  -1.898  10.066  0.0848  0.1813  0.0213
 2423DPPE   C1B50937  12.172  -1.128  10.330 -0.0049 -0.2172 -0.0049
 2423DPPE   C2B50938  11.889  -1.486  10.301  0.0430  0.1754  0.1260
 2423DPPE   C3B50939  11.532  -1.756  10.541  0.0508  0.0301  0.0774
 2423DPPE   C4B50940  11.694  -2.095  10.898 -0.3098  0.0942  0.0578
 2424DPPE   NH350941  14.054   4.616   5.323  0.1553  0.0928  0.2456
 2424DPPE   PO450942  14.168   4.216   5.479 -0.3474 -0.4645  0.0415
 2424DPPE   GL150943  14.264   4.053   5.051 -0.0285 -0.3874 -0.2414
 2424DPPE   GL250944  14.173   4.316   4.904 -0.3536  0.1071 -0.2049
 2424DPPE   C1A50945  14.278   3.766   4.763 -0.0953  0.3244 -0.1630
 2424DPPE   C2A50946  14.289   3.407   4.515  0.1331 -0.4910 -0.1349
 2424DPPE   C3A50947  14.370   3.217   4.140 -0.0373 -0.0622 -0.2847
 2424DPPE   C4A50948  14.291   3.328   3.749 -0.2609  0.4401  0.3565
 2424DPPE   C1B50949  13.975   4.187   4.589  0.3466  0.0348  0.1310
 2424DPPE   C2B50950  13.832   4.146   4.080  0.1519  0.1745  0.1108
 2424DPPE   C3B50951  13.764   3.835   3.727 -0.3467  0.3438  0.0956
 2424DPPE   C4B50952  13.421   3.575   3.549 -0.1012  0.0222 -0.0261
 2425DPPE   NH350953  13.253   0.580   8.631  0.1343  0.1908 -0.2337
 2425DPPE   PO450954  13.703   0.558   8.613 -0.0281  0.0382 -0.0559
 2425DPPE   GL150955  13.501   0.129   8.561  0.1030 -0.3045 -0.0141
 2425DPPE   GL250956  13.325   0.201   8.317 -0.0106 -0.1067 -0.1826
 2425DPPE   C1A50957  13.433  -0.274   8.424 -0.0564  0.1457 -0.1083
 2425DPPE   C2A50958  13.528  -0.497   8.136 -0.0682  0.1186  0.0723
 2425DPPE   C3A50959  13.441  -0.895   7.862 -0.1535 -0.1781 -0.2398
 2425DPPE   C4A50960  13.524  -1.227   7.543 -0.1150 -0.2511  0.1212
 2425DPPE   C1B50961  13.004  -0.052   8.442 -0.0579 -0.0139 -0.0740
 2425DPPE   C2B50962  12.920  -0.417   8.349 -0.0924 -0.3924 -0.1174
 2425DPPE   C3B50963  12.769  -0.830   8.188  0.1176  0.5339  0.0586
 2425DPPE   C4B50964  12.660  -1.258   8.192 -0.2694 -0.1217  0.1179
 2426DPPE   NH350965  10.644   7.399   5.926  0.2785 -0.2025  0.0312
 2426DPPE   PO450966  10.641   7.787   6.338 -0.0717 -0.0112  0.3478
 2426DPPE   GL150967  10.234   7.789   5.973  0.0118  0.0048  0.1918
 2426DPPE   GL250968  10.143   8.035   5.670 -0.2031  0.0352  0.0163
 2426DPPE   C1A50969  10.137   7.472   5.547  0.1885 -0.0351  0.0249
 2426DPPE   C2A50970   9.914   7.494   5.107 -0.0961 -0.3963 -0.1854
 2426DPPE   C3A50971   9.721   7.350   4.729 -0.0508  0.0268 -0.1713
 2426DPPE   C4A50972   9.841   7.465   4.285 -0.1048  0.0755 -0.0030
 2426DPPE   C1B50973  10.078   8.278   5.339 -0.1707 -0.0141  0.0159
 2426DPPE   C2B50974   9.853   8.583   5.309  0.1489  0.2143  0.0958
 2426DPPE   C3B50975   9.584   8.646   5.029 -0.0438 -0.2935 -0.0515
 2426DPPE   C4B50976   9.415   8.859   4.647  0.0268  0.1205 -0.1463
 2427DPPE   NH350977   8.880   4.809   8.113 -0.2043  0.0277 -0.3549
 2427DPPE   PO450978   8.781   4.629   8.540 -0.0185  0.0160  0.0663
 2427DPPE   GL150979   8.834   4.314   8.210  0.3945 -0.2939 -0.1723
 2427DPPE   GL250980   8.928   4.018   8.140  0.1705  0.0576  0.0833
 2427DPPE   C1A50981   8.453   4.112   8.117 -0.0659  0.0862 -0.1069
 2427DPPE   C2A50982   8.145   3.998   8.206  0.0849 -0.0061 -0.0064
 2427DPPE   C3A50983   7.923   3.716   8.116  0.0310 -0.1412 -0.3702
 2427DPPE   C4A50984   7.608   3.435   7.965 -0.0883 -0.0175  0.0866
 2427DPPE   C1B50985   8.731   3.801   7.771  0.0778 -0.0351 -0.0211
 2427DPPE   C2B50986   8.454   3.608   7.466 -0.0210  0.1112 -0.2182
 2427DPPE   C3B50987   8.149   3.752   7.236  0.0685  0.0300 -0.2076
 2427DPPE   C4B50988   7.791   3.576   7.089 -0.0298 -0.1773  0.1367
 2428DPPE   NH350989  15.591  35.847  10.541  0.3203  0.0594  0.1238
 2428DPPE   PO450990  15.739  36.025  10.368 -0.1105  0.1275 -0.1496
 2428DPPE   GL150991  16.138  35.905  10.168  0.1617  0.2466 -0.0018
 2428DPPE   GL250992  16.077  35.547  10.078 -0.0202  0.0206 -0.1719
 2428DPPE   C1A50993  16.564  35.697  10.044  0.0649  0.1501  0.0358
 2428DPPE   C2A50994  16.697  35.279  10.024  0.0353  0.0867 -0.0081
 2428DPPE   C3A50995  16.691  34.918  10.356 -0.0491  0.1283  0.0237
 2428DPPE   C4A50996  16.523  34.537  10.748 -0.0322 -0.1024  0.1942
 2428DPPE   C1B50997  15.960  35.272   9.764  0.0837  0.2085 -0.4889
 2428DPPE   C2B50998  16.046  34.897   9.876  0.0554  0.1888  0.0330
 2428DPPE   C3B50999  15.939  34.507   9.832  0.1224  0.1622  0.2676
 2428DPPE   C4B51000  15.893  34.091   9.571 -0.2564 -0.0059  0.3704
 2429DPPE   NH351001  10.313   1.597  10.084  0.0347  0.0543  0.2211
 2429DPPE   PO451002   9.996   1.935  10.272  0.1751 -0.0023  0.2262
 2429DPPE   GL151003   9.652   1.607   9.980  0.1672  0.2055  0.1518
 2429DPPE   GL251004   9.455   1.724   9.720 -0.0052  0.0181 -0.0637
 2429DPPE   C1A51005   9.582   1.188   9.777 -0.2305 -0.0795  0.0081
 2429DPPE   C2A51006   9.462   0.705   9.827  0.3717 -0.2231 -0.2883
 2429DPPE   C3A51007   9.158   0.386   9.642 -0.0982  0.2403 -0.2495
 2429DPPE   C4A51008   8.900  -0.069   9.592 -0.0963  0.0292 -0.2728
 2429DPPE   C1B51009   9.277   1.421   9.460  0.2364 -0.0767 -0.2003
 2429DPPE   C2B51010   9.012   1.340   9.194  0.1517  0.0825 -0.0507
 2429DPPE   C3B51011   8.891   1.191   8.789 -0.0544  0.0360  0.1138
 2429DPPE   C4B51012   8.860   0.910   8.425 -0.2119  0.1494 -0.0450
 2430DPPE   NH351013  10.225   4.388   7.875 -0.0432  0.0739 -0.3057
 2430DPPE   PO451014  10.438   4.493   7.652  0.2326 -0.1398  0.3802
 2430DPPE   GL151015  10.284   4.322   7.356 -0.0906  0.2239 -0.1767
 2430DPPE   GL251016  10.391   3.967   7.333 -0.2190 -0.0918 -0.1316
 2430DPPE   C1A51017  10.177   4.301   6.908 -0.2975 -0.2401  0.2581
 2430DPPE   C2A51018  10.135   4.240   6.497 -0.0490 -0.2971  0.1469
 2430DPPE   C3A51019   9.952   4.162   5.968 -0.0401  0.2878 -0.1351
 2430DPPE   C4A51020   9.729   3.860   5.637 -0.0070 -0.2517 -0.2486
 2430DPPE   C1B51021   9.982   3.941   7.274 -0.0331  0.2973  0.0947
 2430DPPE   C2B51022   9.567   3.695   7.134  0.3350 -0.0190  0.0203
 2430DPPE   C3B51023   9.210   3.437   6.988  0.1810  0.1005  0.0570
 2430DPPE   C4B51024   8.959   3.262   6.690  0.0491  0.1319  0.0358
 2431DPPE   NH351025  12.248   4.004   7.863 -0.0753  0.3950  0.0588
 2431DPPE   PO451026  12.207   3.647   8.210 -0.0194  0.0290  0.1200
 2431DPPE   GL151027  12.390   3.705   8.595  0.1208 -0.1774 -0.0761
 2431DPPE   GL251028  12.486   4.017   8.605 -0.0223 -0.0081  0.1022
 2431DPPE   C1A51029  12.656   3.879   9.007 -0.0613 -0.1220  0.1457
 2431DPPE   C2A51030  13.091   3.911   9.167  0.2792  0.3262 -0.1986
 2431DPPE   C3A51031  13.327   4.168   9.491 -0.4046 -0.0604  0.2302
 2431DPPE   C4A51032  13.519   4.620   9.540 -0.4136  0.1078 -0.1237
 2431DPPE   C1B51033  12.315   4.236   8.920  0.3022 -0.1404  0.1120
 2431DPPE   C2B51034  12.183   4.515   9.223  0.1882 -0.3959 -0.0097
 2431DPPE   C3B51035  12.554   4.694   9.547 -0.2185  0.0808 -0.1667
 2431DPPE   C4B51036  12.992   4.721   9.686 -0.1414  0.0194 -0.1695
 2432DPPE   NH351037  13.037   3.256   7.531 -0.2477  0.3552 -0.2959
 2432DPPE   PO451038  12.733   3.137   7.440  0.0477 -0.2535 -0.1128
 2432DPPE   GL151039  12.557   2.843   7.184  0.0333 -0.1075  0.2681
 2432DPPE   GL251040  12.696   2.520   7.223 -0.1750 -0.2742 -0.2328
 2432DPPE   C1A51041  12.157   2.825   7.009  0.1158  0.0827  0.2713
 2432DPPE   C2A51042  12.054   2.655   6.523  0.1534  0.1646 -0.3734
 2432DPPE   C3A51043  11.955   2.789   6.167  0.2108  0.2100  0.2036
 2432DPPE   C4A51044  11.798   2.812   5.840 -0.1592  0.0734  0.1472
 2432DPPE   C1B51045  12.351   2.393   6.945  0.0097  0.3012  0.0561
 2432DPPE   C2B51046  12.099   2.200   6.687  0.1793 -0.3730  0.2577
 2432DPPE   C3B51047  11.740   1.913   6.512 -0.0754  0.1420 -0.4797
 2432DPPE   C4B51048  11.727   1.799   6.087  0.1163 -0.1837 -0.3261
 2433DPPE   NH351049   9.432   3.198   9.250 -0.4826  0.3136  0.1695
 2433DPPE   PO451050   9.094   3.286   9.561 -0.2527 -0.0372  0.2964
 2433DPPE   GL151051   8.975   2.978   9.151  0.0251 -0.0018  0.1176
 2433DPPE   GL251052   9.282   2.727   9.011 -0.0885 -0.1267 -0.0126
 2433DPPE   C1A51053   8.788   2.787   8.747 -0.4444 -0.2030 -0.0015
 2433DPPE   C2A51054   8.677   2.565   8.440 -0.0651  0.2551 -0.0814
 2433DPPE   C3A51055   8.533   2.341   8.001 -0.1536 -0.2760 -0.1891
 2433DPPE   C4A51056   8.552   2.021   7.687  0.0109  0.0693 -0.4633
 2433DPPE   C1B51057   8.807   2.502   9.125 -0.0731  0.3062 -0.3271
 2433DPPE   C2B51058   8.685   2.171   8.853  0.0649 -0.2619 -0.0516
 2433DPPE   C3B51059   8.518   1.925   8.413 -0.0797  0.0986  0.1708
 2433DPPE   C4B51060   8.499   1.653   8.002  0.1866 -0.0361 -0.3024
 2434DPPE   NH351061  10.241   7.025   6.439  0.2098  0.1155  0.4154
 2434DPPE   PO451062  10.304   7.424   6.287 -0.2866  0.0461  0.1124
 2434DPPE   GL151063   9.927   7.414   6.230 -0.0292 -0.0356  0.0217
 2434DPPE   GL251064   9.719   7.272   6.319 -0.1686  0.1247 -0.0787
 2434DPPE   C1A51065   9.690   7.527   5.750  0.1858 -0.0167 -0.1759
 2434DPPE   C2A51066   9.470   7.614   5.344 -0.2000  0.1070 -0.0974
 2434DPPE   C3A51067   9.199   7.518   4.951 -0.0317  0.1026 -0.3331
 2434DPPE   C4A51068   9.203   7.449   4.498 -0.1135  0.2049 -0.2741
 2434DPPE   C1B51069   9.376   7.271   6.091  0.0141  0.0340  0.0790
 2434DPPE   C2B51070   9.221   7.303   5.704  0.1283 -0.2584  0.1395
 2434DPPE   C3B51071   8.921   7.475   5.362  0.0353  0.3614 -0.0219
 2434DPPE   C4B51072   8.690   7.898   5.223  0.0981  0.3270 -0.1757
 2435DPPE   NH351073   7.459   2.817  12.972 -0.0672 -0.0198 -0.1270
 2435DPPE   PO451074   7.447   2.432  13.207  0.0779 -0.2641 -0.2237
 2435DPPE   GL151075   7.128   2.177  13.011  0.0965  0.0036  0.2377
 2435DPPE   GL251076   6.962   2.162  13.221 -0.2088  0.1394 -0.3377
 2435DPPE   C1A51077   6.875   1.906  12.760 -0.1076  0.0007 -0.1187
 2435DPPE   C2A51078   6.713   1.469  12.495  0.3718 -0.1903  0.1960
 2435DPPE   C3A51079   6.699   1.407  12.030 -0.2257  0.3365  0.2181
 2435DPPE   C4A51080   6.619   1.218  11.751 -0.0061 -0.1535  0.0010
 2435DPPE   C1B51081   6.547   1.970  13.146  0.1658 -0.1688 -0.0634
 2435DPPE   C2B51082   6.365   1.580  12.888  0.1537 -0.0394 -0.0264
 2435DPPE   C3B51083   6.013   1.222  12.793 -0.0398  0.1927  0.2401
 2435DPPE   C4B51084   5.612   1.067  12.649  0.0633  0.1754 -0.1969
 2436DPPE   NH351085   9.308   3.310  11.158  0.1895 -0.0387  0.1539
 2436DPPE   PO451086   9.186   3.239  11.538 -0.0624  0.2391 -0.3854
 2436DPPE   GL151087   9.497   3.489  11.631 -0.3380 -0.0415 -0.1764
 2436DPPE   GL251088   9.611   3.677  11.374  0.0405 -0.0415  0.0416
 2436DPPE   C1A51089   9.615   3.727  11.977  0.2656  0.0902  0.0941
 2436DPPE   C2A51090   9.683   3.758  12.397  0.2525  0.1126  0.3670
 2436DPPE   C3A51091   9.952   3.757  12.844  0.2345  0.1722 -0.2284
 2436DPPE   C4A51092   9.920   3.835  13.268 -0.2994 -0.2904  0.2718
 2436DPPE   C1B51093   9.923   3.896  11.594 -0.0293 -0.4250 -0.1876
 2436DPPE   C2B51094  10.148   3.925  12.027  0.1805 -0.0608 -0.1639
 2436DPPE   C3B51095  10.213   4.022  12.433  0.3757  0.1526  0.0254
 2436DPPE   C4B51096  10.333   4.035  12.961 -0.1951  0.2266  0.0891
 2437DPPE   NH351097   9.126  11.665   7.350 -0.0824 -0.0548  0.0096
 2437DPPE   PO451098   8.820  11.696   7.129 -0.2873 -0.0520 -0.3157
 2437DPPE   GL151099   8.888  12.076   7.012  0.0151 -0.0019 -0.0559
 2437DPPE   GL251100   9.160  12.254   7.024 -0.4140  0.1565 -0.2462
 2437DPPE   C1A51101   8.652  12.415   6.792 -0.2117 -0.1224 -0.3230
 2437DPPE   C2A51102   8.703  12.526   6.266 -0.0030 -0.1487 -0.1624
 2437DPPE   C3A51103   8.886  12.478   5.814  0.0037  0.2381 -0.0816
 2437DPPE   C4A51104   9.018  12.198   5.313  0.1090 -0.0654  0.0571
 2437DPPE   C1B51105   8.965  12.594   7.216  0.0541 -0.3288 -0.2435
 2437DPPE   C2B51106   8.556  12.922   7.194 -0.0959 -0.0674  0.1925
 2437DPPE   C3B51107   8.256  12.873   7.513  0.5013 -0.3112  0.2322
 2437DPPE   C4B51108   8.141  13.067   7.841  0.2263  0.3869 -0.0623
 2438DPPE   NH351109   6.975   4.991  13.835  0.2747 -0.0881  0.0304
 2438DPPE   PO451110   7.033   5.358  13.529  0.0840  0.3643  0.0097
 2438DPPE   GL151111   7.368   5.415  13.747  0.1396  0.0402 -0.1097
 2438DPPE   GL251112   7.476   5.111  14.050 -0.1987  0.0555 -0.0017
 2438DPPE   C1A51113   7.809   5.571  13.540 -0.0941  0.0575  0.2033
 2438DPPE   C2A51114   8.228   5.765  13.557  0.0210 -0.0265 -0.2730
 2438DPPE   C3A51115   8.588   6.005  13.657  0.1208 -0.0992  0.3780
 2438DPPE   C4A51116   9.020   6.114  13.743 -0.1074  0.3330  0.1122
 2438DPPE   C1B51117   7.795   5.359  14.144  0.0386 -0.2055 -0.0813
 2438DPPE   C2B51118   8.218   5.517  14.016 -0.1452  0.0435  0.3740
 2438DPPE   C3B51119   8.483   5.790  14.152  0.0024 -0.2539 -0.1593
 2438DPPE   C4B51120   8.892   5.874  14.247  0.0674 -0.1095 -0.1007
 2439DPPE   NH351121  17.151   1.360   8.315 -0.0140  0.1983 -0.0067
 2439DPPE   PO451122  17.597   1.332   8.457 -0.0074  0.1690 -0.2427
 2439DPPE   GL151123  17.956   1.233   8.341 -0.0810 -0.0059 -0.2747
 2439DPPE   GL251124  18.118   1.312   8.625  0.0019 -0.3438  0.2588
 2439DPPE   C1A51125  18.297   0.956   8.147  0.1535  0.1490 -0.0214
 2439DPPE   C2A51126  18.278   0.659   7.945  0.1215  0.1885 -0.3064
 2439DPPE   C3A51127  18.075   0.367   7.850 -0.0217  0.1749 -0.3389
 2439DPPE   C4A51128  17.753   0.024   7.904 -0.0134  0.3877 -0.1475
 2439DPPE   C1B51129  18.631   1.129   8.554  0.1689 -0.1289  0.0201
 2439DPPE   C2B51130  19.099   1.186   8.806  0.2716  0.2135 -0.2948
 2439DPPE   C3B51131  18.982   1.475   9.154  0.1237  0.0900  0.0218
 2439DPPE   C4B51132  18.666   1.685   9.390 -0.1216 -0.0056  0.1356
 2440DPPE   NH351133  12.741  10.751   5.649  0.0669 -0.2238  0.4808
 2440DPPE   PO451134  12.410  10.756   5.920 -0.1881  0.0715 -0.0730
 2440DPPE   GL151135  12.671  11.042   6.153 -0.1275  0.0427  0.1706
 2440DPPE   GL251136  12.659  11.202   5.882  0.0583  0.0018  0.1922
 2440DPPE   C1A51137  13.057  11.279   6.272 -0.0684  0.3735  0.0656
 2440DPPE   C2A51138  13.398  11.558   6.187 -0.0341 -0.2235 -0.1502
 2440DPPE   C3A51139  13.743  11.806   6.397  0.1869 -0.4172 -0.0756
 2440DPPE   C4A51140  14.099  11.926   6.124  0.1043 -0.2098  0.0358
 2440DPPE   C1B51141  12.848  11.590   5.954 -0.1765 -0.0553  0.2361
 2440DPPE   C2B51142  13.072  12.007   6.117 -0.2122  0.0203  0.3699
 2440DPPE   C3B51143  12.806  12.401   6.104 -0.0510 -0.2903  0.0859
 2440DPPE   C4B51144  12.369  12.642   6.029 -0.1394  0.0800  0.0985
 2441DPPE   NH351145   7.035  10.799   9.160  0.0118  0.1594 -0.3299
 2441DPPE   PO451146   6.926  11.205   9.431 -0.3189 -0.1176 -0.0293
 2441DPPE   GL151147   6.658  11.333   9.179  0.0091 -0.0420 -0.1999
 2441DPPE   GL251148   6.664  11.669   9.272  0.1413 -0.1254  0.2163
 2441DPPE   C1A51149   6.259  11.542   8.990 -0.0007  0.0776  0.2627
 2441DPPE   C2A51150   6.076  11.793   8.592 -0.1672  0.1434  0.0011
 2441DPPE   C3A51151   6.170  12.123   8.347 -0.2243 -0.1079 -0.1927
 2441DPPE   C4A51152   6.149  12.522   8.460  0.1417  0.0899  0.3489
 2441DPPE   C1B51153   6.748  12.057   9.134  0.5337 -0.4445  0.2950
 2441DPPE   C2B51154   7.051  12.318   9.056 -0.0571 -0.0274 -0.0498
 2441DPPE   C3B51155   6.826  12.566   9.348  0.1087 -0.0468 -0.0872
 2441DPPE   C4B51156   6.752  12.838   9.778 -0.1974 -0.1665  0.2177
 2442DPPE   NH351157  14.713   0.716   9.051 -0.1005  0.1172 -0.1036
 2442DPPE   PO451158  14.503   0.773   9.364  0.2248  0.1290  0.0390
 2442DPPE   GL151159  14.766   1.077   9.497  0.2138  0.2676  0.0901
 2442DPPE   GL251160  14.696   1.373   9.343  0.0534  0.1253 -0.0826
 2442DPPE   C1A51161  15.119   1.235   9.779 -0.0666  0.1867 -0.0849
 2442DPPE   C2A51162  15.063   1.391  10.169 -0.2220 -0.0801 -0.1181
 2442DPPE   C3A51163  15.267   1.744  10.568  0.0166 -0.0230 -0.0562
 2442DPPE   C4A51164  15.523   1.726  10.986 -0.0764 -0.1609  0.4470
 2442DPPE   C1B51165  14.753   1.684   9.673 -0.3527 -0.1368 -0.1455
 2442DPPE   C2B51166  15.025   1.862   9.952 -0.1498 -0.1445 -0.0579
 2442DPPE   C3B51167  15.207   2.072  10.208  0.0474 -0.1384 -0.1890
 2442DPPE   C4B51168  15.174   2.208  10.677 -0.1621 -0.0541  0.2840
 2443DPPE   NH351169  11.022   6.255   6.494 -0.1185 -0.4194 -0.1478
 2443DPPE   PO451170  10.832   5.920   6.728 -0.2189  0.1605 -0.0099
 2443DPPE   GL151171  10.576   5.873   6.459 -0.2301  0.1622 -0.0943
 2443DPPE   GL251172  10.394   6.192   6.460 -0.0346  0.1600  0.2469
 2443DPPE   C1A51173  10.359   5.572   6.209 -0.2602  0.2611  0.0002
 2443DPPE   C2A51174  10.021   5.281   6.196 -0.0291  0.0572 -0.1322
 2443DPPE   C3A51175   9.722   5.043   5.983  0.1144 -0.0051  0.0637
 2443DPPE   C4A51176   9.486   4.670   5.804  0.0151 -0.0255  0.1839
 2443DPPE   C1B51177  10.235   6.079   6.076 -0.0895 -0.0202  0.1702
 2443DPPE   C2B51178  10.011   6.025   5.639  0.3347  0.3395 -0.1480
 2443DPPE   C3B51179   9.893   5.733   5.268  0.2235  0.0743 -0.0726
 2443DPPE   C4B51180   9.958   5.278   5.113 -0.1231 -0.2220  0.3176
 2444DPPE   NH351181  12.074  35.636  14.621 -0.3922  0.0081  0.1149
 2444DPPE   PO451182  12.409  35.361  14.443  0.3271  0.1053 -0.0326
 2444DPPE   GL151183  12.254  35.182  14.888 -0.1143  0.2819  0.4430
 2444DPPE   GL251184  11.828  34.954  14.895 -0.2336  0.1088  0.2900
 2444DPPE   C1A51185  12.197  34.876  15.264  0.0590  0.0913 -0.1541
 2444DPPE   C2A51186  12.007  34.505  15.198 -0.0649 -0.1132 -0.2932
 2444DPPE   C3A51187  11.923  34.134  15.404  0.3157 -0.1100 -0.0830
 2444DPPE   C4A51188  11.543  33.940  15.683  0.2976 -0.0876 -0.3966
 2444DPPE   C1B51189  11.654  34.821  15.307 -0.1977 -0.1171  0.0210
 2444DPPE   C2B51190  11.653  34.928  15.750  0.1369 -0.0100 -0.1457
 2444DPPE   C3B51191  11.388  35.204  15.928 -0.0377  0.3096  0.2863
 2444DPPE   C4B51192  11.544  35.442  16.302 -0.3865 -0.0220 -0.1600
 2445DPPE   NH351193  13.479   6.771   4.558  0.2525 -0.0223 -0.1130
 2445DPPE   PO451194  13.761   6.471   4.572 -0.1317 -0.1657  0.0669
 2445DPPE   GL151195  13.473   6.133   4.236 -0.0985  0.0463  0.1408
 2445DPPE   GL251196  13.631   5.852   4.134 -0.1130  0.0396  0.1336
 2445DPPE   C1A51197  13.080   5.963   4.168 -0.2413 -0.2287 -0.0291
 2445DPPE   C2A51198  12.742   5.826   3.913 -0.1161  0.3059 -0.0328
 2445DPPE   C3A51199  12.765   5.464   3.547 -0.0377 -0.0827  0.0011
 2445DPPE   C4A51200  12.559   5.153   3.309 -0.1491 -0.3062  0.2509
 2445DPPE   C1B51201  13.501   5.831   3.819 -0.3663 -0.1951  0.1940
 2445DPPE   C2B51202  13.572   5.918   3.461 -0.0693 -0.1530  0.2239
 2445DPPE   C3B51203  13.281   5.900   3.149  0.0351 -0.1267  0.1787
 2445DPPE   C4B51204  13.043   6.104   2.869  0.2555  0.1878  0.1180
 2446DPPE   NH351205  16.236   6.139   5.971 -0.2052  0.4007 -0.2733
 2446DPPE   PO451206  16.630   6.462   5.827 -0.1251  0.0100 -0.2026
 2446DPPE   GL151207  16.873   6.764   5.797  0.2920 -0.5427 -0.5257
 2446DPPE   GL251208  17.069   6.759   5.996 -0.2183  0.3174 -0.1593
 2446DPPE   C1A51209  17.275   7.097   5.724  0.1395 -0.0110  0.0463
 2446DPPE   C2A51210  17.694   7.310   5.670 -0.0959  0.2132 -0.2053
 2446DPPE   C3A51211  17.858   7.655   5.853  0.0130 -0.2379 -0.4036
 2446DPPE   C4A51212  17.985   7.738   6.183 -0.2831  0.1783  0.1288
 2446DPPE   C1B51213  17.555   6.811   6.047 -0.0785 -0.0663 -0.4723
 2446DPPE   C2B51214  17.867   7.154   6.188 -0.2305 -0.1434  0.0275
 2446DPPE   C3B51215  18.266   7.415   6.364 -0.0635  0.0617  0.2535
 2446DPPE   C4B51216  18.683   7.643   6.304  0.2270  0.3161  0.0393
 2447DPPE   NH351217  10.807   0.699  10.446  0.0407 -0.0561  0.3196
 2447DPPE   PO451218  10.964   0.714  10.032 -0.0322 -0.0009 -0.0678
 2447DPPE   GL151219  10.822   0.385   9.738 -0.4312 -0.0914  0.2069
 2447DPPE   GL251220  10.857   0.604   9.374 -0.2928  0.0685  0.3416
 2447DPPE   C1A51221  10.980   0.135   9.404  0.2018  0.3215  0.4990
 2447DPPE   C2A51222  11.363   0.121   9.108  0.0563 -0.0163 -0.2149
 2447DPPE   C3A51223  11.649  -0.137   9.275 -0.2169 -0.0593  0.2242
 2447DPPE   C4A51224  11.681  -0.519   9.156  0.0469 -0.0219 -0.1558
 2447DPPE   C1B51225  10.597   0.352   9.029 -0.3808 -0.0977  0.2470
 2447DPPE   C2B51226  10.283  -0.024   8.881  0.0120 -0.0911  0.1535
 2447DPPE   C3B51227   9.804   0.075   8.739  0.0767  0.0314 -0.4095
 2447DPPE   C4B51228   9.378  -0.038   8.554 -0.2883  0.0080  0.0261
 2448DPPE   NH351229   5.968   6.600  11.691  0.3174 -0.0881  0.0256
 2448DPPE   PO451230   5.890   6.461  11.281 -0.3484  0.0970  0.0636
 2448DPPE   GL151231   5.574   6.179  11.071 -0.2161  0.1214  0.0704
 2448DPPE   GL251232   5.710   6.226  10.757 -0.2803 -0.0124  0.1537
 2448DPPE   C1A51233   5.210   6.035  11.034 -0.0638  0.1900  0.1880
 2448DPPE   C2A51234   4.921   6.038  10.746 -0.1657 -0.0779 -0.2495
 2448DPPE   C3A51235   4.505   6.035  10.532  0.0705  0.0091 -0.0818
 2448DPPE   C4A51236   4.054   6.213  10.407 -0.0589  0.0548 -0.0374
 2448DPPE   C1B51237   5.416   5.991  10.469  0.3380 -0.0662  0.2565
 2448DPPE   C2B51238   5.102   5.741  10.238 -0.0116  0.2110  0.3405
 2448DPPE   C3B51239   4.864   5.514   9.967  0.0676  0.0847  0.2856
 2448DPPE   C4B51240   4.846   5.399   9.612  0.0956  0.1617  0.1411
 2449DPPE   NH351241  11.334  35.269  14.979  0.0433  0.2615 -0.0786
 2449DPPE   PO451242  11.801  35.417  15.059 -0.0332 -0.0772  0.2974
 2449DPPE   GL151243  11.890  35.288  15.451 -0.2755  0.3806 -0.1827
 2449DPPE   GL251244  12.187  35.475  15.472  0.0986 -0.0362  0.0984
 2449DPPE   C1A51245  11.821  35.431  15.869 -0.1931  0.0196 -0.1245
 2449DPPE   C2A51246  12.101  35.390  16.254 -0.0910 -0.1411  0.0418
 2449DPPE   C3A51247  12.200  35.073  16.546  0.2799  0.2614  0.0096
 2449DPPE   C4A51248  12.572  34.930  16.671  0.1918  0.2041  0.5634
 2449DPPE   C1B51249  12.312  35.631  15.820 -0.0928 -0.1518  0.1571
 2449DPPE   C2B51250  12.648  35.812  15.894 -0.0264 -0.1102  0.0490
 2449DPPE   C3B51251  13.116  36.063  16.014  0.1916  0.0882  0.0095
 2449DPPE   C4B51252  13.186  36.300  16.389 -0.1010  0.0676 -0.0738
 2450DPPE   NH351253   4.716   8.373  13.537 -0.5268  0.6101 -0.0800
 2450DPPE   PO451254   4.559   8.015  13.910  0.1329  0.3394  0.0989
 2450DPPE   GL151255   4.147   8.199  13.956  0.3773  0.2190 -0.1408
 2450DPPE   GL251256   4.260   8.447  13.752  0.2035 -0.2003  0.0079
 2450DPPE   C1A51257   3.713   8.285  14.119 -0.0283 -0.2516 -0.0802
 2450DPPE   C2A51258   3.458   8.253  14.373 -0.2459  0.2102  0.2116
 2450DPPE   C3A51259   3.426   8.272  14.845  0.0641 -0.1708  0.1748
 2450DPPE   C4A51260   3.519   8.193  15.272 -0.0523 -0.1722 -0.1635
 2450DPPE   C1B51261   3.903   8.447  13.556  0.0704  0.1316  0.3735
 2450DPPE   C2B51262   3.858   8.653  13.067  0.0131 -0.0175 -0.2101
 2450DPPE   C3B51263   3.910   9.141  13.095 -0.0459  0.2614 -0.0251
 2450DPPE   C4B51264   3.799   9.403  13.383  0.3978 -0.0967  0.3129
 2451DPPE   NH351265  10.565   0.733  15.158 -0.0489  0.0532 -0.0759
 2451DPPE   PO451266  10.217   0.474  15.362  0.3067  0.1941  0.1732
 2451DPPE   GL151267  10.384   0.441  15.771  0.2271  0.0038 -0.2557
 2451DPPE   GL251268  10.312   0.282  15.920 -0.3022  0.0931  0.3237
 2451DPPE   C1A51269  10.773   0.568  15.993  0.0712  0.0528  0.0586
 2451DPPE   C2A51270  10.964   0.690  16.431  0.0042  0.2039  0.1471
 2451DPPE   C3A51271  11.079   1.014  16.570 -0.0434 -0.0759  0.0221
 2451DPPE   C4A51272  11.462   1.127  16.781  0.3543  0.0115  0.0546
 2451DPPE   C1B51273  10.446   0.359  16.346 -0.2574  0.4012 -0.1152
 2451DPPE   C2B51274  10.517   0.579  16.565  0.0323  0.4154  0.2272
 2451DPPE   C3B51275  10.803   0.654  16.942 -0.0178 -0.1535 -0.0009
 2451DPPE   C4B51276  11.074   0.748  17.308 -0.0531 -0.2763  0.2257
 2452DPPE   NH351277   6.321   9.073  10.012  0.1055  0.2491 -0.0599
 2452DPPE   PO451278   6.169   8.908  10.363 -0.0397  0.1589  0.0813
 2452DPPE   GL151279   5.812   8.863  10.075 -0.0375 -0.0855  0.1755
 2452DPPE   GL251280   5.836   9.068   9.825 -0.2931 -0.1452  0.0424
 2452DPPE   C1A51281   5.447   8.694   9.955  0.1963 -0.3518  0.0561
 2452DPPE   C2A51282   5.109   8.858   9.817 -0.1193  0.0477  0.3221
 2452DPPE   C3A51283   4.746   8.978   9.420 -0.2301  0.0902 -0.2173
 2452DPPE   C4A51284   4.571   8.708   9.127 -0.1325  0.0654 -0.1743
 2452DPPE   C1B51285   5.472   9.174   9.733  0.0561  0.4073 -0.0328
 2452DPPE   C2B51286   5.121   9.382   9.508  0.0051 -0.0149 -0.1935
 2452DPPE   C3B51287   4.883   9.710   9.439  0.4936  0.1811  0.2344
 2452DPPE   C4B51288   4.472   9.829   9.342 -0.2029 -0.2027 -0.1705
 2453DPPE   NH351289   8.029   5.394   8.675  0.1577 -0.0850 -0.3396
 2453DPPE   PO451290   8.035   5.780   8.392 -0.1744  0.2557  0.1924
 2453DPPE   GL151291   7.801   5.660   8.040  0.2531 -0.1965  0.0736
 2453DPPE   GL251292   7.643   5.428   8.136 -0.0411 -0.0923 -0.0203
 2453DPPE   C1A51293   7.556   5.797   7.730  0.3439  0.1850 -0.1254
 2453DPPE   C2A51294   7.182   5.781   7.461 -0.0431 -0.0542 -0.0165
 2453DPPE   C3A51295   6.924   6.017   7.271 -0.2911 -0.3289 -0.3831
 2453DPPE   C4A51296   6.916   6.468   7.094  0.0628  0.3530  0.2775
 2453DPPE   C1B51297   7.308   5.302   7.784  0.0500  0.0938 -0.0814
 2453DPPE   C2B51298   7.000   5.340   7.489  0.0528 -0.1675 -0.2036
 2453DPPE   C3B51299   6.745   5.502   7.238 -0.1875  0.1167 -0.1933
 2453DPPE   C4B51300   6.590   5.381   6.871  0.0084 -0.0442 -0.3208
 2454DPPE   NH351301   4.643   7.564  13.731 -0.3843  0.1785  0.0409
 2454DPPE   PO451302   4.568   7.575  14.219  0.0279  0.2892 -0.0847
 2454DPPE   GL151303   4.155   7.691  14.051 -0.1504 -0.1491  0.0748
 2454DPPE   GL251304   3.954   7.477  13.849 -0.0565  0.1412  0.3786
 2454DPPE   C1A51305   3.651   7.708  14.156 -0.4648 -0.0720 -0.3276
 2454DPPE   C2A51306   3.239   7.770  14.042 -0.0830  0.0404  0.2028
 2454DPPE   C3A51307   3.129   8.119  14.056 -0.0063 -0.0373  0.4528
 2454DPPE   C4A51308   3.073   8.517  14.259 -0.0508  0.1236  0.1073
 2454DPPE   C1B51309   3.554   7.352  13.699 -0.0450  0.0906 -0.0270
 2454DPPE   C2B51310   3.073   7.230  13.817  0.3706  0.2941  0.0917
 2454DPPE   C3B51311   2.706   6.989  13.745 -0.1629  0.0679  0.2237
 2454DPPE   C4B51312   2.529   6.518  13.747  0.0781 -0.0557 -0.1758
 2455DPPE   NH351313  13.936   7.496   5.747 -0.1675 -0.1518 -0.2007
 2455DPPE   PO451314  13.971   7.911   5.562 -0.1469  0.2814 -0.1885
 2455DPPE   GL151315  13.959   8.020   6.026 -0.2694 -0.0482  0.0664
 2455DPPE   GL251316  13.716   8.165   6.105  0.2586 -0.1563 -0.1290
 2455DPPE   C1A51317  14.422   8.246   6.238 -0.1861 -0.1001  0.1958
 2455DPPE   C2A51318  14.863   8.397   6.575 -0.0782  0.0112 -0.0724
 2455DPPE   C3A51319  15.132   8.677   6.807  0.3367  0.0752 -0.0854
 2455DPPE   C4A51320  15.154   8.958   7.091 -0.1992  0.1041  0.0924
 2455DPPE   C1B51321  13.998   8.373   6.396 -0.0180  0.0690 -0.1773
 2455DPPE   C2B51322  14.331   8.559   6.625 -0.1157  0.3438 -0.0959
 2455DPPE   C3B51323  14.639   8.880   6.570  0.0030  0.0821  0.0057
 2455DPPE   C4B51324  14.940   8.789   6.302 -0.0939  0.2419  0.2964
 2456DPPE   NH351325   5.862   4.415  12.610  0.0239  0.0691 -0.3184
 2456DPPE   PO451326   5.879   4.456  13.098 -0.1878  0.0498 -0.1263
 2456DPPE   GL151327   5.501   4.212  12.920  0.1182 -0.0982  0.2408
 2456DPPE   GL251328   5.494   3.910  13.151 -0.1380 -0.1246  0.0571
 2456DPPE   C1A51329   5.126   4.058  12.871 -0.3456 -0.2863 -0.4885
 2456DPPE   C2A51330   4.700   3.886  12.887  0.2210 -0.0178  0.1358
 2456DPPE   C3A51331   4.338   4.033  12.930 -0.1587 -0.1076  0.1111
 2456DPPE   C4A51332   4.036   4.333  12.992 -0.1273  0.2202 -0.2879
 2456DPPE   C1B51333   5.250   3.552  12.944 -0.0226 -0.3913 -0.4078
 2456DPPE   C2B51334   5.269   3.148  12.840  0.1173 -0.0286  0.1547
 2456DPPE   C3B51335   5.084   2.895  12.522  0.1356 -0.0270 -0.4094
 2456DPPE   C4B51336   4.870   2.913  12.152  0.2751 -0.0375  0.0436
 2457DPPE   NH351337  18.432   3.215   6.394  0.0771 -0.1340 -0.1712
 2457DPPE   PO451338  18.143   3.544   6.479  0.1146 -0.0624 -0.2237
 2457DPPE   GL151339  18.470   3.777   6.523 -0.0772 -0.1182 -0.1564
 2457DPPE   GL251340  18.780   3.554   6.487 -0.0008 -0.2771 -0.1111
 2457DPPE   C1A51341  18.752   4.095   6.332 -0.1905 -0.0467  0.2141
 2457DPPE   C2A51342  19.141   4.315   6.135  0.3600  0.4291  0.2694
 2457DPPE   C3A51343  19.448   4.662   6.068  0.0095 -0.4028  0.2009
 2457DPPE   C4A51344  19.582   4.925   5.643 -0.1615  0.1015 -0.4614
 2457DPPE   C1B51345  19.197   3.861   6.447  0.2552 -0.0005 -0.0094
 2457DPPE   C2B51346  19.512   3.998   6.231 -0.1321 -0.1377 -0.1164
 2457DPPE   C3B51347  19.850   4.161   5.955  0.1610  0.0380 -0.2785
 2457DPPE   C4B51348  19.945   4.615   5.883 -0.0342 -0.0711 -0.1394
 2458DPPE   NH351349  18.241   2.613   6.601 -0.0393 -0.0799 -0.0613
 2458DPPE   PO451350  18.508   2.914   6.765 -0.0429  0.0943  0.0261
 2458DPPE   GL151351  18.929   2.662   6.902  0.4616 -0.0307 -0.1665
 2458DPPE   GL251352  19.084   2.597   7.194  0.1019  0.1344  0.0174
 2458DPPE   C1A51353  19.349   2.893   6.845  0.0048 -0.2165 -0.3575
 2458DPPE   C2A51354  19.627   2.928   7.128  0.2266  0.3146 -0.0181
 2458DPPE   C3A51355  20.032   2.567   7.230 -0.2614 -0.0482 -0.1593
 2458DPPE   C4A51356  20.427   2.669   6.921  0.0160  0.1719 -0.1224
 2458DPPE   C1B51357  19.181   2.939   7.385  0.1715 -0.0581  0.1146
 2458DPPE   C2B51358  19.471   3.303   7.436  0.0158  0.2073 -0.0794
 2458DPPE   C3B51359  19.632   3.435   7.805 -0.1447 -0.1760 -0.0112
 2458DPPE   C4B51360  20.009   3.254   8.043 -0.1096  0.0385  0.0572
 2459DPPE   NH351361   8.867   1.740  15.388 -0.1284  0.1264  0.2292
 2459DPPE   PO451362   8.983   1.682  15.816 -0.1115 -0.1781 -0.0414
 2459DPPE   GL151363   9.259   1.903  16.094  0.0203  0.0942 -0.0734
 2459DPPE   GL251364   9.230   1.806  16.371 -0.0950 -0.1570 -0.2230
 2459DPPE   C1A51365   9.661   2.070  16.178 -0.1065 -0.0733 -0.0376
 2459DPPE   C2A51366  10.048   2.151  15.932  0.1928  0.3340  0.1761
 2459DPPE   C3A51367  10.292   2.427  15.988  0.4588  0.1920 -0.1879
 2459DPPE   C4A51368  10.607   2.503  16.280  0.1427  0.3911  0.0213
 2459DPPE   C1B51369   9.054   1.742  16.728 -0.0030 -0.1683 -0.0944
 2459DPPE   C2B51370   9.254   1.644  17.047  0.3380 -0.0567  0.0239
 2459DPPE   C3B51371   9.433   1.499  17.421  0.0612 -0.0927  0.0652
 2459DPPE   C4B51372   9.410   1.657  17.908 -0.0376 -0.2103  0.2563
 2460DPPE   NH351373   5.279   9.634  11.567 -0.0317 -0.2052 -0.0176
 2460DPPE   PO451374   5.206  10.028  11.446 -0.0097 -0.1074 -0.0193
 2460DPPE   GL151375   4.780   9.903  11.512 -0.0160 -0.0929  0.3152
 2460DPPE   GL251376   4.638  10.169  11.371  0.2068  0.1391 -0.0589
 2460DPPE   C1A51377   4.340   9.847  11.782  0.0927 -0.1219 -0.0902
 2460DPPE   C2A51378   3.984   9.815  12.029 -0.1418 -0.1805  0.0288
 2460DPPE   C3A51379   3.561   9.760  12.104 -0.0531 -0.0551 -0.3004
 2460DPPE   C4A51380   3.554   9.509  12.427 -0.0750  0.1117  0.2089
 2460DPPE   C1B51381   4.111  10.054  11.196 -0.2246  0.0260  0.2542
 2460DPPE   C2B51382   3.690  10.154  11.205 -0.0869  0.0186 -0.0478
 2460DPPE   C3B51383   3.342  10.536  11.394 -0.0445 -0.3057 -0.0243
 2460DPPE   C4B51384   3.256  10.954  11.125 -0.1974  0.2254 -0.0275
 2461DPPE   NH351385  16.035   0.306  10.101 -0.0222 -0.1671 -0.0676
 2461DPPE   PO451386  15.935   0.651   9.870 -0.0001  0.2229 -0.2480
 2461DPPE   GL151387  16.255   0.725  10.212 -0.6553 -0.4018 -0.3640
 2461DPPE   GL251388  16.673   0.650  10.179  0.0708  0.2505  0.0678
 2461DPPE   C1A51389  16.423   0.750  10.618 -0.0976 -0.3151  0.2436
 2461DPPE   C2A51390  16.828   0.680  10.681 -0.0775  0.0163 -0.0245
 2461DPPE   C3A51391  16.881   0.394  10.950  0.0524 -0.1235 -0.3039
 2461DPPE   C4A51392  16.885   0.044  11.351 -0.2321  0.0508 -0.0210
 2461DPPE   C1B51393  17.103   0.782  10.074  0.0056 -0.3238  0.0955
 2461DPPE   C2B51394  17.462   1.097   9.936  0.1489  0.2514 -0.0219
 2461DPPE   C3B51395  17.883   1.216  10.063  0.1636 -0.1591 -0.2282
 2461DPPE   C4B51396  18.144   1.439  10.327  0.3848  0.0513  0.3187
 2462DPPE   NH351397  11.680   0.383  12.786 -0.2284  0.2506  0.2785
 2462DPPE   PO451398  11.302   0.530  12.730 -0.2475  0.2151  0.1871
 2462DPPE   GL151399  11.564   0.855  12.530  0.1843 -0.0899 -0.2462
 2462DPPE   GL251400  11.615   0.860  12.223  0.0083  0.0891  0.3035
 2462DPPE   C1A51401  11.779   1.320  12.645 -0.1318  0.0592 -0.1105
 2462DPPE   C2A51402  11.923   1.663  12.918 -0.1924  0.1948 -0.1699
 2462DPPE   C3A51403  11.765   2.045  13.066 -0.1276  0.0028 -0.2695
 2462DPPE   C4A51404  11.661   2.424  12.989  0.0977  0.2897  0.1409
 2462DPPE   C1B51405  12.047   1.041  12.265 -0.0884 -0.1202 -0.0784
 2462DPPE   C2B51406  12.223   1.111  12.694 -0.0360 -0.0345 -0.4280
 2462DPPE   C3B51407  12.296   1.311  12.863 -0.1935  0.2097  0.0271
 2462DPPE   C4B51408  12.283   1.353  13.255  0.0498  0.2626 -0.1280
 2463DPPE   NH351409  11.408   3.844   8.571 -0.2623 -0.2100 -0.0028
 2463DPPE   PO451410  11.190   3.979   8.907 -0.3133  0.3287 -0.2808
 2463DPPE   GL151411  11.217   4.321   9.048  0.3309 -0.0377 -0.0653
 2463DPPE   GL251412  11.361   4.354   9.320 -0.0321 -0.1345 -0.2588
 2463DPPE   C1A51413  11.260   4.844   9.117 -0.0661  0.2860  0.0052
 2463DPPE   C2A51414  11.371   5.227   9.117 -0.0352  0.1158 -0.1847
 2463DPPE   C3A51415  11.185   5.679   9.091  0.0692 -0.0125  0.4290
 2463DPPE   C4A51416  11.095   5.987   9.197  0.3847 -0.2374 -0.1191
 2463DPPE   C1B51417  11.216   4.730   9.581  0.2544 -0.1994  0.4850
 2463DPPE   C2B51418  11.340   5.174   9.633  0.2181  0.2330 -0.3280
 2463DPPE   C3B51419  11.408   5.668   9.606 -0.2762  0.3146  0.1620
 2463DPPE   C4B51420  11.521   6.110   9.560  0.0988  0.0506 -0.1436
 2464DPPE   NH351421  11.791   5.989   7.043  0.2351  0.0418 -0.1026
 2464DPPE   PO451422  12.075   5.976   6.817 -0.2683 -0.1836  0.2062
 2464DPPE   GL151423  12.170   6.320   7.045 -0.2187  0.1024 -0.1660
 2464DPPE   GL251424  12.356   6.503   6.969  0.0928  0.0300 -0.2291
 2464DPPE   C1A51425  12.017   6.605   7.378  0.0613  0.0535 -0.1879
 2464DPPE   C2A51426  12.207   6.864   7.766 -0.1118  0.1473  0.0323
 2464DPPE   C3A51427  12.347   7.208   8.082  0.3978 -0.4288  0.1134
 2464DPPE   C4A51428  12.334   7.379   8.451 -0.3326 -0.1520 -0.0043
 2464DPPE   C1B51429  12.567   6.594   7.296  0.0987 -0.2755 -0.0451
 2464DPPE   C2B51430  12.832   6.679   7.650 -0.4436 -0.3260 -0.0872
 2464DPPE   C3B51431  13.234   6.700   7.966  0.0323 -0.2133  0.1953
 2464DPPE   C4B51432  13.309   6.622   8.325 -0.0938  0.0320  0.0828
 2465DPPE   NH351433  17.192   3.455   7.276 -0.3066 -0.3186 -0.2344
 2465DPPE   PO451434  17.555   3.278   7.028  0.0843  0.2084 -0.1775
 2465DPPE   GL151435  17.603   3.723   7.245 -0.1199 -0.2876  0.0991
 2465DPPE   GL251436  17.812   3.747   7.481  0.1345  0.0955 -0.2828
 2465DPPE   C1A51437  17.440   4.035   7.458  0.0452  0.0521  0.0754
 2465DPPE   C2A51438  17.478   4.173   7.858 -0.1311 -0.0046  0.1203
 2465DPPE   C3A51439  17.699   4.330   8.135  0.2890 -0.0128 -0.4957
 2465DPPE   C4A51440  18.069   4.403   8.225  0.0091 -0.2282  0.1850
 2465DPPE   C1B51441  18.131   4.032   7.744  0.1515 -0.2307  0.0452
 2465DPPE   C2B51442  18.311   3.987   8.141 -0.0270  0.3575  0.3537
 2465DPPE   C3B51443  18.618   3.950   8.325  0.0141  0.1447 -0.0649
 2465DPPE   C4B51444  19.061   3.917   8.380 -0.0801 -0.3224  0.3182
 2466DPPE   NH351445   5.655   9.938  10.295  0.0752 -0.0214 -0.1181
 2466DPPE   PO451446   5.589  10.055  10.703 -0.1897 -0.1562 -0.1601
 2466DPPE   GL151447   5.190  10.286  10.505  0.1943  0.0643  0.1673
 2466DPPE   GL251448   5.120  10.484  10.206 -0.0803 -0.3857  0.0687
 2466DPPE   C1A51449   4.772  10.150  10.370  0.0066 -0.0256  0.3391
 2466DPPE   C2A51450   4.321   9.971  10.484 -0.1255 -0.0712  0.0767
 2466DPPE   C3A51451   3.883  10.025  10.656  0.0792  0.3016 -0.0182
 2466DPPE   C4A51452   3.530  10.115  10.399 -0.0266  0.1056 -0.0741
 2466DPPE   C1B51453   4.697  10.550  10.094 -0.1674  0.0837 -0.0413
 2466DPPE   C2B51454   4.426  10.857  10.053  0.0356 -0.1700 -0.0344
 2466DPPE   C3B51455   4.380  11.191  10.301 -0.3663  0.0851  0.1798
 2466DPPE   C4B51456   4.266  11.557  10.461  0.0077  0.0461  0.0925
 2467DPPE   NH351457   9.143  11.534   6.257 -0.3574  0.2180  0.3354
 2467DPPE   PO451458   9.306  11.891   6.340 -0.0001  0.2412  0.1550
 2467DPPE   GL151459   9.278  12.061   5.959 -0.3724  0.0206  0.2258
 2467DPPE   GL251460   9.132  11.834   5.695  0.2840 -0.0749  0.1602
 2467DPPE   C1A51461   9.359  12.308   5.668  0.0902 -0.3411 -0.0177
 2467DPPE   C2A51462   9.529  12.409   5.163  0.1097  0.2728 -0.1389
 2467DPPE   C3A51463   9.789  12.187   4.829  0.0809  0.0434 -0.1497
 2467DPPE   C4A51464  10.100  11.972   4.580  0.1505  0.1259 -0.0036
 2467DPPE   C1B51465   8.764  11.915   5.765  0.0140 -0.2772  0.2354
 2467DPPE   C2B51466   8.409  12.117   5.868  0.0886  0.0522 -0.1072
 2467DPPE   C3B51467   7.995  12.018   5.887 -0.1099 -0.0841  0.1484
 2467DPPE   C4B51468   7.536  11.835   5.969 -0.0192 -0.2243 -0.1367
 2468DPPE   NH351469  13.535   5.331   4.975  0.0068 -0.2435  0.0259
 2468DPPE   PO451470  13.807   5.121   5.262  0.2765 -0.0177  0.0307
 2468DPPE   GL151471  13.725   4.812   4.938 -0.1141 -0.0640 -0.1644
 2468DPPE   GL251472  13.804   4.658   4.763 -0.2565 -0.1043  0.1499
 2468DPPE   C1A51473  13.279   4.647   4.819  0.1587  0.0064  0.1348
 2468DPPE   C2A51474  13.079   4.444   4.515 -0.1832  0.2538 -0.1973
 2468DPPE   C3A51475  13.040   4.306   4.100 -0.0627  0.2645  0.2047
 2468DPPE   C4A51476  13.050   4.516   3.754  0.0933 -0.0737 -0.1734
 2468DPPE   C1B51477  13.596   4.606   4.403 -0.4361  0.2513 -0.3659
 2468DPPE   C2B51478  13.449   4.575   4.076  0.0584  0.1953  0.2064
 2468DPPE   C3B51479  13.397   4.197   3.806 -0.3357 -0.3085  0.1165
 2468DPPE   C4B51480  12.979   4.000   3.684 -0.0833  0.0138 -0.3866
 2469DPPE   NH351481   7.428   2.963  12.038 -0.1955  0.0946  0.1912
 2469DPPE   PO451482   7.194   3.223  11.919 -0.0349 -0.2279  0.1424
 2469DPPE   GL151483   6.745   2.956  12.014 -0.1418  0.1256  0.0741
 2469DPPE   GL251484   6.578   2.778  12.325 -0.0754 -0.0326 -0.1460
 2469DPPE   C1A51485   6.321   2.745  11.904  0.2149 -0.1533 -0.3526
 2469DPPE   C2A51486   5.995   2.503  11.710 -0.0697  0.1296  0.2719
 2469DPPE   C3A51487   5.712   2.312  11.484 -0.0217  0.0815 -0.1862
 2469DPPE   C4A51488   5.335   2.371  11.493 -0.2045  0.0090 -0.0423
 2469DPPE   C1B51489   6.349   2.431  12.274 -0.1445  0.4371  0.0617
 2469DPPE   C2B51490   6.025   2.136  12.120  0.1100 -0.0259  0.4036
 2469DPPE   C3B51491   5.784   1.968  11.873  0.0034  0.3568 -0.1438
 2469DPPE   C4B51492   5.763   1.506  11.713 -0.0554  0.1790 -0.0376
 2470DPPE   NH351493  11.031   7.853   5.364  0.0139  0.0415  0.0423
 2470DPPE   PO451494  11.043   7.466   5.649 -0.2011  0.0953  0.0608
 2470DPPE   GL151495  10.696   7.406   5.405  0.0921 -0.2912 -0.0762
 2470DPPE   GL251496  10.869   7.481   5.102  0.0427 -0.3116 -0.3853
 2470DPPE   C1A51497  10.358   7.168   5.131  0.1787 -0.1434 -0.2435
 2470DPPE   C2A51498  10.037   6.991   4.982  0.0190 -0.1953 -0.1035
 2470DPPE   C3A51499   9.811   6.725   5.124 -0.1123 -0.1798 -0.2358
 2470DPPE   C4A51500   9.523   6.523   4.844 -0.1779  0.0895 -0.6051
 2470DPPE   C1B51501  10.630   7.375   4.687 -0.3236  0.1547 -0.0692
 2470DPPE   C2B51502  10.867   7.459   4.259 -0.1765  0.0275  0.1077
 2470DPPE   C3B51503  10.828   7.604   3.905 -0.3576 -0.2203  0.1364
 2470DPPE   C4B51504  10.837   7.635   3.440  0.1431  0.3115 -0.0116
 2471DPPE   NH351505  14.655   8.633   5.489  0.0420 -0.1719 -0.0773
 2471DPPE   PO451506  14.957   8.747   5.246  0.0930  0.1146 -0.3028
 2471DPPE   GL151507  15.084   9.104   5.188 -0.0335  0.0823  0.0860
 2471DPPE   GL251508  15.063   9.255   4.851 -0.1482  0.6039 -0.1022
 2471DPPE   C1A51509  15.082   9.514   5.355  0.1092 -0.0242  0.2519
 2471DPPE   C2A51510  15.151   9.698   5.714 -0.0853  0.0212 -0.2679
 2471DPPE   C3A51511  15.425   9.724   6.090  0.2057 -0.1019 -0.0425
 2471DPPE   C4A51512  15.415  10.144   6.419  0.0219  0.0643  0.0929
 2471DPPE   C1B51513  15.235   9.678   4.930  0.1931  0.2209  0.0271
 2471DPPE   C2B51514  15.579   9.788   4.464 -0.1917  0.0615 -0.4173
 2471DPPE   C3B51515  15.877  10.155   4.305 -0.2257  0.4608 -0.0133
 2471DPPE   C4B51516  15.854  10.336   3.950  0.0619  0.1722  0.0748
 2472DPPE   NH351517  15.444   2.227   6.759 -0.2416 -0.0901 -0.0141
 2472DPPE   PO451518  15.166   2.271   6.393  0.3333  0.1173  0.4326
 2472DPPE   GL151519  15.149   1.988   6.222 -0.1215 -0.0354 -0.0904
 2472DPPE   GL251520  15.298   1.717   6.484  0.1896 -0.0691 -0.0124
 2472DPPE   C1A51521  15.193   1.747   5.902  0.1156  0.0256 -0.2917
 2472DPPE   C2A51522  15.389   1.535   5.605  0.2504 -0.1079 -0.0393
 2472DPPE   C3A51523  15.757   1.280   5.564 -0.0657  0.4012 -0.2223
 2472DPPE   C4A51524  15.917   1.039   5.213  0.1208 -0.3439 -0.0035
 2472DPPE   C1B51525  15.277   1.251   6.439 -0.1919  0.0447 -0.1942
 2472DPPE   C2B51526  14.984   0.957   6.215 -0.0907 -0.1659  0.0128
 2472DPPE   C3B51527  15.038   0.549   5.918 -0.1262 -0.1496  0.4469
 2472DPPE   C4B51528  15.376   0.517   5.599 -0.1460 -0.0143  0.0128
 2473DPPE   NH351529   8.699   2.982  11.570 -0.2679  0.0235 -0.0413
 2473DPPE   PO451530   8.912   2.829  11.963  0.2145  0.3612 -0.2752
 2473DPPE   GL151531   9.251   3.116  11.993 -0.1426  0.2373 -0.1025
 2473DPPE   GL251532   9.567   3.007  11.917 -0.1641 -0.0850  0.1067
 2473DPPE   C1A51533   9.350   3.359  12.281  0.1276  0.1924  0.1243
 2473DPPE   C2A51534   9.781   3.346  12.614  0.3520  0.0876  0.1111
 2473DPPE   C3A51535  10.212   3.364  12.761  0.1631 -0.3198  0.0806
 2473DPPE   C4A51536  10.367   3.478  13.082  0.1536 -0.0697  0.1083
 2473DPPE   C1B51537   9.894   3.298  12.155 -0.1023  0.0289 -0.3951
 2473DPPE   C2B51538  10.257   3.537  12.323 -0.0658 -0.1743 -0.3215
 2473DPPE   C3B51539  10.567   3.673  12.598 -0.0996  0.5177  0.3733
 2473DPPE   C4B51540  10.895   3.570  12.968 -0.2444 -0.2727  0.0502
 2474DPPE   NH351541  13.406   0.788  10.487  0.0561 -0.2768 -0.4029
 2474DPPE   PO451542  13.823   0.514  10.475  0.0273  0.1342  0.1809
 2474DPPE   GL151543  14.007   0.850  10.530 -0.1252 -0.1271  0.1774
 2474DPPE   GL251544  13.809   1.103  10.601 -0.2394 -0.1120 -0.1972
 2474DPPE   C1A51545  14.190   1.211  10.913 -0.1490  0.2419  0.1620
 2474DPPE   C2A51546  14.137   1.367  11.324  0.1979 -0.3294  0.0815
 2474DPPE   C3A51547  14.066   1.655  11.732  0.0054  0.1076  0.0029
 2474DPPE   C4A51548  14.139   2.185  11.644 -0.0065  0.1285 -0.2742
 2474DPPE   C1B51549  13.846   1.515  10.745  0.1233  0.1692 -0.0872
 2474DPPE   C2B51550  14.288   1.711  10.730 -0.1576  0.1874 -0.0009
 2474DPPE   C3B51551  14.635   2.047  10.712  0.2713  0.2673  0.2325
 2474DPPE   C4B51552  14.768   2.190  10.384  0.0847 -0.2829 -0.0264
 2475DPPE   NH351553   8.273   6.541   9.264  0.0242 -0.0090 -0.0208
 2475DPPE   PO451554   8.350   6.511   9.707 -0.1022 -0.0661  0.0622
 2475DPPE   GL151555   8.670   6.656  10.033 -0.0070  0.0941  0.2616
 2475DPPE   GL251556   8.859   6.774   9.682 -0.0494  0.2396  0.1811
 2475DPPE   C1A51557   8.980   6.878  10.161  0.2999 -0.3701  0.0210
 2475DPPE   C2A51558   9.214   7.239  10.426 -0.2329 -0.1306 -0.2422
 2475DPPE   C3A51559   9.243   7.413  10.884 -0.1324 -0.1464  0.4295
 2475DPPE   C4A51560   9.417   7.636  11.236  0.1999  0.1223  0.0680
 2475DPPE   C1B51561   9.225   7.171   9.762  0.3080  0.0871 -0.2067
 2475DPPE   C2B51562   9.427   7.494  10.049  0.2269  0.0347 -0.0140
 2475DPPE   C3B51563   9.603   7.866  10.001 -0.0956  0.0542  0.2662
 2475DPPE   C4B51564  10.108   7.909  10.017 -0.0985 -0.3197 -0.0088
 2476DPPE   NH351565   9.940  11.995   7.275  0.0141  0.1470  0.0964
 2476DPPE   PO451566   9.553  11.949   7.215  0.1206 -0.0178  0.0616
 2476DPPE   GL151567   9.502  12.212   7.551 -0.1031 -0.4147 -0.4142
 2476DPPE   GL251568   9.433  12.617   7.333  0.0872 -0.0874 -0.2946
 2476DPPE   C1A51569   9.622  12.601   7.767 -0.0687  0.2355  0.0360
 2476DPPE   C2A51570   9.722  12.881   7.931 -0.0503  0.1018  0.0419
 2476DPPE   C3A51571   9.543  13.243   8.085 -0.1966  0.2674 -0.1497
 2476DPPE   C4A51572   9.053  13.339   8.053 -0.3275 -0.0314  0.1055
 2476DPPE   C1B51573   9.584  13.043   7.434 -0.0964  0.3678 -0.0716
 2476DPPE   C2B51574   9.803  13.313   7.182  0.2627  0.2224  0.0290
 2476DPPE   C3B51575  10.129  13.642   7.191  0.1307 -0.0320 -0.0132
 2476DPPE   C4B51576  10.518  13.938   7.102 -0.2409 -0.0550  0.1306
 2477DPPE   NH351577   5.227   6.743  15.690 -0.1335 -0.1718 -0.0091
 2477DPPE   PO451578   5.365   6.538  15.988 -0.0117 -0.1795 -0.0729
 2477DPPE   GL151579   5.364   6.336  16.334 -0.0084 -0.2398  0.1615
 2477DPPE   GL251580   5.311   6.088  16.390 -0.0833  0.0538 -0.1666
 2477DPPE   C1A51581   5.459   6.624  16.854 -0.2577 -0.1449 -0.1202
 2477DPPE   C2A51582   5.198   6.826  17.085 -0.1453 -0.1842 -0.3446
 2477DPPE   C3A51583   5.371   6.931  17.481 -0.0364  0.0835 -0.2532
 2477DPPE   C4A51584   5.308   7.317  17.700  0.1218  0.1340 -0.2462
 2477DPPE   C1B51585   5.476   6.117  16.881 -0.3299  0.1762  0.2799
 2477DPPE   C2B51586   5.336   6.355  17.202 -0.3189 -0.0257  0.1047
 2477DPPE   C3B51587   5.211   6.507  17.642 -0.3287 -0.3477 -0.1686
 2477DPPE   C4B51588   5.125   6.760  17.920 -0.0566  0.1549 -0.1158
 2478DPPE   NH351589  13.371  35.845  10.805  0.3767  0.2237  0.2664
 2478DPPE   PO451590  13.666  35.549  10.718 -0.0699  0.1819  0.0258
 2478DPPE   GL151591  13.375  35.376  10.338  0.1990  0.0197  0.2084
 2478DPPE   GL251592  13.531  35.222  10.091 -0.1271 -0.0494  0.1208
 2478DPPE   C1A51593  13.079  35.033  10.104  0.1987  0.2658  0.2971
 2478DPPE   C2A51594  12.979  34.762   9.771 -0.1465 -0.1300 -0.2351
 2478DPPE   C3A51595  12.797  34.581   9.370 -0.1647 -0.0724 -0.2377
 2478DPPE   C4A51596  12.996  34.288   9.173  0.3008 -0.0950 -0.1299
 2478DPPE   C1B51597  13.506  34.997   9.713  0.2347  0.2630 -0.1925
 2478DPPE   C2B51598  13.572  34.800   9.323 -0.1026  0.1318 -0.0758
 2478DPPE   C3B51599  13.491  34.445   9.179 -0.1672  0.1396 -0.1865
 2478DPPE   C4B51600  13.429  33.931   9.157 -0.0794 -0.1882 -0.0717
 2479DPPE   NH351601  11.521   3.077   9.024 -0.3054 -0.1112 -0.2200
 2479DPPE   PO451602  11.615   2.742   9.388 -0.4338  0.2574 -0.2640
 2479DPPE   GL151603  12.068   2.564   9.505  0.0778 -0.0228  0.0622
 2479DPPE   GL251604  12.364   2.222   9.500 -0.0085  0.2060 -0.1068
 2479DPPE   C1A51605  12.516   2.689   9.713 -0.1802  0.0394  0.0815
 2479DPPE   C2A51606  12.916   2.745   9.783 -0.1622  0.1773 -0.3611
 2479DPPE   C3A51607  13.349   2.973   9.561  0.2163 -0.0790 -0.0376
 2479DPPE   C4A51608  13.507   3.034   9.172  0.1498  0.4017 -0.0988
 2479DPPE   C1B51609  12.493   2.280   9.936  0.1014 -0.4900 -0.0268
 2479DPPE   C2B51610  12.623   2.611  10.202  0.1515 -0.4081  0.0954
 2479DPPE   C3B51611  12.516   2.789  10.471 -0.3425 -0.2455  0.1627
 2479DPPE   C4B51612  12.229   2.740  10.655 -0.0711  0.0519  0.1975
 2480DPPE   NH351613  16.210   1.734   8.661  0.2159  0.4670  0.3488
 2480DPPE   PO451614  16.282   1.312   8.849  0.1396  0.0031 -0.2770
 2480DPPE   GL151615  16.501   1.652   9.068 -0.1894  0.0910  0.1424
 2480DPPE   GL251616  16.301   1.561   9.368 -0.0277  0.3106  0.1757
 2480DPPE   C1A51617  16.766   2.077   9.243 -0.1607 -0.1964  0.0488
 2480DPPE   C2A51618  16.803   2.080   9.697  0.0529  0.1736 -0.0233
 2480DPPE   C3A51619  16.935   2.092  10.113 -0.0940 -0.0354  0.0659
 2480DPPE   C4A51620  17.098   2.137  10.575  0.0024  0.4492 -0.2589
 2480DPPE   C1B51621  16.348   1.952   9.514  0.0068 -0.0464 -0.0869
 2480DPPE   C2B51622  16.333   2.063   9.970 -0.2716  0.1616  0.0990
 2480DPPE   C3B51623  16.075   2.319  10.188 -0.1557  0.0984 -0.2991
 2480DPPE   C4B51624  15.725   2.484  10.428 -0.0845 -0.2696 -0.0877
 2481DPPE   NH351625   5.255   5.186  15.457 -0.0943  0.1092  0.0291
 2481DPPE   PO451626   5.109   5.042  15.139 -0.0711 -0.3259 -0.0983
 2481DPPE   GL151627   4.663   5.108  15.259  0.5033  0.3583 -0.0553
 2481DPPE   GL251628   4.446   5.320  15.119  0.1894  0.0131 -0.0239
 2481DPPE   C1A51629   4.271   5.003  15.460  0.0954 -0.1836  0.0447
 2481DPPE   C2A51630   3.873   5.305  15.484 -0.2980 -0.4456 -0.0695
 2481DPPE   C3A51631   3.601   5.402  15.169 -0.0173  0.2751  0.2590
 2481DPPE   C4A51632   3.329   5.238  14.845 -0.0842 -0.0826  0.0389
 2481DPPE   C1B51633   4.261   5.144  14.783  0.0873 -0.0122  0.1434
 2481DPPE   C2B51634   3.844   5.003  14.883 -0.1158  0.2273 -0.0884
 2481DPPE   C3B51635   3.559   4.729  14.763 -0.0067 -0.3590 -0.2436
 2481DPPE   C4B51636   3.378   4.393  14.542 -0.0389 -0.0112 -0.1762
 2482DPPE   NH351637   7.921   6.867   9.388 -0.1329 -0.0652 -0.0326
 2482DPPE   PO451638   7.600   6.760   9.110 -0.0225  0.0917  0.0762
 2482DPPE   GL151639   7.276   6.582   8.830 -0.1935  0.2243  0.0554
 2482DPPE   GL251640   7.267   6.782   8.514  0.1262  0.2654  0.2595
 2482DPPE   C1A51641   6.938   6.348   8.443 -0.2460 -0.0054 -0.0843
 2482DPPE   C2A51642   6.744   6.245   8.105 -0.0091  0.1839 -0.0593
 2482DPPE   C3A51643   6.399   6.231   7.863 -0.2023  0.1541  0.0160
 2482DPPE   C4A51644   5.990   6.101   7.777  0.1605  0.2472 -0.1215
 2482DPPE   C1B51645   6.890   6.929   8.411 -0.0159 -0.0174 -0.1668
 2482DPPE   C2B51646   6.618   7.160   8.265  0.0762 -0.2783 -0.1895
 2482DPPE   C3B51647   6.216   7.091   8.090  0.1526 -0.1188  0.3113
 2482DPPE   C4B51648   5.786   7.139   7.882 -0.0762  0.0246  0.1701
 2483DPPE   NH351649  11.788   0.941  10.893  0.1664  0.0816  0.2391
 2483DPPE   PO451650  12.034   1.237  10.552 -0.3987 -0.0973 -0.2367
 2483DPPE   GL151651  12.225   1.498  10.805  0.0563  0.0028  0.1865
 2483DPPE   GL251652  12.412   1.843  10.715 -0.1646 -0.3401  0.2378
 2483DPPE   C1A51653  12.151   1.589  11.206  0.1862  0.0321 -0.2988
 2483DPPE   C2A51654  11.787   1.812  11.577  0.2526 -0.0173 -0.2281
 2483DPPE   C3A51655  11.817   2.019  11.901 -0.1092  0.2656  0.1433
 2483DPPE   C4A51656  12.054   2.103  12.139 -0.1089 -0.2593 -0.3630
 2483DPPE   C1B51657  12.282   2.027  11.143  0.0315 -0.0217  0.1044
 2483DPPE   C2B51658  12.196   2.389  11.462 -0.0360  0.0219 -0.1270
 2483DPPE   C3B51659  12.463   2.807  11.575  0.5157 -0.1977 -0.1981
 2483DPPE   C4B51660  12.780   3.132  11.537  0.1964  0.4874 -0.1730
 2484DPPE   NH351661  12.013   4.818   7.798 -0.0778  0.0950  0.1655
 2484DPPE   PO451662  11.988   5.086   7.449 -0.0552 -0.1914 -0.1365
 2484DPPE   GL151663  11.938   5.325   7.844  0.0650 -0.1900 -0.3352
 2484DPPE   GL251664  12.069   5.214   8.190  0.0560 -0.1007  0.3179
 2484DPPE   C1A51665  11.812   5.577   8.280  0.1119  0.3416 -0.4635
 2484DPPE   C2A51666  11.935   5.934   8.521 -0.0274  0.0357 -0.2204
 2484DPPE   C3A51667  12.097   6.074   8.828 -0.0265 -0.0397  0.3465
 2484DPPE   C4A51668  12.169   6.191   9.257 -0.1297 -0.0949  0.1451
 2484DPPE   C1B51669  12.146   5.209   8.506  0.3944  0.1578 -0.0986
 2484DPPE   C2B51670  12.202   5.604   8.910  0.1160  0.1022 -0.1817
 2484DPPE   C3B51671  12.276   5.656   9.313  0.3508 -0.2895  0.0645
 2484DPPE   C4B51672  12.377   5.425   9.743 -0.0562  0.0102 -0.2180
 2485DPPE   NH351673  15.054   3.318   7.370 -0.1627 -0.0745  0.1215
 2485DPPE   PO451674  15.399   3.576   7.232 -0.4806 -0.1410 -0.1173
 2485DPPE   GL151675  15.604   3.311   7.472 -0.1309  0.1393 -0.0480
 2485DPPE   GL251676  15.861   3.432   7.521 -0.1840  0.2989  0.2910
 2485DPPE   C1A51677  15.649   3.327   7.929 -0.0840 -0.0774 -0.0647
 2485DPPE   C2A51678  15.605   3.679   8.209  0.0202  0.2806 -0.0362
 2485DPPE   C3A51679  15.814   4.023   8.193 -0.2360  0.0443 -0.1346
 2485DPPE   C4A51680  15.986   4.293   8.467 -0.1076  0.0074 -0.2054
 2485DPPE   C1B51681  16.128   3.706   7.643  0.1823 -0.0720  0.4445
 2485DPPE   C2B51682  16.232   3.960   7.890 -0.0392 -0.1698 -0.0274
 2485DPPE   C3B51683  16.467   4.200   8.206  0.1190  0.0204 -0.0513
 2485DPPE   C4B51684  16.705   4.078   8.507  0.2781  0.0289  0.0973
 2486DPPE   NH351685   8.602   9.884   6.930 -0.3081 -0.0634 -0.1707
 2486DPPE   PO451686   8.955   9.913   6.648 -0.1257 -0.2529  0.0475
 2486DPPE   GL151687   8.902  10.051   6.147 -0.1675  0.2965 -0.1905
 2486DPPE   GL251688   9.072   9.857   6.118 -0.0463 -0.1737  0.1317
 2486DPPE   C1A51689   8.604  10.211   5.935 -0.0883  0.5415 -0.0549
 2486DPPE   C2A51690   8.256  10.176   5.697  0.1865 -0.0346  0.0173
 2486DPPE   C3A51691   7.873  10.226   5.461 -0.0945 -0.2267  0.0448
 2486DPPE   C4A51692   7.630  10.605   5.515 -0.1291  0.0627  0.2082
 2486DPPE   C1B51693   8.775   9.745   5.820  0.0820  0.2149 -0.1889
 2486DPPE   C2B51694   8.568   9.766   5.435  0.0670 -0.1046  0.3061
 2486DPPE   C3B51695   8.291   9.823   5.115 -0.3371 -0.3261 -0.1164
 2486DPPE   C4B51696   8.253   9.763   4.675  0.0624 -0.2563  0.0450
 2487DPPE   NH351697   9.606   8.764   6.365  0.0467  0.5031  0.1587
 2487DPPE   PO451698   9.297   8.951   6.678 -0.1599 -0.0242 -0.0424
 2487DPPE   GL151699   8.947   9.037   6.353 -0.0165 -0.2378  0.0485
 2487DPPE   GL251700   9.054   9.279   6.203  0.1123  0.1116 -0.1410
 2487DPPE   C1A51701   8.653   8.845   6.072  0.1651  0.0899  0.0596
 2487DPPE   C2A51702   8.364   8.794   5.772 -0.1315 -0.0566  0.0061
 2487DPPE   C3A51703   8.329   8.586   5.386 -0.1048 -0.1453  0.1721
 2487DPPE   C4A51704   7.801   8.473   5.230 -0.0258 -0.2052 -0.2189
 2487DPPE   C1B51705   8.687   9.265   5.781 -0.0507  0.5180  0.5209
 2487DPPE   C2B51706   8.413   9.256   5.418  0.0584 -0.1062 -0.0652
 2487DPPE   C3B51707   8.250   9.240   4.986  0.2908 -0.0455  0.1931
 2487DPPE   C4B51708   7.791   9.188   4.737  0.0651  0.5487  0.0215
 2488DPPE   NH351709  15.899  36.301   9.949  0.1794  0.0892  0.0819
 2488DPPE   PO451710  16.215  36.397   9.764 -0.0936 -0.0151 -0.5156
 2488DPPE   GL151711  16.499  36.202   9.951 -0.0503 -0.1664 -0.0566
 2488DPPE   GL251712  16.571  36.145  10.320 -0.0464  0.1009 -0.0044
 2488DPPE   C1A51713  16.936  36.133  10.012 -0.0256 -0.1733 -0.1269
 2488DPPE   C2A51714  17.046  36.103  10.409  0.1298  0.2278  0.0627
 2488DPPE   C3A51715  17.441  36.283  10.558 -0.2263 -0.0394  0.1750
 2488DPPE   C4A51716  17.822  36.167  10.698  0.0231  0.3269  0.0584
 2488DPPE   C1B51717  16.656  35.801  10.479  0.1160 -0.2309 -0.0576
 2488DPPE   C2B51718  16.926  35.778  10.766  0.5170 -0.0028  0.1056
 2488DPPE   C3B51719  17.328  35.534  10.880 -0.0356  0.2883 -0.1013
 2488DPPE   C4B51720  17.835  35.636  10.975  0.1329  0.1192  0.1804
 2489DPPE   NH351721   9.771   3.746   8.511  0.0465  0.2024  0.0655
 2489DPPE   PO451722   9.424   3.996   8.560  0.3316 -0.2044 -0.1208
 2489DPPE   GL151723   9.284   3.711   8.417 -0.0031 -0.1560  0.0219
 2489DPPE   GL251724   8.970   3.658   8.606 -0.1369  0.1048 -0.2837
 2489DPPE   C1A51725   9.169   3.543   8.092  0.0180 -0.0221  0.2552
 2489DPPE   C2A51726   9.043   3.383   7.757  0.2754  0.0353  0.0901
 2489DPPE   C3A51727   8.727   3.220   7.620  0.2772  0.0764 -0.1571
 2489DPPE   C4A51728   8.396   3.042   7.349  0.1347  0.2296  0.3742
 2489DPPE   C1B51729   8.665   3.512   8.215  0.0670  0.0396  0.0864
 2489DPPE   C2B51730   8.320   3.405   7.905 -0.3915  0.2024  0.1733
 2489DPPE   C3B51731   7.995   3.221   7.681 -0.0200  0.1211  0.1350
 2489DPPE   C4B51732   7.703   3.225   7.386 -0.1852 -0.1765 -0.0726
 2490DPPE   NH351733   8.801   1.435  16.216 -0.2721  0.1871 -0.0402
 2490DPPE   PO451734   8.828   1.083  15.987  0.2581  0.0457 -0.0816
 2490DPPE   GL151735   9.125   1.086  16.336  0.1451  0.0922 -0.4530
 2490DPPE   GL251736   9.337   0.916  16.324  0.3430 -0.1274 -0.2355
 2490DPPE   C1A51737   9.423   1.416  16.645 -0.0770 -0.2563  0.2587
 2490DPPE   C2A51738   9.684   1.774  16.653  0.0835 -0.1684 -0.1233
 2490DPPE   C3A51739   9.892   2.144  16.903  0.0855 -0.0636 -0.2287
 2490DPPE   C4A51740   9.956   2.449  17.134  0.2877  0.2352  0.0391
 2490DPPE   C1B51741   9.535   0.953  16.661  0.3500 -0.1021  0.1669
 2490DPPE   C2B51742   9.892   1.143  16.885  0.2892 -0.0466 -0.2060
 2490DPPE   C3B51743   9.961   1.403  17.296  0.1990  0.1294  0.0188
 2490DPPE   C4B51744   9.889   1.595  17.711  0.0464  0.0032 -0.1531
 2491DPPE   NH351745  14.585   7.912   4.217  0.0435 -0.3469  0.1900
 2491DPPE   PO451746  14.258   8.323   4.191 -0.1010 -0.1169 -0.2766
 2491DPPE   GL151747  14.065   8.425   3.809  0.0280 -0.0581  0.6244
 2491DPPE   GL251748  13.701   8.528   3.896  0.1938  0.1681  0.0967
 2491DPPE   C1A51749  14.090   8.379   3.381 -0.0740  0.0150 -0.0735
 2491DPPE   C2A51750  13.883   8.159   3.019  0.3819 -0.0102  0.2675
 2491DPPE   C3A51751  13.727   7.973   2.665 -0.0347 -0.0305 -0.0619
 2491DPPE   C4A51752  13.779   7.473   2.567  0.2040 -0.1137 -0.2712
 2491DPPE   C1B51753  13.721   8.806   3.580 -0.3526 -0.4040  0.0405
 2491DPPE   C2B51754  13.392   8.837   3.287  0.1000  0.0295  0.3355
 2491DPPE   C3B51755  13.049   8.559   3.182 -0.0618  0.0376  0.0893
 2491DPPE   C4B51756  12.923   8.384   2.795 -0.1111  0.2146  0.1040
 2492DPPE   NH351757  10.696   0.216  14.924 -0.2341 -0.3015 -0.0599
 2492DPPE   PO451758  10.757   0.672  14.710  0.1037 -0.3355  0.0663
 2492DPPE   GL151759  11.032   0.743  14.900 -0.1808  0.0427 -0.1370
 2492DPPE   GL251760  11.079   0.508  15.145 -0.0589 -0.3708 -0.2442
 2492DPPE   C1A51761  10.993   1.152  15.179  0.3561 -0.0589  0.1375
 2492DPPE   C2A51762  11.078   1.503  15.343 -0.0838 -0.1939 -0.2304
 2492DPPE   C3A51763  11.206   1.549  15.677 -0.0764  0.4341  0.3927
 2492DPPE   C4A51764  11.059   1.740  16.000 -0.2295 -0.0797  0.2101
 2492DPPE   C1B51765  11.162   0.491  15.643 -0.0125  0.2195  0.3516
 2492DPPE   C2B51766  11.421   0.133  15.865 -0.2471 -0.1919 -0.2200
 2492DPPE   C3B51767  11.516  -0.073  16.239  0.1007  0.2118 -0.0600
 2492DPPE   C4B51768  11.432   0.049  16.648 -0.3233 -0.1656 -0.3636
 2493DPPE   NH351769  11.685  11.522   5.063 -0.1777  0.1970 -0.0022
 2493DPPE   PO451770  11.390  11.735   5.311 -0.0143  0.0718 -0.0911
 2493DPPE   GL151771  11.778  12.015   5.368  0.1374 -0.0284 -0.0213
 2493DPPE   GL251772  12.051  11.918   5.130 -0.1642 -0.0388 -0.0734
 2493DPPE   C1A51773  12.012  12.354   5.417  0.0070 -0.0761 -0.0127
 2493DPPE   C2A51774  12.482  12.485   5.545 -0.2559 -0.0265  0.0830
 2493DPPE   C3A51775  12.614  12.883   5.531 -0.0266  0.3647  0.1408
 2493DPPE   C4A51776  12.340  13.284   5.713  0.4246 -0.0119  0.0173
 2493DPPE   C1B51777  12.384  12.021   5.468 -0.2292  0.1120  0.0573
 2493DPPE   C2B51778  12.797  12.161   5.701  0.1016  0.5494 -0.1267
 2493DPPE   C3B51779  13.227  12.376   5.818 -0.1627  0.3837 -0.3589
 2493DPPE   C4B51780  13.567  12.587   5.948 -0.0908 -0.0918 -0.0526
 2494DPPE   NH351781  17.111   6.325   5.761  0.2056  0.1120 -0.0319
 2494DPPE   PO451782  16.938   6.231   5.442 -0.0972  0.2622  0.0379
 2494DPPE   GL151783  17.213   6.487   5.196 -0.1881  0.0623 -0.1493
 2494DPPE   GL251784  17.224   6.690   5.438 -0.1305 -0.2747 -0.4086
 2494DPPE   C1A51785  17.585   6.530   4.904  0.1862 -0.2650  0.0399
 2494DPPE   C2A51786  17.965   6.463   4.811  0.0694  0.1180 -0.0250
 2494DPPE   C3A51787  18.263   6.096   4.530 -0.0530  0.1060 -0.0166
 2494DPPE   C4A51788  18.371   6.035   4.120 -0.0957  0.1402 -0.3771
 2494DPPE   C1B51789  17.667   6.611   5.606  0.1217 -0.2246 -0.1705
 2494DPPE   C2B51790  18.029   6.782   5.877  0.1075  0.2085  0.0581
 2494DPPE   C3B51791  18.226   7.235   5.797 -0.2718  0.1125 -0.2111
 2494DPPE   C4B51792  18.375   7.666   5.912 -0.2025 -0.0140 -0.0603
 2495DPPE   NH351793  16.317   5.553   5.110 -0.0474  0.1255  0.0170
 2495DPPE   PO451794  15.986   5.810   5.105 -0.2928  0.1881 -0.0997
 2495DPPE   GL151795  16.070   5.850   4.678  0.1345 -0.2415  0.0960
 2495DPPE   GL251796  16.429   5.812   4.625  0.1745  0.0170  0.0084
 2495DPPE   C1A51797  15.921   5.716   4.318 -0.3087 -0.0280 -0.1513
 2495DPPE   C2A51798  15.870   5.463   3.897 -0.1362  0.2285  0.0470
 2495DPPE   C3A51799  15.839   5.353   3.456 -0.1356  0.0821 -0.0868
 2495DPPE   C4A51800  15.895   5.340   3.011  0.0077  0.0151  0.1283
 2495DPPE   C1B51801  16.752   5.792   4.373  0.2120  0.3762 -0.3614
 2495DPPE   C2B51802  16.893   5.546   4.025  0.1145  0.3284  0.0216
 2495DPPE   C3B51803  16.756   5.533   3.685 -0.0216 -0.0442  0.1812
 2495DPPE   C4B51804  16.846   5.208   3.417 -0.0362  0.0337  0.2506
 2496DPPE   NH351805   4.937  10.262  11.819 -0.3712  0.0161 -0.0522
 2496DPPE   PO451806   5.155   9.872  11.969 -0.0276 -0.1109 -0.0667
 2496DPPE   GL151807   4.730   9.877  12.136  0.0557  0.0142 -0.0168
 2496DPPE   GL251808   4.622  10.039  12.481 -0.0762  0.4336  0.0311
 2496DPPE   C1A51809   4.465   9.540  12.249  0.3604  0.1478 -0.2614
 2496DPPE   C2A51810   4.053   9.371  12.367 -0.1163  0.1465  0.0242
 2496DPPE   C3A51811   3.749   9.347  11.998  0.0838  0.1512 -0.0620
 2496DPPE   C4A51812   3.490   9.202  11.852 -0.1721 -0.0204  0.2322
 2496DPPE   C1B51813   4.342  10.281  12.245 -0.1073 -0.0387  0.2704
 2496DPPE   C2B51814   4.325  10.437  11.871 -0.0933 -0.1048 -0.0865
 2496DPPE   C3B51815   4.184  10.512  11.401 -0.2798  0.3320  0.3634
 2496DPPE   C4B51816   3.808  10.641  11.199  0.3785 -0.4201 -0.0524
 2497DPPE   NH351817   9.575   1.332  12.956  0.0924 -0.3100  0.0831
 2497DPPE   PO451818  10.032   1.161  13.168 -0.2830  0.1602  0.1741
 2497DPPE   GL151819  10.226   1.671  13.102  0.2527 -0.0462 -0.2613
 2497DPPE   GL251820  10.409   1.784  12.781 -0.2092  0.0063 -0.1861
 2497DPPE   C1A51821  10.096   2.046  13.382  0.0043  0.0359 -0.0364
 2497DPPE   C2A51822  10.151   2.473  13.478 -0.0652 -0.0577 -0.1828
 2497DPPE   C3A51823  10.189   2.923  13.564 -0.0945  0.2007  0.0284
 2497DPPE   C4A51824  10.096   3.342  13.422  0.0207 -0.0044  0.0435
 2497DPPE   C1B51825  10.669   2.130  12.756 -0.1773 -0.0097  0.1418
 2497DPPE   C2B51826  10.982   2.344  12.542  0.0445  0.3003  0.4094
 2497DPPE   C3B51827  11.508   2.445  12.341 -0.0466  0.0718 -0.4468
 2497DPPE   C4B51828  11.512   2.436  11.901 -0.3469 -0.0361  0.0520
 2498DPPE   NH351829  14.911   8.790   4.735  0.1700  0.1539 -0.1838
 2498DPPE   PO451830  14.600   9.004   4.523 -0.1696 -0.0123 -0.1323
 2498DPPE   GL151831  14.857   9.218   4.385  0.1570  0.2594  0.1528
 2498DPPE   GL251832  14.917   9.099   4.116  0.1499  0.1975 -0.1680
 2498DPPE   C1A51833  15.142   9.479   4.395  0.1897  0.1831 -0.3920
 2498DPPE   C2A51834  15.084   9.908   4.422  0.0512  0.1131 -0.0106
 2498DPPE   C3A51835  14.937  10.317   4.457 -0.3230 -0.0113 -0.1201
 2498DPPE   C4A51836  14.760  10.579   4.729  0.3612 -0.1645  0.0789
 2498DPPE   C1B51837  15.118   9.346   3.842 -0.3222  0.0301  0.0426
 2498DPPE   C2B51838  15.126   9.473   3.452  0.0498 -0.0694 -0.0863
 2498DPPE   C3B51839  15.018   9.532   3.030  0.0314 -0.0416 -0.0715
 2498DPPE   C4B51840  14.811   9.789   2.729 -0.0482  0.1019  0.1009
 2499DPPE   NH351841   8.594   4.728  10.464  0.1670  0.1802  0.1147
 2499DPPE   PO451842   8.687   5.236  10.376 -0.3576  0.0708 -0.1909
 2499DPPE   GL151843   8.625   5.689  10.637 -0.0513  0.4824 -0.2096
 2499DPPE   GL251844   8.402   5.895  10.483  0.0058 -0.4536  0.2746
 2499DPPE   C1A51845   8.988   6.023  10.787 -0.1234 -0.1333  0.1477
 2499DPPE   C2A51846   9.374   6.371  10.899  0.2132  0.2275 -0.0303
 2499DPPE   C3A51847   9.614   6.600  11.118 -0.3296 -0.0484  0.1891
 2499DPPE   C4A51848   9.961   6.820  11.185 -0.1930  0.1485 -0.0682
 2499DPPE   C1B51849   8.575   6.293  10.690  0.0698 -0.0894 -0.0302
 2499DPPE   C2B51850   8.883   6.473  10.999 -0.1847 -0.1038 -0.1394
 2499DPPE   C3B51851   9.222   6.814  11.147 -0.0380 -0.0632 -0.1601
 2499DPPE   C4B51852   9.299   7.157  11.350 -0.1854  0.0426 -0.1568
 2500DPPE   NH351853   8.836   8.850   6.804  0.3401  0.0720  0.2109
 2500DPPE   PO451854   8.670   8.538   6.973  0.0372 -0.0017 -0.0130
 2500DPPE   GL151855   8.549   8.521   6.492 -0.0684  0.0109  0.0669
 2500DPPE   GL251856   8.276   8.667   6.570  0.3588  0.2389  0.2861
 2500DPPE   C1A51857   8.341   8.373   6.028  0.0435  0.0915 -0.0813
 2500DPPE   C2A51858   8.126   8.069   5.685 -0.0867 -0.2647  0.1155
 2500DPPE   C3A51859   7.677   8.161   5.572  0.3403  0.1122 -0.1496
 2500DPPE   C4A51860   7.285   8.060   5.421  0.1339 -0.1409  0.0862
 2500DPPE   C1B51861   8.006   8.870   6.236  0.1571  0.1032  0.1662
 2500DPPE   C2B51862   7.599   8.920   6.027 -0.0949  0.0243  0.3706
 2500DPPE   C3B51863   7.424   8.559   5.727  0.3347 -0.0767  0.1655
 2500DPPE   C4B51864   7.303   8.541   5.194 -0.2079 -0.0548  0.1802
 2501DPPE   NH351865  14.376   3.875   7.083 -0.0283  0.0479  0.0122
 2501DPPE   PO451866  14.480   4.190   7.141 -0.2951  0.0661  0.1092
 2501DPPE   GL151867  14.557   4.424   7.585  0.0683 -0.0290  0.1931
 2501DPPE   GL251868  14.259   4.493   7.705 -0.0948 -0.0943 -0.0830
 2501DPPE   C1A51869  14.793   4.563   7.929 -0.3428  0.1650  0.2010
 2501DPPE   C2A51870  14.904   4.756   8.340  0.2379 -0.4689  0.5336
 2501DPPE   C3A51871  14.986   4.924   8.660  0.0060 -0.2239  0.1083
 2501DPPE   C4A51872  15.227   5.165   9.016 -0.1764  0.0328 -0.1913
 2501DPPE   C1B51873  14.415   4.915   7.817  0.2454 -0.2634  0.3148
 2501DPPE   C2B51874  14.369   5.363   8.008  0.0702 -0.1813 -0.0213
 2501DPPE   C3B51875  14.065   5.602   8.174 -0.0899  0.0991  0.1829
 2501DPPE   C4B51876  13.791   5.850   8.302 -0.0874 -0.2713  0.2064
 2502DPPE   NH351877  13.654  34.950  11.780  0.0251  0.0414 -0.0321
 2502DPPE   PO451878  13.754  34.996  12.330 -0.0553 -0.0346  0.1134
 2502DPPE   GL151879  13.780  34.604  12.608 -0.0284 -0.1777 -0.0957
 2502DPPE   GL251880  14.017  34.556  12.518  0.0326  0.2502 -0.0261
 2502DPPE   C1A51881  13.979  34.117  12.727  0.1565 -0.2365 -0.0126
 2502DPPE   C2A51882  14.315  33.826  13.079 -0.1448 -0.1137 -0.0248
 2502DPPE   C3A51883  14.286  33.790  13.476  0.0663 -0.0770 -0.2444
 2502DPPE   C4A51884  14.278  34.049  13.770  0.1075 -0.1571 -0.1859
 2502DPPE   C1B51885  14.057  34.251  12.163 -0.1721  0.0483 -0.2645
 2502DPPE   C2B51886  14.033  33.903  11.871 -0.1753 -0.1394 -0.4997
 2502DPPE   C3B51887  13.825  33.614  11.684  0.0814  0.0831  0.3023
 2502DPPE   C4B51888  13.362  33.517  11.606  0.1606  0.0712 -0.3904
 2503DPPE   NH351889  16.433   6.904   5.515 -0.0042  0.1589  0.1245
 2503DPPE   PO451890  16.441   7.247   5.231 -0.0616 -0.2993  0.2895
 2503DPPE   GL151891  16.768   7.253   5.604  0.0629  0.0818 -0.2931
 2503DPPE   GL251892  16.761   7.269   5.867  0.2173 -0.3252 -0.1202
 2503DPPE   C1A51893  16.952   7.680   5.561 -0.0938 -0.2490  0.0144
 2503DPPE   C2A51894  17.410   7.697   5.556  0.1515  0.0159 -0.0158
 2503DPPE   C3A51895  17.738   7.992   5.391 -0.1727 -0.0315 -0.0483
 2503DPPE   C4A51896  18.129   7.758   5.462 -0.1938  0.1035 -0.1984
 2503DPPE   C1B51897  17.120   7.227   6.225 -0.0896 -0.3481 -0.0601
 2503DPPE   C2B51898  17.415   6.948   6.482 -0.2966  0.2431 -0.1973
 2503DPPE   C3B51899  17.610   6.933   6.894  0.2915 -0.0069 -0.2193
 2503DPPE   C4B51900  17.822   6.769   7.128  0.0004  0.1438 -0.0895
 2504DPPE   NH351901  15.011   4.604   5.333 -0.0056  0.1525 -0.1982
 2504DPPE   PO451902  14.570   4.705   5.337 -0.1697 -0.3838  0.2470
 2504DPPE   GL151903  14.686   4.397   5.021 -0.0604  0.0261 -0.1304
 2504DPPE   GL251904  15.009   4.563   4.764 -0.1195 -0.1139 -0.0203
 2504DPPE   C1A51905  14.681   4.077   4.641 -0.1611  0.0917 -0.0253
 2504DPPE   C2A51906  14.458   3.935   4.309  0.1251 -0.0099 -0.2563
 2504DPPE   C3A51907  14.046   3.656   4.215  0.0851  0.1255 -0.2263
 2504DPPE   C4A51908  13.862   3.271   4.028 -0.2252  0.0605 -0.1095
 2504DPPE   C1B51909  15.026   4.320   4.403  0.1230  0.4297  0.1879
 2504DPPE   C2B51910  14.930   4.070   4.110  0.1605 -0.2100  0.3990
 2504DPPE   C3B51911  14.944   3.886   3.630  0.2090 -0.1311  0.2133
 2504DPPE   C4B51912  15.072   3.636   3.262 -0.2150  0.3560 -0.0570
 2505DPPE   NH351913  14.514   6.904   6.163  0.0041 -0.0754 -0.1994
 2505DPPE   PO451914  14.788   6.649   6.247  0.0690 -0.3499 -0.0544
 2505DPPE   GL151915  14.886   6.920   6.538  0.1504 -0.0846  0.0183
 2505DPPE   GL251916  14.739   7.176   6.555  0.0150 -0.4580  0.1068
 2505DPPE   C1A51917  15.337   7.114   6.752  0.1677 -0.3452  0.0610
 2505DPPE   C2A51918  15.579   7.282   7.059 -0.0525 -0.4572 -0.3335
 2505DPPE   C3A51919  15.844   7.165   7.421  0.3620 -0.2169 -0.0014
 2505DPPE   C4A51920  16.111   7.368   7.812  0.1153 -0.0706 -0.3021
 2505DPPE   C1B51921  14.889   7.501   6.722  0.0812  0.1964  0.1226
 2505DPPE   C2B51922  14.998   7.745   7.085 -0.0406 -0.0876 -0.1545
 2505DPPE   C3B51923  15.264   8.015   7.368 -0.1582  0.0823  0.5023
 2505DPPE   C4B51924  15.169   8.507   7.343  0.0313  0.0720  0.0269
 2506DPPE   NH351925   6.319   6.571  13.742  0.3641 -0.0049  0.2388
 2506DPPE   PO451926   6.551   6.179  13.496  0.2705 -0.1370  0.2160
 2506DPPE   GL151927   6.915   6.267  13.331 -0.0532  0.0018  0.0357
 2506DPPE   GL251928   6.845   6.152  12.981 -0.1872 -0.0359 -0.0610
 2506DPPE   C1A51929   7.306   6.273  13.551  0.1640 -0.2021 -0.2179
 2506DPPE   C2A51930   7.620   6.409  13.795 -0.0463 -0.3549 -0.1848
 2506DPPE   C3A51931   7.996   6.665  13.795  0.1459 -0.1007  0.0223
 2506DPPE   C4A51932   8.297   6.692  13.948 -0.2159 -0.2125  0.0831
 2506DPPE   C1B51933   7.394   6.258  13.057  0.0493  0.1793 -0.1208
 2506DPPE   C2B51934   7.845   6.333  13.042  0.3279  0.0208  0.0216
 2506DPPE   C3B51935   8.294   6.474  12.970  0.1608  0.2256  0.0532
 2506DPPE   C4B51936   8.674   6.767  13.093  0.2000  0.1502  0.0995
 2507DPPE   NH351937   6.123   5.517  11.447 -0.2182  0.0219 -0.0175
 2507DPPE   PO451938   5.771   5.838  11.401 -0.0500  0.0291  0.1275
 2507DPPE   GL151939   5.780   5.626  11.022 -0.1218 -0.1508 -0.3961
 2507DPPE   GL251940   5.979   5.842  10.681 -0.2288  0.3332 -0.1737
 2507DPPE   C1A51941   5.464   5.549  10.699 -0.3174  0.4873  0.0496
 2507DPPE   C2A51942   5.460   5.270  10.281  0.3605 -0.0237  0.0338
 2507DPPE   C3A51943   5.370   4.961  10.105  0.0076 -0.0146 -0.1156
 2507DPPE   C4A51944   5.348   4.612   9.821  0.1922 -0.1532 -0.3266
 2507DPPE   C1B51945   5.839   5.776  10.319  0.1501 -0.2247  0.2327
 2507DPPE   C2B51946   5.500   5.730   9.977 -0.0603 -0.1230  0.1139
 2507DPPE   C3B51947   5.204   5.730   9.624  0.2055  0.1473  0.0063
 2507DPPE   C4B51948   5.117   6.137   9.339 -0.0442  0.0094  0.3872
 2508DPPE   NH351949  12.787  10.384   5.348  0.0006 -0.1119 -0.0712
 2508DPPE   PO451950  12.998  10.803   5.207 -0.2461  0.0364  0.0383
 2508DPPE   GL151951  13.347  10.955   5.013 -0.0191  0.0776  0.2439
 2508DPPE   GL251952  13.672  10.739   5.038  0.0205  0.2956  0.1148
 2508DPPE   C1A51953  13.746  11.212   4.920 -0.1173 -0.1884  0.1008
 2508DPPE   C2A51954  14.121  11.240   4.942  0.1202 -0.0252 -0.0908
 2508DPPE   C3A51955  14.444  11.501   5.030  0.2635 -0.4677 -0.2319
 2508DPPE   C4A51956  14.775  11.630   5.094  0.2708  0.3139  0.1253
 2508DPPE   C1B51957  13.909  10.946   5.298  0.0979 -0.0807  0.0362
 2508DPPE   C2B51958  14.277  11.012   5.434  0.0099  0.0643  0.2407
 2508DPPE   C3B51959  14.475  11.069   5.827 -0.0082 -0.0190  0.0949
 2508DPPE   C4B51960  14.636  11.049   6.226  0.0679 -0.1121 -0.1707
 2509DPPE   NH351961  12.691   4.414   7.330  0.1589 -0.0360  0.0504
 2509DPPE   PO451962  12.600   4.083   7.462  0.2220 -0.0401 -0.0402
 2509DPPE   GL151963  12.625   4.277   7.908  0.0417  0.0827  0.2427
 2509DPPE   GL251964  12.355   4.474   8.111 -0.1493 -0.2881  0.2810
 2509DPPE   C1A51965  12.827   4.203   8.343 -0.1524 -0.3225  0.2004
 2509DPPE   C2A51966  13.021   4.076   8.583  0.1079 -0.1065 -0.0265
 2509DPPE   C3A51967  13.043   3.662   8.774 -0.1032 -0.1917  0.2175
 2509DPPE   C4A51968  13.340   3.381   8.768  0.0583  0.2534  0.2257
 2509DPPE   C1B51969  12.450   4.727   8.474  0.0817  0.0295  0.2504
 2509DPPE   C2B51970  12.270   4.862   8.851 -0.2845 -0.0486  0.0372
 2509DPPE   C3B51971  12.382   5.039   9.236  0.1495  0.1218 -0.1592
 2509DPPE   C4B51972  12.787   5.274   9.438 -0.0527  0.0235 -0.2466
 2510DPPE   NH351973   5.481   7.989  15.041 -0.0905 -0.0960 -0.0572
 2510DPPE   PO451974   5.577   8.411  14.734  0.0355 -0.1982  0.2222
 2510DPPE   GL151975   5.897   8.660  14.991 -0.0546 -0.2410 -0.2221
 2510DPPE   GL251976   5.910   8.772  15.291 -0.0732 -0.2942 -0.2202
 2510DPPE   C1A51977   6.371   8.726  15.171 -0.2872  0.2260 -0.2262
 2510DPPE   C2A51978   6.677   8.875  15.457 -0.3716  0.3269  0.2118
 2510DPPE   C3A51979   6.905   8.999  15.783  0.1110  0.1538  0.2058
 2510DPPE   C4A51980   7.231   8.851  16.177  0.3111  0.3352  0.1396
 2510DPPE   C1B51981   6.105   8.979  15.627  0.0703  0.2598 -0.2256
 2510DPPE   C2B51982   5.899   9.227  16.023 -0.0571 -0.3316 -0.0984
 2510DPPE   C3B51983   6.043   9.379  16.466  0.0612 -0.1013 -0.0761
 2510DPPE   C4B51984   6.124   9.669  16.911  0.0951 -0.1252  0.1143
 2511DPPE   NH351985  11.370   2.246   8.584 -0.2810  0.0279 -0.2611
 2511DPPE   PO451986  11.597   2.571   8.348  0.0712  0.3990 -0.3061
 2511DPPE   GL151987  11.631   2.252   8.128 -0.1502  0.3235 -0.2209
 2511DPPE   GL251988  11.315   2.332   7.987 -0.3645 -0.0469 -0.0039
 2511DPPE   C1A51989  11.461   1.837   7.944 -0.3434 -0.0721 -0.0950
 2511DPPE   C2A51990  11.325   1.610   7.633  0.1846  0.0422  0.0377
 2511DPPE   C3A51991  11.502   1.154   7.632  0.0957  0.1720  0.0499
 2511DPPE   C4A51992  11.248   0.734   7.520  0.2061 -0.2051  0.0635
 2511DPPE   C1B51993  11.045   2.122   7.750 -0.0097  0.2995  0.0603
 2511DPPE   C2B51994  10.836   1.719   7.691  0.2599 -0.5088  0.1615
 2511DPPE   C3B51995  10.504   1.395   7.483  0.0896  0.0252  0.3830
 2511DPPE   C4B51996  10.177   1.162   7.271  0.4536 -0.2705 -0.0695
 2512DPPE   NH351997  15.467   4.887   6.670 -0.0595  0.1270  0.1245
 2512DPPE   PO451998  15.351   4.546   6.754 -0.2516 -0.2228 -0.1446
 2512DPPE   GL151999  15.373   4.628   7.167  0.1723 -0.2542 -0.1388
 2512DPPE   GL252000  15.188   4.746   7.195  0.3507  0.5263 -0.0506
 2512DPPE   C1A52001  15.685   4.697   7.584  0.2895 -0.2450  0.3828
 2512DPPE   C2A52002  15.912   4.915   7.782  0.4194  0.0471  0.1456
 2512DPPE   C3A52003  15.824   5.263   8.159 -0.0960  0.2423 -0.0198
 2512DPPE   C4A52004  16.067   5.580   8.435  0.3418 -0.0365  0.1453
 2512DPPE   C1B52005  15.390   5.095   7.392  0.0961  0.0826 -0.4123
 2512DPPE   C2B52006  15.541   5.251   7.778  0.0026  0.2614 -0.1425
 2512DPPE   C3B52007  15.324   5.454   8.067  0.1500  0.0373  0.1683
 2512DPPE   C4B52008  15.495   5.734   8.348  0.1398 -0.1317  0.0609
 2513DPPE   NH352009  12.602   6.233   5.890 -0.0998  0.0354  0.0957
 2513DPPE   PO452010  12.142   5.951   5.816 -0.1244 -0.2750 -0.0223
 2513DPPE   GL152011  11.865   5.772   5.580  0.1662  0.1846  0.1011
 2513DPPE   GL252012  11.985   5.910   5.214  0.0727 -0.1417  0.0895
 2513DPPE   C1A52013  11.709   5.436   5.407 -0.1395  0.0266  0.2757
 2513DPPE   C2A52014  11.536   5.221   5.029  0.0299 -0.1131 -0.4024
 2513DPPE   C3A52015  11.319   5.249   4.660 -0.0706  0.1906  0.1397
 2513DPPE   C4A52016  11.172   4.894   4.355 -0.0890  0.1706 -0.1323
 2513DPPE   C1B52017  11.796   5.791   4.872 -0.2372 -0.4141  0.0036
 2513DPPE   C2B52018  11.904   5.630   4.408 -0.2516 -0.0452  0.1498
 2513DPPE   C3B52019  11.962   5.620   4.018  0.0460  0.3335  0.1005
 2513DPPE   C4B52020  11.956   5.267   3.781 -0.0645  0.0094  0.1389
 2514DPPE   NH352021   8.798  11.856   6.474  0.0311  0.0035  0.3010
 2514DPPE   PO452022   8.908  11.449   6.647  0.0954  0.1564  0.0582
 2514DPPE   GL152023   8.568  11.398   6.381 -0.2762 -0.4048  0.1832
 2514DPPE   GL252024   8.615  11.504   6.162 -0.1882 -0.0011  0.1626
 2514DPPE   C1A52025   8.190  11.707   6.288 -0.0392 -0.2192  0.0130
 2514DPPE   C2A52026   8.152  12.132   6.320 -0.0023  0.1183 -0.0849
 2514DPPE   C3A52027   8.258  12.505   6.106 -0.1968  0.1256  0.1350
 2514DPPE   C4A52028   8.464  12.696   5.637 -0.3198  0.5158 -0.5024
 2514DPPE   C1B52029   8.416  11.571   5.757  0.1692  0.1608  0.2922
 2514DPPE   C2B52030   8.226  11.735   5.553  0.2612  0.1287  0.1773
 2514DPPE   C3B52031   7.717  11.694   5.467 -0.2015 -0.3487 -0.0713
 2514DPPE   C4B52032   7.228  11.707   5.480 -0.1528 -0.0370  0.2081
 2515DPPE   NH352033   9.569   0.824  12.222  0.1794 -0.1223  0.1960
 2515DPPE   PO452034   9.237   0.852  12.050 -0.3062  0.0486 -0.1133
 2515DPPE   GL152035   8.870   0.597  11.732  0.0852 -0.3499  0.1805
 2515DPPE   GL252036   8.708   0.288  11.906 -0.2275 -0.1914 -0.1213
 2515DPPE   C1A52037   8.477   0.353  11.518 -0.1741 -0.3062 -0.1492
 2515DPPE   C2A52038   8.030   0.170  11.545 -0.0676 -0.1455 -0.0564
 2515DPPE   C3A52039   7.839  -0.235  11.576  0.1467  0.1180  0.0431
 2515DPPE   C4A52040   7.760  -0.507  11.225  0.2391  0.1621  0.3446
 2515DPPE   C1B52041   8.422  -0.006  11.840  0.0483 -0.1746  0.0437
 2515DPPE   C2B52042   8.223  -0.384  11.842  0.0716 -0.1494  0.1217
 2515DPPE   C3B52043   7.942  -0.657  11.760 -0.0658 -0.1008  0.0833
 2515DPPE   C4B52044   7.662  -1.004  11.775 -0.0279  0.2174  0.0397
 2516DPPE   NH352045   8.189   2.393  15.714 -0.0010  0.1241  0.0608
 2516DPPE   PO452046   8.411   2.597  15.270  0.2292 -0.3231  0.0931
 2516DPPE   GL152047   8.802   2.749  15.404 -0.1050  0.3893  0.2927
 2516DPPE   GL252048   9.126   2.576  15.396  0.6800  0.3658 -0.0659
 2516DPPE   C1A52049   9.023   3.180  15.344 -0.0839 -0.0542  0.0196
 2516DPPE   C2A52050   9.316   3.417  15.449  0.2827 -0.0362 -0.0264
 2516DPPE   C3A52051   9.691   3.616  15.765  0.1288 -0.1393  0.0026
 2516DPPE   C4A52052   9.968   3.814  16.091 -0.0996  0.0865  0.1814
 2516DPPE   C1B52053   9.470   2.887  15.526  0.1679  0.2385 -0.1993
 2516DPPE   C2B52054   9.798   3.082  15.416 -0.0619 -0.1984  0.0312
 2516DPPE   C3B52055   9.993   3.374  15.402  0.1027 -0.3359  0.2301
 2516DPPE   C4B52056  10.201   3.801  15.370  0.0802 -0.0233  0.3178
 2517DPPE   NH352057  12.439   1.790   8.539 -0.2312  0.1984  0.2591
 2517DPPE   PO452058  12.037   1.761   8.508 -0.1812  0.2276  0.2474
 2517DPPE   GL152059  12.153   1.612   8.142  0.2654  0.1309  0.1236
 2517DPPE   GL252060  12.235   1.320   8.292 -0.1332 -0.0890 -0.1706
 2517DPPE   C1A52061  12.004   1.418   7.758  0.0091 -0.0086  0.2077
 2517DPPE   C2A52062  12.062   1.111   7.608 -0.0162 -0.1476 -0.1136
 2517DPPE   C3A52063  12.099   0.795   7.321  0.0151  0.1645 -0.1246
 2517DPPE   C4A52064  11.837   0.427   7.355  0.0661  0.0910 -0.1374
 2517DPPE   C1B52065  11.968   1.055   8.159 -0.0136 -0.0035 -0.1572
 2517DPPE   C2B52066  12.017   0.669   7.809  0.0611 -0.2440 -0.4080
 2517DPPE   C3B52067  12.049   0.297   7.829 -0.2159  0.0464 -0.0567
 2517DPPE   C4B52068  12.078  -0.217   7.904  0.2235  0.0213  0.2623
 2518DPPE   NH352069  11.759   3.369   8.119  0.1356  0.2022  0.0545
 2518DPPE   PO452070  11.734   3.229   8.596 -0.6222 -0.1632  0.0583
 2518DPPE   GL152071  12.236   3.255   8.755 -0.3441  0.0808 -0.1352
 2518DPPE   GL252072  12.104   3.175   9.027  0.0636  0.2091  0.0977
 2518DPPE   C1A52073  12.613   3.314   8.800 -0.3569 -0.2172  0.4828
 2518DPPE   C2A52074  12.857   3.406   9.128  0.3450  0.0164  0.0981
 2518DPPE   C3A52075  13.257   3.477   9.257  0.0852  0.1092 -0.1699
 2518DPPE   C4A52076  13.525   3.516   9.588  0.0288  0.0510 -0.0953
 2518DPPE   C1B52077  12.388   3.442   9.233 -0.0330 -0.0434  0.0496
 2518DPPE   C2B52078  12.679   3.719   9.467  0.0487  0.3138  0.1270
 2518DPPE   C3B52079  13.031   3.852   9.756  0.0726 -0.1496 -0.1210
 2518DPPE   C4B52080  13.389   3.925  10.080  0.1325  0.0289  0.3918
 2519DPPE   NH352081   4.930   9.246  14.688  0.0113 -0.2033 -0.1046
 2519DPPE   PO452082   5.064   8.821  14.843 -0.1294 -0.2033  0.1680
 2519DPPE   GL152083   5.064   9.206  15.161  0.1893  0.3505  0.2028
 2519DPPE   GL252084   5.287   9.347  15.024 -0.0013  0.0674  0.0507
 2519DPPE   C1A52085   5.357   9.329  15.594 -0.1388 -0.1913  0.2484
 2519DPPE   C2A52086   5.723   9.574  15.643 -0.0671 -0.2462  0.1642
 2519DPPE   C3A52087   6.078   9.509  15.665 -0.2183  0.2157  0.1794
 2519DPPE   C4A52088   6.503   9.617  15.914 -0.2605  0.0887 -0.0007
 2519DPPE   C1B52089   5.560   9.466  15.141 -0.1281 -0.2511  0.0070
 2519DPPE   C2B52090   5.910   9.636  15.205 -0.1639  0.2666  0.1542
 2519DPPE   C3B52091   5.981  10.032  15.319 -0.3957 -0.1343  0.3012
 2519DPPE   C4B52092   5.979  10.471  15.470 -0.0242 -0.1027 -0.1101
 2520DPPE   NH352093  12.453  36.456  13.556  0.0570 -0.1578 -0.0613
 2520DPPE   PO452094  12.522  36.561  13.183  0.1108  0.0975 -0.0273
 2520DPPE   GL152095  12.837  36.706  13.279  0.0230 -0.2391  0.0267
 2520DPPE   GL252096  13.120  36.639  13.248 -0.2503  0.0867  0.4292
 2520DPPE   C1A52097  13.047  37.160  13.421  0.1726  0.1905 -0.2614
 2520DPPE   C2A52098  13.128  37.538  13.636 -0.0037 -0.0604  0.1529
 2520DPPE   C3A52099  13.152  37.795  13.983 -0.0288  0.0255 -0.3581
 2520DPPE   C4A52100  13.203  38.024  14.293 -0.1744  0.2729 -0.0032
 2520DPPE   C1B52101  13.482  36.857  13.382  0.0093  0.2771 -0.0308
 2520DPPE   C2B52102  13.611  37.249  13.447 -0.1264 -0.1902 -0.1347
 2520DPPE   C3B52103  13.553  37.692  13.240 -0.0856 -0.1216 -0.1574
 2520DPPE   C4B52104  13.446  38.047  12.926  0.1665  0.3164 -0.0561
 2521DPPE   NH352105   7.896   9.645   9.849 -0.0350  0.0003  0.0739
 2521DPPE   PO452106   7.966  10.008   9.811 -0.0736  0.0628 -0.2602
 2521DPPE   GL152107   8.162  10.297  10.062 -0.0875  0.2448  0.2238
 2521DPPE   GL252108   8.002  10.413  10.369  0.2864  0.2526 -0.1187
 2521DPPE   C1A52109   8.481  10.322  10.413 -0.0742  0.2030  0.2106
 2521DPPE   C2A52110   8.800  10.573  10.707  0.2007  0.0713  0.0847
 2521DPPE   C3A52111   8.904  10.880  11.047 -0.0877  0.2452 -0.1654
 2521DPPE   C4A52112   8.787  11.290  11.075 -0.0728  0.0308 -0.1528
 2521DPPE   C1B52113   8.387  10.765  10.353  0.2653 -0.0138  0.1753
 2521DPPE   C2B52114   8.715  10.931  10.350 -0.1698  0.0089  0.1583
 2521DPPE   C3B52115   8.977  11.250  10.186  0.1169 -0.2376  0.0799
 2521DPPE   C4B52116   9.135  11.489   9.874  0.4396  0.1442 -0.1566
 2522DPPE   NH352117   8.528  11.190   6.898 -0.3896 -0.0976 -0.0588
 2522DPPE   PO452118   8.399  11.555   6.840 -0.2127 -0.3277 -0.0566
 2522DPPE   GL152119   8.406  11.955   6.873  0.2437  0.0003 -0.0330
 2522DPPE   GL252120   8.493  12.012   7.281  0.1719 -0.3657 -0.0811
 2522DPPE   C1A52121   8.192  12.190   6.820  0.2127  0.0903  0.0322
 2522DPPE   C2A52122   7.834  12.198   6.791 -0.0817 -0.0021  0.1290
 2522DPPE   C3A52123   7.448  12.458   7.083 -0.1685  0.0639  0.1061
 2522DPPE   C4A52124   7.184  12.416   7.395  0.2081 -0.2187 -0.0696
 2522DPPE   C1B52125   8.433  12.402   7.299  0.2400 -0.3023  0.1436
 2522DPPE   C2B52126   8.139  12.603   7.081  0.0595  0.3720 -0.0848
 2522DPPE   C3B52127   8.026  13.023   7.113 -0.2012 -0.1148 -0.2110
 2522DPPE   C4B52128   7.642  13.162   7.240 -0.1803  0.2287 -0.1132
 2523DPPE   NH352129   6.776   5.242  15.322 -0.0412 -0.0623  0.1723
 2523DPPE   PO452130   6.591   5.606  15.391  0.2035  0.0818  0.0626
 2523DPPE   GL152131   6.967   5.765  15.476 -0.0693  0.1539 -0.0382
 2523DPPE   GL252132   6.932   6.148  15.579  0.2992 -0.1983  0.1375
 2523DPPE   C1A52133   7.331   6.067  15.236 -0.1436 -0.4035 -0.3732
 2523DPPE   C2A52134   7.714   6.210  15.347  0.1031 -0.1479  0.2706
 2523DPPE   C3A52135   7.786   6.691  15.436  0.0217  0.1967 -0.0662
 2523DPPE   C4A52136   7.946   7.053  15.638  0.1280 -0.1719  0.1867
 2523DPPE   C1B52137   7.356   5.971  15.740 -0.0688 -0.0722 -0.0808
 2523DPPE   C2B52138   7.729   6.083  15.888  0.0639 -0.0320 -0.3111
 2523DPPE   C3B52139   8.157   6.194  16.061  0.0424 -0.4600  0.0061
 2523DPPE   C4B52140   8.553   6.159  16.111  0.0403 -0.0772 -0.1215
 2524DPPE   NH352141  11.546   9.391   5.285  0.0606  0.0486 -0.0805
 2524DPPE   PO452142  11.217   9.024   5.521  0.2812  0.0714  0.1555
 2524DPPE   GL152143  11.152   8.747   5.142  0.3568 -0.1303  0.3608
 2524DPPE   GL252144  11.063   8.406   5.129 -0.1266 -0.1031 -0.0959
 2524DPPE   C1A52145  11.239   8.800   4.646  0.5095  0.0475  0.0884
 2524DPPE   C2A52146  11.094   8.738   4.289 -0.1653 -0.0007 -0.1867
 2524DPPE   C3A52147  10.775   8.590   3.990  0.0681 -0.0004  0.1011
 2524DPPE   C4A52148  10.458   8.467   3.707  0.2282  0.2174  0.0645
 2524DPPE   C1B52149  10.777   8.480   4.790 -0.1707 -0.0071 -0.0417
 2524DPPE   C2B52150  10.438   8.461   4.348 -0.0912 -0.2813  0.1758
 2524DPPE   C3B52151  10.090   8.499   4.038  0.0616  0.1095  0.1668
 2524DPPE   C4B52152   9.667   8.492   3.962 -0.0452 -0.0458 -0.1453
 2525DPPE   NH352153  10.188  36.379  15.535  0.2400 -0.1304 -0.2926
 2525DPPE   PO452154  10.579  36.298  15.441  0.0552 -0.0662 -0.0096
 2525DPPE   GL152155  10.528  36.014  15.844  0.2779 -0.2825 -0.1546
 2525DPPE   GL252156  10.507  35.700  15.809  0.0319 -0.4423 -0.1827
 2525DPPE   C1A52157  10.457  36.268  16.267 -0.1675 -0.2556 -0.4145
 2525DPPE   C2A52158  10.647  36.386  16.666  0.0360 -0.0535 -0.0215
 2525DPPE   C3A52159  11.006  36.744  16.855 -0.0388 -0.0967 -0.0205
 2525DPPE   C4A52160  11.432  36.964  16.980 -0.1324  0.0312 -0.2241
 2525DPPE   C1B52161  10.585  35.583  16.298  0.0698  0.0254 -0.2271
 2525DPPE   C2B52162  10.929  35.679  16.580 -0.3953 -0.0014  0.3249
 2525DPPE   C3B52163  10.778  35.803  16.960 -0.0783  0.2961 -0.1844
 2525DPPE   C4B52164  10.342  35.611  17.178  0.0689 -0.0354 -0.2304
 2526DPPE   NH352165   9.520   9.281   6.372  0.0296 -0.0077  0.3101
 2526DPPE   PO452166   9.522   9.705   6.453  0.0435  0.2913 -0.1739
 2526DPPE   GL152167   9.496   9.821   5.925  0.4492 -0.0936  0.2966
 2526DPPE   GL252168   9.654  10.157   5.704  0.2546 -0.1582  0.1142
 2526DPPE   C1A52169   9.277   9.844   5.497 -0.4484 -0.0036  0.1418
 2526DPPE   C2A52170   9.604  10.006   5.204 -0.2394 -0.0696  0.2237
 2526DPPE   C3A52171   9.716  10.188   4.787  0.3336  0.1094  0.3653
 2526DPPE   C4A52172   9.833  10.672   4.558 -0.0566  0.1676  0.0302
 2526DPPE   C1B52173   9.451  10.442   5.385 -0.0243  0.1923  0.0705
 2526DPPE   C2B52174   9.232  10.283   4.925  0.1407  0.2114  0.0248
 2526DPPE   C3B52175   9.353  10.459   4.537  0.2690 -0.0872  0.2472
 2526DPPE   C4B52176   9.438  10.222   4.265 -0.1795  0.2454  0.2731
 2527DPPE   NH352177  12.101   9.102   4.986  0.0892  0.1386 -0.0101
 2527DPPE   PO452178  11.664   8.913   5.215 -0.1501  0.1632  0.1632
 2527DPPE   GL152179  11.706   8.845   4.794 -0.0659  0.0210 -0.0360
 2527DPPE   GL252180  11.826   8.569   4.636  0.0041 -0.0266  0.0931
 2527DPPE   C1A52181  11.610   9.059   4.395 -0.1545  0.4107  0.1684
 2527DPPE   C2A52182  11.476   9.073   4.042  0.1226  0.1980 -0.0680
 2527DPPE   C3A52183  11.251   8.800   3.755  0.3182 -0.1239 -0.0297
 2527DPPE   C4A52184  10.952   8.655   3.521  0.3268  0.1982  0.1095
 2527DPPE   C1B52185  11.565   8.479   4.330 -0.0986  0.1415 -0.0361
 2527DPPE   C2B52186  11.280   8.296   3.958 -0.0524 -0.1309 -0.4565
 2527DPPE   C3B52187  11.007   8.113   3.652  0.1318 -0.2851  0.0284
 2527DPPE   C4B52188  10.561   8.080   3.402 -0.0332  0.1493  0.1572
 2528DPPE   NH352189  16.167   2.103   7.914  0.0295 -0.0533  0.1808
 2528DPPE   PO452190  16.162   2.014   8.240  0.2726  0.2098 -0.0224
 2528DPPE   GL152191  16.073   2.269   8.588  0.0410  0.0897 -0.1117
 2528DPPE   GL252192  15.933   2.156   8.878 -0.2491  0.1511 -0.0120
 2528DPPE   C1A52193  16.105   2.664   8.778 -0.0348  0.2535 -0.2402
 2528DPPE   C2A52194  16.099   2.761   9.175 -0.0135  0.3013 -0.3247
 2528DPPE   C3A52195  15.971   2.991   9.583 -0.2477  0.1471  0.1421
 2528DPPE   C4A52196  15.840   3.209   9.898 -0.0158 -0.2210  0.0048
 2528DPPE   C1B52197  16.300   2.309   9.157  0.0315 -0.0522 -0.2493
 2528DPPE   C2B52198  16.467   2.573   9.583 -0.0472 -0.3637  0.0142
 2528DPPE   C3B52199  16.412   2.917   9.849  0.0130 -0.0343 -0.2588
 2528DPPE   C4B52200  16.606   2.956  10.277 -0.6286 -0.0133  0.1711
 2529DPPE   NH352201   9.271  10.916   6.614  0.2018 -0.0476  0.3220
 2529DPPE   PO452202   9.159  11.063   6.194 -0.3453  0.0262 -0.1822
 2529DPPE   GL152203   8.875  11.066   5.979  0.4540 -0.0054 -0.2797
 2529DPPE   GL252204   8.737  10.806   5.994 -0.1174  0.1556 -0.0790
 2529DPPE   C1A52205   8.574  11.122   5.640 -0.1331  0.0022  0.0007
 2529DPPE   C2A52206   8.284  11.206   5.404 -0.3780 -0.0231 -0.3039
 2529DPPE   C3A52207   8.268  11.411   5.028  0.1350 -0.0281 -0.1378
 2529DPPE   C4A52208   8.450  11.741   4.744 -0.3345 -0.1588 -0.1807
 2529DPPE   C1B52209   8.648  10.553   5.568  0.3153  0.0921  0.0202
 2529DPPE   C2B52210   8.452  10.334   5.317  0.3108  0.0659  0.1212
 2529DPPE   C3B52211   8.155  10.382   4.997  0.0767 -0.0230 -0.0628
 2529DPPE   C4B52212   7.717  10.480   5.037 -0.0230 -0.0054  0.2360
 2530DPPE   NH352213  11.619   9.511   6.415  0.5239  0.1712 -0.0971
 2530DPPE   PO452214  11.827   9.159   6.229  0.1389  0.0838  0.2075
 2530DPPE   GL152215  12.032   9.305   6.537 -0.0792 -0.0796 -0.4843
 2530DPPE   GL252216  12.221   9.432   6.461  0.1784 -0.2407 -0.0818
 2530DPPE   C1A52217  11.865   9.276   6.933  0.1797  0.1951  0.0215
 2530DPPE   C2A52218  11.520   9.132   7.314 -0.1657 -0.3006  0.0244
 2530DPPE   C3A52219  11.349   9.225   7.675  0.0378  0.1237 -0.3280
 2530DPPE   C4A52220  11.015   9.243   7.911 -0.1881  0.2864 -0.1158
 2530DPPE   C1B52221  12.473   9.613   6.838 -0.3472  0.3354 -0.2764
 2530DPPE   C2B52222  12.621  10.039   6.949  0.1920  0.3817 -0.3091
 2530DPPE   C3B52223  12.755  10.300   7.292  0.1144 -0.2312 -0.1652
 2530DPPE   C4B52224  13.009  10.561   7.603 -0.0330  0.3150 -0.1859
 2531DPPE   NH352225  15.954   2.192   7.021 -0.2866  0.0226  0.0375
 2531DPPE   PO452226  16.164   2.447   6.687 -0.1251  0.2252 -0.1017
 2531DPPE   GL152227  16.158   2.287   6.259 -0.1224  0.3479  0.1700
 2531DPPE   GL252228  16.252   2.604   6.055 -0.0353  0.2098  0.1840
 2531DPPE   C1A52229  15.996   2.165   5.804 -0.1270 -0.5882 -0.1631
 2531DPPE   C2A52230  16.034   2.334   5.351  0.0832  0.0539 -0.1238
 2531DPPE   C3A52231  15.831   2.028   5.014 -0.4634 -0.2764 -0.0355
 2531DPPE   C4A52232  15.628   2.087   4.657 -0.0785  0.1778 -0.1395
 2531DPPE   C1B52233  16.484   2.351   5.675 -0.2775  0.0422  0.3249
 2531DPPE   C2B52234  16.507   2.316   5.187 -0.0797 -0.1505 -0.0966
 2531DPPE   C3B52235  16.308   2.360   4.836  0.0501  0.0894  0.1297
 2531DPPE   C4B52236  16.323   2.198   4.414  0.0114 -0.0045 -0.2053
 2532DPPE   NH352237   9.260   0.132  14.674  0.2079  0.0713 -0.2053
 2532DPPE   PO452238   8.808   0.189  14.765  0.0453 -0.1806 -0.0810
 2532DPPE   GL152239   8.548   0.048  14.643 -0.0848  0.2561 -0.2393
 2532DPPE   GL252240   8.371  -0.170  14.466 -0.1016  0.2999 -0.3277
 2532DPPE   C1A52241   8.071   0.069  14.854  0.3015 -0.0049 -0.1655
 2532DPPE   C2A52242   7.553   0.019  14.911  0.1423  0.3315  0.0995
 2532DPPE   C3A52243   7.372  -0.264  15.161  0.0098  0.0069 -0.1691
 2532DPPE   C4A52244   6.980  -0.447  15.199  0.0475  0.0614 -0.1199
 2532DPPE   C1B52245   7.906  -0.258  14.447 -0.3276  0.0669  0.1085
 2532DPPE   C2B52246   7.485  -0.192  14.380  0.1704 -0.1182  0.2289
 2532DPPE   C3B52247   7.175  -0.502  14.132 -0.2234  0.0028  0.3937
 2532DPPE   C4B52248   6.886  -0.532  13.669 -0.1740  0.2395  0.3609
 2533DPPE   NH352249   5.249   7.212  15.351  0.1837  0.0583  0.3202
 2533DPPE   PO452250   5.353   7.590  15.416 -0.1793 -0.1873 -0.1465
 2533DPPE   GL152251   5.228   7.567  15.745 -0.0774  0.1832  0.0621
 2533DPPE   GL252252   5.172   7.808  15.830 -0.2002  0.1451 -0.1269
 2533DPPE   C1A52253   4.915   7.384  15.942 -0.1296 -0.0182  0.1785
 2533DPPE   C2A52254   4.601   7.539  16.191  0.1130  0.0607 -0.0253
 2533DPPE   C3A52255   4.264   7.776  16.378 -0.0663  0.2870 -0.0236
 2533DPPE   C4A52256   3.874   7.700  16.566  0.2436 -0.0607  0.2001
 2533DPPE   C1B52257   5.093   8.055  16.261 -0.3900 -0.3994 -0.2133
 2533DPPE   C2B52258   4.749   7.974  16.529  0.1592 -0.1281 -0.0952
 2533DPPE   C3B52259   4.636   7.767  16.992 -0.0921 -0.0159 -0.0262
 2533DPPE   C4B52260   4.663   7.546  17.434 -0.0870 -0.1614 -0.1550
 2534DPPE   NH352261  13.113   1.898   7.986 -0.2198  0.2663 -0.0722
 2534DPPE   PO452262  13.319   2.289   7.839 -0.1429  0.3042 -0.1238
 2534DPPE   GL152263  13.205   1.989   7.491 -0.0197  0.1757 -0.0172
 2534DPPE   GL252264  13.392   1.917   7.187 -0.1924  0.1251  0.1033
 2534DPPE   C1A52265  12.899   1.750   7.083 -0.1530  0.0068  0.0061
 2534DPPE   C2A52266  12.732   1.359   6.875 -0.0301  0.0900 -0.1554
 2534DPPE   C3A52267  12.700   1.070   6.422  0.0115 -0.1479  0.0542
 2534DPPE   C4A52268  12.418   0.628   6.344  0.2658 -0.2253  0.0335
 2534DPPE   C1B52269  13.362   1.530   6.888 -0.2065 -0.2517  0.2336
 2534DPPE   C2B52270  13.221   1.303   6.585  0.0988 -0.1779  0.2435
 2534DPPE   C3B52271  13.237   1.083   6.213  0.0670 -0.0955  0.1421
 2534DPPE   C4B52272  13.264   0.722   6.083  0.0284  0.0838 -0.0208
 2535DPPE   NH352273  12.518  34.798  13.129 -0.2610  0.1332  0.3726
 2535DPPE   PO452274  12.539  34.818  13.630 -0.0822  0.2515  0.1667
 2535DPPE   GL152275  12.631  34.650  14.010  0.1867  0.0589  0.1463
 2535DPPE   GL252276  12.842  34.608  14.199 -0.2345  0.0764  0.0540
 2535DPPE   C1A52277  12.247  34.326  13.999  0.1086  0.1927 -0.0978
 2535DPPE   C2A52278  12.124  33.961  13.939  0.1002  0.4450  0.0459
 2535DPPE   C3A52279  12.288  33.794  13.552 -0.1696  0.2360  0.0169
 2535DPPE   C4A52280  12.495  33.884  13.186 -0.1452 -0.1906 -0.1491
 2535DPPE   C1B52281  12.834  34.211  13.975  0.1331  0.1652  0.2316
 2535DPPE   C2B52282  12.877  33.710  13.912  0.0174  0.1702 -0.2378
 2535DPPE   C3B52283  12.700  33.495  13.510 -0.1861 -0.0913  0.1443
 2535DPPE   C4B52284  12.522  33.319  13.110 -0.1036 -0.1094 -0.0876
 2536DPPE   NH352285   8.014   4.427   9.625 -0.1421  0.1646 -0.1965
 2536DPPE   PO452286   7.659   4.754   9.494 -0.2585 -0.1242  0.1188
 2536DPPE   GL152287   7.466   4.543   9.159  0.0782 -0.1749 -0.0344
 2536DPPE   GL252288   7.181   4.411   9.272  0.1604 -0.1547  0.1311
 2536DPPE   C1A52289   7.265   4.445   8.790 -0.2816 -0.1096 -0.0464
 2536DPPE   C2A52290   7.202   4.130   8.562  0.0095  0.0452 -0.1082
 2536DPPE   C3A52291   6.901   3.991   8.292  0.1399 -0.1766  0.2084
 2536DPPE   C4A52292   6.763   3.938   7.881  0.1222  0.0944  0.0341
 2536DPPE   C1B52293   6.864   4.226   8.930 -0.1127 -0.1826  0.1622
 2536DPPE   C2B52294   6.605   4.114   8.708  0.3083  0.0315 -0.1280
 2536DPPE   C3B52295   6.234   4.007   8.567  0.1669  0.1273 -0.0624
 2536DPPE   C4B52296   5.910   3.777   8.429 -0.1115 -0.2431 -0.1792
 2537DPPE   NH352297  12.207   0.346  11.561  0.1432 -0.0300  0.0983
 2537DPPE   PO452298  12.661   0.244  11.820 -0.3071  0.0292  0.2847
 2537DPPE   GL152299  12.595   0.660  11.785 -0.2935 -0.2099  0.0907
 2537DPPE   GL252300  12.328   0.805  11.790 -0.1330 -0.4568 -0.0144
 2537DPPE   C1A52301  12.751   1.084  11.664 -0.1886 -0.3038 -0.1627
 2537DPPE   C2A52302  12.441   1.467  11.621  0.0887 -0.0763 -0.1820
 2537DPPE   C3A52303  12.289   1.970  11.633 -0.2173  0.2016 -0.1318
 2537DPPE   C4A52304  12.519   2.292  12.063  0.1539 -0.1870 -0.0700
 2537DPPE   C1B52305  12.485   1.111  12.148  0.0131 -0.2708 -0.1652
 2537DPPE   C2B52306  12.502   1.450  12.429 -0.3928 -0.1594  0.0685
 2537DPPE   C3B52307  12.249   1.785  12.525 -0.0315 -0.3448  0.0875
 2537DPPE   C4B52308  12.380   2.214  12.571 -0.1211 -0.1223 -0.1533
 2538DPPE   NH352309   9.346  10.169   6.441  0.3264 -0.1282  0.0382
 2538DPPE   PO452310   9.477  10.521   6.411 -0.3253  0.0107 -0.1741
 2538DPPE   GL152311   9.366  10.567   5.996  0.0335 -0.0848  0.3959
 2538DPPE   GL252312   9.442  10.790   5.856  0.0245  0.0394 -0.3559
 2538DPPE   C1A52313   9.118  10.255   5.752 -0.4661  0.2303  0.0233
 2538DPPE   C2A52314   8.931  10.163   5.423 -0.2072 -0.3084 -0.0806
 2538DPPE   C3A52315   8.805  10.000   5.100 -0.1012 -0.3854  0.3645
 2538DPPE   C4A52316   8.656  10.305   4.763 -0.1542  0.3241 -0.0974
 2538DPPE   C1B52317   9.086  10.796   5.666  0.0043  0.0185  0.1933
 2538DPPE   C2B52318   9.022  10.597   5.183  0.2503  0.2120 -0.1344
 2538DPPE   C3B52319   8.971  10.737   4.779  0.1809  0.4882  0.5399
 2538DPPE   C4B52320   8.892  10.632   4.335  0.0191 -0.2092  0.2221
 2539DPPE   NH352321  11.724   3.843   7.561  0.3885  0.3104  0.2865
 2539DPPE   PO452322  11.319   3.549   7.384  0.0761  0.0015  0.1067
 2539DPPE   GL152323  11.113   3.438   7.006 -0.4990  0.0360  0.0276
 2539DPPE   GL252324  11.409   3.381   6.903 -0.2209  0.1757 -0.4591
 2539DPPE   C1A52325  10.837   3.236   6.686  0.0639 -0.2819 -0.0841
 2539DPPE   C2A52326  10.427   3.086   6.714 -0.0207 -0.2422 -0.0948
 2539DPPE   C3A52327  10.114   3.195   6.584  0.0139  0.0435 -0.0439
 2539DPPE   C4A52328   9.730   3.124   6.213 -0.0057 -0.1333  0.3900
 2539DPPE   C1B52329  11.417   3.273   6.498 -0.2877 -0.2105  0.4416
 2539DPPE   C2B52330  11.469   3.089   6.226  0.0893  0.0683 -0.2880
 2539DPPE   C3B52331  11.268   2.780   5.958  0.1632  0.1719 -0.0783
 2539DPPE   C4B52332  10.870   2.625   6.032  0.0177  0.2172  0.1675
 2540DPPE   NH352333   5.537   3.977  13.724 -0.0890  0.0677  0.2498
 2540DPPE   PO452334   6.047   3.851  13.915 -0.2242  0.1875  0.0330
 2540DPPE   GL152335   5.709   3.527  13.977 -0.0301 -0.0628  0.0478
 2540DPPE   GL252336   5.671   3.464  14.340  0.0656 -0.0230  0.2142
 2540DPPE   C1A52337   5.313   3.340  13.766 -0.3042 -0.1284  0.3388
 2540DPPE   C2A52338   5.179   3.265  13.374  0.1723 -0.1383 -0.0996
 2540DPPE   C3A52339   5.040   2.818  13.398  0.0122 -0.1853  0.1673
 2540DPPE   C4A52340   4.779   2.517  13.446 -0.1187  0.0311  0.0514
 2540DPPE   C1B52341   5.446   3.249  14.659 -0.0524 -0.3431  0.3802
 2540DPPE   C2B52342   5.187   3.061  14.634  0.0299 -0.0846 -0.1496
 2540DPPE   C3B52343   4.936   2.648  14.791  0.1120  0.1442 -0.2454
 2540DPPE   C4B52344   4.953   2.115  14.678  0.1148  0.0538  0.0862
 2541DPPE   NH352345  11.031  35.632  13.096 -0.0209  0.0298 -0.2282
 2541DPPE   PO452346  11.194  35.539  13.541 -0.0610  0.1301  0.0200
 2541DPPE   GL152347  11.185  35.117  13.360  0.0547 -0.1926 -0.4294
 2541DPPE   GL252348  11.133  34.996  13.721 -0.0738  0.0660 -0.0762
 2541DPPE   C1A52349  10.914  34.794  13.142  0.0152  0.7194  0.3654
 2541DPPE   C2A52350  10.911  34.350  12.975 -0.6050  0.1841  0.0257
 2541DPPE   C3A52351  11.321  34.078  12.866  0.1417  0.0577  0.0066
 2541DPPE   C4A52352  11.606  33.819  13.094  0.1442  0.1422 -0.0518
 2541DPPE   C1B52353  10.967  34.796  14.115 -0.0316 -0.1281 -0.1038
 2541DPPE   C2B52354  10.739  34.478  14.308 -0.3395 -0.0423  0.1865
 2541DPPE   C3B52355  10.395  34.265  14.421 -0.2906  0.0464 -0.0000
 2541DPPE   C4B52356  10.086  34.122  14.141  0.0186 -0.0476 -0.2011
 2542DPPE   NH352357  10.915   5.390   6.601  0.3546  0.5153 -0.2566
 2542DPPE   PO452358  10.829   5.110   6.910 -0.2768  0.2903 -0.0616
 2542DPPE   GL152359  10.512   4.752   6.675  0.0691  0.0499  0.3719
 2542DPPE   GL252360  10.366   5.013   6.608 -0.1747 -0.1448  0.0753
 2542DPPE   C1A52361  10.544   4.532   6.386  0.1998  0.0593  0.4460
 2542DPPE   C2A52362  10.365   4.390   6.041  0.2758 -0.0576 -0.2272
 2542DPPE   C3A52363  10.259   4.384   5.566 -0.1643  0.0892  0.1125
 2542DPPE   C4A52364  10.180   4.057   5.408  0.2206  0.1407 -0.2845
 2542DPPE   C1B52365  10.127   4.817   6.306 -0.0327 -0.1470  0.1968
 2542DPPE   C2B52366   9.920   4.636   5.889 -0.1077 -0.1317 -0.1658
 2542DPPE   C3B52367   9.747   4.361   5.479 -0.0555  0.2102  0.1759
 2542DPPE   C4B52368   9.610   4.060   5.154 -0.2284  0.1296 -0.0326
 2543DPPE   NH352369  13.254   9.619   4.895 -0.3272 -0.0473  0.0561
 2543DPPE   PO452370  12.781   9.643   4.928  0.0294  0.0372 -0.1716
 2543DPPE   GL152371  12.825   9.621   4.493 -0.1841 -0.1388 -0.0767
 2543DPPE   GL252372  13.139   9.711   4.399 -0.1728 -0.0716 -0.2805
 2543DPPE   C1A52373  12.537   9.653   4.062  0.2863  0.1531  0.1110
 2543DPPE   C2A52374  12.216   9.511   3.752 -0.2410  0.0866 -0.2289
 2543DPPE   C3A52375  11.992   9.469   3.405  0.2467 -0.1044 -0.0059
 2543DPPE   C4A52376  11.632   9.503   3.165 -0.1734  0.1558 -0.2169
 2543DPPE   C1B52377  13.604   9.915   4.369  0.3403 -0.2630  0.0782
 2543DPPE   C2B52378  13.784  10.198   4.223 -0.0054 -0.1634  0.3837
 2543DPPE   C3B52379  13.803  10.653   4.222  0.1306  0.1019  0.0485
 2543DPPE   C4B52380  13.477  10.922   4.440 -0.2558 -0.1378 -0.0592
 2544DPPE   NH352381  12.115   0.284  13.431  0.0545 -0.0283  0.2939
 2544DPPE   PO452382  11.668   0.233  13.264 -0.1620 -0.0604  0.0396
 2544DPPE   GL152383  11.622   0.639  13.372  0.1154  0.1478  0.1112
 2544DPPE   GL252384  11.797   0.647  13.607 -0.0692 -0.0769  0.0598
 2544DPPE   C1A52385  11.300   1.003  13.312  0.0613  0.0041  0.1026
 2544DPPE   C2A52386  11.012   1.327  13.289  0.0711  0.0610 -0.1722
 2544DPPE   C3A52387  10.565   1.471  13.453  0.0560 -0.0415 -0.1729
 2544DPPE   C4A52388  10.394   1.773  13.671  0.1412  0.2526  0.1639
 2544DPPE   C1B52389  12.127   0.879  13.348  0.0593 -0.2277  0.0045
 2544DPPE   C2B52390  11.872   1.042  13.044 -0.1098 -0.0810 -0.0902
 2544DPPE   C3B52391  11.715   1.469  13.328  0.2332 -0.1178  0.2521
 2544DPPE   C4B52392  11.785   1.728  13.687 -0.1854  0.0296  0.1469
 2545DPPE   NH352393   4.874   9.134  13.774  0.2270 -0.0654  0.2381
 2545DPPE   PO452394   4.821   8.782  13.735  0.3158  0.0835 -0.1431
 2545DPPE   GL152395   4.393   8.898  13.940  0.1852  0.1197 -0.3174
 2545DPPE   GL252396   4.350   9.210  13.845 -0.0501  0.0554  0.0818
 2545DPPE   C1A52397   3.985   8.688  14.038  0.2657  0.0683  0.3245
 2545DPPE   C2A52398   3.529   8.700  13.942 -0.4219  0.2511 -0.1976
 2545DPPE   C3A52399   3.119   8.575  13.754  0.0312 -0.0484 -0.2329
 2545DPPE   C4A52400   2.880   8.222  13.559 -0.0293 -0.2150  0.3141
 2545DPPE   C1B52401   4.289   9.671  13.730  0.2005  0.1521  0.0070
 2545DPPE   C2B52402   4.208  10.093  13.679  0.2788  0.0262  0.0466
 2545DPPE   C3B52403   4.536  10.363  13.404 -0.0812 -0.1573 -0.1775
 2545DPPE   C4B52404   4.934  10.560  13.536 -0.0998  0.1530 -0.0746
 2546DPPE   NH352405  12.262   4.848   5.984  0.4041 -0.0625  0.2616
 2546DPPE   PO452406  11.932   4.960   6.284 -0.0503  0.0859 -0.0313
 2546DPPE   GL152407  11.441   4.717   6.164  0.0027  0.1632 -0.0219
 2546DPPE   GL252408  11.158   4.877   5.970 -0.1897  0.1333 -0.2083
 2546DPPE   C1A52409  11.317   4.381   5.832 -0.3585  0.2517  0.1217
 2546DPPE   C2A52410  11.105   4.401   5.407 -0.2629 -0.3793 -0.0285
 2546DPPE   C3A52411  10.705   4.480   5.153 -0.1365  0.2479  0.0246
 2546DPPE   C4A52412  10.362   4.368   4.913 -0.2610 -0.1115  0.0961
 2546DPPE   C1B52413  10.908   4.857   5.656  0.3643  0.0766  0.1219
 2546DPPE   C2B52414  10.604   4.728   5.540  0.3986 -0.1871  0.1324
 2546DPPE   C3B52415  10.276   4.811   5.170  0.1456  0.2924 -0.0845
 2546DPPE   C4B52416  10.138   4.868   4.783 -0.0039  0.0307 -0.2288
 2547DPPE   NH352417  11.639   5.890   5.989 -0.3195 -0.0426 -0.1231
 2547DPPE   PO452418  11.343   6.228   6.023  0.0225  0.1979 -0.1540
 2547DPPE   GL152419  11.131   5.930   5.742 -0.0088 -0.0072 -0.0080
 2547DPPE   GL252420  10.848   5.912   6.021 -0.0056  0.0006 -0.1459
 2547DPPE   C1A52421  10.863   5.696   5.394 -0.1445 -0.3219 -0.1514
 2547DPPE   C2A52422  10.789   5.443   4.934  0.1604  0.1012 -0.1561
 2547DPPE   C3A52423  10.809   5.358   4.449  0.2328  0.0614 -0.3047
 2547DPPE   C4A52424  10.799   5.728   4.113  0.1216 -0.0102  0.1237
 2547DPPE   C1B52425  10.560   5.862   5.737 -0.0528 -0.1393  0.5410
 2547DPPE   C2B52426  10.254   5.576   5.693  0.3088 -0.1333 -0.0110
 2547DPPE   C3B52427   9.887   5.429   5.699  0.1163  0.0848 -0.0363
 2547DPPE   C4B52428   9.563   5.162   5.445 -0.3206 -0.2134 -0.1102
 2548DPPE   NH352429   7.975  11.665   8.626  0.0365  0.0829 -0.0016
 2548DPPE   PO452430   8.423  11.567   8.526 -0.0545 -0.0032 -0.0798
 2548DPPE   GL152431   8.588  11.957   8.486 -0.1109  0.0000  0.0515
 2548DPPE   GL252432   8.803  11.883   8.229 -0.0659  0.1855 -0.1255
 2548DPPE   C1A52433   8.893  12.255   8.720  0.1060  0.5013 -0.1114
 2548DPPE   C2A52434   9.169  12.488   8.955 -0.1612  0.0852 -0.0005
 2548DPPE   C3A52435   9.421  12.643   9.325 -0.1650  0.1676 -0.1577
 2548DPPE   C4A52436   9.621  12.677   9.782  0.1793  0.0151 -0.0954
 2548DPPE   C1B52437   8.792  12.285   8.128  0.2221  0.0997 -0.2004
 2548DPPE   C2B52438   8.911  12.671   8.234 -0.0500  0.0755  0.1012
 2548DPPE   C3B52439   9.196  12.860   8.020 -0.1681 -0.0982  0.2059
 2548DPPE   C4B52440   9.178  12.909   7.629 -0.2292 -0.0869  0.2847
 2549DPPE   NH352441  10.303  10.854   5.422 -0.3038  0.0967 -0.0974
 2549DPPE   PO452442  10.398  11.263   5.660 -0.0089 -0.0586 -0.0165
 2549DPPE   GL152443  10.271  11.434   5.251 -0.1190  0.4074  0.4109
 2549DPPE   GL252444  10.125  11.662   5.276 -0.1891  0.2303 -0.1147
 2549DPPE   C1A52445  10.227  11.490   4.801  0.0466 -0.3772  0.1090
 2549DPPE   C2A52446  10.269  11.572   4.356  0.1545 -0.2692  0.1618
 2549DPPE   C3A52447  10.380  11.423   4.022 -0.0614  0.0181  0.0019
 2549DPPE   C4A52448  10.624  11.160   3.700 -0.0804  0.2295  0.2979
 2549DPPE   C1B52449   9.757  11.705   4.931  0.1284  0.3958  0.0311
 2549DPPE   C2B52450   9.714  11.658   4.473  0.1914 -0.0977 -0.2408
 2549DPPE   C3B52451   9.302  11.458   4.358 -0.1855  0.0175  0.0583
 2549DPPE   C4B52452   9.002  11.214   4.322 -0.2684 -0.1242 -0.0594
 2550DPPE   NH352453  14.400   6.715   5.440 -0.1998 -0.3074  0.1628
 2550DPPE   PO452454  14.253   7.045   5.771  0.1214 -0.3952 -0.2825
 2550DPPE   GL152455  14.146   7.240   6.128  0.0589 -0.1427  0.1231
 2550DPPE   GL252456  14.197   7.208   6.451 -0.1616  0.2866 -0.1806
 2550DPPE   C1A52457  14.187   7.650   6.312  0.3784 -0.0244 -0.2464
 2550DPPE   C2A52458  14.565   7.816   6.429 -0.0398 -0.0215  0.0019
 2550DPPE   C3A52459  14.628   7.995   6.789  0.0038 -0.1114 -0.2839
 2550DPPE   C4A52460  14.810   8.282   7.034  0.3565  0.1066 -0.0279
 2550DPPE   C1B52461  14.362   7.514   6.790 -0.2202 -0.1889 -0.2514
 2550DPPE   C2B52462  14.385   7.778   7.179 -0.1114  0.1480  0.0817
 2550DPPE   C3B52463  14.520   8.089   7.446  0.2625 -0.2075  0.0451
 2550DPPE   C4B52464  14.911   8.198   7.649 -0.2788  0.0902 -0.1171
 2551DPPE   NH352465  16.638   2.234   7.848  0.1945  0.2574  0.1720
 2551DPPE   PO452466  16.699   2.503   7.556 -0.1217 -0.2833 -0.2759
 2551DPPE   GL152467  16.819   2.683   7.905 -0.0002 -0.3021 -0.0525
 2551DPPE   GL252468  17.202   2.728   7.959  0.3848  0.0071 -0.2550
 2551DPPE   C1A52469  16.832   2.852   8.282  0.1922  0.0131 -0.0451
 2551DPPE   C2A52470  16.815   2.988   8.672  0.0388 -0.4378 -0.5183
 2551DPPE   C3A52471  16.971   2.967   9.024 -0.1389  0.0912 -0.1217
 2551DPPE   C4A52472  17.111   3.171   9.402 -0.2085 -0.0007  0.3019
 2551DPPE   C1B52473  17.648   2.730   8.235 -0.2129 -0.0874  0.1154
 2551DPPE   C2B52474  17.984   2.515   8.358  0.0773 -0.1064 -0.0142
 2551DPPE   C3B52475  18.444   2.682   8.533 -0.1105 -0.0782  0.0010
 2551DPPE   C4B52476  18.908   2.821   8.669  0.2656 -0.0127 -0.1200
 2552DPPE   NH352477   8.108   9.216   7.408  0.3398 -0.1019  0.0488
 2552DPPE   PO452478   8.267   9.496   7.072 -0.0611  0.1870 -0.1852
 2552DPPE   GL152479   7.899   9.430   6.934 -0.0727 -0.1592 -0.3854
 2552DPPE   GL252480   7.844   9.065   6.796 -0.0208 -0.1070  0.0351
 2552DPPE   C1A52481   7.639   9.601   6.652 -0.0561 -0.0129 -0.2965
 2552DPPE   C2A52482   7.261   9.487   6.502 -0.1458 -0.0550  0.0512
 2552DPPE   C3A52483   6.923   9.594   6.439 -0.0108 -0.2605 -0.2969
 2552DPPE   C4A52484   6.504   9.637   6.331  0.1634  0.0986  0.0900
 2552DPPE   C1B52485   7.560   9.072   6.503 -0.3750 -0.0906 -0.1264
 2552DPPE   C2B52486   7.188   9.147   6.196 -0.4291  0.5065  0.0838
 2552DPPE   C3B52487   6.861   9.267   6.033  0.0779  0.1272 -0.0354
 2552DPPE   C4B52488   6.451   9.552   5.823  0.1693 -0.0870 -0.0642
 2553DPPE   NH352489   7.039   6.943  10.749 -0.1492 -0.3703 -0.6057
 2553DPPE   PO452490   7.146   7.459  10.748 -0.1172  0.0777  0.1567
 2553DPPE   GL152491   7.414   7.718  10.815  0.0448  0.0704  0.1279
 2553DPPE   GL252492   7.559   8.019  10.744 -0.4615  0.0608 -0.0953
 2553DPPE   C1A52493   7.813   7.748  11.115  0.1323 -0.1638  0.1058
 2553DPPE   C2A52494   8.168   7.957  11.115  0.1626  0.0262  0.1588
 2553DPPE   C3A52495   8.603   7.896  11.260  0.1531 -0.1836 -0.0919
 2553DPPE   C4A52496   8.983   7.861  11.503 -0.2548  0.0142  0.0169
 2553DPPE   C1B52497   7.905   8.072  10.741 -0.1022  0.0311 -0.0514
 2553DPPE   C2B52498   8.285   8.049  10.523 -0.1072 -0.2532  0.1221
 2553DPPE   C3B52499   8.510   8.068  10.022  0.0640  0.2769 -0.3467
 2553DPPE   C4B52500   8.731   7.843   9.684  0.0251  0.0104  0.2413
 2554DPPE   NH352501  14.612   0.035   8.771  0.1456  0.2951 -0.0044
 2554DPPE   PO452502  14.922   0.337   8.655  0.3817 -0.1473 -0.0567
 2554DPPE   GL152503  14.781   0.142   8.280 -0.1233 -0.1776  0.0188
 2554DPPE   GL252504  14.395   0.229   8.104  0.1262  0.1462  0.1398
 2554DPPE   C1A52505  14.829  -0.239   8.033  0.0464 -0.4420  0.2832
 2554DPPE   C2A52506  14.768  -0.644   7.912  0.1061  0.0096  0.1293
 2554DPPE   C3A52507  14.519  -0.988   7.688 -0.4383 -0.1559 -0.2340
 2554DPPE   C4A52508  14.535  -1.441   7.798  0.3160  0.4027  0.0653
 2554DPPE   C1B52509  14.372  -0.032   7.731 -0.1028 -0.0925  0.1453
 2554DPPE   C2B52510  14.435  -0.040   7.288 -0.1571  0.1047  0.2704
 2554DPPE   C3B52511  14.380   0.067   6.881  0.2363 -0.3092 -0.0659
 2554DPPE   C4B52512  14.405   0.088   6.433 -0.0942  0.3162 -0.0178
 2555DPPE   NH352513  10.465   0.407  11.307  0.0338 -0.3325 -0.0704
 2555DPPE   PO452514  10.336   0.879  11.196 -0.4718  0.2243  0.0001
 2555DPPE   GL152515  10.242   0.547  10.892  0.0932  0.3252  0.2660
 2555DPPE   GL252516  10.081   0.235  10.961  0.1558 -0.1700 -0.0645
 2555DPPE   C1A52517  10.120   0.413  10.530 -0.4294  0.1585  0.0392
 2555DPPE   C2A52518   9.974   0.032  10.317 -0.0693  0.0322  0.1727
 2555DPPE   C3A52519   9.785  -0.251  10.052 -0.2283 -0.0326  0.0994
 2555DPPE   C4A52520   9.708  -0.555   9.770 -0.2801 -0.0993 -0.1799
 2555DPPE   C1B52521   9.659   0.125  10.897 -0.1687 -0.3354 -0.2412
 2555DPPE   C2B52522   9.498  -0.013  10.600  0.1761  0.1977 -0.2069
 2555DPPE   C3B52523   9.372  -0.357  10.338  0.4289 -0.3055 -0.0428
 2555DPPE   C4B52524   9.269  -0.532   9.981 -0.0394  0.2264  0.0319
 2556DPPE   NH352525   9.059   1.912  14.513  0.0049 -0.0835  0.2153
 2556DPPE   PO452526   9.221   2.183  14.070  0.0280  0.0802  0.1923
 2556DPPE   GL152527   9.126   2.620  14.132  0.0936 -0.3558 -0.1254
 2556DPPE   GL252528   9.146   2.719  14.472 -0.3012  0.0140  0.3114
 2556DPPE   C1A52529   9.393   2.986  13.982 -0.1834 -0.1642  0.1992
 2556DPPE   C2A52530   9.804   3.111  13.906 -0.1023 -0.1202 -0.1038
 2556DPPE   C3A52531  10.175   3.336  13.901 -0.0809  0.1448 -0.2163
 2556DPPE   C4A52532  10.543   3.544  13.602 -0.1513  0.2351 -0.0953
 2556DPPE   C1B52533   9.366   3.163  14.479 -0.0719 -0.0900 -0.2339
 2556DPPE   C2B52534   9.738   3.410  14.394 -0.2676 -0.0247 -0.1460
 2556DPPE   C3B52535  10.280   3.422  14.377  0.0337  0.1504  0.1417
 2556DPPE   C4B52536  10.624   3.568  14.315  0.0246  0.0780 -0.0301
 2557DPPE   NH352537  13.617   5.702   6.709  0.0071  0.1715 -0.0048
 2557DPPE   PO452538  13.390   6.083   6.930 -0.1338 -0.1251  0.2884
 2557DPPE   GL152539  13.380   6.143   7.253  0.1435  0.0015  0.0234
 2557DPPE   GL252540  13.224   5.917   7.471 -0.3147  0.2470  0.5127
 2557DPPE   C1A52541  13.358   6.392   7.571 -0.1943 -0.1171  0.2167
 2557DPPE   C2A52542  13.699   6.399   7.994  0.3194 -0.1205  0.0627
 2557DPPE   C3A52543  13.730   6.425   8.463  0.0282  0.2111 -0.0671
 2557DPPE   C4A52544  13.889   6.493   8.935  0.2732 -0.3599  0.1853
 2557DPPE   C1B52545  13.160   5.884   7.779 -0.1425  0.0698  0.0709
 2557DPPE   C2B52546  13.322   5.925   8.069 -0.2643 -0.0163 -0.1492
 2557DPPE   C3B52547  13.298   6.137   8.465 -0.0843 -0.0019  0.0247
 2557DPPE   C4B52548  13.399   6.484   8.837 -0.2148  0.0633  0.0711
 2558DPPE   NH352549  12.475   5.651   6.840 -0.0010 -0.0939  0.1173
 2558DPPE   PO452550  12.575   6.047   6.748 -0.3227  0.0600  0.1684
 2558DPPE   GL152551  12.590   6.083   7.132  0.0994 -0.0014 -0.0995
 2558DPPE   GL252552  12.347   5.876   7.283  0.0452 -0.1802 -0.0484
 2558DPPE   C1A52553  12.808   6.221   7.508 -0.2258 -0.3296  0.0163
 2558DPPE   C2A52554  12.915   6.320   7.938  0.2542  0.0748 -0.1249
 2558DPPE   C3A52555  12.834   6.613   8.212  0.2091  0.1441  0.0654
 2558DPPE   C4A52556  12.911   6.647   8.646  0.2840 -0.2165  0.1946
 2558DPPE   C1B52557  12.302   6.252   7.524  0.3840  0.0586 -0.1895
 2558DPPE   C2B52558  12.444   6.424   7.953  0.1271 -0.0364 -0.2792
 2558DPPE   C3B52559  12.360   6.703   8.262 -0.0596  0.2413 -0.0351
 2558DPPE   C4B52560  12.525   6.954   8.563  0.3171 -0.0346 -0.2326
 2559DPPE   NH352561   8.169   2.213  16.469  0.4137 -0.3388  0.2952
 2559DPPE   PO452562   8.258   1.724  16.336 -0.0639 -0.2537 -0.1671
 2559DPPE   GL152563   8.444   1.434  16.635  0.2721  0.2263  0.0614
 2559DPPE   GL252564   8.212   1.261  16.733  0.1163  0.2347 -0.1839
 2559DPPE   C1A52565   8.761   1.494  17.017 -0.0487  0.2554  0.2498
 2559DPPE   C2A52566   8.770   1.694  17.362  0.1760  0.1812  0.2360
 2559DPPE   C3A52567   8.915   1.646  17.748 -0.1262 -0.4021 -0.0518
 2559DPPE   C4A52568   9.066   1.354  18.050  0.0342  0.0520  0.0789
 2559DPPE   C1B52569   8.462   0.951  16.958  0.0465 -0.5472  0.0781
 2559DPPE   C2B52570   8.712   0.600  16.977 -0.1304 -0.1769 -0.0508
 2559DPPE   C3B52571   9.139   0.629  16.768 -0.1459 -0.1437 -0.1365
 2559DPPE   C4B52572   9.521   0.572  16.909 -0.1908  0.4563 -0.1727
 2560DPPE   NH352573  13.893   0.057  12.142 -0.0270  0.2049  0.0357
 2560DPPE   PO452574  14.164  -0.112  12.375  0.0239  0.0086  0.2692
 2560DPPE   GL152575  14.385   0.086  12.571 -0.0660  0.2268  0.1243
 2560DPPE   GL252576  14.348   0.025  12.882  0.0353 -0.1978 -0.0795
 2560DPPE   C1A52577  14.569   0.500  12.626  0.0276  0.2811 -0.1193
 2560DPPE   C2A52578  14.800   0.783  12.431 -0.0335  0.3029 -0.3235
 2560DPPE   C3A52579  15.265   0.884  12.077  0.1491 -0.1243  0.0756
 2560DPPE   C4A52580  15.195   1.361  11.964 -0.3286  0.0505 -0.2020
 2560DPPE   C1B52581  14.414   0.345  13.148 -0.0278 -0.1048 -0.2042
 2560DPPE   C2B52582  14.319   0.767  13.180 -0.0863  0.1649 -0.3406
 2560DPPE   C3B52583  14.076   1.075  13.385  0.2210 -0.1823  0.0490
 2560DPPE   C4B52584  13.797   1.297  13.800  0.0401 -0.0565 -0.1180
 2561DPPE   NH352585  14.441   3.193   7.825 -0.3663  0.0908  0.2011
 2561DPPE   PO452586  14.852   3.056   7.743  0.1583  0.2367  0.0284
 2561DPPE   GL152587  14.901   3.022   8.182  0.1041 -0.0639 -0.0444
 2561DPPE   GL252588  14.703   3.186   8.325  0.1459 -0.3563  0.0069
 2561DPPE   C1A52589  15.291   3.280   8.345  0.0211 -0.2163  0.0235
 2561DPPE   C2A52590  15.481   3.402   8.639  0.0429  0.2492 -0.0138
 2561DPPE   C3A52591  15.681   3.614   9.078 -0.1678  0.0196 -0.0168
 2561DPPE   C4A52592  15.829   3.948   9.429 -0.2957  0.0033 -0.1762
 2561DPPE   C1B52593  14.876   3.372   8.732  0.0806  0.2501 -0.1286
 2561DPPE   C2B52594  14.730   3.625   9.144 -0.0525 -0.0515 -0.0552
 2561DPPE   C3B52595  14.955   3.933   9.331  0.2762  0.2677  0.1205
 2561DPPE   C4B52596  15.262   3.912   9.651 -0.0550 -0.1725 -0.1463
 2562DPPE   NH352597   8.293   1.561  11.919 -0.2293 -0.0857  0.0997
 2562DPPE   PO452598   8.005   1.813  11.988  0.0498 -0.4778  0.1759
 2562DPPE   GL152599   7.784   1.559  11.939  0.0468  0.0998 -0.1694
 2562DPPE   GL252600   7.691   1.357  12.146 -0.0314 -0.0060 -0.2883
 2562DPPE   C1A52601   7.728   1.123  11.671  0.1465  0.2051  0.0472
 2562DPPE   C2A52602   7.467   0.791  11.750 -0.2007  0.2383 -0.0082
 2562DPPE   C3A52603   7.121   0.401  11.612 -0.1816  0.0962 -0.1105
 2562DPPE   C4A52604   7.041   0.244  11.208  0.0316  0.0247 -0.0776
 2562DPPE   C1B52605   7.490   0.998  12.175  0.1289  0.0165 -0.1208
 2562DPPE   C2B52606   7.364   0.628  12.294  0.0528  0.0300  0.1060
 2562DPPE   C3B52607   7.055   0.309  12.115  0.1558 -0.1841  0.1792
 2562DPPE   C4B52608   6.692   0.367  12.062 -0.1352 -0.0880 -0.0312
 2563DPPE   NH352609   6.863   5.857   9.787  0.1089 -0.0216 -0.2884
 2563DPPE   PO452610   6.631   5.806  10.156  0.1896  0.1312  0.1973
 2563DPPE   GL152611   6.223   5.663  10.029  0.1459  0.1099  0.0001
 2563DPPE   GL252612   6.327   5.702   9.703  0.1859 -0.1373 -0.0275
 2563DPPE   C1A52613   5.814   5.311   9.938  0.3474  0.2686 -0.0518
 2563DPPE   C2A52614   5.423   5.285   9.756 -0.3628  0.2865  0.1445
 2563DPPE   C3A52615   5.190   5.011   9.495 -0.0609 -0.3451 -0.4196
 2563DPPE   C4A52616   5.232   4.936   9.056  0.0836 -0.2532  0.0426
 2563DPPE   C1B52617   5.950   5.533   9.537 -0.0221 -0.1087  0.0147
 2563DPPE   C2B52618   5.597   5.460   9.334 -0.1633  0.2742  0.2661
 2563DPPE   C3B52619   5.256   5.441   9.128 -0.0660 -0.0189 -0.0420
 2563DPPE   C4B52620   4.958   5.743   9.007 -0.1635 -0.0861  0.1149
 2564DPPE   NH352621  13.764   8.945   5.512  0.0254 -0.2173 -0.2466
 2564DPPE   PO452622  14.175   8.799   5.538  0.5014 -0.2346 -0.0945
 2564DPPE   GL152623  14.490   9.111   5.598  0.0570  0.2368  0.0912
 2564DPPE   GL252624  14.495   9.375   5.433 -0.0709 -0.0380 -0.1074
 2564DPPE   C1A52625  14.931   9.181   5.794 -0.2852  0.1573 -0.0131
 2564DPPE   C2A52626  15.070   9.375   6.128  0.0293  0.0235  0.0679
 2564DPPE   C3A52627  15.176   9.638   6.526  0.3688 -0.1984  0.1307
 2564DPPE   C4A52628  15.230   9.927   6.811 -0.1423  0.0515 -0.2153
 2564DPPE   C1B52629  14.616   9.574   5.944 -0.2885 -0.2195  0.3371
 2564DPPE   C2B52630  14.869   9.835   6.102 -0.0154 -0.3088  0.2832
 2564DPPE   C3B52631  15.021  10.245   5.874 -0.0044  0.0028  0.3167
 2564DPPE   C4B52632  15.465  10.352   5.836 -0.0709 -0.0292 -0.1159
 2565DPPE   NH352633   6.117   4.574  11.922 -0.0685 -0.4364  0.2363
 2565DPPE   PO452634   5.785   4.658  12.199  0.2168 -0.2364  0.2877
 2565DPPE   GL152635   5.556   4.413  12.129  0.0228 -0.0476 -0.1188
 2565DPPE   GL252636   5.571   4.164  12.158  0.1970  0.0163 -0.2186
 2565DPPE   C1A52637   5.096   4.446  11.966 -0.2242  0.1077  0.3154
 2565DPPE   C2A52638   4.748   4.310  11.920  0.1670 -0.2700  0.0577
 2565DPPE   C3A52639   4.458   4.605  11.755  0.1605 -0.1256  0.1799
 2565DPPE   C4A52640   4.060   4.758  11.620  0.0655  0.3281  0.3974
 2565DPPE   C1B52641   5.236   3.783  12.096 -0.1451 -0.0484 -0.0962
 2565DPPE   C2B52642   5.008   3.384  12.004 -0.2893  0.0661 -0.2379
 2565DPPE   C3B52643   4.616   3.342  12.029  0.5954 -0.1104  0.1183
 2565DPPE   C4B52644   4.346   3.339  12.265  0.1606  0.0271 -0.1746
 2566DPPE   NH352645   8.980   0.603  16.049  0.0137  0.1050 -0.0709
 2566DPPE   PO452646   9.353   0.408  16.159 -0.4508 -0.0974  0.0280
 2566DPPE   GL152647   9.336   0.239  16.510  0.1328 -0.3202 -0.2477
 2566DPPE   GL252648   8.993   0.255  16.480 -0.3912  0.2975 -0.0329
 2566DPPE   C1A52649   9.461   0.078  16.833 -0.3405 -0.1557  0.0101
 2566DPPE   C2A52650   9.746  -0.183  16.795  0.2096 -0.0295 -0.1809
 2566DPPE   C3A52651  10.025  -0.357  16.495  0.1741  0.2482  0.3363
 2566DPPE   C4A52652  10.466  -0.557  16.667 -0.2131  0.0006 -0.1501
 2566DPPE   C1B52653   8.998   0.092  16.894 -0.0501 -0.1374 -0.2622
 2566DPPE   C2B52654   9.243   0.092  17.329  0.1881  0.1469  0.0430
 2566DPPE   C3B52655   9.599  -0.020  17.715  0.1393  0.1060  0.1466
 2566DPPE   C4B52656   9.907   0.273  17.950  0.2692 -0.0796 -0.1211
 2567DPPE   NH352657  13.834   8.443   5.580  0.1234  0.0750  0.2373
 2567DPPE   PO452658  13.550   8.578   5.792 -0.2538  0.2411 -0.0163
 2567DPPE   GL152659  13.995   8.642   5.991  0.2994 -0.2904  0.0852
 2567DPPE   GL252660  13.803   8.882   6.100  0.2118 -0.0039  0.1493
 2567DPPE   C1A52661  14.298   8.855   6.204  0.0153  0.0237  0.0578
 2567DPPE   C2A52662  14.555   9.106   6.124  0.1046  0.0687 -0.1053
 2567DPPE   C3A52663  14.618   9.416   6.449 -0.1468  0.0431 -0.1399
 2567DPPE   C4A52664  14.416   9.800   6.732  0.1208 -0.0688 -0.0528
 2567DPPE   C1B52665  13.987   9.266   6.239  0.0283  0.2235  0.0514
 2567DPPE   C2B52666  14.090   9.620   6.157  0.5269 -0.0312 -0.0483
 2567DPPE   C3B52667  14.070   9.892   6.401  0.1537  0.1818 -0.1370
 2567DPPE   C4B52668  13.704  10.059   6.654 -0.2485 -0.1223  0.2761
 2568DPPE   NH352669   5.588   4.034  15.131 -0.1625  0.0951 -0.0307
 2568DPPE   PO452670   5.602   3.961  15.535  0.3958 -0.1617 -0.0918
 2568DPPE   GL152671   5.223   3.878  15.531 -0.2181  0.1072 -0.0939
 2568DPPE   GL252672   5.073   4.155  15.404  0.0165 -0.1985 -0.0581
 2568DPPE   C1A52673   4.862   3.704  15.402 -0.1231 -0.2767 -0.0115
 2568DPPE   C2A52674   4.536   3.437  15.446  0.2804 -0.0922  0.0611
 2568DPPE   C3A52675   4.073   3.395  15.506 -0.4246 -0.0888  0.3283
 2568DPPE   C4A52676   3.700   3.471  15.234  0.1118  0.3545  0.0486
 2568DPPE   C1B52677   4.706   4.154  15.254 -0.0107  0.4196  0.3046
 2568DPPE   C2B52678   4.399   4.423  15.474 -0.2016  0.0895 -0.3649
 2568DPPE   C3B52679   3.977   4.609  15.528 -0.2862 -0.2025 -0.0467
 2568DPPE   C4B52680   3.774   4.722  15.812 -0.1414 -0.1683 -0.2700
 2569DPPE   NH352681   6.220   3.362  13.900  0.2826  0.0510  0.1809
 2569DPPE   PO452682   6.464   3.127  14.181 -0.2353  0.1502  0.3333
 2569DPPE   GL152683   6.149   2.960  14.261 -0.2055  0.1743  0.2253
 2569DPPE   GL252684   5.880   3.062  14.142  0.1128 -0.3486  0.2256
 2569DPPE   C1A52685   5.939   2.580  14.131 -0.2763 -0.1616  0.1285
 2569DPPE   C2A52686   5.621   2.403  13.974 -0.1377 -0.1524 -0.2145
 2569DPPE   C3A52687   5.138   2.471  13.876  0.0183 -0.3402  0.0892
 2569DPPE   C4A52688   4.860   2.104  13.818 -0.0626 -0.1319  0.0585
 2569DPPE   C1B52689   5.457   2.894  14.123  0.1579  0.1282 -0.2872
 2569DPPE   C2B52690   5.105   2.817  14.189  0.3129  0.0289  0.0096
 2569DPPE   C3B52691   4.905   2.443  14.340 -0.3559 -0.0328  0.0831
 2569DPPE   C4B52692   4.496   2.158  14.264  0.1946 -0.4051  0.3016
 2570DPPE   NH352693   4.632   7.045  12.985 -0.2706 -0.0111  0.2158
 2570DPPE   PO452694   4.489   7.368  13.301 -0.0581 -0.0235 -0.0853
 2570DPPE   GL152695   4.174   7.689  13.292 -0.2424  0.3071 -0.0402
 2570DPPE   GL252696   4.220   7.894  13.573 -0.3167  0.0913 -0.4012
 2570DPPE   C1A52697   3.823   7.649  13.022  0.4639 -0.0869 -0.1738
 2570DPPE   C2A52698   3.522   7.845  12.694 -0.1507  0.0225 -0.0702
 2570DPPE   C3A52699   3.321   7.999  12.467  0.0471 -0.1625  0.0106
 2570DPPE   C4A52700   2.889   8.078  12.556 -0.0110 -0.0157 -0.0408
 2570DPPE   C1B52701   3.677   7.845  13.619 -0.1158  0.1153  0.4457
 2570DPPE   C2B52702   3.488   8.161  13.619 -0.0621  0.0074  0.0576
 2570DPPE   C3B52703   3.344   8.480  13.313  0.3851 -0.0985 -0.2178
 2570DPPE   C4B52704   3.406   8.844  13.061  0.2772 -0.0885  0.3543
 2571DPPE   NH352705   9.226   7.216   7.204  0.1448  0.3912 -0.2036
 2571DPPE   PO452706   8.970   7.258   6.968 -0.0235 -0.2395  0.0208
 2571DPPE   GL152707   9.094   6.841   6.747  0.1417  0.3255  0.0807
 2571DPPE   GL252708   9.310   6.706   6.673 -0.1289  0.0203  0.3850
 2571DPPE   C1A52709   8.793   6.552   6.528  0.0967  0.0106  0.1273
 2571DPPE   C2A52710   8.757   6.384   6.129 -0.0228 -0.1009 -0.0222
 2571DPPE   C3A52711   8.431   6.185   5.836 -0.0955  0.1099 -0.0253
 2571DPPE   C4A52712   7.948   6.140   5.764  0.0947  0.2443  0.1199
 2571DPPE   C1B52713   9.216   6.482   6.253 -0.1438  0.0538  0.2503
 2571DPPE   C2B52714   9.085   6.634   5.838 -0.2161 -0.1956  0.1933
 2571DPPE   C3B52715   8.974   6.931   5.500  0.1622 -0.1692  0.0488
 2571DPPE   C4B52716   8.749   7.063   5.091 -0.0939  0.1990 -0.0385
 2572DPPE   NH352717   6.903   4.984  10.243  0.2463  0.1384  0.1485
 2572DPPE   PO452718   6.987   4.653  10.453  0.2599  0.2460  0.1740
 2572DPPE   GL152719   6.707   4.331  10.508  0.0034  0.3373  0.1961
 2572DPPE   GL252720   6.585   3.907  10.385 -0.0452 -0.2174 -0.0387
 2572DPPE   C1A52721   6.228   4.303  10.784 -0.3361  0.1983  0.0670
 2572DPPE   C2A52722   5.740   4.251  10.746 -0.0151 -0.0977  0.4210
 2572DPPE   C3A52723   5.263   4.160  10.630 -0.0023  0.1995  0.0861
 2572DPPE   C4A52724   5.128   3.727  10.615 -0.0744 -0.0284  0.1628
 2572DPPE   C1B52725   6.080   3.878  10.503  0.0087 -0.3821 -0.0601
 2572DPPE   C2B52726   5.618   3.866  10.366 -0.2268  0.4252 -0.0520
 2572DPPE   C3B52727   5.133   3.821  10.115  0.1289  0.0465  0.1184
 2572DPPE   C4B52728   4.923   4.093  10.298  0.1323  0.0684  0.0345
 2573DPPE   NH352729  12.599   9.757   6.005 -0.0334 -0.1421 -0.0484
 2573DPPE   PO452730  12.175   9.842   6.138  0.1508  0.4357 -0.0875
 2573DPPE   GL152731  12.317   9.966   6.495  0.2342 -0.0515  0.1269
 2573DPPE   GL252732  12.647  10.088   6.383  0.0856 -0.1865 -0.2709
 2573DPPE   C1A52733  12.155  10.181   6.779  0.0727 -0.0238  0.1134
 2573DPPE   C2A52734  12.232  10.401   7.167  0.0735  0.2792  0.2111
 2573DPPE   C3A52735  12.367  10.345   7.603 -0.2375  0.3025 -0.0506
 2573DPPE   C4A52736  12.542  10.024   7.849  0.3246  0.0400  0.1503
 2573DPPE   C1B52737  12.605  10.453   6.634 -0.0418 -0.0618 -0.1034
 2573DPPE   C2B52738  12.616  10.747   6.924 -0.1340  0.1162 -0.2994
 2573DPPE   C3B52739  12.621  10.822   7.309 -0.4760 -0.0869  0.0324
 2573DPPE   C4B52740  12.763  11.001   7.737  0.1907  0.0603  0.0815
 2574DPPE   NH352741   7.582   2.974  13.700 -0.0295 -0.1884 -0.1219
 2574DPPE   PO452742   7.807   3.296  13.834 -0.3418  0.1506  0.4213
 2574DPPE   GL152743   8.022   3.207  13.505 -0.2419 -0.0319 -0.1327
 2574DPPE   GL252744   8.306   3.209  13.725  0.0368  0.2077 -0.1677
 2574DPPE   C1A52745   8.230   3.424  13.301  0.1911  0.1752 -0.1505
 2574DPPE   C2A52746   8.414   3.840  13.265 -0.3133  0.2452 -0.2381
 2574DPPE   C3A52747   8.319   4.256  13.507  0.1692 -0.3271 -0.2035
 2574DPPE   C4A52748   8.333   4.679  13.777  0.2893  0.0478  0.1599
 2574DPPE   C1B52749   8.547   3.481  13.650  0.1059 -0.1205 -0.1058
 2574DPPE   C2B52750   8.954   3.525  13.633  0.0587  0.1755  0.0411
 2574DPPE   C3B52751   9.407   3.426  13.730 -0.0760 -0.0374  0.0067
 2574DPPE   C4B52752   9.770   3.606  13.669  0.5378 -0.1181  0.0829
 2575DPPE   NH352753   5.424   9.060  12.946 -0.1382 -0.0338 -0.1470
 2575DPPE   PO452754   5.041   8.911  13.222  0.0851  0.4443 -0.1122
 2575DPPE   GL152755   4.596   9.021  13.314  0.0179 -0.1017 -0.0749
 2575DPPE   GL252756   4.525   9.304  13.271  0.0999  0.1212  0.2582
 2575DPPE   C1A52757   4.172   8.923  13.486  0.0480 -0.1164  0.0067
 2575DPPE   C2A52758   3.727   8.940  13.566 -0.1526  0.1956 -0.0981
 2575DPPE   C3A52759   3.481   9.362  13.764  0.1989 -0.2398 -0.3465
 2575DPPE   C4A52760   3.312   9.789  13.781 -0.0661 -0.4610  0.1600
 2575DPPE   C1B52761   4.401   9.740  13.243 -0.2624  0.1899  0.0644
 2575DPPE   C2B52762   3.996   9.882  13.114 -0.0498 -0.0841 -0.1382
 2575DPPE   C3B52763   3.808  10.224  13.012  0.1737 -0.0026 -0.1331
 2575DPPE   C4B52764   4.005  10.627  13.143 -0.1172  0.3290  0.0043
 2576DPPE   NH352765   5.808  10.983  11.160  0.0089 -0.2551 -0.0538
 2576DPPE   PO452766   5.615  11.352  11.268 -0.1369  0.1717  0.2078
 2576DPPE   GL152767   5.253  11.354  11.339 -0.0298  0.3486 -0.2037
 2576DPPE   GL252768   5.171  11.536  11.107  0.0648  0.0413 -0.1597
 2576DPPE   C1A52769   5.201  11.669  11.626  0.3176  0.0682 -0.0669
 2576DPPE   C2A52770   5.288  11.942  11.917  0.0647 -0.1234  0.2045
 2576DPPE   C3A52771   5.576  12.273  11.981  0.0481 -0.0214  0.2763
 2576DPPE   C4A52772   5.845  12.695  11.905 -0.2990 -0.0680  0.2353
 2576DPPE   C1B52773   5.099  11.683  10.653 -0.2154 -0.1272 -0.0446
 2576DPPE   C2B52774   4.779  11.600  10.363  0.1580  0.0391  0.2311
 2576DPPE   C3B52775   4.681  11.792   9.993  0.2698 -0.1955  0.2653
 2576DPPE   C4B52776   4.687  12.224   9.846  0.3379 -0.2407  0.0016
 2577DPPE   NH352777   6.169  10.357  10.442  0.4017  0.0433 -0.0721
 2577DPPE   PO452778   5.831  10.400   9.993 -0.0112  0.3898  0.1351
 2577DPPE   GL152779   5.511  10.406   9.797 -0.1129 -0.1477 -0.1564
 2577DPPE   GL252780   5.413  10.397   9.491 -0.2241 -0.0494 -0.0701
 2577DPPE   C1A52781   5.131  10.168   9.824  0.2188  0.0751 -0.2571
 2577DPPE   C2A52782   4.665  10.297   9.576 -0.1334  0.2175  0.0822
 2577DPPE   C3A52783   4.206  10.180   9.528  0.1667  0.0849 -0.0648
 2577DPPE   C4A52784   3.799  10.217   9.674  0.1403  0.0322  0.3570
 2577DPPE   C1B52785   5.062  10.276   9.302 -0.2651  0.0615 -0.2564
 2577DPPE   C2B52786   4.755  10.189   8.947  0.2174 -0.0253 -0.0116
 2577DPPE   C3B52787   4.306  10.091   8.999  0.1731  0.1889 -0.1574
 2577DPPE   C4B52788   3.988   9.957   8.809  0.1511 -0.2784 -0.2479
 2578DPPE   NH352789  13.711   5.985   4.680  0.0095  0.0191 -0.2188
 2578DPPE   PO452790  13.952   5.624   4.685 -0.0642 -0.0814  0.2034
 2578DPPE   GL152791  13.831   5.432   4.370 -0.3150  0.3391 -0.1284
 2578DPPE   GL252792  13.573   5.087   4.562 -0.0904 -0.4702 -0.1029
 2578DPPE   C1A52793  13.729   5.385   4.013  0.5673 -0.0873  0.3299
 2578DPPE   C2A52794  13.587   5.034   3.970  0.1506 -0.0929  0.0079
 2578DPPE   C3A52795  13.335   4.835   3.602 -0.4338 -0.0294  0.0422
 2578DPPE   C4A52796  13.048   4.636   3.228 -0.2569  0.1677  0.2109
 2578DPPE   C1B52797  13.263   4.912   4.316 -0.1103 -0.1816 -0.2320
 2578DPPE   C2B52798  13.006   4.917   4.080  0.0052 -0.0221  0.2543
 2578DPPE   C3B52799  12.893   5.018   3.673 -0.0120 -0.0275 -0.1827
 2578DPPE   C4B52800  13.072   5.145   3.264 -0.1087 -0.1691 -0.0083
 2579DPPE   NH352801  11.740  35.839  15.271  0.0706 -0.0848  0.0962
 2579DPPE   PO452802  11.789  35.987  14.804 -0.1239 -0.1995  0.1488
 2579DPPE   GL152803  11.999  36.289  15.198 -0.1905 -0.0778  0.1713
 2579DPPE   GL252804  11.759  36.320  15.488  0.2292  0.1739 -0.0661
 2579DPPE   C1A52805  12.260  36.522  15.506 -0.2499  0.3740  0.4265
 2579DPPE   C2A52806  12.526  36.832  15.751  0.1415  0.1096 -0.0897
 2579DPPE   C3A52807  12.708  37.016  16.003  0.1977  0.1571 -0.2648
 2579DPPE   C4A52808  13.094  37.110  15.939 -0.1329  0.0746  0.2339
 2579DPPE   C1B52809  11.783  36.015  15.903 -0.2159 -0.4031 -0.1137
 2579DPPE   C2B52810  11.968  35.865  16.323 -0.0736  0.3823 -0.0431
 2579DPPE   C3B52811  12.096  35.900  16.729  0.1082 -0.0672 -0.2303
 2579DPPE   C4B52812  11.954  35.465  16.793  0.2060  0.2441  0.2207
 2580DPPE   NH352813  14.006   8.264   4.751 -0.2657  0.2282  0.2543
 2580DPPE   PO452814  13.644   8.413   4.654  0.1395 -0.0959 -0.1757
 2580DPPE   GL152815  13.364   8.617   4.325  0.1313  0.1492 -0.1232
 2580DPPE   GL252816  13.379   8.945   4.154  0.4842  0.2291  0.1129
 2580DPPE   C1A52817  13.195   8.555   3.913  0.2114 -0.0843 -0.1207
 2580DPPE   C2A52818  13.366   8.361   3.557  0.0142  0.1189  0.1031
 2580DPPE   C3A52819  13.521   7.939   3.265 -0.0053  0.0275  0.1094
 2580DPPE   C4A52820  13.760   7.637   3.046  0.2891 -0.3743  0.0850
 2580DPPE   C1B52821  13.282   9.030   3.729  0.2909  0.3221  0.0304
 2580DPPE   C2B52822  13.596   9.397   3.642 -0.0884 -0.0349 -0.0972
 2580DPPE   C3B52823  13.699   9.681   3.359 -0.0106 -0.0830  0.3224
 2580DPPE   C4B52824  14.181   9.764   3.426 -0.1784  0.1142 -0.2344
 2581DPPE   NH352825  13.902   0.476  11.011 -0.2480 -0.0815  0.0072
 2581DPPE   PO452826  13.661   0.811  10.918 -0.0775 -0.0492 -0.0537
 2581DPPE   GL152827  13.756   0.923  11.366 -0.0068 -0.3170  0.1756
 2581DPPE   GL252828  13.620   1.178  11.374  0.1803  0.1104  0.1393
 2581DPPE   C1A52829  13.940   1.030  11.855  0.0292 -0.2971 -0.0307
 2581DPPE   C2A52830  13.912   0.966  12.296 -0.1091 -0.1069 -0.0186
 2581DPPE   C3A52831  13.645   0.726  12.613  0.3321  0.2002 -0.0406
 2581DPPE   C4A52832  13.820   0.612  13.035  0.2178 -0.1903 -0.1122
 2581DPPE   C1B52833  13.570   1.565  11.701  0.0546 -0.0844  0.1314
 2581DPPE   C2B52834  13.444   2.000  11.663  0.4456  0.1106 -0.3002
 2581DPPE   C3B52835  13.693   2.384  11.596 -0.0037  0.0326  0.0939
 2581DPPE   C4B52836  13.904   2.375  11.171 -0.1540  0.2973 -0.2121
 2582DPPE   NH352837   6.504   8.624  12.292  0.3355 -0.1156 -0.2856
 2582DPPE   PO452838   6.563   8.298  12.033 -0.1414  0.0877  0.0775
 2582DPPE   GL152839   6.967   8.454  12.119 -0.1236 -0.1861  0.1362
 2582DPPE   GL252840   7.107   8.611  12.436 -0.1285 -0.1650  0.1786
 2582DPPE   C1A52841   7.317   8.172  12.228  0.1268  0.0152  0.0762
 2582DPPE   C2A52842   7.513   8.293  12.387  0.0422  0.0046  0.1747
 2582DPPE   C3A52843   7.873   8.265  12.600  0.0724  0.1437  0.1625
 2582DPPE   C4A52844   8.138   8.382  12.852  0.1575  0.1497  0.1480
 2582DPPE   C1B52845   7.464   8.585  12.793  0.0261  0.4423 -0.1037
 2582DPPE   C2B52846   7.863   8.761  12.993  0.3776  0.1871  0.0629
 2582DPPE   C3B52847   8.354   8.816  13.118  0.3655  0.0208  0.0361
 2582DPPE   C4B52848   8.207   9.165  13.453  0.4154 -0.1693  0.0196
 2583DPPE   NH352849   8.423   8.421   8.859  0.0992  0.3638 -0.3754
 2583DPPE   PO452850   8.156   8.683   8.976 -0.0539 -0.1130  0.0697
 2583DPPE   GL152851   8.269   8.536   9.352  0.1445 -0.0005 -0.3429
 2583DPPE   GL252852   8.482   8.788   9.556 -0.0531  0.1438 -0.0724
 2583DPPE   C1A52853   8.261   8.256   9.643 -0.0673 -0.0635  0.0197
 2583DPPE   C2A52854   8.018   8.035  10.002 -0.1962 -0.1005  0.1262
 2583DPPE   C3A52855   7.870   7.813  10.315 -0.1214 -0.1683  0.0068
 2583DPPE   C4A52856   7.875   7.546  10.698  0.0411  0.3470 -0.0388
 2583DPPE   C1B52857   8.681   8.561   9.866 -0.0154  0.1924  0.0848
 2583DPPE   C2B52858   8.999   8.339  10.065  0.1454  0.0745 -0.3355
 2583DPPE   C3B52859   9.090   7.917  10.106  0.0011 -0.3126  0.1343
 2583DPPE   C4B52860   9.302   7.757  10.477  0.1346 -0.1140  0.0032
 2584DPPE   NH352861  17.290   0.840   8.425  0.1465 -0.1815 -0.0663
 2584DPPE   PO452862  17.233   0.681   7.978  0.0490 -0.1322 -0.3708
 2584DPPE   GL152863  17.212   0.455   7.633 -0.3109  0.0233  0.0165
 2584DPPE   GL252864  17.105   0.114   7.735 -0.3159  0.0718  0.1046
 2584DPPE   C1A52865  17.587   0.216   7.476 -0.1897  0.1216 -0.4378
 2584DPPE   C2A52866  17.961   0.448   7.353 -0.0452 -0.0799 -0.0433
 2584DPPE   C3A52867  18.172   0.177   7.102  0.0824  0.2802 -0.2819
 2584DPPE   C4A52868  18.121   0.186   6.703  0.0702 -0.2493 -0.3913
 2584DPPE   C1B52869  17.000  -0.305   7.554 -0.1726 -0.0948  0.0364
 2584DPPE   C2B52870  16.598  -0.486   7.399 -0.0252 -0.0593  0.1685
 2584DPPE   C3B52871  16.435  -0.454   7.013  0.0022 -0.1169  0.1660
 2584DPPE   C4B52872  16.514  -0.097   6.639  0.5054  0.2855 -0.2954
 2585DPPE   NH352873  12.834   5.810   5.077  0.2766 -0.0449  0.1075
 2585DPPE   PO452874  13.085   6.113   5.095 -0.0131 -0.2139  0.0685
 2585DPPE   GL152875  12.789   6.184   4.693 -0.2373 -0.0625 -0.0172
 2585DPPE   GL252876  12.590   5.924   4.618  0.0872  0.0846 -0.0182
 2585DPPE   C1A52877  12.685   6.252   4.266 -0.1356 -0.0804  0.2354
 2585DPPE   C2A52878  12.665   6.324   3.828 -0.1953 -0.0829 -0.1579
 2585DPPE   C3A52879  12.389   6.257   3.568  0.0963 -0.0639 -0.3063
 2585DPPE   C4A52880  12.259   6.022   3.312  0.0432  0.1465  0.0408
 2585DPPE   C1B52881  12.393   5.848   4.234 -0.1970  0.2543  0.2394
 2585DPPE   C2B52882  12.316   5.802   3.726  0.0178 -0.0298 -0.2420
 2585DPPE   C3B52883  12.303   5.543   3.312 -0.1013 -0.2181  0.0894
 2585DPPE   C4B52884  12.462   5.682   2.927  0.1342 -0.3547 -0.1826
 2586DPPE   NH352885  16.608   5.071   6.122 -0.1483  0.0106 -0.2651
 2586DPPE   PO452886  16.935   5.224   6.265  0.1123  0.1448 -0.0270
 2586DPPE   GL152887  17.373   5.461   6.510 -0.0274 -0.2266  0.0273
 2586DPPE   GL252888  17.619   5.620   6.373  0.3000  0.2533 -0.1891
 2586DPPE   C1A52889  17.506   5.771   6.830  0.0206  0.1536  0.0689
 2586DPPE   C2A52890  17.751   5.708   7.158  0.1985  0.0072 -0.0482
 2586DPPE   C3A52891  17.834   5.816   7.513 -0.1952  0.0114  0.0825
 2586DPPE   C4A52892  17.895   5.961   7.984 -0.0072 -0.0989  0.0785
 2586DPPE   C1B52893  17.859   5.488   6.643  0.0676  0.0034 -0.3086
 2586DPPE   C2B52894  18.037   5.347   6.970 -0.1308  0.0893 -0.1111
 2586DPPE   C3B52895  18.344   5.637   7.178 -0.0469 -0.1019  0.2501
 2586DPPE   C4B52896  18.675   5.864   7.346 -0.2729  0.1495 -0.2279
 2587DPPE   NH352897  10.179   3.564   8.183 -0.1075  0.3377  0.0173
 2587DPPE   PO452898   9.975   3.287   8.431  0.1655 -0.3676  0.0520
 2587DPPE   GL152899   9.584   3.265   8.216 -0.2151  0.0289 -0.0042
 2587DPPE   GL252900   9.649   3.519   7.981 -0.3018  0.1883  0.0099
 2587DPPE   C1A52901   9.345   3.034   8.082  0.1929  0.1959  0.1497
 2587DPPE   C2A52902   9.239   2.894   7.731 -0.2777 -0.0857 -0.0198
 2587DPPE   C3A52903   8.859   2.739   7.660  0.0822  0.1404  0.1958
 2587DPPE   C4A52904   8.583   2.507   7.424 -0.0369  0.2244  0.1935
 2587DPPE   C1B52905   9.587   3.588   7.661  0.1895 -0.4194 -0.2736
 2587DPPE   C2B52906   9.399   3.299   7.388 -0.2328 -0.0983  0.0010
 2587DPPE   C3B52907   9.109   3.052   7.325 -0.2193  0.2272  0.0869
 2587DPPE   C4B52908   8.769   2.850   7.008  0.1338  0.1524 -0.2535
 2588DPPE   NH352909   7.666   5.685  11.035 -0.1377 -0.2220 -0.2008
 2588DPPE   PO452910   7.383   5.989  10.882 -0.2865  0.0134 -0.3799
 2588DPPE   GL152911   7.891   6.181  11.004  0.2574 -0.0275 -0.0646
 2588DPPE   GL252912   7.859   6.038  11.312  0.0441 -0.1737 -0.3968
 2588DPPE   C1A52913   8.261   6.456  11.060  0.0808 -0.2443 -0.0869
 2588DPPE   C2A52914   8.409   6.805  11.181  0.0781  0.2914  0.0935
 2588DPPE   C3A52915   8.782   6.997  11.228  0.0679  0.0569 -0.1736
 2588DPPE   C4A52916   8.927   7.424  11.296  0.0768  0.0374 -0.0889
 2588DPPE   C1B52917   8.034   6.353  11.581  0.1096 -0.1345  0.0216
 2588DPPE   C2B52918   8.166   6.794  11.633  0.0371 -0.0442  0.2914
 2588DPPE   C3B52919   8.242   7.220  11.791  0.0650  0.0285  0.0122
 2588DPPE   C4B52920   8.085   7.659  11.819  0.0601  0.0426 -0.1363
 2589DPPE   NH352921   6.280   9.934  12.223  0.1593 -0.1308  0.0393
 2589DPPE   PO452922   5.906   9.609  12.463  0.1378  0.3274 -0.1911
 2589DPPE   GL152923   6.439   9.579  12.534  0.0561  0.0911 -0.5748
 2589DPPE   GL252924   6.550   9.898  12.645  0.0602  0.0940 -0.1515
 2589DPPE   C1A52925   6.788   9.411  12.585  0.1546  0.1003  0.1984
 2589DPPE   C2A52926   7.220   9.478  12.729  0.1206  0.2733  0.1868
 2589DPPE   C3A52927   7.568   9.654  12.965 -0.0138 -0.2096  0.1844
 2589DPPE   C4A52928   7.764   9.777  13.397  0.3628  0.2881 -0.0509
 2589DPPE   C1B52929   6.803   9.683  12.999 -0.2551  0.2633 -0.3859
 2589DPPE   C2B52930   7.085   9.486  13.221 -0.2043 -0.0893  0.0853
 2589DPPE   C3B52931   7.315   9.498  13.571 -0.1533 -0.0555  0.0252
 2589DPPE   C4B52932   7.479   9.829  13.825 -0.1052 -0.2414  0.0381
 2590DPPE   NH352933  16.809   6.874   5.202 -0.0084  0.0938  0.0448
 2590DPPE   PO452934  17.229   6.993   5.033 -0.0718  0.0109  0.0274
 2590DPPE   GL152935  17.283   7.440   4.800 -0.1507  0.1466  0.0434
 2590DPPE   GL252936  17.149   7.669   4.608 -0.0882  0.2927  0.0963
 2590DPPE   C1A52937  17.310   7.795   5.088 -0.0955 -0.2249 -0.0072
 2590DPPE   C2A52938  17.237   8.195   4.831 -0.0273  0.0378 -0.1765
 2590DPPE   C3A52939  17.314   8.655   4.900 -0.0983  0.0887  0.1909
 2590DPPE   C4A52940  17.152   9.122   4.789  0.1027 -0.0425  0.3005
 2590DPPE   C1B52941  17.513   7.812   4.589  0.0191 -0.0478 -0.3281
 2590DPPE   C2B52942  17.716   8.156   4.706 -0.1945  0.1222 -0.0802
 2590DPPE   C3B52943  17.699   8.369   5.117  0.0865 -0.4265 -0.1810
 2590DPPE   C4B52944  17.706   8.790   5.283  0.1212 -0.3076 -0.3893
 2591DPPE   NH352945   6.552   4.391  17.046  0.1338  0.2490 -0.4594
 2591DPPE   PO452946   6.409   4.016  17.261 -0.2689 -0.1776 -0.1689
 2591DPPE   GL152947   6.448   3.827  17.648 -0.1594  0.1356  0.1579
 2591DPPE   GL252948   6.634   3.461  17.864  0.0872  0.1987  0.3092
 2591DPPE   C1A52949   6.440   3.931  18.057 -0.3335 -0.2265 -0.0075
 2591DPPE   C2A52950   6.290   4.328  18.353 -0.0801  0.0147 -0.0935
 2591DPPE   C3A52951   6.274   4.709  18.671 -0.1245 -0.2798 -0.2070
 2591DPPE   C4A52952   6.190   4.538  19.091 -0.1496  0.1859 -0.2147
 2591DPPE   C1B52953   7.027   3.605  18.180 -0.3462 -0.0419  0.1774
 2591DPPE   C2B52954   7.281   3.659  18.507  0.1689 -0.1303 -0.1587
 2591DPPE   C3B52955   7.689   3.602  18.543  0.1502 -0.2763 -0.2391
 2591DPPE   C4B52956   7.882   3.217  18.646  0.1269  0.1817  0.1414
 2592DPPE   NH352957  16.102   8.019   4.979 -0.1790 -0.3042 -0.0977
 2592DPPE   PO452958  15.803   7.992   5.418 -0.1156  0.3099  0.1909
 2592DPPE   GL152959  15.983   8.294   5.531 -0.0586 -0.1264 -0.1441
 2592DPPE   GL252960  15.726   8.586   5.577  0.0533 -0.2008  0.2115
 2592DPPE   C1A52961  16.348   8.555   5.597  0.1121  0.3511  0.0175
 2592DPPE   C2A52962  16.736   8.650   5.703 -0.0105  0.1966 -0.1874
 2592DPPE   C3A52963  16.901   8.990   5.737  0.3094  0.1379 -0.4370
 2592DPPE   C4A52964  17.037   9.375   5.739 -0.0200 -0.0852 -0.2559
 2592DPPE   C1B52965  15.873   9.035   5.460  0.1235  0.1317 -0.2234
 2592DPPE   C2B52966  16.043   9.408   5.471 -0.0154 -0.0277 -0.2836
 2592DPPE   C3B52967  16.194   9.650   5.140 -0.0315 -0.1985 -0.0174
 2592DPPE   C4B52968  16.503   9.692   4.713  0.1830  0.2307 -0.0783
 2593DPPE   NH352969   5.535   4.832  13.189  0.1422 -0.0633 -0.2606
 2593DPPE   PO452970   5.420   4.712  12.804 -0.0293 -0.0643  0.0990
 2593DPPE   GL152971   5.219   4.611  12.534  0.2636  0.0266  0.4427
 2593DPPE   GL252972   4.935   4.625  12.733 -0.2460 -0.2834  0.0641
 2593DPPE   C1A52973   5.063   4.195  12.422  0.0078 -0.4012  0.1329
 2593DPPE   C2A52974   4.763   4.023  12.285 -0.1486 -0.1822 -0.0896
 2593DPPE   C3A52975   4.360   3.815  12.451 -0.3080  0.1591 -0.0310
 2593DPPE   C4A52976   3.949   3.661  12.289 -0.1101  0.2636  0.1542
 2593DPPE   C1B52977   4.628   4.462  12.640  0.2691  0.1073  0.0945
 2593DPPE   C2B52978   4.320   4.302  12.505 -0.0241  0.2737  0.0459
 2593DPPE   C3B52979   3.979   4.119  12.447  0.0353 -0.3437  0.1392
 2593DPPE   C4B52980   3.566   4.243  12.617 -0.1538 -0.1785 -0.4476
 2594DPPE   NH352981   4.995   7.959  15.264  0.3467 -0.1283 -0.0425
 2594DPPE   PO452982   5.206   8.183  15.516  0.0494  0.1017  0.0026
 2594DPPE   GL152983   4.945   8.358  15.794  0.3511 -0.0066  0.1711
 2594DPPE   GL252984   4.785   8.570  15.825 -0.1353 -0.4101 -0.0139
 2594DPPE   C1A52985   5.167   8.706  16.104 -0.2407  0.0277 -0.1662
 2594DPPE   C2A52986   5.420   9.073  16.063  0.0143  0.2811 -0.3606
 2594DPPE   C3A52987   5.541   9.550  16.095 -0.1367  0.2212  0.1330
 2594DPPE   C4A52988   5.971   9.761  16.112  0.5424  0.1565 -0.2774
 2594DPPE   C1B52989   4.397   8.749  16.116  0.2783  0.2105 -0.0957
 2594DPPE   C2B52990   4.222   9.164  16.235  0.2467 -0.0369  0.2663
 2594DPPE   C3B52991   4.001   9.546  16.136 -0.1923  0.1799  0.0074
 2594DPPE   C4B52992   3.801   9.895  16.022 -0.0898 -0.2504  0.2776
 2595DPPE   NH352993  15.708   4.131   5.636 -0.1085  0.0378  0.2300
 2595DPPE   PO452994  15.560   3.707   5.636 -0.2151  0.0694 -0.1167
 2595DPPE   GL152995  15.331   3.434   5.280 -0.1569  0.3777 -0.1235
 2595DPPE   GL252996  15.025   3.307   5.320 -0.2610 -0.0818 -0.2019
 2595DPPE   C1A52997  15.387   3.393   4.818  0.0039  0.1664 -0.0368
 2595DPPE   C2A52998  15.123   3.263   4.492  0.0492 -0.0635 -0.0423
 2595DPPE   C3A52999  14.976   3.006   4.085 -0.0776 -0.1929 -0.2068
 2595DPPE   C4A53000  14.730   2.908   3.838  0.2233  0.3060  0.1950
 2595DPPE   C1B53001  14.981   3.177   4.945  0.3567 -0.0042  0.0135
 2595DPPE   C2B53002  14.675   3.116   4.535 -0.0368 -0.0713  0.1024
 2595DPPE   C3B53003  14.579   2.762   4.285  0.0624 -0.2173  0.2744
 2595DPPE   C4B53004  14.401   2.534   3.909  0.0107  0.2298  0.0382
 2596DPPE   NH353005   6.907   6.315  11.508 -0.0718 -0.0097  0.0737
 2596DPPE   PO453006   6.708   6.662  11.706 -0.1482 -0.2350 -0.0924
 2596DPPE   GL153007   7.092   6.880  11.641 -0.0518 -0.0148  0.0693
 2596DPPE   GL253008   7.199   7.111  11.886 -0.0386 -0.1428  0.1580
 2596DPPE   C1A53009   7.301   7.009  11.309 -0.1343 -0.1944  0.1692
 2596DPPE   C2A53010   7.779   6.694  11.209 -0.1604  0.2380  0.2784
 2596DPPE   C3A53011   7.901   6.629  10.766 -0.1154 -0.1025 -0.0830
 2596DPPE   C4A53012   8.163   6.588  10.359 -0.2500  0.0969  0.3297
 2596DPPE   C1B53013   7.526   7.253  12.127  0.0019 -0.4249  0.0825
 2596DPPE   C2B53014   7.844   7.475  12.348  0.1707  0.2768  0.1062
 2596DPPE   C3B53015   8.223   7.545  12.353 -0.1680  0.3297 -0.2180
 2596DPPE   C4B53016   8.665   7.483  12.223  0.0049 -0.0398  0.0988
 2597DPPE   NH353017   8.467   8.175   7.324  0.0280  0.0432 -0.2508
 2597DPPE   PO453018   7.971   8.135   7.359  0.0891  0.0760 -0.0259
 2597DPPE   GL153019   7.714   7.876   7.146 -0.0686  0.2272  0.2228
 2597DPPE   GL253020   7.829   7.568   6.890  0.0845  0.2462 -0.1205
 2597DPPE   C1A53021   7.599   8.004   6.682  0.0548  0.1082  0.1177
 2597DPPE   C2A53022   7.251   8.191   6.554 -0.0483 -0.1050  0.1112
 2597DPPE   C3A53023   6.718   8.260   6.679 -0.1840  0.4584  0.1796
 2597DPPE   C4A53024   6.473   8.491   6.413  0.0373 -0.0409 -0.1772
 2597DPPE   C1B53025   7.681   7.555   6.503 -0.1980 -0.2321 -0.0755
 2597DPPE   C2B53026   7.900   7.462   6.113 -0.0323  0.1136 -0.1517
 2597DPPE   C3B53027   7.861   7.630   5.738  0.0312  0.0143 -0.1001
 2597DPPE   C4B53028   7.867   7.606   5.342  0.3383  0.0147 -0.1948
 2598DPPE   NH353029   9.541   3.510  10.730  0.1157  0.0841  0.1179
 2598DPPE   PO453030   9.923   3.398  10.579 -0.1547  0.1107 -0.3243
 2598DPPE   GL153031   9.968   3.776  10.810  0.3371 -0.0915  0.2380
 2598DPPE   GL253032  10.046   4.007  10.669  0.1867  0.0687 -0.0316
 2598DPPE   C1A53033  10.261   3.815  11.139  0.0268  0.3475  0.0238
 2598DPPE   C2A53034  10.463   3.937  11.566  0.0352 -0.0636  0.1742
 2598DPPE   C3A53035  10.782   3.988  11.953 -0.1418  0.1512 -0.0126
 2598DPPE   C4A53036  11.046   4.157  12.289  0.0677 -0.1771  0.0978
 2598DPPE   C1B53037  10.303   4.250  11.032 -0.1292 -0.1215  0.2617
 2598DPPE   C2B53038  10.619   4.295  11.237  0.4425 -0.0386 -0.1479
 2598DPPE   C3B53039  10.843   4.612  11.488  0.1411 -0.0065 -0.1680
 2598DPPE   C4B53040  11.185   4.860  11.439  0.0741 -0.0076 -0.0163
 2599DPPE   NH353041   8.464   9.073   8.923 -0.2544 -0.1274 -0.0347
 2599DPPE   PO453042   8.563   9.540   8.618 -0.1992 -0.1986  0.4220
 2599DPPE   GL153043   8.738   9.676   9.013 -0.2578  0.1447 -0.1038
 2599DPPE   GL253044   8.681   9.524   9.205  0.0618 -0.2260 -0.2509
 2599DPPE   C1A53045   9.080   9.836   9.154 -0.1604  0.1836  0.0853
 2599DPPE   C2A53046   9.390   9.983   9.318 -0.2907  0.0145  0.2568
 2599DPPE   C3A53047   9.651   9.750   9.685 -0.0538 -0.1372  0.0596
 2599DPPE   C4A53048   9.927   9.353   9.646 -0.0464  0.1521 -0.0188
 2599DPPE   C1B53049   8.891   9.146   9.436  0.1179 -0.0256 -0.0565
 2599DPPE   C2B53050   9.041   8.891   9.802 -0.1192  0.0756  0.0385
 2599DPPE   C3B53051   9.328   9.019  10.138  0.0590  0.1342  0.0561
 2599DPPE   C4B53052   9.831   8.848  10.226 -0.0352 -0.1503 -0.1906
 2600DPPE   NH353053   7.835  11.420   7.862  0.2084 -0.1784  0.0588
 2600DPPE   PO453054   7.857  11.334   7.569  0.1976 -0.0611 -0.2007
 2600DPPE   GL153055   7.723  11.683   7.291  0.1953  0.1231 -0.0746
 2600DPPE   GL253056   7.911  11.869   7.167  0.0896 -0.0322  0.0111
 2600DPPE   C1A53057   7.398  11.964   7.346  0.0625  0.1055 -0.2803
 2600DPPE   C2A53058   7.005  11.922   7.251  0.1374 -0.0844 -0.1157
 2600DPPE   C3A53059   6.709  12.118   7.010  0.1559  0.3264 -0.1421
 2600DPPE   C4A53060   6.208  12.087   7.167 -0.1347 -0.0096  0.0920
 2600DPPE   C1B53061   7.883  12.304   7.320  0.1025 -0.1256 -0.1067
 2600DPPE   C2B53062   7.568  12.714   7.497  0.0517 -0.0491 -0.1942
 2600DPPE   C3B53063   7.713  13.141   7.730 -0.4856 -0.0886 -0.0801
 2600DPPE   C4B53064   7.697  13.553   7.828 -0.5410  0.3123  0.0362
 2601DPPE   NH353065   9.575   7.988   7.046 -0.2711 -0.1099  0.3016
 2601DPPE   PO453066   9.650   7.796   6.657 -0.4379  0.2645 -0.0383
 2601DPPE   GL153067   9.519   7.825   6.233  0.2617  0.2114  0.1874
 2601DPPE   GL253068   9.758   8.026   6.022  0.1480 -0.0647  0.0044
 2601DPPE   C1A53069   9.332   7.898   5.887 -0.3635  0.2905 -0.0928
 2601DPPE   C2A53070   9.093   7.944   5.550 -0.1760 -0.1247 -0.1091
 2601DPPE   C3A53071   9.212   8.043   5.094  0.1388  0.3221 -0.1529
 2601DPPE   C4A53072   9.148   8.002   4.644 -0.0721  0.0892  0.0496
 2601DPPE   C1B53073   9.641   8.099   5.562 -0.3978 -0.0968 -0.1617
 2601DPPE   C2B53074   9.785   7.983   5.159  0.1504 -0.0578 -0.0332
 2601DPPE   C3B53075   9.640   7.940   4.720 -0.0711  0.1009 -0.1718
 2601DPPE   C4B53076   9.512   7.850   4.314  0.2185  0.3929  0.0254
 2602DPPE   NH353077  11.636   7.521   5.718 -0.0694 -0.1061 -0.0957
 2602DPPE   PO453078  11.380   7.074   5.614  0.2120 -0.2026  0.0463
 2602DPPE   GL153079  11.141   7.028   5.397  0.0035  0.0094  0.1073
 2602DPPE   GL253080  11.156   6.613   5.161  0.2885 -0.2710  0.1670
 2602DPPE   C1A53081  10.791   6.933   5.088 -0.0960 -0.1380  0.0887
 2602DPPE   C2A53082  10.610   6.852   4.742  0.0989 -0.0186  0.1224
 2602DPPE   C3A53083  10.252   7.036   4.538  0.4537  0.1728  0.3111
 2602DPPE   C4A53084  10.000   6.772   4.173 -0.0019  0.0141 -0.1662
 2602DPPE   C1B53085  10.830   6.458   4.984  0.2084  0.3460 -0.1334
 2602DPPE   C2B53086  10.554   6.279   4.691  0.0476 -0.4603  0.0131
 2602DPPE   C3B53087  10.526   6.154   4.251 -0.3390 -0.0742 -0.0353
 2602DPPE   C4B53088  10.328   5.876   3.947 -0.0571  0.0844 -0.0664
 2603DPPE   NH353089   6.183   5.790  15.157  0.1052 -0.0839  0.0245
 2603DPPE   PO453090   6.408   6.142  15.099  0.0199 -0.3362  0.0200
 2603DPPE   GL153091   6.719   6.437  15.087 -0.0839 -0.2702  0.0772
 2603DPPE   GL253092   6.778   6.816  15.025 -0.2117  0.0312 -0.0491
 2603DPPE   C1A53093   7.197   6.580  15.294 -0.2884 -0.1182  0.2445
 2603DPPE   C2A53094   7.299   6.460  15.695 -0.0538 -0.2469 -0.0261
 2603DPPE   C3A53095   7.696   6.487  16.125 -0.1676  0.1556  0.1559
 2603DPPE   C4A53096   7.922   6.545  16.486  0.0240 -0.2047 -0.0588
 2603DPPE   C1B53097   7.167   7.029  15.189  0.0647 -0.2877  0.0694
 2603DPPE   C2B53098   7.464   7.067  15.556 -0.2035 -0.0137 -0.2076
 2603DPPE   C3B53099   7.577   6.905  15.937  0.1069 -0.1705 -0.0705
 2603DPPE   C4B53100   7.652   6.980  16.343 -0.1349  0.2112 -0.0797
 2604DPPE   NH353101  11.560  35.656  12.816 -0.1321  0.2520  0.0687
 2604DPPE   PO453102  11.227  35.598  12.539  0.1091  0.3525 -0.0099
 2604DPPE   GL153103  10.884  35.439  12.615 -0.1343 -0.1029  0.0309
 2604DPPE   GL253104  10.630  35.488  12.361  0.1988 -0.1061 -0.3727
 2604DPPE   C1A53105  10.553  34.990  12.363  0.1631  0.2675  0.0176
 2604DPPE   C2A53106  10.049  35.035  12.341 -0.5306  0.0554  0.1644
 2604DPPE   C3A53107   9.874  34.930  11.995  0.1440  0.1968 -0.1943
 2604DPPE   C4A53108   9.512  34.959  11.795 -0.1328 -0.2244 -0.0272
 2604DPPE   C1B53109  10.365  35.299  11.969  0.0085 -0.1421 -0.0248
 2604DPPE   C2B53110  10.207  35.065  11.648  0.3387  0.1209 -0.1770
 2604DPPE   C3B53111  10.302  34.754  11.356  0.2253 -0.0765 -0.1511
 2604DPPE   C4B53112  10.697  34.564  11.264 -0.0281  0.3035 -0.3060
 2605DPPE   NH353113  12.936  36.245  12.980  0.1520 -0.1640  0.0349
 2605DPPE   PO453114  13.366  36.234  13.014  0.0457 -0.0397  0.5151
 2605DPPE   GL153115  13.643  36.563  13.026  0.1609  0.0284  0.1384
 2605DPPE   GL253116  13.864  36.670  12.692  0.3120  0.2400  0.2817
 2605DPPE   C1A53117  13.936  36.649  13.318  0.1707 -0.1572  0.0781
 2605DPPE   C2A53118  14.037  37.001  13.520 -0.0729  0.1453  0.2153
 2605DPPE   C3A53119  14.370  37.229  13.724  0.2498 -0.0469 -0.3071
 2605DPPE   C4A53120  14.845  37.128  13.655  0.0467  0.0178 -0.1111
 2605DPPE   C1B53121  14.112  37.022  12.622 -0.0713 -0.1134 -0.0056
 2605DPPE   C2B53122  14.283  37.420  12.694  0.2949  0.2344  0.0629
 2605DPPE   C3B53123  14.423  37.673  12.520  0.0705  0.2868 -0.0658
 2605DPPE   C4B53124  14.155  37.888  12.184 -0.1099  0.0630 -0.0199
 2606DPPE   NH353125  10.421   8.228   6.179 -0.0622 -0.0391  0.4265
 2606DPPE   PO453126  10.501   8.403   5.784  0.1372  0.0779 -0.0180
 2606DPPE   GL153127  10.320   8.708   5.494 -0.0555 -0.3000 -0.2778
 2606DPPE   GL253128  10.095   8.904   5.618  0.1574  0.0634  0.0040
 2606DPPE   C1A53129  10.251   8.800   5.015  0.3151  0.0188 -0.0591
 2606DPPE   C2A53130  10.025   8.870   4.603 -0.1328 -0.1842 -0.2735
 2606DPPE   C3A53131  10.127   8.960   4.175  0.1422 -0.3439 -0.0845
 2606DPPE   C4A53132   9.891   8.976   3.830  0.1031  0.0601  0.0235
 2606DPPE   C1B53133   9.853   9.112   5.290 -0.0788  0.0121 -0.0511
 2606DPPE   C2B53134   9.734   9.190   4.853 -0.2759 -0.0218 -0.0404
 2606DPPE   C3B53135   9.646   9.484   4.723 -0.0514 -0.1545  0.0518
 2606DPPE   C4B53136   9.627   9.741   4.368 -0.0123 -0.0626  0.2537
 2607DPPE   NH353137   8.072   7.885   8.439 -0.1075 -0.3108  0.1141
 2607DPPE   PO453138   8.444   7.976   8.562  0.3959 -0.2202  0.0226
 2607DPPE   GL153139   8.837   8.243   8.632 -0.2953  0.2831  0.0795
 2607DPPE   GL253140   9.213   8.422   8.508  0.2633 -0.0054  0.2072
 2607DPPE   C1A53141   9.138   8.406   9.024 -0.1494  0.1569 -0.2393
 2607DPPE   C2A53142   9.619   8.449   9.232  0.0717  0.0664 -0.1474
 2607DPPE   C3A53143   9.999   8.475   9.219 -0.0649 -0.0593 -0.3148
 2607DPPE   C4A53144  10.373   8.588   9.389 -0.3302  0.0612  0.0722
 2607DPPE   C1B53145   9.513   8.695   8.756  0.0012  0.4503  0.1739
 2607DPPE   C2B53146   9.887   8.753   8.879  0.1779 -0.3523  0.2565
 2607DPPE   C3B53147  10.271   8.774   8.935 -0.0602  0.0209  0.0855
 2607DPPE   C4B53148  10.617   8.953   9.103 -0.2659  0.0152 -0.0921
 2608DPPE   NH353149   7.382   8.304   8.348 -0.1243 -0.0959  0.2323
 2608DPPE   PO453150   7.148   7.989   8.615 -0.0768 -0.0513  0.0314
 2608DPPE   GL153151   6.985   7.827   8.315  0.2588 -0.1191 -0.1099
 2608DPPE   GL253152   6.974   8.100   8.191  0.2544  0.3035  0.1659
 2608DPPE   C1A53153   6.735   7.596   8.132  0.2612  0.0007 -0.0240
 2608DPPE   C2A53154   6.395   7.552   7.911 -0.0363  0.1145  0.1034
 2608DPPE   C3A53155   6.101   7.500   7.617 -0.4578 -0.0551  0.1225
 2608DPPE   C4A53156   5.859   7.497   7.305  0.1136  0.0231 -0.1509
 2608DPPE   C1B53157   6.647   8.080   8.064 -0.0277  0.0900  0.2388
 2608DPPE   C2B53158   6.719   7.871   7.672 -0.0480 -0.2248 -0.1529
 2608DPPE   C3B53159   6.317   7.926   7.369 -0.2470 -0.0870 -0.0986
 2608DPPE   C4B53160   6.207   8.129   6.954 -0.1733  0.2245  0.2269
 2609DPPE   NH353161   8.906   1.902  12.962  0.1157 -0.3709  0.1465
 2609DPPE   PO453162   9.352   1.774  12.670  0.0520  0.1873  0.0928
 2609DPPE   GL153163   9.550   1.956  12.931  0.1452 -0.1271  0.0225
 2609DPPE   GL253164   9.733   1.771  13.110 -0.1058  0.2076 -0.0138
 2609DPPE   C1A53165   9.657   2.224  13.243  0.0515  0.1255  0.0573
 2609DPPE   C2A53166   9.531   2.639  13.459 -0.3247 -0.1539  0.0768
 2609DPPE   C3A53167   9.590   3.124  13.443  0.1322 -0.1210 -0.1200
 2609DPPE   C4A53168   9.737   3.369  13.100  0.1219  0.0676 -0.0579
 2609DPPE   C1B53169  10.038   2.136  12.881  0.1012 -0.0452  0.1424
 2609DPPE   C2B53170  10.313   2.445  12.965 -0.1469 -0.3381 -0.0383
 2609DPPE   C3B53171  10.759   2.730  12.915 -0.3261 -0.0243  0.1237
 2609DPPE   C4B53172  11.245   2.829  12.859  0.0354  0.0010 -0.1891
 2610DPPE   NH353173   9.555   7.281   6.826  0.0009  0.2778 -0.2672
 2610DPPE   PO453174   9.783   6.938   6.700  0.0321  0.1519 -0.0803
 2610DPPE   GL153175   9.826   6.754   6.314 -0.3942  0.0316 -0.2797
 2610DPPE   GL253176  10.176   6.599   6.133 -0.1470 -0.2626 -0.2155
 2610DPPE   C1A53177   9.696   6.445   6.030  0.3704  0.0795  0.0643
 2610DPPE   C2A53178   9.635   6.375   5.586 -0.0015  0.2744 -0.0311
 2610DPPE   C3A53179   9.538   6.210   5.223  0.0348 -0.3690 -0.0159
 2610DPPE   C4A53180   9.113   6.064   5.169  0.0901 -0.0638 -0.2184
 2610DPPE   C1B53181  10.161   6.527   5.666  0.2529 -0.1749  0.0115
 2610DPPE   C2B53182  10.043   6.328   5.217 -0.0274  0.0908 -0.3470
 2610DPPE   C3B53183   9.863   6.138   4.853  0.3054  0.0847 -0.0192
 2610DPPE   C4B53184  10.065   6.027   4.435 -0.4856  0.0885 -0.1314
 2611DPPE   NH353185  14.591   3.295   5.648 -0.2813  0.0809 -0.2803
 2611DPPE   PO453186  14.487   3.799   5.746  0.1028 -0.0275  0.0281
 2611DPPE   GL153187  14.372   3.602   5.252 -0.1729 -0.0241 -0.1819
 2611DPPE   GL253188  14.167   3.544   5.279  0.0460  0.1361  0.0633
 2611DPPE   C1A53189  14.509   3.234   5.020  0.3815 -0.0013  0.0733
 2611DPPE   C2A53190  14.385   2.874   4.903  0.1454  0.1429  0.2771
 2611DPPE   C3A53191  14.107   2.697   4.588  0.0093  0.6434 -0.0627
 2611DPPE   C4A53192  14.016   2.818   4.159 -0.0088  0.1833 -0.0328
 2611DPPE   C1B53193  13.914   3.315   4.943 -0.0189 -0.2040 -0.0847
 2611DPPE   C2B53194  13.853   3.180   4.633 -0.3474 -0.0617  0.1222
 2611DPPE   C3B53195  13.576   2.898   4.426 -0.1537 -0.0832 -0.0489
 2611DPPE   C4B53196  13.124   2.878   4.246  0.1798 -0.0740  0.2503
 2612DPPE   NH353197   7.499   3.062  11.480  0.2777 -0.0863 -0.0191
 2612DPPE   PO453198   7.380   3.633  11.538 -0.1891  0.2435  0.0286
 2612DPPE   GL153199   7.101   3.314  11.328  0.1351 -0.1796 -0.1560
 2612DPPE   GL253200   6.838   3.389  11.551  0.1017 -0.0058 -0.6444
 2612DPPE   C1A53201   6.807   2.948  11.240  0.2162  0.0476 -0.0170
 2612DPPE   C2A53202   6.708   2.574  11.081  0.0038 -0.0916 -0.0304
 2612DPPE   C3A53203   6.557   2.231  10.864  0.0334 -0.1254 -0.0315
 2612DPPE   C4A53204   6.381   2.065  10.538 -0.2936  0.3004  0.2172
 2612DPPE   C1B53205   6.600   3.179  11.628  0.0289  0.0067 -0.4984
 2612DPPE   C2B53206   6.244   2.961  11.442 -0.1568  0.6761  0.1665
 2612DPPE   C3B53207   5.854   2.690  11.226 -0.3530  0.1534  0.0256
 2612DPPE   C4B53208   5.542   2.515  10.951  0.3060 -0.0934  0.0042
 2613DPPE   NH353209   9.749   2.116   9.886  0.2038  0.0818  0.0178
 2613DPPE   PO453210  10.047   1.929   9.690 -0.2603  0.1902 -0.0166
 2613DPPE   GL153211  10.310   1.668   9.447 -0.1546 -0.0374  0.1787
 2613DPPE   GL253212  10.197   1.360   9.586 -0.0417  0.1654  0.2854
 2613DPPE   C1A53213  10.379   1.293   9.121 -0.1306  0.3031  0.2820
 2613DPPE   C2A53214  10.150   0.918   9.000  0.1894 -0.1169 -0.2153
 2613DPPE   C3A53215  10.125   0.422   8.972  0.1830  0.0099 -0.0444
 2613DPPE   C4A53216   9.908   0.199   9.193 -0.0115 -0.0198 -0.1660
 2613DPPE   C1B53217   9.790   1.271   9.350  0.1446 -0.0700 -0.2102
 2613DPPE   C2B53218   9.367   0.990   9.207  0.0392 -0.2051  0.2647
 2613DPPE   C3B53219   9.226   0.784   8.801 -0.0236  0.0063  0.2593
 2613DPPE   C4B53220   9.068   0.414   8.655 -0.2776  0.0314  0.0450
 2614DPPE   NH353221  13.280   9.850   5.581 -0.0397 -0.2599 -0.3212
 2614DPPE   PO453222  13.189  10.334   5.644  0.0851 -0.2812 -0.1490
 2614DPPE   GL153223  13.420  10.717   5.580  0.3486 -0.1356  0.1914
 2614DPPE   GL253224  13.326  11.006   5.519 -0.0064 -0.2687 -0.1971
 2614DPPE   C1A53225  13.840  10.688   5.790  0.1917  0.1796 -0.1733
 2614DPPE   C2A53226  14.299  10.612   5.956 -0.1724 -0.0554  0.0231
 2614DPPE   C3A53227  14.658  10.540   6.007 -0.1391 -0.2562  0.0936
 2614DPPE   C4A53228  15.038  10.795   5.888  0.1355 -0.1827 -0.1540
 2614DPPE   C1B53229  13.294  11.430   5.687  0.2795 -0.1670  0.2330
 2614DPPE   C2B53230  13.650  11.713   5.725 -0.1402  0.2451 -0.0962
 2614DPPE   C3B53231  13.638  12.049   5.991 -0.1712 -0.3765  0.0763
 2614DPPE   C4B53232  13.980  12.380   5.795 -0.1911  0.0373 -0.0013
 2615DPPE   NH353233   7.417   3.812  16.907 -0.0616  0.0013 -0.1727
 2615DPPE   PO453234   7.436   3.356  16.675 -0.1309 -0.3503  0.0093
 2615DPPE   GL153235   7.689   3.317  17.058 -0.1404  0.1073  0.0129
 2615DPPE   GL253236   7.869   3.532  17.101 -0.1337  0.0948  0.1322
 2615DPPE   C1A53237   7.830   3.136  17.442 -0.0736  0.2147 -0.1535
 2615DPPE   C2A53238   8.114   3.055  17.847  0.0445  0.0635  0.2424
 2615DPPE   C3A53239   8.315   2.976  18.237 -0.1936 -0.2074 -0.1638
 2615DPPE   C4A53240   8.233   2.709  18.501 -0.1829 -0.0310  0.2269
 2615DPPE   C1B53241   8.029   3.880  17.264  0.0860  0.0887  0.2196
 2615DPPE   C2B53242   8.512   3.971  17.368  0.1887 -0.1249  0.2153
 2615DPPE   C3B53243   8.823   4.148  17.764 -0.1818  0.0938 -0.0671
 2615DPPE   C4B53244   9.099   4.200  18.109  0.0858  0.7239 -0.0561
 2616DPPE   NH353245  12.148  36.350  14.728 -0.1632 -0.1068  0.0495
 2616DPPE   PO453246  12.533  36.520  14.580  0.1357 -0.0061  0.1052
 2616DPPE   GL153247  12.937  36.544  14.747 -0.4449  0.4881 -0.1386
 2616DPPE   GL253248  13.074  36.850  14.678 -0.0537  0.1503 -0.1420
 2616DPPE   C1A53249  13.162  36.436  15.133  0.0700 -0.3215 -0.0367
 2616DPPE   C2A53250  13.466  36.630  15.461 -0.4328 -0.0392  0.0600
 2616DPPE   C3A53251  13.916  36.432  15.428  0.3344 -0.1204  0.2480
 2616DPPE   C4A53252  14.398  36.449  15.256 -0.0346 -0.1895 -0.1434
 2616DPPE   C1B53253  12.850  37.135  14.862  0.1831  0.1115  0.1755
 2616DPPE   C2B53254  12.555  37.260  15.040  0.1419 -0.0916 -0.3515
 2616DPPE   C3B53255  12.132  37.272  15.017 -0.0935 -0.3716 -0.1169
 2616DPPE   C4B53256  11.905  37.649  14.957  0.1764  0.2850 -0.1034
 2617DPPE   NH353257  10.165   3.006   8.746 -0.0936 -0.0891  0.0030
 2617DPPE   PO453258  10.562   2.840   8.671 -0.4244  0.0886  0.0630
 2617DPPE   GL153259  10.138   2.572   8.420 -0.0850  0.1377 -0.0544
 2617DPPE   GL253260   9.901   2.781   8.397 -0.2274 -0.0909  0.0746
 2617DPPE   C1A53261   9.770   2.304   8.324  0.0487 -0.0915 -0.0154
 2617DPPE   C2A53262   9.453   2.092   8.135  0.2074 -0.1450 -0.1008
 2617DPPE   C3A53263   9.268   1.681   8.366  0.1640  0.1074  0.2039
 2617DPPE   C4A53264   8.954   1.401   8.281  0.2369 -0.0977  0.1010
 2617DPPE   C1B53265   9.660   2.670   8.040 -0.0351 -0.3547  0.0094
 2617DPPE   C2B53266   9.663   2.377   7.775  0.0437  0.3746 -0.0686
 2617DPPE   C3B53267   9.486   2.091   7.581  0.1315 -0.0989 -0.2601
 2617DPPE   C4B53268   9.353   1.962   7.195 -0.1066  0.2159 -0.1344
 2618DPPE   NH353269  15.003   5.358   6.409  0.2405  0.1059  0.0267
 2618DPPE   PO453270  15.140   5.748   6.316 -0.0298 -0.0302 -0.1911
 2618DPPE   GL153271  15.349   5.783   6.725 -0.0558  0.1210  0.1497
 2618DPPE   GL253272  15.649   5.726   6.744  0.0896  0.2009  0.0151
 2618DPPE   C1A53273  15.392   5.647   7.160 -0.2930  0.2053 -0.1283
 2618DPPE   C2A53274  15.481   5.737   7.467  0.2687  0.0650 -0.0482
 2618DPPE   C3A53275  15.554   5.907   7.874 -0.0781 -0.0465 -0.0393
 2618DPPE   C4A53276  15.935   5.909   8.049  0.3497 -0.0790 -0.1997
 2618DPPE   C1B53277  15.748   6.058   6.997  0.3325  0.0188 -0.2007
 2618DPPE   C2B53278  15.915   5.948   7.443  0.3274 -0.0970  0.1432
 2618DPPE   C3B53279  16.212   6.102   7.696 -0.1307 -0.4020  0.2121
 2618DPPE   C4B53280  16.483   6.528   7.734 -0.0981  0.1387 -0.1439
 2619DPPE   NH353281   6.379  10.475   9.332 -0.0431 -0.1819  0.4118
 2619DPPE   PO453282   6.595  10.818   9.441  0.0991  0.0385  0.1573
 2619DPPE   GL153283   6.205  11.051   9.326  0.1885 -0.1253  0.1767
 2619DPPE   GL253284   6.228  11.234   9.375  0.0932 -0.3006  0.1582
 2619DPPE   C1A53285   5.963  11.163   8.957  0.2465 -0.3191 -0.0254
 2619DPPE   C2A53286   5.713  11.392   8.738  0.0391 -0.1553 -0.0395
 2619DPPE   C3A53287   5.580  11.595   8.444 -0.0351  0.0810 -0.3109
 2619DPPE   C4A53288   5.382  11.615   8.122 -0.1821 -0.1024  0.1500
 2619DPPE   C1B53289   5.870  11.560   9.247 -0.0054 -0.1204 -0.0233
 2619DPPE   C2B53290   5.630  11.830   8.977 -0.2714 -0.1796  0.0099
 2619DPPE   C3B53291   5.320  11.953   8.741  0.2334  0.0431  0.1547
 2619DPPE   C4B53292   5.224  12.227   8.397 -0.0956  0.0502 -0.1453
 2620DPPE   NH353293  12.513  35.771  14.186  0.0630 -0.0493  0.2586
 2620DPPE   PO453294  12.476  36.039  14.550 -0.0861  0.1151 -0.0697
 2620DPPE   GL153295  12.600  36.098  14.895 -0.3534 -0.1373 -0.0412
 2620DPPE   GL253296  12.489  36.288  15.140 -0.2422 -0.2266  0.2727
 2620DPPE   C1A53297  12.935  35.960  15.096 -0.0947  0.0467 -0.0428
 2620DPPE   C2A53298  13.201  36.044  15.442  0.0477  0.0666 -0.1769
 2620DPPE   C3A53299  13.557  36.201  15.691  0.0943  0.0662  0.2277
 2620DPPE   C4A53300  13.776  36.364  16.020 -0.3476 -0.1138 -0.1366
 2620DPPE   C1B53301  12.708  36.262  15.615  0.1772 -0.0831  0.1387
 2620DPPE   C2B53302  12.710  36.418  16.089 -0.0159  0.0369 -0.1551
 2620DPPE   C3B53303  12.417  36.637  16.175 -0.0516 -0.0111  0.1840
 2620DPPE   C4B53304  12.321  36.920  16.430 -0.0659  0.0586 -0.5159
 2621DPPE   NH353305   6.124   8.339  13.178  0.1492 -0.0059  0.1480
 2621DPPE   PO453306   6.083   8.539  12.734 -0.1712 -0.0683 -0.3436
 2621DPPE   GL153307   6.400   8.839  12.882  0.1769 -0.0127 -0.1887
 2621DPPE   GL253308   6.486   9.093  12.944 -0.1300  0.0367  0.0471
 2621DPPE   C1A53309   6.897   8.974  12.736  0.0023 -0.2014  0.1707
 2621DPPE   C2A53310   7.182   8.956  12.973 -0.0046 -0.0830 -0.2462
 2621DPPE   C3A53311   7.470   9.129  13.265 -0.2246  0.0282 -0.1394
 2621DPPE   C4A53312   7.774   9.240  13.663  0.0951 -0.0122  0.1002
 2621DPPE   C1B53313   6.762   9.106  13.215 -0.0411  0.0412 -0.1481
 2621DPPE   C2B53314   6.979   8.882  13.450  0.0323 -0.0682  0.0130
 2621DPPE   C3B53315   7.379   8.859  13.705 -0.1746 -0.0735 -0.3010
 2621DPPE   C4B53316   7.726   8.852  13.985  0.1247 -0.1302  0.0607
 2622DPPE   NH353317  11.379  35.858  11.675  0.1318 -0.0664  0.2324
 2622DPPE   PO453318  11.758  35.832  11.698  0.2756  0.3087  0.1040
 2622DPPE   GL153319  11.629  35.370  11.725  0.1267 -0.2595 -0.0861
 2622DPPE   GL253320  11.255  35.337  11.589 -0.2391 -0.2313 -0.3514
 2622DPPE   C1A53321  11.403  34.920  11.805 -0.2023 -0.0854  0.0285
 2622DPPE   C2A53322  11.412  34.548  11.999  0.0033 -0.0610 -0.3396
 2622DPPE   C3A53323  11.219  34.186  12.020 -0.3916  0.3053 -0.0785
 2622DPPE   C4A53324  11.176  33.702  12.063  0.2305 -0.2381  0.0462
 2622DPPE   C1B53325  11.092  34.890  11.417 -0.2638  0.0237 -0.3802
 2622DPPE   C2B53326  11.017  34.514  11.630  0.2295 -0.0207  0.1315
 2622DPPE   C3B53327  10.951  34.049  11.625 -0.0961  0.1449  0.0338
 2622DPPE   C4B53328  10.681  33.597  11.699  0.0744 -0.1995 -0.1087
 2623DPPE   NH353329   6.666   5.321  14.431 -0.2509  0.1622  0.0973
 2623DPPE   PO453330   7.049   5.068  14.328  0.0537  0.0601  0.2922
 2623DPPE   GL153331   7.269   5.372  14.540  0.2594  0.1389  0.0346
 2623DPPE   GL253332   7.339   5.611  14.264 -0.1246 -0.1860  0.2944
 2623DPPE   C1A53333   7.575   5.360  14.638 -0.1917 -0.2959 -0.1519
 2623DPPE   C2A53334   8.075   5.411  14.547 -0.0635  0.1549 -0.2506
 2623DPPE   C3A53335   8.485   5.420  14.626 -0.2656  0.1404 -0.3523
 2623DPPE   C4A53336   8.727   5.372  14.271  0.5527  0.2675 -0.0002
 2623DPPE   C1B53337   7.690   5.807  14.390  0.2655 -0.1506 -0.3000
 2623DPPE   C2B53338   8.098   5.898  14.457  0.2075 -0.0454  0.1572
 2623DPPE   C3B53339   8.456   6.130  14.529  0.2629 -0.0396  0.2566
 2623DPPE   C4B53340   8.482   6.423  14.751 -0.0527 -0.0271 -0.0599
 2624DPPE   NH353341  11.037   0.839  12.425 -0.2149 -0.4338  0.2780
 2624DPPE   PO453342  10.876   1.188  12.140  0.0454 -0.0296 -0.0560
 2624DPPE   GL153343  11.194   1.561  12.309  0.1977  0.0306  0.2445
 2624DPPE   GL253344  11.281   1.473  12.543 -0.2192  0.1355 -0.1938
 2624DPPE   C1A53345  11.579   1.875  12.648  0.1456 -0.1091  0.4468
 2624DPPE   C2A53346  11.883   2.281  12.585 -0.0291  0.1539  0.1248
 2624DPPE   C3A53347  11.981   2.571  12.363 -0.1659 -0.1329 -0.2268
 2624DPPE   C4A53348  12.148   2.740  12.010  0.3526 -0.1141 -0.3432
 2624DPPE   C1B53349  11.352   1.555  12.990 -0.1410 -0.2641 -0.1216
 2624DPPE   C2B53350  11.355   1.831  13.384  0.3059 -0.2637 -0.0694
 2624DPPE   C3B53351  11.555   2.258  13.427 -0.2532 -0.1941  0.0639
 2624DPPE   C4B53352  12.024   2.573  13.364  0.0714 -0.0557  0.0370
 2625DPPE   NH353353  15.969   2.945   7.319 -0.0790  0.0176 -0.1850
 2625DPPE   PO453354  15.539   2.817   7.562 -0.4912 -0.4641 -0.1840
 2625DPPE   GL153355  15.758   2.832   7.912  0.0831  0.0375  0.2093
 2625DPPE   GL253356  15.988   3.025   7.782 -0.0141  0.0961 -0.2168
 2625DPPE   C1A53357  15.781   3.072   8.286 -0.1888  0.1054  0.0225
 2625DPPE   C2A53358  15.975   3.484   8.520  0.3319 -0.2619 -0.1471
 2625DPPE   C3A53359  15.941   3.842   8.659 -0.3252 -0.2351 -0.0896
 2625DPPE   C4A53360  16.301   4.005   8.774  0.1580  0.2678  0.0030
 2625DPPE   C1B53361  16.179   3.313   8.015  0.0526 -0.0452 -0.1522
 2625DPPE   C2B53362  16.379   3.639   8.309 -0.0782  0.0644 -0.2639
 2625DPPE   C3B53363  16.601   3.585   8.677 -0.0976 -0.0180 -0.1209
 2625DPPE   C4B53364  16.728   3.349   9.034 -0.1993 -0.2472 -0.0592
 2626DPPE   NH353365  10.831  11.539   5.422  0.0707  0.2466  0.0339
 2626DPPE   PO453366  11.163  11.313   5.151 -0.1592  0.0903 -0.2223
 2626DPPE   GL153367  11.187  11.120   4.767 -0.2882  0.0781 -0.3338
 2626DPPE   GL253368  11.067  10.929   4.688 -0.1514 -0.2113  0.0908
 2626DPPE   C1A53369  11.046  11.395   4.394 -0.1888 -0.1800  0.0564
 2626DPPE   C2A53370  10.748  11.570   4.399 -0.2231  0.2515  0.0457
 2626DPPE   C3A53371  10.814  12.026   4.518  0.2162 -0.1482  0.3586
 2626DPPE   C4A53372  10.500  12.300   4.693  0.0272 -0.0336 -0.1385
 2626DPPE   C1B53373  10.991  10.710   4.300  0.1047  0.1208  0.0435
 2626DPPE   C2B53374  10.884  10.613   3.876 -0.2505  0.2055  0.2832
 2626DPPE   C3B53375  10.843  10.695   3.440  0.1249  0.1587 -0.0293
 2626DPPE   C4B53376  10.675  10.648   3.052 -0.2720 -0.3069  0.0089
 2627DPPE   NH353377  12.702   4.124   6.346 -0.2312 -0.0248 -0.3714
 2627DPPE   PO453378  12.907   4.287   5.996 -0.0047  0.0437  0.3130
 2627DPPE   GL153379  12.835   4.037   5.712 -0.1073 -0.0164 -0.1434
 2627DPPE   GL253380  12.508   3.969   5.579  0.0079  0.0824  0.2317
 2627DPPE   C1A53381  12.917   3.920   5.396 -0.1656  0.1412 -0.1021
 2627DPPE   C2A53382  12.685   3.709   5.082 -0.1639  0.1237  0.0916
 2627DPPE   C3A53383  12.648   3.591   4.754  0.1476 -0.3285  0.4301
 2627DPPE   C4A53384  12.574   3.557   4.395  0.0048  0.2340  0.2616
 2627DPPE   C1B53385  12.753   3.537   5.702  0.3077  0.3203 -0.0470
 2627DPPE   C2B53386  12.472   3.146   5.672 -0.2452  0.1093  0.0508
 2627DPPE   C3B53387  12.264   2.778   5.592 -0.1036 -0.0947 -0.2268
 2627DPPE   C4B53388  12.001   2.443   5.593  0.0102 -0.2337  0.0807
 2628DPPE   NH353389   6.493  10.225  11.847  0.1500 -0.1562 -0.0143
 2628DPPE   PO453390   6.373  10.492  12.225 -0.1348 -0.0529 -0.1672
 2628DPPE   GL153391   6.372  10.840  12.410  0.0360 -0.2302  0.1654
 2628DPPE   GL253392   6.169  11.106  12.451 -0.0719  0.1590  0.0978
 2628DPPE   C1A53393   6.748  10.885  12.577 -0.1930 -0.0140  0.0540
 2628DPPE   C2A53394   7.119  10.990  12.473 -0.0052  0.1004  0.3304
 2628DPPE   C3A53395   7.370  10.992  12.102 -0.0998 -0.1894 -0.1507
 2628DPPE   C4A53396   7.756  10.833  12.075 -0.1013 -0.3549  0.1971
 2628DPPE   C1B53397   6.343  11.512  12.695 -0.1342 -0.0176  0.2344
 2628DPPE   C2B53398   6.689  11.759  12.694 -0.0600  0.3258 -0.1822
 2628DPPE   C3B53399   7.168  11.837  12.594  0.1147 -0.5374  0.5399
 2628DPPE   C4B53400   7.486  12.087  12.694  0.0951  0.5136  0.2663
 2629DPPE   NH353401   7.083  11.525   9.043  0.0236 -0.3136  0.2158
 2629DPPE   PO453402   7.504  11.770   8.835  0.0810  0.0434  0.1390
 2629DPPE   GL153403   7.737  12.104   8.852 -0.1449  0.2954 -0.2726
 2629DPPE   GL253404   7.725  12.252   8.598 -0.2000  0.1794  0.0538
 2629DPPE   C1A53405   7.929  12.552   8.926  0.0887  0.3231 -0.2889
 2629DPPE   C2A53406   8.131  12.846   9.149 -0.0910  0.5095  0.0288
 2629DPPE   C3A53407   8.241  13.119   9.431 -0.1837 -0.0302 -0.2829
 2629DPPE   C4A53408   8.524  13.474   9.531  0.2371 -0.2304  0.0704
 2629DPPE   C1B53409   7.413  12.598   8.847  0.1565 -0.1903 -0.2446
 2629DPPE   C2B53410   7.230  12.863   9.187 -0.2229 -0.1533  0.1730
 2629DPPE   C3B53411   7.123  13.185   9.502  0.0535  0.0006 -0.1855
 2629DPPE   C4B53412   6.882  13.298   9.833  0.0324  0.0479  0.1501
 2630DPPE   NH353413  13.056  35.794  13.597  0.1748  0.1701 -0.1227
 2630DPPE   PO453414  13.187  35.899  13.317  0.1128 -0.1270  0.1777
 2630DPPE   GL153415  13.231  36.270  13.542 -0.2257  0.1576  0.0464
 2630DPPE   GL253416  13.490  36.400  13.510  0.0180 -0.1714 -0.1368
 2630DPPE   C1A53417  13.082  36.758  13.719  0.1558  0.0018  0.0648
 2630DPPE   C2A53418  13.256  37.128  13.921  0.1178  0.0763  0.1568
 2630DPPE   C3A53419  13.269  37.352  14.316 -0.2341 -0.0717  0.1805
 2630DPPE   C4A53420  13.393  37.276  14.783  0.0944  0.0467  0.2025
 2630DPPE   C1B53421  13.656  36.699  13.829  0.0077 -0.1358 -0.0157
 2630DPPE   C2B53422  13.964  36.808  14.049  0.2691 -0.2390 -0.3452
 2630DPPE   C3B53423  14.158  37.049  14.305 -0.1213  0.1116 -0.0514
 2630DPPE   C4B53424  14.428  36.830  14.764 -0.2391 -0.5485  0.2476
 2631DPPE   NH353425  10.021   0.559  11.406  0.0497  0.0436 -0.0984
 2631DPPE   PO453426  10.215   0.295  11.735  0.0369 -0.0517  0.3116
 2631DPPE   GL153427  10.131   0.009  11.416 -0.0043 -0.2386  0.1983
 2631DPPE   GL253428   9.805   0.059  11.382 -0.0388 -0.2328  0.1376
 2631DPPE   C1A53429   9.995  -0.368  11.342  0.0814  0.1218  0.4023
 2631DPPE   C2A53430   9.798  -0.639  11.060 -0.0539  0.0014 -0.3370
 2631DPPE   C3A53431   9.600  -0.918  10.850 -0.2147  0.1356 -0.1656
 2631DPPE   C4A53432   9.323  -0.838  10.499  0.0054 -0.1711  0.0300
 2631DPPE   C1B53433   9.514  -0.267  11.190  0.0976 -0.0481  0.2198
 2631DPPE   C2B53434   9.274  -0.395  10.872 -0.0995 -0.2786 -0.0695
 2631DPPE   C3B53435   8.990  -0.812  10.872  0.2934  0.3397 -0.0003
 2631DPPE   C4B53436   8.740  -1.095  10.565  0.3309  0.2045 -0.2269
 2632DPPE   NH353437  17.806   3.758   6.177 -0.1159  0.1579 -0.0939
 2632DPPE   PO453438  18.042   3.400   5.992  0.0080  0.5153 -0.0738
 2632DPPE   GL153439  18.298   3.758   6.057 -0.0537  0.3371  0.1517
 2632DPPE   GL253440  18.624   3.625   6.061  0.1700 -0.0257  0.3665
 2632DPPE   C1A53441  18.655   4.112   5.829 -0.1098  0.0602 -0.0853
 2632DPPE   C2A53442  18.774   4.256   5.363 -0.5558  0.1109 -0.4447
 2632DPPE   C3A53443  18.622   4.326   4.947  0.0199 -0.0287 -0.1464
 2632DPPE   C4A53444  18.396   4.614   4.744 -0.0965  0.0011 -0.2902
 2632DPPE   C1B53445  19.034   3.729   5.987 -0.2269  0.3228 -0.0287
 2632DPPE   C2B53446  19.490   3.623   5.791 -0.1812 -0.0565 -0.0443
 2632DPPE   C3B53447  19.731   3.498   5.483 -0.0342 -0.0206  0.1455
 2632DPPE   C4B53448  19.762   3.472   4.981 -0.2173 -0.0449 -0.1225
 2633DPPE   NH353449  15.196   0.769   8.659 -0.0332 -0.1484 -0.4121
 2633DPPE   PO453450  15.089   0.704   8.193  0.1400 -0.0925 -0.1816
 2633DPPE   GL153451  15.102   0.278   7.967  0.0904  0.1199 -0.1547
 2633DPPE   GL253452  14.781   0.231   7.714 -0.0342 -0.0891 -0.2937
 2633DPPE   C1A53453  15.207   0.171   7.503 -0.1473 -0.0584 -0.0823
 2633DPPE   C2A53454  15.279  -0.191   7.220  0.2195  0.1929  0.0457
 2633DPPE   C3A53455  15.340  -0.550   7.166  0.0029  0.1338  0.1216
 2633DPPE   C4A53456  15.458  -0.790   6.785 -0.0904 -0.1216 -0.1568
 2633DPPE   C1B53457  14.846  -0.218   7.578 -0.1041  0.1228  0.2882
 2633DPPE   C2B53458  14.873  -0.564   7.305  0.4545 -0.0366 -0.0374
 2633DPPE   C3B53459  15.063  -0.950   7.021 -0.1171  0.2272  0.2053
 2633DPPE   C4B53460  15.252  -1.290   6.878  0.0057 -0.2799 -0.4560
 2634DPPE   NH353461  10.193   1.669  10.695 -0.1694 -0.0021 -0.1248
 2634DPPE   PO453462   9.961   1.481  10.438  0.0424  0.3857  0.1247
 2634DPPE   GL153463   9.567   1.243  10.447  0.0043 -0.0342 -0.1015
 2634DPPE   GL253464   9.523   0.966  10.652  0.0801 -0.1047  0.0073
 2634DPPE   C1A53465   9.241   1.271  10.079  0.1137 -0.2802 -0.0264
 2634DPPE   C2A53466   9.108   0.998   9.658 -0.1964  0.2474 -0.1792
 2634DPPE   C3A53467   8.905   0.826   9.229 -0.0917  0.1316 -0.0516
 2634DPPE   C4A53468   8.707   0.714   8.858 -0.0085 -0.0050 -0.2687
 2634DPPE   C1B53469   9.210   0.751  10.286  0.1410  0.0100  0.0079
 2634DPPE   C2B53470   8.901   0.572  10.073  0.0534  0.0112 -0.2290
 2634DPPE   C3B53471   8.665   0.226  10.028  0.2461  0.0311  0.4090
 2634DPPE   C4B53472   8.498  -0.196   9.921 -0.1250 -0.0873  0.1282
 2635DPPE   NH353473  12.993   5.846   6.988  0.2068 -0.1543 -0.2918
 2635DPPE   PO453474  13.164   5.454   6.863 -0.2013 -0.4599 -0.0180
 2635DPPE   GL153475  13.454   5.551   7.249 -0.0070 -0.1102  0.0308
 2635DPPE   GL253476  13.705   5.701   7.293  0.1451  0.2372  0.2686
 2635DPPE   C1A53477  13.574   5.538   7.712 -0.1247 -0.0176  0.0641
 2635DPPE   C2A53478  13.514   5.460   8.202  0.0961  0.0502  0.1053
 2635DPPE   C3A53479  13.415   5.574   8.594 -0.1339  0.2197  0.1699
 2635DPPE   C4A53480  13.393   5.917   8.947 -0.1208  0.1136  0.1110
 2635DPPE   C1B53481  13.778   5.984   7.616 -0.0097  0.0087  0.1888
 2635DPPE   C2B53482  14.114   6.142   7.864 -0.3488  0.1217  0.1589
 2635DPPE   C3B53483  14.135   6.284   8.226  0.2233 -0.0722 -0.0912
 2635DPPE   C4B53484  14.285   6.176   8.635 -0.4710  0.2035  0.2005
 2636DPPE   NH353485   9.229  10.131   8.248  0.1473  0.2665 -0.0011
 2636DPPE   PO453486   9.198  10.480   8.030  0.0698  0.1839  0.1129
 2636DPPE   GL153487   9.155  10.653   8.568 -0.2587 -0.0797  0.3532
 2636DPPE   GL253488   8.938  10.877   8.684  0.0861  0.3072  0.3641
 2636DPPE   C1A53489   9.567  10.622   8.788  0.1805 -0.2004  0.1276
 2636DPPE   C2A53490   9.952  10.669   9.030 -0.1478  0.0122  0.4100
 2636DPPE   C3A53491  10.280  10.922   9.142  0.1194 -0.0797  0.0502
 2636DPPE   C4A53492  10.217  11.220   9.479  0.2494 -0.0783 -0.0747
 2636DPPE   C1B53493   9.332  11.122   8.812  0.2607 -0.1465 -0.0272
 2636DPPE   C2B53494   9.509  11.486   9.036 -0.2850  0.2436 -0.0263
 2636DPPE   C3B53495   9.745  11.866   8.863 -0.0164 -0.0064 -0.1439
 2636DPPE   C4B53496   9.693  12.388   8.963  0.1507 -0.0221  0.2839
 2637DPPE   NH353497   4.831   7.118  15.109 -0.1250 -0.0079 -0.1142
 2637DPPE   PO453498   4.850   7.507  15.160 -0.0872 -0.0533 -0.1028
 2637DPPE   GL153499   4.805   7.533  15.452  0.3149 -0.1495  0.1270
 2637DPPE   GL253500   4.688   7.816  15.699 -0.2124 -0.4662  0.1258
 2637DPPE   C1A53501   4.447   7.358  15.618  0.1973 -0.0860 -0.0636
 2637DPPE   C2A53502   4.155   7.469  16.041  0.4577  0.0226 -0.2075
 2637DPPE   C3A53503   3.736   7.356  16.118 -0.1016  0.0351 -0.1005
 2637DPPE   C4A53504   3.352   7.496  15.922  0.4008 -0.2566 -0.1475
 2637DPPE   C1B53505   4.523   8.130  15.981  0.3016 -0.2951 -0.1782
 2637DPPE   C2B53506   4.658   8.366  16.268 -0.3747  0.1839 -0.2018
 2637DPPE   C3B53507   5.031   8.466  16.498 -0.0041 -0.2340 -0.3309
 2637DPPE   C4B53508   5.313   8.849  16.638 -0.0913  0.0718 -0.1675
 2638DPPE   NH353509   7.790   2.834  14.292 -0.1692  0.2835 -0.2279
 2638DPPE   PO453510   8.161   3.122  14.174 -0.4086  0.0522  0.1045
 2638DPPE   GL153511   8.359   3.512  14.193 -0.1411 -0.4569 -0.2252
 2638DPPE   GL253512   8.160   3.622  14.406 -0.1190 -0.0853  0.0514
 2638DPPE   C1A53513   8.711   3.713  14.069 -0.1232  0.0265 -0.1047
 2638DPPE   C2A53514   8.978   4.080  14.148 -0.1126 -0.1265  0.3978
 2638DPPE   C3A53515   9.357   4.222  14.197  0.2142 -0.1119  0.2225
 2638DPPE   C4A53516   9.752   4.499  14.040  0.1595  0.0454  0.2701
 2638DPPE   C1B53517   8.295   3.969  14.371  0.0032 -0.0483  0.0364
 2638DPPE   C2B53518   8.704   4.263  14.578  0.3272  0.1051 -0.2639
 2638DPPE   C3B53519   9.065   4.575  14.772 -0.2212  0.2299 -0.1465
 2638DPPE   C4B53520   9.346   4.468  15.107 -0.1487 -0.1239  0.2714
 2639DPPE   NH353521  13.978  35.404  13.960 -0.1034 -0.1417 -0.1526
 2639DPPE   PO453522  13.641  35.544  14.178 -0.2368  0.2578 -0.0505
 2639DPPE   GL153523  13.915  35.765  14.297 -0.1659  0.1452  0.0067
 2639DPPE   GL253524  14.175  35.534  14.374  0.1129 -0.0857  0.0564
 2639DPPE   C1A53525  14.088  35.902  14.712  0.4021  0.0502 -0.0785
 2639DPPE   C2A53526  14.469  36.102  14.908 -0.0396 -0.0164 -0.1751
 2639DPPE   C3A53527  14.796  36.371  14.837  0.4178 -0.2605 -0.1609
 2639DPPE   C4A53528  15.103  36.343  15.023  0.0576  0.0711 -0.0233
 2639DPPE   C1B53529  14.447  35.336  14.382  0.0414 -0.1024  0.2367
 2639DPPE   C2B53530  14.698  35.169  14.713  0.0135  0.1047 -0.0648
 2639DPPE   C3B53531  14.979  34.843  14.943 -0.0401  0.3307 -0.0102
 2639DPPE   C4B53532  15.222  34.552  14.854 -0.0322  0.3142  0.0229
 2640DPPE   NH353533  13.977   7.347   4.377  0.0849 -0.0127 -0.5899
 2640DPPE   PO453534  14.140   7.776   4.392  0.1285 -0.4698  0.0400
 2640DPPE   GL153535  13.898   7.715   4.014  0.3887 -0.1135  0.2765
 2640DPPE   GL253536  14.217   7.890   3.887 -0.0808  0.1449 -0.2741
 2640DPPE   C1A53537  13.627   7.610   3.634 -0.1165 -0.0627 -0.1175
 2640DPPE   C2A53538  13.666   7.198   3.385  0.1464  0.0994  0.1877
 2640DPPE   C3A53539  13.321   6.816   3.311  0.0783  0.0322  0.0281
 2640DPPE   C4A53540  12.957   6.445   3.244 -0.0075 -0.2605 -0.1587
 2640DPPE   C1B53541  14.424   8.091   3.657 -0.1101  0.2287 -0.1423
 2640DPPE   C2B53542  14.407   7.996   3.185  0.2292  0.2428  0.4177
 2640DPPE   C3B53543  14.263   7.716   2.918 -0.0617 -0.1822  0.1174
 2640DPPE   C4B53544  14.220   7.986   2.657  0.4226 -0.0173  0.1027
 2641DPPE   NH353545  15.471  35.909  11.364  0.0820  0.2287  0.2835
 2641DPPE   PO453546  15.379  35.843  11.838  0.3080  0.1661  0.0657
 2641DPPE   GL153547  15.501  35.601  12.133  0.0971  0.1227 -0.2772
 2641DPPE   GL253548  15.616  35.896  12.237 -0.4717 -0.1678 -0.1787
 2641DPPE   C1A53549  15.790  35.342  12.192 -0.0341  0.0310  0.0283
 2641DPPE   C2A53550  16.125  35.316  11.953  0.1180  0.0143 -0.2018
 2641DPPE   C3A53551  16.516  35.505  12.046 -0.1665  0.1481 -0.2545
 2641DPPE   C4A53552  16.926  35.449  12.129 -0.0791 -0.2471  0.0069
 2641DPPE   C1B53553  16.132  35.742  12.385  0.3055  0.0721 -0.1168
 2641DPPE   C2B53554  16.503  35.894  12.362 -0.1353 -0.4035  0.1324
 2641DPPE   C3B53555  16.845  36.240  12.345  0.0410 -0.0642  0.0008
 2641DPPE   C4B53556  16.828  36.640  12.419  0.3053 -0.0285  0.1682
 2642DPPE   NH353557   6.892  11.231  10.217  0.0746 -0.0969 -0.1775
 2642DPPE   PO453558   7.052  10.908  10.303  0.3947 -0.1035  0.2549
 2642DPPE   GL153559   7.326  11.181  10.461 -0.0869 -0.3351 -0.0834
 2642DPPE   GL253560   7.608  11.434  10.416 -0.2175  0.0161 -0.3085
 2642DPPE   C1A53561   7.589  11.223  10.864  0.2246  0.1945 -0.4079
 2642DPPE   C2A53562   7.569  11.216  11.258  0.1253 -0.1878  0.2805
 2642DPPE   C3A53563   7.635  11.229  11.768 -0.1375  0.0078 -0.1138
 2642DPPE   C4A53564   7.769  11.356  12.071 -0.4765 -0.0195 -0.0305
 2642DPPE   C1B53565   7.918  11.596  10.676 -0.2223  0.1684 -0.0996
 2642DPPE   C2B53566   8.237  11.724  10.853  0.3958 -0.2004 -0.2925
 2642DPPE   C3B53567   8.295  12.181  10.862 -0.1658  0.0532 -0.2316
 2642DPPE   C4B53568   8.419  12.664  10.976  0.1619  0.2946  0.1773
 2643DPPE   NH353569   8.890   8.479   8.141 -0.3234  0.2480 -0.2757
 2643DPPE   PO453570   8.845   8.827   7.915  0.1907 -0.1538  0.0474
 2643DPPE   GL153571   9.179   8.920   8.160 -0.0519 -0.0600 -0.1867
 2643DPPE   GL253572   9.231   9.131   8.398  0.0374  0.3174 -0.0438
 2643DPPE   C1A53573   9.579   8.828   8.256 -0.2718  0.0733 -0.2072
 2643DPPE   C2A53574   9.949   8.774   8.089  0.1311  0.0220  0.3750
 2643DPPE   C3A53575  10.133   8.426   7.933 -0.2370  0.1091 -0.0569
 2643DPPE   C4A53576  10.213   8.093   7.869  0.1151  0.0786 -0.0896
 2643DPPE   C1B53577   9.643   9.173   8.609  0.0184 -0.1138  0.1064
 2643DPPE   C2B53578  10.086   9.050   8.575  0.0021 -0.0356  0.2293
 2643DPPE   C3B53579  10.487   9.218   8.648 -0.0081 -0.1321 -0.1580
 2643DPPE   C4B53580  10.876   9.268   8.844  0.2011  0.1353 -0.1017
 2644DPPE   NH353581  14.945   0.631   9.714  0.0342 -0.0682  0.1961
 2644DPPE   PO453582  15.257   0.645  10.016 -0.2700  0.2350 -0.0257
 2644DPPE   GL153583  15.435   1.059  10.194  0.2068  0.0441  0.4677
 2644DPPE   GL253584  15.823   1.104  10.117  0.1624 -0.1093 -0.0537
 2644DPPE   C1A53585  15.481   0.872  10.661  0.0807  0.0129  0.3194
 2644DPPE   C2A53586  15.545   0.710  10.995 -0.0789  0.2995 -0.2621
 2644DPPE   C3A53587  15.275   0.548  11.294 -0.1563 -0.0719 -0.0693
 2644DPPE   C4A53588  15.243   0.514  11.763  0.2080  0.2886 -0.0332
 2644DPPE   C1B53589  16.357   1.186  10.278  0.2038  0.5150  0.0057
 2644DPPE   C2B53590  16.553   1.221  10.666  0.1817  0.3146  0.1189
 2644DPPE   C3B53591  16.907   1.306  10.883  0.1174 -0.1116  0.0049
 2644DPPE   C4B53592  16.998   1.191  11.272  0.2016  0.2860 -0.1578
 2645DPPE   NH353593  17.173   5.786   5.590  0.4591  0.6886 -0.1639
 2645DPPE   PO453594  17.331   5.813   6.005  0.2325  0.1355 -0.0337
 2645DPPE   GL153595  17.520   6.009   5.895 -0.0804 -0.1566  0.0866
 2645DPPE   GL253596  17.546   6.046   5.506  0.2256 -0.2630 -0.1815
 2645DPPE   C1A53597  17.848   6.267   5.985 -0.2877 -0.1290  0.3812
 2645DPPE   C2A53598  18.276   6.313   6.264  0.2545  0.1886 -0.3016
 2645DPPE   C3A53599  18.705   6.179   6.384  0.0823 -0.3352  0.2712
 2645DPPE   C4A53600  19.167   6.054   6.452 -0.1123 -0.1315 -0.0419
 2645DPPE   C1B53601  17.835   6.227   5.375  0.3412 -0.1081 -0.0807
 2645DPPE   C2B53602  18.202   6.504   5.324  0.0941 -0.3098  0.4524
 2645DPPE   C3B53603  18.495   6.763   5.062  0.0485 -0.0315 -0.3986
 2645DPPE   C4B53604  18.756   6.878   4.767 -0.2473 -0.2059 -0.2021
 2646DPPE   NH353605   8.694   2.527  14.321  0.1507 -0.1562 -0.3820
 2646DPPE   PO453606   8.322   2.743  14.469  0.1812 -0.2793 -0.1680
 2646DPPE   GL153607   8.605   2.774  14.814 -0.2510 -0.1539  0.0162
 2646DPPE   GL253608   8.989   2.778  14.957 -0.0949 -0.0280  0.0568
 2646DPPE   C1A53609   8.671   3.179  14.925 -0.2148  0.1915 -0.0321
 2646DPPE   C2A53610   9.039   3.368  14.856 -0.0025  0.3190 -0.1880
 2646DPPE   C3A53611   9.490   3.631  14.853  0.1220 -0.0037 -0.1587
 2646DPPE   C4A53612   9.795   3.845  14.650  0.2140  0.0052  0.3573
 2646DPPE   C1B53613   9.359   2.988  15.042  0.3159 -0.0298 -0.0471
 2646DPPE   C2B53614   9.704   3.176  14.812  0.0200  0.1317 -0.1060
 2646DPPE   C3B53615  10.049   3.481  14.881  0.2631 -0.0717  0.0397
 2646DPPE   C4B53616  10.435   3.664  14.810  0.3035 -0.1337  0.0280
 2647DPPE   NH353617   9.990   0.364  12.163 -0.0820  0.0698 -0.1736
 2647DPPE   PO453618   9.640   0.336  12.395  0.2924 -0.1367  0.1223
 2647DPPE   GL153619   9.408  -0.018  12.380 -0.0809  0.0945  0.0587
 2647DPPE   GL253620   9.363  -0.185  12.669  0.0350  0.2889 -0.0724
 2647DPPE   C1A53621   9.021  -0.089  12.138  0.5103 -0.1289 -0.2036
 2647DPPE   C2A53622   8.714  -0.341  12.063  0.3503 -0.2181  0.1822
 2647DPPE   C3A53623   8.655  -0.726  12.115  0.0811  0.1215  0.1667
 2647DPPE   C4A53624   8.500  -1.028  12.277 -0.2288 -0.0442 -0.3206
 2647DPPE   C1B53625   8.893  -0.320  12.609  0.0040 -0.0858  0.3147
 2647DPPE   C2B53626   8.583  -0.612  12.619 -0.1764 -0.0633  0.0986
 2647DPPE   C3B53627   8.260  -0.853  12.702 -0.0500 -0.1465  0.0555
 2647DPPE   C4B53628   7.972  -1.232  12.940 -0.0399 -0.0145  0.0200
 2648DPPE   NH353629   5.589   6.255  11.594 -0.1374  0.0720  0.2064
 2648DPPE   PO453630   5.374   6.473  11.930 -0.1028 -0.1058  0.2326
 2648DPPE   GL153631   5.120   6.381  11.629 -0.3987 -0.0326  0.1157
 2648DPPE   GL253632   4.890   6.548  11.657  0.0115 -0.0953 -0.0713
 2648DPPE   C1A53633   4.864   6.302  11.212 -0.0166  0.1725 -0.3217
 2648DPPE   C2A53634   4.497   6.207  10.999  0.2205  0.0649 -0.2077
 2648DPPE   C3A53635   4.023   6.122  10.904  0.1892  0.0027 -0.3911
 2648DPPE   C4A53636   3.585   6.302  10.719  0.1859 -0.1867  0.0331
 2648DPPE   C1B53637   4.463   6.576  11.550 -0.0395 -0.0061  0.1671
 2648DPPE   C2B53638   4.094   6.387  11.411 -0.2613 -0.0097  0.0627
 2648DPPE   C3B53639   3.672   6.366  11.266 -0.3286 -0.1104 -0.3336
 2648DPPE   C4B53640   3.203   6.118  11.288 -0.1852  0.2364 -0.1462
 2649DPPE   NH353641   6.550   7.209  10.690 -0.2123  0.0342  0.1192
 2649DPPE   PO453642   6.624   6.748  10.676 -0.0352  0.2702  0.1469
 2649DPPE   GL153643   6.184   6.690  10.382  0.0970 -0.2791  0.1820
 2649DPPE   GL253644   6.246   6.622  10.090  0.0606 -0.0175  0.0352
 2649DPPE   C1A53645   5.742   6.822  10.315 -0.4337 -0.1743  0.1012
 2649DPPE   C2A53646   5.341   6.756  10.073  0.4231  0.0929  0.1458
 2649DPPE   C3A53647   4.904   6.675   9.980 -0.0733  0.0858  0.1262
 2649DPPE   C4A53648   4.577   6.503   9.753 -0.2220 -0.0062 -0.0243
 2649DPPE   C1B53649   5.806   6.569   9.896  0.3365 -0.1724  0.1921
 2649DPPE   C2B53650   5.586   6.428   9.593 -0.0672  0.0569 -0.1270
 2649DPPE   C3B53651   5.452   6.481   9.181  0.2056 -0.1542 -0.0237
 2649DPPE   C4B53652   5.376   6.708   8.784  0.1459  0.2579 -0.4371
 2650DPPE   NH353653   7.142   8.684  10.390  0.2618 -0.1802  0.0388
 2650DPPE   PO453654   7.205   8.849  10.613  0.2148 -0.3294  0.0682
 2650DPPE   GL153655   7.447   8.891  10.878  0.0577 -0.1378  0.0827
 2650DPPE   GL253656   7.415   9.061  11.214  0.2021  0.2263  0.1279
 2650DPPE   C1A53657   7.945   8.939  10.961  0.1113 -0.0958 -0.0174
 2650DPPE   C2A53658   8.266   8.910  11.246 -0.0843 -0.0195  0.1754
 2650DPPE   C3A53659   8.706   9.094  11.300  0.0544 -0.1676  0.0489
 2650DPPE   C4A53660   9.117   9.284  11.428 -0.1026 -0.3333  0.0699
 2650DPPE   C1B53661   7.770   9.196  11.504  0.0724 -0.0309 -0.1633
 2650DPPE   C2B53662   8.265   9.246  11.588  0.1667  0.0349 -0.1059
 2650DPPE   C3B53663   8.624   9.307  11.774 -0.5286 -0.0965  0.0550
 2650DPPE   C4B53664   8.966   9.200  12.023 -0.0749  0.1507  0.0598
 2651DPPE   NH353665  11.482   2.733   7.733  0.1794 -0.2237  0.0765
 2651DPPE   PO453666  11.679   3.160   7.658  0.3048 -0.1505 -0.3349
 2651DPPE   GL153667  11.575   2.982   7.236  0.0765 -0.0782  0.1372
 2651DPPE   GL253668  11.297   2.941   7.280 -0.2252  0.2795  0.2980
 2651DPPE   C1A53669  11.635   2.853   6.783  0.2297 -0.0689  0.3118
 2651DPPE   C2A53670  11.560   2.586   6.382 -0.1107 -0.2294  0.1467
 2651DPPE   C3A53671  11.263   2.204   6.216 -0.0011 -0.0355  0.0330
 2651DPPE   C4A53672  11.256   1.792   5.885  0.0532  0.1278  0.1984
 2651DPPE   C1B53673  11.122   2.862   6.863  0.0106  0.0314  0.0451
 2651DPPE   C2B53674  10.908   2.744   6.532 -0.0336  0.1538  0.3184
 2651DPPE   C3B53675  10.459   2.856   6.264 -0.0156 -0.0629  0.1270
 2651DPPE   C4B53676  10.080   2.666   6.251 -0.2534  0.1285  0.0625
 2652DPPE   NH353677  10.609   3.786   8.135  0.1283  0.1474 -0.2084
 2652DPPE   PO453678  10.349   3.906   7.815 -0.1607  0.2370 -0.1097
 2652DPPE   GL153679  10.109   3.614   7.643 -0.2874  0.0219  0.0216
 2652DPPE   GL253680  10.223   3.320   7.788 -0.1312  0.0966 -0.0260
 2652DPPE   C1A53681   9.934   3.433   7.309  0.2243  0.4102 -0.1839
 2652DPPE   C2A53682   9.805   3.258   6.923 -0.2841  0.0940 -0.1809
 2652DPPE   C3A53683   9.496   3.020   6.640 -0.0363 -0.3044  0.3291
 2652DPPE   C4A53684   9.087   2.733   6.625  0.0704  0.1294  0.0222
 2652DPPE   C1B53685   9.834   3.113   7.753 -0.0237  0.1417 -0.2323
 2652DPPE   C2B53686   9.671   2.851   7.431  0.1338 -0.0656 -0.2799
 2652DPPE   C3B53687   9.507   2.670   7.061  0.3167  0.2323 -0.1049
 2652DPPE   C4B53688   9.545   2.281   6.884  0.1143 -0.2400 -0.1073
 2653DPPE   NH353689   6.015   7.135  15.782  0.2278  0.2532 -0.1471
 2653DPPE   PO453690   5.538   7.128  15.753 -0.2696  0.0003 -0.4716
 2653DPPE   GL153691   5.275   7.130  16.175 -0.1137 -0.0136 -0.3952
 2653DPPE   GL253692   5.356   6.817  16.438  0.1145 -0.0785 -0.2192
 2653DPPE   C1A53693   4.986   7.132  16.574  0.0111 -0.0182  0.1303
 2653DPPE   C2A53694   4.691   7.105  16.682  0.0290 -0.1272  0.2544
 2653DPPE   C3A53695   4.205   7.092  16.653  0.1087 -0.2992  0.1468
 2653DPPE   C4A53696   3.853   7.218  16.627 -0.0550  0.2457  0.1347
 2653DPPE   C1B53697   5.443   7.143  16.779  0.3260 -0.0286  0.0020
 2653DPPE   C2B53698   5.505   7.413  17.111 -0.3792 -0.0782  0.2078
 2653DPPE   C3B53699   5.679   7.773  17.375  0.0115 -0.3194 -0.2104
 2653DPPE   C4B53700   5.743   8.172  17.637 -0.0478 -0.0906 -0.0945
 2654DPPE   NH353701  13.417  35.337  12.016  0.2228 -0.2351  0.3549
 2654DPPE   PO453702  12.942  35.302  12.149 -0.3063 -0.0515 -0.1751
 2654DPPE   GL153703  12.996  34.948  11.907 -0.3336 -0.0488 -0.1061
 2654DPPE   GL253704  13.276  34.855  12.099 -0.0418  0.1031  0.0343
 2654DPPE   C1A53705  12.765  34.487  11.719 -0.0316  0.2054 -0.0903
 2654DPPE   C2A53706  12.539  34.044  11.519  0.0379  0.0922 -0.1648
 2654DPPE   C3A53707  12.373  33.839  11.159  0.1575  0.0762  0.1168
 2654DPPE   C4A53708  12.056  33.552  10.835  0.3265  0.0481  0.0850
 2654DPPE   C1B53709  13.215  34.438  11.988  0.1175 -0.2447  0.0824
 2654DPPE   C2B53710  13.058  34.135  12.211  0.0473 -0.2482  0.0386
 2654DPPE   C3B53711  12.851  33.909  12.395 -0.2409  0.4156  0.0016
 2654DPPE   C4B53712  12.511  33.657  12.681 -0.1626  0.1317 -0.1743
 2655DPPE   NH353713   5.500   9.079  11.482 -0.2425 -0.1885  0.1816
 2655DPPE   PO453714   5.634   9.022  11.016  0.0592  0.1434  0.2086
 2655DPPE   GL153715   5.330   9.287  10.885  0.2295 -0.0015  0.4241
 2655DPPE   GL253716   5.181   9.081  10.564  0.4639  0.1003  0.1521
 2655DPPE   C1A53717   4.840   9.258  10.856 -0.2493  0.2989  0.0945
 2655DPPE   C2A53718   4.404   9.248  10.652  0.1749  0.1488  0.0535
 2655DPPE   C3A53719   4.093   9.180  10.257 -0.0815 -0.0468 -0.3003
 2655DPPE   C4A53720   3.944   9.333   9.845  0.1272  0.2077  0.1314
 2655DPPE   C1B53721   4.772   9.068  10.347 -0.1041  0.0805 -0.1829
 2655DPPE   C2B53722   4.607   8.763  10.055  0.0388 -0.1591 -0.1109
 2655DPPE   C3B53723   4.606   8.599   9.685  0.2538 -0.0518  0.0333
 2655DPPE   C4B53724   4.954   8.516   9.446  0.2857  0.1387 -0.2448
 2656DPPE   NH353725   8.370   5.324   9.890  0.1155 -0.1019 -0.2478
 2656DPPE   PO453726   8.572   5.686  10.081 -0.1572 -0.0980 -0.1007
 2656DPPE   GL153727   8.715   6.115  10.177  0.1146  0.1593  0.3773
 2656DPPE   GL253728   8.936   6.292   9.875  0.0109  0.0801  0.3953
 2656DPPE   C1A53729   8.906   6.411  10.424 -0.2512 -0.0891 -0.1315
 2656DPPE   C2A53730   9.381   6.592  10.379 -0.1294 -0.0376 -0.3123
 2656DPPE   C3A53731   9.496   6.911  10.692  0.1225 -0.1740  0.0114
 2656DPPE   C4A53732   9.669   7.128  10.910 -0.0404  0.0276 -0.0703
 2656DPPE   C1B53733   9.354   6.634   9.883  0.0090  0.3318  0.0118
 2656DPPE   C2B53734   9.525   6.960  10.089  0.1300  0.0818  0.0264
 2656DPPE   C3B53735   9.760   7.228  10.377 -0.0081  0.0657 -0.1091
 2656DPPE   C4B53736   9.872   7.694  10.406  0.4055 -0.1336  0.4408
 2657DPPE   NH353737   6.692   2.782  17.289 -0.0581  0.3173  0.0869
 2657DPPE   PO453738   6.955   3.150  17.487 -0.0393  0.4401  0.5902
 2657DPPE   GL153739   7.344   3.056  17.606 -0.3374 -0.0939  0.2095
 2657DPPE   GL253740   7.393   2.787  17.786 -0.1463  0.1829  0.0117
 2657DPPE   C1A53741   7.555   3.255  17.880 -0.0309 -0.0756  0.1099
 2657DPPE   C2A53742   7.886   3.389  18.139 -0.3456 -0.0344  0.0709
 2657DPPE   C3A53743   8.315   3.474  18.122 -0.1753 -0.1367  0.0523
 2657DPPE   C4A53744   8.590   3.377  18.449  0.0170  0.0229  0.0110
 2657DPPE   C1B53745   7.269   2.710  18.214  0.1199  0.1581  0.4468
 2657DPPE   C2B53746   6.911   2.493  18.344 -0.2445 -0.0792  0.0444
 2657DPPE   C3B53747   6.580   2.225  18.514 -0.0124 -0.2570  0.2250
 2657DPPE   C4B53748   6.654   1.827  18.613  0.1896  0.0217  0.0659
 2658DPPE   NH353749  13.269   5.087   7.186 -0.0067 -0.1270  0.1004
 2658DPPE   PO453750  12.893   4.935   7.364 -0.0897 -0.2073  0.2020
 2658DPPE   GL153751  12.992   5.423   7.486  0.1659 -0.0062  0.0712
 2658DPPE   GL253752  12.788   5.649   7.406  0.1771 -0.1090  0.0076
 2658DPPE   C1A53753  13.035   5.435   7.881  0.0113  0.0330  0.1500
 2658DPPE   C2A53754  12.980   5.591   8.186 -0.3261  0.1939 -0.0866
 2658DPPE   C3A53755  12.963   5.606   8.604 -0.3264 -0.0352  0.0435
 2658DPPE   C4A53756  12.690   5.490   9.011 -0.0617  0.0060  0.0688
 2658DPPE   C1B53757  12.620   5.819   7.711 -0.0148  0.3430  0.1398
 2658DPPE   C2B53758  12.636   5.963   8.109 -0.0454  0.1325 -0.1573
 2658DPPE   C3B53759  12.821   6.158   8.490 -0.3850 -0.2456 -0.0023
 2658DPPE   C4B53760  12.962   6.233   8.874 -0.0425  0.3708 -0.1485
 2659DPPE   NH353761   6.886   4.847  16.131  0.1725  0.0130  0.0443
 2659DPPE   PO453762   6.790   5.074  16.442 -0.2292 -0.1728  0.0011
 2659DPPE   GL153763   7.161   5.173  16.740  0.0820  0.0396  0.5271
 2659DPPE   GL253764   7.141   4.976  17.048 -0.0424  0.1012  0.2062
 2659DPPE   C1A53765   7.221   5.515  17.035 -0.3311  0.1172 -0.2037
 2659DPPE   C2A53766   7.380   5.584  17.354 -0.0975 -0.0833  0.1927
 2659DPPE   C3A53767   7.817   5.683  17.536  0.2080  0.2713 -0.2902
 2659DPPE   C4A53768   8.188   5.401  17.547 -0.0985 -0.4318  0.0535
 2659DPPE   C1B53769   7.398   5.002  17.468 -0.1451  0.0878 -0.3767
 2659DPPE   C2B53770   7.715   5.167  17.708  0.0818  0.1291 -0.4414
 2659DPPE   C3B53771   8.029   5.041  17.933 -0.3953 -0.0447  0.0171
 2659DPPE   C4B53772   8.328   5.283  18.215 -0.3781  0.2598  0.0514
 2660DPPE   NH353773  10.155   1.358  12.695 -0.0810  0.0006 -0.3540
 2660DPPE   PO453774  10.230   1.502  12.298 -0.3400 -0.1213  0.3357
 2660DPPE   GL153775  10.725   1.617  12.416  0.0294 -0.0944 -0.2552
 2660DPPE   GL253776  10.796   1.474  12.660  0.0546  0.1216  0.1437
 2660DPPE   C1A53777  11.077   1.889  12.619 -0.0027 -0.5063  0.2791
 2660DPPE   C2A53778  11.221   2.107  12.911 -0.0325 -0.0242  0.0790
 2660DPPE   C3A53779  11.107   2.435  13.119 -0.1390  0.0171  0.0485
 2660DPPE   C4A53780  11.152   2.753  13.354 -0.3125 -0.2301 -0.0057
 2660DPPE   C1B53781  10.854   1.745  13.099 -0.0185  0.1158 -0.2987
 2660DPPE   C2B53782  10.642   2.079  13.274 -0.0826  0.1151 -0.1523
 2660DPPE   C3B53783  10.699   2.500  13.358 -0.1400  0.0976 -0.1780
 2660DPPE   C4B53784  10.664   2.981  13.575 -0.0882 -0.3197  0.0579
 2661DPPE   NH353785  10.749   6.419   6.097  0.1852 -0.2961  0.1980
 2661DPPE   PO453786  11.034   6.638   6.161  0.0992  0.1745  0.1763
 2661DPPE   GL153787  10.975   6.592   5.673  0.0221  0.0944  0.0294
 2661DPPE   GL253788  11.147   6.401   5.635  0.2407  0.0596  0.5154
 2661DPPE   C1A53789  10.611   6.511   5.497 -0.0869 -0.0191 -0.0362
 2661DPPE   C2A53790  10.418   6.645   5.170 -0.4026 -0.1293 -0.1368
 2661DPPE   C3A53791  10.123   6.560   4.770 -0.0384 -0.0398  0.0619
 2661DPPE   C4A53792   9.713   6.417   4.343  0.0297  0.2946  0.4467
 2661DPPE   C1B53793  10.982   6.167   5.355  0.0029 -0.0972 -0.0185
 2661DPPE   C2B53794  10.793   5.974   4.961 -0.1443  0.1902 -0.2848
 2661DPPE   C3B53795  10.550   5.809   4.632 -0.1171 -0.2225 -0.0034
 2661DPPE   C4B53796  10.295   5.572   4.332  0.2348  0.0310  0.0352
 2662DPPE   NH353797  13.369   3.556   6.323  0.1047 -0.3346  0.3096
 2662DPPE   PO453798  13.174   3.231   6.624  0.2496 -0.0112 -0.0944
 2662DPPE   GL153799  13.116   3.134   6.210  0.3575 -0.2693 -0.1421
 2662DPPE   GL253800  13.405   3.008   6.092 -0.3125  0.1998 -0.0234
 2662DPPE   C1A53801  13.110   3.104   5.711  0.0280  0.1254  0.0030
 2662DPPE   C2A53802  12.995   2.803   5.419  0.0875  0.1690  0.2346
 2662DPPE   C3A53803  12.588   2.628   5.230  0.1404  0.1638  0.1292
 2662DPPE   C4A53804  12.626   2.652   4.797  0.2331 -0.3074 -0.2602
 2662DPPE   C1B53805  13.372   2.609   5.986  0.2390 -0.0065  0.1427
 2662DPPE   C2B53806  13.156   2.337   5.603  0.0987 -0.2891 -0.0765
 2662DPPE   C3B53807  12.813   2.160   5.407 -0.4238 -0.2931  0.1413
 2662DPPE   C4B53808  12.507   2.058   5.369 -0.0770  0.1232  0.1047
 2663DPPE   NH353809  11.537  11.567   5.727 -0.0739  0.0582  0.2060
 2663DPPE   PO453810  11.912  11.349   5.605  0.3424 -0.1426  0.0968
 2663DPPE   GL153811  12.007  11.712   5.652 -0.3310 -0.3647 -0.1553
 2663DPPE   GL253812  12.367  11.650   5.763 -0.2812  0.2874  0.2987
 2663DPPE   C1A53813  11.981  12.070   5.932  0.2719  0.1616 -0.1058
 2663DPPE   C2A53814  11.939  12.430   6.123  0.1556  0.1448 -0.1887
 2663DPPE   C3A53815  11.859  12.888   6.137  0.1029 -0.0038  0.1444
 2663DPPE   C4A53816  12.037  13.375   6.251 -0.3089 -0.0259  0.2039
 2663DPPE   C1B53817  12.481  12.018   6.095  0.2760  0.1946  0.0817
 2663DPPE   C2B53818  12.439  12.246   6.418  0.1980  0.0695  0.0603
 2663DPPE   C3B53819  12.169  12.475   6.706  0.0578  0.1784  0.0103
 2663DPPE   C4B53820  11.805  12.669   6.573 -0.1720  0.1792  0.2042
 2664DPPE   NH353821  17.601   1.575   7.165 -0.1504  0.1420  0.0296
 2664DPPE   PO453822  17.933   1.949   6.940  0.0326  0.1673 -0.2478
 2664DPPE   GL153823  17.669   1.705   6.678  0.0728 -0.1126  0.0080
 2664DPPE   GL253824  17.620   1.442   6.649  0.1999  0.3680 -0.2102
 2664DPPE   C1A53825  17.655   1.560   6.166  0.1025 -0.1162 -0.2332
 2664DPPE   C2A53826  17.611   1.211   5.912 -0.2415  0.2492 -0.0460
 2664DPPE   C3A53827  17.849   0.731   6.049  0.0877 -0.2269  0.0627
 2664DPPE   C4A53828  17.867   0.366   6.317  0.0341 -0.3786  0.1126
 2664DPPE   C1B53829  18.031   1.300   6.382 -0.1141 -0.2665 -0.3521
 2664DPPE   C2B53830  18.139   1.080   5.976 -0.0653  0.0776 -0.1451
 2664DPPE   C3B53831  17.961   1.025   5.567  0.0255 -0.0607  0.3818
 2664DPPE   C4B53832  17.590   0.728   5.604 -0.2328  0.2480 -0.2482
 2665DPPE   NH353833  10.239   9.267   7.074 -0.0179 -0.4126 -0.1339
 2665DPPE   PO453834  10.496   9.044   6.808  0.1422 -0.1926 -0.1204
 2665DPPE   GL153835  10.684   9.124   7.194 -0.0072  0.0721  0.0788
 2665DPPE   GL253836  10.504   8.906   7.322  0.3860 -0.0794 -0.4759
 2665DPPE   C1A53837  11.057   9.269   7.241 -0.0644 -0.1396 -0.1138
 2665DPPE   C2A53838  11.077   9.590   7.517 -0.2367 -0.1416 -0.0588
 2665DPPE   C3A53839  11.276   9.673   7.915  0.2128  0.1334  0.0445
 2665DPPE   C4A53840  11.441   9.438   8.162 -0.2322 -0.2708  0.2620
 2665DPPE   C1B53841  10.553   8.951   7.787  0.0841  0.0761 -0.2019
 2665DPPE   C2B53842  10.522   8.824   8.285  0.0356 -0.1089 -0.2405
 2665DPPE   C3B53843  10.730   8.736   8.630  0.2107  0.0036  0.1471
 2665DPPE   C4B53844  11.060   8.735   8.883 -0.1320  0.0110  0.1126
 2666DPPE   NH353845  11.724  35.788  13.674  0.3391 -0.3305  0.1388
 2666DPPE   PO453846  11.603  35.437  13.980 -0.2351 -0.0660 -0.4352
 2666DPPE   GL153847  11.615  35.129  14.121  0.0811  0.0747  0.1529
 2666DPPE   GL253848  11.487  34.812  14.059  0.1749 -0.4448  0.0232
 2666DPPE   C1A53849  11.700  34.774  14.480 -0.2815 -0.0345  0.1729
 2666DPPE   C2A53850  11.922  34.457  14.586 -0.2302 -0.0741  0.0624
 2666DPPE   C3A53851  12.112  34.102  14.495 -0.2193 -0.2191 -0.1111
 2666DPPE   C4A53852  11.990  33.851  14.432  0.0795  0.0216  0.0132
 2666DPPE   C1B53853  11.247  34.529  13.824 -0.0373  0.0726  0.1929
 2666DPPE   C2B53854  10.837  34.261  13.825  0.1588 -0.2815  0.0629
 2666DPPE   C3B53855  10.607  33.952  14.117 -0.0069  0.3074 -0.0850
 2666DPPE   C4B53856  10.686  33.831  14.601 -0.1420 -0.0982 -0.0517
 2667DPPE   NH353857  15.000   6.250   6.021 -0.0925 -0.0193  0.1217
 2667DPPE   PO453858  15.207   6.608   5.824  0.1026  0.0720 -0.0866
 2667DPPE   GL153859  15.382   6.650   6.239 -0.2494 -0.0280  0.4186
 2667DPPE   GL253860  15.615   6.924   6.212  0.1346  0.0265 -0.0038
 2667DPPE   C1A53861  15.570   6.618   6.663  0.0125 -0.2075 -0.2162
 2667DPPE   C2A53862  15.799   6.781   6.928 -0.2896 -0.0508  0.2041
 2667DPPE   C3A53863  16.189   6.706   6.972 -0.0868 -0.1028 -0.1217
 2667DPPE   C4A53864  16.574   6.866   6.859 -0.1653 -0.2482  0.0440
 2667DPPE   C1B53865  15.766   7.202   6.608 -0.2627  0.0719 -0.0409
 2667DPPE   C2B53866  16.055   7.210   6.983 -0.0285 -0.0097  0.3979
 2667DPPE   C3B53867  16.200   7.528   7.249  0.1580 -0.0174  0.0926
 2667DPPE   C4B53868  16.579   7.666   7.415 -0.1915  0.0895  0.0411
 2668DPPE   NH353869   7.516  11.076  10.006 -0.3369 -0.0374  0.0587
 2668DPPE   PO453870   7.757  10.952   9.543  0.2564  0.0295 -0.0076
 2668DPPE   GL153871   7.887  11.304   9.649 -0.0896  0.3096 -0.2904
 2668DPPE   GL253872   8.135  11.255   9.545 -0.2075  0.0036  0.0281
 2668DPPE   C1A53873   8.044  11.600   9.868 -0.0656  0.0125  0.0186
 2668DPPE   C2A53874   7.923  11.938  10.039 -0.1420 -0.0739  0.2549
 2668DPPE   C3A53875   7.966  12.353   9.905  0.3072  0.1531 -0.0268
 2668DPPE   C4A53876   8.042  12.767   9.637 -0.1274  0.1454 -0.1018
 2668DPPE   C1B53877   8.622  11.323   9.455  0.2423  0.2765  0.2309
 2668DPPE   C2B53878   8.884  11.065   9.707 -0.3355  0.3122 -0.1430
 2668DPPE   C3B53879   9.247  10.885   9.908 -0.2309  0.2645  0.1015
 2668DPPE   C4B53880   9.270  10.527   9.764  0.1853  0.0785 -0.1357
 2669DPPE   NH353881   8.675   5.673   8.661  0.0177 -0.0146  0.0640
 2669DPPE   PO453882   8.425   5.467   8.381  0.0453 -0.1768 -0.1062
 2669DPPE   GL153883   8.092   5.297   8.149 -0.2067 -0.1182  0.4040
 2669DPPE   GL253884   8.081   5.305   7.834 -0.1758 -0.1623  0.1406
 2669DPPE   C1A53885   7.921   4.890   7.959 -0.0986  0.1510  0.0280
 2669DPPE   C2A53886   7.622   4.670   7.541  0.2186  0.0616  0.1873
 2669DPPE   C3A53887   7.444   4.681   7.153 -0.3984  0.0395 -0.0080
 2669DPPE   C4A53888   6.972   4.549   6.979 -0.0240  0.1204 -0.0477
 2669DPPE   C1B53889   7.765   5.242   7.515  0.2361  0.1474 -0.1929
 2669DPPE   C2B53890   7.452   5.430   7.243  0.2261  0.3075 -0.0337
 2669DPPE   C3B53891   7.159   5.630   6.884  0.2656  0.1437 -0.0174
 2669DPPE   C4B53892   6.899   5.820   6.676  0.0660 -0.1597 -0.0019
 2670DPPE   NH353893   7.192   6.915   9.782 -0.2359 -0.3509  0.1030
 2670DPPE   PO453894   7.228   6.717  10.221  0.0113  0.1432  0.4334
 2670DPPE   GL153895   7.567   6.986  10.332  0.1861  0.1394 -0.0239
 2670DPPE   GL253896   7.485   7.153  10.559  0.0771  0.1133 -0.0415
 2670DPPE   C1A53897   7.985   7.112  10.363 -0.0864  0.2651  0.0108
 2670DPPE   C2A53898   8.199   7.054  10.732  0.1931  0.0805  0.0081
 2670DPPE   C3A53899   8.588   6.799  10.726 -0.2800 -0.0522 -0.0575
 2670DPPE   C4A53900   8.980   6.906  10.702  0.0095  0.1805 -0.1055
 2670DPPE   C1B53901   7.755   7.145  10.910 -0.1790  0.0684 -0.1677
 2670DPPE   C2B53902   8.053   7.207  11.243 -0.1514 -0.2599 -0.1603
 2670DPPE   C3B53903   8.283   7.516  11.340  0.2253 -0.1248  0.1593
 2670DPPE   C4B53904   8.570   7.686  11.721  0.0087 -0.0895  0.2926
 2671DPPE   NH353905   5.772   7.349  13.359  0.0032 -0.1259  0.1035
 2671DPPE   PO453906   5.959   7.804  13.209 -0.2495  0.0158  0.0525
 2671DPPE   GL153907   6.348   7.830  13.342  0.0249  0.3310  0.1842
 2671DPPE   GL253908   6.555   8.024  13.128  0.1128  0.0624 -0.0007
 2671DPPE   C1A53909   6.692   7.829  13.689  0.0036  0.1960 -0.2058
 2671DPPE   C2A53910   7.031   8.034  13.745 -0.0654 -0.1242 -0.0392
 2671DPPE   C3A53911   7.414   8.275  13.841  0.1421  0.0865  0.1986
 2671DPPE   C4A53912   7.569   8.437  14.177 -0.1230  0.0415  0.0178
 2671DPPE   C1B53913   6.886   8.151  13.232 -0.3047  0.1298 -0.0051
 2671DPPE   C2B53914   7.174   8.436  13.403 -0.3585  0.1206 -0.0038
 2671DPPE   C3B53915   7.490   8.636  13.290  0.2323  0.1014 -0.1992
 2671DPPE   C4B53916   7.906   8.741  13.450 -0.1178 -0.1142 -0.4222
 2672DPPE   NH353917   7.259   8.398  10.815 -0.3852 -0.1647  0.1525
 2672DPPE   PO453918   7.079   8.048  10.775  0.1582 -0.0954 -0.2777
 2672DPPE   GL153919   7.195   7.982  11.159 -0.0722 -0.2452  0.3209
 2672DPPE   GL253920   7.319   8.144  11.375 -0.0995  0.0116 -0.0781
 2672DPPE   C1A53921   7.415   7.577  11.320 -0.2913 -0.1704 -0.0850
 2672DPPE   C2A53922   7.604   7.447  11.539 -0.2004 -0.1911  0.4023
 2672DPPE   C3A53923   7.707   7.027  11.663  0.0407 -0.2458  0.2033
 2672DPPE   C4A53924   7.490   6.635  11.603 -0.1687  0.2913  0.3146
 2672DPPE   C1B53925   7.807   8.147  11.437 -0.0258  0.3513 -0.2194
 2672DPPE   C2B53926   8.197   8.089  11.628  0.0975  0.1404 -0.0777
 2672DPPE   C3B53927   8.418   8.183  11.924  0.0078 -0.5974  0.3040
 2672DPPE   C4B53928   8.694   8.424  12.141  0.1789 -0.1411 -0.1690
 2673DPPE   NH353929  11.569   6.937   6.903 -0.0651  0.0605  0.0289
 2673DPPE   PO453930  11.962   6.978   6.841 -0.0776  0.0406  0.2074
 2673DPPE   GL153931  12.258   7.249   6.972  0.0380  0.0939 -0.0879
 2673DPPE   GL253932  12.508   7.093   7.093  0.0279 -0.1681 -0.0995
 2673DPPE   C1A53933  12.316   7.453   7.381 -0.0605 -0.0269  0.2671
 2673DPPE   C2A53934  12.548   7.576   7.870 -0.0459  0.3089 -0.2254
 2673DPPE   C3A53935  12.712   7.666   8.187  0.0114  0.2767  0.2010
 2673DPPE   C4A53936  12.789   7.433   8.495 -0.2536 -0.1910 -0.0751
 2673DPPE   C1B53937  12.611   7.066   7.533 -0.0673  0.0725 -0.1984
 2673DPPE   C2B53938  12.852   7.102   7.939 -0.0863  0.1061 -0.2252
 2673DPPE   C3B53939  13.057   7.096   8.269  0.1075  0.1896  0.0984
 2673DPPE   C4B53940  13.188   7.072   8.596 -0.0199 -0.4272 -0.2540
 2674DPPE   NH353941  11.470   5.602   6.818 -0.1869 -0.2088  0.1594
 2674DPPE   PO453942  11.232   5.737   6.477 -0.2483  0.0586  0.1488
 2674DPPE   GL153943  11.345   5.526   6.143 -0.0583  0.0120  0.3709
 2674DPPE   GL253944  11.006   5.369   6.117 -0.1226 -0.0195 -0.0700
 2674DPPE   C1A53945  11.293   5.457   5.703  0.0736  0.2125 -0.0814
 2674DPPE   C2A53946  11.105   5.258   5.358 -0.1324 -0.0578  0.0915
 2674DPPE   C3A53947  10.774   4.947   5.098  0.1732 -0.0182  0.2565
 2674DPPE   C4A53948  10.651   4.932   4.731  0.0232 -0.0682  0.0877
 2674DPPE   C1B53949  10.778   5.341   5.752  0.4394  0.0043  0.1570
 2674DPPE   C2B53950  10.489   5.221   5.470  0.1916  0.2720 -0.1596
 2674DPPE   C3B53951  10.364   5.526   5.214  0.0453  0.0286 -0.3159
 2674DPPE   C4B53952  10.292   5.911   5.067  0.0634  0.0200  0.2730
 2675DPPE   NH353953  10.056   1.099  14.883  0.1633  0.1942  0.0134
 2675DPPE   PO453954  10.101   1.002  15.264 -0.5441 -0.0255 -0.2969
 2675DPPE   GL153955  10.206   0.915  15.558 -0.0840  0.1066 -0.0678
 2675DPPE   GL253956  10.523   0.885  15.642  0.2807  0.3312 -0.0738
 2675DPPE   C1A53957  10.282   0.881  16.075 -0.2267 -0.3389  0.3973
 2675DPPE   C2A53958  10.664   1.043  16.276  0.1942 -0.0564  0.2054
 2675DPPE   C3A53959  10.598   1.023  16.710 -0.0206 -0.1093  0.1589
 2675DPPE   C4A53960  10.368   1.130  17.075  0.2258  0.2659 -0.2572
 2675DPPE   C1B53961  10.948   0.918  15.633  0.0482 -0.3179 -0.0731
 2675DPPE   C2B53962  11.363   1.044  15.526 -0.0518  0.3552 -0.0486
 2675DPPE   C3B53963  11.667   0.832  15.769  0.0650  0.0673 -0.0291
 2675DPPE   C4B53964  11.799   0.511  16.084  0.1716 -0.0177  0.0101
 2676DPPE   NH353965  16.350   0.746   8.250  0.2766 -0.0079  0.0674
 2676DPPE   PO453966  16.611   0.656   7.967 -0.2090  0.0930 -0.1327
 2676DPPE   GL153967  16.647   0.470   7.625  0.0054  0.0698  0.1063
 2676DPPE   GL253968  16.415   0.338   7.439  0.1002 -0.2188  0.0566
 2676DPPE   C1A53969  16.879   0.229   7.284 -0.1445 -0.2631 -0.1131
 2676DPPE   C2A53970  16.978   0.155   6.836  0.2967  0.2537 -0.2439
 2676DPPE   C3A53971  17.166  -0.168   6.583  0.0150 -0.1991 -0.1325
 2676DPPE   C4A53972  17.223  -0.364   6.181  0.0080  0.1320 -0.1625
 2676DPPE   C1B53973  16.485   0.015   7.203  0.2019  0.3364  0.3026
 2676DPPE   C2B53974  16.885  -0.294   7.007  0.2062 -0.2692  0.3363
 2676DPPE   C3B53975  17.171  -0.585   7.211  0.0442  0.3836 -0.3415
 2676DPPE   C4B53976  17.209  -0.906   7.575  0.2229 -0.0999  0.0573
 2677DPPE   NH353977  10.878  11.216   5.826 -0.0241 -0.0939  0.0559
 2677DPPE   PO453978  11.091  11.221   6.202 -0.1752 -0.0724  0.0455
 2677DPPE   GL153979  11.440  11.250   6.580 -0.1088 -0.0841  0.1006
 2677DPPE   GL253980  11.694  11.578   6.620  0.0467 -0.0595  0.1447
 2677DPPE   C1A53981  11.759  11.125   6.954 -0.0356 -0.0038  0.0355
 2677DPPE   C2A53982  11.810  11.172   7.397  0.0108  0.0479 -0.4459
 2677DPPE   C3A53983  11.865  11.021   7.831 -0.0973 -0.2087  0.0532
 2677DPPE   C4A53984  12.024  11.061   8.317 -0.2992  0.1676  0.0444
 2677DPPE   C1B53985  11.814  11.785   6.937  0.1004 -0.0008 -0.2145
 2677DPPE   C2B53986  12.119  12.074   6.996 -0.0278  0.2178  0.0532
 2677DPPE   C3B53987  12.552  12.127   6.861 -0.0133 -0.1165  0.0939
 2677DPPE   C4B53988  12.977  12.293   6.795  0.4862  0.1283 -0.1601
 2678DPPE   NH353989  17.232   1.712   7.456  0.0920 -0.3382  0.1284
 2678DPPE   PO453990  17.054   1.930   7.902  0.2306  0.0952  0.4003
 2678DPPE   GL153991  17.019   2.282   8.202 -0.2387 -0.1322  0.1722
 2678DPPE   GL253992  17.055   2.241   8.526  0.0245 -0.2325  0.1586
 2678DPPE   C1A53993  17.264   2.671   8.497 -0.2562  0.0314  0.0073
 2678DPPE   C2A53994  17.231   3.110   8.385  0.0440 -0.3687 -0.1112
 2678DPPE   C3A53995  17.062   3.453   8.682 -0.0272  0.0684 -0.1851
 2678DPPE   C4A53996  17.050   3.701   9.040  0.1287  0.2390  0.1832
 2678DPPE   C1B53997  17.014   2.467   8.884 -0.0951  0.0854  0.1288
 2678DPPE   C2B53998  17.134   2.473   9.266  0.1849  0.4294  0.0145
 2678DPPE   C3B53999  17.220   2.505   9.758 -0.3340 -0.2936  0.4661
 2678DPPE   C4B54000  17.378   2.438  10.241  0.0100  0.1516  0.3136
 2679DPPE   NH354001  10.010  10.902   7.300  0.2697  0.1776 -0.0205
 2679DPPE   PO454002   9.702  11.153   7.532 -0.2025  0.0874  0.0934
 2679DPPE   GL154003  10.009  11.224   7.824  0.0792  0.0378  0.2215
 2679DPPE   GL254004   9.991  11.030   8.028  0.0832  0.0202  0.2544
 2679DPPE   C1A54005  10.409  11.344   7.945 -0.3126  0.1516 -0.1054
 2679DPPE   C2A54006  10.805  11.703   7.767  0.2435 -0.0470 -0.3120
 2679DPPE   C3A54007  11.279  11.841   7.635  0.0296 -0.4559 -0.0904
 2679DPPE   C4A54008  11.490  11.942   7.911  0.1223 -0.0931  0.1174
 2679DPPE   C1B54009  10.151  11.426   8.344  0.2689 -0.1078 -0.2564
 2679DPPE   C2B54010  10.253  11.630   8.653 -0.2112  0.1163 -0.2090
 2679DPPE   C3B54011  10.269  11.574   9.075 -0.1831  0.0263 -0.1764
 2679DPPE   C4B54012  10.328  11.741   9.380 -0.0414 -0.1593 -0.1556
 2680DPPE   NH354013  14.139   3.112   6.511  0.3224  0.0491 -0.1200
 2680DPPE   PO454014  13.813   3.341   6.191  0.1642  0.0657 -0.2069
 2680DPPE   GL154015  13.558   3.393   5.808 -0.1344  0.1646  0.3319
 2680DPPE   GL254016  13.231   3.636   5.684  0.3544 -0.2605  0.0422
 2680DPPE   C1A54017  13.660   3.355   5.435 -0.2062 -0.0622  0.0824
 2680DPPE   C2A54018  13.434   3.102   5.019  0.0733 -0.2596 -0.1358
 2680DPPE   C3A54019  13.218   2.857   4.934 -0.1296  0.2041  0.1731
 2680DPPE   C4A54020  12.975   2.339   4.889  0.0796  0.2605  0.0913
 2680DPPE   C1B54021  13.149   3.381   5.315  0.0909  0.0053 -0.1668
 2680DPPE   C2B54022  12.728   3.251   5.257  0.2355 -0.0821  0.0766
 2680DPPE   C3B54023  12.352   3.019   5.183  0.1457 -0.2115 -0.0842
 2680DPPE   C4B54024  12.152   2.654   4.926 -0.3486 -0.0560 -0.1104
 2681DPPE   NH354025  10.293  36.158  12.744 -0.1634  0.2485  0.4575
 2681DPPE   PO454026  10.629  35.871  12.865 -0.1124  0.0865 -0.0964
 2681DPPE   GL154027  10.463  35.543  12.910 -0.0391 -0.1888  0.1462
 2681DPPE   GL254028  10.142  35.612  12.771 -0.3959  0.1264  0.0846
 2681DPPE   C1A54029  10.511  35.059  12.926  0.2139 -0.0868 -0.2858
 2681DPPE   C2A54030  10.485  34.589  13.070  0.0476  0.0999  0.0675
 2681DPPE   C3A54031  10.474  34.219  12.871 -0.0342  0.1768 -0.0461
 2681DPPE   C4A54032  10.459  34.133  12.495  0.0599  0.0308  0.4651
 2681DPPE   C1B54033  10.002  35.192  12.793 -0.0121 -0.1982  0.0004
 2681DPPE   C2B54034   9.950  34.858  12.994 -0.1933 -0.3051 -0.3149
 2681DPPE   C3B54035   9.655  34.794  13.301  0.0631  0.0133 -0.0163
 2681DPPE   C4B54036   9.394  34.489  13.534 -0.1261  0.0545  0.0737
 2682DPPE   NH354037  12.644   8.017   6.127  0.0106  0.2217 -0.1753
 2682DPPE   PO454038  12.611   7.596   6.302 -0.0322  0.0153  0.1150
 2682DPPE   GL154039  12.643   7.476   6.693 -0.0797  0.2198 -0.0748
 2682DPPE   GL254040  12.920   7.340   6.909  0.0506  0.3703  0.2263
 2682DPPE   C1A54041  12.542   7.763   6.931  0.0223  0.1825  0.0887
 2682DPPE   C2A54042  12.715   7.871   7.352  0.3121  0.3500 -0.0451
 2682DPPE   C3A54043  13.056   8.082   7.568  0.0208 -0.0722 -0.2054
 2682DPPE   C4A54044  13.239   8.352   7.929  0.3361 -0.3289  0.0010
 2682DPPE   C1B54045  13.006   7.433   7.324 -0.1153  0.0461 -0.3184
 2682DPPE   C2B54046  13.009   7.544   7.751 -0.4761 -0.1098  0.4526
 2682DPPE   C3B54047  13.294   7.616   8.228  0.0894 -0.3688  0.2590
 2682DPPE   C4B54048  13.267   7.587   8.648  0.1836 -0.0312 -0.0419
 2683DPPE   NH354049   5.504   7.209  11.496  0.1379 -0.0334  0.0608
 2683DPPE   PO454050   5.444   6.715  11.475  0.0362  0.0103 -0.0954
 2683DPPE   GL154051   5.091   6.905  11.250 -0.1380 -0.0383 -0.1507
 2683DPPE   GL254052   5.031   7.199  11.366  0.0211  0.0620  0.2226
 2683DPPE   C1A54053   4.728   6.901  11.131  0.4469 -0.2032  0.0175
 2683DPPE   C2A54054   4.298   6.670  11.026 -0.2095  0.0139  0.3775
 2683DPPE   C3A54055   4.069   6.674  10.681  0.0427  0.2292  0.1498
 2683DPPE   C4A54056   3.977   6.828  10.342 -0.0296  0.1031 -0.2077
 2683DPPE   C1B54057   4.749   7.408  11.010  0.0579  0.1449  0.3808
 2683DPPE   C2B54058   4.407   7.607  10.700 -0.0137  0.1163  0.2839
 2683DPPE   C3B54059   4.044   7.701  10.618  0.1453 -0.1082  0.0999
 2683DPPE   C4B54060   3.648   7.600  10.456  0.0646 -0.3435 -0.1008
 2684DPPE   NH354061  10.792   8.741   5.518  0.0461  0.2086 -0.0364
 2684DPPE   PO454062  10.649   9.113   5.668  0.1315 -0.0509  0.1964
 2684DPPE   GL154063  10.467   9.158   5.356  0.1583  0.1112 -0.3376
 2684DPPE   GL254064  10.728   8.989   5.070 -0.1573  0.1314 -0.2671
 2684DPPE   C1A54065  10.267   9.283   4.922 -0.0433  0.3574 -0.2413
 2684DPPE   C2A54066  10.197   9.342   4.587 -0.0919 -0.1416  0.0149
 2684DPPE   C3A54067   9.744   9.260   4.299  0.0494  0.2479 -0.0810
 2684DPPE   C4A54068   9.461   9.010   4.145 -0.2776  0.1487 -0.1070
 2684DPPE   C1B54069  10.736   8.938   4.681 -0.1013 -0.1260 -0.2107
 2684DPPE   C2B54070  10.592   9.001   4.267 -0.0394 -0.1077 -0.1072
 2684DPPE   C3B54071  10.686   9.164   3.824  0.3859 -0.2340 -0.0922
 2684DPPE   C4B54072  11.024   9.196   3.457  0.0551  0.2386 -0.0791
 2685DPPE   NH354073   5.554   5.504  11.716  0.3539  0.0131 -0.1509
 2685DPPE   PO454074   5.633   5.870  11.943  0.2232  0.2557 -0.0859
 2685DPPE   GL154075   5.194   5.905  11.770 -0.0811 -0.1160 -0.1512
 2685DPPE   GL254076   5.226   5.907  11.451  0.2706  0.1027 -0.3569
 2685DPPE   C1A54077   4.776   5.952  11.601 -0.1680  0.0784  0.0787
 2685DPPE   C2A54078   4.454   6.083  11.591 -0.0396  0.0501  0.0016
 2685DPPE   C3A54079   4.239   5.835  11.254  0.3379 -0.0005  0.3983
 2685DPPE   C4A54080   3.977   5.544  11.157  0.4563 -0.1981  0.2033
 2685DPPE   C1B54081   4.861   5.725  11.211 -0.2288  0.1163 -0.0812
 2685DPPE   C2B54082   4.486   5.544  10.938  0.0872  0.0209 -0.4083
 2685DPPE   C3B54083   4.196   5.643  10.657 -0.0462  0.3414  0.0972
 2685DPPE   C4B54084   3.995   5.563  10.199  0.0964 -0.0213 -0.0698
 2686DPPE   NH354085  15.564   6.692   4.439 -0.3299  0.0919 -0.0424
 2686DPPE   PO454086  15.243   6.896   4.533  0.1011  0.4043 -0.0430
 2686DPPE   GL154087  15.167   6.877   4.150 -0.1378  0.0137  0.0680
 2686DPPE   GL254088  15.117   6.695   4.057 -0.0380  0.3883  0.3264
 2686DPPE   C1A54089  15.429   6.887   3.692  0.1932 -0.2825 -0.0823
 2686DPPE   C2A54090  15.523   7.266   3.445  0.2419  0.0698  0.0343
 2686DPPE   C3A54091  15.183   7.617   3.386  0.1277  0.3745  0.0886
 2686DPPE   C4A54092  14.821   7.817   3.622 -0.0969  0.1218  0.1467
 2686DPPE   C1B54093  15.369   6.407   3.845 -0.1550  0.1801  0.4557
 2686DPPE   C2B54094  15.431   6.070   3.651  0.0475  0.1608  0.2499
 2686DPPE   C3B54095  15.452   5.942   3.253  0.1795  0.0942 -0.1375
 2686DPPE   C4B54096  15.423   5.632   2.872 -0.0762  0.1034  0.1881
 2687DPPE   NH354097   6.911   8.268   9.146  0.0587 -0.1756 -0.1004
 2687DPPE   PO454098   6.836   8.631   9.346  0.0455  0.2335  0.3317
 2687DPPE   GL154099   6.547   8.627   9.130  0.0222  0.2931  0.0839
 2687DPPE   GL254100   6.311   8.373   9.400  0.0006 -0.3348 -0.2544
 2687DPPE   C1A54101   6.077   8.790   9.115 -0.0889  0.1238  0.1004
 2687DPPE   C2A54102   5.720   8.846   9.279  0.0218  0.1221 -0.0138
 2687DPPE   C3A54103   5.285   8.834   9.357 -0.0055 -0.2571 -0.0872
 2687DPPE   C4A54104   5.080   8.798   9.048 -0.1363 -0.3350 -0.0319
 2687DPPE   C1B54105   5.892   8.024   9.277  0.0608  0.1331 -0.2034
 2687DPPE   C2B54106   5.489   7.785   9.257 -0.1099 -0.0006 -0.1162
 2687DPPE   C3B54107   5.174   7.625   8.944 -0.1940  0.0540 -0.1258
 2687DPPE   C4B54108   4.953   7.409   8.610  0.1616  0.1685 -0.1064
 2688DPPE   NH354109  13.835   8.672   4.328  0.0704  0.3040  0.2574
 2688DPPE   PO454110  13.731   8.920   4.601  0.2157  0.0277  0.1867
 2688DPPE   GL154111  13.911   9.182   4.286  0.3464  0.0813 -0.2006
 2688DPPE   GL254112  14.301   9.304   4.243  0.1857  0.4943  0.0399
 2688DPPE   C1A54113  13.995   9.176   3.879  0.2135 -0.0463 -0.1735
 2688DPPE   C2A54114  14.076   9.244   3.508  0.2589 -0.4774  0.1453
 2688DPPE   C3A54115  13.738   9.204   3.165 -0.0094  0.3380  0.1991
 2688DPPE   C4A54116  13.335   9.349   3.201 -0.0455 -0.0392 -0.1713
 2688DPPE   C1B54117  14.626   9.564   4.087 -0.1881 -0.2036  0.2185
 2688DPPE   C2B54118  14.907   9.792   3.960 -0.0830 -0.2389  0.1092
 2688DPPE   C3B54119  15.283   9.773   3.989 -0.1771 -0.2296  0.1666
 2688DPPE   C4B54120  15.549   9.391   4.127 -0.1695  0.0048 -0.2067
 2689DPPE   NH354121  17.057   4.911   5.890 -0.0828 -0.2152  0.0798
 2689DPPE   PO454122  17.176   4.656   5.514  0.0739  0.0221 -0.0007
 2689DPPE   GL154123  17.432   4.927   5.283  0.0409  0.2964 -0.0515
 2689DPPE   GL254124  17.328   5.282   5.138  0.2397 -0.0031 -0.0022
 2689DPPE   C1A54125  17.648   4.951   4.925  0.1848 -0.0551 -0.1550
 2689DPPE   C2A54126  17.947   5.010   4.844 -0.1496  0.3037 -0.1006
 2689DPPE   C3A54127  18.324   5.144   4.741 -0.4952  0.0243 -0.0060
 2689DPPE   C4A54128  18.716   5.385   4.662 -0.2103 -0.1921 -0.0838
 2689DPPE   C1B54129  17.626   5.548   5.126 -0.0660  0.0614  0.2742
 2689DPPE   C2B54130  18.057   5.509   5.372  0.1646 -0.3205 -0.2528
 2689DPPE   C3B54131  18.312   5.522   5.798 -0.1111 -0.3460  0.2900
 2689DPPE   C4B54132  18.467   5.750   6.079 -0.3291 -0.0625  0.0502
 2690DPPE   NH354133  13.531   1.633   9.141 -0.3021 -0.1837 -0.0339
 2690DPPE   PO454134  13.770   1.269   9.187 -0.0723 -0.0719 -0.1623
 2690DPPE   GL154135  14.089   1.544   9.207 -0.0271  0.0885 -0.1252
 2690DPPE   GL254136  14.274   1.695   9.026  0.1685  0.1585 -0.0329
 2690DPPE   C1A54137  14.255   1.687   9.612 -0.0187 -0.2205 -0.0837
 2690DPPE   C2A54138  14.132   1.888   9.972  0.1682  0.0438  0.2024
 2690DPPE   C3A54139  14.270   2.059  10.295 -0.4230  0.1639  0.2396
 2690DPPE   C4A54140  14.027   2.081  10.735 -0.4450 -0.1976  0.0213
 2690DPPE   C1B54141  14.509   1.922   9.227  0.0479  0.3371 -0.1755
 2690DPPE   C2B54142  14.541   2.097   9.737  0.2245  0.1156  0.1844
 2690DPPE   C3B54143  14.698   2.252   9.926 -0.0762 -0.2160  0.6257
 2690DPPE   C4B54144  14.802   2.639  10.128  0.1742 -0.1498 -0.1226
 2691DPPE   NH354145   7.431   4.147  10.333 -0.1486 -0.0541 -0.0919
 2691DPPE   PO454146   7.644   3.831  10.140 -0.3005  0.1944 -0.0181
 2691DPPE   GL154147   7.173   3.661  10.096  0.1152  0.2012  0.1155
 2691DPPE   GL254148   7.007   3.872  10.070  0.3687  0.0650  0.1565
 2691DPPE   C1A54149   6.996   3.591   9.678  0.1570  0.0340  0.0645
 2691DPPE   C2A54150   6.811   3.468   9.243 -0.1647  0.2811 -0.0876
 2691DPPE   C3A54151   6.620   3.204   8.871  0.1915 -0.0201  0.2491
 2691DPPE   C4A54152   6.731   3.151   8.314  0.1775 -0.4809 -0.1076
 2691DPPE   C1B54153   6.658   3.563  10.072  0.1537  0.1560  0.4625
 2691DPPE   C2B54154   6.317   3.464  10.239 -0.0799 -0.0865  0.1291
 2691DPPE   C3B54155   5.945   3.534  10.133  0.2445  0.0615  0.3203
 2691DPPE   C4B54156   5.531   3.735   9.824 -0.0025  0.3248  0.0151
 2692DPPE   NH354157   6.891   3.900  11.759 -0.0042  0.0071 -0.2424
 2692DPPE   PO454158   6.497   4.119  11.915 -0.0894 -0.0278  0.0006
 2692DPPE   GL154159   6.119   4.076  11.761  0.2462  0.1379 -0.0940
 2692DPPE   GL254160   5.852   4.236  11.728  0.0820  0.0043 -0.1376
 2692DPPE   C1A54161   5.859   3.756  11.556  0.0118 -0.0711 -0.0253
 2692DPPE   C2A54162   5.562   3.492  11.267  0.2997  0.2329  0.1540
 2692DPPE   C3A54163   5.302   3.208  10.964 -0.1604  0.2226  0.2414
 2692DPPE   C4A54164   5.156   2.804  10.883 -0.2553 -0.0435  0.0369
 2692DPPE   C1B54165   5.423   3.985  11.590 -0.3551 -0.0345  0.2487
 2692DPPE   C2B54166   4.972   3.957  11.626 -0.1945  0.2331  0.1671
 2692DPPE   C3B54167   4.641   3.790  11.835  0.0361 -0.4506 -0.3578
 2692DPPE   C4B54168   4.316   4.019  11.985 -0.1172  0.1857  0.0777
 2693DPPE   NH354169  12.307   0.789  10.507  0.1909  0.1612  0.1164
 2693DPPE   PO454170  12.330   1.014  10.897 -0.0018  0.1714  0.0440
 2693DPPE   GL154171  12.624   1.141  11.039  0.0546 -0.2816  0.1683
 2693DPPE   GL254172  12.670   1.472  11.039 -0.0682 -0.2557  0.0945
 2693DPPE   C1A54173  12.982   1.353  11.306  0.0502 -0.0451 -0.1260
 2693DPPE   C2A54174  13.032   1.688  11.661  0.5104 -0.0151  0.0753
 2693DPPE   C3A54175  12.921   2.022  11.969 -0.2009 -0.2472  0.0116
 2693DPPE   C4A54176  12.801   1.923  12.395 -0.1502 -0.0977  0.5288
 2693DPPE   C1B54177  12.685   1.793  11.323  0.1278  0.2976  0.4912
 2693DPPE   C2B54178  12.691   2.200  11.590 -0.0215  0.1346  0.0570
 2693DPPE   C3B54179  13.088   2.455  11.732  0.1664 -0.1956 -0.0135
 2693DPPE   C4B54180  13.391   2.268  12.042  0.0890 -0.0304 -0.3806
 2694DPPE   NH354181  15.842   2.969   6.261  0.1749  0.0124 -0.3153
 2694DPPE   PO454182  15.881   2.808   5.819 -0.1845  0.2820 -0.0411
 2694DPPE   GL154183  15.853   2.814   5.356 -0.0031 -0.2401  0.1114
 2694DPPE   GL254184  15.993   3.080   5.145  0.1645 -0.0631 -0.5224
 2694DPPE   C1A54185  15.709   2.570   5.051 -0.2163 -0.2671  0.3397
 2694DPPE   C2A54186  15.395   2.441   4.875 -0.0514  0.0963 -0.1260
 2694DPPE   C3A54187  15.163   2.256   4.539  0.0207 -0.1107  0.0822
 2694DPPE   C4A54188  14.818   2.035   4.228  0.1384  0.2545  0.3255
 2694DPPE   C1B54189  16.034   2.824   4.837 -0.6403 -0.2676  0.2773
 2694DPPE   C2B54190  15.859   2.530   4.526  0.1575 -0.0018 -0.4425
 2694DPPE   C3B54191  15.552   2.472   4.285  0.0929 -0.1439  0.0206
 2694DPPE   C4B54192  15.400   2.119   4.006  0.1089  0.2048 -0.0478
 2695DPPE   NH354193   7.227   7.811  10.348 -0.0938  0.2164 -0.0210
 2695DPPE   PO454194   7.429   8.223  10.315  0.0979  0.1813  0.1104
 2695DPPE   GL154195   7.716   8.506  10.574 -0.2276 -0.1488 -0.1873
 2695DPPE   GL254196   7.672   8.690  10.351  0.2597 -0.1348  0.1107
 2695DPPE   C1A54197   7.908   8.472  11.048  0.1947  0.1267 -0.1254
 2695DPPE   C2A54198   8.283   8.400  11.244  0.2289  0.3856  0.2454
 2695DPPE   C3A54199   8.625   8.327  11.511 -0.0916 -0.1278 -0.1800
 2695DPPE   C4A54200   9.019   8.390  11.664 -0.0613 -0.1717 -0.3192
 2695DPPE   C1B54201   8.193   8.524  10.233  0.3020  0.1206  0.4310
 2695DPPE   C2B54202   8.654   8.401  10.373 -0.4780 -0.0961 -0.0898
 2695DPPE   C3B54203   9.090   8.222  10.591  0.1242  0.0544  0.3241
 2695DPPE   C4B54204   9.382   8.078  10.950 -0.1371  0.1676 -0.0078
 2696DPPE   NH354205   8.596   3.686   9.424 -0.0846 -0.2035 -0.4647
 2696DPPE   PO454206   8.663   3.837   9.027  0.0373  0.1881 -0.1436
 2696DPPE   GL154207   8.206   3.660   9.013  0.0322  0.0144  0.1955
 2696DPPE   GL254208   8.118   3.965   8.810  0.2695  0.0524 -0.1833
 2696DPPE   C1A54209   7.974   3.233   9.024  0.0624 -0.0452 -0.1668
 2696DPPE   C2A54210   7.684   2.842   8.881  0.2146 -0.0198  0.2998
 2696DPPE   C3A54211   7.278   2.580   8.871  0.3252 -0.1036 -0.0606
 2696DPPE   C4A54212   6.864   2.422   9.078  0.3239  0.2061  0.1177
 2696DPPE   C1B54213   8.208   3.566   8.512 -0.0250  0.1225 -0.3330
 2696DPPE   C2B54214   7.968   3.275   8.563  0.1602 -0.0903 -0.0638
 2696DPPE   C3B54215   7.591   3.129   8.499 -0.2535 -0.2297  0.0093
 2696DPPE   C4B54216   7.367   2.690   8.280 -0.2983  0.0386 -0.4390
 2697DPPE   NH354217  14.775   6.661   4.545 -0.0551  0.0538  0.2102
 2697DPPE   PO454218  14.657   6.217   4.579  0.1366 -0.1071 -0.0619
 2697DPPE   GL154219  14.582   5.969   4.263  0.0968  0.3877  0.0116
 2697DPPE   GL254220  14.938   5.838   4.353 -0.1429  0.1283  0.0287
 2697DPPE   C1A54221  14.494   5.948   3.766  0.3580 -0.1390  0.3534
 2697DPPE   C2A54222  14.443   5.921   3.393  0.2210  0.1610 -0.0667
 2697DPPE   C3A54223  14.368   6.050   2.984 -0.0301 -0.1171 -0.2556
 2697DPPE   C4A54224  14.455   5.889   2.600 -0.0545  0.1248  0.0373
 2697DPPE   C1B54225  14.944   5.703   3.830  0.0665  0.0262 -0.1128
 2697DPPE   C2B54226  14.849   5.494   3.478  0.1257 -0.1743  0.0799
 2697DPPE   C3B54227  14.969   5.125   3.303  0.1047  0.2054 -0.2386
 2697DPPE   C4B54228  15.016   4.698   3.393 -0.1053  0.0749  0.4569
 2698DPPE   NH354229  17.425   2.881   7.525  0.1816  0.0562  0.2542
 2698DPPE   PO454230  16.971   2.944   7.499 -0.1770  0.2012 -0.1581
 2698DPPE   GL154231  17.180   3.291   7.784 -0.1054  0.0584  0.3104
 2698DPPE   GL254232  17.540   3.178   7.951 -0.2637 -0.1614  0.0931
 2698DPPE   C1A54233  17.374   3.700   7.863  0.0152 -0.1745  0.0630
 2698DPPE   C2A54234  17.804   3.768   8.004 -0.0570 -0.1390 -0.1915
 2698DPPE   C3A54235  18.027   3.654   8.408 -0.1499  0.0625 -0.3090
 2698DPPE   C4A54236  18.241   3.955   8.713  0.1579 -0.0861 -0.1434
 2698DPPE   C1B54237  17.863   3.245   8.165  0.2672  0.2113 -0.4869
 2698DPPE   C2B54238  18.028   2.997   8.531 -0.2863 -0.1802 -0.1974
 2698DPPE   C3B54239  17.735   2.840   8.719  0.1231  0.1783 -0.0145
 2698DPPE   C4B54240  17.439   2.747   8.923  0.1615  0.3667 -0.3503
 2699DPPE   NH354241   4.921   5.523  13.590  0.0239  0.2769 -0.1180
 2699DPPE   PO454242   5.191   5.258  13.901 -0.2831  0.0414 -0.2357
 2699DPPE   GL154243   4.818   5.016  14.003  0.1345  0.2085  0.1544
 2699DPPE   GL254244   4.714   5.012  13.717  0.1263  0.0654  0.0094
 2699DPPE   C1A54245   4.495   4.684  14.156  0.0946  0.0026  0.3838
 2699DPPE   C2A54246   4.302   4.265  14.265  0.1574  0.0954  0.2366
 2699DPPE   C3A54247   4.475   3.855  14.351  0.2482  0.0097 -0.4053
 2699DPPE   C4A54248   4.351   3.567  14.635  0.1378 -0.0176 -0.2785
 2699DPPE   C1B54249   4.308   5.023  13.394  0.1964  0.2027 -0.2330
 2699DPPE   C2B54250   3.931   4.806  13.209  0.1091  0.0032  0.0558
 2699DPPE   C3B54251   3.650   4.621  12.887 -0.0001 -0.0210 -0.2387
 2699DPPE   C4B54252   3.224   4.732  12.706  0.2736 -0.4434  0.0853
 2700DPPE   NH354253   7.426   5.461   9.340 -0.1116  0.0724  0.0099
 2700DPPE   PO454254   7.333   5.629   9.716 -0.0827  0.1398 -0.0254
 2700DPPE   GL154255   6.991   5.365   9.500 -0.0215  0.0420 -0.3070
 2700DPPE   GL254256   6.753   5.532   9.359  0.5567  0.1668  0.0025
 2700DPPE   C1A54257   6.669   5.004   9.641 -0.0205  0.0324  0.1636
 2700DPPE   C2A54258   6.407   4.581   9.742  0.0833 -0.2551 -0.1905
 2700DPPE   C3A54259   6.133   4.210   9.556 -0.0743  0.4629  0.1120
 2700DPPE   C4A54260   5.753   4.032   9.408  0.1939  0.4161 -0.0020
 2700DPPE   C1B54261   6.651   5.155   9.188 -0.1981 -0.1336  0.0468
 2700DPPE   C2B54262   6.394   4.821   9.220  0.0105 -0.0352 -0.0092
 2700DPPE   C3B54263   5.978   4.768   9.299  0.0423 -0.1055  0.1178
 2700DPPE   C4B54264   5.701   4.985   9.452 -0.1763 -0.1221 -0.0887
 2701DPPE   NH354265   6.743   3.554  17.360  0.1814 -0.2283  0.0429
 2701DPPE   PO454266   7.024   3.546  17.014  0.1391  0.0560  0.0931
 2701DPPE   GL154267   7.336   3.532  17.332 -0.0145  0.1947  0.0613
 2701DPPE   GL254268   7.193   3.637  17.623 -0.3404  0.1642 -0.2911
 2701DPPE   C1A54269   7.670   3.635  17.520  0.1460 -0.1788 -0.2380
 2701DPPE   C2A54270   8.121   3.538  17.643 -0.3674  0.1048  0.0905
 2701DPPE   C3A54271   8.498   3.788  17.829  0.0789  0.2029 -0.0598
 2701DPPE   C4A54272   8.775   3.814  18.229  0.0714  0.0169 -0.0089
 2701DPPE   C1B54273   7.368   3.755  17.880  0.1632  0.1344 -0.1217
 2701DPPE   C2B54274   7.722   3.881  18.071  0.1889 -0.1587  0.3671
 2701DPPE   C3B54275   7.812   4.302  18.356  0.1637  0.2513 -0.1773
 2701DPPE   C4B54276   7.639   4.652  18.531 -0.1606 -0.1372 -0.2886
 2702DPPE   NH354277  16.742   2.726   7.084 -0.0015 -0.2192 -0.2743
 2702DPPE   PO454278  16.676   2.581   6.620 -0.1513 -0.1042  0.0441
 2702DPPE   GL154279  16.816   2.343   6.261  0.2487  0.1941 -0.0810
 2702DPPE   GL254280  16.650   2.081   6.056  0.0711 -0.0386  0.3186
 2702DPPE   C1A54281  16.950   2.446   5.887 -0.1495 -0.2411 -0.2352
 2702DPPE   C2A54282  17.192   2.394   5.487 -0.1452 -0.0822  0.1227
 2702DPPE   C3A54283  17.563   2.439   5.083 -0.5084  0.0550  0.1348
 2702DPPE   C4A54284  17.675   2.414   4.713 -0.1113 -0.1631 -0.2913
 2702DPPE   C1B54285  16.870   1.921   5.761 -0.0024  0.1659  0.0814
 2702DPPE   C2B54286  16.941   1.959   5.290  0.0179 -0.3390  0.0824
 2702DPPE   C3B54287  17.123   1.842   4.952  0.2278 -0.0304 -0.3834
 2702DPPE   C4B54288  17.375   1.615   4.841  0.1016 -0.1092  0.1221
 2703DPPE   NH354289  13.486  35.135  13.777  0.1793  0.1481  0.1253
 2703DPPE   PO454290  13.919  34.905  13.774 -0.1925 -0.3385  0.2795
 2703DPPE   GL154291  14.212  34.953  14.110  0.1398  0.3792  0.0602
 2703DPPE   GL254292  14.448  35.195  13.946 -0.2043  0.5216 -0.1792
 2703DPPE   C1A54293  14.658  34.904  14.325  0.1562  0.2049  0.2635
 2703DPPE   C2A54294  15.095  34.982  14.229  0.4038 -0.1067  0.2602
 2703DPPE   C3A54295  15.421  35.195  14.184  0.1965 -0.0466  0.4478
 2703DPPE   C4A54296  15.613  35.359  13.758 -0.2406  0.0122 -0.1156
 2703DPPE   C1B54297  14.813  34.842  13.747 -0.1872 -0.1642  0.0450
 2703DPPE   C2B54298  15.225  34.750  13.781 -0.1709  0.3605 -0.3543
 2703DPPE   C3B54299  15.591  34.726  13.996 -0.1747  0.2155  0.0460
 2703DPPE   C4B54300  15.938  34.493  14.177  0.1192  0.3793 -0.1879
 2704DPPE   NH354301   7.628   4.636  12.424  0.0888 -0.1282  0.0600
 2704DPPE   PO454302   7.977   4.341  12.589 -0.1625 -0.0198  0.0249
 2704DPPE   GL154303   8.336   4.396  12.772 -0.1077  0.0381  0.0204
 2704DPPE   GL254304   8.510   4.148  12.667  0.1525  0.3378 -0.0669
 2704DPPE   C1A54305   8.649   4.307  13.104 -0.0666 -0.4567 -0.0096
 2704DPPE   C2A54306   8.924   4.709  13.161 -0.1760 -0.1673 -0.1783
 2704DPPE   C3A54307   9.215   4.773  13.366 -0.2134 -0.1333  0.0305
 2704DPPE   C4A54308   9.652   4.699  13.486  0.1687  0.0343  0.2125
 2704DPPE   C1B54309   8.821   4.534  12.637 -0.0656  0.0919  0.3627
 2704DPPE   C2B54310   9.082   4.831  12.618  0.0018  0.1710 -0.1486
 2704DPPE   C3B54311   9.390   5.015  12.938  0.1851 -0.2375 -0.1559
 2704DPPE   C4B54312   9.717   5.343  13.061 -0.0371 -0.2855 -0.1771
 2705DPPE   NH354313  14.598   2.113   7.857 -0.1697  0.3223 -0.1502
 2705DPPE   PO454314  14.511   1.770   7.652  0.2819  0.0608  0.0347
 2705DPPE   GL154315  14.320   1.449   7.262 -0.2615  0.2419  0.1090
 2705DPPE   GL254316  14.496   1.324   7.077 -0.2538  0.0889  0.0647
 2705DPPE   C1A54317  14.045   1.439   6.774 -0.0205 -0.2306 -0.3085
 2705DPPE   C2A54318  13.943   1.487   6.344 -0.1212 -0.1328 -0.0358
 2705DPPE   C3A54319  13.696   1.237   6.069  0.0527  0.0160 -0.0950
 2705DPPE   C4A54320  13.451   1.075   5.730  0.0361 -0.0316  0.3354
 2705DPPE   C1B54321  14.470   0.937   6.919  0.4468 -0.1135 -0.1411
 2705DPPE   C2B54322  14.536   0.795   6.485  0.1881 -0.0720 -0.0426
 2705DPPE   C3B54323  14.639   0.513   6.194  0.2449 -0.3202 -0.2953
 2705DPPE   C4B54324  14.826   0.067   6.025  0.1417  0.1250 -0.0809
 2706DPPE   NH354325   6.462   6.549  15.497 -0.2813 -0.3207  0.1050
 2706DPPE   PO454326   6.310   6.733  15.913 -0.3767 -0.3109 -0.1927
 2706DPPE   GL154327   6.281   6.994  16.304  0.1250  0.0995  0.0562
 2706DPPE   GL254328   6.183   7.376  16.188  0.1727  0.0991 -0.1364
 2706DPPE   C1A54329   6.363   6.906  16.705  0.1239 -0.4508 -0.0018
 2706DPPE   C2A54330   6.632   6.914  17.099  0.1108  0.2810 -0.0152
 2706DPPE   C3A54331   6.935   6.524  17.118 -0.1336 -0.0538  0.2970
 2706DPPE   C4A54332   7.319   6.588  17.116  0.0456 -0.1590  0.2537
 2706DPPE   C1B54333   6.286   7.417  16.600  0.0607  0.1017 -0.0648
 2706DPPE   C2B54334   6.364   7.776  16.755 -0.1608 -0.1030  0.2552
 2706DPPE   C3B54335   6.627   8.151  16.861 -0.2436  0.1122 -0.6156
 2706DPPE   C4B54336   7.053   8.402  16.990  0.0645  0.2761 -0.1122
 2707DPPE   NH354337  15.092   7.486   5.719 -0.1316 -0.3028  0.0370
 2707DPPE   PO454338  14.747   7.336   5.947 -0.2257 -0.2162  0.2328
 2707DPPE   GL154339  14.996   7.563   6.244  0.3604  0.0620  0.4483
 2707DPPE   GL254340  15.269   7.401   6.286  0.2146 -0.0538  0.0611
 2707DPPE   C1A54341  15.062   7.934   6.589  0.1413  0.2413 -0.0774
 2707DPPE   C2A54342  15.214   8.140   6.838  0.1453 -0.0576 -0.2626
 2707DPPE   C3A54343  15.501   8.375   6.872  0.0204 -0.0037 -0.0457
 2707DPPE   C4A54344  15.691   8.823   6.923  0.1551  0.2192 -0.2920
 2707DPPE   C1B54345  15.477   7.677   6.714  0.0260  0.1923  0.1525
 2707DPPE   C2B54346  15.756   7.844   7.075 -0.4244 -0.2722  0.1100
 2707DPPE   C3B54347  15.749   7.726   7.486  0.0930  0.3423  0.0682
 2707DPPE   C4B54348  16.146   7.905   7.610 -0.0775  0.5152  0.1982
 2708DPPE   NH354349  12.581  36.241  11.121  0.0102 -0.0487  0.2757
 2708DPPE   PO454350  12.632  35.919  11.371 -0.2193  0.0340 -0.4316
 2708DPPE   GL154351  12.676  35.399  11.195 -0.1233 -0.3416 -0.2335
 2708DPPE   GL254352  12.625  35.081  11.500  0.2415 -0.0086 -0.2541
 2708DPPE   C1A54353  12.359  35.092  11.066 -0.1976 -0.0548 -0.0164
 2708DPPE   C2A54354  12.283  34.882  10.619 -0.1945  0.1258 -0.1006
 2708DPPE   C3A54355  11.965  34.448  10.462 -0.0809  0.1859 -0.0532
 2708DPPE   C4A54356  11.570  34.395  10.191  0.0733  0.2413  0.1309
 2708DPPE   C1B54357  12.565  34.771  11.377  0.0360  0.0681  0.0297
 2708DPPE   C2B54358  12.775  34.400  11.216 -0.0607 -0.1995  0.1870
 2708DPPE   C3B54359  12.860  34.005  11.145  0.2619  0.3432  0.0572
 2708DPPE   C4B54360  13.128  33.643  10.963 -0.3450  0.2700  0.6019
 2709DPPE   NH354361  16.000  36.271   9.062 -0.0871  0.0002 -0.0067
 2709DPPE   PO454362  16.212  36.204   9.308  0.1628  0.0335  0.3804
 2709DPPE   GL154363  16.378  35.929   9.013 -0.1864  0.2367  0.1124
 2709DPPE   GL254364  16.141  35.955   8.650 -0.3807  0.1675  0.3445
 2709DPPE   C1A54365  16.632  35.558   9.017 -0.0764  0.5265 -0.2258
 2709DPPE   C2A54366  16.577  35.198   9.137  0.0056 -0.0331 -0.1389
 2709DPPE   C3A54367  16.530  34.887   9.038  0.1930  0.0919  0.1292
 2709DPPE   C4A54368  16.566  34.370   9.078  0.1603 -0.2578  0.6369
 2709DPPE   C1B54369  16.348  35.760   8.481 -0.0374 -0.1078 -0.3387
 2709DPPE   C2B54370  16.206  35.430   8.212  0.1727  0.2054  0.1883
 2709DPPE   C3B54371  16.251  35.228   7.851  0.1187 -0.0409  0.0119
 2709DPPE   C4B54372  15.984  35.121   7.505  0.1208  0.1141  0.2612
 2710DPPE   NH354373  16.205   4.866   5.311 -0.2394 -0.0707 -0.0706
 2710DPPE   PO454374  16.542   5.090   5.079  0.0589 -0.0268  0.1010
 2710DPPE   GL154375  16.964   5.153   4.822  0.2835 -0.0710 -0.0221
 2710DPPE   GL254376  16.695   5.401   4.700 -0.1342 -0.2636 -0.1741
 2710DPPE   C1A54377  17.134   4.949   4.641  0.3256 -0.0626  0.0685
 2710DPPE   C2A54378  17.493   4.932   4.346  0.0199  0.2253 -0.0080
 2710DPPE   C3A54379  17.612   4.746   3.989  0.0142  0.1868  0.0973
 2710DPPE   C4A54380  17.425   4.351   3.803  0.0867  0.3128 -0.3252
 2710DPPE   C1B54381  16.772   5.145   4.298  0.2015  0.0177 -0.5700
 2710DPPE   C2B54382  16.577   5.139   3.877  0.1915 -0.0903 -0.1219
 2710DPPE   C3B54383  16.324   5.308   3.651  0.0749 -0.3326  0.0847
 2710DPPE   C4B54384  16.334   5.640   3.350  0.1439 -0.1873  0.1521
 2711DPPE   NH354385  14.270   6.558   4.552  0.1781  0.2133  0.3965
 2711DPPE   PO454386  14.340   6.972   4.429  0.1510 -0.2253  0.0518
 2711DPPE   GL154387  14.446   6.841   4.146  0.1600  0.3228 -0.0456
 2711DPPE   GL254388  14.508   6.509   4.072  0.0610 -0.3199 -0.2990
 2711DPPE   C1A54389  14.603   6.919   3.714  0.2010  0.1960 -0.4387
 2711DPPE   C2A54390  14.821   6.621   3.603  0.0466 -0.0214 -0.4410
 2711DPPE   C3A54391  15.236   6.462   3.351 -0.0027 -0.2902 -0.0912
 2711DPPE   C4A54392  15.337   6.653   2.968 -0.3522  0.0910  0.1187
 2711DPPE   C1B54393  14.326   6.484   3.671 -0.4025  0.0346  0.2168
 2711DPPE   C2B54394  14.466   6.484   3.234 -0.2287 -0.1993 -0.2617
 2711DPPE   C3B54395  14.382   6.633   2.804 -0.0375  0.2680 -0.1002
 2711DPPE   C4B54396  14.083   6.962   2.722 -0.0101  0.0277  0.1005
 2712DPPE   NH354397   8.180   1.050  14.989 -0.0533  0.0823 -0.0371
 2712DPPE   PO454398   8.586   0.941  15.212 -0.0183  0.0076 -0.3918
 2712DPPE   GL154399   8.248   0.583  15.265 -0.0511  0.1580  0.2266
 2712DPPE   GL254400   8.124   0.573  15.542  0.1537  0.2014  0.1948
 2712DPPE   C1A54401   8.166   0.100  15.357 -0.0436  0.0177  0.1009
 2712DPPE   C2A54402   7.964  -0.281  15.326  0.0746  0.2206  0.3470
 2712DPPE   C3A54403   7.789  -0.456  14.871 -0.0206  0.0727  0.0603
 2712DPPE   C4A54404   7.403  -0.690  14.572  0.5782 -0.1452  0.0199
 2712DPPE   C1B54405   8.136   0.190  15.849  0.1827 -0.2133 -0.2899
 2712DPPE   C2B54406   7.980   0.121  16.240 -0.0164 -0.0306  0.1969
 2712DPPE   C3B54407   7.921   0.241  16.484 -0.0533 -0.0448 -0.3311
 2712DPPE   C4B54408   7.773   0.466  16.699  0.3949  0.0403  0.1165
 2713DPPE   NH354409   8.700   6.608   8.661  0.2134  0.1734 -0.1475
 2713DPPE   PO454410   9.118   6.506   8.488 -0.1651  0.1523 -0.2271
 2713DPPE   GL154411   9.396   6.793   8.534  0.2366  0.0624  0.0255
 2713DPPE   GL254412   9.292   6.764   8.889  0.0458 -0.1200 -0.2469
 2713DPPE   C1A54413   9.816   6.885   8.740  0.0936 -0.2091  0.2729
 2713DPPE   C2A54414   9.822   7.288   8.906 -0.1444 -0.4164 -0.0004
 2713DPPE   C3A54415   9.662   7.605   9.042  0.0101 -0.3968  0.3399
 2713DPPE   C4A54416   9.732   7.962   9.174  0.1983  0.0731 -0.4235
 2713DPPE   C1B54417   9.368   7.234   8.802 -0.0622  0.0670  0.0433
 2713DPPE   C2B54418   9.264   7.725   8.788  0.0769  0.0751 -0.2831
 2713DPPE   C3B54419   9.240   7.942   9.076 -0.1828  0.1519 -0.0455
 2713DPPE   C4B54420   9.331   7.990   9.518 -0.0512  0.2846 -0.1325
 2714DPPE   NH354421   9.092   9.415   6.675 -0.0821  0.1556 -0.3246
 2714DPPE   PO454422   8.711   9.377   6.813 -0.1931 -0.0026  0.3002
 2714DPPE   GL154423   8.378   9.290   6.621 -0.0196  0.2389  0.0904
 2714DPPE   GL254424   8.460   9.113   6.405 -0.0197 -0.5374 -0.1783
 2714DPPE   C1A54425   8.032   9.473   6.392  0.3094 -0.1560 -0.2506
 2714DPPE   C2A54426   7.837   9.374   6.096 -0.3492  0.4589 -0.1867
 2714DPPE   C3A54427   7.530   9.428   5.883  0.1124 -0.1324 -0.0272
 2714DPPE   C4A54428   7.494   9.197   5.544 -0.0051 -0.3744  0.0678
 2714DPPE   C1B54429   8.353   9.268   6.096  0.0280  0.0217  0.0638
 2714DPPE   C2B54430   7.978   9.125   5.721  0.0918 -0.2600  0.0067
 2714DPPE   C3B54431   7.932   9.023   5.320  0.1429  0.3612  0.0592
 2714DPPE   C4B54432   8.081   8.793   4.970 -0.2880  0.1302  0.2030
 2715DPPE   NH354433  12.855  35.539  11.683 -0.1016 -0.2303 -0.0065
 2715DPPE   PO454434  13.197  35.266  11.569  0.2274  0.1139  0.2646
 2715DPPE   GL154435  13.397  34.987  11.377  0.1178  0.2080 -0.2209
 2715DPPE   GL254436  13.250  34.730  11.605  0.2835 -0.0408  0.1950
 2715DPPE   C1A54437  13.374  34.727  11.057  0.2331 -0.0199  0.1639
 2715DPPE   C2A54438  13.106  34.431  10.849  0.1970  0.1352 -0.0374
 2715DPPE   C3A54439  13.095  34.029  10.631 -0.3884  0.1170  0.0264
 2715DPPE   C4A54440  13.344  33.614  10.391  0.1334 -0.1987  0.2737
 2715DPPE   C1B54441  13.184  34.382  11.432  0.0144 -0.0364 -0.2391
 2715DPPE   C2B54442  13.027  34.015  11.611  0.0543  0.0497  0.1625
 2715DPPE   C3B54443  12.721  33.783  11.924  0.2872  0.2348 -0.0364
 2715DPPE   C4B54444  12.324  33.564  12.138 -0.1652 -0.0620 -0.0832
 2716DPPE   NH354445   6.856  11.751   9.886 -0.0088  0.2151 -0.0633
 2716DPPE   PO454446   7.124  11.727   9.502  0.0294  0.1565 -0.1371
 2716DPPE   GL154447   7.014  12.123   9.590 -0.0457  0.3443  0.1440
 2716DPPE   GL254448   6.983  12.230   9.975  0.1276 -0.1581 -0.0479
 2716DPPE   C1A54449   7.229  12.540   9.615 -0.5257 -0.1221  0.1776
 2716DPPE   C2A54450   7.521  12.931   9.653  0.0669 -0.1477  0.0295
 2716DPPE   C3A54451   7.789  13.200   9.605 -0.1481 -0.0957  0.0825
 2716DPPE   C4A54452   7.704  13.591   9.792  0.2928  0.0097 -0.1338
 2716DPPE   C1B54453   6.796  12.453  10.174  0.0649  0.1118 -0.0550
 2716DPPE   C2B54454   7.059  12.710  10.570 -0.2331 -0.1471  0.2473
 2716DPPE   C3B54455   7.368  13.117  10.710 -0.0356  0.1994 -0.0270
 2716DPPE   C4B54456   7.555  13.451  10.935  0.1840  0.1508 -0.0922
 2717DPPE   NH354457   6.598   5.482  13.696 -0.1337 -0.5251  0.2013
 2717DPPE   PO454458   6.504   5.720  14.085  0.1765 -0.0202 -0.1390
 2717DPPE   GL154459   6.991   5.882  13.997 -0.0216 -0.1059 -0.1002
 2717DPPE   GL254460   7.074   5.828  13.686  0.3240 -0.1182 -0.4973
 2717DPPE   C1A54461   7.272   6.234  14.234 -0.2164  0.2718  0.1428
 2717DPPE   C2A54462   7.665   6.417  14.378  0.1022  0.1308 -0.1216
 2717DPPE   C3A54463   8.028   6.526  14.419 -0.0777  0.0788  0.0651
 2717DPPE   C4A54464   8.379   6.774  14.432  0.5387  0.1452  0.1926
 2717DPPE   C1B54465   7.494   5.871  13.837 -0.0183 -0.0934  0.1356
 2717DPPE   C2B54466   7.895   5.973  13.937 -0.0366  0.1861 -0.3109
 2717DPPE   C3B54467   8.280   6.209  14.032  0.0717 -0.3108 -0.0099
 2717DPPE   C4B54468   8.714   6.403  14.111  0.1382  0.2160 -0.0963
 2718DPPE   NH354469   8.561   2.836  10.725  0.3715  0.1536  0.0951
 2718DPPE   PO454470   8.435   2.763  11.165 -0.1219  0.0220 -0.0286
 2718DPPE   GL154471   8.246   2.469  10.866  0.2074  0.2869  0.0361
 2718DPPE   GL254472   7.863   2.264  10.978 -0.0634  0.3396  0.0865
 2718DPPE   C1A54473   8.276   2.275  10.560 -0.0222 -0.1987  0.0160
 2718DPPE   C2A54474   8.236   2.116  10.208  0.1473  0.1050 -0.0372
 2718DPPE   C3A54475   7.829   1.812  10.180 -0.1612 -0.1169  0.2030
 2718DPPE   C4A54476   7.753   1.419  10.055 -0.1669  0.0971 -0.3499
 2718DPPE   C1B54477   7.692   2.125  10.584 -0.1271 -0.2757 -0.0548
 2718DPPE   C2B54478   7.417   1.771  10.485  0.0057 -0.1062  0.0386
 2718DPPE   C3B54479   7.139   1.490  10.358 -0.2633  0.4451 -0.1718
 2718DPPE   C4B54480   6.955   1.060  10.358  0.1270  0.1186 -0.2356
 2719DPPE   NH354481   6.599  10.013   9.325  0.0431 -0.1211  0.0695
 2719DPPE   PO454482   6.366   9.819   9.608  0.0418 -0.1708  0.1996
 2719DPPE   GL154483   6.074  10.089   9.422 -0.0220 -0.1406  0.1045
 2719DPPE   GL254484   5.837  10.016   9.381 -0.3068 -0.1592  0.0642
 2719DPPE   C1A54485   6.007  10.170   8.859 -0.0590 -0.2494  0.2786
 2719DPPE   C2A54486   5.706  10.117   8.448  0.1512  0.3487 -0.0704
 2719DPPE   C3A54487   5.220   9.993   8.534  0.1072 -0.3291 -0.3062
 2719DPPE   C4A54488   4.794  10.137   8.464 -0.4367 -0.0951  0.1450
 2719DPPE   C1B54489   5.545  10.237   9.059 -0.3356  0.1668 -0.2518
 2719DPPE   C2B54490   5.240  10.335   8.829 -0.0098  0.1736 -0.3519
 2719DPPE   C3B54491   4.951  10.649   8.793  0.1838  0.1830 -0.1538
 2719DPPE   C4B54492   4.572  10.978   8.683 -0.2130 -0.1411  0.0668
 2720DPPE   NH354493   9.291   5.171   9.544  0.2130  0.1142 -0.1462
 2720DPPE   PO454494   9.115   5.471   9.380 -0.0003  0.1382 -0.1245
 2720DPPE   GL154495   9.410   5.631   9.499  0.1000 -0.1031  0.0415
 2720DPPE   GL254496   9.453   5.766   9.781  0.1259 -0.0028 -0.1333
 2720DPPE   C1A54497   9.776   5.963   9.357  0.2598  0.3001  0.2775
 2720DPPE   C2A54498  10.097   6.278   9.596  0.0045  0.2801  0.0486
 2720DPPE   C3A54499  10.315   6.447   9.897 -0.2738 -0.0842  0.0728
 2720DPPE   C4A54500  10.358   6.517  10.385 -0.0793 -0.0075 -0.1783
 2720DPPE   C1B54501   9.699   6.207  10.001  0.4783 -0.2894  0.4780
 2720DPPE   C2B54502   9.850   6.463  10.059 -0.0586  0.2560  0.2081
 2720DPPE   C3B54503  10.029   6.888  10.127  0.0265  0.1889 -0.1558
 2720DPPE   C4B54504  10.408   7.029  10.240 -0.3419  0.0359  0.3743
 2721DPPE   NH354505  14.629   1.526   8.418 -0.1031 -0.1249 -0.2160
 2721DPPE   PO454506  14.708   1.874   8.327  0.1750  0.2449  0.0627
 2721DPPE   GL154507  15.111   1.985   8.543  0.1597 -0.1893  0.1861
 2721DPPE   GL254508  15.085   2.298   8.671 -0.1849 -0.1166  0.0889
 2721DPPE   C1A54509  15.401   1.869   8.775 -0.0570  0.2677 -0.2185
 2721DPPE   C2A54510  15.449   2.093   9.196  0.0436 -0.0593 -0.0480
 2721DPPE   C3A54511  15.826   2.091   9.487 -0.0626 -0.3705  0.4106
 2721DPPE   C4A54512  15.929   1.817   9.783  0.1574 -0.0689  0.3342
 2721DPPE   C1B54513  15.109   2.430   8.949 -0.2623  0.1084  0.0266
 2721DPPE   C2B54514  15.101   2.602   9.261 -0.2563  0.0730  0.0096
 2721DPPE   C3B54515  15.278   2.948   9.425  0.1677  0.1100  0.0647
 2721DPPE   C4B54516  15.338   2.963   9.878  0.4487  0.4356 -0.1704
 2722DPPE   NH354517   9.387   0.264  13.453 -0.3944  0.0210 -0.2917
 2722DPPE   PO454518   9.494  -0.070  13.213 -0.1618 -0.1210 -0.0385
 2722DPPE   GL154519   9.099  -0.369  13.048  0.0042 -0.1968  0.0542
 2722DPPE   GL254520   8.814  -0.398  13.254  0.0230 -0.1854  0.0113
 2722DPPE   C1A54521   9.130  -0.804  13.150  0.0550  0.1760  0.2854
 2722DPPE   C2A54522   8.941  -1.162  13.351  0.1924  0.2372 -0.1923
 2722DPPE   C3A54523   9.127  -1.646  13.328  0.0757  0.3373 -0.0459
 2722DPPE   C4A54524   9.361  -1.922  12.990 -0.0809  0.2508 -0.0385
 2722DPPE   C1B54525   8.568  -0.725  13.132 -0.0143 -0.0815  0.2142
 2722DPPE   C2B54526   8.275  -0.773  13.259  0.0371  0.4064  0.3918
 2722DPPE   C3B54527   7.832  -0.842  13.212  0.2543 -0.1482  0.4820
 2722DPPE   C4B54528   7.395  -0.732  12.979 -0.1866 -0.0110  0.1118
 2723DPPE   NH354529  14.672  35.484  10.532 -0.0793 -0.2834  0.0837
 2723DPPE   PO454530  15.006  35.242  10.235 -0.4049 -0.2518  0.0101
 2723DPPE   GL154531  14.971  34.867  10.187 -0.0941  0.1044 -0.1521
 2723DPPE   GL254532  15.067  34.719  10.438 -0.1086  0.0727 -0.0119
 2723DPPE   C1A54533  14.857  34.494   9.838  0.1726 -0.1766  0.0005
 2723DPPE   C2A54534  14.881  34.055   9.934  0.0719  0.4064  0.0735
 2723DPPE   C3A54535  15.139  33.835  10.419  0.1010  0.2276  0.2819
 2723DPPE   C4A54536  15.219  33.693  10.824 -0.1497  0.3301  0.4913
 2723DPPE   C1B54537  15.037  34.306  10.279  0.1394 -0.0766 -0.2731
 2723DPPE   C2B54538  14.683  34.191  10.382  0.0392  0.0656 -0.1619
 2723DPPE   C3B54539  14.435  33.852  10.552 -0.1608 -0.3422 -0.1368
 2723DPPE   C4B54540  14.170  33.531  10.684  0.3204 -0.1526  0.2245
 2724DPPE   NH354541  10.939   8.094   6.044  0.1507 -0.1498 -0.3432
 2724DPPE   PO454542  10.678   7.876   5.773  0.1163 -0.2244 -0.0575
 2724DPPE   GL154543  10.508   7.855   5.378  0.2080 -0.1367 -0.1179
 2724DPPE   GL254544  10.568   8.178   5.317 -0.2019 -0.1405  0.0091
 2724DPPE   C1A54545  10.301   7.805   4.980 -0.1151 -0.1438 -0.0433
 2724DPPE   C2A54546  10.185   7.568   4.687  0.3359  0.0242 -0.1121
 2724DPPE   C3A54547  10.345   7.571   4.275  0.0609  0.3027 -0.1659
 2724DPPE   C4A54548  10.329   7.184   4.072  0.0337  0.0909 -0.0289
 2724DPPE   C1B54549  10.278   8.296   4.851  0.1077  0.0214 -0.1435
 2724DPPE   C2B54550   9.878   8.402   4.651  0.4675  0.2806 -0.0185
 2724DPPE   C3B54551   9.494   8.405   4.447  0.2621  0.0619 -0.2312
 2724DPPE   C4B54552   9.138   8.441   4.170 -0.2501 -0.1030 -0.1472
 2725DPPE   NH354553  10.403  10.301   6.974 -0.2484 -0.2241 -0.1428
 2725DPPE   PO454554  10.294  10.770   6.900 -0.3954  0.0470 -0.2172
 2725DPPE   GL154555  10.520  11.080   7.198 -0.2828 -0.1496  0.1005
 2725DPPE   GL254556  10.486  11.239   7.484 -0.1086 -0.0013  0.1422
 2725DPPE   C1A54557  10.747  10.830   7.406 -0.0339  0.2467 -0.2055
 2725DPPE   C2A54558  11.044  10.693   7.661  0.1155 -0.0304  0.0422
 2725DPPE   C3A54559  11.547  10.649   7.663  0.2276 -0.2793 -0.0776
 2725DPPE   C4A54560  11.802  10.449   7.951 -0.1972 -0.4514  0.2133
 2725DPPE   C1B54561  10.957  11.335   7.464 -0.0073  0.0508 -0.2693
 2725DPPE   C2B54562  11.380  11.113   7.680 -0.3737 -0.0031  0.1794
 2725DPPE   C3B54563  11.299  10.878   8.040  0.0058  0.1316  0.0826
 2725DPPE   C4B54564  11.569  10.655   8.408  0.4245  0.1201  0.0405
 2726DPPE   NH354565   6.474   4.685  16.656 -0.4802 -0.0753  0.3520
 2726DPPE   PO454566   6.295   5.034  16.675  0.0877  0.0390 -0.1684
 2726DPPE   GL154567   6.230   5.315  17.101  0.0104  0.1502  0.3315
 2726DPPE   GL254568   6.402   5.489  17.052  0.1171  0.2964  0.3120
 2726DPPE   C1A54569   5.994   5.469  17.508 -0.0068 -0.2312 -0.0980
 2726DPPE   C2A54570   5.975   5.510  17.943 -0.1992  0.1787  0.1992
 2726DPPE   C3A54571   6.179   5.387  18.334  0.1336 -0.0497 -0.2032
 2726DPPE   C4A54572   6.148   5.236  18.744 -0.2111 -0.1683  0.1860
 2726DPPE   C1B54573   6.496   5.502  17.461  0.2932 -0.0712  0.2541
 2726DPPE   C2B54574   6.407   5.745  17.777  0.2258 -0.0640 -0.2027
 2726DPPE   C3B54575   6.503   6.156  17.921  0.3894 -0.1200  0.0527
 2726DPPE   C4B54576   6.586   6.589  18.074  0.0907 -0.0531 -0.1274
 2727DPPE   NH354577   4.921   8.356  13.102 -0.0889  0.2842  0.2272
 2727DPPE   PO454578   5.122   8.038  12.980  0.0707 -0.2471  0.3204
 2727DPPE   GL154579   4.783   8.169  12.659 -0.0598 -0.0726  0.0696
 2727DPPE   GL254580   4.523   7.953  12.637  0.0776  0.0934 -0.0973
 2727DPPE   C1A54581   4.572   8.356  12.352 -0.2675  0.1563 -0.1206
 2727DPPE   C2A54582   4.146   8.576  12.224  0.0605 -0.0794  0.2595
 2727DPPE   C3A54583   3.734   8.724  12.283 -0.2001  0.1034 -0.1497
 2727DPPE   C4A54584   3.369   8.897  12.225 -0.1756 -0.3269 -0.0562
 2727DPPE   C1B54585   4.122   7.895  12.568  0.0035 -0.1222 -0.2344
 2727DPPE   C2B54586   3.908   7.713  12.313 -0.2173 -0.6908 -0.0799
 2727DPPE   C3B54587   3.590   7.693  12.066  0.1873 -0.0657 -0.0072
 2727DPPE   C4B54588   3.126   7.776  11.929 -0.0303  0.2093 -0.1550
 2728DPPE   NH354589  16.521   4.657   6.605  0.0522 -0.1992  0.0982
 2728DPPE   PO454590  16.909   4.656   6.289  0.1862  0.6150 -0.0241
 2728DPPE   GL154591  16.969   4.966   6.686  0.0646  0.1928 -0.2628
 2728DPPE   GL254592  16.925   5.258   6.740  0.2073 -0.0615  0.1878
 2728DPPE   C1A54593  17.081   5.053   7.124 -0.0464 -0.0006 -0.0311
 2728DPPE   C2A54594  17.362   5.101   7.424 -0.0002 -0.2252 -0.1353
 2728DPPE   C3A54595  17.751   5.210   7.460 -0.0596 -0.0586  0.0986
 2728DPPE   C4A54596  18.152   5.332   7.464  0.1481  0.0209 -0.0535
 2728DPPE   C1B54597  16.840   5.684   6.704 -0.0625  0.1664  0.0150
 2728DPPE   C2B54598  17.149   6.081   6.956  0.1084  0.0184  0.0560
 2728DPPE   C3B54599  17.199   6.428   7.249 -0.0079 -0.0450  0.0649
 2728DPPE   C4B54600  17.153   6.807   7.135 -0.3525 -0.0713  0.0867
 2729DPPE   NH354601  10.826  35.819  15.458  0.0056  0.0880 -0.0180
 2729DPPE   PO454602  10.932  35.624  15.081  0.3379  0.0055 -0.0386
 2729DPPE   GL154603  10.939  35.121  15.262  0.0993  0.0751  0.0844
 2729DPPE   GL254604  10.886  35.319  15.646  0.0353 -0.1915  0.0935
 2729DPPE   C1A54605  11.020  34.843  15.665  0.4884  0.0341  0.0143
 2729DPPE   C2A54606  11.093  34.595  15.971 -0.0108  0.0324  0.0385
 2729DPPE   C3A54607  11.046  34.335  16.288 -0.0197  0.1036 -0.0551
 2729DPPE   C4A54608  11.361  34.167  16.588 -0.4236  0.0953 -0.3600
 2729DPPE   C1B54609  10.496  35.210  15.818 -0.1634 -0.0241  0.0600
 2729DPPE   C2B54610  10.198  35.033  16.151 -0.1795 -0.0916 -0.1147
 2729DPPE   C3B54611   9.929  34.871  16.498 -0.0295 -0.0777  0.2414
 2729DPPE   C4B54612   9.707  34.572  16.460  0.0564  0.3700 -0.2960
 2730DPPE   NH354613  13.930   1.992   8.400  0.1792  0.2332 -0.2856
 2730DPPE   PO454614  13.660   1.955   8.827  0.0484 -0.2294 -0.0807
 2730DPPE   GL154615  13.659   2.327   8.967 -0.1430  0.1868  0.0374
 2730DPPE   GL254616  13.535   2.548   9.003 -0.0463  0.0437 -0.3992
 2730DPPE   C1A54617  13.813   2.621   9.417 -0.1316  0.0453 -0.0897
 2730DPPE   C2A54618  13.866   2.752   9.823 -0.1535 -0.2307 -0.1222
 2730DPPE   C3A54619  13.784   3.154   9.931 -0.0605  0.1665 -0.2275
 2730DPPE   C4A54620  13.822   3.622  10.050  0.4355 -0.1836  0.0112
 2730DPPE   C1B54621  13.271   2.508   9.416  0.3559 -0.3368  0.1590
 2730DPPE   C2B54622  13.391   2.534   9.806  0.0630  0.0172  0.1733
 2730DPPE   C3B54623  13.296   2.923  10.051  0.2078  0.2335  0.1505
 2730DPPE   C4B54624  13.004   2.937  10.428  0.3601  0.0788  0.0121
 2731DPPE   NH354625  14.352   0.139  11.364 -0.3531 -0.1885  0.0080
 2731DPPE   PO454626  14.640  -0.177  11.679  0.3263  0.1905  0.0921
 2731DPPE   GL154627  14.990  -0.151  11.969 -0.0010  0.0721 -0.3987
 2731DPPE   GL254628  15.281  -0.176  11.982  0.1211 -0.1120 -0.1781
 2731DPPE   C1A54629  15.250  -0.116  12.430  0.0542 -0.1158  0.0981
 2731DPPE   C2A54630  15.624  -0.229  12.642  0.2927  0.1118  0.1397
 2731DPPE   C3A54631  15.891  -0.390  12.711 -0.3331  0.0327  0.2857
 2731DPPE   C4A54632  16.246  -0.451  12.784 -0.0989  0.2331  0.1145
 2731DPPE   C1B54633  15.594   0.143  12.018  0.0414 -0.1782  0.1861
 2731DPPE   C2B54634  15.955   0.216  11.884 -0.2150  0.0000 -0.0897
 2731DPPE   C3B54635  16.419   0.133  11.938 -0.4432 -0.2230  0.1726
 2731DPPE   C4B54636  16.696   0.524  11.871 -0.0595  0.0445  0.2725
 2732DPPE   NH354637  15.202  35.157  11.250 -0.2372 -0.2480 -0.1660
 2732DPPE   PO454638  14.949  34.967  11.537  0.0752  0.0593 -0.2728
 2732DPPE   GL154639  15.324  34.939  11.736 -0.0645  0.2334 -0.1186
 2732DPPE   GL254640  15.166  34.722  11.974 -0.4691 -0.1678 -0.0220
 2732DPPE   C1A54641  15.798  34.994  11.683 -0.2498 -0.0298 -0.0844
 2732DPPE   C2A54642  16.145  34.830  11.532 -0.4645  0.0351 -0.1093
 2732DPPE   C3A54643  16.227  34.714  11.108 -0.1459  0.0791 -0.0195
 2732DPPE   C4A54644  16.213  34.894  10.702  0.1396  0.1970 -0.2250
 2732DPPE   C1B54645  15.393  34.292  11.876  0.4109  0.3191  0.0067
 2732DPPE   C2B54646  15.573  33.985  12.095 -0.2551  0.3623  0.1549
 2732DPPE   C3B54647  15.603  33.591  12.465  0.1586 -0.0456 -0.0076
 2732DPPE   C4B54648  15.788  33.664  12.947  0.1896  0.0956  0.1252
 2733DPPE   NH354649  11.502  10.871   6.268  0.0139  0.2415 -0.1122
 2733DPPE   PO454650  11.636  11.263   6.114 -0.0212 -0.1566 -0.4388
 2733DPPE   GL154651  11.964  11.546   6.175  0.3575 -0.0305 -0.2018
 2733DPPE   GL254652  12.365  11.511   6.286  0.0199  0.3857  0.1883
 2733DPPE   C1A54653  11.925  11.970   6.430 -0.0693 -0.1598 -0.1020
 2733DPPE   C2A54654  11.666  12.225   6.714 -0.1852  0.0732 -0.1288
 2733DPPE   C3A54655  11.811  12.536   7.056  0.0966 -0.1527 -0.2836
 2733DPPE   C4A54656  11.872  12.694   7.491 -0.2168  0.1944 -0.1405
 2733DPPE   C1B54657  12.827  11.667   6.499  0.1287 -0.1943  0.1256
 2733DPPE   C2B54658  13.218  11.926   6.621 -0.1694 -0.1313 -0.0685
 2733DPPE   C3B54659  13.286  12.391   6.416  0.0561  0.0730 -0.3797
 2733DPPE   C4B54660  13.147  12.768   6.207  0.0243 -0.2470  0.1869
 2734DPPE   NH354661  16.939   5.040   5.314 -0.1171  0.0541 -0.0267
 2734DPPE   PO454662  16.637   4.831   5.597 -0.0350  0.0098 -0.0933
 2734DPPE   GL154663  16.611   4.595   5.160 -0.0195  0.0794 -0.1008
 2734DPPE   GL254664  16.961   4.605   5.030  0.2165 -0.3167  0.0017
 2734DPPE   C1A54665  16.616   4.269   4.901 -0.2061 -0.0636  0.2300
 2734DPPE   C2A54666  16.568   4.153   4.416 -0.1274  0.0431 -0.0506
 2734DPPE   C3A54667  16.551   4.004   4.085 -0.0376  0.0695  0.3481
 2734DPPE   C4A54668  16.599   3.649   3.894  0.0277  0.1986  0.2091
 2734DPPE   C1B54669  17.440   4.481   4.877 -0.2263  0.0430 -0.0449
 2734DPPE   C2B54670  17.768   4.510   4.613 -0.0213  0.1011  0.0488
 2734DPPE   C3B54671  17.975   4.632   4.407  0.0993  0.2794 -0.1264
 2734DPPE   C4B54672  18.269   4.794   4.026  0.0834 -0.0816  0.1262
 2735DPPE   NH354673  10.291   5.980   6.926 -0.3058 -0.2484 -0.0356
 2735DPPE   PO454674  10.054   5.639   7.076  0.0187  0.3252 -0.2697
 2735DPPE   GL154675   9.708   5.389   6.858  0.4100  0.2329  0.2228
 2735DPPE   GL254676   9.899   5.161   6.651 -0.0242 -0.1803 -0.0873
 2735DPPE   C1A54677   9.501   4.911   6.878 -0.0957 -0.0363 -0.0497
 2735DPPE   C2A54678   9.354   4.425   6.740  0.1027 -0.1463  0.1420
 2735DPPE   C3A54679   8.907   4.240   6.645  0.0432  0.1751  0.0704
 2735DPPE   C4A54680   8.543   3.960   6.433 -0.2291  0.0967  0.1338
 2735DPPE   C1B54681   9.541   5.113   6.469 -0.0631 -0.0995  0.0359
 2735DPPE   C2B54682   9.293   4.890   6.280  0.0847  0.2145  0.2749
 2735DPPE   C3B54683   9.173   4.492   6.209 -0.0277 -0.0910 -0.1276
 2735DPPE   C4B54684   8.803   4.323   6.168 -0.0608 -0.0461 -0.2660
 2736DPPE   NH354685   8.030   5.107  11.675  0.4791 -0.0755  0.3835
 2736DPPE   PO454686   7.865   4.881  12.059  0.1229 -0.3638 -0.1519
 2736DPPE   GL154687   8.309   5.087  12.079 -0.0891  0.0557  0.0564
 2736DPPE   GL254688   8.599   5.067  11.788  0.0658 -0.3775 -0.1025
 2736DPPE   C1A54689   8.662   5.205  12.408 -0.1799  0.0434 -0.3873
 2736DPPE   C2A54690   9.070   5.346  12.630  0.2534  0.1577  0.2363
 2736DPPE   C3A54691   9.323   5.652  12.790 -0.1320 -0.3243 -0.0809
 2736DPPE   C4A54692   9.275   6.048  12.916  0.3326 -0.0970  0.1264
 2736DPPE   C1B54693   8.953   5.304  11.988  0.0921  0.2353 -0.0258
 2736DPPE   C2B54694   9.279   5.552  12.171 -0.1700 -0.0819 -0.0745
 2736DPPE   C3B54695   9.497   5.895  12.416  0.2300  0.0340 -0.0050
 2736DPPE   C4B54696   9.669   6.288  12.595 -0.3448  0.0451  0.1196
 2737DPPE   NH354697   7.421   2.358  12.592  0.4496  0.4536 -0.2153
 2737DPPE   PO454698   7.862   2.104  12.394  0.1876  0.0742 -0.0816
 2737DPPE   GL154699   7.516   1.896  12.393  0.0968 -0.1118 -0.0672
 2737DPPE   GL254700   7.232   2.100  12.202 -0.2959 -0.1013  0.1400
 2737DPPE   C1A54701   7.306   1.572  12.498  0.1742 -0.3612  0.0116
 2737DPPE   C2A54702   7.106   1.186  12.390 -0.0374 -0.0182  0.1181
 2737DPPE   C3A54703   6.830   0.822  12.345  0.0541  0.3418  0.1808
 2737DPPE   C4A54704   6.523   0.541  12.477  0.0061  0.2604 -0.2271
 2737DPPE   C1B54705   7.226   1.667  12.066 -0.2138 -0.0584  0.0937
 2737DPPE   C2B54706   7.130   1.200  11.833 -0.2869 -0.2875 -0.0354
 2737DPPE   C3B54707   6.981   0.814  11.865  0.2086  0.0393  0.0930
 2737DPPE   C4B54708   6.690   0.723  11.656  0.1712 -0.3130 -0.0634
 2738DPPE   NH354709  14.162   9.154   4.688 -0.4421  0.1528 -0.1214
 2738DPPE   PO454710  14.084   9.199   5.151 -0.3239  0.1296 -0.3771
 2738DPPE   GL154711  14.193   9.646   5.109 -0.0355  0.3905 -0.1401
 2738DPPE   GL254712  14.249   9.840   5.436  0.0524 -0.1494  0.1059
 2738DPPE   C1A54713  14.297  10.002   4.951 -0.1597 -0.2353 -0.0852
 2738DPPE   C2A54714  14.378  10.192   4.616 -0.3644  0.1282 -0.0253
 2738DPPE   C3A54715  14.333  10.668   4.434 -0.1304 -0.3862  0.1131
 2738DPPE   C4A54716  13.989  10.936   4.571  0.0830  0.1131  0.1829
 2738DPPE   C1B54717  14.683   9.842   5.343  0.2109  0.2415  0.1383
 2738DPPE   C2B54718  15.125  10.034   5.272 -0.1252  0.0612 -0.1105
 2738DPPE   C3B54719  15.467  10.217   5.332 -0.1839  0.3549  0.0178
 2738DPPE   C4B54720  15.901  10.137   5.477  0.4147 -0.0703  0.2817
 2739DPPE   NH354721   8.856   2.813   9.790 -0.1577  0.0465 -0.0170
 2739DPPE   PO454722   9.235   2.741   9.507  0.0281 -0.2626  0.0931
 2739DPPE   GL154723   9.053   2.372   9.626  0.1615  0.0400  0.1665
 2739DPPE   GL254724   9.187   2.154   9.563  0.2540 -0.0453  0.1497
 2739DPPE   C1A54725   8.670   2.078   9.476  0.1295  0.1140  0.0506
 2739DPPE   C2A54726   8.606   1.643   9.184  0.4798 -0.1052 -0.1401
 2739DPPE   C3A54727   8.509   1.188   9.157  0.0407 -0.0898  0.0220
 2739DPPE   C4A54728   8.363   0.852   9.321  0.0479 -0.1820 -0.0283
 2739DPPE   C1B54729   9.043   1.857   9.240  0.0579  0.0802  0.0145
 2739DPPE   C2B54730   8.964   1.668   8.833 -0.2118 -0.1282  0.1652
 2739DPPE   C3B54731   8.536   1.563   8.711 -0.0612  0.3694 -0.0907
 2739DPPE   C4B54732   8.137   1.421   8.863  0.0687  0.1082 -0.0963
 2740DPPE   NH354733  12.248   2.979   7.657  0.1648 -0.0182  0.1617
 2740DPPE   PO454734  11.965   2.704   7.926  0.1106 -0.1785  0.1461
 2740DPPE   GL154735  11.862   2.237   7.667  0.0645 -0.0898 -0.0177
 2740DPPE   GL254736  11.536   2.162   7.563 -0.0657 -0.1600 -0.1257
 2740DPPE   C1A54737  11.823   1.746   7.499 -0.0426 -0.0814  0.1285
 2740DPPE   C2A54738  11.555   1.461   7.231 -0.1433 -0.0788  0.2201
 2740DPPE   C3A54739  11.442   1.038   7.153 -0.0936  0.0106  0.1580
 2740DPPE   C4A54740  11.457   0.533   7.093 -0.0277 -0.0705 -0.2734
 2740DPPE   C1B54741  11.388   2.000   7.200 -0.3057 -0.2613  0.0125
 2740DPPE   C2B54742  11.219   1.793   6.813 -0.0474  0.1959  0.0456
 2740DPPE   C3B54743  11.142   1.712   6.395  0.1721 -0.1608 -0.0524
 2740DPPE   C4B54744  10.801   1.922   6.278 -0.2002  0.4635 -0.1881
 2741DPPE   NH354745   5.083   4.631  14.270  0.1626  0.2002  0.2976
 2741DPPE   PO454746   5.523   4.431  14.491 -0.1007 -0.3323 -0.0066
 2741DPPE   GL154747   5.270   4.100  14.157 -0.0064 -0.4990 -0.0272
 2741DPPE   GL254748   5.040   4.120  14.398  0.1294 -0.1973 -0.3430
 2741DPPE   C1A54749   5.013   3.825  14.020  0.4170  0.2244 -0.1069
 2741DPPE   C2A54750   4.668   3.599  13.838 -0.0030 -0.6375 -0.2087
 2741DPPE   C3A54751   4.438   3.365  14.224  0.0823 -0.0576 -0.0946
 2741DPPE   C4A54752   4.159   3.071  14.515  0.0043  0.3383 -0.0610
 2741DPPE   C1B54753   4.662   4.264  14.557 -0.5241 -0.0959  0.2222
 2741DPPE   C2B54754   4.334   4.200  14.745  0.1511 -0.2959  0.1267
 2741DPPE   C3B54755   4.022   3.898  14.686  0.0457 -0.0528 -0.0690
 2741DPPE   C4B54756   3.946   3.505  14.323 -0.0950  0.0179 -0.2229
 2742DPPE   NH354757   7.470   3.674  16.263  0.2410 -0.1964 -0.1822
 2742DPPE   PO454758   7.323   3.683  15.827 -0.0851  0.1191  0.1870
 2742DPPE   GL154759   7.707   3.812  15.759  0.1632  0.1688 -0.2378
 2742DPPE   GL254760   7.823   3.592  15.603 -0.0360  0.0677  0.2661
 2742DPPE   C1A54761   7.919   4.153  15.808 -0.0762  0.3989 -0.0036
 2742DPPE   C2A54762   8.310   4.192  15.846 -0.1130  0.1724  0.0599
 2742DPPE   C3A54763   8.654   4.299  16.019 -0.1207 -0.0990  0.2887
 2742DPPE   C4A54764   9.032   4.382  16.088 -0.2592 -0.1851  0.2666
 2742DPPE   C1B54765   8.108   4.015  15.336 -0.1706  0.2934  0.0585
 2742DPPE   C2B54766   8.460   4.279  15.397  0.0103  0.1519  0.0763
 2742DPPE   C3B54767   8.651   4.655  15.583  0.1452  0.0599 -0.2441
 2742DPPE   C4B54768   8.922   5.087  15.566 -0.2426 -0.1170 -0.0493
 2743DPPE   NH354769   8.428   5.667   7.909  0.0695 -0.2592  0.1161
 2743DPPE   PO454770   8.532   6.031   7.732 -0.0389 -0.0828  0.2493
 2743DPPE   GL154771   8.540   5.846   7.322  0.2746  0.1260 -0.0547
 2743DPPE   GL254772   8.425   5.444   7.457 -0.0223 -0.0475  0.1889
 2743DPPE   C1A54773   8.274   5.898   6.893  0.2222 -0.0092 -0.0440
 2743DPPE   C2A54774   7.971   6.094   6.649 -0.2046  0.0856  0.0407
 2743DPPE   C3A54775   7.770   6.397   6.450  0.1800  0.0159  0.0773
 2743DPPE   C4A54776   7.393   6.547   6.262  0.0786 -0.0322 -0.0092
 2743DPPE   C1B54777   8.144   5.401   7.191 -0.1003  0.0693 -0.0293
 2743DPPE   C2B54778   8.086   5.367   6.725 -0.4106 -0.0905 -0.1505
 2743DPPE   C3B54779   7.971   5.447   6.349  0.1679 -0.3520  0.1895
 2743DPPE   C4B54780   7.849   5.589   5.923  0.1826 -0.0267 -0.1579
 2744DPPE   NH354781   5.831   9.201  13.685 -0.1647 -0.2771 -0.4459
 2744DPPE   PO454782   5.782   9.280  13.240  0.1585  0.1970  0.2735
 2744DPPE   GL154783   5.890   9.718  13.366 -0.1190 -0.0583 -0.2933
 2744DPPE   GL254784   5.971   9.688  13.648  0.2040  0.1386  0.1577
 2744DPPE   C1A54785   6.013  10.161  13.434 -0.2016 -0.2571 -0.1290
 2744DPPE   C2A54786   6.134  10.524  13.322  0.0486  0.0219 -0.1109
 2744DPPE   C3A54787   6.535  10.716  13.581 -0.2662 -0.0888 -0.2838
 2744DPPE   C4A54788   6.571  11.004  13.975  0.1354 -0.1756  0.2831
 2744DPPE   C1B54789   5.727  10.071  13.853 -0.1445  0.1017 -0.0135
 2744DPPE   C2B54790   5.947  10.427  13.952  0.1693 -0.1762  0.0062
 2744DPPE   C3B54791   6.102  10.842  13.773  0.0451 -0.1651  0.0898
 2744DPPE   C4B54792   6.095  11.200  14.043 -0.1081 -0.2751 -0.1458
 2745DPPE   NH354793   6.880   9.405   8.813  0.1780 -0.1877  0.3492
 2745DPPE   PO454794   7.011   8.960   8.853 -0.2271  0.3470  0.1892
 2745DPPE   GL154795   6.805   8.990   8.464  0.0460  0.1760  0.3207
 2745DPPE   GL254796   6.937   8.975   8.170  0.5037 -0.2497  0.1414
 2745DPPE   C1A54797   6.427   9.035   8.145  0.2945  0.0383  0.0283
 2745DPPE   C2A54798   6.036   9.168   7.930  0.0510  0.2083  0.1030
 2745DPPE   C3A54799   5.636   8.973   7.760  0.0341 -0.1063 -0.0289
 2745DPPE   C4A54800   5.222   8.840   7.803 -0.2210 -0.1361  0.1989
 2745DPPE   C1B54801   6.843   9.008   7.762 -0.0527 -0.2608 -0.0002
 2745DPPE   C2B54802   6.745   8.831   7.300 -0.1369  0.2701  0.0629
 2745DPPE   C3B54803   6.607   8.826   6.850  0.1605  0.0587  0.2988
 2745DPPE   C4B54804   6.719   9.170   6.528 -0.2911 -0.2481 -0.1095
 2746DPPE   NH354805  10.147   1.075  11.579 -0.0433 -0.1248 -0.2649
 2746DPPE   PO454806   9.958   0.796  11.890 -0.0480  0.0847  0.0834
 2746DPPE   GL154807   9.577   0.446  11.799  0.0624 -0.1201  0.1267
 2746DPPE   GL254808   9.599   0.156  11.895 -0.0017  0.1137  0.0491
 2746DPPE   C1A54809   9.146   0.223  11.663  0.2765 -0.1188 -0.1143
 2746DPPE   C2A54810   8.792  -0.042  11.467  0.0816  0.0288  0.3871
 2746DPPE   C3A54811   8.405  -0.260  11.433 -0.0749  0.0222 -0.1891
 2746DPPE   C4A54812   8.204  -0.386  11.016  0.5411 -0.2218 -0.1571
 2746DPPE   C1B54813   9.529  -0.144  11.738 -0.4635  0.0682  0.1112
 2746DPPE   C2B54814   9.139  -0.362  11.571 -0.0516  0.0570 -0.0762
 2746DPPE   C3B54815   8.764  -0.597  11.539 -0.3938 -0.1577  0.1743
 2746DPPE   C4B54816   8.444  -0.775  11.696 -0.3448  0.0519  0.2624
 2747DPPE   NH354817  15.991   7.094   4.911 -0.0705 -0.0625 -0.1331
 2747DPPE   PO454818  15.694   7.161   4.638  0.1521 -0.1647  0.1540
 2747DPPE   GL154819  15.574   7.145   4.267 -0.1913 -0.0231  0.1264
 2747DPPE   GL254820  15.726   7.028   4.100 -0.0591  0.3964  0.0383
 2747DPPE   C1A54821  15.452   7.402   3.960 -0.1115 -0.0809  0.0185
 2747DPPE   C2A54822  15.611   7.662   3.688  0.0655 -0.0148 -0.1976
 2747DPPE   C3A54823  15.814   8.147   3.681  0.0460  0.0901  0.2703
 2747DPPE   C4A54824  15.692   8.532   3.910  0.0346  0.0188 -0.0529
 2747DPPE   C1B54825  15.886   6.852   3.820 -0.0936  0.0176 -0.1243
 2747DPPE   C2B54826  16.118   6.910   3.487 -0.0037  0.0237  0.0105
 2747DPPE   C3B54827  16.366   6.675   3.274 -0.0493 -0.2028  0.1904
 2747DPPE   C4B54828  16.702   6.695   2.956  0.1470 -0.2035 -0.0495
 2748DPPE   NH354829  10.097   3.686  10.193  0.2312  0.1639 -0.1167
 2748DPPE   PO454830   9.680   3.846  10.353  0.0557 -0.0291 -0.4872
 2748DPPE   GL154831   9.521   4.038  10.819  0.2082  0.1173 -0.0217
 2748DPPE   GL254832   9.464   4.439  10.775 -0.0141  0.0090  0.0371
 2748DPPE   C1A54833   9.786   4.110  11.158 -0.0170  0.1170  0.0960
 2748DPPE   C2A54834  10.045   4.377  11.464  0.0179 -0.2631 -0.0273
 2748DPPE   C3A54835  10.385   4.478  11.710  0.2285 -0.1078 -0.1501
 2748DPPE   C4A54836  10.606   4.526  12.029  0.1959 -0.2189  0.1379
 2748DPPE   C1B54837   9.879   4.466  10.800  0.1084  0.1388 -0.1287
 2748DPPE   C2B54838  10.176   4.695  11.000 -0.0948 -0.0135  0.1517
 2748DPPE   C3B54839  10.338   4.796  11.348  0.1241 -0.0287  0.0731
 2748DPPE   C4B54840  10.537   4.954  11.704 -0.2760  0.1843 -0.3551
 2749DPPE   NH354841  10.819   1.021  11.011  0.4725 -0.0309  0.2701
 2749DPPE   PO454842  10.768   0.574  10.943  0.0825  0.4231 -0.0271
 2749DPPE   GL154843  10.631   0.213  10.813 -0.1215 -0.0091  0.0564
 2749DPPE   GL254844  10.789   0.003  10.824 -0.0946 -0.1387  0.1207
 2749DPPE   C1A54845  10.432  -0.120  10.522 -0.3846  0.1281 -0.4061
 2749DPPE   C2A54846  10.279  -0.375  10.254 -0.1366  0.0069 -0.2212
 2749DPPE   C3A54847  10.160  -0.692  10.023  0.2040  0.1295  0.2228
 2749DPPE   C4A54848  10.014  -1.064   9.740 -0.0098 -0.0321  0.2111
 2749DPPE   C1B54849  10.789  -0.374  10.853  0.1009 -0.1777  0.2687
 2749DPPE   C2B54850  10.375  -0.649  10.688  0.2215 -0.0991  0.0162
 2749DPPE   C3B54851  10.027  -0.928  10.568 -0.3668  0.3926  0.3107
 2749DPPE   C4B54852   9.751  -1.299  10.629 -0.1010  0.1095  0.0250
 2750DPPE   NH354853  10.963   3.870   7.192  0.2982 -0.0398 -0.0434
 2750DPPE   PO454854  10.813   4.350   7.142 -0.1277  0.2721  0.2119
 2750DPPE   GL154855  10.660   4.150   6.727  0.0731 -0.2433  0.1746
 2750DPPE   GL254856  10.582   3.976   6.835 -0.0191  0.2385 -0.0063
 2750DPPE   C1A54857  10.771   4.076   6.264 -0.2188 -0.0884  0.0194
 2750DPPE   C2A54858  10.629   3.815   5.941 -0.0687  0.0730 -0.2187
 2750DPPE   C3A54859  10.333   3.686   5.739 -0.0839  0.3194  0.2393
 2750DPPE   C4A54860   9.928   3.435   5.785 -0.1848 -0.1644 -0.1495
 2750DPPE   C1B54861  10.433   3.744   6.467 -0.1305  0.1982 -0.3647
 2750DPPE   C2B54862  10.226   3.473   6.152 -0.1781 -0.1471 -0.0052
 2750DPPE   C3B54863  10.534   3.124   5.886 -0.0558 -0.0655  0.0022
 2750DPPE   C4B54864  10.817   2.939   5.660  0.3312 -0.0305  0.1921
 2751DPPE   NH354865  14.824  36.017  10.683  0.1226  0.0746  0.0834
 2751DPPE   PO454866  15.136  36.041  10.971  0.0494  0.0902 -0.1445
 2751DPPE   GL154867  15.612  36.156  10.937  0.2168 -0.2415  0.1262
 2751DPPE   GL254868  15.883  36.190  10.822  0.2520 -0.1786 -0.1324
 2751DPPE   C1A54869  16.130  35.974  11.173  0.0620  0.3839  0.0893
 2751DPPE   C2A54870  16.411  35.648  11.400 -0.3395 -0.2435  0.0566
 2751DPPE   C3A54871  16.820  35.499  11.606  0.5039 -0.1566 -0.2213
 2751DPPE   C4A54872  17.215  35.389  11.723  0.0075 -0.0256  0.1303
 2751DPPE   C1B54873  16.207  36.477  11.095  0.0986  0.0740  0.1569
 2751DPPE   C2B54874  16.547  36.312  10.928  0.3729  0.3323  0.3004
 2751DPPE   C3B54875  17.038  36.318  10.917  0.2266  0.0757  0.0205
 2751DPPE   C4B54876  17.392  36.023  10.940  0.0989 -0.1791  0.0552
 2752DPPE   NH354877   5.183   5.989  12.767 -0.0237 -0.0784 -0.2157
 2752DPPE   PO454878   5.419   5.701  12.743 -0.2359  0.1017 -0.0939
 2752DPPE   GL154879   5.032   5.482  12.726 -0.1141  0.2051 -0.0149
 2752DPPE   GL254880   5.101   5.095  12.590 -0.1483 -0.0383  0.3219
 2752DPPE   C1A54881   4.803   5.438  12.349 -0.0715  0.1599  0.1467
 2752DPPE   C2A54882   4.736   5.615  12.011 -0.1414  0.2447  0.1379
 2752DPPE   C3A54883   4.387   5.592  11.676 -0.2247  0.0747 -0.1163
 2752DPPE   C4A54884   4.036   5.317  11.584  0.0008 -0.2845 -0.1917
 2752DPPE   C1B54885   4.672   5.072  12.636  0.0142  0.1587  0.0121
 2752DPPE   C2B54886   4.341   5.226  12.510  0.0252  0.2462 -0.0381
 2752DPPE   C3B54887   4.114   5.527  12.092  0.0632  0.0394  0.0250
 2752DPPE   C4B54888   3.665   5.532  11.911 -0.1713  0.2015 -0.3297
 2753DPPE   NH354889   4.706   5.864  15.051 -0.0634 -0.0178 -0.1951
 2753DPPE   PO454890   4.570   6.233  14.790  0.2520  0.0556 -0.0501
 2753DPPE   GL154891   4.156   6.223  14.976 -0.1490 -0.0577  0.0411
 2753DPPE   GL254892   4.247   5.977  15.240  0.3526 -0.1665 -0.0542
 2753DPPE   C1A54893   3.693   6.314  14.948  0.1391  0.1340 -0.2875
 2753DPPE   C2A54894   3.296   6.258  15.218 -0.0854  0.1622 -0.0824
 2753DPPE   C3A54895   3.000   5.987  15.516 -0.3068 -0.2827  0.3626
 2753DPPE   C4A54896   2.645   5.878  15.883 -0.0785 -0.0945  0.2172
 2753DPPE   C1B54897   3.860   5.819  15.199  0.0627 -0.1796 -0.0259
 2753DPPE   C2B54898   3.492   5.827  14.924  0.0963 -0.0393  0.1729
 2753DPPE   C3B54899   3.170   6.279  14.750  0.0463 -0.1119  0.2023
 2753DPPE   C4B54900   3.089   6.647  14.509 -0.1024  0.0006 -0.2440
 2754DPPE   NH354901  17.633   3.174   6.026  0.0722  0.0252  0.2018
 2754DPPE   PO454902  17.962   2.998   6.284  0.0667 -0.0555 -0.2440
 2754DPPE   GL154903  18.161   2.867   5.915  0.0648  0.1619  0.0643
 2754DPPE   GL254904  18.448   3.136   5.801 -0.0319  0.0218 -0.4235
 2754DPPE   C1A54905  18.298   2.635   5.585 -0.0073 -0.1168  0.2539
 2754DPPE   C2A54906  18.654   2.788   5.501  0.1228 -0.0048 -0.0108
 2754DPPE   C3A54907  18.831   3.109   5.299  0.1481  0.0960  0.1108
 2754DPPE   C4A54908  18.791   3.412   4.983  0.2128 -0.0628 -0.4542
 2754DPPE   C1B54909  18.495   3.399   5.528  0.2083 -0.0979 -0.1875
 2754DPPE   C2B54910  18.289   3.514   5.069 -0.2559 -0.0678  0.0035
 2754DPPE   C3B54911  17.836   3.740   5.055 -0.2858  0.1030  0.1963
 2754DPPE   C4B54912  17.529   3.974   4.816 -0.0969  0.4263  0.1101
 2755DPPE   NH354913   9.935   4.975   9.144 -0.2360 -0.3020 -0.0044
 2755DPPE   PO454914   9.646   4.803   9.499  0.4527 -0.2262 -0.1366
 2755DPPE   GL154915   9.974   4.946   9.729  0.0175  0.0185  0.2032
 2755DPPE   GL254916  10.329   4.973   9.705 -0.1359 -0.0726 -0.0354
 2755DPPE   C1A54917  10.132   5.233  10.107  0.2107 -0.0224 -0.0103
 2755DPPE   C2A54918  10.378   5.560  10.259 -0.0892 -0.0289 -0.1350
 2755DPPE   C3A54919  10.752   5.797  10.414 -0.1457  0.2126 -0.0412
 2755DPPE   C4A54920  10.843   6.095  10.726 -0.5035  0.2096  0.0722
 2755DPPE   C1B54921  10.795   4.960   9.784 -0.1495 -0.2802  0.2969
 2755DPPE   C2B54922  11.200   4.956  10.118 -0.1070  0.2848 -0.1319
 2755DPPE   C3B54923  11.408   4.973  10.458  0.1100  0.4770 -0.1037
 2755DPPE   C4B54924  11.673   5.014  10.840 -0.1809  0.0847 -0.1564
 2756DPPE   NH354925  13.998   0.613   8.244 -0.2278 -0.0530 -0.0632
 2756DPPE   PO454926  14.190   0.225   8.559 -0.1950 -0.2141  0.0823
 2756DPPE   GL154927  13.871   0.102   8.261 -0.2709 -0.0620  0.1386
 2756DPPE   GL254928  13.956  -0.106   8.106  0.0699  0.1468  0.1836
 2756DPPE   C1A54929  13.537   0.044   7.893 -0.0703  0.1239 -0.0821
 2756DPPE   C2A54930  13.221  -0.139   7.897 -0.0912 -0.3215  0.3351
 2756DPPE   C3A54931  13.123  -0.526   7.838 -0.0048  0.1988  0.1872
 2756DPPE   C4A54932  12.927  -0.924   7.722  0.4170  0.0132  0.0306
 2756DPPE   C1B54933  13.868  -0.350   7.723 -0.0691 -0.2147  0.2550
 2756DPPE   C2B54934  13.793  -0.760   7.463  0.1320 -0.1585 -0.2728
 2756DPPE   C3B54935  13.994  -1.161   7.268 -0.2750  0.1970  0.1369
 2756DPPE   C4B54936  13.922  -1.406   6.876 -0.0039 -0.2297 -0.0108
 2757DPPE   NH354937   8.377  11.800   8.071 -0.1432 -0.0398  0.4320
 2757DPPE   PO454938   7.970  11.862   8.181  0.1343 -0.2508 -0.2551
 2757DPPE   GL154939   8.075  12.231   8.208  0.0177  0.1300  0.3676
 2757DPPE   GL254940   8.303  12.272   8.222  0.1425  0.2005  0.2115
 2757DPPE   C1A54941   7.963  12.653   8.385 -0.0321  0.2781 -0.1483
 2757DPPE   C2A54942   7.835  12.973   8.708 -0.1465 -0.1081 -0.6829
 2757DPPE   C3A54943   7.708  13.415   8.728 -0.3383 -0.1007 -0.1229
 2757DPPE   C4A54944   7.385  13.684   8.745 -0.1386  0.0141  0.0461
 2757DPPE   C1B54945   8.362  12.742   8.174  0.2222 -0.2922  0.0443
 2757DPPE   C2B54946   8.301  13.065   8.361 -0.1839 -0.1210  0.1113
 2757DPPE   C3B54947   8.174  13.400   8.516 -0.3915  0.1151  0.3021
 2757DPPE   C4B54948   7.763  13.696   8.308  0.3625 -0.1143  0.0731
 2758DPPE   NH354949  12.166   1.172   9.664 -0.0842 -0.0827  0.0875
 2758DPPE   PO454950  12.082   0.972   9.262  0.1176  0.2509 -0.0921
 2758DPPE   GL154951  11.880   0.764   8.881 -0.1522 -0.1637  0.0182
 2758DPPE   GL254952  11.911   0.852   8.633  0.0810 -0.1881 -0.1770
 2758DPPE   C1A54953  11.728   0.297   8.806 -0.0438 -0.1462 -0.1661
 2758DPPE   C2A54954  11.443  -0.073   8.630 -0.3596 -0.1849  0.0485
 2758DPPE   C3A54955  11.338  -0.453   8.497  0.0758  0.1685  0.1242
 2758DPPE   C4A54956  11.191  -0.818   8.311 -0.4033 -0.2031  0.0952
 2758DPPE   C1B54957  11.505   0.644   8.566  0.2465  0.1856  0.0253
 2758DPPE   C2B54958  11.306   0.352   8.246 -0.0235 -0.1777 -0.1832
 2758DPPE   C3B54959  11.183  -0.095   8.169  0.2366 -0.0405 -0.1006
 2758DPPE   C4B54960  10.849  -0.314   7.906  0.1411 -0.1633  0.2397
 2759DPPE   NH354961  13.515  35.515  13.226  0.1106 -0.1551 -0.1388
 2759DPPE   PO454962  13.588  35.587  13.620 -0.3281 -0.2367  0.0506
 2759DPPE   GL154963  13.771  35.953  13.831 -0.1015 -0.1333  0.2145
 2759DPPE   GL254964  13.511  35.966  13.982  0.0119 -0.2413  0.2463
 2759DPPE   C1A54965  14.146  36.192  14.000  0.0761 -0.0302 -0.1916
 2759DPPE   C2A54966  14.559  36.214  13.969 -0.0117  0.3627 -0.2017
 2759DPPE   C3A54967  14.952  36.057  14.144  0.1374  0.0464  0.3333
 2759DPPE   C4A54968  15.142  36.082  14.572 -0.0598 -0.0513  0.2410
 2759DPPE   C1B54969  13.739  36.215  14.283 -0.0922  0.1128  0.0132
 2759DPPE   C2B54970  14.221  36.443  14.442  0.1021 -0.1031  0.0713
 2759DPPE   C3B54971  14.622  36.555  14.410  0.1357  0.1187  0.1145
 2759DPPE   C4B54972  15.033  36.546  14.382  0.3864  0.0402 -0.2480
 2760DPPE   NH354973  15.758   3.000  12.816 -0.0537  0.0550 -0.2374
 2760DPPE   PO454974  15.792   3.342  12.535  0.2404  0.0369  0.1978
 2760DPPE   GL154975  15.500   3.037  12.398  0.0903  0.1810  0.1219
 2760DPPE   GL254976  15.591   2.622  12.534 -0.2378 -0.2302 -0.2447
 2760DPPE   C1A54977  15.190   2.687  12.343 -0.0861 -0.1434  0.1630
 2760DPPE   C2A54978  14.875   2.500  12.669 -0.0332  0.0334 -0.1288
 2760DPPE   C3A54979  14.807   2.085  12.763 -0.3800 -0.0194 -0.1931
 2760DPPE   C4A54980  15.073   1.738  12.795 -0.1440  0.1603 -0.0118
 2760DPPE   C1B54981  15.874   2.285  12.541  0.2313  0.2904  0.3066
 2760DPPE   C2B54982  16.064   1.842  12.448  0.1963  0.1992 -0.0719
 2760DPPE   C3B54983  15.972   1.420  12.321  0.0480 -0.0123 -0.3352
 2760DPPE   C4B54984  15.530   1.200  12.383 -0.1039  0.1733 -0.0945
 2761DPPE   NH354985  20.430  11.261  23.242 -0.2625 -0.0543  0.2494
 2761DPPE   PO454986  19.998  11.387  23.270 -0.0049 -0.1885 -0.1489
 2761DPPE   GL154987  20.147  11.323  23.696  0.0768 -0.1419 -0.0439
 2761DPPE   GL254988  20.423  11.633  23.796 -0.5527  0.0540  0.1753
 2761DPPE   C1A54989  20.127  11.268  24.154  0.3140  0.0333  0.0388
 2761DPPE   C2A54990  20.351  11.624  24.421  0.2066  0.1138 -0.1139
 2761DPPE   C3A54991  20.655  11.883  24.515  0.1345 -0.0191 -0.0299
 2761DPPE   C4A54992  21.071  12.007  24.574 -0.0417 -0.4350 -0.3352
 2761DPPE   C1B54993  20.672  11.413  24.079 -0.0443  0.2192 -0.0231
 2761DPPE   C2B54994  20.875  11.047  24.218  0.3137 -0.3090 -0.3697
 2761DPPE   C3B54995  20.888  10.746  24.638 -0.0632  0.1572  0.3231
 2761DPPE   C4B54996  20.701  10.670  24.930  0.3510  0.3263 -0.4007
 2762DPPE   NH354997  16.110   2.766  13.693 -0.1599  0.2001 -0.2599
 2762DPPE   PO454998  15.720   2.626  13.663 -0.0749  0.1378 -0.1889
 2762DPPE   GL154999  15.471   2.309  13.518  0.1387  0.0479  0.1558
 2762DPPE   GL255000  15.662   2.027  13.641  0.1262  0.1429 -0.0883
 2762DPPE   C1A55001  15.097   2.051  13.683  0.0134 -0.1216 -0.0482
 2762DPPE   C2A55002  14.686   1.905  13.644  0.0012  0.0643  0.1633
 2762DPPE   C3A55003  14.430   1.628  13.418 -0.1755 -0.3033  0.1464
 2762DPPE   C4A55004  14.001   1.707  13.314  0.2873 -0.0528 -0.1614
 2762DPPE   C1B55005  15.477   1.818  13.390 -0.0368  0.0181  0.1594
 2762DPPE   C2B55006  15.230   1.541  13.330 -0.0028  0.1599  0.1852
 2762DPPE   C3B55007  14.810   1.396  13.344 -0.1342 -0.2598 -0.0740
 2762DPPE   C4B55008  14.597   1.131  13.551  0.1365  0.1976 -0.1521
 2763DPPE   NH355009  16.819  22.161  11.769  0.2330 -0.1662  0.1321
 2763DPPE   PO455010  16.493  21.771  11.678 -0.1255  0.0553 -0.2880
 2763DPPE   GL155011  16.672  21.326  11.691  0.0137 -0.0622 -0.0085
 2763DPPE   GL255012  16.552  21.219  12.040  0.0509  0.1934 -0.5446
 2763DPPE   C1A55013  17.013  20.966  11.651  0.2799  0.0856 -0.1225
 2763DPPE   C2A55014  17.226  20.594  11.692 -0.2663 -0.1908  0.1465
 2763DPPE   C3A55015  17.176  20.295  11.340 -0.1954 -0.1782  0.0411
 2763DPPE   C4A55016  16.898  19.831  11.186 -0.1440  0.0358  0.0690
 2763DPPE   C1B55017  16.738  20.744  12.145  0.0034  0.0639  0.4208
 2763DPPE   C2B55018  17.006  20.434  12.253  0.0824 -0.0249  0.1809
 2763DPPE   C3B55019  17.166  20.106  12.459  0.0546 -0.1467 -0.3814
 2763DPPE   C4B55020  17.457  19.759  12.699  0.2817 -0.0976  0.5012
 2764DPPE   NH355021  13.910  21.248  11.101 -0.2060 -0.0699  0.0163
 2764DPPE   PO455022  14.404  21.073  11.145 -0.0627  0.3811 -0.0613
 2764DPPE   GL155023  14.588  20.816  10.962 -0.0545  0.0533  0.0505
 2764DPPE   GL255024  14.898  20.882  10.967 -0.0667  0.2073 -0.1505
 2764DPPE   C1A55025  14.669  20.461  11.158  0.1269  0.2444 -0.4436
 2764DPPE   C2A55026  14.636  20.110  11.448 -0.0596 -0.0684 -0.2363
 2764DPPE   C3A55027  14.385  19.783  11.846  0.0819 -0.2628  0.1254
 2764DPPE   C4A55028  14.104  19.640  12.243 -0.0520  0.1827  0.0211
 2764DPPE   C1B55029  15.228  20.642  11.183  0.2545 -0.0904 -0.0598
 2764DPPE   C2B55030  15.307  20.297  11.495  0.2225  0.0293  0.1979
 2764DPPE   C3B55031  14.919  20.355  11.813  0.2731 -0.1947  0.2404
 2764DPPE   C4B55032  14.525  20.254  11.938 -0.2185 -0.3084 -0.1131
 2765DPPE   NH355033  10.472  13.533   2.868 -0.1581 -0.0998  0.2524
 2765DPPE   PO455034  10.775  13.673   3.160  0.1944 -0.1703 -0.1297
 2765DPPE   GL155035  10.742  13.379   3.555 -0.0362  0.2426 -0.0078
 2765DPPE   GL255036  10.616  13.482   3.806 -0.1086  0.4338 -0.0808
 2765DPPE   C1A55037  11.055  13.137   3.869  0.1115  0.2111  0.0992
 2765DPPE   C2A55038  11.099  12.718   3.984 -0.3061 -0.0346  0.1835
 2765DPPE   C3A55039  11.079  12.383   4.253 -0.1348  0.1357  0.0374
 2765DPPE   C4A55040  11.371  12.165   4.505 -0.3136  0.1948 -0.3464
 2765DPPE   C1B55041  10.225  13.292   3.773 -0.2293  0.2155 -0.2608
 2765DPPE   C2B55042   9.767  13.281   3.689  0.0962  0.1343 -0.1173
 2765DPPE   C3B55043   9.401  13.445   3.755 -0.0553  0.4881  0.0328
 2765DPPE   C4B55044   9.028  13.553   3.819 -0.3443 -0.1653  0.4275
 2766DPPE   NH355045  17.932   4.118   2.146 -0.4236  0.0204 -0.3665
 2766DPPE   PO455046  18.275   3.937   2.435  0.2919  0.2149 -0.0170
 2766DPPE   GL155047  17.810   3.859   2.576 -0.1521  0.2480  0.1481
 2766DPPE   GL255048  17.557   3.716   2.481  0.0388 -0.2602 -0.1070
 2766DPPE   C1A55049  17.557   3.833   2.974 -0.2419  0.2090 -0.2086
 2766DPPE   C2A55050  17.229   3.825   3.216 -0.0171  0.2193 -0.1894
 2766DPPE   C3A55051  16.779   4.032   3.051  0.3101  0.3344 -0.0410
 2766DPPE   C4A55052  16.700   4.494   3.098  0.1164 -0.2510 -0.0373
 2766DPPE   C1B55053  17.122   3.660   2.739 -0.0759  0.0344 -0.2788
 2766DPPE   C2B55054  16.726   3.459   2.782 -0.0093 -0.2025  0.4158
 2766DPPE   C3B55055  16.299   3.419   3.028  0.1200 -0.1372 -0.1570
 2766DPPE   C4B55056  15.965   3.515   3.262 -0.0484  0.2297 -0.1483
 2767DPPE   NH355057  23.318  15.615  17.079  0.2187 -0.3591 -0.1771
 2767DPPE   PO455058  23.605  15.210  17.006 -0.0239 -0.4057 -0.5107
 2767DPPE   GL155059  23.852  15.630  16.945 -0.0365 -0.4518  0.2563
 2767DPPE   GL255060  23.887  15.583  16.657  0.2282  0.1543 -0.1433
 2767DPPE   C1A55061  23.930  16.081  16.920 -0.3507  0.1753 -0.0893
 2767DPPE   C2A55062  24.334  16.315  17.110 -0.1361 -0.0757 -0.0234
 2767DPPE   C3A55063  24.708  16.433  16.855 -0.0513  0.0137  0.1090
 2767DPPE   C4A55064  24.915  16.567  16.460 -0.1414 -0.4457  0.1734
 2767DPPE   C1B55065  24.327  15.698  16.640 -0.0970 -0.0625 -0.0398
 2767DPPE   C2B55066  24.622  15.904  16.929  0.0496 -0.1907 -0.1297
 2767DPPE   C3B55067  24.788  16.071  17.290 -0.1785  0.3250  0.0092
 2767DPPE   C4B55068  24.728  16.109  17.773 -0.1326 -0.0380  0.0417
 2768DPPE   NH355069  12.429   3.668  19.384 -0.1297 -0.1547 -0.3466
 2768DPPE   PO455070  12.627   3.386  19.251 -0.0208  0.1448 -0.3018
 2768DPPE   GL155071  12.500   3.210  19.672 -0.1909  0.2024  0.2427
 2768DPPE   GL255072  12.777   3.127  19.958 -0.1479 -0.0775  0.0454
 2768DPPE   C1A55073  12.341   3.200  20.108  0.1273  0.2257 -0.1523
 2768DPPE   C2A55074  12.023   2.960  20.344 -0.1017  0.1224  0.1266
 2768DPPE   C3A55075  11.611   2.764  20.357  0.0047  0.2606  0.1660
 2768DPPE   C4A55076  11.287   2.373  20.274  0.1518 -0.3077 -0.1238
 2768DPPE   C1B55077  12.537   2.740  20.070 -0.2774 -0.2297  0.1252
 2768DPPE   C2B55078  12.229   2.393  20.165 -0.1136 -0.0973  0.1558
 2768DPPE   C3B55079  11.860   2.100  20.400 -0.3711 -0.2147  0.0730
 2768DPPE   C4B55080  11.718   1.758  20.668 -0.1276 -0.0896  0.2550
 2769DPPE   NH355081  13.067  11.699   9.785  0.1080  0.0937  0.1082
 2769DPPE   PO455082  12.701  11.734   9.620 -0.3406 -0.3532 -0.0841
 2769DPPE   GL155083  12.700  11.802   9.201  0.2375 -0.1135  0.1752
 2769DPPE   GL255084  12.563  12.011   8.982 -0.0823 -0.2100  0.2943
 2769DPPE   C1A55085  12.719  11.471   8.845 -0.2111 -0.0207  0.2020
 2769DPPE   C2A55086  12.864  11.488   8.473  0.1290 -0.1329 -0.3309
 2769DPPE   C3A55087  12.814  11.258   8.145 -0.1561  0.3525 -0.0973
 2769DPPE   C4A55088  12.681  11.549   7.770 -0.1265 -0.0775  0.0219
 2769DPPE   C1B55089  12.416  11.988   8.639 -0.0762  0.1799  0.1714
 2769DPPE   C2B55090  12.468  11.745   8.214  0.0098 -0.1430 -0.1752
 2769DPPE   C3B55091  12.264  11.407   8.088 -0.0340  0.0019  0.0779
 2769DPPE   C4B55092  12.298  11.259   7.652 -0.0299 -0.0310 -0.4872
 2770DPPE   NH355093   9.563  12.585  12.065 -0.0451 -0.0236  0.1008
 2770DPPE   PO455094   9.584  12.147  12.238 -0.0887  0.2065 -0.0147
 2770DPPE   GL155095   9.187  12.066  12.175 -0.0350  0.1382  0.2867
 2770DPPE   GL255096   9.216  11.750  12.273 -0.0886 -0.1883  0.1603
 2770DPPE   C1A55097   8.835  12.185  11.948 -0.1682  0.1291 -0.0966
 2770DPPE   C2A55098   8.395  12.108  11.969  0.1137 -0.0631  0.0225
 2770DPPE   C3A55099   8.165  12.084  12.347  0.1546  0.3980 -0.1539
 2770DPPE   C4A55100   7.976  11.940  12.823 -0.1753  0.3442  0.2978
 2770DPPE   C1B55101   8.790  11.683  12.043 -0.1095  0.1697 -0.1998
 2770DPPE   C2B55102   8.263  11.636  12.193  0.0226  0.0822 -0.0029
 2770DPPE   C3B55103   7.986  11.838  11.894  0.0564  0.1791  0.0394
 2770DPPE   C4B55104   7.479  11.752  11.841 -0.2161  0.2022 -0.0673
 2771DPPE   NH355105  14.403  17.971  18.713  0.1952 -0.4089  0.0311
 2771DPPE   PO455106  14.666  18.004  19.013 -0.0275 -0.2324 -0.0940
 2771DPPE   GL155107  14.584  18.430  19.196  0.0855  0.3561 -0.0766
 2771DPPE   GL255108  14.880  18.400  19.323  0.1949  0.2636  0.0295
 2771DPPE   C1A55109  14.585  18.856  19.315  0.0227 -0.0106  0.3180
 2771DPPE   C2A55110  14.557  19.102  19.695 -0.1021  0.0659 -0.1351
 2771DPPE   C3A55111  14.703  19.085  20.073  0.0037  0.1134 -0.1912
 2771DPPE   C4A55112  14.646  19.226  20.471 -0.0722 -0.1069  0.2274
 2771DPPE   C1B55113  14.771  18.590  19.660  0.1380  0.1184 -0.1813
 2771DPPE   C2B55114  14.493  18.646  20.092  0.0533  0.2156  0.1694
 2771DPPE   C3B55115  14.256  18.922  20.250 -0.2311 -0.1218 -0.1217
 2771DPPE   C4B55116  14.256  19.469  20.092  0.0978  0.2673  0.1468
 2772DPPE   NH355117  11.480   8.173  12.270  0.1166  0.4227  0.1687
 2772DPPE   PO455118  11.161   7.968  12.352 -0.1652  0.0271  0.2035
 2772DPPE   GL155119  10.891   7.687  12.162 -0.1474  0.0028 -0.1772
 2772DPPE   GL255120  11.027   7.329  12.078  0.0390  0.0109  0.2105
 2772DPPE   C1A55121  10.500   7.822  11.961 -0.0314  0.0674 -0.5197
 2772DPPE   C2A55122  10.087   7.600  11.836 -0.0093 -0.0123 -0.2991
 2772DPPE   C3A55123   9.746   7.300  11.900 -0.1492 -0.1326 -0.1615
 2772DPPE   C4A55124   9.487   7.049  12.081  0.1197 -0.5039  0.1031
 2772DPPE   C1B55125  10.893   7.301  11.603 -0.0484  0.1696  0.1475
 2772DPPE   C2B55126  10.987   6.952  11.309  0.3659  0.0728  0.0028
 2772DPPE   C3B55127  10.689   6.800  10.988 -0.0241 -0.2970 -0.0501
 2772DPPE   C4B55128  10.767   7.007  10.612 -0.3117 -0.1330  0.1936
 2773DPPE   NH355129  10.205   7.718  15.401  0.4369 -0.0024  0.0430
 2773DPPE   PO455130  10.301   7.325  15.099 -0.0967 -0.1934  0.2408
 2773DPPE   GL155131  10.082   7.606  14.840 -0.0586 -0.1082 -0.1827
 2773DPPE   GL255132   9.978   7.275  14.608 -0.0087 -0.2303 -0.0158
 2773DPPE   C1A55133   9.699   7.687  14.506  0.1993  0.2589 -0.0235
 2773DPPE   C2A55134   9.317   7.542  14.281  0.0716  0.0451 -0.1016
 2773DPPE   C3A55135   8.858   7.475  14.081 -0.2699 -0.0126 -0.0608
 2773DPPE   C4A55136   8.548   7.757  13.991 -0.0281  0.3246  0.1191
 2773DPPE   C1B55137   9.815   6.898  14.828  0.1872 -0.1363  0.0956
 2773DPPE   C2B55138   9.723   6.569  15.010 -0.0550 -0.2042 -0.1644
 2773DPPE   C3B55139   9.320   6.302  15.019  0.2413 -0.1782 -0.1663
 2773DPPE   C4B55140   8.917   6.197  14.698  0.1584 -0.0994 -0.1025
 2774DPPE   NH355141  21.124   5.795   4.932 -0.1033 -0.2300 -0.0420
 2774DPPE   PO455142  20.950   6.032   5.351 -0.0089  0.1476  0.0476
 2774DPPE   GL155143  20.486   5.912   5.425  0.3788 -0.0793  0.2162
 2774DPPE   GL255144  20.438   5.586   5.252 -0.1730 -0.3435 -0.1021
 2774DPPE   C1A55145  20.102   5.877   5.529  0.1160  0.1043 -0.0540
 2774DPPE   C2A55146  19.803   5.982   5.769 -0.0001 -0.1791  0.0976
 2774DPPE   C3A55147  19.417   6.008   6.019 -0.2659  0.0493 -0.2237
 2774DPPE   C4A55148  19.068   5.665   6.131 -0.0419  0.3333 -0.2895
 2774DPPE   C1B55149  20.025   5.599   5.136 -0.0046  0.0583  0.2203
 2774DPPE   C2B55150  19.722   5.675   5.265 -0.0484  0.1043 -0.1991
 2774DPPE   C3B55151  19.522   5.349   5.361  0.0474 -0.3317 -0.0613
 2774DPPE   C4B55152  19.119   5.088   5.565 -0.3422  0.1631 -0.0552
 2775DPPE   NH355153  21.638   3.208  23.984  0.2890 -0.0955  0.0605
 2775DPPE   PO455154  21.715   3.566  24.300  0.0242  0.1256  0.0681
 2775DPPE   GL155155  21.517   3.712  23.884 -0.0257  0.1052  0.0457
 2775DPPE   GL255156  21.700   3.667  23.613 -0.1481  0.0784 -0.1949
 2775DPPE   C1A55157  21.250   4.036  23.635  0.1118  0.2836 -0.1909
 2775DPPE   C2A55158  20.929   4.228  23.307 -0.4826 -0.1368 -0.1786
 2775DPPE   C3A55159  20.906   4.368  22.841 -0.1208  0.0737  0.1572
 2775DPPE   C4A55160  20.991   4.830  22.713 -0.0816  0.0291  0.0287
 2775DPPE   C1B55161  21.750   3.667  23.129 -0.1087  0.2612 -0.1338
 2775DPPE   C2B55162  21.985   3.636  22.725  0.1793 -0.1652  0.0191
 2775DPPE   C3B55163  22.042   3.973  22.463  0.1747 -0.3880 -0.2110
 2775DPPE   C4B55164  21.876   4.079  22.099 -0.0305  0.0539  0.3395
 2776DPPE   NH355165   8.479  13.578  16.852 -0.1755  0.0420 -0.3223
 2776DPPE   PO455166   8.321  13.246  16.589  0.3168  0.1902  0.1079
 2776DPPE   GL155167   8.013  13.528  16.635  0.4773 -0.0624  0.0800
 2776DPPE   GL255168   7.910  13.761  16.519  0.0505 -0.0370 -0.1015
 2776DPPE   C1A55169   7.633  13.385  16.834 -0.2032 -0.1544  0.0124
 2776DPPE   C2A55170   7.273  13.378  17.199 -0.0832 -0.0582  0.1198
 2776DPPE   C3A55171   6.937  13.222  17.421  0.2066 -0.1437 -0.1209
 2776DPPE   C4A55172   6.743  13.662  17.140  0.0161  0.0900 -0.2738
 2776DPPE   C1B55173   7.647  13.590  16.259 -0.0546 -0.2511  0.0532
 2776DPPE   C2B55174   7.364  13.541  15.909 -0.0275 -0.0809 -0.0869
 2776DPPE   C3B55175   6.888  13.379  15.811 -0.2754 -0.1394  0.3822
 2776DPPE   C4B55176   6.520  13.184  15.612  0.1640  0.1028  0.2695
 2777DPPE   NH355177   8.118  10.977   9.131  0.1243  0.3387 -0.0608
 2777DPPE   PO455178   7.813  11.335   9.119  0.2376 -0.0818  0.0218
 2777DPPE   GL155179   7.806  11.741   9.247 -0.1589  0.2646 -0.0292
 2777DPPE   GL255180   7.687  11.769   9.506 -0.0110 -0.1002  0.1225
 2777DPPE   C1A55181   8.010  12.105   9.327  0.2627  0.0327 -0.0753
 2777DPPE   C2A55182   8.201  12.419   9.313  0.2825  0.0137  0.3205
 2777DPPE   C3A55183   8.497  12.631   9.579  0.1658 -0.1526 -0.1231
 2777DPPE   C4A55184   8.932  12.730   9.607 -0.1017 -0.0585 -0.0153
 2777DPPE   C1B55185   7.602  12.193   9.634  0.0425 -0.3752  0.3005
 2777DPPE   C2B55186   7.701  12.607   9.365 -0.1836  0.0438  0.1616
 2777DPPE   C3B55187   7.692  13.022   9.177  0.1341 -0.2454 -0.1762
 2777DPPE   C4B55188   7.517  13.468   9.199  0.0039  0.3641 -0.0165
 2778DPPE   NH355189  15.461   8.749   5.092  0.0082 -0.0778 -0.0192
 2778DPPE   PO455190  15.638   8.341   4.945 -0.2113 -0.2622 -0.1966
 2778DPPE   GL155191  15.974   8.504   5.053 -0.0518 -0.0009 -0.0125
 2778DPPE   GL255192  16.417   8.402   5.040 -0.3485  0.2066  0.0648
 2778DPPE   C1A55193  16.135   8.847   4.990  0.0487  0.1521  0.1347
 2778DPPE   C2A55194  16.271   9.033   5.191 -0.0072 -0.1078 -0.2920
 2778DPPE   C3A55195  16.344   9.028   5.630 -0.1884 -0.4848 -0.1195
 2778DPPE   C4A55196  16.562   9.380   5.875  0.2853  0.0373  0.0148
 2778DPPE   C1B55197  16.742   8.623   4.781  0.0175  0.1361  0.1401
 2778DPPE   C2B55198  17.049   8.533   4.429 -0.5286 -0.1949 -0.0967
 2778DPPE   C3B55199  17.006   8.603   3.966 -0.0311  0.1393  0.0960
 2778DPPE   C4B55200  17.135   8.858   3.603  0.2307 -0.1774  0.0393
 2779DPPE   NH355201  12.815   3.289   6.971 -0.0144 -0.1419  0.0589
 2779DPPE   PO455202  12.508   3.730   6.938 -0.1254  0.0223  0.0475
 2779DPPE   GL155203  12.287   3.342   6.739  0.2221 -0.0785 -0.2690
 2779DPPE   GL255204  11.895   3.274   6.773 -0.0636 -0.3003 -0.0883
 2779DPPE   C1A55205  12.373   3.090   6.410 -0.0811 -0.0342  0.0753
 2779DPPE   C2A55206  12.616   3.096   6.120  0.3506  0.0654 -0.0307
 2779DPPE   C3A55207  12.684   2.760   5.894 -0.1129  0.1794  0.1617
 2779DPPE   C4A55208  12.565   2.416   5.691 -0.3904  0.0216  0.0840
 2779DPPE   C1B55209  11.868   3.387   6.282 -0.1681 -0.2951  0.1161
 2779DPPE   C2B55210  12.051   3.256   5.977 -0.2447 -0.0684  0.1886
 2779DPPE   C3B55211  11.971   3.227   5.565 -0.1843  0.1243  0.2090
 2779DPPE   C4B55212  11.846   2.931   5.195 -0.0968 -0.0955  0.0209
 2780DPPE   NH355213  16.196   6.317   4.990 -0.0783 -0.0150 -0.3423
 2780DPPE   PO455214  16.495   6.004   5.186 -0.0511  0.0379 -0.2603
 2780DPPE   GL155215  16.877   5.922   4.947 -0.0732  0.1990  0.1573
 2780DPPE   GL255216  17.212   5.923   5.124 -0.1799  0.4723  0.0155
 2780DPPE   C1A55217  17.175   5.666   4.672 -0.2460  0.2081  0.1782
 2780DPPE   C2A55218  17.439   5.423   4.671  0.0681  0.0044  0.3573
 2780DPPE   C3A55219  17.954   5.530   4.592  0.1232  0.2637  0.1592
 2780DPPE   C4A55220  18.337   5.625   4.436 -0.1224  0.0983 -0.0722
 2780DPPE   C1B55221  17.517   6.047   5.015 -0.0603 -0.2862 -0.0854
 2780DPPE   C2B55222  17.953   5.992   4.883  0.0293 -0.0217 -0.0671
 2780DPPE   C3B55223  18.271   5.642   4.941  0.1226 -0.0255 -0.0161
 2780DPPE   C4B55224  18.675   5.685   5.157  0.0455  0.2807  0.4760
 2781DPPE   NH355225   8.037   2.974  15.113 -0.1377 -0.1300 -0.0023
 2781DPPE   PO455226   7.984   2.820  15.583 -0.1573 -0.2346 -0.0229
 2781DPPE   GL155227   8.183   3.202  15.652 -0.0233 -0.0297 -0.0557
 2781DPPE   GL255228   8.437   3.116  15.450  0.1752  0.1012 -0.0271
 2781DPPE   C1A55229   8.279   3.534  15.767 -0.0596  0.4161 -0.5733
 2781DPPE   C2A55230   8.584   3.755  15.856 -0.1846 -0.1220 -0.0358
 2781DPPE   C3A55231   8.800   3.998  15.666  0.4503  0.1847 -0.1146
 2781DPPE   C4A55232   9.293   4.158  15.711 -0.1081  0.3657  0.0067
 2781DPPE   C1B55233   8.797   3.355  15.710 -0.0036  0.0202  0.0101
 2781DPPE   C2B55234   9.169   3.628  15.845 -0.0504 -0.4156 -0.0428
 2781DPPE   C3B55235   8.978   3.917  16.199  0.0015 -0.1922  0.3238
 2781DPPE   C4B55236   9.039   4.206  16.512 -0.1165  0.2326 -0.1189
 2782DPPE   NH355237  16.590   0.185   8.546 -0.0980 -0.0091 -0.1825
 2782DPPE   PO455238  16.392   0.297   8.219 -0.0880 -0.0360  0.2830
 2782DPPE   GL155239  16.349   0.082   7.829  0.0328 -0.2683 -0.0381
 2782DPPE   GL255240  16.630  -0.097   7.888  0.2606 -0.1244  0.1352
 2782DPPE   C1A55241  16.190  -0.296   7.623  0.4305 -0.0159  0.0500
 2782DPPE   C2A55242  16.107  -0.849   7.522 -0.4329 -0.0571  0.0259
 2782DPPE   C3A55243  16.374  -1.203   7.258 -0.0311  0.0536  0.1785
 2782DPPE   C4A55244  16.781  -1.398   7.038  0.2917  0.2403  0.3820
 2782DPPE   C1B55245  16.822  -0.387   8.087 -0.1712  0.1921  0.0452
 2782DPPE   C2B55246  16.964  -0.730   8.019  0.2002  0.1539  0.0415
 2782DPPE   C3B55247  16.729  -0.997   8.225 -0.1490 -0.1996 -0.1084
 2782DPPE   C4B55248  16.879  -0.860   8.590  0.0585 -0.0908  0.0004
 2783DPPE   NH355249   6.859   4.387  13.238 -0.4253  0.0669  0.1202
 2783DPPE   PO455250   7.024   4.797  13.314 -0.1551  0.2127  0.1384
 2783DPPE   GL155251   7.397   5.087  13.404  0.0316  0.0290 -0.2035
 2783DPPE   GL255252   7.620   4.838  13.363  0.3627  0.1357  0.2867
 2783DPPE   C1A55253   7.845   5.228  13.155  0.1533  0.1533 -0.0859
 2783DPPE   C2A55254   8.204   5.282  13.058  0.4537 -0.1824  0.2273
 2783DPPE   C3A55255   8.529   5.510  13.244 -0.0580  0.1757 -0.0464
 2783DPPE   C4A55256   8.745   5.526  13.723 -0.0543  0.1033  0.1683
 2783DPPE   C1B55257   8.044   4.852  13.330 -0.3122  0.1387 -0.2059
 2783DPPE   C2B55258   8.450   4.766  13.259 -0.0780  0.0133  0.1843
 2783DPPE   C3B55259   8.769   4.602  13.594 -0.2074 -0.2533 -0.0170
 2783DPPE   C4B55260   9.197   4.466  13.800  0.0431 -0.2614 -0.0730
 2784DPPE   NH355261   7.415   2.977  16.268  0.7011  0.0386 -0.0586
 2784DPPE   PO455262   7.847   3.066  16.564  0.1282  0.1583 -0.1618
 2784DPPE   GL155263   8.236   3.162  16.438 -0.0976  0.0300 -0.2884
 2784DPPE   GL255264   8.403   3.182  16.093  0.3771  0.0087 -0.2204
 2784DPPE   C1A55265   8.735   3.126  16.509 -0.2425 -0.1729 -0.0030
 2784DPPE   C2A55266   9.115   2.994  16.679  0.1189  0.2967  0.4119
 2784DPPE   C3A55267   9.351   2.853  16.313  0.2495 -0.2252  0.5525
 2784DPPE   C4A55268   9.782   2.704  16.092 -0.2783  0.0086  0.1238
 2784DPPE   C1B55269   8.438   3.575  16.473  0.1678  0.0355 -0.0024
 2784DPPE   C2B55270   8.844   3.625  16.613 -0.3572 -0.1466  0.2506
 2784DPPE   C3B55271   9.056   3.374  16.954  0.3962  0.0050  0.3335
 2784DPPE   C4B55272   9.289   3.363  17.239 -0.3158 -0.2609 -0.4498
 2785DPPE   NH355273   5.653  10.560  10.440 -0.3680  0.1511 -0.1519
 2785DPPE   PO455274   6.025  10.835  10.292 -0.2376  0.0710 -0.3976
 2785DPPE   GL155275   5.774  10.949  10.015  0.2477  0.0238  0.0172
 2785DPPE   GL255276   5.423  10.871  10.167  0.1249 -0.1651  0.4422
 2785DPPE   C1A55277   5.498  11.316   9.925  0.0423  0.1042 -0.0826
 2785DPPE   C2A55278   5.187  11.657   9.891  0.0886 -0.2185 -0.1052
 2785DPPE   C3A55279   5.031  11.902   9.584 -0.0699 -0.0826  0.0557
 2785DPPE   C4A55280   4.653  12.183   9.348 -0.0789 -0.1209  0.2291
 2785DPPE   C1B55281   5.313  10.862   9.742  0.0644  0.1008  0.2910
 2785DPPE   C2B55282   4.910  10.903   9.683  0.2682 -0.1232 -0.2160
 2785DPPE   C3B55283   4.481  11.010   9.516  0.0469 -0.2553 -0.1828
 2785DPPE   C4B55284   4.337  10.983   9.105  0.4559 -0.1844 -0.4092
 2786DPPE   NH355285  14.081   4.105   6.013 -0.2496  0.1263  0.1197
 2786DPPE   PO455286  13.734   3.825   6.045  0.0801 -0.3335  0.0598
 2786DPPE   GL155287  13.680   3.884   5.630 -0.2261  0.0186  0.1523
 2786DPPE   GL255288  13.842   3.836   5.406 -0.0877 -0.1377 -0.3311
 2786DPPE   C1A55289  13.370   3.800   5.227 -0.0617 -0.3134  0.2875
 2786DPPE   C2A55290  13.216   3.528   4.804 -0.3119 -0.0034 -0.0968
 2786DPPE   C3A55291  12.920   3.151   4.625  0.1370 -0.1264  0.2501
 2786DPPE   C4A55292  12.478   3.078   4.600 -0.0054 -0.0559  0.1872
 2786DPPE   C1B55293  13.772   3.784   4.938 -0.1225 -0.4366  0.1102
 2786DPPE   C2B55294  13.667   3.597   4.607 -0.1491  0.1057 -0.0171
 2786DPPE   C3B55295  13.455   3.401   4.402 -0.1623 -0.0073 -0.2256
 2786DPPE   C4B55296  13.332   3.273   3.945  0.1267  0.2691 -0.0067
 2787DPPE   NH355297  10.780   4.135   7.588 -0.0491  0.1456 -0.3283
 2787DPPE   PO455298  11.045   3.755   7.725  0.0390  0.0813  0.0431
 2787DPPE   GL155299  10.733   3.607   7.588  0.2089  0.2985  0.1007
 2787DPPE   GL255300  10.776   3.340   7.402  0.0307 -0.0599 -0.0057
 2787DPPE   C1A55301  10.380   3.441   7.138  0.0558 -0.1666 -0.1483
 2787DPPE   C2A55302  10.100   3.629   6.837 -0.2570  0.0630 -0.2301
 2787DPPE   C3A55303   9.794   3.586   6.543 -0.0414 -0.2722 -0.1426
 2787DPPE   C4A55304   9.645   3.767   6.112 -0.1273  0.1882  0.0489
 2787DPPE   C1B55305  10.704   3.041   7.153 -0.4514 -0.0161  0.2319
 2787DPPE   C2B55306  10.704   2.583   6.911 -0.1851  0.0196 -0.3439
 2787DPPE   C3B55307  10.500   2.378   6.462 -0.2694  0.1185  0.0644
 2787DPPE   C4B55308  10.423   2.178   6.129 -0.0965  0.0583  0.0568
 2788DPPE   NH355309   7.743   8.367   9.136 -0.0102  0.1170  0.2735
 2788DPPE   PO455310   8.107   8.030   8.970 -0.2330  0.0516  0.0898
 2788DPPE   GL155311   8.416   7.824   9.211 -0.0368  0.0464 -0.0537
 2788DPPE   GL255312   8.631   8.042   9.173 -0.2005  0.1345  0.2018
 2788DPPE   C1A55313   8.804   7.567   9.077  0.0659 -0.0827  0.0854
 2788DPPE   C2A55314   9.157   7.470   9.303 -0.1476  0.0768 -0.0857
 2788DPPE   C3A55315   9.573   7.586   9.594  0.0629 -0.1512  0.1418
 2788DPPE   C4A55316  10.066   7.691   9.594  0.3477 -0.2101  0.5346
 2788DPPE   C1B55317   8.823   8.279   9.451  0.0683  0.0950 -0.0894
 2788DPPE   C2B55318   9.218   8.471   9.588 -0.1006 -0.3023  0.2685
 2788DPPE   C3B55319   9.473   8.432  10.008  0.0557 -0.3816  0.1504
 2788DPPE   C4B55320   9.857   8.362   9.743 -0.0153  0.3335  0.1343
 2789DPPE   NH355321   6.325   8.422  10.487 -0.3365 -0.1916 -0.1160
 2789DPPE   PO455322   6.475   8.113  10.122 -0.0790  0.0882  0.0749
 2789DPPE   GL155323   6.073   8.094   9.866  0.1724 -0.2055 -0.0420
 2789DPPE   GL255324   6.093   7.779   9.632 -0.1555 -0.1013  0.1603
 2789DPPE   C1A55325   5.814   8.369   9.651 -0.0492  0.1636  0.0176
 2789DPPE   C2A55326   5.492   8.265   9.458  0.0776 -0.0751  0.1158
 2789DPPE   C3A55327   5.327   8.225   9.066 -0.1566  0.0235 -0.2072
 2789DPPE   C4A55328   4.841   8.334   8.917  0.2258 -0.2710 -0.0617
 2789DPPE   C1B55329   5.702   7.763   9.707  0.0730 -0.0297  0.0399
 2789DPPE   C2B55330   5.276   7.651   9.809 -0.1526  0.2005 -0.3250
 2789DPPE   C3B55331   4.825   7.617   9.721 -0.0093 -0.0863 -0.1354
 2789DPPE   C4B55332   4.376   7.542   9.648  0.1298 -0.2429 -0.0483
 2790DPPE   NH355333  10.713   4.351   8.978  0.0271 -0.0652 -0.4179
 2790DPPE   PO455334  10.362   4.671   9.123  0.0454 -0.0013 -0.0619
 2790DPPE   GL155335  10.409   5.063   9.215 -0.1240  0.0154 -0.2306
 2790DPPE   GL255336  10.254   5.310   9.048 -0.1154 -0.1989 -0.0749
 2790DPPE   C1A55337  10.829   5.242   9.245  0.4029  0.3079 -0.0231
 2790DPPE   C2A55338  10.890   5.657   9.508  0.0130  0.2338 -0.0889
 2790DPPE   C3A55339  10.992   6.047   9.721  0.0012  0.0620  0.1599
 2790DPPE   C4A55340  11.212   6.343   9.960  0.0450 -0.1290  0.0051
 2790DPPE   C1B55341  10.301   5.553   9.462  0.1856  0.1078  0.0908
 2790DPPE   C2B55342  10.549   5.444   9.785 -0.0172  0.1308  0.0932
 2790DPPE   C3B55343  10.938   5.468   9.935  0.1423 -0.0248 -0.0180
 2790DPPE   C4B55344  11.250   5.753  10.036 -0.3845 -0.1392  0.0401
 2791DPPE   NH355345   9.029   1.086  11.624  0.2686 -0.3171 -0.0330
 2791DPPE   PO455346   8.670   1.358  11.650  0.1297 -0.2563 -0.0327
 2791DPPE   GL155347   8.342   1.372  11.327 -0.1155  0.0408 -0.2419
 2791DPPE   GL255348   8.126   1.431  11.515 -0.2755  0.1352 -0.0345
 2791DPPE   C1A55349   8.166   1.371  10.862 -0.0089  0.1141  0.1370
 2791DPPE   C2A55350   7.804   1.372  10.609  0.0179  0.2395  0.0435
 2791DPPE   C3A55351   7.462   1.115  10.567 -0.0652  0.1045 -0.6893
 2791DPPE   C4A55352   7.312   0.723  10.489  0.0921  0.0178 -0.0768
 2791DPPE   C1B55353   7.704   1.379  11.261  0.1548 -0.1480 -0.3991
 2791DPPE   C2B55354   7.432   1.250  11.053 -0.2027  0.1173  0.2184
 2791DPPE   C3B55355   7.134   0.995  10.935 -0.0173  0.1749 -0.0079
 2791DPPE   C4B55356   6.944   0.563  10.830 -0.2666  0.1713  0.0344
 2792DPPE   NH355357  12.350   6.143   5.009 -0.2973  0.0828 -0.0465
 2792DPPE   PO455358  12.492   5.934   5.456  0.0845  0.0432 -0.1143
 2792DPPE   GL155359  12.397   5.610   5.104 -0.0383  0.1150  0.1095
 2792DPPE   GL255360  12.267   5.487   5.322 -0.1106  0.0072  0.0003
 2792DPPE   C1A55361  12.431   5.385   4.639  0.2240 -0.0036  0.1132
 2792DPPE   C2A55362  12.245   5.307   4.323  0.2589  0.0533  0.3401
 2792DPPE   C3A55363  12.095   4.889   4.097 -0.0292  0.0443 -0.2546
 2792DPPE   C4A55364  12.048   4.502   3.839 -0.2537  0.2032  0.2487
 2792DPPE   C1B55365  12.015   5.333   4.907  0.1786 -0.0702 -0.0077
 2792DPPE   C2B55366  11.785   5.180   4.558 -0.2523 -0.0938  0.1614
 2792DPPE   C3B55367  11.583   5.029   4.195 -0.1415  0.1773 -0.3289
 2792DPPE   C4B55368  11.215   5.030   3.812  0.1216 -0.3551  0.0084
 2793DPPE   NH355369  15.580   6.724   4.936 -0.2726  0.0874 -0.0193
 2793DPPE   PO455370  15.973   6.622   4.696  0.0872  0.2840  0.1988
 2793DPPE   GL155371  15.930   6.272   4.316  0.1227 -0.1859  0.5304
 2793DPPE   GL255372  16.086   6.534   4.203 -0.1193 -0.2098  0.3255
 2793DPPE   C1A55373  15.866   6.247   3.857 -0.1058 -0.3310 -0.1641
 2793DPPE   C2A55374  15.790   6.392   3.482 -0.0103  0.1538  0.4038
 2793DPPE   C3A55375  15.855   6.639   3.138  0.1083  0.0493 -0.0755
 2793DPPE   C4A55376  15.724   6.949   3.115  0.2733  0.0486 -0.1610
 2793DPPE   C1B55377  16.325   6.483   3.860 -0.1352  0.0742 -0.1471
 2793DPPE   C2B55378  16.337   6.249   3.572  0.0784 -0.1426 -0.3546
 2793DPPE   C3B55379  16.230   6.176   3.189 -0.0197 -0.0640  0.3944
 2793DPPE   C4B55380  16.076   6.323   2.833  0.2510  0.0667 -0.2109
 2794DPPE   NH355381  13.874   1.016   8.655  0.0041  0.0200  0.1117
 2794DPPE   PO455382  13.585   1.048   8.294  0.1242 -0.1815  0.0627
 2794DPPE   GL155383  13.460   0.649   8.074  0.3993  0.2270 -0.0310
 2794DPPE   GL255384  13.151   0.683   8.145 -0.3815  0.0627  0.0382
 2794DPPE   C1A55385  13.405   0.452   7.665 -0.3498 -0.1100  0.4528
 2794DPPE   C2A55386  13.480   0.137   7.442  0.0100 -0.0373 -0.0463
 2794DPPE   C3A55387  13.470  -0.307   7.456 -0.1717  0.0668  0.1329
 2794DPPE   C4A55388  13.275  -0.761   7.391  0.1410 -0.1382  0.0028
 2794DPPE   C1B55389  13.011   0.350   7.953 -0.5376  0.3377 -0.0674
 2794DPPE   C2B55390  13.013   0.258   7.508  0.3063  0.1333 -0.2325
 2794DPPE   C3B55391  12.895  -0.007   7.136  0.1264 -0.1229  0.0605
 2794DPPE   C4B55392  13.011  -0.048   6.687 -0.1106 -0.1160 -0.2407
 2795DPPE   NH355393  16.234  34.551  20.052 -0.0490  0.1226  0.1098
 2795DPPE   PO455394  16.273  34.893  20.333 -0.2444  0.1761  0.1833
 2795DPPE   GL155395  15.933  34.980  20.088 -0.2821 -0.3138  0.1007
 2795DPPE   GL255396  16.057  34.952  19.797  0.2011  0.2089 -0.1667
 2795DPPE   C1A55397  15.634  35.357  20.238  0.2842 -0.2061  0.1392
 2795DPPE   C2A55398  15.479  35.783  20.417 -0.1271 -0.1342 -0.0903
 2795DPPE   C3A55399  15.420  36.156  20.319  0.0604  0.3263 -0.1660
 2795DPPE   C4A55400  15.497  36.522  20.232 -0.1292 -0.2172  0.2035
 2795DPPE   C1B55401  15.884  35.393  19.798 -0.2599  0.1538 -0.2195
 2795DPPE   C2B55402  15.844  35.821  19.857  0.0342 -0.0412 -0.3122
 2795DPPE   C3B55403  15.908  36.183  20.199  0.4368  0.0795  0.2143
 2795DPPE   C4B55404  15.827  36.188  20.595 -0.0738 -0.0645 -0.0099
 2796DPPE   NH355405   1.330   4.296  14.994  0.2466  0.0591 -0.1969
 2796DPPE   PO455406   1.298   3.936  15.134  0.0715 -0.1267 -0.0836
 2796DPPE   GL155407   1.684   4.003  15.167  0.0115 -0.0692 -0.1185
 2796DPPE   GL255408   1.823   4.242  15.345 -0.0926 -0.1013  0.1585
 2796DPPE   C1A55409   2.138   4.006  15.020 -0.2989 -0.0142  0.0970
 2796DPPE   C2A55410   2.452   3.807  15.178  0.1004 -0.1372 -0.1337
 2796DPPE   C3A55411   2.831   3.675  15.268 -0.0370 -0.1966  0.1541
 2796DPPE   C4A55412   3.214   3.465  15.316 -0.0931 -0.0518  0.0261
 2796DPPE   C1B55413   1.966   4.530  15.019  0.1694  0.1639  0.2351
 2796DPPE   C2B55414   2.155   4.899  14.919 -0.1852 -0.2505  0.2295
 2796DPPE   C3B55415   2.559   4.892  14.648 -0.0878 -0.1933  0.0682
 2796DPPE   C4B55416   2.659   4.444  14.439 -0.1464 -0.3787 -0.2189
 2797DPPE   NH355417  17.011  34.200  17.678 -0.0026 -0.1264  0.1489
 2797DPPE   PO455418  16.698  34.352  17.955 -0.1734  0.2931  0.0998
 2797DPPE   GL155419  16.835  34.663  17.855 -0.1361  0.0905 -0.5057
 2797DPPE   GL255420  17.064  34.879  18.133  0.2445 -0.2753  0.1515
 2797DPPE   C1A55421  16.790  35.048  17.737 -0.0348  0.1210 -0.0866
 2797DPPE   C2A55422  16.638  35.503  17.638  0.3307 -0.1024  0.2748
 2797DPPE   C3A55423  16.623  35.856  17.278 -0.0483 -0.0834 -0.2169
 2797DPPE   C4A55424  16.739  36.381  17.272  0.1494  0.0780  0.2788
 2797DPPE   C1B55425  17.007  35.253  18.424  0.2056  0.0144 -0.1426
 2797DPPE   C2B55426  16.674  35.567  18.266  0.2759  0.0639  0.1744
 2797DPPE   C3B55427  16.459  35.963  18.285  0.4080  0.0893  0.1264
 2797DPPE   C4B55428  16.425  36.105  18.750  0.1051 -0.2400 -0.1229
 2798DPPE   NH355429  21.440   2.181   7.170  0.3179 -0.0192  0.1752
 2798DPPE   PO455430  21.135   2.433   6.975 -0.4317  0.2097  0.0782
 2798DPPE   GL155431  21.146   2.859   6.883 -0.0522  0.1317 -0.3756
 2798DPPE   GL255432  20.869   2.881   6.764 -0.3333 -0.1311  0.1114
 2798DPPE   C1A55433  21.183   3.362   6.940  0.0864 -0.1541 -0.0721
 2798DPPE   C2A55434  20.841   3.548   7.288  0.2606  0.1089 -0.1447
 2798DPPE   C3A55435  20.383   3.567   7.381  0.2043 -0.0247 -0.2138
 2798DPPE   C4A55436  20.112   3.768   7.632 -0.2323 -0.0123 -0.2086
 2798DPPE   C1B55437  20.673   3.302   6.822  0.2469 -0.4107  0.2127
 2798DPPE   C2B55438  20.536   3.666   6.865  0.1573 -0.2330 -0.0216
 2798DPPE   C3B55439  20.389   4.064   6.720 -0.4906 -0.0951  0.0655
 2798DPPE   C4B55440  20.078   4.320   6.835  0.1170  0.0839 -0.3521
 2799DPPE   NH355441   2.817   7.357   8.081  0.1361 -0.0635 -0.1286
 2799DPPE   PO455442   2.674   7.609   8.314 -0.0557 -0.1180  0.0554
 2799DPPE   GL155443   3.112   7.823   8.316  0.0144 -0.2474  0.0839
 2799DPPE   GL255444   3.188   7.784   7.980 -0.1851  0.0462 -0.0068
 2799DPPE   C1A55445   3.514   7.971   8.432 -0.0278  0.2865  0.0220
 2799DPPE   C2A55446   3.992   8.000   8.700  0.2350  0.0403 -0.3594
 2799DPPE   C3A55447   4.273   7.981   8.995  0.1025 -0.2360 -0.0764
 2799DPPE   C4A55448   4.557   8.164   9.314 -0.1608  0.3469  0.0647
 2799DPPE   C1B55449   3.596   7.748   8.010  0.0932 -0.2037  0.0060
 2799DPPE   C2B55450   4.011   7.736   8.275 -0.1519 -0.0908  0.0613
 2799DPPE   C3B55451   4.380   7.784   8.526 -0.1460 -0.0831 -0.1832
 2799DPPE   C4B55452   4.727   7.836   8.740  0.1646  0.2924  0.1124
 2800DPPE   NH355453  23.793  20.387  13.893 -0.2315 -0.1814  0.2790
 2800DPPE   PO455454  23.783  19.977  13.720  0.2000  0.0689  0.1963
 2800DPPE   GL155455  23.598  19.651  13.964  0.0125  0.1817 -0.3129
 2800DPPE   GL255456  23.858  19.688  14.102  0.0456  0.0088  0.0023
 2800DPPE   C1A55457  23.405  19.378  14.257  0.1253 -0.1060 -0.0958
 2800DPPE   C2A55458  23.215  18.917  14.319  0.4287 -0.0835  0.2173
 2800DPPE   C3A55459  23.197  18.557  14.557  0.3546 -0.1649 -0.1225
 2800DPPE   C4A55460  23.155  18.124  14.796  0.1341 -0.0007 -0.3593
 2800DPPE   C1B55461  23.851  19.229  14.049  0.3704  0.0254 -0.2652
 2800DPPE   C2B55462  24.147  18.895  14.262 -0.1908 -0.2269 -0.2511
 2800DPPE   C3B55463  24.196  18.444  14.117  0.1470 -0.0754  0.1380
 2800DPPE   C4B55464  23.981  18.172  14.026  0.0598 -0.0095  0.1365
 2801DPPE   NH355465   4.679   2.308   8.426  0.3141  0.2142  0.0243
 2801DPPE   PO455466   4.960   2.208   8.086  0.0001  0.1034  0.0935
 2801DPPE   GL155467   5.196   2.504   8.470 -0.2998 -0.1218 -0.0246
 2801DPPE   GL255468   4.963   2.611   8.703 -0.0585 -0.0807  0.0345
 2801DPPE   C1A55469   5.522   2.596   8.860  0.2307  0.0301  0.1665
 2801DPPE   C2A55470   5.825   2.353   9.035 -0.1994  0.0742  0.2949
 2801DPPE   C3A55471   6.073   1.941   9.292  0.2139  0.0874 -0.3494
 2801DPPE   C4A55472   6.098   1.510   9.598  0.1283 -0.2874  0.2213
 2801DPPE   C1B55473   5.222   2.969   8.460 -0.2243 -0.3870  0.1053
 2801DPPE   C2B55474   5.190   3.251   8.114 -0.1342  0.1885 -0.2403
 2801DPPE   C3B55475   5.536   3.565   7.989  0.0118  0.1043  0.3112
 2801DPPE   C4B55476   5.795   3.919   7.990  0.0052 -0.0883  0.0794
 2802DPPE   NH355477  27.383   9.107  10.800 -0.0515 -0.0850  0.0986
 2802DPPE   PO455478  27.585   9.426  11.070  0.2337  0.0938 -0.0568
 2802DPPE   GL155479  27.185   9.416  11.291 -0.7657 -0.0384 -0.2371
 2802DPPE   GL255480  27.028   9.775  11.249  0.1393  0.2328  0.1402
 2802DPPE   C1A55481  26.999   8.994  11.470  0.1130 -0.0807  0.0984
 2802DPPE   C2A55482  26.678   8.708  11.650 -0.1415  0.2125  0.1093
 2802DPPE   C3A55483  26.210   8.758  11.713  0.0242  0.0517 -0.1985
 2802DPPE   C4A55484  25.919   8.484  11.938 -0.0215 -0.1426  0.0062
 2802DPPE   C1B55485  26.578   9.843  11.222  0.2870  0.0773 -0.1628
 2802DPPE   C2B55486  26.096   9.935  11.213 -0.0676  0.0744 -0.0279
 2802DPPE   C3B55487  25.717  10.032  11.129  0.3558  0.2026 -0.0663
 2802DPPE   C4B55488  25.417   9.940  10.760 -0.1856  0.1113  0.0695
 2803DPPE   NH355489  19.599  34.630   9.429  0.0240 -0.1578 -0.2073
 2803DPPE   PO455490  19.562  34.606   8.877  0.5271  0.0217 -0.0014
 2803DPPE   GL155491  19.326  34.867   8.755  0.1426 -0.0688 -0.1804
 2803DPPE   GL255492  19.348  35.237   8.904  0.1907  0.0044  0.0389
 2803DPPE   C1A55493  18.879  34.920   8.768 -0.0028  0.2796  0.0047
 2803DPPE   C2A55494  18.371  34.877   8.896 -0.0291  0.1056  0.3434
 2803DPPE   C3A55495  18.016  35.056   8.906 -0.0878  0.3879  0.0556
 2803DPPE   C4A55496  17.757  35.385   8.975  0.1225 -0.0340  0.2586
 2803DPPE   C1B55497  19.287  35.604   9.070  0.0842  0.1152  0.2890
 2803DPPE   C2B55498  18.879  35.790   9.212 -0.0229  0.0657  0.1327
 2803DPPE   C3B55499  18.447  35.903   9.219  0.1408 -0.3506 -0.1296
 2803DPPE   C4B55500  18.319  36.331   9.352  0.3465 -0.0809  0.0229
 2804DPPE   NH355501  18.402  17.745   6.055 -0.1439  0.0079  0.3401
 2804DPPE   PO455502  18.043  17.544   6.032 -0.0298  0.1376  0.2247
 2804DPPE   GL155503  17.683  17.299   6.123 -0.0227 -0.0174 -0.2664
 2804DPPE   GL255504  17.856  17.141   6.278 -0.2706  0.2146 -0.1739
 2804DPPE   C1A55505  17.459  16.922   6.126  0.1811  0.0046  0.1742
 2804DPPE   C2A55506  17.411  16.519   6.286 -0.5696 -0.3497  0.2117
 2804DPPE   C3A55507  17.358  16.044   6.245  0.1386  0.1184 -0.1405
 2804DPPE   C4A55508  17.510  15.612   6.237  0.1410 -0.1548  0.0825
 2804DPPE   C1B55509  17.978  17.148   6.678 -0.0630  0.0378 -0.5507
 2804DPPE   C2B55510  17.962  16.737   6.959 -0.1408 -0.1609  0.1005
 2804DPPE   C3B55511  18.053  16.483   7.250 -0.4617  0.0519 -0.1907
 2804DPPE   C4B55512  17.869  16.147   7.389  0.0571  0.0207  0.0404
 2805DPPE   NH355513  12.273  35.822  20.897  0.0510 -0.0154 -0.0019
 2805DPPE   PO455514  12.069  36.116  21.212  0.0296 -0.2562  0.0832
 2805DPPE   GL155515  12.252  36.340  20.815  0.0928  0.3197 -0.0172
 2805DPPE   GL255516  12.226  36.627  21.026 -0.1373  0.0685 -0.0543
 2805DPPE   C1A55517  12.407  36.590  20.586  0.0518  0.2604 -0.1026
 2805DPPE   C2A55518  12.678  36.911  20.427  0.0062 -0.2667  0.0616
 2805DPPE   C3A55519  12.859  37.278  20.341 -0.1505 -0.0547 -0.0347
 2805DPPE   C4A55520  12.820  37.670  20.200 -0.2906 -0.1790  0.1266
 2805DPPE   C1B55521  12.240  37.053  20.840 -0.2311 -0.1897 -0.1582
 2805DPPE   C2B55522  12.312  37.323  20.498 -0.2385  0.1331  0.4566
 2805DPPE   C3B55523  12.352  37.672  20.276 -0.2406 -0.3862  0.1640
 2805DPPE   C4B55524  12.412  38.052  19.961 -0.1690 -0.1668 -0.0655
 2806DPPE   NH355525   5.950  14.585  20.395  0.2142 -0.0836  0.0181
 2806DPPE   PO455526   6.156  14.584  20.812  0.2265 -0.1778  0.0587
 2806DPPE   GL155527   6.380  14.292  20.654 -0.2384  0.1064 -0.0988
 2806DPPE   GL255528   6.276  14.070  20.535 -0.0356 -0.0997 -0.0152
 2806DPPE   C1A55529   6.790  14.131  20.562  0.1341 -0.2202  0.0765
 2806DPPE   C2A55530   7.087  13.946  20.336 -0.0316 -0.2519  0.2181
 2806DPPE   C3A55531   7.469  13.711  20.317 -0.0699  0.0469  0.0571
 2806DPPE   C4A55532   7.717  14.057  20.130 -0.3605 -0.1534  0.1559
 2806DPPE   C1B55533   6.558  13.710  20.455 -0.1504 -0.0000  0.1194
 2806DPPE   C2B55534   6.844  13.397  20.569  0.0827 -0.2519  0.0855
 2806DPPE   C3B55535   7.253  13.297  20.369  0.0050 -0.0493 -0.2467
 2806DPPE   C4B55536   7.552  13.153  20.094  0.1092 -0.4281  0.0670
 2807DPPE   NH355537   1.447  11.585  11.586  0.1313 -0.2959  0.1746
 2807DPPE   PO455538   1.676  11.385  11.271 -0.2142  0.1702  0.1186
 2807DPPE   GL155539   2.033  11.193  11.329 -0.5280  0.0244  0.0892
 2807DPPE   GL255540   1.963  10.911  11.257 -0.3213 -0.1286  0.1828
 2807DPPE   C1A55541   2.510  11.054  11.274  0.2187 -0.0050  0.1864
 2807DPPE   C2A55542   2.963  11.133  11.597  0.1498  0.0423  0.1527
 2807DPPE   C3A55543   3.367  10.953  11.754 -0.2017  0.0476 -0.0115
 2807DPPE   C4A55544   3.797  10.722  11.685 -0.1511 -0.0018  0.0083
 2807DPPE   C1B55545   2.340  10.637  11.028 -0.2577  0.3445 -0.2142
 2807DPPE   C2B55546   2.567  10.252  10.991 -0.1486 -0.0973  0.1393
 2807DPPE   C3B55547   2.836   9.989  10.641  0.3628  0.1741 -0.2839
 2807DPPE   C4B55548   2.813   9.846  10.314 -0.2805 -0.0851  0.2354
 2808DPPE   NH355549  17.925  20.494  23.518  0.1499 -0.1925  0.0748
 2808DPPE   PO455550  17.589  20.646  23.736  0.1399 -0.4157 -0.1696
 2808DPPE   GL155551  17.342  20.431  23.402  0.2605  0.4277 -0.0945
 2808DPPE   GL255552  17.287  20.013  23.566  0.3000  0.2550  0.1934
 2808DPPE   C1A55553  17.219  20.164  23.020  0.0735  0.1408  0.1569
 2808DPPE   C2A55554  16.950  19.811  22.777  0.2830  0.0471  0.1580
 2808DPPE   C3A55555  16.724  19.530  22.622 -0.2102 -0.0801 -0.0660
 2808DPPE   C4A55556  16.683  19.189  22.460  0.4287 -0.2133  0.1133
 2808DPPE   C1B55557  16.987  19.784  23.316  0.1059  0.2545 -0.0972
 2808DPPE   C2B55558  16.712  19.342  23.094  0.2200 -0.3292  0.2800
 2808DPPE   C3B55559  16.746  18.875  23.331 -0.0067  0.0562  0.0858
 2808DPPE   C4B55560  16.661  18.502  23.152 -0.0764  0.0213 -0.1969
 2809DPPE   NH355561  21.088   3.295   5.696 -0.2307  0.1080  0.2748
 2809DPPE   PO455562  21.172   2.913   5.920 -0.1273  0.1975  0.0717
 2809DPPE   GL155563  20.841   3.101   6.205 -0.2007  0.3510 -0.2983
 2809DPPE   GL255564  20.934   3.304   6.384  0.2581 -0.5986 -0.1969
 2809DPPE   C1A55565  20.428   2.981   6.438  0.0877  0.0504 -0.0636
 2809DPPE   C2A55566  20.074   2.898   6.734  0.0955 -0.0178  0.2115
 2809DPPE   C3A55567  19.777   2.586   6.722 -0.0925  0.0390  0.2317
 2809DPPE   C4A55568  19.345   2.352   6.657 -0.0674  0.1734 -0.5075
 2809DPPE   C1B55569  20.910   3.670   6.581 -0.0865 -0.0176 -0.1851
 2809DPPE   C2B55570  20.888   4.017   6.903  0.0246 -0.1093 -0.1562
 2809DPPE   C3B55571  20.825   4.322   7.239  0.1277 -0.5581 -0.1850
 2809DPPE   C4B55572  20.515   4.412   7.631 -0.1969 -0.0548  0.2045
 2810DPPE   NH355573   7.558  33.019  14.389  0.1124 -0.0530  0.0013
 2810DPPE   PO455574   7.935  32.994  14.749  0.2119 -0.0240  0.1178
 2810DPPE   GL155575   7.996  33.440  14.526 -0.0126  0.1423 -0.3740
 2810DPPE   GL255576   7.649  33.592  14.529  0.4124 -0.1655 -0.4077
 2810DPPE   C1A55577   8.200  33.816  14.560  0.0464 -0.2237 -0.2604
 2810DPPE   C2A55578   8.531  34.092  14.347  0.1654  0.0509  0.0574
 2810DPPE   C3A55579   8.941  34.276  14.308 -0.2526 -0.3247 -0.0258
 2810DPPE   C4A55580   9.147  34.406  13.934  0.4925 -0.0600  0.3718
 2810DPPE   C1B55581   7.799  34.038  14.328  0.1661 -0.1224 -0.1153
 2810DPPE   C2B55582   8.142  34.402  14.345 -0.1984  0.1185  0.0081
 2810DPPE   C3B55583   8.233  34.833  14.181  0.0764 -0.1195 -0.0408
 2810DPPE   C4B55584   8.150  35.200  14.025 -0.0851  0.0721  0.0913
 2811DPPE   NH355585  19.196  35.400  20.218 -0.0672  0.1572 -0.0657
 2811DPPE   PO455586  19.572  35.561  20.358  0.0237  0.0333 -0.1595
 2811DPPE   GL155587  19.342  35.869  20.388 -0.2152 -0.2202  0.1607
 2811DPPE   GL255588  19.006  35.890  20.432 -0.1149  0.1681 -0.0645
 2811DPPE   C1A55589  19.254  36.190  20.131 -0.1971 -0.1318 -0.0818
 2811DPPE   C2A55590  19.169  36.622  19.956 -0.0741 -0.0566  0.2169
 2811DPPE   C3A55591  18.984  36.551  19.511  0.0726 -0.0492 -0.1992
 2811DPPE   C4A55592  18.728  36.606  19.135 -0.4671  0.2197 -0.0457
 2811DPPE   C1B55593  18.770  36.147  20.096  0.1380 -0.0280  0.1695
 2811DPPE   C2B55594  18.690  36.568  19.970 -0.1917 -0.0971  0.0877
 2811DPPE   C3B55595  18.833  36.977  19.753  0.1663  0.0394  0.0861
 2811DPPE   C4B55596  18.837  37.367  19.989  0.1591 -0.1546 -0.0966
 2812DPPE   NH355597  26.688  16.139  11.450  0.0525  0.3429 -0.1857
 2812DPPE   PO455598  26.432  16.154  11.213 -0.0738  0.2204 -0.1047
 2812DPPE   GL155599  26.077  15.870  11.312 -0.3321  0.1757 -0.0216
 2812DPPE   GL255600  26.256  15.885  11.562  0.2513  0.1033  0.1462
 2812DPPE   C1A55601  25.681  15.657  11.374 -0.0093 -0.0404 -0.3655
 2812DPPE   C2A55602  25.539  15.274  11.496  0.0290 -0.2906  0.0415
 2812DPPE   C3A55603  25.417  14.954  11.748 -0.0865 -0.1929 -0.0655
 2812DPPE   C4A55604  25.504  14.554  11.774 -0.1612  0.0585  0.1589
 2812DPPE   C1B55605  25.937  15.982  11.807  0.0926 -0.1801  0.1565
 2812DPPE   C2B55606  25.635  16.170  12.196  0.0969  0.0668  0.0252
 2812DPPE   C3B55607  25.309  16.276  12.524 -0.1968 -0.1781 -0.1415
 2812DPPE   C4B55608  25.037  16.125  12.876 -0.1490  0.1773 -0.1245
 2813DPPE   NH355609   4.714  35.830  13.060  0.0776 -0.0332  0.1076
 2813DPPE   PO455610   4.578  35.662  13.466  0.0305 -0.1043 -0.1272
 2813DPPE   GL155611   4.817  36.021  13.555  0.2039 -0.1400  0.0529
 2813DPPE   GL255612   4.824  36.248  13.289  0.0917 -0.1407 -0.0399
 2813DPPE   C1A55613   5.042  36.398  13.723  0.0973  0.1952 -0.2481
 2813DPPE   C2A55614   5.314  36.833  13.627  0.2413  0.3596  0.2836
 2813DPPE   C3A55615   5.647  37.110  13.692 -0.0137  0.0132  0.4076
 2813DPPE   C4A55616   5.916  37.355  13.732 -0.0183 -0.2240 -0.0707
 2813DPPE   C1B55617   5.146  36.472  13.055 -0.0517  0.1804  0.2397
 2813DPPE   C2B55618   5.526  36.507  12.978  0.0834 -0.1980 -0.2153
 2813DPPE   C3B55619   5.970  36.483  12.873 -0.2079  0.2097 -0.1330
 2813DPPE   C4B55620   6.336  36.480  12.958 -0.1240 -0.1289  0.0343
 2814DPPE   NH355621  10.161   2.263   9.358  0.2043 -0.0598  0.0380
 2814DPPE   PO455622   9.917   2.561   9.499 -0.2134 -0.0235 -0.3107
 2814DPPE   GL155623   9.678   2.260   9.263 -0.1821 -0.0532  0.1254
 2814DPPE   GL255624   9.621   2.022   9.362 -0.0764 -0.0388 -0.1242
 2814DPPE   C1A55625   9.335   2.234   9.014  0.0411 -0.0802  0.0962
 2814DPPE   C2A55626   9.174   2.185   8.595 -0.1091 -0.3525 -0.0319
 2814DPPE   C3A55627   8.969   2.018   8.201  0.0315  0.2288 -0.1426
 2814DPPE   C4A55628   9.061   1.731   7.810  0.1097  0.0348 -0.1501
 2814DPPE   C1B55629   9.465   1.692   9.040  0.2397 -0.0551  0.1164
 2814DPPE   C2B55630   9.354   1.385   8.766  0.1565 -0.0665 -0.0108
 2814DPPE   C3B55631   9.382   1.019   8.416 -0.1637  0.0687 -0.0963
 2814DPPE   C4B55632   9.244   0.839   8.033  0.0790  0.0565 -0.0445
 2815DPPE   NH355633   9.347  36.063  13.972 -0.2519  0.0319 -0.1500
 2815DPPE   PO455634   9.254  36.243  13.637 -0.0023 -0.3163 -0.1904
 2815DPPE   GL155635   9.110  35.873  13.584 -0.1064  0.0500  0.0577
 2815DPPE   GL255636   9.264  35.584  13.743  0.1412  0.0442 -0.2257
 2815DPPE   C1A55637   8.738  35.680  13.698  0.4421  0.1970 -0.0029
 2815DPPE   C2A55638   8.444  35.322  13.568 -0.0177 -0.0577  0.1823
 2815DPPE   C3A55639   8.238  34.969  13.479  0.4022 -0.0799  0.1590
 2815DPPE   C4A55640   8.131  34.803  13.064 -0.3349  0.0631 -0.0870
 2815DPPE   C1B55641   9.295  35.346  14.078  0.1205  0.0885  0.1718
 2815DPPE   C2B55642   9.448  35.005  14.508  0.0027  0.0320  0.0273
 2815DPPE   C3B55643   9.485  34.664  14.531  0.1206  0.1441 -0.2282
 2815DPPE   C4B55644   9.351  34.344  14.662 -0.2674  0.1506  0.0107
 2816DPPE   NH355645  10.861   1.750   9.330  0.2568 -0.0509 -0.1012
 2816DPPE   PO455646  10.648   2.169   9.247  0.3402  0.2921  0.0380
 2816DPPE   GL155647  10.475   1.851   9.037  0.0026  0.0619  0.0647
 2816DPPE   GL255648  10.571   1.868   8.745 -0.1289  0.1534 -0.1372
 2816DPPE   C1A55649  10.159   1.699   8.982  0.2558  0.0139 -0.0847
 2816DPPE   C2A55650   9.884   1.370   8.872 -0.1236  0.0179 -0.0562
 2816DPPE   C3A55651   9.690   0.973   8.809  0.0127  0.1661 -0.0849
 2816DPPE   C4A55652   9.675   0.573   8.705 -0.1056  0.2416  0.2584
 2816DPPE   C1B55653  10.217   1.931   8.480 -0.1414 -0.1851  0.1889
 2816DPPE   C2B55654   9.924   1.858   8.080  0.0993 -0.0664 -0.0789
 2816DPPE   C3B55655   9.605   1.636   7.942  0.1419  0.2866 -0.2285
 2816DPPE   C4B55656   9.341   1.393   7.960  0.2205  0.1317  0.0055
 2817DPPE   NH355657   7.652   2.145  11.956  0.0137 -0.1324 -0.1628
 2817DPPE   PO455658   7.599   2.529  11.754 -0.1083  0.2410  0.4445
 2817DPPE   GL155659   7.256   2.520  11.813 -0.0127  0.2708 -0.1450
 2817DPPE   GL255660   7.078   2.846  11.617  0.0941 -0.0005 -0.0568
 2817DPPE   C1A55661   6.947   2.091  11.718  0.2052 -0.0322  0.1958
 2817DPPE   C2A55662   6.625   1.731  11.666 -0.2580  0.1966  0.1236
 2817DPPE   C3A55663   6.292   1.455  11.409  0.1791 -0.0365  0.4290
 2817DPPE   C4A55664   6.102   1.045  11.596 -0.0773  0.0335  0.0045
 2817DPPE   C1B55665   6.644   2.604  11.564  0.0039 -0.0006  0.0907
 2817DPPE   C2B55666   6.295   2.477  11.326 -0.3094 -0.3334 -0.3424
 2817DPPE   C3B55667   6.074   2.184  11.131  0.2026  0.0526  0.2799
 2817DPPE   C4B55668   6.113   1.829  10.839  0.0795 -0.1642 -0.0866
 2818DPPE   NH355669  15.375   2.727   6.105 -0.1804 -0.3242  0.0044
 2818DPPE   PO455670  15.733   2.531   6.389 -0.0299 -0.1735  0.3855
 2818DPPE   GL155671  15.597   2.123   6.185 -0.1469  0.1481  0.0893
 2818DPPE   GL255672  15.511   2.274   5.871 -0.0237 -0.2352  0.0722
 2818DPPE   C1A55673  15.704   1.788   5.898 -0.2082  0.1237 -0.0801
 2818DPPE   C2A55674  15.902   1.741   5.480 -0.3050 -0.1983 -0.0560
 2818DPPE   C3A55675  15.970   1.566   5.069  0.0166  0.1975  0.3877
 2818DPPE   C4A55676  16.183   1.822   4.667 -0.0261 -0.1645 -0.1312
 2818DPPE   C1B55677  15.072   2.161   5.657 -0.0365 -0.1170 -0.1556
 2818DPPE   C2B55678  14.991   1.806   5.452 -0.2801 -0.2411 -0.2976
 2818DPPE   C3B55679  14.941   1.259   5.415  0.0746 -0.3875  0.3605
 2818DPPE   C4B55680  14.893   0.769   5.470 -0.1259  0.2995  0.3735
 2819DPPE   NH355681   9.219   6.415   7.771 -0.1045 -0.1391  0.0429
 2819DPPE   PO455682   9.061   5.990   7.665  0.2541 -0.2121 -0.2518
 2819DPPE   GL155683   9.083   5.711   7.310 -0.3027 -0.0754  0.4069
 2819DPPE   GL255684   9.154   5.815   6.979  0.0139  0.1955  0.0453
 2819DPPE   C1A55685   9.182   5.333   6.925  0.1937  0.0482 -0.2140
 2819DPPE   C2A55686   8.957   5.121   6.639  0.1872  0.1848  0.1581
 2819DPPE   C3A55687   8.464   5.140   6.506 -0.0538  0.0542  0.2153
 2819DPPE   C4A55688   8.198   4.891   6.574  0.2675 -0.1347  0.1293
 2819DPPE   C1B55689   8.770   5.637   6.879  0.0231 -0.0221  0.2678
 2819DPPE   C2B55690   8.508   5.616   6.371 -0.0797 -0.0221 -0.0340
 2819DPPE   C3B55691   8.321   5.653   5.978 -0.3697  0.0826  0.0976
 2819DPPE   C4B55692   8.296   5.739   5.570 -0.0381  0.1714  0.1081
 2820DPPE   NH355693   7.781   8.796   9.375 -0.4018 -0.1787 -0.1673
 2820DPPE   PO455694   8.040   9.065   9.226  0.0750  0.1500 -0.1385
 2820DPPE   GL155695   8.115   9.067   9.612 -0.1181 -0.0694  0.2566
 2820DPPE   GL255696   8.209   9.343   9.612  0.2452  0.3446  0.2490
 2820DPPE   C1A55697   8.281   8.940   9.972 -0.0795  0.3376 -0.0734
 2820DPPE   C2A55698   8.607   8.869  10.242  0.0303  0.0575  0.0952
 2820DPPE   C3A55699   8.937   8.908  10.520 -0.1573  0.3363  0.4261
 2820DPPE   C4A55700   9.229   8.745  10.804 -0.1102 -0.1651  0.0141
 2820DPPE   C1B55701   8.603   9.237   9.819  0.3016 -0.0870 -0.1966
 2820DPPE   C2B55702   8.954   9.343   9.937  0.0796 -0.1602  0.0121
 2820DPPE   C3B55703   9.323   9.582  10.028  0.0476 -0.3018  0.0490
 2820DPPE   C4B55704   9.731   9.873  10.197 -0.0096 -0.0812  0.1280
 2821DPPE   NH355705   7.917   3.450  10.352  0.1803  0.0253 -0.0163
 2821DPPE   PO455706   7.479   3.534  10.504 -0.0452 -0.3216 -0.1046
 2821DPPE   GL155707   7.328   3.191  10.306 -0.0466 -0.0740  0.0319
 2821DPPE   GL255708   7.390   2.880  10.552 -0.0833 -0.0912  0.1245
 2821DPPE   C1A55709   6.922   2.998  10.252  0.0882  0.2529 -0.1416
 2821DPPE   C2A55710   6.545   3.036  10.131  0.0919 -0.0259  0.1531
 2821DPPE   C3A55711   6.523   2.672   9.818 -0.3041  0.0045  0.1766
 2821DPPE   C4A55712   6.172   2.596   9.562  0.3362  0.2354 -0.2838
 2821DPPE   C1B55713   7.215   2.578  10.352  0.3265  0.1471 -0.1993
 2821DPPE   C2B55714   7.226   2.247  10.276 -0.0845 -0.2304  0.0889
 2821DPPE   C3B55715   7.433   1.971   9.979  0.0915  0.1484 -0.2733
 2821DPPE   C4B55716   7.293   1.525   9.863 -0.0073  0.1521 -0.0636
 2822DPPE   NH355717   7.750   7.752   7.737 -0.0302  0.2497 -0.1891
 2822DPPE   PO455718   8.067   7.583   7.479 -0.2808 -0.3894 -0.4611
 2822DPPE   GL155719   7.897   7.314   7.330  0.1009 -0.1394  0.1643
 2822DPPE   GL255720   7.778   7.111   7.005 -0.1409 -0.1068 -0.0540
 2822DPPE   C1A55721   7.427   7.405   7.132 -0.0198  0.1173 -0.0355
 2822DPPE   C2A55722   7.184   7.750   6.913 -0.2388  0.2474  0.0557
 2822DPPE   C3A55723   7.000   7.787   6.433 -0.4390  0.0512 -0.3208
 2822DPPE   C4A55724   7.055   7.706   5.941 -0.0301 -0.1117 -0.1742
 2822DPPE   C1B55725   7.547   7.137   6.718 -0.3533 -0.2395 -0.0490
 2822DPPE   C2B55726   7.205   7.315   6.502  0.0277 -0.2185 -0.1035
 2822DPPE   C3B55727   6.885   7.153   6.311 -0.1488  0.0196 -0.0698
 2822DPPE   C4B55728   6.724   6.949   5.938 -0.2028 -0.4011  0.4577
 2823DPPE   NH355729  14.362   4.571   6.871 -0.2907  0.0947  0.3028
 2823DPPE   PO455730  14.040   4.527   7.178  0.1397  0.1289 -0.1849
 2823DPPE   GL155731  13.807   4.957   7.412 -0.1430  0.3845 -0.0957
 2823DPPE   GL255732  13.507   5.068   7.609 -0.2121  0.0055  0.3019
 2823DPPE   C1A55733  13.853   5.182   7.917 -0.1978  0.1148 -0.0218
 2823DPPE   C2A55734  14.130   5.139   8.341 -0.1892 -0.0155 -0.1085
 2823DPPE   C3A55735  14.493   5.230   8.423 -0.0433  0.0131 -0.1045
 2823DPPE   C4A55736  14.524   5.681   8.521  0.1578 -0.3530 -0.0736
 2823DPPE   C1B55737  13.315   5.010   7.929 -0.2650 -0.0914 -0.1057
 2823DPPE   C2B55738  13.199   5.156   8.460 -0.0183  0.1365  0.3541
 2823DPPE   C3B55739  13.128   5.238   8.924 -0.1467 -0.3124 -0.2115
 2823DPPE   C4B55740  13.127   5.574   9.233 -0.1077  0.1214 -0.1047
 2824DPPE   NH355741  15.081  35.343  11.918  0.1149 -0.1108 -0.0822
 2824DPPE   PO455742  15.023  35.425  12.233 -0.0539  0.0712 -0.1448
 2824DPPE   GL155743  15.195  35.472  12.546 -0.2136  0.0745 -0.1311
 2824DPPE   GL255744  15.560  35.404  12.593 -0.3948  0.0064 -0.0648
 2824DPPE   C1A55745  15.349  35.822  12.755 -0.2033 -0.2211  0.3880
 2824DPPE   C2A55746  15.582  36.002  13.088  0.2015  0.1394  0.4493
 2824DPPE   C3A55747  15.936  35.822  13.192  0.1592 -0.2381  0.0167
 2824DPPE   C4A55748  16.156  35.910  13.614 -0.0108  0.0537  0.0250
 2824DPPE   C1B55749  15.860  35.554  12.765  0.0947  0.2039  0.0705
 2824DPPE   C2B55750  16.291  35.535  12.964 -0.1702 -0.0265  0.2184
 2824DPPE   C3B55751  16.484  35.840  13.244  0.0117  0.1716 -0.0890
 2824DPPE   C4B55752  16.988  36.013  13.229 -0.2076  0.1687  0.1554
 2825DPPE   NH355753  16.944   4.223   6.627 -0.3384 -0.2152  0.0026
 2825DPPE   PO455754  17.238   4.146   6.810  0.1444 -0.0869  0.0206
 2825DPPE   GL155755  17.470   4.289   7.038  0.0398  0.0076 -0.0832
 2825DPPE   GL255756  17.880   4.198   7.022 -0.4633 -0.1476  0.2312
 2825DPPE   C1A55757  17.859   4.414   7.463  0.1446  0.1416  0.2475
 2825DPPE   C2A55758  18.059   4.499   7.689 -0.2681  0.2650  0.1703
 2825DPPE   C3A55759  18.514   4.313   7.788 -0.1125 -0.0366  0.2256
 2825DPPE   C4A55760  18.958   4.079   7.923 -0.0984  0.0986 -0.1893
 2825DPPE   C1B55761  18.225   4.112   7.247 -0.0891 -0.1996 -0.1696
 2825DPPE   C2B55762  18.692   3.973   7.312 -0.2555  0.1711 -0.1075
 2825DPPE   C3B55763  18.947   4.197   7.467 -0.0123 -0.0260  0.2309
 2825DPPE   C4B55764  19.149   4.541   7.746 -0.0244  0.0158  0.1132
 2826DPPE   NH355765   5.774   7.412  14.523 -0.1288  0.2329  0.1111
 2826DPPE   PO455766   6.096   7.379  14.187 -0.1513 -0.0557  0.0861
 2826DPPE   GL155767   6.341   7.458  14.425 -0.3364  0.0792  0.2751
 2826DPPE   GL255768   6.252   7.333  14.799 -0.1007 -0.0088  0.1967
 2826DPPE   C1A55769   6.592   7.711  14.690  0.0370 -0.0181  0.0622
 2826DPPE   C2A55770   6.928   8.111  14.800 -0.1591  0.3497  0.1027
 2826DPPE   C3A55771   7.289   8.161  14.855 -0.1722 -0.2813 -0.4183
 2826DPPE   C4A55772   7.636   8.358  15.136  0.0089  0.0326 -0.0887
 2826DPPE   C1B55773   6.558   7.434  15.090  0.0783  0.1495  0.0490
 2826DPPE   C2B55774   6.958   7.668  15.190 -0.2629 -0.0952 -0.0415
 2826DPPE   C3B55775   7.139   8.038  15.389 -0.1534 -0.2398 -0.1832
 2826DPPE   C4B55776   7.331   7.960  15.774  0.2045 -0.0717 -0.0380
 2827DPPE   NH355777   9.182   6.162   9.369  0.2399  0.1000 -0.0009
 2827DPPE   PO455778   9.073   6.248   8.935  0.1244  0.0811 -0.2175
 2827DPPE   GL155779   9.523   6.317   8.957 -0.1588  0.0165  0.3137
 2827DPPE   GL255780   9.585   6.324   8.708  0.2206  0.1850 -0.0032
 2827DPPE   C1A55781   9.673   6.694   9.195  0.0880 -0.1893  0.0920
 2827DPPE   C2A55782   9.842   6.819   9.570  0.2589  0.3152  0.3399
 2827DPPE   C3A55783   9.841   7.231   9.791 -0.0632  0.1102  0.1606
 2827DPPE   C4A55784  10.122   7.394  10.104  0.1873  0.2509  0.4780
 2827DPPE   C1B55785  10.048   6.333   9.079 -0.1616 -0.1578  0.7499
 2827DPPE   C2B55786  10.273   6.569   9.311  0.1580 -0.3007  0.0182
 2827DPPE   C3B55787  10.388   6.893   9.513 -0.0492 -0.1238  0.1675
 2827DPPE   C4B55788  10.461   7.145   9.799  0.0282  0.0029 -0.2329
 2828DPPE   NH355789   8.023   1.581  12.399  0.3596  0.0258  0.0758
 2828DPPE   PO455790   8.253   1.200  12.275 -0.0440  0.0474  0.1834
 2828DPPE   GL155791   8.247   1.065  11.836 -0.1134  0.1631 -0.2225
 2828DPPE   GL255792   8.515   0.906  11.565  0.0604  0.1461  0.0777
 2828DPPE   C1A55793   8.111   0.693  11.644 -0.3911 -0.2305 -0.0652
 2828DPPE   C2A55794   7.861   0.593  11.375 -0.1329 -0.4037 -0.2075
 2828DPPE   C3A55795   7.374   0.661  11.236  0.5386  0.0853 -0.0699
 2828DPPE   C4A55796   7.114   0.910  11.416  0.4366  0.1060 -0.0489
 2828DPPE   C1B55797   8.046   0.997  11.262 -0.0845  0.5192 -0.1513
 2828DPPE   C2B55798   7.862   0.949  10.882 -0.1986 -0.0022 -0.0226
 2828DPPE   C3B55799   7.705   0.612  10.881 -0.0364 -0.1383 -0.1507
 2828DPPE   C4B55800   7.457   0.252  10.679  0.4459 -0.1641  0.1508
 2829DPPE   NH355801  14.654   8.567   4.345  0.0215  0.0043  0.2592
 2829DPPE   PO455802  14.906   8.242   4.350  0.0544  0.0565  0.2388
 2829DPPE   GL155803  14.781   8.293   3.925  0.2059 -0.0421  0.1687
 2829DPPE   GL255804  14.612   8.584   3.816  0.0228  0.3123  0.0284
 2829DPPE   C1A55805  14.941   8.458   3.495  0.1039 -0.0595  0.0087
 2829DPPE   C2A55806  14.920   8.674   3.141  0.0649 -0.2067 -0.0225
 2829DPPE   C3A55807  15.250   8.601   2.893 -0.1667  0.1436  0.5959
 2829DPPE   C4A55808  15.537   8.479   2.570  0.2900 -0.1669 -0.0285
 2829DPPE   C1B55809  14.522   8.654   3.472  0.2980  0.0904 -0.0879
 2829DPPE   C2B55810  14.710   9.071   3.091 -0.2577  0.0113  0.0589
 2829DPPE   C3B55811  14.737   9.262   2.637  0.0353  0.1374 -0.0055
 2829DPPE   C4B55812  14.774   9.438   2.265 -0.0082 -0.0343  0.0545
 2830DPPE   NH355813  17.222   2.366   7.671 -0.1491 -0.3270  0.0641
 2830DPPE   PO455814  17.621   2.017   7.697  0.1504  0.0212 -0.1717
 2830DPPE   GL155815  18.045   2.260   7.819 -0.4940 -0.1770  0.2167
 2830DPPE   GL255816  18.290   2.027   7.861 -0.0422 -0.4197  0.4070
 2830DPPE   C1A55817  18.444   2.484   8.015 -0.1541  0.3160 -0.5382
 2830DPPE   C2A55818  18.900   2.436   8.350  0.1059  0.0336  0.0188
 2830DPPE   C3A55819  19.132   2.360   8.595  0.3147 -0.0041  0.1295
 2830DPPE   C4A55820  19.280   2.629   8.885  0.0015 -0.1208 -0.0917
 2830DPPE   C1B55821  18.245   2.049   8.284 -0.1008 -0.1049 -0.3718
 2830DPPE   C2B55822  18.504   2.181   8.593 -0.1206 -0.1993 -0.3326
 2830DPPE   C3B55823  18.689   2.419   8.924  0.3069  0.1405  0.0906
 2830DPPE   C4B55824  18.944   2.422   9.276  0.5085  0.1382 -0.0945
 2831DPPE   NH355825   7.349   2.411  16.732 -0.3295  0.3561  0.3375
 2831DPPE   PO455826   7.407   2.750  16.701 -0.1460 -0.0818  0.2493
 2831DPPE   GL155827   7.662   2.820  17.085  0.1182  0.0541 -0.2263
 2831DPPE   GL255828   8.030   2.913  17.037 -0.2100  0.1559  0.0690
 2831DPPE   C1A55829   7.993   2.597  17.419 -0.1053  0.0481  0.0715
 2831DPPE   C2A55830   8.183   2.518  17.915 -0.1047  0.1136 -0.1177
 2831DPPE   C3A55831   8.573   2.416  18.252  0.1854 -0.2686 -0.2277
 2831DPPE   C4A55832   8.753   2.142  18.518 -0.1213  0.1467 -0.1501
 2831DPPE   C1B55833   8.312   3.009  17.351  0.0560 -0.1380  0.1409
 2831DPPE   C2B55834   8.557   3.195  17.729  0.1289  0.2015  0.1250
 2831DPPE   C3B55835   8.829   3.315  17.960 -0.0941 -0.0518  0.1658
 2831DPPE   C4B55836   9.130   3.430  18.232 -0.0248 -0.3369  0.0691
 2832DPPE   NH355837  11.641   0.199  13.837  0.0053 -0.2504  0.3400
 2832DPPE   PO455838  12.032  -0.034  13.783  0.0890 -0.7025 -0.3131
 2832DPPE   GL155839  12.180   0.349  13.938 -0.1807 -0.1815 -0.1038
 2832DPPE   GL255840  12.455   0.458  13.748  0.2758  0.0428  0.1299
 2832DPPE   C1A55841  12.184   0.735  14.053 -0.0575 -0.0302 -0.2296
 2832DPPE   C2A55842  12.329   1.104  14.135  0.1494 -0.0060  0.0261
 2832DPPE   C3A55843  12.033   1.422  14.180  0.3139 -0.1079 -0.0286
 2832DPPE   C4A55844  11.994   1.928  14.188 -0.0530 -0.0022  0.1492
 2832DPPE   C1B55845  12.621   0.854  13.559  0.0568 -0.2695  0.2645
 2832DPPE   C2B55846  12.685   1.260  13.580  0.1386 -0.2300  0.2854
 2832DPPE   C3B55847  12.793   1.625  13.783  0.0398  0.0851 -0.3073
 2832DPPE   C4B55848  13.039   1.888  14.032 -0.1486 -0.3323 -0.0658
 2833DPPE   NH355849   9.042   3.821  11.545  0.1438 -0.0355 -0.0386
 2833DPPE   PO455850   8.817   4.161  11.720 -0.2384  0.0905 -0.2659
 2833DPPE   GL155851   9.125   4.280  11.786 -0.2527 -0.0426  0.0046
 2833DPPE   GL255852   9.481   4.116  11.745  0.2466 -0.2040  0.4737
 2833DPPE   C1A55853   9.438   4.619  11.936  0.0694  0.1147  0.2664
 2833DPPE   C2A55854   9.583   4.641  12.335  0.1619  0.1974  0.0189
 2833DPPE   C3A55855   9.813   4.742  12.721  0.3043 -0.1261 -0.0261
 2833DPPE   C4A55856   9.976   4.825  13.170 -0.0617 -0.1137 -0.0072
 2833DPPE   C1B55857   9.719   4.262  12.088 -0.0594  0.0471  0.0513
 2833DPPE   C2B55858  10.070   4.471  12.277 -0.2965 -0.1179  0.1065
 2833DPPE   C3B55859  10.212   4.815  12.330  0.1815 -0.3892 -0.2637
 2833DPPE   C4B55860  10.526   5.107  12.310 -0.1430  0.2258 -0.0405
 2834DPPE   NH355861   6.431  17.453  15.381 -0.1155  0.1398  0.3672
 2834DPPE   PO455862   6.290  17.646  15.754  0.0653  0.1430  0.0606
 2834DPPE   GL155863   6.486  17.336  15.859 -0.0053  0.3023 -0.3268
 2834DPPE   GL255864   6.847  17.332  15.667  0.2636  0.1923 -0.1430
 2834DPPE   C1A55865   6.538  16.909  15.812 -0.0521 -0.2294  0.3386
 2834DPPE   C2A55866   6.633  16.488  16.065  0.0530  0.1178  0.0127
 2834DPPE   C3A55867   6.379  16.170  16.331 -0.1851 -0.0635  0.1495
 2834DPPE   C4A55868   6.054  15.696  16.241  0.3242 -0.0314  0.2335
 2834DPPE   C1B55869   6.976  17.351  16.087  0.1496  0.2142  0.1630
 2834DPPE   C2B55870   7.350  17.578  16.401  0.1958  0.0672 -0.1121
 2834DPPE   C3B55871   7.372  17.314  16.787 -0.1922 -0.3119  0.1656
 2834DPPE   C4B55872   7.084  17.351  17.153  0.5325  0.1187  0.1694
 2835DPPE   NH355873   8.157   7.698  17.886 -0.0238 -0.0000  0.1027
 2835DPPE   PO455874   8.153   7.466  18.283 -0.0941 -0.0698 -0.1092
 2835DPPE   GL155875   7.867   7.514  18.539 -0.2871  0.2338  0.2363
 2835DPPE   GL255876   7.854   7.825  18.582  0.1167  0.2544  0.1850
 2835DPPE   C1A55877   7.543   7.435  18.894 -0.1686 -0.1000  0.0671
 2835DPPE   C2A55878   7.339   7.333  19.172  0.1934 -0.0489  0.1020
 2835DPPE   C3A55879   6.951   7.282  19.259  0.0164  0.0752  0.4468
 2835DPPE   C4A55880   6.887   7.027  19.643  0.1344 -0.2728 -0.0648
 2835DPPE   C1B55881   7.406   7.843  18.562  0.1229  0.0434  0.1531
 2835DPPE   C2B55882   7.332   7.416  18.407  0.0890 -0.0480  0.0660
 2835DPPE   C3B55883   7.043   7.303  18.213 -0.0326 -0.0010 -0.1919
 2835DPPE   C4B55884   6.649   7.062  17.984  0.0963 -0.2407  0.0204
 2836DPPE   NH355885   5.959   4.563  21.056  0.0798  0.3361 -0.3289
 2836DPPE   PO455886   5.918   4.766  20.698  0.1889  0.1718 -0.1012
 2836DPPE   GL155887   5.942   4.675  20.303 -0.1083 -0.0599 -0.3369
 2836DPPE   GL255888   6.091   4.420  20.164  0.2222  0.4250  0.1386
 2836DPPE   C1A55889   5.918   4.809  19.845  0.1056  0.1414  0.0570
 2836DPPE   C2A55890   5.866   5.197  19.595  0.0116  0.0324 -0.0045
 2836DPPE   C3A55891   6.224   5.442  19.338 -0.1163 -0.2471  0.3080
 2836DPPE   C4A55892   6.528   5.856  19.423 -0.1416 -0.2836  0.0841
 2836DPPE   C1B55893   6.411   4.815  20.076  0.0542 -0.0315  0.1270
 2836DPPE   C2B55894   6.787   5.031  19.881 -0.0868 -0.0882  0.1012
 2836DPPE   C3B55895   7.143   5.238  19.811 -0.2952 -0.1301 -0.2488
 2836DPPE   C4B55896   7.297   5.395  19.371 -0.2063 -0.3839  0.1996
 2837DPPE   NH355897   4.626  14.383   9.974  0.0307 -0.0362 -0.3322
 2837DPPE   PO455898   4.637  14.000  10.214 -0.1172 -0.1395  0.0129
 2837DPPE   GL155899   4.797  13.553  10.023  0.0519  0.4380 -0.0813
 2837DPPE   GL255900   4.748  13.530   9.669  0.0749  0.0598  0.2487
 2837DPPE   C1A55901   4.849  13.191  10.153 -0.3620 -0.1869 -0.1583
 2837DPPE   C2A55902   4.996  12.907  10.409  0.2789  0.1947 -0.2796
 2837DPPE   C3A55903   4.969  12.589  10.800 -0.1575 -0.0711 -0.0408
 2837DPPE   C4A55904   5.019  12.137  10.782 -0.0958 -0.0518  0.0906
 2837DPPE   C1B55905   4.690  12.997   9.745  0.1844  0.0853  0.0370
 2837DPPE   C2B55906   4.935  12.667   9.822 -0.5472 -0.0791 -0.2317
 2837DPPE   C3B55907   5.112  12.394   9.552 -0.2568 -0.0864 -0.1665
 2837DPPE   C4B55908   5.097  12.221   9.157 -0.3527  0.0856 -0.0594
 2838DPPE   NH355909   2.900  12.673  11.582  0.2315 -0.4033  0.0639
 2838DPPE   PO455910   3.003  12.523  11.234  0.2152 -0.0642 -0.1798
 2838DPPE   GL155911   3.430  12.407  11.374  0.1466 -0.2855  0.0555
 2838DPPE   GL255912   3.284  12.286  11.725 -0.3946 -0.3202  0.2552
 2838DPPE   C1A55913   3.772  12.242  11.219  0.0695  0.0957  0.0858
 2838DPPE   C2A55914   4.023  12.018  11.051  0.2265  0.2051 -0.2592
 2838DPPE   C3A55915   4.414  11.953  10.883 -0.1562 -0.3921 -0.0008
 2838DPPE   C4A55916   4.590  12.014  10.507  0.1117 -0.1048  0.0580
 2838DPPE   C1B55917   3.743  12.191  11.685 -0.0770 -0.1212 -0.4025
 2838DPPE   C2B55918   4.131  12.083  11.725 -0.2428  0.1665 -0.0269
 2838DPPE   C3B55919   4.390  11.943  12.157 -0.3315 -0.3824 -0.0289
 2838DPPE   C4B55920   4.624  11.537  12.287  0.1575  0.2557 -0.2353
 2839DPPE   NH355921  22.066  15.236  12.662 -0.0833  0.2675  0.0642
 2839DPPE   PO455922  21.769  15.306  12.329  0.1375 -0.0800 -0.2587
 2839DPPE   GL155923  22.198  15.519  12.283 -0.2192 -0.0834  0.2499
 2839DPPE   GL255924  22.279  15.773  12.530  0.4032 -0.0141 -0.0515
 2839DPPE   C1A55925  22.548  15.658  12.013 -0.3393 -0.1131  0.0029
 2839DPPE   C2A55926  22.757  15.893  11.684 -0.2046 -0.1455 -0.2151
 2839DPPE   C3A55927  23.132  16.085  11.435  0.3886 -0.1045  0.0217
 2839DPPE   C4A55928  23.288  15.930  11.008 -0.0129  0.1500 -0.1014
 2839DPPE   C1B55929  22.440  16.106  12.502  0.0064  0.2284 -0.1794
 2839DPPE   C2B55930  22.686  16.538  12.459 -0.0089  0.2086 -0.0547
 2839DPPE   C3B55931  22.621  16.895  12.660  0.3963 -0.3250 -0.0862
 2839DPPE   C4B55932  22.896  17.262  12.521  0.0313 -0.0392  0.0434
 2840DPPE   NH355933  27.436  16.186  17.633  0.0460 -0.2460  0.0425
 2840DPPE   PO455934  27.434  16.299  18.141  0.0014  0.0012  0.0274
 2840DPPE   GL155935  27.028  16.268  18.195  0.5151  0.0111 -0.0580
 2840DPPE   GL255936  26.782  16.314  17.877  0.2210 -0.0456  0.0304
 2840DPPE   C1A55937  26.709  15.859  18.170  0.2358  0.0067  0.0901
 2840DPPE   C2A55938  26.175  15.686  18.354 -0.3869  0.3505  0.1509
 2840DPPE   C3A55939  25.902  15.492  18.527  0.1513  0.1080  0.2199
 2840DPPE   C4A55940  25.535  15.307  18.362  0.2078  0.0526  0.4700
 2840DPPE   C1B55941  26.288  16.157  17.859  0.0708 -0.2305 -0.0394
 2840DPPE   C2B55942  25.931  16.137  17.802  0.0376  0.2683 -0.1466
 2840DPPE   C3B55943  25.875  15.877  17.407 -0.5057  0.1059 -0.1210
 2840DPPE   C4B55944  26.090  15.859  17.000  0.0336 -0.0378 -0.2286
 2841DPPE   NH355945   2.561  10.013  16.440 -0.1627  0.1732 -0.0138
 2841DPPE   PO455946   2.563   9.622  16.606  0.0305 -0.1887  0.1753
 2841DPPE   GL155947   2.835   9.473  16.425  0.0983 -0.1371  0.0305
 2841DPPE   GL255948   2.975   9.236  16.705 -0.4400 -0.2005 -0.0622
 2841DPPE   C1A55949   2.895   9.137  16.119  0.3035 -0.0330 -0.0950
 2841DPPE   C2A55950   3.148   8.854  15.909  0.1068  0.1765  0.1385
 2841DPPE   C3A55951   3.201   8.455  15.557  0.2697  0.2007  0.1139
 2841DPPE   C4A55952   3.015   8.141  15.199 -0.0265  0.1673  0.1487
 2841DPPE   C1B55953   3.384   8.936  16.759 -0.0899  0.2281 -0.2414
 2841DPPE   C2B55954   3.600   8.550  16.807  0.1567  0.0051 -0.1271
 2841DPPE   C3B55955   3.704   8.204  16.591 -0.1774 -0.1338  0.0110
 2841DPPE   C4B55956   3.853   8.070  16.907 -0.3163  0.0217 -0.0937
 2842DPPE   NH355957   9.738   3.613   2.796  0.1937 -0.0205  0.2587
 2842DPPE   PO455958   9.386   3.864   2.755 -0.0681  0.0145 -0.0384
 2842DPPE   GL155959   9.690   4.096   2.867 -0.2888  0.0361  0.3290
 2842DPPE   GL255960  10.028   4.024   2.982 -0.2486  0.4223 -0.0105
 2842DPPE   C1A55961   9.817   4.354   3.303  0.2462 -0.3388  0.2805
 2842DPPE   C2A55962  10.075   4.554   3.612  0.0516 -0.0180 -0.3700
 2842DPPE   C3A55963  10.270   4.789   3.886 -0.2113  0.2083  0.0514
 2842DPPE   C4A55964  10.280   5.215   3.979  0.2796 -0.2818  0.0421
 2842DPPE   C1B55965  10.344   4.317   2.769  0.2330 -0.2348  0.4539
 2842DPPE   C2B55966  10.371   4.773   2.573 -0.0770  0.3282  0.0987
 2842DPPE   C3B55967  10.426   5.152   2.800  0.0635  0.0954  0.0148
 2842DPPE   C4B55968  10.321   5.257   3.211 -0.2497 -0.1037  0.1299
 2843DPPE   NH355969  19.621  15.956  11.563  0.1071  0.1071  0.0732
 2843DPPE   PO455970  19.982  15.994  11.262 -0.0396  0.2725  0.1966
 2843DPPE   GL155971  20.098  16.417  11.136 -0.0955  0.0148 -0.1961
 2843DPPE   GL255972  20.286  16.503  11.338  0.0252  0.0571  0.1802
 2843DPPE   C1A55973  20.371  16.826  10.885 -0.0724  0.4048 -0.2539
 2843DPPE   C2A55974  20.434  17.234  10.680  0.1122 -0.0490  0.0637
 2843DPPE   C3A55975  20.427  17.612  10.401  0.0423  0.0711 -0.0184
 2843DPPE   C4A55976  20.222  17.843  10.122  0.1808  0.2270  0.0179
 2843DPPE   C1B55977  20.514  16.806  11.390  0.2633  0.1881 -0.3039
 2843DPPE   C2B55978  20.819  17.001  11.017  0.0197  0.0863 -0.2726
 2843DPPE   C3B55979  21.031  16.971  10.640  0.0078 -0.2101 -0.0887
 2843DPPE   C4B55980  21.228  16.985  10.223  0.2964  0.3348 -0.2302
 2844DPPE   NH355981   7.744  11.663   2.801 -0.0033  0.2467 -0.0613
 2844DPPE   PO455982   7.777  11.875   3.180  0.0144  0.3565  0.1215
 2844DPPE   GL155983   7.770  11.699   3.419  0.1046 -0.0238  0.0816
 2844DPPE   GL255984   8.145  11.800   3.566  0.0774  0.0642 -0.2157
 2844DPPE   C1A55985   7.785  11.447   3.880  0.1439  0.0561  0.1580
 2844DPPE   C2A55986   8.054  11.172   4.084  0.3587 -0.1377 -0.1515
 2844DPPE   C3A55987   7.903  11.015   4.393 -0.1124  0.2442  0.0519
 2844DPPE   C4A55988   7.917  10.641   4.624  0.0762 -0.0190  0.0007
 2844DPPE   C1B55989   8.286  11.571   3.927 -0.1042 -0.0245 -0.0172
 2844DPPE   C2B55990   8.586  11.602   4.249  0.0104  0.0789  0.1810
 2844DPPE   C3B55991   8.925  11.800   4.554  0.1215 -0.2152  0.2441
 2844DPPE   C4B55992   9.346  11.960   4.441 -0.3520  0.5383  0.1098
 2845DPPE   NH355993  26.008   4.630  19.438 -0.2185 -0.2610 -0.1803
 2845DPPE   PO455994  26.248   4.219  19.255  0.0391 -0.0922 -0.0474
 2845DPPE   GL155995  25.959   4.388  18.974  0.0271  0.5257  0.0671
 2845DPPE   GL255996  25.866   4.648  18.987  0.1468  0.0692 -0.2598
 2845DPPE   C1A55997  25.489   4.331  18.888  0.0817  0.2393  0.1647
 2845DPPE   C2A55998  25.175   4.302  18.824 -0.0894 -0.3189 -0.3124
 2845DPPE   C3A55999  24.748   4.404  18.731 -0.0120  0.0234 -0.0203
 2845DPPE   C4A56000  24.591   4.652  18.356 -0.0863  0.1025 -0.1711
 2845DPPE   C1B56001  25.589   4.784  18.615 -0.0773  0.2943  0.2703
 2845DPPE   C2B56002  25.425   4.834  18.225  0.1082 -0.1015  0.0415
 2845DPPE   C3B56003  25.393   4.499  17.901  0.0542 -0.1176 -0.1179
 2845DPPE   C4B56004  25.128   4.318  17.545 -0.2419 -0.1262 -0.2789
 2846DPPE   NH356005   4.108  36.489  16.678 -0.1942 -0.0959  0.2726
 2846DPPE   PO456006   4.027  36.145  16.345 -0.0711 -0.3376  0.1152
 2846DPPE   GL156007   4.239  36.477  16.175  0.1610  0.0159 -0.1608
 2846DPPE   GL256008   4.577  36.297  15.901  0.1598  0.0294  0.0426
 2846DPPE   C1A56009   4.405  36.705  15.966 -0.3141 -0.0356 -0.2664
 2846DPPE   C2A56010   4.742  37.013  15.922  0.0345  0.1334 -0.0340
 2846DPPE   C3A56011   4.807  37.349  15.797  0.3516 -0.0136  0.3802
 2846DPPE   C4A56012   5.171  37.522  15.538 -0.1429 -0.4268 -0.2973
 2846DPPE   C1B56013   4.932  36.518  15.860  0.0094  0.2934  0.2041
 2846DPPE   C2B56014   5.208  36.733  15.683 -0.3116  0.0400 -0.3784
 2846DPPE   C3B56015   5.244  36.995  15.388 -0.1510  0.0307  0.4014
 2846DPPE   C4B56016   5.248  37.227  14.934 -0.0491  0.3182  0.2015
 2847DPPE   NH356017   7.803  10.156   2.367 -0.0080 -0.1257 -0.3224
 2847DPPE   PO456018   8.233   9.967   2.448  0.2001  0.0544 -0.0335
 2847DPPE   GL156019   8.663  10.096   2.672 -0.0626  0.3298 -0.0484
 2847DPPE   GL256020   9.053  10.029   2.506  0.2341  0.2036  0.1871
 2847DPPE   C1A56021   8.890  10.389   2.896 -0.2973 -0.1361  0.1643
 2847DPPE   C2A56022   9.038  10.187   3.256  0.4372 -0.1447  0.2416
 2847DPPE   C3A56023   9.199  10.101   3.675  0.3866  0.0537  0.2502
 2847DPPE   C4A56024   9.304   9.774   3.901 -0.0523 -0.0632  0.0680
 2847DPPE   C1B56025   9.284  10.030   2.838  0.0749  0.0654  0.3084
 2847DPPE   C2B56026   9.676  10.104   3.079 -0.0697 -0.1225  0.0638
 2847DPPE   C3B56027   9.905  10.278   3.414 -0.1829  0.2707  0.2586
 2847DPPE   C4B56028  10.090  10.299   3.848  0.1933  0.3125 -0.2657
 2848DPPE   NH356029  16.042  21.950  12.274 -0.2304 -0.3500 -0.2431
 2848DPPE   PO456030  15.763  22.051  11.880  0.0146  0.4811 -0.0204
 2848DPPE   GL156031  15.873  21.647  11.850 -0.1916 -0.3421 -0.1485
 2848DPPE   GL256032  15.772  21.497  12.091  0.0238 -0.0750  0.1117
 2848DPPE   C1A56033  16.120  21.273  11.816  0.2042 -0.0981  0.2066
 2848DPPE   C2A56034  16.369  20.856  11.794  0.4268  0.2617  0.3729
 2848DPPE   C3A56035  16.391  20.354  11.787 -0.0195 -0.0272  0.0577
 2848DPPE   C4A56036  16.194  19.918  12.006  0.0188 -0.2437 -0.1311
 2848DPPE   C1B56037  15.739  21.104  12.241  0.2122  0.0565 -0.2687
 2848DPPE   C2B56038  15.711  20.677  12.500  0.1289 -0.1063 -0.2294
 2848DPPE   C3B56039  15.780  20.271  12.310 -0.0983  0.2308  0.0506
 2848DPPE   C4B56040  15.575  20.136  11.980 -0.0540 -0.3459  0.1893
 2849DPPE   NH356041  11.035   4.330   1.945 -0.0367  0.0585  0.3861
 2849DPPE   PO456042  11.478   4.047   1.813 -0.0242 -0.2012  0.0821
 2849DPPE   GL156043  11.569   4.090   2.262 -0.1395  0.0995  0.0198
 2849DPPE   GL256044  11.503   4.406   2.258 -0.0521  0.1586 -0.0092
 2849DPPE   C1A56045  11.682   4.064   2.704 -0.0128  0.3676 -0.0946
 2849DPPE   C2A56046  11.631   3.903   3.114 -0.0142 -0.0849  0.0270
 2849DPPE   C3A56047  11.448   3.541   3.387  0.1432  0.0667 -0.0380
 2849DPPE   C4A56048  11.243   3.219   3.484 -0.0291 -0.2539 -0.1826
 2849DPPE   C1B56049  11.645   4.532   2.652  0.0802  0.0895  0.0388
 2849DPPE   C2B56050  11.989   4.419   2.945 -0.2202  0.2337  0.3036
 2849DPPE   C3B56051  12.225   4.515   3.244 -0.3275  0.1195  0.1838
 2849DPPE   C4B56052  12.548   4.608   3.394 -0.0161 -0.0367 -0.3278
 2850DPPE   NH356053  27.030   4.940  12.013 -0.0140 -0.0343 -0.0442
 2850DPPE   PO456054  27.129   5.455  12.084 -0.0987  0.0762 -0.0922
 2850DPPE   GL156055  26.853   5.613  12.534  0.1576  0.0845 -0.0451
 2850DPPE   GL256056  26.837   5.848  12.387 -0.4167 -0.0901  0.0688
 2850DPPE   C1A56057  26.538   5.599  12.718  0.0996  0.2265  0.0938
 2850DPPE   C2A56058  26.109   5.498  12.698  0.1745 -0.1574 -0.0250
 2850DPPE   C3A56059  25.795   5.681  12.678  0.0766 -0.0098  0.1467
 2850DPPE   C4A56060  25.441   5.774  12.829  0.0891  0.0745 -0.1990
 2850DPPE   C1B56061  26.364   5.981  12.499  0.1237  0.2188  0.1026
 2850DPPE   C2B56062  26.004   5.930  12.339  0.2114  0.1769  0.2993
 2850DPPE   C3B56063  25.831   6.197  12.537 -0.2492 -0.0198  0.0059
 2850DPPE   C4B56064  25.599   6.237  12.844 -0.3535 -0.2131 -0.0953
 2851DPPE   NH356065  20.672  22.085  17.704  0.4455  0.4733 -0.1085
 2851DPPE   PO456066  21.001  21.986  17.456 -0.1956  0.0878  0.2071
 2851DPPE   GL156067  20.668  21.632  17.446 -0.2132 -0.0211  0.3767
 2851DPPE   GL256068  20.596  21.503  17.269 -0.0545  0.0661  0.1756
 2851DPPE   C1A56069  20.683  21.203  17.658 -0.0271 -0.2342 -0.2626
 2851DPPE   C2A56070  20.757  20.848  17.620  0.0139 -0.0231 -0.3421
 2851DPPE   C3A56071  20.569  20.525  17.584  0.0908  0.2190  0.1932
 2851DPPE   C4A56072  20.533  20.059  17.779  0.0335 -0.3662 -0.0209
 2851DPPE   C1B56073  20.186  21.472  17.147 -0.0028 -0.3961 -0.0706
 2851DPPE   C2B56074  19.912  21.194  17.254  0.3379  0.0095  0.2522
 2851DPPE   C3B56075  19.636  20.873  17.160 -0.1387  0.1660 -0.2187
 2851DPPE   C4B56076  19.353  20.551  17.322 -0.0122  0.0034  0.1103
 2852DPPE   NH356077  22.681  36.193  16.892  0.2367 -0.0192 -0.3278
 2852DPPE   PO456078  22.772  36.085  16.510  0.0393  0.3330  0.2250
 2852DPPE   GL156079  22.400  36.403  16.534 -0.1431  0.0365  0.0392
 2852DPPE   GL256080  22.276  36.523  16.825 -0.0516 -0.0958 -0.2106
 2852DPPE   C1A56081  21.938  36.392  16.374  0.1451 -0.1345  0.1165
 2852DPPE   C2A56082  21.523  36.632  16.269 -0.0537  0.1686 -0.2942
 2852DPPE   C3A56083  21.256  36.944  16.149 -0.0643  0.0964 -0.1730
 2852DPPE   C4A56084  21.198  37.387  16.226 -0.2782 -0.3299  0.2492
 2852DPPE   C1B56085  22.066  36.311  17.207  0.2080 -0.1802  0.1471
 2852DPPE   C2B56086  22.144  36.468  17.608  0.0137 -0.0580 -0.0880
 2852DPPE   C3B56087  22.362  36.803  17.868  0.4803  0.2083  0.2052
 2852DPPE   C4B56088  22.669  37.031  18.051 -0.1908 -0.1639  0.2623
 2853DPPE   NH356089  10.811   7.782  13.197 -0.1815  0.0835  0.1931
 2853DPPE   PO456090  11.127   7.572  12.969 -0.1308  0.3063  0.2257
 2853DPPE   GL156091  10.981   7.289  12.639 -0.1004 -0.1577  0.3039
 2853DPPE   GL256092  11.206   7.052  12.696 -0.2020  0.2430 -0.1937
 2853DPPE   C1A56093  10.746   6.888  12.700  0.1387  0.2537 -0.3424
 2853DPPE   C2A56094  10.401   6.603  12.617  0.3064 -0.0057 -0.2171
 2853DPPE   C3A56095  10.042   6.586  12.374  0.0523 -0.2105 -0.0612
 2853DPPE   C4A56096   9.681   6.480  12.134 -0.0188 -0.0645 -0.1195
 2853DPPE   C1B56097  11.034   6.771  12.354  0.0828  0.2666 -0.2044
 2853DPPE   C2B56098  10.607   6.776  12.208 -0.2810  0.0478  0.2400
 2853DPPE   C3B56099  10.225   6.761  11.930  0.1732  0.1165  0.0885
 2853DPPE   C4B56100   9.801   6.876  11.680  0.0304  0.1964  0.1606
 2854DPPE   NH356101  13.951   9.183   9.821  0.1892  0.1024 -0.1215
 2854DPPE   PO456102  14.221   9.230   9.488  0.0386  0.2590 -0.2733
 2854DPPE   GL156103  13.790   9.261   9.317  0.1363 -0.3074 -0.2080
 2854DPPE   GL256104  13.557   9.401   9.261  0.0635 -0.2743  0.0574
 2854DPPE   C1A56105  13.580   8.959   8.951  0.0821 -0.1578 -0.0033
 2854DPPE   C2A56106  13.391   8.927   8.516 -0.2133  0.1625  0.1076
 2854DPPE   C3A56107  13.109   9.020   8.097 -0.2248  0.1564 -0.2778
 2854DPPE   C4A56108  12.815   9.311   7.920  0.1879  0.0244  0.1289
 2854DPPE   C1B56109  13.418   9.470   8.898  0.2262  0.0750 -0.1654
 2854DPPE   C2B56110  13.019   9.375   8.614 -0.2753 -0.3745 -0.0843
 2854DPPE   C3B56111  12.686   9.471   8.339 -0.0969  0.0772 -0.2323
 2854DPPE   C4B56112  12.191   9.445   8.482  0.0280 -0.0064 -0.0706
 2855DPPE   NH356113  15.094   6.667  10.758 -0.0614 -0.1560  0.0235
 2855DPPE   PO456114  15.399   6.495  10.492 -0.0303 -0.0967 -0.2582
 2855DPPE   GL156115  15.242   6.461   9.965 -0.1356  0.0032 -0.3153
 2855DPPE   GL256116  14.979   6.201   9.901  0.1762 -0.3184 -0.3883
 2855DPPE   C1A56117  15.207   6.402   9.531 -0.0933 -0.1927  0.4795
 2855DPPE   C2A56118  15.037   6.760   9.332 -0.3385 -0.0425  0.0208
 2855DPPE   C3A56119  15.114   7.175   9.071 -0.2235 -0.1787 -0.1698
 2855DPPE   C4A56120  15.234   7.536   8.696  0.1407 -0.1620 -0.2158
 2855DPPE   C1B56121  14.606   6.146   9.631  0.0961  0.0137 -0.1053
 2855DPPE   C2B56122  14.278   5.864   9.529  0.0467  0.1331 -0.2740
 2855DPPE   C3B56123  13.942   5.598   9.558  0.0194  0.2134 -0.5296
 2855DPPE   C4B56124  13.543   5.696   9.475 -0.0374 -0.0590  0.0780
 2856DPPE   NH356125   9.450  35.509   6.523  0.3954 -0.1370  0.2239
 2856DPPE   PO456126   9.157  35.496   6.912  0.1161 -0.2283 -0.2148
 2856DPPE   GL156127   9.058  35.855   7.133 -0.1507 -0.0504 -0.3103
 2856DPPE   GL256128   8.697  35.844   7.249 -0.0753  0.3733  0.0373
 2856DPPE   C1A56129   8.949  36.277   7.359 -0.0049  0.1346  0.0763
 2856DPPE   C2A56130   9.129  36.483   7.792  0.0805  0.0750  0.0277
 2856DPPE   C3A56131   9.313  36.778   8.041  0.3108  0.1278  0.0608
 2856DPPE   C4A56132   9.414  36.998   8.322 -0.4144 -0.2966 -0.1125
 2856DPPE   C1B56133   8.700  35.997   7.722  0.0930  0.0522 -0.1952
 2856DPPE   C2B56134   8.910  36.082   8.080 -0.1786 -0.0862 -0.1466
 2856DPPE   C3B56135   8.971  36.195   8.568  0.0329 -0.2492 -0.1473
 2856DPPE   C4B56136   8.665  36.493   8.725  0.0729  0.1217 -0.0108
 2857DPPE   NH356137  13.039  31.229  11.096 -0.0524  0.0929  0.1662
 2857DPPE   PO456138  12.698  31.377  11.344 -0.2821  0.0610 -0.1370
 2857DPPE   GL156139  13.017  31.700  11.454 -0.0137 -0.1446 -0.0518
 2857DPPE   GL256140  13.283  31.623  11.533  0.2124 -0.1204  0.0223
 2857DPPE   C1A56141  12.996  32.082  11.316  0.2656 -0.0966  0.1142
 2857DPPE   C2A56142  12.860  32.527  11.510 -0.0616 -0.4570  0.0974
 2857DPPE   C3A56143  12.899  32.875  11.784 -0.3153 -0.0993 -0.1567
 2857DPPE   C4A56144  12.940  33.265  11.775 -0.2087  0.2072  0.3210
 2857DPPE   C1B56145  13.440  32.020  11.534  0.0698  0.1438  0.0211
 2857DPPE   C2B56146  13.307  32.379  11.661  0.1445  0.0476  0.0239
 2857DPPE   C3B56147  13.179  32.548  12.088  0.2139  0.1383 -0.0416
 2857DPPE   C4B56148  12.999  32.900  12.328 -0.2448 -0.1564  0.0218
 2858DPPE   NH356149   8.486  32.613  14.083 -0.1975  0.1352 -0.1755
 2858DPPE   PO456150   8.277  32.593  13.669 -0.3167  0.3155  0.1132
 2858DPPE   GL156151   8.456  32.921  13.667 -0.0505  0.1309 -0.1070
 2858DPPE   GL256152   8.389  33.059  13.418  0.0888 -0.0159  0.0313
 2858DPPE   C1A56153   8.437  33.343  13.867 -0.0424 -0.2874  0.1411
 2858DPPE   C2A56154   8.512  33.474  14.283  0.1474 -0.2330 -0.0702
 2858DPPE   C3A56155   8.500  33.430  14.826  0.2164  0.2482 -0.0428
 2858DPPE   C4A56156   8.896  33.419  15.008  0.2851 -0.1473 -0.0833
 2858DPPE   C1B56157   8.033  33.264  13.611  0.1589 -0.0751 -0.2186
 2858DPPE   C2B56158   7.790  33.644  13.574  0.2865  0.1528  0.0604
 2858DPPE   C3B56159   7.804  33.997  13.773 -0.3951 -0.3418 -0.2368
 2858DPPE   C4B56160   7.411  34.146  13.588 -0.3340 -0.0079 -0.2471
 2859DPPE   NH356161  24.962   9.205  24.494 -0.1105 -0.0599  0.0983
 2859DPPE   PO456162  25.103   9.727  24.305  0.4138 -0.1394  0.1798
 2859DPPE   GL156163  25.109   9.385  23.946  0.2971  0.0819  0.0561
 2859DPPE   GL256164  25.354   9.292  23.701 -0.0568  0.2403  0.0987
 2859DPPE   C1A56165  24.720   9.225  23.854 -0.0525 -0.3496 -0.0523
 2859DPPE   C2A56166  24.366   9.046  23.562 -0.2219  0.1583 -0.0488
 2859DPPE   C3A56167  24.327   8.816  23.162  0.0270 -0.1764  0.0333
 2859DPPE   C4A56168  24.315   8.781  22.834  0.0115  0.0062 -0.0408
 2859DPPE   C1B56169  25.092   9.455  23.472  0.1251 -0.0378  0.2226
 2859DPPE   C2B56170  24.709   9.483  23.311  0.4393  0.1052  0.0644
 2859DPPE   C3B56171  24.476   9.366  22.939 -0.2090 -0.2889  0.1442
 2859DPPE   C4B56172  24.529   9.140  22.575 -0.2337  0.1156  0.1213
 2860DPPE   NH356173  22.186  35.999  12.603 -0.3617 -0.0953  0.4053
 2860DPPE   PO456174  21.901  36.085  12.383  0.1090 -0.0445 -0.1392
 2860DPPE   GL156175  21.838  36.484  12.417 -0.1320  0.4467 -0.3227
 2860DPPE   GL256176  21.546  36.410  12.684 -0.0813  0.2566  0.1062
 2860DPPE   C1A56177  21.803  36.905  12.345 -0.3281 -0.2888 -0.0999
 2860DPPE   C2A56178  21.667  37.306  12.567 -0.0424 -0.2938 -0.0617
 2860DPPE   C3A56179  21.436  37.572  12.781 -0.0835  0.2578 -0.1188
 2860DPPE   C4A56180  21.168  37.863  12.910 -0.3230  0.0970 -0.1662
 2860DPPE   C1B56181  21.097  36.403  12.749  0.0428  0.3003  0.0270
 2860DPPE   C2B56182  20.902  36.765  13.033  0.1010  0.0089  0.1611
 2860DPPE   C3B56183  20.452  36.845  13.129 -0.1846  0.0423 -0.1425
 2860DPPE   C4B56184  20.097  36.774  13.216 -0.3364 -0.2574  0.3897
 2861DPPE   NH356185  18.478  34.157   8.666 -0.1841  0.0529 -0.1236
 2861DPPE   PO456186  18.773  34.281   8.812  0.0541 -0.1531 -0.1613
 2861DPPE   GL156187  18.672  34.446   9.182 -0.0682 -0.2914  0.0043
 2861DPPE   GL256188  18.335  34.358   9.381 -0.0863 -0.1217 -0.0288
 2861DPPE   C1A56189  18.519  34.788   9.404 -0.0078  0.3519  0.2642
 2861DPPE   C2A56190  18.198  34.869   9.658 -0.2206 -0.1576  0.0220
 2861DPPE   C3A56191  17.993  34.943  10.015 -0.1307  0.0396 -0.2699
 2861DPPE   C4A56192  17.678  35.251   9.941 -0.1192 -0.0086  0.0114
 2861DPPE   C1B56193  18.067  34.668   9.211 -0.0129 -0.2438 -0.1819
 2861DPPE   C2B56194  17.737  35.037   9.369  0.1252  0.0582  0.2480
 2861DPPE   C3B56195  17.484  35.404   9.485 -0.1977  0.2219  0.0432
 2861DPPE   C4B56196  17.396  35.727   9.824  0.2741 -0.0837 -0.2399
 2862DPPE   NH356197  11.468  10.249  11.196 -0.1123 -0.0641  0.1896
 2862DPPE   PO456198  11.880  10.349  10.935 -0.1616 -0.1362 -0.1267
 2862DPPE   GL156199  11.661  10.180  10.591 -0.3246  0.0429  0.0449
 2862DPPE   GL256200  11.438  10.261  10.712 -0.0558 -0.0292  0.0134
 2862DPPE   C1A56201  11.618   9.957  10.234 -0.1046  0.0749 -0.2561
 2862DPPE   C2A56202  11.689  10.118   9.809  0.2682  0.4444 -0.0469
 2862DPPE   C3A56203  11.622  10.060   9.358 -0.2313 -0.1043  0.2106
 2862DPPE   C4A56204  11.729   9.759   9.084 -0.0613 -0.1899  0.2258
 2862DPPE   C1B56205  11.301   9.826  10.576 -0.1133 -0.1184  0.0524
 2862DPPE   C2B56206  11.125   9.536  10.309 -0.1691 -0.3075 -0.0442
 2862DPPE   C3B56207  10.743   9.207  10.188  0.0380 -0.0467 -0.0164
 2862DPPE   C4B56208  10.568   8.811   9.971  0.2051 -0.1136  0.0297
 2863DPPE   NH356209  10.819  31.695  11.944  0.4185  0.1104 -0.1314
 2863DPPE   PO456210  11.239  31.709  12.018 -0.3974  0.1116  0.0122
 2863DPPE   GL156211  11.445  32.086  11.952  0.2709 -0.0535 -0.0691
 2863DPPE   GL256212  11.454  32.149  11.574 -0.0891 -0.3500 -0.1339
 2863DPPE   C1A56213  11.746  32.417  12.063  0.0647 -0.2918 -0.2273
 2863DPPE   C2A56214  11.965  32.669  12.217  0.2299 -0.2994  0.3054
 2863DPPE   C3A56215  11.795  33.150  12.165 -0.0082 -0.0167 -0.1837
 2863DPPE   C4A56216  11.589  33.225  11.692  0.0856  0.2109 -0.1453
 2863DPPE   C1B56217  11.562  32.564  11.639  0.0984  0.1642  0.2473
 2863DPPE   C2B56218  11.867  32.836  11.709  0.1537 -0.2944 -0.2032
 2863DPPE   C3B56219  12.071  33.231  11.749  0.2101  0.1257  0.3126
 2863DPPE   C4B56220  12.467  33.436  11.612  0.0121 -0.4044  0.0304
 2864DPPE   NH356221  23.508   4.693   7.298  0.3282 -0.0331  0.2376
 2864DPPE   PO456222  23.520   4.514   7.689 -0.1444  0.2943  0.1755
 2864DPPE   GL156223  23.531   4.626   8.054 -0.0847 -0.1180  0.2120
 2864DPPE   GL256224  23.237   4.701   8.017  0.2561  0.1485 -0.1511
 2864DPPE   C1A56225  23.558   4.890   8.454  0.1649  0.0312  0.0028
 2864DPPE   C2A56226  23.320   5.184   8.728  0.3687  0.0112 -0.2758
 2864DPPE   C3A56227  22.960   5.385   8.691 -0.3424  0.2681  0.1780
 2864DPPE   C4A56228  22.823   5.655   8.899 -0.0193  0.1304  0.2203
 2864DPPE   C1B56229  22.753   4.592   8.115 -0.3336  0.0614  0.1726
 2864DPPE   C2B56230  22.314   4.414   8.177 -0.1776  0.0477  0.0231
 2864DPPE   C3B56231  21.970   4.335   8.428 -0.0992  0.1342  0.1650
 2864DPPE   C4B56232  21.935   4.441   8.756 -0.0963  0.2386 -0.0215
 2865DPPE   NH356233  17.307  33.251   8.159 -0.0983  0.1393  0.1389
 2865DPPE   PO456234  17.459  33.268   8.561  0.1228 -0.0560  0.0773
 2865DPPE   GL156235  17.313  33.585   8.806 -0.4021 -0.0689 -0.1502
 2865DPPE   GL256236  17.495  33.738   9.064  0.0074 -0.4738  0.1058
 2865DPPE   C1A56237  16.920  33.666   8.985  0.0833 -0.3426  0.2297
 2865DPPE   C2A56238  16.550  33.826   8.954 -0.0632  0.1005  0.1144
 2865DPPE   C3A56239  16.156  34.073   9.104 -0.1342  0.0520 -0.1405
 2865DPPE   C4A56240  16.016  34.481   9.274 -0.1807 -0.1245 -0.0799
 2865DPPE   C1B56241  17.469  34.059   8.687 -0.2455 -0.0980 -0.2250
 2865DPPE   C2B56242  17.385  34.434   8.714  0.4459  0.1013 -0.2975
 2865DPPE   C3B56243  17.046  34.613   8.983  0.1107  0.0812  0.3196
 2865DPPE   C4B56244  16.871  34.581   9.408 -0.2197 -0.3575  0.1675
 2866DPPE   NH356245  11.942  19.161  23.112 -0.0105 -0.1136  0.1767
 2866DPPE   PO456246  11.434  19.342  23.197 -0.0733  0.5094 -0.2100
 2866DPPE   GL156247  11.595  19.228  22.741  0.0651  0.1185 -0.0595
 2866DPPE   GL256248  11.590  19.364  22.447 -0.0053 -0.3433  0.2017
 2866DPPE   C1A56249  11.803  18.891  22.474  0.0876  0.0102  0.2418
 2866DPPE   C2A56250  12.162  18.649  22.351 -0.0223  0.2982 -0.3902
 2866DPPE   C3A56251  12.613  18.529  22.051  0.0355 -0.0091  0.2286
 2866DPPE   C4A56252  13.003  18.250  22.008  0.2265  0.2026 -0.3070
 2866DPPE   C1B56253  11.615  19.237  22.108  0.0420 -0.1722 -0.1942
 2866DPPE   C2B56254  11.821  19.319  21.716  0.2177 -0.0970 -0.3341
 2866DPPE   C3B56255  12.109  19.196  21.536 -0.0252 -0.1765  0.3094
 2866DPPE   C4B56256  12.488  19.148  21.203 -0.2263  0.0560  0.3876
 2867DPPE   NH356257  14.123  12.800   2.968 -0.0395 -0.1284  0.0346
 2867DPPE   PO456258  13.809  12.466   2.811  0.1017 -0.0526  0.2782
 2867DPPE   GL156259  14.065  12.412   3.236  0.1176  0.0187 -0.1616
 2867DPPE   GL256260  14.216  12.045   3.309 -0.0679  0.0254 -0.3975
 2867DPPE   C1A56261  13.738  12.217   3.585  0.1057 -0.1071 -0.0768
 2867DPPE   C2A56262  13.679  12.030   4.066  0.0602  0.2778 -0.0102
 2867DPPE   C3A56263  13.605  11.997   4.518 -0.0501  0.0651 -0.2964
 2867DPPE   C4A56264  13.504  11.845   4.970  0.2380 -0.2543 -0.4156
 2867DPPE   C1B56265  14.173  11.943   3.760 -0.3458  0.2405  0.0772
 2867DPPE   C2B56266  14.288  11.480   3.970  0.1774  0.1634 -0.0750
 2867DPPE   C3B56267  14.298  11.184   4.260  0.2669 -0.0887  0.4236
 2867DPPE   C4B56268  14.485  11.089   4.645  0.0191 -0.0987 -0.1555
 2868DPPE   NH356269   9.505   8.607  15.277  0.1360 -0.1077 -0.0372
 2868DPPE   PO456270   9.276   8.573  15.681  0.1213  0.1255  0.0623
 2868DPPE   GL156271   8.914   8.284  15.687  0.1851  0.2310  0.0375
 2868DPPE   GL256272   8.751   8.425  15.405  0.1290  0.2215  0.0555
 2868DPPE   C1A56273   8.591   8.021  15.697  0.0141 -0.1198 -0.3696
 2868DPPE   C2A56274   8.080   8.236  15.717  0.3886 -0.0664  0.1369
 2868DPPE   C3A56275   7.652   8.435  15.632 -0.0013  0.1460 -0.0951
 2868DPPE   C4A56276   7.533   8.885  15.798 -0.0753  0.0205  0.0797
 2868DPPE   C1B56277   8.319   8.681  15.364  0.1452  0.1320 -0.4548
 2868DPPE   C2B56278   7.873   8.817  15.424 -0.0648  0.2888 -0.0996
 2868DPPE   C3B56279   7.685   8.906  15.062  0.3282  0.0301 -0.1158
 2868DPPE   C4B56280   7.339   8.702  14.863 -0.0516  0.1103  0.0537
 2869DPPE   NH356281   8.799  36.289  18.732  0.1324  0.1245 -0.1269
 2869DPPE   PO456282   8.409  36.388  18.645 -0.2069 -0.0504 -0.2003
 2869DPPE   GL156283   8.858  36.700  18.463 -0.1448  0.0739 -0.0059
 2869DPPE   GL256284   9.239  36.495  18.576  0.1039  0.0214 -0.1419
 2869DPPE   C1A56285   9.210  36.995  18.564  0.2336 -0.1225  0.1558
 2869DPPE   C2A56286   9.620  37.217  18.598 -0.0433 -0.0589  0.0899
 2869DPPE   C3A56287   9.889  37.531  18.510  0.0790 -0.0836  0.3463
 2869DPPE   C4A56288  10.170  37.969  18.608  0.0918 -0.0449  0.4771
 2869DPPE   C1B56289   9.509  36.620  18.252  0.3097 -0.0915 -0.0826
 2869DPPE   C2B56290   9.234  36.876  17.998  0.0186 -0.1348 -0.1713
 2869DPPE   C3B56291   9.111  37.300  17.766 -0.4080  0.1908 -0.3084
 2869DPPE   C4B56292   9.075  37.711  17.601 -0.3762 -0.2955  0.0006
 2870DPPE   NH356293  19.822  11.151  27.323 -0.1113 -0.1737 -0.1851
 2870DPPE   PO456294  19.548  11.467  27.541 -0.0083  0.0538 -0.0620
 2870DPPE   GL156295  19.611  11.636  27.269  0.2341 -0.0252  0.0930
 2870DPPE   GL256296  19.457  11.414  27.027 -0.0907  0.1647  0.2006
 2870DPPE   C1A56297  19.924  11.724  26.950 -0.1224  0.2084 -0.0410
 2870DPPE   C2A56298  20.024  11.839  26.535 -0.3458  0.1825 -0.0230
 2870DPPE   C3A56299  19.621  11.750  26.206  0.1369  0.1515 -0.2375
 2870DPPE   C4A56300  19.339  11.420  26.202 -0.2055  0.0609 -0.2269
 2870DPPE   C1B56301  19.653  11.426  26.648  0.2451 -0.1798 -0.0716
 2870DPPE   C2B56302  19.778  11.297  26.356  0.0106 -0.2580 -0.0469
 2870DPPE   C3B56303  19.714  11.210  25.927 -0.3240 -0.3998 -0.0533
 2870DPPE   C4B56304  19.387  11.306  25.654 -0.3002  0.1931 -0.2455
 2871DPPE   NH356305   8.676  32.696  11.943  0.0901  0.0920 -0.1719
 2871DPPE   PO456306   9.100  32.559  11.865  0.0270  0.0330 -0.5219
 2871DPPE   GL156307   9.054  33.001  11.764  0.0128  0.1114  0.3916
 2871DPPE   GL256308   8.985  33.094  11.539 -0.0669 -0.0109  0.1371
 2871DPPE   C1A56309   9.057  33.299  12.042 -0.1371  0.1532  0.1096
 2871DPPE   C2A56310   9.116  33.629  12.275  0.2302  0.0074  0.1553
 2871DPPE   C3A56311   9.023  33.857  12.610  0.0072 -0.0639 -0.1908
 2871DPPE   C4A56312   9.276  34.101  12.750  0.2620  0.0516  0.1890
 2871DPPE   C1B56313   9.482  33.160  11.645  0.3545 -0.1161 -0.0997
 2871DPPE   C2B56314   9.582  33.414  12.028 -0.2273 -0.2196 -0.1453
 2871DPPE   C3B56315   9.446  33.064  12.256  0.0885 -0.0451 -0.0133
 2871DPPE   C4B56316   9.405  32.764  12.609 -0.1992  0.2411  0.0848
 2872DPPE   NH356317   4.902   0.573  18.609  0.0208  0.2299 -0.0504
 2872DPPE   PO456318   5.261   0.446  18.455 -0.2741 -0.1974 -0.0201
 2872DPPE   GL156319   5.309   0.938  18.613  0.0173 -0.0838 -0.1784
 2872DPPE   GL256320   5.265   0.966  18.233  0.4119 -0.1318 -0.1971
 2872DPPE   C1A56321   5.454   1.375  18.442 -0.1773 -0.1658  0.2718
 2872DPPE   C2A56322   5.125   1.830  18.366  0.1230 -0.3690 -0.0349
 2872DPPE   C3A56323   4.744   1.913  18.294 -0.0277  0.0184 -0.1381
 2872DPPE   C4A56324   4.447   2.205  18.131  0.1916 -0.1152  0.0664
 2872DPPE   C1B56325   5.324   1.243  17.899 -0.2989  0.0985  0.3952
 2872DPPE   C2B56326   5.545   1.057  17.464 -0.1019 -0.1764 -0.2010
 2872DPPE   C3B56327   5.627   0.698  17.523 -0.0094 -0.1676 -0.0722
 2872DPPE   C4B56328   5.822   0.316  17.441  0.0503 -0.0964  0.0291
 2873DPPE   NH356329  20.177  17.532   6.663 -0.1360 -0.1493 -0.2963
 2873DPPE   PO456330  19.989  17.911   6.840 -0.0655 -0.5259  0.1632
 2873DPPE   GL156331  19.642  17.980   7.146 -0.0122 -0.5260  0.0701
 2873DPPE   GL256332  19.455  17.784   7.004 -0.0569 -0.3543  0.2052
 2873DPPE   C1A56333  19.551  17.657   7.492  0.3525 -0.3297 -0.0924
 2873DPPE   C2A56334  19.463  17.517   7.911 -0.1603 -0.0030  0.0521
 2873DPPE   C3A56335  19.482  17.602   8.419  0.1501  0.2363 -0.0490
 2873DPPE   C4A56336  19.264  17.566   8.744  0.0071 -0.0627 -0.2355
 2873DPPE   C1B56337  19.114  17.697   7.204  0.3400  0.2228  0.0612
 2873DPPE   C2B56338  18.958  17.434   7.641  0.5876 -0.3747  0.1812
 2873DPPE   C3B56339  18.824  17.193   8.014 -0.0502 -0.3237 -0.0249
 2873DPPE   C4B56340  18.731  16.951   8.317 -0.1975 -0.2228 -0.1166
 2874DPPE   NH356341  17.724   3.143  11.386  0.2357 -0.3459 -0.0307
 2874DPPE   PO456342  17.381   3.399  11.410  0.2644  0.0742 -0.0568
 2874DPPE   GL156343  17.226   3.033  11.288 -0.0448 -0.1657  0.2966
 2874DPPE   GL256344  17.390   3.158  10.952 -0.0528  0.0361  0.0823
 2874DPPE   C1A56345  17.189   2.737  11.015  0.0281  0.3691 -0.2248
 2874DPPE   C2A56346  16.919   2.625  10.678  0.0533 -0.2066  0.0896
 2874DPPE   C3A56347  16.873   2.559  10.266 -0.1947 -0.1406  0.0220
 2874DPPE   C4A56348  16.518   2.532  10.114 -0.1182  0.3223 -0.4050
 2874DPPE   C1B56349  16.945   3.201  10.702 -0.0710 -0.0724  0.0747
 2874DPPE   C2B56350  16.579   3.112  10.728  0.3068  0.3383 -0.0912
 2874DPPE   C3B56351  16.409   2.729  10.787  0.0274  0.0984 -0.2598
 2874DPPE   C4B56352  16.103   2.476  10.727  0.2949  0.0385 -0.3830
 2875DPPE   NH356353   2.206   1.936  13.088 -0.0103  0.0773  0.1205
 2875DPPE   PO456354   2.374   2.002  13.564  0.0066  0.3085  0.2161
 2875DPPE   GL156355   2.609   2.354  13.800  0.0865 -0.0221  0.2240
 2875DPPE   GL256356   2.469   2.580  13.885 -0.1082  0.1113  0.1468
 2875DPPE   C1A56357   3.016   2.306  13.830  0.1011  0.0405  0.0394
 2875DPPE   C2A56358   3.376   2.533  14.015 -0.0930 -0.0570  0.0265
 2875DPPE   C3A56359   3.541   2.879  14.158 -0.0307  0.1140  0.0479
 2875DPPE   C4A56360   3.758   3.179  13.948  0.1677  0.2514 -0.0698
 2875DPPE   C1B56361   2.751   2.772  13.988 -0.0090 -0.2015  0.0544
 2875DPPE   C2B56362   3.062   3.039  14.044  0.0969  0.1492  0.1524
 2875DPPE   C3B56363   3.295   3.262  13.798 -0.1061 -0.1985  0.1065
 2875DPPE   C4B56364   3.633   3.628  13.829  0.1988  0.2070 -0.1862
 2876DPPE   NH356365  17.576   7.459   8.788  0.0134  0.3080 -0.2243
 2876DPPE   PO456366  17.426   7.820   8.696  0.1900 -0.1021  0.0232
 2876DPPE   GL156367  17.557   7.686   8.335  0.1558 -0.1937 -0.1899
 2876DPPE   GL256368  17.343   7.913   8.188 -0.3711  0.0080  0.0663
 2876DPPE   C1A56369  17.463   7.462   8.007 -0.1866  0.3908  0.1123
 2876DPPE   C2A56370  17.183   7.055   7.892 -0.1785 -0.3593  0.1396
 2876DPPE   C3A56371  17.028   6.645   7.689  0.2066 -0.3638 -0.1635
 2876DPPE   C4A56372  16.973   6.261   7.906 -0.2494 -0.4237 -0.1540
 2876DPPE   C1B56373  17.431   7.875   7.728 -0.1996 -0.1437  0.0552
 2876DPPE   C2B56374  17.619   7.961   7.396  0.3444  0.1896  0.4677
 2876DPPE   C3B56375  17.646   7.958   6.944 -0.1052  0.4222  0.1642
 2876DPPE   C4B56376  17.676   7.958   6.467  0.0795  0.0180  0.1706
 2877DPPE   NH356377  12.390  17.592   6.071 -0.0082 -0.1034  0.1143
 2877DPPE   PO456378  12.588  17.257   6.268  0.1859  0.1400 -0.1182
 2877DPPE   GL156379  12.586  17.246   6.728 -0.0849 -0.0124 -0.1899
 2877DPPE   GL256380  12.788  17.418   6.809 -0.0887  0.4352  0.1172
 2877DPPE   C1A56381  12.377  16.876   6.938  0.1669 -0.2876 -0.0157
 2877DPPE   C2A56382  12.177  16.621   7.312 -0.2477  0.0130  0.0750
 2877DPPE   C3A56383  12.353  16.668   7.805 -0.1737 -0.1500  0.1641
 2877DPPE   C4A56384  12.350  16.834   8.200  0.0645  0.3269 -0.0020
 2877DPPE   C1B56385  13.130  17.262   6.968 -0.3343 -0.4595  0.0632
 2877DPPE   C2B56386  13.519  17.142   7.242 -0.2361 -0.0074  0.1146
 2877DPPE   C3B56387  13.555  16.809   7.375 -0.3451 -0.3422  0.2300
 2877DPPE   C4B56388  13.755  16.456   7.511  0.3890 -0.0736  0.1324
 2878DPPE   NH356389   0.683   7.080  13.363 -0.0761  0.3405  0.0865
 2878DPPE   PO456390   0.731   7.332  13.715  0.0955 -0.2262 -0.1631
 2878DPPE   GL156391   1.106   7.236  13.795  0.0993 -0.2265  0.0387
 2878DPPE   GL256392   1.297   7.199  14.124  0.2045  0.0921 -0.2144
 2878DPPE   C1A56393   1.546   7.475  13.776  0.0650 -0.4077  0.2872
 2878DPPE   C2A56394   1.903   7.565  13.519 -0.2407 -0.0182  0.2568
 2878DPPE   C3A56395   2.113   7.735  13.135 -0.1753  0.3521  0.4335
 2878DPPE   C4A56396   2.566   7.648  13.153  0.1679 -0.2275  0.0410
 2878DPPE   C1B56397   1.746   7.122  14.073  0.0476  0.0616  0.2961
 2878DPPE   C2B56398   1.985   7.154  13.876  0.0133  0.3724 -0.6100
 2878DPPE   C3B56399   2.207   6.905  13.629  0.0513 -0.0434  0.2859
 2878DPPE   C4B56400   2.131   6.716  13.205 -0.3394  0.0697  0.2314
 2879DPPE   NH356401  14.847   9.951  23.235 -0.1072 -0.1241 -0.2520
 2879DPPE   PO456402  14.428   9.736  23.185  0.0973 -0.1726 -0.6105
 2879DPPE   GL156403  14.213   9.878  23.566 -0.0151 -0.3266 -0.1211
 2879DPPE   GL256404  14.142   9.623  23.787 -0.1149 -0.1683  0.0657
 2879DPPE   C1A56405  14.281  10.068  23.920 -0.0311 -0.1137 -0.0711
 2879DPPE   C2A56406  14.134  10.191  24.277  0.1425  0.1628  0.3249
 2879DPPE   C3A56407  13.901  10.164  24.620  0.1668  0.0534  0.0805
 2879DPPE   C4A56408  13.875   9.957  24.987 -0.1556 -0.1883  0.1902
 2879DPPE   C1B56409  13.994   9.466  24.154  0.0436 -0.5145 -0.0611
 2879DPPE   C2B56410  13.804   9.390  24.517 -0.0329  0.1704  0.0356
 2879DPPE   C3B56411  13.880   9.259  24.769 -0.0183 -0.0161  0.0029
 2879DPPE   C4B56412  13.883   8.922  24.922 -0.1838 -0.3034 -0.1399
 2880DPPE   NH356413  12.417   4.509  13.705  0.4308 -0.2531  0.2040
 2880DPPE   PO456414  12.164   4.676  14.077  0.0849 -0.0129  0.3996
 2880DPPE   GL156415  11.808   4.733  13.971 -0.2662 -0.1596 -0.2666
 2880DPPE   GL256416  11.879   4.558  13.687 -0.0577 -0.0786  0.5154
 2880DPPE   C1A56417  11.387   4.550  13.947  0.0151  0.0233 -0.4484
 2880DPPE   C2A56418  11.204   4.355  13.585  0.4224  0.1440 -0.2426
 2880DPPE   C3A56419  10.851   4.442  13.322 -0.2652  0.0557 -0.2813
 2880DPPE   C4A56420  10.518   4.518  13.076  0.1875  0.3403  0.2265
 2880DPPE   C1B56421  11.601   4.790  13.468  0.0088  0.0170  0.0282
 2880DPPE   C2B56422  11.239   4.811  13.273 -0.0341  0.0608  0.2657
 2880DPPE   C3B56423  10.823   4.907  13.192  0.0392  0.0527 -0.1331
 2880DPPE   C4B56424  10.493   4.852  13.418 -0.0377  0.3874  0.3833
 2881DPPE   NH356425  13.097  31.754  13.753  0.0031 -0.0433 -0.3521
 2881DPPE   PO456426  13.407  31.762  13.368  0.0021 -0.1332 -0.2228
 2881DPPE   GL156427  13.264  32.164  13.514  0.0321 -0.1759  0.0607
 2881DPPE   GL256428  13.003  32.253  13.816 -0.2057 -0.1048 -0.0494
 2881DPPE   C1A56429  13.034  32.438  13.204 -0.2062  0.1777 -0.1555
 2881DPPE   C2A56430  12.734  32.365  13.384 -0.0568 -0.3016  0.1801
 2881DPPE   C3A56431  12.350  32.358  13.600  0.0864 -0.2300  0.1712
 2881DPPE   C4A56432  12.048  32.420  13.917  0.0380  0.0012  0.0794
 2881DPPE   C1B56433  13.121  32.651  13.662 -0.0043 -0.0834 -0.2290
 2881DPPE   C2B56434  13.070  32.958  13.375  0.4498  0.1076  0.0753
 2881DPPE   C3B56435  13.041  33.196  13.041  0.0366  0.2027  0.0337
 2881DPPE   C4B56436  12.834  33.234  12.691  0.0516 -0.0641 -0.1710
 2882DPPE   NH356437   4.084   1.085  17.684 -0.1921  0.2093 -0.1695
 2882DPPE   PO456438   4.166   0.562  17.517  0.0712  0.0729  0.2364
 2882DPPE   GL156439   4.199   0.996  17.160 -0.0468  0.0994  0.0636
 2882DPPE   GL256440   3.813   1.168  16.927 -0.1299  0.0300  0.0792
 2882DPPE   C1A56441   4.336   1.366  17.169 -0.0325  0.0607  0.2150
 2882DPPE   C2A56442   4.289   1.814  17.208 -0.0171 -0.1164  0.2697
 2882DPPE   C3A56443   4.472   2.128  17.323  0.1126  0.1703  0.3734
 2882DPPE   C4A56444   4.487   2.447  17.477  0.0475  0.0076 -0.3615
 2882DPPE   C1B56445   3.859   1.648  16.978 -0.2068 -0.4084 -0.2445
 2882DPPE   C2B56446   3.793   1.908  17.267 -0.1857 -0.0842  0.1483
 2882DPPE   C3B56447   3.943   2.147  17.620 -0.6065  0.1570 -0.0356
 2882DPPE   C4B56448   4.110   2.516  17.854  0.3579 -0.0556  0.3548
 2883DPPE   NH356449   5.534  10.533   4.505 -0.2905 -0.0508  0.1632
 2883DPPE   PO456450   5.661  10.122   4.514  0.1761  0.1338 -0.0416
 2883DPPE   GL156451   5.949  10.188   4.858  0.1571  0.1165  0.0335
 2883DPPE   GL256452   6.194  10.109   4.700 -0.4426 -0.3044  0.0031
 2883DPPE   C1A56453   5.960  10.124   5.309 -0.1841  0.3323  0.2790
 2883DPPE   C2A56454   6.082  10.074   5.678  0.0634 -0.0259 -0.3142
 2883DPPE   C3A56455   6.360  10.144   6.125  0.0979 -0.0936  0.0224
 2883DPPE   C4A56456   6.416  10.352   6.464 -0.1265 -0.1748 -0.4224
 2883DPPE   C1B56457   6.555  10.159   5.016 -0.0627 -0.0306  0.0163
 2883DPPE   C2B56458   6.697  10.267   5.508 -0.2327  0.2778  0.2052
 2883DPPE   C3B56459   6.814   9.953   5.794  0.1970  0.0121  0.3106
 2883DPPE   C4B56460   7.104   9.603   5.735  0.5454 -0.2559 -0.3285
 2884DPPE   NH356461  12.426  33.619   6.961 -0.1154 -0.2220 -0.0260
 2884DPPE   PO456462  12.504  33.677   6.560 -0.2163 -0.0438  0.2973
 2884DPPE   GL156463  12.769  33.949   6.815  0.0263  0.2996  0.0425
 2884DPPE   GL256464  12.699  34.138   7.050  0.1844  0.0142  0.0858
 2884DPPE   C1A56465  12.947  34.291   6.542  0.3091  0.1305 -0.0708
 2884DPPE   C2A56466  13.265  34.612   6.497 -0.1281  0.0055  0.1424
 2884DPPE   C3A56467  13.423  34.876   6.704  0.2411  0.2678  0.1458
 2884DPPE   C4A56468  13.512  34.998   7.094 -0.1460 -0.1077  0.0151
 2884DPPE   C1B56469  12.602  34.361   7.376  0.2596 -0.1814 -0.3139
 2884DPPE   C2B56470  12.524  34.665   7.671 -0.0514  0.2480  0.1878
 2884DPPE   C3B56471  12.654  34.760   8.076  0.0443  0.3263 -0.1649
 2884DPPE   C4B56472  12.884  34.848   8.382 -0.0257 -0.2841  0.0320
 2885DPPE   NH356473  28.375   9.580  18.704  0.2029  0.0559  0.1677
 2885DPPE   PO456474  28.121   9.963  18.729 -0.1736 -0.0324  0.3686
 2885DPPE   GL156475  27.802  10.047  18.474  0.1849  0.2578  0.0175
 2885DPPE   GL256476  27.566  10.290  18.517 -0.0948  0.1233 -0.0154
 2885DPPE   C1A56477  27.577  10.095  18.066 -0.0812 -0.3296  0.0322
 2885DPPE   C2A56478  27.342   9.849  17.769  0.0173 -0.1104  0.2509
 2885DPPE   C3A56479  26.938   9.884  17.696  0.2974  0.0343 -0.1205
 2885DPPE   C4A56480  26.578   9.645  17.746  0.0932  0.0176 -0.0039
 2885DPPE   C1B56481  27.233  10.225  18.828 -0.0399  0.0616  0.1234
 2885DPPE   C2B56482  26.908   9.954  18.847  0.0285  0.2793  0.3234
 2885DPPE   C3B56483  26.581   9.843  18.627 -0.1270  0.0059  0.1515
 2885DPPE   C4B56484  26.117   9.736  18.489 -0.3246 -0.0999  0.0212
 2886DPPE   NH356485  18.908   6.434  22.156  0.0955  0.1431 -0.0052
 2886DPPE   PO456486  18.796   5.989  22.017  0.0310 -0.2721  0.1619
 2886DPPE   GL156487  18.747   5.954  22.478 -0.0891 -0.0149 -0.1863
 2886DPPE   GL256488  18.736   6.231  22.587  0.0750 -0.0641  0.2590
 2886DPPE   C1A56489  18.718   5.661  22.682 -0.1319  0.0727 -0.1102
 2886DPPE   C2A56490  18.778   5.509  23.051  0.0907  0.0125  0.1391
 2886DPPE   C3A56491  19.195   5.202  23.087  0.0083 -0.0243 -0.0605
 2886DPPE   C4A56492  19.597   5.226  23.419  0.1053  0.2852 -0.1060
 2886DPPE   C1B56493  18.882   6.091  22.988 -0.0125 -0.0064  0.0135
 2886DPPE   C2B56494  18.983   6.053  23.326  0.1164  0.0260 -0.1510
 2886DPPE   C3B56495  19.223   6.200  23.627 -0.0092  0.4063 -0.3823
 2886DPPE   C4B56496  19.312   6.296  24.073  0.0072 -0.1880 -0.2622
 2887DPPE   NH356497   2.302   6.668   8.440  0.0595 -0.1180 -0.0880
 2887DPPE   PO456498   2.108   6.905   8.793  0.1050 -0.3109 -0.0983
 2887DPPE   GL156499   2.611   6.912   8.790  0.0563 -0.0616 -0.2472
 2887DPPE   GL256500   2.794   7.220   8.879  0.1405  0.1261  0.1145
 2887DPPE   C1A56501   3.044   6.678   8.807 -0.2162 -0.0805  0.0858
 2887DPPE   C2A56502   3.396   6.573   9.038  0.0393 -0.2850  0.0039
 2887DPPE   C3A56503   3.672   6.811   9.272 -0.2798  0.3248  0.1042
 2887DPPE   C4A56504   3.848   6.878   9.688 -0.0484  0.0039 -0.1714
 2887DPPE   C1B56505   3.154   7.404   9.081 -0.1495  0.1164 -0.2486
 2887DPPE   C2B56506   3.395   7.586   9.517 -0.1694 -0.0607  0.0335
 2887DPPE   C3B56507   3.671   7.920   9.833 -0.0523  0.1334 -0.2010
 2887DPPE   C4B56508   3.511   8.059  10.290  0.1303  0.2585  0.2012
 2888DPPE   NH356509  15.496   6.041  10.739  0.1698  0.1609 -0.1388
 2888DPPE   PO456510  15.680   5.712  10.874  0.0002 -0.3498 -0.0200
 2888DPPE   GL156511  15.507   5.616  10.432  0.0665  0.1387 -0.0828
 2888DPPE   GL256512  15.357   5.393  10.488 -0.0272 -0.0656 -0.3624
 2888DPPE   C1A56513  15.425   5.647  10.013  0.1094  0.3436 -0.2012
 2888DPPE   C2A56514  15.283   5.800   9.605 -0.2958 -0.3362 -0.3114
 2888DPPE   C3A56515  15.035   5.900   9.336 -0.0939  0.0516  0.0683
 2888DPPE   C4A56516  14.820   6.303   9.225 -0.1766 -0.1487 -0.1526
 2888DPPE   C1B56517  15.045   5.204  10.196 -0.0165 -0.1699 -0.0594
 2888DPPE   C2B56518  14.828   5.176   9.896  0.3208 -0.1859 -0.1518
 2888DPPE   C3B56519  14.710   4.893   9.620 -0.1895  0.1555  0.2547
 2888DPPE   C4B56520  14.805   4.407   9.548  0.2373  0.0991 -0.2926
 2889DPPE   NH356521   6.747   7.734  23.800  0.0809 -0.1131  0.1361
 2889DPPE   PO456522   7.234   7.718  23.836 -0.0346  0.1859  0.0471
 2889DPPE   GL156523   7.670   7.668  23.669 -0.1945  0.4097  0.0684
 2889DPPE   GL256524   7.706   8.018  23.570 -0.1857 -0.0291  0.5166
 2889DPPE   C1A56525   7.983   7.377  23.443 -0.0421 -0.1938 -0.0973
 2889DPPE   C2A56526   8.331   7.262  23.391 -0.1826  0.3368 -0.0618
 2889DPPE   C3A56527   8.667   7.154  23.067  0.0106 -0.0197  0.0833
 2889DPPE   C4A56528   9.049   7.265  22.917  0.6406 -0.1916 -0.1506
 2889DPPE   C1B56529   7.950   7.791  23.218 -0.0091  0.1656 -0.1476
 2889DPPE   C2B56530   8.348   7.672  23.018 -0.0078 -0.0663 -0.2353
 2889DPPE   C3B56531   8.683   7.770  22.819 -0.4046 -0.0856  0.0278
 2889DPPE   C4B56532   8.673   8.067  22.485 -0.0120 -0.1192 -0.3816
 2890DPPE   NH356533  11.331  34.163  17.745 -0.0889 -0.2600 -0.0765
 2890DPPE   PO456534  11.004  34.112  17.399 -0.0209  0.0939  0.1204
 2890DPPE   GL156535  10.872  34.468  17.198  0.0221 -0.0801  0.0458
 2890DPPE   GL256536  10.494  34.269  17.181  0.3051 -0.2156  0.1983
 2890DPPE   C1A56537  10.943  34.874  17.308  0.0037  0.1636  0.2055
 2890DPPE   C2A56538  10.823  35.242  17.010  0.2677 -0.0112 -0.1986
 2890DPPE   C3A56539  10.397  35.400  16.716 -0.0275  0.4512  0.1405
 2890DPPE   C4A56540  10.076  35.610  16.554  0.0226  0.3187  0.1381
 2890DPPE   C1B56541  10.500  34.728  17.066 -0.0356  0.2958  0.6265
 2890DPPE   C2B56542  10.394  34.831  16.610  0.0021 -0.0679  0.1918
 2890DPPE   C3B56543  10.652  34.771  16.237 -0.0808 -0.0407  0.0193
 2890DPPE   C4B56544  10.611  34.587  15.821  0.0529 -0.3286  0.1643
 2891DPPE   NH356545  14.498   4.134  25.517  0.0310  0.0354  0.2793
 2891DPPE   PO456546  14.097   4.322  25.394  0.1156  0.2032 -0.0541
 2891DPPE   GL156547  14.032   4.535  25.003 -0.0571 -0.0669  0.4235
 2891DPPE   GL256548  14.121   4.313  24.796  0.0770 -0.1111 -0.4035
 2891DPPE   C1A56549  13.940   5.022  24.790  0.1670  0.0202 -0.1866
 2891DPPE   C2A56550  13.649   5.263  24.530 -0.1786  0.0386  0.0128
 2891DPPE   C3A56551  13.564   5.643  24.221  0.3455 -0.0302 -0.2173
 2891DPPE   C4A56552  13.860   6.044  24.269  0.0116  0.1674 -0.0156
 2891DPPE   C1B56553  14.131   4.071  24.389  0.0663  0.1075  0.1470
 2891DPPE   C2B56554  14.277   4.074  23.943 -0.2137  0.0276 -0.0263
 2891DPPE   C3B56555  14.255   4.279  23.654  0.1615  0.0057  0.0492
 2891DPPE   C4B56556  13.920   4.470  23.426  0.0258 -0.1694  0.0755
 2892DPPE   NH356557  14.712  18.511  17.387  0.2733 -0.0526  0.0306
 2892DPPE   PO456558  14.372  18.742  17.572  0.0465 -0.1373 -0.1919
 2892DPPE   GL156559  14.253  18.918  17.882 -0.0300  0.0143 -0.2734
 2892DPPE   GL256560  14.239  18.798  18.167  0.1173 -0.1644  0.0349
 2892DPPE   C1A56561  14.057  19.338  17.900 -0.2255  0.0885 -0.2911
 2892DPPE   C2A56562  13.915  19.724  18.130  0.1143 -0.0080 -0.0551
 2892DPPE   C3A56563  13.755  20.069  18.163 -0.0060  0.1353  0.1801
 2892DPPE   C4A56564  13.663  20.311  17.811  0.1862 -0.0019 -0.0229
 2892DPPE   C1B56565  14.427  19.230  18.374  0.0284 -0.0536  0.3534
 2892DPPE   C2B56566  14.339  19.698  18.600  0.2615 -0.0413 -0.1102
 2892DPPE   C3B56567  13.919  19.882  18.649  0.0897  0.3387 -0.1134
 2892DPPE   C4B56568  13.617  20.036  18.902  0.2542  0.0106 -0.2574
 2893DPPE   NH356569  22.518  18.548  23.220 -0.2209 -0.0731  0.2360
 2893DPPE   PO456570  22.618  18.701  22.826  0.2711 -0.2995 -0.1366
 2893DPPE   GL156571  22.343  18.357  22.793 -0.0602 -0.0526 -0.0135
 2893DPPE   GL256572  22.473  18.159  22.544 -0.0402 -0.2465 -0.0562
 2893DPPE   C1A56573  21.995  18.171  22.540  0.2682  0.1531 -0.3129
 2893DPPE   C2A56574  21.733  17.936  22.279  0.2087  0.1609  0.1857
 2893DPPE   C3A56575  21.497  17.622  22.338  0.1114  0.2309 -0.3679
 2893DPPE   C4A56576  21.298  17.430  22.755 -0.3055 -0.1355  0.0368
 2893DPPE   C1B56577  22.339  18.221  22.183 -0.0797 -0.1344 -0.0877
 2893DPPE   C2B56578  22.746  18.218  21.842  0.2528  0.0732  0.2355
 2893DPPE   C3B56579  22.958  17.922  21.540  0.5461  0.2205  0.2871
 2893DPPE   C4B56580  23.277  17.985  21.351 -0.0228  0.2527 -0.0114
 2894DPPE   NH356581  12.955  11.653   1.805  0.0603 -0.1253 -0.0740
 2894DPPE   PO456582  12.566  11.791   1.756  0.1196 -0.1635 -0.4468
 2894DPPE   GL156583  12.488  11.493   2.099  0.1819 -0.1287  0.1012
 2894DPPE   GL256584  12.235  11.557   2.301 -0.0104  0.2682 -0.0119
 2894DPPE   C1A56585  12.393  11.124   2.135  0.0927  0.1817  0.3928
 2894DPPE   C2A56586  12.069  10.933   2.230  0.0080 -0.0123 -0.0813
 2894DPPE   C3A56587  11.938  10.652   2.371 -0.2086  0.1957 -0.4159
 2894DPPE   C4A56588  12.036  10.377   2.757 -0.3503 -0.1724 -0.1294
 2894DPPE   C1B56589  12.389  11.593   2.640 -0.0404 -0.0286 -0.1016
 2894DPPE   C2B56590  12.882  11.619   2.856  0.1477  0.2745 -0.1344
 2894DPPE   C3B56591  13.191  11.633   3.217  0.2662 -0.1363 -0.0713
 2894DPPE   C4B56592  13.366  11.840   3.578  0.0943  0.0637 -0.2177
 2895DPPE   NH356593   5.250  36.464   9.277  0.1420  0.2257 -0.0243
 2895DPPE   PO456594   5.388  36.592   8.964 -0.2391 -0.2727  0.0519
 2895DPPE   GL156595   5.840  36.563   9.087 -0.0625  0.1226 -0.0088
 2895DPPE   GL256596   5.779  36.401   9.404  0.0668 -0.0211  0.2469
 2895DPPE   C1A56597   6.196  36.820   9.276  0.2064 -0.0431 -0.0196
 2895DPPE   C2A56598   6.574  37.160   9.111  0.1842 -0.0318 -0.3861
 2895DPPE   C3A56599   6.934  37.327   9.285 -0.0520 -0.1041 -0.2500
 2895DPPE   C4A56600   7.054  37.613   9.609  0.1975  0.2524  0.0088
 2895DPPE   C1B56601   6.094  36.446   9.655 -0.4014 -0.1583  0.0364
 2895DPPE   C2B56602   6.591  36.506   9.713 -0.1347  0.0841 -0.1540
 2895DPPE   C3B56603   6.878  36.754  10.000 -0.3187 -0.1086  0.0152
 2895DPPE   C4B56604   7.190  37.061   9.980 -0.1709  0.3914  0.0561
 2896DPPE   NH356605  14.033  11.489   8.987 -0.1189 -0.2068 -0.0595
 2896DPPE   PO456606  13.663  11.264   9.040 -0.0604 -0.2776  0.4710
 2896DPPE   GL156607  13.269  11.281   8.881  0.0550 -0.6564  0.1541
 2896DPPE   GL256608  13.237  11.649   8.715 -0.1154 -0.0989  0.2002
 2896DPPE   C1A56609  12.996  11.018   8.744 -0.0796 -0.0458 -0.1711
 2896DPPE   C2A56610  13.094  10.829   8.331  0.0090 -0.0030 -0.1916
 2896DPPE   C3A56611  13.313  10.753   7.979 -0.1537  0.0535  0.0186
 2896DPPE   C4A56612  13.733  10.612   7.828  0.0675  0.1477 -0.3503
 2896DPPE   C1B56613  13.336  11.317   8.348  0.1200 -0.0787 -0.1552
 2896DPPE   C2B56614  13.586  11.040   8.289 -0.0396  0.1779  0.0395
 2896DPPE   C3B56615  13.739  10.540   8.484  0.1820 -0.0241 -0.1704
 2896DPPE   C4B56616  13.662  10.092   8.680 -0.1538  0.0920  0.0761
 2897DPPE   NH356617  20.451   2.998  13.250 -0.3397  0.0789 -0.0327
 2897DPPE   PO456618  20.213   3.093  12.905 -0.3103  0.0829  0.3512
 2897DPPE   GL156619  20.527   2.796  12.753 -0.1861 -0.3059 -0.4673
 2897DPPE   GL256620  20.830   2.730  12.558 -0.2521 -0.0071  0.1723
 2897DPPE   C1A56621  20.915   2.528  13.000 -0.2469  0.1367 -0.1884
 2897DPPE   C2A56622  21.061   2.366  13.383 -0.0535  0.2069  0.0624
 2897DPPE   C3A56623  21.278   2.284  13.761  0.1547  0.0104  0.1433
 2897DPPE   C4A56624  21.330   1.875  13.899 -0.1869 -0.0606  0.2710
 2897DPPE   C1B56625  20.895   2.164  12.630  0.2170 -0.2868 -0.0985
 2897DPPE   C2B56626  21.178   1.858  12.834 -0.1529 -0.1561 -0.2324
 2897DPPE   C3B56627  21.542   1.943  12.584  0.0944  0.0429  0.2600
 2897DPPE   C4B56628  21.863   2.268  12.402  0.4823  0.0199 -0.3330
 2898DPPE   NH356629  12.696  17.813  17.734  0.0205 -0.2205  0.0573
 2898DPPE   PO456630  13.137  18.039  18.011 -0.0355  0.1039 -0.2159
 2898DPPE   GL156631  13.080  18.321  18.346  0.1490  0.1234 -0.1165
 2898DPPE   GL256632  12.919  18.240  18.571  0.1530 -0.1780  0.1820
 2898DPPE   C1A56633  12.818  18.810  18.426  0.1809 -0.1276 -0.1370
 2898DPPE   C2A56634  12.596  19.211  18.536 -0.2620 -0.3143 -0.0986
 2898DPPE   C3A56635  12.402  19.527  18.379  0.3266  0.0562 -0.0955
 2898DPPE   C4A56636  12.034  19.813  18.393 -0.0105 -0.0082  0.1168
 2898DPPE   C1B56637  12.713  18.463  18.756  0.1653 -0.0075  0.1493
 2898DPPE   C2B56638  12.409  18.607  19.125 -0.1130 -0.1430 -0.0072
 2898DPPE   C3B56639  12.232  19.019  19.168  0.1683 -0.0505  0.3415
 2898DPPE   C4B56640  12.172  19.366  19.318 -0.0091 -0.0579  0.1042
 2899DPPE   NH356641  13.364   6.075  11.614  0.1896 -0.0183 -0.1595
 2899DPPE   PO456642  13.627   5.881  11.339  0.1447 -0.0131  0.1945
 2899DPPE   GL156643  13.408   5.648  11.186 -0.1808  0.1136 -0.0006
 2899DPPE   GL256644  13.133   5.608  11.415  0.1861 -0.7185 -0.0088
 2899DPPE   C1A56645  13.189   5.825  10.796  0.1666  0.0400  0.0177
 2899DPPE   C2A56646  12.811   5.679  10.613 -0.1190  0.0128  0.2573
 2899DPPE   C3A56647  12.433   5.382  10.517  0.1473 -0.0792  0.0089
 2899DPPE   C4A56648  11.988   5.459  10.486  0.1912 -0.0039  0.3843
 2899DPPE   C1B56649  12.898   5.484  11.058 -0.0956 -0.0506 -0.3877
 2899DPPE   C2B56650  12.676   5.141  10.922  0.1132  0.4756  0.1178
 2899DPPE   C3B56651  12.658   4.910  10.498  0.0838 -0.3536  0.0784
 2899DPPE   C4B56652  12.557   4.789  10.093 -0.1250 -0.0613  0.0918
 2900DPPE   NH356653  12.369  20.874  21.796  0.0027 -0.0373 -0.2537
 2900DPPE   PO456654  12.571  20.639  22.148  0.0508 -0.4672  0.1637
 2900DPPE   GL156655  12.711  20.379  21.754  0.1517 -0.1529 -0.1798
 2900DPPE   GL256656  12.539  20.134  21.705  0.0026 -0.3938  0.1159
 2900DPPE   C1A56657  13.179  20.293  21.647  0.0720 -0.3143  0.0515
 2900DPPE   C2A56658  13.550  20.291  21.591  0.0734 -0.4473 -0.0331
 2900DPPE   C3A56659  14.165  20.411  21.394 -0.0296  0.2119 -0.0138
 2900DPPE   C4A56660  14.405  20.791  21.360  0.2289 -0.2441 -0.1256
 2900DPPE   C1B56661  12.900  19.906  21.627 -0.1137  0.3461 -0.1413
 2900DPPE   C2B56662  13.221  19.903  21.280 -0.0399 -0.0557  0.0710
 2900DPPE   C3B56663  13.307  19.739  20.867 -0.2039 -0.1475 -0.1277
 2900DPPE   C4B56664  13.479  19.820  20.530 -0.2300  0.1488  0.0279
 2901DPPE   NH356665   6.910  15.584   9.741  0.0218  0.1898  0.1876
 2901DPPE   PO456666   6.676  15.313   9.651 -0.1185  0.1681  0.0507
 2901DPPE   GL156667   6.907  14.969   9.697  0.0139  0.0284  0.0597
 2901DPPE   GL256668   7.217  15.228   9.642 -0.1335 -0.1246 -0.0042
 2901DPPE   C1A56669   7.150  14.797  10.054 -0.0248  0.1470  0.2513
 2901DPPE   C2A56670   7.276  14.453  10.324 -0.1516  0.0329  0.1555
 2901DPPE   C3A56671   7.515  14.121  10.639  0.0887  0.0031  0.0325
 2901DPPE   C4A56672   7.824  13.826  10.765 -0.3469 -0.0676 -0.1906
 2901DPPE   C1B56673   7.512  14.911   9.691  0.1944 -0.0240  0.0263
 2901DPPE   C2B56674   7.669  14.649  10.040  0.0986  0.2229 -0.0025
 2901DPPE   C3B56675   7.947  14.238  10.250 -0.1303 -0.0428 -0.0265
 2901DPPE   C4B56676   8.042  13.747  10.213  0.3898 -0.2246 -0.0244
 2902DPPE   NH356677   8.720  32.697  16.747  0.0983  0.1025 -0.0455
 2902DPPE   PO456678   9.039  33.002  16.541 -0.0193 -0.0197  0.0941
 2902DPPE   GL156679   8.941  33.513  16.571  0.1120  0.1057 -0.2473
 2902DPPE   GL256680   8.951  33.882  16.687 -0.1383 -0.0849 -0.0310
 2902DPPE   C1A56681   8.756  33.702  16.112  0.0195 -0.0455 -0.0524
 2902DPPE   C2A56682   8.445  33.925  15.906  0.0693  0.2131  0.4157
 2902DPPE   C3A56683   8.263  34.301  15.751 -0.1962  0.0507 -0.1167
 2902DPPE   C4A56684   8.168  34.466  15.337  0.0169  0.0025 -0.1110
 2902DPPE   C1B56685   8.739  34.146  16.327 -0.2019 -0.0148  0.0508
 2902DPPE   C2B56686   8.668  34.443  15.956 -0.0026 -0.0037  0.1228
 2902DPPE   C3B56687   9.071  34.605  15.766  0.0820  0.0862  0.1222
 2902DPPE   C4B56688   9.449  34.669  15.612  0.0496 -0.0734 -0.0926
 2903DPPE   NH356689  17.149   9.238  27.444  0.1441 -0.0698  0.0555
 2903DPPE   PO456690  16.684   9.111  27.284 -0.2187  0.2728 -0.1394
 2903DPPE   GL156691  16.731   9.085  26.859  0.0705  0.0833 -0.0453
 2903DPPE   GL256692  16.763   8.804  26.617 -0.3578 -0.0684 -0.0583
 2903DPPE   C1A56693  17.090   9.336  26.644 -0.1427 -0.2363 -0.1672
 2903DPPE   C2A56694  17.463   9.231  26.411 -0.1370 -0.0365  0.5010
 2903DPPE   C3A56695  17.945   9.273  26.293  0.0930 -0.0251 -0.3671
 2903DPPE   C4A56696  18.298   9.333  26.560 -0.0614  0.2581  0.1321
 2903DPPE   C1B56697  16.889   9.107  26.224  0.0813 -0.2257 -0.1603
 2903DPPE   C2B56698  17.064   8.914  25.865  0.1040  0.0511 -0.4258
 2903DPPE   C3B56699  17.273   8.525  25.731 -0.1727 -0.0976 -0.0908
 2903DPPE   C4B56700  17.745   8.435  25.936 -0.3745  0.1146  0.1379
 2904DPPE   NH356701  13.471  33.344   6.783 -0.1235 -0.1365  0.0358
 2904DPPE   PO456702  13.876  33.448   6.857 -0.1595  0.0922  0.1039
 2904DPPE   GL156703  13.897  33.465   7.279  0.0141 -0.0574 -0.1808
 2904DPPE   GL256704  14.260  33.471   7.345 -0.1970  0.0109 -0.0867
 2904DPPE   C1A56705  13.723  33.421   7.717 -0.1075  0.0494 -0.0841
 2904DPPE   C2A56706  13.719  33.693   8.168  0.0633 -0.0096 -0.0688
 2904DPPE   C3A56707  13.666  34.132   8.272 -0.4183  0.0279 -0.1003
 2904DPPE   C4A56708  13.897  34.461   8.449 -0.2406 -0.1207 -0.0351
 2904DPPE   C1B56709  14.084  33.916   7.229  0.1593 -0.1318 -0.2793
 2904DPPE   C2B56710  13.919  34.279   7.287 -0.0375  0.0530  0.3625
 2904DPPE   C3B56711  14.064  34.756   7.185 -0.0327  0.0656  0.4082
 2904DPPE   C4B56712  14.379  35.035   7.346  0.2829 -0.0125  0.1302
 2905DPPE   NH356713   3.896   0.220  12.080 -0.0126  0.1301 -0.3563
 2905DPPE   PO456714   4.160   0.018  11.830  0.0927  0.4157  0.3035
 2905DPPE   GL156715   4.449   0.317  11.954  0.0105  0.0113  0.0393
 2905DPPE   GL256716   4.500   0.124  12.234 -0.3510  0.4823  0.1836
 2905DPPE   C1A56717   4.587   0.612  11.681  0.1524 -0.1788  0.1731
 2905DPPE   C2A56718   4.761   1.102  11.518  0.3477  0.3260 -0.4705
 2905DPPE   C3A56719   4.846   1.467  11.323 -0.0632  0.0241 -0.1637
 2905DPPE   C4A56720   4.818   1.930  11.355  0.4498  0.0148  0.0175
 2905DPPE   C1B56721   4.685   0.553  12.325  0.0586 -0.0425 -0.3747
 2905DPPE   C2B56722   4.907   0.986  12.374 -0.0091  0.1231 -0.0684
 2905DPPE   C3B56723   5.099   1.386  12.601  0.1959 -0.0018 -0.0686
 2905DPPE   C4B56724   5.493   1.546  12.586 -0.1108 -0.1680  0.0398
 2906DPPE   NH356725  17.389  22.540  16.043  0.1651 -0.3816 -0.3825
 2906DPPE   PO456726  17.690  22.675  16.388 -0.0875 -0.1352 -0.0127
 2906DPPE   GL156727  17.605  22.313  16.535 -0.0552 -0.0294 -0.0718
 2906DPPE   GL256728  17.944  22.067  16.529  0.0492  0.1151  0.0661
 2906DPPE   C1A56729  17.421  21.885  16.614  0.1904 -0.1500  0.0389
 2906DPPE   C2A56730  17.295  21.454  16.614 -0.2683  0.0952 -0.0234
 2906DPPE   C3A56731  17.379  20.931  16.571  0.1252  0.2915  0.1884
 2906DPPE   C4A56732  17.645  20.692  16.267  0.0318 -0.2343  0.1033
 2906DPPE   C1B56733  17.986  21.578  16.619 -0.1437  0.0461  0.1365
 2906DPPE   C2B56734  18.139  21.216  16.751  0.1600  0.0153 -0.3419
 2906DPPE   C3B56735  18.179  21.027  17.158 -0.2673  0.0174  0.0421
 2906DPPE   C4B56736  18.225  20.992  17.614  0.0558 -0.0361  0.1803
 2907DPPE   NH356737  28.048  11.462  11.396 -0.3285 -0.2669 -0.2482
 2907DPPE   PO456738  28.105  11.276  11.782  0.1104  0.1215 -0.2559
 2907DPPE   GL156739  27.690  11.095  11.986 -0.0687  0.1831 -0.0596
 2907DPPE   GL256740  27.519  10.834  11.963 -0.0943 -0.0325  0.1804
 2907DPPE   C1A56741  27.556  11.133  12.363  0.0206 -0.2527 -0.0489
 2907DPPE   C2A56742  27.251  11.101  12.743 -0.2201  0.2497  0.0082
 2907DPPE   C3A56743  26.898  10.886  12.842 -0.4986 -0.1165 -0.0212
 2907DPPE   C4A56744  26.491  10.951  12.808 -0.1095 -0.0259 -0.2152
 2907DPPE   C1B56745  27.324  10.700  12.367 -0.1158  0.0296  0.0629
 2907DPPE   C2B56746  27.266  10.533  12.742  0.1601  0.1054 -0.2461
 2907DPPE   C3B56747  27.406  10.281  13.001  0.0540  0.2257  0.2280
 2907DPPE   C4B56748  27.681   9.918  13.208 -0.0691 -0.0233 -0.1596
 2908DPPE   NH356749  12.679  21.354  20.624 -0.4165  0.4417 -0.2942
 2908DPPE   PO456750  13.084  21.148  20.687  0.1102  0.0207  0.2478
 2908DPPE   GL156751  13.363  20.943  20.476  0.0941  0.1661  0.0185
 2908DPPE   GL256752  13.542  20.815  20.720  0.1034 -0.2386  0.0579
 2908DPPE   C1A56753  13.672  20.955  20.146  0.2018  0.2059  0.2280
 2908DPPE   C2A56754  13.947  21.058  19.856  0.1831 -0.0576 -0.2448
 2908DPPE   C3A56755  14.332  21.321  19.997 -0.0525  0.3508 -0.0808
 2908DPPE   C4A56756  14.779  21.183  20.091  0.1836  0.0765  0.1326
 2908DPPE   C1B56757  13.968  20.727  20.496  0.0587  0.1252 -0.1703
 2908DPPE   C2B56758  14.093  20.404  20.262  0.0960  0.3192  0.0701
 2908DPPE   C3B56759  13.944  19.848  20.278 -0.1158 -0.0162  0.0057
 2908DPPE   C4B56760  13.973  19.446  20.484 -0.3578  0.0471 -0.0494
 2909DPPE   NH356761  27.493  13.796  12.276 -0.0408 -0.1739 -0.2703
 2909DPPE   PO456762  27.741  13.379  12.325 -0.4082 -0.0296 -0.1388
 2909DPPE   GL156763  27.303  13.326  12.157 -0.0968  0.1588 -0.2480
 2909DPPE   GL256764  27.086  13.247  11.894 -0.0239  0.1194 -0.1573
 2909DPPE   C1A56765  26.872  13.523  12.280 -0.1725 -0.0354 -0.1313
 2909DPPE   C2A56766  26.458  13.685  12.546  0.2134 -0.0947 -0.0978
 2909DPPE   C3A56767  26.267  13.486  13.007 -0.0039 -0.1162  0.1478
 2909DPPE   C4A56768  26.036  13.190  12.919  0.0020  0.0520  0.3068
 2909DPPE   C1B56769  26.618  13.263  11.864  0.0008  0.1410 -0.0773
 2909DPPE   C2B56770  26.272  13.441  12.146  0.2492 -0.0742 -0.2894
 2909DPPE   C3B56771  26.054  13.417  12.535  0.0130 -0.1987  0.0085
 2909DPPE   C4B56772  25.774  13.605  12.860 -0.0550  0.0978  0.1480
 2910DPPE   NH356773  19.950  20.482  10.593 -0.1508 -0.2350 -0.1884
 2910DPPE   PO456774  19.637  20.729  10.374  0.1322  0.2438 -0.0668
 2910DPPE   GL156775  19.465  20.304  10.541  0.1653  0.0800 -0.1183
 2910DPPE   GL256776  19.524  20.099  10.299 -0.0378 -0.0805 -0.2536
 2910DPPE   C1A56777  19.215  20.132  10.923  0.1497 -0.1020 -0.1191
 2910DPPE   C2A56778  18.967  20.167  11.431  0.3953  0.0459  0.0766
 2910DPPE   C3A56779  18.731  19.940  11.600  0.1264 -0.2326 -0.0838
 2910DPPE   C4A56780  18.512  19.595  11.793  0.0427  0.1733 -0.1414
 2910DPPE   C1B56781  19.763  19.790  10.079 -0.0068  0.0691 -0.4562
 2910DPPE   C2B56782  19.697  19.476   9.849 -0.3142  0.0484 -0.0717
 2910DPPE   C3B56783  19.768  19.118   9.662  0.0665  0.1294  0.0069
 2910DPPE   C4B56784  20.046  18.704   9.597  0.1532 -0.4182  0.0439
 2911DPPE   NH356785  10.292  15.678   6.594  0.1038  0.2062  0.0920
 2911DPPE   PO456786  10.627  15.577   6.446 -0.1707 -0.2425  0.4093
 2911DPPE   GL156787  10.869  15.264   6.282 -0.2865 -0.0296  0.0357
 2911DPPE   GL256788  10.792  14.982   6.084 -0.0181  0.0585 -0.2179
 2911DPPE   C1A56789  11.039  14.967   6.505  0.0062  0.3769 -0.1041
 2911DPPE   C2A56790  11.351  14.544   6.398 -0.0404 -0.1605 -0.1302
 2911DPPE   C3A56791  11.318  14.282   6.828 -0.0739 -0.1103  0.0208
 2911DPPE   C4A56792  11.008  13.909   7.071  0.0551 -0.2285 -0.2789
 2911DPPE   C1B56793  10.935  14.585   6.143 -0.2743 -0.0961  0.1694
 2911DPPE   C2B56794  11.013  14.184   6.440  0.1365 -0.2150 -0.0116
 2911DPPE   C3B56795  10.737  13.925   6.597  0.0929 -0.1279 -0.3242
 2911DPPE   C4B56796  10.382  14.211   6.629  0.0075 -0.2271  0.0888
 2912DPPE   NH356797  12.262  21.633  13.593  0.3488  0.3484  0.0297
 2912DPPE   PO456798  12.262  21.532  13.210  0.3488 -0.1687 -0.0164
 2912DPPE   GL156799  12.212  21.105  13.410 -0.1813 -0.1464  0.2945
 2912DPPE   GL256800  11.915  20.900  13.423  0.0240  0.0523 -0.1385
 2912DPPE   C1A56801  12.557  20.933  13.690  0.2126 -0.1414  0.0370
 2912DPPE   C2A56802  12.903  20.977  13.973  0.1106 -0.2741 -0.0716
 2912DPPE   C3A56803  13.305  20.772  13.952  0.1130 -0.0406  0.1607
 2912DPPE   C4A56804  13.606  20.611  13.753  0.0536  0.3447 -0.1062
 2912DPPE   C1B56805  11.928  20.519  13.139  0.0326  0.1781 -0.1090
 2912DPPE   C2B56806  11.955  20.086  13.051  0.3683  0.2482 -0.3826
 2912DPPE   C3B56807  12.230  19.718  12.999  0.4153 -0.0124 -0.1430
 2912DPPE   C4B56808  12.511  19.445  12.814  0.0160 -0.1046  0.0336
 2913DPPE   NH356809  12.877   4.671  13.490  0.3226  0.2317 -0.0100
 2913DPPE   PO456810  12.508   4.864  13.289  0.0164  0.1270  0.2652
 2913DPPE   GL156811  12.258   4.474  13.061  0.1741 -0.0758  0.1091
 2913DPPE   GL256812  12.170   4.258  13.288 -0.1719  0.0336 -0.0683
 2913DPPE   C1A56813  12.003   4.188  12.810  0.0180  0.3391 -0.1741
 2913DPPE   C2A56814  11.633   4.054  12.607 -0.1777 -0.0279 -0.1315
 2913DPPE   C3A56815  11.642   4.123  12.146 -0.3820 -0.3620 -0.0341
 2913DPPE   C4A56816  11.862   3.740  11.855  0.4266  0.2213 -0.4234
 2913DPPE   C1B56817  12.265   3.830  13.033  0.0592 -0.2914 -0.0413
 2913DPPE   C2B56818  12.233   3.448  13.260 -0.0030 -0.1554  0.1286
 2913DPPE   C3B56819  12.103   3.077  13.223  0.0798 -0.1023 -0.0977
 2913DPPE   C4B56820  11.996   2.725  12.870  0.0629  0.0618  0.1209
 2914DPPE   NH356821  17.619  12.983  27.753 -0.0230 -0.0568  0.1785
 2914DPPE   PO456822  17.551  13.451  27.556  0.1951  0.0820  0.1536
 2914DPPE   GL156823  17.378  13.213  27.319  0.2185 -0.1814  0.2047
 2914DPPE   GL256824  17.105  13.233  27.267  0.0883  0.1518  0.0050
 2914DPPE   C1A56825  17.514  13.179  26.931 -0.0235 -0.1042  0.1629
 2914DPPE   C2A56826  17.394  13.201  26.540 -0.2836  0.0813 -0.0663
 2914DPPE   C3A56827  17.259  13.455  26.165  0.3542  0.1186 -0.2183
 2914DPPE   C4A56828  17.074  13.755  25.941 -0.1313 -0.1103 -0.0071
 2914DPPE   C1B56829  16.793  13.032  26.950 -0.1470  0.1195 -0.2916
 2914DPPE   C2B56830  16.559  13.127  26.709 -0.0600  0.0787 -0.1413
 2914DPPE   C3B56831  16.437  13.082  26.218 -0.1752 -0.2999 -0.3610
 2914DPPE   C4B56832  16.432  12.945  25.796  0.0209 -0.3627  0.4886
 2915DPPE   NH356833   7.483  14.408   5.955 -0.1130 -0.0923 -0.0227
 2915DPPE   PO456834   7.493  14.557   6.283  0.0823  0.2858 -0.2188
 2915DPPE   GL156835   7.379  14.235   6.560  0.1310  0.0170  0.0172
 2915DPPE   GL256836   7.528  14.248   6.920 -0.0838 -0.0128  0.0766
 2915DPPE   C1A56837   7.075  13.871   6.701 -0.0602 -0.1428 -0.3740
 2915DPPE   C2A56838   7.345  13.570   6.861  0.2168 -0.1125  0.0506
 2915DPPE   C3A56839   7.729  13.437   6.710  0.2243  0.0150 -0.0944
 2915DPPE   C4A56840   7.966  13.418   6.259  0.0405 -0.1898  0.0007
 2915DPPE   C1B56841   7.401  13.939   7.186 -0.3401 -0.0018  0.0615
 2915DPPE   C2B56842   7.606  13.687   7.394  0.0796 -0.0341 -0.0915
 2915DPPE   C3B56843   8.010  13.481   7.400  0.1680  0.1563 -0.0493
 2915DPPE   C4B56844   8.460  13.369   7.452  0.0550 -0.2403 -0.0108
 2916DPPE   NH356845   1.009   7.462  15.238 -0.0432  0.0441 -0.0222
 2916DPPE   PO456846   1.048   7.380  15.629 -0.0673 -0.0196 -0.0162
 2916DPPE   GL156847   1.473   7.332  15.428 -0.1435  0.1834  0.0680
 2916DPPE   GL256848   1.715   7.238  15.579 -0.3769  0.1601  0.1876
 2916DPPE   C1A56849   1.740   7.466  15.130 -0.2532 -0.1024  0.0109
 2916DPPE   C2A56850   2.137   7.581  14.876 -0.1476 -0.0587  0.0485
 2916DPPE   C3A56851   2.561   7.769  14.630 -0.1379  0.3635 -0.0454
 2916DPPE   C4A56852   2.828   7.567  14.245 -0.2750  0.1702  0.0242
 2916DPPE   C1B56853   1.981   7.439  15.896 -0.0603 -0.1467 -0.0080
 2916DPPE   C2B56854   2.426   7.673  15.793 -0.0095  0.0711  0.3006
 2916DPPE   C3B56855   2.831   7.862  15.617  0.0204 -0.0892 -0.2823
 2916DPPE   C4B56856   3.242   8.003  15.749 -0.1945  0.0654  0.2091
 2917DPPE   NH356857  14.308  21.892  13.005  0.0532 -0.0104 -0.1823
 2917DPPE   PO456858  14.051  21.879  13.345  0.0917  0.1046 -0.0727
 2917DPPE   GL156859  14.430  21.567  13.364 -0.0624  0.4103  0.2247
 2917DPPE   GL256860  14.652  21.345  13.132 -0.2580 -0.0253 -0.0745
 2917DPPE   C1A56861  14.674  21.402  13.625 -0.2827 -0.0024  0.0834
 2917DPPE   C2A56862  14.942  21.282  13.957  0.1557  0.0455  0.0035
 2917DPPE   C3A56863  15.025  20.886  14.209 -0.1027  0.1279  0.3257
 2917DPPE   C4A56864  14.763  20.723  14.372  0.0878 -0.1866 -0.0446
 2917DPPE   C1B56865  14.838  20.920  13.379 -0.0727 -0.0058  0.2720
 2917DPPE   C2B56866  15.154  20.861  13.703  0.1087  0.0497  0.1388
 2917DPPE   C3B56867  15.478  20.818  13.921  0.1641 -0.0405  0.3551
 2917DPPE   C4B56868  15.758  21.039  13.807 -0.0062  0.4302  0.0075
 2918DPPE   NH356869  14.516  11.752   8.273  0.0515  0.2094 -0.2386
 2918DPPE   PO456870  14.115  11.401   8.264 -0.1818  0.2064 -0.0057
 2918DPPE   GL156871  13.965  11.125   7.863 -0.1488 -0.2069  0.0193
 2918DPPE   GL256872  14.204  10.875   7.746 -0.1610 -0.1435  0.1166
 2918DPPE   C1A56873  13.971  11.142   7.378 -0.0600 -0.1204 -0.0702
 2918DPPE   C2A56874  14.290  11.299   6.924 -0.1415  0.0176  0.2094
 2918DPPE   C3A56875  14.180  11.356   6.445 -0.0893  0.1628 -0.0969
 2918DPPE   C4A56876  13.868  11.387   6.154 -0.0548  0.3201  0.0208
 2918DPPE   C1B56877  14.217  10.394   7.838  0.1597 -0.0665 -0.1389
 2918DPPE   C2B56878  13.860  10.161   8.083  0.1786 -0.0649  0.2371
 2918DPPE   C3B56879  13.483   9.868   8.291 -0.1069  0.2731  0.1015
 2918DPPE   C4B56880  13.430   9.460   8.338  0.1450 -0.1180 -0.2376
 2919DPPE   NH356881  12.444   9.380  22.675 -0.2015 -0.0800  0.0058
 2919DPPE   PO456882  12.737   9.406  22.501  0.1111 -0.1183 -0.1178
 2919DPPE   GL156883  12.822   9.367  23.042 -0.0882 -0.1323  0.0883
 2919DPPE   GL256884  12.589   9.606  23.079 -0.2949 -0.3505 -0.0718
 2919DPPE   C1A56885  12.992   9.576  23.520 -0.0896  0.0242 -0.1827
 2919DPPE   C2A56886  12.690   9.495  23.820  0.0462  0.0305 -0.1024
 2919DPPE   C3A56887  12.397   9.362  24.041 -0.0667  0.1599 -0.1492
 2919DPPE   C4A56888  12.220   9.359  24.434  0.0794  0.1601  0.0753
 2919DPPE   C1B56889  12.416   9.502  23.412 -0.1862  0.0229 -0.0351
 2919DPPE   C2B56890  12.132   9.543  23.661  0.3861  0.1340  0.1991
 2919DPPE   C3B56891  12.044   9.684  24.058 -0.0112 -0.0317  0.0110
 2919DPPE   C4B56892  11.805  10.012  24.370 -0.0172  0.1176 -0.1019
 2920DPPE   NH356893  11.009  33.186   8.546  0.0437  0.1986  0.1632
 2920DPPE   PO456894  11.311  32.858   8.315 -0.0041 -0.2313  0.4400
 2920DPPE   GL156895  11.463  33.351   8.546  0.0128 -0.0238  0.2010
 2920DPPE   GL256896  11.546  33.302   8.833 -0.0457  0.2490 -0.0736
 2920DPPE   C1A56897  11.772  33.649   8.349 -0.1761  0.2259  0.1484
 2920DPPE   C2A56898  12.085  33.940   8.444 -0.1279 -0.3143 -0.0190
 2920DPPE   C3A56899  12.286  34.353   8.624 -0.3052 -0.0139 -0.2869
 2920DPPE   C4A56900  12.704  34.436   8.825 -0.0867  0.2190  0.2167
 2920DPPE   C1B56901  11.400  33.512   9.263 -0.3692  0.0107 -0.1155
 2920DPPE   C2B56902  11.340  33.681   9.624  0.2332  0.1104  0.5222
 2920DPPE   C3B56903  11.461  33.961   9.969  0.1790 -0.1585 -0.0297
 2920DPPE   C4B56904  11.912  34.045  10.060 -0.1964  0.0024 -0.0167
 2921DPPE   NH356905   9.439  19.727  12.468  0.2520 -0.0993 -0.1884
 2921DPPE   PO456906   9.368  19.675  12.005  0.2112  0.0744 -0.4221
 2921DPPE   GL156907   9.706  19.333  12.205 -0.1873 -0.0499 -0.3152
 2921DPPE   GL256908   9.553  19.012  12.389 -0.0916  0.0076 -0.0971
 2921DPPE   C1A56909   9.940  18.990  12.036 -0.0419  0.1079  0.0315
 2921DPPE   C2A56910  10.029  18.566  11.853  0.0170  0.0082 -0.1420
 2921DPPE   C3A56911  10.094  18.261  12.114  0.1958  0.0076 -0.1078
 2921DPPE   C4A56912  10.224  18.199  12.558 -0.2991 -0.0026 -0.0361
 2921DPPE   C1B56913   9.643  18.776  12.823 -0.1453  0.0330  0.3617
 2921DPPE   C2B56914   9.774  18.424  13.070 -0.2899 -0.2181 -0.0898
 2921DPPE   C3B56915  10.019  18.135  13.062 -0.0379  0.0648  0.0147
 2921DPPE   C4B56916  10.377  17.885  13.019  0.2213  0.0662 -0.1527
 2922DPPE   NH356917  13.519   6.268  26.730  0.0563  0.4353 -0.1283
 2922DPPE   PO456918  13.262   6.559  26.903 -0.0783  0.0822  0.0164
 2922DPPE   GL156919  13.481   6.742  26.611 -0.0802 -0.1621 -0.2019
 2922DPPE   GL256920  13.450   7.078  26.679  0.1822 -0.1181 -0.1862
 2922DPPE   C1A56921  13.662   6.830  26.252  0.2652  0.1318  0.2930
 2922DPPE   C2A56922  13.722   6.845  25.836 -0.2727  0.0284  0.1816
 2922DPPE   C3A56923  13.523   6.661  25.593 -0.0323  0.5655  0.0820
 2922DPPE   C4A56924  13.268   6.355  25.491  0.0397  0.2486 -0.2997
 2922DPPE   C1B56925  13.351   7.268  26.306  0.0528  0.0948 -0.2065
 2922DPPE   C2B56926  13.761   7.454  26.079  0.1352 -0.2818 -0.1725
 2922DPPE   C3B56927  13.599   7.718  25.721  0.0985 -0.0253 -0.1174
 2922DPPE   C4B56928  13.646   8.204  25.531  0.1584 -0.4708  0.0710
 2923DPPE   NH356929  20.758  14.838   6.102 -0.2222  0.0454  0.4680
 2923DPPE   PO456930  20.969  14.466   5.873  0.1638 -0.1878  0.1297
 2923DPPE   GL156931  20.591  14.347   5.924 -0.1110 -0.2154  0.3850
 2923DPPE   GL256932  20.313  14.688   6.092 -0.1006  0.1301  0.2390
 2923DPPE   C1A56933  20.500  14.168   6.322 -0.1911 -0.0306  0.0436
 2923DPPE   C2A56934  20.280  14.153   6.695 -0.1573 -0.1740 -0.0223
 2923DPPE   C3A56935  19.982  13.990   7.043  0.1303  0.1779  0.0873
 2923DPPE   C4A56936  19.595  14.059   7.075 -0.0966 -0.3265 -0.1435
 2923DPPE   C1B56937  20.287  14.594   6.490  0.0757  0.3710  0.2011
 2923DPPE   C2B56938  20.380  14.600   6.917 -0.2212  0.0101  0.1362
 2923DPPE   C3B56939  20.379  14.427   7.329  0.0571 -0.4053 -0.0510
 2923DPPE   C4B56940  20.210  14.458   7.738 -0.1917 -0.0199  0.1354
 2924DPPE   NH356941  16.333  33.912  19.119  0.1278  0.2027 -0.1139
 2924DPPE   PO456942  16.318  34.254  19.282 -0.1118 -0.0889  0.0547
 2924DPPE   GL156943  16.397  34.753  19.439 -0.2922  0.2201  0.5203
 2924DPPE   GL256944  16.645  35.036  19.388 -0.1511 -0.2135 -0.2275
 2924DPPE   C1A56945  16.165  35.137  19.354  0.1413  0.0149 -0.1701
 2924DPPE   C2A56946  15.987  35.300  18.809  0.0271 -0.0543 -0.0932
 2924DPPE   C3A56947  15.890  35.513  18.445 -0.1317  0.2442 -0.0859
 2924DPPE   C4A56948  15.838  35.840  18.211  0.2568  0.1738 -0.2052
 2924DPPE   C1B56949  16.534  35.360  19.537  0.1139  0.1368  0.0539
 2924DPPE   C2B56950  16.238  35.743  19.546 -0.0521  0.0127 -0.1532
 2924DPPE   C3B56951  16.309  36.098  19.276  0.2530 -0.1300  0.0752
 2924DPPE   C4B56952  16.607  36.439  19.149 -0.1564  0.2544  0.2626
 2925DPPE   NH356953  13.510  10.968   9.385  0.0460  0.2141 -0.4630
 2925DPPE   PO456954  13.736  10.599   9.472  0.3460  0.1464 -0.1314
 2925DPPE   GL156955  13.417  10.482   9.197  0.0584  0.0504 -0.1377
 2925DPPE   GL256956  13.037  10.617   9.242 -0.3254  0.0396 -0.1501
 2925DPPE   C1A56957  13.297  10.444   8.745  0.3430 -0.0932  0.0773
 2925DPPE   C2A56958  13.245  10.370   8.298  0.1415 -0.2095 -0.1991
 2925DPPE   C3A56959  13.307  10.283   7.905 -0.0112 -0.1500 -0.0170
 2925DPPE   C4A56960  13.194  10.110   7.504 -0.1931 -0.0336 -0.0321
 2925DPPE   C1B56961  12.899  10.276   9.104 -0.1091  0.3816  0.3120
 2925DPPE   C2B56962  12.795  10.202   8.737  0.1839  0.4993 -0.2788
 2925DPPE   C3B56963  12.755  10.451   8.541  0.0283  0.1354  0.5168
 2925DPPE   C4B56964  12.823  10.536   8.068  0.0288  0.1319 -0.0855
 2926DPPE   NH356965  21.014  36.130   9.469  0.0728 -0.3130  0.3204
 2926DPPE   PO456966  20.938  36.011   9.927 -0.0203 -0.0735 -0.0432
 2926DPPE   GL156967  20.673  36.360   9.792  0.1295 -0.0948  0.1000
 2926DPPE   GL256968  20.783  36.596   9.494 -0.0295  0.0402 -0.1783
 2926DPPE   C1A56969  20.286  36.631   9.948 -0.2970 -0.0104  0.2039
 2926DPPE   C2A56970  20.389  37.104  10.140  0.0206  0.0838 -0.0178
 2926DPPE   C3A56971  20.780  37.301  10.100  0.2237 -0.2365  0.0502
 2926DPPE   C4A56972  21.136  37.044  10.171 -0.0803  0.1658 -0.1362
 2926DPPE   C1B56973  20.859  36.979   9.286  0.0319 -0.2417 -0.1417
 2926DPPE   C2B56974  20.952  37.388   9.152 -0.0393 -0.2151  0.3357
 2926DPPE   C3B56975  21.112  37.785   9.188  0.3353  0.0747  0.1863
 2926DPPE   C4B56976  21.054  38.202   8.894 -0.2495  0.2830  0.0464
 2927DPPE   NH356977  16.589   7.596   9.722 -0.0523  0.0744 -0.1207
 2927DPPE   PO456978  16.315   7.677   9.429  0.0686  0.1257  0.0518
 2927DPPE   GL156979  16.216   7.573   9.007 -0.0861 -0.3496  0.2558
 2927DPPE   GL256980  16.482   7.696   8.838 -0.0174 -0.2122  0.2281
 2927DPPE   C1A56981  16.138   7.422   8.568 -0.0000 -0.4903  0.1811
 2927DPPE   C2A56982  15.799   7.445   8.221  0.1070  0.0793 -0.1294
 2927DPPE   C3A56983  15.442   7.856   8.387  0.3282  0.2380  0.0401
 2927DPPE   C4A56984  15.372   8.097   8.663 -0.1514  0.0544 -0.0188
 2927DPPE   C1B56985  16.373   7.870   8.419 -0.0998 -0.2327 -0.2079
 2927DPPE   C2B56986  16.036   7.815   8.104  0.0721 -0.0009 -0.0482
 2927DPPE   C3B56987  15.806   8.147   7.899 -0.0083  0.0938 -0.0603
 2927DPPE   C4B56988  15.432   8.262   7.791 -0.0908 -0.0162 -0.1641
 2928DPPE   NH356989  26.841  16.445  13.642 -0.0306  0.0155 -0.0491
 2928DPPE   PO456990  26.646  16.495  13.251 -0.0791  0.1214  0.1652
 2928DPPE   GL156991  26.362  16.347  13.420  0.1184 -0.2353 -0.0669
 2928DPPE   GL256992  26.475  16.201  13.806  0.1139  0.0918 -0.0611
 2928DPPE   C1A56993  26.121  15.956  13.488  0.0579  0.0090  0.0155
 2928DPPE   C2A56994  25.897  15.604  13.496 -0.5518  0.1089  0.2183
 2928DPPE   C3A56995  26.021  15.152  13.695  0.3181  0.3358  0.2395
 2928DPPE   C4A56996  25.860  14.786  13.778  0.0654 -0.1886 -0.1100
 2928DPPE   C1B56997  26.078  16.408  13.812  0.0658 -0.1813  0.1569
 2928DPPE   C2B56998  25.746  16.549  13.503  0.4082 -0.1521 -0.1171
 2928DPPE   C3B56999  25.445  16.661  13.192  0.2332  0.1658  0.3824
 2928DPPE   C4B57000  25.054  16.570  12.972 -0.0583  0.2095 -0.1792
 2929DPPE   NH357001  10.821   7.932  13.706 -0.4038 -0.1717 -0.0551
 2929DPPE   PO457002  10.554   7.695  13.601 -0.0852 -0.0364  0.0249
 2929DPPE   GL157003  10.320   7.610  13.196  0.4254 -0.1318 -0.1091
 2929DPPE   GL257004  10.055   7.768  13.386  0.0802 -0.0455 -0.0042
 2929DPPE   C1A57005   9.925   7.502  12.871 -0.0207 -0.0416  0.0216
 2929DPPE   C2A57006   9.631   7.202  12.833  0.0113  0.0603 -0.0937
 2929DPPE   C3A57007   9.367   6.850  12.674  0.0833 -0.2102  0.1489
 2929DPPE   C4A57008   9.331   6.577  13.012 -0.0084 -0.0884  0.3627
 2929DPPE   C1B57009   9.708   7.612  13.653  0.1287 -0.1483 -0.0409
 2929DPPE   C2B57010   9.376   7.335  13.874  0.3652  0.0047  0.0475
 2929DPPE   C3B57011   9.168   7.013  14.063 -0.0358  0.2837  0.0655
 2929DPPE   C4B57012   8.691   6.959  14.068 -0.1078 -0.0463 -0.1677
 2930DPPE   NH357013  18.126   6.068   9.812  0.1125  0.0538 -0.1516
 2930DPPE   PO457014  18.372   6.232   9.531 -0.0582 -0.2169 -0.0981
 2930DPPE   GL157015  18.419   6.072   9.170 -0.0748 -0.3113  0.2905
 2930DPPE   GL257016  18.339   6.323   9.033 -0.0494  0.3069 -0.0404
 2930DPPE   C1A57017  18.336   5.781   8.802 -0.0085 -0.5159  0.1581
 2930DPPE   C2A57018  18.059   5.470   8.722 -0.1354  0.2102  0.2523
 2930DPPE   C3A57019  17.785   5.120   8.526  0.4682 -0.0541  0.3385
 2930DPPE   C4A57020  17.718   4.745   8.380  0.1217  0.4153  0.1763
 2930DPPE   C1B57021  17.998   6.129   8.812 -0.1237 -0.1530  0.2245
 2930DPPE   C2B57022  17.813   5.935   8.551 -0.1503  0.0998  0.0214
 2930DPPE   C3B57023  17.842   5.552   8.270  0.2522 -0.2137 -0.0629
 2930DPPE   C4B57024  17.859   5.402   7.883 -0.0591 -0.1297 -0.2024
 2931DPPE   NH357025  13.911  18.694   6.681 -0.2425  0.0977  0.1219
 2931DPPE   PO457026  13.994  18.862   7.071 -0.3316  0.1289  0.1017
 2931DPPE   GL157027  13.895  18.492   7.145 -0.0400  0.0737 -0.2534
 2931DPPE   GL257028  14.073  18.239   7.193  0.0394  0.0797  0.0517
 2931DPPE   C1A57029  13.720  18.142   7.537  0.0990  0.0162 -0.0325
 2931DPPE   C2A57030  13.902  17.716   7.883  0.1833  0.3272 -0.3632
 2931DPPE   C3A57031  14.232  17.660   8.143 -0.1339 -0.1001 -0.0927
 2931DPPE   C4A57032  14.412  17.456   8.461  0.0845 -0.0805 -0.1117
 2931DPPE   C1B57033  14.268  17.884   7.450  0.3746  0.0146  0.0302
 2931DPPE   C2B57034  14.627  17.594   7.669  0.0018  0.0989  0.1807
 2931DPPE   C3B57035  14.690  17.411   8.063  0.0636 -0.2439 -0.2271
 2931DPPE   C4B57036  15.150  17.534   8.367  0.2999 -0.0949  0.2306
 2932DPPE   NH357037  21.275  35.399  18.429  0.0671 -0.0444  0.1536
 2932DPPE   PO457038  21.473  35.858  18.548 -0.3412 -0.0065  0.1637
 2932DPPE   GL157039  21.513  36.129  18.298 -0.0290  0.0181  0.0973
 2932DPPE   GL257040  21.879  36.047  18.085  0.3328  0.0174  0.3759
 2932DPPE   C1A57041  21.503  36.617  18.367 -0.1209 -0.1973 -0.1001
 2932DPPE   C2A57042  21.284  36.960  18.473 -0.1543 -0.2949 -0.0756
 2932DPPE   C3A57043  21.226  37.229  18.294  0.0540  0.1289 -0.1428
 2932DPPE   C4A57044  21.074  37.635  18.355  0.1123 -0.1695 -0.0252
 2932DPPE   C1B57045  21.463  36.399  17.909  0.2974 -0.0368  0.0620
 2932DPPE   C2B57046  21.335  36.893  17.964 -0.2220  0.2048 -0.1903
 2932DPPE   C3B57047  21.350  37.373  17.731 -0.2756  0.0352 -0.1776
 2932DPPE   C4B57048  21.558  37.805  17.588  0.2918 -0.0969 -0.0496
 2933DPPE   NH357049  26.896   8.259  10.026 -0.2457  0.0756 -0.4945
 2933DPPE   PO457050  26.960   8.032  10.407  0.0452  0.3189  0.2031
 2933DPPE   GL157051  26.652   8.188  10.513 -0.3318 -0.1399 -0.1211
 2933DPPE   GL257052  26.655   8.440  10.710 -0.2034 -0.0495 -0.2755
 2933DPPE   C1A57053  26.243   8.100  10.650 -0.1185  0.0735  0.1218
 2933DPPE   C2A57054  25.841   7.958  10.616 -0.0655 -0.4043 -0.1230
 2933DPPE   C3A57055  25.438   8.088  10.425  0.2626  0.0017 -0.2710
 2933DPPE   C4A57056  25.095   8.275  10.429  0.0686 -0.3603 -0.1099
 2933DPPE   C1B57057  26.321   8.608  10.642 -0.2116 -0.0255  0.0256
 2933DPPE   C2B57058  26.073   8.477  10.946  0.2012  0.2514 -0.0901
 2933DPPE   C3B57059  25.733   8.318  11.137 -0.1484  0.0221  0.2188
 2933DPPE   C4B57060  25.629   8.198  11.563  0.0037 -0.1377 -0.2234
 2934DPPE   NH357061  17.064   6.605  27.030 -0.0983  0.0253 -0.0064
 2934DPPE   PO457062  16.921   6.796  27.417 -0.0306 -0.2605  0.1652
 2934DPPE   GL157063  16.894   7.154  27.085 -0.1925  0.0226  0.1320
 2934DPPE   GL257064  16.984   7.510  27.165 -0.1083  0.1970 -0.0416
 2934DPPE   C1A57065  16.961   7.295  26.625  0.0614  0.1723 -0.0776
 2934DPPE   C2A57066  17.246   7.170  26.326 -0.1553 -0.0859  0.0226
 2934DPPE   C3A57067  17.476   7.030  25.999 -0.0499 -0.0539 -0.0008
 2934DPPE   C4A57068  17.607   7.194  25.536  0.2071 -0.0417 -0.0397
 2934DPPE   C1B57069  17.367   7.425  27.132 -0.1503  0.0453  0.1027
 2934DPPE   C2B57070  17.652   7.574  26.716 -0.0386 -0.3372  0.0058
 2934DPPE   C3B57071  17.520   7.638  26.305  0.5435 -0.0544  0.1762
 2934DPPE   C4B57072  17.589   7.567  25.917 -0.2396 -0.2539  0.1361
 2935DPPE   NH357073  10.020   5.737   1.627  0.0594 -0.4358 -0.1179
 2935DPPE   PO457074  10.287   6.123   1.503 -0.2563  0.2793  0.0170
 2935DPPE   GL157075  10.255   6.115   1.948  0.1804  0.1768 -0.0781
 2935DPPE   GL257076  10.162   5.894   2.099 -0.2034  0.0539 -0.2044
 2935DPPE   C1A57077  10.319   6.467   2.268 -0.0781 -0.2180 -0.2619
 2935DPPE   C2A57078  10.147   6.791   2.533 -0.2127 -0.0543  0.0683
 2935DPPE   C3A57079  10.401   7.073   2.619 -0.0154  0.0780  0.0907
 2935DPPE   C4A57080  10.766   7.114   2.807  0.0017  0.1087  0.0461
 2935DPPE   C1B57081  10.509   5.979   2.431  0.0564 -0.0324 -0.3084
 2935DPPE   C2B57082  10.605   6.019   2.877 -0.3909 -0.1148  0.0141
 2935DPPE   C3B57083  10.915   6.228   3.256 -0.0490  0.2562  0.1116
 2935DPPE   C4B57084  11.258   6.118   3.449  0.2209 -0.3743 -0.1012
 2936DPPE   NH357085  16.096   7.557  27.476 -0.0069  0.0409  0.0324
 2936DPPE   PO457086  16.013   7.244  27.113  0.3314 -0.2878  0.1885
 2936DPPE   GL157087  16.299   7.358  26.725  0.2201  0.0481  0.2224
 2936DPPE   GL257088  16.571   7.556  26.749 -0.0399  0.1125 -0.0227
 2936DPPE   C1A57089  16.504   7.012  26.462 -0.0695  0.0193  0.1319
 2936DPPE   C2A57090  16.817   7.006  26.205  0.0762  0.1648  0.1783
 2936DPPE   C3A57091  17.137   6.670  26.102  0.1297  0.0059  0.0195
 2936DPPE   C4A57092  17.235   6.282  26.245 -0.0773 -0.2677  0.2094
 2936DPPE   C1B57093  16.585   7.512  26.263  0.1156 -0.2103 -0.1034
 2936DPPE   C2B57094  16.545   7.311  25.890  0.0141 -0.2062 -0.0163
 2936DPPE   C3B57095  16.650   7.326  25.491  0.2184  0.0615 -0.0103
 2936DPPE   C4B57096  16.996   7.349  25.172  0.3973  0.0487  0.1121
 2937DPPE   NH357097  25.933  15.122  10.235  0.4104 -0.1325  0.4930
 2937DPPE   PO457098  26.301  15.414  10.275  0.1220  0.1794  0.0997
 2937DPPE   GL157099  26.038  15.282  10.694  0.0535  0.1075  0.2555
 2937DPPE   GL257100  25.770  15.081  10.698 -0.2730 -0.1500  0.2640
 2937DPPE   C1A57101  25.952  15.321  11.109  0.0998 -0.4078  0.1152
 2937DPPE   C2A57102  26.081  15.320  11.465  0.3435 -0.1829 -0.0678
 2937DPPE   C3A57103  25.943  14.997  11.643 -0.1083 -0.2739  0.2365
 2937DPPE   C4A57104  25.866  14.891  12.018 -0.3291 -0.0491  0.1933
 2937DPPE   C1B57105  25.461  15.105  11.045 -0.0476  0.0572  0.0082
 2937DPPE   C2B57106  25.178  15.122  11.199  0.0923 -0.1534 -0.1959
 2937DPPE   C3B57107  24.866  14.962  11.404 -0.0714 -0.3153 -0.3270
 2937DPPE   C4B57108  24.580  14.952  11.686  0.3646 -0.1893  0.0241
 2938DPPE   NH357109   5.275   2.848   7.004  0.1688 -0.0091  0.1726
 2938DPPE   PO457110   5.138   2.595   7.319  0.0512  0.1703 -0.0534
 2938DPPE   GL157111   5.513   2.663   7.615  0.3145 -0.0189  0.1360
 2938DPPE   GL257112   5.563   2.887   7.433  0.2271 -0.1169 -0.0565
 2938DPPE   C1A57113   5.848   2.607   7.911  0.0274  0.0356 -0.1431
 2938DPPE   C2A57114   6.152   2.373   8.133 -0.2758 -0.2422  0.2086
 2938DPPE   C3A57115   6.382   2.456   8.445  0.2729 -0.2130 -0.3226
 2938DPPE   C4A57116   6.727   2.698   8.705 -0.1462  0.0859 -0.2597
 2938DPPE   C1B57117   5.632   3.255   7.588 -0.0218 -0.0411 -0.0619
 2938DPPE   C2B57118   5.758   3.744   7.538 -0.1270  0.0661 -0.0488
 2938DPPE   C3B57119   5.965   4.277   7.602 -0.0573  0.2519  0.2445
 2938DPPE   C4B57120   5.815   4.613   7.763 -0.0735 -0.0075  0.0092
 2939DPPE   NH357121  14.494   5.432  27.065  0.1211  0.0771  0.4622
 2939DPPE   PO457122  14.311   5.669  26.753  0.3546  0.0643 -0.1353
 2939DPPE   GL157123  14.514   6.118  26.557 -0.2345  0.1330 -0.0103
 2939DPPE   GL257124  14.750   5.995  26.346  0.2952  0.0854 -0.2379
 2939DPPE   C1A57125  14.552   6.544  26.356  0.0469 -0.1248  0.1242
 2939DPPE   C2A57126  14.870   6.497  26.129  0.3860 -0.0902  0.0079
 2939DPPE   C3A57127  15.300   6.602  25.869  0.0511  0.0049  0.2715
 2939DPPE   C4A57128  15.601   6.534  25.873 -0.0550  0.2419  0.1826
 2939DPPE   C1B57129  14.877   6.051  25.942 -0.1500 -0.0867 -0.2851
 2939DPPE   C2B57130  15.025   6.183  25.472 -0.1819 -0.1336  0.2499
 2939DPPE   C3B57131  14.880   6.302  25.124 -0.1160 -0.1134 -0.1597
 2939DPPE   C4B57132  14.632   6.190  24.752 -0.1391  0.0771  0.0198
 2940DPPE   NH357133   9.492   0.061  20.272  0.0455  0.0913 -0.0695
 2940DPPE   PO457134   9.617  -0.056  19.918 -0.3157  0.1482  0.2220
 2940DPPE   GL157135   9.786   0.265  19.562  0.0411  0.1533  0.0333
 2940DPPE   GL257136   9.639   0.537  19.500  0.1735 -0.0627 -0.3478
 2940DPPE   C1A57137  10.191   0.452  19.493 -0.1173  0.0869  0.0177
 2940DPPE   C2A57138  10.556   0.634  19.176  0.1496 -0.3129  0.1935
 2940DPPE   C3A57139  10.899   0.608  18.953 -0.0208 -0.2697 -0.1516
 2940DPPE   C4A57140  11.327   0.604  18.815 -0.1342  0.0531 -0.1894
 2940DPPE   C1B57141   9.935   0.923  19.483 -0.0085  0.0487  0.1696
 2940DPPE   C2B57142  10.175   1.243  19.267  0.0707 -0.0306  0.0207
 2940DPPE   C3B57143  10.328   1.565  19.085 -0.1621  0.3278 -0.5641
 2940DPPE   C4B57144  10.489   1.808  18.771 -0.0882 -0.3546  0.2899
 2941DPPE   NH357145   4.686  11.808  17.980  0.1038  0.0085  0.1638
 2941DPPE   PO457146   4.455  11.507  18.326 -0.2662  0.1429 -0.0192
 2941DPPE   GL157147   4.850  11.238  18.099 -0.1709 -0.1628  0.3436
 2941DPPE   GL257148   5.017  11.402  17.871  0.0699 -0.0534 -0.0798
 2941DPPE   C1A57149   5.032  10.885  17.822 -0.0660  0.2079 -0.4140
 2941DPPE   C2A57150   5.460  10.825  17.721  0.2404 -0.1833  0.4807
 2941DPPE   C3A57151   5.485  10.817  17.247 -0.0020  0.0392  0.0872
 2941DPPE   C4A57152   5.871  10.645  16.991 -0.0507  0.0348  0.4407
 2941DPPE   C1B57153   5.389  11.309  17.992  0.0860  0.1660  0.3802
 2941DPPE   C2B57154   5.790  11.178  17.745 -0.0988  0.5754 -0.2312
 2941DPPE   C3B57155   5.966  10.896  17.424  0.1216 -0.2183 -0.0381
 2941DPPE   C4B57156   6.453  11.006  17.338 -0.3512  0.0184  0.1073
 2942DPPE   NH357157   4.956   0.590  18.013 -0.1768 -0.1431 -0.5249
 2942DPPE   PO457158   4.707   1.003  18.275  0.0260 -0.3402 -0.0303
 2942DPPE   GL157159   4.829   1.089  17.940 -0.1041 -0.1762 -0.1521
 2942DPPE   GL257160   4.602   1.026  17.608 -0.0001  0.1692  0.1979
 2942DPPE   C1A57161   5.015   1.593  17.904  0.3020 -0.1456  0.0159
 2942DPPE   C2A57162   5.065   1.819  17.490 -0.2776  0.1335 -0.0473
 2942DPPE   C3A57163   4.958   2.138  17.213  0.0826 -0.1711  0.0198
 2942DPPE   C4A57164   4.764   2.469  17.046 -0.1563 -0.1263 -0.2206
 2942DPPE   C1B57165   4.676   1.069  17.239  0.1971 -0.2171  0.1475
 2942DPPE   C2B57166   4.864   1.168  16.948 -0.0022  0.1221 -0.2170
 2942DPPE   C3B57167   4.762   1.447  16.621 -0.1260  0.1143  0.0682
 2942DPPE   C4B57168   4.873   1.773  16.290 -0.1536 -0.1474 -0.0660
 2943DPPE   NH357169  11.618  10.922  26.419  0.0761 -0.0053  0.3000
 2943DPPE   PO457170  12.025  11.173  26.504 -0.0109  0.1634 -0.3998
 2943DPPE   GL157171  12.476  11.305  26.320 -0.1390 -0.2459  0.0641
 2943DPPE   GL257172  12.420  11.608  26.207  0.0332 -0.1292  0.3693
 2943DPPE   C1A57173  12.682  11.156  26.071  0.0480  0.2963 -0.0334
 2943DPPE   C2A57174  12.798  11.092  25.591 -0.0873  0.2398 -0.0083
 2943DPPE   C3A57175  13.093  11.041  25.294  0.1408 -0.0305  0.0075
 2943DPPE   C4A57176  13.169  10.743  25.036  0.1458  0.2762  0.0986
 2943DPPE   C1B57177  12.614  11.527  25.811 -0.0839 -0.0706 -0.1116
 2943DPPE   C2B57178  12.988  11.520  25.648 -0.1731 -0.3368 -0.3168
 2943DPPE   C3B57179  13.260  11.702  25.362  0.2153 -0.2992  0.1846
 2943DPPE   C4B57180  13.480  11.441  25.109  0.0750  0.1177  0.0875
 2944DPPE   NH357181  10.096  12.083  11.163 -0.2003 -0.2278 -0.1690
 2944DPPE   PO457182  10.275  11.957  11.555 -0.0696 -0.0561 -0.2687
 2944DPPE   GL157183   9.952  11.635  11.408 -0.0838  0.0347  0.0238
 2944DPPE   GL257184   9.709  11.780  11.556 -0.0694  0.1516  0.0017
 2944DPPE   C1A57185   9.713  11.514  10.974 -0.1793 -0.3423  0.1417
 2944DPPE   C2A57186   9.644  11.344  10.563  0.0856  0.0766  0.1327
 2944DPPE   C3A57187   9.542  11.166  10.227  0.0826  0.1569  0.2424
 2944DPPE   C4A57188   9.821  11.218   9.807  0.1115  0.0529  0.3161
 2944DPPE   C1B57189   9.469  11.974  11.308  0.2507  0.2473 -0.4095
 2944DPPE   C2B57190   9.188  12.283  11.164  0.0650 -0.1399 -0.5889
 2944DPPE   C3B57191   8.904  12.321  10.957  0.2294 -0.0692 -0.1075
 2944DPPE   C4B57192   8.832  12.088  10.619  0.0795  0.3518 -0.0156
 2945DPPE   NH357193  11.350  16.742  24.831 -0.2344 -0.2084 -0.2515
 2945DPPE   PO457194  11.030  16.967  24.595 -0.0920  0.0790  0.2663
 2945DPPE   GL157195  11.374  16.881  24.378 -0.0357 -0.2102  0.1936
 2945DPPE   GL257196  11.456  16.957  23.984 -0.0636  0.0999 -0.0451
 2945DPPE   C1A57197  11.713  16.612  24.245 -0.0232  0.1128  0.0229
 2945DPPE   C2A57198  11.856  16.461  23.884  0.1889  0.0625  0.0678
 2945DPPE   C3A57199  12.144  16.413  23.685  0.1194 -0.1835  0.0359
 2945DPPE   C4A57200  12.474  16.332  23.371  0.2893 -0.0021 -0.3877
 2945DPPE   C1B57201  11.635  16.883  23.579 -0.1776  0.0120  0.2621
 2945DPPE   C2B57202  11.488  16.538  23.199  0.0823 -0.0558  0.0840
 2945DPPE   C3B57203  11.649  16.244  22.819 -0.0631 -0.1914  0.0015
 2945DPPE   C4B57204  11.611  15.828  22.711  0.1682 -0.2068 -0.0954
 2946DPPE   NH357205  15.060  20.239   8.508 -0.0663  0.0542 -0.2187
 2946DPPE   PO457206  14.987  19.973   8.253 -0.2931  0.1531  0.1491
 2946DPPE   GL157207  14.954  19.587   8.328  0.2929 -0.1773 -0.2231
 2946DPPE   GL257208  15.178  19.503   8.517 -0.1360  0.0039  0.0143
 2946DPPE   C1A57209  14.732  19.139   8.327 -0.3865 -0.0328 -0.0391
 2946DPPE   C2A57210  14.887  18.695   8.142  0.1402  0.2921 -0.2525
 2946DPPE   C3A57211  14.489  18.275   8.171 -0.0590  0.1297 -0.0746
 2946DPPE   C4A57212  14.059  18.341   8.256 -0.1412  0.0746 -0.1762
 2946DPPE   C1B57213  15.149  19.212   8.825 -0.0262 -0.2785  0.1328
 2946DPPE   C2B57214  14.861  19.101   9.028 -0.1642  0.0047  0.0302
 2946DPPE   C3B57215  14.830  19.189   9.451  0.5508  0.2367  0.2347
 2946DPPE   C4B57216  14.603  18.941   9.741  0.1560 -0.2012  0.1429
 2947DPPE   NH357217  18.197  22.593  16.567  0.2785  0.3237 -0.1397
 2947DPPE   PO457218  18.303  22.610  16.999  0.1132 -0.1376 -0.0927
 2947DPPE   GL157219  18.294  22.360  17.274 -0.2696  0.3742  0.4751
 2947DPPE   GL257220  18.590  22.327  17.363 -0.4484  0.1597  0.0493
 2947DPPE   C1A57221  18.161  22.006  17.499 -0.1397 -0.1061 -0.0061
 2947DPPE   C2A57222  17.893  21.821  17.897 -0.0286 -0.1944  0.0886
 2947DPPE   C3A57223  17.496  21.604  18.085  0.1488 -0.0125 -0.1818
 2947DPPE   C4A57224  17.251  21.739  18.458  0.0489  0.4052 -0.0675
 2947DPPE   C1B57225  18.666  21.841  17.289 -0.1096  0.2002 -0.1344
 2947DPPE   C2B57226  18.578  21.425  17.150 -0.3569 -0.1081  0.0523
 2947DPPE   C3B57227  18.678  21.182  16.859 -0.2060  0.0243 -0.1904
 2947DPPE   C4B57228  18.537  20.750  16.706  0.0513 -0.3665 -0.0387
 2948DPPE   NH357229  19.184  11.252  27.820 -0.0883 -0.2565 -0.2799
 2948DPPE   PO457230  19.341  11.001  27.586 -0.0781  0.1718 -0.0284
 2948DPPE   GL157231  19.289  11.021  27.221  0.1196 -0.2114  0.0076
 2948DPPE   GL257232  19.428  10.725  27.178  0.1759 -0.1310  0.1103
 2948DPPE   C1A57233  19.080  11.040  26.874 -0.0310  0.0283 -0.1410
 2948DPPE   C2A57234  18.905  11.181  26.510  0.1093  0.1407 -0.1131
 2948DPPE   C3A57235  18.857  11.367  26.129  0.2368  0.0536  0.0080
 2948DPPE   C4A57236  18.869  11.427  25.730  0.1093  0.1257 -0.1802
 2948DPPE   C1B57237  19.518  10.844  26.804  0.1739  0.4003 -0.1909
 2948DPPE   C2B57238  19.445  10.935  26.420  0.1405 -0.2275 -0.1306
 2948DPPE   C3B57239  19.240  10.977  26.075  0.1140 -0.1974 -0.2251
 2948DPPE   C4B57240  19.370  10.771  25.708  0.0843 -0.3403 -0.2279
 2949DPPE   NH357241   2.987   4.314   9.485 -0.4024  0.1085  0.0726
 2949DPPE   PO457242   3.189   3.974   9.175  0.0352 -0.2414  0.1963
 2949DPPE   GL157243   3.458   4.228   9.351  0.0337  0.2535  0.0875
 2949DPPE   GL257244   3.465   4.033   9.708 -0.3004  0.0799  0.3286
 2949DPPE   C1A57245   3.733   4.496   9.482 -0.4284  0.0388 -0.0655
 2949DPPE   C2A57246   4.072   4.580   9.473 -0.2127 -0.0001 -0.2933
 2949DPPE   C3A57247   4.499   4.751   9.451 -0.1266 -0.1756  0.1425
 2949DPPE   C4A57248   4.969   4.534   9.585  0.0397  0.0548 -0.1556
 2949DPPE   C1B57249   3.469   4.355  10.015  0.0712  0.0511 -0.1276
 2949DPPE   C2B57250   3.586   4.576  10.397 -0.0429  0.1379 -0.2785
 2949DPPE   C3B57251   3.351   4.972  10.721 -0.2552  0.2577  0.1104
 2949DPPE   C4B57252   3.024   5.110  10.951  0.3453 -0.1645  0.0435
 2950DPPE   NH357253  22.124   2.736  23.230 -0.0802  0.0491 -0.0905
 2950DPPE   PO457254  22.505   2.952  23.191  0.1224 -0.0371  0.2690
 2950DPPE   GL157255  22.551   3.139  22.770  0.0255  0.0263  0.2292
 2950DPPE   GL257256  22.821   3.327  22.580  0.5304 -0.0916  0.4383
 2950DPPE   C1A57257  22.324   3.259  22.454 -0.0137 -0.1593 -0.2571
 2950DPPE   C2A57258  22.139   3.551  22.166 -0.1411  0.0600 -0.1645
 2950DPPE   C3A57259  21.800   3.593  22.015  0.2527 -0.0245  0.0089
 2950DPPE   C4A57260  21.386   3.689  21.829  0.2447  0.0049  0.1602
 2950DPPE   C1B57261  22.545   3.649  22.748 -0.2264  0.3629 -0.1238
 2950DPPE   C2B57262  22.452   4.064  22.909 -0.3888  0.0608  0.3987
 2950DPPE   C3B57263  22.008   4.143  23.262 -0.0702  0.0215  0.2613
 2950DPPE   C4B57264  22.019   4.421  23.657  0.0273  0.0896  0.0408
 2951DPPE   NH357265   3.578   8.090  18.548 -0.0569  0.1726  0.1165
 2951DPPE   PO457266   3.169   8.053  18.437  0.0118  0.0239 -0.0800
 2951DPPE   GL157267   3.190   7.854  18.060 -0.0322 -0.0411  0.1843
 2951DPPE   GL257268   2.888   7.879  17.826  0.0686  0.1977  0.1009
 2951DPPE   C1A57269   3.521   7.654  17.877  0.0854  0.1003  0.0841
 2951DPPE   C2A57270   3.977   7.590  18.005  0.0178 -0.2986 -0.2745
 2951DPPE   C3A57271   4.423   7.472  17.859  0.2531 -0.4396 -0.1519
 2951DPPE   C4A57272   4.773   7.264  17.879 -0.3861 -0.3054 -0.0482
 2951DPPE   C1B57273   3.211   7.631  17.456  0.4339  0.2282  0.0468
 2951DPPE   C2B57274   3.685   7.658  17.317  0.0761 -0.1628  0.0514
 2951DPPE   C3B57275   3.988   7.545  17.060  0.2205 -0.0337  0.0336
 2951DPPE   C4B57276   4.350   7.323  17.125 -0.1726  0.0784  0.1662
 2952DPPE   NH357277   9.176  17.463   9.260  0.2612  0.1001  0.0735
 2952DPPE   PO457278   9.018  17.041   9.042  0.2844 -0.3320  0.1271
 2952DPPE   GL157279   8.941  16.621   9.357 -0.0414  0.1156  0.0173
 2952DPPE   GL257280   8.700  16.619   9.699  0.0590  0.2471 -0.2379
 2952DPPE   C1A57281   9.026  16.302   9.552  0.1656  0.1577 -0.0118
 2952DPPE   C2A57282   9.174  16.061   9.875 -0.1556 -0.2325  0.3236
 2952DPPE   C3A57283   9.388  15.993  10.173  0.3270 -0.0904  0.1918
 2952DPPE   C4A57284   9.635  16.062  10.496  0.0207 -0.1667  0.0133
 2952DPPE   C1B57285   9.023  16.623   9.978  0.1394 -0.0162  0.1587
 2952DPPE   C2B57286   9.132  16.343  10.450  0.0867  0.0883  0.0393
 2952DPPE   C3B57287   9.381  16.286  10.921  0.0131 -0.2350 -0.3022
 2952DPPE   C4B57288   9.771  16.132  11.011 -0.0630 -0.2844  0.1246
 2953DPPE   NH357289  13.844   3.724  14.071  0.0779  0.0072  0.0137
 2953DPPE   PO457290  13.898   4.029  13.672  0.2646  0.0909 -0.1481
 2953DPPE   GL157291  13.781   3.673  13.377 -0.1554  0.1861  0.1548
 2953DPPE   GL257292  13.574   3.623  13.447 -0.1375 -0.0126  0.2778
 2953DPPE   C1A57293  13.684   3.176  13.167  0.1902  0.1836 -0.1256
 2953DPPE   C2A57294  13.533   2.800  12.837  0.1100 -0.1144  0.0254
 2953DPPE   C3A57295  13.512   2.446  12.570  0.1424  0.2802  0.2616
 2953DPPE   C4A57296  13.240   2.109  12.477  0.0859  0.1387 -0.0553
 2953DPPE   C1B57297  13.236   3.425  13.062 -0.0510  0.2159  0.3374
 2953DPPE   C2B57298  13.174   3.143  12.748 -0.1950 -0.1457  0.0768
 2953DPPE   C3B57299  12.768   2.988  12.681 -0.1114 -0.0652 -0.1711
 2953DPPE   C4B57300  12.468   2.714  12.446 -0.2000 -0.0823  0.1795
 2954DPPE   NH357301  13.393  12.141   8.642 -0.1866 -0.0178  0.2113
 2954DPPE   PO457302  13.098  12.118   9.022 -0.0003 -0.2565  0.2147
 2954DPPE   GL157303  12.878  12.366   8.756  0.1701  0.0473 -0.4509
 2954DPPE   GL257304  12.875  12.075   8.532 -0.1826 -0.2401  0.1704
 2954DPPE   C1A57305  12.685  12.627   8.465 -0.0158  0.3008  0.0909
 2954DPPE   C2A57306  12.408  12.794   8.059 -0.3115  0.0894  0.0734
 2954DPPE   C3A57307  12.132  12.977   7.800 -0.3715 -0.4981  0.1746
 2954DPPE   C4A57308  11.910  13.182   7.495 -0.2629 -0.0159  0.0643
 2954DPPE   C1B57309  12.945  12.017   8.135  0.1118 -0.1177 -0.2862
 2954DPPE   C2B57310  13.117  11.667   8.036 -0.0841 -0.0159 -0.0283
 2954DPPE   C3B57311  13.194  11.255   7.830  0.0084  0.1891  0.1961
 2954DPPE   C4B57312  13.516  10.995   7.577  0.1328  0.1852 -0.2701
 2955DPPE   NH357313   5.583  14.450  10.128  0.0277  0.1688 -0.0789
 2955DPPE   PO457314   5.499  14.751   9.758  0.2143  0.1159 -0.3049
 2955DPPE   GL157315   5.878  14.484   9.703 -0.1773  0.2183 -0.1972
 2955DPPE   GL257316   5.987  14.206   9.410 -0.0266  0.1371 -0.0363
 2955DPPE   C1A57317   6.315  14.151   9.854 -0.0412 -0.0009 -0.0778
 2955DPPE   C2A57318   6.610  14.284  10.198  0.0254  0.1157 -0.0107
 2955DPPE   C3A57319   6.788  14.548  10.433  0.2755  0.1343 -0.5282
 2955DPPE   C4A57320   6.733  14.898  10.567 -0.0991 -0.0667 -0.0049
 2955DPPE   C1B57321   6.236  13.877   9.473  0.3405  0.0702 -0.0571
 2955DPPE   C2B57322   6.260  13.516   9.535  0.1193 -0.0281 -0.0520
 2955DPPE   C3B57323   6.238  13.210   9.907 -0.1151  0.2474  0.1123
 2955DPPE   C4B57324   6.069  13.232  10.241  0.2023  0.0486  0.1612
 2956DPPE   NH357325  25.820  17.903  12.982  0.1525  0.0361  0.1376
 2956DPPE   PO457326  25.643  18.146  13.389 -0.0083 -0.0187  0.1670
 2956DPPE   GL157327  25.372  18.347  13.748 -0.0299  0.0969 -0.3218
 2956DPPE   GL257328  25.293  18.005  13.885  0.4606 -0.3883 -0.0282
 2956DPPE   C1A57329  24.859  18.360  13.869 -0.0515 -0.0273  0.3366
 2956DPPE   C2A57330  24.502  18.081  13.972 -0.0373 -0.1775 -0.1681
 2956DPPE   C3A57331  24.227  17.735  14.148  0.1448 -0.2289 -0.1096
 2956DPPE   C4A57332  23.827  17.663  14.257  0.2233  0.4151 -0.2396
 2956DPPE   C1B57333  24.993  18.085  14.234  0.1144  0.0550  0.2406
 2956DPPE   C2B57334  24.833  17.793  14.447  0.1440 -0.0495  0.0547
 2956DPPE   C3B57335  24.454  17.701  14.633  0.2580 -0.4125 -0.0447
 2956DPPE   C4B57336  23.979  17.800  14.790 -0.0235 -0.1524 -0.0805
 2957DPPE   NH357337  11.902   0.570   4.189  0.0619 -0.3086 -0.0712
 2957DPPE   PO457338  12.260   0.261   4.489  0.2174 -0.1651 -0.0775
 2957DPPE   GL157339  12.363   0.474   4.851  0.2060  0.0418 -0.2499
 2957DPPE   GL257340  12.641   0.572   4.864 -0.3380 -0.1777 -0.3618
 2957DPPE   C1A57341  12.129   0.895   5.038  0.1129 -0.1357  0.3469
 2957DPPE   C2A57342  11.933   1.324   4.781 -0.1911 -0.2090  0.0133
 2957DPPE   C3A57343  11.982   1.775   4.967  0.0133 -0.0989 -0.0622
 2957DPPE   C4A57344  12.053   2.158   5.228  0.0693  0.1290  0.0011
 2957DPPE   C1B57345  12.604   0.101   5.082  0.2794  0.2591  0.3716
 2957DPPE   C2B57346  12.865  -0.150   5.368 -0.0293  0.2775  0.1004
 2957DPPE   C3B57347  12.927  -0.301   5.820 -0.1862  0.0186 -0.1735
 2957DPPE   C4B57348  13.002  -0.198   6.199 -0.0427 -0.1185 -0.3167
 2958DPPE   NH357349   8.796  17.792  10.188 -0.2238 -0.2783 -0.0153
 2958DPPE   PO457350   8.477  17.929  10.531  0.0512 -0.1557  0.2486
 2958DPPE   GL157351   8.692  17.552  10.702 -0.2197  0.1877  0.2168
 2958DPPE   GL257352   8.719  17.271  10.483 -0.1495  0.2222 -0.3314
 2958DPPE   C1A57353   8.956  17.544  11.033  0.0016  0.2210  0.1220
 2958DPPE   C2A57354   9.242  17.828  11.159 -0.0210 -0.0071 -0.3606
 2958DPPE   C3A57355   9.555  18.059  11.259  0.0484 -0.1536  0.0286
 2958DPPE   C4A57356   9.861  18.290  11.044 -0.2940  0.1434 -0.0154
 2958DPPE   C1B57357   8.556  17.103  10.873  0.2680 -0.3397  0.1360
 2958DPPE   C2B57358   8.354  16.635  10.973 -0.0728  0.2565  0.0874
 2958DPPE   C3B57359   8.643  16.173  11.040  0.0569  0.0313 -0.2384
 2958DPPE   C4B57360   9.014  15.998  11.230  0.4396 -0.1188 -0.2951
 2959DPPE   NH357361  19.392  16.744  25.891 -0.3209 -0.1391 -0.1529
 2959DPPE   PO457362  19.328  17.037  25.738 -0.1561  0.1471 -0.1630
 2959DPPE   GL157363  19.373  16.824  25.372 -0.0387  0.0516 -0.1533
 2959DPPE   GL257364  19.262  16.529  25.455 -0.0537 -0.1271  0.0870
 2959DPPE   C1A57365  19.266  16.715  24.951 -0.1012 -0.3709  0.1125
 2959DPPE   C2A57366  19.076  16.434  24.709  0.3815  0.1117 -0.0352
 2959DPPE   C3A57367  19.138  16.086  24.560 -0.2213 -0.2629 -0.1293
 2959DPPE   C4A57368  19.095  15.752  24.329 -0.3179 -0.2804  0.3310
 2959DPPE   C1B57369  19.121  16.246  25.186 -0.3459 -0.1885  0.0332
 2959DPPE   C2B57370  18.764  16.148  25.001 -0.0998 -0.0062  0.0055
 2959DPPE   C3B57371  18.770  15.848  24.732 -0.3973  0.2820  0.0657
 2959DPPE   C4B57372  19.031  15.489  24.743  0.1644 -0.2776 -0.0332
 2960DPPE   NH357373  21.813   4.430  14.845  0.0590  0.3293 -0.1329
 2960DPPE   PO457374  21.724   4.126  14.441  0.1985 -0.0973  0.2564
 2960DPPE   GL157375  22.071   4.129  14.222 -0.2087  0.1379 -0.0397
 2960DPPE   GL257376  22.293   4.090  14.473  0.2532 -0.5005  0.0829
 2960DPPE   C1A57377  22.475   3.909  14.075 -0.0886  0.0060  0.3417
 2960DPPE   C2A57378  22.720   3.616  14.188 -0.3951 -0.1358  0.1455
 2960DPPE   C3A57379  23.082   3.283  14.174  0.1362  0.1167  0.1529
 2960DPPE   C4A57380  23.547   3.030  14.131  0.4922 -0.0890 -0.0182
 2960DPPE   C1B57381  22.672   3.982  14.534 -0.1567 -0.0089  0.1774
 2960DPPE   C2B57382  23.045   3.714  14.559 -0.2119  0.1588  0.1177
 2960DPPE   C3B57383  23.334   3.450  14.581 -0.0637  0.0808  0.2688
 2960DPPE   C4B57384  23.693   3.237  14.538 -0.3443  0.1231  0.0139
 2961DPPE   NH357385   5.407  34.386  13.271  0.1581  0.1753  0.1898
 2961DPPE   PO457386   5.443  34.627  12.860  0.1084  0.1014 -0.2140
 2961DPPE   GL157387   5.714  34.863  13.185  0.3572  0.1546 -0.1157
 2961DPPE   GL257388   5.505  34.922  13.376 -0.0961  0.0461 -0.0409
 2961DPPE   C1A57389   6.144  35.012  13.305 -0.0041 -0.0823  0.0113
 2961DPPE   C2A57390   6.496  35.222  13.210  0.1902  0.0436 -0.2782
 2961DPPE   C3A57391   6.937  35.360  13.349 -0.0377  0.2454  0.2156
 2961DPPE   C4A57392   7.326  35.466  13.393 -0.0425 -0.3406 -0.4153
 2961DPPE   C1B57393   5.689  35.361  13.310  0.1128  0.2253 -0.1876
 2961DPPE   C2B57394   5.764  35.759  13.498  0.1140 -0.2074 -0.1595
 2961DPPE   C3B57395   5.904  36.070  13.753  0.0300 -0.2673  0.0954
 2961DPPE   C4B57396   5.910  36.428  13.865 -0.3325 -0.2383 -0.2284
 2962DPPE   NH357397  20.267   4.627  25.370 -0.1191 -0.1530  0.1806
 2962DPPE   PO457398  20.366   4.336  25.098  0.0697 -0.1253 -0.0325
 2962DPPE   GL157399  20.477   4.751  24.935 -0.2211 -0.0806  0.1621
 2962DPPE   GL257400  20.234   4.984  25.003  0.3841  0.0568 -0.1273
 2962DPPE   C1A57401  20.536   5.161  24.719 -0.1254 -0.2363  0.0777
 2962DPPE   C2A57402  20.501   5.428  24.390  0.1662 -0.1511  0.1218
 2962DPPE   C3A57403  20.596   5.766  24.352 -0.0944 -0.1239  0.3409
 2962DPPE   C4A57404  20.834   6.029  24.034  0.0919  0.1509  0.1971
 2962DPPE   C1B57405  20.023   5.323  24.669  0.0711  0.1116  0.0086
 2962DPPE   C2B57406  19.695   5.582  24.833 -0.0169  0.0396 -0.1882
 2962DPPE   C3B57407  19.405   5.803  24.788 -0.2096  0.1729 -0.2935
 2962DPPE   C4B57408  19.174   5.928  24.395  0.1793  0.0311  0.2371
 2963DPPE   NH357409  21.632   5.250  12.054 -0.1302  0.1969 -0.1611
 2963DPPE   PO457410  21.509   5.042  12.433 -0.3232 -0.2089  0.0351
 2963DPPE   GL157411  21.771   4.715  12.164 -0.1743 -0.0981  0.3112
 2963DPPE   GL257412  21.639   4.478  12.195 -0.1459  0.1742 -0.1949
 2963DPPE   C1A57413  22.171   4.649  11.763  0.0513  0.3380  0.3174
 2963DPPE   C2A57414  22.517   4.606  11.393 -0.4563  0.4129  0.3286
 2963DPPE   C3A57415  22.676   4.436  10.955  0.3550 -0.1469 -0.0511
 2963DPPE   C4A57416  22.673   4.096  10.786  0.0881 -0.0592 -0.0993
 2963DPPE   C1B57417  21.998   4.198  12.109  0.1674 -0.1424  0.2042
 2963DPPE   C2B57418  22.377   4.172  12.175  0.0929 -0.5256 -0.1032
 2963DPPE   C3B57419  22.832   4.086  12.245  0.3702 -0.1345 -0.2620
 2963DPPE   C4B57420  23.154   4.316  12.021 -0.1160  0.2124 -0.1136
 2964DPPE   NH357421  20.033   6.842   3.811 -0.0559  0.0247  0.0187
 2964DPPE   PO457422  19.639   7.099   3.977  0.0317 -0.0234 -0.0045
 2964DPPE   GL157423  19.362   7.006   4.364 -0.0256 -0.1516  0.1210
 2964DPPE   GL257424  19.614   6.903   4.596 -0.0179 -0.4183 -0.1098
 2964DPPE   C1A57425  19.005   7.074   4.375  0.2045 -0.1178 -0.1883
 2964DPPE   C2A57426  18.575   7.058   4.285 -0.4276 -0.2701  0.1143
 2964DPPE   C3A57427  18.266   7.092   4.061  0.1206 -0.2151  0.0443
 2964DPPE   C4A57428  17.863   7.441   3.958 -0.0735  0.2369 -0.0093
 2964DPPE   C1B57429  19.292   6.819   4.822  0.2550 -0.0393  0.1693
 2964DPPE   C2B57430  19.027   6.603   5.112 -0.0653 -0.0175 -0.2781
 2964DPPE   C3B57431  18.720   6.341   5.368 -0.2246  0.0831  0.1397
 2964DPPE   C4B57432  18.705   5.904   5.606 -0.4458  0.0799  0.0677
 2965DPPE   NH357433   4.795   7.658   5.816  0.0308 -0.1659 -0.0398
 2965DPPE   PO457434   4.357   7.489   5.890  0.0606  0.0876  0.1043
 2965DPPE   GL157435   4.536   7.729   6.283 -0.0790 -0.2475  0.0239
 2965DPPE   GL257436   4.337   7.809   6.536 -0.2176 -0.2228 -0.0758
 2965DPPE   C1A57437   4.876   7.627   6.532 -0.1601 -0.0224  0.1097
 2965DPPE   C2A57438   4.972   7.767   6.897 -0.2622  0.1938 -0.0359
 2965DPPE   C3A57439   4.957   7.913   7.361 -0.2139 -0.0225  0.1619
 2965DPPE   C4A57440   5.284   7.938   7.669  0.3329 -0.2509  0.0774
 2965DPPE   C1B57441   4.595   8.037   6.711 -0.0302 -0.0526 -0.1849
 2965DPPE   C2B57442   4.939   8.270   6.999 -0.6631  0.1935 -0.0465
 2965DPPE   C3B57443   5.205   8.487   6.880  0.0150  0.1913  0.0732
 2965DPPE   C4B57444   5.486   8.486   6.559 -0.3453 -0.1184  0.3976
 2966DPPE   NH357445  18.074  14.627  27.006 -0.0192  0.1920 -0.4515
 2966DPPE   PO457446  18.308  14.240  27.139  0.1507  0.1176 -0.1064
 2966DPPE   GL157447  18.304  14.238  26.794  0.0242  0.2486  0.3788
 2966DPPE   GL257448  18.590  13.983  26.720 -0.0288 -0.1817 -0.0518
 2966DPPE   C1A57449  18.101  13.831  26.556  0.0643  0.2680 -0.1877
 2966DPPE   C2A57450  17.971  13.568  26.219 -0.4727 -0.0654 -0.0280
 2966DPPE   C3A57451  18.019  13.435  25.784 -0.0534  0.0659  0.2171
 2966DPPE   C4A57452  18.202  13.416  25.277  0.1147 -0.2679 -0.2706
 2966DPPE   C1B57453  18.583  13.945  26.286 -0.3261 -0.2094  0.0035
 2966DPPE   C2B57454  18.264  13.847  25.943  0.0729 -0.0009 -0.1926
 2966DPPE   C3B57455  18.038  13.917  25.660  0.1716 -0.3254  0.1426
 2966DPPE   C4B57456  17.838  14.286  25.562 -0.2173 -0.1485  0.3943
 2967DPPE   NH357457   4.979  35.387  16.884  0.2217  0.0525 -0.0092
 2967DPPE   PO457458   4.807  35.782  16.801 -0.0754  0.0581 -0.1369
 2967DPPE   GL157459   4.926  36.157  16.758  0.0241  0.1932 -0.0221
 2967DPPE   GL257460   5.179  36.079  17.059 -0.2418  0.1790  0.0044
 2967DPPE   C1A57461   5.124  36.579  16.771  0.2786 -0.0184 -0.0985
 2967DPPE   C2A57462   5.465  36.828  16.562 -0.2455  0.1346 -0.3448
 2967DPPE   C3A57463   5.890  36.795  16.451 -0.0627  0.1523 -0.0289
 2967DPPE   C4A57464   6.410  36.878  16.484 -0.0542 -0.0911 -0.3208
 2967DPPE   C1B57465   5.464  36.223  16.683  0.0337  0.2302  0.1178
 2967DPPE   C2B57466   5.840  36.064  16.678  0.1002  0.0511 -0.5570
 2967DPPE   C3B57467   6.364  36.011  16.571  0.3616 -0.3363  0.2829
 2967DPPE   C4B57468   6.796  36.102  16.419  0.1113  0.0251  0.2410
 2968DPPE   NH357469  27.651   7.547  17.227 -0.1263 -0.3603 -0.0479
 2968DPPE   PO457470  27.598   7.189  17.006 -0.2504  0.1679 -0.1246
 2968DPPE   GL157471  27.222   7.402  16.885 -0.1236  0.1599  0.1434
 2968DPPE   GL257472  27.146   7.351  16.630  0.0463 -0.1303  0.0220
 2968DPPE   C1A57473  26.826   7.621  16.925 -0.4769  0.2080 -0.0325
 2968DPPE   C2A57474  26.527   7.588  17.187 -0.2149 -0.1473 -0.2103
 2968DPPE   C3A57475  26.210   7.416  17.386 -0.2844 -0.0361  0.2928
 2968DPPE   C4A57476  25.745   7.323  17.209 -0.1426 -0.0107  0.4724
 2968DPPE   C1B57477  26.772   7.271  16.521  0.1122  0.1072  0.1422
 2968DPPE   C2B57478  26.364   7.209  16.317  0.1800 -0.3225  0.0968
 2968DPPE   C3B57479  25.844   7.210  16.371  0.0230  0.4315 -0.4434
 2968DPPE   C4B57480  25.506   7.503  16.251  0.0490  0.1474 -0.3469
 2969DPPE   NH357481  11.400  11.810  26.345 -0.2851 -0.1625 -0.1230
 2969DPPE   PO457482  11.350  12.271  26.536 -0.2525 -0.0008  0.1002
 2969DPPE   GL157483  11.625  12.314  26.238  0.1151 -0.0254 -0.3033
 2969DPPE   GL257484  11.606  12.589  26.203  0.1623 -0.4576  0.0620
 2969DPPE   C1A57485  11.712  12.258  25.763 -0.1775  0.0462  0.0199
 2969DPPE   C2A57486  11.771  12.087  25.412 -0.2939 -0.0366  0.1528
 2969DPPE   C3A57487  11.814  12.224  25.024  0.3309  0.0085  0.0966
 2969DPPE   C4A57488  11.481  12.318  24.782 -0.0355 -0.3818 -0.0442
 2969DPPE   C1B57489  11.687  12.832  25.718  0.1904 -0.0901 -0.0786
 2969DPPE   C2B57490  11.697  12.623  25.399  0.0489 -0.2306 -0.3302
 2969DPPE   C3B57491  11.524  12.809  25.039  0.0907 -0.0443 -0.0992
 2969DPPE   C4B57492  11.657  13.183  24.875  0.0038 -0.0368  0.2010
 2970DPPE   NH357493   7.359  14.406  22.841 -0.0219  0.4058  0.2637
 2970DPPE   PO457494   6.957  14.214  22.683 -0.1610  0.0612 -0.1610
 2970DPPE   GL157495   7.220  14.086  22.353 -0.3506  0.3520 -0.0963
 2970DPPE   GL257496   7.038  13.911  22.036  0.0340  0.1948  0.1491
 2970DPPE   C1A57497   7.737  14.032  22.207  0.1871 -0.0601  0.1239
 2970DPPE   C2A57498   7.912  13.680  21.888 -0.1931 -0.0505  0.0654
 2970DPPE   C3A57499   8.229  13.497  21.623 -0.2468  0.0237  0.1565
 2970DPPE   C4A57500   8.454  13.418  21.255 -0.2714 -0.0791  0.2377
 2970DPPE   C1B57501   7.346  13.706  21.987 -0.0717  0.1269 -0.4454
 2970DPPE   C2B57502   7.497  13.441  21.650  0.1014 -0.2257  0.0909
 2970DPPE   C3B57503   7.478  13.169  21.462 -0.4145 -0.1624 -0.2793
 2970DPPE   C4B57504   7.229  12.850  21.217  0.0818 -0.1601  0.1477
 2971DPPE   NH357505  11.952  16.246  19.932 -0.0387 -0.0333  0.0174
 2971DPPE   PO457506  12.330  16.526  19.896 -0.2129  0.2716  0.1929
 2971DPPE   GL157507  12.015  16.717  20.126  0.0231 -0.0416  0.1583
 2971DPPE   GL257508  11.645  16.689  19.971 -0.2566  0.2512  0.1147
 2971DPPE   C1A57509  11.878  17.049  20.275  0.1691 -0.1460 -0.0508
 2971DPPE   C2A57510  12.051  17.305  20.632 -0.2595  0.2010  0.1279
 2971DPPE   C3A57511  12.160  17.768  20.679  0.2696  0.2193 -0.3207
 2971DPPE   C4A57512  11.943  18.138  20.786  0.1583 -0.0450 -0.1098
 2971DPPE   C1B57513  11.424  16.938  20.343  0.0094  0.2728  0.4780
 2971DPPE   C2B57514  11.167  17.159  20.635  0.2316 -0.0044  0.1404
 2971DPPE   C3B57515  11.040  17.675  20.482  0.0517 -0.0305  0.3300
 2971DPPE   C4B57516  10.934  18.131  20.354  0.1654  0.1477  0.2153
 2972DPPE   NH357517  23.112   0.483  11.150  0.0355 -0.3810 -0.1923
 2972DPPE   PO457518  23.510   0.736  11.112 -0.0717 -0.0431  0.1135
 2972DPPE   GL157519  23.234   1.014  11.290  0.2344 -0.2153 -0.0221
 2972DPPE   GL257520  23.070   0.806  11.503 -0.1049  0.0746 -0.5095
 2972DPPE   C1A57521  23.094   1.400  11.227 -0.1438  0.2984  0.0916
 2972DPPE   C2A57522  22.791   1.783  11.343 -0.1485 -0.2358  0.0702
 2972DPPE   C3A57523  22.554   2.104  11.649 -0.0045 -0.0584 -0.0113
 2972DPPE   C4A57524  22.585   2.494  11.906 -0.4163  0.0030 -0.0109
 2972DPPE   C1B57525  22.991   0.949  11.923 -0.1036 -0.1830 -0.2271
 2972DPPE   C2B57526  22.666   1.034  12.315  0.0650  0.1467  0.4192
 2972DPPE   C3B57527  22.211   1.230  12.539  0.1705  0.1844 -0.1743
 2972DPPE   C4B57528  21.911   1.539  12.828  0.4700  0.1113 -0.2123
 2973DPPE   NH357529  12.572  12.594   2.282  0.1575 -0.3337  0.2805
 2973DPPE   PO457530  12.902  12.649   2.673  0.7305  0.0550 -0.2663
 2973DPPE   GL157531  12.656  12.585   3.085  0.1726 -0.0755 -0.0023
 2973DPPE   GL257532  12.330  12.453   3.038  0.1948 -0.1434 -0.2277
 2973DPPE   C1A57533  12.781  12.386   3.497  0.1980  0.1759 -0.0299
 2973DPPE   C2A57534  13.027  12.390   3.818  0.1344 -0.2567 -0.1056
 2973DPPE   C3A57535  13.491  12.495   3.981  0.0445  0.1110 -0.1459
 2973DPPE   C4A57536  13.644  12.465   4.339  0.0351 -0.2642  0.0280
 2973DPPE   C1B57537  12.333  12.275   3.473 -0.0086  0.3770 -0.0560
 2973DPPE   C2B57538  12.290  12.412   3.859 -0.0348  0.0308 -0.0177
 2973DPPE   C3B57539  12.282  12.100   4.282 -0.0902  0.0586  0.0504
 2973DPPE   C4B57540  12.086  11.691   4.254 -0.1573 -0.0543  0.0982
 2974DPPE   NH357541   5.248  35.429  10.792  0.0085  0.2715 -0.3289
 2974DPPE   PO457542   5.549  35.341  10.353 -0.0897 -0.2812 -0.0712
 2974DPPE   GL157543   5.936  35.612  10.193  0.1006 -0.2000 -0.2319
 2974DPPE   GL257544   5.902  35.760   9.832  0.4238 -0.0604 -0.1682
 2974DPPE   C1A57545   6.334  35.798  10.256  0.1048  0.0167 -0.2214
 2974DPPE   C2A57546   6.780  35.879  10.293  0.3533 -0.1101  0.0024
 2974DPPE   C3A57547   6.892  36.261  10.043  0.0392 -0.2064  0.1104
 2974DPPE   C4A57548   7.124  36.457   9.632 -0.0328 -0.1392 -0.0634
 2974DPPE   C1B57549   5.861  36.165   9.963  0.3072 -0.0346 -0.0967
 2974DPPE   C2B57550   5.876  36.546  10.188 -0.1867  0.2444  0.0428
 2974DPPE   C3B57551   6.124  36.860  10.107 -0.2960 -0.2950 -0.0054
 2974DPPE   C4B57552   6.445  36.977   9.713 -0.1621 -0.0764 -0.2254
 2975DPPE   NH357553   6.316  17.013  14.539 -0.3015 -0.0896  0.2331
 2975DPPE   PO457554   6.725  17.109  14.270  0.1020  0.2052 -0.2512
 2975DPPE   GL157555   7.073  17.025  14.158  0.2865 -0.2273 -0.3668
 2975DPPE   GL257556   7.142  17.246  13.991  0.0550  0.1572 -0.2622
 2975DPPE   C1A57557   7.504  16.951  14.187  0.0021  0.0586 -0.2132
 2975DPPE   C2A57558   7.830  16.742  13.906  0.1360  0.2139  0.1017
 2975DPPE   C3A57559   7.927  16.317  13.848  0.1074  0.0347 -0.3002
 2975DPPE   C4A57560   8.059  16.044  13.552 -0.3967 -0.3975 -0.1474
 2975DPPE   C1B57561   7.107  16.856  13.679  0.3572 -0.1045  0.0444
 2975DPPE   C2B57562   7.441  16.616  13.560 -0.1470 -0.0989 -0.0319
 2975DPPE   C3B57563   7.791  16.436  13.325  0.0732  0.3153  0.0927
 2975DPPE   C4B57564   8.029  16.254  13.029 -0.0715 -0.1681  0.0006
 2976DPPE   NH357565  13.526   5.565  11.789 -0.2703 -0.0424  0.4425
 2976DPPE   PO457566  13.988   5.464  11.852 -0.2228 -0.2774 -0.1769
 2976DPPE   GL157567  13.853   5.376  11.439  0.0781  0.2098 -0.1365
 2976DPPE   GL257568  13.931   5.504  11.186  0.2014  0.1748  0.2761
 2976DPPE   C1A57569  14.014   4.960  11.208  0.1680  0.3206 -0.0891
 2976DPPE   C2A57570  13.756   4.611  11.114 -0.0994  0.0868  0.0058
 2976DPPE   C3A57571  13.353   4.529  10.994 -0.1125 -0.1872 -0.1459
 2976DPPE   C4A57572  13.372   4.080  10.893  0.5108  0.3208  0.0365
 2976DPPE   C1B57573  13.697   5.351  10.823 -0.1229  0.1172  0.1599
 2976DPPE   C2B57574  13.627   5.282  10.383  0.5197 -0.1792 -0.1916
 2976DPPE   C3B57575  13.581   4.915  10.042  0.2841 -0.2572  0.0566
 2976DPPE   C4B57576  13.135   4.750  10.190  0.2038  0.1298  0.0214
 2977DPPE   NH357577  18.319   3.049  25.286  0.2074 -0.1067 -0.0933
 2977DPPE   PO457578  18.099   3.446  25.438 -0.0927  0.1147  0.1215
 2977DPPE   GL157579  17.867   3.268  25.130  0.0581 -0.1364  0.2813
 2977DPPE   GL257580  17.688   3.001  25.007 -0.3734  0.1839  0.0604
 2977DPPE   C1A57581  17.618   3.562  24.904  0.0667  0.1278 -0.2230
 2977DPPE   C2A57582  17.451   3.827  24.650 -0.1701 -0.0828 -0.1053
 2977DPPE   C3A57583  17.502   4.150  24.275 -0.0765 -0.1316 -0.0039
 2977DPPE   C4A57584  17.698   4.016  23.807 -0.1278  0.4210  0.0655
 2977DPPE   C1B57585  17.445   3.087  24.643  0.1328  0.0117  0.3807
 2977DPPE   C2B57586  17.416   3.037  24.234 -0.1248 -0.0398  0.2152
 2977DPPE   C3B57587  16.916   2.975  24.019  0.1646  0.1703 -0.0973
 2977DPPE   C4B57588  16.539   3.112  23.881  0.2519  0.2653  0.2908
 2978DPPE   NH357589  12.968  21.148  11.307  0.2112 -0.1184 -0.2088
 2978DPPE   PO457590  13.449  21.382  11.235  0.0785 -0.3452 -0.0323
 2978DPPE   GL157591  13.414  20.915  11.368  0.1679 -0.2765 -0.2225
 2978DPPE   GL257592  13.755  20.949  11.604  0.0566 -0.0180 -0.0264
 2978DPPE   C1A57593  13.507  20.590  11.238  0.1048  0.0072 -0.2548
 2978DPPE   C2A57594  13.647  20.244  11.142  0.0625  0.0446 -0.0933
 2978DPPE   C3A57595  13.649  19.748  11.221  0.0948  0.0457 -0.1639
 2978DPPE   C4A57596  13.267  19.425  11.246  0.1379 -0.1170 -0.4290
 2978DPPE   C1B57597  13.980  20.717  11.833 -0.1932  0.2292 -0.2074
 2978DPPE   C2B57598  14.009  20.243  12.055  0.1283 -0.1323 -0.0060
 2978DPPE   C3B57599  13.884  20.074  12.470  0.0381 -0.0525 -0.0307
 2978DPPE   C4B57600  13.552  19.828  12.516 -0.3123  0.0549 -0.2618
 2979DPPE   NH357601   3.441   7.423   6.662 -0.1482  0.1137  0.2715
 2979DPPE   PO457602   3.873   7.544   6.422  0.1393 -0.1096 -0.0748
 2979DPPE   GL157603   3.964   7.730   6.870  0.3147 -0.0447  0.3031
 2979DPPE   GL257604   3.964   8.035   6.810  0.0361 -0.0326 -0.2880
 2979DPPE   C1A57605   4.160   7.838   7.342 -0.3733 -0.2975 -0.0834
 2979DPPE   C2A57606   4.470   8.074   7.544  0.0347 -0.0346  0.1405
 2979DPPE   C3A57607   4.796   8.050   7.828 -0.0669  0.2597  0.1244
 2979DPPE   C4A57608   4.881   8.491   8.043  0.1093  0.0614  0.1014
 2979DPPE   C1B57609   4.315   8.286   7.086 -0.0903 -0.0995 -0.2371
 2979DPPE   C2B57610   4.700   8.458   7.350  0.2090 -0.2449 -0.1450
 2979DPPE   C3B57611   5.133   8.476   7.496 -0.2341 -0.0501 -0.2903
 2979DPPE   C4B57612   5.425   8.196   7.242 -0.0538 -0.1367  0.3484
 2980DPPE   NH357613  17.175  10.789  27.629 -0.2814  0.1694 -0.1291
 2980DPPE   PO457614  16.654  10.862  27.607 -0.0007  0.0125  0.1891
 2980DPPE   GL157615  16.912  10.786  27.171  0.0038  0.0058  0.1586
 2980DPPE   GL257616  17.096  10.579  27.167  0.3761 -0.0497 -0.1084
 2980DPPE   C1A57617  16.676  10.614  26.762 -0.2029 -0.0180 -0.0479
 2980DPPE   C2A57618  16.529  10.572  26.353 -0.1142 -0.1889  0.0876
 2980DPPE   C3A57619  16.339  10.437  25.961  0.3457  0.2377 -0.2503
 2980DPPE   C4A57620  16.431  10.315  25.624  0.0212  0.1447 -0.1314
 2980DPPE   C1B57621  17.240  10.812  26.781 -0.0179 -0.0445 -0.4044
 2980DPPE   C2B57622  16.912  11.015  26.463 -0.5016 -0.1656 -0.0698
 2980DPPE   C3B57623  16.625  11.029  26.107 -0.3100 -0.2566  0.1008
 2980DPPE   C4B57624  16.245  11.213  25.971  0.0773 -0.0128 -0.2554
 2981DPPE   NH357625   3.028   3.751   9.582  0.3604 -0.4085  0.2549
 2981DPPE   PO457626   2.843   3.966   9.855  0.1349 -0.0589  0.3215
 2981DPPE   GL157627   3.166   4.010  10.159 -0.1524 -0.1002  0.0707
 2981DPPE   GL257628   3.306   3.729  10.100  0.1182  0.0556  0.0136
 2981DPPE   C1A57629   3.407   4.098  10.498  0.1546 -0.0677  0.1649
 2981DPPE   C2A57630   3.813   4.244  10.716 -0.3691  0.0780 -0.0679
 2981DPPE   C3A57631   4.220   4.397  10.435 -0.3182  0.1188 -0.2588
 2981DPPE   C4A57632   4.257   4.791  10.144  0.1466 -0.2143  0.1870
 2981DPPE   C1B57633   3.758   3.889  10.136 -0.0041  0.0513  0.2464
 2981DPPE   C2B57634   4.012   3.859  10.405  0.2476  0.1927 -0.1171
 2981DPPE   C3B57635   4.466   3.856  10.379 -0.1345 -0.0330 -0.2333
 2981DPPE   C4B57636   4.767   3.536  10.267 -0.1374  0.0477 -0.0339
 2982DPPE   NH357637   5.927  14.187   6.721  0.0404 -0.1126 -0.0573
 2982DPPE   PO457638   6.311  14.380   6.510  0.1709 -0.1768 -0.0609
 2982DPPE   GL157639   6.427  13.929   6.593  0.2163 -0.1738  0.0898
 2982DPPE   GL257640   6.504  13.681   6.474 -0.0770  0.0506  0.2276
 2982DPPE   C1A57641   6.688  13.678   6.928  0.2243  0.0515  0.0260
 2982DPPE   C2A57642   6.824  13.258   6.951  0.1593  0.1860  0.1233
 2982DPPE   C3A57643   6.821  12.854   6.760  0.5716  0.1838  0.1399
 2982DPPE   C4A57644   6.818  12.386   6.568 -0.0618 -0.6670 -0.1932
 2982DPPE   C1B57645   6.690  13.326   6.377 -0.1436 -0.1217  0.2314
 2982DPPE   C2B57646   7.021  13.209   6.440 -0.1234  0.1692  0.2280
 2982DPPE   C3B57647   7.333  13.018   6.773 -0.2162 -0.0857  0.0301
 2982DPPE   C4B57648   7.688  12.809   6.815  0.0535  0.0137 -0.0834
 2983DPPE   NH357649  11.558  10.633  21.815 -0.1679 -0.1106  0.1640
 2983DPPE   PO457650  11.792  10.831  22.251 -0.0551 -0.3074 -0.0328
 2983DPPE   GL157651  11.613  10.757  22.570 -0.1274 -0.1244 -0.0341
 2983DPPE   GL257652  11.893  10.701  22.757  0.1143  0.0107  0.1288
 2983DPPE   C1A57653  11.490  10.703  23.050  0.0691 -0.1766 -0.0268
 2983DPPE   C2A57654  11.210  10.758  23.323  0.1126  0.1476 -0.1449
 2983DPPE   C3A57655  11.003  10.436  23.395 -0.0809  0.2222 -0.0681
 2983DPPE   C4A57656  10.733  10.176  23.496  0.2627  0.4652 -0.0697
 2983DPPE   C1B57657  11.891  10.384  23.137  0.0141  0.1999  0.3703
 2983DPPE   C2B57658  11.744  10.365  23.549  0.1070 -0.2104  0.0201
 2983DPPE   C3B57659  11.462  10.531  23.719 -0.2169 -0.2889  0.2530
 2983DPPE   C4B57660  11.518  10.978  24.009 -0.1213 -0.0948  0.0744
 2984DPPE   NH357661  27.319  15.953  14.230  0.2706  0.0117 -0.0738
 2984DPPE   PO457662  27.492  15.681  14.017 -0.3507 -0.0264 -0.0108
 2984DPPE   GL157663  27.106  15.495  14.070  0.0318 -0.0614 -0.1897
 2984DPPE   GL257664  27.011  15.183  14.188 -0.0043 -0.1244  0.1175
 2984DPPE   C1A57665  26.632  15.420  14.015  0.2582 -0.1832  0.1813
 2984DPPE   C2A57666  26.284  15.307  14.203 -0.1202 -0.0893 -0.0090
 2984DPPE   C3A57667  25.757  15.089  14.234  0.3132 -0.0456  0.1715
 2984DPPE   C4A57668  25.430  14.999  14.014  0.2479  0.0376  0.3341
 2984DPPE   C1B57669  26.701  14.883  14.249 -0.1269 -0.1017 -0.1570
 2984DPPE   C2B57670  26.227  14.774  14.268  0.1933 -0.2266  0.0328
 2984DPPE   C3B57671  25.783  14.691  14.525  0.1447 -0.2676  0.1143
 2984DPPE   C4B57672  25.392  14.686  14.741  0.1772  0.0183 -0.0095
 2985DPPE   NH357673  15.135   4.700   0.895  0.0257 -0.1663  0.1065
 2985DPPE   PO457674  15.606   4.794   0.755 -0.0102 -0.2561 -0.0764
 2985DPPE   GL157675  15.627   4.973   1.144  0.1038 -0.0507 -0.0108
 2985DPPE   GL257676  15.581   5.441   1.303  0.0117 -0.0769  0.0963
 2985DPPE   C1A57677  15.656   5.025   1.650 -0.0764 -0.1131 -0.2826
 2985DPPE   C2A57678  15.954   5.051   2.017  0.0830 -0.1441  0.3222
 2985DPPE   C3A57679  16.220   5.312   2.234 -0.5145  0.0896 -0.0919
 2985DPPE   C4A57680  16.409   5.642   2.243  0.1679 -0.1631  0.2168
 2985DPPE   C1B57681  15.428   5.489   1.709 -0.4388  0.0122 -0.0758
 2985DPPE   C2B57682  15.609   5.440   2.119 -0.1054  0.2063  0.0869
 2985DPPE   C3B57683  15.757   5.234   2.496 -0.1727  0.1475 -0.0763
 2985DPPE   C4B57684  16.291   5.220   2.725  0.0767 -0.0351  0.1055
 2986DPPE   NH357685  20.904   5.534   5.506 -0.0659  0.1281  0.0320
 2986DPPE   PO457686  21.172   5.337   5.604 -0.0919  0.3180  0.2064
 2986DPPE   GL157687  21.105   5.031   5.941 -0.0704 -0.0244  0.0009
 2986DPPE   GL257688  20.770   5.166   5.876 -0.2017  0.0918  0.0830
 2986DPPE   C1A57689  21.032   4.856   6.305 -0.1613 -0.1351 -0.1625
 2986DPPE   C2A57690  20.717   4.874   6.620 -0.2113 -0.1710  0.0209
 2986DPPE   C3A57691  20.411   5.107   6.822  0.1273 -0.1344  0.0987
 2986DPPE   C4A57692  20.389   5.412   6.994 -0.0707  0.3752 -0.3320
 2986DPPE   C1B57693  20.537   5.224   6.340 -0.0774  0.3016  0.1157
 2986DPPE   C2B57694  20.082   5.350   6.476  0.0346  0.1276  0.1245
 2986DPPE   C3B57695  19.804   5.343   6.729 -0.1502 -0.4869  0.0934
 2986DPPE   C4B57696  19.437   5.168   6.995 -0.2818 -0.1192  0.1455
 2987DPPE   NH357697   8.970   0.710   4.701  0.0869 -0.1215 -0.3020
 2987DPPE   PO457698   9.063   0.328   5.067  0.1230  0.1369 -0.0394
 2987DPPE   GL157699   9.335   0.586   5.099  0.0765  0.0354  0.0804
 2987DPPE   GL257700   9.519   0.560   5.434  0.3377  0.0365 -0.3492
 2987DPPE   C1A57701   9.597   0.935   5.060  0.4271  0.0400 -0.1167
 2987DPPE   C2A57702   9.652   1.285   5.247  0.3221 -0.1679 -0.0891
 2987DPPE   C3A57703   9.983   1.638   5.251 -0.2275  0.0073  0.0779
 2987DPPE   C4A57704  10.272   2.036   5.453  0.0254  0.0244 -0.0447
 2987DPPE   C1B57705   9.821   0.906   5.558 -0.0045  0.1908 -0.1564
 2987DPPE   C2B57706   9.927   1.260   5.669 -0.2827  0.0597  0.2866
 2987DPPE   C3B57707   9.858   1.691   5.786 -0.0868  0.0488 -0.2465
 2987DPPE   C4B57708   9.534   1.790   5.851 -0.0874  0.2040  0.0232
 2988DPPE   NH357709  15.306  33.423  16.199 -0.0169  0.1046  0.0096
 2988DPPE   PO457710  15.010  33.414  15.845 -0.1138  0.1736  0.1185
 2988DPPE   GL157711  14.987  33.791  15.977  0.3178  0.1262 -0.1839
 2988DPPE   GL257712  14.700  33.912  15.954  0.0011  0.4884  0.2617
 2988DPPE   C1A57713  15.163  34.306  15.946  0.1321 -0.0468  0.4499
 2988DPPE   C2A57714  15.056  34.602  15.609 -0.2607 -0.2754  0.2097
 2988DPPE   C3A57715  14.859  34.938  15.441  0.1030  0.1569  0.0359
 2988DPPE   C4A57716  14.625  35.153  15.214  0.1921  0.1429 -0.0074
 2988DPPE   C1B57717  14.388  34.025  15.638  0.0573  0.3674 -0.0065
 2988DPPE   C2B57718  14.294  34.263  15.270  0.1021  0.0066 -0.1724
 2988DPPE   C3B57719  14.139  34.367  14.891 -0.1482 -0.1857 -0.0315
 2988DPPE   C4B57720  14.203  34.573  14.482  0.1351  0.1122 -0.4363
 2989DPPE   NH357721   3.880  10.307   6.451  0.2378  0.2098 -0.1462
 2989DPPE   PO457722   4.211  10.255   6.122  0.3120 -0.0985 -0.0791
 2989DPPE   GL157723   4.453  10.262   6.481 -0.2629 -0.2437  0.1885
 2989DPPE   GL257724   4.288  10.225   6.802  0.0817  0.1127  0.1004
 2989DPPE   C1A57725   4.748  10.191   6.634  0.0438 -0.2225 -0.1318
 2989DPPE   C2A57726   5.136  10.246   6.784 -0.0051  0.1618 -0.1389
 2989DPPE   C3A57727   5.564  10.286   6.933  0.1379 -0.0507 -0.0703
 2989DPPE   C4A57728   6.053  10.216   7.006  0.1841  0.0045  0.0671
 2989DPPE   C1B57729   4.578  10.146   7.115  0.1758 -0.4515 -0.0965
 2989DPPE   C2B57730   4.835   9.744   7.093 -0.0418  0.1919 -0.0609
 2989DPPE   C3B57731   4.946   9.336   6.903  0.2889 -0.2115 -0.0156
 2989DPPE   C4B57732   5.196   9.204   6.790  0.0458 -0.0205 -0.0566
 2990DPPE   NH357733  15.021   4.620  11.723  0.2972 -0.1201  0.1244
 2990DPPE   PO457734  14.716   4.897  11.843  0.2900  0.4521 -0.1249
 2990DPPE   GL157735  14.541   4.493  11.633 -0.0004  0.2983 -0.2057
 2990DPPE   GL257736  14.713   4.255  11.815 -0.3134 -0.1541 -0.0780
 2990DPPE   C1A57737  14.345   4.235  11.275  0.4753 -0.0677  0.1661
 2990DPPE   C2A57738  14.291   3.941  10.943  0.0051 -0.0349 -0.1177
 2990DPPE   C3A57739  14.166   3.685  10.658  0.4599  0.4714 -0.2076
 2990DPPE   C4A57740  14.243   3.484  10.269  0.1349  0.2519 -0.0825
 2990DPPE   C1B57741  14.600   3.949  11.549 -0.1261 -0.1127 -0.0502
 2990DPPE   C2B57742  14.501   3.616  11.294 -0.0007  0.0725  0.2435
 2990DPPE   C3B57743  14.514   3.477  10.936  0.1051  0.2666 -0.1781
 2990DPPE   C4B57744  14.401   3.106  10.638 -0.0049 -0.0629  0.0220
 2991DPPE   NH357745   9.447  15.244  17.148 -0.3835 -0.0220 -0.1046
 2991DPPE   PO457746   9.193  15.006  16.930 -0.0301 -0.0498  0.0109
 2991DPPE   GL157747   8.717  15.323  16.891  0.3491  0.2003 -0.0188
 2991DPPE   GL257748   8.597  15.107  16.635 -0.1483  0.0217 -0.1678
 2991DPPE   C1A57749   8.388  15.624  16.764 -0.1230 -0.2302  0.1190
 2991DPPE   C2A57750   8.014  15.618  16.709 -0.0740 -0.0125  0.0643
 2991DPPE   C3A57751   7.684  15.659  16.423 -0.3116  0.0998  0.1186
 2991DPPE   C4A57752   7.303  15.605  16.103 -0.0707  0.0813  0.2382
 2991DPPE   C1B57753   8.130  15.098  16.803 -0.2425 -0.2418 -0.1307
 2991DPPE   C2B57754   7.722  14.853  16.736  0.1479  0.2652  0.2491
 2991DPPE   C3B57755   7.441  14.553  16.687  0.1359  0.0230  0.0608
 2991DPPE   C4B57756   7.034  14.303  16.511 -0.1607 -0.0159 -0.1989
 2992DPPE   NH357757   6.909  17.807  17.805  0.1588 -0.0874  0.3308
 2992DPPE   PO457758   6.559  17.568  17.978 -0.2386 -0.0111  0.2026
 2992DPPE   GL157759   6.884  17.335  17.936 -0.0658 -0.1587 -0.1451
 2992DPPE   GL257760   7.211  17.351  17.741  0.0254 -0.1577  0.0644
 2992DPPE   C1A57761   7.146  16.886  17.928 -0.2317  0.0157 -0.2190
 2992DPPE   C2A57762   7.436  16.605  18.019 -0.1048 -0.1230  0.2260
 2992DPPE   C3A57763   7.608  16.229  17.986  0.0596 -0.2129  0.1360
 2992DPPE   C4A57764   7.858  15.861  18.055  0.1434 -0.2426  0.2240
 2992DPPE   C1B57765   7.505  16.959  17.574  0.0293  0.0102 -0.1184
 2992DPPE   C2B57766   7.855  16.626  17.673  0.0047  0.0265  0.1432
 2992DPPE   C3B57767   8.053  16.173  17.682  0.1123  0.2464 -0.0613
 2992DPPE   C4B57768   8.189  15.703  17.660  0.2067  0.4240 -0.0259
 2993DPPE   NH357769   8.846  36.361   5.718 -0.1583  0.0801 -0.2568
 2993DPPE   PO457770   8.975  36.089   6.065 -0.2241 -0.0369  0.1681
 2993DPPE   GL157771   9.046  36.405   6.321 -0.0430 -0.0269 -0.2363
 2993DPPE   GL257772   9.137  36.389   6.581  0.0397  0.0385  0.1271
 2993DPPE   C1A57773   9.092  36.903   6.340  0.1422  0.4459  0.1270
 2993DPPE   C2A57774   9.036  37.286   6.622  0.2449 -0.0874  0.1100
 2993DPPE   C3A57775   9.125  37.652   6.965 -0.2248 -0.0845  0.1150
 2993DPPE   C4A57776   9.058  38.088   6.976  0.3527  0.2823  0.1806
 2993DPPE   C1B57777   9.346  36.795   6.769 -0.0760 -0.0983  0.0947
 2993DPPE   C2B57778   9.560  37.063   7.182 -0.1439 -0.1583 -0.0697
 2993DPPE   C3B57779   9.778  37.355   7.376  0.0109 -0.2257 -0.2653
 2993DPPE   C4B57780   9.774  37.703   7.675 -0.1028 -0.0728  0.0356
 2994DPPE   NH357781  18.340   5.119   9.690  0.0196 -0.2502 -0.3279
 2994DPPE   PO457782  18.530   4.855   9.392 -0.0391 -0.1560 -0.0285
 2994DPPE   GL157783  18.527   4.476   9.239  0.0155 -0.0563 -0.2624
 2994DPPE   GL257784  18.709   4.493   8.953 -0.0817  0.1238  0.2050
 2994DPPE   C1A57785  18.323   4.160   9.210  0.0696 -0.0177 -0.3078
 2994DPPE   C2A57786  17.931   4.061   9.165 -0.1752  0.1236 -0.2052
 2994DPPE   C3A57787  17.748   3.856   8.791 -0.0892 -0.3328  0.3540
 2994DPPE   C4A57788  17.511   3.632   8.654 -0.1829 -0.1519  0.3361
 2994DPPE   C1B57789  18.919   4.195   8.698  0.1387 -0.1272 -0.2408
 2994DPPE   C2B57790  19.163   3.866   8.926 -0.0813 -0.0077 -0.3135
 2994DPPE   C3B57791  19.484   3.487   8.864 -0.0038  0.0764 -0.2438
 2994DPPE   C4B57792  19.803   3.329   8.596  0.3054  0.0155 -0.1627
 2995DPPE   NH357793  17.566  20.450   8.862 -0.0054 -0.0123 -0.0732
 2995DPPE   PO457794  17.921  20.586   8.987  0.0594  0.0110  0.0001
 2995DPPE   GL157795  17.955  20.253   9.185  0.0990  0.1121 -0.1267
 2995DPPE   GL257796  17.916  19.996   9.101  0.1472 -0.1837  0.2438
 2995DPPE   C1A57797  17.776  20.099   9.532 -0.0827  0.1344 -0.0448
 2995DPPE   C2A57798  17.360  20.137   9.732  0.1787  0.3859 -0.0379
 2995DPPE   C3A57799  17.261  19.905  10.084  0.1322  0.0861 -0.0799
 2995DPPE   C4A57800  17.211  19.517  10.271 -0.3032 -0.1079  0.3475
 2995DPPE   C1B57801  17.823  19.614   9.316  0.0221  0.1118 -0.0870
 2995DPPE   C2B57802  17.585  19.215   9.550 -0.1462 -0.0853  0.2750
 2995DPPE   C3B57803  17.285  18.943   9.745 -0.1325  0.2054 -0.0985
 2995DPPE   C4B57804  17.056  19.013  10.074 -0.1008  0.1795  0.1542
 2996DPPE   NH357805  27.874   9.522  18.720  0.2807  0.3421  0.3082
 2996DPPE   PO457806  27.926   9.698  19.129 -0.0841  0.0870  0.1753
 2996DPPE   GL157807  27.607   9.479  19.115 -0.0552  0.1025  0.1399
 2996DPPE   GL257808  27.621   9.137  19.004  0.3869 -0.2689  0.1522
 2996DPPE   C1A57809  27.259   9.535  18.838 -0.0027 -0.2603  0.2818
 2996DPPE   C2A57810  27.247   9.786  18.395  0.1085 -0.0500  0.0038
 2996DPPE   C3A57811  26.920   9.896  18.196 -0.0787 -0.3160  0.1322
 2996DPPE   C4A57812  26.515   9.923  18.171 -0.1214  0.1767 -0.3090
 2996DPPE   C1B57813  27.193   9.227  19.225 -0.3009 -0.0810 -0.2492
 2996DPPE   C2B57814  26.720   9.072  19.249 -0.1738  0.2885 -0.0693
 2996DPPE   C3B57815  26.339   8.950  18.939 -0.3033  0.1286 -0.2542
 2996DPPE   C4B57816  25.956   8.825  18.881 -0.3485 -0.0435  0.0161
 2997DPPE   NH357817  18.227  16.142   5.236 -0.0162 -0.0290 -0.1062
 2997DPPE   PO457818  17.972  15.832   5.088  0.0085 -0.2781  0.2298
 2997DPPE   GL157819  17.707  15.888   5.449 -0.0835 -0.2203 -0.3427
 2997DPPE   GL257820  17.797  16.155   5.552 -0.1276 -0.0221  0.1306
 2997DPPE   C1A57821  17.850  15.697   5.887  0.0298 -0.0067 -0.0804
 2997DPPE   C2A57822  18.066  15.534   6.293  0.1391 -0.3354  0.1206
 2997DPPE   C3A57823  18.153  15.229   6.615 -0.0872 -0.0753 -0.2404
 2997DPPE   C4A57824  18.404  14.814   6.605 -0.2855 -0.1812 -0.2768
 2997DPPE   C1B57825  17.862  16.197   6.009  0.0721 -0.1180 -0.1612
 2997DPPE   C2B57826  17.840  15.989   6.387  0.1094  0.1288 -0.1943
 2997DPPE   C3B57827  17.879  15.755   6.807  0.2099  0.1720 -0.2158
 2997DPPE   C4B57828  17.860  15.470   7.061 -0.2177 -0.1299 -0.3410
 2998DPPE   NH357829  20.542  14.734  26.704 -0.1218 -0.3330  0.1868
 2998DPPE   PO457830  20.278  14.289  26.827  0.0722 -0.1813  0.1840
 2998DPPE   GL157831  19.981  14.149  26.511 -0.1412 -0.0458 -0.0910
 2998DPPE   GL257832  20.230  13.987  26.302  0.0012 -0.0551  0.0268
 2998DPPE   C1A57833  19.611  14.272  26.237 -0.3719 -0.2675 -0.0978
 2998DPPE   C2A57834  19.352  14.512  25.973  0.0143  0.1382 -0.0357
 2998DPPE   C3A57835  18.883  14.553  25.807  0.0609  0.1154 -0.3562
 2998DPPE   C4A57836  18.735  14.839  25.549  0.0296 -0.2100  0.2682
 2998DPPE   C1B57837  19.916  13.946  26.006  0.2298  0.0043 -0.1660
 2998DPPE   C2B57838  19.596  13.968  25.880 -0.0622  0.0663 -0.2077
 2998DPPE   C3B57839  19.270  14.087  25.662 -0.1008 -0.1552 -0.0897
 2998DPPE   C4B57840  18.773  14.097  25.802 -0.1547 -0.1552 -0.1345
 2999DPPE   NH357841  18.690   5.498   9.493  0.0910  0.0696  0.3607
 2999DPPE   PO457842  18.305   5.720   9.503  0.0977  0.1038  0.1598
 2999DPPE   GL157843  18.002   5.569   9.298  0.0133  0.1651 -0.0704
 2999DPPE   GL257844  18.149   5.216   9.210 -0.0801 -0.0574  0.3621
 2999DPPE   C1A57845  17.686   5.715   8.973 -0.1529 -0.0110 -0.1704
 2999DPPE   C2A57846  17.450   5.573   8.664  0.1966  0.3015  0.1466
 2999DPPE   C3A57847  17.301   5.281   8.377  0.0570  0.0282  0.1010
 2999DPPE   C4A57848  17.438   5.204   8.078  0.2313  0.1501  0.1716
 2999DPPE   C1B57849  18.200   4.972   8.838 -0.1331 -0.1173  0.3115
 2999DPPE   C2B57850  18.230   4.829   8.424 -0.1118 -0.1141 -0.0580
 2999DPPE   C3B57851  18.473   4.753   7.988  0.1340  0.0104 -0.0313
 2999DPPE   C4B57852  18.387   4.944   7.651 -0.2752 -0.0846  0.0968
 3000DPPE   NH357853  16.887   4.277  11.358 -0.1241 -0.2553 -0.1908
 3000DPPE   PO457854  16.815   4.073  11.748 -0.1652 -0.0077 -0.6477
 3000DPPE   GL157855  16.556   3.792  11.481 -0.3224  0.2258  0.1623
 3000DPPE   GL257856  16.669   3.857  11.144 -0.0750 -0.1377  0.1358
 3000DPPE   C1A57857  16.491   3.432  11.169  0.1339 -0.1262 -0.0479
 3000DPPE   C2A57858  16.736   2.979  11.174 -0.1000 -0.0616 -0.3290
 3000DPPE   C3A57859  16.747   2.492  11.191  0.1492 -0.2901 -0.1921
 3000DPPE   C4A57860  16.702   2.116  10.914 -0.1748  0.3010  0.0498
 3000DPPE   C1B57861  16.320   3.822  10.814 -0.1043  0.1108  0.2533
 3000DPPE   C2B57862  15.970   3.485  10.801  0.0822 -0.3019  0.1348
 3000DPPE   C3B57863  16.102   3.153  10.534  0.0685 -0.3655  0.0020
 3000DPPE   C4B57864  16.144   2.812  10.309  0.0907  0.2116 -0.1912
 3001DPPE   NH357865  24.266  16.744  23.012 -0.1041  0.0504  0.1039
 3001DPPE   PO457866  24.339  16.786  22.572  0.0394  0.1387 -0.4612
 3001DPPE   GL157867  24.269  16.551  22.265  0.0311 -0.0965  0.3358
 3001DPPE   GL257868  24.489  16.670  21.948 -0.0566 -0.0913 -0.0048
 3001DPPE   C1A57869  23.963  16.223  22.017  0.0657 -0.0481  0.0984
 3001DPPE   C2A57870  23.604  16.006  22.157 -0.0809  0.0442  0.0811
 3001DPPE   C3A57871  23.520  15.679  22.420 -0.1499 -0.3182  0.0666
 3001DPPE   C4A57872  23.409  15.346  22.655  0.1240 -0.0434 -0.2151
 3001DPPE   C1B57873  24.243  16.428  21.679  0.2730 -0.0090 -0.1930
 3001DPPE   C2B57874  23.715  16.452  21.507 -0.0137  0.1872  0.1004
 3001DPPE   C3B57875  23.382  16.754  21.438 -0.0344  0.0878 -0.1636
 3001DPPE   C4B57876  22.970  16.876  21.662  0.1725  0.0079 -0.2192
 3002DPPE   NH357877  16.995   4.418  25.999 -0.0689 -0.0509 -0.1286
 3002DPPE   PO457878  16.541   4.224  25.929 -0.1180 -0.0912  0.0240
 3002DPPE   GL157879  16.310   4.386  25.641 -0.0502  0.0418 -0.1568
 3002DPPE   GL257880  15.974   4.445  25.595 -0.1372 -0.2418  0.1874
 3002DPPE   C1A57881  16.213   4.861  25.418 -0.3748  0.2570 -0.2365
 3002DPPE   C2A57882  15.938   5.065  25.164 -0.0277  0.0762 -0.0527
 3002DPPE   C3A57883  15.763   5.447  24.852  0.1210  0.0180 -0.2038
 3002DPPE   C4A57884  15.544   5.724  24.586  0.1240 -0.0059 -0.1437
 3002DPPE   C1B57885  15.733   4.646  25.349 -0.1986  0.2152 -0.1320
 3002DPPE   C2B57886  15.794   4.636  24.912  0.0558 -0.0193 -0.2746
 3002DPPE   C3B57887  15.716   4.517  24.495  0.2280 -0.1738  0.0112
 3002DPPE   C4B57888  15.526   4.484  24.138  0.0117  0.0532 -0.0816
 3003DPPE   NH357889  13.728   8.304  10.287 -0.1081  0.1279 -0.0300
 3003DPPE   PO457890  13.353   8.701  10.357  0.2606  0.1293 -0.0181
 3003DPPE   GL157891  13.115   8.379  10.168 -0.2212  0.1022 -0.1025
 3003DPPE   GL257892  12.779   8.272  10.212  0.2290  0.1492 -0.0472
 3003DPPE   C1A57893  13.155   8.160   9.866  0.0643  0.0958 -0.1161
 3003DPPE   C2A57894  13.262   7.931   9.480 -0.2642  0.1075 -0.4509
 3003DPPE   C3A57895  13.188   8.102   9.004  0.0759 -0.0669 -0.1037
 3003DPPE   C4A57896  12.940   7.951   8.726  0.0737  0.0075  0.1801
 3003DPPE   C1B57897  12.591   8.039   9.851 -0.4198 -0.2153 -0.0808
 3003DPPE   C2B57898  12.735   7.839   9.486  0.2240  0.2561 -0.1502
 3003DPPE   C3B57899  12.503   7.723   9.102  0.0710 -0.1240 -0.1286
 3003DPPE   C4B57900  12.480   7.728   8.772  0.3179  0.0171 -0.3313
 3004DPPE   NH357901   8.860  20.319  15.098  0.1720 -0.0949 -0.1713
 3004DPPE   PO457902   8.976  20.401  15.466 -0.3506 -0.1745  0.0539
 3004DPPE   GL157903   9.392  20.240  15.314 -0.0470  0.1754 -0.2284
 3004DPPE   GL257904   9.625  20.402  15.164  0.3573  0.2207  0.1811
 3004DPPE   C1A57905   9.598  19.921  15.270 -0.1584  0.1095  0.3243
 3004DPPE   C2A57906   9.756  19.502  15.057  0.1957 -0.0862 -0.0301
 3004DPPE   C3A57907   9.693  19.065  15.038 -0.0231  0.0721 -0.3449
 3004DPPE   C4A57908   9.835  18.752  14.892  0.0258 -0.2389  0.0989
 3004DPPE   C1B57909   9.953  20.206  15.118 -0.0921  0.0742 -0.0839
 3004DPPE   C2B57910  10.183  19.987  15.057 -0.1350  0.3181 -0.3793
 3004DPPE   C3B57911  10.263  19.617  15.058 -0.1322 -0.3747  0.0086
 3004DPPE   C4B57912  10.151  19.207  15.171  0.0378  0.3798  0.1311
 3005DPPE   NH357913  10.516  32.080  15.824 -0.0741  0.0459  0.0178
 3005DPPE   PO457914  10.886  32.343  15.590  0.0907 -0.1434  0.3926
 3005DPPE   GL157915  10.866  32.754  15.510  0.1436  0.1391 -0.0310
 3005DPPE   GL257916  10.773  33.010  15.709  0.2346 -0.2540 -0.2997
 3005DPPE   C1A57917  10.467  32.969  15.244 -0.0184  0.0126  0.1073
 3005DPPE   C2A57918  10.144  33.302  15.250 -0.0082  0.1019 -0.2808
 3005DPPE   C3A57919  10.120  33.729  15.165 -0.2814 -0.2676  0.0788
 3005DPPE   C4A57920  10.197  33.891  14.691 -0.1693 -0.4005  0.3441
 3005DPPE   C1B57921  10.797  33.420  15.502  0.1154 -0.3185 -0.1508
 3005DPPE   C2B57922  10.997  33.784  15.531  0.1290 -0.3228  0.1271
 3005DPPE   C3B57923  11.045  34.192  15.715  0.4635  0.0125  0.0460
 3005DPPE   C4B57924  11.397  34.495  15.620  0.0690 -0.4367  0.2409
 3006DPPE   NH357925  19.666   2.663   3.231 -0.0814 -0.1232  0.0408
 3006DPPE   PO457926  19.566   3.089   3.102 -0.0944  0.0076 -0.0987
 3006DPPE   GL157927  19.209   3.012   3.219 -0.0748  0.0312 -0.0487
 3006DPPE   GL257928  18.989   2.957   2.959  0.1322  0.1902 -0.0411
 3006DPPE   C1A57929  18.885   3.281   3.372 -0.0761  0.1659 -0.1608
 3006DPPE   C2A57930  18.758   3.482   3.703  0.0312  0.1277  0.2328
 3006DPPE   C3A57931  18.990   3.405   4.025  0.1925  0.1215  0.0846
 3006DPPE   C4A57932  19.384   3.442   4.192 -0.0702 -0.2449 -0.2917
 3006DPPE   C1B57933  18.514   3.091   3.062  0.0063 -0.0271 -0.1817
 3006DPPE   C2B57934  18.060   3.043   3.120  0.7681  0.1307 -0.4076
 3006DPPE   C3B57935  17.814   2.939   3.428  0.0338 -0.2662 -0.2588
 3006DPPE   C4B57936  17.823   3.175   3.760  0.0851 -0.0815  0.0362
 3007DPPE   NH357937  12.448   7.172  11.487 -0.0801 -0.1701  0.0619
 3007DPPE   PO457938  12.772   7.015  11.580 -0.3458 -0.2636 -0.1181
 3007DPPE   GL157939  12.593   6.684  11.406  0.0221 -0.4312 -0.0511
 3007DPPE   GL257940  12.534   6.556  11.103  0.1403  0.2288 -0.1863
 3007DPPE   C1A57941  12.382   6.287  11.452  0.1586 -0.3533 -0.0527
 3007DPPE   C2A57942  11.953   6.066  11.387  0.0745 -0.0968  0.2015
 3007DPPE   C3A57943  11.505   6.012  11.294  0.3220 -0.1569  0.0606
 3007DPPE   C4A57944  11.364   5.891  10.877  0.1000  0.0984 -0.1203
 3007DPPE   C1B57945  12.184   6.366  10.997 -0.2199 -0.2251  0.3728
 3007DPPE   C2B57946  11.862   6.081  10.882 -0.0667 -0.3044  0.0718
 3007DPPE   C3B57947  11.747   5.965  10.464 -0.3716  0.1244  0.1204
 3007DPPE   C4B57948  11.751   5.895  10.024 -0.1910 -0.0557  0.1780
 3008DPPE   NH357949  26.068   3.113  17.304 -0.0669 -0.1080 -0.1908
 3008DPPE   PO457950  26.259   3.476  16.895  0.0347 -0.0038  0.0225
 3008DPPE   GL157951  25.976   3.785  16.793 -0.0817  0.0604  0.3497
 3008DPPE   GL257952  26.081   3.898  16.461 -0.0942  0.1765  0.0482
 3008DPPE   C1A57953  25.766   4.038  17.070  0.1966 -0.2250 -0.3148
 3008DPPE   C2A57954  25.581   4.339  17.353  0.1230  0.2307  0.0452
 3008DPPE   C3A57955  25.339   4.651  17.227  0.0632  0.1280  0.0275
 3008DPPE   C4A57956  25.356   4.975  17.063 -0.1397  0.0890 -0.0714
 3008DPPE   C1B57957  25.602   4.079  16.574 -0.2508 -0.3503 -0.2632
 3008DPPE   C2B57958  25.120   4.202  16.522 -0.0098 -0.0795 -0.1908
 3008DPPE   C3B57959  24.940   4.499  16.227  0.1424 -0.1522  0.2927
 3008DPPE   C4B57960  24.579   4.524  16.037 -0.0796  0.0272  0.0516
 3009DPPE   NH357961   7.538   0.649   6.932 -0.0233 -0.1893 -0.1022
 3009DPPE   PO457962   7.596   0.870   6.533 -0.1009 -0.0750 -0.0803
 3009DPPE   GL157963   7.761   1.099   6.809 -0.0137 -0.0890 -0.0136
 3009DPPE   GL257964   7.506   1.250   6.995 -0.1015 -0.3272  0.0149
 3009DPPE   C1A57965   8.006   1.406   6.717  0.1070  0.0249  0.2323
 3009DPPE   C2A57966   8.255   1.632   7.037  0.2319 -0.1127 -0.0824
 3009DPPE   C3A57967   8.600   1.792   7.148 -0.2035 -0.0643  0.0918
 3009DPPE   C4A57968   8.871   2.087   7.345 -0.2195 -0.1157  0.2651
 3009DPPE   C1B57969   7.584   1.602   7.388 -0.1876 -0.0954  0.1318
 3009DPPE   C2B57970   7.919   1.740   7.504  0.1751 -0.1977 -0.0529
 3009DPPE   C3B57971   7.981   1.651   7.932  0.0810  0.0142 -0.1783
 3009DPPE   C4B57972   8.111   1.574   8.387  0.2401  0.3137 -0.3972
 3010DPPE   NH357973  10.092  34.573  17.961  0.0825  0.0730 -0.1346
 3010DPPE   PO457974   9.600  34.584  17.917 -0.3577  0.0311 -0.0365
 3010DPPE   GL157975   9.721  34.930  17.734  0.2210  0.0674  0.0013
 3010DPPE   GL257976  10.067  35.083  17.687 -0.1617  0.2184  0.0667
 3010DPPE   C1A57977   9.701  35.327  17.436 -0.0053  0.2798  0.1266
 3010DPPE   C2A57978   9.798  35.689  17.299 -0.0344  0.1035 -0.3652
 3010DPPE   C3A57979   9.939  35.889  16.978  0.2198  0.0949  0.3225
 3010DPPE   C4A57980  10.258  36.215  17.034  0.0259  0.0344 -0.0733
 3010DPPE   C1B57981  10.125  35.103  17.220  0.1716  0.0993 -0.2078
 3010DPPE   C2B57982   9.765  35.258  16.898  0.0245  0.0042  0.2303
 3010DPPE   C3B57983   9.588  35.402  16.605 -0.1255 -0.1197 -0.1955
 3010DPPE   C4B57984   9.631  35.835  16.518  0.1143 -0.1236  0.1964
 3011DPPE   NH357985  12.592   1.808  24.402  0.1079 -0.0395  0.1896
 3011DPPE   PO457986  12.846   1.944  23.973  0.0612  0.1953  0.0148
 3011DPPE   GL157987  12.798   2.336  23.811 -0.0163 -0.0316 -0.1141
 3011DPPE   GL257988  13.002   2.449  23.727 -0.0427  0.2248  0.0406
 3011DPPE   C1A57989  12.580   2.582  23.450  0.3044 -0.2052  0.4187
 3011DPPE   C2A57990  12.657   2.762  22.930 -0.3707 -0.0952 -0.1515
 3011DPPE   C3A57991  12.587   2.741  22.498  0.3511  0.1100 -0.0579
 3011DPPE   C4A57992  12.424   2.962  22.166  0.0025 -0.0410  0.0276
 3011DPPE   C1B57993  13.409   2.497  23.522 -0.1865 -0.4268 -0.0242
 3011DPPE   C2B57994  13.509   2.741  23.176 -0.1251  0.0563 -0.1023
 3011DPPE   C3B57995  13.533   2.881  22.775  0.1576  0.2990 -0.0865
 3011DPPE   C4B57996  13.527   2.664  22.402 -0.0908  0.0423  0.2040
 3012DPPE   NH357997  20.435  35.758  19.772 -0.1850  0.0150 -0.0502
 3012DPPE   PO457998  20.147  35.702  20.095 -0.0595 -0.1702 -0.2119
 3012DPPE   GL157999  20.047  36.090  19.823 -0.0754  0.0812  0.1563
 3012DPPE   GL258000  20.058  36.167  19.550 -0.0494 -0.1676 -0.0379
 3012DPPE   C1A58001  19.604  36.243  19.691  0.0436  0.2004 -0.1090
 3012DPPE   C2A58002  19.473  36.591  19.533 -0.1505  0.0034 -0.1404
 3012DPPE   C3A58003  19.200  36.842  19.192  0.0020 -0.1952 -0.4308
 3012DPPE   C4A58004  18.852  37.117  19.169 -0.1901 -0.1204  0.0343
 3012DPPE   C1B58005  20.096  36.330  19.124  0.0013  0.1353  0.1694
 3012DPPE   C2B58006  20.143  36.656  18.990 -0.0055  0.0645  0.1187
 3012DPPE   C3B58007  20.314  37.064  18.917  0.1119  0.1738  0.1209
 3012DPPE   C4B58008  20.169  37.448  18.537 -0.0876  0.0649  0.0920
 3013DPPE   NH358009   5.793  33.780  13.943 -0.1127 -0.1283 -0.0383
 3013DPPE   PO458010   5.561  33.728  13.608  0.0193  0.0080 -0.4284
 3013DPPE   GL158011   5.686  34.258  13.650  0.0198 -0.4329 -0.1871
 3013DPPE   GL258012   5.599  34.558  13.808 -0.2595  0.1577 -0.1678
 3013DPPE   C1A58013   6.065  34.468  13.331 -0.1722  0.0044 -0.0452
 3013DPPE   C2A58014   6.169  34.737  12.915  0.1403  0.3628  0.0372
 3013DPPE   C3A58015   6.293  35.135  12.768  0.0874  0.2373 -0.1156
 3013DPPE   C4A58016   6.609  35.468  12.714  0.3528  0.3477 -0.0807
 3013DPPE   C1B58017   5.845  34.903  13.711  0.1987  0.0113  0.2604
 3013DPPE   C2B58018   6.090  35.376  13.633 -0.1993 -0.1166 -0.0171
 3013DPPE   C3B58019   6.130  35.652  14.016  0.0441  0.2455 -0.2237
 3013DPPE   C4B58020   6.167  35.988  14.185  0.1969  0.1871  0.2029
 3014DPPE   NH358021   4.494   2.525   7.975  0.2473  0.2521  0.0796
 3014DPPE   PO458022   4.418   2.768   8.415  0.1081  0.3668 -0.2362
 3014DPPE   GL158023   4.578   3.090   8.451 -0.0078 -0.0321  0.5213
 3014DPPE   GL258024   4.425   3.342   8.676  0.1174  0.3327  0.1029
 3014DPPE   C1A58025   4.797   3.033   8.808 -0.1283 -0.0189 -0.0474
 3014DPPE   C2A58026   5.202   3.033   8.930 -0.2181  0.2517  0.1605
 3014DPPE   C3A58027   5.567   3.330   8.942  0.0623 -0.0781 -0.4155
 3014DPPE   C4A58028   5.904   3.693   9.085 -0.0452 -0.1610 -0.1488
 3014DPPE   C1B58029   4.528   3.426   9.004 -0.0030  0.1745  0.1344
 3014DPPE   C2B58030   4.661   3.627   9.461  0.6004  0.0741  0.2260
 3014DPPE   C3B58031   4.717   3.978   9.829 -0.4121  0.4706  0.0416
 3014DPPE   C4B58032   4.505   4.341   9.976  0.3098 -0.0729  0.3661
 3015DPPE   NH358033  19.963   7.655   5.078  0.1118 -0.2274  0.3620
 3015DPPE   PO458034  19.844   7.337   4.695 -0.0833  0.0158  0.0196
 3015DPPE   GL158035  19.543   7.359   4.760  0.2561  0.0700 -0.1278
 3015DPPE   GL258036  19.554   7.405   5.190 -0.2007  0.3457  0.2398
 3015DPPE   C1A58037  19.119   7.303   4.770  0.0891 -0.1758 -0.1154
 3015DPPE   C2A58038  19.020   7.147   5.143 -0.1434  0.0576 -0.2729
 3015DPPE   C3A58039  19.070   7.232   5.591  0.1773  0.0026  0.2099
 3015DPPE   C4A58040  18.745   7.177   5.914 -0.3671 -0.0727 -0.0707
 3015DPPE   C1B58041  19.539   7.111   5.559 -0.0112  0.4214  0.1346
 3015DPPE   C2B58042  19.278   6.904   5.990  0.1894 -0.0747  0.1385
 3015DPPE   C3B58043  19.389   6.945   6.471 -0.5016 -0.1296 -0.2943
 3015DPPE   C4B58044  19.295   6.929   6.909  0.2831 -0.1628 -0.0992
 3016DPPE   NH358045  18.380   8.816   2.737  0.1954 -0.0362 -0.1372
 3016DPPE   PO458046  17.926   8.592   2.748  0.0937  0.1459  0.0371
 3016DPPE   GL158047  17.620   8.299   2.850  0.1911  0.0915 -0.1859
 3016DPPE   GL258048  17.427   8.272   2.561 -0.0453 -0.2789 -0.1977
 3016DPPE   C1A58049  17.067   8.378   2.915 -0.0328 -0.4160 -0.0290
 3016DPPE   C2A58050  16.646   8.361   3.075  0.0856 -0.1479  0.1829
 3016DPPE   C3A58051  16.507   7.963   3.247  0.1416  0.3257 -0.1094
 3016DPPE   C4A58052  16.712   7.671   3.422  0.1304 -0.2773 -0.3433
 3016DPPE   C1B58053  17.299   7.898   2.694  0.1665  0.0765  0.1363
 3016DPPE   C2B58054  17.082   7.592   2.592 -0.0251 -0.0691 -0.2560
 3016DPPE   C3B58055  16.615   7.609   2.851 -0.0675  0.2115  0.0353
 3016DPPE   C4B58056  16.613   7.118   3.151 -0.2767 -0.0216 -0.1676
 3017DPPE   NH358057  21.532  14.230  21.161  0.1897 -0.2826  0.1257
 3017DPPE   PO458058  21.754  14.475  20.985 -0.2247  0.1652  0.1439
 3017DPPE   GL158059  22.079  14.445  21.185 -0.2979  0.0127 -0.1494
 3017DPPE   GL258060  21.989  14.197  21.323  0.0688  0.2606 -0.0445
 3017DPPE   C1A58061  22.416  14.698  21.178 -0.1745  0.0932 -0.0783
 3017DPPE   C2A58062  22.565  15.042  21.158  0.3726  0.0239  0.1834
 3017DPPE   C3A58063  22.694  15.369  21.485 -0.3074 -0.1764  0.0567
 3017DPPE   C4A58064  23.122  15.371  21.763  0.3504  0.1635 -0.2819
 3017DPPE   C1B58065  22.099  14.264  21.758  0.0061 -0.0119  0.0829
 3017DPPE   C2B58066  22.331  14.589  21.978  0.0488 -0.0922 -0.1164
 3017DPPE   C3B58067  22.567  14.773  22.329 -0.0112 -0.0235  0.0554
 3017DPPE   C4B58068  22.988  14.887  22.507 -0.2010  0.0696 -0.0439
 3018DPPE   NH358069   5.689  34.168  14.839 -0.4829  0.1650 -0.0124
 3018DPPE   PO458070   5.515  34.517  15.041  0.0222 -0.2270 -0.1551
 3018DPPE   GL158071   5.680  34.827  14.685 -0.0971  0.0184  0.1717
 3018DPPE   GL258072   5.309  35.100  14.599 -0.0760 -0.0884 -0.0163
 3018DPPE   C1A58073   5.985  35.094  14.701  0.0093 -0.1714  0.1247
 3018DPPE   C2A58074   6.358  35.096  14.624 -0.2023  0.0212 -0.0327
 3018DPPE   C3A58075   6.785  35.185  14.755 -0.2905  0.1007 -0.3387
 3018DPPE   C4A58076   7.118  35.006  15.033  0.1143  0.1095  0.3253
 3018DPPE   C1B58077   5.599  35.295  14.359 -0.3555 -0.0877 -0.0160
 3018DPPE   C2B58078   5.933  35.483  14.469 -0.1135 -0.1150 -0.3825
 3018DPPE   C3B58079   6.417  35.648  14.451  0.4080 -0.3388  0.1408
 3018DPPE   C4B58080   6.655  35.819  14.077 -0.0545 -0.1087  0.1205
 3019DPPE   NH358081  13.670   8.137  10.935 -0.1314  0.0281  0.0139
 3019DPPE   PO458082  13.939   7.895  10.577 -0.1315  0.3167  0.2510
 3019DPPE   GL158083  13.763   7.640  10.219 -0.1767  0.0683 -0.2398
 3019DPPE   GL258084  13.770   7.413   9.996 -0.0149  0.2123 -0.0371
 3019DPPE   C1A58085  13.315   7.669  10.001 -0.0264  0.1486 -0.2050
 3019DPPE   C2A58086  12.926   7.406   9.846 -0.1673  0.1823 -0.3194
 3019DPPE   C3A58087  12.683   7.287   9.417  0.0324  0.1371 -0.0555
 3019DPPE   C4A58088  12.738   7.094   8.958 -0.1457 -0.0018  0.0899
 3019DPPE   C1B58089  13.764   7.387   9.534 -0.0151  0.2146  0.1598
 3019DPPE   C2B58090  13.747   7.277   9.057 -0.0880  0.0206 -0.3240
 3019DPPE   C3B58091  13.555   6.940   9.008 -0.0967  0.2252 -0.1165
 3019DPPE   C4B58092  13.086   6.751   9.122 -0.1074 -0.1118 -0.3068
 3020DPPE   NH358093   7.332   5.091  23.150  0.0422  0.1202 -0.0936
 3020DPPE   PO458094   7.705   4.904  23.158 -0.0860  0.0875 -0.0255
 3020DPPE   GL158095   7.614   4.982  22.730 -0.1961 -0.3207 -0.0623
 3020DPPE   GL258096   7.442   4.761  22.443 -0.4256  0.1020  0.0190
 3020DPPE   C1A58097   7.840   5.242  22.574 -0.3188  0.2284 -0.0483
 3020DPPE   C2A58098   8.120   5.301  22.250 -0.3597  0.1249  0.0717
 3020DPPE   C3A58099   8.517   5.525  22.235  0.0364  0.0984 -0.1965
 3020DPPE   C4A58100   8.873   5.747  22.131 -0.3519 -0.0437  0.4100
 3020DPPE   C1B58101   7.823   4.872  22.259 -0.0824  0.0031 -0.2105
 3020DPPE   C2B58102   8.256   4.779  22.132 -0.0816  0.0063 -0.3044
 3020DPPE   C3B58103   8.601   4.515  22.053  0.0475  0.3759  0.0322
 3020DPPE   C4B58104   8.490   4.053  21.998  0.1264 -0.1321 -0.1798
 3021DPPE   NH358105   5.687   6.104  21.788 -0.0785 -0.0479  0.1076
 3021DPPE   PO458106   5.702   6.411  21.596  0.1015  0.1398 -0.0484
 3021DPPE   GL158107   6.074   6.237  21.438  0.1059  0.3378  0.1932
 3021DPPE   GL258108   6.311   5.976  21.548  0.2526  0.3406  0.1270
 3021DPPE   C1A58109   6.411   6.483  21.448 -0.0609  0.0011  0.0582
 3021DPPE   C2A58110   6.661   6.786  21.203  0.0012 -0.2407 -0.0345
 3021DPPE   C3A58111   6.960   6.849  21.045 -0.0535 -0.0535 -0.1527
 3021DPPE   C4A58112   7.315   7.087  20.903 -0.1858 -0.0028  0.0574
 3021DPPE   C1B58113   6.596   5.964  21.115  0.1895  0.3218 -0.1074
 3021DPPE   C2B58114   7.013   5.950  21.002 -0.0120  0.0869  0.0271
 3021DPPE   C3B58115   7.367   6.124  20.867 -0.2259  0.0915  0.2752
 3021DPPE   C4B58116   7.727   6.001  20.728  0.0967  0.0071  0.0788
 3022DPPE   NH358117  26.277  11.945   9.125  0.2250 -0.1073  0.0291
 3022DPPE   PO458118  26.121  11.397   9.192  0.1059 -0.2244  0.0356
 3022DPPE   GL158119  25.849  11.335   9.609 -0.3041 -0.0017 -0.2884
 3022DPPE   GL258120  25.938  11.091   9.843  0.2586 -0.1357  0.3097
 3022DPPE   C1A58121  25.483  11.055   9.827 -0.0717  0.2715  0.2579
 3022DPPE   C2A58122  25.134  11.017  10.063  0.0650  0.0711  0.2349
 3022DPPE   C3A58123  24.855  11.345  10.184 -0.1026 -0.0636  0.2949
 3022DPPE   C4A58124  24.527  11.547  10.276 -0.3450 -0.3743 -0.0953
 3022DPPE   C1B58125  25.735  11.353  10.204 -0.4411  0.2260  0.1997
 3022DPPE   C2B58126  25.417  11.346  10.344  0.3854 -0.0927  0.2330
 3022DPPE   C3B58127  25.242  11.477  10.609 -0.1967  0.0165 -0.2362
 3022DPPE   C4B58128  25.055  11.414  11.067 -0.0275  0.1925  0.2801
 3023DPPE   NH358129  17.427  33.340  11.531 -0.0424  0.5401  0.0995
 3023DPPE   PO458130  17.131  33.102  11.218  0.3267  0.0010 -0.2909
 3023DPPE   GL158131  16.989  33.501  11.225  0.1428 -0.2502 -0.1301
 3023DPPE   GL258132  16.652  33.425  11.344  0.0526 -0.5183 -0.0246
 3023DPPE   C1A58133  16.942  33.956  11.284  0.1525 -0.1048  0.1298
 3023DPPE   C2A58134  16.851  34.345  11.500 -0.0541 -0.0179 -0.1125
 3023DPPE   C3A58135  16.565  34.617  11.438 -0.1010 -0.1828 -0.0155
 3023DPPE   C4A58136  16.602  35.078  11.424 -0.1511 -0.0039 -0.2978
 3023DPPE   C1B58137  16.419  33.727  11.554 -0.2353  0.3557 -0.1261
 3023DPPE   C2B58138  16.057  33.733  11.645 -0.1802  0.1922 -0.1857
 3023DPPE   C3B58139  15.661  34.039  11.552 -0.0872 -0.0399 -0.0853
 3023DPPE   C4B58140  15.306  34.058  11.295 -0.0376  0.3676 -0.1545
 3024DPPE   NH358141  26.662  10.311   9.802  0.1239 -0.2059 -0.0078
 3024DPPE   PO458142  26.873  10.493  10.262  0.3992 -0.1744 -0.0605
 3024DPPE   GL158143  26.379  10.611  10.142  0.0250  0.1221  0.4351
 3024DPPE   GL258144  26.231  10.663   9.856 -0.3435  0.0342 -0.1151
 3024DPPE   C1A58145  25.981  10.659  10.332  0.2473 -0.0861  0.0175
 3024DPPE   C2A58146  25.527  10.812  10.421  0.2117 -0.4422 -0.1071
 3024DPPE   C3A58147  25.064  10.989  10.606 -0.0815  0.0099  0.0796
 3024DPPE   C4A58148  24.739  11.246  10.618  0.1975  0.0465  0.1602
 3024DPPE   C1B58149  25.839  10.464   9.873 -0.3227  0.0535  0.0153
 3024DPPE   C2B58150  25.410  10.403   9.890 -0.1097 -0.0026 -0.0917
 3024DPPE   C3B58151  25.108  10.094   9.701  0.1398 -0.0863 -0.0917
 3024DPPE   C4B58152  25.090   9.654   9.538  0.0255 -0.0515  0.0516
 3025DPPE   NH358153  15.583  21.814  21.324 -0.2279  0.0476 -0.1371
 3025DPPE   PO458154  15.583  21.970  20.996 -0.2626  0.1766 -0.0894
 3025DPPE   GL158155  15.746  21.531  20.987  0.0008  0.0601  0.0011
 3025DPPE   GL258156  15.899  21.594  20.600  0.0985 -0.2262  0.1337
 3025DPPE   C1A58157  15.804  21.064  21.018 -0.0450  0.4279 -0.2313
 3025DPPE   C2A58158  15.800  20.699  20.944  0.1366  0.0969 -0.0051
 3025DPPE   C3A58159  15.813  20.493  20.665 -0.0211  0.2933 -0.0863
 3025DPPE   C4A58160  15.954  20.179  20.523 -0.1380 -0.2068 -0.3593
 3025DPPE   C1B58161  16.037  21.247  20.493 -0.0097  0.2330  0.1485
 3025DPPE   C2B58162  16.124  20.782  20.342 -0.1462 -0.5154 -0.3406
 3025DPPE   C3B58163  16.372  20.518  20.518 -0.2596 -0.0460 -0.0725
 3025DPPE   C4B58164  16.665  20.186  20.489  0.0877  0.0140  0.0529
 3026DPPE   NH358165   5.422  15.373  14.264 -0.1519 -0.0132  0.0984
 3026DPPE   PO458166   5.773  15.678  14.341 -0.2132 -0.0757 -0.2432
 3026DPPE   GL158167   5.843  15.311  14.607  0.2232  0.1645 -0.1648
 3026DPPE   GL258168   5.882  15.225  14.977 -0.2052 -0.1330  0.0479
 3026DPPE   C1A58169   5.803  14.847  14.621 -0.1248  0.1658 -0.2284
 3026DPPE   C2A58170   5.946  14.575  14.433 -0.3159  0.1651 -0.0402
 3026DPPE   C3A58171   6.364  14.435  14.160  0.0635  0.4464 -0.2145
 3026DPPE   C4A58172   6.696  14.322  13.919 -0.1958  0.0406 -0.0102
 3026DPPE   C1B58173   6.293  15.288  14.729  0.2284 -0.1254  0.1329
 3026DPPE   C2B58174   6.641  15.129  14.887 -0.1389 -0.1342  0.1495
 3026DPPE   C3B58175   7.046  14.729  14.811 -0.3889 -0.2240  0.1646
 3026DPPE   C4B58176   7.331  14.335  14.953 -0.3087  0.0465 -0.2562
 3027DPPE   NH358177  22.087   5.325  13.680  0.1775  0.1504  0.0725
 3027DPPE   PO458178  21.997   4.853  13.592 -0.1384  0.0827 -0.2086
 3027DPPE   GL158179  22.405   4.808  13.430 -0.2201  0.0752  0.4089
 3027DPPE   GL258180  22.321   4.409  13.312 -0.2733 -0.0224  0.1352
 3027DPPE   C1A58181  22.769   4.615  13.289 -0.0522 -0.1164 -0.3577
 3027DPPE   C2A58182  23.204   4.464  13.270  0.1621 -0.4071  0.1141
 3027DPPE   C3A58183  23.265   4.055  13.131 -0.2123 -0.1053 -0.1177
 3027DPPE   C4A58184  23.445   3.685  13.251  0.1773  0.1658 -0.0512
 3027DPPE   C1B58185  22.661   4.125  13.229  0.2113  0.1828 -0.2210
 3027DPPE   C2B58186  22.883   3.753  13.144 -0.0273  0.1479  0.0084
 3027DPPE   C3B58187  23.136   3.309  13.183 -0.3557 -0.1185  0.2827
 3027DPPE   C4B58188  23.334   3.018  13.248  0.0979 -0.1371 -0.1045
 3028DPPE   NH358189   3.083  12.366  13.236 -0.1042 -0.0387  0.0227
 3028DPPE   PO458190   3.025  11.906  13.389  0.0089  0.1265  0.0217
 3028DPPE   GL158191   3.215  11.563  13.334 -0.2628  0.2872  0.4144
 3028DPPE   GL258192   3.066  11.496  13.057  0.0729 -0.2184 -0.0258
 3028DPPE   C1A58193   3.519  11.238  13.544 -0.1724 -0.2599  0.0828
 3028DPPE   C2A58194   3.592  10.859  13.500  0.0708 -0.0940  0.0438
 3028DPPE   C3A58195   3.452  10.557  13.145  0.0576 -0.0886  0.0211
 3028DPPE   C4A58196   3.418  10.460  12.682 -0.3650 -0.6889  0.3965
 3028DPPE   C1B58197   3.202  11.189  12.752  0.3275  0.1198  0.1732
 3028DPPE   C2B58198   3.432  10.989  12.543  0.4840  0.1923 -0.1572
 3028DPPE   C3B58199   3.851  10.977  12.581 -0.2046 -0.2914 -0.4000
 3028DPPE   C4B58200   4.143  11.103  12.624 -0.1894 -0.0890 -0.3042
 3029DPPE   NH358201  16.964  12.205  27.845  0.2114  0.3374 -0.0474
 3029DPPE   PO458202  17.264  12.094  27.542  0.1668  0.0001 -0.0003
 3029DPPE   GL158203  17.245  12.246  27.116 -0.1183 -0.0498  0.0564
 3029DPPE   GL258204  17.469  12.064  26.982 -0.1454 -0.0114 -0.3670
 3029DPPE   C1A58205  17.019  12.225  26.685 -0.1738 -0.1493 -0.0153
 3029DPPE   C2A58206  16.761  12.094  26.293 -0.2782 -0.0705  0.2193
 3029DPPE   C3A58207  16.905  11.964  25.949  0.2288  0.1416  0.0501
 3029DPPE   C4A58208  17.291  11.638  25.724  0.0990 -0.2291  0.1182
 3029DPPE   C1B58209  17.467  12.252  26.526 -0.0840 -0.2806 -0.2280
 3029DPPE   C2B58210  17.311  12.254  26.145  0.1028  0.0489 -0.2086
 3029DPPE   C3B58211  17.320  12.231  25.728  0.2907 -0.0262  0.0397
 3029DPPE   C4B58212  17.241  11.941  25.267 -0.2626  0.1586  0.2712
 3030DPPE   NH358213   7.932  18.996  17.895 -0.0149  0.1581  0.1451
 3030DPPE   PO458214   8.084  19.105  18.228 -0.0577  0.1527  0.0246
 3030DPPE   GL158215   8.333  18.713  18.408 -0.3016  0.3618  0.1932
 3030DPPE   GL258216   8.148  18.403  18.389  0.2587  0.1916 -0.2004
 3030DPPE   C1A58217   8.667  18.492  18.151 -0.1093  0.1408 -0.0618
 3030DPPE   C2A58218   8.784  18.216  17.893  0.0084  0.0602  0.1581
 3030DPPE   C3A58219   8.711  17.801  17.793  0.0959  0.1804  0.0277
 3030DPPE   C4A58220   8.469  17.660  18.140  0.1042  0.1351  0.0723
 3030DPPE   C1B58221   8.317  17.979  18.484  0.2026 -0.2582 -0.2073
 3030DPPE   C2B58222   8.157  17.576  18.755 -0.0963 -0.0794  0.0153
 3030DPPE   C3B58223   8.430  17.297  18.984 -0.1415  0.1745  0.1140
 3030DPPE   C4B58224   8.507  17.177  19.317 -0.1331  0.3669  0.2769
 3031DPPE   NH358225  13.762  35.606   3.889 -0.2298 -0.1377  0.1523
 3031DPPE   PO458226  14.051  35.279   4.150 -0.1621  0.2791  0.3429
 3031DPPE   GL158227  14.278  35.446   4.555 -0.2598 -0.2049  0.2681
 3031DPPE   GL258228  14.599  35.630   4.562 -0.0779 -0.1076 -0.0832
 3031DPPE   C1A58229  14.198  35.723   4.901  0.2793  0.1047 -0.0886
 3031DPPE   C2A58230  14.169  35.799   5.331  0.1830  0.2087 -0.1125
 3031DPPE   C3A58231  14.405  35.816   5.594  0.0939 -0.3945 -0.1174
 3031DPPE   C4A58232  14.272  35.775   6.091  0.1961 -0.0618  0.2175
 3031DPPE   C1B58233  14.812  35.488   4.913 -0.1262  0.0102 -0.1871
 3031DPPE   C2B58234  14.633  35.339   5.335 -0.0791  0.0446  0.0207
 3031DPPE   C3B58235  14.648  35.308   5.789  0.1516  0.0163 -0.0709
 3031DPPE   C4B58236  14.652  35.334   6.252 -0.2835  0.1073 -0.0636
 3032DPPE   NH358237  14.915  14.541   9.491  0.0940  0.1751  0.2079
 3032DPPE   PO458238  14.795  14.844   9.178 -0.0512  0.0543  0.3276
 3032DPPE   GL158239  14.762  14.983   8.750  0.1331 -0.1311  0.0942
 3032DPPE   GL258240  14.556  14.768   8.502  0.1027 -0.1024  0.0856
 3032DPPE   C1A58241  14.763  15.217   8.411 -0.0059  0.1467 -0.1977
 3032DPPE   C2A58242  14.681  15.666   8.358  0.0229 -0.3148  0.2047
 3032DPPE   C3A58243  14.462  15.974   8.073  0.1617  0.1612 -0.0299
 3032DPPE   C4A58244  14.264  16.275   7.737  0.3876 -0.0836 -0.1246
 3032DPPE   C1B58245  14.566  14.880   8.094 -0.0061 -0.2302  0.0318
 3032DPPE   C2B58246  14.372  15.050   7.692  0.2960 -0.0266 -0.0231
 3032DPPE   C3B58247  14.503  15.368   7.290 -0.0107 -0.2839 -0.0855
 3032DPPE   C4B58248  14.434  15.513   6.872  0.1409 -0.1569  0.0653
 3033DPPE   NH358249  27.757  13.883  17.238  0.4771 -0.0612 -0.0734
 3033DPPE   PO458250  27.934  13.948  17.695 -0.2728  0.2753  0.0355
 3033DPPE   GL158251  27.537  13.752  17.734  0.4950  0.0131 -0.1422
 3033DPPE   GL258252  27.542  13.512  17.551  0.1116 -0.1552  0.0277
 3033DPPE   C1A58253  27.077  13.777  17.963  0.2000  0.0235  0.2201
 3033DPPE   C2A58254  26.690  13.802  17.887 -0.0696 -0.1275 -0.1990
 3033DPPE   C3A58255  26.195  14.011  17.897 -0.0034  0.1985 -0.1170
 3033DPPE   C4A58256  25.784  13.928  17.903  0.1211 -0.1121  0.2839
 3033DPPE   C1B58257  27.149  13.606  17.356  0.1854 -0.1120  0.0960
 3033DPPE   C2B58258  26.716  13.599  17.108 -0.3442 -0.0869 -0.1629
 3033DPPE   C3B58259  26.309  13.368  16.881  0.0789  0.1921  0.1601
 3033DPPE   C4B58260  25.875  13.424  16.669 -0.0158 -0.0981  0.0409
 3034DPPE   NH358261  22.717  36.191  13.674 -0.0322 -0.0743 -0.0057
 3034DPPE   PO458262  23.019  36.460  13.768 -0.0549  0.1168 -0.2552
 3034DPPE   GL158263  22.678  36.638  13.993 -0.2323 -0.1485 -0.0618
 3034DPPE   GL258264  22.698  36.641  14.223  0.0748  0.0510  0.0292
 3034DPPE   C1A58265  22.377  36.944  13.791 -0.1964  0.1615 -0.0893
 3034DPPE   C2A58266  22.267  37.284  13.944  0.0460 -0.0572  0.0707
 3034DPPE   C3A58267  22.005  37.464  14.123  0.1210 -0.2553  0.0474
 3034DPPE   C4A58268  21.544  37.462  14.235  0.1768  0.1143 -0.1407
 3034DPPE   C1B58269  22.761  37.171  13.930 -0.3850 -0.0129 -0.1322
 3034DPPE   C2B58270  22.771  37.594  13.823 -0.0549 -0.0064 -0.2659
 3034DPPE   C3B58271  22.752  37.969  13.917  0.0485 -0.1772 -0.0977
 3034DPPE   C4B58272  22.798  38.432  13.943 -0.0024  0.2135  0.0085
 3035DPPE   NH358273  20.573  21.508  19.193  0.1274 -0.1558 -0.0720
 3035DPPE   PO458274  20.260  21.881  19.267 -0.0210 -0.0426 -0.1994
 3035DPPE   GL158275  19.838  21.564  19.295  0.2258  0.1933 -0.1841
 3035DPPE   GL258276  19.511  21.649  19.317 -0.1227 -0.0260 -0.3039
 3035DPPE   C1A58277  19.946  21.191  19.045 -0.1474 -0.0482  0.2464
 3035DPPE   C2A58278  20.185  20.911  19.006  0.1996  0.0733  0.1251
 3035DPPE   C3A58279  20.275  20.490  19.006 -0.1044 -0.1007 -0.1634
 3035DPPE   C4A58280  20.403  20.045  18.765 -0.0125  0.3764  0.0125
 3035DPPE   C1B58281  19.272  21.337  18.997  0.0657  0.1401 -0.0101
 3035DPPE   C2B58282  19.530  21.186  18.702  0.1189  0.1356  0.2292
 3035DPPE   C3B58283  19.407  21.034  18.392 -0.0547  0.1179 -0.0252
 3035DPPE   C4B58284  19.276  20.541  18.195 -0.1286  0.0199 -0.2072
 3036DPPE   NH358285  13.293  10.563   9.722  0.0378 -0.0674 -0.2418
 3036DPPE   PO458286  12.952  10.276   9.756  0.0090 -0.1261  0.3293
 3036DPPE   GL158287  12.699   9.970   9.545  0.3688 -0.0817 -0.1526
 3036DPPE   GL258288  12.710   9.622   9.595 -0.1073 -0.3063  0.0323
 3036DPPE   C1A58289  12.773   9.751   9.007 -0.1874  0.1093  0.1757
 3036DPPE   C2A58290  12.610   9.732   8.721 -0.0466 -0.0402 -0.1891
 3036DPPE   C3A58291  12.389   9.896   8.344  0.2101 -0.2266 -0.2614
 3036DPPE   C4A58292  12.119  10.086   8.133 -0.0853  0.1330 -0.0994
 3036DPPE   C1B58293  12.585   9.332   9.225  0.3727 -0.2885 -0.1212
 3036DPPE   C2B58294  12.297   9.055   9.150 -0.1496  0.1811 -0.0909
 3036DPPE   C3B58295  11.922   8.985   8.867 -0.1553 -0.1394 -0.0845
 3036DPPE   C4B58296  11.757   9.319   8.680 -0.2732 -0.0127  0.1130
 3037DPPE   NH358297  13.524  32.618  15.230 -0.0270  0.1239  0.1086
 3037DPPE   PO458298  13.607  32.637  15.654  0.2924 -0.0278 -0.0398
 3037DPPE   GL158299  13.394  33.009  15.472  0.3203  0.0531  0.0295
 3037DPPE   GL258300  13.616  33.109  15.313  0.2682  0.2471  0.2346
 3037DPPE   C1A58301  13.408  33.444  15.593 -0.0101 -0.2617 -0.1211
 3037DPPE   C2A58302  13.768  33.659  15.421 -0.2424  0.3339 -0.0318
 3037DPPE   C3A58303  13.811  34.037  15.153  0.2957 -0.1409 -0.0670
 3037DPPE   C4A58304  13.694  34.164  14.670  0.1034  0.0461  0.0563
 3037DPPE   C1B58305  13.221  33.333  15.061 -0.0931 -0.1232  0.0997
 3037DPPE   C2B58306  13.021  33.692  14.887  0.1777  0.0435 -0.0547
 3037DPPE   C3B58307  12.791  34.045  14.866 -0.2141  0.1425 -0.0171
 3037DPPE   C4B58308  12.585  34.290  14.551 -0.0943  0.1337  0.2132
 3038DPPE   NH358309   9.489  14.863   5.932  0.2690 -0.5955 -0.1692
 3038DPPE   PO458310   9.189  14.686   6.236  0.2072 -0.2685  0.1406
 3038DPPE   GL158311   9.212  14.340   6.297  0.0824 -0.1620 -0.0956
 3038DPPE   GL258312   9.244  14.328   6.613 -0.3888 -0.0650 -0.1905
 3038DPPE   C1A58313   9.396  13.925   6.383  0.0859  0.1138 -0.2145
 3038DPPE   C2A58314   9.496  13.504   6.559 -0.0247  0.1296  0.1806
 3038DPPE   C3A58315   9.898  13.253   6.641  0.1066  0.2014  0.1870
 3038DPPE   C4A58316  10.071  12.851   6.550  0.0259  0.0543  0.1557
 3038DPPE   C1B58317   9.069  14.078   6.912 -0.0478 -0.5048  0.0010
 3038DPPE   C2B58318   9.134  13.958   7.372 -0.0444  0.2673 -0.0667
 3038DPPE   C3B58319   9.203  13.991   7.805  0.2327 -0.2233 -0.1701
 3038DPPE   C4B58320   9.526  13.825   8.104  0.0756  0.0281  0.2488
 3039DPPE   NH358321  18.020  12.968  23.883  0.0892 -0.1598  0.0452
 3039DPPE   PO458322  17.983  12.578  23.955  0.2191 -0.3593  0.3310
 3039DPPE   GL158323  17.867  12.455  24.391 -0.0186 -0.3266  0.1434
 3039DPPE   GL258324  18.071  12.448  24.666  0.0939 -0.2233  0.1025
 3039DPPE   C1A58325  17.597  12.528  24.841 -0.0218 -0.2417  0.3067
 3039DPPE   C2A58326  17.192  12.387  25.018  0.4096 -0.0813  0.0289
 3039DPPE   C3A58327  16.895  12.391  25.297 -0.0337 -0.2678 -0.0667
 3039DPPE   C4A58328  16.583  12.235  25.602  0.0478 -0.1727 -0.1880
 3039DPPE   C1B58329  18.313  12.143  24.890  0.0488 -0.2208  0.1985
 3039DPPE   C2B58330  18.502  11.832  25.101 -0.0119 -0.2521 -0.1123
 3039DPPE   C3B58331  18.786  11.499  25.224  0.0135  0.2196  0.1155
 3039DPPE   C4B58332  19.093  11.645  25.324 -0.1172 -0.0800 -0.1839
 3040DPPE   NH358333  21.772  17.002  17.791  0.2856  0.3063 -0.2109
 3040DPPE   PO458334  21.608  16.822  17.396 -0.1085 -0.0887  0.1205
 3040DPPE   GL158335  21.868  17.260  17.378 -0.3746  0.2024 -0.0324
 3040DPPE   GL258336  22.142  17.196  17.561  0.2920  0.2468 -0.3279
 3040DPPE   C1A58337  22.212  17.560  17.211  0.1168  0.2547  0.1078
 3040DPPE   C2A58338  22.362  17.968  17.377 -0.3706  0.1142 -0.1164
 3040DPPE   C3A58339  22.769  18.208  17.406 -0.0137  0.0641 -0.1231
 3040DPPE   C4A58340  22.939  18.552  17.597  0.2088  0.1522 -0.0720
 3040DPPE   C1B58341  22.298  17.499  17.879  0.0062  0.0304 -0.0960
 3040DPPE   C2B58342  22.639  17.688  17.824  0.4780  0.3218 -0.4197
 3040DPPE   C3B58343  22.782  18.174  17.951  0.0434 -0.0667 -0.1611
 3040DPPE   C4B58344  22.998  18.294  18.335 -0.1680  0.0243  0.2662
 3041DPPE   NH358345  23.469  16.293  23.910 -0.3356 -0.2624  0.1792
 3041DPPE   PO458346  23.188  16.598  23.945  0.2377 -0.1345  0.1867
 3041DPPE   GL158347  22.803  16.269  23.998 -0.3325 -0.0669  0.0779
 3041DPPE   GL258348  22.983  16.110  23.927 -0.5640 -0.2475  0.0941
 3041DPPE   C1A58349  22.491  16.037  24.073  0.1151  0.0852  0.5990
 3041DPPE   C2A58350  22.239  15.691  23.942  0.2675  0.0450 -0.1672
 3041DPPE   C3A58351  21.950  15.417  23.720  0.0360 -0.2065  0.3579
 3041DPPE   C4A58352  21.612  15.277  23.493 -0.1383  0.3302  0.2442
 3041DPPE   C1B58353  22.779  15.693  23.752  0.0002 -0.0391 -0.0127
 3041DPPE   C2B58354  22.556  15.396  23.486 -0.2698  0.3718  0.0815
 3041DPPE   C3B58355  22.218  15.238  23.374  0.2768 -0.1312 -0.1792
 3041DPPE   C4B58356  22.032  14.953  23.129  0.3289 -0.1051  0.1380
 3042DPPE   NH358357  10.459  13.416  11.007 -0.1135  0.3260 -0.1783
 3042DPPE   PO458358  10.590  12.925  10.946 -0.1414 -0.1298 -0.2887
 3042DPPE   GL158359  10.230  13.067  10.737 -0.0869  0.0548 -0.3446
 3042DPPE   GL258360  10.036  12.809  10.558  0.2247 -0.2629 -0.1703
 3042DPPE   C1A58361  10.062  13.356  10.403 -0.1610  0.0164  0.2088
 3042DPPE   C2A58362   9.837  13.522  10.166 -0.5616 -0.2204 -0.0038
 3042DPPE   C3A58363   9.645  13.837   9.968  0.3308 -0.2612 -0.1078
 3042DPPE   C4A58364   9.652  14.266  10.124  0.0295 -0.3927 -0.2440
 3042DPPE   C1B58365   9.635  12.894  10.718  0.0928  0.0474 -0.2024
 3042DPPE   C2B58366   9.288  12.720  10.902 -0.0985  0.1392 -0.1488
 3042DPPE   C3B58367   9.008  12.601  10.586  0.0131 -0.3166  0.0624
 3042DPPE   C4B58368   8.611  12.530  10.515  0.0931 -0.0404  0.3408
 3043DPPE   NH358369   7.645  11.224  24.029 -0.1175 -0.3161  0.0006
 3043DPPE   PO458370   7.981  11.388  24.254 -0.1209  0.2526 -0.1242
 3043DPPE   GL158371   8.285  11.253  24.042  0.0872 -0.1888  0.3272
 3043DPPE   GL258372   8.652  11.174  24.008  0.0489 -0.2557 -0.2779
 3043DPPE   C1A58373   8.400  10.924  23.642 -0.0423  0.2891 -0.0489
 3043DPPE   C2A58374   8.706  10.707  23.395  0.0409  0.1320  0.1401
 3043DPPE   C3A58375   8.916  10.691  22.947 -0.1300 -0.1655  0.0947
 3043DPPE   C4A58376   9.129  10.523  22.669 -0.0556 -0.3299  0.2830
 3043DPPE   C1B58377   8.842  11.538  23.918 -0.0294 -0.1751 -0.0020
 3043DPPE   C2B58378   9.255  11.826  23.804 -0.2075 -0.1681 -0.3110
 3043DPPE   C3B58379   9.624  11.988  23.834  0.1985  0.4154 -0.0990
 3043DPPE   C4B58380   9.947  11.971  23.642 -0.3664 -0.0054 -0.1656
 3044DPPE   NH358381  23.934   3.591   8.373  0.1587 -0.0199 -0.0568
 3044DPPE   PO458382  24.113   4.019   8.407  0.0878 -0.0221  0.0909
 3044DPPE   GL158383  23.720   4.009   8.613 -0.1021  0.2820  0.0188
 3044DPPE   GL258384  23.726   4.058   8.918 -0.1961  0.3235  0.0756
 3044DPPE   C1A58385  23.219   4.028   8.708 -0.0907 -0.1114  0.0950
 3044DPPE   C2A58386  22.925   4.269   8.967  0.2651  0.0562  0.1751
 3044DPPE   C3A58387  22.603   4.631   9.108 -0.2084 -0.2030  0.0688
 3044DPPE   C4A58388  22.271   4.874   8.986 -0.0481 -0.5839 -0.3049
 3044DPPE   C1B58389  23.385   4.459   9.008 -0.2100 -0.0251  0.1550
 3044DPPE   C2B58390  23.106   4.824   9.023  0.3064  0.1184  0.1829
 3044DPPE   C3B58391  22.759   5.199   9.129 -0.2259 -0.0465  0.1253
 3044DPPE   C4B58392  22.501   5.531   9.309 -0.1805  0.0703 -0.1494
 3045DPPE   NH358393  14.617  22.598  18.450 -0.2034 -0.1062  0.2344
 3045DPPE   PO458394  14.265  22.507  18.623 -0.0506 -0.1306 -0.3157
 3045DPPE   GL158395  14.353  22.065  18.467 -0.0273  0.0017 -0.0010
 3045DPPE   GL258396  14.628  22.046  18.461 -0.2443  0.0800  0.0825
 3045DPPE   C1A58397  14.399  21.610  18.625 -0.0943 -0.0518  0.1432
 3045DPPE   C2A58398  14.568  21.232  18.522 -0.2548 -0.1667  0.0197
 3045DPPE   C3A58399  14.624  20.806  18.409  0.4459  0.0104 -0.2757
 3045DPPE   C4A58400  14.722  20.350  18.492 -0.0238  0.1731 -0.2873
 3045DPPE   C1B58401  14.595  22.198  18.010  0.1691  0.1809 -0.1644
 3045DPPE   C2B58402  14.732  21.945  17.705  0.0935  0.3151 -0.0701
 3045DPPE   C3B58403  15.070  21.560  17.771 -0.1692 -0.2041  0.2305
 3045DPPE   C4B58404  15.519  21.731  17.899  0.5084  0.1426 -0.0743
 3046DPPE   NH358405  10.406  11.292  11.419 -0.0763 -0.0731  0.2181
 3046DPPE   PO458406  10.749  11.357  11.171  0.2229  0.1603 -0.1937
 3046DPPE   GL158407  10.451  11.170  10.974  0.0675 -0.1026  0.1025
 3046DPPE   GL258408  10.493  11.061  10.632  0.1425  0.2251  0.0491
 3046DPPE   C1A58409   9.971  11.101  10.943 -0.4775  0.1811 -0.2318
 3046DPPE   C2A58410   9.599  10.847  10.809  0.2910  0.2542 -0.0454
 3046DPPE   C3A58411   9.686  10.455  11.035  0.1124 -0.0947 -0.1163
 3046DPPE   C4A58412   9.430  10.217  11.393  0.0553 -0.0104 -0.2223
 3046DPPE   C1B58413  10.464  11.274  10.249 -0.1612 -0.1268  0.1554
 3046DPPE   C2B58414  10.425  11.472   9.860  0.0124  0.0242 -0.0660
 3046DPPE   C3B58415  10.122  11.771   9.813  0.1523  0.1267 -0.1043
 3046DPPE   C4B58416   9.876  12.049   9.882 -0.0499  0.1205  0.2104
 3047DPPE   NH358417  13.572  14.603   5.045 -0.0143  0.1538  0.0167
 3047DPPE   PO458418  13.461  15.082   5.046 -0.0534 -0.1381 -0.3810
 3047DPPE   GL158419  13.438  14.876   5.475 -0.1578 -0.3163  0.0767
 3047DPPE   GL258420  13.615  14.560   5.561  0.4280  0.0327  0.1622
 3047DPPE   C1A58421  13.481  14.809   5.962 -0.3441 -0.0241 -0.2303
 3047DPPE   C2A58422  13.528  14.493   6.385  0.2055 -0.1401 -0.2485
 3047DPPE   C3A58423  13.593  14.070   6.512  0.1138  0.1435  0.0336
 3047DPPE   C4A58424  13.679  13.877   6.835 -0.0552 -0.1767  0.3204
 3047DPPE   C1B58425  13.923  14.156   5.462 -0.1656  0.2580 -0.2431
 3047DPPE   C2B58426  14.207  13.996   5.747 -0.2943 -0.0280  0.1963
 3047DPPE   C3B58427  14.471  13.765   6.032  0.3689 -0.1771  0.1015
 3047DPPE   C4B58428  14.646  13.644   6.411  0.1479 -0.1644  0.1061
 3048DPPE   NH358429  19.669  17.714  17.519  0.0049  0.0281 -0.3433
 3048DPPE   PO458430  19.262  17.879  17.773  0.4282 -0.3951 -0.1158
 3048DPPE   GL158431  19.446  18.136  17.977  0.0117 -0.0811 -0.2841
 3048DPPE   GL258432  19.438  18.076  18.340 -0.0217 -0.1930  0.0564
 3048DPPE   C1A58433  19.733  18.502  18.064  0.0320  0.3927  0.1731
 3048DPPE   C2A58434  20.030  18.831  18.094  0.0517  0.1135 -0.0564
 3048DPPE   C3A58435  20.435  19.036  17.854 -0.0409  0.3252 -0.0030
 3048DPPE   C4A58436  20.886  19.159  17.813  0.0208 -0.0008 -0.1519
 3048DPPE   C1B58437  19.605  18.069  18.725 -0.2210 -0.0759 -0.4174
 3048DPPE   C2B58438  19.618  18.280  19.168 -0.1159 -0.1448 -0.0724
 3048DPPE   C3B58439  19.888  18.737  19.431  0.1174  0.0054 -0.3245
 3048DPPE   C4B58440  20.397  18.950  19.434 -0.2860 -0.0723 -0.0050
 3049DPPE   NH358441  14.037  15.289   5.232 -0.1948  0.0944  0.1148
 3049DPPE   PO458442  13.907  14.888   5.294  0.1045  0.1405  0.0548
 3049DPPE   GL158443  14.056  15.032   5.627 -0.1054  0.1928 -0.2186
 3049DPPE   GL258444  13.855  15.036   5.777 -0.2539 -0.1960  0.1445
 3049DPPE   C1A58445  14.248  14.924   6.077 -0.1545 -0.0033  0.0914
 3049DPPE   C2A58446  14.514  15.155   6.254  0.1483 -0.1225  0.2793
 3049DPPE   C3A58447  14.653  15.571   6.303 -0.0226 -0.4254 -0.0803
 3049DPPE   C4A58448  14.777  16.071   6.308 -0.2340  0.2252 -0.3065
 3049DPPE   C1B58449  13.930  14.560   5.923 -0.2645  0.0936  0.0613
 3049DPPE   C2B58450  13.697  14.237   5.923  0.1907  0.1186 -0.0675
 3049DPPE   C3B58451  13.766  13.849   6.077 -0.0267 -0.5454 -0.0480
 3049DPPE   C4B58452  14.047  13.462   6.248 -0.4732 -0.1215 -0.0123
 3050DPPE   NH358453  23.483   6.512  14.537 -0.1042  0.0630  0.2735
 3050DPPE   PO458454  23.293   6.588  14.935  0.0080 -0.0815 -0.0675
 3050DPPE   GL158455  23.612   6.610  15.059 -0.1723  0.0332 -0.1117
 3050DPPE   GL258456  23.714   6.359  15.177  0.0935  0.0443 -0.1788
 3050DPPE   C1A58457  24.056   6.750  14.831 -0.2096 -0.0202  0.0471
 3050DPPE   C2A58458  24.497   6.778  14.800 -0.2469  0.0567 -0.4561
 3050DPPE   C3A58459  24.875   6.628  14.580 -0.1585  0.2190  0.1900
 3050DPPE   C4A58460  25.321   6.351  14.597  0.2920 -0.0271 -0.2992
 3050DPPE   C1B58461  24.262   6.387  15.223  0.1465 -0.4347  0.0715
 3050DPPE   C2B58462  24.664   6.319  15.050 -0.2934 -0.0254 -0.1743
 3050DPPE   C3B58463  24.993   6.167  14.912 -0.1509 -0.1063 -0.1477
 3050DPPE   C4B58464  25.191   5.810  14.843 -0.2600  0.0054 -0.0602
 3051DPPE   NH358465  10.783  12.646   2.229  0.2027  0.2127  0.0446
 3051DPPE   PO458466  10.795  13.055   2.465  0.3051 -0.3459 -0.1080
 3051DPPE   GL158467  10.825  12.686   2.794  0.2675  0.3670  0.0883
 3051DPPE   GL258468  10.954  12.327   2.627 -0.2905  0.1808 -0.0486
 3051DPPE   C1A58469  10.493  12.342   2.880  0.5063 -0.3122 -0.1294
 3051DPPE   C2A58470  10.198  11.984   3.232 -0.2544 -0.2149  0.1035
 3051DPPE   C3A58471   9.985  11.689   2.924  0.0184  0.1721  0.0443
 3051DPPE   C4A58472  10.215  11.285   2.847  0.0147  0.0481 -0.0999
 3051DPPE   C1B58473  11.354  12.419   2.869 -0.3044 -0.4097 -0.0297
 3051DPPE   C2B58474  11.623  11.936   2.765 -0.0604  0.1874 -0.0183
 3051DPPE   C3B58475  11.719  11.656   2.499  0.3058  0.1269  0.4878
 3051DPPE   C4B58476  11.791  11.245   2.482  0.3209 -0.1584  0.0553
 3052DPPE   NH358477   2.926   6.016   8.448 -0.1163  0.1344  0.0946
 3052DPPE   PO458478   2.704   6.353   8.184 -0.2900 -0.1805 -0.0314
 3052DPPE   GL158479   3.094   6.493   8.325  0.1431 -0.1184 -0.1899
 3052DPPE   GL258480   3.351   6.321   8.358  0.0054 -0.0899 -0.1726
 3052DPPE   C1A58481   3.372   6.855   8.476  0.1089  0.1404 -0.3247
 3052DPPE   C2A58482   3.515   7.081   8.820 -0.2904  0.0439  0.3980
 3052DPPE   C3A58483   3.655   7.263   9.109  0.2093 -0.3169 -0.0553
 3052DPPE   C4A58484   3.916   7.559   9.381  0.0345  0.3718 -0.1069
 3052DPPE   C1B58485   3.710   6.246   8.715 -0.2201  0.1833  0.1385
 3052DPPE   C2B58486   4.077   6.294   8.964 -0.2792  0.1764 -0.2708
 3052DPPE   C3B58487   4.166   6.569   9.344  0.1052 -0.2162  0.0729
 3052DPPE   C4B58488   4.069   7.122   9.277 -0.0181  0.2688  0.3157
 3053DPPE   NH358489  21.582   5.042   5.706 -0.2441 -0.4228 -0.0349
 3053DPPE   PO458490  21.865   5.158   6.072  0.1476  0.2198 -0.1908
 3053DPPE   GL158491  21.487   5.284   6.378  0.0471  0.2509  0.2558
 3053DPPE   GL258492  21.408   5.593   6.388 -0.1557 -0.0198  0.0395
 3053DPPE   C1A58493  21.119   5.278   6.617  0.0277  0.1235  0.1271
 3053DPPE   C2A58494  20.792   5.482   6.692 -0.0998 -0.0659 -0.0390
 3053DPPE   C3A58495  20.432   5.759   6.431  0.2436 -0.1494 -0.0108
 3053DPPE   C4A58496  20.109   5.871   6.610  0.0682  0.3861  0.0882
 3053DPPE   C1B58497  21.263   5.701   6.747 -0.0281 -0.2117  0.2918
 3053DPPE   C2B58498  21.039   5.760   7.188  0.4963  0.1939  0.1659
 3053DPPE   C3B58499  20.755   5.839   7.476  0.1561 -0.1100  0.0994
 3053DPPE   C4B58500  20.516   5.855   7.920 -0.0413  0.0197  0.0083
 3054DPPE   NH358501  18.354  20.328   8.918 -0.0979 -0.0119  0.1746
 3054DPPE   PO458502  18.302  19.944   8.708 -0.0919 -0.1489  0.3128
 3054DPPE   GL158503  18.358  19.758   9.062  0.1081 -0.2181  0.0971
 3054DPPE   GL258504  18.376  20.046   9.318 -0.0915 -0.0646  0.0337
 3054DPPE   C1A58505  18.343  19.383   9.282  0.0677  0.1279 -0.0204
 3054DPPE   C2A58506  18.486  19.019   9.342  0.1565 -0.1445 -0.1748
 3054DPPE   C3A58507  18.845  18.911   9.709 -0.0388  0.0556 -0.0125
 3054DPPE   C4A58508  19.208  18.604  10.057  0.2016 -0.1144  0.0188
 3054DPPE   C1B58509  18.238  19.916   9.590  0.0050 -0.2001  0.4475
 3054DPPE   C2B58510  18.071  19.529   9.729 -0.1507  0.3478  0.2378
 3054DPPE   C3B58511  18.292  19.127   9.819  0.2463 -0.0653 -0.0351
 3054DPPE   C4B58512  18.588  18.800  10.074  0.0707 -0.1287  0.0683
 3055DPPE   NH358513  19.464  13.197   4.823 -0.0572 -0.3676  0.1326
 3055DPPE   PO458514  19.802  13.573   5.091 -0.3284  0.0568  0.1629
 3055DPPE   GL158515  19.663  13.457   5.540 -0.0553 -0.0390 -0.0205
 3055DPPE   GL258516  19.427  13.272   5.419  0.1225  0.1903  0.0515
 3055DPPE   C1A58517  19.638  13.476   5.978 -0.0441 -0.1725 -0.1072
 3055DPPE   C2A58518  19.624  13.455   6.445  0.0098 -0.3697 -0.0013
 3055DPPE   C3A58519  19.417  13.229   6.823 -0.1378  0.0193  0.0270
 3055DPPE   C4A58520  19.328  12.795   6.907  0.0952 -0.4554  0.0284
 3055DPPE   C1B58521  19.274  13.121   5.838  0.0415  0.2384  0.1074
 3055DPPE   C2B58522  18.968  12.860   6.045  0.0110  0.0983 -0.1803
 3055DPPE   C3B58523  18.584  12.924   6.308 -0.0721 -0.2124  0.1522
 3055DPPE   C4B58524  18.265  13.252   6.480  0.0198  0.4297  0.1445
 3056DPPE   NH358525  18.642   0.799   3.420 -0.1809 -0.2998 -0.0522
 3056DPPE   PO458526  18.784   1.224   3.381  0.2159 -0.1314 -0.0293
 3056DPPE   GL158527  18.565   1.470   3.718 -0.1070  0.0460 -0.2877
 3056DPPE   GL258528  18.610   1.570   4.131 -0.1249  0.0595 -0.0024
 3056DPPE   C1A58529  18.183   1.539   3.895 -0.1944  0.0174 -0.1608
 3056DPPE   C2A58530  17.802   1.543   4.103  0.1663 -0.1968  0.1677
 3056DPPE   C3A58531  17.505   1.373   4.399  0.0618 -0.1728 -0.2525
 3056DPPE   C4A58532  17.319   1.123   4.763  0.0830 -0.2879  0.0918
 3056DPPE   C1B58533  18.289   1.540   4.400 -0.0505 -0.0499  0.1253
 3056DPPE   C2B58534  17.953   1.382   4.675 -0.0351  0.2599  0.1049
 3056DPPE   C3B58535  17.886   1.375   5.151 -0.0419 -0.0511 -0.4140
 3056DPPE   C4B58536  17.580   1.264   5.417 -0.0308  0.0026  0.1854
 3057DPPE   NH358537  25.998  16.443  21.155 -0.1521 -0.0497  0.0460
 3057DPPE   PO458538  25.899  16.605  21.505 -0.0787  0.0265 -0.2610
 3057DPPE   GL158539  25.554  16.490  21.409  0.0973 -0.1871  0.0056
 3057DPPE   GL258540  25.334  16.189  21.413  0.1932  0.2244 -0.2957
 3057DPPE   C1A58541  25.017  16.543  21.251  0.3221  0.4962 -0.1111
 3057DPPE   C2A58542  24.821  16.357  20.935 -0.3985  0.1050 -0.0059
 3057DPPE   C3A58543  24.331  16.119  20.739  0.1363  0.0610  0.3640
 3057DPPE   C4A58544  24.317  15.979  20.338  0.0485  0.0995  0.1402
 3057DPPE   C1B58545  25.039  15.860  21.128  0.1682  0.1203 -0.3845
 3057DPPE   C2B58546  24.747  15.608  20.885 -0.0998 -0.1107  0.2851
 3057DPPE   C3B58547  24.293  15.527  20.755  0.5106  0.1083  0.0638
 3057DPPE   C4B58548  24.017  15.622  20.570 -0.0674 -0.1047 -0.2315
 3058DPPE   NH358549  20.739   7.556  10.317 -0.2895  0.5842 -0.2586
 3058DPPE   PO458550  20.624   7.771   9.938  0.0457 -0.0394 -0.1372
 3058DPPE   GL158551  20.851   7.706   9.619  0.1226  0.1871  0.1598
 3058DPPE   GL258552  20.909   7.981   9.436 -0.0243 -0.2263 -0.1887
 3058DPPE   C1A58553  21.271   7.421   9.498 -0.2273 -0.2691  0.0165
 3058DPPE   C2A58554  21.571   7.121   9.364  0.0898  0.0677 -0.2105
 3058DPPE   C3A58555  21.941   6.963   9.265 -0.2912 -0.0944 -0.0462
 3058DPPE   C4A58556  22.030   6.664   8.969  0.0025 -0.0942 -0.2049
 3058DPPE   C1B58557  21.348   7.870   9.310  0.1572 -0.0884 -0.0235
 3058DPPE   C2B58558  21.617   7.552   9.117  0.1213 -0.1555 -0.2987
 3058DPPE   C3B58559  21.871   7.375   8.871 -0.0507  0.0780 -0.4081
 3058DPPE   C4B58560  22.308   7.178   8.748 -0.0154 -0.0429 -0.1377
 3059DPPE   NH358561  19.982   2.512   3.782 -0.2206 -0.2203 -0.1213
 3059DPPE   PO458562  19.799   2.806   3.712  0.1646  0.0224 -0.0955
 3059DPPE   GL158563  19.514   2.979   3.996  0.1287 -0.0757 -0.0065
 3059DPPE   GL258564  19.729   3.016   4.208  0.1164 -0.2303  0.1679
 3059DPPE   C1A58565  19.176   3.004   4.277  0.0368  0.1407 -0.0142
 3059DPPE   C2A58566  18.799   3.194   4.472 -0.2688  0.2451  0.0820
 3059DPPE   C3A58567  18.462   3.394   4.640 -0.0316  0.0171  0.3774
 3059DPPE   C4A58568  18.054   3.627   4.624 -0.2194  0.2118  0.1368
 3059DPPE   C1B58569  19.521   2.776   4.567  0.1480 -0.1808  0.2904
 3059DPPE   C2B58570  19.571   2.752   5.012 -0.1082 -0.0069 -0.1238
 3059DPPE   C3B58571  19.456   2.962   5.319 -0.0635 -0.3362 -0.3247
 3059DPPE   C4B58572  19.409   3.141   5.675 -0.1772  0.0521 -0.0151
 3060DPPE   NH358573  24.742  13.997  23.810 -0.1158 -0.0001 -0.1749
 3060DPPE   PO458574  24.516  14.224  24.153 -0.0125  0.0440 -0.1866
 3060DPPE   GL158575  24.148  14.056  23.992 -0.0915  0.0036 -0.2697
 3060DPPE   GL258576  24.210  13.759  23.846 -0.0269  0.2195 -0.0129
 3060DPPE   C1A58577  23.666  14.101  24.070 -0.1177 -0.1435  0.3078
 3060DPPE   C2A58578  23.324  14.132  23.858  0.5261 -0.2946 -0.1078
 3060DPPE   C3A58579  23.066  14.078  23.478  0.2944  0.1877 -0.0210
 3060DPPE   C4A58580  22.572  13.946  23.539  0.0148 -0.2834 -0.1534
 3060DPPE   C1B58581  24.114  13.644  23.402 -0.1175  0.2529 -0.1193
 3060DPPE   C2B58582  23.975  13.581  23.084 -0.0780 -0.0915  0.3235
 3060DPPE   C3B58583  23.972  13.735  22.702 -0.1028 -0.1993 -0.1665
 3060DPPE   C4B58584  23.915  13.717  22.203 -0.1808  0.1472 -0.0264
 3061DPPE   NH358585  13.886  10.118   9.865 -0.0347  0.1813  0.1168
 3061DPPE   PO458586  13.477  10.142   9.619 -0.4413 -0.2448 -0.0140
 3061DPPE   GL158587  13.215   9.960   9.346  0.2129 -0.1049 -0.5128
 3061DPPE   GL258588  13.373  10.005   9.049  0.0190  0.4598 -0.3354
 3061DPPE   C1A58589  13.102   9.500   9.278  0.1139 -0.3538  0.3706
 3061DPPE   C2A58590  13.057   9.133   9.062 -0.0157  0.0800 -0.1137
 3061DPPE   C3A58591  12.743   9.001   8.769  0.3001  0.1074  0.0358
 3061DPPE   C4A58592  12.347   8.931   8.551 -0.0158 -0.4147  0.1199
 3061DPPE   C1B58593  13.192   9.858   8.723  0.0208  0.1036 -0.2121
 3061DPPE   C2B58594  12.941   9.947   8.226  0.1656  0.3757 -0.2365
 3061DPPE   C3B58595  13.041   9.819   7.916 -0.1705  0.1539  0.0187
 3061DPPE   C4B58596  13.516   9.726   7.818 -0.2064 -0.1433 -0.1169
 3062DPPE   NH358597  15.450   9.265   1.083  0.1176  0.0893  0.0860
 3062DPPE   PO458598  15.527   8.989   1.448 -0.2625 -0.1541 -0.2375
 3062DPPE   GL158599  15.403   8.843   1.780 -0.2561 -0.0103 -0.0582
 3062DPPE   GL258600  15.336   9.101   2.051 -0.0093 -0.1198  0.2016
 3062DPPE   C1A58601  15.325   8.619   2.125 -0.1842  0.2624 -0.1802
 3062DPPE   C2A58602  15.030   8.431   2.403  0.1256  0.1921 -0.2724
 3062DPPE   C3A58603  14.663   8.316   2.409  0.0239 -0.0197 -0.0037
 3062DPPE   C4A58604  14.269   8.522   2.308 -0.1176 -0.1125 -0.0204
 3062DPPE   C1B58605  15.502   8.988   2.430 -0.0337  0.2984  0.0285
 3062DPPE   C2B58606  15.650   8.902   2.944 -0.1459 -0.1479  0.3317
 3062DPPE   C3B58607  15.983   9.138   3.140 -0.1407  0.2037 -0.1820
 3062DPPE   C4B58608  16.326   9.210   3.278 -0.1278  0.1746 -0.2738
 3063DPPE   NH358609   4.517   1.629   9.317 -0.0155  0.2855  0.1670
 3063DPPE   PO458610   4.806   1.652   8.917  0.0559 -0.1130 -0.0281
 3063DPPE   GL158611   5.116   1.925   9.074  0.0754  0.0435  0.0890
 3063DPPE   GL258612   5.429   1.778   9.010  0.1251  0.2427  0.2513
 3063DPPE   C1A58613   5.294   2.293   9.159  0.0345 -0.0593 -0.1273
 3063DPPE   C2A58614   5.556   2.502   9.441 -0.2299  0.1528 -0.1808
 3063DPPE   C3A58615   5.856   2.801   9.245 -0.0970 -0.0682 -0.0469
 3063DPPE   C4A58616   6.029   2.905   8.961  0.0662  0.1135  0.1900
 3063DPPE   C1B58617   5.587   2.104   8.724  0.1852 -0.0196  0.0507
 3063DPPE   C2B58618   5.847   2.407   8.511 -0.1216  0.0188  0.3075
 3063DPPE   C3B58619   5.654   2.678   8.356 -0.0424 -0.1682 -0.1797
 3063DPPE   C4B58620   5.320   2.738   8.040 -0.1546 -0.0090 -0.2104
 3064DPPE   NH358621   2.264   8.459  17.856 -0.1762 -0.1128  0.0916
 3064DPPE   PO458622   2.777   8.448  17.836  0.0446  0.0205  0.0542
 3064DPPE   GL158623   3.131   8.669  17.679 -0.0645 -0.0347 -0.2200
 3064DPPE   GL258624   3.173   8.962  17.774 -0.2312 -0.1256  0.0357
 3064DPPE   C1A58625   3.410   8.799  17.240  0.1722  0.1193 -0.1298
 3064DPPE   C2A58626   3.811   8.803  17.178 -0.3013  0.0579  0.4220
 3064DPPE   C3A58627   4.094   8.906  17.319  0.0113  0.4991  0.0013
 3064DPPE   C4A58628   4.481   9.046  17.224 -0.2084 -0.0186 -0.2589
 3064DPPE   C1B58629   3.576   9.208  17.494 -0.4228 -0.0638  0.2646
 3064DPPE   C2B58630   3.987   9.392  17.419 -0.1894  0.1519  0.0759
 3064DPPE   C3B58631   4.385   9.541  17.130  0.2687 -0.2159 -0.1554
 3064DPPE   C4B58632   4.624   9.471  16.889 -0.1337 -0.1119 -0.1210
 3065DPPE   NH358633  11.206  32.847   8.804 -0.0540 -0.1330  0.1413
 3065DPPE   PO458634  10.784  32.876   9.000  0.3520 -0.0191  0.1978
 3065DPPE   GL158635  11.035  33.228   9.084 -0.0435 -0.1273  0.1969
 3065DPPE   GL258636  11.079  33.503   8.898  0.2574 -0.0084 -0.2429
 3065DPPE   C1A58637  10.927  33.412   9.541 -0.2287 -0.0067 -0.2543
 3065DPPE   C2A58638  10.888  33.779   9.853 -0.2501 -0.4002 -0.2498
 3065DPPE   C3A58639  11.003  34.196   9.773  0.2806 -0.0542  0.0178
 3065DPPE   C4A58640  11.006  34.459   9.317  0.1067 -0.1187 -0.0495
 3065DPPE   C1B58641  11.275  33.774   8.898 -0.1176  0.0460  0.0045
 3065DPPE   C2B58642  11.619  34.017   8.672 -0.0958  0.0089 -0.0239
 3065DPPE   C3B58643  11.797  34.367   8.644  0.0509 -0.1281  0.1097
 3065DPPE   C4B58644  11.940  34.640   8.304  0.3140  0.1306 -0.0313
 3066DPPE   NH358645   9.379  18.976  21.263 -0.1226 -0.1420 -0.4058
 3066DPPE   PO458646   8.948  18.802  21.255  0.2564 -0.0662  0.4262
 3066DPPE   GL158647   9.218  18.477  21.000  0.0528  0.0921 -0.2122
 3066DPPE   GL258648   9.462  18.434  21.256 -0.0073 -0.4682 -0.0087
 3066DPPE   C1A58649   9.322  18.098  20.797 -0.2029 -0.0120 -0.1027
 3066DPPE   C2A58650   9.532  17.790  20.707  0.3480 -0.0708  0.1001
 3066DPPE   C3A58651   9.677  17.434  20.563  0.3291  0.0355 -0.0650
 3066DPPE   C4A58652   9.903  17.227  20.282 -0.0745  0.3724 -0.2256
 3066DPPE   C1B58653   9.722  18.032  21.192 -0.0230 -0.3979  0.0399
 3066DPPE   C2B58654  10.011  17.713  21.048  0.0673  0.0360  0.0795
 3066DPPE   C3B58655  10.398  17.386  21.086 -0.0091 -0.0954 -0.3929
 3066DPPE   C4B58656  10.763  17.361  20.904 -0.1471  0.2503  0.0319
 3067DPPE   NH358657   3.185  12.194  13.805 -0.1310  0.1785 -0.0099
 3067DPPE   PO458658   3.286  12.676  13.692  0.0332  0.0062  0.0281
 3067DPPE   GL158659   3.563  12.382  13.508 -0.0932  0.2423  0.3831
 3067DPPE   GL258660   3.771  12.612  13.242 -0.0210 -0.0116 -0.2578
 3067DPPE   C1A58661   3.930  12.113  13.369 -0.5050  0.1239  0.0197
 3067DPPE   C2A58662   4.217  11.998  12.995  0.2121 -0.0512  0.0310
 3067DPPE   C3A58663   4.197  11.720  12.643  0.1218 -0.1479  0.1904
 3067DPPE   C4A58664   4.160  11.424  12.297 -0.1772  0.3234 -0.1092
 3067DPPE   C1B58665   4.105  12.590  13.552 -0.1380 -0.1261  0.4662
 3067DPPE   C2B58666   4.141  12.288  13.797 -0.1710  0.0149 -0.2217
 3067DPPE   C3B58667   4.117  11.957  13.905 -0.1011  0.2660 -0.5123
 3067DPPE   C4B58668   3.927  11.586  13.735 -0.3253 -0.0131  0.0781
 3068DPPE   NH358669   9.608  32.101  13.308 -0.2949 -0.0039 -0.4494
 3068DPPE   PO458670  10.033  31.827  13.451  0.1239 -0.2768 -0.1692
 3068DPPE   GL158671  10.087  32.301  13.277  0.1134  0.2088 -0.1547
 3068DPPE   GL258672  10.023  32.205  12.963 -0.0381 -0.0772 -0.2535
 3068DPPE   C1A58673  10.084  32.706  13.113  0.3858 -0.1599  0.1579
 3068DPPE   C2A58674  10.021  32.912  12.745 -0.2237 -0.0556  0.1443
 3068DPPE   C3A58675   9.969  32.815  12.319 -0.0052 -0.4291 -0.1366
 3068DPPE   C4A58676   9.849  32.799  11.824  0.2601 -0.2286  0.0951
 3068DPPE   C1B58677  10.439  32.391  12.868 -0.0282  0.2210  0.0259
 3068DPPE   C2B58678  10.613  32.708  13.140  0.2633 -0.3686  0.2917
 3068DPPE   C3B58679  10.468  32.880  13.392  0.1089 -0.0651 -0.0700
 3068DPPE   C4B58680  10.183  32.769  13.836 -0.0752  0.2057 -0.0880
 3069DPPE   NH358681  22.208   5.086  18.739  0.0263 -0.3052  0.1084
 3069DPPE   PO458682  22.599   5.454  18.664 -0.1265 -0.1366  0.1480
 3069DPPE   GL158683  22.847   5.654  18.855  0.1356  0.2638 -0.0799
 3069DPPE   GL258684  23.048   5.433  18.956  0.0315 -0.0777  0.0718
 3069DPPE   C1A58685  23.091   5.881  19.093 -0.0631  0.2129 -0.0517
 3069DPPE   C2A58686  23.209   5.725  19.438 -0.3114  0.0709 -0.0046
 3069DPPE   C3A58687  23.500   5.595  19.736  0.1706  0.1630 -0.0410
 3069DPPE   C4A58688  23.765   5.428  19.973 -0.2354  0.4342 -0.0040
 3069DPPE   C1B58689  23.159   5.239  19.235 -0.3213  0.0241 -0.2136
 3069DPPE   C2B58690  23.277   4.947  19.454 -0.0488 -0.0770 -0.2887
 3069DPPE   C3B58691  23.498   4.629  19.695  0.0175  0.1828  0.2591
 3069DPPE   C4B58692  23.441   4.084  19.724 -0.3237  0.0405 -0.1133
 3070DPPE   NH358693  15.676   4.080  11.971 -0.0594 -0.0962 -0.1554
 3070DPPE   PO458694  15.813   4.388  11.678 -0.1638 -0.0602 -0.3093
 3070DPPE   GL158695  15.421   4.301  11.450 -0.0820  0.2129 -0.0710
 3070DPPE   GL258696  15.594   4.326  11.155  0.1528 -0.3074 -0.0058
 3070DPPE   C1A58697  15.259   3.998  11.048 -0.1690  0.1688  0.1665
 3070DPPE   C2A58698  15.133   3.758  10.561  0.0847 -0.1400  0.0055
 3070DPPE   C3A58699  15.003   3.675  10.113 -0.1201 -0.1353  0.1941
 3070DPPE   C4A58700  14.679   3.560   9.998 -0.0111  0.5022  0.2811
 3070DPPE   C1B58701  15.385   4.401  10.801  0.0937 -0.2494  0.0445
 3070DPPE   C2B58702  15.109   4.252  10.469 -0.3744 -0.1762 -0.2191
 3070DPPE   C3B58703  14.844   4.114  10.160  0.4601 -0.0073 -0.0411
 3070DPPE   C4B58704  14.700   3.997   9.787  0.0399 -0.3449 -0.1332
 3071DPPE   NH358705  22.661   2.940   7.644 -0.1193 -0.2492  0.0175
 3071DPPE   PO458706  22.927   2.912   8.040 -0.0499 -0.0295 -0.0370
 3071DPPE   GL158707  22.509   3.040   8.085  0.0009 -0.1272  0.3478
 3071DPPE   GL258708  22.287   3.279   8.075  0.0303  0.0937 -0.0737
 3071DPPE   C1A58709  22.318   3.060   8.506  0.0601 -0.3101  0.1325
 3071DPPE   C2A58710  21.930   3.256   8.771  0.2817  0.0352  0.0529
 3071DPPE   C3A58711  21.557   3.243   8.600 -0.0769  0.2861  0.1893
 3071DPPE   C4A58712  21.242   3.547   8.589  0.0407 -0.3915  0.2281
 3071DPPE   C1B58713  21.898   3.379   8.240  0.1145  0.2363  0.1711
 3071DPPE   C2B58714  21.603   3.766   8.307  0.2085 -0.0307  0.0806
 3071DPPE   C3B58715  21.521   4.173   8.306 -0.0577  0.1484 -0.0192
 3071DPPE   C4B58716  21.356   4.440   8.024 -0.2078 -0.0841 -0.2050
 3072DPPE   NH358717   4.800  14.039  13.859  0.1408  0.2304 -0.0588
 3072DPPE   PO458718   4.808  14.177  13.366  0.0306  0.1726  0.0636
 3072DPPE   GL158719   4.929  13.714  13.474  0.0172 -0.0795 -0.1716
 3072DPPE   GL258720   5.155  13.687  13.695 -0.0757  0.1171 -0.0960
 3072DPPE   C1A58721   5.053  13.225  13.473 -0.0904 -0.0237 -0.0967
 3072DPPE   C2A58722   5.110  12.789  13.538 -0.3049 -0.1956 -0.1186
 3072DPPE   C3A58723   5.420  12.586  13.738 -0.0698 -0.3533  0.1025
 3072DPPE   C4A58724   5.834  12.559  13.716  0.1175  0.1957  0.0598
 3072DPPE   C1B58725   5.375  13.256  13.850 -0.0841  0.0013  0.0012
 3072DPPE   C2B58726   5.636  13.038  13.975 -0.0769 -0.0600 -0.1637
 3072DPPE   C3B58727   5.974  12.835  14.105  0.0168  0.1586 -0.3017
 3072DPPE   C4B58728   6.185  12.616  14.132  0.0700 -0.1494  0.2182
 3073DPPE   NH358729  17.167   1.549  12.971  0.1589 -0.2416  0.0538
 3073DPPE   PO458730  17.167   1.781  12.539  0.3293  0.0211 -0.0487
 3073DPPE   GL158731  17.289   1.337  12.423 -0.1416 -0.3277 -0.1237
 3073DPPE   GL258732  17.136   1.145  12.668  0.0000 -0.1402  0.2831
 3073DPPE   C1A58733  17.364   0.973  12.183  0.0688 -0.1515  0.0885
 3073DPPE   C2A58734  17.131   0.667  12.098  0.0371  0.0804  0.1327
 3073DPPE   C3A58735  17.049   0.202  11.870  0.2101 -0.1418  0.1630
 3073DPPE   C4A58736  16.849  -0.129  11.782  0.2723  0.1852 -0.1221
 3073DPPE   C1B58737  16.913   0.809  12.547  0.0106  0.1075  0.1793
 3073DPPE   C2B58738  16.583   0.629  12.464 -0.2113  0.1490  0.0003
 3073DPPE   C3B58739  16.192   0.443  12.289  0.0051  0.3018  0.2516
 3073DPPE   C4B58740  15.926   0.066  12.346 -0.0434  0.2647  0.1912
 3074DPPE   NH358741   6.129  33.949  12.344 -0.0889 -0.2294  0.0537
 3074DPPE   PO458742   5.799  34.231  12.351  0.1979  0.1669  0.0272
 3074DPPE   GL158743   5.921  34.616  12.464  0.2170 -0.1410  0.1443
 3074DPPE   GL258744   5.732  34.827  12.525 -0.1590  0.1078  0.1880
 3074DPPE   C1A58745   6.226  34.804  12.317  0.3788  0.0141  0.0553
 3074DPPE   C2A58746   6.637  34.788  12.261  0.2286 -0.0236 -0.0052
 3074DPPE   C3A58747   6.954  34.526  12.058  0.0663  0.1983 -0.2016
 3074DPPE   C4A58748   7.437  34.393  12.052 -0.1694 -0.2411 -0.2160
 3074DPPE   C1B58749   5.839  35.153  12.832  0.0336 -0.0123 -0.3106
 3074DPPE   C2B58750   6.110  35.504  13.069 -0.2275  0.1200 -0.1359
 3074DPPE   C3B58751   6.550  35.780  13.054  0.2512 -0.1976  0.0661
 3074DPPE   C4B58752   6.894  35.844  12.956  0.0851 -0.0144 -0.0533
 3075DPPE   NH358753  14.130   4.427  12.656  0.0691  0.0575  0.0525
 3075DPPE   PO458754  13.993   4.919  12.776  0.1321 -0.2172  0.3916
 3075DPPE   GL158755  13.761   4.651  12.357  0.3822  0.1341  0.1505
 3075DPPE   GL258756  13.557   4.404  12.530 -0.1605 -0.0054  0.0706
 3075DPPE   C1A58757  13.826   4.310  12.065 -0.1268  0.2559 -0.1885
 3075DPPE   C2A58758  13.691   3.926  11.791  0.3927  0.1125 -0.1307
 3075DPPE   C3A58759  13.523   3.718  11.420 -0.0724  0.0565  0.4568
 3075DPPE   C4A58760  13.161   3.638  11.140 -0.1983 -0.2554  0.0104
 3075DPPE   C1B58761  13.491   4.014  12.358 -0.1820 -0.1057 -0.1290
 3075DPPE   C2B58762  13.270   3.782  12.088  0.1252 -0.1534  0.0445
 3075DPPE   C3B58763  13.233   3.554  11.765 -0.2493 -0.0101 -0.0684
 3075DPPE   C4B58764  13.335   3.283  11.492 -0.2922  0.1936 -0.1053
 3076DPPE   NH358765  20.341  21.093  20.595 -0.0990 -0.4017 -0.1481
 3076DPPE   PO458766  19.892  21.230  20.328 -0.2224  0.0595  0.3460
 3076DPPE   GL158767  20.087  20.938  20.010  0.0927  0.0206  0.1861
 3076DPPE   GL258768  20.410  20.828  19.896  0.2848 -0.2012  0.2230
 3076DPPE   C1A58769  19.943  20.448  19.905  0.0605 -0.2352  0.2450
 3076DPPE   C2A58770  19.881  20.016  19.710 -0.0047  0.2143  0.0195
 3076DPPE   C3A58771  19.780  19.758  19.257 -0.0053 -0.1277  0.0910
 3076DPPE   C4A58772  20.026  19.696  18.947 -0.2069 -0.1167  0.1010
 3076DPPE   C1B58773  20.564  20.627  19.548 -0.2842  0.1883  0.1635
 3076DPPE   C2B58774  20.684  20.308  19.153 -0.2663 -0.2241  0.1910
 3076DPPE   C3B58775  20.992  20.039  18.964  0.1676 -0.0871 -0.0161
 3076DPPE   C4B58776  20.918  19.589  18.933  0.1811  0.1742  0.1699
 3077DPPE   NH358777   6.165   1.658   7.461  0.2694  0.1262 -0.2748
 3077DPPE   PO458778   6.434   1.281   7.398 -0.1528 -0.0922 -0.0743
 3077DPPE   GL158779   6.630   1.299   7.658 -0.0157 -0.3334 -0.0442
 3077DPPE   GL258780   6.314   1.287   7.893  0.2177 -0.0951 -0.1020
 3077DPPE   C1A58781   6.699   1.279   8.145 -0.0461  0.0955 -0.1517
 3077DPPE   C2A58782   6.755   1.579   8.513  0.1816 -0.0030  0.1966
 3077DPPE   C3A58783   6.850   1.456   8.924  0.1080  0.1047 -0.1316
 3077DPPE   C4A58784   7.059   1.481   9.251  0.2778 -0.0803  0.2372
 3077DPPE   C1B58785   6.280   1.354   8.421  0.0685 -0.1682  0.2663
 3077DPPE   C2B58786   6.300   1.673   8.787 -0.1181 -0.2619  0.2227
 3077DPPE   C3B58787   6.188   2.075   8.808  0.0692  0.0943 -0.1859
 3077DPPE   C4B58788   6.347   2.493   8.995  0.0875 -0.0162 -0.1151
 3078DPPE   NH358789  17.324   9.929   8.687 -0.0502  0.0722 -0.0243
 3078DPPE   PO458790  17.230  10.107   8.399  0.0942 -0.2090 -0.0621
 3078DPPE   GL158791  17.344  10.341   7.891 -0.0322  0.0542 -0.0997
 3078DPPE   GL258792  17.489  10.085   7.777 -0.1134  0.4109 -0.0465
 3078DPPE   C1A58793  17.388  10.341   7.333 -0.0856  0.0026  0.2740
 3078DPPE   C2A58794  17.304  10.458   6.895 -0.1354 -0.0860 -0.1690
 3078DPPE   C3A58795  17.297  10.421   6.455  0.1110  0.1303  0.3097
 3078DPPE   C4A58796  17.155   9.997   6.360 -0.0589  0.0000  0.0815
 3078DPPE   C1B58797  17.459   9.737   7.587 -0.0861  0.4241  0.2353
 3078DPPE   C2B58798  17.117   9.506   7.407 -0.1531  0.2368  0.0400
 3078DPPE   C3B58799  16.956   9.277   6.992 -0.3094  0.0718 -0.1660
 3078DPPE   C4B58800  17.102   9.139   6.627  0.2669 -0.0109 -0.4030
 3079DPPE   NH358801  19.041  15.933  21.804 -0.2796  0.1649  0.1466
 3079DPPE   PO458802  19.383  15.938  21.579 -0.2164 -0.4172 -0.1844
 3079DPPE   GL158803  19.654  16.285  21.706 -0.0272 -0.0480  0.0747
 3079DPPE   GL258804  20.120  16.242  21.714  0.2056 -0.2907 -0.0039
 3079DPPE   C1A58805  19.725  16.642  21.937 -0.1322  0.0602 -0.0486
 3079DPPE   C2A58806  19.870  16.457  22.216  0.1177 -0.3311 -0.0261
 3079DPPE   C3A58807  20.238  16.355  22.286 -0.3638  0.0249 -0.1430
 3079DPPE   C4A58808  20.338  16.345  22.721 -0.1393 -0.0482 -0.0939
 3079DPPE   C1B58809  20.227  16.710  21.876  0.1425  0.1601  0.0181
 3079DPPE   C2B58810  20.037  16.905  22.307  0.0080 -0.0328 -0.5266
 3079DPPE   C3B58811  19.949  16.802  22.661 -0.0855 -0.1340  0.0470
 3079DPPE   C4B58812  19.841  16.707  23.033  0.1358  0.2201  0.1995
 3080DPPE   NH358813  13.899   5.237  12.324 -0.0312 -0.2354 -0.0535
 3080DPPE   PO458814  13.416   5.346  12.283  0.0515  0.0625 -0.1529
 3080DPPE   GL158815  13.544   5.090  11.922  0.2783 -0.2293  0.2350
 3080DPPE   GL258816  13.368   5.214  11.499 -0.0890 -0.0830  0.1214
 3080DPPE   C1A58817  13.491   4.736  11.746  0.0482 -0.1389 -0.1275
 3080DPPE   C2A58818  13.168   4.552  11.479 -0.1559  0.1645 -0.0479
 3080DPPE   C3A58819  12.826   4.807  11.277 -0.1292  0.1075  0.1636
 3080DPPE   C4A58820  12.828   5.161  11.452 -0.1037 -0.0772  0.1225
 3080DPPE   C1B58821  13.236   5.092  11.079  0.0428  0.0181 -0.1826
 3080DPPE   C2B58822  13.109   5.274  10.646  0.0995 -0.2136 -0.3690
 3080DPPE   C3B58823  13.149   5.229  10.226 -0.1489 -0.0131 -0.3348
 3080DPPE   C4B58824  12.841   5.210   9.953 -0.0847 -0.0159  0.1072
 3081DPPE   NH358825  22.502  20.000  12.959  0.1270  0.1017 -0.3854
 3081DPPE   PO458826  22.617  20.230  13.306  0.3366  0.1700 -0.0763
 3081DPPE   GL158827  22.411  20.088  13.712 -0.1513 -0.4115  0.0919
 3081DPPE   GL258828  22.628  20.028  14.088 -0.1430  0.1379 -0.0005
 3081DPPE   C1A58829  22.198  19.757  13.950  0.0743  0.2861  0.1230
 3081DPPE   C2A58830  22.197  19.399  14.293 -0.2455 -0.1343 -0.0019
 3081DPPE   C3A58831  22.166  19.174  14.630  0.1554  0.3223  0.2086
 3081DPPE   C4A58832  22.321  18.828  14.832  0.3241  0.0367 -0.0288
 3081DPPE   C1B58833  22.232  19.913  14.440  0.3426  0.1535  0.0407
 3081DPPE   C2B58834  21.860  20.120  14.522  0.2702 -0.1631 -0.2067
 3081DPPE   C3B58835  21.560  19.924  14.625  0.1629 -0.4762  0.0919
 3081DPPE   C4B58836  21.328  19.631  14.823  0.1361  0.0804  0.0842
 3082DPPE   NH358837  10.230  16.065  24.556  0.0989 -0.1642 -0.2489
 3082DPPE   PO458838  10.572  16.256  24.811  0.4139  0.5315 -0.3181
 3082DPPE   GL158839  10.721  16.062  24.471 -0.0088 -0.3619 -0.0979
 3082DPPE   GL258840  10.747  15.659  24.552 -0.2155 -0.0199  0.0038
 3082DPPE   C1A58841  10.948  15.787  24.090 -0.0035  0.2193 -0.1260
 3082DPPE   C2A58842  10.593  15.703  23.855 -0.1071 -0.1132 -0.1168
 3082DPPE   C3A58843  10.246  15.668  23.773  0.1460 -0.1908 -0.1007
 3082DPPE   C4A58844   9.947  15.395  23.821  0.0382  0.0873  0.1390
 3082DPPE   C1B58845  11.162  15.675  24.542 -0.2747  0.2205  0.1159
 3082DPPE   C2B58846  11.615  15.827  24.582 -0.5589 -0.3715  0.2075
 3082DPPE   C3B58847  12.106  15.732  24.588 -0.2006 -0.1740 -0.1070
 3082DPPE   C4B58848  12.551  15.633  24.361 -0.4941  0.2264 -0.0778
 3083DPPE   NH358849  16.502   0.643   3.232 -0.1679 -0.1910  0.1160
 3083DPPE   PO458850  16.308   0.910   2.915 -0.1023  0.0985 -0.3390
 3083DPPE   GL158851  16.039   0.955   3.176  0.1539  0.1340 -0.0404
 3083DPPE   GL258852  16.142   0.974   3.519  0.1444  0.2786 -0.1400
 3083DPPE   C1A58853  15.714   0.803   3.581 -0.1126 -0.2822 -0.3709
 3083DPPE   C2A58854  15.537   1.024   3.926  0.1010  0.3164 -0.2594
 3083DPPE   C3A58855  15.661   0.971   4.298 -0.2373 -0.2574 -0.3239
 3083DPPE   C4A58856  15.784   1.211   4.691  0.2062 -0.0369  0.1301
 3083DPPE   C1B58857  16.247   1.388   3.302  0.0638 -0.0984  0.0235
 3083DPPE   C2B58858  16.242   1.892   3.295 -0.0466  0.0141 -0.1471
 3083DPPE   C3B58859  16.342   2.287   3.505 -0.1577 -0.2632 -0.0310
 3083DPPE   C4B58860  16.648   2.469   3.808 -0.0454  0.3861  0.2961
 3084DPPE   NH358861  27.816   8.612  16.479 -0.0349  0.2726 -0.0534
 3084DPPE   PO458862  28.107   8.257  16.221  0.1215  0.0853  0.2633
 3084DPPE   GL158863  27.671   8.409  16.005 -0.2181  0.0579  0.2401
 3084DPPE   GL258864  27.480   8.305  15.808 -0.1225  0.1272 -0.0591
 3084DPPE   C1A58865  27.248   8.683  15.986  0.2503 -0.0374 -0.0222
 3084DPPE   C2A58866  26.854   8.931  16.038 -0.0610 -0.0314  0.2531
 3084DPPE   C3A58867  26.525   9.058  16.095  0.0702 -0.3113  0.0222
 3084DPPE   C4A58868  26.546   9.433  16.196  0.1315 -0.0188  0.4617
 3084DPPE   C1B58869  27.053   8.093  15.944  0.1731 -0.0732 -0.0486
 3084DPPE   C2B58870  26.653   7.930  16.024  0.1566 -0.3099  0.2447
 3084DPPE   C3B58871  26.346   7.719  16.036 -0.1937  0.1487  0.2636
 3084DPPE   C4B58872  26.040   7.442  15.914 -0.2425 -0.0579 -0.0417
 3085DPPE   NH358873  26.318   3.503  16.174  0.0469  0.0940  0.4682
 3085DPPE   PO458874  26.403   3.080  16.380  0.1523 -0.2129  0.2263
 3085DPPE   GL158875  26.012   3.158  16.444  0.0213 -0.0191 -0.2887
 3085DPPE   GL258876  25.871   3.163  16.080  0.0643  0.2753  0.0884
 3085DPPE   C1A58877  25.668   3.490  16.502  0.2432 -0.0550  0.0651
 3085DPPE   C2A58878  25.365   3.782  16.241 -0.0167 -0.0652 -0.1639
 3085DPPE   C3A58879  25.174   4.058  15.965  0.0645 -0.2442 -0.1802
 3085DPPE   C4A58880  25.042   4.219  15.519  0.1743  0.4116  0.0917
 3085DPPE   C1B58881  25.397   3.215  16.178  0.1016 -0.0526 -0.0536
 3085DPPE   C2B58882  24.973   3.489  16.133  0.2021 -0.0455  0.1319
 3085DPPE   C3B58883  24.486   3.525  15.992 -0.1110  0.2239 -0.0121
 3085DPPE   C4B58884  24.035   3.422  15.910 -0.0498  0.4174 -0.1893
 3086DPPE   NH358885  28.281  11.330  14.969  0.0461  0.0967  0.0836
 3086DPPE   PO458886  28.187  11.718  14.758 -0.3510  0.0010  0.0500
 3086DPPE   GL158887  27.878  11.762  15.060  0.0633 -0.0936  0.0255
 3086DPPE   GL258888  27.867  11.378  15.225  0.1528  0.2414 -0.2881
 3086DPPE   C1A58889  27.477  11.741  15.212 -0.0771 -0.2073  0.0250
 3086DPPE   C2A58890  27.110  11.772  15.399 -0.0434 -0.0501  0.0226
 3086DPPE   C3A58891  26.749  11.750  15.478 -0.0982  0.1159  0.0919
 3086DPPE   C4A58892  26.314  11.827  15.587  0.0658  0.1076 -0.2648
 3086DPPE   C1B58893  27.590  11.355  15.508 -0.1576  0.0564  0.3677
 3086DPPE   C2B58894  27.287  11.319  15.742 -0.0354  0.0514 -0.2034
 3086DPPE   C3B58895  26.993  11.333  16.109  0.2038 -0.2293 -0.0759
 3086DPPE   C4B58896  26.723  11.354  16.438 -0.1787  0.1087 -0.0218
 3087DPPE   NH358897   6.371   2.019  19.857  0.1203  0.5525 -0.0084
 3087DPPE   PO458898   6.239   1.810  19.382 -0.0116  0.0362 -0.3480
 3087DPPE   GL158899   6.326   2.063  19.050  0.0014 -0.0234  0.0739
 3087DPPE   GL258900   6.741   1.961  19.082 -0.0714  0.3710  0.0039
 3087DPPE   C1A58901   6.047   2.149  18.757 -0.1376 -0.0747  0.1456
 3087DPPE   C2A58902   5.989   2.550  18.593 -0.3194 -0.2073 -0.1827
 3087DPPE   C3A58903   5.978   2.790  18.224 -0.0365  0.3902 -0.2421
 3087DPPE   C4A58904   6.339   3.051  18.144 -0.0258 -0.4391 -0.2086
 3087DPPE   C1B58905   6.961   2.215  18.816  0.0900  0.0152  0.1080
 3087DPPE   C2B58906   7.362   2.146  18.537 -0.2639 -0.1759  0.1936
 3087DPPE   C3B58907   7.727   1.904  18.495  0.2102  0.1337 -0.0316
 3087DPPE   C4B58908   7.859   1.830  18.811 -0.0692 -0.2281 -0.1536
 3088DPPE   NH358909  11.811  21.133  20.970  0.0175  0.0520  0.0647
 3088DPPE   PO458910  12.184  21.067  20.672 -0.3446  0.0515  0.1462
 3088DPPE   GL158911  12.213  20.610  20.578  0.2073  0.1818 -0.0489
 3088DPPE   GL258912  12.570  20.681  20.413  0.0093 -0.3869  0.0477
 3088DPPE   C1A58913  12.238  20.177  20.668  0.0975 -0.4384 -0.1491
 3088DPPE   C2A58914  11.987  19.788  20.586 -0.0994 -0.1254 -0.0490
 3088DPPE   C3A58915  12.214  19.423  20.588  0.3230 -0.3970  0.1631
 3088DPPE   C4A58916  12.353  19.088  20.267 -0.3790 -0.1235  0.1124
 3088DPPE   C1B58917  12.622  20.211  20.395 -0.2347 -0.3352 -0.2120
 3088DPPE   C2B58918  12.448  19.797  20.280 -0.2475 -0.1707  0.0677
 3088DPPE   C3B58919  12.078  19.645  20.127 -0.1383  0.3025 -0.0978
 3088DPPE   C4B58920  11.920  19.342  19.816  0.0621  0.1071 -0.2180
 3089DPPE   NH358921   4.468  10.648   5.894  0.3215 -0.4263  0.0974
 3089DPPE   PO458922   4.588  10.492   5.435 -0.2537 -0.4229  0.0524
 3089DPPE   GL158923   5.060  10.531   5.533 -0.1381  0.2607  0.3956
 3089DPPE   GL258924   5.198  10.528   5.319  0.0522 -0.0695 -0.2473
 3089DPPE   C1A58925   5.508  10.850   5.545 -0.0052 -0.1143 -0.1078
 3089DPPE   C2A58926   5.883  11.027   5.782 -0.0450 -0.0868  0.3433
 3089DPPE   C3A58927   6.200  11.149   6.099  0.0550  0.1919 -0.0319
 3089DPPE   C4A58928   6.282  11.211   6.541  0.0644  0.2800  0.0952
 3089DPPE   C1B58929   5.539  10.188   5.577  0.2232 -0.5314  0.2985
 3089DPPE   C2B58930   5.626   9.878   5.738 -0.3331 -0.0256 -0.0944
 3089DPPE   C3B58931   6.013   9.750   6.092 -0.0784 -0.1401  0.1367
 3089DPPE   C4B58932   6.055   9.816   6.572 -0.1308  0.2216 -0.1170
 3090DPPE   NH358933  23.086   7.201  25.147  0.0976 -0.1130 -0.2223
 3090DPPE   PO458934  22.752   6.838  25.170 -0.0885  0.0760  0.3375
 3090DPPE   GL158935  22.713   6.669  24.691  0.0359 -0.2733  0.2481
 3090DPPE   GL258936  22.448   6.467  24.659 -0.1622  0.1315 -0.0280
 3090DPPE   C1A58937  22.988   6.762  24.354  0.0575  0.0604  0.2939
 3090DPPE   C2A58938  23.299   7.053  24.175 -0.1217 -0.3276  0.0973
 3090DPPE   C3A58939  23.421   7.520  24.208  0.2817 -0.0162 -0.0081
 3090DPPE   C4A58940  23.625   7.976  24.215  0.4190  0.2846 -0.0213
 3090DPPE   C1B58941  22.321   6.790  24.447  0.0475 -0.2014  0.1638
 3090DPPE   C2B58942  22.340   7.032  24.072  0.1528  0.0355 -0.2687
 3090DPPE   C3B58943  22.177   7.465  23.828 -0.4689  0.2210 -0.0355
 3090DPPE   C4B58944  21.923   7.763  23.570  0.1431  0.2309  0.0799
 3091DPPE   NH358945  10.367  32.698   9.236  0.2838 -0.2551  0.4487
 3091DPPE   PO458946  10.462  32.606   9.679 -0.3909 -0.1004  0.1280
 3091DPPE   GL158947  10.537  33.003   9.607  0.3378 -0.0501 -0.1528
 3091DPPE   GL258948  10.422  33.165   9.322  0.2025  0.2925  0.1557
 3091DPPE   C1A58949  10.583  33.202   9.934  0.0570  0.1816  0.2116
 3091DPPE   C2A58950  10.730  33.398  10.298 -0.1216 -0.1729 -0.1453
 3091DPPE   C3A58951  10.792  33.762  10.360 -0.0312  0.0596 -0.3640
 3091DPPE   C4A58952  11.022  34.131  10.248 -0.0885  0.5207  0.1954
 3091DPPE   C1B58953  10.417  33.585   9.509 -0.1226 -0.0867  0.2258
 3091DPPE   C2B58954  10.473  33.972   9.662 -0.0157 -0.1724  0.1229
 3091DPPE   C3B58955  10.581  34.209   9.989 -0.0328 -0.0128 -0.0401
 3091DPPE   C4B58956  10.607  34.237  10.462 -0.0295  0.1131  0.4405
 3092DPPE   NH358957  10.286   8.626  13.908  0.1482  0.2198 -0.2904
 3092DPPE   PO458958  10.307   8.636  13.472  0.1993  0.3146 -0.1007
 3092DPPE   GL158959   9.896   8.491  13.346 -0.1528  0.0154 -0.3261
 3092DPPE   GL258960   9.935   8.223  13.193 -0.0351  0.0062  0.1830
 3092DPPE   C1A58961   9.487   8.623  13.244 -0.2063 -0.3075  0.2745
 3092DPPE   C2A58962   9.150   8.469  12.965 -0.3971 -0.3106 -0.1948
 3092DPPE   C3A58963   9.048   8.078  12.703  0.1280 -0.1591  0.2909
 3092DPPE   C4A58964   9.133   7.682  12.396  0.3434 -0.1159  0.1777
 3092DPPE   C1B58965   9.501   8.140  12.867  0.0304 -0.2179 -0.1359
 3092DPPE   C2B58966   9.336   7.648  12.819 -0.2498  0.0970 -0.0126
 3092DPPE   C3B58967   9.041   7.304  12.681  0.0180  0.0803  0.0745
 3092DPPE   C4B58968   9.022   7.084  12.241 -0.2654 -0.0726  0.0005
 3093DPPE   NH358969  14.249  17.787  19.191  0.0194 -0.1206 -0.0948
 3093DPPE   PO458970  13.921  17.862  18.860  0.0487  0.0631 -0.0397
 3093DPPE   GL158971  13.811  18.293  19.041  0.3198 -0.0705  0.1553
 3093DPPE   GL258972  14.156  18.378  18.938 -0.1698  0.1733 -0.1314
 3093DPPE   C1A58973  13.586  18.721  19.132 -0.1745  0.2921  0.0310
 3093DPPE   C2A58974  13.681  19.089  19.412  0.2173  0.0295  0.2487
 3093DPPE   C3A58975  13.631  19.565  19.176 -0.2464  0.1777  0.0257
 3093DPPE   C4A58976  13.207  19.797  19.253 -0.1806  0.0543 -0.0425
 3093DPPE   C1B58977  14.057  18.822  19.192 -0.0925  0.1184  0.1719
 3093DPPE   C2B58978  14.179  19.252  19.332 -0.3008 -0.1799  0.2129
 3093DPPE   C3B58979  14.353  19.586  19.591 -0.0361 -0.1604  0.0414
 3093DPPE   C4B58980  14.462  20.002  19.328  0.0852 -0.1432 -0.0461
 3094DPPE   NH358981   9.983  12.099  11.980  0.0299  0.0256 -0.0886
 3094DPPE   PO458982   9.878  12.329  11.581  0.2635 -0.1341 -0.0906
 3094DPPE   GL158983   9.517  12.200  11.742  0.2346 -0.1286  0.0012
 3094DPPE   GL258984   9.222  12.306  11.659 -0.1933 -0.0059 -0.2468
 3094DPPE   C1A58985   9.275  11.817  11.779  0.0987 -0.0679 -0.3593
 3094DPPE   C2A58986   9.143  11.354  11.890 -0.1867 -0.2699  0.1337
 3094DPPE   C3A58987   9.141  11.003  11.538  0.0413 -0.0552  0.0125
 3094DPPE   C4A58988   9.309  10.753  11.351  0.0362  0.0914  0.1909
 3094DPPE   C1B58989   8.961  11.982  11.444 -0.1644 -0.0536  0.1858
 3094DPPE   C2B58990   8.878  11.517  11.501  0.2209 -0.1903  0.0271
 3094DPPE   C3B58991   8.721  11.212  11.672 -0.1958 -0.0678 -0.1778
 3094DPPE   C4B58992   8.371  10.873  11.781 -0.0567 -0.1312  0.1549
 3095DPPE   NH358993   7.811  35.865   6.838  0.3007 -0.2297 -0.0347
 3095DPPE   PO458994   8.180  35.901   6.990 -0.1315  0.0491  0.1563
 3095DPPE   GL158995   7.981  36.301   7.283 -0.0365  0.2894  0.1946
 3095DPPE   GL258996   7.788  36.253   7.595  0.0495  0.1156 -0.3959
 3095DPPE   C1A58997   8.137  36.725   7.509  0.5231 -0.2885 -0.1255
 3095DPPE   C2A58998   8.407  37.025   7.442  0.1044  0.1061  0.0255
 3095DPPE   C3A58999   8.466  37.476   7.466 -0.2445 -0.2691  0.1660
 3095DPPE   C4A59000   8.256  37.851   7.554 -0.1859 -0.3184  0.0409
 3095DPPE   C1B59001   7.930  36.587   7.891  0.1951  0.0059 -0.0997
 3095DPPE   C2B59002   8.370  36.703   8.113  0.2875 -0.1895 -0.1554
 3095DPPE   C3B59003   8.502  36.947   8.502  0.5387  0.1144  0.3891
 3095DPPE   C4B59004   8.327  36.849   8.890  0.1108  0.0881  0.0380
 3096DPPE   NH359005   8.440  17.039   9.701  0.0998  0.1356  0.2284
 3096DPPE   PO459006   8.866  17.129   9.545 -0.0318 -0.0564 -0.0897
 3096DPPE   GL159007   9.249  16.962   9.635 -0.1490  0.0130 -0.1355
 3096DPPE   GL259008   9.370  16.924   9.361 -0.2770 -0.0404  0.2388
 3096DPPE   C1A59009   9.427  16.582   9.689 -0.0975 -0.1513  0.1446
 3096DPPE   C2A59010   9.753  16.208   9.489 -0.3229 -0.1095 -0.3956
 3096DPPE   C3A59011   9.574  16.149   9.065  0.2289 -0.0322  0.4994
 3096DPPE   C4A59012   9.737  15.995   8.789 -0.2688  0.0794 -0.0963
 3096DPPE   C1B59013   9.720  16.668   9.081  0.1966  0.0854  0.0421
 3096DPPE   C2B59014  10.061  16.370   9.173 -0.3280  0.0434 -0.3019
 3096DPPE   C3B59015  10.129  15.931   9.218 -0.2485 -0.0760 -0.1557
 3096DPPE   C4B59016  10.079  15.543   8.980  0.0786 -0.2985 -0.2276
 3097DPPE   NH359017   4.306   3.387   8.177 -0.1140  0.0377 -0.0231
 3097DPPE   PO459018   4.320   3.554   7.683  0.4383  0.1670 -0.0205
 3097DPPE   GL159019   4.463   3.877   7.930 -0.0983  0.2252  0.1221
 3097DPPE   GL259020   4.627   3.815   8.269  0.0391  0.0192  0.1668
 3097DPPE   C1A59021   4.893   4.207   8.114  0.1833  0.1127 -0.2076
 3097DPPE   C2A59022   5.071   4.453   8.346 -0.0112 -0.0118 -0.1129
 3097DPPE   C3A59023   5.302   4.512   8.768 -0.0627 -0.1428  0.2391
 3097DPPE   C4A59024   5.401   4.408   9.276  0.1593 -0.2742  0.2051
 3097DPPE   C1B59025   4.566   3.900   8.699 -0.0646  0.3943  0.1573
 3097DPPE   C2B59026   4.368   3.871   9.092  0.2046 -0.0324 -0.0077
 3097DPPE   C3B59027   4.158   3.538   9.303 -0.0662  0.4150 -0.1873
 3097DPPE   C4B59028   3.896   3.655   9.642 -0.2158 -0.0757 -0.0296
 3098DPPE   NH359029  11.935   4.961  25.934 -0.0752  0.2767 -0.1414
 3098DPPE   PO459030  11.665   5.269  25.743  0.4745  0.1983  0.2004
 3098DPPE   GL159031  11.955   5.446  25.565 -0.3114  0.0778  0.1254
 3098DPPE   GL259032  12.204   5.163  25.461  0.0437  0.2162  0.0286
 3098DPPE   C1A59033  11.813   5.667  25.111 -0.2373  0.2368  0.3679
 3098DPPE   C2A59034  12.013   5.984  24.887 -0.0049  0.2370  0.2197
 3098DPPE   C3A59035  12.373   6.151  24.718  0.0188  0.2017 -0.0573
 3098DPPE   C4A59036  12.283   6.078  24.365 -0.0423  0.0914 -0.2186
 3098DPPE   C1B59037  12.448   5.468  25.497 -0.3885  0.0016  0.1766
 3098DPPE   C2B59038  12.711   5.694  25.600 -0.1006 -0.1810 -0.1519
 3098DPPE   C3B59039  13.171   5.793  25.678  0.0770  0.0500 -0.0698
 3098DPPE   C4B59040  13.600   5.903  25.473 -0.0671 -0.0640 -0.1647
 3099DPPE   NH359041  15.438  18.296  24.978 -0.1320 -0.1599  0.1605
 3099DPPE   PO459042  15.585  18.616  24.748  0.0833  0.1909  0.0056
 3099DPPE   GL159043  15.511  18.255  24.383 -0.0486  0.4648  0.0459
 3099DPPE   GL259044  15.339  18.323  24.081 -0.0501  0.1171  0.3602
 3099DPPE   C1A59045  15.531  17.886  24.039 -0.1580  0.3055 -0.1136
 3099DPPE   C2A59046  15.689  17.566  23.771  0.2516  0.4516 -0.0863
 3099DPPE   C3A59047  15.979  17.191  23.502 -0.0539 -0.3309 -0.0629
 3099DPPE   C4A59048  16.389  17.221  23.247  0.1028  0.1827 -0.2441
 3099DPPE   C1B59049  15.208  18.552  23.634 -0.0207  0.3170 -0.3859
 3099DPPE   C2B59050  15.236  18.328  23.259 -0.0241  0.0787 -0.0087
 3099DPPE   C3B59051  15.188  18.096  22.816 -0.1208 -0.2109  0.1495
 3099DPPE   C4B59052  15.334  18.069  22.298  0.0621 -0.2640 -0.0619
 3100DPPE   NH359053  19.406  16.039  26.664 -0.0169  0.2742  0.0568
 3100DPPE   PO459054  19.874  15.853  26.698  0.0675  0.0439 -0.2115
 3100DPPE   GL159055  19.595  15.580  26.466  0.1640  0.0447 -0.0465
 3100DPPE   GL259056  19.616  15.269  26.527 -0.1329 -0.0838  0.2297
 3100DPPE   C1A59057  19.361  15.434  26.171 -0.1099 -0.0426 -0.1237
 3100DPPE   C2A59058  19.125  15.636  25.922 -0.2445 -0.1180 -0.0763
 3100DPPE   C3A59059  18.948  15.779  25.500 -0.0240 -0.0987 -0.0540
 3100DPPE   C4A59060  19.274  15.789  25.102 -0.1262 -0.3035  0.2291
 3100DPPE   C1B59061  19.881  15.280  26.086  0.0108  0.1238  0.0141
 3100DPPE   C2B59062  19.890  15.028  25.652 -0.1554 -0.3728  0.1524
 3100DPPE   C3B59063  19.657  14.903  25.297 -0.0903  0.4570  0.3291
 3100DPPE   C4B59064  19.355  14.664  25.034 -0.1222  0.3903 -0.0027
 3101DPPE   NH359065   5.972   3.642   6.188 -0.2580 -0.1466 -0.3755
 3101DPPE   PO459066   5.919   3.311   6.467 -0.2902  0.0588 -0.0806
 3101DPPE   GL159067   6.226   3.396   6.729 -0.1096 -0.2043 -0.3726
 3101DPPE   GL259068   6.263   3.098   6.944  0.1225 -0.0218  0.2904
 3101DPPE   C1A59069   6.430   3.688   6.908 -0.0416  0.1017  0.1710
 3101DPPE   C2A59070   6.548   4.153   6.985  0.0404  0.2092  0.1866
 3101DPPE   C3A59071   6.554   4.523   7.294  0.3178 -0.5982 -0.0281
 3101DPPE   C4A59072   6.511   4.457   7.708  0.1026  0.1266  0.1245
 3101DPPE   C1B59073   6.131   3.477   7.244  0.1939 -0.3330  0.0129
 3101DPPE   C2B59074   6.070   3.842   7.176  0.0157  0.0795 -0.1470
 3101DPPE   C3B59075   5.930   4.154   6.951  0.0206  0.2001 -0.1827
 3101DPPE   C4B59076   6.198   4.408   6.761  0.2055  0.0722 -0.1634
 3102DPPE   NH359077  24.993   2.552  19.004  0.1982  0.3240 -0.0884
 3102DPPE   PO459078  24.754   2.295  18.687 -0.0546  0.0504  0.0964
 3102DPPE   GL159079  24.660   2.525  18.546 -0.1121 -0.0340  0.0350
 3102DPPE   GL259080  24.776   2.582  18.234 -0.1587  0.4090 -0.0564
 3102DPPE   C1A59081  24.311   2.620  18.256  0.2069  0.0744  0.1830
 3102DPPE   C2A59082  24.070   2.861  17.940 -0.0501 -0.1754  0.2143
 3102DPPE   C3A59083  23.783   2.690  17.569  0.0791 -0.2312 -0.1643
 3102DPPE   C4A59084  23.595   2.813  17.248  0.3422 -0.2657 -0.1687
 3102DPPE   C1B59085  24.567   2.833  17.902  0.0366 -0.2554  0.0864
 3102DPPE   C2B59086  24.524   3.245  17.910 -0.1830 -0.2056 -0.0992
 3102DPPE   C3B59087  24.279   3.606  17.891 -0.3426  0.0909 -0.2183
 3102DPPE   C4B59088  23.987   3.891  17.877  0.2284 -0.0385  0.2889
 3103DPPE   NH359089  10.584  34.241  17.682 -0.1693  0.0578  0.0874
 3103DPPE   PO459090  10.630  34.552  18.008 -0.0345 -0.1235  0.3370
 3103DPPE   GL159091  10.596  34.912  17.864  0.2947  0.1412  0.0716
 3103DPPE   GL259092  10.504  35.233  18.081 -0.2110  0.2923  0.3450
 3103DPPE   C1A59093  10.581  35.313  17.550  0.0148 -0.2275  0.0445
 3103DPPE   C2A59094  10.945  35.594  17.396 -0.2652 -0.1097 -0.0190
 3103DPPE   C3A59095  11.268  35.293  17.296  0.1034 -0.1481 -0.1324
 3103DPPE   C4A59096  11.422  34.933  17.565  0.3025  0.2651 -0.1155
 3103DPPE   C1B59097  10.902  35.611  17.956 -0.0859  0.0232 -0.2661
 3103DPPE   C2B59098  10.951  35.967  17.911  0.0121 -0.2625 -0.2315
 3103DPPE   C3B59099  10.838  36.315  17.699 -0.1036 -0.1557 -0.3536
 3103DPPE   C4B59100  10.793  36.722  17.824 -0.1656  0.2368 -0.1311
 3104DPPE   NH359101   8.419   6.856   2.560  0.3326  0.1228 -0.2691
 3104DPPE   PO459102   8.171   7.153   2.737 -0.1168  0.1114  0.1937
 3104DPPE   GL159103   8.251   7.386   3.131 -0.2052 -0.2109 -0.0838
 3104DPPE   GL259104   8.178   7.633   3.483 -0.0138 -0.1723  0.2051
 3104DPPE   C1A59105   8.557   7.291   3.418  0.2986  0.3049 -0.0972
 3104DPPE   C2A59106   8.701   7.155   3.888 -0.0173 -0.2776  0.0309
 3104DPPE   C3A59107   8.985   7.450   4.061 -0.2117  0.1321  0.0498
 3104DPPE   C4A59108   9.451   7.482   3.983  0.2036  0.2277  0.1889
 3104DPPE   C1B59109   8.639   7.684   3.749  0.2080  0.1191 -0.1774
 3104DPPE   C2B59110   8.537   7.751   4.108  0.0373 -0.0059  0.0589
 3104DPPE   C3B59111   8.727   7.683   4.501 -0.1489 -0.0777  0.2177
 3104DPPE   C4B59112   8.711   7.478   4.858 -0.1545  0.0987  0.3928
 3105DPPE   NH359113  17.483  18.286  13.680  0.1800 -0.2628  0.0059
 3105DPPE   PO459114  17.211  18.194  13.398 -0.3957 -0.1996 -0.0241
 3105DPPE   GL159115  17.428  18.658  13.317 -0.1782  0.0994  0.0975
 3105DPPE   GL259116  17.742  18.692  13.506  0.1152 -0.0943  0.0993
 3105DPPE   C1A59117  17.289  19.083  13.234 -0.0895 -0.1556  0.0031
 3105DPPE   C2A59118  17.528  19.388  13.045  0.1502  0.0487 -0.1526
 3105DPPE   C3A59119  17.939  19.646  13.058 -0.1534  0.1534  0.0071
 3105DPPE   C4A59120  18.246  19.763  12.877  0.0979  0.1723  0.0048
 3105DPPE   C1B59121  17.897  19.045  13.489 -0.5129 -0.1028 -0.1013
 3105DPPE   C2B59122  17.702  19.492  13.520  0.0456  0.0227 -0.0313
 3105DPPE   C3B59123  17.719  19.933  13.623  0.0844  0.0742 -0.2381
 3105DPPE   C4B59124  17.653  20.279  13.379  0.0129 -0.0797 -0.1673
 3106DPPE   NH359125  17.899  17.250  11.687  0.0905 -0.0649 -0.0081
 3106DPPE   PO459126  17.683  17.592  11.765  0.1559  0.3393 -0.3571
 3106DPPE   GL159127  17.747  18.015  11.592  0.0049  0.0281  0.0786
 3106DPPE   GL259128  17.939  18.226  11.869  0.2607 -0.1112 -0.2255
 3106DPPE   C1A59129  17.454  18.253  11.187  0.1033 -0.0550  0.2239
 3106DPPE   C2A59130  17.546  18.565  10.776  0.1120 -0.1799  0.0564
 3106DPPE   C3A59131  17.795  18.819  10.608 -0.1740 -0.3173  0.0848
 3106DPPE   C4A59132  18.096  18.802  10.807 -0.1245  0.4226  0.1368
 3106DPPE   C1B59133  18.239  18.504  11.926  0.1194 -0.1978  0.2246
 3106DPPE   C2B59134  18.596  18.699  11.750  0.1781 -0.5602 -0.0650
 3106DPPE   C3B59135  18.882  18.940  11.879 -0.0517 -0.0385 -0.3339
 3106DPPE   C4B59136  18.934  19.391  11.818 -0.5613 -0.2530  0.1530
 3107DPPE   NH359137   4.897  13.003  17.637 -0.2563  0.1741 -0.1585
 3107DPPE   PO459138   4.823  13.278  17.276 -0.0686  0.0459  0.0407
 3107DPPE   GL159139   5.208  13.042  17.217  0.1700  0.2554  0.1090
 3107DPPE   GL259140   5.112  12.928  16.925  0.2346  0.1913 -0.1047
 3107DPPE   C1A59141   5.571  13.166  16.788 -0.2522  0.1312 -0.0553
 3107DPPE   C2A59142   5.844  12.794  16.571 -0.2835 -0.2889 -0.0629
 3107DPPE   C3A59143   6.223  12.487  16.568  0.0059 -0.0057  0.0428
 3107DPPE   C4A59144   6.491  12.297  16.307  0.1559 -0.4554 -0.6073
 3107DPPE   C1B59145   5.465  12.656  16.928 -0.1252 -0.2741 -0.0248
 3107DPPE   C2B59146   5.806  12.320  16.983 -0.1728 -0.0954 -0.1046
 3107DPPE   C3B59147   6.211  12.036  16.806  0.2297 -0.1704 -0.2983
 3107DPPE   C4B59148   6.538  11.885  16.649 -0.0698 -0.1778 -0.0551
 3108DPPE   NH359149  10.419   8.591  26.082 -0.0075 -0.2292  0.1373
 3108DPPE   PO459150  10.542   8.116  26.199 -0.1474 -0.3807 -0.0791
 3108DPPE   GL159151  10.739   8.423  25.753  0.1726 -0.0407  0.0151
 3108DPPE   GL259152  10.502   8.564  25.515  0.0390 -0.2670 -0.0766
 3108DPPE   C1A59153  10.980   8.848  25.783  0.2836 -0.0886  0.0527
 3108DPPE   C2A59154  11.010   9.251  25.831 -0.1064  0.1054  0.0760
 3108DPPE   C3A59155  10.772   9.490  25.668 -0.0974 -0.2360  0.1579
 3108DPPE   C4A59156  10.878   9.729  25.291 -0.1992 -0.0144  0.2461
 3108DPPE   C1B59157  10.455   8.401  25.008 -0.1199  0.1433  0.2970
 3108DPPE   C2B59158  10.519   8.456  24.552 -0.0665 -0.3052 -0.2414
 3108DPPE   C3B59159  10.754   8.325  24.190 -0.3422 -0.1070  0.0492
 3108DPPE   C4B59160  10.950   7.932  24.044 -0.1106  0.0387 -0.2643
 3109DPPE   NH359161  23.764  14.785  15.650 -0.0753 -0.1308 -0.3385
 3109DPPE   PO459162  23.767  14.381  15.382 -0.1884 -0.2614 -0.3707
 3109DPPE   GL159163  24.159  14.452  15.591  0.0387 -0.3252  0.1835
 3109DPPE   GL259164  24.232  14.829  15.516  0.1380 -0.1060 -0.1178
 3109DPPE   C1A59165  24.523  14.493  15.803 -0.0432 -0.1401  0.1851
 3109DPPE   C2A59166  24.816  14.829  15.611  0.0277  0.0818  0.2879
 3109DPPE   C3A59167  25.279  14.879  15.625 -0.0896 -0.0056 -0.0160
 3109DPPE   C4A59168  25.646  15.052  15.497  0.1606  0.2978 -0.2106
 3109DPPE   C1B59169  24.161  14.724  15.052 -0.0398 -0.1670  0.3945
 3109DPPE   C2B59170  24.385  14.816  14.722  0.4399  0.1281 -0.4563
 3109DPPE   C3B59171  24.781  14.896  14.407 -0.0645  0.0773 -0.1112
 3109DPPE   C4B59172  25.220  15.053  14.485 -0.2412  0.1731  0.1961
 3110DPPE   NH359173   7.569   5.296   4.050  0.0436  0.0657 -0.3704
 3110DPPE   PO459174   7.592   4.887   4.257  0.1638  0.1192  0.1068
 3110DPPE   GL159175   7.939   4.983   4.388 -0.0991  0.0616 -0.0889
 3110DPPE   GL259176   7.992   5.288   4.326 -0.1992  0.2806 -0.2464
 3110DPPE   C1A59177   8.299   5.074   4.742  0.1127  0.5800 -0.0365
 3110DPPE   C2A59178   8.312   4.907   5.104  0.3022 -0.0409 -0.0761
 3110DPPE   C3A59179   8.204   4.723   5.455 -0.1465 -0.1535 -0.0403
 3110DPPE   C4A59180   7.937   4.516   5.812 -0.1898 -0.0258 -0.0616
 3110DPPE   C1B59181   8.089   5.602   4.677 -0.3648  0.2482  0.0740
 3110DPPE   C2B59182   8.348   5.508   5.019  0.0939 -0.2366 -0.1690
 3110DPPE   C3B59183   8.298   5.259   5.456 -0.2463 -0.2157 -0.3417
 3110DPPE   C4B59184   8.229   5.107   5.839 -0.0166 -0.1617  0.0947
 3111DPPE   NH359185  13.371   3.171  15.174  0.1639  0.1482 -0.2265
 3111DPPE   PO459186  12.985   3.121  15.534 -0.0416 -0.1585 -0.3111
 3111DPPE   GL159187  12.668   3.048  15.346 -0.1069 -0.1337  0.0605
 3111DPPE   GL259188  12.724   3.173  15.065  0.1991  0.2062  0.2039
 3111DPPE   C1A59189  12.259   3.095  15.201 -0.0875  0.0574  0.0138
 3111DPPE   C2A59190  11.846   3.207  15.073 -0.1264  0.0439 -0.3479
 3111DPPE   C3A59191  11.418   3.199  14.826  0.1079 -0.1230 -0.0790
 3111DPPE   C4A59192  11.144   3.239  14.461  0.2857 -0.0251  0.1481
 3111DPPE   C1B59193  12.817   2.802  14.861 -0.1199  0.0382 -0.0795
 3111DPPE   C2B59194  12.919   2.510  14.783  0.4221 -0.0612 -0.0426
 3111DPPE   C3B59195  13.046   2.570  14.338  0.2501 -0.0023 -0.2029
 3111DPPE   C4B59196  12.899   2.388  13.920  0.0514  0.0058 -0.1873
 3112DPPE   NH359197   4.699   2.919  19.535 -0.0827 -0.2750  0.1275
 3112DPPE   PO459198   4.950   3.232  19.659  0.1190 -0.0109  0.1713
 3112DPPE   GL159199   4.903   3.345  19.202 -0.1408  0.0139 -0.2280
 3112DPPE   GL259200   5.166   3.177  19.184 -0.0314  0.0645  0.1103
 3112DPPE   C1A59201   4.905   3.794  18.989 -0.1143  0.2127 -0.1894
 3112DPPE   C2A59202   4.994   4.028  18.716 -0.0391  0.1486  0.2861
 3112DPPE   C3A59203   4.960   3.919  18.269 -0.0526 -0.1263  0.0072
 3112DPPE   C4A59204   5.134   3.792  17.869 -0.1383 -0.0082 -0.2474
 3112DPPE   C1B59205   5.345   3.513  18.964 -0.3460 -0.3616  0.0421
 3112DPPE   C2B59206   5.443   3.937  19.073  0.0489  0.1734 -0.0258
 3112DPPE   C3B59207   5.726   4.190  19.198 -0.0271  0.0445  0.3318
 3112DPPE   C4B59208   6.000   4.251  19.647 -0.0208 -0.0317  0.0395
 3113DPPE   NH359209   4.057   2.401   9.240  0.0486 -0.0976  0.3956
 3113DPPE   PO459210   4.133   2.356   8.856 -0.0668  0.2535 -0.1143
 3113DPPE   GL159211   4.532   2.556   8.937 -0.0362 -0.2688 -0.0953
 3113DPPE   GL259212   4.364   2.862   8.935 -0.4153  0.2218  0.0037
 3113DPPE   C1A59213   4.919   2.649   9.243 -0.0152 -0.0725  0.0537
 3113DPPE   C2A59214   5.210   2.844   9.511 -0.4396  0.1287  0.2995
 3113DPPE   C3A59215   5.460   2.992   9.865 -0.0748 -0.4195  0.2019
 3113DPPE   C4A59216   5.751   3.127  10.236 -0.3486  0.0500 -0.1779
 3113DPPE   C1B59217   4.542   2.946   9.272  0.3026  0.1292  0.2065
 3113DPPE   C2B59218   4.842   3.175   9.336 -0.1869 -0.0904 -0.0603
 3113DPPE   C3B59219   5.214   3.304   9.353  0.1857  0.2557 -0.0791
 3113DPPE   C4B59220   5.608   3.232   9.459 -0.0332  0.3437  0.1200
 3114DPPE   NH359221  16.876  19.419   6.833 -0.0800  0.5214  0.2605
 3114DPPE   PO459222  16.799  19.075   7.090 -0.1852 -0.0266 -0.0784
 3114DPPE   GL159223  16.954  18.758   7.406  0.0837  0.0157  0.0707
 3114DPPE   GL259224  16.880  18.343   7.358 -0.1270  0.1362 -0.2598
 3114DPPE   C1A59225  16.883  18.652   7.834  0.3519 -0.0557 -0.0056
 3114DPPE   C2A59226  16.441  18.569   8.117 -0.2829 -0.1234  0.0428
 3114DPPE   C3A59227  16.279  18.468   8.425 -0.3632  0.1149 -0.2409
 3114DPPE   C4A59228  16.173  18.167   8.569 -0.0482 -0.1058 -0.2794
 3114DPPE   C1B59229  16.627  18.175   7.765  0.4472  0.2184 -0.0217
 3114DPPE   C2B59230  16.514  17.987   8.191  0.0075  0.0536 -0.0877
 3114DPPE   C3B59231  16.183  17.731   8.285 -0.4600  0.0163  0.2163
 3114DPPE   C4B59232  15.909  17.379   8.559 -0.1761  0.0999  0.0175
 3115DPPE   NH359233   9.543  34.870  18.320  0.1273  0.0206  0.0493
 3115DPPE   PO459234   9.426  35.153  18.114  0.0010 -0.0880  0.0347
 3115DPPE   GL159235   9.716  35.439  17.961  0.3387  0.1157  0.1183
 3115DPPE   GL259236   9.752  35.687  18.099  0.2665 -0.3240  0.2093
 3115DPPE   C1A59237  10.132  35.519  17.851 -0.2063 -0.0573  0.0424
 3115DPPE   C2A59238  10.371  35.942  17.917 -0.1076 -0.0576  0.2931
 3115DPPE   C3A59239  10.328  36.409  17.851  0.0159  0.1601  0.0285
 3115DPPE   C4A59240  10.261  36.749  17.519  0.2655  0.0689 -0.0659
 3115DPPE   C1B59241   9.529  35.796  17.677 -0.2322 -0.4551  0.4696
 3115DPPE   C2B59242   9.556  36.094  17.399  0.1221 -0.0472  0.1497
 3115DPPE   C3B59243   9.828  36.496  17.289 -0.1232 -0.0269  0.1046
 3115DPPE   C4B59244   9.935  36.818  17.026  0.0077  0.3606 -0.0121
 3116DPPE   NH359245  26.541  17.311  17.982 -0.2723  0.0479  0.1079
 3116DPPE   PO459246  26.379  17.548  18.297 -0.0634 -0.1515 -0.1209
 3116DPPE   GL159247  25.986  17.377  18.411  0.0368 -0.1972  0.1947
 3116DPPE   GL259248  26.093  17.013  18.405 -0.0119 -0.0424  0.0076
 3116DPPE   C1A59249  25.537  17.270  18.220  0.0387  0.0582  0.0103
 3116DPPE   C2A59250  25.380  17.033  17.839  0.1433  0.1953  0.1878
 3116DPPE   C3A59251  25.206  16.559  17.863 -0.0307 -0.2038 -0.3610
 3116DPPE   C4A59252  25.253  16.116  17.732  0.0721 -0.1034  0.2364
 3116DPPE   C1B59253  25.798  16.777  18.547  0.3431  0.0484  0.1203
 3116DPPE   C2B59254  25.480  16.462  18.637  0.2192  0.0655 -0.1945
 3116DPPE   C3B59255  25.163  16.392  18.804  0.1721 -0.0106  0.2048
 3116DPPE   C4B59256  24.842  16.328  19.161  0.0911 -0.4043  0.3275
 3117DPPE   NH359257  15.023  34.390   5.155  0.4184 -0.2840 -0.0684
 3117DPPE   PO459258  15.382  34.687   5.119  0.3446  0.2668  0.3495
 3117DPPE   GL159259  15.290  34.877   5.438  0.0926  0.0826  0.1089
 3117DPPE   GL259260  14.954  34.963   5.595  0.1523  0.2013 -0.0120
 3117DPPE   C1A59261  15.158  35.421   5.349  0.1439 -0.0631 -0.0763
 3117DPPE   C2A59262  15.236  35.910   5.338  0.1245  0.2897 -0.1583
 3117DPPE   C3A59263  15.278  36.397   5.411  0.0355 -0.1932  0.0708
 3117DPPE   C4A59264  14.967  36.712   5.543  0.0271  0.2867 -0.2877
 3117DPPE   C1B59265  15.041  34.975   6.047 -0.4752  0.0315 -0.0404
 3117DPPE   C2B59266  15.430  35.206   6.347 -0.2204  0.0711  0.3215
 3117DPPE   C3B59267  15.682  35.345   6.664  0.1229  0.2343 -0.0189
 3117DPPE   C4B59268  15.840  35.120   7.042 -0.1843  0.3721  0.0661
 3118DPPE   NH359269  20.306   6.966   4.781  0.3318  0.1160 -0.0832
 3118DPPE   PO459270  20.355   7.259   5.039  0.0666  0.1586 -0.0429
 3118DPPE   GL159271  20.052   7.127   5.285 -0.0698  0.0799  0.0675
 3118DPPE   GL259272  20.017   7.224   5.496  0.0974  0.1802  0.0474
 3118DPPE   C1A59273  19.835   6.764   5.236 -0.3052  0.1236 -0.1869
 3118DPPE   C2A59274  19.484   6.591   5.381  0.1384 -0.2258 -0.4545
 3118DPPE   C3A59275  19.188   6.441   5.770 -0.3804  0.4130  0.2212
 3118DPPE   C4A59276  18.942   6.198   5.989 -0.1840  0.0125  0.1030
 3118DPPE   C1B59277  19.930   7.043   5.882  0.2663 -0.1001  0.3045
 3118DPPE   C2B59278  19.695   7.253   6.216  0.1352  0.1850 -0.1684
 3118DPPE   C3B59279  19.386   7.406   6.621  0.1771 -0.4651 -0.0179
 3118DPPE   C4B59280  19.039   7.512   6.789 -0.0362 -0.5512 -0.5166
 3119DPPE   NH359281  19.915  22.298  17.543 -0.0545 -0.2901 -0.2458
 3119DPPE   PO459282  20.276  22.123  17.398 -0.1878  0.1761  0.2182
 3119DPPE   GL159283  20.010  21.810  17.542 -0.1753 -0.0097 -0.0745
 3119DPPE   GL259284  20.247  21.531  17.709  0.2180  0.0718  0.2919
 3119DPPE   C1A59285  19.753  21.640  17.456 -0.0010 -0.1726 -0.0564
 3119DPPE   C2A59286  19.707  21.335  17.653 -0.0708 -0.0974 -0.0383
 3119DPPE   C3A59287  19.725  20.849  17.645  0.0620  0.4861 -0.3630
 3119DPPE   C4A59288  19.541  20.404  17.814  0.1236 -0.0404  0.1733
 3119DPPE   C1B59289  20.176  21.140  17.628 -0.1402  0.0210  0.2479
 3119DPPE   C2B59290  20.125  20.795  17.270  0.3818 -0.1560  0.0965
 3119DPPE   C3B59291  19.979  20.421  17.360  0.0618  0.0104 -0.3188
 3119DPPE   C4B59292  19.634  20.143  17.407  0.1472  0.4373  0.1305
 3120DPPE   NH359293  12.410  21.814  14.986  0.0602 -0.2153  0.0653
 3120DPPE   PO459294  12.590  22.002  14.648  0.0603  0.2533  0.0148
 3120DPPE   GL159295  12.605  21.526  14.606 -0.2253  0.4675  0.1783
 3120DPPE   GL259296  12.434  21.295  14.894 -0.3764 -0.0332  0.0594
 3120DPPE   C1A59297  12.439  21.063  14.339 -0.2073 -0.3209  0.2092
 3120DPPE   C2A59298  12.465  20.683  14.120  0.1855  0.1707 -0.0059
 3120DPPE   C3A59299  12.338  20.239  14.012  0.3575 -0.2332 -0.3790
 3120DPPE   C4A59300  12.227  19.877  13.988  0.2231  0.0087  0.0095
 3120DPPE   C1B59301  12.618  20.939  14.985 -0.1750  0.0012 -0.0849
 3120DPPE   C2B59302  12.670  20.456  14.935 -0.0856  0.0031 -0.1721
 3120DPPE   C3B59303  12.736  20.048  14.820  0.1077  0.1680 -0.0090
 3120DPPE   C4B59304  12.922  19.709  14.644  0.0776 -0.1789  0.1677
 3121DPPE   NH359305  25.709   1.919  15.773  0.1034 -0.1699 -0.3875
 3121DPPE   PO459306  25.474   1.641  15.637 -0.0373  0.2146  0.3606
 3121DPPE   GL159307  25.139   1.848  15.796 -0.2353 -0.3790 -0.0341
 3121DPPE   GL259308  25.313   2.158  15.899  0.1935  0.1090  0.0415
 3121DPPE   C1A59309  24.745   2.029  15.817  0.0445 -0.2895 -0.1587
 3121DPPE   C2A59310  24.221   2.076  15.939 -0.4598  0.2499 -0.0134
 3121DPPE   C3A59311  23.935   2.064  16.290  0.3282  0.0113 -0.2011
 3121DPPE   C4A59312  23.650   2.086  16.780  0.0148 -0.1542 -0.0590
 3121DPPE   C1B59313  25.068   2.407  16.185 -0.0976 -0.1472 -0.4551
 3121DPPE   C2B59314  25.017   2.822  16.090 -0.1220 -0.1139 -0.3227
 3121DPPE   C3B59315  24.684   3.058  16.023  0.2851  0.1299  0.1325
 3121DPPE   C4B59316  24.256   3.060  16.217  0.0504 -0.2382 -0.2218
 3122DPPE   NH359317  12.479  13.622   2.708 -0.1021  0.0568 -0.0883
 3122DPPE   PO459318  12.141  13.355   2.898 -0.3143  0.1804 -0.3311
 3122DPPE   GL159319  12.412  13.074   3.265 -0.2034  0.0113 -0.0263
 3122DPPE   GL259320  12.127  12.938   3.252 -0.1445  0.1389  0.0111
 3122DPPE   C1A59321  12.550  12.797   3.695 -0.0448 -0.2507  0.3252
 3122DPPE   C2A59322  12.669  12.805   4.024  0.2884 -0.1658  0.0133
 3122DPPE   C3A59323  12.678  12.491   4.227  0.0517 -0.0603  0.1292
 3122DPPE   C4A59324  12.658  12.302   4.529  0.1612 -0.4500 -0.0724
 3122DPPE   C1B59325  11.852  12.565   3.443 -0.0751 -0.3249 -0.0681
 3122DPPE   C2B59326  11.840  12.214   3.757 -0.1353  0.0612 -0.0970
 3122DPPE   C3B59327  11.668  11.827   3.903  0.2397 -0.1872  0.2037
 3122DPPE   C4B59328  11.429  11.486   3.905  0.1829 -0.0724  0.1691
 3123DPPE   NH359329   0.799   6.776  13.760 -0.1149 -0.0626 -0.0290
 3123DPPE   PO459330   0.749   6.609  13.274 -0.1282 -0.1544 -0.1726
 3123DPPE   GL159331   1.096   6.780  13.275  0.4748 -0.0958  0.1068
 3123DPPE   GL259332   1.321   6.620  13.199 -0.0545 -0.2566  0.0946
 3123DPPE   C1A59333   1.358   7.134  13.366  0.3446 -0.0239 -0.0476
 3123DPPE   C2A59334   1.787   7.041  13.455  0.2711  0.2255  0.4339
 3123DPPE   C3A59335   2.215   7.245  13.223  0.3056 -0.2688  0.2364
 3123DPPE   C4A59336   2.533   7.097  13.261 -0.1425 -0.2396  0.0934
 3123DPPE   C1B59337   1.761   6.455  13.271 -0.1455  0.0567 -0.3503
 3123DPPE   C2B59338   1.995   6.071  13.043  0.0517  0.0235  0.0266
 3123DPPE   C3B59339   2.003   5.723  12.872  0.0882  0.0611 -0.0239
 3123DPPE   C4B59340   1.843   5.345  12.666  0.1811 -0.0364  0.0410
 3124DPPE   NH359341   4.765  14.297  11.038  0.0106  0.1349  0.2838
 3124DPPE   PO459342   5.201  14.357  10.856 -0.0058 -0.1803  0.1251
 3124DPPE   GL159343   5.486  14.121  10.829 -0.0324  0.0044  0.0911
 3124DPPE   GL259344   5.405  13.884  11.188 -0.0833  0.1660 -0.0090
 3124DPPE   C1A59345   5.538  13.708  10.754  0.2281 -0.1696  0.1007
 3124DPPE   C2A59346   5.864  13.322  10.641 -0.2465 -0.1990 -0.0016
 3124DPPE   C3A59347   6.207  13.258  10.758  0.1403 -0.3867 -0.1338
 3124DPPE   C4A59348   6.262  12.911  11.137 -0.1935 -0.1967  0.2998
 3124DPPE   C1B59349   5.852  13.958  11.312  0.1355  0.0145  0.4830
 3124DPPE   C2B59350   6.177  13.919  11.645  0.1911  0.3454  0.0063
 3124DPPE   C3B59351   6.524  14.015  11.804 -0.1197  0.1753 -0.1044
 3124DPPE   C4B59352   6.884  13.838  11.910  0.0442 -0.1584  0.5493
 3125DPPE   NH359353  12.013  21.363  19.699  0.0357  0.1056  0.1909
 3125DPPE   PO459354  11.590  21.257  19.882  0.1377  0.0325  0.0341
 3125DPPE   GL159355  11.784  20.882  19.680  0.1796 -0.1164  0.1992
 3125DPPE   GL259356  12.112  20.792  19.603  0.0897 -0.1375 -0.0315
 3125DPPE   C1A59357  11.744  20.590  19.361 -0.3595  0.0114 -0.0744
 3125DPPE   C2A59358  11.605  20.499  18.970  0.1079  0.3316  0.0193
 3125DPPE   C3A59359  11.314  20.567  18.870  0.0221 -0.0561  0.4094
 3125DPPE   C4A59360  10.966  20.430  18.750 -0.0957  0.1810 -0.2225
 3125DPPE   C1B59361  12.470  20.780  19.583  0.1413 -0.2819  0.0013
 3125DPPE   C2B59362  12.706  20.522  19.309  0.1968 -0.0691 -0.1554
 3125DPPE   C3B59363  13.135  20.297  19.151  0.1352 -0.1836  0.0059
 3125DPPE   C4B59364  13.544  20.170  19.378  0.0420 -0.0432 -0.3005
 3126DPPE   NH359365  21.435  16.018  25.739  0.1260 -0.4855  0.1012
 3126DPPE   PO459366  21.300  15.700  25.972  0.3088  0.4109  0.2352
 3126DPPE   GL159367  21.161  15.731  25.470  0.0152 -0.0419  0.0839
 3126DPPE   GL259368  21.449  15.793  25.250 -0.1970 -0.1550  0.0111
 3126DPPE   C1A59369  20.823  16.001  25.151 -0.1933 -0.2049  0.0678
 3126DPPE   C2A59370  20.454  15.965  24.825  0.4197 -0.0197 -0.1437
 3126DPPE   C3A59371  20.323  16.149  24.396 -0.0179 -0.2812 -0.2827
 3126DPPE   C4A59372  20.311  15.912  23.997  0.2266  0.0754 -0.0213
 3126DPPE   C1B59373  21.831  15.568  25.163 -0.3677 -0.0985 -0.0766
 3126DPPE   C2B59374  21.877  15.425  24.766  0.0790 -0.1512  0.1432
 3126DPPE   C3B59375  21.939  15.198  24.320 -0.2053 -0.0168 -0.5256
 3126DPPE   C4B59376  21.785  14.882  24.131  0.0006  0.1134 -0.0922
 3127DPPE   NH359377  11.399   5.051   1.539 -0.0023  0.0939  0.0224
 3127DPPE   PO459378  11.490   4.623   1.748  0.0393 -0.2801  0.2266
 3127DPPE   GL159379  11.359   4.903   2.048 -0.2710 -0.0104  0.0816
 3127DPPE   GL259380  11.162   5.166   1.998 -0.0840 -0.0666  0.0975
 3127DPPE   C1A59381  11.252   4.762   2.451 -0.2155  0.2474 -0.1521
 3127DPPE   C2A59382  11.288   4.784   2.865  0.1268 -0.2551 -0.3875
 3127DPPE   C3A59383  11.253   4.737   3.355 -0.1650 -0.0524  0.0130
 3127DPPE   C4A59384  11.401   4.548   3.725  0.1364  0.2518  0.1055
 3127DPPE   C1B59385  11.355   5.242   2.394 -0.0956 -0.2996 -0.0942
 3127DPPE   C2B59386  11.425   5.436   2.745 -0.1993 -0.1758 -0.3974
 3127DPPE   C3B59387  11.768   5.534   3.081  0.3193 -0.1710 -0.3553
 3127DPPE   C4B59388  11.871   5.709   3.441  0.2735 -0.0456  0.0187
 3128DPPE   NH359389  22.834   7.947   6.408 -0.0102  0.0518  0.1085
 3128DPPE   PO459390  22.961   7.604   6.645  0.0005  0.3336 -0.0864
 3128DPPE   GL159391  22.705   7.486   6.972 -0.2689  0.0642  0.0739
 3128DPPE   GL259392  22.354   7.462   6.850  0.1881  0.2073 -0.1742
 3128DPPE   C1A59393  22.826   7.393   7.329 -0.1864  0.0770 -0.2671
 3128DPPE   C2A59394  23.007   7.454   7.645  0.4394 -0.3484  0.2472
 3128DPPE   C3A59395  22.940   7.445   8.019 -0.2704 -0.0839  0.1284
 3128DPPE   C4A59396  22.757   7.403   8.455  0.0153 -0.0252 -0.1263
 3128DPPE   C1B59397  21.961   7.577   7.146 -0.4226 -0.0754 -0.1322
 3128DPPE   C2B59398  21.855   7.519   7.513 -0.1307 -0.0944  0.2190
 3128DPPE   C3B59399  21.428   7.479   7.707  0.0744 -0.1400 -0.2297
 3128DPPE   C4B59400  21.024   7.353   7.621 -0.1360 -0.0631 -0.3542
 3129DPPE   NH359401   6.100  16.023  11.005  0.0840  0.0954  0.1160
 3129DPPE   PO459402   6.339  15.704  10.908 -0.1570  0.0022  0.0129
 3129DPPE   GL159403   6.673  15.611  10.637  0.0653  0.2489 -0.0169
 3129DPPE   GL259404   6.844  15.740  10.500 -0.2343  0.1247 -0.0801
 3129DPPE   C1A59405   7.126  15.343  10.585  0.1521  0.2098  0.0555
 3129DPPE   C2A59406   7.059  15.076  10.990  0.0012  0.0053 -0.1920
 3129DPPE   C3A59407   7.302  14.843  11.251 -0.0721  0.1185 -0.2076
 3129DPPE   C4A59408   7.212  14.589  11.604 -0.2640  0.0868 -0.1238
 3129DPPE   C1B59409   7.258  15.706  10.858 -0.0823 -0.0014  0.0497
 3129DPPE   C2B59410   7.219  15.476  11.249  0.1431 -0.1902 -0.1646
 3129DPPE   C3B59411   7.371  15.215  11.620  0.3764 -0.3491 -0.1357
 3129DPPE   C4B59412   7.706  14.947  11.674  0.3964 -0.2409 -0.1787
 3130DPPE   NH359413  15.666   3.904  20.745 -0.2423  0.0279 -0.1419
 3130DPPE   PO459414  15.314   3.625  20.742  0.1780 -0.1730  0.0630
 3130DPPE   GL159415  15.207   3.206  20.852  0.2576 -0.3878 -0.3122
 3130DPPE   GL259416  15.366   3.221  21.090 -0.0669  0.0678 -0.2794
 3130DPPE   C1A59417  14.849   2.891  21.027  0.0892  0.0450 -0.2634
 3130DPPE   C2A59418  14.508   2.643  21.070 -0.2162  0.0491  0.0960
 3130DPPE   C3A59419  14.391   2.269  21.147  0.1274 -0.0256  0.0437
 3130DPPE   C4A59420  14.162   1.881  20.907  0.2377 -0.1075 -0.0453
 3130DPPE   C1B59421  15.234   3.063  21.425 -0.1120 -0.0220 -0.0101
 3130DPPE   C2B59422  15.294   2.879  21.817 -0.0410 -0.1609 -0.1476
 3130DPPE   C3B59423  15.164   2.496  21.860  0.3840 -0.2472 -0.0521
 3130DPPE   C4B59424  15.225   2.089  21.869 -0.0337 -0.2945 -0.1694
 3131DPPE   NH359425  12.206   8.943  10.972 -0.0069  0.3577  0.0708
 3131DPPE   PO459426  12.538   8.547  11.079  0.0079 -0.4795  0.0820
 3131DPPE   GL159427  12.383   8.391  10.704 -0.2783 -0.0953 -0.0911
 3131DPPE   GL259428  12.042   8.349  10.640 -0.2063  0.0019 -0.0538
 3131DPPE   C1A59429  12.325   8.499  10.308  0.2438  0.0467  0.0591
 3131DPPE   C2A59430  12.060   8.326   9.955 -0.0817  0.0394 -0.0410
 3131DPPE   C3A59431  11.770   8.266   9.576  0.0478 -0.2168  0.0839
 3131DPPE   C4A59432  11.618   7.961   9.220 -0.1616  0.1565 -0.1241
 3131DPPE   C1B59433  11.741   8.197  10.289  0.0185  0.0981  0.1604
 3131DPPE   C2B59434  11.519   8.105   9.977 -0.0521  0.1467  0.1653
 3131DPPE   C3B59435  11.279   7.977   9.603 -0.0322  0.0607  0.3447
 3131DPPE   C4B59436  10.985   7.670   9.627 -0.2576  0.0229  0.0767
 3132DPPE   NH359437  20.712  13.662  10.069 -0.1150  0.0372 -0.3790
 3132DPPE   PO459438  20.380  13.945  10.186 -0.1930 -0.3849 -0.0190
 3132DPPE   GL159439  20.420  14.258   9.767  0.1662 -0.0028 -0.1071
 3132DPPE   GL259440  20.378  14.052   9.476  0.2422 -0.1694  0.0877
 3132DPPE   C1A59441  20.496  14.646   9.530  0.1860 -0.1380  0.2164
 3132DPPE   C2A59442  20.827  14.880   9.380 -0.2800 -0.2401 -0.5257
 3132DPPE   C3A59443  21.219  15.104   9.260  0.1966  0.2075 -0.0083
 3132DPPE   C4A59444  21.449  15.465   8.986  0.1256  0.0090  0.0908
 3132DPPE   C1B59445  20.486  14.245   9.239 -0.2197 -0.3520 -0.0292
 3132DPPE   C2B59446  20.488  14.641   9.022  0.0397  0.0489  0.1262
 3132DPPE   C3B59447  20.725  15.113   8.892  0.2990  0.0185 -0.3704
 3132DPPE   C4B59448  21.027  15.387   8.790  0.1691  0.0455  0.0759
 3133DPPE   NH359449   4.357  36.172  12.152  0.0812 -0.2015  0.2949
 3133DPPE   PO459450   4.547  36.030  12.577 -0.2354 -0.1688  0.3146
 3133DPPE   GL159451   4.818  36.304  12.429  0.0068 -0.2158 -0.1290
 3133DPPE   GL259452   4.863  36.315  12.091 -0.2978  0.1312  0.2204
 3133DPPE   C1A59453   5.043  36.631  12.368 -0.0356 -0.2574 -0.2407
 3133DPPE   C2A59454   5.185  37.043  12.285  0.1129  0.0754 -0.1604
 3133DPPE   C3A59455   5.535  37.229  12.283 -0.1270 -0.1832  0.3093
 3133DPPE   C4A59456   5.965  37.245  12.383  0.1833  0.0162 -0.1835
 3133DPPE   C1B59457   5.264  36.178  12.344  0.3094  0.2138 -0.2644
 3133DPPE   C2B59458   5.677  36.247  12.482 -0.2020 -0.0372 -0.1909
 3133DPPE   C3B59459   6.054  36.253  12.396  0.0881 -0.0633  0.2605
 3133DPPE   C4B59460   6.387  36.493  12.320  0.3006 -0.0662  0.5402
 3134DPPE   NH359461   8.996  33.379  10.215  0.0166  0.0380  0.0466
 3134DPPE   PO459462   8.603  33.481  10.369 -0.0089  0.3167 -0.2024
 3134DPPE   GL159463   8.572  33.929  10.532 -0.1239 -0.3624  0.2257
 3134DPPE   GL259464   8.368  34.193  10.581 -0.0081  0.1113  0.1917
 3134DPPE   C1A59465   8.858  34.122  10.891  0.0553 -0.2352 -0.0510
 3134DPPE   C2A59466   8.972  34.272  11.328 -0.0505  0.0008 -0.1900
 3134DPPE   C3A59467   9.233  34.224  11.638  0.1140 -0.0824 -0.1434
 3134DPPE   C4A59468   9.571  34.384  11.839 -0.2365 -0.1421  0.2118
 3134DPPE   C1B59469   8.592  34.549  10.618 -0.2746  0.2095  0.0581
 3134DPPE   C2B59470   8.734  34.952  10.715  0.2648 -0.0296  0.0170
 3134DPPE   C3B59471   8.725  35.261  11.058  0.0397  0.0191  0.0324
 3134DPPE   C4B59472   8.552  35.242  11.476  0.0354  0.4690  0.0898
 3135DPPE   NH359473  22.261  12.953  26.091  0.4078  0.2135 -0.0804
 3135DPPE   PO459474  22.682  13.079  25.904  0.2150 -0.2080 -0.0630
 3135DPPE   GL159475  22.350  13.235  25.674  0.1266  0.0731 -0.3766
 3135DPPE   GL259476  22.058  13.116  25.647 -0.1266  0.2414  0.0674
 3135DPPE   C1A59477  22.367  13.243  25.204  0.3384 -0.2472 -0.2746
 3135DPPE   C2A59478  22.025  13.233  24.891  0.1338  0.1517  0.0013
 3135DPPE   C3A59479  21.758  13.409  24.652 -0.0121 -0.1072 -0.3183
 3135DPPE   C4A59480  21.292  13.538  24.595  0.0522  0.0066  0.1265
 3135DPPE   C1B59481  22.019  12.932  25.281 -0.3789 -0.1485  0.0010
 3135DPPE   C2B59482  22.175  12.516  25.252  0.0259 -0.4289 -0.0325
 3135DPPE   C3B59483  21.917  12.239  25.001  0.1528 -0.0838  0.0135
 3135DPPE   C4B59484  21.405  12.067  25.025  0.0102  0.2962  0.2461
 3136DPPE   NH359485  11.737   7.112  13.386 -0.3065 -0.0834  0.1721
 3136DPPE   PO459486  11.539   6.747  13.373 -0.2064 -0.2986 -0.0802
 3136DPPE   GL159487  11.146   6.557  13.528  0.1457  0.2396  0.1733
 3136DPPE   GL259488  11.200   6.269  13.326  0.0153 -0.2009  0.0418
 3136DPPE   C1A59489  10.743   6.324  13.732 -0.0341  0.1450 -0.3377
 3136DPPE   C2A59490  10.366   6.236  13.745  0.0669  0.0265  0.1546
 3136DPPE   C3A59491  10.020   6.067  13.653  0.0120 -0.2447  0.1504
 3136DPPE   C4A59492   9.804   5.719  13.735 -0.0270 -0.0536  0.0492
 3136DPPE   C1B59493  10.774   6.232  13.189 -0.0760  0.2182 -0.2070
 3136DPPE   C2B59494  10.598   6.128  12.848 -0.2213  0.1237 -0.1330
 3136DPPE   C3B59495  10.132   6.155  12.742 -0.2457 -0.2424 -0.1242
 3136DPPE   C4B59496   9.900   5.838  12.774  0.0524  0.0909  0.1242
 3137DPPE   NH359497  19.619  21.411  20.676 -0.2791  0.0902 -0.1222
 3137DPPE   PO459498  19.264  21.165  20.958  0.1287 -0.2993 -0.0503
 3137DPPE   GL159499  19.026  20.828  20.923 -0.3112  0.4337  0.3218
 3137DPPE   GL259500  19.256  20.589  21.104  0.0242 -0.2965  0.1249
 3137DPPE   C1A59501  18.724  20.756  20.672  0.2773 -0.0192  0.2342
 3137DPPE   C2A59502  18.441  20.846  20.290 -0.0389  0.0137 -0.0335
 3137DPPE   C3A59503  18.557  20.490  20.174 -0.0346  0.4478  0.1115
 3137DPPE   C4A59504  18.628  20.033  19.929  0.2547 -0.1794 -0.1205
 3137DPPE   C1B59505  19.468  20.158  21.176  0.1493  0.2986  0.0501
 3137DPPE   C2B59506  19.297  19.836  20.969 -0.1103 -0.0784 -0.0747
 3137DPPE   C3B59507  19.180  19.583  20.655 -0.3112 -0.0487 -0.1634
 3137DPPE   C4B59508  19.249  19.336  20.333 -0.2947 -0.2853 -0.2521
 3138DPPE   NH359509  21.215  20.992  20.250  0.0357 -0.0995 -0.1369
 3138DPPE   PO459510  21.140  20.807  20.695  0.1605  0.0406 -0.4535
 3138DPPE   GL159511  21.215  20.466  20.514  0.0704 -0.3048  0.0315
 3138DPPE   GL259512  21.495  20.504  20.318 -0.0348 -0.0321 -0.2239
 3138DPPE   C1A59513  21.110  20.056  20.570  0.1562 -0.0876 -0.1186
 3138DPPE   C2A59514  20.893  19.752  20.340 -0.0116 -0.1032 -0.1540
 3138DPPE   C3A59515  20.708  19.484  20.364  0.3034 -0.2383 -0.1036
 3138DPPE   C4A59516  20.470  19.142  20.559  0.0681  0.3617  0.0295
 3138DPPE   C1B59517  21.455  20.199  20.063  0.1978 -0.2642  0.1528
 3138DPPE   C2B59518  21.183  19.848  19.945 -0.2654 -0.2611 -0.1308
 3138DPPE   C3B59519  20.960  19.516  19.747  0.2177 -0.3124 -0.0678
 3138DPPE   C4B59520  20.903  19.182  19.407  0.3823 -0.2416  0.2193
 3139DPPE   NH359521  17.877   3.370   1.745  0.2256 -0.1746 -0.1042
 3139DPPE   PO459522  17.727   3.763   1.848 -0.0072  0.0537 -0.0993
 3139DPPE   GL159523  17.393   3.863   1.974 -0.0742  0.0416  0.1553
 3139DPPE   GL259524  17.000   3.661   1.932 -0.0160  0.2179 -0.0039
 3139DPPE   C1A59525  17.148   3.954   2.291 -0.0710  0.0582  0.0512
 3139DPPE   C2A59526  16.820   4.139   2.564 -0.0878  0.1732  0.1685
 3139DPPE   C3A59527  16.470   4.363   2.585  0.0263 -0.0402  0.2542
 3139DPPE   C4A59528  16.285   4.748   2.621 -0.1369 -0.0347 -0.0320
 3139DPPE   C1B59529  16.616   3.590   2.285 -0.1849 -0.2287  0.0624
 3139DPPE   C2B59530  16.359   3.786   2.640  0.2026 -0.3915 -0.0826
 3139DPPE   C3B59531  16.151   4.004   2.952 -0.0648  0.0527  0.0518
 3139DPPE   C4B59532  16.156   4.445   3.056  0.0579  0.1875  0.5538
 3140DPPE   NH359533   4.932  10.739  20.125  0.0121  0.2344  0.1068
 3140DPPE   PO459534   4.925  10.509  19.782 -0.2812  0.0558  0.0751
 3140DPPE   GL159535   5.217  10.299  19.581 -0.1019 -0.2280 -0.0775
 3140DPPE   GL259536   5.196   9.964  19.473 -0.1357  0.1171 -0.1193
 3140DPPE   C1A59537   5.464  10.468  19.320 -0.0447  0.2623 -0.2658
 3140DPPE   C2A59538   5.828  10.295  19.150 -0.1360 -0.0256  0.0000
 3140DPPE   C3A59539   6.076  10.254  18.777 -0.0440  0.1079  0.2385
 3140DPPE   C4A59540   6.265   9.966  18.682  0.0593 -0.1191 -0.1844
 3140DPPE   C1B59541   5.676   9.866  19.407 -0.0610 -0.2139  0.3566
 3140DPPE   C2B59542   6.006   9.715  19.288 -0.2787 -0.1251 -0.2380
 3140DPPE   C3B59543   6.144   9.482  18.932 -0.2791  0.0560  0.0896
 3140DPPE   C4B59544   6.161   9.327  18.657  0.0765  0.2885  0.1671
 3141DPPE   NH359545  27.141   7.262  21.610 -0.0978  0.0096  0.2356
 3141DPPE   PO459546  26.901   7.539  21.910 -0.1317  0.0771  0.1515
 3141DPPE   GL159547  26.602   7.545  21.620  0.2537 -0.1992  0.0398
 3141DPPE   GL259548  26.355   7.414  21.797 -0.3474  0.1315  0.0790
 3141DPPE   C1A59549  26.402   7.598  21.159  0.1701 -0.1185 -0.1082
 3141DPPE   C2A59550  25.996   7.671  20.925  0.0366  0.0600 -0.2117
 3141DPPE   C3A59551  25.623   7.686  20.814  0.2639 -0.0289 -0.1237
 3141DPPE   C4A59552  25.388   7.707  20.328  0.0234  0.3430  0.1059
 3141DPPE   C1B59553  26.026   7.653  21.458 -0.0125  0.0133 -0.2566
 3141DPPE   C2B59554  25.609   7.786  21.388 -0.4010 -0.0291  0.0993
 3141DPPE   C3B59555  25.320   8.115  21.416  0.0774  0.1570  0.1754
 3141DPPE   C4B59556  25.044   8.294  21.710 -0.1071 -0.2143  0.1536
 3142DPPE   NH359557  26.944  11.949  21.810  0.2890 -0.3008  0.0040
 3142DPPE   PO459558  27.163  12.279  21.868  0.2546  0.3364 -0.0031
 3142DPPE   GL159559  26.868  12.480  21.793 -0.0704  0.0522  0.0344
 3142DPPE   GL259560  26.916  12.379  21.449  0.2409 -0.0846  0.0566
 3142DPPE   C1A59561  26.416  12.545  21.576 -0.1362 -0.3837  0.0966
 3142DPPE   C2A59562  26.058  12.737  21.365  0.0430 -0.1917 -0.2933
 3142DPPE   C3A59563  25.639  12.974  21.316  0.1561  0.0930  0.1548
 3142DPPE   C4A59564  25.414  13.141  21.652  0.1881 -0.0387  0.2198
 3142DPPE   C1B59565  26.655  12.293  21.169  0.2099  0.0565 -0.1097
 3142DPPE   C2B59566  26.334  12.451  21.002 -0.2392  0.1392 -0.1258
 3142DPPE   C3B59567  25.935  12.559  20.925  0.0374 -0.1261 -0.0716
 3142DPPE   C4B59568  25.623  12.773  20.689 -0.0119  0.0229 -0.1719
 3143DPPE   NH359569  16.112   4.691  11.303  0.2936  0.1850  0.2177
 3143DPPE   PO459570  16.565   4.866  11.187 -0.1692 -0.0071  0.0576
 3143DPPE   GL159571  16.359   4.697  10.773  0.1326  0.1612 -0.2186
 3143DPPE   GL259572  16.255   4.449  10.921  0.3310 -0.0182  0.3837
 3143DPPE   C1A59573  16.366   4.763  10.368 -0.2403  0.1576 -0.0142
 3143DPPE   C2A59574  16.225   5.158   9.993  0.0340 -0.0455 -0.0112
 3143DPPE   C3A59575  16.322   5.555   9.743 -0.1034  0.0970  0.0846
 3143DPPE   C4A59576  16.275   5.848   9.373  0.1907 -0.0173  0.1279
 3143DPPE   C1B59577  16.001   4.292  10.596 -0.1939 -0.0250 -0.0583
 3143DPPE   C2B59578  16.004   3.953  10.307 -0.0475 -0.0022  0.1446
 3143DPPE   C3B59579  15.831   3.519  10.285 -0.0664 -0.3777  0.2185
 3143DPPE   C4B59580  15.394   3.367  10.152 -0.1607 -0.6494  0.3935
 3144DPPE   NH359581  13.751  31.694  14.242 -0.3405 -0.3213 -0.1288
 3144DPPE   PO459582  13.473  31.954  14.028  0.0721  0.2035  0.0837
 3144DPPE   GL159583  13.627  32.331  14.075 -0.0332 -0.0002 -0.1814
 3144DPPE   GL259584  13.952  32.499  13.967 -0.1222  0.1503  0.0142
 3144DPPE   C1A59585  13.367  32.690  14.273  0.3637  0.0098  0.1905
 3144DPPE   C2A59586  13.338  32.966  14.640 -0.0286 -0.0864  0.1225
 3144DPPE   C3A59587  13.062  33.293  14.375 -0.0670  0.4798 -0.0908
 3144DPPE   C4A59588  12.658  33.335  14.349  0.3286  0.0974  0.2954
 3144DPPE   C1B59589  13.606  32.792  13.797  0.0448  0.0488 -0.2331
 3144DPPE   C2B59590  13.242  33.057  13.885 -0.0141 -0.0092 -0.1224
 3144DPPE   C3B59591  12.799  33.097  13.757  0.0339 -0.1497 -0.3476
 3144DPPE   C4B59592  12.385  33.353  13.868 -0.0774 -0.0992 -0.0699
 3145DPPE   NH359593  14.450  22.887  15.779  0.0037 -0.0574 -0.0916
 3145DPPE   PO459594  14.247  22.922  16.248  0.1568  0.0418 -0.1475
 3145DPPE   GL159595  14.334  22.709  16.626 -0.1511 -0.0570 -0.3342
 3145DPPE   GL259596  14.097  22.584  16.803  0.4218  0.0537 -0.1860
 3145DPPE   C1A59597  14.568  22.288  16.587  0.1072  0.0405  0.3082
 3145DPPE   C2A59598  14.840  21.904  16.719 -0.1558 -0.0603  0.1653
 3145DPPE   C3A59599  15.189  21.846  16.617  0.2145 -0.3876  0.2207
 3145DPPE   C4A59600  15.521  22.031  16.623  0.2284 -0.3142 -0.1425
 3145DPPE   C1B59601  14.030  22.148  16.715  0.0578  0.0387  0.0145
 3145DPPE   C2B59602  13.721  21.868  16.603 -0.0103 -0.3304 -0.0072
 3145DPPE   C3B59603  13.712  21.556  16.812  0.0893  0.2133 -0.1310
 3145DPPE   C4B59604  13.864  21.359  17.112  0.0002  0.1651 -0.0031
 3146DPPE   NH359605  12.414  10.943  26.683  0.2386  0.1958 -0.0759
 3146DPPE   PO459606  12.744  10.745  26.885  0.2267 -0.1177 -0.1692
 3146DPPE   GL159607  12.967  10.891  26.549 -0.0036  0.2186 -0.1522
 3146DPPE   GL259608  12.865  11.143  26.597 -0.3030 -0.4345  0.0957
 3146DPPE   C1A59609  13.099  10.837  26.143 -0.2153  0.1021  0.0795
 3146DPPE   C2A59610  13.207  10.784  25.754 -0.1227  0.0067  0.0892
 3146DPPE   C3A59611  13.537  10.821  25.532  0.1816  0.1138  0.1187
 3146DPPE   C4A59612  13.686  10.997  25.199  0.1246  0.2789  0.0914
 3146DPPE   C1B59613  13.160  11.294  26.256  0.2202 -0.1867 -0.0339
 3146DPPE   C2B59614  13.391  11.242  25.867 -0.2746  0.0319 -0.0992
 3146DPPE   C3B59615  13.754  11.324  25.540 -0.5330  0.3285  0.1925
 3146DPPE   C4B59616  14.017  11.442  25.233  0.0245 -0.0590 -0.0100
 3147DPPE   NH359617  10.356  21.221  15.020  0.2372  0.1830  0.1158
 3147DPPE   PO459618  10.733  21.391  15.298 -0.2765 -0.0761  0.2186
 3147DPPE   GL159619  10.939  21.047  15.549  0.2337 -0.2983 -0.0931
 3147DPPE   GL259620  11.195  21.176  15.504 -0.0094 -0.4150 -0.3104
 3147DPPE   C1A59621  11.305  20.676  15.610 -0.0438  0.1391  0.1606
 3147DPPE   C2A59622  11.652  20.317  15.646 -0.0539 -0.2404 -0.0164
 3147DPPE   C3A59623  11.757  19.911  15.662 -0.2167  0.0972  0.1629
 3147DPPE   C4A59624  11.964  19.560  15.771  0.1138 -0.1603  0.0014
 3147DPPE   C1B59625  11.253  20.880  15.170 -0.1432 -0.1702 -0.1509
 3147DPPE   C2B59626  11.192  20.449  15.162  0.1073 -0.2165  0.2313
 3147DPPE   C3B59627  11.188  20.077  14.946  0.0419 -0.1219 -0.3140
 3147DPPE   C4B59628  11.453  19.803  14.885 -0.1163  0.3461 -0.0227
 3148DPPE   NH359629   1.141   9.511  13.457 -0.2812  0.2298  0.1513
 3148DPPE   PO459630   1.428   9.813  13.351  0.0510  0.2119  0.1376
 3148DPPE   GL159631   1.864   9.746  13.455 -0.1569 -0.1357 -0.2137
 3148DPPE   GL259632   1.858  10.098  13.271  0.0049  0.4854  0.1550
 3148DPPE   C1A59633   2.238   9.635  13.516 -0.4600  0.1847 -0.1515
 3148DPPE   C2A59634   2.439   9.411  13.569  0.1127  0.0377  0.0717
 3148DPPE   C3A59635   2.480   9.206  13.875 -0.0679 -0.1050  0.0172
 3148DPPE   C4A59636   2.862   9.354  14.109 -0.1600 -0.1162 -0.0255
 3148DPPE   C1B59637   2.271  10.287  13.026  0.0265 -0.1187 -0.0093
 3148DPPE   C2B59638   2.703  10.148  12.884  0.4527  0.1138  0.0894
 3148DPPE   C3B59639   3.049  10.279  12.917 -0.3314  0.2669 -0.1931
 3148DPPE   C4B59640   2.995  10.749  12.897 -0.0845  0.2551  0.3139
 3149DPPE   NH359641  26.007  11.260  23.376 -0.4345 -0.4327  0.1985
 3149DPPE   PO459642  25.834  10.904  23.641 -0.3455  0.1586 -0.4218
 3149DPPE   GL159643  25.595  10.692  23.336  0.1609 -0.0688  0.0403
 3149DPPE   GL259644  25.648  10.666  23.005  0.1202 -0.2391 -0.2071
 3149DPPE   C1A59645  25.160  10.727  23.034  0.0311  0.0016 -0.2463
 3149DPPE   C2A59646  25.016  11.030  22.708 -0.1014 -0.0991  0.1570
 3149DPPE   C3A59647  24.821  11.187  22.384  0.0771  0.1932 -0.0343
 3149DPPE   C4A59648  24.815  11.244  22.024  0.0909  0.1507 -0.0400
 3149DPPE   C1B59649  25.532  10.227  22.810 -0.1569  0.0885  0.3249
 3149DPPE   C2B59650  25.246   9.910  22.482 -0.2106 -0.0729  0.3958
 3149DPPE   C3B59651  25.032   9.603  22.234  0.2169 -0.1925  0.0573
 3149DPPE   C4B59652  24.644   9.527  22.088 -0.2394 -0.2308  0.3317
 3150DPPE   NH359653  14.740   9.839   9.095 -0.1258  0.1632  0.2715
 3150DPPE   PO459654  15.119  10.081   8.915  0.2923 -0.1854  0.2989
 3150DPPE   GL159655  15.105  10.006   8.395  0.0219  0.1421 -0.0397
 3150DPPE   GL259656  15.303  10.095   8.248 -0.1059 -0.1373  0.3402
 3150DPPE   C1A59657  14.836   9.938   8.042  0.2656 -0.1682  0.2793
 3150DPPE   C2A59658  14.792  10.193   7.710  0.0743 -0.1429 -0.2891
 3150DPPE   C3A59659  14.996  10.120   7.332  0.4453 -0.0306 -0.1787
 3150DPPE   C4A59660  14.785   9.935   7.093 -0.1094 -0.1873  0.0086
 3150DPPE   C1B59661  15.337   9.795   7.991  0.1441  0.0635 -0.0277
 3150DPPE   C2B59662  14.949   9.670   7.597  0.0117  0.0273 -0.0847
 3150DPPE   C3B59663  14.507   9.379   7.455  0.0013 -0.2802  0.3073
 3150DPPE   C4B59664  14.103   9.160   7.616  0.1594  0.4410 -0.0661
 3151DPPE   NH359665  24.078  16.391   9.364  0.1090  0.2949 -0.1148
 3151DPPE   PO459666  23.871  15.970   9.269 -0.2323  0.2853  0.1721
 3151DPPE   GL159667  24.037  15.866   9.680 -0.0992  0.3541  0.2018
 3151DPPE   GL259668  24.057  16.238   9.863  0.2065 -0.1346  0.0695
 3151DPPE   C1A59669  23.866  15.766   9.963 -0.0052  0.2426 -0.0667
 3151DPPE   C2A59670  23.487  15.382   9.944  0.0007  0.1482 -0.0312
 3151DPPE   C3A59671  23.248  15.142  10.150  0.2516 -0.0285  0.5217
 3151DPPE   C4A59672  22.935  14.832  10.404 -0.0605  0.2878 -0.2005
 3151DPPE   C1B59673  23.619  16.196   9.801 -0.1015 -0.2371 -0.3795
 3151DPPE   C2B59674  23.353  15.882   9.826  0.1590 -0.1882 -0.1251
 3151DPPE   C3B59675  22.980  15.691  10.008  0.0641  0.2208  0.0699
 3151DPPE   C4B59676  22.662  15.405  10.008  0.1838  0.0070 -0.2364
 3152DPPE   NH359677   7.125   3.259   5.328  0.1660 -0.5694  0.0128
 3152DPPE   PO459678   6.932   3.552   5.283 -0.0696 -0.2935  0.1328
 3152DPPE   GL159679   7.178   3.850   5.522  0.0920 -0.0867 -0.1998
 3152DPPE   GL259680   7.379   4.128   5.438  0.2437 -0.1041 -0.0118
 3152DPPE   C1A59681   7.310   3.863   5.960 -0.1068 -0.1013  0.0362
 3152DPPE   C2A59682   7.430   4.053   6.241 -0.1290  0.3504 -0.1911
 3152DPPE   C3A59683   7.644   4.374   6.344 -0.0141  0.0852  0.4820
 3152DPPE   C4A59684   7.872   4.720   6.284 -0.3668 -0.1768  0.1381
 3152DPPE   C1B59685   7.384   4.352   5.777  0.0221 -0.1987  0.2064
 3152DPPE   C2B59686   7.495   4.739   5.911  0.5474 -0.3874  0.2000
 3152DPPE   C3B59687   7.770   5.119   5.667 -0.3196  0.0461  0.1733
 3152DPPE   C4B59688   7.765   5.507   5.491  0.1315 -0.0543  0.1166
 3153DPPE   NH359689  24.557   4.093  22.265 -0.1775 -0.2703 -0.1316
 3153DPPE   PO459690  24.732   3.843  21.889 -0.0438  0.3116 -0.0179
 3153DPPE   GL159691  24.578   4.238  21.701  0.0390 -0.2744 -0.1298
 3153DPPE   GL259692  24.826   4.407  21.706 -0.0646 -0.6030  0.1333
 3153DPPE   C1A59693  24.202   4.441  21.518  0.1444  0.1538  0.1232
 3153DPPE   C2A59694  23.768   4.608  21.353 -0.1866 -0.1075 -0.0693
 3153DPPE   C3A59695  23.658   4.867  21.077  0.3592  0.0487 -0.1114
 3153DPPE   C4A59696  23.284   5.099  20.962 -0.0683 -0.1265  0.1575
 3153DPPE   C1B59697  24.477   4.823  21.526 -0.2313 -0.1790  0.0705
 3153DPPE   C2B59698  24.166   4.903  21.212  0.0531 -0.1615  0.0877
 3153DPPE   C3B59699  24.051   4.876  20.719  0.0970 -0.0957  0.1133
 3153DPPE   C4B59700  24.131   5.197  20.405  0.2064  0.1827  0.0548
 3154DPPE   NH359701   9.214  18.030  23.250 -0.1172 -0.2853 -0.1819
 3154DPPE   PO459702   9.325  17.981  22.942 -0.2082  0.0178 -0.0511
 3154DPPE   GL159703   9.729  17.761  22.795  0.0613  0.0110  0.1750
 3154DPPE   GL259704   9.881  17.411  22.899 -0.1189 -0.3691  0.1383
 3154DPPE   C1A59705  10.042  17.666  22.523  0.1754 -0.3444 -0.2460
 3154DPPE   C2A59706  10.162  17.399  22.111  0.1443  0.0860 -0.0240
 3154DPPE   C3A59707  10.403  16.968  22.048 -0.2769 -0.1649 -0.1832
 3154DPPE   C4A59708  10.755  16.720  21.774  0.0121 -0.0729  0.1479
 3154DPPE   C1B59709   9.802  16.930  22.898  0.0877  0.0471  0.0008
 3154DPPE   C2B59710   9.946  16.519  22.958 -0.0570  0.0933  0.0056
 3154DPPE   C3B59711   9.991  16.178  22.599 -0.0939  0.4233 -0.2386
 3154DPPE   C4B59712  10.280  16.057  22.286  0.0434 -0.0051  0.2416
 3155DPPE   NH359713  16.134  22.860  16.804 -0.0618  0.4530 -0.0124
 3155DPPE   PO459714  15.798  22.956  16.647  0.1074 -0.1776 -0.0335
 3155DPPE   GL159715  15.540  22.641  16.606 -0.1238 -0.0733 -0.0033
 3155DPPE   GL259716  15.655  22.485  16.419  0.3367 -0.2242 -0.0313
 3155DPPE   C1A59717  15.098  22.351  16.552  0.1446 -0.0574  0.0964
 3155DPPE   C2A59718  14.869  22.080  16.269 -0.4198  0.1829 -0.2101
 3155DPPE   C3A59719  14.727  21.845  15.952  0.2521  0.1897  0.2699
 3155DPPE   C4A59720  14.582  21.428  15.729 -0.0974 -0.0416  0.0926
 3155DPPE   C1B59721  15.864  22.050  16.243  0.1790 -0.1780  0.0693
 3155DPPE   C2B59722  16.109  21.788  16.169 -0.2394  0.3525  0.1936
 3155DPPE   C3B59723  15.958  21.373  16.262 -0.0721  0.1442  0.0640
 3155DPPE   C4B59724  15.810  21.014  16.441 -0.1793  0.1719 -0.1201
 3156DPPE   NH359725  16.838  33.399  13.353  0.0103  0.2242  0.1595
 3156DPPE   PO459726  16.394  33.293  13.532  0.2070  0.5132  0.1364
 3156DPPE   GL159727  16.118  33.566  13.298 -0.0777  0.1429  0.3733
 3156DPPE   GL259728  15.849  33.585  13.421 -0.0786 -0.2945  0.1382
 3156DPPE   C1A59729  15.889  34.026  13.303  0.3855 -0.4234  0.0694
 3156DPPE   C2A59730  15.535  34.171  13.057  0.0061  0.2134  0.0837
 3156DPPE   C3A59731  15.313  34.105  12.660 -0.2703 -0.0152 -0.1031
 3156DPPE   C4A59732  15.209  33.738  12.637 -0.0622 -0.0665 -0.0314
 3156DPPE   C1B59733  15.526  33.716  13.587  0.0159  0.1031  0.0706
 3156DPPE   C2B59734  15.260  34.035  13.574 -0.0378 -0.1228 -0.2105
 3156DPPE   C3B59735  14.873  34.268  13.765  0.0191 -0.0629 -0.1783
 3156DPPE   C4B59736  14.543  34.525  14.035  0.1322 -0.0222 -0.0978
 3157DPPE   NH359737  21.648  10.094  26.919 -0.3663  0.0469  0.0354
 3157DPPE   PO459738  21.601   9.650  26.931  0.0091 -0.0267 -0.0158
 3157DPPE   GL159739  21.756   9.882  26.512 -0.0919  0.0854 -0.1444
 3157DPPE   GL259740  21.856   9.804  26.157  0.2929  0.1443 -0.0182
 3157DPPE   C1A59741  21.501  10.114  26.218 -0.0627  0.0265  0.0666
 3157DPPE   C2A59742  21.260  10.387  26.016 -0.3544 -0.2475 -0.0104
 3157DPPE   C3A59743  20.824  10.573  25.912 -0.2435  0.2566 -0.2273
 3157DPPE   C4A59744  20.873  11.041  25.917 -0.0993 -0.1731  0.0243
 3157DPPE   C1B59745  22.136   9.587  25.788 -0.2328 -0.0475 -0.1491
 3157DPPE   C2B59746  22.171   9.551  25.335  0.0059 -0.0393 -0.2423
 3157DPPE   C3B59747  22.202   9.195  24.992 -0.0145 -0.0452  0.1104
 3157DPPE   C4B59748  22.477   8.907  25.070 -0.1284  0.4063  0.0076
 3158DPPE   NH359749  17.097  13.937   4.085 -0.0784 -0.0225 -0.0124
 3158DPPE   PO459750  16.934  14.351   4.170  0.2033 -0.4595  0.0501
 3158DPPE   GL159751  16.762  14.282   4.576  0.3478 -0.0565  0.1731
 3158DPPE   GL259752  16.816  14.491   4.761 -0.2073  0.1595  0.0540
 3158DPPE   C1A59753  16.589  14.022   4.883 -0.0834 -0.2933  0.0919
 3158DPPE   C2A59754  16.741  14.099   5.247  0.1026 -0.0871  0.1260
 3158DPPE   C3A59755  16.818  14.023   5.621  0.0429  0.3116  0.1439
 3158DPPE   C4A59756  17.072  14.178   5.928  0.0775  0.3532  0.1068
 3158DPPE   C1B59757  16.875  14.549   5.141 -0.0253 -0.0652  0.2039
 3158DPPE   C2B59758  17.149  14.526   5.494  0.0350  0.6089 -0.0446
 3158DPPE   C3B59759  17.496  14.361   5.606 -0.4553 -0.1925 -0.1988
 3158DPPE   C4B59760  17.572  14.109   6.003 -0.0590 -0.1914 -0.0896
 3159DPPE   NH359761  11.064  35.325   5.816 -0.0725 -0.2545 -0.0324
 3159DPPE   PO459762  10.916  35.653   5.557 -0.1196  0.0445  0.0796
 3159DPPE   GL159763  11.152  35.821   5.870  0.0383 -0.1300 -0.6203
 3159DPPE   GL259764  11.503  36.023   5.858  0.0080 -0.3758  0.1488
 3159DPPE   C1A59765  11.250  35.898   6.364  0.0563 -0.0408 -0.3823
 3159DPPE   C2A59766  11.335  36.215   6.655 -0.2529 -0.0550 -0.1178
 3159DPPE   C3A59767  11.506  36.334   7.091 -0.0533 -0.3069  0.1684
 3159DPPE   C4A59768  11.343  36.228   7.487  0.1986  0.2773 -0.0119
 3159DPPE   C1B59769  11.691  36.319   6.262  0.2029 -0.1325 -0.2916
 3159DPPE   C2B59770  11.619  36.636   6.568 -0.0800 -0.3448  0.0815
 3159DPPE   C3B59771  11.890  36.674   6.965  0.3013 -0.3267  0.1545
 3159DPPE   C4B59772  11.941  36.448   7.418 -0.2547  0.1741 -0.2475
 3160DPPE   NH359773  10.422   6.435  15.764  0.1248  0.2530 -0.0907
 3160DPPE   PO459774  10.435   6.160  16.108  0.1940 -0.2549  0.1654
 3160DPPE   GL159775  10.227   5.861  15.921 -0.0563  0.3407 -0.0540
 3160DPPE   GL259776  10.266   5.757  15.718  0.0783  0.3600 -0.1762
 3160DPPE   C1A59777   9.837   5.603  15.951 -0.1299 -0.2110  0.4052
 3160DPPE   C2A59778   9.462   5.858  15.934 -0.0584  0.2548  0.2817
 3160DPPE   C3A59779   9.152   6.156  15.656 -0.0944  0.0857 -0.0496
 3160DPPE   C4A59780   8.880   6.290  15.330  0.0708  0.2047 -0.2215
 3160DPPE   C1B59781   9.826   5.624  15.465  0.0407  0.1956  0.0811
 3160DPPE   C2B59782   9.875   5.312  15.167 -0.1213  0.1097  0.2587
 3160DPPE   C3B59783   9.860   5.318  14.806 -0.2546  0.2050 -0.2375
 3160DPPE   C4B59784   9.600   5.164  14.448 -0.2483 -0.3834 -0.7007
 3161DPPE   NH359785  16.056   2.775  19.528  0.1772 -0.0866  0.2177
 3161DPPE   PO459786  16.468   2.741  19.557 -0.3271  0.0709 -0.0984
 3161DPPE   GL159787  16.421   2.369  19.916 -0.0239  0.1570 -0.2616
 3161DPPE   GL259788  16.637   2.247  20.047 -0.0934  0.2348  0.3438
 3161DPPE   C1A59789  16.232   2.325  20.326  0.0326 -0.2824 -0.0921
 3161DPPE   C2A59790  16.199   2.208  20.828 -0.1155  0.0502 -0.1402
 3161DPPE   C3A59791  16.072   1.934  21.210 -0.1918 -0.0444  0.1006
 3161DPPE   C4A59792  15.858   1.519  21.329  0.3348 -0.2470  0.1722
 3161DPPE   C1B59793  16.710   2.052  20.467  0.0108 -0.1025  0.1022
 3161DPPE   C2B59794  16.702   1.931  20.866  0.2297 -0.0854 -0.2030
 3161DPPE   C3B59795  16.896   1.635  21.136  0.2049  0.0928  0.0878
 3161DPPE   C4B59796  17.124   1.273  21.175 -0.0290 -0.2786 -0.1120
 3162DPPE   NH359797   7.995   6.245   2.984  0.3327  0.2102 -0.0016
 3162DPPE   PO459798   8.291   6.388   2.747 -0.0726  0.1477 -0.0882
 3162DPPE   GL159799   8.627   6.558   3.024  0.2052 -0.2006  0.0652
 3162DPPE   GL259800   8.399   6.864   3.081  0.0841  0.0665 -0.0935
 3162DPPE   C1A59801   8.888   6.874   3.334 -0.5876  0.1033 -0.0999
 3162DPPE   C2A59802   9.098   7.015   3.698 -0.0708  0.1887 -0.1436
 3162DPPE   C3A59803   9.289   7.021   4.109  0.1728 -0.3010  0.0236
 3162DPPE   C4A59804   9.557   6.972   4.411 -0.0270  0.0496  0.3446
 3162DPPE   C1B59805   8.462   6.817   3.581  0.1040  0.0584  0.0991
 3162DPPE   C2B59806   8.584   6.709   3.869 -0.0363 -0.0611  0.0674
 3162DPPE   C3B59807   8.932   6.622   4.031  0.0811  0.0968  0.2460
 3162DPPE   C4B59808   9.169   6.292   4.051  0.4299  0.0145  0.0326
 3163DPPE   NH359809  27.619   6.993  19.196  0.2217  0.1911  0.0552
 3163DPPE   PO459810  27.428   6.522  19.045 -0.0250 -0.1861  0.3130
 3163DPPE   GL159811  27.080   6.354  18.801 -0.1476 -0.0993  0.0128
 3163DPPE   GL259812  27.040   6.417  18.517  0.1118  0.0785 -0.2080
 3163DPPE   C1A59813  26.591   6.287  18.802  0.0477 -0.3500 -0.2176
 3163DPPE   C2A59814  26.380   6.462  18.496  0.0859 -0.5348  0.4148
 3163DPPE   C3A59815  25.972   6.671  18.510 -0.2792  0.2140 -0.0015
 3163DPPE   C4A59816  25.499   6.669  18.566  0.2814  0.0151  0.3659
 3163DPPE   C1B59817  26.756   6.742  18.654 -0.0404  0.0389  0.0116
 3163DPPE   C2B59818  26.338   7.026  18.653 -0.2150 -0.1895  0.2026
 3163DPPE   C3B59819  25.994   7.171  18.461 -0.0477 -0.0488  0.2789
 3163DPPE   C4B59820  25.814   7.430  18.185 -0.2501  0.5025  0.0024
 3164DPPE   NH359821   5.576  12.480  20.800 -0.0158 -0.2060  0.1065
 3164DPPE   PO459822   5.511  12.887  20.740  0.1958  0.1434 -0.2231
 3164DPPE   GL159823   5.796  12.790  20.351  0.4170 -0.0099 -0.0090
 3164DPPE   GL259824   6.005  12.563  20.476 -0.2499 -0.1836 -0.0481
 3164DPPE   C1A59825   6.017  12.506  20.025 -0.2852 -0.0725  0.0702
 3164DPPE   C2A59826   6.201  12.554  19.588  0.0620 -0.2613  0.0145
 3164DPPE   C3A59827   6.377  12.228  19.347  0.0893 -0.3653  0.2995
 3164DPPE   C4A59828   6.487  11.793  19.364  0.0577  0.1480  0.2519
 3164DPPE   C1B59829   6.082  12.155  20.429 -0.1378 -0.3867  0.3083
 3164DPPE   C2B59830   6.224  11.763  20.248  0.3705  0.0474 -0.0927
 3164DPPE   C3B59831   6.182  11.313  20.517 -0.1660 -0.2340  0.1396
 3164DPPE   C4B59832   6.475  11.031  20.816  0.4909 -0.4165 -0.2880
 3165DPPE   NH359833  20.851  21.383  14.263  0.3919 -0.4014 -0.0131
 3165DPPE   PO459834  20.577  21.740  14.427 -0.3300  0.3085  0.0263
 3165DPPE   GL159835  20.369  21.365  14.632 -0.0901 -0.3611  0.0799
 3165DPPE   GL259836  20.361  21.483  14.962 -0.0897 -0.2126  0.1855
 3165DPPE   C1A59837  19.996  21.242  14.601 -0.3507  0.5478  0.1008
 3165DPPE   C2A59838  19.733  20.878  14.574  0.3603 -0.0765  0.1719
 3165DPPE   C3A59839  19.376  20.683  14.815  0.1701 -0.0712  0.4042
 3165DPPE   C4A59840  18.979  20.653  14.870  0.4193 -0.0049 -0.3526
 3165DPPE   C1B59841  20.273  21.009  14.932  0.2328 -0.1400 -0.2150
 3165DPPE   C2B59842  20.271  20.464  14.876  0.1019  0.0186  0.1760
 3165DPPE   C3B59843  20.426  20.069  14.648 -0.0671  0.0144  0.0250
 3165DPPE   C4B59844  20.634  19.690  14.648 -0.1437 -0.0456 -0.0438
 3166DPPE   NH359845  23.624  12.836  24.877  0.0834 -0.0528 -0.1910
 3166DPPE   PO459846  23.403  13.055  25.039 -0.3595  0.0558  0.1005
 3166DPPE   GL159847  23.010  13.085  24.998 -0.1693 -0.2026 -0.0790
 3166DPPE   GL259848  22.914  12.897  25.135  0.2001  0.1513  0.0982
 3166DPPE   C1A59849  22.811  12.994  24.590  0.0151  0.4172  0.2293
 3166DPPE   C2A59850  22.589  12.596  24.469 -0.0741  0.0179 -0.0948
 3166DPPE   C3A59851  22.220  12.334  24.408 -0.1179  0.0718  0.0018
 3166DPPE   C4A59852  21.866  12.349  24.493  0.1973  0.1042  0.2527
 3166DPPE   C1B59853  22.541  12.708  24.999 -0.1766 -0.1322  0.1298
 3166DPPE   C2B59854  22.182  12.701  24.774 -0.0827  0.2538  0.1638
 3166DPPE   C3B59855  21.686  12.692  24.750 -0.2726 -0.4634  0.1567
 3166DPPE   C4B59856  21.350  12.396  24.631 -0.1887 -0.1587  0.0617
 3167DPPE   NH359857  13.656  22.595  15.191  0.1860 -0.2953 -0.0449
 3167DPPE   PO459858  13.555  22.391  15.571 -0.0461  0.0066 -0.0672
 3167DPPE   GL159859  13.594  21.940  15.666  0.2542 -0.2688 -0.1065
 3167DPPE   GL259860  13.393  21.845  15.404 -0.3389 -0.2665  0.2656
 3167DPPE   C1A59861  13.703  21.724  16.118  0.0588 -0.0867  0.2563
 3167DPPE   C2A59862  14.014  21.498  16.446  0.3428 -0.1978 -0.1177
 3167DPPE   C3A59863  14.115  21.183  16.673  0.0502  0.2906 -0.2399
 3167DPPE   C4A59864  14.402  20.913  16.878 -0.1935 -0.3038  0.2532
 3167DPPE   C1B59865  13.546  21.452  15.675 -0.1167  0.2282 -0.2911
 3167DPPE   C2B59866  13.711  21.059  15.632 -0.2859 -0.0935  0.2292
 3167DPPE   C3B59867  13.990  20.753  15.401  0.0936  0.1005 -0.0906
 3167DPPE   C4B59868  14.021  20.311  15.266 -0.0123 -0.5841 -0.0894
 3168DPPE   NH359869   2.984   2.822  10.580 -0.2810  0.0334  0.1644
 3168DPPE   PO459870   3.334   2.655  10.454 -0.2423 -0.2803 -0.0443
 3168DPPE   GL159871   3.747   2.571  10.656  0.0587  0.1044 -0.2961
 3168DPPE   GL259872   3.739   2.272  10.894 -0.2635  0.0102  0.5003
 3168DPPE   C1A59873   4.130   2.623  10.976 -0.1595  0.1438  0.0918
 3168DPPE   C2A59874   4.455   2.721  11.300 -0.2382  0.1646  0.0528
 3168DPPE   C3A59875   4.631   3.222  11.530  0.0477 -0.3427 -0.2408
 3168DPPE   C4A59876   4.653   3.616  11.397  0.0178 -0.0479 -0.1228
 3168DPPE   C1B59877   4.083   2.075  10.913 -0.2008 -0.1805 -0.0217
 3168DPPE   C2B59878   4.199   1.725  11.150 -0.0058  0.0120 -0.1231
 3168DPPE   C3B59879   4.393   1.502  11.441  0.1952 -0.2922  0.0328
 3168DPPE   C4B59880   4.605   1.572  11.756  0.4077 -0.0785 -0.1002
 3169DPPE   NH359881  13.689  20.065   8.767 -0.1206 -0.1055 -0.0182
 3169DPPE   PO459882  14.009  19.791   8.952  0.0859 -0.2371  0.3538
 3169DPPE   GL159883  14.017  19.495   9.230 -0.1060 -0.0783 -0.3753
 3169DPPE   GL259884  13.713  19.312   9.442 -0.3715  0.1198 -0.0573
 3169DPPE   C1A59885  14.307  19.195   9.445  0.1107  0.1773 -0.2907
 3169DPPE   C2A59886  14.192  18.813   9.471  0.1129  0.0530  0.0153
 3169DPPE   C3A59887  14.023  18.486   9.759  0.1892 -0.0131 -0.0053
 3169DPPE   C4A59888  14.001  18.005   9.624  0.2569  0.0381 -0.1811
 3169DPPE   C1B59889  13.740  18.957   9.756 -0.0958  0.0984  0.1587
 3169DPPE   C2B59890  14.056  18.913   9.976  0.0722  0.0254 -0.2766
 3169DPPE   C3B59891  14.375  18.593  10.179 -0.2644 -0.2311  0.1458
 3169DPPE   C4B59892  14.879  18.543  10.048  0.4198  0.2053  0.0924
 3170DPPE   NH359893  11.589   3.675  17.064 -0.0590 -0.3389  0.3062
 3170DPPE   PO459894  11.488   3.423  16.691  0.2394 -0.0359 -0.1989
 3170DPPE   GL159895  11.083   3.554  16.650  0.0107  0.2533  0.0648
 3170DPPE   GL259896  10.989   3.368  16.786  0.1625 -0.0194 -0.0029
 3170DPPE   C1A59897  10.701   3.532  16.361 -0.1904 -0.2578  0.3101
 3170DPPE   C2A59898  10.239   3.461  16.308  0.0431  0.3300 -0.0329
 3170DPPE   C3A59899   9.764   3.386  16.278 -0.1105 -0.1802  0.0251
 3170DPPE   C4A59900   9.508   3.214  15.885  0.1378  0.1167 -0.2824
 3170DPPE   C1B59901  10.605   3.131  16.640 -0.1664  0.0011  0.0619
 3170DPPE   C2B59902  10.422   2.763  16.716  0.2152 -0.0168  0.4305
 3170DPPE   C3B59903  10.170   2.916  16.972  0.0805 -0.1186  0.0295
 3170DPPE   C4B59904   9.693   2.937  17.142  0.1043  0.0538 -0.0877
 3171DPPE   NH359905   4.972   9.546  19.735 -0.1162  0.1227  0.4059
 3171DPPE   PO459906   4.760   9.121  20.055 -0.0215  0.0029  0.0382
 3171DPPE   GL159907   5.110   8.908  19.824 -0.2136  0.3632  0.1456
 3171DPPE   GL259908   5.334   8.607  20.098 -0.0118  0.0763 -0.1503
 3171DPPE   C1A59909   5.376   8.994  19.592 -0.1873 -0.3102  0.2911
 3171DPPE   C2A59910   5.777   8.977  19.481 -0.1003  0.1097 -0.0169
 3171DPPE   C3A59911   6.170   9.227  19.371  0.2457  0.1961 -0.0865
 3171DPPE   C4A59912   6.546   9.353  19.399  0.0653  0.1402 -0.1296
 3171DPPE   C1B59913   5.528   8.543  19.741  0.2382  0.1934 -0.1226
 3171DPPE   C2B59914   5.910   8.526  19.554 -0.2327  0.1827  0.1239
 3171DPPE   C3B59915   6.100   8.746  19.270  0.2538  0.0341  0.2944
 3171DPPE   C4B59916   6.287   8.927  19.001  0.1942 -0.1162 -0.0245
 3172DPPE   NH359917  12.596  32.641  15.538 -0.1971 -0.1784 -0.1288
 3172DPPE   PO459918  12.870  32.948  15.685 -0.2132  0.0056  0.0669
 3172DPPE   GL159919  12.804  33.293  15.489  0.1141 -0.1676  0.2097
 3172DPPE   GL259920  12.502  33.426  15.360  0.3666  0.3093  0.0532
 3172DPPE   C1A59921  13.005  33.752  15.354 -0.1659 -0.0108 -0.0272
 3172DPPE   C2A59922  13.315  33.995  15.111 -0.0028 -0.0186 -0.0710
 3172DPPE   C3A59923  13.336  34.376  14.941  0.0981  0.2730 -0.1185
 3172DPPE   C4A59924  12.966  34.508  14.746 -0.1407  0.1724 -0.2141
 3172DPPE   C1B59925  12.513  33.816  15.408  0.2451 -0.2412 -0.0494
 3172DPPE   C2B59926  12.413  34.253  15.464 -0.0330  0.0030  0.2093
 3172DPPE   C3B59927  12.575  34.647  15.592 -0.0985 -0.1723  0.2487
 3172DPPE   C4B59928  12.216  35.060  15.773  0.0325  0.0042 -0.1423
 3173DPPE   NH359929  14.199   3.181  25.173  0.0117  0.1140 -0.0986
 3173DPPE   PO459930  14.645   2.965  25.000  0.1240  0.1237 -0.0618
 3173DPPE   GL159931  14.707   2.997  24.507 -0.0387  0.2916 -0.1399
 3173DPPE   GL259932  14.547   3.257  24.498 -0.1718 -0.1087  0.2599
 3173DPPE   C1A59933  14.993   3.180  24.213 -0.3740 -0.3254 -0.0098
 3173DPPE   C2A59934  14.992   3.493  23.990 -0.1165  0.0248  0.3037
 3173DPPE   C3A59935  15.092   3.721  23.608 -0.0411 -0.2788 -0.1352
 3173DPPE   C4A59936  14.853   3.984  23.312  0.1520  0.2259 -0.1850
 3173DPPE   C1B59937  14.567   3.658  24.354  0.2422  0.0951  0.0295
 3173DPPE   C2B59938  14.678   3.910  24.002 -0.1166 -0.0178  0.2971
 3173DPPE   C3B59939  14.777   4.257  23.715  0.2813 -0.4282 -0.1188
 3173DPPE   C4B59940  14.880   4.728  23.560 -0.0262 -0.0036  0.1127
 3174DPPE   NH359941  10.776  31.027  13.252 -0.0607  0.2668  0.2723
 3174DPPE   PO459942  10.822  31.459  13.508 -0.3410  0.0874  0.3986
 3174DPPE   GL159943  10.741  31.878  13.409  0.0133  0.0408  0.3538
 3174DPPE   GL259944  11.040  31.964  13.295 -0.2319  0.3424 -0.0568
 3174DPPE   C1A59945  10.875  32.238  13.715 -0.2188 -0.0590  0.0346
 3174DPPE   C2A59946  10.771  32.652  13.677  0.1785 -0.3060 -0.1042
 3174DPPE   C3A59947  11.105  32.989  13.795 -0.0124  0.0543  0.0068
 3174DPPE   C4A59948  11.347  33.338  13.954  0.3861  0.1398 -0.2542
 3174DPPE   C1B59949  10.900  32.241  12.966 -0.1066  0.0544 -0.0228
 3174DPPE   C2B59950  11.068  32.611  13.158  0.0919 -0.4528  0.0492
 3174DPPE   C3B59951  11.040  32.970  13.328 -0.0840  0.0476 -0.1751
 3174DPPE   C4B59952  10.780  33.342  13.209  0.0167 -0.0219 -0.0800
 3175DPPE   NH359953  17.690  22.387  18.821 -0.2117  0.0872 -0.6084
 3175DPPE   PO459954  18.130  22.393  19.124  0.0042 -0.0910  0.0284
 3175DPPE   GL159955  17.945  22.012  19.068  0.0727 -0.4777  0.0892
 3175DPPE   GL259956  17.713  22.050  19.258  0.0756 -0.1066  0.0851
 3175DPPE   C1A59957  18.129  21.720  19.262  0.1006 -0.0865 -0.2618
 3175DPPE   C2A59958  18.282  21.422  19.122  0.0490  0.2290 -0.0147
 3175DPPE   C3A59959  18.234  21.023  19.181 -0.0948 -0.0058  0.0822
 3175DPPE   C4A59960  18.206  20.637  19.325  0.0539  0.1025 -0.0780
 3175DPPE   C1B59961  17.589  21.737  19.407 -0.1651 -0.2382  0.2026
 3175DPPE   C2B59962  17.599  21.330  19.366 -0.0213 -0.1643  0.1559
 3175DPPE   C3B59963  17.772  20.967  19.268 -0.0458  0.0284  0.2398
 3175DPPE   C4B59964  17.713  20.561  19.177  0.2640  0.2290 -0.1486
 3176DPPE   NH359965  19.479   1.047   4.196  0.2516  0.1369 -0.0348
 3176DPPE   PO459966  19.742   1.045   4.564 -0.1145  0.0462 -0.2168
 3176DPPE   GL159967  19.317   1.217   4.653 -0.0908 -0.2399 -0.4152
 3176DPPE   GL259968  19.236   1.389   4.998  0.2525 -0.3471  0.0070
 3176DPPE   C1A59969  18.938   1.258   4.403  0.2115 -0.2192 -0.0249
 3176DPPE   C2A59970  18.666   0.801   4.384 -0.0385 -0.1064  0.1903
 3176DPPE   C3A59971  18.400   0.559   4.522  0.1553  0.2242 -0.3451
 3176DPPE   C4A59972  18.088   0.597   4.797 -0.2530 -0.0325  0.0916
 3176DPPE   C1B59973  19.167   1.526   5.474 -0.2698  0.0151 -0.3707
 3176DPPE   C2B59974  19.258   1.546   6.027  0.0926 -0.2223 -0.1389
 3176DPPE   C3B59975  18.912   1.791   6.093 -0.1380 -0.2683 -0.0097
 3176DPPE   C4B59976  18.679   2.058   5.970 -0.1919 -0.2796 -0.2810
 3177DPPE   NH359977  25.535   4.423  11.169 -0.0797 -0.0280 -0.0621
 3177DPPE   PO459978  25.527   4.143  10.875  0.0818 -0.3224  0.1614
 3177DPPE   GL159979  25.164   4.535  10.864  0.0997 -0.2114  0.1891
 3177DPPE   GL259980  24.990   4.397  11.052  0.2317  0.2700  0.2772
 3177DPPE   C1A59981  24.894   4.720  10.615  0.1541  0.0872 -0.4891
 3177DPPE   C2A59982  24.295   4.709  10.716 -0.0484  0.2010 -0.1994
 3177DPPE   C3A59983  23.937   4.761  10.794 -0.0303 -0.1875  0.0751
 3177DPPE   C4A59984  23.609   4.460  10.807 -0.1695  0.1521  0.0697
 3177DPPE   C1B59985  24.847   4.794  11.114 -0.0583 -0.0774 -0.0063
 3177DPPE   C2B59986  24.566   5.123  11.214  0.1423  0.2278 -0.1911
 3177DPPE   C3B59987  24.348   5.156  11.523 -0.1493  0.0530  0.0866
 3177DPPE   C4B59988  24.250   4.952  11.942 -0.0845 -0.0778  0.0173
 3178DPPE   NH359989   8.340  14.788   6.850  0.2114 -0.4639 -0.1115
 3178DPPE   PO459990   8.203  14.933   7.299 -0.1516  0.0681  0.1099
 3178DPPE   GL159991   8.416  14.528   7.365 -0.1006 -0.1252 -0.0336
 3178DPPE   GL259992   8.230  14.408   7.603  0.1036 -0.0501  0.2298
 3178DPPE   C1A59993   8.704  14.179   7.257  0.1558  0.0708  0.0297
 3178DPPE   C2A59994   8.739  13.717   7.156 -0.2272 -0.0718  0.0357
 3178DPPE   C3A59995   8.615  13.358   6.924  0.2495  0.0039  0.3372
 3178DPPE   C4A59996   8.608  12.943   6.634 -0.2740  0.5036  0.0427
 3178DPPE   C1B59997   8.397  14.221   7.924 -0.0487 -0.1427  0.2300
 3178DPPE   C2B59998   8.234  13.906   8.300 -0.1051 -0.4755 -0.2223
 3178DPPE   C3B59999   8.012  13.886   8.731 -0.0703  0.0806 -0.2136
 3178DPPE   C4B60000   7.633  14.197   8.879 -0.1201 -0.4352 -0.1059
 3179DPPE   NH360001  15.504  15.782  26.782  0.2760  0.1231 -0.0184
 3179DPPE   PO460002  15.663  15.555  27.051 -0.1283 -0.1756  0.2923
 3179DPPE   GL160003  15.586  15.288  26.645 -0.0620 -0.1086  0.0030
 3179DPPE   GL260004  15.375  14.906  26.576  0.2456 -0.1069  0.0075
 3179DPPE   C1A60005  15.583  15.384  26.214  0.1004 -0.3682 -0.4684
 3179DPPE   C2A60006  15.597  15.385  25.831 -0.0840 -0.1177  0.3550
 3179DPPE   C3A60007  15.948  15.326  25.553  0.1734 -0.1006 -0.1082
 3179DPPE   C4A60008  16.330  15.345  25.222  0.1570 -0.1460 -0.0675
 3179DPPE   C1B60009  15.374  14.885  26.188  0.0854 -0.1117  0.1065
 3179DPPE   C2B60010  15.172  14.653  25.788 -0.0486  0.0168  0.1013
 3179DPPE   C3B60011  15.113  14.285  25.622  0.0164 -0.1105 -0.2917
 3179DPPE   C4B60012  15.148  13.887  25.687 -0.0436  0.1318  0.4503
 3180DPPE   NH360013   6.939   7.571   3.266 -0.0787  0.0825 -0.1966
 3180DPPE   PO460014   7.128   7.997   3.315 -0.1769  0.0492  0.2757
 3180DPPE   GL160015   7.229   8.125   3.777  0.0652  0.0815 -0.1711
 3180DPPE   GL260016   7.182   8.404   3.968 -0.1612  0.0056 -0.0689
 3180DPPE   C1A60017   7.584   7.914   4.017  0.3014  0.0118 -0.1418
 3180DPPE   C2A60018   7.893   7.599   3.933 -0.2850 -0.0304  0.0477
 3180DPPE   C3A60019   8.275   7.334   3.874  0.2192  0.0267 -0.1480
 3180DPPE   C4A60020   8.430   7.037   4.303  0.1664 -0.3693 -0.0384
 3180DPPE   C1B60021   7.235   8.521   4.412  0.1501  0.1791 -0.1110
 3180DPPE   C2B60022   7.041   8.450   4.748 -0.2371  0.1561  0.1367
 3180DPPE   C3B60023   6.661   8.542   4.970 -0.1062  0.1673  0.3467
 3180DPPE   C4B60024   6.585   8.768   5.331  0.0653  0.0358  0.0826
 3181DPPE   NH360025  11.243   3.891  25.339 -0.2367 -0.1087  0.1837
 3181DPPE   PO460026  11.197   3.726  24.892  0.1222 -0.1399 -0.0306
 3181DPPE   GL160027  11.208   3.644  24.407  0.0130  0.0810  0.2214
 3181DPPE   GL260028  10.959   3.598  24.241 -0.0577  0.2286  0.2632
 3181DPPE   C1A60029  11.405   3.396  24.147 -0.1820  0.2665  0.2323
 3181DPPE   C2A60030  11.594   3.135  23.744  0.0874  0.1290 -0.1774
 3181DPPE   C3A60031  11.468   2.820  23.490  0.1772 -0.0053  0.1433
 3181DPPE   C4A60032  11.131   2.685  23.334 -0.3691  0.4930 -0.0041
 3181DPPE   C1B60033  11.162   3.892  24.001  0.3012  0.1202  0.2703
 3181DPPE   C2B60034  11.355   4.215  23.749  0.0792 -0.0962  0.0363
 3181DPPE   C3B60035  11.527   4.529  23.514 -0.0474 -0.2664  0.5125
 3181DPPE   C4B60036  11.594   4.691  23.089  0.1426 -0.1452 -0.3241
 3182DPPE   NH360037  12.011  21.606  12.789  0.0761  0.0996 -0.0835
 3182DPPE   PO460038  11.678  21.225  12.698 -0.1153 -0.0066 -0.0030
 3182DPPE   GL160039  11.974  20.931  12.659  0.1469 -0.0125 -0.0744
 3182DPPE   GL260040  12.187  21.123  12.935  0.0040 -0.1672 -0.3776
 3182DPPE   C1A60041  12.370  20.991  12.498 -0.1266 -0.1166  0.2739
 3182DPPE   C2A60042  12.768  20.710  12.651 -0.0642 -0.1607 -0.1110
 3182DPPE   C3A60043  13.052  20.580  12.737  0.0700 -0.0396 -0.4328
 3182DPPE   C4A60044  13.418  20.607  13.162 -0.0575 -0.0097  0.3661
 3182DPPE   C1B60045  12.405  20.578  13.042  0.0172 -0.2201  0.2509
 3182DPPE   C2B60046  12.776  20.429  13.174 -0.2241  0.2432 -0.0554
 3182DPPE   C3B60047  13.128  20.203  13.157  0.1646 -0.1622 -0.0493
 3182DPPE   C4B60048  13.624  20.199  12.998  0.2791 -0.1195  0.2075
 3183DPPE   NH360049  11.393  12.415  10.142  0.1352 -0.2454  0.1706
 3183DPPE   PO460050  11.541  12.061  10.488  0.0973  0.1031 -0.1768
 3183DPPE   GL160051  11.471  11.894  10.062 -0.2706  0.3232  0.2143
 3183DPPE   GL260052  11.441  11.593   9.915  0.1253 -0.3289  0.2161
 3183DPPE   C1A60053  11.214  11.973   9.656  0.2203 -0.0235  0.1107
 3183DPPE   C2A60054  10.828  11.917   9.311  0.0296 -0.2810  0.0063
 3183DPPE   C3A60055  10.439  12.049   9.003  0.0750  0.1938 -0.0163
 3183DPPE   C4A60056  10.173  12.101   8.711  0.2097  0.1142 -0.1431
 3183DPPE   C1B60057  11.743  11.457   9.568 -0.2285 -0.2148  0.0435
 3183DPPE   C2B60058  11.773  11.483   9.127  0.0109  0.3902 -0.3178
 3183DPPE   C3B60059  12.042  11.741   8.958 -0.2444 -0.0696  0.0243
 3183DPPE   C4B60060  11.938  11.582   8.561  0.1094 -0.0452 -0.3012
 3184DPPE   NH360061   2.238   4.925   9.637 -0.0642  0.6409 -0.0695
 3184DPPE   PO460062   2.468   4.474   9.661 -0.0531  0.1729  0.1580
 3184DPPE   GL160063   2.797   4.506   9.890  0.1950 -0.1874  0.0634
 3184DPPE   GL260064   2.624   4.899   9.913 -0.0436 -0.1703 -0.1704
 3184DPPE   C1A60065   3.124   4.564  10.259  0.1180 -0.1279  0.1570
 3184DPPE   C2A60066   3.205   4.474  10.721  0.0738  0.1374 -0.0459
 3184DPPE   C3A60067   3.372   4.229  11.161 -0.1803 -0.0036  0.0466
 3184DPPE   C4A60068   3.689   3.928  11.401 -0.2707 -0.0559 -0.2151
 3184DPPE   C1B60069   2.971   5.159   9.832  0.0807 -0.1100  0.0391
 3184DPPE   C2B60070   3.250   5.453   9.979 -0.0285  0.0736  0.0699
 3184DPPE   C3B60071   3.444   5.748  10.073 -0.1287  0.2389  0.1777
 3184DPPE   C4B60072   3.843   5.980  10.016 -0.0216 -0.2588 -0.3319
 3185DPPE   NH360073   9.580  19.431  21.160 -0.0804 -0.0339  0.1075
 3185DPPE   PO460074   9.619  19.186  20.814 -0.0572  0.2102 -0.1283
 3185DPPE   GL160075   9.625  18.854  20.755 -0.0469 -0.1300 -0.0943
 3185DPPE   GL260076   9.461  18.867  20.433  0.1448  0.1700  0.1135
 3185DPPE   C1A60077   9.877  18.644  20.415 -0.1720 -0.1898  0.1693
 3185DPPE   C2A60078  10.070  18.386  20.146 -0.5448 -0.0650  0.1352
 3185DPPE   C3A60079  10.272  18.152  19.874 -0.3353 -0.0617  0.2593
 3185DPPE   C4A60080  10.581  17.891  19.624 -0.0118 -0.0706 -0.1004
 3185DPPE   C1B60081   9.574  18.760  20.077  0.0738  0.0476  0.2261
 3185DPPE   C2B60082   9.665  18.472  19.758  0.1274 -0.1437  0.3849
 3185DPPE   C3B60083   9.818  18.099  19.635  0.1312  0.1470 -0.2281
 3185DPPE   C4B60084  10.155  17.930  19.435  0.3036  0.0058  0.0248
 3186DPPE   NH360085  25.461   8.295  24.151 -0.0718 -0.2173  0.2048
 3186DPPE   PO460086  25.020   8.248  24.111 -0.2367 -0.1876  0.1209
 3186DPPE   GL160087  24.663   8.345  23.759 -0.1350  0.1611  0.0570
 3186DPPE   GL260088  24.449   8.062  23.646  0.0627 -0.1157 -0.1717
 3186DPPE   C1A60089  24.680   8.656  23.564 -0.0289  0.0333 -0.1230
 3186DPPE   C2A60090  24.824   8.980  23.260 -0.1292  0.0069  0.0441
 3186DPPE   C3A60091  24.970   9.269  22.904 -0.2038 -0.1170 -0.1073
 3186DPPE   C4A60092  25.212   9.323  22.622  0.1469  0.2827  0.5062
 3186DPPE   C1B60093  24.147   8.242  23.382 -0.1760  0.2399  0.2630
 3186DPPE   C2B60094  23.959   8.448  23.054 -0.1256 -0.1018 -0.4092
 3186DPPE   C3B60095  23.639   8.491  22.917  0.1435 -0.1993 -0.0414
 3186DPPE   C4B60096  23.334   8.556  22.569 -0.0893  0.1504  0.2790
 3187DPPE   NH360097  23.717  10.444  25.462  0.0372  0.0374 -0.2623
 3187DPPE   PO460098  23.676  10.076  25.561 -0.0056  0.1477  0.0408
 3187DPPE   GL160099  23.372   9.926  25.289  0.0184 -0.3242  0.2969
 3187DPPE   GL260100  23.295  10.189  25.196 -0.1759 -0.1186  0.1135
 3187DPPE   C1A60101  22.895   9.909  25.206  0.2843 -0.2412 -0.1907
 3187DPPE   C2A60102  22.573   9.886  25.005 -0.3899  0.0408 -0.0831
 3187DPPE   C3A60103  22.209   9.844  24.912 -0.0595  0.0050  0.2483
 3187DPPE   C4A60104  21.844   9.505  24.942  0.0243  0.1931 -0.0252
 3187DPPE   C1B60105  23.068  10.087  24.821  0.0439 -0.0955  0.3603
 3187DPPE   C2B60106  22.638   9.977  24.493  0.1829  0.1294  0.0516
 3187DPPE   C3B60107  22.129   9.806  24.353  0.0729  0.2744  0.1430
 3187DPPE   C4B60108  22.024   9.570  23.990  0.0930 -0.4436 -0.1251
 3188DPPE   NH360109  13.461   9.217  10.295 -0.0511  0.1587 -0.3192
 3188DPPE   PO460110  13.049   9.115  10.415 -0.5095 -0.1017  0.0744
 3188DPPE   GL160111  12.703   9.075  10.170 -0.0461  0.1845 -0.0508
 3188DPPE   GL260112  12.661   8.767  10.136  0.1684  0.0406  0.0029
 3188DPPE   C1A60113  12.524   9.196   9.790 -0.0672  0.1376 -0.2714
 3188DPPE   C2A60114  12.157   9.360   9.614  0.0874  0.0626  0.2352
 3188DPPE   C3A60115  11.798   9.261   9.315  0.0477 -0.1623 -0.0158
 3188DPPE   C4A60116  11.382   9.316   9.008 -0.1480 -0.1386  0.1104
 3188DPPE   C1B60117  12.545   8.579   9.767 -0.1265 -0.0483  0.0481
 3188DPPE   C2B60118  12.306   8.357   9.563 -0.2192  0.3937  0.1105
 3188DPPE   C3B60119  12.166   8.145   9.300  0.0330 -0.0483 -0.3524
 3188DPPE   C4B60120  12.105   8.052   8.873  0.2092 -0.2555  0.2386
 3189DPPE   NH360121   8.316   0.122  19.105 -0.0160  0.1521  0.1164
 3189DPPE   PO460122   8.673   0.224  19.028  0.0621 -0.2706  0.2175
 3189DPPE   GL160123   8.647   0.536  18.816 -0.2137  0.1942  0.2094
 3189DPPE   GL260124   8.366   0.513  18.684  0.0191 -0.0228 -0.2285
 3189DPPE   C1A60125   8.742   0.709  18.458  0.0131 -0.0250  0.0482
 3189DPPE   C2A60126   9.085   0.872  18.256  0.0076  0.2356  0.0872
 3189DPPE   C3A60127   9.481   0.965  18.148 -0.0472  0.0421 -0.3101
 3189DPPE   C4A60128   9.535   1.105  17.787  0.0656 -0.1157  0.1530
 3189DPPE   C1B60129   8.388   0.966  18.804  0.1692 -0.2917  0.0902
 3189DPPE   C2B60130   8.181   1.442  18.685 -0.2228  0.1305 -0.0480
 3189DPPE   C3B60131   8.068   1.609  18.352  0.1056  0.1685  0.0069
 3189DPPE   C4B60132   7.825   1.537  18.011  0.0371  0.2896 -0.0752
 3190DPPE   NH360133  13.766  10.099   1.395  0.2021  0.0437 -0.0653
 3190DPPE   PO460134  14.245   9.947   1.422 -0.1137 -0.0929  0.1882
 3190DPPE   GL160135  14.105   9.577   1.708 -0.0347 -0.2721 -0.0708
 3190DPPE   GL260136  13.836   9.726   1.763 -0.3091  0.0500  0.0706
 3190DPPE   C1A60137  14.394   9.214   1.776  0.0834 -0.1730 -0.4709
 3190DPPE   C2A60138  14.421   9.095   2.187 -0.0061 -0.0632  0.1598
 3190DPPE   C3A60139  14.337   8.926   2.630 -0.3049 -0.1361  0.2691
 3190DPPE   C4A60140  14.198   8.528   2.846 -0.1631 -0.0684 -0.2177
 3190DPPE   C1B60141  13.868   9.415   2.150 -0.2058  0.0549  0.0573
 3190DPPE   C2B60142  13.675   9.055   2.321  0.3216  0.0702  0.2740
 3190DPPE   C3B60143  13.799   8.983   2.725 -0.0595  0.0978  0.0155
 3190DPPE   C4B60144  13.812   8.698   3.107 -0.3098 -0.0068 -0.2685
 3191DPPE   NH360145  10.500  12.493  10.481  0.0884  0.2429  0.2292
 3191DPPE   PO460146  10.939  12.397  10.347 -0.2039 -0.1649  0.1033
 3191DPPE   GL160147  10.882  12.328   9.920 -0.3734  0.1351 -0.0847
 3191DPPE   GL260148  10.721  12.107   9.769  0.3076 -0.0174  0.1530
 3191DPPE   C1A60149  10.632  12.584   9.738  0.2029 -0.0940  0.1271
 3191DPPE   C2A60150  10.351  12.922   9.638  0.0707  0.1569 -0.0489
 3191DPPE   C3A60151  10.087  13.179   9.349  0.2637 -0.1276 -0.1784
 3191DPPE   C4A60152   9.975  13.547   9.000 -0.0497 -0.3030 -0.0657
 3191DPPE   C1B60153  10.429  12.200   9.459 -0.1254  0.0122  0.0296
 3191DPPE   C2B60154  10.026  12.124   9.299  0.0447  0.0539  0.0808
 3191DPPE   C3B60155   9.622  12.177   9.416 -0.1770 -0.2472 -0.1983
 3191DPPE   C4B60156   9.288  11.980   9.115 -0.2140  0.1911  0.1188
 3192DPPE   NH360157  15.282  34.498  18.510 -0.1794 -0.0836  0.1676
 3192DPPE   PO460158  15.226  34.281  18.092 -0.1633  0.3215  0.1544
 3192DPPE   GL160159  15.094  34.647  17.967  0.0935 -0.0154 -0.1331
 3192DPPE   GL260160  14.970  34.871  18.225 -0.0494  0.0394 -0.1058
 3192DPPE   C1A60161  14.701  34.953  17.830  0.2350 -0.0535 -0.0542
 3192DPPE   C2A60162  14.466  35.260  17.733  0.3044  0.4142  0.0177
 3192DPPE   C3A60163  14.459  35.718  17.553  0.1223 -0.0731 -0.1978
 3192DPPE   C4A60164  14.713  36.013  17.500 -0.1136  0.0413 -0.1419
 3192DPPE   C1B60165  15.011  35.288  18.148 -0.0995  0.1120 -0.1814
 3192DPPE   C2B60166  14.829  35.567  17.881 -0.0417 -0.2282 -0.0723
 3192DPPE   C3B60167  14.568  35.934  18.049  0.1503 -0.0955 -0.1154
 3192DPPE   C4B60168  14.490  36.326  17.882 -0.3924  0.0507  0.0338
 3193DPPE   NH360169  21.982   4.724   6.329 -0.0451 -0.4302  0.1508
 3193DPPE   PO460170  22.082   5.079   6.651 -0.3763 -0.0587 -0.2035
 3193DPPE   GL160171  21.808   5.339   6.766  0.2184  0.1883 -0.0884
 3193DPPE   GL260172  21.805   5.741   6.797  0.0163  0.0513  0.1945
 3193DPPE   C1A60173  21.507   5.282   6.989  0.1072 -0.1355 -0.3885
 3193DPPE   C2A60174  21.210   5.255   7.188  0.1739 -0.0805  0.3934
 3193DPPE   C3A60175  20.858   5.295   7.362  0.3594  0.3291  0.0368
 3193DPPE   C4A60176  20.571   5.418   7.609  0.1863  0.2449 -0.1403
 3193DPPE   C1B60177  21.546   5.836   7.197 -0.0347  0.0753  0.2020
 3193DPPE   C2B60178  21.296   5.934   7.562 -0.0422 -0.0014  0.1741
 3193DPPE   C3B60179  21.410   6.015   7.951  0.1887  0.2558  0.0555
 3193DPPE   C4B60180  21.756   6.049   8.328  0.1871 -0.0598  0.0297
 3194DPPE   NH360181  19.799  12.777  27.416 -0.1090 -0.4120 -0.0492
 3194DPPE   PO460182  20.097  12.978  27.362 -0.1030  0.0316  0.2101
 3194DPPE   GL160183  20.324  13.132  26.968  0.1146  0.7986  0.1765
 3194DPPE   GL260184  20.523  12.967  26.718 -0.1223  0.1237 -0.0648
 3194DPPE   C1A60185  20.139  13.063  26.462  0.1059 -0.5944  0.0903
 3194DPPE   C2A60186  20.209  13.218  26.079 -0.1616  0.1082  0.3705
 3194DPPE   C3A60187  20.149  12.916  25.824  0.0683 -0.1948 -0.1117
 3194DPPE   C4A60188  19.781  12.793  25.694  0.4229 -0.4586 -0.2513
 3194DPPE   C1B60189  20.579  12.893  26.237  0.0749 -0.1367  0.1722
 3194DPPE   C2B60190  20.661  12.790  25.749  0.1483 -0.0452 -0.2602
 3194DPPE   C3B60191  20.418  12.604  25.569  0.2859 -0.0540 -0.0304
 3194DPPE   C4B60192  20.378  12.334  25.233  0.3340 -0.0079 -0.0730
 3195DPPE   NH360193   6.468   3.395   5.360  0.2109  0.0764  0.1457
 3195DPPE   PO460194   6.666   3.025   5.485  0.1988 -0.2970 -0.3584
 3195DPPE   GL160195   7.009   2.928   5.855  0.1596  0.0720  0.1566
 3195DPPE   GL260196   7.248   2.835   5.696 -0.1051  0.2577 -0.1058
 3195DPPE   C1A60197   7.283   2.961   6.276 -0.2261 -0.2282  0.2729
 3195DPPE   C2A60198   7.734   2.888   6.408 -0.0521  0.0711  0.0305
 3195DPPE   C3A60199   8.112   2.741   6.687 -0.0184  0.0871 -0.0857
 3195DPPE   C4A60200   8.377   2.638   6.986 -0.1880  0.2568  0.0556
 3195DPPE   C1B60201   7.644   3.084   5.989 -0.0758  0.1419 -0.0397
 3195DPPE   C2B60202   8.006   3.256   6.150  0.2473 -0.4723 -0.3241
 3195DPPE   C3B60203   8.028   3.488   6.500 -0.0415  0.2884 -0.2866
 3195DPPE   C4B60204   8.073   3.827   6.736  0.1451 -0.1712 -0.2325
 3196DPPE   NH360205  19.082  35.439   6.194 -0.0584  0.1208 -0.1464
 3196DPPE   PO460206  18.913  35.476   5.784  0.2037  0.1816 -0.1561
 3196DPPE   GL160207  18.609  35.629   5.979 -0.2645  0.3280 -0.2575
 3196DPPE   GL260208  18.610  35.559   6.316  0.0225  0.2532 -0.3359
 3196DPPE   C1A60209  18.135  35.765   6.111 -0.0757  0.0307  0.1356
 3196DPPE   C2A60210  17.750  35.847   6.483 -0.2805  0.0374  0.0087
 3196DPPE   C3A60211  17.321  35.874   6.728  0.1687  0.0813  0.0665
 3196DPPE   C4A60212  16.943  35.861   6.572 -0.0147 -0.3007  0.0168
 3196DPPE   C1B60213  18.457  35.476   6.695 -0.1668 -0.2010 -0.3548
 3196DPPE   C2B60214  18.501  35.597   7.143  0.0538 -0.3193 -0.3142
 3196DPPE   C3B60215  18.566  35.624   7.595  0.2454 -0.2315  0.3553
 3196DPPE   C4B60216  18.475  35.488   8.015 -0.0816  0.0470  0.1038
 3197DPPE   NH360217   5.773  14.910  13.281  0.2246  0.3622 -0.1053
 3197DPPE   PO460218   5.602  14.628  13.095  0.2216  0.0227 -0.5819
 3197DPPE   GL160219   5.895  14.360  13.267  0.1515 -0.1289 -0.0080
 3197DPPE   GL260220   5.834  13.918  13.334  0.0591  0.1779  0.1116
 3197DPPE   C1A60221   6.151  14.042  13.010 -0.0396  0.1815 -0.0446
 3197DPPE   C2A60222   6.317  13.700  13.258  0.1048  0.1406 -0.2146
 3197DPPE   C3A60223   6.617  13.361  13.427  0.1353 -0.0726 -0.0678
 3197DPPE   C4A60224   6.716  12.941  13.434 -0.0395  0.3211  0.3417
 3197DPPE   C1B60225   6.004  13.678  13.681  0.0131  0.0229  0.0450
 3197DPPE   C2B60226   6.268  13.493  13.817 -0.0113  0.3418 -0.0341
 3197DPPE   C3B60227   6.532  13.168  13.963  0.0925 -0.3193  0.2377
 3197DPPE   C4B60228   6.731  12.812  13.943 -0.0669 -0.0295 -0.1348
 3198DPPE   NH360229  22.472   6.706  25.569 -0.2728  0.1715  0.1249
 3198DPPE   PO460230  22.138   6.812  25.907 -0.0135  0.2679 -0.1748
 3198DPPE   GL160231  21.951   6.837  25.548  0.0757  0.2554  0.2367
 3198DPPE   GL260232  21.578   6.869  25.531 -0.2904 -0.2367  0.0600
 3198DPPE   C1A60233  21.966   6.951  25.209 -0.0236  0.1076 -0.1487
 3198DPPE   C2A60234  22.226   7.115  24.829 -0.6648 -0.1484  0.0329
 3198DPPE   C3A60235  22.578   7.196  24.531 -0.0251  0.1863  0.0147
 3198DPPE   C4A60236  22.821   7.209  24.206 -0.0279  0.0178  0.0005
 3198DPPE   C1B60237  21.409   7.106  25.239  0.1232 -0.2016 -0.0826
 3198DPPE   C2B60238  21.296   7.088  24.857  0.4011 -0.0165  0.1985
 3198DPPE   C3B60239  20.869   6.960  24.559 -0.1423  0.4466  0.3424
 3198DPPE   C4B60240  20.567   6.833  24.353 -0.0693  0.0200  0.1535
 3199DPPE   NH360241   2.625   3.475  10.727 -0.0984 -0.0591 -0.0729
 3199DPPE   PO460242   2.650   3.070  10.815 -0.0832 -0.1129 -0.1727
 3199DPPE   GL160243   2.898   3.175  11.051 -0.2336 -0.1231  0.0004
 3199DPPE   GL260244   2.873   3.107  11.337  0.1952  0.0041  0.1863
 3199DPPE   C1A60245   3.182   3.438  11.199 -0.2739  0.0268 -0.0617
 3199DPPE   C2A60246   3.175   3.844  11.407 -0.0517 -0.2393  0.0769
 3199DPPE   C3A60247   2.912   3.928  11.725 -0.0946 -0.0123 -0.3216
 3199DPPE   C4A60248   2.621   4.233  11.676  0.0226 -0.0063  0.0611
 3199DPPE   C1B60249   3.313   2.954  11.505  0.1662  0.0477  0.2170
 3199DPPE   C2B60250   3.525   3.199  11.801  0.1873  0.3120  0.0112
 3199DPPE   C3B60251   3.886   3.161  12.016  0.0407 -0.0562  0.0815
 3199DPPE   C4B60252   4.208   3.385  11.762  0.0379 -0.1483 -0.3577
 3200DPPE   NH360253  10.168   7.088  15.747  0.1233  0.1056  0.1693
 3200DPPE   PO460254  10.215   6.761  16.098  0.0015 -0.2171 -0.0193
 3200DPPE   GL160255   9.838   6.557  15.854  0.1415  0.0131  0.1265
 3200DPPE   GL260256   9.871   6.655  15.521  0.0060 -0.0320 -0.1277
 3200DPPE   C1A60257   9.403   6.483  15.970  0.2960 -0.0995 -0.2646
 3200DPPE   C2A60258   8.931   6.520  15.966  0.2019 -0.0052  0.2129
 3200DPPE   C3A60259   8.615   6.486  15.745 -0.0198  0.0985 -0.0917
 3200DPPE   C4A60260   8.227   6.578  15.565 -0.0224  0.1416  0.0241
 3200DPPE   C1B60261   9.638   6.970  15.287 -0.1864  0.4932 -0.0212
 3200DPPE   C2B60262   9.230   7.031  15.018  0.2217 -0.1294 -0.2244
 3200DPPE   C3B60263   8.744   7.165  15.050  0.1404 -0.1017  0.0054
 3200DPPE   C4B60264   8.519   7.515  14.990 -0.1130  0.2830  0.2222
 3201DPPE   NH360265   1.229   8.640  10.756 -0.0953  0.2753 -0.1855
 3201DPPE   PO460266   1.294   9.023  11.021 -0.0798  0.0492  0.0959
 3201DPPE   GL160267   1.524   8.982  11.334 -0.1282 -0.0381 -0.1015
 3201DPPE   GL260268   1.542   9.318  11.504  0.0471 -0.0052  0.2192
 3201DPPE   C1A60269   1.705   8.644  11.579  0.2039 -0.2471  0.2896
 3201DPPE   C2A60270   1.681   8.233  11.756  0.1765 -0.2452 -0.2335
 3201DPPE   C3A60271   1.711   7.780  11.487  0.0596 -0.0138 -0.0405
 3201DPPE   C4A60272   2.107   7.518  11.633 -0.2965  0.0456  0.1028
 3201DPPE   C1B60273   1.922   9.105  11.752  0.0475  0.2456  0.0550
 3201DPPE   C2B60274   2.319   9.284  11.912  0.1161 -0.2152  0.2083
 3201DPPE   C3B60275   2.717   9.546  12.033  0.1475 -0.2787 -0.0664
 3201DPPE   C4B60276   3.110   9.501  12.126 -0.2218 -0.0233  0.2559
 3202DPPE   NH360277   5.330  14.345  13.372 -0.2988  0.2210 -0.1319
 3202DPPE   PO460278   5.517  14.618  13.718  0.1692  0.0704  0.0343
 3202DPPE   GL160279   6.022  14.504  13.737  0.0995  0.0139  0.1181
 3202DPPE   GL260280   6.037  14.158  13.722  0.1028 -0.0723 -0.2135
 3202DPPE   C1A60281   6.363  14.485  13.466 -0.0475 -0.1049 -0.0467
 3202DPPE   C2A60282   6.841  14.290  13.466  0.1459  0.1744  0.2595
 3202DPPE   C3A60283   6.851  13.921  13.256  0.0207 -0.3274  0.0700
 3202DPPE   C4A60284   6.951  13.631  12.916 -0.2082  0.1920 -0.4251
 3202DPPE   C1B60285   6.385  14.050  13.598  0.0126 -0.2017 -0.0777
 3202DPPE   C2B60286   6.731  13.787  13.724  0.2812  0.3094  0.1776
 3202DPPE   C3B60287   6.916  13.487  13.922  0.1383 -0.1643 -0.1493
 3202DPPE   C4B60288   7.215  13.103  13.689 -0.1057  0.1475  0.2437
 3203DPPE   NH360289  11.526   2.487   2.565  0.1812  0.2722  0.1900
 3203DPPE   PO460290  11.466   2.936   2.421  0.2675  0.0131  0.0319
 3203DPPE   GL160291  11.636   2.942   2.851 -0.1972 -0.1589 -0.0090
 3203DPPE   GL260292  11.956   2.779   2.827 -0.0431  0.1657 -0.1879
 3203DPPE   C1A60293  11.647   2.982   3.295  0.0393 -0.6100 -0.2575
 3203DPPE   C2A60294  11.852   3.283   3.543 -0.1303  0.2875  0.1764
 3203DPPE   C3A60295  11.773   3.445   3.875 -0.0171  0.1482 -0.0479
 3203DPPE   C4A60296  11.491   3.561   4.121 -0.3042 -0.1688  0.0881
 3203DPPE   C1B60297  12.117   3.066   3.076  0.0471  0.1535  0.3055
 3203DPPE   C2B60298  12.068   3.477   3.148 -0.1220 -0.1136  0.1247
 3203DPPE   C3B60299  11.988   3.709   3.408  0.0801  0.1845  0.3520
 3203DPPE   C4B60300  11.950   4.181   3.434 -0.1295 -0.1755 -0.0532
 3204DPPE   NH360301   4.580  11.339  19.551  0.4478  0.0438 -0.1006
 3204DPPE   PO460302   4.604  10.946  19.772  0.3566  0.0130 -0.1634
 3204DPPE   GL160303   5.019  11.058  19.658 -0.5556 -0.1299 -0.0859
 3204DPPE   GL260304   5.286  11.121  19.905  0.0069  0.2218  0.0695
 3204DPPE   C1A60305   5.347  10.913  19.377 -0.0334 -0.2749 -0.1051
 3204DPPE   C2A60306   5.506  10.854  18.911 -0.1549 -0.2220  0.0815
 3204DPPE   C3A60307   5.876  10.942  18.751 -0.0482  0.1709  0.2286
 3204DPPE   C4A60308   6.225  10.765  18.921 -0.0098  0.1649  0.0405
 3204DPPE   C1B60309   5.616  10.992  19.926 -0.0885 -0.0021  0.2247
 3204DPPE   C2B60310   6.064  10.910  19.828 -0.1084  0.1912  0.3154
 3204DPPE   C3B60311   6.349  10.617  19.504  0.1078 -0.1024 -0.0028
 3204DPPE   C4B60312   6.798  10.497  19.419  0.0319 -0.3358  0.1730
 3205DPPE   NH360313  17.321   6.958  10.155  0.2547 -0.1485  0.2509
 3205DPPE   PO460314  16.986   6.803   9.914  0.0933  0.0038 -0.2945
 3205DPPE   GL160315  16.923   6.827   9.488  0.1590  0.1675 -0.1330
 3205DPPE   GL260316  16.652   6.598   9.416  0.0290 -0.1579 -0.2922
 3205DPPE   C1A60317  17.079   6.524   9.154  0.0308  0.0119  0.2273
 3205DPPE   C2A60318  16.919   6.322   8.756 -0.0483  0.0159  0.1839
 3205DPPE   C3A60319  16.803   5.982   8.631  0.1347 -0.1389 -0.4252
 3205DPPE   C4A60320  16.521   5.719   8.730  0.1247  0.2433  0.1513
 3205DPPE   C1B60321  16.553   6.644   8.899 -0.1414 -0.1799  0.3684
 3205DPPE   C2B60322  16.362   6.821   8.571 -0.2352 -0.2018  0.2844
 3205DPPE   C3B60323  16.112   7.058   8.226 -0.2607  0.1701 -0.0049
 3205DPPE   C4B60324  15.704   6.879   8.159  0.0337 -0.0608  0.2359
 3206DPPE   NH360325  16.783   1.268  14.404  0.1346 -0.3530 -0.1875
 3206DPPE   PO460326  16.324   1.301  14.489  0.0363  0.1764 -0.0269
 3206DPPE   GL160327  16.394   0.951  14.227 -0.0705  0.0714 -0.0775
 3206DPPE   GL260328  16.689   0.734  14.132  0.0919 -0.1102 -0.0166
 3206DPPE   C1A60329  16.221   0.630  14.201 -0.0751  0.0945  0.2395
 3206DPPE   C2A60330  16.122   0.248  14.224 -0.3617  0.0135  0.1392
 3206DPPE   C3A60331  15.782  -0.007  14.136 -0.3181  0.1350  0.0168
 3206DPPE   C4A60332  15.486  -0.267  13.934 -0.3865  0.0688 -0.0628
 3206DPPE   C1B60333  16.634   0.341  14.157 -0.1121  0.0027 -0.2146
 3206DPPE   C2B60334  16.633  -0.150  14.102 -0.0603  0.3378  0.0211
 3206DPPE   C3B60335  16.836  -0.578  14.109  0.1619 -0.2949  0.0184
 3206DPPE   C4B60336  17.166  -0.968  14.070  0.0681 -0.2076  0.1334
 3207DPPE   NH360337  15.492  22.302  13.429  0.2200  0.0705 -0.2205
 3207DPPE   PO460338  15.734  22.161  13.543  0.0177  0.3988  0.2839
 3207DPPE   GL160339  15.838  21.938  13.321 -0.0328 -0.1559 -0.0471
 3207DPPE   GL260340  16.146  21.905  13.345  0.0964  0.0140  0.1704
 3207DPPE   C1A60341  15.816  21.428  13.231  0.2913  0.0664  0.0301
 3207DPPE   C2A60342  15.952  20.991  13.252 -0.1361 -0.4212 -0.3258
 3207DPPE   C3A60343  15.906  20.564  13.202 -0.1369  0.0716 -0.1330
 3207DPPE   C4A60344  16.177  20.139  13.188 -0.0953 -0.2114  0.2605
 3207DPPE   C1B60345  16.316  21.439  13.221  0.0041 -0.1522 -0.2337
 3207DPPE   C2B60346  16.479  21.016  13.248 -0.1385 -0.1298 -0.3343
 3207DPPE   C3B60347  16.504  20.667  13.074 -0.0312  0.2354 -0.0033
 3207DPPE   C4B60348  16.631  20.354  13.276  0.0708 -0.0139 -0.2654
 3208DPPE   NH360349   6.456   2.324  19.430 -0.1276 -0.0633 -0.0843
 3208DPPE   PO460350   6.064   2.360  19.446  0.2044  0.0740  0.2848
 3208DPPE   GL160351   6.147   2.554  19.055  0.1279 -0.0186  0.0481
 3208DPPE   GL260352   6.483   2.542  18.991  0.2198  0.1399  0.0087
 3208DPPE   C1A60353   6.268   2.947  18.867  0.0813  0.0774 -0.0051
 3208DPPE   C2A60354   6.443   3.220  18.730  0.1629  0.2905  0.0015
 3208DPPE   C3A60355   6.753   3.502  18.538  0.1651 -0.0349 -0.3686
 3208DPPE   C4A60356   6.815   3.857  18.833  0.1097  0.3130  0.4599
 3208DPPE   C1B60357   6.510   2.699  18.555  0.0894 -0.1048  0.2530
 3208DPPE   C2B60358   6.505   2.600  18.048  0.0302 -0.0688  0.1460
 3208DPPE   C3B60359   6.612   2.262  17.894 -0.2324 -0.1002  0.2763
 3208DPPE   C4B60360   6.747   1.872  17.599  0.2836 -0.1806 -0.2274
 3209DPPE   NH360361  19.121   8.705  23.132 -0.1978  0.0072 -0.3286
 3209DPPE   PO460362  18.782   9.032  23.169 -0.1360  0.4395  0.3319
 3209DPPE   GL160363  18.679   8.738  23.418 -0.2650 -0.1526  0.2595
 3209DPPE   GL260364  18.617   8.888  23.704 -0.0133  0.0865  0.1392
 3209DPPE   C1A60365  18.869   8.424  23.703  0.0361  0.1151 -0.1229
 3209DPPE   C2A60366  19.135   8.292  24.011  0.2273 -0.0404  0.3063
 3209DPPE   C3A60367  19.479   8.232  24.327 -0.0527 -0.1761  0.1845
 3209DPPE   C4A60368  19.771   7.939  24.504 -0.0956  0.2437  0.0796
 3209DPPE   C1B60369  18.884   9.015  23.973 -0.0494 -0.0403  0.3528
 3209DPPE   C2B60370  19.098   8.812  24.316  0.0311  0.1278  0.0832
 3209DPPE   C3B60371  19.431   8.654  24.583  0.0363  0.0066 -0.1736
 3209DPPE   C4B60372  19.763   8.499  24.916 -0.0281  0.3718  0.2975
 3210DPPE   NH360373  17.436  33.719  16.909  0.1500 -0.0294 -0.1270
 3210DPPE   PO460374  17.266  33.923  17.299 -0.0388 -0.2838 -0.4093
 3210DPPE   GL160375  17.397  34.259  17.072 -0.1312 -0.2062  0.3082
 3210DPPE   GL260376  17.202  34.199  16.787  0.0600  0.0658 -0.1920
 3210DPPE   C1A60377  17.503  34.611  16.796 -0.0671  0.0271  0.2773
 3210DPPE   C2A60378  17.408  34.924  16.621  0.0219  0.3733  0.0158
 3210DPPE   C3A60379  17.638  35.342  16.664  0.2735  0.1777 -0.0828
 3210DPPE   C4A60380  17.993  35.309  16.647  0.1230  0.2751 -0.3001
 3210DPPE   C1B60381  17.054  34.681  16.872  0.0580  0.1746 -0.0100
 3210DPPE   C2B60382  17.008  35.015  16.943 -0.0366 -0.0671 -0.2848
 3210DPPE   C3B60383  17.015  35.351  17.295 -0.0110 -0.0747 -0.0013
 3210DPPE   C4B60384  17.078  35.742  17.525 -0.0469 -0.0176 -0.1582
 3211DPPE   NH360385   3.179   6.508   7.811  0.0221 -0.2284  0.0847
 3211DPPE   PO460386   3.552   6.340   7.438  0.0118 -0.4709 -0.0501
 3211DPPE   GL160387   3.825   6.678   7.546  0.0133  0.1100 -0.3469
 3211DPPE   GL260388   4.011   6.393   7.695 -0.1648  0.0261 -0.0360
 3211DPPE   C1A60389   4.088   6.986   7.382  0.0046  0.0521 -0.0172
 3211DPPE   C2A60390   4.524   6.998   7.400 -0.0170  0.0482  0.3315
 3211DPPE   C3A60391   4.805   7.008   7.746  0.2713 -0.0823  0.4931
 3211DPPE   C4A60392   5.136   6.815   7.781 -0.1265 -0.0608  0.0772
 3211DPPE   C1B60393   3.803   6.610   8.025  0.1629  0.0779  0.0932
 3211DPPE   C2B60394   3.821   6.674   8.450  0.0737 -0.0552  0.0860
 3211DPPE   C3B60395   3.961   6.801   8.825 -0.0046 -0.0654  0.3594
 3211DPPE   C4B60396   4.459   6.667   8.957  0.2135  0.1084 -0.2676
 3212DPPE   NH360397  28.073  11.261  17.970  0.0161  0.1025  0.0757
 3212DPPE   PO460398  28.208  10.844  17.798 -0.2940 -0.3722 -0.0925
 3212DPPE   GL160399  27.777  10.850  17.723 -0.2130  0.0893 -0.0469
 3212DPPE   GL260400  27.886  10.473  17.628  0.0280 -0.0340 -0.0465
 3212DPPE   C1A60401  27.393  10.909  17.714  0.1987  0.0058  0.0132
 3212DPPE   C2A60402  27.175  10.598  17.532  0.1331  0.0653  0.1853
 3212DPPE   C3A60403  26.910  10.294  17.360 -0.0593 -0.0042  0.4238
 3212DPPE   C4A60404  26.563  10.068  17.421  0.2443 -0.0700 -0.0013
 3212DPPE   C1B60405  27.533  10.242  17.446  0.5065 -0.0742 -0.0492
 3212DPPE   C2B60406  27.286   9.996  17.142 -0.1708  0.2004  0.0374
 3212DPPE   C3B60407  27.243  10.151  16.771 -0.0825 -0.0572  0.2260
 3212DPPE   C4B60408  27.171   9.865  16.327  0.1955 -0.2414  0.1364
 3213DPPE   NH360409   9.159  19.149  19.686 -0.4663 -0.1648 -0.0545
 3213DPPE   PO460410   8.666  19.094  19.868 -0.1813 -0.0336 -0.0606
 3213DPPE   GL160411   8.785  18.785  19.758 -0.3979  0.0719 -0.1977
 3213DPPE   GL260412   9.017  18.609  19.943 -0.0869  0.1791 -0.2344
 3213DPPE   C1A60413   9.074  18.494  19.491 -0.6121  0.1319 -0.0376
 3213DPPE   C2A60414   9.401  18.216  19.417  0.1270  0.0131 -0.3128
 3213DPPE   C3A60415   9.602  17.866  19.190  0.3190  0.1263  0.1113
 3213DPPE   C4A60416   9.961  17.879  18.849 -0.0580  0.0797 -0.0430
 3213DPPE   C1B60417   9.095  18.204  19.932  0.2491 -0.0095  0.5279
 3213DPPE   C2B60418   9.239  17.822  19.776 -0.0056  0.0490 -0.0124
 3213DPPE   C3B60419   9.249  17.608  19.499  0.2161  0.1616 -0.0083
 3213DPPE   C4B60420   9.393  17.197  19.277  0.0251 -0.3099  0.1869
 3214DPPE   NH360421  12.892  34.742  19.544 -0.0040 -0.0474 -0.0401
 3214DPPE   PO460422  13.326  34.947  19.597  0.0238 -0.0175 -0.0025
 3214DPPE   GL160423  12.929  35.251  19.507  0.1228  0.0937  0.1698
 3214DPPE   GL260424  13.011  35.276  19.207 -0.1085  0.1729 -0.1124
 3214DPPE   C1A60425  12.816  35.730  19.327 -0.3498 -0.0880 -0.0474
 3214DPPE   C2A60426  12.763  36.148  19.237 -0.1914  0.0303 -0.3389
 3214DPPE   C3A60427  12.801  36.455  19.538 -0.1325  0.0240 -0.1496
 3214DPPE   C4A60428  12.947  36.877  19.288 -0.0050  0.1239 -0.1587
 3214DPPE   C1B60429  13.299  35.632  19.218 -0.0234  0.1418 -0.1116
 3214DPPE   C2B60430  13.776  35.590  19.269  0.0310  0.1584  0.0168
 3214DPPE   C3B60431  14.042  35.978  19.304  0.2070  0.1531 -0.0073
 3214DPPE   C4B60432  14.546  35.991  19.338 -0.0806 -0.1230 -0.1038
 3215DPPE   NH360433  19.052   8.432   4.103 -0.1570 -0.3783  0.0802
 3215DPPE   PO460434  18.772   8.735   3.961  0.0276 -0.1178 -0.1084
 3215DPPE   GL160435  18.574   8.694   4.272 -0.2428  0.1430 -0.0956
 3215DPPE   GL260436  18.311   8.526   4.075 -0.0254 -0.2650  0.2918
 3215DPPE   C1A60437  18.300   8.438   4.576  0.0214 -0.2792  0.2162
 3215DPPE   C2A60438  18.240   8.300   4.881  0.1722 -0.1539  0.1041
 3215DPPE   C3A60439  18.165   8.306   5.365 -0.2464 -0.1909 -0.1450
 3215DPPE   C4A60440  18.079   8.171   5.793  0.3151 -0.0879  0.0319
 3215DPPE   C1B60441  17.891   8.436   4.325  0.1284 -0.0422  0.1514
 3215DPPE   C2B60442  17.487   8.331   4.249  0.0902 -0.1316 -0.0817
 3215DPPE   C3B60443  17.138   8.079   4.227 -0.0268 -0.3206  0.0099
 3215DPPE   C4B60444  16.809   7.617   4.162  0.0130 -0.1994  0.2727
 3216DPPE   NH360445  11.649   1.505  23.451 -0.3753 -0.1582  0.0437
 3216DPPE   PO460446  11.954   1.672  23.779 -0.0960  0.0024 -0.0678
 3216DPPE   GL160447  12.139   1.912  23.487 -0.1245  0.1473 -0.3819
 3216DPPE   GL260448  12.356   2.101  23.606 -0.0321  0.1010  0.0138
 3216DPPE   C1A60449  12.097   2.372  23.225  0.0221 -0.2578 -0.1015
 3216DPPE   C2A60450  12.212   2.653  23.046 -0.2747 -0.0464 -0.0002
 3216DPPE   C3A60451  12.165   3.010  22.819 -0.1480 -0.0932  0.1086
 3216DPPE   C4A60452  12.060   3.275  22.449  0.0224  0.0294  0.1333
 3216DPPE   C1B60453  12.561   2.118  23.333 -0.2175 -0.3382  0.3888
 3216DPPE   C2B60454  12.447   2.212  22.908 -0.0831  0.0934  0.1835
 3216DPPE   C3B60455  12.147   2.436  22.582 -0.1755 -0.1365  0.0427
 3216DPPE   C4B60456  12.010   2.719  22.391  0.2309 -0.0107 -0.0041
 3217DPPE   NH360457  27.204   4.579  16.625 -0.0034 -0.2358  0.0206
 3217DPPE   PO460458  27.081   4.886  16.974 -0.2159 -0.3287 -0.0241
 3217DPPE   GL160459  26.979   5.327  16.913 -0.2452  0.2120  0.0710
 3217DPPE   GL260460  26.987   5.667  17.024 -0.1027  0.3111 -0.3008
 3217DPPE   C1A60461  26.964   5.506  16.485 -0.1087  0.2868 -0.2711
 3217DPPE   C2A60462  26.832   5.451  16.029  0.1297 -0.2324  0.0766
 3217DPPE   C3A60463  26.514   5.328  15.905  0.1300  0.0144  0.1437
 3217DPPE   C4A60464  26.061   5.386  16.066 -0.0712 -0.1862  0.3410
 3217DPPE   C1B60465  26.712   6.056  17.095 -0.0651  0.1083  0.1249
 3217DPPE   C2B60466  26.541   6.336  17.395  0.0180  0.2275 -0.0060
 3217DPPE   C3B60467  26.122   6.526  17.598 -0.1158 -0.1402  0.1969
 3217DPPE   C4B60468  26.040   6.484  18.029  0.1762 -0.3346  0.1919
 3218DPPE   NH360469   8.719   5.528   2.302 -0.0723  0.0474 -0.0447
 3218DPPE   PO460470   8.408   5.406   2.561  0.0688  0.2550 -0.0602
 3218DPPE   GL160471   8.678   5.483   2.857  0.1586  0.0887 -0.2089
 3218DPPE   GL260472   8.978   5.646   2.738  0.3566  0.1026 -0.0092
 3218DPPE   C1A60473   8.862   5.198   2.996  0.4644  0.1126  0.2468
 3218DPPE   C2A60474   9.021   5.183   3.532 -0.3014 -0.1520 -0.1126
 3218DPPE   C3A60475   9.408   5.178   3.751  0.0263 -0.0748  0.2106
 3218DPPE   C4A60476   9.724   5.448   3.965 -0.1903 -0.1013  0.1243
 3218DPPE   C1B60477   9.077   5.700   3.176 -0.0431 -0.2793 -0.0044
 3218DPPE   C2B60478   8.839   5.782   3.672 -0.0646  0.1817  0.0451
 3218DPPE   C3B60479   9.258   5.723   3.961  0.0007 -0.1626 -0.4752
 3218DPPE   C4B60480   9.685   5.914   4.130  0.0350 -0.2075 -0.0380
 3219DPPE   NH360481   5.418  33.574  14.173 -0.0330 -0.3257 -0.3651
 3219DPPE   PO460482   5.676  33.784  14.421  0.0771 -0.0204 -0.2310
 3219DPPE   GL160483   5.967  34.244  14.273  0.2782  0.0522  0.1120
 3219DPPE   GL260484   5.772  34.473  14.401  0.1999 -0.0536  0.2161
 3219DPPE   C1A60485   6.089  34.497  13.968 -0.0982 -0.3345 -0.0588
 3219DPPE   C2A60486   6.343  34.792  13.779  0.1370 -0.3092 -0.0884
 3219DPPE   C3A60487   6.616  34.784  13.403  0.1211 -0.0755  0.0589
 3219DPPE   C4A60488   6.941  34.930  13.118  0.3650  0.0996  0.1953
 3219DPPE   C1B60489   6.156  34.635  14.484  0.2354 -0.0686 -0.0071
 3219DPPE   C2B60490   6.527  34.819  14.255 -0.1695  0.2368 -0.2530
 3219DPPE   C3B60491   6.988  34.693  14.349  0.3254 -0.0102 -0.0605
 3219DPPE   C4B60492   7.071  34.294  14.437  0.0031 -0.0905 -0.1170
 3220DPPE   NH360493  12.324   2.883  16.903  0.0598 -0.2875  0.3734
 3220DPPE   PO460494  12.319   2.514  17.175  0.1824 -0.2824  0.0379
 3220DPPE   GL160495  12.136   2.126  17.166  0.0559 -0.3441 -0.1506
 3220DPPE   GL260496  11.793   2.257  17.273 -0.0539  0.0467  0.0040
 3220DPPE   C1A60497  11.800   1.791  17.214  0.1180 -0.2475  0.0334
 3220DPPE   C2A60498  11.554   1.572  16.891 -0.0714 -0.2103  0.1633
 3220DPPE   C3A60499  11.036   1.626  16.708  0.0014  0.0175  0.0307
 3220DPPE   C4A60500  10.714   1.504  16.592  0.0554 -0.2340  0.3796
 3220DPPE   C1B60501  11.515   2.180  17.460 -0.1098 -0.0208  0.2622
 3220DPPE   C2B60502  11.395   1.828  17.667  0.1424 -0.2114 -0.2298
 3220DPPE   C3B60503  11.341   1.457  17.818 -0.1577  0.0203 -0.0683
 3220DPPE   C4B60504  11.390   1.074  17.770 -0.0996 -0.2076  0.1524
 3221DPPE   NH360505   4.149  12.627  17.801  0.1248 -0.0400 -0.2031
 3221DPPE   PO460506   4.446  12.325  18.068 -0.3543  0.0948 -0.0479
 3221DPPE   GL160507   4.993  12.247  18.141  0.5687 -0.0874 -0.2397
 3221DPPE   GL260508   5.095  12.026  18.429  0.0596 -0.5289 -0.1771
 3221DPPE   C1A60509   5.356  11.976  18.036  0.1319  0.1739  0.1501
 3221DPPE   C2A60510   5.539  11.682  18.336 -0.1535  0.7367 -0.2549
 3221DPPE   C3A60511   5.846  11.445  18.337  0.0357  0.3952  0.0064
 3221DPPE   C4A60512   6.081  11.065  18.239  0.0110 -0.1119 -0.2669
 3221DPPE   C1B60513   5.487  12.051  18.652  0.1579  0.1205 -0.0934
 3221DPPE   C2B60514   5.714  11.932  19.056  0.1334  0.2379  0.0306
 3221DPPE   C3B60515   5.864  12.003  19.382 -0.1567 -0.1506  0.0926
 3221DPPE   C4B60516   5.748  12.313  19.582  0.2512 -0.0409 -0.2906
 3222DPPE   NH360517  19.245  16.981  12.832 -0.3587 -0.1324 -0.0981
 3222DPPE   PO460518  19.102  16.932  12.482  0.3473  0.0708  0.0010
 3222DPPE   GL160519  18.956  17.335  12.238  0.0518  0.0604  0.0561
 3222DPPE   GL260520  18.601  17.350  12.179 -0.0403  0.2530 -0.5341
 3222DPPE   C1A60521  19.161  17.700  12.010 -0.3866 -0.0321  0.0633
 3222DPPE   C2A60522  19.282  18.056  11.725 -0.0420 -0.2155  0.0432
 3222DPPE   C3A60523  19.296  18.094  11.157  0.1826  0.0909  0.2339
 3222DPPE   C4A60524  19.064  18.458  10.913  0.2499 -0.1827 -0.4446
 3222DPPE   C1B60525  18.642  17.779  12.011 -0.0269  0.0698  0.1812
 3222DPPE   C2B60526  18.728  18.182  11.838 -0.0592 -0.0394 -0.1334
 3222DPPE   C3B60527  19.066  18.498  11.892  0.0079 -0.0221  0.0488
 3222DPPE   C4B60528  19.420  18.732  12.043  0.0687 -0.1971 -0.0265
 3223DPPE   NH360529   8.760  11.568  24.653  0.2692  0.1318 -0.1296
 3223DPPE   PO460530   8.638  11.161  24.580  0.0450 -0.3951 -0.0771
 3223DPPE   GL160531   9.050  11.141  24.276  0.1650  0.1682  0.1974
 3223DPPE   GL260532   9.165  11.161  24.488  0.1363  0.1834  0.0301
 3223DPPE   C1A60533   9.294  11.298  24.002 -0.0116 -0.0292 -0.2911
 3223DPPE   C2A60534   9.326  11.255  23.508  0.1397  0.0344 -0.1330
 3223DPPE   C3A60535   9.203  10.945  23.286 -0.0219  0.1832 -0.1279
 3223DPPE   C4A60536   9.228  11.082  22.835 -0.1287 -0.3153  0.2992
 3223DPPE   C1B60537   9.622  11.245  24.474  0.0497  0.0311  0.1758
 3223DPPE   C2B60538   9.975  11.359  24.363  0.2417 -0.1958 -0.1190
 3223DPPE   C3B60539  10.262  11.181  24.016 -0.0554 -0.0279 -0.1712
 3223DPPE   C4B60540  10.517  11.036  23.902 -0.0558  0.2992 -0.1095
 3224DPPE   NH360541  21.774  35.543  19.353  0.1472  0.1305 -0.0281
 3224DPPE   PO460542  21.551  35.831  19.141  0.1230 -0.0187  0.0067
 3224DPPE   GL160543  21.290  36.224  18.993  0.1575  0.2622  0.2401
 3224DPPE   GL260544  21.268  36.354  18.729 -0.1791  0.0684 -0.3549
 3224DPPE   C1A60545  20.949  36.564  19.054 -0.0402  0.1122  0.1730
 3224DPPE   C2A60546  20.785  36.817  19.232 -0.2685  0.1675 -0.1287
 3224DPPE   C3A60547  20.385  37.003  19.445  0.0480 -0.2234 -0.1485
 3224DPPE   C4A60548  20.332  37.387  19.543  0.3158  0.1248 -0.0623
 3224DPPE   C1B60549  21.014  36.556  18.418  0.0203  0.0620  0.1488
 3224DPPE   C2B60550  20.865  36.897  18.158 -0.3985  0.1391  0.1322
 3224DPPE   C3B60551  20.864  37.249  17.943 -0.2541 -0.2095 -0.0034
 3224DPPE   C4B60552  20.474  37.537  17.734 -0.0193 -0.1464  0.0861
 3225DPPE   NH360553   7.710  18.074  21.184 -0.1042 -0.0579  0.1846
 3225DPPE   PO460554   7.772  18.413  20.761 -0.0695  0.0315  0.0581
 3225DPPE   GL160555   8.091  18.275  20.482  0.0243 -0.2304 -0.0049
 3225DPPE   GL260556   7.911  18.058  20.403 -0.3005  0.2603  0.2239
 3225DPPE   C1A60557   8.381  18.173  20.244 -0.1607 -0.0741 -0.1017
 3225DPPE   C2A60558   8.672  17.871  19.986 -0.1450 -0.1626 -0.1235
 3225DPPE   C3A60559   8.853  17.472  19.870  0.0698  0.1533  0.1547
 3225DPPE   C4A60560   8.921  17.221  19.663 -0.1054 -0.0043 -0.1188
 3225DPPE   C1B60561   8.159  17.745  20.163  0.2238  0.4294 -0.0571
 3225DPPE   C2B60562   8.269  17.375  19.817  0.3175 -0.0506  0.1456
 3225DPPE   C3B60563   8.522  17.012  19.877 -0.0608 -0.1359  0.1911
 3225DPPE   C4B60564   8.882  16.706  19.834  0.1799 -0.0024  0.0555
 3226DPPE   NH360565  11.881  33.121   7.463  0.0152  0.0845 -0.0607
 3226DPPE   PO460566  12.040  33.022   7.809  0.0643  0.0634 -0.6801
 3226DPPE   GL160567  12.244  33.389   7.794 -0.1893 -0.2865  0.1560
 3226DPPE   GL260568  12.242  33.458   7.524  0.2971 -0.0481  0.0471
 3226DPPE   C1A60569  12.308  33.517   8.238 -0.3422  0.1929  0.2582
 3226DPPE   C2A60570  12.541  33.734   8.562 -0.2599 -0.1222  0.0259
 3226DPPE   C3A60571  12.843  33.943   8.790 -0.0274  0.1145  0.0078
 3226DPPE   C4A60572  12.938  33.800   9.215 -0.1902 -0.1715 -0.0462
 3226DPPE   C1B60573  12.403  33.821   7.786  0.0155  0.0746 -0.0521
 3226DPPE   C2B60574  12.695  33.829   8.108 -0.0642  0.0330 -0.0125
 3226DPPE   C3B60575  12.921  33.495   8.209  0.1712  0.0029 -0.0769
 3226DPPE   C4B60576  13.361  33.245   8.036 -0.1346  0.1997 -0.1977
 3227DPPE   NH360577  16.389  12.340   3.445 -0.1023 -0.0285  0.0633
 3227DPPE   PO460578  16.666  12.462   3.825  0.0856 -0.2463 -0.4044
 3227DPPE   GL160579  16.433  12.530   4.183  0.0569  0.1247  0.1119
 3227DPPE   GL260580  16.783  12.579   4.296  0.0682  0.1141 -0.2378
 3227DPPE   C1A60581  16.374  12.830   4.412  0.3159  0.2951 -0.0888
 3227DPPE   C2A60582  16.270  13.137   4.609  0.4682  0.0330 -0.2094
 3227DPPE   C3A60583  16.081  13.275   5.021  0.0514  0.0612  0.2818
 3227DPPE   C4A60584  15.993  13.358   5.412 -0.0476  0.1613  0.0528
 3227DPPE   C1B60585  16.759  12.317   4.607 -0.2603 -0.0278  0.0039
 3227DPPE   C2B60586  16.634  12.048   4.975  0.1618 -0.1463 -0.0082
 3227DPPE   C3B60587  16.220  11.973   5.320 -0.1190  0.1118 -0.0822
 3227DPPE   C4B60588  15.922  11.970   5.527  0.2587  0.0874  0.2864
 3228DPPE   NH360589   6.229  14.405   8.060 -0.1513  0.0039  0.1637
 3228DPPE   PO460590   6.504  14.703   8.201  0.1271 -0.2507 -0.1824
 3228DPPE   GL160591   6.723  14.382   7.959 -0.1802  0.2980  0.0637
 3228DPPE   GL260592   6.518  14.258   7.657  0.2490  0.0699 -0.0241
 3228DPPE   C1A60593   6.959  14.044   8.150 -0.0535 -0.1861 -0.0173
 3228DPPE   C2A60594   6.986  13.660   8.412 -0.1223 -0.1606 -0.3242
 3228DPPE   C3A60595   6.701  13.434   8.697 -0.0518 -0.0671  0.4133
 3228DPPE   C4A60596   6.361  13.360   9.014 -0.1680 -0.1544 -0.2677
 3228DPPE   C1B60597   6.648  13.831   7.854  0.0681  0.1571  0.1631
 3228DPPE   C2B60598   6.720  13.582   8.022 -0.2808 -0.2460  0.0386
 3228DPPE   C3B60599   6.889  13.193   8.292 -0.0243  0.1123 -0.2944
 3228DPPE   C4B60600   6.902  12.813   8.180 -0.1488 -0.0780  0.1903
 3229DPPE   NH360601  15.970   5.523   0.996 -0.2086 -0.1325  0.1974
 3229DPPE   PO460602  16.329   5.721   1.047  0.1830 -0.0113  0.0448
 3229DPPE   GL160603  16.380   5.945   1.408 -0.1355  0.2133  0.2845
 3229DPPE   GL260604  16.662   5.679   1.580 -0.3331  0.0687  0.3119
 3229DPPE   C1A60605  16.135   6.030   1.797 -0.2832  0.5319  0.0076
 3229DPPE   C2A60606  15.976   5.781   2.108 -0.2214 -0.1332 -0.0437
 3229DPPE   C3A60607  16.026   5.607   2.570  0.3890 -0.2719 -0.1421
 3229DPPE   C4A60608  15.870   5.851   2.943  0.0307  0.0065 -0.0282
 3229DPPE   C1B60609  16.563   5.926   1.921  0.1760 -0.1232 -0.1924
 3229DPPE   C2B60610  16.330   6.129   2.262  0.1504  0.0934 -0.2339
 3229DPPE   C3B60611  16.386   6.471   2.500  0.0969  0.1231  0.0995
 3229DPPE   C4B60612  16.492   6.776   2.543  0.0293 -0.1446  0.0187
 3230DPPE   NH360613  27.042   6.401  19.704 -0.1199 -0.1539  0.1814
 3230DPPE   PO460614  27.319   6.699  19.539  0.0930  0.0006  0.0348
 3230DPPE   GL160615  26.959   6.666  19.241 -0.1873 -0.0483  0.0414
 3230DPPE   GL260616  27.013   6.854  19.121 -0.0795 -0.1532 -0.0983
 3230DPPE   C1A60617  26.537   6.700  19.166 -0.0517  0.0286 -0.0003
 3230DPPE   C2A60618  26.249   6.675  18.999 -0.2023  0.1488 -0.2504
 3230DPPE   C3A60619  25.889   6.951  18.903 -0.1018  0.1113 -0.1047
 3230DPPE   C4A60620  25.661   7.259  19.040 -0.2432  0.4393  0.0056
 3230DPPE   C1B60621  26.587   7.156  19.090  0.1289 -0.0576 -0.1809
 3230DPPE   C2B60622  26.235   7.187  19.288 -0.3641  0.2622 -0.1896
 3230DPPE   C3B60623  26.096   7.108  19.582 -0.2962  0.0293 -0.0567
 3230DPPE   C4B60624  26.140   6.769  19.943 -0.1336  0.1062  0.1356
 3231DPPE   NH360625  25.573  14.842  22.743  0.0155  0.1492 -0.2066
 3231DPPE   PO460626  25.789  15.050  22.539 -0.0923  0.1882 -0.0554
 3231DPPE   GL160627  25.555  15.043  22.225  0.0707 -0.3687  0.0087
 3231DPPE   GL260628  25.723  14.957  21.952  0.1095 -0.0257 -0.2800
 3231DPPE   C1A60629  25.232  15.194  22.150  0.1533  0.1367  0.0263
 3231DPPE   C2A60630  24.846  15.158  21.874  0.0787  0.0035  0.0218
 3231DPPE   C3A60631  24.413  15.218  21.601  0.1642 -0.1256 -0.1295
 3231DPPE   C4A60632  24.001  15.404  21.560  0.2404  0.0470 -0.1271
 3231DPPE   C1B60633  25.325  14.577  21.779 -0.3468  0.0286  0.0520
 3231DPPE   C2B60634  24.984  14.339  21.812  0.0417 -0.2211 -0.2760
 3231DPPE   C3B60635  24.613  14.307  21.983 -0.0138  0.0412  0.1798
 3231DPPE   C4B60636  24.256  14.017  21.947  0.0010  0.0808  0.1135
 3232DPPE   NH360637  10.892   3.313  24.718  0.1551 -0.3184  0.0087
 3232DPPE   PO460638  10.746   3.841  24.770  0.0300  0.0094  0.2951
 3232DPPE   GL160639  10.873   4.032  24.495  0.1874  0.3304 -0.5186
 3232DPPE   GL260640  11.180   4.146  24.586 -0.0632  0.1814  0.2012
 3232DPPE   C1A60641  10.734   4.118  24.128 -0.0875 -0.0016  0.3662
 3232DPPE   C2A60642  10.783   4.463  23.801  0.1488  0.0188 -0.3612
 3232DPPE   C3A60643  11.060   4.487  23.463  0.0791 -0.3019  0.0735
 3232DPPE   C4A60644  11.105   4.567  23.006 -0.1661 -0.1378  0.2466
 3232DPPE   C1B60645  11.460   4.503  24.620  0.0480  0.2447  0.2450
 3232DPPE   C2B60646  11.607   4.781  24.412 -0.0627  0.0608 -0.1891
 3232DPPE   C3B60647  11.608   5.142  24.318 -0.0808 -0.0172 -0.3140
 3232DPPE   C4B60648  11.835   5.492  24.623  0.0336  0.4568 -0.0931
 3233DPPE   NH360649   7.709   7.555   2.547 -0.0469 -0.2780  0.1882
 3233DPPE   PO460650   7.696   8.018   2.691 -0.1161  0.3458 -0.0636
 3233DPPE   GL160651   7.934   8.135   2.928  0.1944 -0.4864 -0.1853
 3233DPPE   GL260652   7.725   8.112   3.211  0.0718  0.2457 -0.0840
 3233DPPE   C1A60653   8.270   7.979   3.178  0.2261 -0.1003  0.0139
 3233DPPE   C2A60654   8.454   8.121   3.555 -0.0581 -0.0806  0.3861
 3233DPPE   C3A60655   8.741   8.250   3.885  0.1153 -0.3564 -0.2898
 3233DPPE   C4A60656   9.060   7.973   4.117 -0.0275  0.0056  0.0483
 3233DPPE   C1B60657   7.877   7.987   3.611 -0.1704 -0.1029  0.1828
 3233DPPE   C2B60658   8.084   8.042   4.038 -0.1826  0.2137  0.3049
 3233DPPE   C3B60659   8.323   8.106   4.363  0.0120 -0.1683 -0.1379
 3233DPPE   C4B60660   8.318   7.842   4.767 -0.1217  0.0283  0.2092
 3234DPPE   NH360661  26.224   7.145  22.221 -0.0097 -0.2656 -0.3660
 3234DPPE   PO460662  26.087   7.011  21.806 -0.1308  0.2408  0.0227
 3234DPPE   GL160663  25.883   7.352  21.832  0.6780  0.0012  0.3057
 3234DPPE   GL260664  25.827   7.425  22.101  0.4243  0.1134  0.0673
 3234DPPE   C1A60665  25.555   7.407  21.672 -0.3176  0.1259 -0.1374
 3234DPPE   C2A60666  25.255   7.604  21.678  0.1474  0.1151 -0.1253
 3234DPPE   C3A60667  24.930   7.846  21.515 -0.0178 -0.3299  0.0389
 3234DPPE   C4A60668  24.586   8.016  21.661  0.2187 -0.3148  0.0119
 3234DPPE   C1B60669  25.367   7.494  22.134  0.4085 -0.0788  0.1202
 3234DPPE   C2B60670  24.837   7.643  22.016  0.1120  0.1441 -0.0029
 3234DPPE   C3B60671  24.391   7.681  21.976 -0.0567  0.0109  0.0125
 3234DPPE   C4B60672  24.058   7.718  21.724  0.2814 -0.0199  0.2734
 3235DPPE   NH360673   5.366   9.765   4.715  0.0142  0.1176  0.1985
 3235DPPE   PO460674   5.130  10.194   4.508  0.0596 -0.0887  0.2690
 3235DPPE   GL160675   5.401  10.324   4.944  0.3693 -0.0586  0.0220
 3235DPPE   GL260676   5.430  10.069   5.088 -0.2813  0.1785  0.1674
 3235DPPE   C1A60677   5.697  10.518   5.210  0.0494 -0.2222 -0.0742
 3235DPPE   C2A60678   5.875  10.546   5.597  0.0430  0.2223 -0.0014
 3235DPPE   C3A60679   6.160  10.613   5.983  0.0293  0.0038  0.0577
 3235DPPE   C4A60680   6.506  10.699   6.132  0.1999 -0.0060 -0.1750
 3235DPPE   C1B60681   5.669   9.722   5.224  0.2293  0.0747  0.2366
 3235DPPE   C2B60682   5.974   9.568   5.579 -0.0884  0.3314 -0.2219
 3235DPPE   C3B60683   6.064   9.259   5.929 -0.1507  0.1349  0.1733
 3235DPPE   C4B60684   6.252   9.143   6.362 -0.1169 -0.1122 -0.1845
 3236DPPE   NH360685   1.022   6.181  13.298 -0.1140 -0.1483 -0.2564
 3236DPPE   PO460686   1.276   5.954  13.599  0.1215  0.2020 -0.3065
 3236DPPE   GL160687   1.651   6.220  13.824 -0.0375  0.1562  0.2377
 3236DPPE   GL260688   1.883   6.081  13.593 -0.0752  0.0460  0.1095
 3236DPPE   C1A60689   1.925   6.519  13.821  0.1784 -0.0596  0.1371
 3236DPPE   C2A60690   2.084   6.689  14.196 -0.0893 -0.0686  0.0907
 3236DPPE   C3A60691   2.341   6.782  14.586  0.0027  0.0201  0.1599
 3236DPPE   C4A60692   2.761   6.827  14.814  0.0446  0.1965  0.0457
 3236DPPE   C1B60693   2.208   6.232  13.444 -0.1778  0.0857 -0.1807
 3236DPPE   C2B60694   2.598   6.176  13.400 -0.0908  0.2735 -0.1486
 3236DPPE   C3B60695   2.858   6.110  13.077 -0.0190  0.0334  0.2371
 3236DPPE   C4B60696   2.864   6.355  12.745 -0.3122 -0.1640  0.3698
 3237DPPE   NH360697  11.994   8.480  11.105  0.1023  0.1876 -0.2947
 3237DPPE   PO460698  11.657   8.313  11.313 -0.2085 -0.4058  0.3554
 3237DPPE   GL160699  11.312   8.459  10.988 -0.3117 -0.0861 -0.0204
 3237DPPE   GL260700  11.590   8.301  10.775 -0.0045 -0.2848  0.0263
 3237DPPE   C1A60701  10.974   8.345  10.631 -0.3416 -0.0276  0.0767
 3237DPPE   C2A60702  10.776   8.086  10.439 -0.1816  0.2351  0.0756
 3237DPPE   C3A60703  10.534   7.738  10.189 -0.0468  0.2310  0.0474
 3237DPPE   C4A60704  10.743   7.386  10.150 -0.1021  0.0190 -0.2105
 3237DPPE   C1B60705  11.370   8.036  10.615  0.0928 -0.0267  0.1472
 3237DPPE   C2B60706  11.156   7.863  10.271 -0.3783  0.3643 -0.4254
 3237DPPE   C3B60707  10.896   7.962   9.994 -0.0783  0.0953 -0.2403
 3237DPPE   C4B60708  10.513   7.886   9.745 -0.2672 -0.2473  0.1431
 3238DPPE   NH360709   9.992  32.356  10.979  0.2048  0.0216  0.3657
 3238DPPE   PO460710   9.618  32.318  11.194 -0.1004  0.1240  0.0929
 3238DPPE   GL160711   9.890  32.623  11.352 -0.3850 -0.1490 -0.1172
 3238DPPE   GL260712   9.762  32.821  11.274  0.0169  0.5140  0.1042
 3238DPPE   C1A60713  10.271  32.863  11.490  0.2198 -0.0455 -0.0967
 3238DPPE   C2A60714  10.274  32.988  11.963  0.0099  0.0231 -0.2058
 3238DPPE   C3A60715   9.998  33.314  12.175  0.0743 -0.1000  0.0518
 3238DPPE   C4A60716   9.801  33.350  12.521  0.4277 -0.2336  0.0413
 3238DPPE   C1B60717   9.889  33.211  11.361  0.2223 -0.4432 -0.1877
 3238DPPE   C2B60718  10.197  33.367  11.630 -0.1414 -0.0418 -0.1381
 3238DPPE   C3B60719  10.681  33.122  11.713 -0.0927 -0.1219 -0.0553
 3238DPPE   C4B60720  11.102  33.079  11.830 -0.2807 -0.2183  0.0339
 3239DPPE   NH360721  20.718   5.428  20.292 -0.0700 -0.1228  0.0409
 3239DPPE   PO460722  20.589   5.177  19.954 -0.2929 -0.2506  0.2417
 3239DPPE   GL160723  20.860   4.893  20.159 -0.1521  0.1140 -0.1311
 3239DPPE   GL260724  21.094   5.115  20.403 -0.3610  0.0263 -0.0136
 3239DPPE   C1A60725  21.002   4.595  20.414 -0.0024  0.2909  0.1229
 3239DPPE   C2A60726  21.086   4.145  20.728  0.1887  0.0005 -0.0102
 3239DPPE   C3A60727  21.178   3.705  20.920 -0.4401  0.0281 -0.2597
 3239DPPE   C4A60728  21.240   3.253  20.879  0.0176  0.1023 -0.0741
 3239DPPE   C1B60729  21.360   4.865  20.665  0.2677  0.0153  0.2372
 3239DPPE   C2B60730  21.650   4.609  20.830 -0.0073  0.2311 -0.1076
 3239DPPE   C3B60731  21.838   4.529  21.219  0.0357 -0.1925  0.1363
 3239DPPE   C4B60732  21.795   4.255  21.567  0.1789 -0.0859  0.1293
 3240DPPE   NH360733  11.124  12.594  26.290  0.1241  0.4321  0.1095
 3240DPPE   PO460734  10.789  12.854  26.199  0.2466  0.2386 -0.1790
 3240DPPE   GL160735  10.989  12.731  25.728 -0.1442 -0.0332  0.0741
 3240DPPE   GL260736  10.975  12.426  25.632  0.1250 -0.3391  0.2606
 3240DPPE   C1A60737  11.061  12.810  25.223 -0.0559  0.0755 -0.2528
 3240DPPE   C2A60738  11.098  12.648  24.857 -0.0894  0.1033  0.0911
 3240DPPE   C3A60739  11.067  12.471  24.413  0.1736 -0.2296 -0.0628
 3240DPPE   C4A60740  11.207  12.552  24.088 -0.0354  0.2123  0.0109
 3240DPPE   C1B60741  11.274  12.295  25.288 -0.0567 -0.1951 -0.0346
 3240DPPE   C2B60742  11.397  11.949  25.133 -0.0308  0.0014  0.1977
 3240DPPE   C3B60743  11.394  11.499  25.122 -0.0808  0.0073 -0.0173
 3240DPPE   C4B60744  11.439  11.160  25.030 -0.1167 -0.1813  0.4063
 3241DPPE   NH360745   7.731   0.414   6.169 -0.0693 -0.1930 -0.0713
 3241DPPE   PO460746   7.903   0.393   6.666  0.0161 -0.0606 -0.1066
 3241DPPE   GL160747   8.014   0.685   6.877 -0.2326  0.2566  0.2732
 3241DPPE   GL260748   7.962   0.642   7.223 -0.2024 -0.1027 -0.0498
 3241DPPE   C1A60749   8.255   0.989   6.976 -0.0475  0.1137  0.0941
 3241DPPE   C2A60750   8.622   1.256   7.059 -0.1487  0.1920 -0.3042
 3241DPPE   C3A60751   8.835   1.350   7.369 -0.0568 -0.1417 -0.0516
 3241DPPE   C4A60752   8.661   1.242   7.847 -0.2130 -0.0573  0.2166
 3241DPPE   C1B60753   7.873   1.103   7.310  0.0857 -0.1622 -0.1918
 3241DPPE   C2B60754   7.809   1.268   7.652 -0.3124 -0.0467 -0.0462
 3241DPPE   C3B60755   8.191   1.180   7.972 -0.3043  0.1614  0.0787
 3241DPPE   C4B60756   8.450   1.200   8.276  0.1726  0.0146 -0.0491
 3242DPPE   NH360757  11.173   5.709  15.187 -0.2200  0.0199 -0.2892
 3242DPPE   PO460758  11.531   5.646  14.959  0.0316  0.3060 -0.0623
 3242DPPE   GL160759  11.202   5.373  14.784 -0.0348  0.1080  0.3559
 3242DPPE   GL260760  11.058   5.419  14.390 -0.0748  0.0074  0.0037
 3242DPPE   C1A60761  10.803   5.124  14.669  0.0759 -0.1287  0.1302
 3242DPPE   C2A60762  10.644   5.031  14.282  0.0295 -0.3511  0.2948
 3242DPPE   C3A60763  10.395   4.887  14.018  0.1515  0.0482  0.3695
 3242DPPE   C4A60764  10.100   4.762  13.844  0.0131  0.0877  0.0554
 3242DPPE   C1B60765  10.550   5.484  14.366  0.1260  0.0314 -0.0614
 3242DPPE   C2B60766  10.163   5.374  14.330  0.1447 -0.3046  0.1188
 3242DPPE   C3B60767   9.866   5.225  14.014 -0.1345 -0.0363  0.1475
 3242DPPE   C4B60768   9.604   4.991  13.943 -0.0014  0.1639 -0.0278
 3243DPPE   NH360769  20.750   5.875  26.007 -0.0897  0.0957  0.1438
 3243DPPE   PO460770  21.175   5.889  25.812 -0.0744  0.1376 -0.0616
 3243DPPE   GL160771  21.275   6.240  25.477  0.2902  0.1097 -0.0249
 3243DPPE   GL260772  21.198   6.570  25.423  0.0635  0.2603  0.0415
 3243DPPE   C1A60773  21.202   6.255  24.986 -0.0815  0.2302 -0.5343
 3243DPPE   C2A60774  21.222   6.065  24.591  0.3737  0.0362  0.3531
 3243DPPE   C3A60775  21.363   5.967  24.194 -0.0522 -0.0855 -0.0468
 3243DPPE   C4A60776  21.253   6.107  23.760  0.1041  0.1643 -0.1573
 3243DPPE   C1B60777  20.904   6.685  25.042  0.2394 -0.0858 -0.1990
 3243DPPE   C2B60778  20.506   6.659  24.808 -0.1647  0.2999 -0.0932
 3243DPPE   C3B60779  20.241   6.413  24.891 -0.1881 -0.0465 -0.0108
 3243DPPE   C4B60780  20.008   6.067  25.054  0.2712  0.0648 -0.1321
 3244DPPE   NH360781  17.145  10.001  27.791 -0.0883 -0.0355  0.1053
 3244DPPE   PO460782  17.419  10.289  27.487 -0.1073  0.0718 -0.1840
 3244DPPE   GL160783  17.624  10.146  27.111 -0.0112  0.2303  0.0168
 3244DPPE   GL260784  17.784  10.405  26.987 -0.0745  0.3380 -0.1671
 3244DPPE   C1A60785  17.645  10.083  26.605  0.0327 -0.3187  0.0178
 3244DPPE   C2A60786  17.919  10.360  26.358  0.3039  0.0923  0.1324
 3244DPPE   C3A60787  17.770  10.591  26.073  0.1676 -0.1778 -0.1607
 3244DPPE   C4A60788  17.575  10.817  25.620  0.0901 -0.0173  0.1529
 3244DPPE   C1B60789  17.585  10.636  26.542 -0.1496 -0.0742  0.0462
 3244DPPE   C2B60790  17.323  10.852  26.277 -0.1069  0.1263  0.0266
 3244DPPE   C3B60791  17.247  10.602  25.937  0.3794  0.0152 -0.0630
 3244DPPE   C4B60792  17.135  10.210  25.728 -0.1307  0.0175  0.1331
 3245DPPE   NH360793  18.483   8.350  27.273  0.0135  0.0480  0.1163
 3245DPPE   PO460794  18.395   8.757  27.418  0.2150  0.1413  0.0102
 3245DPPE   GL160795  18.446   8.866  27.044  0.1144 -0.0034  0.1267
 3245DPPE   GL260796  18.354   9.078  26.953 -0.2234 -0.1758 -0.3115
 3245DPPE   C1A60797  18.525   8.646  26.671  0.1798 -0.2756  0.2857
 3245DPPE   C2A60798  18.594   8.545  26.273  0.2399  0.1366  0.0529
 3245DPPE   C3A60799  18.691   8.300  25.912  0.0134  0.0864  0.2325
 3245DPPE   C4A60800  18.738   8.022  25.504 -0.0154  0.1065 -0.0885
 3245DPPE   C1B60801  18.080   8.815  26.702 -0.2056  0.1108 -0.3659
 3245DPPE   C2B60802  18.103   8.776  26.260  0.4002  0.1262  0.2054
 3245DPPE   C3B60803  18.017   8.779  25.769  0.0850  0.0692  0.0095
 3245DPPE   C4B60804  17.825   8.534  25.467 -0.0181 -0.0158 -0.2160
 3246DPPE   NH360805  15.476  21.251  11.067 -0.3403 -0.4681 -0.0416
 3246DPPE   PO460806  15.789  21.385  11.254  0.0162  0.2257  0.1018
 3246DPPE   GL160807  15.859  20.982  11.277  0.2657  0.0045 -0.1078
 3246DPPE   GL260808  15.740  20.831  10.939  0.3439 -0.0875 -0.3732
 3246DPPE   C1A60809  16.191  20.628  11.390 -0.0752  0.4211  0.1038
 3246DPPE   C2A60810  16.445  20.312  11.310  0.2549 -0.1074  0.4507
 3246DPPE   C3A60811  16.496  19.874  11.491 -0.1387 -0.1817  0.0615
 3246DPPE   C4A60812  16.515  19.469  11.585  0.0447  0.1629  0.2371
 3246DPPE   C1B60813  16.095  20.478  10.851  0.2901 -0.0377 -0.1792
 3246DPPE   C2B60814  16.028  20.122  10.803  0.0509 -0.2219 -0.1450
 3246DPPE   C3B60815  16.000  19.907  11.226 -0.1789  0.1351  0.1845
 3246DPPE   C4B60816  16.030  19.664  11.628  0.3142 -0.0008 -0.1090
 3247DPPE   NH360817   1.618   4.000  11.288  0.0758 -0.1404  0.0145
 3247DPPE   PO460818   1.603   3.519  11.445 -0.0212  0.3200  0.1370
 3247DPPE   GL160819   2.017   3.695  11.550 -0.2612  0.1869  0.0176
 3247DPPE   GL260820   2.265   3.463  11.647  0.3349  0.1471 -0.1683
 3247DPPE   C1A60821   2.265   3.766  11.994  0.0990  0.0528 -0.0323
 3247DPPE   C2A60822   2.725   3.835  12.162  0.1400 -0.0916 -0.0320
 3247DPPE   C3A60823   3.089   3.909  12.357 -0.1278 -0.2011 -0.0431
 3247DPPE   C4A60824   3.094   4.291  12.194  0.2589 -0.2134 -0.0338
 3247DPPE   C1B60825   2.606   3.523  11.584 -0.0991 -0.1546  0.1183
 3247DPPE   C2B60826   2.999   3.435  11.653  0.2401  0.1791 -0.0419
 3247DPPE   C3B60827   3.383   3.676  11.811  0.1292 -0.1949 -0.0514
 3247DPPE   C4B60828   3.760   3.634  11.800 -0.1340 -0.0588 -0.0635
 3248DPPE   NH360829   1.779   7.001  10.164 -0.0105  0.0463 -0.0636
 3248DPPE   PO460830   1.629   7.105  10.557 -0.1205 -0.0393  0.0586
 3248DPPE   GL160831   1.841   7.363  10.798  0.1670  0.0517  0.2795
 3248DPPE   GL260832   2.145   7.357  10.623  0.2828  0.1196 -0.4447
 3248DPPE   C1A60833   2.010   7.623  11.076  0.0184 -0.1313  0.0351
 3248DPPE   C2A60834   2.155   7.976  11.425 -0.3113 -0.0960 -0.2072
 3248DPPE   C3A60835   2.194   8.358  11.573 -0.2343  0.2269  0.1168
 3248DPPE   C4A60836   2.414   8.390  12.044 -0.1351  0.4861 -0.1859
 3248DPPE   C1B60837   2.357   7.061  10.787  0.2447  0.3709 -0.0945
 3248DPPE   C2B60838   2.807   6.927  10.911 -0.0380 -0.1010 -0.0545
 3248DPPE   C3B60839   3.293   7.055  11.109  0.0484 -0.4559 -0.0633
 3248DPPE   C4B60840   3.678   6.808  11.160 -0.1724 -0.2662 -0.0086
 3249DPPE   NH360841   9.402  14.239  17.486  0.0044 -0.4900 -0.3176
 3249DPPE   PO460842   9.104  13.868  17.434 -0.0594 -0.0825 -0.2533
 3249DPPE   GL160843   8.682  13.880  17.684  0.0071 -0.1406 -0.3439
 3249DPPE   GL260844   8.541  13.598  17.687  0.1939  0.2759  0.0884
 3249DPPE   C1A60845   8.146  13.926  17.876  0.1923  0.1185 -0.1475
 3249DPPE   C2A60846   7.678  14.033  17.858  0.0847 -0.1924 -0.1022
 3249DPPE   C3A60847   7.332  14.126  18.187 -0.4244 -0.4009  0.1481
 3249DPPE   C4A60848   6.981  14.328  18.037  0.3213 -0.0358 -0.2660
 3249DPPE   C1B60849   8.362  13.498  18.152  0.0134 -0.2361 -0.0758
 3249DPPE   C2B60850   7.969  13.495  18.314  0.0504 -0.2191  0.0370
 3249DPPE   C3B60851   7.530  13.589  18.124 -0.3511  0.0201 -0.0033
 3249DPPE   C4B60852   7.060  13.798  18.013  0.3194  0.0512  0.1706
 3250DPPE   NH360853  13.644  35.186   4.361  0.0561 -0.1259 -0.0966
 3250DPPE   PO460854  13.318  35.068   4.698  0.1908 -0.0874 -0.4519
 3250DPPE   GL160855  13.600  35.449   4.962 -0.0984  0.0759 -0.0488
 3250DPPE   GL260856  13.513  35.756   5.027 -0.2701 -0.0373  0.1073
 3250DPPE   C1A60857  13.718  35.542   5.422 -0.0671 -0.0113 -0.3507
 3250DPPE   C2A60858  13.613  35.672   5.770  0.1508 -0.4765 -0.0238
 3250DPPE   C3A60859  13.774  35.726   6.227 -0.2103  0.0324  0.0402
 3250DPPE   C4A60860  13.713  35.945   6.625 -0.0098  0.2575  0.1498
 3250DPPE   C1B60861  13.291  35.793   5.352  0.0324 -0.2532 -0.0883
 3250DPPE   C2B60862  13.376  36.090   5.794 -0.1989  0.1545  0.0632
 3250DPPE   C3B60863  13.555  36.293   6.202 -0.3025 -0.1273  0.2766
 3250DPPE   C4B60864  13.505  36.386   6.696  0.6077  0.0803 -0.2508
 3251DPPE   NH360865   6.916  14.826  21.913 -0.2547  0.5700  0.2131
 3251DPPE   PO460866   6.760  15.305  21.871 -0.3617 -0.3425 -0.2221
 3251DPPE   GL160867   7.234  15.258  21.732 -0.1922  0.2502 -0.1108
 3251DPPE   GL260868   7.370  14.945  21.809 -0.1536  0.3326  0.3523
 3251DPPE   C1A60869   7.709  15.293  21.649  0.1923  0.1482 -0.2726
 3251DPPE   C2A60870   8.011  15.119  21.428 -0.3055  0.2209 -0.2306
 3251DPPE   C3A60871   8.382  15.195  21.262 -0.1519 -0.0935 -0.0351
 3251DPPE   C4A60872   8.839  15.303  21.365  0.0101 -0.0179  0.1228
 3251DPPE   C1B60873   7.715  14.763  21.497  0.0970  0.2970 -0.0873
 3251DPPE   C2B60874   7.885  14.443  21.320 -0.0574  0.1820  0.1776
 3251DPPE   C3B60875   8.324  14.171  21.311 -0.0714 -0.2949 -0.4010
 3251DPPE   C4B60876   8.532  13.897  21.342 -0.1805 -0.0598  0.1026
 3252DPPE   NH360877   1.245   4.634  15.835 -0.2713 -0.0055 -0.1751
 3252DPPE   PO460878   1.333   4.271  16.090  0.3297 -0.2634  0.1493
 3252DPPE   GL160879   1.714   4.424  15.933  0.3722 -0.0181 -0.0626
 3252DPPE   GL260880   1.740   4.614  16.012 -0.1309 -0.0225  0.0162
 3252DPPE   C1A60881   2.066   4.298  15.767  0.2838 -0.0796  0.1938
 3252DPPE   C2A60882   2.324   4.450  15.351 -0.0761  0.1465 -0.1057
 3252DPPE   C3A60883   2.622   4.721  15.251 -0.1960  0.1381 -0.0021
 3252DPPE   C4A60884   2.752   5.051  15.089  0.1576  0.0587  0.2289
 3252DPPE   C1B60885   2.122   4.733  15.971 -0.0530  0.0292  0.0937
 3252DPPE   C2B60886   2.393   4.787  15.770 -0.2577  0.1513  0.2290
 3252DPPE   C3B60887   2.850   4.976  15.663 -0.0818 -0.5262  0.1299
 3252DPPE   C4B60888   3.291   4.806  15.780  0.3057 -0.1015 -0.1333
 3253DPPE   NH360889   1.546   7.784  10.531  0.2276  0.0939  0.2559
 3253DPPE   PO460890   1.704   7.988  10.185  0.1764 -0.0219 -0.2031
 3253DPPE   GL160891   2.028   7.917  10.251 -0.1518  0.1327  0.0440
 3253DPPE   GL260892   2.043   7.846  10.606  0.1046 -0.1890  0.0330
 3253DPPE   C1A60893   2.367   8.216  10.440 -0.1717 -0.2299  0.0072
 3253DPPE   C2A60894   2.707   8.320  10.663  0.0405 -0.3347 -0.0820
 3253DPPE   C3A60895   3.186   8.220  10.631  0.2302 -0.0304  0.1338
 3253DPPE   C4A60896   3.446   7.984  10.915 -0.1994 -0.2700 -0.2175
 3253DPPE   C1B60897   2.453   7.755  10.788 -0.1573  0.1936  0.2069
 3253DPPE   C2B60898   2.868   7.881  10.890  0.5472  0.0459 -0.0341
 3253DPPE   C3B60899   3.052   7.868  11.335 -0.0509  0.0825 -0.0731
 3253DPPE   C4B60900   3.474   7.833  11.401  0.0931 -0.1781 -0.0429
 3254DPPE   NH360901  22.584   3.680   6.974 -0.0701 -0.4457 -0.0994
 3254DPPE   PO460902  22.882   3.772   7.309  0.0603 -0.1089  0.0120
 3254DPPE   GL160903  22.786   3.796   7.722  0.1355  0.1878  0.0461
 3254DPPE   GL260904  22.735   3.521   7.909  0.1203 -0.1004 -0.3386
 3254DPPE   C1A60905  22.516   3.998   8.006  0.0222 -0.3340  0.3151
 3254DPPE   C2A60906  22.359   3.984   8.383 -0.0850  0.1285 -0.0881
 3254DPPE   C3A60907  21.982   3.833   8.575  0.4326  0.1132  0.2115
 3254DPPE   C4A60908  21.617   3.788   8.781  0.0913 -0.3450  0.0098
 3254DPPE   C1B60909  22.643   3.426   8.380 -0.0811  0.1670 -0.2957
 3254DPPE   C2B60910  22.356   3.553   8.710  0.1299  0.1656 -0.0802
 3254DPPE   C3B60911  22.123   3.597   9.114  0.2583 -0.1401  0.3166
 3254DPPE   C4B60912  21.803   3.701   9.441  0.2116  0.0944  0.0590
 3255DPPE   NH360913  17.308   0.934  16.581 -0.1799  0.2493  0.1068
 3255DPPE   PO460914  17.140   1.116  16.211  0.0277 -0.0987  0.0962
 3255DPPE   GL160915  16.784   1.008  16.454  0.1306 -0.0919  0.3050
 3255DPPE   GL260916  16.419   1.135  16.354 -0.1407 -0.1014 -0.0261
 3255DPPE   C1A60917  16.546   0.835  16.807 -0.1310  0.4173 -0.0590
 3255DPPE   C2A60918  16.631   0.411  17.067 -0.1843 -0.1702 -0.0534
 3255DPPE   C3A60919  16.666   0.394  17.442 -0.1473  0.4907 -0.0025
 3255DPPE   C4A60920  16.823   0.264  17.824  0.2018 -0.1582 -0.2225
 3255DPPE   C1B60921  16.427   0.692  16.261 -0.2031  0.0502  0.1659
 3255DPPE   C2B60922  16.613   0.355  16.307  0.1132 -0.2229  0.0011
 3255DPPE   C3B60923  16.770  -0.028  16.049  0.0387 -0.2820  0.1116
 3255DPPE   C4B60924  16.657  -0.309  15.699 -0.1721 -0.0522 -0.0839
 3256DPPE   NH360925  18.640  14.168   9.067  0.0532  0.2354 -0.1655
 3256DPPE   PO460926  18.286  14.262   8.938 -0.2283 -0.0615 -0.0883
 3256DPPE   GL160927  18.258  14.594   8.650  0.1243  0.3394  0.0305
 3256DPPE   GL260928  17.922  14.573   8.618  0.0133 -0.1451  0.2574
 3256DPPE   C1A60929  18.313  14.824   8.260  0.3285 -0.0503 -0.1089
 3256DPPE   C2A60930  18.210  14.992   7.836  0.0212 -0.3362  0.2186
 3256DPPE   C3A60931  17.968  15.069   7.378 -0.0523  0.0946  0.0301
 3256DPPE   C4A60932  17.555  15.068   7.152  0.0578 -0.0870  0.0922
 3256DPPE   C1B60933  17.822  14.571   8.206 -0.0496  0.1382  0.1606
 3256DPPE   C2B60934  17.852  14.645   7.837 -0.1780  0.2598 -0.1104
 3256DPPE   C3B60935  17.832  14.576   7.379  0.1968  0.2482  0.2290
 3256DPPE   C4B60936  17.887  14.448   7.032 -0.0708 -0.2963  0.3250
 3257DPPE   NH360937  10.288  33.474   8.422  0.2758 -0.3913 -0.1053
 3257DPPE   PO460938  10.509  33.169   8.710 -0.2924  0.1028  0.0044
 3257DPPE   GL160939  10.588  33.560   8.936  0.1758 -0.0657 -0.1607
 3257DPPE   GL260940  10.325  33.866   8.729  0.0824  0.1860  0.3203
 3257DPPE   C1A60941  10.707  33.908   9.203 -0.1459 -0.0918  0.1986
 3257DPPE   C2A60942  11.127  33.964   9.317  0.0525 -0.1639  0.4445
 3257DPPE   C3A60943  11.472  34.333   9.375 -0.1965  0.1010 -0.0317
 3257DPPE   C4A60944  11.389  34.690   9.617  0.0797 -0.1179  0.0916
 3257DPPE   C1B60945  10.411  34.292   8.451 -0.0165 -0.3218 -0.3738
 3257DPPE   C2B60946  10.489  34.730   8.483  0.3047  0.1815  0.1992
 3257DPPE   C3B60947  10.764  34.965   8.505  0.0831  0.0395 -0.2257
 3257DPPE   C4B60948  10.872  34.871   8.915 -0.0177  0.0064  0.0392
 3258DPPE   NH360949  11.901  34.267   5.985  0.1505  0.1655  0.2549
 3258DPPE   PO460950  12.134  34.543   6.151 -0.2959 -0.2984 -0.0158
 3258DPPE   GL160951  12.194  34.525   6.552 -0.0492  0.1191 -0.0105
 3258DPPE   GL260952  12.016  34.541   6.673 -0.0303  0.1984 -0.2219
 3258DPPE   C1A60953  12.481  34.545   6.931  0.2513  0.1898 -0.3748
 3258DPPE   C2A60954  12.539  34.871   7.162  0.1163  0.2101  0.0484
 3258DPPE   C3A60955  12.493  35.210   7.214 -0.0475 -0.1888  0.3676
 3258DPPE   C4A60956  12.427  35.213   7.700  0.3265  0.0004  0.3504
 3258DPPE   C1B60957  11.929  34.521   7.083 -0.1802  0.0394  0.2941
 3258DPPE   C2B60958  11.648  34.832   7.292  0.2813  0.0521 -0.1654
 3258DPPE   C3B60959  11.445  35.237   7.245 -0.0821 -0.0948  0.2836
 3258DPPE   C4B60960  11.256  35.406   6.827 -0.2601 -0.1293 -0.1745
 3259DPPE   NH360961  12.958   8.433  10.678 -0.0820  0.0994  0.1639
 3259DPPE   PO460962  13.316   8.479  10.807  0.0643 -0.0696  0.2571
 3259DPPE   GL160963  13.367   8.122  10.536  0.1287  0.1057  0.2191
 3259DPPE   GL260964  13.414   7.827  10.602 -0.2970 -0.2069 -0.4649
 3259DPPE   C1A60965  13.041   7.925  10.336 -0.1070 -0.0192 -0.0158
 3259DPPE   C2A60966  12.642   7.704  10.201 -0.3596 -0.1711  0.1574
 3259DPPE   C3A60967  12.464   7.536   9.830  0.0631  0.1591  0.0142
 3259DPPE   C4A60968  12.210   7.465   9.387  0.0196 -0.3058 -0.0275
 3259DPPE   C1B60969  13.246   7.521  10.458  0.1551  0.1853 -0.2057
 3259DPPE   C2B60970  13.256   7.200  10.180  0.0987  0.0373  0.3451
 3259DPPE   C3B60971  13.019   6.879   9.944 -0.4313  0.0553 -0.2162
 3259DPPE   C4B60972  12.801   6.812   9.557  0.1212 -0.2604  0.0642
 3260DPPE   NH360973  23.495   9.811  19.580 -0.0863  0.0162  0.0983
 3260DPPE   PO460974  23.577   9.503  19.980  0.0936  0.0505  0.0729
 3260DPPE   GL160975  23.896   9.309  20.032 -0.0044 -0.1473  0.1845
 3260DPPE   GL260976  23.803   9.369  20.405  0.0696 -0.1543  0.0850
 3260DPPE   C1A60977  24.176   9.018  19.935 -0.0856  0.2076 -0.2484
 3260DPPE   C2A60978  24.462   8.670  20.108 -0.2826  0.0227  0.1010
 3260DPPE   C3A60979  24.721   8.282  20.266  0.2092  0.0768 -0.2455
 3260DPPE   C4A60980  25.096   8.207  20.568 -0.0024 -0.0658 -0.0509
 3260DPPE   C1B60981  24.232   9.398  20.497  0.1302 -0.1144  0.0620
 3260DPPE   C2B60982  24.484   9.188  20.352 -0.0156  0.0998  0.0081
 3260DPPE   C3B60983  24.893   9.279  20.275  0.0826 -0.0658 -0.1350
 3260DPPE   C4B60984  25.367   9.363  20.197  0.0172  0.0742 -0.0495
 3261DPPE   NH360985  21.248  18.175  24.707 -0.1228  0.1344 -0.1537
 3261DPPE   PO460986  20.806  18.314  24.820 -0.1245  0.1651  0.1892
 3261DPPE   GL160987  20.840  17.957  24.433  0.1121  0.0433  0.0914
 3261DPPE   GL260988  20.784  17.625  24.499  0.2000 -0.0817  0.1047
 3261DPPE   C1A60989  20.811  17.668  24.025 -0.1052  0.1528 -0.1069
 3261DPPE   C2A60990  20.577  17.417  23.758 -0.1041  0.2403  0.0371
 3261DPPE   C3A60991  20.520  17.155  23.351  0.2809  0.1084  0.1916
 3261DPPE   C4A60992  20.364  17.156  22.933  0.0011 -0.1664  0.1710
 3261DPPE   C1B60993  20.651  17.155  24.261  0.0803 -0.0796 -0.2305
 3261DPPE   C2B60994  20.321  17.044  23.919 -0.1516 -0.0812  0.1796
 3261DPPE   C3B60995  20.041  16.827  23.599 -0.1537  0.0706 -0.0143
 3261DPPE   C4B60996  19.804  16.615  23.541 -0.2963  0.0610 -0.3036
 3262DPPE   NH360997  13.478   7.350  11.258 -0.0527 -0.0260  0.1368
 3262DPPE   PO460998  13.350   7.772  11.143 -0.0667  0.1333 -0.0851
 3262DPPE   GL160999  12.933   7.695  10.850 -0.2117  0.1234  0.0061
 3262DPPE   GL261000  12.717   7.978  10.690 -0.0498 -0.6551  0.4141
 3262DPPE   C1A61001  12.790   7.373  10.561  0.2847 -0.2436 -0.3875
 3262DPPE   C2A61002  12.584   7.110  10.108  0.0974  0.0018  0.1955
 3262DPPE   C3A61003  12.321   7.078   9.711 -0.1667 -0.3345 -0.0534
 3262DPPE   C4A61004  12.216   6.991   9.360 -0.4226  0.0010  0.1889
 3262DPPE   C1B61005  12.330   8.011  10.384 -0.0011  0.3131 -0.0774
 3262DPPE   C2B61006  12.189   7.834  10.083 -0.0421 -0.1543  0.1982
 3262DPPE   C3B61007  12.081   7.834   9.661  0.0430  0.1642 -0.3366
 3262DPPE   C4B61008  11.722   7.659   9.596  0.0029 -0.0251 -0.1229
 3263DPPE   NH361009   8.858  14.326  17.406 -0.2138  0.1551 -0.0313
 3263DPPE   PO461010   8.683  13.999  17.177 -0.1493 -0.0762  0.0345
 3263DPPE   GL161011   8.323  13.888  17.308  0.1888 -0.0762 -0.2082
 3263DPPE   GL261012   8.066  13.690  17.221  0.0173 -0.0502  0.2491
 3263DPPE   C1A61013   7.974  14.105  17.422 -0.1215 -0.0561 -0.1114
 3263DPPE   C2A61014   7.885  14.471  17.462  0.0141  0.1935 -0.3021
 3263DPPE   C3A61015   7.752  14.820  17.662 -0.0118 -0.0836 -0.2427
 3263DPPE   C4A61016   7.698  15.060  18.003  0.2530  0.3393 -0.0982
 3263DPPE   C1B61017   7.711  13.919  16.985  0.0411  0.0233 -0.1817
 3263DPPE   C2B61018   7.284  13.853  16.640 -0.3417 -0.1778 -0.0141
 3263DPPE   C3B61019   6.890  13.845  16.504 -0.2511  0.5918  0.1962
 3263DPPE   C4B61020   6.562  14.093  16.426  0.0446 -0.0206  0.1427
 3264DPPE   NH361021  14.733   4.991  12.346 -0.1986  0.2290 -0.1566
 3264DPPE   PO461022  14.307   4.773  12.385  0.0905  0.0972  0.0902
 3264DPPE   GL161023  14.279   4.505  12.100  0.0423  0.2048 -0.2200
 3264DPPE   GL261024  14.317   4.211  12.205 -0.3471 -0.2368  0.1464
 3264DPPE   C1A61025  13.979   4.522  11.688  0.0794  0.2199 -0.0214
 3264DPPE   C2A61026  13.784   4.222  11.405  0.0648  0.1299 -0.0692
 3264DPPE   C3A61027  13.851   4.107  11.014  0.4410  0.4471 -0.1598
 3264DPPE   C4A61028  13.698   3.862  10.507 -0.1612  0.2553  0.1597
 3264DPPE   C1B61029  14.154   4.047  11.803  0.0312  0.1274 -0.4424
 3264DPPE   C2B61030  14.060   3.786  11.422 -0.2759  0.4753 -0.0619
 3264DPPE   C3B61031  13.979   3.532  11.122 -0.0055  0.0412  0.2357
 3264DPPE   C4B61032  13.620   3.277  11.034 -0.1402 -0.0321  0.1313
 3265DPPE   NH361033  27.275   5.944  12.156 -0.2237  0.0690 -0.1277
 3265DPPE   PO461034  27.183   6.174  11.895  0.1233 -0.1591  0.0855
 3265DPPE   GL161035  26.952   6.282  12.285 -0.0868  0.2337 -0.0742
 3265DPPE   GL261036  26.847   6.585  12.285 -0.1014 -0.0592 -0.1696
 3265DPPE   C1A61037  26.663   6.315  12.634  0.1416  0.0524 -0.2350
 3265DPPE   C2A61038  26.207   6.428  12.819 -0.0863 -0.2290  0.1164
 3265DPPE   C3A61039  25.878   6.821  12.787  0.1888 -0.3408  0.2404
 3265DPPE   C4A61040  25.667   7.202  13.096  0.0874 -0.0656 -0.3200
 3265DPPE   C1B61041  26.510   6.857  12.422 -0.0337 -0.1749 -0.0046
 3265DPPE   C2B61042  26.186   7.164  12.393 -0.2390  0.0385  0.2704
 3265DPPE   C3B61043  25.711   7.287  12.567  0.0512 -0.1152 -0.1374
 3265DPPE   C4B61044  25.296   7.134  12.705  0.0448  0.2947  0.7268
 3266DPPE   NH361045  17.003   0.952  15.203  0.0313  0.0835  0.1097
 3266DPPE   PO461046  17.296   0.764  15.229 -0.1431 -0.1841  0.1225
 3266DPPE   GL161047  17.093   0.342  15.251  0.2336  0.2092 -0.2701
 3266DPPE   GL261048  16.812   0.488  15.084  0.2325  0.0636  0.2206
 3266DPPE   C1A61049  16.694   0.112  15.412 -0.0388  0.2581 -0.2543
 3266DPPE   C2A61050  16.272  -0.038  15.426  0.0473 -0.2644 -0.0165
 3266DPPE   C3A61051  15.883  -0.198  15.360 -0.0015 -0.0332  0.1535
 3266DPPE   C4A61052  15.382  -0.335  15.361  0.4605 -0.2103  0.2470
 3266DPPE   C1B61053  16.719  -0.029  14.951  0.0103 -0.0381  0.1982
 3266DPPE   C2B61054  16.713  -0.466  15.186 -0.2070 -0.2295 -0.2807
 3266DPPE   C3B61055  16.806  -0.814  15.489 -0.0595  0.0898 -0.0541
 3266DPPE   C4B61056  16.984  -1.201  15.320 -0.0407 -0.0855 -0.1804
 3267DPPE   NH361057  26.617  18.015  16.513 -0.1347  0.1712 -0.4695
 3267DPPE   PO461058  26.666  18.058  16.127 -0.2360 -0.1000  0.2305
 3267DPPE   GL161059  26.368  17.676  16.196  0.1889 -0.1612  0.4422
 3267DPPE   GL261060  26.291  17.443  16.416  0.2409  0.3743 -0.1666
 3267DPPE   C1A61061  25.905  17.569  16.088  0.0283 -0.1846 -0.1425
 3267DPPE   C2A61062  25.481  17.415  15.896 -0.0999  0.1571  0.0933
 3267DPPE   C3A61063  25.054  17.505  15.639  0.2135 -0.3093  0.1231
 3267DPPE   C4A61064  24.580  17.734  15.588  0.5302 -0.0660 -0.2432
 3267DPPE   C1B61065  26.041  17.523  16.825  0.0333 -0.1135  0.0005
 3267DPPE   C2B61066  25.893  17.415  17.217  0.0302 -0.2053  0.2412
 3267DPPE   C3B61067  25.703  17.089  17.465 -0.2409  0.1273 -0.2168
 3267DPPE   C4B61068  25.876  17.034  17.916 -0.2085 -0.2076  0.1040
 3268DPPE   NH361069  26.586  10.007  22.625  0.0390  0.1148 -0.1783
 3268DPPE   PO461070  26.724  10.364  22.480 -0.0124 -0.1877  0.0410
 3268DPPE   GL161071  26.326  10.360  22.311  0.0418  0.0736 -0.1363
 3268DPPE   GL261072  26.244  10.642  22.120  0.2352  0.0821 -0.0474
 3268DPPE   C1A61073  26.102  10.093  22.198  0.1599 -0.0481 -0.2815
 3268DPPE   C2A61074  25.656   9.999  22.051  0.2567  0.1331  0.0444
 3268DPPE   C3A61075  25.294   9.773  21.851 -0.1189  0.1892 -0.2050
 3268DPPE   C4A61076  25.133   9.492  21.767 -0.0993  0.5421  0.2645
 3268DPPE   C1B61077  25.868  10.478  21.905 -0.2176  0.0591  0.1174
 3268DPPE   C2B61078  25.519  10.351  21.689 -0.0399  0.2395 -0.2152
 3268DPPE   C3B61079  25.178  10.281  21.668  0.3028  0.0419 -0.1558
 3268DPPE   C4B61080  24.828   9.966  21.794 -0.4271  0.1710 -0.0189
 3269DPPE   NH361081  21.143   9.426  26.597  0.4625 -0.2068  0.0397
 3269DPPE   PO461082  21.235   8.958  26.546  0.0783  0.0879  0.2195
 3269DPPE   GL161083  20.877   8.742  26.301  0.1233 -0.1532 -0.1124
 3269DPPE   GL261084  20.887   8.406  26.311  0.0867 -0.3223 -0.1951
 3269DPPE   C1A61085  20.696   8.655  25.889 -0.0130 -0.0633 -0.3588
 3269DPPE   C2A61086  20.664   8.662  25.475 -0.2308  0.0599 -0.1909
 3269DPPE   C3A61087  20.724   8.773  25.015  0.2281  0.2696  0.1775
 3269DPPE   C4A61088  20.625   9.011  24.513  0.1676 -0.1345  0.0824
 3269DPPE   C1B61089  21.286   8.341  26.035  0.2727  0.3347  0.0587
 3269DPPE   C2B61090  21.300   8.481  25.670 -0.0243 -0.0712  0.3120
 3269DPPE   C3B61091  21.089   8.478  25.257 -0.1089  0.3394  0.0343
 3269DPPE   C4B61092  20.992   8.352  24.795  0.0683 -0.1021 -0.0680
 3270DPPE   NH361093  15.098  20.577  23.863  0.0523  0.2367  0.0618
 3270DPPE   PO461094  14.843  20.781  23.562 -0.1122 -0.0270 -0.0604
 3270DPPE   GL161095  15.094  20.474  23.305  0.2227 -0.0018  0.2155
 3270DPPE   GL261096  15.417  20.416  23.435  0.2244  0.0953  0.0973
 3270DPPE   C1A61097  15.155  19.992  23.192 -0.0369 -0.1230 -0.0110
 3270DPPE   C2A61098  15.274  19.750  22.885 -0.1029  0.0812 -0.0423
 3270DPPE   C3A61099  15.410  19.328  22.894 -0.0279  0.0998  0.0796
 3270DPPE   C4A61100  15.809  19.070  22.947  0.1556 -0.0555 -0.3761
 3270DPPE   C1B61101  15.449  20.337  22.984 -0.0167 -0.0887  0.0603
 3270DPPE   C2B61102  15.524  20.430  22.566  0.1835  0.2624  0.0375
 3270DPPE   C3B61103  15.718  20.222  22.217  0.2889 -0.1565 -0.0904
 3270DPPE   C4B61104  15.539  19.955  21.980  0.0188  0.3266 -0.0237
 3271DPPE   NH361105  20.936   9.226   9.927 -0.1748  0.0478  0.4088
 3271DPPE   PO461106  21.383   9.108   9.852  0.1257  0.4007 -0.1852
 3271DPPE   GL161107  21.536   9.270   9.504  0.1007  0.3146 -0.1515
 3271DPPE   GL261108  21.778   9.406   9.570  0.0518 -0.2359 -0.0531
 3271DPPE   C1A61109  21.419   9.252   9.112 -0.3515  0.3702 -0.0893
 3271DPPE   C2A61110  21.855   9.064   8.928  0.0787  0.0994  0.1312
 3271DPPE   C3A61111  22.155   8.978   8.570  0.1484 -0.1472 -0.2246
 3271DPPE   C4A61112  22.058   8.586   8.440  0.2186  0.2128  0.2852
 3271DPPE   C1B61113  22.221   9.462   9.470  0.2107  0.1663 -0.2520
 3271DPPE   C2B61114  22.457   9.600   9.298 -0.0374  0.1370 -0.1732
 3271DPPE   C3B61115  22.923   9.583   9.279  0.0259 -0.1710 -0.1519
 3271DPPE   C4B61116  23.124   9.805   9.498  0.1554 -0.1823  0.1807
 3272DPPE   NH361117  10.055  36.360  20.326 -0.0256  0.2281 -0.2773
 3272DPPE   PO461118  10.027  36.710  20.621  0.0028 -0.0341  0.0881
 3272DPPE   GL161119  10.001  37.066  20.316  0.0003  0.1325  0.2845
 3272DPPE   GL261120   9.960  37.284  20.468 -0.1514  0.0367 -0.1610
 3272DPPE   C1A61121   9.989  37.210  19.890  0.2898  0.0923  0.0442
 3272DPPE   C2A61122   9.774  37.660  19.914  0.2528 -0.2145  0.0118
 3272DPPE   C3A61123   9.474  37.917  20.211 -0.1369 -0.0881 -0.3174
 3272DPPE   C4A61124   9.441  38.271  20.304 -0.0591  0.1896  0.0352
 3272DPPE   C1B61125  10.048  37.704  20.420 -0.0354  0.0234 -0.0460
 3272DPPE   C2B61126   9.930  38.046  20.152 -0.1158 -0.0014 -0.0964
 3272DPPE   C3B61127   9.849  38.333  19.962  0.1678 -0.1544  0.1348
 3272DPPE   C4B61128  10.112  38.649  19.807 -0.0744 -0.0561  0.3830
 3273DPPE   NH361129  24.220   4.605   8.779  0.0798  0.2469 -0.1442
 3273DPPE   PO461130  24.581   4.898   8.536  0.2570 -0.0468  0.1515
 3273DPPE   GL161131  24.323   5.119   8.844  0.2133 -0.0223  0.0341
 3273DPPE   GL261132  24.143   5.458   8.748 -0.1525  0.1290 -0.1073
 3273DPPE   C1A61133  24.097   5.113   9.187  0.1594  0.0591 -0.0532
 3273DPPE   C2A61134  23.860   5.063   9.513  0.2293  0.2386 -0.0490
 3273DPPE   C3A61135  23.425   4.891   9.626  0.2158  0.0498  0.0007
 3273DPPE   C4A61136  23.204   4.859  10.008  0.0583  0.1718  0.0844
 3273DPPE   C1B61137  23.821   5.197   8.766 -0.2078 -0.0048 -0.1188
 3273DPPE   C2B61138  23.697   4.860   9.064  0.2776  0.1006 -0.2405
 3273DPPE   C3B61139  23.767   4.619   9.366  0.1007  0.0128 -0.1283
 3273DPPE   C4B61140  23.641   4.239   9.615 -0.3373 -0.2321 -0.1140
 3274DPPE   NH361141  20.890  15.297  26.089 -0.0671  0.0907 -0.0708
 3274DPPE   PO461142  20.837  15.677  25.836 -0.1928 -0.3096  0.3025
 3274DPPE   GL161143  20.458  15.525  25.833  0.0615  0.0993  0.0219
 3274DPPE   GL261144  20.372  15.175  25.938  0.1487  0.2025 -0.0672
 3274DPPE   C1A61145  20.099  15.594  25.675 -0.1460  0.0575  0.1370
 3274DPPE   C2A61146  19.952  15.425  25.249  0.1012  0.2642 -0.1760
 3274DPPE   C3A61147  19.866  15.304  24.824 -0.2811 -0.0125 -0.0329
 3274DPPE   C4A61148  19.559  15.597  24.703  0.0451 -0.0574  0.0017
 3274DPPE   C1B61149  20.378  15.138  25.508 -0.0342  0.1798  0.2678
 3274DPPE   C2B61150  20.181  14.986  25.034 -0.3768 -0.1051 -0.2053
 3274DPPE   C3B61151  20.269  14.983  24.574 -0.0093 -0.0015  0.1245
 3274DPPE   C4B61152  20.161  14.961  24.192 -0.0846 -0.0404  0.1346
 3275DPPE   NH361153   8.932  15.972   8.585 -0.2050  0.0373 -0.0819
 3275DPPE   PO461154   9.082  15.958   8.178 -0.1633 -0.0025  0.1168
 3275DPPE   GL161155   9.413  15.788   8.520 -0.0166  0.0017  0.0648
 3275DPPE   GL261156   9.308  15.811   8.846 -0.2089  0.1947  0.2565
 3275DPPE   C1A61157   9.829  15.541   8.494 -0.0603  0.1684 -0.3036
 3275DPPE   C2A61158  10.203  15.433   8.503 -0.1614  0.1274  0.0517
 3275DPPE   C3A61159  10.411  14.933   8.449 -0.0332 -0.0130 -0.1439
 3275DPPE   C4A61160  10.828  14.742   8.635 -0.2735  0.0619 -0.1562
 3275DPPE   C1B61161   9.654  15.681   9.231 -0.0182 -0.1577 -0.1345
 3275DPPE   C2B61162   9.714  15.694   9.697 -0.1551  0.2186  0.0973
 3275DPPE   C3B61163   9.904  15.948  10.040 -0.0999  0.0119 -0.1367
 3275DPPE   C4B61164  10.129  16.260  10.306  0.0664  0.0696  0.1706
 3276DPPE   NH361165   2.691  11.837   8.365 -0.1229  0.2887 -0.2557
 3276DPPE   PO461166   2.351  11.863   8.584  0.2295  0.0450  0.0181
 3276DPPE   GL161167   2.627  11.787   8.931 -0.0377 -0.1419  0.0039
 3276DPPE   GL261168   2.996  11.698   8.847 -0.3571  0.1602 -0.4519
 3276DPPE   C1A61169   2.857  11.528   9.271 -0.3195  0.4048  0.0766
 3276DPPE   C2A61170   3.112  11.353   9.614 -0.0699 -0.1279  0.2944
 3276DPPE   C3A61171   3.303  11.044   9.843 -0.0221  0.0582 -0.0100
 3276DPPE   C4A61172   3.452  11.216  10.160 -0.2577  0.0613 -0.0202
 3276DPPE   C1B61173   3.365  11.430   9.087  0.3878 -0.3631  0.3137
 3276DPPE   C2B61174   3.766  11.488   9.128 -0.2147  0.0066  0.1779
 3276DPPE   C3B61175   4.155  11.492   9.218  0.1676  0.0871  0.0435
 3276DPPE   C4B61176   4.524  11.665   9.434 -0.0046  0.0562  0.2046
 3277DPPE   NH361177  21.351  35.535  12.521 -0.0562 -0.2327  0.1581
 3277DPPE   PO461178  21.717  35.732  12.789  0.0050 -0.1769  0.2317
 3277DPPE   GL161179  21.309  36.005  12.926 -0.3474  0.1755 -0.4648
 3277DPPE   GL261180  21.023  35.908  13.076  0.1424 -0.2485  0.4465
 3277DPPE   C1A61181  21.328  36.315  13.215 -0.1588 -0.1623  0.0240
 3277DPPE   C2A61182  21.333  36.324  13.553 -0.1815 -0.3931  0.0234
 3277DPPE   C3A61183  21.639  36.263  13.889 -0.0047  0.1188  0.0369
 3277DPPE   C4A61184  22.071  36.362  13.863  0.2139 -0.1777 -0.0461
 3277DPPE   C1B61185  20.697  36.285  13.044 -0.2556 -0.1028 -0.1094
 3277DPPE   C2B61186  20.229  36.291  12.774  0.1569  0.0990 -0.2258
 3277DPPE   C3B61187  20.016  36.313  12.414  0.1798 -0.0579  0.0812
 3277DPPE   C4B61188  20.142  36.469  12.020 -0.2502 -0.2051 -0.3348
 3278DPPE   NH361189   0.566   7.534  11.376  0.0544 -0.2389 -0.3251
 3278DPPE   PO461190   1.078   7.543  11.320 -0.0407 -0.0828  0.0321
 3278DPPE   GL161191   1.319   7.450  11.584  0.1235 -0.1134 -0.0279
 3278DPPE   GL261192   1.373   7.094  11.531 -0.3364 -0.2337 -0.4313
 3278DPPE   C1A61193   1.449   7.742  11.894  0.0597 -0.2366 -0.2444
 3278DPPE   C2A61194   1.820   7.831  12.017  0.0402 -0.1416  0.0761
 3278DPPE   C3A61195   2.250   7.870  12.067  0.1309 -0.0194  0.1140
 3278DPPE   C4A61196   2.694   7.878  12.176  0.0296  0.1367  0.1165
 3278DPPE   C1B61197   1.550   6.727  11.815  0.2741 -0.3525  0.0073
 3278DPPE   C2B61198   1.887   6.389  11.760 -0.1594  0.0092 -0.0507
 3278DPPE   C3B61199   1.949   6.316  12.138 -0.0495  0.0068 -0.1207
 3278DPPE   C4B61200   2.025   6.143  12.528  0.1967  0.0544  0.7070
 3279DPPE   NH361201  12.356   5.716  12.401 -0.2688  0.3562 -0.3115
 3279DPPE   PO461202  12.646   5.997  12.216  0.0551  0.0208  0.1688
 3279DPPE   GL161203  12.354   5.829  11.927 -0.1863  0.0909 -0.1060
 3279DPPE   GL261204  12.172   5.460  11.977 -0.2943 -0.1646 -0.2720
 3279DPPE   C1A61205  12.483   5.713  11.438  0.3571  0.0052  0.3408
 3279DPPE   C2A61206  12.120   5.392  11.379 -0.1309  0.1064  0.0705
 3279DPPE   C3A61207  11.887   5.138  11.299  0.0805 -0.0837  0.0957
 3279DPPE   C4A61208  11.693   4.685  11.316  0.3149  0.1310 -0.1046
 3279DPPE   C1B61209  11.872   5.159  11.869 -0.3245  0.0918  0.3047
 3279DPPE   C2B61210  11.533   5.212  11.655 -0.0731 -0.1263 -0.0067
 3279DPPE   C3B61211  11.361   5.284  11.275 -0.1224 -0.3056  0.1862
 3279DPPE   C4B61212  11.154   5.258  10.964 -0.0558 -0.0543  0.0381
 3280DPPE   NH361213   8.736  11.415   7.986 -0.4366 -0.0599  0.0662
 3280DPPE   PO461214   8.687  11.671   7.604 -0.1558 -0.0076 -0.0248
 3280DPPE   GL161215   8.688  12.127   7.677 -0.0675 -0.3980 -0.1324
 3280DPPE   GL261216   8.392  12.266   7.718  0.2662  0.2454 -0.1867
 3280DPPE   C1A61217   8.681  12.670   7.769  0.0433 -0.0009  0.3176
 3280DPPE   C2A61218   8.724  13.017   7.795  0.2149 -0.1738  0.0197
 3280DPPE   C3A61219   8.564  13.306   8.025 -0.1396 -0.1045  0.0367
 3280DPPE   C4A61220   8.185  13.508   8.005 -0.0363  0.1000  0.2328
 3280DPPE   C1B61221   8.041  12.448   7.757  0.2228  0.0181 -0.2045
 3280DPPE   C2B61222   7.732  12.700   7.981  0.1799 -0.1702  0.0193
 3280DPPE   C3B61223   7.409  12.850   7.999 -0.1674 -0.0162  0.1305
 3280DPPE   C4B61224   7.141  13.179   7.777 -0.0102 -0.1328  0.1337
 3281DPPE   NH361225   6.990   9.623  11.196  0.2179 -0.0928 -0.2009
 3281DPPE   PO461226   7.018   9.992  10.955 -0.1879  0.2349 -0.0422
 3281DPPE   GL161227   7.447  10.108  11.030 -0.1731  0.0697 -0.0015
 3281DPPE   GL261228   7.300  10.011  11.388 -0.2963 -0.1326 -0.0224
 3281DPPE   C1A61229   7.802   9.943  11.203  0.5330  0.2569  0.2947
 3281DPPE   C2A61230   8.173   9.933  11.298  0.1132 -0.0498 -0.0423
 3281DPPE   C3A61231   8.387   9.957  11.032  0.1284  0.1826  0.1142
 3281DPPE   C4A61232   8.764  10.068  10.891 -0.0130 -0.0596  0.1971
 3281DPPE   C1B61233   7.590  10.020  11.682 -0.0110  0.0220 -0.0436
 3281DPPE   C2B61234   8.034  10.133  11.775  0.7874 -0.0694  0.1156
 3281DPPE   C3B61235   8.410   9.855  11.720 -0.0784 -0.0789 -0.1385
 3281DPPE   C4B61236   8.746   9.623  11.349 -0.0334  0.1035  0.0165
 3282DPPE   NH361237  11.642  35.169  13.580  0.1317  0.2517 -0.2034
 3282DPPE   PO461238  11.642  35.497  13.263 -0.1521 -0.0994  0.0096
 3282DPPE   GL161239  11.607  35.156  13.040  0.2604 -0.5174 -0.0912
 3282DPPE   GL261240  11.258  35.117  12.849  0.2354  0.0542 -0.2923
 3282DPPE   C1A61241  11.347  34.649  13.003 -0.0224 -0.2898  0.0492
 3282DPPE   C2A61242  11.225  34.283  13.340  0.1002  0.0511  0.0826
 3282DPPE   C3A61243  11.205  34.058  13.632 -0.0458 -0.3835  0.0479
 3282DPPE   C4A61244  11.525  33.895  13.942  0.0374  0.1624  0.3573
 3282DPPE   C1B61245  10.934  34.939  12.657  0.0639 -0.2814  0.0299
 3282DPPE   C2B61246  10.679  34.590  12.594  0.0608 -0.1540  0.2196
 3282DPPE   C3B61247  10.238  34.625  12.547 -0.0818 -0.2098 -0.2524
 3282DPPE   C4B61248   9.717  34.738  12.573 -0.0096  0.1258 -0.0282
 3283DPPE   NH361249  13.722  35.990  13.309 -0.1029 -0.0563 -0.0901
 3283DPPE   PO461250  13.951  36.144  12.978  0.1701 -0.0063  0.2400
 3283DPPE   GL161251  14.195  36.186  13.239  0.0165  0.1267 -0.0732
 3283DPPE   GL261252  14.451  35.954  13.367 -0.2612 -0.1941 -0.2219
 3283DPPE   C1A61253  14.317  36.539  13.601  0.1176  0.2372  0.0655
 3283DPPE   C2A61254  14.429  36.784  13.910 -0.0437  0.1629  0.0745
 3283DPPE   C3A61255  14.706  37.047  14.259 -0.0691  0.2776  0.0237
 3283DPPE   C4A61256  14.573  37.379  14.425  0.1088 -0.2591 -0.2252
 3283DPPE   C1B61257  14.684  36.324  13.308 -0.0098 -0.1155 -0.0419
 3283DPPE   C2B61258  14.860  36.698  13.104 -0.2857  0.4188  0.1979
 3283DPPE   C3B61259  14.804  37.115  13.059 -0.0071 -0.2495 -0.0498
 3283DPPE   C4B61260  15.019  37.432  13.272  0.0587  0.0751 -0.1278
 3284DPPE   NH361261  13.322   8.077   4.354  0.0484 -0.3081  0.0054
 3284DPPE   PO461262  13.518   7.629   4.379  0.0479  0.2196 -0.0573
 3284DPPE   GL161263  13.304   7.587   4.060  0.1581  0.0244  0.2634
 3284DPPE   GL261264  13.391   7.950   3.900 -0.0556  0.1571 -0.2956
 3284DPPE   C1A61265  13.208   7.366   3.638 -0.0400  0.1792 -0.3092
 3284DPPE   C2A61266  13.262   7.436   3.197 -0.0315 -0.0665 -0.0783
 3284DPPE   C3A61267  13.314   7.703   2.863  0.1434  0.0733  0.1278
 3284DPPE   C4A61268  12.941   7.838   2.584 -0.3512 -0.0152  0.2245
 3284DPPE   C1B61269  13.752   8.067   3.663 -0.3999  0.1416  0.0832
 3284DPPE   C2B61270  14.072   7.794   3.435 -0.4365  0.0475  0.0190
 3284DPPE   C3B61271  14.109   7.323   3.305 -0.3536  0.0938 -0.1616
 3284DPPE   C4B61272  14.227   6.904   3.226 -0.0887  0.1095 -0.0921
 3285DPPE   NH361273  11.587   8.412   5.043 -0.3992 -0.1027 -0.3103
 3285DPPE   PO461274  11.456   8.142   5.375  0.2203 -0.2361 -0.2717
 3285DPPE   GL161275  11.323   8.018   4.950  0.1348  0.2930  0.0922
 3285DPPE   GL261276  11.217   8.250   4.689 -0.0011  0.0421  0.4538
 3285DPPE   C1A61277  11.491   7.908   4.470  0.2346 -0.1043 -0.0753
 3285DPPE   C2A61278  11.333   7.801   4.088  0.1864 -0.0450  0.1008
 3285DPPE   C3A61279  11.297   7.644   3.697 -0.1226 -0.0884  0.3025
 3285DPPE   C4A61280  11.298   7.762   3.268  0.1105  0.0880 -0.2086
 3285DPPE   C1B61281  10.998   8.273   4.375  0.1875 -0.4093  0.0813
 3285DPPE   C2B61282  10.813   8.047   4.103  0.1959 -0.2211 -0.3282
 3285DPPE   C3B61283  10.428   7.865   3.909 -0.1330 -0.1852  0.2235
 3285DPPE   C4B61284  10.016   7.637   3.829 -0.0310  0.0189 -0.1294
 3286DPPE   NH361285   6.572   3.153  15.951  0.2822 -0.1065  0.2143
 3286DPPE   PO461286   6.280   3.059  16.248 -0.0501 -0.4853 -0.0116
 3286DPPE   GL161287   5.822   2.873  16.393 -0.0938  0.2322 -0.2121
 3286DPPE   GL261288   5.524   2.919  16.320  0.1625  0.0954 -0.2221
 3286DPPE   C1A61289   5.667   2.591  16.703 -0.1588 -0.1101 -0.0901
 3286DPPE   C2A61290   5.619   2.716  17.117  0.2823 -0.2411  0.0825
 3286DPPE   C3A61291   5.338   2.488  17.362 -0.1837 -0.2033  0.2009
 3286DPPE   C4A61292   5.378   2.243  17.630 -0.1375 -0.0809 -0.1537
 3286DPPE   C1B61293   5.513   2.525  16.223 -0.3660 -0.3295 -0.0329
 3286DPPE   C2B61294   5.842   2.266  16.344 -0.2315  0.1754  0.0806
 3286DPPE   C3B61295   5.946   1.945  16.537 -0.0688  0.1244  0.1476
 3286DPPE   C4B61296   5.718   1.660  16.752 -0.0827  0.1562  0.0812
 3287DPPE   NH361297  12.886  34.872  12.411  0.1236  0.2685  0.2229
 3287DPPE   PO461298  12.590  34.947  12.625  0.2972  0.1294  0.0117
 3287DPPE   GL161299  12.590  34.542  12.634 -0.3276  0.1953  0.0951
 3287DPPE   GL261300  12.691  34.408  12.479  0.1055 -0.1035 -0.2576
 3287DPPE   C1A61301  12.821  34.191  12.932 -0.0008  0.0734 -0.1360
 3287DPPE   C2A61302  12.974  33.682  12.906 -0.2673 -0.2260 -0.0273
 3287DPPE   C3A61303  13.355  33.566  13.191  0.1111 -0.1252  0.1380
 3287DPPE   C4A61304  13.329  33.512  13.565 -0.2265  0.2411  0.4591
 3287DPPE   C1B61305  12.256  34.006  12.444 -0.2439  0.0687 -0.0483
 3287DPPE   C2B61306  11.947  33.707  12.387  0.1315 -0.2473 -0.1260
 3287DPPE   C3B61307  11.617  33.403  12.640 -0.0594  0.3516 -0.0727
 3287DPPE   C4B61308  11.340  33.243  12.379 -0.1855  0.1463 -0.2228
 3288DPPE   NH361309   6.354   4.605  17.705  0.2015  0.0529  0.2111
 3288DPPE   PO461310   6.673   4.309  17.594 -0.2305 -0.1891 -0.3272
 3288DPPE   GL161311   6.716   4.403  18.028 -0.1779 -0.0798  0.0803
 3288DPPE   GL261312   6.707   4.663  18.100 -0.1515  0.0821 -0.1198
 3288DPPE   C1A61313   6.747   4.194  18.369  0.0048 -0.0677 -0.1448
 3288DPPE   C2A61314   6.722   4.345  18.764 -0.3778 -0.1255  0.0369
 3288DPPE   C3A61315   6.681   4.709  19.061 -0.1849  0.1503 -0.1697
 3288DPPE   C4A61316   6.539   5.019  19.144 -0.1991  0.2169 -0.0232
 3288DPPE   C1B61317   6.763   4.741  18.433 -0.1117 -0.0621  0.0061
 3288DPPE   C2B61318   6.694   5.084  18.645 -0.0797 -0.0404  0.1503
 3288DPPE   C3B61319   6.954   5.356  18.960  0.1048  0.1879 -0.1421
 3288DPPE   C4B61320   6.973   5.747  19.227 -0.2076 -0.1434 -0.0828
 3289DPPE   NH361321   4.714   7.704  13.012  0.4156 -0.2066 -0.1560
 3289DPPE   PO461322   4.696   7.945  13.271 -0.1322  0.0894 -0.1145
 3289DPPE   GL161323   4.386   8.219  13.222 -0.1466  0.1791 -0.1209
 3289DPPE   GL261324   4.302   8.502  13.258  0.0623  0.1408  0.2469
 3289DPPE   C1A61325   3.919   8.157  13.179 -0.0988  0.0350 -0.0685
 3289DPPE   C2A61326   3.527   8.082  13.106 -0.0557  0.0480  0.0183
 3289DPPE   C3A61327   3.072   8.103  13.115  0.0790 -0.0987  0.0217
 3289DPPE   C4A61328   2.878   8.488  13.057 -0.3449  0.1778  0.1717
 3289DPPE   C1B61329   4.321   8.828  13.000 -0.1176  0.1887  0.0055
 3289DPPE   C2B61330   4.297   9.259  12.772 -0.0446  0.4476 -0.0070
 3289DPPE   C3B61331   3.889   9.491  12.803  0.1773 -0.3126 -0.0868
 3289DPPE   C4B61332   3.509   9.833  12.820  0.3140  0.2368  0.1684
 3290DPPE   NH361333  12.979   0.677  10.195  0.4140  0.0440 -0.2825
 3290DPPE   PO461334  13.272   0.898   9.889 -0.1092 -0.1781 -0.4151
 3290DPPE   GL161335  13.353   1.291  10.029  0.0832 -0.0771  0.2664
 3290DPPE   GL261336  13.317   1.336  10.395  0.1679  0.0051 -0.1179
 3290DPPE   C1A61337  13.371   1.749  10.053  0.2951  0.0206  0.0201
 3290DPPE   C2A61338  13.395   2.168  10.322 -0.2334  0.1508  0.1433
 3290DPPE   C3A61339  13.418   2.546  10.403 -0.1576 -0.0460 -0.1615
 3290DPPE   C4A61340  13.483   2.955  10.673  0.1998 -0.1871 -0.1238
 3290DPPE   C1B61341  13.479   1.763  10.534 -0.0685 -0.1014 -0.5325
 3290DPPE   C2B61342  13.511   2.113  10.845  0.2390  0.0462  0.1043
 3290DPPE   C3B61343  13.726   2.533  10.779  0.0997 -0.0645 -0.4127
 3290DPPE   C4B61344  13.962   2.878  10.886  0.0228 -0.0286  0.1062
 3291DPPE   NH361345   5.663   7.902  11.146 -0.2439 -0.0169  0.3456
 3291DPPE   PO461346   5.455   7.688  11.405 -0.0176  0.2899 -0.3728
 3291DPPE   GL161347   5.153   7.945  11.221 -0.0752  0.2252 -0.1279
 3291DPPE   GL261348   5.237   8.101  11.016  0.2213  0.0830 -0.1409
 3291DPPE   C1A61349   4.646   7.895  11.201 -0.0959  0.1359  0.2765
 3291DPPE   C2A61350   4.282   8.009  11.017  0.0173 -0.0265  0.2336
 3291DPPE   C3A61351   3.983   8.123  10.856 -0.1628  0.1292  0.1357
 3291DPPE   C4A61352   3.813   8.268  10.580  0.1479 -0.0077 -0.0610
 3291DPPE   C1B61353   4.896   8.327  11.102 -0.0257  0.0407 -0.0178
 3291DPPE   C2B61354   4.474   8.441  10.956 -0.3384 -0.2528 -0.2708
 3291DPPE   C3B61355   4.135   8.614  10.817 -0.1032  0.1619  0.0399
 3291DPPE   C4B61356   3.903   8.840  10.600  0.2363  0.1762 -0.1688
 3292DPPE   NH361357  15.215   2.699   7.961 -0.1640  0.0309  0.1362
 3292DPPE   PO461358  15.407   2.422   8.266  0.1732  0.0956  0.2209
 3292DPPE   GL161359  15.439   2.682   8.594 -0.3706 -0.1867 -0.1527
 3292DPPE   GL261360  15.659   2.531   8.705  0.1044  0.0837  0.3501
 3292DPPE   C1A61361  15.693   2.985   8.815 -0.2164 -0.3249 -0.3207
 3292DPPE   C2A61362  15.752   3.158   9.195  0.0628 -0.0936 -0.0182
 3292DPPE   C3A61363  15.576   3.331   9.524  0.2282 -0.4812 -0.1477
 3292DPPE   C4A61364  15.208   3.385   9.720 -0.1283  0.1002 -0.0955
 3292DPPE   C1B61365  15.557   2.590   9.115 -0.1915  0.1619  0.4796
 3292DPPE   C2B61366  15.628   2.575   9.527  0.2311 -0.4879 -0.2018
 3292DPPE   C3B61367  15.780   2.704   9.990 -0.1412 -0.0608  0.1086
 3292DPPE   C4B61368  15.667   2.994  10.375 -0.3799 -0.0296  0.1678
 3293DPPE   NH361369   7.070   4.028  16.076  0.3437  0.2770  0.0544
 3293DPPE   PO461370   7.273   4.166  16.467  0.0296 -0.0141  0.1290
 3293DPPE   GL161371   7.676   4.081  16.522  0.2090 -0.1491  0.2736
 3293DPPE   GL261372   8.008   4.014  16.773  0.1850  0.0189  0.4634
 3293DPPE   C1A61373   7.920   4.284  16.278  0.2928 -0.0042  0.1796
 3293DPPE   C2A61374   8.133   4.528  16.151 -0.2181 -0.2624 -0.1808
 3293DPPE   C3A61375   8.024   4.718  15.827 -0.0563 -0.2007 -0.3374
 3293DPPE   C4A61376   8.064   4.528  15.454  0.0155 -0.2132  0.0979
 3293DPPE   C1B61377   8.085   4.346  17.124 -0.0369  0.0512  0.1479
 3293DPPE   C2B61378   8.406   4.644  17.198 -0.3689 -0.1427 -0.0261
 3293DPPE   C3B61379   8.667   4.866  16.928  0.2094 -0.1080 -0.1534
 3293DPPE   C4B61380   8.880   5.216  16.935 -0.0754  0.0294 -0.2756
 3294DPPE   NH361381  11.344   4.153   7.849  0.0642 -0.1246  0.3364
 3294DPPE   PO461382  11.514   4.255   8.290  0.0174 -0.0940  0.3668
 3294DPPE   GL161383  11.576   4.356   8.628  0.1338  0.0156 -0.0681
 3294DPPE   GL261384  11.710   4.081   8.874 -0.3723 -0.0617 -0.1959
 3294DPPE   C1A61385  11.751   4.593   9.039 -0.0169  0.3268 -0.1546
 3294DPPE   C2A61386  11.646   4.812   9.422  0.0231 -0.1797  0.4276
 3294DPPE   C3A61387  12.019   4.959   9.691 -0.2027 -0.1798  0.1779
 3294DPPE   C4A61388  12.200   5.172  10.093  0.2630 -0.2836 -0.0384
 3294DPPE   C1B61389  11.814   4.106   9.299  0.1170  0.1589 -0.0709
 3294DPPE   C2B61390  11.956   4.422   9.658  0.1175  0.0533  0.0183
 3294DPPE   C3B61391  12.120   4.534  10.008  0.1632 -0.0484  0.1017
 3294DPPE   C4B61392  12.192   4.466  10.457 -0.1326  0.3916  0.0941
 3295DPPE   NH361393   5.510  11.083  11.719  0.1666  0.0949 -0.1702
 3295DPPE   PO461394   5.382  10.853  11.372  0.1046 -0.1765 -0.0194
 3295DPPE   GL161395   5.036  10.943  11.664 -0.1345 -0.0608 -0.2958
 3295DPPE   GL261396   4.834  10.742  11.714  0.0812 -0.0025  0.0147
 3295DPPE   C1A61397   4.958  11.226  11.913 -0.1385  0.1373 -0.2990
 3295DPPE   C2A61398   5.106  11.569  12.136  0.0572  0.1177  0.2299
 3295DPPE   C3A61399   5.396  11.793  12.422  0.0107  0.0073 -0.2332
 3295DPPE   C4A61400   5.395  12.163  12.798 -0.0830 -0.3599 -0.0714
 3295DPPE   C1B61401   4.407  10.888  11.600  0.0371 -0.1975  0.3399
 3295DPPE   C2B61402   4.152  11.131  11.363 -0.3021 -0.3217 -0.4750
 3295DPPE   C3B61403   3.753  11.315  11.506 -0.0047  0.1964 -0.3888
 3295DPPE   C4B61404   3.393  11.465  11.508  0.0522 -0.3088  0.1128
 3296DPPE   NH361405   9.863   0.032  12.710 -0.1503 -0.2616  0.1769
 3296DPPE   PO461406   9.960  -0.225  13.159  0.0986  0.1107  0.0314
 3296DPPE   GL161407   9.642  -0.510  12.877  0.1454  0.0981  0.1034
 3296DPPE   GL261408   9.791  -0.495  12.604  0.2622 -0.0106  0.0665
 3296DPPE   C1A61409   9.196  -0.722  12.694  0.1772 -0.3207 -0.0262
 3296DPPE   C2A61410   8.926  -1.004  12.685  0.1645  0.3152 -0.2203
 3296DPPE   C3A61411   8.668  -1.214  12.906 -0.2902  0.1545  0.2992
 3296DPPE   C4A61412   8.619  -1.601  13.157 -0.1783  0.1879 -0.1857
 3296DPPE   C1B61413   9.626  -0.894  12.581  0.2104 -0.1277 -0.1815
 3296DPPE   C2B61414   9.370  -1.335  12.471  0.1294 -0.1031 -0.0831
 3296DPPE   C3B61415   8.838  -1.420  12.433 -0.1854 -0.1430  0.1982
 3296DPPE   C4B61416   8.607  -1.627  12.661 -0.0408  0.2439 -0.1206
 3297DPPE   NH361417   4.277   8.379  14.967 -0.0605  0.0968  0.1031
 3297DPPE   PO461418   4.055   8.110  14.954 -0.2175  0.3076  0.1449
 3297DPPE   GL161419   3.699   7.897  14.881 -0.2828 -0.1020 -0.1906
 3297DPPE   GL261420   3.773   7.752  14.743 -0.4732  0.1297  0.2574
 3297DPPE   C1A61421   3.446   7.714  15.091  0.0788 -0.5352 -0.0585
 3297DPPE   C2A61422   3.146   7.503  15.371 -0.1134 -0.1886 -0.0440
 3297DPPE   C3A61423   2.921   7.250  15.653 -0.2732  0.1002  0.0864
 3297DPPE   C4A61424   2.723   6.864  15.831 -0.1415 -0.2226  0.0443
 3297DPPE   C1B61425   3.487   7.537  14.600  0.1289  0.1511  0.0974
 3297DPPE   C2B61426   3.240   7.297  14.275 -0.3078 -0.2604 -0.1233
 3297DPPE   C3B61427   2.926   7.048  14.286 -0.1398  0.1000  0.3061
 3297DPPE   C4B61428   2.674   6.662  14.242 -0.2318 -0.0258 -0.2471
 3298DPPE   NH361429   5.327  10.486  11.668  0.0097 -0.2244 -0.0982
 3298DPPE   PO461430   5.143  10.658  12.064  0.0217 -0.2944  0.2715
 3298DPPE   GL161431   5.266  10.789  12.556 -0.1009  0.2081 -0.2859
 3298DPPE   GL261432   5.550  10.843  12.685  0.4556  0.1236 -0.1753
 3298DPPE   C1A61433   5.214  11.091  12.968  0.2465  0.0064  0.1620
 3298DPPE   C2A61434   5.494  11.407  13.247  0.2302  0.1648 -0.0105
 3298DPPE   C3A61435   5.359  11.651  13.604  0.1487 -0.3044 -0.4476
 3298DPPE   C4A61436   5.265  11.624  14.003  0.0847  0.1965 -0.2687
 3298DPPE   C1B61437   5.717  11.117  12.874  0.0774 -0.1954 -0.1763
 3298DPPE   C2B61438   5.968  11.456  13.018 -0.0732 -0.1616 -0.0094
 3298DPPE   C3B61439   5.720  11.903  13.205  0.0266  0.0887 -0.4855
 3298DPPE   C4B61440   5.595  12.342  13.276  0.0450  0.3143 -0.2273
 3299DPPE   NH361441  16.159   3.827   6.855  0.2454 -0.0144 -0.1871
 3299DPPE   PO461442  16.485   4.135   6.779  0.1896 -0.1468  0.0171
 3299DPPE   GL161443  16.531   4.198   7.221  0.1273  0.1510  0.0142
 3299DPPE   GL261444  16.494   3.973   7.418  0.0843 -0.0795 -0.1987
 3299DPPE   C1A61445  17.018   4.325   7.413  0.1357  0.0418 -0.3106
 3299DPPE   C2A61446  17.304   4.586   7.557 -0.0130  0.2210 -0.0838
 3299DPPE   C3A61447  17.611   4.767   7.806 -0.1039 -0.2482 -0.0924
 3299DPPE   C4A61448  17.968   4.948   8.029 -0.3983  0.1212  0.3978
 3299DPPE   C1B61449  16.580   4.288   7.694  0.3788 -0.0679 -0.1435
 3299DPPE   C2B61450  16.430   4.729   7.808 -0.0507  0.1547  0.0869
 3299DPPE   C3B61451  16.461   4.867   8.199 -0.1086  0.1558 -0.1046
 3299DPPE   C4B61452  16.317   4.658   8.568  0.3341 -0.0072 -0.0357
 3300DPPE   NH361453  17.499   1.643   8.067 -0.1515  0.1364 -0.0674
 3300DPPE   PO461454  17.632   1.502   7.670  0.0115 -0.1567  0.1804
 3300DPPE   GL161455  17.982   1.662   8.041 -0.0681  0.0852  0.0566
 3300DPPE   GL261456  17.875   1.735   8.367  0.2269 -0.0441 -0.3299
 3300DPPE   C1A61457  18.383   1.560   8.205  0.1496  0.1835  0.0506
 3300DPPE   C2A61458  18.579   1.599   8.604  0.1731 -0.0695  0.1326
 3300DPPE   C3A61459  18.642   1.934   8.990  0.2929 -0.1108  0.0164
 3300DPPE   C4A61460  18.311   2.194   9.202  0.0975  0.0743 -0.0426
 3300DPPE   C1B61461  18.027   1.858   8.754 -0.0500  0.1444 -0.0731
 3300DPPE   C2B61462  18.171   1.633   9.076  0.0195 -0.0853  0.1538
 3300DPPE   C3B61463  18.114   1.593   9.392  0.4796 -0.1049 -0.2564
 3300DPPE   C4B61464  18.325   1.535   9.784 -0.0087  0.0047 -0.1619
 3301DPPE   NH361465   8.367  10.007   8.935 -0.2506 -0.1054  0.2786
 3301DPPE   PO461466   8.199   9.845   9.386 -0.2950 -0.1614 -0.0151
 3301DPPE   GL161467   8.482   9.972   9.713  0.2011  0.2881  0.0747
 3301DPPE   GL261468   8.484   9.673   9.910 -0.4922 -0.0290 -0.0835
 3301DPPE   C1A61469   8.845   9.694   9.592 -0.0515 -0.3221 -0.0737
 3301DPPE   C2A61470   9.206   9.553   9.553  0.1169  0.1576 -0.0903
 3301DPPE   C3A61471   9.353   9.209   9.647 -0.0862 -0.1424  0.1347
 3301DPPE   C4A61472   9.605   8.821   9.660  0.1794 -0.3324 -0.2190
 3301DPPE   C1B61473   8.837   9.836  10.080  0.2039  0.1275 -0.0124
 3301DPPE   C2B61474   9.006  10.018  10.438 -0.1208 -0.1715  0.0466
 3301DPPE   C3B61475   9.285  10.250  10.662 -0.2014  0.0518 -0.0581
 3301DPPE   C4B61476   9.176  10.442  10.977  0.2131 -0.0107 -0.5772
 3302DPPE   NH361477   6.688   5.091  16.964 -0.0513 -0.0790  0.3365
 3302DPPE   PO461478   6.688   4.845  17.265 -0.0533 -0.2913  0.2857
 3302DPPE   GL161479   6.834   4.888  17.655  0.0292 -0.0312  0.0159
 3302DPPE   GL261480   7.066   4.611  17.743 -0.3185  0.0235  0.0493
 3302DPPE   C1A61481   6.995   5.063  18.083  0.2287  0.1479  0.2179
 3302DPPE   C2A61482   7.066   5.451  18.403  0.1040  0.0258 -0.1813
 3302DPPE   C3A61483   6.848   5.773  18.649  0.2012 -0.0024 -0.0541
 3302DPPE   C4A61484   6.640   6.038  18.999 -0.1203  0.2727 -0.2548
 3302DPPE   C1B61485   7.418   4.781  17.937 -0.0131 -0.0473 -0.0562
 3302DPPE   C2B61486   7.580   5.047  18.178  0.0883  0.0512 -0.0542
 3302DPPE   C3B61487   7.877   5.359  18.373 -0.1003 -0.0499 -0.3816
 3302DPPE   C4B61488   7.888   5.752  18.495  0.1679 -0.0522  0.0924
 3303DPPE   NH361489  16.432   2.979   7.408 -0.2548  0.0663 -0.1084
 3303DPPE   PO461490  16.765   3.240   7.159 -0.1716 -0.0033  0.0329
 3303DPPE   GL161491  16.769   3.579   7.554  0.0746 -0.0793 -0.0139
 3303DPPE   GL261492  16.607   3.668   7.852 -0.0120  0.1357 -0.4317
 3303DPPE   C1A61493  16.953   3.937   7.691 -0.3463  0.0445 -0.0916
 3303DPPE   C2A61494  16.980   4.308   7.952 -0.1854 -0.1223  0.0256
 3303DPPE   C3A61495  16.838   4.567   8.292  0.1253  0.3317  0.1726
 3303DPPE   C4A61496  16.897   5.028   8.360  0.0695  0.1099 -0.1755
 3303DPPE   C1B61497  16.908   3.573   8.167 -0.0350 -0.1606  0.0801
 3303DPPE   C2B61498  17.189   3.838   8.389  0.0306 -0.1115  0.0225
 3303DPPE   C3B61499  17.381   4.173   8.528 -0.0011  0.0344  0.0743
 3303DPPE   C4B61500  17.647   4.381   8.832  0.1587  0.1269  0.0075
 3304DPPE   NH361501  11.840   8.559   5.938  0.2225  0.0070  0.0685
 3304DPPE   PO461502  12.063   8.386   6.166  0.1397  0.0222  0.2085
 3304DPPE   GL161503  12.022   8.661   6.572  0.0709 -0.0770  0.0312
 3304DPPE   GL261504  11.795   8.792   6.522  0.1322 -0.0355 -0.0542
 3304DPPE   C1A61505  12.407   8.720   6.864 -0.1420  0.3552  0.4504
 3304DPPE   C2A61506  12.497   8.958   7.138 -0.2819  0.1000 -0.3508
 3304DPPE   C3A61507  12.576   9.304   7.263 -0.2143  0.1289  0.2572
 3304DPPE   C4A61508  12.595   9.474   7.566  0.3861 -0.2574  0.0241
 3304DPPE   C1B61509  11.888   8.758   7.033  0.2430 -0.1151  0.0602
 3304DPPE   C2B61510  12.159   8.514   7.372  0.0035  0.2328  0.3443
 3304DPPE   C3B61511  12.269   8.599   7.740  0.1703  0.0110  0.3199
 3304DPPE   C4B61512  12.349   9.026   7.930  0.0651 -0.4231  0.0466
 3305DPPE   NH361513  14.644   4.116   5.421  0.0103 -0.0455  0.2210
 3305DPPE   PO461514  14.909   3.747   5.532 -0.0872  0.0241 -0.1313
 3305DPPE   GL161515  14.893   3.782   5.134  0.0424 -0.2237  0.0752
 3305DPPE   GL261516  15.074   4.038   5.020 -0.0835 -0.1012  0.3610
 3305DPPE   C1A61517  14.777   3.610   4.775 -0.0180 -0.0265 -0.2712
 3305DPPE   C2A61518  14.800   3.625   4.368  0.0473  0.0601 -0.0534
 3305DPPE   C3A61519  14.695   3.544   3.977  0.2537 -0.0636  0.0582
 3305DPPE   C4A61520  14.852   3.346   3.636 -0.2452 -0.0037  0.1962
 3305DPPE   C1B61521  15.242   3.861   4.667  0.0213 -0.0040  0.5013
 3305DPPE   C2B61522  15.381   3.906   4.224  0.1358  0.0936 -0.0291
 3305DPPE   C3B61523  15.540   4.071   3.801 -0.0443 -0.1504 -0.5510
 3305DPPE   C4B61524  15.505   3.801   3.438  0.1885 -0.1082 -0.0292
 3306DPPE   NH361525  10.567   2.698   8.103  0.0643  0.0530  0.0855
 3306DPPE   PO461526  10.353   3.021   8.182 -0.1545  0.2952 -0.1209
 3306DPPE   GL161527  10.104   2.684   7.858 -0.0692 -0.1884  0.0734
 3306DPPE   GL261528  10.165   2.320   7.951  0.0593 -0.1368  0.2263
 3306DPPE   C1A61529  10.015   2.479   7.467  0.3410  0.0041 -0.0712
 3306DPPE   C2A61530   9.863   2.268   7.270 -0.0632 -0.3974 -0.1420
 3306DPPE   C3A61531   9.932   1.926   6.970  0.0136  0.0775  0.1070
 3306DPPE   C4A61532  10.014   1.560   6.734  0.1641  0.0596  0.0132
 3306DPPE   C1B61533  10.248   2.008   7.533  0.0083 -0.1746  0.2236
 3306DPPE   C2B61534  10.425   1.942   7.199  0.0835 -0.0855 -0.0576
 3306DPPE   C3B61535  10.555   1.658   7.035  0.3697 -0.0300  0.0772
 3306DPPE   C4B61536  10.473   1.447   6.626 -0.3554  0.0007  0.1448
 3307DPPE   NH361537   6.926   8.954  11.033  0.1792  0.1309  0.0835
 3307DPPE   PO461538   6.913   9.155  11.458  0.0231 -0.0403  0.2667
 3307DPPE   GL161539   7.210   9.251  11.680  0.1658 -0.2099 -0.1256
 3307DPPE   GL261540   7.169   9.574  11.726 -0.1876  0.0231  0.3329
 3307DPPE   C1A61541   7.570   9.399  11.924  0.0221 -0.2390  0.1798
 3307DPPE   C2A61542   7.787   9.853  12.064 -0.0974  0.0764 -0.1065
 3307DPPE   C3A61543   8.210  10.008  12.298  0.3497  0.0216  0.0970
 3307DPPE   C4A61544   8.414  10.246  12.477 -0.5202  0.3214  0.0983
 3307DPPE   C1B61545   7.273   9.935  12.051  0.2579  0.2153  0.1968
 3307DPPE   C2B61546   7.383  10.139  12.374 -0.0113  0.0069 -0.1001
 3307DPPE   C3B61547   7.476  10.604  12.460 -0.2714  0.1276  0.2276
 3307DPPE   C4B61548   7.595  10.793  12.782 -0.2115  0.0993  0.0105
 3308DPPE   NH361549  12.465   0.408  12.222 -0.0136 -0.0930 -0.2531
 3308DPPE   PO461550  12.268   0.144  12.501 -0.3675 -0.5144  0.0515
 3308DPPE   GL161551  12.624   0.298  12.700  0.2001  0.0049 -0.1427
 3308DPPE   GL261552  12.928   0.177  12.651 -0.1049 -0.1881 -0.3655
 3308DPPE   C1A61553  12.756   0.660  12.974 -0.0473 -0.1925  0.0626
 3308DPPE   C2A61554  12.613   1.016  13.102  0.2333  0.4925 -0.1130
 3308DPPE   C3A61555  12.749   1.456  13.044  0.2624 -0.1536 -0.1366
 3308DPPE   C4A61556  12.532   1.770  12.956 -0.0812  0.4000  0.1016
 3308DPPE   C1B61557  13.322   0.420  12.831 -0.1186  0.1253 -0.1444
 3308DPPE   C2B61558  13.283   0.818  13.003 -0.1242 -0.5777  0.0285
 3308DPPE   C3B61559  13.078   1.139  13.176 -0.0252 -0.0215 -0.1335
 3308DPPE   C4B61560  13.133   1.497  13.386  0.3169 -0.0099 -0.3290
 3309DPPE   NH361561   7.503   3.564  14.140  0.2858  0.0050  0.0296
 3309DPPE   PO461562   7.640   3.902  14.499  0.0062 -0.0492  0.2354
 3309DPPE   GL161563   7.825   4.225  14.612  0.0018 -0.2092 -0.0561
 3309DPPE   GL261564   7.959   4.321  14.835  0.0208  0.0280  0.0236
 3309DPPE   C1A61565   8.157   4.473  14.427 -0.1477 -0.0059  0.0326
 3309DPPE   C2A61566   8.484   4.687  14.547  0.2166 -0.4312  0.1498
 3309DPPE   C3A61567   8.790   4.956  14.586 -0.0507  0.2229 -0.1523
 3309DPPE   C4A61568   9.171   5.082  14.656 -0.1971 -0.2058 -0.1908
 3309DPPE   C1B61569   8.330   4.348  14.907  0.1227  0.3914  0.0036
 3309DPPE   C2B61570   8.634   4.597  15.052 -0.3405 -0.0926 -0.1057
 3309DPPE   C3B61571   9.015   4.923  15.140  0.0914 -0.2440  0.1459
 3309DPPE   C4B61572   9.229   5.381  15.107 -0.3692  0.1682 -0.2375
 3310DPPE   NH361573  12.188   2.195   8.072 -0.0248  0.0737  0.0945
 3310DPPE   PO461574  12.605   2.033   8.048 -0.2078  0.0229 -0.0835
 3310DPPE   GL161575  12.548   1.664   7.746 -0.1014 -0.0467 -0.0554
 3310DPPE   GL261576  12.767   1.723   7.555 -0.0549 -0.2719  0.0583
 3310DPPE   C1A61577  12.298   1.592   7.319  0.0683 -0.0947  0.0762
 3310DPPE   C2A61578  12.109   1.264   7.107  0.3913  0.0331  0.1257
 3310DPPE   C3A61579  11.871   0.931   6.831  0.0483  0.1659  0.0236
 3310DPPE   C4A61580  11.664   0.674   6.679 -0.1087  0.0115 -0.2684
 3310DPPE   C1B61581  12.576   2.043   7.365 -0.0354 -0.1684 -0.2005
 3310DPPE   C2B61582  12.429   1.914   6.993  0.0060 -0.2550  0.1255
 3310DPPE   C3B61583  12.271   1.668   6.690 -0.1130 -0.0108  0.0387
 3310DPPE   C4B61584  12.233   1.195   6.514  0.0087  0.3138 -0.3028
 3311DPPE   NH361585   6.854   5.880  12.400  0.0613  0.0777  0.0931
 3311DPPE   PO461586   6.699   5.699  12.775 -0.1343  0.0075  0.0771
 3311DPPE   GL161587   7.053   5.685  13.022  0.0155  0.0310  0.0562
 3311DPPE   GL261588   7.217   5.909  12.730  0.1126  0.2559  0.0630
 3311DPPE   C1A61589   7.369   5.847  13.326  0.1941 -0.0104  0.0352
 3311DPPE   C2A61590   7.807   6.041  13.455  0.0752  0.0981  0.0385
 3311DPPE   C3A61591   8.159   6.298  13.491  0.3852  0.2482  0.0816
 3311DPPE   C4A61592   8.567   6.508  13.522  0.0777 -0.0450 -0.0065
 3311DPPE   C1B61593   7.690   5.880  12.901 -0.2591  0.0297  0.0028
 3311DPPE   C2B61594   8.123   5.906  12.983  0.0848 -0.6163 -0.1883
 3311DPPE   C3B61595   8.508   6.078  13.104 -0.0778 -0.0651 -0.1834
 3311DPPE   C4B61596   8.889   6.246  13.227 -0.0776  0.4492 -0.2660
 3312DPPE   NH361597   6.439   4.987  11.323  0.0785  0.3976 -0.2063
 3312DPPE   PO461598   6.426   4.631  11.566 -0.0436  0.0224 -0.3121
 3312DPPE   GL161599   6.119   4.497  11.246 -0.1096  0.1387 -0.1262
 3312DPPE   GL261600   6.122   4.139  11.307 -0.0897 -0.0492 -0.0689
 3312DPPE   C1A61601   5.654   4.224  11.253 -0.2689 -0.1924 -0.0022
 3312DPPE   C2A61602   5.145   4.194  11.220  0.0417 -0.1827  0.4078
 3312DPPE   C3A61603   4.678   4.091  11.187 -0.0336 -0.2039 -0.2941
 3312DPPE   C4A61604   4.377   4.254  11.469 -0.0455 -0.2251  0.0697
 3312DPPE   C1B61605   5.857   3.861  11.045 -0.3254 -0.0227  0.1426
 3312DPPE   C2B61606   5.476   3.836  10.972 -0.3036 -0.0369 -0.2605
 3312DPPE   C3B61607   5.068   3.654  11.177  0.1398 -0.1875  0.3767
 3312DPPE   C4B61608   4.651   3.673  10.875  0.0225 -0.1660  0.0986
 3313DPPE   NH361609  10.045   5.872   7.534  0.1023 -0.0787 -0.1834
 3313DPPE   PO461610   9.893   6.104   7.169 -0.2072  0.1325 -0.0483
 3313DPPE   GL161611   9.643   5.897   6.865 -0.0263  0.2515  0.1202
 3313DPPE   GL261612   9.942   5.729   6.515 -0.4539  0.3596 -0.1789
 3313DPPE   C1A61613   9.426   5.718   6.599 -0.2709 -0.2565  0.2515
 3313DPPE   C2A61614   9.067   5.590   6.431 -0.2684  0.2582  0.1596
 3313DPPE   C3A61615   8.880   5.293   6.139  0.1105  0.1669 -0.1354
 3313DPPE   C4A61616   8.795   4.920   6.148  0.1016 -0.0124  0.1736
 3313DPPE   C1B61617   9.802   5.741   6.068 -0.1126  0.0641  0.3769
 3313DPPE   C2B61618   9.380   5.511   6.009  0.1619  0.0537 -0.2245
 3313DPPE   C3B61619   9.130   5.176   5.738 -0.0040  0.3236 -0.0538
 3313DPPE   C4B61620   8.805   5.163   5.356  0.1520  0.1318 -0.1154
 3314DPPE   NH361621   5.325   7.493  14.917  0.3292 -0.2416  0.0839
 3314DPPE   PO461622   5.798   7.650  14.941  0.2104  0.1136 -0.1095
 3314DPPE   GL161623   6.148   7.838  15.032 -0.0403  0.0667  0.1782
 3314DPPE   GL261624   6.044   8.035  15.312 -0.0666  0.0224 -0.2466
 3314DPPE   C1A61625   6.476   7.960  15.085 -0.1345  0.1749 -0.0578
 3314DPPE   C2A61626   6.675   8.340  15.157  0.2426 -0.1297 -0.1259
 3314DPPE   C3A61627   7.058   8.539  15.323 -0.1798  0.5749  0.2034
 3314DPPE   C4A61628   7.181   8.975  15.243 -0.1380 -0.2320  0.1112
 3314DPPE   C1B61629   6.298   8.187  15.558 -0.4277  0.1501  0.1219
 3314DPPE   C2B61630   6.536   8.470  15.733 -0.1999  0.0975  0.0295
 3314DPPE   C3B61631   6.411   8.778  15.957 -0.2620 -0.2657 -0.0860
 3314DPPE   C4B61632   6.366   9.206  16.091 -0.2663  0.2115  0.2752
 3315DPPE   NH361633  11.529   1.951  10.034  0.1148  0.1510 -0.3043
 3315DPPE   PO461634  11.204   2.079  10.092  0.1632  0.2166  0.1451
 3315DPPE   GL161635  11.213   2.500  10.286  0.1581  0.2650 -0.0281
 3315DPPE   GL261636  11.129   2.475  10.599 -0.0188  0.1924 -0.1657
 3315DPPE   C1A61637  11.570   2.738  10.040  0.2029 -0.1675 -0.3169
 3315DPPE   C2A61638  11.844   2.886  10.366  0.0731  0.0933  0.0780
 3315DPPE   C3A61639  12.018   3.293  10.574 -0.1893  0.3807  0.0908
 3315DPPE   C4A61640  12.340   3.267  10.704 -0.2072 -0.2866 -0.3305
 3315DPPE   C1B61641  11.300   2.956  10.567 -0.0231  0.1113  0.1592
 3315DPPE   C2B61642  11.495   3.259  10.803 -0.0658 -0.0327 -0.2181
 3315DPPE   C3B61643  11.727   3.554  10.948  0.1475  0.1007  0.1241
 3315DPPE   C4B61644  12.129   3.668  10.937  0.4709 -0.1095 -0.3346
 3316DPPE   NH361645  14.734  35.212  12.598 -0.2989  0.1104  0.1296
 3316DPPE   PO461646  14.795  34.922  12.238 -0.2012  0.2499  0.3007
 3316DPPE   GL161647  15.144  34.940  12.558  0.1742 -0.0095  0.0566
 3316DPPE   GL261648  15.391  34.961  12.412 -0.2273  0.0249  0.0784
 3316DPPE   C1A61649  15.331  34.671  12.877  0.3282  0.1668 -0.1198
 3316DPPE   C2A61650  15.382  34.512  13.371 -0.2229  0.3477 -0.1229
 3316DPPE   C3A61651  15.830  34.465  13.483 -0.0606 -0.2391  0.1789
 3316DPPE   C4A61652  16.056  34.825  13.702  0.0095 -0.0593  0.0043
 3316DPPE   C1B61653  15.687  34.807  12.128  0.1636  0.0458 -0.1027
 3316DPPE   C2B61654  16.121  34.870  12.110  0.2288  0.2740 -0.0259
 3316DPPE   C3B61655  16.353  34.554  11.917  0.2290  0.3529  0.2659
 3316DPPE   C4B61656  16.335  34.071  11.977 -0.2688 -0.0301  0.2105
 3317DPPE   NH361657   6.491   3.236  12.405  0.1201 -0.4875  0.1444
 3317DPPE   PO461658   6.711   3.023  12.751  0.0970  0.1813  0.0143
 3317DPPE   GL161659   6.308   2.882  12.880  0.2557 -0.1854 -0.0714
 3317DPPE   GL261660   6.141   2.809  12.546 -0.2682 -0.0392  0.0415
 3317DPPE   C1A61661   6.052   2.602  13.084 -0.0313 -0.0369 -0.2005
 3317DPPE   C2A61662   5.817   2.483  13.389  0.0647 -0.2978  0.0567
 3317DPPE   C3A61663   5.714   2.127  13.482  0.1309  0.0605  0.1573
 3317DPPE   C4A61664   5.572   1.682  13.523  0.1288  0.0322  0.0578
 3317DPPE   C1B61665   5.889   2.408  12.556  0.1099  0.1357 -0.1117
 3317DPPE   C2B61666   5.655   1.938  12.363  0.0373  0.1645 -0.2801
 3317DPPE   C3B61667   5.529   1.549  12.108 -0.3518  0.4970 -0.2631
 3317DPPE   C4B61668   5.355   1.168  12.227  0.4089 -0.1866  0.0193
 3318DPPE   NH361669   4.785   6.303  13.421  0.2843 -0.0889 -0.1364
 3318DPPE   PO461670   4.484   6.666  13.284  0.0485 -0.1598 -0.1085
 3318DPPE   GL161671   4.244   6.294  13.219 -0.2761 -0.0083 -0.2047
 3318DPPE   GL261672   4.191   6.108  13.505  0.1477 -0.0504  0.1851
 3318DPPE   C1A61673   3.817   6.200  12.960 -0.0557 -0.1188  0.7876
 3318DPPE   C2A61674   3.388   6.018  12.796 -0.1433 -0.1779 -0.0238
 3318DPPE   C3A61675   3.164   5.616  13.012  0.2185 -0.1661 -0.0296
 3318DPPE   C4A61676   2.914   5.265  13.002  0.1594  0.1565 -0.0471
 3318DPPE   C1B61677   3.771   6.018  13.361 -0.1242 -0.0963 -0.1478
 3318DPPE   C2B61678   3.566   5.689  13.560 -0.0152 -0.0433 -0.3396
 3318DPPE   C3B61679   3.352   5.337  13.808  0.4203 -0.1640 -0.1202
 3318DPPE   C4B61680   3.315   5.195  14.164  0.0773 -0.1151  0.1703
 3319DPPE   NH361681   8.538   2.275  11.216 -0.0806 -0.0566  0.2526
 3319DPPE   PO461682   8.862   2.107  11.060 -0.1770 -0.0601 -0.3788
 3319DPPE   GL161683   8.740   1.955  10.694 -0.0193  0.1367  0.4068
 3319DPPE   GL261684   8.968   1.867  10.591  0.0031  0.1022 -0.3639
 3319DPPE   C1A61685   8.380   1.673  10.472 -0.1680  0.2944  0.3169
 3319DPPE   C2A61686   8.201   1.263  10.275  0.0664  0.2109 -0.2527
 3319DPPE   C3A61687   7.867   0.990  10.326  0.1825  0.1127  0.1955
 3319DPPE   C4A61688   7.499   0.981  10.086 -0.1859 -0.1146  0.1609
 3319DPPE   C1B61689   8.843   1.489  10.280 -0.3121 -0.1433  0.2378
 3319DPPE   C2B61690   8.682   1.057  10.090  0.2090 -0.1113  0.0096
 3319DPPE   C3B61691   8.658   0.802   9.732  0.0655  0.0364 -0.2240
 3319DPPE   C4B61692   8.433   0.411   9.531  0.0033 -0.0637  0.0694
 3320DPPE   NH361693   7.198   3.076  17.079 -0.1857 -0.0273 -0.2249
 3320DPPE   PO461694   7.183   2.641  17.161 -0.1398  0.2324  0.3271
 3320DPPE   GL161695   6.876   2.332  17.277 -0.2178 -0.1946 -0.1386
 3320DPPE   GL261696   7.032   2.469  17.597  0.2447 -0.0376  0.1461
 3320DPPE   C1A61697   6.507   2.066  17.114  0.0188 -0.1189  0.1402
 3320DPPE   C2A61698   6.074   2.026  17.110 -0.1205  0.1522 -0.4206
 3320DPPE   C3A61699   5.629   2.126  16.843 -0.0734 -0.1690  0.2037
 3320DPPE   C4A61700   5.276   2.382  16.838 -0.1966 -0.1928 -0.2910
 3320DPPE   C1B61701   7.229   2.224  17.785  0.1292 -0.0143 -0.0405
 3320DPPE   C2B61702   7.029   1.984  18.119  0.0909 -0.0785  0.1478
 3320DPPE   C3B61703   7.098   1.693  18.407 -0.0672 -0.1910  0.1802
 3320DPPE   C4B61704   6.912   1.396  18.661 -0.1681 -0.0071 -0.1906
 3321DPPE   NH361705   5.191   4.461  14.885  0.0937 -0.1693 -0.1591
 3321DPPE   PO461706   5.299   4.816  14.722 -0.2439  0.0287  0.2134
 3321DPPE   GL161707   4.831   4.810  14.789 -0.0067 -0.0972  0.0346
 3321DPPE   GL261708   4.647   4.912  14.556 -0.1609 -0.0090  0.0664
 3321DPPE   C1A61709   4.482   4.616  15.002  0.0001 -0.4035  0.0259
 3321DPPE   C2A61710   4.072   4.607  15.079 -0.1192 -0.4176  0.0403
 3321DPPE   C3A61711   3.607   4.787  15.285  0.0434  0.0923  0.3521
 3321DPPE   C4A61712   3.174   4.914  15.298 -0.0867  0.1342 -0.0967
 3321DPPE   C1B61713   4.308   4.639  14.565 -0.0114  0.0464  0.0404
 3321DPPE   C2B61714   3.888   4.394  14.575 -0.1931 -0.0970  0.2517
 3321DPPE   C3B61715   3.629   4.058  14.303  0.0265 -0.3741 -0.0085
 3321DPPE   C4B61716   3.240   3.835  14.448  0.1869 -0.0372 -0.2016
 3322DPPE   NH361717  10.024   0.618  14.321 -0.4798 -0.0852  0.1297
 3322DPPE   PO461718  10.349   0.888  14.447  0.6173 -0.2790  0.0896
 3322DPPE   GL161719  10.522   1.164  14.810  0.2380  0.4483  0.1632
 3322DPPE   GL261720  10.507   1.247  15.091 -0.1611  0.3137 -0.0702
 3322DPPE   C1A61721  10.822   1.567  14.930  0.1845 -0.0022  0.0972
 3322DPPE   C2A61722  11.194   1.851  14.949 -0.0144 -0.0111  0.4072
 3322DPPE   C3A61723  11.663   1.892  14.974 -0.2873 -0.0759 -0.2264
 3322DPPE   C4A61724  11.985   2.144  15.218  0.1836  0.1929  0.3514
 3322DPPE   C1B61725  10.550   1.393  15.575  0.3523 -0.1351 -0.0756
 3322DPPE   C2B61726  10.880   1.303  15.978  0.0834  0.1164 -0.0782
 3322DPPE   C3B61727  11.220   0.965  16.023 -0.1434 -0.0670 -0.1803
 3322DPPE   C4B61728  11.658   0.959  16.318  0.1000 -0.2466  0.5206
 3323DPPE   NH361729   6.355   6.499  14.644 -0.0253  0.1088  0.1178
 3323DPPE   PO461730   6.375   6.097  14.580 -0.1660  0.0359 -0.1985
 3323DPPE   GL161731   6.793   6.228  14.574 -0.0179  0.2677  0.1425
 3323DPPE   GL261732   6.850   6.466  14.354 -0.1811 -0.0186 -0.2356
 3323DPPE   C1A61733   7.120   6.508  14.799 -0.2901  0.2283 -0.0956
 3323DPPE   C2A61734   7.503   6.749  14.685  0.0846 -0.0866  0.0074
 3323DPPE   C3A61735   7.839   6.961  14.580 -0.1428  0.0309 -0.0189
 3323DPPE   C4A61736   8.147   7.252  14.497 -0.1021  0.0445 -0.3769
 3323DPPE   C1B61737   7.121   6.863  14.339 -0.3567 -0.0517  0.1446
 3323DPPE   C2B61738   7.242   7.195  14.220  0.3786  0.2518  0.0284
 3323DPPE   C3B61739   7.674   7.456  14.295  0.0268 -0.2187 -0.2976
 3323DPPE   C4B61740   8.086   7.755  14.373  0.0988 -0.1052  0.1678
 3324DPPE   NH361741  11.117   0.226  11.152  0.1956  0.1283 -0.0466
 3324DPPE   PO461742  11.394  -0.157  11.531  0.1155 -0.3514 -0.0062
 3324DPPE   GL161743  11.195  -0.316  11.201  0.1140  0.0631  0.0040
 3324DPPE   GL261744  11.014  -0.649  11.334 -0.0413  0.0071  0.1836
 3324DPPE   C1A61745  11.196  -0.640  10.889  0.0735  0.0626 -0.0969
 3324DPPE   C2A61746  11.035  -0.891  10.508 -0.0848  0.2483  0.1906
 3324DPPE   C3A61747  10.912  -1.222  10.183 -0.0522  0.2323  0.2162
 3324DPPE   C4A61748  10.775  -1.461   9.862  0.1676  0.0027  0.3070
 3324DPPE   C1B61749  10.744  -0.852  11.037  0.1102 -0.0793 -0.1099
 3324DPPE   C2B61750  10.587  -1.111  10.760  0.1086  0.2928  0.0999
 3324DPPE   C3B61751  10.526  -1.442  10.496  0.0715 -0.1042 -0.2725
 3324DPPE   C4B61752  10.180  -1.779  10.466 -0.3030  0.1662  0.1820
 3325DPPE   NH361753  11.585   5.335   7.240  0.1620  0.0295 -0.0365
 3325DPPE   PO461754  11.391   5.746   7.362 -0.0954  0.1877  0.0790
 3325DPPE   GL161755  11.416   6.096   7.458  0.0616 -0.1508  0.0104
 3325DPPE   GL261756  11.753   6.203   7.508 -0.0709  0.3201 -0.2534
 3325DPPE   C1A61757  11.358   6.348   7.804 -0.2510 -0.0690 -0.1827
 3325DPPE   C2A61758  11.430   6.608   8.250 -0.2924 -0.3088 -0.2643
 3325DPPE   C3A61759  11.168   6.682   8.652 -0.1858 -0.1445 -0.2214
 3325DPPE   C4A61760  11.086   6.412   8.906 -0.2912  0.0048 -0.2972
 3325DPPE   C1B61761  11.925   6.366   7.921  0.2711 -0.3171 -0.0839
 3325DPPE   C2B61762  11.879   6.388   8.321 -0.3603 -0.2348 -0.3109
 3325DPPE   C3B61763  11.735   6.618   8.719 -0.0698 -0.0803 -0.1756
 3325DPPE   C4B61764  11.936   6.629   9.093  0.0625  0.1020 -0.0280
 3326DPPE   NH361765  17.471   2.200   6.718 -0.2233 -0.0784  0.1773
 3326DPPE   PO461766  17.819   2.461   6.863  0.0529 -0.1790  0.0005
 3326DPPE   GL161767  17.847   2.340   6.441 -0.3086  0.2152 -0.0204
 3326DPPE   GL261768  17.734   2.048   6.340 -0.0701  0.0993  0.1364
 3326DPPE   C1A61769  18.217   2.376   6.082 -0.1527  0.0397  0.0782
 3326DPPE   C2A61770  18.649   2.608   5.968  0.4100  0.1337 -0.0668
 3326DPPE   C3A61771  19.100   2.313   6.099 -0.4495 -0.0791  0.0683
 3326DPPE   C4A61772  19.373   1.980   6.285  0.0460 -0.2598  0.1906
 3326DPPE   C1B61773  17.778   2.121   5.848  0.0700 -0.0326 -0.0488
 3326DPPE   C2B61774  17.791   2.212   5.407  0.1656  0.2010 -0.3045
 3326DPPE   C3B61775  18.053   2.310   5.139  0.2687 -0.3097  0.2266
 3326DPPE   C4B61776  18.138   2.615   4.746 -0.0273  0.2193  0.0656
 3327DPPE   NH361777   8.074   9.782   7.507 -0.4016  0.0098  0.0603
 3327DPPE   PO461778   8.303   9.999   7.275 -0.0838  0.3274  0.3091
 3327DPPE   GL161779   8.111  10.097   6.924  0.0352 -0.1193 -0.2506
 3327DPPE   GL261780   8.037   9.885   6.683  0.0644 -0.0815 -0.1924
 3327DPPE   C1A61781   7.995  10.368   6.578  0.0422  0.1387 -0.2298
 3327DPPE   C2A61782   7.783  10.601   6.431 -0.2065  0.1285 -0.2136
 3327DPPE   C3A61783   7.741  10.879   6.021 -0.1614 -0.2676 -0.2296
 3327DPPE   C4A61784   7.911  11.256   5.763  0.1242  0.0271  0.4358
 3327DPPE   C1B61785   7.810   9.981   6.291  0.1826  0.0188  0.1826
 3327DPPE   C2B61786   7.819   9.930   5.892  0.0777  0.2997 -0.1121
 3327DPPE   C3B61787   7.586   9.848   5.562 -0.0785  0.1829 -0.3594
 3327DPPE   C4B61788   7.446   9.955   5.153 -0.1313 -0.3750 -0.2133
 3328DPPE   NH361789   6.237   5.589  16.598 -0.2635 -0.0028  0.2167
 3328DPPE   PO461790   5.899   5.352  16.534 -0.0462 -0.0330  0.1982
 3328DPPE   GL161791   5.795   5.490  16.949  0.3374  0.0721  0.0073
 3328DPPE   GL261792   5.626   5.288  17.223 -0.2473  0.2280 -0.3401
 3328DPPE   C1A61793   5.685   5.781  17.244 -0.1044 -0.1404 -0.2886
 3328DPPE   C2A61794   5.563   6.003  17.498  0.0180 -0.1157  0.1237
 3328DPPE   C3A61795   5.471   6.190  17.866  0.0877  0.2285  0.2415
 3328DPPE   C4A61796   5.639   6.350  18.283  0.0923 -0.3037 -0.1395
 3328DPPE   C1B61797   5.501   5.125  17.630  0.4217 -0.0851  0.1073
 3328DPPE   C2B61798   5.567   5.216  18.157  0.1288 -0.1667  0.1823
 3328DPPE   C3B61799   5.734   5.487  18.546  0.4385 -0.1890 -0.0480
 3328DPPE   C4B61800   5.766   5.456  19.045  0.4725  0.0897 -0.1348
 3329DPPE   NH361801  13.030   8.335   6.269  0.3653 -0.2094  0.0684
 3329DPPE   PO461802  12.983   8.820   6.150  0.3100 -0.1491  0.3123
 3329DPPE   GL161803  13.317   8.825   6.378 -0.1660 -0.1967  0.2497
 3329DPPE   GL261804  13.554   8.556   6.445  0.2615  0.2986  0.2686
 3329DPPE   C1A61805  13.364   8.771   6.823  0.1029  0.1027  0.1631
 3329DPPE   C2A61806  13.371   8.951   7.203 -0.0127 -0.1973  0.1378
 3329DPPE   C3A61807  13.362   8.779   7.658  0.0708 -0.0945  0.1289
 3329DPPE   C4A61808  13.516   9.115   7.869 -0.2769 -0.0906 -0.1066
 3329DPPE   C1B61809  13.920   8.868   6.586  0.0277  0.3141 -0.2933
 3329DPPE   C2B61810  14.282   9.213   6.692  0.0853 -0.3001  0.1505
 3329DPPE   C3B61811  14.691   9.290   6.914  0.1196  0.5121 -0.3265
 3329DPPE   C4B61812  15.022   9.452   6.996 -0.3175  0.2474 -0.0595
 3330DPPE   NH361813   4.828   5.461  14.729  0.1089  0.2508 -0.1871
 3330DPPE   PO461814   4.858   5.864  14.576  0.1354  0.1571  0.2999
 3330DPPE   GL161815   4.435   5.667  14.520  0.1206  0.2099  0.4313
 3330DPPE   GL261816   4.341   5.706  14.756  0.0602  0.5349  0.2781
 3330DPPE   C1A61817   4.038   5.573  14.214 -0.5160  0.2306  0.0625
 3330DPPE   C2A61818   3.817   5.246  13.969 -0.2015 -0.2272  0.0476
 3330DPPE   C3A61819   3.642   4.880  13.686 -0.1354 -0.1507 -0.2328
 3330DPPE   C4A61820   3.370   4.573  13.515  0.1531  0.1365 -0.0524
 3330DPPE   C1B61821   3.976   5.532  14.714  0.0453  0.0303  0.6774
 3330DPPE   C2B61822   3.620   5.488  14.496  0.0804  0.0706  0.2197
 3330DPPE   C3B61823   3.530   5.626  14.142 -0.3838 -0.1814  0.1352
 3330DPPE   C4B61824   3.919   5.898  13.863  0.0600  0.3018 -0.0750
 3331DPPE   NH361825   7.033   2.943  13.270 -0.1768  0.0358  0.2030
 3331DPPE   PO461826   7.135   2.730  13.583 -0.1222  0.3229  0.1711
 3331DPPE   GL161827   6.788   2.556  13.446  0.1633  0.1076 -0.0207
 3331DPPE   GL261828   6.591   2.717  13.238 -0.0531  0.0403  0.1861
 3331DPPE   C1A61829   6.360   2.321  13.399  0.0565 -0.2057  0.4768
 3331DPPE   C2A61830   6.057   2.053  13.036  0.0450 -0.0822  0.0380
 3331DPPE   C3A61831   5.609   2.193  12.950  0.0754 -0.1824  0.1786
 3331DPPE   C4A61832   5.291   1.975  12.854  0.4342  0.3928 -0.1304
 3331DPPE   C1B61833   6.547   2.381  12.895 -0.0513 -0.1265 -0.4814
 3331DPPE   C2B61834   6.354   2.205  12.703  0.3009  0.0469  0.1970
 3331DPPE   C3B61835   6.160   1.919  12.573  0.1518 -0.0124  0.2426
 3331DPPE   C4B61836   5.964   1.592  12.470 -0.0147  0.0773  0.3551
 3332DPPE   NH361837  12.520   7.563   4.699  0.3989 -0.0246 -0.0666
 3332DPPE   PO461838  12.220   7.654   4.978  0.1112 -0.1288  0.4327
 3332DPPE   GL161839  11.922   7.449   4.704  0.0794  0.4503 -0.0706
 3332DPPE   GL261840  11.674   7.609   4.783  0.0940  0.1163  0.2301
 3332DPPE   C1A61841  11.780   7.533   4.291 -0.0143  0.0156  0.1003
 3332DPPE   C2A61842  11.937   7.490   3.825 -0.1131 -0.1446 -0.1089
 3332DPPE   C3A61843  11.988   7.593   3.370 -0.0630  0.0420  0.4354
 3332DPPE   C4A61844  11.996   7.738   2.896 -0.0312 -0.0308  0.2620
 3332DPPE   C1B61845  11.206   7.564   4.772  0.0043 -0.1723  0.0354
 3332DPPE   C2B61846  10.873   7.835   4.715  0.1623 -0.0378  0.0413
 3332DPPE   C3B61847  10.471   8.003   4.543  0.0020 -0.1988  0.2235
 3332DPPE   C4B61848  10.056   8.043   4.303  0.1207 -0.2771 -0.2638
 3333DPPE   NH361849   6.069  11.642  11.197 -0.0300 -0.0353 -0.1635
 3333DPPE   PO461850   6.188  11.799  10.806 -0.1021  0.2219 -0.1673
 3333DPPE   GL161851   6.495  12.056  10.696  0.1465 -0.2893 -0.2449
 3333DPPE   GL261852   6.639  12.029  10.354 -0.1936 -0.3638  0.0826
 3333DPPE   C1A61853   6.642  12.401  10.933  0.0527 -0.0930 -0.3176
 3333DPPE   C2A61854   6.844  12.673  11.114 -0.0982  0.0018  0.0334
 3333DPPE   C3A61855   7.020  13.062  11.247 -0.3160 -0.0233  0.2330
 3333DPPE   C4A61856   7.050  13.304  11.585  0.0324 -0.0412 -0.3227
 3333DPPE   C1B61857   7.010  12.139  10.500 -0.1282 -0.0045 -0.1892
 3333DPPE   C2B61858   7.445  12.387  10.591 -0.2107 -0.0604 -0.1275
 3333DPPE   C3B61859   7.563  12.712  10.432 -0.2635 -0.0700 -0.0191
 3333DPPE   C4B61860   7.802  12.845  10.128  0.0044 -0.0747 -0.1418
 3334DPPE   NH361861   5.632   6.931  11.905  0.3158 -0.1203  0.1124
 3334DPPE   PO461862   5.165   6.974  11.823  0.1089  0.0183  0.0392
 3334DPPE   GL161863   4.791   7.015  11.800 -0.0807 -0.0345 -0.2199
 3334DPPE   GL261864   4.472   6.942  12.043  0.2787  0.0534 -0.1796
 3334DPPE   C1A61865   4.381   7.061  11.462  0.1976 -0.2896  0.2156
 3334DPPE   C2A61866   3.903   7.168  11.449  0.1626  0.2936  0.2060
 3334DPPE   C3A61867   3.614   7.373  11.677 -0.1643 -0.1110 -0.3259
 3334DPPE   C4A61868   3.195   7.408  11.576 -0.1402 -0.0022  0.1817
 3334DPPE   C1B61869   4.123   7.013  11.918 -0.4821 -0.0387 -0.1493
 3334DPPE   C2B61870   3.744   6.847  11.900 -0.0219  0.1837  0.2027
 3334DPPE   C3B61871   3.423   6.655  12.061  0.1506 -0.0065  0.4188
 3334DPPE   C4B61872   2.968   6.682  11.943 -0.2561 -0.0391  0.1514
 3335DPPE   NH361873   4.861   9.134  12.803 -0.1576  0.2593  0.0065
 3335DPPE   PO461874   5.197   9.133  12.484  0.0009  0.0038 -0.0480
 3335DPPE   GL161875   4.853   9.152  12.286  0.1707  0.1507 -0.1995
 3335DPPE   GL261876   4.914   9.013  11.899 -0.5217 -0.4727 -0.0934
 3335DPPE   C1A61877   4.370   9.075  12.011 -0.0425  0.1983 -0.3579
 3335DPPE   C2A61878   4.179   9.394  11.777  0.1686  0.0627 -0.1250
 3335DPPE   C3A61879   3.969   9.706  11.483 -0.0970  0.2123  0.1132
 3335DPPE   C4A61880   3.693   9.680  11.038 -0.0899  0.3676  0.2022
 3335DPPE   C1B61881   4.575   9.056  11.571  0.1760  0.0967 -0.4930
 3335DPPE   C2B61882   4.194   8.834  11.390 -0.0541 -0.0485  0.1675
 3335DPPE   C3B61883   3.784   8.820  11.262  0.4112 -0.0232  0.2186
 3335DPPE   C4B61884   3.526   8.500  10.851  0.0705 -0.1829 -0.0719
 3336DPPE   NH361885   5.237   4.810  13.600 -0.4774 -0.0222 -0.1411
 3336DPPE   PO461886   5.249   4.481  13.839 -0.1096  0.2586 -0.2703
 3336DPPE   GL161887   4.834   4.422  13.787  0.2892 -0.0509 -0.1235
 3336DPPE   GL261888   4.803   4.232  13.831  0.2592 -0.0878  0.0503
 3336DPPE   C1A61889   4.538   4.542  13.519  0.0323 -0.3197 -0.2882
 3336DPPE   C2A61890   4.119   4.433  13.541  0.2052  0.0760  0.2436
 3336DPPE   C3A61891   3.998   3.985  13.427 -0.1726  0.0148  0.0846
 3336DPPE   C4A61892   3.923   3.848  12.954 -0.1777  0.2350 -0.1404
 3336DPPE   C1B61893   4.496   4.028  13.875  0.1059  0.0729  0.2539
 3336DPPE   C2B61894   4.191   3.685  13.891 -0.0886  0.0377 -0.2579
 3336DPPE   C3B61895   4.233   3.181  13.785 -0.0251  0.3842 -0.4343
 3336DPPE   C4B61896   4.198   3.055  13.281 -0.1938 -0.0038  0.0535
 3337DPPE   NH361897   7.432  11.311   9.406  0.0011  0.2583 -0.0137
 3337DPPE   PO461898   7.170  11.346   9.823 -0.0976 -0.1603  0.1566
 3337DPPE   GL161899   7.475  11.612   9.955 -0.0220 -0.1722 -0.6742
 3337DPPE   GL261900   7.349  11.959   9.933  0.2979  0.3945  0.0544
 3337DPPE   C1A61901   7.563  11.907  10.345 -0.2713  0.0021 -0.2682
 3337DPPE   C2A61902   7.910  12.105  10.465  0.0096  0.0093 -0.0786
 3337DPPE   C3A61903   8.001  12.436  10.466  0.1560  0.1336  0.1753
 3337DPPE   C4A61904   8.090  12.779  10.545  0.1051 -0.2268  0.3435
 3337DPPE   C1B61905   7.455  12.415  10.046  0.0323 -0.1992  0.3315
 3337DPPE   C2B61906   7.200  12.885  10.057 -0.1213  0.2744  0.3095
 3337DPPE   C3B61907   7.071  13.217  10.316  0.3252  0.0116 -0.0861
 3337DPPE   C4B61908   7.036  13.527  10.491 -0.2562 -0.2656 -0.0268
 3338DPPE   NH361909   8.925   4.852  10.133  0.1642 -0.0815  0.2087
 3338DPPE   PO461910   9.376   4.778   9.929 -0.2971 -0.4326 -0.2730
 3338DPPE   GL161911   9.627   4.777  10.242  0.0837  0.1410  0.0154
 3338DPPE   GL261912   9.843   4.820  10.150 -0.0514 -0.1059 -0.2027
 3338DPPE   C1A61913   9.667   4.887  10.683 -0.2355  0.0025  0.0923
 3338DPPE   C2A61914   9.925   5.077  10.935 -0.0155  0.0699  0.0918
 3338DPPE   C3A61915  10.263   5.297  11.138  0.2830 -0.2916  0.0911
 3338DPPE   C4A61916  10.373   5.497  11.504  0.1816 -0.2177  0.0617
 3338DPPE   C1B61917  10.167   4.850  10.511 -0.0689  0.1082  0.0894
 3338DPPE   C2B61918  10.460   5.127  10.705 -0.1483 -0.2716 -0.2524
 3338DPPE   C3B61919  10.733   5.491  10.900 -0.1282 -0.2846  0.1950
 3338DPPE   C4B61920  10.963   5.680  11.190  0.1744  0.3236 -0.3323
 3339DPPE   NH361921   7.125   8.133   9.673 -0.1945  0.1132 -0.0020
 3339DPPE   PO461922   6.972   7.792   9.381  0.0604 -0.1810  0.0576
 3339DPPE   GL161923   6.756   7.568   9.069 -0.4064 -0.0514 -0.1479
 3339DPPE   GL261924   6.824   7.726   8.846  0.2196 -0.1281  0.0522
 3339DPPE   C1A61925   6.448   7.396   8.905 -0.2202  0.1065  0.1275
 3339DPPE   C2A61926   6.292   7.369   8.557 -0.4581  0.1112  0.1464
 3339DPPE   C3A61927   6.006   7.583   8.291  0.0826  0.0060  0.0031
 3339DPPE   C4A61928   5.551   7.814   8.146  0.0120  0.0581  0.0935
 3339DPPE   C1B61929   6.488   7.850   8.552  0.2166 -0.0333  0.2665
 3339DPPE   C2B61930   6.174   8.115   8.366 -0.0622 -0.0079 -0.4467
 3339DPPE   C3B61931   5.807   8.307   8.255 -0.2476 -0.0136 -0.1337
 3339DPPE   C4B61932   5.377   8.403   8.143  0.1558  0.1182  0.2348
 3340DPPE   NH361933   6.321  10.729  11.810  0.2629 -0.0726 -0.0774
 3340DPPE   PO461934   6.083  10.992  11.974 -0.0080  0.1932  0.2152
 3340DPPE   GL161935   6.226  11.408  12.050 -0.0861 -0.1616 -0.1547
 3340DPPE   GL261936   6.446  11.524  11.807 -0.0273  0.3376 -0.1966
 3340DPPE   C1A61937   6.334  11.790  12.214  0.1072  0.0970  0.2525
 3340DPPE   C2A61938   6.302  12.188  12.514  0.1501  0.2285 -0.1453
 3340DPPE   C3A61939   6.269  12.659  12.659 -0.2209  0.2900  0.1128
 3340DPPE   C4A61940   6.575  12.980  12.628  0.0177  0.1156  0.2340
 3340DPPE   C1B61941   6.368  11.993  11.710  0.0173 -0.3238 -0.1083
 3340DPPE   C2B61942   6.693  12.309  11.524  0.3759  0.1228 -0.1201
 3340DPPE   C3B61943   7.038  12.595  11.621 -0.2695 -0.1763  0.0920
 3340DPPE   C4B61944   7.409  12.702  11.566  0.0456  0.1510  0.2432
 3341DPPE   NH361945   5.889   5.015  16.896  0.1589 -0.3359  0.0439
 3341DPPE   PO461946   5.528   5.052  16.647 -0.0670  0.0611  0.4231
 3341DPPE   GL161947   5.229   5.300  16.636 -0.0285  0.1934 -0.0484
 3341DPPE   GL261948   5.318   5.550  16.746 -0.1468  0.1458 -0.1509
 3341DPPE   C1A61949   4.844   5.337  16.602  0.2131  0.0131 -0.2309
 3341DPPE   C2A61950   4.418   5.202  16.388 -0.0886  0.2261  0.0812
 3341DPPE   C3A61951   4.077   4.860  16.366 -0.1091  0.6083  0.0047
 3341DPPE   C4A61952   3.881   4.475  16.255 -0.0323  0.0864 -0.2162
 3341DPPE   C1B61953   5.197   5.736  17.073 -0.1549  0.1278 -0.0620
 3341DPPE   C2B61954   5.066   5.964  17.360  0.2128 -0.1560 -0.3019
 3341DPPE   C3B61955   5.075   5.940  17.729 -0.0694 -0.1455 -0.2532
 3341DPPE   C4B61956   5.038   6.145  18.108 -0.1997  0.1455  0.1792
 3342DPPE   NH361957   7.189   2.565  16.197 -0.0567  0.1077  0.1325
 3342DPPE   PO461958   6.899   2.729  15.791 -0.3023 -0.0735  0.0132
 3342DPPE   GL161959   6.712   2.409  15.966  0.1540  0.2862  0.1909
 3342DPPE   GL261960   6.718   2.214  15.754  0.1918  0.0289 -0.0816
 3342DPPE   C1A61961   6.186   2.168  15.996  0.0676 -0.0919 -0.0929
 3342DPPE   C2A61962   5.946   1.786  15.942 -0.1572  0.3359  0.0530
 3342DPPE   C3A61963   6.142   1.422  15.879 -0.0812 -0.2981 -0.2497
 3342DPPE   C4A61964   6.500   1.235  16.001  0.2594 -0.1383 -0.3423
 3342DPPE   C1B61965   6.555   1.821  16.049 -0.3056 -0.1068  0.1265
 3342DPPE   C2B61966   6.296   1.560  16.348  0.0252  0.3831 -0.2345
 3342DPPE   C3B61967   5.863   1.489  16.333  0.1609  0.1234 -0.3607
 3342DPPE   C4B61968   5.591   1.131  16.302  0.1901 -0.0655  0.1504
 3343DPPE   NH361969   9.394   4.308  10.208 -0.0187 -0.0327  0.4595
 3343DPPE   PO461970   8.985   4.393  10.302 -0.2465 -0.0348 -0.3809
 3343DPPE   GL161971   9.105   4.733  10.622 -0.1336 -0.2256 -0.1845
 3343DPPE   GL261972   8.946   4.652  10.876 -0.2008  0.0432  0.0086
 3343DPPE   C1A61973   9.250   5.157  10.601  0.0917  0.2049 -0.0773
 3343DPPE   C2A61974   9.446   5.501  10.666  0.1175  0.1191  0.1090
 3343DPPE   C3A61975   9.779   5.818  10.843  0.1809 -0.0461 -0.0907
 3343DPPE   C4A61976   9.893   6.197  10.989 -0.0734 -0.0715  0.0010
 3343DPPE   C1B61977   9.367   4.935  11.035  0.0143  0.3102  0.1144
 3343DPPE   C2B61978   9.593   5.361  11.313 -0.3539  0.3348 -0.0457
 3343DPPE   C3B61979   9.818   5.547  11.601  0.0967  0.0607  0.4814
 3343DPPE   C4B61980  10.200   5.818  11.824 -0.2517 -0.0824 -0.1623
 3344DPPE   NH361981   6.739   5.816  15.934  0.2131  0.0438  0.0326
 3344DPPE   PO461982   6.332   5.983  16.169  0.0255  0.0504 -0.0162
 3344DPPE   GL161983   6.773   5.984  16.373  0.1005  0.0693  0.0427
 3344DPPE   GL261984   6.980   6.237  16.254 -0.2507  0.1746 -0.4066
 3344DPPE   C1A61985   6.777   5.956  16.836  0.0175  0.1821  0.3282
 3344DPPE   C2A61986   6.829   5.804  17.308  0.3090  0.4101 -0.0072
 3344DPPE   C3A61987   6.960   5.455  17.508  0.2146 -0.1546  0.1102
 3344DPPE   C4A61988   7.214   5.438  17.839  0.0164  0.1220  0.0702
 3344DPPE   C1B61989   6.855   6.477  16.600  0.0994 -0.0743  0.0735
 3344DPPE   C2B61990   7.092   6.913  16.766  0.3432  0.0051  0.0140
 3344DPPE   C3B61991   7.142   7.055  17.202  0.1523 -0.1674 -0.1463
 3344DPPE   C4B61992   7.521   6.908  17.489 -0.0845  0.2649  0.0302
 3345DPPE   NH361993   6.181  11.139  10.812 -0.1362  0.0485 -0.5854
 3345DPPE   PO461994   6.483  11.238  11.023  0.1063  0.2472 -0.2979
 3345DPPE   GL161995   6.634  11.625  11.067 -0.3475  0.1092 -0.0638
 3345DPPE   GL261996   6.495  11.954  11.177  0.3421  0.0980 -0.3100
 3345DPPE   C1A61997   6.945  11.942  10.926 -0.2366 -0.0592  0.0481
 3345DPPE   C2A61998   7.136  12.266  11.100  0.1167  0.1416 -0.1865
 3345DPPE   C3A61999   7.321  12.650  11.029 -0.2498  0.1800 -0.0217
 3345DPPE   C4A62000   7.777  12.890  10.913 -0.0826  0.2504  0.1207
 3345DPPE   C1B62001   6.860  11.886  11.415  0.1423 -0.0561 -0.1108
 3345DPPE   C2B62002   7.037  12.064  11.775 -0.1904  0.2836  0.4105
 3345DPPE   C3B62003   7.313  12.204  11.974  0.0279  0.2330 -0.1664
 3345DPPE   C4B62004   7.644  12.153  12.150 -0.0995 -0.0433 -0.0199
 3346DPPE   NH362005   7.938   1.322  14.335 -0.0867 -0.1559 -0.2583
 3346DPPE   PO462006   7.817   1.366  14.797  0.2781  0.1066 -0.3858
 3346DPPE   GL162007   7.501   1.215  15.105  0.0381  0.1611 -0.2867
 3346DPPE   GL262008   7.710   0.968  15.158 -0.1120 -0.0968  0.2186
 3346DPPE   C1A62009   7.023   0.980  15.029  0.3233  0.0000  0.0199
 3346DPPE   C2A62010   6.692   0.838  15.176 -0.1735 -0.4449  0.1425
 3346DPPE   C3A62011   6.504   0.463  15.296  0.0380  0.0725 -0.0822
 3346DPPE   C4A62012   6.202   0.439  15.535  0.1042  0.0385 -0.0790
 3346DPPE   C1B62013   7.319   0.791  15.372  0.2243 -0.0118  0.0559
 3346DPPE   C2B62014   6.969   0.521  15.561 -0.0898 -0.1007 -0.2724
 3346DPPE   C3B62015   6.617   0.364  15.762 -0.0818  0.2355  0.0184
 3346DPPE   C4B62016   6.191   0.307  15.996 -0.1532  0.0591 -0.3126
 3347DPPE   NH362017  11.259   4.685   7.116  0.2263 -0.0021 -0.0666
 3347DPPE   PO462018  11.284   4.252   7.378  0.1563  0.1510 -0.2469
 3347DPPE   GL162019  11.263   4.230   6.902  0.0672 -0.0463  0.0251
 3347DPPE   GL262020  11.199   4.004   6.772  0.0628  0.0100  0.2053
 3347DPPE   C1A62021  11.406   4.259   6.411  0.1309  0.0454  0.1160
 3347DPPE   C2A62022  11.258   3.967   6.156  0.0838 -0.3547  0.1049
 3347DPPE   C3A62023  11.119   3.870   5.655  0.1141 -0.0248 -0.4336
 3347DPPE   C4A62024  11.475   3.933   5.307 -0.2734  0.2644  0.0211
 3347DPPE   C1B62025  11.088   3.679   6.565 -0.0778 -0.1314 -0.0647
 3347DPPE   C2B62026  10.953   3.472   6.226 -0.1152  0.0566  0.0768
 3347DPPE   C3B62027  10.889   3.438   5.806 -0.1179  0.2614  0.1380
 3347DPPE   C4B62028  10.684   3.423   5.358  0.0284  0.3586 -0.0992
 3348DPPE   NH362029  17.996   2.351   7.310 -0.0645  0.0155  0.1214
 3348DPPE   PO462030  17.688   2.481   7.530  0.0080  0.3900 -0.0842
 3348DPPE   GL162031  17.925   2.777   7.733 -0.4261  0.0524  0.2942
 3348DPPE   GL262032  18.068   2.965   7.625 -0.2137 -0.2167  0.0740
 3348DPPE   C1A62033  18.240   2.929   8.106 -0.1275  0.1733  0.2412
 3348DPPE   C2A62034  18.754   2.942   8.124  0.3875  0.0547 -0.0396
 3348DPPE   C3A62035  18.910   3.236   8.426  0.1224 -0.0579 -0.0354
 3348DPPE   C4A62036  18.966   3.327   8.861  0.1832 -0.0442 -0.0094
 3348DPPE   C1B62037  18.513   3.138   7.730 -0.2625 -0.3606 -0.0640
 3348DPPE   C2B62038  19.142   3.206   7.843  0.2591 -0.1437 -0.1984
 3348DPPE   C3B62039  19.430   2.980   7.937 -0.2019 -0.0816 -0.1137
 3348DPPE   C4B62040  19.761   2.867   8.099  0.0369  0.0405 -0.0826
 3349DPPE   NH362041   4.384   6.125  14.325  0.0548  0.1327 -0.1269
 3349DPPE   PO462042   4.640   6.199  13.947  0.0454  0.3647  0.0672
 3349DPPE   GL162043   4.275   6.548  13.744 -0.0582  0.0390 -0.3459
 3349DPPE   GL262044   3.970   6.783  13.837 -0.0735  0.0577  0.1328
 3349DPPE   C1A62045   3.838   6.369  13.753 -0.1544  0.0735  0.0507
 3349DPPE   C2A62046   3.458   6.141  13.875 -0.2109 -0.3581  0.1709
 3349DPPE   C3A62047   3.198   6.219  14.087 -0.1234 -0.1166  0.0256
 3349DPPE   C4A62048   2.859   6.259  14.005  0.0273 -0.2659  0.1419
 3349DPPE   C1B62049   3.593   6.841  13.705 -0.1401  0.3360 -0.0899
 3349DPPE   C2B62050   3.277   6.932  13.354  0.3211  0.0127 -0.0071
 3349DPPE   C3B62051   2.980   7.292  13.219 -0.3709 -0.2627  0.1261
 3349DPPE   C4B62052   3.004   7.682  12.924  0.1124  0.0431 -0.4501
 3350DPPE   NH362053   6.292   3.481  17.214  0.3103  0.1816  0.0004
 3350DPPE   PO462054   6.125   3.333  16.792  0.2515 -0.2024  0.2393
 3350DPPE   GL162055   6.014   2.939  16.908  0.2131  0.1530 -0.0719
 3350DPPE   GL262056   6.219   2.976  17.187  0.1461  0.1154  0.2559
 3350DPPE   C1A62057   6.049   2.555  17.192  0.1686  0.3107  0.0882
 3350DPPE   C2A62058   5.830   2.332  17.481  0.1590  0.2489  0.0022
 3350DPPE   C3A62059   5.692   1.876  17.364  0.0948 -0.0823 -0.4376
 3350DPPE   C4A62060   5.754   1.508  17.247 -0.2545  0.0423 -0.1810
 3350DPPE   C1B62061   5.874   2.978  17.443 -0.0964 -0.2608 -0.2606
 3350DPPE   C2B62062   5.613   2.741  17.649 -0.1997  0.1834 -0.3647
 3350DPPE   C3B62063   5.585   2.521  17.977 -0.0519  0.0724 -0.3458
 3350DPPE   C4B62064   5.384   2.639  18.418 -0.2223  0.0572 -0.0721
 3351DPPE   NH362065   7.452   1.848  15.855 -0.0704  0.3250  0.1880
 3351DPPE   PO462066   7.517   1.583  16.152 -0.1688 -0.0145 -0.0475
 3351DPPE   GL162067   7.406   1.405  16.599 -0.0446  0.0747  0.1185
 3351DPPE   GL262068   7.750   1.425  16.838  0.0037  0.2685  0.1623
 3351DPPE   C1A62069   7.086   1.059  16.667  0.2192 -0.0016  0.1416
 3351DPPE   C2A62070   6.875   0.778  16.469 -0.0555 -0.0245  0.0723
 3351DPPE   C3A62071   6.764   0.559  16.136 -0.0188 -0.1935  0.2560
 3351DPPE   C4A62072   6.561   0.042  16.177 -0.0478  0.0362  0.1102
 3351DPPE   C1B62073   7.943   1.246  17.209  0.2459 -0.1957 -0.4049
 3351DPPE   C2B62074   8.013   1.456  17.598  0.1335  0.1457 -0.3375
 3351DPPE   C3B62075   8.352   1.651  17.686  0.0160  0.1081 -0.1486
 3351DPPE   C4B62076   8.569   1.650  18.097 -0.2804  0.1407 -0.1654
 3352DPPE   NH362077  10.122  11.444   6.129 -0.3112  0.0667  0.1427
 3352DPPE   PO462078  10.110  10.954   5.927 -0.1195 -0.2490 -0.2341
 3352DPPE   GL162079   9.906  11.146   5.505  0.3003  0.2603  0.0627
 3352DPPE   GL262080   9.768  10.837   5.488  0.2417 -0.1791  0.0583
 3352DPPE   C1A62081   9.822  11.229   5.124 -0.3777 -0.2479 -0.4533
 3352DPPE   C2A62082   9.402  11.411   4.897 -0.1981  0.0874  0.1552
 3352DPPE   C3A62083   9.217  11.837   5.060  0.1972 -0.2959  0.0568
 3352DPPE   C4A62084   9.242  12.154   4.858 -0.2399  0.1923  0.0521
 3352DPPE   C1B62085   9.408  11.011   5.409  0.2507 -0.2675  0.3173
 3352DPPE   C2B62086   9.159  11.126   5.173 -0.1175  0.2989  0.0932
 3352DPPE   C3B62087   8.812  11.034   5.167  0.0398  0.2283  0.0542
 3352DPPE   C4B62088   8.502  10.819   5.185  0.0169 -0.2874 -0.0111
 3353DPPE   NH362089   9.184   0.787  15.277 -0.3537 -0.0055  0.1793
 3353DPPE   PO462090   9.287   0.455  15.573  0.1911 -0.0368  0.1182
 3353DPPE   GL162091   9.020   0.107  15.699  0.0204 -0.0853  0.0504
 3353DPPE   GL262092   8.777   0.187  15.780  0.0783 -0.2442 -0.3656
 3353DPPE   C1A62093   8.982  -0.161  16.097  0.3686 -0.0591  0.1103
 3353DPPE   C2A62094   8.730  -0.509  16.109  0.0146  0.0749  0.1969
 3353DPPE   C3A62095   8.819  -1.051  16.164 -0.1727  0.2596 -0.3788
 3353DPPE   C4A62096   8.640  -1.473  16.056 -0.0716  0.2790 -0.0222
 3353DPPE   C1B62097   8.571   0.161  16.129  0.0120  0.1485  0.0861
 3353DPPE   C2B62098   8.358  -0.159  16.314 -0.2705 -0.2022  0.2821
 3353DPPE   C3B62099   8.253  -0.488  16.285 -0.1078 -0.2917 -0.2153
 3353DPPE   C4B62100   8.013  -0.672  16.503  0.0338  0.1555  0.0280
 3354DPPE   NH362101  16.401   3.739   5.933  0.0189  0.1910 -0.3100
 3354DPPE   PO462102  16.142   4.013   5.980  0.2471 -0.1727 -0.1637
 3354DPPE   GL162103  16.136   3.836   5.486  0.2801 -0.1134 -0.0291
 3354DPPE   GL262104  16.325   3.969   5.233 -0.1657  0.0541  0.2903
 3354DPPE   C1A62105  15.966   3.668   5.105  0.1038  0.0595  0.0514
 3354DPPE   C2A62106  15.944   3.352   4.617 -0.0365  0.0917 -0.2155
 3354DPPE   C3A62107  15.968   3.030   4.236 -0.1361 -0.1361  0.1853
 3354DPPE   C4A62108  16.148   2.598   3.934  0.1811 -0.0373  0.3176
 3354DPPE   C1B62109  16.256   3.957   4.799  0.1744  0.0523 -0.0225
 3354DPPE   C2B62110  16.308   3.656   4.485  0.0674 -0.0356  0.4908
 3354DPPE   C3B62111  16.224   3.434   4.109  0.0485  0.3675 -0.0515
 3354DPPE   C4B62112  16.171   3.205   3.708  0.1297 -0.0245 -0.0953
 3355DPPE   NH362113  11.165   0.046  11.970  0.0076 -0.3754  0.1900
 3355DPPE   PO462114  10.814   0.248  11.555 -0.0504 -0.1250 -0.2554
 3355DPPE   GL162115  10.747  -0.129  11.375 -0.0678  0.0768 -0.2144
 3355DPPE   GL262116  10.516  -0.198  11.672  0.4521  0.1265 -0.2339
 3355DPPE   C1A62117  10.365  -0.215  11.046  0.1132  0.2389 -0.0172
 3355DPPE   C2A62118   9.974  -0.221  10.811 -0.1953  0.0302  0.0069
 3355DPPE   C3A62119   9.817  -0.523  10.458  0.0247  0.2929  0.1995
 3355DPPE   C4A62120   9.660  -0.848  10.168  0.1092  0.0686  0.2689
 3355DPPE   C1B62121  10.500  -0.570  11.463  0.2503 -0.0804  0.0115
 3355DPPE   C2B62122  10.243  -0.770  11.168  0.2103  0.3471 -0.3032
 3355DPPE   C3B62123  10.201  -1.117  11.047 -0.1088  0.3915  0.2541
 3355DPPE   C4B62124   9.984  -1.439  11.080  0.0485  0.1584  0.1022
 3356DPPE   NH362125   7.231   2.119  14.343 -0.2967  0.0808  0.1943
 3356DPPE   PO462126   6.943   2.312  14.060  0.2361 -0.0731 -0.0400
 3356DPPE   GL162127   6.634   2.028  13.945 -0.2157 -0.5000  0.1899
 3356DPPE   GL262128   6.674   2.023  13.603 -0.4340 -0.0187 -0.0966
 3356DPPE   C1A62129   6.407   1.708  14.110  0.1536 -0.1476 -0.1664
 3356DPPE   C2A62130   6.038   1.550  14.048  0.1800  0.2090 -0.1057
 3356DPPE   C3A62131   5.672   1.357  13.939  0.0303  0.0049  0.0160
 3356DPPE   C4A62132   5.526   0.997  13.989 -0.1307  0.2694 -0.2042
 3356DPPE   C1B62133   6.272   1.827  13.550  0.4496 -0.0168 -0.1439
 3356DPPE   C2B62134   6.075   1.583  13.312 -0.3234 -0.0536 -0.4012
 3356DPPE   C3B62135   5.739   1.539  13.055  0.3032  0.1761 -0.0140
 3356DPPE   C4B62136   5.373   1.382  13.048 -0.0500  0.2796  0.1298
 3357DPPE   NH362137  15.251   7.364   4.671  0.2218 -0.2741 -0.1761
 3357DPPE   PO462138  15.058   7.624   4.494 -0.0300 -0.1055 -0.1203
 3357DPPE   GL162139  15.023   7.588   4.131 -0.0149 -0.3050 -0.2705
 3357DPPE   GL262140  15.141   7.860   4.032 -0.1497  0.1882 -0.4075
 3357DPPE   C1A62141  14.979   7.331   3.748  0.1553 -0.1232  0.1238
 3357DPPE   C2A62142  14.983   7.066   3.415 -0.3101 -0.1154 -0.0444
 3357DPPE   C3A62143  14.811   6.948   3.011 -0.0837  0.0009 -0.0656
 3357DPPE   C4A62144  14.552   7.152   2.703  0.2334  0.0333 -0.2389
 3357DPPE   C1B62145  15.253   8.149   3.726  0.3604  0.2950  0.0510
 3357DPPE   C2B62146  15.472   8.462   3.491  0.2437  0.0691  0.0644
 3357DPPE   C3B62147  15.723   8.446   3.094 -0.1574 -0.1441  0.0631
 3357DPPE   C4B62148  16.175   8.615   3.121  0.0629 -0.1120 -0.1097
 3358DPPE   NH362149   8.069   2.392  11.517  0.0209  0.0481 -0.2411
 3358DPPE   PO462150   8.272   1.935  11.491 -0.0265  0.1875 -0.1432
 3358DPPE   GL162151   7.810   1.833  11.411  0.1218  0.1002 -0.0308
 3358DPPE   GL262152   7.609   2.107  11.424  0.0315 -0.0137  0.0385
 3358DPPE   C1A62153   7.539   1.786  11.044 -0.3310 -0.3091  0.1283
 3358DPPE   C2A62154   7.116   1.706  10.932  0.1652 -0.0529 -0.3637
 3358DPPE   C3A62155   6.877   1.371  10.786 -0.0033  0.0469 -0.3430
 3358DPPE   C4A62156   6.640   1.005  10.737  0.2994 -0.2278 -0.0396
 3358DPPE   C1B62157   7.279   1.695  11.459 -0.0231  0.1408  0.1569
 3358DPPE   C2B62158   6.929   1.437  11.369  0.3513 -0.2004 -0.2859
 3358DPPE   C3B62159   6.718   1.157  11.225  0.0131  0.1841 -0.1449
 3358DPPE   C4B62160   6.373   0.994  11.156  0.0483 -0.0472  0.0938
 3359DPPE   NH362161   8.319   6.527   7.747  0.3735  0.0614  0.2136
 3359DPPE   PO462162   8.273   6.866   7.446  0.1609  0.1478 -0.1641
 3359DPPE   GL162163   8.032   6.518   7.302 -0.2479  0.1251  0.2357
 3359DPPE   GL262164   7.966   6.137   7.475  0.0560 -0.2217 -0.2620
 3359DPPE   C1A62165   7.803   6.513   6.917  0.0547 -0.0756 -0.2061
 3359DPPE   C2A62166   7.399   6.649   6.811  0.2051 -0.4015  0.1149
 3359DPPE   C3A62167   7.049   6.790   6.634  0.0645  0.2501 -0.3444
 3359DPPE   C4A62168   6.543   6.839   6.604  0.0643 -0.1363 -0.2783
 3359DPPE   C1B62169   7.757   5.866   7.157 -0.1848 -0.2267  0.3412
 3359DPPE   C2B62170   7.675   5.693   6.682 -0.3412  0.0746  0.0986
 3359DPPE   C3B62171   7.490   5.530   6.462 -0.0600 -0.0232 -0.2641
 3359DPPE   C4B62172   7.031   5.401   6.439  0.2468 -0.1735  0.1000
 3360DPPE   NH362173  15.164   2.397   7.129 -0.0280  0.2951  0.2975
 3360DPPE   PO462174  14.818   2.399   6.776 -0.2287 -0.1240 -0.0545
 3360DPPE   GL162175  14.636   2.213   6.364 -0.0362  0.0701 -0.2915
 3360DPPE   GL262176  14.659   1.899   6.611  0.2249  0.3211 -0.4051
 3360DPPE   C1A62177  14.482   2.183   5.886  0.0003 -0.0609  0.2755
 3360DPPE   C2A62178  14.146   2.112   5.581  0.0484 -0.1668 -0.0044
 3360DPPE   C3A62179  14.233   1.932   5.153  0.2930  0.1553  0.3898
 3360DPPE   C4A62180  14.405   2.010   4.801 -0.1249  0.1586  0.1380
 3360DPPE   C1B62181  14.883   1.564   6.306  0.2073 -0.2042 -0.4935
 3360DPPE   C2B62182  14.746   1.329   5.911  0.0546  0.1979 -0.3784
 3360DPPE   C3B62183  14.638   0.884   5.869 -0.1228  0.0747 -0.0657
 3360DPPE   C4B62184  14.546   0.445   5.690 -0.2002 -0.3172 -0.2208
 3361DPPE   NH362185   5.199   5.593  14.329 -0.0398  0.0761 -0.2475
 3361DPPE   PO462186   5.035   5.746  14.026 -0.0311  0.0082 -0.1104
 3361DPPE   GL162187   4.663   5.556  14.009  0.0575  0.2131 -0.3390
 3361DPPE   GL262188   4.471   5.693  14.024  0.2094 -0.3474 -0.0284
 3361DPPE   C1A62189   4.390   5.230  14.252 -0.0533  0.1893 -0.2195
 3361DPPE   C2A62190   4.001   5.024  14.380 -0.1540  0.0079  0.1884
 3361DPPE   C3A62191   3.645   4.832  14.213  0.1599 -0.0160 -0.1181
 3361DPPE   C4A62192   3.442   4.509  14.050 -0.1439 -0.0030  0.0752
 3361DPPE   C1B62193   4.287   5.328  13.763  0.1268 -0.1319 -0.2066
 3361DPPE   C2B62194   4.181   4.893  13.835 -0.2920 -0.0653  0.0192
 3361DPPE   C3B62195   3.934   4.539  14.003  0.0579 -0.2727 -0.1483
 3361DPPE   C4B62196   3.903   4.093  13.937 -0.2589 -0.1544  0.1319
 3362DPPE   NH362197   6.038   9.817  12.879  0.0079  0.0515  0.2793
 3362DPPE   PO462198   6.164   9.446  12.956  0.0196 -0.1661 -0.1588
 3362DPPE   GL162199   6.359   9.744  13.219 -0.0813 -0.0182 -0.0047
 3362DPPE   GL262200   6.398  10.009  13.115 -0.0922 -0.3141 -0.2019
 3362DPPE   C1A62201   6.415   9.933  13.673  0.1336  0.1962  0.0186
 3362DPPE   C2A62202   6.491  10.322  13.892  0.1431 -0.1812  0.1349
 3362DPPE   C3A62203   6.793  10.507  14.146 -0.1782  0.2454 -0.2532
 3362DPPE   C4A62204   7.098  10.827  14.286 -0.0864  0.0148 -0.3333
 3362DPPE   C1B62205   6.785  10.116  13.258  0.1920 -0.2565 -0.0804
 3362DPPE   C2B62206   7.051  10.460  13.301  0.3175  0.0484  0.2201
 3362DPPE   C3B62207   7.396  10.800  13.420  0.2996  0.0518 -0.1723
 3362DPPE   C4B62208   7.702  11.011  13.606  0.0400  0.0866  0.3091
 3363DPPE   NH362209  11.916   1.714  10.490 -0.5066  0.1871  0.2395
 3363DPPE   PO462210  11.472   1.833  10.526 -0.0889 -0.0610  0.2338
 3363DPPE   GL162211  11.663   2.192  10.428  0.2501 -0.0713 -0.0906
 3363DPPE   GL262212  11.623   2.502  10.658  0.3604  0.1040 -0.0154
 3363DPPE   C1A62213  12.152   2.274  10.495 -0.2137  0.2883 -0.0851
 3363DPPE   C2A62214  12.449   2.320  10.624 -0.4794  0.0651  0.2026
 3363DPPE   C3A62215  12.706   2.377  11.064  0.0102  0.1002 -0.0474
 3363DPPE   C4A62216  12.852   2.720  11.272 -0.0886  0.1297  0.1601
 3363DPPE   C1B62217  11.785   2.848  10.849 -0.0290  0.2472 -0.0804
 3363DPPE   C2B62218  12.059   3.106  11.044  0.2122 -0.0544  0.0497
 3363DPPE   C3B62219  12.380   3.269  11.205  0.0113  0.1334  0.0589
 3363DPPE   C4B62220  12.591   3.639  11.042 -0.2808 -0.4122  0.3564
 3364DPPE   NH362221  15.230  36.408   9.604  0.3464  0.1465  0.1856
 3364DPPE   PO462222  15.268  35.929   9.640 -0.0515  0.1782  0.0241
 3364DPPE   GL162223  15.215  35.618   9.316 -0.0484  0.5246 -0.1862
 3364DPPE   GL262224  14.905  35.454   9.316 -0.2309 -0.1752  0.2592
 3364DPPE   C1A62225  15.290  35.172   9.119 -0.0614  0.2604 -0.1115
 3364DPPE   C2A62226  15.557  35.006   8.800  0.1152 -0.1143  0.1592
 3364DPPE   C3A62227  15.952  34.950   8.942 -0.1510 -0.2886 -0.2260
 3364DPPE   C4A62228  16.034  35.065   9.323 -0.5480  0.0425 -0.0824
 3364DPPE   C1B62229  14.651  35.113   9.216 -0.0693 -0.0971  0.1259
 3364DPPE   C2B62230  14.344  34.886   9.059 -0.1107  0.0899 -0.2255
 3364DPPE   C3B62231  14.243  34.762   8.737  0.0723  0.3540  0.0932
 3364DPPE   C4B62232  14.382  34.304   8.574 -0.2682 -0.4130 -0.0740
 3365DPPE   NH362233  14.098   7.442   4.879  0.0241 -0.2090 -0.1593
 3365DPPE   PO462234  13.906   6.961   4.721 -0.2117  0.0493  0.0738
 3365DPPE   GL162235  13.864   6.874   4.241 -0.2251 -0.1424  0.1131
 3365DPPE   GL262236  13.627   6.631   4.106 -0.1243 -0.0253  0.0678
 3365DPPE   C1A62237  13.979   6.780   3.784  0.3195 -0.1645 -0.0197
 3365DPPE   C2A62238  13.858   6.660   3.345  0.0823  0.0775 -0.2202
 3365DPPE   C3A62239  13.678   6.839   2.981  0.1176 -0.1169  0.1287
 3365DPPE   C4A62240  13.446   7.152   2.838  0.1776 -0.2408 -0.2825
 3365DPPE   C1B62241  13.485   6.492   3.610  0.2578 -0.0795 -0.0248
 3365DPPE   C2B62242  13.497   6.351   3.127  0.2783 -0.2560 -0.6869
 3365DPPE   C3B62243  13.520   6.082   2.741 -0.2643 -0.1337 -0.0541
 3365DPPE   C4B62244  13.324   5.858   2.488  0.1009 -0.0379 -0.1656
 3366DPPE   NH362245   8.256   4.547  12.225 -0.0935  0.0695  0.2868
 3366DPPE   PO462246   8.282   4.691  11.698  0.2930  0.1335 -0.1164
 3366DPPE   GL162247   8.642   4.595  11.882 -0.1055 -0.1448 -0.2159
 3366DPPE   GL262248   8.774   4.338  12.197 -0.0863 -0.3454 -0.3679
 3366DPPE   C1A62249   8.977   4.792  12.024  0.4496 -0.1077  0.3762
 3366DPPE   C2A62250   9.228   5.009  12.243 -0.0731 -0.5025  0.1095
 3366DPPE   C3A62251   9.563   5.158  12.486 -0.1151  0.0155  0.1478
 3366DPPE   C4A62252  10.132   5.258  12.576  0.0543 -0.1727  0.0007
 3366DPPE   C1B62253   9.142   4.326  12.361 -0.0752  0.1097 -0.1829
 3366DPPE   C2B62254   9.433   4.141  12.526  0.0283 -0.2477 -0.1097
 3366DPPE   C3B62255   9.805   4.252  12.622  0.1032 -0.0277  0.0008
 3366DPPE   C4B62256  10.220   4.444  12.716  0.0488  0.0862 -0.1741
 3367DPPE   NH362257   6.473   5.467  16.144 -0.1476 -0.1428 -0.2300
 3367DPPE   PO462258   6.578   5.370  15.812  0.0211 -0.1792  0.0797
 3367DPPE   GL162259   7.023   5.308  15.925  0.4041 -0.0425  0.0537
 3367DPPE   GL262260   7.078   5.453  16.279 -0.1959  0.1680 -0.1150
 3367DPPE   C1A62261   7.556   5.554  16.029 -0.1214 -0.0689 -0.3308
 3367DPPE   C2A62262   7.852   5.376  16.213 -0.1690  0.3428  0.2100
 3367DPPE   C3A62263   8.051   4.974  16.445  0.2707 -0.1374 -0.5867
 3367DPPE   C4A62264   8.188   4.697  16.716  0.2407 -0.1530 -0.0688
 3367DPPE   C1B62265   7.199   5.818  16.536  0.2264  0.2059 -0.2060
 3367DPPE   C2B62266   7.261   6.069  16.819 -0.1640 -0.4980  0.1334
 3367DPPE   C3B62267   7.266   6.148  17.271  0.1151  0.0379 -0.1833
 3367DPPE   C4B62268   7.009   6.274  17.582 -0.1079 -0.2920 -0.0819
 3368DPPE   NH362269  17.090   1.408   6.978 -0.1017 -0.3293 -0.3528
 3368DPPE   PO462270  17.195   1.815   6.944  0.0352  0.2264  0.0598
 3368DPPE   GL162271  17.178   1.661   6.515 -0.1999 -0.0230  0.1393
 3368DPPE   GL262272  16.838   1.604   6.533  0.1671 -0.0295 -0.0842
 3368DPPE   C1A62273  17.146   1.706   6.142  0.1557  0.1196  0.2793
 3368DPPE   C2A62274  17.161   1.502   5.824 -0.1084  0.0952  0.0651
 3368DPPE   C3A62275  17.137   1.079   5.740 -0.0284 -0.0296  0.1462
 3368DPPE   C4A62276  16.725   0.814   5.758  0.1307 -0.0667  0.1839
 3368DPPE   C1B62277  16.632   1.576   6.120  0.0534 -0.0382  0.3136
 3368DPPE   C2B62278  16.640   1.360   5.739 -0.0033  0.0955 -0.1922
 3368DPPE   C3B62279  16.850   1.500   5.422 -0.1934  0.0153 -0.1365
 3368DPPE   C4B62280  17.165   1.369   5.183  0.0925  0.0845 -0.1548
 3369DPPE   NH362281  13.214   2.724   7.575  0.1314  0.2249  0.3679
 3369DPPE   PO462282  13.122   2.901   7.178  0.3731  0.0720  0.0395
 3369DPPE   GL162283  12.874   2.842   6.750  0.0035 -0.0513 -0.0075
 3369DPPE   GL262284  12.619   2.788   6.724 -0.4020  0.0022 -0.0717
 3369DPPE   C1A62285  13.048   2.631   6.392 -0.0699  0.1788  0.3042
 3369DPPE   C2A62286  12.958   2.378   6.133  0.0451 -0.2202  0.2033
 3369DPPE   C3A62287  12.728   2.054   6.045 -0.3370 -0.0408 -0.3404
 3369DPPE   C4A62288  12.859   1.778   5.720  0.3180 -0.2193 -0.3184
 3369DPPE   C1B62289  12.528   2.585   6.398  0.1868  0.0112  0.1180
 3369DPPE   C2B62290  12.296   2.440   6.117 -0.3010  0.3216 -0.1016
 3369DPPE   C3B62291  11.915   2.265   6.172 -0.0356 -0.0525 -0.3461
 3369DPPE   C4B62292  11.592   2.295   5.853 -0.0510  0.1276 -0.3349
 3370DPPE   NH362293  13.502   6.616   6.152  0.1034 -0.2543  0.1477
 3370DPPE   PO462294  13.217   6.959   6.335 -0.3098  0.1076 -0.0394
 3370DPPE   GL162295  13.250   7.274   6.507  0.3057  0.1180  0.0368
 3370DPPE   GL262296  13.380   7.116   6.790 -0.2800  0.2643 -0.1996
 3370DPPE   C1A62297  13.292   7.640   6.855  0.1666 -0.0260 -0.0500
 3370DPPE   C2A62298  13.481   7.831   7.332  0.0249  0.4526  0.1133
 3370DPPE   C3A62299  13.543   7.912   7.765 -0.0420 -0.3186 -0.0668
 3370DPPE   C4A62300  13.719   8.208   8.127 -0.0979  0.1054 -0.2127
 3370DPPE   C1B62301  13.484   7.295   7.224  0.0883 -0.3829 -0.0068
 3370DPPE   C2B62302  13.590   7.414   7.666  0.1665  0.0686  0.3809
 3370DPPE   C3B62303  13.749   7.580   7.991 -0.0432  0.1234  0.0556
 3370DPPE   C4B62304  14.066   7.701   8.188  0.0954  0.1085  0.2138
 3371DPPE   NH362305  14.486  34.888  11.302  0.0499 -0.1503 -0.1177
 3371DPPE   PO462306  14.239  35.251  10.999 -0.2096 -0.3516  0.3693
 3371DPPE   GL162307  14.156  34.689  10.917  0.1945  0.1462  0.0816
 3371DPPE   GL262308  14.359  34.513  10.974 -0.0048 -0.1072 -0.3196
 3371DPPE   C1A62309  14.230  34.301  10.523 -0.2614  0.2249  0.2829
 3371DPPE   C2A62310  14.151  34.284  10.105  0.0575 -0.0413 -0.1999
 3371DPPE   C3A62311  14.306  34.194   9.802  0.3770  0.2951 -0.0060
 3371DPPE   C4A62312  14.412  33.953   9.595  0.0949  0.1670  0.0148
 3371DPPE   C1B62313  14.411  34.151  10.954  0.0492  0.1185 -0.1064
 3371DPPE   C2B62314  14.780  33.947  10.979 -0.1582 -0.1206  0.1176
 3371DPPE   C3B62315  15.121  34.171  10.814  0.0168 -0.1196 -0.1670
 3371DPPE   C4B62316  15.467  34.319  10.654 -0.1987  0.0721  0.2447
 3372DPPE   NH362317  16.314   4.295   5.597  0.1329  0.2183 -0.4013
 3372DPPE   PO462318  15.997   4.411   5.318 -0.0896 -0.0881  0.1661
 3372DPPE   GL162319  16.092   4.424   4.837 -0.0548  0.3169 -0.0810
 3372DPPE   GL262320  16.219   4.670   4.821 -0.3321  0.4373 -0.1900
 3372DPPE   C1A62321  16.086   4.170   4.362 -0.1098 -0.4080  0.2054
 3372DPPE   C2A62322  16.029   3.953   4.054 -0.2975  0.1627 -0.0175
 3372DPPE   C3A62323  15.865   3.676   3.732 -0.0509  0.1097  0.0343
 3372DPPE   C4A62324  15.731   3.373   3.674 -0.0205  0.2326 -0.1884
 3372DPPE   C1B62325  16.601   4.664   4.627 -0.0303 -0.2554 -0.0062
 3372DPPE   C2B62326  16.661   4.678   4.228  0.1766  0.1562 -0.0728
 3372DPPE   C3B62327  16.774   4.438   3.903 -0.0226 -0.0479 -0.3109
 3372DPPE   C4B62328  16.516   4.253   3.513 -0.0832 -0.2823  0.1481
 3373DPPE   NH362329  10.247   5.249   8.217 -0.2115  0.3845  0.3201
 3373DPPE   PO462330  10.049   5.349   8.574  0.1854  0.0279 -0.1817
 3373DPPE   GL162331  10.160   5.652   8.639  0.0033 -0.0936 -0.1838
 3373DPPE   GL262332   9.887   5.802   8.864  0.0378  0.2715  0.3315
 3373DPPE   C1A62333  10.412   6.042   8.728 -0.1809 -0.0967 -0.3118
 3373DPPE   C2A62334  10.651   6.390   8.982  0.4924 -0.2890  0.1203
 3373DPPE   C3A62335  10.720   6.753   9.123 -0.0586 -0.3221  0.0620
 3373DPPE   C4A62336  10.819   7.111   9.381  0.0840  0.0366  0.0367
 3373DPPE   C1B62337  10.244   5.919   9.142  0.2844 -0.0595 -0.1624
 3373DPPE   C2B62338  10.574   6.125   9.418  0.0262 -0.0021  0.0227
 3373DPPE   C3B62339  11.007   6.455   9.417  0.0331 -0.0026  0.0860
 3373DPPE   C4B62340  11.401   6.770   9.160  0.3007 -0.1804  0.0260
 3374DPPE   NH362341   8.270   7.530   8.755  0.1076 -0.1220  0.4418
 3374DPPE   PO462342   8.258   7.244   8.976  0.2375 -0.2136  0.0773
 3374DPPE   GL162343   8.394   7.261   9.447  0.1316  0.1096  0.1065
 3374DPPE   GL262344   8.368   6.997   9.582 -0.3454 -0.1930 -0.0844
 3374DPPE   C1A62345   8.314   7.570   9.740  0.1226  0.1796  0.0024
 3374DPPE   C2A62346   8.198   7.586  10.041  0.1257  0.6362  0.2440
 3374DPPE   C3A62347   8.274   7.510  10.429  0.1193 -0.1770  0.0009
 3374DPPE   C4A62348   8.368   7.659  10.820 -0.2256 -0.2650  0.0205
 3374DPPE   C1B62349   8.471   7.103  10.064  0.1194  0.0483 -0.2147
 3374DPPE   C2B62350   8.620   7.197  10.447 -0.3602 -0.1161  0.0464
 3374DPPE   C3B62351   8.793   7.370  10.767  0.0992 -0.2084  0.4878
 3374DPPE   C4B62352   8.936   7.817  10.928 -0.3247  0.2336 -0.1075
 3375DPPE   NH362353   7.009   2.779  15.282  0.0271  0.1939  0.0664
 3375DPPE   PO462354   6.596   2.595  15.389 -0.0973 -0.0496  0.0948
 3375DPPE   GL162355   6.437   2.120  15.315 -0.2121 -0.1872  0.1510
 3375DPPE   GL262356   6.516   1.941  15.112  0.1754  0.3620  0.0651
 3375DPPE   C1A62357   6.117   1.749  15.448  0.1948  0.2946  0.1955
 3375DPPE   C2A62358   5.658   1.754  15.527 -0.0374 -0.2912  0.0983
 3375DPPE   C3A62359   5.471   1.472  15.832 -0.0794 -0.0260  0.1791
 3375DPPE   C4A62360   5.080   1.320  15.889 -0.0037  0.1175  0.1807
 3375DPPE   C1B62361   6.195   1.941  14.861  0.1835 -0.0034 -0.0437
 3375DPPE   C2B62362   6.000   1.675  14.560 -0.1896 -0.0151 -0.0704
 3375DPPE   C3B62363   5.817   1.282  14.413  0.2168 -0.0462 -0.4322
 3375DPPE   C4B62364   5.426   1.043  14.601  0.2523  0.1629  0.0261
 3376DPPE   NH362365  12.104  35.932  11.394 -0.1574  0.0085  0.0702
 3376DPPE   PO462366  12.362  35.591  11.627 -0.0546  0.1350  0.0130
 3376DPPE   GL162367  12.054  35.401  11.461 -0.1574 -0.1419 -0.0796
 3376DPPE   GL262368  12.071  35.090  11.466 -0.1530 -0.1167 -0.0293
 3376DPPE   C1A62369  11.685  35.203  11.240 -0.1547  0.1707 -0.3795
 3376DPPE   C2A62370  11.480  34.945  11.103  0.0048  0.0828  0.1169
 3376DPPE   C3A62371  11.178  34.691  10.960  0.4074  0.2734  0.2797
 3376DPPE   C4A62372  11.167  34.364  10.614  0.2597 -0.2725 -0.3996
 3376DPPE   C1B62373  11.758  34.781  11.501  0.2813  0.2894  0.0521
 3376DPPE   C2B62374  11.451  34.550  11.432 -0.0245 -0.2732 -0.0796
 3376DPPE   C3B62375  11.382  34.150  11.183  0.0209 -0.0779  0.0428
 3376DPPE   C4B62376  11.571  33.861  10.989 -0.0621  0.2184  0.0854
 3377DPPE   NH362377  16.775   0.646   9.571  0.1377  0.1713 -0.2436
 3377DPPE   PO462378  16.580   0.631   9.122 -0.0244  0.1660  0.1195
 3377DPPE   GL162379  16.854   0.351   9.017  0.0081  0.0417 -0.0091
 3377DPPE   GL262380  17.097   0.212   9.269  0.3424 -0.1083 -0.1327
 3377DPPE   C1A62381  17.158  -0.061   8.788 -0.1526  0.0791 -0.1825
 3377DPPE   C2A62382  17.172  -0.499   8.877  0.2760  0.2293 -0.1096
 3377DPPE   C3A62383  17.332  -0.865   8.804  0.1564  0.1300 -0.2259
 3377DPPE   C4A62384  17.694  -0.780   8.490 -0.2122  0.1853  0.1982
 3377DPPE   C1B62385  17.347  -0.138   9.281  0.0627  0.3574 -0.1189
 3377DPPE   C2B62386  17.682  -0.254   9.392 -0.1294  0.1403 -0.0214
 3377DPPE   C3B62387  17.775  -0.519   9.600  0.1995 -0.0901  0.1273
 3377DPPE   C4B62388  17.926  -0.850   9.899  0.2007 -0.0531 -0.0453
 3378DPPE   NH362389  12.748   4.750   5.996  0.0099  0.0362 -0.1770
 3378DPPE   PO462390  12.651   5.197   5.996  0.1263 -0.2884  0.3341
 3378DPPE   GL162391  12.487   5.013   5.575 -0.1608 -0.0027  0.1598
 3378DPPE   GL262392  12.155   5.072   5.548  0.0547  0.0838 -0.0568
 3378DPPE   C1A62393  12.230   4.622   5.420 -0.0883 -0.2126  0.1158
 3378DPPE   C2A62394  12.200   4.608   4.989  0.0210  0.2122 -0.2069
 3378DPPE   C3A62395  11.866   4.276   4.739 -0.0415 -0.2942 -0.2160
 3378DPPE   C4A62396  11.740   4.013   4.342 -0.3733  0.0053 -0.1020
 3378DPPE   C1B62397  11.891   4.933   5.178  0.0180 -0.5426 -0.0217
 3378DPPE   C2B62398  11.750   4.804   4.810  0.3804 -0.1323 -0.0876
 3378DPPE   C3B62399  11.425   4.464   4.558  0.2003 -0.0751 -0.4031
 3378DPPE   C4B62400  11.356   4.169   4.121 -0.0081  0.2259  0.1449
 3379DPPE   NH362401   5.968   8.662  11.161 -0.6164  0.0100 -0.0863
 3379DPPE   PO462402   5.623   8.438  11.057 -0.1920 -0.0477  0.0006
 3379DPPE   GL162403   5.321   8.631  10.783 -0.0814 -0.2221  0.0152
 3379DPPE   GL262404   5.351   8.584  10.441 -0.3452  0.2370 -0.0966
 3379DPPE   C1A62405   4.893   8.670  10.659  0.1754 -0.3075  0.0248
 3379DPPE   C2A62406   4.538   8.608  10.504  0.2079  0.2369 -0.0786
 3379DPPE   C3A62407   4.163   8.701  10.193  0.2157  0.1473  0.0305
 3379DPPE   C4A62408   4.111   8.661   9.722  0.2091 -0.0980  0.0340
 3379DPPE   C1B62409   5.025   8.483  10.127  0.2122  0.0511 -0.2331
 3379DPPE   C2B62410   4.646   8.261  10.115  0.0851  0.2188 -0.0179
 3379DPPE   C3B62411   4.439   8.056   9.877  0.2301  0.2259 -0.0747
 3379DPPE   C4B62412   4.146   8.059   9.649 -0.0401  0.3050  0.0401
 3380DPPE   NH362413   9.499  10.806   7.862  0.2033  0.0429 -0.3714
 3380DPPE   PO462414   9.053  11.017   8.167 -0.1050 -0.0638  0.2485
 3380DPPE   GL162415   9.157  11.371   8.392  0.0517  0.1227 -0.0905
 3380DPPE   GL262416   8.922  11.508   8.613  0.1451 -0.0042 -0.3278
 3380DPPE   C1A62417   9.264  11.846   8.639 -0.3710  0.6140 -0.0520
 3380DPPE   C2A62418   9.341  12.354   8.485  0.1827 -0.1079  0.1412
 3380DPPE   C3A62419   9.333  12.354   8.087  0.1696 -0.1034  0.1340
 3380DPPE   C4A62420   9.108  12.416   7.710  0.0879 -0.2098 -0.2162
 3380DPPE   C1B62421   8.747  11.757   9.002 -0.0580  0.2493  0.0691
 3380DPPE   C2B62422   8.590  12.136   9.232 -0.1161  0.2484 -0.2307
 3380DPPE   C3B62423   8.724  12.613   9.145 -0.0874  0.1205  0.2350
 3380DPPE   C4B62424   8.678  13.017   9.193  0.0520  0.1315  0.0485
 3381DPPE   NH362425  12.530  10.701   5.108 -0.2121 -0.2053 -0.2210
 3381DPPE   PO462426  12.468  10.368   4.892  0.0569  0.2847  0.2375
 3381DPPE   GL162427  12.532  10.579   4.556  0.1043 -0.0206 -0.3303
 3381DPPE   GL262428  12.245  10.757   4.626  0.0337 -0.2409 -0.1534
 3381DPPE   C1A62429  12.600  11.017   4.373  0.0257  0.2488  0.1460
 3381DPPE   C2A62430  12.430  11.351   4.340  0.0330 -0.0551 -0.1852
 3381DPPE   C3A62431  12.694  11.735   4.288 -0.1337 -0.3301  0.1617
 3381DPPE   C4A62432  12.685  12.055   4.010 -0.1046 -0.3989  0.1158
 3381DPPE   C1B62433  12.212  10.766   4.215  0.3288 -0.4084 -0.1770
 3381DPPE   C2B62434  12.252  11.143   3.879 -0.1446 -0.1719 -0.3080
 3381DPPE   C3B62435  12.249  11.230   3.376  0.0449  0.1831  0.0414
 3381DPPE   C4B62436  12.114  11.384   2.997  0.0552 -0.0403 -0.0287
 3382DPPE   NH362437  12.996   6.354   6.926 -0.2094 -0.1935 -0.1192
 3382DPPE   PO462438  12.912   6.758   6.768 -0.1780 -0.2978 -0.1438
 3382DPPE   GL162439  13.062   6.863   7.144 -0.2356 -0.0327 -0.0167
 3382DPPE   GL262440  13.457   6.795   7.168 -0.3726  0.1834 -0.0159
 3382DPPE   C1A62441  13.246   6.962   7.567 -0.1190  0.0670  0.1496
 3382DPPE   C2A62442  13.614   6.916   7.758 -0.2719  0.0283 -0.0116
 3382DPPE   C3A62443  13.565   7.099   8.120  0.1870 -0.1749 -0.0104
 3382DPPE   C4A62444  13.678   6.935   8.507  0.1905  0.1711 -0.0927
 3382DPPE   C1B62445  13.928   6.903   7.373 -0.1656  0.3390 -0.2033
 3382DPPE   C2B62446  14.015   7.151   7.807  0.0473 -0.0060  0.2005
 3382DPPE   C3B62447  14.132   7.211   8.249 -0.3816 -0.2463  0.3123
 3382DPPE   C4B62448  14.273   7.240   8.558  0.0421  0.2206  0.1272
 3383DPPE   NH362449  15.467  35.242  10.726 -0.2822 -0.0095  0.0006
 3383DPPE   PO462450  15.419  35.605  10.998 -0.0626  0.1714 -0.1094
 3383DPPE   GL162451  15.902  35.577  10.915  0.1378  0.2542 -0.1261
 3383DPPE   GL262452  16.098  35.669  10.586 -0.4044 -0.2190 -0.1857
 3383DPPE   C1A62453  16.457  35.680  10.912 -0.0711 -0.0408  0.3125
 3383DPPE   C2A62454  16.732  35.471  11.067  0.1073  0.0225 -0.1103
 3383DPPE   C3A62455  17.076  35.252  11.243 -0.2154 -0.3175 -0.1646
 3383DPPE   C4A62456  17.364  34.930  11.227 -0.3234  0.4354  0.2925
 3383DPPE   C1B62457  16.457  35.307  10.557  0.0929 -0.3427  0.1609
 3383DPPE   C2B62458  16.951  35.270  10.550  0.2832 -0.3705  0.0272
 3383DPPE   C3B62459  17.117  34.909  10.598 -0.0918  0.0808 -0.0676
 3383DPPE   C4B62460  17.347  34.668  10.772 -0.2415 -0.2853 -0.2279
 3384DPPE   NH362461  11.483  36.309  15.081 -0.1300  0.0074  0.0815
 3384DPPE   PO462462  11.232  36.080  15.437 -0.3323 -0.0556 -0.1462
 3384DPPE   GL162463  11.020  36.176  15.790 -0.3084 -0.2619  0.3456
 3384DPPE   GL262464  10.832  36.527  15.893 -0.0716 -0.2857  0.1172
 3384DPPE   C1A62465  10.929  36.081  16.163  0.0710 -0.2350  0.1494
 3384DPPE   C2A62466  11.048  36.157  16.533 -0.2432  0.2012  0.1807
 3384DPPE   C3A62467  11.022  36.188  16.930 -0.1804 -0.0610 -0.2473
 3384DPPE   C4A62468  10.751  36.312  17.177  0.0504 -0.1813  0.0344
 3384DPPE   C1B62469  11.056  36.679  16.314 -0.2219  0.1750  0.2868
 3384DPPE   C2B62470  11.391  36.964  16.362 -0.0375 -0.3953 -0.0773
 3384DPPE   C3B62471  11.813  36.832  16.554 -0.2027 -0.2033  0.0639
 3384DPPE   C4B62472  12.030  36.897  17.013  0.1177 -0.1827  0.1015
 3385DPPE   NH362473  10.905   2.956   8.360 -0.0387  0.0249 -0.2155
 3385DPPE   PO462474  10.985   2.533   8.326 -0.2754  0.1687 -0.0318
 3385DPPE   GL162475  10.685   2.260   8.006  0.2416  0.1503 -0.2931
 3385DPPE   GL262476  10.636   2.374   7.713  0.1175  0.0618 -0.0421
 3385DPPE   C1A62477  10.457   1.937   7.941  0.1123  0.0547 -0.1429
 3385DPPE   C2A62478  10.130   1.608   7.685  0.5177 -0.2045  0.1303
 3385DPPE   C3A62479   9.779   1.607   7.365 -0.1699  0.0434  0.0299
 3385DPPE   C4A62480   9.622   1.220   7.062 -0.1227 -0.1008  0.1541
 3385DPPE   C1B62481  10.497   2.499   7.357 -0.3014  0.0509  0.1806
 3385DPPE   C2B62482  10.228   2.426   6.966  0.0706 -0.1401  0.1695
 3385DPPE   C3B62483  10.018   2.203   6.590  0.2137 -0.0477  0.1119
 3385DPPE   C4B62484   9.928   2.160   6.181 -0.2674 -0.0756 -0.1289
 3386DPPE   NH362485   6.105   7.924  10.420 -0.0274  0.1139  0.0654
 3386DPPE   PO462486   6.268   7.607  10.537 -0.2577 -0.2912  0.0787
 3386DPPE   GL162487   5.943   7.503  10.171  0.1398 -0.1204 -0.1407
 3386DPPE   GL262488   5.642   7.773  10.205  0.3474  0.0368 -0.0882
 3386DPPE   C1A62489   5.539   7.277  10.127  0.1223  0.2136  0.1267
 3386DPPE   C2A62490   5.088   7.185   9.926  0.3846  0.2885  0.0563
 3386DPPE   C3A62491   4.737   7.162   9.665 -0.1535  0.1485 -0.0705
 3386DPPE   C4A62492   4.543   6.923   9.349  0.1008 -0.3055 -0.3645
 3386DPPE   C1B62493   5.266   7.529  10.430  0.5019 -0.2712  0.1300
 3386DPPE   C2B62494   4.870   7.312  10.431  0.2585 -0.3451  0.2816
 3386DPPE   C3B62495   4.539   7.088  10.645 -0.0215 -0.2184  0.1594
 3386DPPE   C4B62496   4.153   7.147  10.974 -0.0449  0.3758 -0.0451
 3387DPPE   NH362497  15.371  36.124   9.118  0.2161 -0.1319 -0.2377
 3387DPPE   PO462498  15.019  36.443   9.121 -0.0098  0.2076  0.1013
 3387DPPE   GL162499  14.902  36.113   8.849  0.3055  0.0934 -0.0278
 3387DPPE   GL262500  14.938  36.111   8.503 -0.1701 -0.4224  0.1719
 3387DPPE   C1A62501  15.021  35.640   8.786  0.0368  0.1391  0.3247
 3387DPPE   C2A62502  15.147  35.191   8.558 -0.2088  0.3578  0.0165
 3387DPPE   C3A62503  15.389  34.950   8.280 -0.1005 -0.0883 -0.5027
 3387DPPE   C4A62504  15.743  34.690   8.487 -0.0442 -0.0159 -0.1235
 3387DPPE   C1B62505  15.096  35.780   8.273  0.0764 -0.2222  0.0989
 3387DPPE   C2B62506  15.435  35.608   8.088 -0.2163  0.2903 -0.0242
 3387DPPE   C3B62507  15.713  35.313   7.919  0.2422  0.1305  0.1314
 3387DPPE   C4B62508  15.815  34.877   7.959  0.0656  0.1022  0.1948
 3388DPPE   NH362509  14.484   2.879   6.078  0.0596 -0.0589 -0.0597
 3388DPPE   PO462510  14.355   3.203   6.077 -0.0233 -0.0950 -0.1467
 3388DPPE   GL162511  14.095   3.034   5.738 -0.3734 -0.3153 -0.2382
 3388DPPE   GL262512  14.187   3.030   5.450 -0.0965 -0.0214  0.0982
 3388DPPE   C1A62513  13.695   2.914   5.733 -0.2676 -0.3947  0.0772
 3388DPPE   C2A62514  13.477   2.821   5.419  0.0562  0.0946 -0.1013
 3388DPPE   C3A62515  13.359   2.412   5.156  0.1331 -0.1650  0.1636
 3388DPPE   C4A62516  13.459   2.086   4.850 -0.0254 -0.0800  0.0031
 3388DPPE   C1B62517  13.916   2.902   5.212 -0.3579 -0.2730  0.0526
 3388DPPE   C2B62518  13.714   2.635   4.861 -0.2325  0.1475  0.1836
 3388DPPE   C3B62519  13.910   2.177   4.773  0.2125 -0.1277  0.4662
 3388DPPE   C4B62520  13.899   1.979   4.504  0.1577  0.2885  0.2714
 3389DPPE   NH362521   5.942   4.845  16.398 -0.0622 -0.1050  0.1450
 3389DPPE   PO462522   5.969   4.556  16.828  0.0513  0.0822 -0.0236
 3389DPPE   GL162523   5.670   4.664  17.142  0.1758  0.1244 -0.2415
 3389DPPE   GL262524   5.430   4.778  17.106  0.0680 -0.0785 -0.2834
 3389DPPE   C1A62525   5.548   4.562  17.605 -0.0439  0.4453  0.1166
 3389DPPE   C2A62526   5.562   4.247  17.863  0.2212 -0.1138 -0.2278
 3389DPPE   C3A62527   5.441   4.140  18.147  0.0582  0.0110 -0.0675
 3389DPPE   C4A62528   5.492   4.121  18.582  0.1817 -0.0283 -0.3151
 3389DPPE   C1B62529   5.175   5.133  17.241  0.2564 -0.3883 -0.1422
 3389DPPE   C2B62530   5.204   5.496  17.564  0.0010  0.1483 -0.1697
 3389DPPE   C3B62531   5.470   5.604  17.885  0.1685  0.1215 -0.0092
 3389DPPE   C4B62532   5.586   5.831  18.209 -0.0421 -0.1316 -0.1025
 3390DPPE   NH362533   6.953   3.208  16.648 -0.0851  0.3246  0.0495
 3390DPPE   PO462534   6.810   2.896  16.312 -0.2708  0.3393 -0.2558
 3390DPPE   GL162535   6.699   2.393  16.428 -0.2296 -0.1713  0.0535
 3390DPPE   GL262536   6.866   2.240  16.608 -0.1373  0.1643  0.1879
 3390DPPE   C1A62537   6.424   2.070  16.445  0.0061  0.1106 -0.1044
 3390DPPE   C2A62538   6.405   1.727  16.766  0.0152 -0.2538 -0.1621
 3390DPPE   C3A62539   6.228   1.310  16.915  0.0118  0.0439 -0.1996
 3390DPPE   C4A62540   6.493   0.888  16.851  0.1936  0.2952 -0.1413
 3390DPPE   C1B62541   6.916   1.913  16.968  0.3981  0.3142  0.1002
 3390DPPE   C2B62542   7.163   1.540  17.212 -0.1722 -0.1206  0.1818
 3390DPPE   C3B62543   7.481   1.373  17.445  0.0263 -0.2072  0.0037
 3390DPPE   C4B62544   7.680   1.073  17.793 -0.2874  0.2737  0.1358
 3391DPPE   NH362545  16.793   3.063   6.646 -0.1706 -0.0961 -0.2093
 3391DPPE   PO462546  16.627   3.325   6.222  0.1950 -0.1844  0.0376
 3391DPPE   GL162547  16.548   3.207   5.736  0.0760  0.0096 -0.0255
 3391DPPE   GL262548  16.295   2.873   5.604 -0.0634  0.0473  0.1261
 3391DPPE   C1A62549  16.346   3.400   5.307  0.1535  0.3264  0.2992
 3391DPPE   C2A62550  16.390   3.351   4.875  0.1423 -0.1640  0.1635
 3391DPPE   C3A62551  16.424   3.120   4.448 -0.4785 -0.1657 -0.2108
 3391DPPE   C4A62552  16.344   2.711   4.371 -0.0184  0.2496  0.0799
 3391DPPE   C1B62553  16.447   2.777   5.192  0.2704 -0.0843  0.2183
 3391DPPE   C2B62554  16.573   2.838   4.809  0.0796 -0.0088 -0.0244
 3391DPPE   C3B62555  16.827   2.566   4.583  0.1067  0.1902 -0.0294
 3391DPPE   C4B62556  16.795   2.366   4.236  0.0759 -0.1855 -0.1823
 3392DPPE   NH362557   8.121  10.564   7.159 -0.1865  0.1460  0.0337
 3392DPPE   PO462558   8.240  10.948   7.233 -0.3833  0.0502  0.0923
 3392DPPE   GL162559   7.995  11.097   7.130 -0.1555 -0.1427 -0.0329
 3392DPPE   GL262560   7.812  10.901   6.883 -0.0203 -0.1940 -0.1681
 3392DPPE   C1A62561   7.580  11.322   7.024 -0.2629  0.1278  0.2751
 3392DPPE   C2A62562   7.395  11.681   6.933  0.0754  0.2130  0.2585
 3392DPPE   C3A62563   7.024  11.784   6.717 -0.1256 -0.2091 -0.1728
 3392DPPE   C4A62564   6.825  11.622   6.389  0.2824 -0.3889  0.1260
 3392DPPE   C1B62565   7.501  11.030   6.568  0.0356  0.0503 -0.5843
 3392DPPE   C2B62566   7.278  10.928   6.218 -0.2207  0.1121 -0.1749
 3392DPPE   C3B62567   7.193  10.707   5.874 -0.0368  0.0583 -0.0555
 3392DPPE   C4B62568   7.014  10.654   5.592  0.3108 -0.3377  0.0758
 3393DPPE   NH362569   8.800  10.864   6.574  0.0970  0.1720  0.3967
 3393DPPE   PO462570   8.415  10.764   6.761 -0.0621  0.1022  0.1689
 3393DPPE   GL162571   8.277  10.950   6.498 -0.1831 -0.0680 -0.4065
 3393DPPE   GL262572   8.078  11.141   6.549  0.1515  0.1166 -0.2271
 3393DPPE   C1A62573   8.281  11.039   6.097 -0.3220 -0.1842  0.0408
 3393DPPE   C2A62574   8.158  10.764   5.673 -0.5020  0.1636  0.2271
 3393DPPE   C3A62575   8.015  10.837   5.319 -0.0828  0.2538 -0.2055
 3393DPPE   C4A62576   8.029  10.950   4.974 -0.2006 -0.0942 -0.1707
 3393DPPE   C1B62577   7.813  11.427   6.272  0.3142 -0.1860 -0.0329
 3393DPPE   C2B62578   7.705  11.794   6.434  0.0965 -0.1337  0.1232
 3393DPPE   C3B62579   7.501  12.143   6.436  0.3022  0.0437 -0.2969
 3393DPPE   C4B62580   7.348  12.528   6.566  0.1160 -0.3514  0.1756
 3394DPPE   NH362581  10.759  11.602   6.185 -0.1683  0.1766  0.0814
 3394DPPE   PO462582  11.070  11.700   5.827  0.2079 -0.0293 -0.1300
 3394DPPE   GL162583  11.276  12.023   5.870 -0.2111 -0.1290  0.0507
 3394DPPE   GL262584  11.453  12.138   6.247  0.0160 -0.0415  0.1951
 3394DPPE   C1A62585  11.573  12.339   5.736  0.0177 -0.2389  0.0870
 3394DPPE   C2A62586  11.565  12.757   5.805  0.2904  0.0210 -0.1804
 3394DPPE   C3A62587  11.427  13.159   5.876  0.3007 -0.2095  0.1434
 3394DPPE   C4A62588  11.257  13.487   5.663  0.1052  0.1073  0.0528
 3394DPPE   C1B62589  11.407  12.538   6.274  0.0652  0.0341  0.2850
 3394DPPE   C2B62590  11.062  12.762   6.033  0.0537  0.0717  0.0614
 3394DPPE   C3B62591  10.852  13.263   5.842  0.0818  0.1799  0.1114
 3394DPPE   C4B62592  10.688  13.580   5.685 -0.1044  0.3111 -0.4457
 3395DPPE   NH362593  15.724   4.787   5.156  0.0571  0.0098 -0.0286
 3395DPPE   PO462594  15.512   4.592   5.415  0.2170  0.1224  0.0278
 3395DPPE   GL162595  15.482   4.342   5.117  0.1060  0.1543  0.1015
 3395DPPE   GL262596  15.564   3.954   5.178 -0.0115 -0.2934  0.0207
 3395DPPE   C1A62597  15.425   4.347   4.657 -0.1088  0.3077  0.2284
 3395DPPE   C2A62598  15.549   4.342   4.281 -0.1610  0.1567  0.1535
 3395DPPE   C3A62599  15.710   4.548   3.972 -0.0230  0.1054 -0.1074
 3395DPPE   C4A62600  15.631   4.512   3.560  0.2986 -0.1511  0.0471
 3395DPPE   C1B62601  15.698   3.951   4.796 -0.2256 -0.2829  0.0610
 3395DPPE   C2B62602  15.749   3.797   4.471 -0.0051 -0.0999 -0.3253
 3395DPPE   C3B62603  15.623   3.472   4.126  0.1907  0.0199 -0.4441
 3395DPPE   C4B62604  15.275   3.542   3.808 -0.0369 -0.0156 -0.0452
 3396DPPE   NH362605  14.535   9.037   5.019 -0.0203 -0.3928 -0.1755
 3396DPPE   PO462606  14.577   9.362   4.890 -0.1637 -0.3069  0.1392
 3396DPPE   GL162607  14.436   9.600   4.632  0.1474 -0.0007 -0.0348
 3396DPPE   GL262608  14.625   9.796   4.503 -0.1421  0.0806 -0.0606
 3396DPPE   C1A62609  14.174   9.845   4.391 -0.1774  0.0408 -0.0310
 3396DPPE   C2A62610  13.980   9.781   3.976 -0.0107  0.0122 -0.3724
 3396DPPE   C3A62611  13.615   9.924   3.772  0.0635  0.3394 -0.1168
 3396DPPE   C4A62612  13.496  10.327   3.756  0.1127 -0.2242  0.1246
 3396DPPE   C1B62613  14.827   9.990   4.818 -0.2398  0.0815 -0.1118
 3396DPPE   C2B62614  14.655  10.336   5.174  0.0629 -0.0070  0.0077
 3396DPPE   C3B62615  14.542  10.196   5.640 -0.0728 -0.1114 -0.0932
 3396DPPE   C4B62616  14.108  10.126   5.912  0.0841 -0.1083  0.1185
 3397DPPE   NH362617   5.389  11.104  10.901 -0.2253  0.0739  0.0906
 3397DPPE   PO462618   5.702  10.993  10.661  0.0397 -0.1787 -0.0748
 3397DPPE   GL162619   5.524  11.300  10.417  0.0742 -0.0893 -0.0721
 3397DPPE   GL262620   5.226  11.277  10.426 -0.1364 -0.1114  0.0179
 3397DPPE   C1A62621   5.514  11.712  10.288 -0.1721 -0.2170 -0.1313
 3397DPPE   C2A62622   5.486  12.056  10.533 -0.2465 -0.1042  0.2671
 3397DPPE   C3A62623   5.748  12.389  10.489 -0.2538 -0.0675  0.0567
 3397DPPE   C4A62624   5.911  12.814  10.633 -0.2156 -0.1537  0.1806
 3397DPPE   C1B62625   4.814  11.283  10.713  0.2736  0.1939  0.1496
 3397DPPE   C2B62626   4.568  11.483  11.011  0.1312  0.1971  0.1902
 3397DPPE   C3B62627   4.102  11.530  10.997  0.2861  0.0573  0.0230
 3397DPPE   C4B62628   3.809  11.169  11.006  0.2550 -0.1214  0.1048
 3398DPPE   NH362629   6.013   3.898  13.149  0.1399 -0.2683 -0.1112
 3398DPPE   PO462630   5.846   3.656  13.477  0.1439 -0.1316 -0.2486
 3398DPPE   GL162631   5.652   3.296  13.184 -0.1146 -0.3760  0.3228
 3398DPPE   GL262632   5.789   3.489  13.007 -0.0410 -0.1029  0.4291
 3398DPPE   C1A62633   5.578   2.854  13.204 -0.2023 -0.1136  0.1369
 3398DPPE   C2A62634   5.259   2.641  12.952  0.0610 -0.3126  0.1138
 3398DPPE   C3A62635   4.908   2.349  12.986 -0.0456  0.1854  0.1741
 3398DPPE   C4A62636   4.815   2.072  12.727 -0.4733 -0.1382 -0.2054
 3398DPPE   C1B62637   5.826   3.076  12.768  0.0701 -0.0324  0.0373
 3398DPPE   C2B62638   5.579   2.763  12.621  0.0932  0.1572 -0.1143
 3398DPPE   C3B62639   5.284   2.407  12.527 -0.3739  0.0573  0.0960
 3398DPPE   C4B62640   4.835   2.450  12.349 -0.0563  0.2568  0.0421
 3399DPPE   NH362641  13.762  35.951  11.495 -0.0226  0.0759  0.2095
 3399DPPE   PO462642  13.560  35.704  11.233 -0.1927 -0.1460 -0.2097
 3399DPPE   GL162643  13.265  35.377  11.040 -0.2229 -0.1077  0.2884
 3399DPPE   GL262644  13.073  35.426  10.745 -0.0321  0.0893  0.1303
 3399DPPE   C1A62645  12.921  35.027  11.051 -0.0887  0.2599  0.1749
 3399DPPE   C2A62646  12.737  34.701  10.711 -0.4271 -0.1269 -0.0579
 3399DPPE   C3A62647  12.596  34.214  10.754  0.1329  0.0945 -0.2851
 3399DPPE   C4A62648  12.697  33.800  10.745  0.0805 -0.1608  0.1204
 3399DPPE   C1B62649  13.220  34.921  10.608  0.0724 -0.2821  0.2055
 3399DPPE   C2B62650  13.140  34.488  10.406 -0.1094  0.2197  0.0119
 3399DPPE   C3B62651  13.194  34.113  10.127 -0.1585 -0.1484 -0.1944
 3399DPPE   C4B62652  13.016  33.742  10.016 -0.1314  0.2569 -0.0431
 3400DPPE   NH362653  10.702  11.948   6.625 -0.2061  0.3029 -0.3227
 3400DPPE   PO462654  10.985  12.011   6.303 -0.0237 -0.0314 -0.0892
 3400DPPE   GL162655  10.830  12.417   6.289  0.1346  0.0980 -0.1033
 3400DPPE   GL262656  10.544  12.420   6.544  0.1836  0.1451 -0.0905
 3400DPPE   C1A62657  10.991  12.732   6.587  0.2523  0.0575  0.2742
 3400DPPE   C2A62658  11.046  12.992   6.834 -0.3635  0.1281 -0.0012
 3400DPPE   C3A62659  11.087  13.348   7.260 -0.0069 -0.1264  0.0524
 3400DPPE   C4A62660  11.390  13.533   7.525 -0.0141  0.0761  0.1969
 3400DPPE   C1B62661  10.515  12.835   6.660 -0.4170  0.0336 -0.1422
 3400DPPE   C2B62662  10.395  13.245   6.528 -0.2914 -0.1734 -0.1542
 3400DPPE   C3B62663  10.252  13.605   6.735  0.0538  0.4612 -0.0647
 3400DPPE   C4B62664   9.953  13.893   6.697  0.1996  0.0083 -0.0761
 3401DPPE   NH362665   5.090  10.012  12.653 -0.2358  0.0869 -0.1345
 3401DPPE   PO462666   5.085  10.251  12.303 -0.0985 -0.3028 -0.3506
 3401DPPE   GL162667   4.753  10.524  12.394  0.2291 -0.0015  0.1239
 3401DPPE   GL262668   4.870  10.502  12.631  0.0049 -0.2405  0.1672
 3401DPPE   C1A62669   4.502  10.797  12.246 -0.1612  0.3152 -0.1680
 3401DPPE   C2A62670   4.047  10.943  12.170  0.0159  0.0952 -0.1609
 3401DPPE   C3A62671   3.743  11.217  12.052 -0.3153 -0.3033 -0.2249
 3401DPPE   C4A62672   3.687  11.574  12.343 -0.0402 -0.3553 -0.3132
 3401DPPE   C1B62673   4.785  10.939  12.619 -0.0542  0.3737  0.2733
 3401DPPE   C2B62674   4.617  11.367  12.805 -0.0172 -0.3478 -0.0473
 3401DPPE   C3B62675   4.646  11.808  13.002 -0.0146  0.2322 -0.0715
 3401DPPE   C4B62676   4.620  12.210  12.848  0.2525  0.2102 -0.0283
 3402DPPE   NH362677   6.025   7.594  13.700 -0.4176  0.0452  0.2615
 3402DPPE   PO462678   5.956   7.973  13.642  0.1057  0.1275  0.0642
 3402DPPE   GL162679   6.128   8.299  13.886  0.3941  0.0830 -0.3624
 3402DPPE   GL262680   6.368   8.307  13.580  0.2119 -0.0139 -0.0641
 3402DPPE   C1A62681   6.391   8.551  14.143 -0.1486  0.2032  0.3499
 3402DPPE   C2A62682   6.681   8.917  14.394 -0.1902 -0.1460  0.0161
 3402DPPE   C3A62683   6.816   9.296  14.256  0.1726  0.1117 -0.3287
 3402DPPE   C4A62684   7.038   9.677  14.122  0.0294  0.2370  0.2154
 3402DPPE   C1B62685   6.685   8.381  13.691 -0.0564  0.0521 -0.3389
 3402DPPE   C2B62686   6.994   8.577  13.863  0.0581 -0.0329 -0.2544
 3402DPPE   C3B62687   7.218   8.799  14.153  0.0631 -0.1919 -0.4260
 3402DPPE   C4B62688   7.164   9.135  14.614 -0.5518  0.0145 -0.0812
 3403DPPE   NH362689   5.881   7.505  12.130  0.0428  0.2826 -0.0419
 3403DPPE   PO462690   5.454   7.374  11.938 -0.2657 -0.0248 -0.1920
 3403DPPE   GL162691   5.139   7.513  11.752  0.2084 -0.1479 -0.0541
 3403DPPE   GL262692   5.072   7.821  11.746 -0.1581 -0.0451 -0.2022
 3403DPPE   C1A62693   4.701   7.468  11.556  0.0670  0.0277 -0.4480
 3403DPPE   C2A62694   4.314   7.535  11.308 -0.1999 -0.0441 -0.1606
 3403DPPE   C3A62695   3.851   7.537  11.111 -0.0601  0.0756 -0.1914
 3403DPPE   C4A62696   3.569   7.448  10.935  0.3445  0.0524 -0.0789
 3403DPPE   C1B62697   4.662   7.946  11.696 -0.0620  0.2413  0.0036
 3403DPPE   C2B62698   4.368   8.165  11.535  0.0794  0.3875 -0.0024
 3403DPPE   C3B62699   4.041   8.359  11.283  0.1913 -0.1514 -0.0646
 3403DPPE   C4B62700   3.560   8.315  11.270 -0.1234  0.0020 -0.1941
 3404DPPE   NH362701   8.413   4.893   8.292 -0.0621  0.1500 -0.1649
 3404DPPE   PO462702   8.056   4.863   8.620 -0.2625 -0.0650  0.3054
 3404DPPE   GL162703   7.727   5.006   8.431 -0.2662 -0.1662  0.1738
 3404DPPE   GL262704   7.374   4.913   8.665 -0.1016 -0.3705  0.3134
 3404DPPE   C1A62705   7.462   4.936   8.119  0.3804 -0.2735  0.1213
 3404DPPE   C2A62706   7.289   4.604   7.964  0.0751  0.2681  0.1379
 3404DPPE   C3A62707   7.282   4.350   7.567 -0.0636  0.0260 -0.1833
 3404DPPE   C4A62708   6.972   4.197   7.400  0.1798 -0.0237  0.1497
 3404DPPE   C1B62709   7.005   4.692   8.402 -0.0863  0.0218 -0.1083
 3404DPPE   C2B62710   6.707   4.424   8.198 -0.2231  0.2729 -0.0144
 3404DPPE   C3B62711   6.350   4.178   8.085  0.2152  0.1330 -0.0931
 3404DPPE   C4B62712   6.302   3.987   7.842 -0.0496 -0.0781  0.1112
 3405DPPE   NH362713   8.442   4.285   9.031 -0.0516  0.0356  0.1129
 3405DPPE   PO462714   8.326   4.077   9.462 -0.0986 -0.2266 -0.0731
 3405DPPE   GL162715   8.002   4.024   9.276 -0.4866 -0.2761  0.0492
 3405DPPE   GL262716   7.695   4.162   9.304 -0.0305  0.0295  0.1302
 3405DPPE   C1A62717   7.729   3.689   9.150  0.1247 -0.3303  0.1023
 3405DPPE   C2A62718   7.526   3.564   8.752 -0.0106  0.0753 -0.2945
 3405DPPE   C3A62719   7.204   3.464   8.507 -0.2047  0.0057  0.2274
 3405DPPE   C4A62720   7.041   3.532   8.049 -0.1030 -0.0787 -0.5113
 3405DPPE   C1B62721   7.311   3.957   9.139  0.1559 -0.0984 -0.1122
 3405DPPE   C2B62722   6.993   3.736   8.830  0.2094  0.0409 -0.3327
 3405DPPE   C3B62723   6.637   3.626   8.516  0.1041 -0.1102  0.0727
 3405DPPE   C4B62724   6.361   3.496   8.156 -0.0275 -0.4123  0.1074
 3406DPPE   NH362725  11.519  35.757  12.146 -0.4468  0.2841 -0.5125
 3406DPPE   PO462726  11.230  36.044  12.152 -0.0381  0.0681  0.3728
 3406DPPE   GL162727  10.978  35.697  12.004  0.1354  0.0459  0.1003
 3406DPPE   GL262728  11.034  35.428  12.095  0.1668 -0.1015  0.1873
 3406DPPE   C1A62729  10.679  35.561  11.718 -0.3110  0.1259 -0.1446
 3406DPPE   C2A62730  10.587  35.342  11.375 -0.3359  0.1314 -0.1940
 3406DPPE   C3A62731  10.742  35.058  11.090 -0.0978  0.1298 -0.0217
 3406DPPE   C4A62732  10.655  34.660  10.766  0.1132  0.0292  0.0305
 3406DPPE   C1B62733  10.898  35.098  11.875  0.0442 -0.1009 -0.1809
 3406DPPE   C2B62734  10.550  34.731  11.891  0.4185  0.2626 -0.0331
 3406DPPE   C3B62735  10.222  34.535  11.825  0.0968  0.0412 -0.0904
 3406DPPE   C4B62736  10.014  34.169  11.590 -0.3486  0.3605  0.2324
 3407DPPE   NH362737  12.932  36.113  14.372  0.0793  0.1294  0.0827
 3407DPPE   PO462738  13.049  35.923  14.095 -0.2290 -0.1230 -0.2057
 3407DPPE   GL162739  13.354  35.754  14.483 -0.0326 -0.0774 -0.2025
 3407DPPE   GL262740  13.235  35.918  14.705 -0.0550 -0.2323  0.0792
 3407DPPE   C1A62741  13.692  35.452  14.785 -0.0602 -0.1316  0.3351
 3407DPPE   C2A62742  13.854  35.210  15.156 -0.0215  0.0887  0.1198
 3407DPPE   C3A62743  13.803  35.274  15.611 -0.3515 -0.0130 -0.1493
 3407DPPE   C4A62744  13.486  35.299  15.843  0.0017  0.0291  0.0128
 3407DPPE   C1B62745  13.571  35.994  14.863 -0.0406  0.1685 -0.1208
 3407DPPE   C2B62746  13.796  36.009  15.268  0.2299  0.0372 -0.3667
 3407DPPE   C3B62747  14.190  36.001  15.523  0.1225  0.1857  0.4028
 3407DPPE   C4B62748  14.546  35.793  15.611 -0.4160  0.0617  0.1365
 3408DPPE   NH362749   9.363   2.660  10.463  0.0269  0.0549  0.1237
 3408DPPE   PO462750   9.318   3.001  10.778 -0.0861  0.0062 -0.1758
 3408DPPE   GL162751   9.737   3.100  11.015 -0.3580  0.1250 -0.0223
 3408DPPE   GL262752   9.827   3.398  11.083  0.1681 -0.0633  0.2090
 3408DPPE   C1A62753  10.021   2.973  11.414  0.1694  0.1307  0.0819
 3408DPPE   C2A62754  10.083   2.931  11.856  0.2020 -0.0557  0.2178
 3408DPPE   C3A62755  10.283   3.016  12.158 -0.2187 -0.0043  0.0709
 3408DPPE   C4A62756  10.306   2.810  12.600 -0.0340 -0.0237 -0.5876
 3408DPPE   C1B62757  10.018   3.435  11.508 -0.1114  0.1551 -0.1711
 3408DPPE   C2B62758  10.364   3.471  11.828  0.0654 -0.1028  0.1450
 3408DPPE   C3B62759  10.721   3.487  12.129 -0.1305  0.2404  0.0966
 3408DPPE   C4B62760  11.223   3.188  12.308  0.0451  0.0635 -0.0566
 3409DPPE   NH362761   5.408   7.563  12.917  0.3837 -0.0953  0.3036
 3409DPPE   PO462762   4.988   7.327  12.849 -0.0156  0.4344  0.1506
 3409DPPE   GL162763   4.678   7.430  12.594  0.0446 -0.3895 -0.1454
 3409DPPE   GL262764   4.309   7.456  12.781 -0.2801 -0.1908 -0.0859
 3409DPPE   C1A62765   4.204   7.319  12.297 -0.2170 -0.1405 -0.1341
 3409DPPE   C2A62766   3.758   7.252  12.205  0.4213  0.0766  0.2884
 3409DPPE   C3A62767   3.368   7.215  12.148  0.0374  0.0453  0.0267
 3409DPPE   C4A62768   2.959   7.177  12.096 -0.3174 -0.1842 -0.1344
 3409DPPE   C1B62769   3.839   7.280  12.731  0.0661  0.0156  0.0500
 3409DPPE   C2B62770   3.308   7.268  12.732  0.0395 -0.3422 -0.3448
 3409DPPE   C3B62771   2.989   7.564  12.472 -0.0235  0.5461  0.0230
 3409DPPE   C4B62772   2.534   7.756  12.681 -0.1378 -0.3344  0.1314
 3410DPPE   NH362773   4.674   6.594  12.772  0.1363  0.1115  0.2015
 3410DPPE   PO462774   4.748   6.239  12.875 -0.0634  0.0401 -0.2593
 3410DPPE   GL162775   4.314   6.255  12.628  0.0096 -0.0414 -0.1601
 3410DPPE   GL262776   4.431   6.443  12.353 -0.0831  0.2484 -0.1745
 3410DPPE   C1A62777   3.984   6.342  12.518  0.0238 -0.1757  0.1485
 3410DPPE   C2A62778   3.556   6.401  12.466  0.1512  0.1455  0.0647
 3410DPPE   C3A62779   3.300   6.183  12.315  0.1239 -0.1492  0.2016
 3410DPPE   C4A62780   2.931   6.239  12.256 -0.0332  0.1529 -0.1065
 3410DPPE   C1B62781   4.221   6.522  12.049  0.1508  0.2133 -0.0187
 3410DPPE   C2B62782   3.838   6.347  11.905  0.3026 -0.1929  0.4354
 3410DPPE   C3B62783   3.410   6.326  11.681 -0.0883 -0.0398 -0.1073
 3410DPPE   C4B62784   2.919   6.236  11.710 -0.1296 -0.1562 -0.1669
 3411DPPE   NH362785  10.921   2.337   8.805  0.1368 -0.0356  0.0844
 3411DPPE   PO462786  11.112   1.958   8.952  0.0279 -0.0111  0.2546
 3411DPPE   GL162787  11.039   1.849   8.570  0.2341 -0.0125 -0.2155
 3411DPPE   GL262788  11.061   1.951   8.203  0.2583  0.3186  0.0712
 3411DPPE   C1A62789  10.695   1.668   8.287 -0.0970  0.1020 -0.2473
 3411DPPE   C2A62790  10.486   1.439   8.013  0.1316  0.0893  0.1037
 3411DPPE   C3A62791  10.345   1.062   7.836 -0.1305 -0.3862 -0.0317
 3411DPPE   C4A62792  10.172   0.631   7.574  0.1204  0.1429  0.3105
 3411DPPE   C1B62793  11.105   1.534   8.114  0.2736 -0.0599 -0.1268
 3411DPPE   C2B62794  10.986   1.265   7.793 -0.0805  0.3117  0.0059
 3411DPPE   C3B62795  10.914   1.055   7.403 -0.1370 -0.3209 -0.3040
 3411DPPE   C4B62796  11.010   0.761   6.994  0.2865  0.0494  0.2401
 3412DPPE   NH362797  16.817   6.899   4.679  0.0708 -0.0327  0.2683
 3412DPPE   PO462798  16.782   6.415   4.886 -0.0870  0.1738  0.1916
 3412DPPE   GL162799  17.161   6.346   4.702 -0.0489  0.0634  0.3595
 3412DPPE   GL262800  16.954   6.234   4.463  0.3103  0.0147  0.0132
 3412DPPE   C1A62801  17.518   6.185   4.559 -0.2129 -0.0515  0.0185
 3412DPPE   C2A62802  17.791   5.903   4.348  0.2617  0.2177 -0.0331
 3412DPPE   C3A62803  17.954   5.690   4.032 -0.2648 -0.1746  0.2492
 3412DPPE   C4A62804  17.850   5.627   3.582 -0.2108  0.1476 -0.1001
 3412DPPE   C1B62805  17.251   5.988   4.221 -0.0328 -0.1944  0.1981
 3412DPPE   C2B62806  17.374   5.566   4.154 -0.2204 -0.1815 -0.0349
 3412DPPE   C3B62807  17.653   5.252   3.954 -0.0591 -0.0526  0.0353
 3412DPPE   C4B62808  17.901   5.090   3.774 -0.4620  0.0593  0.1187
 3413DPPE   NH362809  12.348   5.399   7.332  0.1857  0.1847 -0.2299
 3413DPPE   PO462810  12.041   5.517   7.030 -0.2335  0.1187 -0.0748
 3413DPPE   GL162811  11.909   5.728   7.481  0.2838  0.0253 -0.0306
 3413DPPE   GL262812  12.105   5.800   7.673 -0.0586  0.1766 -0.0466
 3413DPPE   C1A62813  11.679   5.830   7.867 -0.0775 -0.2507 -0.2514
 3413DPPE   C2A62814  11.514   5.955   8.230 -0.0925 -0.2177  0.1231
 3413DPPE   C3A62815  11.486   6.176   8.654 -0.0842 -0.1711 -0.4841
 3413DPPE   C4A62816  11.578   6.184   9.074 -0.3442 -0.0837  0.2097
 3413DPPE   C1B62817  12.185   5.954   8.027  0.2462 -0.1661  0.1820
 3413DPPE   C2B62818  12.348   6.234   8.399 -0.1069  0.1134  0.1649
 3413DPPE   C3B62819  12.286   6.573   8.759 -0.0352 -0.3991  0.0059
 3413DPPE   C4B62820  12.468   6.600   9.164  0.0336  0.2434 -0.1464
 3414DPPE   NH362821  10.092   7.877   6.478 -0.0102 -0.1477  0.2681
 3414DPPE   PO462822   9.962   8.333   6.332 -0.0131 -0.1705  0.1235
 3414DPPE   GL162823   9.406   8.393   6.124  0.0695  0.0513  0.0869
 3414DPPE   GL262824   9.323   8.446   5.787  0.0569  0.1414 -0.1709
 3414DPPE   C1A62825   8.941   8.452   6.075  0.1547  0.1213  0.1123
 3414DPPE   C2A62826   8.740   8.371   5.615 -0.1543 -0.1834 -0.1241
 3414DPPE   C3A62827   8.713   8.393   5.081  0.1616  0.0570 -0.1659
 3414DPPE   C4A62828   8.679   8.149   4.681 -0.1313  0.3304  0.0423
 3414DPPE   C1B62829   9.221   8.466   5.328  0.1634 -0.4871 -0.2510
 3414DPPE   C2B62830   9.201   8.463   4.871  0.1055 -0.0806 -0.1274
 3414DPPE   C3B62831   8.937   8.552   4.624  0.0166 -0.1060  0.1061
 3414DPPE   C4B62832   8.667   8.492   4.286 -0.2895 -0.0814 -0.1780
 3415DPPE   NH362833   7.374   5.110  12.323  0.2239  0.0495  0.2613
 3415DPPE   PO462834   7.368   4.935  12.746  0.0155  0.2253 -0.0232
 3415DPPE   GL162835   7.783   5.087  12.568  0.2603 -0.2272  0.0283
 3415DPPE   GL262836   8.120   4.910  12.510 -0.0596  0.1452  0.4834
 3415DPPE   C1A62837   8.138   5.443  12.609 -0.2144 -0.1879 -0.1758
 3415DPPE   C2A62838   8.549   5.678  12.694 -0.0300  0.2604 -0.2419
 3415DPPE   C3A62839   8.866   5.747  12.974  0.1384 -0.2252 -0.0404
 3415DPPE   C4A62840   8.991   5.774  13.415  0.1939  0.1015  0.0007
 3415DPPE   C1B62841   8.461   4.925  12.829 -0.0543 -0.0954  0.2254
 3415DPPE   C2B62842   8.818   5.137  12.984  0.0898 -0.3090 -0.1822
 3415DPPE   C3B62843   9.185   5.332  13.224  0.0641  0.1810  0.1972
 3415DPPE   C4B62844   9.536   5.347  13.543 -0.0230  0.1506 -0.0778
 3416DPPE   NH362845  14.539  36.229   9.217  0.0699  0.0530 -0.0027
 3416DPPE   PO462846  14.878  35.993   9.404 -0.0587 -0.3062 -0.2019
 3416DPPE   GL162847  14.566  35.721   9.134  0.1853 -0.0356  0.0330
 3416DPPE   GL262848  14.538  35.557   8.895 -0.2893 -0.0934  0.1816
 3416DPPE   C1A62849  14.177  35.389   9.123 -0.1309  0.0184  0.0152
 3416DPPE   C2A62850  13.893  35.130   8.963  0.0850 -0.0357 -0.1215
 3416DPPE   C3A62851  13.585  34.744   8.760 -0.2957  0.2054  0.2990
 3416DPPE   C4A62852  13.415  34.804   8.363 -0.1004 -0.0914 -0.0900
 3416DPPE   C1B62853  14.535  35.225   8.719  0.0065 -0.1751  0.1414
 3416DPPE   C2B62854  14.712  34.994   8.495  0.3201  0.1386  0.0185
 3416DPPE   C3B62855  14.920  34.795   8.133 -0.2364  0.3863  0.0896
 3416DPPE   C4B62856  15.109  34.683   7.680 -0.0423 -0.2429  0.2477
 3417DPPE   NH362857   7.967  10.467   9.503  0.1310  0.3501  0.4488
 3417DPPE   PO462858   8.129  10.432   9.074 -0.0535 -0.2761  0.3837
 3417DPPE   GL162859   8.494  10.300   9.363 -0.0145  0.0307  0.0894
 3417DPPE   GL262860   8.833  10.211   9.248  0.1453  0.3601  0.0099
 3417DPPE   C1A62861   8.626  10.497   9.753  0.0362  0.0041 -0.4649
 3417DPPE   C2A62862   8.910  10.485  10.107  0.0105  0.0783  0.2825
 3417DPPE   C3A62863   9.185  10.705  10.457  0.4797 -0.1089 -0.0900
 3417DPPE   C4A62864   9.143  11.097  10.660  0.2768 -0.0584 -0.1341
 3417DPPE   C1B62865   8.989  10.164   9.568 -0.0262 -0.2704  0.1095
 3417DPPE   C2B62866   9.229  10.043   9.825 -0.1200 -0.0305  0.1393
 3417DPPE   C3B62867   9.428  10.269  10.155  0.0835  0.1572  0.0417
 3417DPPE   C4B62868   9.678  10.668  10.205 -0.1777 -0.0152  0.1339
 3418DPPE   NH362869   8.465   1.317  13.518 -0.0037 -0.0444 -0.0905
 3418DPPE   PO462870   8.230   1.039  13.682  0.0725 -0.0966  0.0420
 3418DPPE   GL162871   7.915   0.795  13.757  0.0782 -0.3790  0.1782
 3418DPPE   GL262872   7.890   0.562  13.984  0.1656 -0.0388 -0.4163
 3418DPPE   C1A62873   7.599   0.539  13.476 -0.2540 -0.4187 -0.1390
 3418DPPE   C2A62874   7.473   0.074  13.425  0.1132  0.4376 -0.2505
 3418DPPE   C3A62875   7.457  -0.284  13.698  0.1281 -0.1540 -0.2995
 3418DPPE   C4A62876   7.612  -0.672  13.652  0.0518  0.0052 -0.0993
 3418DPPE   C1B62877   7.671   0.189  13.971  0.3488  0.0314  0.1198
 3418DPPE   C2B62878   7.205   0.033  14.017  0.0477  0.1477  0.1129
 3418DPPE   C3B62879   6.814  -0.141  14.055  0.0609 -0.2137  0.4636
 3418DPPE   C4B62880   6.423  -0.222  13.840 -0.3624 -0.1119  0.1030
 3419DPPE   NH362881  11.811   6.349   6.109  0.0424 -0.1067  0.0778
 3419DPPE   PO462882  11.915   6.582   5.744 -0.0357 -0.0493  0.0477
 3419DPPE   GL162883  11.609   6.197   5.579  0.2046  0.0533  0.1243
 3419DPPE   GL262884  11.548   6.280   5.255 -0.1577 -0.0419 -0.3808
 3419DPPE   C1A62885  11.400   5.807   5.353 -0.3869  0.1413  0.1029
 3419DPPE   C2A62886  11.207   5.712   4.954 -0.3390  0.0740 -0.1625
 3419DPPE   C3A62887  11.197   5.766   4.480  0.0065  0.0300 -0.3054
 3419DPPE   C4A62888  11.489   5.491   4.096  0.0728  0.4472  0.2438
 3419DPPE   C1B62889  11.326   6.242   4.850 -0.0237  0.2341 -0.3067
 3419DPPE   C2B62890  11.048   6.274   4.584 -0.2125 -0.0337 -0.0117
 3419DPPE   C3B62891  10.959   6.461   4.349  0.1434 -0.1625  0.1252
 3419DPPE   C4B62892  10.473   6.593   4.311 -0.0782 -0.2340 -0.1588
 3420DPPE   NH362893  15.252  35.437   9.797  0.0744  0.1750  0.2324
 3420DPPE   PO462894  15.503  35.462  10.238  0.0464 -0.1394  0.2716
 3420DPPE   GL162895  15.547  35.022  10.232 -0.0367  0.3225  0.2650
 3420DPPE   GL262896  15.485  34.998   9.971 -0.2155 -0.2969  0.1744
 3420DPPE   C1A62897  15.763  34.592  10.316  0.1213 -0.1715 -0.1761
 3420DPPE   C2A62898  16.076  34.427  10.590  0.0999 -0.2085 -0.0154
 3420DPPE   C3A62899  16.098  34.022  10.592  0.3004 -0.2796 -0.1224
 3420DPPE   C4A62900  16.136  33.585  10.603 -0.5015  0.0386  0.0585
 3420DPPE   C1B62901  15.369  34.596   9.975 -0.1678 -0.1209 -0.1466
 3420DPPE   C2B62902  15.465  34.217  10.017  0.1715  0.0687  0.0451
 3420DPPE   C3B62903  15.683  33.936  10.340  0.2651  0.0335 -0.1116
 3420DPPE   C4B62904  15.642  33.543  10.405 -0.1666 -0.1445  0.0909
 3421DPPE   NH362905  12.163   7.071   4.995  0.2771 -0.0450 -0.1838
 3421DPPE   PO462906  12.402   6.705   4.916  0.0726 -0.0314 -0.1467
 3421DPPE   GL162907  12.361   6.490   4.556  0.1509 -0.0694  0.4468
 3421DPPE   GL262908  12.116   6.065   4.606  0.0415 -0.1558 -0.1607
 3421DPPE   C1A62909  12.165   6.335   4.103  0.1281 -0.0057  0.1469
 3421DPPE   C2A62910  11.922   6.129   3.751  0.1570 -0.2187  0.2903
 3421DPPE   C3A62911  11.520   5.945   3.811 -0.3169 -0.0534 -0.0093
 3421DPPE   C4A62912  11.233   5.732   3.821  0.2117  0.2107  0.2616
 3421DPPE   C1B62913  11.741   6.123   4.315  0.0897 -0.1463 -0.4636
 3421DPPE   C2B62914  11.381   6.151   4.209  0.2372 -0.1793  0.1812
 3421DPPE   C3B62915  11.039   6.311   3.882 -0.0087 -0.0316  0.2116
 3421DPPE   C4B62916  10.677   6.150   3.727 -0.1486  0.2983 -0.1334
 3422DPPE   NH362917   9.019   9.585   8.395 -0.3969  0.1123 -0.3583
 3422DPPE   PO462918   9.338   9.680   8.002 -0.0762  0.1013 -0.0776
 3422DPPE   GL162919   9.580   9.600   8.359  0.1239  0.1256 -0.0857
 3422DPPE   GL262920   9.709   9.856   8.321 -0.0978  0.1608 -0.2336
 3422DPPE   C1A62921   9.851   9.704   8.767  0.0686  0.0828 -0.1696
 3422DPPE   C2A62922  10.061   9.431   8.941 -0.2047 -0.0121 -0.2191
 3422DPPE   C3A62923  10.467   9.437   9.102 -0.0198 -0.2271  0.1056
 3422DPPE   C4A62924  10.806   9.622   9.277 -0.0967 -0.0285  0.0442
 3422DPPE   C1B62925  10.056  10.037   8.295  0.2627  0.0826 -0.0120
 3422DPPE   C2B62926  10.472   9.934   8.154  0.1649  0.0747  0.0182
 3422DPPE   C3B62927  10.923  10.107   8.103  0.0140  0.1132  0.1512
 3422DPPE   C4B62928  11.301  10.424   8.071 -0.3200  0.1164 -0.0217
 3423DPPE   NH362929   7.729   1.946  13.663  0.0680 -0.0999 -0.1663
 3423DPPE   PO462930   7.438   1.908  13.339 -0.0492  0.1200 -0.1029
 3423DPPE   GL162931   7.089   1.661  13.361 -0.0301  0.1790  0.0269
 3423DPPE   GL262932   7.056   1.268  13.434 -0.0671 -0.1685  0.1925
 3423DPPE   C1A62933   6.609   1.516  13.330 -0.0430  0.0430 -0.0010
 3423DPPE   C2A62934   6.252   1.123  13.184  0.0296 -0.1888 -0.2526
 3423DPPE   C3A62935   6.268   0.806  12.864 -0.1198 -0.1044  0.1950
 3423DPPE   C4A62936   6.128   0.489  12.848 -0.2326  0.3727 -0.1041
 3423DPPE   C1B62937   6.691   0.956  13.348  0.0596  0.0543  0.1045
 3423DPPE   C2B62938   6.702   0.486  13.428 -0.0899 -0.3992 -0.0755
 3423DPPE   C3B62939   6.492   0.154  13.520 -0.0181 -0.1260 -0.0065
 3423DPPE   C4B62940   6.166  -0.033  13.412  0.4308 -0.0779 -0.0139
 3424DPPE   NH362941  17.185   2.941   6.319 -0.0641 -0.0207 -0.1203
 3424DPPE   PO462942  17.185   3.350   6.232  0.1895  0.1693 -0.0671
 3424DPPE   GL162943  17.079   3.107   5.841  0.0042 -0.1271 -0.1865
 3424DPPE   GL262944  17.231   2.835   5.838  0.0798 -0.2033  0.1218
 3424DPPE   C1A62945  16.825   2.813   5.560  0.2180 -0.0156 -0.1063
 3424DPPE   C2A62946  16.942   2.635   5.102 -0.0871  0.0210  0.0463
 3424DPPE   C3A62947  17.088   2.360   4.928  0.0967 -0.1478 -0.1942
 3424DPPE   C4A62948  17.258   2.217   4.607 -0.0454 -0.1280 -0.1227
 3424DPPE   C1B62949  17.285   2.920   5.434 -0.2118 -0.0196  0.0828
 3424DPPE   C2B62950  17.358   2.870   5.012  0.1289  0.3412  0.0108
 3424DPPE   C3B62951  17.448   2.840   4.556  0.0813  0.1068  0.0738
 3424DPPE   C4B62952  17.123   2.771   4.209  0.2113  0.1856 -0.0095
 3425DPPE   NH362953   9.051   3.855   9.891 -0.1454 -0.2513  0.1377
 3425DPPE   PO462954   8.692   3.485   9.867 -0.0168  0.0914 -0.3252
 3425DPPE   GL162955   8.319   3.209   9.816 -0.3301 -0.2998  0.0104
 3425DPPE   GL262956   8.400   3.189   9.517 -0.0481 -0.1420  0.1330
 3425DPPE   C1A62957   8.025   2.811   9.656  0.1245 -0.2893 -0.1390
 3425DPPE   C2A62958   7.895   2.618   9.316 -0.1563 -0.4813  0.2314
 3425DPPE   C3A62959   7.789   2.361   8.940 -0.0189 -0.2287 -0.2155
 3425DPPE   C4A62960   7.517   2.115   8.918  0.0429 -0.1255 -0.2270
 3425DPPE   C1B62961   8.458   2.968   9.151 -0.0387  0.2086  0.0747
 3425DPPE   C2B62962   8.278   2.656   8.825  0.0256 -0.1736 -0.2047
 3425DPPE   C3B62963   8.229   2.318   8.647 -0.0541  0.4389 -0.1540
 3425DPPE   C4B62964   8.045   2.120   8.296  0.2514 -0.2354 -0.2903
 3426DPPE   NH362965   9.258   2.546  11.745  0.2432 -0.2037 -0.0210
 3426DPPE   PO462966   9.349   2.134  11.757 -0.1593  0.1191 -0.0016
 3426DPPE   GL162967   9.636   2.281  12.072 -0.1258  0.1527 -0.0580
 3426DPPE   GL262968   9.794   2.295  12.429  0.2869  0.1713  0.0839
 3426DPPE   C1A62969  10.103   2.480  12.015 -0.1825  0.0232 -0.1673
 3426DPPE   C2A62970  10.555   2.627  12.223 -0.3030  0.0253  0.0113
 3426DPPE   C3A62971  10.820   2.826  12.447  0.0998 -0.1838 -0.1342
 3426DPPE   C4A62972  10.657   3.185  12.722  0.1543 -0.0249 -0.0804
 3426DPPE   C1B62973   9.831   2.588  12.765  0.3092 -0.1072 -0.2066
 3426DPPE   C2B62974  10.012   2.856  13.012  0.0029 -0.2426  0.1292
 3426DPPE   C3B62975  10.435   2.991  13.164 -0.1891 -0.2908  0.0954
 3426DPPE   C4B62976  10.895   3.105  13.139  0.0165 -0.0947 -0.1190
 3427DPPE   NH362977   5.678   4.201  16.019 -0.0997 -0.2721  0.1523
 3427DPPE   PO462978   5.793   3.812  16.134  0.0518 -0.1080 -0.0962
 3427DPPE   GL162979   5.467   3.760  15.970  0.1913 -0.0900  0.2013
 3427DPPE   GL262980   5.455   3.374  15.961  0.3636  0.0515  0.0209
 3427DPPE   C1A62981   5.037   3.722  16.006  0.1142 -0.5372 -0.1038
 3427DPPE   C2A62982   4.607   3.584  15.934  0.0010 -0.0817  0.2276
 3427DPPE   C3A62983   4.362   3.222  15.916  0.0088  0.0703 -0.0597
 3427DPPE   C4A62984   4.322   2.949  15.638 -0.0327  0.3306  0.1562
 3427DPPE   C1B62985   5.076   3.257  16.130  0.0929 -0.0357  0.1784
 3427DPPE   C2B62986   4.726   3.185  16.386  0.3195  0.2379  0.0978
 3427DPPE   C3B62987   4.280   3.423  16.379 -0.3313  0.0423  0.0785
 3427DPPE   C4B62988   4.111   3.689  16.025 -0.1292 -0.2613 -0.1411
 3428DPPE   NH362989   6.563   9.493  11.540  0.2604 -0.1120  0.0403
 3428DPPE   PO462990   6.646   9.735  11.794  0.1608 -0.4361 -0.1212
 3428DPPE   GL162991   6.780   9.815  12.178  0.1294  0.0645  0.0344
 3428DPPE   GL262992   6.799  10.218  12.230 -0.2871  0.0219 -0.0701
 3428DPPE   C1A62993   7.014   9.897  12.578  0.0772  0.0972 -0.0153
 3428DPPE   C2A62994   7.143   9.985  12.909  0.1293  0.3140  0.1765
 3428DPPE   C3A62995   7.305   9.952  13.298  0.0137  0.0539 -0.1805
 3428DPPE   C4A62996   7.460  10.261  13.563 -0.2374  0.2647 -0.0256
 3428DPPE   C1B62997   6.977  10.438  12.519  0.1064 -0.2032 -0.0232
 3428DPPE   C2B62998   7.107  10.682  12.860  0.0338  0.1493 -0.3788
 3428DPPE   C3B62999   7.203  11.053  13.090 -0.0743 -0.0416 -0.0221
 3428DPPE   C4B63000   7.360  11.373  13.399  0.0651  0.1493  0.0657
 3429DPPE   NH363001   9.809   9.607   7.890  0.1275 -0.0035  0.2888
 3429DPPE   PO463002   9.924   9.411   7.538  0.1200 -0.0722  0.0794
 3429DPPE   GL163003  10.109   9.245   7.954 -0.3045 -0.2507 -0.0051
 3429DPPE   GL263004  10.097   9.400   8.200 -0.0111 -0.2201 -0.0572
 3429DPPE   C1A63005  10.593   9.299   8.190  0.1496 -0.1063 -0.0077
 3429DPPE   C2A63006  10.966   9.108   8.390  0.0251  0.2017 -0.1014
 3429DPPE   C3A63007  11.259   9.143   8.543  0.1418 -0.0956  0.1754
 3429DPPE   C4A63008  11.543   8.831   8.658  0.3650 -0.0348  0.0877
 3429DPPE   C1B63009  10.300   9.693   8.579  0.0091  0.0259  0.0489
 3429DPPE   C2B63010  10.363   9.943   8.988  0.0165 -0.1066 -0.1338
 3429DPPE   C3B63011  10.494  10.124   9.388 -0.0838 -0.0099 -0.1664
 3429DPPE   C4B63012  10.827  10.260   9.604 -0.1031 -0.1655  0.2013
 3430DPPE   NH363013  15.891   3.602   5.996 -0.2072  0.1869  0.3047
 3430DPPE   PO463014  15.615   3.351   6.018 -0.3231 -0.1676 -0.1356
 3430DPPE   GL163015  15.511   3.107   5.666  0.0190  0.0647 -0.0276
 3430DPPE   GL263016  15.311   2.882   5.643 -0.1880 -0.0249  0.1041
 3430DPPE   C1A63017  15.398   2.951   5.182 -0.0399 -0.1955  0.2850
 3430DPPE   C2A63018  15.594   2.958   4.721  0.1351 -0.0570 -0.2583
 3430DPPE   C3A63019  15.477   2.976   4.290 -0.4574  0.0304 -0.1395
 3430DPPE   C4A63020  15.637   2.927   3.902 -0.0966 -0.1562 -0.2313
 3430DPPE   C1B63021  15.311   2.527   5.443 -0.3154 -0.1768 -0.1259
 3430DPPE   C2B63022  15.590   2.139   5.417 -0.1212 -0.0803 -0.2493
 3430DPPE   C3B63023  15.425   1.813   5.191 -0.1298  0.2650 -0.0550
 3430DPPE   C4B63024  15.498   1.599   4.784  0.0181 -0.3279 -0.3290
 3431DPPE   NH363025   9.077   7.953   6.504 -0.1887  0.5977 -0.2574
 3431DPPE   PO463026   9.210   7.702   6.901 -0.0160  0.2379 -0.2290
 3431DPPE   GL163027   9.134   7.396   6.517 -0.1674 -0.0898  0.0271
 3431DPPE   GL263028   8.811   7.383   6.316 -0.0188  0.1268 -0.1188
 3431DPPE   C1A63029   9.005   6.919   6.305  0.1920 -0.0207 -0.1834
 3431DPPE   C2A63030   8.641   6.887   6.091 -0.0823 -0.0521 -0.3826
 3431DPPE   C3A63031   8.587   6.657   5.774  0.2383  0.0063  0.2550
 3431DPPE   C4A63032   8.767   6.365   5.457  0.0167 -0.0968 -0.0285
 3431DPPE   C1B63033   8.802   7.432   5.876 -0.3079 -0.0674 -0.2733
 3431DPPE   C2B63034   8.539   7.177   5.572 -0.0939 -0.0207  0.1351
 3431DPPE   C3B63035   8.152   7.095   5.267 -0.2997  0.0166 -0.0048
 3431DPPE   C4B63036   7.927   6.680   5.196  0.1021 -0.2999  0.1586
 3432DPPE   NH363037   9.873   3.507   8.976  0.1057 -0.1105  0.1190
 3432DPPE   PO463038   9.897   3.201   9.233  0.1008 -0.0748  0.2149
 3432DPPE   GL163039   9.777   2.854   9.012 -0.0744 -0.0610 -0.0372
 3432DPPE   GL263040   9.586   3.083   8.809  0.0474 -0.1753  0.1869
 3432DPPE   C1A63041   9.841   2.402   8.847  0.1635 -0.1290  0.3778
 3432DPPE   C2A63042   9.742   1.936   8.682  0.0838 -0.1654  0.1751
 3432DPPE   C3A63043   9.696   1.500   8.410 -0.1327 -0.1005  0.1328
 3432DPPE   C4A63044  10.010   1.299   8.099  0.1762  0.0128 -0.0138
 3432DPPE   C1B63045   9.433   2.700   8.543  0.0590  0.0191  0.1842
 3432DPPE   C2B63046   9.184   2.544   8.230  0.0869  0.1365 -0.1902
 3432DPPE   C3B63047   9.164   2.344   7.853  0.2068  0.0376  0.1133
 3432DPPE   C4B63048   9.192   2.440   7.452  0.0535 -0.2154 -0.1360
 3433DPPE   NH363049   5.385   4.591  15.341  0.2990  0.3528  0.0908
 3433DPPE   PO463050   5.416   4.442  15.686  0.2006  0.1322  0.0293
 3433DPPE   GL163051   5.143   4.231  15.891 -0.1557 -0.0634  0.1164
 3433DPPE   GL263052   5.021   4.387  16.106  0.0979 -0.0371  0.0565
 3433DPPE   C1A63053   4.743   4.055  15.798 -0.0848 -0.1791 -0.0640
 3433DPPE   C2A63054   4.357   3.906  15.683 -0.2868  0.0906 -0.1270
 3433DPPE   C3A63055   4.051   4.188  15.868 -0.1412 -0.1350  0.1843
 3433DPPE   C4A63056   3.658   4.060  16.124  0.3142 -0.1331 -0.0189
 3433DPPE   C1B63057   4.904   4.305  16.498  0.0263  0.0305 -0.4227
 3433DPPE   C2B63058   5.069   4.389  17.043 -0.1105  0.1047  0.1421
 3433DPPE   C3B63059   4.807   4.596  17.309 -0.2491  0.0314  0.2305
 3433DPPE   C4B63060   4.800   5.007  17.501 -0.1162  0.0746 -0.1208
 3434DPPE   NH363061   8.514   3.219  10.257 -0.1984  0.2229  0.0601
 3434DPPE   PO463062   8.516   2.783  10.190 -0.1163 -0.0532 -0.1579
 3434DPPE   GL163063   8.281   2.540   9.928  0.3630 -0.0714  0.0381
 3434DPPE   GL263064   8.546   2.369   9.818  0.1410 -0.3365 -0.3474
 3434DPPE   C1A63065   8.109   2.149   9.720 -0.0555 -0.2156  0.0072
 3434DPPE   C2A63066   7.758   1.812   9.537  0.0116 -0.2062 -0.0171
 3434DPPE   C3A63067   7.366   1.836   9.505  0.0681 -0.3464 -0.0740
 3434DPPE   C4A63068   6.965   1.966   9.287 -0.0281 -0.2038  0.2130
 3434DPPE   C1B63069   8.412   2.566   9.436  0.4779 -0.0569  0.2285
 3434DPPE   C2B63070   8.325   2.336   9.176  0.3950  0.1790  0.1616
 3434DPPE   C3B63071   8.151   1.918   8.961 -0.0395  0.1255  0.0672
 3434DPPE   C4B63072   7.952   1.908   8.739 -0.2171  0.0287  0.1697
 3435DPPE   NH363073   9.154   9.933   7.567 -0.1999  0.0159  0.2020
 3435DPPE   PO463074   9.485  10.087   7.747 -0.1322 -0.0654  0.3105
 3435DPPE   GL163075   9.757  10.311   8.029 -0.1118 -0.2640  0.0766
 3435DPPE   GL263076   9.616  10.463   8.289  0.1324  0.0347 -0.0723
 3435DPPE   C1A63077  10.208  10.511   8.073 -0.4647 -0.0492 -0.4100
 3435DPPE   C2A63078  10.445  10.452   8.482 -0.1105  0.2625 -0.3639
 3435DPPE   C3A63079  10.746  10.149   8.711 -0.0302 -0.2292 -0.1209
 3435DPPE   C4A63080  10.765   9.737   8.726  0.1101  0.1544  0.1893
 3435DPPE   C1B63081   9.928  10.697   8.497  0.1369 -0.0591  0.1362
 3435DPPE   C2B63082  10.320  10.864   8.649  0.1875 -0.1564 -0.0389
 3435DPPE   C3B63083  10.483  11.247   8.743 -0.0896  0.1094 -0.0319
 3435DPPE   C4B63084  10.708  11.617   8.801  0.1999  0.0600 -0.2022
 3436DPPE   NH363085   7.715   5.885   9.439 -0.2473  0.0353 -0.0138
 3436DPPE   PO463086   7.924   5.497   9.166  0.1231  0.0875  0.1212
 3436DPPE   GL163087   7.527   5.393   8.844  0.4297  0.2029  0.1039
 3436DPPE   GL263088   7.514   5.576   8.607  0.0868 -0.3338  0.1715
 3436DPPE   C1A63089   7.011   5.320   8.904 -0.0299  0.0121  0.1741
 3436DPPE   C2A63090   6.646   5.104   8.609 -0.1815 -0.0725  0.1837
 3436DPPE   C3A63091   6.368   5.061   8.312 -0.1666  0.1258  0.1227
 3436DPPE   C4A63092   6.314   4.757   8.041 -0.0117 -0.3033 -0.0572
 3436DPPE   C1B63093   7.192   5.329   8.397  0.1544  0.0317  0.3597
 3436DPPE   C2B63094   6.909   5.139   8.164 -0.2096  0.1853  0.1439
 3436DPPE   C3B63095   6.908   4.941   7.894  0.2525  0.2710  0.1508
 3436DPPE   C4B63096   7.067   4.784   7.479  0.2142  0.0130  0.0806
 3437DPPE   NH363097  13.054   1.581   8.624 -0.1983 -0.0411  0.2285
 3437DPPE   PO463098  13.319   1.442   8.230  0.0584  0.0640 -0.0354
 3437DPPE   GL163099  13.167   1.173   7.993  0.3925  0.0848  0.2314
 3437DPPE   GL263100  13.010   1.312   7.786 -0.2240  0.2995  0.3163
 3437DPPE   C1A63101  13.204   0.880   7.705  0.4081  0.1908 -0.1326
 3437DPPE   C2A63102  12.942   0.792   7.360  0.1918 -0.2709  0.0874
 3437DPPE   C3A63103  12.779   0.511   7.095 -0.2609 -0.0535 -0.0793
 3437DPPE   C4A63104  12.631   0.373   6.696 -0.2729  0.3676  0.0151
 3437DPPE   C1B63105  12.662   1.157   7.698 -0.2446  0.1402 -0.0206
 3437DPPE   C2B63106  12.612   1.135   7.278 -0.0779 -0.1031 -0.0883
 3437DPPE   C3B63107  12.420   0.931   6.887 -0.1490 -0.0222  0.1876
 3437DPPE   C4B63108  12.138   0.551   6.855 -0.0385  0.0628  0.1732
 3438DPPE   NH363109   7.778   7.123   8.852  0.1161 -0.1169 -0.0148
 3438DPPE   PO463110   7.791   7.462   8.588  0.1919  0.1177 -0.0430
 3438DPPE   GL163111   7.453   7.269   8.488 -0.1026  0.3560 -0.0993
 3438DPPE   GL263112   7.618   7.019   8.212  0.3372  0.1729 -0.2579
 3438DPPE   C1A63113   7.156   7.338   8.283 -0.2527 -0.0458  0.0614
 3438DPPE   C2A63114   7.021   7.245   7.959 -0.1213  0.1637 -0.1217
 3438DPPE   C3A63115   6.673   7.181   7.790 -0.0408 -0.0001  0.2876
 3438DPPE   C4A63116   6.329   7.008   7.623  0.1640  0.0146  0.0344
 3438DPPE   C1B63117   7.231   6.745   8.018  0.0789 -0.0053  0.1963
 3438DPPE   C2B63118   6.841   6.715   7.965 -0.0663  0.0721 -0.2310
 3438DPPE   C3B63119   6.475   6.663   8.065  0.1836 -0.4501  0.1523
 3438DPPE   C4B63120   6.038   6.594   7.919  0.1035  0.0481 -0.1212
 3439DPPE   NH363121   8.740   0.638  15.603 -0.0916 -0.2052 -0.2000
 3439DPPE   PO463122   8.846   0.362  15.285  0.0828  0.0334 -0.0451
 3439DPPE   GL163123   8.606  -0.035  15.175 -0.4278 -0.0537 -0.0495
 3439DPPE   GL263124   8.694  -0.247  15.448  0.2954  0.1415  0.1981
 3439DPPE   C1A63125   8.321  -0.320  14.970  0.1590  0.0998  0.1894
 3439DPPE   C2A63126   8.203  -0.694  14.748  0.0497  0.0888 -0.2049
 3439DPPE   C3A63127   7.902  -0.958  14.610 -0.0176 -0.1410 -0.2468
 3439DPPE   C4A63128   7.827  -1.273  14.399 -0.4160  0.0495 -0.3208
 3439DPPE   C1B63129   8.359  -0.218  15.774  0.1102  0.2959 -0.0767
 3439DPPE   C2B63130   7.996  -0.578  15.795 -0.2369 -0.2415  0.0507
 3439DPPE   C3B63131   7.608  -0.653  15.602 -0.0045  0.1526  0.0394
 3439DPPE   C4B63132   7.537  -0.751  15.183  0.1644 -0.1552 -0.0298
 3440DPPE   NH363133   8.720   1.776  11.356  0.2349  0.1788  0.0472
 3440DPPE   PO463134   9.078   1.576  11.365 -0.2838  0.1805  0.0408
 3440DPPE   GL163135   8.834   1.357  11.104 -0.0971  0.1277  0.3135
 3440DPPE   GL263136   8.704   1.465  10.904 -0.1196 -0.2565 -0.0430
 3440DPPE   C1A63137   8.561   0.978  11.114 -0.1155 -0.0352 -0.1543
 3440DPPE   C2A63138   8.278   0.668  10.979  0.3017  0.3307 -0.1174
 3440DPPE   C3A63139   8.191   0.387  11.009 -0.2146  0.1371 -0.1184
 3440DPPE   C4A63140   7.819   0.150  11.090  0.1539  0.0618  0.0069
 3440DPPE   C1B63141   8.611   1.131  10.598 -0.0175  0.2566 -0.1766
 3440DPPE   C2B63142   8.303   0.925  10.581 -0.2768  0.1685  0.0146
 3440DPPE   C3B63143   8.065   0.518  10.535 -0.1603 -0.0014  0.0610
 3440DPPE   C4B63144   7.684   0.445  10.304  0.0018 -0.4068  0.1580
 3441DPPE   NH363145  11.175   8.581   6.444  0.0197  0.2382 -0.4215
 3441DPPE   PO463146  10.802   8.357   6.479  0.0693  0.3204 -0.1589
 3441DPPE   GL163147  10.841   8.567   6.855  0.0099 -0.4716  0.2950
 3441DPPE   GL263148  10.930   8.842   6.812  0.0001  0.2044 -0.1128
 3441DPPE   C1A63149  10.755   8.471   7.249 -0.0521  0.2041  0.1278
 3441DPPE   C2A63150  10.605   8.521   7.623  0.0930 -0.0202  0.0665
 3441DPPE   C3A63151  10.639   8.392   8.025 -0.0116  0.1005 -0.0445
 3441DPPE   C4A63152  10.624   8.262   8.462  0.0056  0.2749  0.3693
 3441DPPE   C1B63153  11.115   8.783   7.289  0.1875 -0.2617 -0.0996
 3441DPPE   C2B63154  11.002   8.839   7.628 -0.0141 -0.2816 -0.0751
 3441DPPE   C3B63155  10.978   8.736   8.055  0.0978  0.1753 -0.0528
 3441DPPE   C4B63156  11.145   8.589   8.440 -0.0716 -0.1030  0.0263
 3442DPPE   NH363157  14.205  35.043  12.592 -0.1161  0.1441  0.0132
 3442DPPE   PO463158  14.347  35.143  12.981  0.1484  0.1112  0.1609
 3442DPPE   GL163159  14.702  34.981  13.174  0.0168 -0.2636 -0.0983
 3442DPPE   GL263160  14.964  34.938  13.012  0.3728 -0.0756  0.2113
 3442DPPE   C1A63161  15.137  35.057  13.440  0.0623 -0.0090  0.0644
 3442DPPE   C2A63162  15.559  35.033  13.293 -0.1388  0.2919 -0.5005
 3442DPPE   C3A63163  15.868  35.239  13.325 -0.0034 -0.1181  0.0240
 3442DPPE   C4A63164  16.161  35.365  13.452 -0.1968 -0.1472  0.0654
 3442DPPE   C1B63165  15.312  35.254  12.967 -0.3673 -0.0458  0.1701
 3442DPPE   C2B63166  15.428  35.493  13.351  0.3405 -0.0472 -0.0369
 3442DPPE   C3B63167  15.613  35.808  13.564 -0.3119 -0.0182  0.1504
 3442DPPE   C4B63168  15.793  36.245  13.551  0.1700 -0.0269  0.0338
 3443DPPE   NH363169   9.866   2.908  10.491 -0.2427  0.1605 -0.4961
 3443DPPE   PO463170   9.635   2.566  10.880 -0.3858  0.0559  0.0901
 3443DPPE   GL163171   9.974   2.443  11.082  0.0872  0.0551 -0.2085
 3443DPPE   GL263172  10.153   2.712  10.945 -0.1769 -0.0879 -0.2213
 3443DPPE   C1A63173  10.283   2.573  11.402 -0.2703  0.0584 -0.1345
 3443DPPE   C2A63174  10.498   2.952  11.632  0.1851 -0.1730  0.0335
 3443DPPE   C3A63175  10.752   2.970  11.908 -0.1920  0.3367 -0.1385
 3443DPPE   C4A63176  11.116   2.793  12.053  0.4234 -0.0512  0.0409
 3443DPPE   C1B63177  10.401   3.077  11.038 -0.1719 -0.0316  0.3704
 3443DPPE   C2B63178  10.505   3.356  11.374 -0.2788  0.1119 -0.1450
 3443DPPE   C3B63179  10.826   3.582  11.650 -0.0564 -0.1461  0.2373
 3443DPPE   C4B63180  11.241   3.726  11.962 -0.0085  0.2330  0.1674
 3444DPPE   NH363181   7.919  10.318   8.084 -0.3006 -0.1004 -0.0838
 3444DPPE   PO463182   7.833   9.795   7.976 -0.5760  0.2450  0.0086
 3444DPPE   GL163183   7.314   9.812   7.922  0.1260  0.1975 -0.0465
 3444DPPE   GL263184   7.215  10.131   7.966 -0.0402  0.2733 -0.1969
 3444DPPE   C1A63185   6.969   9.895   7.575  0.1616  0.0706 -0.0561
 3444DPPE   C2A63186   6.497   9.786   7.664 -0.0169 -0.1827 -0.2749
 3444DPPE   C3A63187   6.333   9.586   8.123  0.2278  0.3273  0.3198
 3444DPPE   C4A63188   6.283   9.325   8.553 -0.1294  0.1439 -0.2297
 3444DPPE   C1B63189   6.901  10.394   7.703 -0.2312  0.1660  0.0206
 3444DPPE   C2B63190   6.476  10.565   7.510 -0.0658 -0.0467  0.2566
 3444DPPE   C3B63191   6.492  10.825   7.220  0.0582  0.1262  0.0811
 3444DPPE   C4B63192   6.381  11.162   7.018  0.4241 -0.3300  0.2094
 3445DPPE   NH363193   8.570   3.849  10.788  0.1308  0.1549  0.1148
 3445DPPE   PO463194   8.348   3.450  10.757  0.0324  0.0063  0.2116
 3445DPPE   GL163195   8.127   2.994  10.550 -0.0478 -0.2774  0.2807
 3445DPPE   GL263196   8.078   2.971  10.190  0.1261  0.1366 -0.2498
 3445DPPE   C1A63197   7.865   2.592  10.451 -0.2533  0.2766  0.2039
 3445DPPE   C2A63198   7.750   2.367  10.067  0.0187 -0.0449  0.0022
 3445DPPE   C3A63199   7.628   2.375   9.668 -0.3605 -0.0373 -0.0457
 3445DPPE   C4A63200   7.328   2.354   9.347  0.1381  0.0084  0.2792
 3445DPPE   C1B63201   7.637   2.887   9.994  0.0269  0.2636  0.0848
 3445DPPE   C2B63202   7.246   2.646   9.855 -0.0944  0.0645  0.3310
 3445DPPE   C3B63203   6.922   2.301   9.676 -0.4422  0.1060 -0.0600
 3445DPPE   C4B63204   6.486   2.134   9.446  0.0466  0.2792 -0.1542
 3446DPPE   NH363205  13.125   7.455   6.045  0.1234 -0.0472 -0.0295
 3446DPPE   PO463206  13.099   7.936   5.971  0.0384  0.2132 -0.1236
 3446DPPE   GL163207  13.290   7.909   6.353 -0.1574  0.3752  0.1134
 3446DPPE   GL263208  12.962   7.842   6.477  0.0137 -0.0812  0.3408
 3446DPPE   C1A63209  13.543   8.146   6.773  0.0910  0.3139 -0.1447
 3446DPPE   C2A63210  13.780   8.487   6.887 -0.1278  0.2120  0.1099
 3446DPPE   C3A63211  13.792   8.724   7.277  0.1767 -0.1536 -0.0916
 3446DPPE   C4A63212  13.929   8.677   7.703  0.3808 -0.0212 -0.1830
 3446DPPE   C1B63213  13.016   8.095   6.839  0.0627  0.4444 -0.1471
 3446DPPE   C2B63214  13.303   8.433   7.155  0.1310  0.1491 -0.2319
 3446DPPE   C3B63215  13.610   8.355   7.528  0.0676 -0.1140  0.1694
 3446DPPE   C4B63216  14.017   8.166   7.740 -0.0867 -0.2187 -0.0487
 3447DPPE   NH363217   5.549   4.487  16.617 -0.0268  0.1204  0.3763
 3447DPPE   PO463218   5.511   4.726  16.180 -0.2959  0.1617  0.1992
 3447DPPE   GL163219   5.113   4.807  16.466 -0.1442 -0.0137  0.3345
 3447DPPE   GL263220   4.782   4.800  16.379  0.3308 -0.0215  0.0348
 3447DPPE   C1A63221   4.935   4.865  16.816  0.0359  0.2876 -0.0918
 3447DPPE   C2A63222   4.666   5.065  16.975  0.0559  0.3875  0.0029
 3447DPPE   C3A63223   4.332   4.957  17.293 -0.0250  0.1184 -0.2419
 3447DPPE   C4A63224   4.052   4.687  17.385 -0.1553 -0.2080 -0.0154
 3447DPPE   C1B63225   4.479   4.722  16.667  0.3310 -0.1533  0.0203
 3447DPPE   C2B63226   4.356   4.505  17.058  0.0352 -0.0815  0.1047
 3447DPPE   C3B63227   4.503   4.201  17.219  0.0275  0.1188  0.1921
 3447DPPE   C4B63228   4.405   3.817  17.259  0.0610  0.1251 -0.1363
 3448DPPE   NH363229  16.131  36.323  10.410  0.0108  0.0489 -0.1133
 3448DPPE   PO463230  16.478  36.620  10.252 -0.0625 -0.0696  0.1280
 3448DPPE   GL163231  16.573  36.685  10.605  0.4150  0.0931 -0.2407
 3448DPPE   GL263232  16.936  36.660  10.523  0.0963  0.0537 -0.1034
 3448DPPE   C1A63233  16.372  36.971  11.031  0.1020  0.0095 -0.0717
 3448DPPE   C2A63234  16.043  37.154  11.281 -0.0902 -0.0721  0.2319
 3448DPPE   C3A63235  15.916  37.455  11.475  0.2029 -0.3811 -0.4249
 3448DPPE   C4A63236  16.074  37.855  11.550  0.3268 -0.1574 -0.0258
 3448DPPE   C1B63237  17.245  36.861  10.637 -0.0926  0.1553 -0.0470
 3448DPPE   C2B63238  17.610  36.747  10.485  0.1835 -0.0402 -0.0203
 3448DPPE   C3B63239  17.881  36.681  10.122 -0.2544 -0.0444  0.0447
 3448DPPE   C4B63240  18.036  36.394   9.860  0.0953  0.2074 -0.1806
 3449DPPE   NH363241  13.085   1.086   8.493  0.1629  0.1920 -0.4254
 3449DPPE   PO463242  12.621   1.293   8.668  0.2914  0.0796  0.3099
 3449DPPE   GL163243  12.562   0.987   8.411  0.1633  0.0975  0.0951
 3449DPPE   GL263244  12.709   1.033   8.186  0.3361 -0.1039 -0.2891
 3449DPPE   C1A63245  12.294   0.674   8.262 -0.1409 -0.0531  0.1062
 3449DPPE   C2A63246  11.807   0.476   8.223 -0.3191  0.1689 -0.1676
 3449DPPE   C3A63247  11.629  -0.012   8.057 -0.2205 -0.6211  0.0186
 3449DPPE   C4A63248  11.617  -0.485   8.021  0.3525 -0.0402  0.1578
 3449DPPE   C1B63249  12.693   0.710   7.940 -0.1719  0.0166 -0.1348
 3449DPPE   C2B63250  12.493   0.649   7.583  0.0039  0.1909  0.0883
 3449DPPE   C3B63251  12.360   0.317   7.192  0.0495  0.0687  0.1365
 3449DPPE   C4B63252  12.388   0.009   6.981 -0.0172  0.2863  0.4301
 3450DPPE   NH363253  10.663   0.585  14.202  0.1805  0.2780  0.3332
 3450DPPE   PO463254  10.371   0.597  13.854  0.1732 -0.1778 -0.0095
 3450DPPE   GL163255  10.548   1.042  14.011 -0.3009 -0.0511 -0.1771
 3450DPPE   GL263256  10.764   1.091  14.246 -0.0040  0.0356 -0.0113
 3450DPPE   C1A63257  10.733   1.489  13.908  0.0298  0.0785  0.0069
 3450DPPE   C2A63258  10.887   1.799  13.634  0.0727 -0.4256  0.0578
 3450DPPE   C3A63259  11.056   2.167  13.595 -0.2037 -0.1619 -0.2056
 3450DPPE   C4A63260  11.241   2.542  13.755  0.0211  0.0762 -0.3397
 3450DPPE   C1B63261  11.192   1.240  14.122 -0.0021  0.0037 -0.2214
 3450DPPE   C2B63262  11.567   1.530  14.225  0.4543  0.2123  0.0762
 3450DPPE   C3B63263  11.802   1.629  14.549  0.0558 -0.0915  0.2020
 3450DPPE   C4B63264  12.309   1.720  14.653  0.1919 -0.0162 -0.2320
 3451DPPE   NH363265  12.565  35.256  13.423  0.0268  0.0924  0.0983
 3451DPPE   PO463266  12.083  35.069  13.310 -0.1900  0.2552  0.1221
 3451DPPE   GL163267  11.911  34.748  13.223  0.0667  0.2752 -0.0225
 3451DPPE   GL263268  11.660  34.666  13.460  0.3225 -0.0075 -0.0657
 3451DPPE   C1A63269  11.719  34.350  13.032 -0.1297 -0.2417 -0.1288
 3451DPPE   C2A63270  11.746  34.357  12.662  0.3846  0.1838  0.1554
 3451DPPE   C3A63271  11.612  34.131  12.308  0.2080 -0.4140  0.0896
 3451DPPE   C4A63272  11.647  33.681  12.008 -0.3307 -0.3830 -0.2869
 3451DPPE   C1B63273  11.678  34.259  13.652 -0.1041  0.1256 -0.2326
 3451DPPE   C2B63274  11.811  33.716  13.511 -0.1797 -0.0749 -0.1345
 3451DPPE   C3B63275  11.870  33.457  13.924  0.0273 -0.1613  0.0514
 3451DPPE   C4B63276  11.652  33.418  14.348 -0.0511 -0.4684 -0.3146
 3452DPPE   NH363277   6.286  10.783  11.236  0.3576 -0.3021 -0.1019
 3452DPPE   PO463278   6.143  11.151  11.478 -0.3074  0.0883  0.0679
 3452DPPE   GL163279   5.863  11.417  11.708 -0.1103  0.0939 -0.1194
 3452DPPE   GL263280   5.575  11.490  12.008  0.0397  0.1420  0.3399
 3452DPPE   C1A63281   5.713  11.873  11.622  0.0814 -0.1134  0.1410
 3452DPPE   C2A63282   5.800  12.241  11.551  0.1172 -0.1606  0.2310
 3452DPPE   C3A63283   5.886  12.688  11.440  0.0124  0.1086  0.2890
 3452DPPE   C4A63284   5.655  12.938  11.143 -0.0234 -0.0564  0.4079
 3452DPPE   C1B63285   5.876  11.873  12.175  0.0527  0.2462  0.0467
 3452DPPE   C2B63286   5.771  12.307  12.453  0.1272 -0.0407 -0.2421
 3452DPPE   C3B63287   5.813  12.552  12.737 -0.1284  0.0918 -0.3402
 3452DPPE   C4B63288   5.892  12.897  12.903  0.0263  0.1343  0.1135
 3453DPPE   NH363289   9.893   2.024  11.631  0.1108 -0.3037  0.1077
 3453DPPE   PO463290  10.121   1.917  11.143  0.0825 -0.3557  0.0653
 3453DPPE   GL163291  10.445   2.055  11.455 -0.0049 -0.0615  0.1618
 3453DPPE   GL263292  10.807   2.062  11.516  0.1413 -0.1862 -0.2156
 3453DPPE   C1A63293  10.534   2.347  11.803 -0.0210  0.2821  0.1457
 3453DPPE   C2A63294  10.999   2.330  12.021 -0.0310  0.2614  0.0032
 3453DPPE   C3A63295  11.407   1.998  12.163 -0.2053 -0.0049 -0.0704
 3453DPPE   C4A63296  11.661   1.682  12.210  0.2710 -0.0612  0.0443
 3453DPPE   C1B63297  11.328   2.054  11.681  0.0061  0.0898  0.1407
 3453DPPE   C2B63298  11.720   2.298  11.438  0.0399  0.0060 -0.0768
 3453DPPE   C3B63299  11.878   2.762  11.383  0.0252  0.0889 -0.3912
 3453DPPE   C4B63300  11.944   3.113  11.728  0.0338 -0.0648  0.1575
 3454DPPE   NH363301  12.952   9.428   5.348  0.0345 -0.1131 -0.0392
 3454DPPE   PO463302  12.918   9.440   5.872 -0.2154  0.1251 -0.1470
 3454DPPE   GL163303  13.229   9.748   6.086  0.1715  0.2570  0.1449
 3454DPPE   GL263304  13.065  10.008   6.053 -0.1728  0.0199 -0.3397
 3454DPPE   C1A63305  13.605  10.055   6.155 -0.3223 -0.3184  0.0025
 3454DPPE   C2A63306  13.489  10.536   6.165  0.4778  0.0257 -0.3534
 3454DPPE   C3A63307  13.572  10.907   6.490  0.0266 -0.2319 -0.0908
 3454DPPE   C4A63308  13.509  11.008   6.908 -0.1480  0.1604  0.1080
 3454DPPE   C1B63309  13.163  10.135   6.470 -0.0449  0.2375 -0.0337
 3454DPPE   C2B63310  13.404  10.442   6.630 -0.2611  0.1894  0.0065
 3454DPPE   C3B63311  13.740  10.544   6.794 -0.3136  0.3556  0.0344
 3454DPPE   C4B63312  14.000  10.927   6.866  0.1584  0.1047  0.1123
 3455DPPE   NH363313   4.854   8.744  15.346  0.0985  0.0278  0.0545
 3455DPPE   PO463314   4.700   8.367  15.238 -0.1400  0.0353 -0.3288
 3455DPPE   GL163315   4.379   8.440  15.470 -0.0934 -0.1353 -0.0083
 3455DPPE   GL263316   4.010   8.475  15.377 -0.2483  0.2111  0.0025
 3455DPPE   C1A63317   4.137   8.385  15.896  0.0639  0.1843 -0.0322
 3455DPPE   C2A63318   4.127   8.294  16.320  0.1282  0.3134 -0.4625
 3455DPPE   C3A63319   4.389   8.239  16.731  0.0469  0.0119 -0.0069
 3455DPPE   C4A63320   4.884   8.237  16.959 -0.0156  0.1600 -0.2125
 3455DPPE   C1B63321   3.576   8.710  15.411 -0.1245 -0.0824  0.1055
 3455DPPE   C2B63322   3.509   9.081  15.493  0.1094 -0.4853 -0.0323
 3455DPPE   C3B63323   3.403   9.571  15.733 -0.1888 -0.3012  0.2126
 3455DPPE   C4B63324   3.213   9.980  15.712 -0.1323 -0.0837 -0.4522
 3456DPPE   NH363325   7.481   5.356  10.075  0.0803 -0.2570  0.1821
 3456DPPE   PO463326   7.329   5.067   9.732  0.1786  0.0817  0.1468
 3456DPPE   GL163327   7.071   4.916   9.409 -0.1942  0.3690  0.0709
 3456DPPE   GL263328   7.282   5.020   9.167  0.0260 -0.0876 -0.0054
 3456DPPE   C1A63329   6.719   4.495   9.350 -0.1666 -0.0671 -0.0964
 3456DPPE   C2A63330   6.452   4.206   9.161  0.0190 -0.0022 -0.0179
 3456DPPE   C3A63331   6.107   4.292   9.004 -0.2114  0.0885 -0.1246
 3456DPPE   C4A63332   5.798   4.501   8.807  0.0913 -0.0101 -0.2917
 3456DPPE   C1B63333   6.948   4.783   8.932 -0.1897  0.0478 -0.0173
 3456DPPE   C2B63334   6.545   4.614   8.810  0.1865 -0.2283 -0.0493
 3456DPPE   C3B63335   6.301   4.470   8.486  0.2841  0.0034  0.2012
 3456DPPE   C4B63336   5.934   4.472   8.194  0.0833  0.1104  0.0745
 3457DPPE   NH363337  16.935   2.121   6.653  0.1281  0.2195 -0.0528
 3457DPPE   PO463338  17.169   2.590   6.693  0.1029  0.4414  0.3066
 3457DPPE   GL163339  17.305   2.447   6.281 -0.3821 -0.2460 -0.3107
 3457DPPE   GL263340  17.597   2.650   6.165  0.1340  0.1206  0.5156
 3457DPPE   C1A63341  17.366   2.181   6.017 -0.0465 -0.2710  0.0594
 3457DPPE   C2A63342  17.340   1.951   5.696 -0.4072 -0.0334  0.2019
 3457DPPE   C3A63343  17.475   1.751   5.367 -0.0465 -0.2355  0.2673
 3457DPPE   C4A63344  17.685   1.929   5.060 -0.3003 -0.5558 -0.3127
 3457DPPE   C1B63345  17.767   2.641   5.690  0.1396 -0.2321 -0.4016
 3457DPPE   C2B63346  17.800   2.734   5.354  0.1605 -0.0784  0.1375
 3457DPPE   C3B63347  17.851   2.904   5.036 -0.0140  0.2201  0.2198
 3457DPPE   C4B63348  17.972   3.123   4.716  0.0873 -0.1156 -0.0013
 3458DPPE   NH363349  14.566  34.924  10.763 -0.0206 -0.1264  0.0026
 3458DPPE   PO463350  14.957  35.129  10.747 -0.4127  0.1569 -0.3988
 3458DPPE   GL163351  14.906  34.709  10.988  0.1198  0.0541  0.1148
 3458DPPE   GL263352  15.269  34.696  11.030  0.2236 -0.3392 -0.2288
 3458DPPE   C1A63353  14.831  34.344  11.248  0.2638  0.0777 -0.3853
 3458DPPE   C2A63354  14.832  33.920  11.490 -0.2536  0.3921  0.1679
 3458DPPE   C3A63355  14.769  33.612  11.692  0.2196  0.0487 -0.2976
 3458DPPE   C4A63356  14.334  33.432  11.699 -0.0716 -0.0641  0.1427
 3458DPPE   C1B63357  15.541  34.587  11.436 -0.5546  0.0771  0.1439
 3458DPPE   C2B63358  15.896  34.472  11.661  0.3528 -0.1936 -0.4643
 3458DPPE   C3B63359  15.920  34.319  12.036  0.4016 -0.3837 -0.0758
 3458DPPE   C4B63360  16.062  34.464  12.383 -0.1187 -0.2692  0.0982
 3459DPPE   NH363361   9.790   4.460   9.849  0.1081 -0.0919  0.1862
 3459DPPE   PO463362  10.007   4.013   9.855  0.0713 -0.1175 -0.0681
 3459DPPE   GL163363  10.330   4.263  10.058 -0.4247  0.0357  0.2085
 3459DPPE   GL263364  10.369   4.597  10.081  0.0556  0.0780  0.0518
 3459DPPE   C1A63365  10.391   4.373  10.514 -0.4575  0.0799 -0.1587
 3459DPPE   C2A63366  10.657   4.626  10.811  0.0647 -0.1831  0.1221
 3459DPPE   C3A63367  10.755   4.953  11.070 -0.2992  0.2652 -0.0735
 3459DPPE   C4A63368  10.776   5.261  11.329 -0.2889  0.1485 -0.0552
 3459DPPE   C1B63369  10.602   4.848  10.235  0.0800 -0.2585  0.0256
 3459DPPE   C2B63370  10.890   5.130  10.512  0.2046  0.0558  0.1003
 3459DPPE   C3B63371  11.119   5.397  10.399 -0.1963  0.1244  0.0934
 3459DPPE   C4B63372  11.428   5.484  10.457  0.3122  0.0147  0.0342
 3460DPPE   NH363373   5.672   9.260  12.225 -0.0983 -0.0125  0.1739
 3460DPPE   PO463374   5.490   8.896  11.944 -0.0526 -0.3072 -0.0305
 3460DPPE   GL163375   5.225   8.689  11.664 -0.0505 -0.0388 -0.1562
 3460DPPE   GL263376   5.272   8.686  11.279 -0.0842  0.2425  0.4742
 3460DPPE   C1A63377   4.778   8.561  11.670 -0.2216  0.0815 -0.1030
 3460DPPE   C2A63378   4.415   8.644  11.788  0.1324  0.3076  0.0238
 3460DPPE   C3A63379   3.965   8.853  11.818  0.2746  0.1767  0.2563
 3460DPPE   C4A63380   3.592   8.706  11.730 -0.1434  0.0936 -0.0567
 3460DPPE   C1B63381   4.843   8.832  11.170 -0.0643 -0.2151 -0.2188
 3460DPPE   C2B63382   4.480   8.959  11.058  0.3728 -0.0750  0.1668
 3460DPPE   C3B63383   4.076   9.118  11.030 -0.1507 -0.1542 -0.0092
 3460DPPE   C4B63384   3.554   9.067  10.914 -0.0094  0.0510  0.0708
 3461DPPE   NH363385   6.947   2.227  15.300  0.2440  0.0733 -0.0574
 3461DPPE   PO463386   7.216   2.268  15.721  0.2495  0.1560  0.1493
 3461DPPE   GL163387   6.976   1.846  15.712 -0.3616  0.4368 -0.1081
 3461DPPE   GL263388   6.970   1.604  15.943 -0.5317  0.1783 -0.0149
 3461DPPE   C1A63389   6.591   1.597  15.627 -0.2199  0.0175 -0.1953
 3461DPPE   C2A63390   6.324   1.223  15.488  0.0864  0.2514  0.0774
 3461DPPE   C3A63391   5.813   1.267  15.394 -0.0565  0.1875 -0.0953
 3461DPPE   C4A63392   5.580   0.969  15.233  0.2480 -0.0587 -0.2072
 3461DPPE   C1B63393   7.020   1.143  16.085 -0.1800  0.2513 -0.1263
 3461DPPE   C2B63394   7.219   0.695  15.962 -0.0226 -0.1599  0.0163
 3461DPPE   C3B63395   7.048   0.243  15.945 -0.2801 -0.3764 -0.2746
 3461DPPE   C4B63396   7.044  -0.126  16.072 -0.1888 -0.1268 -0.4349
 3462DPPE   NH363397   5.418  10.372  12.677 -0.3077 -0.0973  0.1210
 3462DPPE   PO463398   5.550  10.031  12.926  0.0668  0.1349  0.1158
 3462DPPE   GL163399   5.528  10.210  13.442  0.1196  0.1007  0.1192
 3462DPPE   GL263400   5.254  10.142  13.666 -0.0305  0.2656  0.3470
 3462DPPE   C1A63401   5.550  10.648  13.686  0.2503  0.1806 -0.2725
 3462DPPE   C2A63402   5.619  10.828  14.077 -0.2940  0.3958  0.4879
 3462DPPE   C3A63403   5.962  10.890  14.393  0.0334 -0.0083  0.1178
 3462DPPE   C4A63404   6.091  11.153  14.763 -0.0802  0.0958 -0.0304
 3462DPPE   C1B63405   5.195  10.375  13.961  0.1462 -0.6392 -0.3474
 3462DPPE   C2B63406   5.166  10.840  13.969  0.1300 -0.2117  0.1500
 3462DPPE   C3B63407   4.935  11.157  14.272  0.4057  0.0166  0.3711
 3462DPPE   C4B63408   4.573  11.256  14.449 -0.0023  0.1618 -0.4535
 3463DPPE   NH363409  14.013   5.141   4.774 -0.1791  0.2616  0.3437
 3463DPPE   PO463410  14.304   4.780   4.910  0.3298  0.1001 -0.0623
 3463DPPE   GL163411  14.581   4.801   4.604 -0.0405  0.0531 -0.0884
 3463DPPE   GL263412  14.719   4.955   4.371 -0.1269  0.0742  0.1238
 3463DPPE   C1A63413  14.608   4.511   4.248 -0.1475 -0.0708  0.2297
 3463DPPE   C2A63414  14.292   4.185   3.960 -0.3649  0.0420  0.1889
 3463DPPE   C3A63415  14.302   3.853   3.606  0.0737  0.0467  0.2735
 3463DPPE   C4A63416  14.197   3.538   3.242  0.0259  0.1714  0.1157
 3463DPPE   C1B63417  14.486   4.977   4.056 -0.2620  0.1161  0.0077
 3463DPPE   C2B63418  14.147   5.115   3.807  0.0368  0.1962  0.0777
 3463DPPE   C3B63419  13.901   5.145   3.497  0.1389  0.2461  0.0068
 3463DPPE   C4B63420  13.651   5.010   3.114  0.2156 -0.4015  0.2655
 3464DPPE   NH363421  12.647   8.985   5.822 -0.0773 -0.1403 -0.0310
 3464DPPE   PO463422  12.406   9.307   6.005 -0.0480  0.1162 -0.0729
 3464DPPE   GL163423  12.718   9.270   6.326  0.2619 -0.0223 -0.2246
 3464DPPE   GL263424  12.598   9.074   6.415 -0.2184  0.2296 -0.0609
 3464DPPE   C1A63425  12.923   9.623   6.508  0.3494 -0.2513 -0.4656
 3464DPPE   C2A63426  13.192   9.785   6.862  0.0150  0.0203 -0.0932
 3464DPPE   C3A63427  13.579   9.607   7.118 -0.1148  0.1718  0.0865
 3464DPPE   C4A63428  13.618   9.329   7.436  0.2025  0.1068  0.0358
 3464DPPE   C1B63429  12.893   9.083   6.745  0.0407  0.4518 -0.1240
 3464DPPE   C2B63430  13.043   9.366   7.111  0.1977  0.2174 -0.0404
 3464DPPE   C3B63431  12.864   9.736   7.267 -0.0147  0.2015  0.1828
 3464DPPE   C4B63432  12.408   9.908   7.345 -0.0517  0.1741 -0.0874
 3465DPPE   NH363433   6.081   6.302  15.886  0.2125  0.0279 -0.1107
 3465DPPE   PO463434   6.655   6.323  15.896 -0.0520  0.0136  0.0925
 3465DPPE   GL163435   6.788   6.651  15.998  0.4060  0.0473  0.1148
 3465DPPE   GL263436   6.819   6.827  15.646 -0.0968  0.0254  0.0572
 3465DPPE   C1A63437   6.757   6.964  16.287  0.1819 -0.3299  0.0219
 3465DPPE   C2A63438   6.780   7.264  16.606  0.0124  0.2570  0.0251
 3465DPPE   C3A63439   6.597   7.409  17.010  0.2510 -0.1288 -0.3148
 3465DPPE   C4A63440   6.769   7.786  17.225  0.4634 -0.1476  0.3805
 3465DPPE   C1B63441   7.091   7.081  15.898  0.2977  0.1095  0.0180
 3465DPPE   C2B63442   7.169   7.290  16.308 -0.2199  0.2237 -0.0078
 3465DPPE   C3B63443   7.573   7.480  16.459 -0.2817  0.1505  0.2177
 3465DPPE   C4B63444   7.666   7.807  16.725 -0.1101 -0.0732  0.2491
 3466DPPE   NH363445  10.582   1.922   9.783 -0.0141 -0.2159  0.0105
 3466DPPE   PO463446  10.679   1.480   9.724 -0.1601 -0.0660 -0.2554
 3466DPPE   GL163447  10.541   0.969   9.650  0.0837  0.0578 -0.0588
 3466DPPE   GL263448  10.385   0.736   9.934  0.0399 -0.0884 -0.1660
 3466DPPE   C1A63449  10.290   0.601   9.425 -0.2565  0.0193 -0.3378
 3466DPPE   C2A63450  10.380   0.178   9.437  0.0110 -0.1790 -0.0692
 3466DPPE   C3A63451  10.557  -0.130   9.282 -0.3223  0.3089 -0.0273
 3466DPPE   C4A63452  10.999  -0.219   9.036 -0.0934 -0.4812  0.0741
 3466DPPE   C1B63453  10.098   0.421   9.817  0.1229  0.0139 -0.2836
 3466DPPE   C2B63454   9.770   0.209   9.704  0.2300  0.0541  0.1993
 3466DPPE   C3B63455   9.459   0.022   9.481 -0.2062  0.1625  0.1998
 3466DPPE   C4B63456   9.218  -0.426   9.434  0.0463 -0.1721 -0.2592
 3467DPPE   NH363457   6.982   3.233  12.369  0.1065  0.0628 -0.0349
 3467DPPE   PO463458   7.269   2.900  12.520  0.2255  0.1634  0.2010
 3467DPPE   GL163459   7.091   2.590  12.276  0.2277 -0.2291 -0.3800
 3467DPPE   GL263460   6.840   2.372  12.438 -0.3015  0.3292 -0.2593
 3467DPPE   C1A63461   6.791   2.449  11.988  0.0175  0.1875 -0.0306
 3467DPPE   C2A63462   6.410   2.221  11.762  0.1131 -0.1392 -0.0577
 3467DPPE   C3A63463   6.178   1.913  11.512  0.1304 -0.3482  0.1994
 3467DPPE   C4A63464   5.824   1.630  11.250 -0.1303 -0.1489 -0.0802
 3467DPPE   C1B63465   6.662   2.023  12.230  0.0279 -0.0823 -0.0490
 3467DPPE   C2B63466   6.390   1.807  12.058  0.0768  0.2705 -0.0226
 3467DPPE   C3B63467   6.247   1.489  11.935 -0.2808 -0.1026  0.0022
 3467DPPE   C4B63468   5.920   1.213  12.065  0.0875  0.0978 -0.1482
 3468DPPE   NH363469   6.188   3.291  13.350 -0.1606  0.1016 -0.1733
 3468DPPE   PO463470   6.265   3.489  12.790  0.0094 -0.0877  0.1505
 3468DPPE   GL163471   5.959   3.424  12.407 -0.2382  0.0616 -0.2411
 3468DPPE   GL263472   5.928   3.120  12.250 -0.0182  0.1683  0.1553
 3468DPPE   C1A63473   5.701   3.532  12.017  0.4160 -0.1150 -0.0435
 3468DPPE   C2A63474   5.481   3.368  11.742 -0.1901 -0.0865 -0.1228
 3468DPPE   C3A63475   5.078   3.335  11.534 -0.0538  0.1243  0.3499
 3468DPPE   C4A63476   4.779   3.240  11.072  0.2020  0.0493 -0.0842
 3468DPPE   C1B63477   5.834   2.808  12.152  0.0563 -0.0176  0.1161
 3468DPPE   C2B63478   5.575   2.371  12.002  0.2920 -0.1492 -0.0342
 3468DPPE   C3B63479   5.239   2.152  12.064 -0.1552 -0.1598 -0.2266
 3468DPPE   C4B63480   5.119   1.858  12.366 -0.1853 -0.1306 -0.0689
 3469DPPE   NH363481  15.074   2.072   8.048  0.0740  0.0788  0.3320
 3469DPPE   PO463482  14.880   2.419   8.235  0.1457 -0.0083 -0.1535
 3469DPPE   GL163483  14.902   2.746   8.570 -0.2000 -0.0411 -0.2268
 3469DPPE   GL263484  14.574   2.681   8.629 -0.0029  0.0406 -0.0604
 3469DPPE   C1A63485  15.198   2.966   8.916 -0.3345  0.4379 -0.3155
 3469DPPE   C2A63486  15.233   3.315   9.120 -0.0683  0.0418  0.3701
 3469DPPE   C3A63487  15.163   3.668   8.953 -0.2656 -0.1276  0.2278
 3469DPPE   C4A63488  14.794   3.985   8.818  0.0392 -0.0083  0.0194
 3469DPPE   C1B63489  14.654   2.836   9.012  0.1813  0.2875  0.0016
 3469DPPE   C2B63490  14.736   3.080   9.293  0.1230  0.1143 -0.0405
 3469DPPE   C3B63491  14.572   3.408   9.570 -0.1761 -0.2192  0.0337
 3469DPPE   C4B63492  14.157   3.468   9.753  0.0637 -0.0519  0.0879
 3470DPPE   NH363493   5.438   9.668  13.268  0.3267 -0.2427 -0.0645
 3470DPPE   PO463494   5.131   9.895  13.187 -0.1751 -0.1479 -0.0778
 3470DPPE   GL163495   5.111  10.290  13.117  0.0724  0.1931 -0.1056
 3470DPPE   GL263496   5.254  10.596  13.167 -0.4568  0.2674 -0.2663
 3470DPPE   C1A63497   4.751  10.701  13.078 -0.0868 -0.0755 -0.2070
 3470DPPE   C2A63498   4.815  11.098  13.210 -0.1251  0.0554  0.0354
 3470DPPE   C3A63499   4.949  11.446  13.243 -0.3474  0.3805  0.3314
 3470DPPE   C4A63500   4.885  11.689  13.504 -0.1803  0.4024 -0.1598
 3470DPPE   C1B63501   5.625  10.757  13.198 -0.2257 -0.0851 -0.0000
 3470DPPE   C2B63502   5.777  11.011  13.468 -0.1195  0.1401  0.1108
 3470DPPE   C3B63503   5.652  11.246  13.704 -0.2850  0.2322  0.0705
 3470DPPE   C4B63504   5.700  11.389  14.198 -0.1530  0.0085 -0.0225
 3471DPPE   NH363505   6.913   8.123  11.703 -0.0798 -0.0543  0.2871
 3471DPPE   PO463506   6.779   7.709  11.893  0.0128  0.1530  0.2508
 3471DPPE   GL163507   7.190   7.667  11.887  0.0039 -0.3480 -0.2062
 3471DPPE   GL263508   7.354   7.812  11.758  0.3151 -0.0056  0.2840
 3471DPPE   C1A63509   7.679   7.869  12.082 -0.0581 -0.0162  0.3559
 3471DPPE   C2A63510   8.074   7.984  12.175 -0.0581  0.4876 -0.2386
 3471DPPE   C3A63511   8.338   8.035  12.527 -0.2525 -0.0652 -0.2558
 3471DPPE   C4A63512   8.656   7.701  12.698  0.1488 -0.0703 -0.1075
 3471DPPE   C1B63513   7.609   8.269  11.866 -0.0525 -0.1021  0.2672
 3471DPPE   C2B63514   7.896   8.500  12.057 -0.0299 -0.0373  0.0982
 3471DPPE   C3B63515   8.263   8.510  12.327  0.1863  0.2123  0.0968
 3471DPPE   C4B63516   8.310   8.922  12.614  0.0083 -0.2127 -0.0101
 3472DPPE   NH363517   5.998  11.348  10.413 -0.2730  0.0682 -0.1485
 3472DPPE   PO463518   5.815  11.449  10.797  0.2776 -0.0102 -0.1131
 3472DPPE   GL163519   5.603  11.807  10.929 -0.2437  0.1197  0.4096
 3472DPPE   GL263520   5.860  12.096  10.896 -0.0238  0.0146  0.0681
 3472DPPE   C1A63521   5.345  11.995  11.275  0.2333  0.0363  0.3205
 3472DPPE   C2A63522   5.109  12.317  11.401  0.0048 -0.1288  0.2205
 3472DPPE   C3A63523   4.742  12.494  11.231  0.1240 -0.0206 -0.0005
 3472DPPE   C4A63524   4.529  12.759  10.997 -0.1851 -0.3386  0.1193
 3472DPPE   C1B63525   6.048  12.409  10.895  0.0594  0.0925  0.2001
 3472DPPE   C2B63526   6.302  12.458  11.316 -0.1771  0.1669 -0.1024
 3472DPPE   C3B63527   6.244  12.504  11.689  0.0403  0.0348  0.1041
 3472DPPE   C4B63528   6.144  12.311  12.069 -0.1457 -0.4718 -0.1511
 3473DPPE   NH363529   5.737   9.085  14.160 -0.4776  0.0077 -0.1433
 3473DPPE   PO463530   5.719   8.618  13.879  0.0725  0.2414  0.1866
 3473DPPE   GL163531   6.086   8.741  13.742  0.3387 -0.2256 -0.5999
 3473DPPE   GL263532   6.204   8.983  14.091  0.1425  0.1102 -0.1672
 3473DPPE   C1A63533   6.551   8.928  13.740 -0.1771  0.2071 -0.0682
 3473DPPE   C2A63534   6.798   9.244  13.713  0.1472 -0.2837  0.0358
 3473DPPE   C3A63535   6.845   9.677  13.586 -0.0541  0.0243  0.0428
 3473DPPE   C4A63536   6.899  10.027  13.807  0.3553  0.1501  0.1007
 3473DPPE   C1B63537   6.358   9.455  13.944 -0.1378  0.0351 -0.0459
 3473DPPE   C2B63538   6.568   9.761  14.122  0.0343  0.4126  0.0683
 3473DPPE   C3B63539   6.397  10.118  14.395 -0.0970 -0.1245 -0.0497
 3473DPPE   C4B63540   6.254  10.510  14.415  0.2701  0.0082 -0.3618
 3474DPPE   NH363541  10.985   6.669   7.233 -0.0169 -0.1253  0.0807
 3474DPPE   PO463542  11.090   6.744   6.888  0.3489  0.3474  0.2242
 3474DPPE   GL163543  11.187   7.151   7.171 -0.0755  0.2425  0.1942
 3474DPPE   GL263544  10.931   7.377   7.139  0.2651  0.1950  0.1376
 3474DPPE   C1A63545  11.400   7.182   7.540 -0.0790 -0.0902  0.0094
 3474DPPE   C2A63546  11.421   7.175   7.993  0.0350  0.1431 -0.3331
 3474DPPE   C3A63547  11.501   7.052   8.480 -0.2085  0.4015  0.1025
 3474DPPE   C4A63548  11.535   7.155   8.854  0.3177 -0.1083  0.2705
 3474DPPE   C1B63549  11.219   7.663   7.383 -0.3072 -0.2074  0.2640
 3474DPPE   C2B63550  11.463   7.658   7.792 -0.1544 -0.1759  0.0372
 3474DPPE   C3B63551  11.661   7.985   8.169 -0.2579  0.0920 -0.1311
 3474DPPE   C4B63552  11.566   8.305   8.447 -0.2411  0.0999  0.0056
 3475DPPE   NH363553  14.873   5.920   5.008  0.0745 -0.0273 -0.1236
 3475DPPE   PO463554  15.123   6.386   4.966  0.1074 -0.1542  0.0072
 3475DPPE   GL163555  15.155   6.207   4.645 -0.2385 -0.0778  0.1663
 3475DPPE   GL263556  15.126   6.329   4.377  0.0201  0.1199  0.0797
 3475DPPE   C1A63557  15.459   5.897   4.498  0.0717 -0.4060  0.1559
 3475DPPE   C2A63558  15.371   5.795   4.062  0.1935 -0.0731 -0.2917
 3475DPPE   C3A63559  15.358   5.475   3.742 -0.1353  0.0219  0.2675
 3475DPPE   C4A63560  15.291   5.477   3.348 -0.0501 -0.4941  0.1379
 3475DPPE   C1B63561  14.946   6.197   3.994  0.1159 -0.0151  0.0892
 3475DPPE   C2B63562  14.909   6.095   3.491 -0.2484  0.0737 -0.0402
 3475DPPE   C3B63563  14.881   5.890   3.141  0.1017  0.0926 -0.1793
 3475DPPE   C4B63564  14.995   5.858   2.791 -0.3680 -0.0901 -0.3427
 3476DPPE   NH363565  12.734   6.890   5.287 -0.3297  0.1982 -0.0878
 3476DPPE   PO463566  12.661   7.100   4.847  0.0261 -0.1540  0.0463
 3476DPPE   GL163567  12.510   6.978   4.461  0.1822 -0.0493 -0.0432
 3476DPPE   GL263568  12.269   7.187   4.469 -0.3784 -0.0527 -0.1599
 3476DPPE   C1A63569  12.480   6.832   3.999 -0.2563  0.0767  0.1552
 3476DPPE   C2A63570  12.056   6.642   3.717 -0.1238 -0.0137  0.1823
 3476DPPE   C3A63571  11.948   6.431   3.345  0.3241 -0.0821 -0.0653
 3476DPPE   C4A63572  11.724   6.159   3.281  0.0159  0.0936 -0.1851
 3476DPPE   C1B63573  11.998   7.093   4.160  0.0241  0.1423  0.1651
 3476DPPE   C2B63574  11.707   7.010   3.778 -0.0105  0.0434  0.0217
 3476DPPE   C3B63575  11.494   7.231   3.455 -0.0934  0.1580  0.2095
 3476DPPE   C4B63576  11.200   7.218   3.181 -0.1158 -0.0601 -0.2766
 3477DPPE   NH363577  10.292  35.389  13.466  0.0020  0.1638 -0.0585
 3477DPPE   PO463578  10.101  35.780  13.337 -0.0042  0.2097  0.0462
 3477DPPE   GL163579   9.813  35.486  13.223 -0.2129 -0.0199  0.0715
 3477DPPE   GL263580   9.779  35.331  13.499 -0.2539 -0.0079  0.0818
 3477DPPE   C1A63581   9.389  35.245  13.087  0.2378  0.1769 -0.0838
 3477DPPE   C2A63582   9.157  35.045  12.877 -0.0937 -0.1410  0.0487
 3477DPPE   C3A63583   9.138  34.690  12.507  0.0723 -0.0251  0.2309
 3477DPPE   C4A63584   9.032  34.753  12.035 -0.0958  0.0338 -0.1258
 3477DPPE   C1B63585   9.476  35.119  13.593  0.3002  0.1154 -0.0855
 3477DPPE   C2B63586   9.191  34.891  13.817 -0.1459 -0.1526 -0.1639
 3477DPPE   C3B63587   9.087  34.764  14.231 -0.0090 -0.0834  0.1266
 3477DPPE   C4B63588   9.038  34.754  14.707 -0.0857  0.1256 -0.1020
 3478DPPE   NH363589   8.279  11.496   7.274  0.1260  0.1447 -0.0439
 3478DPPE   PO463590   8.181  11.779   7.596 -0.1544 -0.2088 -0.1862
 3478DPPE   GL163591   7.777  11.981   7.662  0.1719 -0.0719  0.2040
 3478DPPE   GL263592   7.462  11.723   7.776  0.1198  0.1167 -0.3589
 3478DPPE   C1A63593   7.483  12.281   7.875 -0.0780 -0.0242 -0.0208
 3478DPPE   C2A63594   7.102  12.448   7.931 -0.1483  0.0429  0.0074
 3478DPPE   C3A63595   6.791  12.749   7.709 -0.1508 -0.3726 -0.2010
 3478DPPE   C4A63596   6.674  13.189   7.489  0.0220 -0.2510 -0.0528
 3478DPPE   C1B63597   7.089  11.946   7.799  0.2655  0.0010  0.1398
 3478DPPE   C2B63598   6.815  12.228   7.663 -0.0625 -0.1440  0.8860
 3478DPPE   C3B63599   6.454  12.292   7.522  0.0485 -0.2117 -0.0574
 3478DPPE   C4B63600   6.190  12.570   7.398  0.1532 -0.0892  0.0500
 3479DPPE   NH363601  11.558  36.351  14.532  0.2268 -0.3746  0.0086
 3479DPPE   PO463602  11.562  36.670  14.326 -0.0894  0.4376  0.1108
 3479DPPE   GL163603  11.732  37.060  14.282 -0.0242  0.3251  0.1969
 3479DPPE   GL263604  11.589  37.351  14.188 -0.3298  0.2193 -0.0025
 3479DPPE   C1A63605  12.035  37.363  14.506  0.2604  0.2029 -0.0623
 3479DPPE   C2A63606  12.450  37.345  14.574  0.0562  0.0596  0.0314
 3479DPPE   C3A63607  12.811  37.519  14.546  0.2713  0.2662 -0.0539
 3479DPPE   C4A63608  13.179  37.718  14.676 -0.0838 -0.0007  0.0756
 3479DPPE   C1B63609  11.571  37.581  14.598 -0.0493 -0.0937  0.0019
 3479DPPE   C2B63610  11.509  37.878  15.000 -0.1830 -0.0323  0.0188
 3479DPPE   C3B63611  11.662  37.948  15.375 -0.0321  0.3201 -0.0513
 3479DPPE   C4B63612  12.075  38.039  15.537  0.0106 -0.0171 -0.1168
 3480DPPE   NH363613   4.306   7.187  14.023  0.4120 -0.2152  0.1681
 3480DPPE   PO463614   4.431   7.081  13.679 -0.2151  0.2049 -0.1451
 3480DPPE   GL163615   4.090   7.105  13.386 -0.0323  0.1024 -0.0099
 3480DPPE   GL263616   3.921   6.798  13.352 -0.2434 -0.0989  0.1532
 3480DPPE   C1A63617   3.661   7.229  13.254 -0.1662 -0.0870 -0.0353
 3480DPPE   C2A63618   3.403   7.609  13.234 -0.1047  0.4152 -0.1672
 3480DPPE   C3A63619   3.038   7.662  13.516  0.1390 -0.2734  0.2724
 3480DPPE   C4A63620   2.793   7.812  13.841 -0.0210  0.0894 -0.2408
 3480DPPE   C1B63621   3.560   6.509  13.313 -0.3459 -0.1252  0.0428
 3480DPPE   C2B63622   3.336   6.188  13.281 -0.1572 -0.3311  0.1775
 3480DPPE   C3B63623   3.051   6.052  13.570  0.0108  0.1317  0.2414
 3480DPPE   C4B63624   2.634   5.837  13.745  0.1857  0.5569  0.1203
 3481DPPE   NH363625  13.584   6.305   5.043 -0.1174  0.1355  0.1504
 3481DPPE   PO463626  13.255   6.334   4.625  0.0168 -0.3095  0.1225
 3481DPPE   GL163627  13.169   5.897   4.656 -0.2190  0.0140 -0.2014
 3481DPPE   GL263628  13.333   5.657   4.527  0.1085 -0.1458  0.1476
 3481DPPE   C1A63629  12.855   5.600   4.376  0.5003 -0.3169 -0.0864
 3481DPPE   C2A63630  12.780   5.388   4.009 -0.2313  0.1161 -0.3276
 3481DPPE   C3A63631  12.440   5.257   3.812  0.0324  0.1597  0.0694
 3481DPPE   C4A63632  12.263   4.892   3.658 -0.0685  0.0630  0.2107
 3481DPPE   C1B63633  13.303   5.424   4.298  0.0495 -0.1479  0.2628
 3481DPPE   C2B63634  13.257   5.382   3.848 -0.0518  0.0370 -0.1317
 3481DPPE   C3B63635  13.391   5.423   3.418  0.1576 -0.1618  0.1063
 3481DPPE   C4B63636  13.443   5.433   2.862 -0.2725  0.1115  0.2015
 3482DPPE   NH363637  10.315   8.858   6.060  0.0719 -0.1301 -0.1052
 3482DPPE   PO463638   9.900   9.001   6.090  0.1953 -0.0437 -0.0103
 3482DPPE   GL163639   9.582   8.875   5.801 -0.0112  0.0395 -0.1634
 3482DPPE   GL263640   9.352   8.914   5.944 -0.0682 -0.0203 -0.2288
 3482DPPE   C1A63641   9.406   8.937   5.411 -0.0842  0.4355  0.0603
 3482DPPE   C2A63642   9.104   8.896   5.030  0.1117 -0.2922  0.1606
 3482DPPE   C3A63643   9.162   9.304   4.754 -0.1870  0.0321 -0.0586
 3482DPPE   C4A63644   9.181   9.487   4.262 -0.1339 -0.1406 -0.0018
 3482DPPE   C1B63645   9.050   8.812   5.730  0.1077  0.0739 -0.4076
 3482DPPE   C2B63646   8.764   8.790   5.383 -0.1321 -0.0734 -0.0642
 3482DPPE   C3B63647   8.579   8.905   5.052 -0.0084  0.0543  0.1991
 3482DPPE   C4B63648   8.603   8.992   4.684  0.0958  0.0626  0.2964
 3483DPPE   NH363649  12.415  36.282  14.101  0.0716 -0.0784 -0.1173
 3483DPPE   PO463650  12.726  36.167  13.833  0.0194  0.1411 -0.3360
 3483DPPE   GL163651  12.871  36.562  14.071  0.1864  0.0460  0.0808
 3483DPPE   GL263652  13.269  36.396  14.057 -0.0880 -0.0540  0.1257
 3483DPPE   C1A63653  12.799  37.034  14.221 -0.0701  0.1179  0.4820
 3483DPPE   C2A63654  12.860  37.429  14.020  0.2988  0.3547  0.0979
 3483DPPE   C3A63655  12.719  37.852  14.162 -0.1438 -0.3420  0.0726
 3483DPPE   C4A63656  12.466  38.134  14.186  0.1769  0.0341  0.1043
 3483DPPE   C1B63657  13.275  36.756  14.238  0.3089  0.2697  0.0641
 3483DPPE   C2B63658  13.615  36.973  14.458 -0.1255  0.2239  0.0497
 3483DPPE   C3B63659  13.902  36.774  14.666  0.1846  0.1883 -0.0016
 3483DPPE   C4B63660  13.972  36.465  14.941  0.1424  0.1032  0.0260
 3484DPPE   NH363661  13.127  35.450  13.938 -0.1011  0.0312 -0.1093
 3484DPPE   PO463662  12.906  35.532  14.390  0.0198  0.0969  0.1824
 3484DPPE   GL163663  13.039  35.402  14.833 -0.4039 -0.0193 -0.2700
 3484DPPE   GL263664  12.952  35.008  14.957 -0.0685  0.1070 -0.1427
 3484DPPE   C1A63665  13.359  35.646  15.127  0.0681 -0.2965 -0.0896
 3484DPPE   C2A63666  13.509  35.681  15.540  0.3425  0.1958  0.1675
 3484DPPE   C3A63667  13.722  35.754  15.953 -0.1740  0.0422  0.1796
 3484DPPE   C4A63668  13.832  35.537  16.317  0.0198 -0.0717 -0.0061
 3484DPPE   C1B63669  12.707  35.053  15.344 -0.1061 -0.0285  0.2115
 3484DPPE   C2B63670  12.613  35.264  15.665 -0.0556  0.1424  0.2305
 3484DPPE   C3B63671  12.574  35.305  16.154  0.2474  0.4169  0.2001
 3484DPPE   C4B63672  12.517  35.482  16.543 -0.0967  0.5190  0.0999
 3485DPPE   NH363673   7.927   8.516   7.740  0.0926 -0.0536 -0.1899
 3485DPPE   PO463674   7.843   8.953   7.784  0.0891 -0.2218  0.0122
 3485DPPE   GL163675   7.472   9.119   7.529  0.0026  0.2446  0.0380
 3485DPPE   GL263676   7.594   9.260   7.295  0.1642 -0.0510  0.1818
 3485DPPE   C1A63677   7.101   9.330   7.449  0.2739  0.3465 -0.2474
 3485DPPE   C2A63678   6.663   9.469   7.337 -0.1906  0.1519  0.1091
 3485DPPE   C3A63679   6.241   9.551   7.330 -0.3028 -0.1165  0.4411
 3485DPPE   C4A63680   5.999   9.249   7.462 -0.0508 -0.1831 -0.1943
 3485DPPE   C1B63681   7.291   9.528   6.957 -0.0207  0.0252  0.0176
 3485DPPE   C2B63682   6.875   9.742   6.924 -0.2410 -0.2399 -0.2600
 3485DPPE   C3B63683   6.454   9.967   6.831  0.0613 -0.1947 -0.1593
 3485DPPE   C4B63684   6.547  10.420   6.923  0.0819 -0.2050 -0.1035
 3486DPPE   NH363685  10.698  12.079   5.944  0.0229 -0.2295 -0.2345
 3486DPPE   PO463686  10.494  11.747   5.784 -0.1563  0.0046  0.2393
 3486DPPE   GL163687  10.584  12.023   5.440  0.2920  0.3227  0.0548
 3486DPPE   GL263688  10.922  12.049   5.514 -0.3293  0.0460  0.0080
 3486DPPE   C1A63689  10.913  12.102   5.012  0.0359 -0.2746  0.1319
 3486DPPE   C2A63690  11.009  12.494   4.735  0.1718  0.5272 -0.0510
 3486DPPE   C3A63691  11.442  12.634   4.611  0.4858 -0.0233  0.0411
 3486DPPE   C4A63692  11.730  12.904   4.684 -0.1583 -0.1245  0.0358
 3486DPPE   C1B63693  11.042  12.445   5.554 -0.0499 -0.2001 -0.1216
 3486DPPE   C2B63694  11.033  12.908   5.456 -0.2416  0.2877  0.2960
 3486DPPE   C3B63695  10.963  13.302   5.224  0.4226  0.1201 -0.2069
 3486DPPE   C4B63696  11.014  13.469   4.755  0.2079  0.1062 -0.1993
 3487DPPE   NH363697   7.221  10.483  10.126 -0.0156 -0.1426  0.0209
 3487DPPE   PO463698   7.160  10.105  10.380 -0.1576 -0.2994 -0.0113
 3487DPPE   GL163699   7.511  10.377  10.594  0.1668  0.1442 -0.1255
 3487DPPE   GL263700   7.577  10.709  10.511  0.0337 -0.1467  0.1878
 3487DPPE   C1A63701   7.715  10.523  10.967  0.0280 -0.0410 -0.2422
 3487DPPE   C2A63702   7.886  10.864  11.205 -0.0009 -0.1181 -0.1667
 3487DPPE   C3A63703   7.960  11.000  11.539  0.0234 -0.0824  0.4107
 3487DPPE   C4A63704   8.188  11.347  11.745  0.1727 -0.0932 -0.2155
 3487DPPE   C1B63705   7.954  10.989  10.675  0.4316  0.0667  0.1253
 3487DPPE   C2B63706   8.062  11.224  10.968  0.1528 -0.1470 -0.1001
 3487DPPE   C3B63707   8.344  11.554  11.285  0.2016  0.0308  0.1164
 3487DPPE   C4B63708   8.506  11.729  11.663  0.1782  0.1226 -0.1105
 3488DPPE   NH363709  14.567   0.601   8.333  0.0726 -0.3746  0.0653
 3488DPPE   PO463710  14.402   0.724   7.934  0.1504 -0.2887 -0.0121
 3488DPPE   GL163711  14.147   0.404   7.689 -0.0688  0.1531  0.1760
 3488DPPE   GL263712  13.899   0.389   7.832 -0.1479 -0.2755  0.0141
 3488DPPE   C1A63713  13.983   0.060   7.476 -0.1755 -0.0049  0.2352
 3488DPPE   C2A63714  13.875  -0.210   7.085 -0.2136 -0.1463  0.0583
 3488DPPE   C3A63715  14.079  -0.529   6.993 -0.0726 -0.5749  0.0474
 3488DPPE   C4A63716  14.144  -0.869   6.717 -0.0793 -0.2202 -0.2465
 3488DPPE   C1B63717  13.823   0.499   7.373  0.0675 -0.0690  0.0781
 3488DPPE   C2B63718  13.740   0.273   6.995 -0.2608  0.0693 -0.1482
 3488DPPE   C3B63719  13.972  -0.071   6.568  0.1497 -0.0785 -0.2662
 3488DPPE   C4B63720  14.200  -0.401   6.524  0.0591 -0.1422 -0.2482
 3489DPPE   NH363721   7.915   5.880   8.829  0.0809  0.0640 -0.0647
 3489DPPE   PO463722   7.485   5.905   8.955  0.3365  0.1459 -0.2420
 3489DPPE   GL163723   7.263   6.001   8.689 -0.1565 -0.2566 -0.2396
 3489DPPE   GL263724   7.038   6.129   8.841 -0.0260 -0.0665 -0.0789
 3489DPPE   C1A63725   6.921   5.837   8.462  0.1927 -0.0055 -0.2554
 3489DPPE   C2A63726   6.577   5.541   8.306 -0.0929  0.1282  0.0748
 3489DPPE   C3A63727   6.512   5.361   7.884  0.2427 -0.0019 -0.0095
 3489DPPE   C4A63728   6.514   5.018   7.617 -0.0195 -0.1899 -0.1002
 3489DPPE   C1B63729   6.754   5.808   8.996  0.0537 -0.2938  0.0473
 3489DPPE   C2B63730   6.446   5.495   8.887  0.1832 -0.3294 -0.0857
 3489DPPE   C3B63731   6.149   5.462   8.562  0.2335 -0.0128 -0.0402
 3489DPPE   C4B63732   6.109   5.476   8.148  0.0811 -0.4175  0.0859
 3490DPPE   NH363733  13.272   8.739   4.794 -0.1426  0.0750  0.0679
 3490DPPE   PO463734  13.143   8.341   4.827  0.0049 -0.2026 -0.3016
 3490DPPE   GL163735  12.855   8.482   4.510 -0.2399 -0.3067  0.0703
 3490DPPE   GL263736  12.793   8.236   4.382  0.0301 -0.2015  0.0790
 3490DPPE   C1A63737  12.684   8.744   4.034 -0.2978 -0.1124 -0.0033
 3490DPPE   C2A63738  12.347   9.079   3.963 -0.2219 -0.0404 -0.2525
 3490DPPE   C3A63739  12.294   8.885   3.548  0.0631 -0.1721 -0.2286
 3490DPPE   C4A63740  12.064   8.969   3.108 -0.1045  0.0261  0.0835
 3490DPPE   C1B63741  12.761   8.243   3.906  0.0678  0.3805  0.3436
 3490DPPE   C2B63742  12.632   8.449   3.459 -0.0483  0.4115 -0.1960
 3490DPPE   C3B63743  12.550   8.638   3.106  0.0740  0.1031 -0.0248
 3490DPPE   C4B63744  12.237   8.604   2.849 -0.0338 -0.1675 -0.1309
 3491DPPE   NH363745   9.221   1.095  14.613 -0.1566 -0.0002  0.2197
 3491DPPE   PO463746   9.467   1.100  15.054  0.0079  0.0670 -0.0747
 3491DPPE   GL163747   9.770   1.443  15.060 -0.1275 -0.4053 -0.0573
 3491DPPE   GL263748  10.051   1.465  15.224  0.3601  0.0785 -0.0241
 3491DPPE   C1A63749   9.880   1.959  15.214 -0.2502  0.1426  0.2159
 3491DPPE   C2A63750  10.216   2.144  15.359  0.0636 -0.4625 -0.1103
 3491DPPE   C3A63751  10.488   2.497  15.427  0.0537 -0.0434  0.2019
 3491DPPE   C4A63752  10.655   2.714  15.819 -0.0071 -0.0928 -0.1564
 3491DPPE   C1B63753  10.402   1.723  15.161 -0.0624  0.0938 -0.0554
 3491DPPE   C2B63754  10.704   2.030  15.139  0.1361 -0.0262  0.2411
 3491DPPE   C3B63755  10.961   2.366  15.137 -0.1579  0.1668 -0.0637
 3491DPPE   C4B63756  11.124   2.575  15.562 -0.0784  0.0873  0.1986
 3492DPPE   NH363757   6.649  11.129  11.506 -0.0621 -0.0602 -0.1924
 3492DPPE   PO463758   6.844  10.872  11.180  0.0282 -0.0630 -0.1713
 3492DPPE   GL163759   7.109  10.961  11.522 -0.1823  0.1402 -0.2563
 3492DPPE   GL263760   7.142  11.260  11.679  0.4250 -0.1090  0.2466
 3492DPPE   C1A63761   7.481  10.809  11.569 -0.3679 -0.0469 -0.3596
 3492DPPE   C2A63762   7.758  10.496  11.497 -0.0993  0.0317  0.0951
 3492DPPE   C3A63763   8.264  10.531  11.412  0.0211 -0.1021  0.1373
 3492DPPE   C4A63764   8.741  10.517  11.294 -0.0262 -0.0700  0.0503
 3492DPPE   C1B63765   6.916  11.607  11.885  0.0132  0.0605 -0.3103
 3492DPPE   C2B63766   6.860  11.873  12.178  0.2157  0.0823  0.0968
 3492DPPE   C3B63767   6.719  12.330  12.157 -0.0992 -0.0303 -0.0776
 3492DPPE   C4B63768   6.633  12.590  11.978 -0.1611 -0.2203 -0.0766
 3493DPPE   NH363769  14.853   0.719   7.740 -0.1639  0.0355 -0.0260
 3493DPPE   PO463770  15.226   1.052   7.420  0.1461  0.0864 -0.0421
 3493DPPE   GL163771  15.232   0.634   7.297  0.1216 -0.2522 -0.0921
 3493DPPE   GL263772  14.868   0.644   7.216 -0.1967 -0.1049 -0.0463
 3493DPPE   C1A63773  15.249   0.344   6.974 -0.0716  0.0707  0.2344
 3493DPPE   C2A63774  15.338  -0.009   6.801  0.0598  0.0283 -0.2673
 3493DPPE   C3A63775  15.567  -0.291   6.677 -0.0433 -0.0421 -0.4744
 3493DPPE   C4A63776  15.723  -0.596   6.383 -0.2653  0.3404  0.0116
 3493DPPE   C1B63777  14.847   0.270   7.188  0.4104 -0.0789 -0.0883
 3493DPPE   C2B63778  14.849  -0.116   6.935  0.4664  0.1236 -0.2239
 3493DPPE   C3B63779  14.641  -0.475   6.844  0.1424  0.0870 -0.2294
 3493DPPE   C4B63780  14.668  -0.849   6.680  0.1814  0.0799 -0.0414
 3494DPPE   NH363781  11.386   0.485  14.686  0.1092  0.0295  0.2530
 3494DPPE   PO463782  11.771   0.189  14.796  0.1489 -0.3163  0.0394
 3494DPPE   GL163783  12.059   0.275  15.118 -0.0397 -0.2187 -0.0037
 3494DPPE   GL263784  12.328   0.252  14.990  0.2246 -0.0294 -0.2101
 3494DPPE   C1A63785  12.234   0.510  15.412  0.3058  0.0910 -0.0513
 3494DPPE   C2A63786  12.282   0.861  15.680  0.3748  0.2279  0.0155
 3494DPPE   C3A63787  12.334   1.274  15.884 -0.2356  0.1081  0.1476
 3494DPPE   C4A63788  12.264   1.673  16.041  0.1084 -0.5325 -0.0336
 3494DPPE   C1B63789  12.669   0.267  15.260 -0.0294 -0.2122 -0.0740
 3494DPPE   C2B63790  13.017   0.174  15.590  0.0179 -0.1280  0.1180
 3494DPPE   C3B63791  13.281   0.161  15.960  0.0096 -0.3705 -0.1179
 3494DPPE   C4B63792  13.424   0.389  16.325 -0.2008 -0.0969  0.1934
 3495DPPE   NH363793  14.354  35.950  12.738  0.0570 -0.3156 -0.2365
 3495DPPE   PO463794  14.324  35.547  12.698  0.0205  0.0017  0.1176
 3495DPPE   GL163795  14.654  35.580  13.092 -0.1097  0.0261 -0.3450
 3495DPPE   GL263796  14.896  35.548  12.946 -0.0861 -0.1995 -0.2460
 3495DPPE   C1A63797  14.880  35.455  13.505 -0.0512 -0.0350  0.3751
 3495DPPE   C2A63798  15.094  35.386  13.799  0.2530  0.0131 -0.1318
 3495DPPE   C3A63799  15.357  35.704  14.009 -0.1334 -0.0040 -0.3401
 3495DPPE   C4A63800  15.577  35.921  14.282 -0.2693 -0.0714 -0.1637
 3495DPPE   C1B63801  15.083  35.874  13.241 -0.0764 -0.3944  0.3189
 3495DPPE   C2B63802  14.989  36.019  13.553 -0.1291 -0.2050 -0.1464
 3495DPPE   C3B63803  14.979  36.356  13.708 -0.0008  0.0348 -0.2079
 3495DPPE   C4B63804  14.790  36.617  13.650 -0.0901 -0.2098  0.2061
 3496DPPE   NH363805   9.250   1.819  10.970 -0.2889  0.2088 -0.2454
 3496DPPE   PO463806   9.214   1.444  10.771 -0.0733  0.1187  0.2280
 3496DPPE   GL163807   9.069   1.007  10.806  0.3840 -0.1124 -0.1883
 3496DPPE   GL263808   9.062   0.824  11.175 -0.0273 -0.1600 -0.0030
 3496DPPE   C1A63809   8.836   0.710  10.675  0.3366 -0.0853  0.3643
 3496DPPE   C2A63810   8.533   0.511  10.438 -0.0464 -0.2005 -0.2389
 3496DPPE   C3A63811   8.195   0.539  10.069  0.0653  0.0484 -0.0618
 3496DPPE   C4A63812   7.932   0.287   9.910  0.1423 -0.1026  0.1017
 3496DPPE   C1B63813   8.785   0.505  11.145  0.1556  0.1812 -0.3500
 3496DPPE   C2B63814   8.613   0.098  10.961  0.1240  0.0213 -0.5798
 3496DPPE   C3B63815   8.223   0.013  10.708 -0.0754  0.1709  0.1290
 3496DPPE   C4B63816   8.199   0.060  10.205 -0.3876 -0.1951 -0.2046
 3497DPPE   NH363817   8.408   0.994  15.692 -0.2643 -0.1024 -0.1684
 3497DPPE   PO463818   8.449   0.714  16.012  0.2262  0.3759 -0.0265
 3497DPPE   GL163819   8.013   0.671  16.161  0.1196  0.2899  0.1345
 3497DPPE   GL263820   8.140   0.696  16.505  0.0659  0.1486  0.2011
 3497DPPE   C1A63821   7.605   0.521  16.185 -0.1466  0.1812  0.1424
 3497DPPE   C2A63822   7.396   0.294  16.413 -0.0793 -0.1463 -0.3737
 3497DPPE   C3A63823   6.980   0.266  16.443 -0.2509  0.1670 -0.0096
 3497DPPE   C4A63824   6.680   0.026  16.732  0.2899  0.0921 -0.5092
 3497DPPE   C1B63825   8.245   0.485  16.906 -0.0216 -0.0086 -0.0093
 3497DPPE   C2B63826   8.322   0.636  17.356 -0.2364 -0.3316 -0.0525
 3497DPPE   C3B63827   8.175   0.890  17.746  0.1202 -0.2849  0.0489
 3497DPPE   C4B63828   8.271   1.248  17.983 -0.3828  0.0094 -0.4385
 3498DPPE   NH363829  12.250   9.953   4.754  0.0887  0.0476  0.0953
 3498DPPE   PO463830  12.315   9.493   4.742 -0.0844  0.1855 -0.0559
 3498DPPE   GL163831  12.180   9.514   4.372  0.0032  0.1044  0.1328
 3498DPPE   GL263832  11.982   9.801   4.384 -0.2976 -0.2348 -0.1824
 3498DPPE   C1A63833  11.912   9.350   4.139 -0.2826  0.1359  0.0619
 3498DPPE   C2A63834  11.951   9.131   3.769  0.2550 -0.0538  0.0235
 3498DPPE   C3A63835  11.821   8.807   3.525 -0.2534  0.0524  0.0165
 3498DPPE   C4A63836  12.029   8.504   3.327 -0.4040 -0.3657  0.2638
 3498DPPE   C1B63837  11.890   9.832   4.021 -0.0603  0.0011 -0.0665
 3498DPPE   C2B63838  11.872   9.957   3.579  0.0689  0.1277  0.1718
 3498DPPE   C3B63839  12.322   9.859   3.340 -0.0311 -0.4441  0.0675
 3498DPPE   C4B63840  12.793  10.056   3.277  0.2358  0.3179 -0.0137
 3499DPPE   NH363841   5.214   5.885  12.293  0.3954  0.0233 -0.1397
 3499DPPE   PO463842   5.405   5.438  12.265 -0.2570  0.0667 -0.1857
 3499DPPE   GL163843   5.204   5.229  12.037 -0.3889 -0.2118  0.2080
 3499DPPE   GL263844   5.237   4.922  12.132  0.2895  0.0908  0.0767
 3499DPPE   C1A63845   4.783   5.026  11.857 -0.2986 -0.1287  0.1267
 3499DPPE   C2A63846   4.381   5.129  11.949 -0.0001 -0.1608 -0.1823
 3499DPPE   C3A63847   3.968   5.042  12.069  0.0885 -0.0032 -0.0667
 3499DPPE   C4A63848   3.563   4.973  11.884 -0.2637  0.2107 -0.1062
 3499DPPE   C1B63849   4.841   4.773  12.270  0.1971 -0.1515  0.3897
 3499DPPE   C2B63850   4.367   4.784  12.311 -0.3889 -0.1342  0.1186
 3499DPPE   C3B63851   4.125   4.467  12.060  0.0128 -0.4437 -0.1628
 3499DPPE   C4B63852   3.853   4.305  11.777 -0.1832  0.1600  0.1759
 3500DPPE   NH363853  17.818   4.623   6.145 -0.0837  0.1385 -0.3043
 3500DPPE   PO463854  18.019   4.182   5.965 -0.0316 -0.2176 -0.3185
 3500DPPE   GL163855  18.382   4.387   6.324  0.3732 -0.2376 -0.1492
 3500DPPE   GL263856  18.289   4.534   6.633  0.1573  0.0641 -0.2585
 3500DPPE   C1A63857  18.633   4.718   6.327  0.2205 -0.1468  0.1899
 3500DPPE   C2A63858  19.034   4.866   6.283 -0.1140  0.2138 -0.1117
 3500DPPE   C3A63859  19.337   5.141   6.125 -0.2620  0.1873 -0.1646
 3500DPPE   C4A63860  19.508   5.513   5.826 -0.0979  0.3031 -0.0149
 3500DPPE   C1B63861  18.609   4.767   6.888 -0.1467  0.3088  0.1153
 3500DPPE   C2B63862  18.683   5.050   7.208 -0.2257 -0.0943 -0.0851
 3500DPPE   C3B63863  18.687   5.424   7.548 -0.2322  0.1441  0.0603
 3500DPPE   C4B63864  18.301   5.625   7.814  0.0529 -0.4278  0.1206
 3501DPPE   NH363865  11.029   1.084   9.633  0.0068 -0.0831 -0.0642
 3501DPPE   PO463866  11.129   1.304   9.349 -0.1250  0.1147  0.0515
 3501DPPE   GL163867  11.025   0.952   9.105 -0.0938 -0.2717  0.3808
 3501DPPE   GL263868  11.130   1.043   8.788  0.2024  0.0361  0.0810
 3501DPPE   C1A63869  10.656   0.806   8.962  0.2844  0.2531  0.1090
 3501DPPE   C2A63870  10.419   0.631   8.630 -0.2004 -0.2175 -0.2435
 3501DPPE   C3A63871  10.236   0.254   8.461  0.0534  0.0093  0.1990
 3501DPPE   C4A63872  10.336  -0.039   8.207  0.0156  0.5339 -0.0554
 3501DPPE   C1B63873  10.997   0.712   8.517 -0.1319  0.0307 -0.1123
 3501DPPE   C2B63874  10.768   0.395   8.287  0.0725 -0.1903 -0.1405
 3501DPPE   C3B63875  10.532   0.267   7.862  0.1223  0.3191  0.4329
 3501DPPE   C4B63876  10.241   0.137   7.673  0.1554 -0.1065  0.0697
 3502DPPE   NH363877   5.606   8.966  14.706 -0.2333  0.1480 -0.1160
 3502DPPE   PO463878   5.437   9.350  14.483  0.0187  0.1430 -0.0731
 3502DPPE   GL163879   5.754   9.568  14.564 -0.1975  0.0701 -0.1989
 3502DPPE   GL263880   5.917   9.358  14.711 -0.1714  0.1070 -0.1661
 3502DPPE   C1A63881   6.177   9.746  14.837 -0.0321 -0.2947 -0.1363
 3502DPPE   C2A63882   6.226  10.217  14.933  0.2828 -0.3827 -0.4237
 3502DPPE   C3A63883   6.285  10.653  14.884  0.3271 -0.3880 -0.0776
 3502DPPE   C4A63884   6.367  11.068  15.162  0.1994 -0.1334  0.0739
 3502DPPE   C1B63885   6.332   9.393  14.496 -0.0052 -0.1170  0.1028
 3502DPPE   C2B63886   6.674   9.679  14.639  0.0837  0.1735  0.0721
 3502DPPE   C3B63887   6.940   9.932  14.529 -0.0948 -0.0871  0.1074
 3502DPPE   C4B63888   7.186  10.172  14.161 -0.1033 -0.1486  0.1588
 3503DPPE   NH363889   5.208  10.135  10.978  0.1136  0.4026  0.1703
 3503DPPE   PO463890   5.009  10.442  11.255  0.2389 -0.1074 -0.0406
 3503DPPE   GL163891   4.850  10.795  11.249 -0.1265 -0.2122  0.0862
 3503DPPE   GL263892   4.861  11.084  11.146 -0.0777  0.0459  0.1932
 3503DPPE   C1A63893   4.434  10.917  11.043  0.1780 -0.1376 -0.3338
 3503DPPE   C2A63894   4.138  10.908  10.776  0.0932 -0.3127  0.0550
 3503DPPE   C3A63895   3.899  11.071  10.475 -0.2861 -0.1882 -0.2274
 3503DPPE   C4A63896   3.498  11.161  10.637  0.1169 -0.0824 -0.0164
 3503DPPE   C1B63897   4.664  11.304  11.429 -0.0607  0.1009  0.0940
 3503DPPE   C2B63898   4.328  11.619  11.440 -0.1634 -0.1202 -0.1020
 3503DPPE   C3B63899   3.859  11.753  11.485  0.1162  0.0196 -0.1040
 3503DPPE   C4B63900   3.538  11.719  11.894 -0.1175 -0.0226 -0.2906
 3504DPPE   NH363901   6.487   5.735  10.676  0.0465 -0.0256 -0.0205
 3504DPPE   PO463902   6.425   6.075  10.495  0.0209  0.1054  0.1454
 3504DPPE   GL163903   6.144   6.105  10.242 -0.1473 -0.1753 -0.0129
 3504DPPE   GL263904   5.881   6.310  10.333 -0.0759 -0.0904  0.0015
 3504DPPE   C1A63905   5.925   6.112   9.791 -0.1240 -0.3026  0.1607
 3504DPPE   C2A63906   5.609   5.920   9.551 -0.0761 -0.1159 -0.0894
 3504DPPE   C3A63907   5.524   5.901   9.052 -0.1278 -0.1479  0.0299
 3504DPPE   C4A63908   5.295   5.727   8.640 -0.0395  0.1530 -0.2058
 3504DPPE   C1B63909   5.499   6.255  10.081  0.0938  0.1542  0.1625
 3504DPPE   C2B63910   5.150   6.171   9.824 -0.0891  0.4683  0.0572
 3504DPPE   C3B63911   4.770   5.966   9.621 -0.0879  0.1530  0.0484
 3504DPPE   C4B63912   4.525   5.667   9.412 -0.2826  0.2334  0.2069
 3505DPPE   NH363913   6.092   4.727  13.587  0.0534 -0.1160 -0.2306
 3505DPPE   PO463914   5.636   4.500  13.550  0.0122 -0.1293  0.1539
 3505DPPE   GL163915   5.256   4.303  13.319 -0.1947  0.0432  0.1748
 3505DPPE   GL263916   5.133   4.480  13.176 -0.3213  0.1002 -0.0610
 3505DPPE   C1A63917   4.977   4.028  13.399  0.3153 -0.0052  0.1908
 3505DPPE   C2A63918   4.855   3.685  13.285 -0.2690  0.1569 -0.3442
 3505DPPE   C3A63919   4.766   3.399  13.024  0.1966  0.1146 -0.0638
 3505DPPE   C4A63920   4.643   2.921  12.995 -0.0620  0.1674 -0.1334
 3505DPPE   C1B63921   4.753   4.334  13.080 -0.0039  0.4704  0.2811
 3505DPPE   C2B63922   4.502   4.012  13.371 -0.4741 -0.1271  0.0198
 3505DPPE   C3B63923   4.304   3.594  13.239  0.0965  0.4670  0.0055
 3505DPPE   C4B63924   4.304   3.345  12.860 -0.1479 -0.1365  0.3210
 3506DPPE   NH363925  12.128   6.289   5.449  0.1791 -0.0781  0.1281
 3506DPPE   PO463926  12.004   6.447   5.077  0.2182  0.0310 -0.1187
 3506DPPE   GL163927  11.853   6.533   4.746 -0.1172  0.1567  0.2606
 3506DPPE   GL263928  11.975   6.814   4.605  0.0523  0.1508 -0.2643
 3506DPPE   C1A63929  11.450   6.606   4.527 -0.0246 -0.1280  0.0100
 3506DPPE   C2A63930  11.260   6.704   4.038  0.0514  0.0502  0.1376
 3506DPPE   C3A63931  11.118   6.725   3.589 -0.1843 -0.3064 -0.0567
 3506DPPE   C4A63932  10.785   6.755   3.324 -0.0908 -0.0156  0.1408
 3506DPPE   C1B63933  11.754   6.593   4.158 -0.3230  0.0070 -0.3019
 3506DPPE   C2B63934  11.599   6.508   3.726 -0.1675  0.0228  0.5306
 3506DPPE   C3B63935  11.700   6.805   3.361 -0.2528 -0.1502  0.0865
 3506DPPE   C4B63936  11.561   6.921   3.004 -0.0100  0.2373  0.1602
 3507DPPE   NH363937   7.639  10.114  10.212 -0.2481  0.0391  0.3036
 3507DPPE   PO463938   7.708  10.568   9.961  0.3624  0.2392  0.0241
 3507DPPE   GL163939   8.012  10.966  10.079 -0.3487  0.3381 -0.0792
 3507DPPE   GL263940   8.161  10.801   9.817 -0.3484  0.0886 -0.0797
 3507DPPE   C1A63941   8.072  11.268  10.296  0.0199 -0.1846  0.2424
 3507DPPE   C2A63942   8.287  11.667  10.347 -0.2274  0.5550 -0.0627
 3507DPPE   C3A63943   8.349  12.166  10.248 -0.1370  0.2936 -0.0649
 3507DPPE   C4A63944   8.311  12.620  10.074  0.0163  0.3460 -0.1309
 3507DPPE   C1B63945   8.427  11.149   9.930  0.0920 -0.1745  0.0230
 3507DPPE   C2B63946   8.598  11.620   9.921 -0.3612  0.6994  0.0733
 3507DPPE   C3B63947   8.790  11.933  10.103  0.2408  0.3023 -0.1213
 3507DPPE   C4B63948   9.182  12.124  10.276 -0.0053 -0.2800 -0.0214
 3508DPPE   NH363949   7.888   2.580  16.669 -0.2093 -0.0447 -0.0967
 3508DPPE   PO463950   7.794   2.176  16.780 -0.3883 -0.0255  0.5356
 3508DPPE   GL163951   8.107   1.923  16.914  0.0211 -0.0372 -0.0028
 3508DPPE   GL263952   7.857   1.809  17.125  0.2044  0.0360  0.1043
 3508DPPE   C1A63953   8.309   1.603  17.184 -0.0650 -0.2041  0.2119
 3508DPPE   C2A63954   8.546   1.274  17.380  0.1187  0.3185  0.0868
 3508DPPE   C3A63955   8.829   0.900  17.338 -0.1630 -0.3476 -0.0174
 3508DPPE   C4A63956   9.160   0.561  17.272 -0.1986 -0.1446 -0.0787
 3508DPPE   C1B63957   8.096   2.090  17.438  0.0926 -0.1026  0.1825
 3508DPPE   C2B63958   8.530   2.146  17.626 -0.1881  0.3223  0.0333
 3508DPPE   C3B63959   8.756   2.102  17.909  0.1659 -0.0856  0.1475
 3508DPPE   C4B63960   9.049   1.923  18.165  0.1323  0.1727 -0.2122
 3509DPPE   NH363961  18.006   3.310   7.232  0.2602  0.2256  0.3524
 3509DPPE   PO463962  17.691   3.286   7.492  0.1636 -0.0337 -0.3658
 3509DPPE   GL163963  18.097   3.430   7.779  0.0284  0.0012  0.0082
 3509DPPE   GL263964  18.330   3.591   7.511  0.0757  0.1985 -0.0729
 3509DPPE   C1A63965  18.334   3.351   8.242  0.1335  0.2883 -0.1228
 3509DPPE   C2A63966  18.428   3.248   8.567 -0.0193 -0.2880  0.0321
 3509DPPE   C3A63967  18.509   3.242   9.039  0.2072  0.0219 -0.0143
 3509DPPE   C4A63968  18.816   2.948   9.225 -0.0347 -0.2861  0.0955
 3509DPPE   C1B63969  18.506   3.749   7.759 -0.2880 -0.0107 -0.2418
 3509DPPE   C2B63970  18.821   3.538   7.991  0.0721 -0.2344 -0.1598
 3509DPPE   C3B63971  19.215   3.657   8.006  0.2446 -0.0917 -0.0643
 3509DPPE   C4B63972  19.453   3.357   8.249  0.3668 -0.0593 -0.1604
 3510DPPE   NH363973  12.982   6.695   4.831  0.0582  0.2721 -0.1865
 3510DPPE   PO463974  13.181   7.046   4.877  0.0292 -0.5357 -0.1374
 3510DPPE   GL163975  13.032   6.963   4.447  0.0497  0.1175  0.1286
 3510DPPE   GL263976  13.208   7.132   4.353  0.1529 -0.1156  0.0340
 3510DPPE   C1A63977  12.938   6.658   4.225 -0.2533 -0.0110  0.0131
 3510DPPE   C2A63978  13.140   6.376   3.985 -0.2303  0.0946  0.0005
 3510DPPE   C3A63979  13.120   6.082   3.646 -0.0733 -0.2591 -0.0046
 3510DPPE   C4A63980  12.845   5.977   3.411 -0.2444 -0.0858 -0.0075
 3510DPPE   C1B63981  12.916   7.128   4.008  0.3918 -0.1871  0.0560
 3510DPPE   C2B63982  12.729   7.207   3.523  0.0923 -0.2876 -0.0387
 3510DPPE   C3B63983  12.919   7.078   3.119 -0.4010 -0.2795 -0.1265
 3510DPPE   C4B63984  13.162   6.742   2.851  0.2262  0.1273 -0.2653
 3511DPPE   NH363985   7.763   9.058   8.345 -0.0579 -0.0675 -0.0472
 3511DPPE   PO463986   7.768   8.647   8.225  0.0077  0.0324  0.0903
 3511DPPE   GL163987   7.340   8.788   8.072 -0.4208  0.1331  0.2322
 3511DPPE   GL263988   7.392   8.593   7.852 -0.0098  0.2745 -0.2776
 3511DPPE   C1A63989   6.919   8.519   7.878  0.0818 -0.1562 -0.1407
 3511DPPE   C2A63990   6.580   8.479   7.680  0.0633 -0.3597  0.2788
 3511DPPE   C3A63991   6.208   8.167   7.762 -0.0393 -0.4889  0.1566
 3511DPPE   C4A63992   5.967   7.952   7.907  0.0361  0.2163 -0.0704
 3511DPPE   C1B63993   7.203   8.710   7.490 -0.1940 -0.3153 -0.0888
 3511DPPE   C2B63994   7.011   8.460   7.285 -0.1956 -0.0916  0.1754
 3511DPPE   C3B63995   6.489   8.443   7.174  0.0072  0.1115  0.0803
 3511DPPE   C4B63996   6.073   8.452   7.386  0.1527 -0.2228  0.0371
 3512DPPE   NH363997  13.163  35.831  10.355 -0.3195 -0.0509  0.1172
 3512DPPE   PO463998  13.435  35.895  10.124  0.0227 -0.0840 -0.0981
 3512DPPE   GL163999  13.179  35.765   9.659 -0.0411  0.1639  0.1344
 3512DPPE   GL264000  13.545  35.886   9.401 -0.0011  0.0594 -0.0176
 3512DPPE   C1A64001  13.187  35.320   9.511 -0.1436 -0.3045  0.0807
 3512DPPE   C2A64002  13.087  34.984   9.248 -0.0689 -0.2422 -0.1450
 3512DPPE   C3A64003  13.131  34.673   8.875 -0.0046  0.0718 -0.1273
 3512DPPE   C4A64004  13.376  34.288   8.680  0.0651 -0.1884  0.0365
 3512DPPE   C1B64005  13.131  35.681   9.176 -0.0183 -0.1072  0.0428
 3512DPPE   C2B64006  12.804  35.378   9.152  0.0607 -0.2817 -0.0431
 3512DPPE   C3B64007  12.688  34.921   8.997  0.1013 -0.2113  0.2599
 3512DPPE   C4B64008  12.453  34.810   8.533 -0.0767  0.0104 -0.2379
 3513DPPE   NH364009  11.553   1.093   9.124 -0.0072  0.1138 -0.2606
 3513DPPE   PO464010  11.745   0.826   9.581 -0.1172  0.0662 -0.1885
 3513DPPE   GL164011  11.353   0.734   9.400 -0.2457  0.2301  0.0937
 3513DPPE   GL264012  11.304   0.506   9.611 -0.0897  0.0173 -0.4443
 3513DPPE   C1A64013  11.268   0.602   8.972 -0.1684 -0.1397  0.0046
 3513DPPE   C2A64014  11.108   0.245   8.725  0.0780  0.0281  0.1776
 3513DPPE   C3A64015  10.729   0.027   8.616 -0.1829  0.3200  0.0901
 3513DPPE   C4A64016  10.605  -0.488   8.448  0.1594 -0.0003  0.1071
 3513DPPE   C1B64017  11.384   0.031   9.674 -0.3424 -0.1346  0.1065
 3513DPPE   C2B64018  11.195  -0.347   9.435 -0.3804  0.1168 -0.1138
 3513DPPE   C3B64019  10.921  -0.624   9.355 -0.0282 -0.3498 -0.2506
 3513DPPE   C4B64020  10.906  -1.038   9.258 -0.1634 -0.1044 -0.2834
 3514DPPE   NH364021  11.137   7.599   6.676  0.2042  0.0714  0.2511
 3514DPPE   PO464022  11.220   8.073   6.432 -0.0363  0.3490  0.2237
 3514DPPE   GL164023  11.255   8.130   6.779 -0.1967 -0.1495 -0.0521
 3514DPPE   GL264024  10.964   8.074   6.876 -0.1075 -0.2783  0.0166
 3514DPPE   C1A64025  11.214   8.204   7.262  0.1790  0.3043  0.1015
 3514DPPE   C2A64026  11.046   8.272   7.599  0.4349 -0.0266 -0.0010
 3514DPPE   C3A64027  11.194   8.153   7.986 -0.1274  0.0816 -0.1147
 3514DPPE   C4A64028  11.122   8.070   8.463 -0.1947  0.1103  0.0282
 3514DPPE   C1B64029  10.805   7.920   7.155  0.0469 -0.0582  0.0328
 3514DPPE   C2B64030  10.807   7.820   7.596  0.0170  0.0124  0.2836
 3514DPPE   C3B64031  10.611   7.917   7.987  0.0819  0.1024 -0.3246
 3514DPPE   C4B64032  10.232   7.871   8.380 -0.1848 -0.0178  0.1020
 3515DPPE   NH364033   7.908   1.564  13.290 -0.0102 -0.1427 -0.2753
 3515DPPE   PO464034   7.955   1.438  13.751  0.1032  0.2829 -0.4602
 3515DPPE   GL164035   7.687   1.151  13.961 -0.1584 -0.0955  0.1712
 3515DPPE   GL264036   7.464   1.083  13.624 -0.2411  0.1258  0.4943
 3515DPPE   C1A64037   7.514   0.818  14.174 -0.2383 -0.4098  0.1328
 3515DPPE   C2A64038   7.281   0.541  14.000  0.3131  0.1284 -0.0718
 3515DPPE   C3A64039   7.098   0.356  13.680 -0.0139 -0.3380  0.0553
 3515DPPE   C4A64040   6.975  -0.011  13.544  0.2394 -0.0893  0.1875
 3515DPPE   C1B64041   7.171   0.755  13.405  0.2396  0.0698  0.2075
 3515DPPE   C2B64042   7.093   0.370  13.169 -0.0692 -0.0677  0.1137
 3515DPPE   C3B64043   6.804   0.020  13.038  0.1787  0.0417  0.1148
 3515DPPE   C4B64044   6.625  -0.281  13.308  0.2195 -0.0072  0.0947
 3516DPPE   NH364045  13.488  34.927  12.848 -0.1385 -0.2164  0.2056
 3516DPPE   PO464046  13.490  34.997  13.237  0.2949  0.0248 -0.1445
 3516DPPE   GL164047  13.432  34.578  13.269 -0.0128 -0.1553 -0.0846
 3516DPPE   GL264048  13.503  34.430  12.987  0.4940 -0.3556  0.0114
 3516DPPE   C1A64049  13.704  34.384  13.415 -0.0957 -0.4477 -0.1500
 3516DPPE   C2A64050  14.044  34.260  13.233  0.1631 -0.0625 -0.2176
 3516DPPE   C3A64051  14.459  34.316  13.398 -0.2489 -0.0588  0.1431
 3516DPPE   C4A64052  14.843  34.525  13.277  0.0822  0.0452  0.3495
 3516DPPE   C1B64053  13.339  34.050  13.257 -0.1998 -0.4514 -0.3686
 3516DPPE   C2B64054  12.977  33.916  13.446  0.0346  0.2907 -0.1983
 3516DPPE   C3B64055  12.580  34.230  13.509  0.3526  0.2607  0.3259
 3516DPPE   C4B64056  12.131  34.284  13.385  0.0285 -0.1502 -0.0720
 3517DPPE   NH364057   6.597   4.860  12.007  0.1472 -0.1007  0.3367
 3517DPPE   PO464058   6.209   5.096  11.802 -0.0371  0.1399 -0.0357
 3517DPPE   GL164059   5.902   4.825  11.552 -0.1198  0.0924  0.3415
 3517DPPE   GL264060   5.638   4.687  11.638 -0.2901  0.0036  0.2396
 3517DPPE   C1A64061   5.665   4.675  11.054  0.2067  0.4185  0.0894
 3517DPPE   C2A64062   5.245   4.598  10.885 -0.2751 -0.1594 -0.2422
 3517DPPE   C3A64063   4.867   4.424  10.896 -0.1259  0.1903  0.0581
 3517DPPE   C4A64064   4.631   4.202  10.711 -0.0137  0.0359 -0.0442
 3517DPPE   C1B64065   5.325   4.535  11.514  0.0906 -0.1476  0.0420
 3517DPPE   C2B64066   4.913   4.483  11.514  0.1225 -0.0732  0.0554
 3517DPPE   C3B64067   4.506   4.677  11.238 -0.0388  0.0762 -0.1740
 3517DPPE   C4B64068   4.298   4.608  10.914  0.1282 -0.1542 -0.0269
 3518DPPE   NH364069   7.572   7.793   8.221  0.0312 -0.0743 -0.1506
 3518DPPE   PO464070   7.392   8.079   7.893 -0.1231 -0.2262 -0.3816
 3518DPPE   GL164071   7.483   8.220   7.470 -0.2548  0.1010 -0.2427
 3518DPPE   GL264072   7.209   8.005   7.455  0.0121 -0.0154  0.0953
 3518DPPE   C1A64073   7.392   8.263   7.050 -0.0065  0.0232 -0.1505
 3518DPPE   C2A64074   7.201   8.547   6.821 -0.1988  0.0507  0.0010
 3518DPPE   C3A64075   7.091   8.695   6.500  0.0971 -0.2535  0.1762
 3518DPPE   C4A64076   7.286   8.610   6.235  0.4225 -0.1278 -0.0605
 3518DPPE   C1B64077   6.793   7.933   7.183 -0.1775  0.3078  0.0083
 3518DPPE   C2B64078   6.614   7.813   6.802  0.1224  0.1400  0.3785
 3518DPPE   C3B64079   6.314   7.945   6.508 -0.2233  0.1760  0.2223
 3518DPPE   C4B64080   6.271   8.156   6.124  0.0478 -0.1519  0.1627
 3519DPPE   NH364081  17.011   0.785   8.862 -0.1934 -0.1993  0.0171
 3519DPPE   PO464082  17.037   0.892   9.235  0.1064 -0.2874  0.0954
 3519DPPE   GL164083  17.327   0.686   9.519 -0.0778  0.1089  0.0611
 3519DPPE   GL264084  17.522   0.818   9.480 -0.3031 -0.1836  0.0140
 3519DPPE   C1A64085  17.562   0.233   9.619  0.3857 -0.2194  0.1939
 3519DPPE   C2A64086  17.953   0.197   9.372 -0.0913  0.0454 -0.1641
 3519DPPE   C3A64087  18.127   0.235   8.956  0.1677 -0.1446  0.1817
 3519DPPE   C4A64088  18.349   0.254   8.650 -0.1094  0.3187  0.2507
 3519DPPE   C1B64089  17.854   0.672   9.696 -0.2191 -0.2633 -0.0033
 3519DPPE   C2B64090  18.218   0.372   9.813  0.1382 -0.0969  0.3608
 3519DPPE   C3B64091  18.344   0.129  10.201  0.2260 -0.1527  0.0625
 3519DPPE   C4B64092  18.205  -0.095  10.452  0.1438 -0.0333  0.2476
 3520DPPE   NH364093  14.719  35.756  12.468  0.2488  0.0512  0.1244
 3520DPPE   PO464094  14.530  35.934  12.216  0.0961  0.1491  0.2137
 3520DPPE   GL164095  14.767  36.235  12.490 -0.0106  0.0007 -0.0011
 3520DPPE   GL264096  14.910  36.194  12.816  0.0178  0.0806 -0.0434
 3520DPPE   C1A64097  14.866  36.648  12.603  0.1499  0.3422  0.1721
 3520DPPE   C2A64098  15.139  36.901  12.766  0.0594 -0.2172  0.0164
 3520DPPE   C3A64099  15.271  36.991  13.114  0.0951 -0.1543 -0.2436
 3520DPPE   C4A64100  15.239  36.760  13.499 -0.0657 -0.0342  0.4212
 3520DPPE   C1B64101  15.229  36.390  12.958 -0.1201  0.0652 -0.0539
 3520DPPE   C2B64102  15.547  36.505  13.160  0.4335 -0.0645  0.2207
 3520DPPE   C3B64103  15.714  36.727  13.545 -0.4778  0.2433  0.1231
 3520DPPE   C4B64104  15.795  36.945  13.824 -0.1874 -0.1036 -0.1263
 3521DPPE   NH364105   6.078   4.196  12.216  0.0324  0.3005  0.0430
 3521DPPE   PO464106   5.969   3.902  12.639 -0.1937  0.1645 -0.1083
 3521DPPE   GL164107   5.511   3.858  12.589 -0.0901 -0.0764  0.2217
 3521DPPE   GL264108   5.523   3.479  12.543 -0.0220 -0.3124 -0.0461
 3521DPPE   C1A64109   5.039   3.608  12.532 -0.2478 -0.1032 -0.1211
 3521DPPE   C2A64110   4.745   3.323  12.511  0.1990 -0.1569 -0.0272
 3521DPPE   C3A64111   4.448   2.903  12.522 -0.0739 -0.1998 -0.0265
 3521DPPE   C4A64112   4.435   2.541  12.651  0.1360 -0.0337  0.0771
 3521DPPE   C1B64113   5.396   3.162  12.302  0.1868 -0.1892  0.1138
 3521DPPE   C2B64114   5.313   2.826  11.960  0.2512  0.0791 -0.0472
 3521DPPE   C3B64115   4.901   2.507  11.804 -0.0886 -0.0135 -0.0570
 3521DPPE   C4B64116   4.773   2.377  11.457 -0.0305 -0.0161  0.0328
 3522DPPE   NH364117  14.615   5.676   6.536 -0.4992 -0.0281 -0.2114
 3522DPPE   PO464118  14.572   6.003   6.302 -0.1836 -0.1115  0.0052
 3522DPPE   GL164119  14.898   6.221   6.507 -0.3324 -0.0404 -0.0715
 3522DPPE   GL264120  14.966   6.054   6.740  0.1051 -0.2629 -0.1687
 3522DPPE   C1A64121  15.107   6.620   6.799 -0.1656  0.2966 -0.2017
 3522DPPE   C2A64122  15.388   6.757   7.219  0.0527 -0.1605 -0.0912
 3522DPPE   C3A64123  15.616   6.758   7.663 -0.2004 -0.3272 -0.0027
 3522DPPE   C4A64124  15.178   6.774   7.948  0.0190 -0.0539  0.2159
 3522DPPE   C1B64125  15.258   6.145   7.047 -0.2886  0.2317 -0.0462
 3522DPPE   C2B64126  15.493   6.281   7.473  0.2340  0.1973  0.1918
 3522DPPE   C3B64127  15.811   6.355   7.864 -0.0831 -0.1358 -0.0088
 3522DPPE   C4B64128  15.763   6.382   8.238 -0.1319 -0.2176  0.0519
 3523DPPE   NH364129  14.340   6.418   6.340 -0.0323 -0.1969 -0.1704
 3523DPPE   PO464130  14.055   6.723   6.145 -0.3014  0.0662  0.0709
 3523DPPE   GL164131  14.090   6.791   6.653 -0.1193  0.0764 -0.1853
 3523DPPE   GL264132  14.449   6.788   6.681  0.0222  0.0618 -0.1388
 3523DPPE   C1A64133  14.077   7.101   6.945  0.0027  0.0382 -0.0118
 3523DPPE   C2A64134  14.280   7.169   7.380 -0.1956  0.5732  0.0271
 3523DPPE   C3A64135  14.589   7.392   7.376 -0.1185 -0.3851  0.0062
 3523DPPE   C4A64136  14.885   7.708   7.656 -0.0013 -0.0841  0.0010
 3523DPPE   C1B64137  14.625   7.009   6.999  0.0100 -0.0547 -0.2464
 3523DPPE   C2B64138  15.078   7.183   7.115  0.1523 -0.1075  0.2045
 3523DPPE   C3B64139  15.256   7.346   7.482  0.1682  0.1935 -0.2039
 3523DPPE   C4B64140  15.428   7.262   7.923 -0.0187 -0.0343 -0.1919
 3524DPPE   NH364141   9.681  10.991   6.263 -0.0693 -0.1562 -0.0912
 3524DPPE   PO464142   9.662  11.380   6.145 -0.1010  0.0220 -0.4950
 3524DPPE   GL164143   9.521  11.327   5.804 -0.1738  0.3482  0.1766
 3524DPPE   GL264144   9.217  11.358   5.783  0.0514 -0.0521  0.0399
 3524DPPE   C1A64145   9.517  11.596   5.419  0.0286  0.1795  0.5378
 3524DPPE   C2A64146   9.739  11.995   5.353 -0.1945 -0.2446 -0.2343
 3524DPPE   C3A64147   9.916  12.336   5.536  0.0320 -0.2226 -0.3111
 3524DPPE   C4A64148  10.231  12.356   5.548 -0.2379  0.1119  0.1009
 3524DPPE   C1B64149   8.862  11.512   5.481 -0.1123 -0.1845  0.2441
 3524DPPE   C2B64150   8.802  11.487   5.093 -0.0326 -0.1590  0.0699
 3524DPPE   C3B64151   8.660  11.201   4.738 -0.0028 -0.3114  0.1819
 3524DPPE   C4B64152   8.293  11.274   4.496 -0.0027 -0.2885 -0.1194
 3525DPPE   NH364153  13.210   0.926   9.376  0.0430 -0.0892 -0.0759
 3525DPPE   PO464154  13.362   1.313   9.501  0.0013  0.2817 -0.4475
 3525DPPE   GL164155  13.619   1.727   9.607 -0.4339  0.1036  0.0222
 3525DPPE   GL264156  13.585   2.032   9.392  0.1863  0.0383  0.0359
 3525DPPE   C1A64157  13.738   2.191   9.852  0.0407 -0.0923  0.0735
 3525DPPE   C2A64158  13.891   2.376  10.258  0.1684  0.1170 -0.3957
 3525DPPE   C3A64159  13.856   2.840  10.359 -0.0558  0.0991  0.3467
 3525DPPE   C4A64160  13.784   3.331  10.444  0.3873  0.0708  0.0224
 3525DPPE   C1B64161  13.247   2.106   9.733  0.1573  0.2997 -0.0152
 3525DPPE   C2B64162  12.967   2.254  10.060  0.0216  0.0912 -0.1472
 3525DPPE   C3B64163  12.950   2.384  10.494  0.0727  0.0810 -0.1518
 3525DPPE   C4B64164  13.133   2.618  10.794  0.1916 -0.3214 -0.2309
 3526DPPE   NH364165  13.569   4.688   7.024  0.2132 -0.3117 -0.3016
 3526DPPE   PO464166  13.134   4.612   7.085  0.2227  0.2832 -0.1670
 3526DPPE   GL164167  13.284   4.613   7.458  0.1193 -0.1126  0.1033
 3526DPPE   GL264168  13.053   4.482   7.633  0.3402  0.0773 -0.1160
 3526DPPE   C1A64169  13.600   4.593   7.785  0.0903  0.1437 -0.0986
 3526DPPE   C2A64170  13.965   4.665   8.034  0.3185  0.1071  0.0315
 3526DPPE   C3A64171  14.375   4.685   8.269  0.1669 -0.1304  0.1143
 3526DPPE   C4A64172  14.438   4.807   8.700  0.0614  0.0969 -0.0832
 3526DPPE   C1B64173  12.981   4.564   7.996 -0.0992 -0.0174  0.0155
 3526DPPE   C2B64174  13.006   4.707   8.430  0.0006 -0.0776  0.2600
 3526DPPE   C3B64175  13.337   4.789   8.703  0.2619  0.3097  0.1472
 3526DPPE   C4B64176  13.620   4.689   9.012  0.2127  0.1557 -0.3216
 3527DPPE   NH364177   6.548  11.203   9.824 -0.0132 -0.0905  0.1146
 3527DPPE   PO464178   6.417  11.648   9.680 -0.0291  0.0719  0.0097
 3527DPPE   GL164179   6.511  12.033   9.609  0.1389 -0.2259  0.2998
 3527DPPE   GL264180   6.488  12.309   9.800 -0.2442 -0.2192  0.2251
 3527DPPE   C1A64181   6.279  12.417   9.302  0.2271  0.0176 -0.1691
 3527DPPE   C2A64182   6.096  12.554   8.941  0.0324 -0.0983 -0.1267
 3527DPPE   C3A64183   6.297  12.889   8.747 -0.0937  0.0985 -0.0265
 3527DPPE   C4A64184   6.496  12.876   8.388  0.1366 -0.1395  0.1687
 3527DPPE   C1B64185   6.079  12.271   9.917 -0.2409 -0.2589 -0.1666
 3527DPPE   C2B64186   5.659  12.347   9.974 -0.2291 -0.2647 -0.0597
 3527DPPE   C3B64187   5.303  12.121   9.965 -0.1601 -0.0588  0.0319
 3527DPPE   C4B64188   5.040  12.002  10.206 -0.3043 -0.1976 -0.1441
 3528DPPE   NH364189   4.945   8.770  14.365 -0.0302  0.0016 -0.0203
 3528DPPE   PO464190   4.727   9.026  14.280  0.0263  0.2018  0.0716
 3528DPPE   GL164191   4.509   9.402  14.271  0.2362  0.0411 -0.2054
 3528DPPE   GL264192   4.672   9.542  14.022  0.1501 -0.0249 -0.2674
 3528DPPE   C1A64193   4.203   9.659  14.323 -0.1075  0.0130 -0.0928
 3528DPPE   C2A64194   4.105  10.103  14.217  0.2646 -0.2012  0.1686
 3528DPPE   C3A64195   4.281  10.379  14.111  0.0032 -0.3080 -0.2625
 3528DPPE   C4A64196   4.587  10.525  13.929 -0.0092  0.0420  0.1882
 3528DPPE   C1B64197   4.609   9.906  14.206  0.1168  0.0262  0.2791
 3528DPPE   C2B64198   4.767  10.232  14.357 -0.0318 -0.0388 -0.0313
 3528DPPE   C3B64199   4.813  10.480  14.793  0.0030  0.1480 -0.2819
 3528DPPE   C4B64200   4.882  10.783  15.110 -0.1713  0.2868 -0.0222
 3529DPPE   NH364201   5.689   9.070  10.478  0.2439 -0.1223 -0.0161
 3529DPPE   PO464202   5.857   9.456  10.430 -0.2467  0.0385  0.1052
 3529DPPE   GL164203   5.427   9.510  10.357  0.1622 -0.2051  0.2645
 3529DPPE   GL264204   5.188   9.765  10.457 -0.3618  0.1340  0.0272
 3529DPPE   C1A64205   5.169   9.291  10.127  0.0531 -0.2435 -0.1058
 3529DPPE   C2A64206   4.828   9.269   9.860 -0.0472  0.1306 -0.1176
 3529DPPE   C3A64207   4.444   9.185   9.817 -0.0325  0.2964  0.0818
 3529DPPE   C4A64208   4.214   9.295   9.436  0.1422 -0.1540 -0.0758
 3529DPPE   C1B64209   4.721   9.653  10.390  0.0435  0.1060  0.0620
 3529DPPE   C2B64210   4.368   9.547  10.145  0.0009  0.0942  0.0221
 3529DPPE   C3B64211   4.138   9.728   9.708  0.1027  0.3859  0.1942
 3529DPPE   C4B64212   3.964   9.767   9.299  0.1282  0.6263  0.1293
 3530DPPE   NH364213   6.754   2.818  13.982  0.1447 -0.1980 -0.2214
 3530DPPE   PO464214   6.601   3.132  13.666 -0.0746  0.1861 -0.1036
 3530DPPE   GL164215   6.170   2.923  13.743 -0.1463 -0.0237  0.1259
 3530DPPE   GL264216   6.305   2.686  13.790 -0.0788 -0.0526 -0.2375
 3530DPPE   C1A64217   5.721   3.018  13.664 -0.1035 -0.1058  0.1529
 3530DPPE   C2A64218   5.451   2.730  13.666 -0.0366 -0.2572  0.2820
 3530DPPE   C3A64219   5.245   2.398  13.378 -0.1693  0.1738 -0.0277
 3530DPPE   C4A64220   5.153   1.994  13.446 -0.1990  0.1330 -0.0398
 3530DPPE   C1B64221   6.092   2.181  13.815 -0.1973 -0.1753  0.2649
 3530DPPE   C2B64222   5.745   1.966  13.962 -0.1263  0.0523  0.0018
 3530DPPE   C3B64223   5.566   1.704  14.286  0.0746  0.0216  0.0586
 3530DPPE   C4B64224   5.222   1.486  14.303 -0.3190 -0.2379  0.2787
 3531DPPE   NH364225   9.442   1.198  11.181  0.1711  0.0306 -0.1194
 3531DPPE   PO464226   9.781   0.996  11.220  0.0907 -0.3269  0.0007
 3531DPPE   GL164227   9.582   0.686  11.063 -0.1728  0.0011 -0.0306
 3531DPPE   GL264228   9.461   0.390  11.290 -0.0485 -0.2723 -0.2780
 3531DPPE   C1A64229   9.263   0.539  10.772 -0.1015  0.2498 -0.0590
 3531DPPE   C2A64230   8.982   0.245  10.539 -0.2288  0.1147 -0.1258
 3531DPPE   C3A64231   8.617  -0.122  10.459 -0.2056  0.2751 -0.1018
 3531DPPE   C4A64232   8.248  -0.423  10.262  0.0483  0.3272  0.1668
 3531DPPE   C1B64233   9.138   0.054  11.159 -0.1364  0.0253 -0.0959
 3531DPPE   C2B64234   8.814  -0.314  11.075  0.1689 -0.1469 -0.2960
 3531DPPE   C3B64235   8.536  -0.737  11.159  0.0380  0.2809 -0.0742
 3531DPPE   C4B64236   8.148  -0.845  11.295  0.0942 -0.0486 -0.0007
 3532DPPE   NH364237   7.414   1.552  13.733 -0.0037  0.0527  0.2275
 3532DPPE   PO464238   7.575   1.684  14.120  0.0283  0.0838  0.0450
 3532DPPE   GL164239   7.284   1.392  14.231 -0.1378  0.2056  0.3249
 3532DPPE   GL264240   7.410   1.192  14.482  0.0361 -0.1148 -0.2992
 3532DPPE   C1A64241   7.149   1.015  13.970 -0.2085  0.1593 -0.1552
 3532DPPE   C2A64242   6.779   0.752  13.837  0.2999 -0.2906 -0.1797
 3532DPPE   C3A64243   6.442   0.753  13.744 -0.2009  0.0655  0.0120
 3532DPPE   C4A64244   6.137   0.387  13.798 -0.1829  0.1789  0.2774
 3532DPPE   C1B64245   7.070   0.836  14.504  0.2737  0.0388 -0.0762
 3532DPPE   C2B64246   6.848   0.599  14.746 -0.3077 -0.2047 -0.0481
 3532DPPE   C3B64247   6.740   0.328  14.729  0.1972  0.0112 -0.1270
 3532DPPE   C4B64248   7.020  -0.094  14.699  0.4170 -0.2453 -0.2298
 3533DPPE   NH364249   7.649   2.183  14.838 -0.0896 -0.0951 -0.1573
 3533DPPE   PO464250   7.560   1.742  15.078 -0.0244  0.0893  0.0946
 3533DPPE   GL164251   7.246   1.691  15.281  0.1146  0.0014  0.0854
 3533DPPE   GL264252   7.197   1.384  15.502  0.0333  0.0869 -0.1266
 3533DPPE   C1A64253   6.775   1.509  15.199  0.1955  0.3296  0.1762
 3533DPPE   C2A64254   6.275   1.450  14.991 -0.2547 -0.2138  0.2169
 3533DPPE   C3A64255   5.952   1.254  14.892 -0.1497 -0.1094  0.0351
 3533DPPE   C4A64256   5.888   0.847  14.701  0.3517 -0.0949  0.1874
 3533DPPE   C1B64257   6.862   1.140  15.618  0.1439 -0.0995 -0.3269
 3533DPPE   C2B64258   6.581   0.818  15.669  0.1696  0.1036 -0.1528
 3533DPPE   C3B64259   6.092   0.862  15.703 -0.0646 -0.0281  0.2310
 3533DPPE   C4B64260   5.635   1.048  15.768 -0.2214 -0.1151 -0.3603
 3534DPPE   NH364261   5.790   6.637  16.208 -0.0121 -0.1508 -0.1301
 3534DPPE   PO464262   5.829   7.072  16.217 -0.0868  0.1328  0.3998
 3534DPPE   GL164263   5.762   7.483  16.492 -0.0445 -0.2613 -0.0260
 3534DPPE   GL264264   5.967   7.751  16.428 -0.0129  0.2108  0.0236
 3534DPPE   C1A64265   5.715   7.828  16.892 -0.0606 -0.0869  0.0301
 3534DPPE   C2A64266   5.647   8.230  17.101  0.3093  0.1513  0.2541
 3534DPPE   C3A64267   5.346   8.638  17.086 -0.2454 -0.0291  0.3136
 3534DPPE   C4A64268   5.113   8.951  17.099 -0.3180 -0.0665 -0.0304
 3534DPPE   C1B64269   6.000   8.135  16.531  0.1790 -0.2065 -0.2165
 3534DPPE   C2B64270   6.201   8.577  16.449  0.0354  0.2168  0.1938
 3534DPPE   C3B64271   6.362   9.029  16.566  0.2850  0.3107 -0.2006
 3534DPPE   C4B64272   6.496   9.435  16.627 -0.0108 -0.3701 -0.1686
 3535DPPE   NH364273  14.326   1.687   8.064 -0.1530  0.2287 -0.3598
 3535DPPE   PO464274  14.145   1.572   8.552 -0.3381 -0.1272  0.1108
 3535DPPE   GL164275  14.385   1.939   8.655  0.2460 -0.3035  0.0769
 3535DPPE   GL264276  14.135   2.127   8.823 -0.2650 -0.1640 -0.3531
 3535DPPE   C1A64277  14.608   2.277   8.905  0.0717  0.2572  0.1292
 3535DPPE   C2A64278  14.593   2.447   9.323  0.0857 -0.0577 -0.0287
 3535DPPE   C3A64279  14.664   2.660   9.606  0.1340 -0.3073 -0.1063
 3535DPPE   C4A64280  14.830   3.037   9.827  0.2060 -0.2837  0.0814
 3535DPPE   C1B64281  14.030   2.155   9.300 -0.0331  0.1205  0.0919
 3535DPPE   C2B64282  14.172   2.366   9.640 -0.5020 -0.2368 -0.3535
 3535DPPE   C3B64283  14.330   2.551   9.979  0.3039  0.0152 -0.1408
 3535DPPE   C4B64284  14.373   2.576  10.499 -0.0363 -0.0466 -0.2951
 3536DPPE   NH364285   4.189   7.928  14.502 -0.2102  0.1078 -0.0056
 3536DPPE   PO464286   4.317   8.386  14.474  0.3534  0.1406  0.1614
 3536DPPE   GL164287   3.905   8.467  14.561  0.2643  0.1659  0.0063
 3536DPPE   GL264288   3.968   8.763  14.787 -0.0896  0.1348  0.1322
 3536DPPE   C1A64289   3.642   8.823  14.428 -0.1117 -0.0253 -0.0700
 3536DPPE   C2A64290   3.835   9.204  14.072 -0.0369  0.3580  0.1004
 3536DPPE   C3A64291   3.848   9.615  13.965 -0.2338  0.5031 -0.3260
 3536DPPE   C4A64292   3.744   9.855  13.609 -0.2470 -0.2289  0.1598
 3536DPPE   C1B64293   4.040   8.988  15.241  0.2339  0.1321 -0.3469
 3536DPPE   C2B64294   4.300   9.386  15.493 -0.0325  0.2435 -0.0458
 3536DPPE   C3B64295   4.496   9.494  15.874 -0.1173 -0.1102 -0.0090
 3536DPPE   C4B64296   5.010   9.692  15.970  0.0369  0.0471 -0.0189
 3537DPPE   NH364297   5.628   6.072  15.977 -0.3392 -0.1613 -0.2433
 3537DPPE   PO464298   5.915   6.173  16.324  0.3545 -0.4322  0.2788
 3537DPPE   GL164299   5.846   6.395  16.677 -0.0371  0.1028  0.0685
 3537DPPE   GL264300   5.953   6.637  16.641 -0.0423  0.1059  0.4690
 3537DPPE   C1A64301   5.852   6.394  17.121 -0.2263 -0.0600 -0.0639
 3537DPPE   C2A64302   5.679   6.577  17.518 -0.1816  0.0041  0.2581
 3537DPPE   C3A64303   5.583   6.715  17.891 -0.0467  0.1446  0.3029
 3537DPPE   C4A64304   5.635   7.027  18.282 -0.1522 -0.4419 -0.1358
 3537DPPE   C1B64305   5.890   6.924  17.045  0.2417  0.0539 -0.0252
 3537DPPE   C2B64306   5.842   7.038  17.507  0.3191  0.2045 -0.0293
 3537DPPE   C3B64307   6.035   7.385  17.805  0.1464  0.5211  0.1162
 3537DPPE   C4B64308   5.998   7.367  18.286  0.0911  0.2054  0.2821
 3538DPPE   NH364309   7.622   3.674  12.931  0.1619 -0.1121  0.1398
 3538DPPE   PO464310   7.743   3.803  13.291 -0.1150 -0.0814  0.1384
 3538DPPE   GL164311   8.035   3.739  13.646  0.0354 -0.1171  0.1184
 3538DPPE   GL264312   7.836   3.893  13.924  0.2502  0.1804  0.2430
 3538DPPE   C1A64313   8.336   3.875  13.838 -0.0943 -0.0362  0.0169
 3538DPPE   C2A64314   8.765   4.028  13.593 -0.1755 -0.1875 -0.2128
 3538DPPE   C3A64315   9.160   4.236  13.322 -0.2154  0.0396 -0.2362
 3538DPPE   C4A64316   9.628   4.207  13.517 -0.1761 -0.0198  0.0018
 3538DPPE   C1B64317   8.036   4.264  13.969 -0.1653 -0.1623 -0.1050
 3538DPPE   C2B64318   8.539   4.329  14.057 -0.0731 -0.2719 -0.0999
 3538DPPE   C3B64319   8.973   4.575  14.224 -0.1161  0.1551  0.5749
 3538DPPE   C4B64320   9.345   4.765  14.326  0.0986 -0.0088  0.1410
 3539DPPE   NH364321  13.476   2.826   6.814  0.1927  0.0937  0.2453
 3539DPPE   PO464322  13.936   2.769   6.772 -0.0618  0.2079  0.0955
 3539DPPE   GL164323  13.931   2.397   6.533  0.1504 -0.1610  0.0903
 3539DPPE   GL264324  13.674   2.361   6.761 -0.1281  0.1537 -0.0019
 3539DPPE   C1A64325  14.173   1.948   6.453  0.1296  0.1142  0.0413
 3539DPPE   C2A64326  14.439   1.735   6.166  0.0978  0.2013 -0.0938
 3539DPPE   C3A64327  14.523   1.756   5.664  0.0227  0.2447 -0.2252
 3539DPPE   C4A64328  14.619   2.127   5.391 -0.0820 -0.1873  0.3101
 3539DPPE   C1B64329  13.504   2.224   6.368 -0.1099  0.3494 -0.0834
 3539DPPE   C2B64330  13.378   2.028   5.947  0.2168  0.0628 -0.2312
 3539DPPE   C3B64331  13.389   1.800   5.544 -0.3239 -0.0541  0.0841
 3539DPPE   C4B64332  13.121   1.835   5.196  0.0076  0.2754 -0.0664
 3540DPPE   NH364333   8.234   0.941  14.152 -0.0179 -0.1043 -0.1135
 3540DPPE   PO464334   8.246   0.901  14.542  0.0817 -0.1786 -0.0038
 3540DPPE   GL164335   7.787   0.772  14.536  0.1812  0.0262  0.2300
 3540DPPE   GL264336   7.942   0.630  14.845  0.2005  0.0497  0.0891
 3540DPPE   C1A64337   7.455   0.740  14.806  0.0434  0.1538  0.4901
 3540DPPE   C2A64338   7.198   0.414  14.983  0.0758  0.1308 -0.1443
 3540DPPE   C3A64339   6.902   0.120  15.106 -0.1147  0.0235 -0.0782
 3540DPPE   C4A64340   6.601  -0.108  15.091  0.0615  0.3159 -0.0015
 3540DPPE   C1B64341   7.762   0.431  15.159  0.4451  0.1379 -0.3062
 3540DPPE   C2B64342   7.497   0.137  15.371  0.3358 -0.0501 -0.3405
 3540DPPE   C3B64343   7.153   0.014  15.543  0.1116  0.2405 -0.0526
 3540DPPE   C4B64344   6.713  -0.058  15.546  0.0175 -0.1762 -0.1819
 3541DPPE   NH364345  11.000   2.000  10.515  0.2550 -0.0835 -0.0217
 3541DPPE   PO464346  10.652   2.318  10.665  0.0999 -0.1095  0.2148
 3541DPPE   GL164347  10.544   2.425  11.022  0.0472  0.1149 -0.0622
 3541DPPE   GL264348  10.899   2.367  11.080 -0.2318 -0.1654  0.3636
 3541DPPE   C1A64349  10.784   2.785  11.277 -0.1977  0.0665 -0.0463
 3541DPPE   C2A64350  10.951   3.067  11.474 -0.1300  0.2458  0.0669
 3541DPPE   C3A64351  11.132   3.261  11.848 -0.3007  0.2445  0.0613
 3541DPPE   C4A64352  11.521   3.332  11.871  0.1592  0.1385  0.1548
 3541DPPE   C1B64353  11.131   2.504  11.427 -0.3303 -0.3752 -0.1645
 3541DPPE   C2B64354  11.418   2.834  11.656  0.0772 -0.0752  0.2067
 3541DPPE   C3B64355  11.633   2.854  12.110 -0.0169  0.3204  0.0009
 3541DPPE   C4B64356  11.627   2.858  12.553 -0.1353  0.1314 -0.3289
 3542DPPE   NH364357   9.998  36.112  15.062  0.2813 -0.1064 -0.0427
 3542DPPE   PO464358   9.780  36.098  15.468  0.1582 -0.1494 -0.0451
 3542DPPE   GL164359   9.787  36.104  15.933 -0.2056 -0.0094  0.1662
 3542DPPE   GL264360  10.032  36.315  16.041  0.0444  0.0522  0.1707
 3542DPPE   C1A64361   9.618  36.302  16.258 -0.1142 -0.3893 -0.1818
 3542DPPE   C2A64362   9.259  36.252  16.500 -0.0941 -0.0435 -0.0169
 3542DPPE   C3A64363   9.199  36.085  16.979  0.0329  0.2553 -0.0574
 3542DPPE   C4A64364   9.388  35.713  17.005 -0.0767 -0.1195  0.0966
 3542DPPE   C1B64365  10.093  35.806  16.076 -0.2246 -0.0850 -0.2528
 3542DPPE   C2B64366   9.844  35.499  16.059  0.2075  0.0064  0.1908
 3542DPPE   C3B64367   9.544  35.529  15.826  0.1822  0.1263 -0.0652
 3542DPPE   C4B64368   9.073  35.396  15.752  0.0918 -0.0476  0.2703
 3543DPPE   NH364369  12.247   4.265   6.573 -0.0270  0.0497  0.0177
 3543DPPE   PO464370  12.423   4.581   6.371 -0.3521  0.2378 -0.0075
 3543DPPE   GL164371  12.402   4.354   6.000 -0.1111  0.2390 -0.0196
 3543DPPE   GL264372  12.305   4.027   6.048 -0.2848 -0.1010  0.1211
 3543DPPE   C1A64373  12.059   4.223   5.690  0.1486 -0.0343  0.0847
 3543DPPE   C2A64374  11.992   4.099   5.259  0.0258 -0.0724 -0.3701
 3543DPPE   C3A64375  11.819   3.804   4.962  0.1670  0.2674 -0.1618
 3543DPPE   C4A64376  11.664   3.543   4.598  0.1946 -0.1698 -0.2068
 3543DPPE   C1B64377  12.201   3.670   5.778 -0.0981  0.1235  0.0134
 3543DPPE   C2B64378  12.241   3.520   5.319 -0.3285  0.0039 -0.0782
 3543DPPE   C3B64379  12.187   3.462   4.920 -0.0363 -0.0625  0.0250
 3543DPPE   C4B64380  11.997   3.133   4.709 -0.0595 -0.4240  0.0886
 3544DPPE   NH364381  13.705   7.054   6.379 -0.0680  0.1092  0.3662
 3544DPPE   PO464382  13.611   7.459   6.172  0.0359 -0.2464 -0.3971
 3544DPPE   GL164383  13.685   7.673   6.547  0.0241 -0.2179  0.2606
 3544DPPE   GL264384  13.786   7.415   6.728  0.2499  0.3867 -0.0179
 3544DPPE   C1A64385  14.040   7.964   6.707  0.1914  0.3735  0.0664
 3544DPPE   C2A64386  14.009   8.029   7.070 -0.0497  0.1058 -0.0390
 3544DPPE   C3A64387  14.106   8.375   7.290  0.1348  0.0161  0.2294
 3544DPPE   C4A64388  14.373   8.698   7.512 -0.1234  0.2105 -0.4900
 3544DPPE   C1B64389  13.878   7.531   7.080  0.0234 -0.0046  0.1591
 3544DPPE   C2B64390  13.961   7.676   7.481  0.0526  0.0020  0.0818
 3544DPPE   C3B64391  14.337   7.721   7.669 -0.1218 -0.0127  0.0720
 3544DPPE   C4B64392  14.480   7.980   7.962  0.2290 -0.1749  0.0898
 3545DPPE   NH364393   8.018   3.936   9.789 -0.0105 -0.3235 -0.3029
 3545DPPE   PO464394   8.185   3.656  10.016 -0.0758 -0.2518  0.2889
 3545DPPE   GL164395   7.850   3.387   9.870  0.1440  0.3999  0.0614
 3545DPPE   GL264396   7.562   3.402   9.891 -0.5308 -0.0005  0.1981
 3545DPPE   C1A64397   7.731   3.168   9.469  0.2395 -0.3713  0.1372
 3545DPPE   C2A64398   7.416   2.908   9.334 -0.0042  0.1594  0.1842
 3545DPPE   C3A64399   6.962   2.848   9.319 -0.1377  0.1174  0.1293
 3545DPPE   C4A64400   6.601   2.862   9.249  0.2449 -0.3618  0.1890
 3545DPPE   C1B64401   7.219   3.144   9.792  0.0177 -0.0531 -0.1264
 3545DPPE   C2B64402   6.752   3.106   9.697 -0.2438  0.0808  0.0464
 3545DPPE   C3B64403   6.440   3.387   9.659 -0.2548 -0.2623  0.0107
 3545DPPE   C4B64404   6.181   3.324   9.281  0.0283 -0.3753  0.0220
 3546DPPE   NH364405   9.853  10.521   5.980 -0.2077 -0.2605 -0.3340
 3546DPPE   PO464406  10.071  10.442   5.586  0.0518  0.0719  0.0526
 3546DPPE   GL164407  10.008  10.558   5.120 -0.0364  0.2125 -0.0451
 3546DPPE   GL264408  10.121  10.854   4.912 -0.1254  0.1285  0.2931
 3546DPPE   C1A64409   9.608  10.772   4.991 -0.2089 -0.1327 -0.0089
 3546DPPE   C2A64410   9.428  10.971   4.728 -0.1930  0.0853  0.0948
 3546DPPE   C3A64411   9.412  10.950   4.307 -0.1702 -0.0200  0.0968
 3546DPPE   C4A64412   9.314  10.786   3.992 -0.0133  0.2887 -0.0335
 3546DPPE   C1B64413  10.029  11.133   4.451  0.2182 -0.0033  0.0484
 3546DPPE   C2B64414   9.802  11.320   4.083 -0.1757 -0.0032 -0.3975
 3546DPPE   C3B64415   9.428  11.254   3.918 -0.3081 -0.4416 -0.1030
 3546DPPE   C4B64416   8.988  11.375   3.840  0.0281 -0.1972  0.4426
 3547DPPE   NH364417  10.629   4.795   8.024 -0.1181  0.0632 -0.2222
 3547DPPE   PO464418  10.584   4.648   8.477 -0.1942  0.0704 -0.0652
 3547DPPE   GL164419  10.878   5.013   8.406  0.0748  0.1958  0.2574
 3547DPPE   GL264420  11.134   4.951   8.392  0.0578  0.3171 -0.1499
 3547DPPE   C1A64421  11.066   5.357   8.672  0.0940 -0.1868  0.0676
 3547DPPE   C2A64422  11.528   5.509   8.707  0.0377  0.1907 -0.0206
 3547DPPE   C3A64423  11.650   5.710   8.983 -0.1439 -0.3694 -0.2565
 3547DPPE   C4A64424  11.846   5.847   9.271 -0.0548 -0.2040 -0.0354
 3547DPPE   C1B64425  11.434   4.821   8.658  0.2730 -0.0470  0.1661
 3547DPPE   C2B64426  11.806   5.090   8.842 -0.2101  0.2717  0.1010
 3547DPPE   C3B64427  11.874   5.293   9.228 -0.1253  0.1506  0.1823
 3547DPPE   C4B64428  11.851   5.413   9.579 -0.0129  0.0635  0.0115
 3548DPPE   NH364429  12.358  11.448   5.273 -0.2496  0.0074  0.1777
 3548DPPE   PO464430  12.015  11.164   4.987  0.0322  0.0416 -0.2472
 3548DPPE   GL164431  12.179  11.462   4.755 -0.1353  0.1708 -0.0268
 3548DPPE   GL264432  12.485  11.184   4.840 -0.1175  0.1589 -0.0532
 3548DPPE   C1A64433  12.398  11.889   4.773 -0.0937  0.0567  0.2336
 3548DPPE   C2A64434  12.671  12.127   5.069 -0.3110  0.2542 -0.3664
 3548DPPE   C3A64435  12.979  12.350   5.211  0.1476 -0.0248 -0.2133
 3548DPPE   C4A64436  13.294  12.691   5.176  0.0230  0.1224  0.3239
 3548DPPE   C1B64437  12.741  11.542   4.725 -0.0504  0.1821 -0.0380
 3548DPPE   C2B64438  12.994  11.755   4.848 -0.1699 -0.1744  0.0027
 3548DPPE   C3B64439  13.141  12.153   4.675  0.2055  0.0611 -0.4226
 3548DPPE   C4B64440  13.451  12.390   4.810  0.0717  0.2508  0.0997
 3549DPPE   NH364441   7.384   3.801  13.698 -0.0820  0.4466  0.0244
 3549DPPE   PO464442   7.373   4.091  14.110 -0.0992  0.0838 -0.0181
 3549DPPE   GL164443   7.593   4.456  14.078  0.2037 -0.4492  0.0696
 3549DPPE   GL264444   7.728   4.654  14.238  0.0349  0.0015  0.1514
 3549DPPE   C1A64445   7.761   4.804  13.783  0.0290  0.0429 -0.0180
 3549DPPE   C2A64446   7.984   5.202  13.711  0.1504 -0.0549 -0.2128
 3549DPPE   C3A64447   8.341   5.180  13.649  0.1209 -0.1144  0.2010
 3549DPPE   C4A64448   8.811   5.078  13.497 -0.2312  0.0479  0.1607
 3549DPPE   C1B64449   8.099   4.972  14.183  0.1357  0.0383  0.0847
 3549DPPE   C2B64450   8.618   4.917  14.042 -0.0402 -0.3174 -0.1461
 3549DPPE   C3B64451   9.074   5.025  13.975  0.0215  0.2116  0.1670
 3549DPPE   C4B64452   9.240   5.358  14.196  0.3803  0.0744  0.1671
 3550DPPE   NH364453  18.014   4.078   6.550  0.0526  0.1514  0.2371
 3550DPPE   PO464454  17.803   4.446   6.618  0.1724 -0.0120 -0.1258
 3550DPPE   GL164455  17.724   4.880   6.807 -0.2385 -0.0309 -0.3258
 3550DPPE   GL264456  17.568   4.804   7.061  0.0974  0.2124 -0.1378
 3550DPPE   C1A64457  17.545   5.271   6.965 -0.1439 -0.1550  0.2636
 3550DPPE   C2A64458  17.205   5.631   7.158  0.1152 -0.2163  0.0865
 3550DPPE   C3A64459  16.794   5.727   7.271 -0.0155 -0.1560 -0.1989
 3550DPPE   C4A64460  16.343   5.678   7.354 -0.0852 -0.0422 -0.2400
 3550DPPE   C1B64461  18.035   4.934   7.189  0.1489 -0.1801 -0.2697
 3550DPPE   C2B64462  18.291   4.589   7.232  0.0380 -0.0890 -0.3711
 3550DPPE   C3B64463  18.699   4.587   7.473 -0.2481 -0.0437  0.4726
 3550DPPE   C4B64464  19.159   4.761   7.233  0.0851 -0.0008  0.5048
 3551DPPE   NH364465  11.001  10.408   6.541 -0.0119  0.2978  0.1810
 3551DPPE   PO464466  10.703  10.021   6.535  0.1615  0.1083 -0.0692
 3551DPPE   GL164467  10.946   9.855   6.782  0.4976  0.0269 -0.1524
 3551DPPE   GL264468  10.907   9.772   7.107 -0.1811 -0.0109  0.1163
 3551DPPE   C1A64469  11.457   9.722   6.963 -0.2637  0.2846  0.1439
 3551DPPE   C2A64470  11.610   9.722   7.370 -0.0689  0.1364  0.1419
 3551DPPE   C3A64471  11.762   9.401   7.753 -0.1828  0.4299  0.1598
 3551DPPE   C4A64472  11.457   8.994   8.104  0.2127  0.1255 -0.1305
 3551DPPE   C1B64473  11.176  10.092   7.118 -0.0207  0.3779  0.3162
 3551DPPE   C2B64474  11.173  10.446   7.212 -0.1362 -0.1756 -0.1014
 3551DPPE   C3B64475  11.311  10.943   7.206  0.0482  0.3697  0.0021
 3551DPPE   C4B64476  11.367  11.360   7.192  0.0580  0.0674  0.1046
 3552DPPE   NH364477   5.359   5.738  13.231 -0.1097 -0.1977 -0.0549
 3552DPPE   PO464478   4.957   5.842  13.167 -0.0150 -0.0040 -0.3368
 3552DPPE   GL164479   4.563   5.820  13.183  0.0622  0.0572 -0.3350
 3552DPPE   GL264480   4.526   5.807  13.599 -0.0439 -0.0082 -0.2706
 3552DPPE   C1A64481   4.189   5.874  13.005 -0.1584  0.2204  0.0392
 3552DPPE   C2A64482   3.769   5.624  12.895 -0.1792  0.2678  0.1025
 3552DPPE   C3A64483   3.690   5.452  12.413  0.2956  0.2664 -0.0690
 3552DPPE   C4A64484   3.563   5.003  12.348  0.0953  0.0935 -0.0595
 3552DPPE   C1B64485   4.080   5.666  13.425  0.0633 -0.0812 -0.3242
 3552DPPE   C2B64486   3.885   5.351  13.358 -0.1646 -0.4935  0.0106
 3552DPPE   C3B64487   3.442   5.194  13.358 -0.0954  0.3709  0.0793
 3552DPPE   C4B64488   3.099   4.857  13.240  0.3145 -0.0658  0.2423
 3553DPPE   NH364489   7.654   9.258   9.609  0.0863 -0.0545 -0.2001
 3553DPPE   PO464490   7.488   8.951   9.768  0.0917 -0.0489 -0.0628
 3553DPPE   GL164491   7.835   9.026  10.050  0.1582  0.0958 -0.0976
 3553DPPE   GL264492   7.869   9.298  10.193 -0.0163 -0.0707  0.2608
 3553DPPE   C1A64493   8.126   8.939  10.522  0.1376  0.1995  0.2995
 3553DPPE   C2A64494   8.276   8.544  10.746  0.0694  0.0865 -0.1106
 3553DPPE   C3A64495   8.592   8.189  10.860  0.1947 -0.0785 -0.1474
 3553DPPE   C4A64496   8.945   8.273  11.158  0.5702  0.1912  0.3844
 3553DPPE   C1B64497   8.332   9.393  10.339 -0.1978  0.0307  0.1303
 3553DPPE   C2B64498   8.688   9.316  10.343 -0.2919 -0.2122  0.0901
 3553DPPE   C3B64499   9.173   9.382  10.496  0.0087  0.0930  0.2542
 3553DPPE   C4B64500   9.440   9.741  10.587 -0.2943  0.0020 -0.1188
 3554DPPE   NH364501   8.043  10.865   7.677  0.1022  0.0173  0.1559
 3554DPPE   PO464502   7.623  10.732   7.850 -0.3413  0.1470  0.0757
 3554DPPE   GL164503   7.440  11.063   7.738  0.0314  0.1180  0.3536
 3554DPPE   GL264504   7.363  11.210   8.007  0.1431  0.0292 -0.0474
 3554DPPE   C1A64505   7.266  11.314   7.435 -0.2115  0.1471  0.1636
 3554DPPE   C2A64506   6.898  11.153   7.160  0.0700  0.1693 -0.2496
 3554DPPE   C3A64507   6.959  11.303   6.795 -0.0404 -0.1165  0.3605
 3554DPPE   C4A64508   7.308  11.500   6.405 -0.1842 -0.1268  0.3065
 3554DPPE   C1B64509   6.899  11.359   7.935  0.0096  0.2180 -0.0643
 3554DPPE   C2B64510   6.735  11.562   7.589  0.0306  0.0261  0.0289
 3554DPPE   C3B64511   6.645  11.566   7.204 -0.0013  0.0398  0.0128
 3554DPPE   C4B64512   6.506  11.599   6.795 -0.0065  0.2620  0.0870
 3555DPPE   NH364513  10.655  11.043   6.661  0.0180 -0.0464 -0.1078
 3555DPPE   PO464514  10.497  11.393   6.774 -0.0833 -0.3099  0.2049
 3555DPPE   GL164515  10.611  11.597   7.115  0.0374 -0.5260 -0.1163
 3555DPPE   GL264516  10.468  11.789   7.302  0.1071  0.1658 -0.0834
 3555DPPE   C1A64517  10.933  11.903   7.279 -0.1939  0.1847 -0.2610
 3555DPPE   C2A64518  11.062  12.242   7.387 -0.1024  0.0355  0.0232
 3555DPPE   C3A64519  11.150  12.629   7.422  0.0690 -0.1589 -0.0253
 3555DPPE   C4A64520  10.947  12.985   7.630 -0.2121 -0.1118  0.3011
 3555DPPE   C1B64521  10.570  12.122   7.539 -0.0173  0.0586  0.0216
 3555DPPE   C2B64522  10.717  12.141   7.995 -0.0328  0.1228  0.1130
 3555DPPE   C3B64523  10.772  12.045   8.482 -0.1062 -0.1619 -0.0013
 3555DPPE   C4B64524  11.013  11.983   8.812  0.2212 -0.2134  0.0441
 3556DPPE   NH364525  16.874   0.943   7.673 -0.0833 -0.0267 -0.2072
 3556DPPE   PO464526  17.236   1.201   7.390  0.1120  0.2581  0.0085
 3556DPPE   GL164527  17.505   1.012   7.002 -0.1074 -0.0063 -0.1683
 3556DPPE   GL264528  17.678   0.741   7.115 -0.0459  0.1993  0.2257
 3556DPPE   C1A64529  17.979   1.043   6.863  0.1495 -0.0883  0.1183
 3556DPPE   C2A64530  18.193   0.769   7.054  0.1177 -0.0552  0.2064
 3556DPPE   C3A64531  18.217   0.872   7.486  0.4437 -0.0401  0.0390
 3556DPPE   C4A64532  18.464   1.152   7.637  0.0947  0.4169  0.1582
 3556DPPE   C1B64533  17.801   0.581   6.776 -0.0199  0.0857 -0.0723
 3556DPPE   C2B64534  17.618   0.959   6.479  0.3495 -0.0725  0.1624
 3556DPPE   C3B64535  17.189   1.164   6.300 -0.2090 -0.4259  0.1014
 3556DPPE   C4B64536  16.757   1.101   6.132  0.0029  0.0013  0.0691
 3557DPPE   NH364537   7.793   6.633   8.601 -0.0543 -0.0823 -0.1840
 3557DPPE   PO464538   8.024   6.318   8.577  0.1977  0.2234 -0.1017
 3557DPPE   GL164539   7.615   6.113   8.362 -0.0258  0.3866  0.0967
 3557DPPE   GL264540   7.539   6.344   8.222 -0.3181  0.0495 -0.1235
 3557DPPE   C1A64541   7.317   5.804   8.207  0.1269 -0.1756 -0.1393
 3557DPPE   C2A64542   6.960   5.641   7.979 -0.0799  0.2325  0.3005
 3557DPPE   C3A64543   6.685   5.818   7.733 -0.4108  0.1322  0.1247
 3557DPPE   C4A64544   6.269   5.672   7.595  0.1244 -0.0064 -0.2542
 3557DPPE   C1B64545   7.278   6.263   7.958  0.0029 -0.0311  0.1912
 3557DPPE   C2B64546   6.989   6.412   7.631  0.0391  0.0507  0.2324
 3557DPPE   C3B64547   6.541   6.407   7.419  0.0660  0.0076 -0.0592
 3557DPPE   C4B64548   6.305   6.087   7.311 -0.1058 -0.2877  0.1031
 3558DPPE   NH364549  16.460   2.027   6.567 -0.2905 -0.0385  0.0111
 3558DPPE   PO464550  16.200   1.774   6.867 -0.2698  0.0558  0.1162
 3558DPPE   GL164551  16.240   1.577   6.486 -0.0681 -0.1265 -0.0188
 3558DPPE   GL264552  16.198   1.770   6.239 -0.4107  0.2209  0.2260
 3558DPPE   C1A64553  16.183   1.302   6.053 -0.3014 -0.1075  0.2229
 3558DPPE   C2A64554  16.187   1.069   5.696 -0.0971 -0.2410 -0.1659
 3558DPPE   C3A64555  16.356   1.118   5.343  0.2592 -0.0008 -0.0023
 3558DPPE   C4A64556  16.285   1.201   4.904 -0.1398  0.5569  0.3501
 3558DPPE   C1B64557  16.340   1.767   5.784 -0.0155 -0.1616 -0.0477
 3558DPPE   C2B64558  16.422   1.805   5.379 -0.2559  0.0714 -0.0107
 3558DPPE   C3B64559  16.630   1.568   4.917 -0.0933 -0.2470 -0.0448
 3558DPPE   C4B64560  16.674   1.185   4.561 -0.1768 -0.0299  0.2679
 3559DPPE   NH364561  11.019  10.849   5.230 -0.1787  0.0160 -0.1100
 3559DPPE   PO464562  10.793  11.008   5.364 -0.0264  0.0377 -0.0121
 3559DPPE   GL164563  10.709  11.186   4.962 -0.1451 -0.1502 -0.5709
 3559DPPE   GL264564  10.694  11.536   4.942 -0.2275 -0.0171  0.0430
 3559DPPE   C1A64565  10.531  11.054   4.587 -0.0567 -0.1384  0.1005
 3559DPPE   C2A64566  10.660  11.041   4.126 -0.2257 -0.1007  0.0834
 3559DPPE   C3A64567  11.073  11.099   3.923 -0.0978  0.2670 -0.0926
 3559DPPE   C4A64568  11.381  11.101   4.323  0.0325  0.0543 -0.0922
 3559DPPE   C1B64569  10.466  11.883   4.986 -0.2382 -0.3540 -0.0695
 3559DPPE   C2B64570  10.216  12.111   5.124  0.3661 -0.0689  0.0986
 3559DPPE   C3B64571  10.106  12.511   5.013 -0.1514  0.0906 -0.2310
 3559DPPE   C4B64572  10.028  12.926   4.960  0.1998 -0.2223 -0.1357
 3560DPPE   NH364573  11.445   5.162   6.424  0.1014  0.2684 -0.1110
 3560DPPE   PO464574  11.295   5.091   6.826  0.2163 -0.1189  0.1588
 3560DPPE   GL164575  11.025   4.845   6.473 -0.0805 -0.2366  0.2242
 3560DPPE   GL264576  10.984   4.538   6.624 -0.0720  0.1973 -0.1264
 3560DPPE   C1A64577  10.713   4.977   6.128  0.0149 -0.1230 -0.2092
 3560DPPE   C2A64578  10.330   4.992   5.862  0.1913  0.0720 -0.1530
 3560DPPE   C3A64579  10.011   4.997   5.552  0.2997  0.1784  0.1841
 3560DPPE   C4A64580   9.767   4.807   5.256 -0.1342  0.1006 -0.1831
 3560DPPE   C1B64581  10.991   4.476   6.172  0.1635 -0.2841 -0.2968
 3560DPPE   C2B64582  10.807   4.485   5.895 -0.2207  0.0542  0.2762
 3560DPPE   C3B64583  10.725   4.171   5.588  0.2784  0.4043  0.1458
 3560DPPE   C4B64584  10.902   3.961   5.239  0.0117  0.0018  0.2161
 3561DPPE   NH364585   8.686   9.086   8.327  0.2067 -0.1056  0.0962
 3561DPPE   PO464586   8.724   8.761   8.598  0.3413  0.2103  0.1164
 3561DPPE   GL164587   9.071   8.959   8.825 -0.1564 -0.1377 -0.0471
 3561DPPE   GL264588   8.952   9.265   8.800  0.0661 -0.2109  0.2790
 3561DPPE   C1A64589   9.297   8.831   9.199  0.1356 -0.1158 -0.2340
 3561DPPE   C2A64590   9.653   8.969   9.260 -0.0987 -0.1080  0.1557
 3561DPPE   C3A64591  10.117   9.103   9.305 -0.2810 -0.3418 -0.0201
 3561DPPE   C4A64592  10.422   9.102   9.574 -0.0265  0.0745 -0.0539
 3561DPPE   C1B64593   9.276   9.363   9.064 -0.1734  0.2403  0.1925
 3561DPPE   C2B64594   9.619   9.515   9.213  0.2669  0.1133 -0.0398
 3561DPPE   C3B64595   9.915   9.867   9.251  0.1111 -0.0533 -0.2409
 3561DPPE   C4B64596  10.021  10.236   9.312 -0.0545  0.2710  0.1163
 3562DPPE   NH364597  12.385   0.731   8.925 -0.0081  0.1478  0.1054
 3562DPPE   PO464598  12.286   0.481   9.325 -0.0028  0.2040  0.0715
 3562DPPE   GL164599  12.156   0.229   8.987  0.0856 -0.3686 -0.1108
 3562DPPE   GL264600  12.080  -0.122   8.989  0.2702 -0.4693 -0.0337
 3562DPPE   C1A64601  12.165   0.165   8.520 -0.1707 -0.2573 -0.0118
 3562DPPE   C2A64602  12.339  -0.167   8.323  0.3063  0.0044 -0.1304
 3562DPPE   C3A64603  12.566  -0.322   7.947  0.0552  0.2788  0.1577
 3562DPPE   C4A64604  12.877  -0.239   7.545  0.1316  0.1878  0.2184
 3562DPPE   C1B64605  11.954  -0.361   8.673 -0.2395  0.2869  0.0351
 3562DPPE   C2B64606  12.118  -0.611   8.290 -0.0965  0.1293  0.1574
 3562DPPE   C3B64607  12.344  -0.868   7.924 -0.0555 -0.2349 -0.2125
 3562DPPE   C4B64608  12.440  -0.808   7.467 -0.0281  0.1865  0.1077
 3563DPPE   NH364609  11.667   6.755   5.334  0.0113  0.1898  0.0499
 3563DPPE   PO464610  11.816   7.271   5.286  0.0886 -0.0219  0.0430
 3563DPPE   GL164611  11.632   7.095   4.923 -0.0133  0.0919 -0.3362
 3563DPPE   GL264612  11.275   7.051   4.909  0.0643 -0.4626  0.1608
 3563DPPE   C1A64613  11.592   7.094   4.450  0.3213  0.1779 -0.0159
 3563DPPE   C2A64614  11.346   7.299   4.173 -0.3020  0.2467  0.2503
 3563DPPE   C3A64615  11.125   7.151   3.814  0.0609  0.1432 -0.1008
 3563DPPE   C4A64616  10.701   7.144   3.634 -0.1808  0.3631 -0.0516
 3563DPPE   C1B64617  11.066   7.016   4.491  0.0690 -0.4728  0.1927
 3563DPPE   C2B64618  10.784   6.976   4.122  0.0286  0.0758  0.1048
 3563DPPE   C3B64619  10.659   6.629   3.851  0.1697  0.3935 -0.1986
 3563DPPE   C4B64620  10.252   6.367   3.867  0.2967 -0.5315 -0.2413
 3564DPPE   NH364621   5.674   7.877  15.649 -0.0135  0.1924 -0.0790
 3564DPPE   PO464622   5.767   7.516  15.975  0.1749  0.0713 -0.1487
 3564DPPE   GL164623   5.523   7.784  16.178  0.0558 -0.1381  0.3794
 3564DPPE   GL264624   5.546   7.998  16.421 -0.2763 -0.2821  0.0315
 3564DPPE   C1A64625   5.277   7.598  16.453 -0.0737  0.1917  0.1747
 3564DPPE   C2A64626   5.069   7.550  16.888 -0.2520  0.2373 -0.2172
 3564DPPE   C3A64627   5.019   7.277  17.237 -0.4567 -0.1633 -0.2303
 3564DPPE   C4A64628   4.855   6.959  17.472 -0.2135 -0.2469  0.0561
 3564DPPE   C1B64629   5.290   8.062  16.771  0.0167  0.0159  0.1639
 3564DPPE   C2B64630   5.216   7.962  17.193  0.0952  0.2117  0.2061
 3564DPPE   C3B64631   5.183   7.788  17.695  0.1558 -0.1714  0.1423
 3564DPPE   C4B64632   5.603   7.561  17.935  0.0914 -0.2243 -0.1690
 3565DPPE   NH364633   6.980  10.591  10.705  0.3035  0.3645 -0.0722
 3565DPPE   PO464634   6.865  11.128  10.734 -0.0394  0.0260 -0.0640
 3565DPPE   GL164635   7.088  11.465  10.845 -0.0533  0.1723  0.2619
 3565DPPE   GL264636   7.105  11.376  11.181 -0.2300 -0.0699  0.3184
 3565DPPE   C1A64637   7.364  11.794  10.754  0.1644 -0.0630 -0.0968
 3565DPPE   C2A64638   7.687  12.004  10.955 -0.0460  0.1723  0.0895
 3565DPPE   C3A64639   7.777  12.371  11.080 -0.0068 -0.2654  0.1008
 3565DPPE   C4A64640   7.932  12.698  11.293  0.3957 -0.1156 -0.1523
 3565DPPE   C1B64641   7.362  11.761  11.288  0.3892 -0.1463  0.1159
 3565DPPE   C2B64642   7.538  12.131  11.445 -0.1689  0.3446  0.2352
 3565DPPE   C3B64643   7.919  12.323  11.687  0.0292 -0.0077  0.1125
 3565DPPE   C4B64644   8.333  12.558  11.653 -0.1184  0.1509  0.2634
 3566DPPE   NH364645  14.749   1.209   7.548 -0.1317  0.2892 -0.1844
 3566DPPE   PO464646  14.313   1.272   7.791  0.1953  0.1070  0.0481
 3566DPPE   GL164647  14.179   0.992   7.478  0.0681  0.1759 -0.0192
 3566DPPE   GL264648  14.427   0.769   7.449  0.1656  0.2540  0.0082
 3566DPPE   C1A64649  14.021   0.961   7.118  0.2005 -0.1404 -0.1945
 3566DPPE   C2A64650  14.030   0.947   6.654 -0.0119 -0.0790 -0.3638
 3566DPPE   C3A64651  13.968   0.863   6.280  0.0614 -0.2120  0.0715
 3566DPPE   C4A64652  13.985   0.923   5.788  0.0892  0.1206 -0.2296
 3566DPPE   C1B64653  14.284   0.439   7.123  0.1378 -0.1869  0.0977
 3566DPPE   C2B64654  14.198   0.444   6.671  0.1337 -0.2818 -0.1021
 3566DPPE   C3B64655  14.104   0.377   6.196  0.0898  0.1046  0.1113
 3566DPPE   C4B64656  14.054   0.340   5.830  0.2503 -0.1866 -0.0352
 3567DPPE   NH364657  17.377   5.322   6.037 -0.3537  0.2508 -0.0409
 3567DPPE   PO464658  17.265   5.299   5.623  0.1055  0.3375  0.0994
 3567DPPE   GL164659  17.664   5.486   5.689 -0.0194 -0.0276  0.1514
 3567DPPE   GL264660  17.855   5.526   5.972  0.2112  0.2939  0.2020
 3567DPPE   C1A64661  17.969   5.874   5.671 -0.1947  0.1496  0.1021
 3567DPPE   C2A64662  18.321   6.236   5.757 -0.0150 -0.2917 -0.4080
 3567DPPE   C3A64663  18.521   6.593   5.929  0.1848  0.1464 -0.0512
 3567DPPE   C4A64664  18.877   6.734   6.129 -0.1001 -0.1324 -0.1553
 3567DPPE   C1B64665  18.008   5.857   6.269  0.1233 -0.1681  0.3369
 3567DPPE   C2B64666  17.783   6.122   6.520  0.3629 -0.0128 -0.1695
 3567DPPE   C3B64667  18.093   6.352   6.722  0.0346 -0.2478 -0.2289
 3567DPPE   C4B64668  18.306   6.585   7.083  0.0042  0.3231 -0.0291
 3568DPPE   NH364669   7.263  10.563   8.799  0.0013 -0.1951  0.0978
 3568DPPE   PO464670   7.188  10.297   8.509  0.2614 -0.0847  0.1540
 3568DPPE   GL164671   6.711  10.204   8.511  0.2071  0.1010  0.1033
 3568DPPE   GL264672   6.447  10.123   8.872 -0.1161 -0.1546  0.0102
 3568DPPE   C1A64673   6.376  10.486   8.534 -0.1424 -0.2677 -0.0598
 3568DPPE   C2A64674   6.114  10.715   8.807  0.1297 -0.1264  0.1392
 3568DPPE   C3A64675   5.609  10.676   8.896 -0.0497 -0.0232 -0.3130
 3568DPPE   C4A64676   5.209  10.735   9.168 -0.1721  0.0763 -0.1243
 3568DPPE   C1B64677   6.268   9.992   8.421  0.0321 -0.1284 -0.4634
 3568DPPE   C2B64678   5.983   9.922   8.083  0.2161  0.5369  0.1048
 3568DPPE   C3B64679   5.497   9.958   8.014  0.2150  0.1173 -0.2772
 3568DPPE   C4B64680   5.160  10.025   8.007 -0.1416 -0.0925  0.1934
 3569DPPE   NH364681  13.701   2.147   7.573 -0.1790  0.2893 -0.2327
 3569DPPE   PO464682  13.637   1.871   7.995  0.0721  0.2119 -0.1442
 3569DPPE   GL164683  13.491   1.522   7.755  0.1083 -0.2177  0.0712
 3569DPPE   GL264684  13.554   1.251   7.679  0.2357 -0.4666 -0.1042
 3569DPPE   C1A64685  13.210   1.493   7.380 -0.0876 -0.0554  0.0202
 3569DPPE   C2A64686  13.189   1.120   7.140 -0.0943 -0.2643 -0.1832
 3569DPPE   C3A64687  12.892   0.910   6.878  0.0130  0.1434 -0.0420
 3569DPPE   C4A64688  12.973   0.700   6.490 -0.3875 -0.2309 -0.1768
 3569DPPE   C1B64689  13.575   0.887   7.401 -0.1829 -0.0742 -0.0814
 3569DPPE   C2B64690  13.316   0.589   7.138  0.0410  0.2950 -0.1090
 3569DPPE   C3B64691  13.288   0.351   6.800 -0.0283 -0.0799  0.3696
 3569DPPE   C4B64692  13.232   0.310   6.370 -0.1583  0.2547  0.1758
 3570DPPE   NH364693   7.225   2.190  13.670 -0.0148 -0.1578  0.1276
 3570DPPE   PO464694   7.180   1.980  13.846  0.2172 -0.3104 -0.0736
 3570DPPE   GL164695   6.905   1.608  13.858  0.3674 -0.0062  0.1645
 3570DPPE   GL264696   6.871   1.737  14.255 -0.2951 -0.1446  0.0196
 3570DPPE   C1A64697   6.619   1.275  13.861 -0.2157 -0.0078 -0.1742
 3570DPPE   C2A64698   6.171   1.230  13.660  0.0380  0.0054  0.0024
 3570DPPE   C3A64699   5.696   1.205  13.442  0.0694  0.0975 -0.0749
 3570DPPE   C4A64700   5.407   0.938  13.347 -0.0698 -0.1428 -0.4239
 3570DPPE   C1B64701   6.829   1.289  14.373  0.2185 -0.0682 -0.0828
 3570DPPE   C2B64702   6.582   0.919  14.306  0.1916 -0.0754  0.0470
 3570DPPE   C3B64703   6.418   0.515  14.343 -0.1514  0.0124  0.0790
 3570DPPE   C4B64704   6.256   0.047  14.223  0.1726 -0.2855  0.4033
 3571DPPE   NH364705  15.943   0.148   8.362  0.0386  0.0812  0.3319
 3571DPPE   PO464706  16.149  -0.065   8.549 -0.3803  0.0290  0.0317
 3571DPPE   GL164707  16.274  -0.292   8.211 -0.0553 -0.2122 -0.0319
 3571DPPE   GL264708  16.003  -0.373   8.166  0.0868  0.1732 -0.0712
 3571DPPE   C1A64709  16.443  -0.706   7.942  0.2202 -0.0955  0.2168
 3571DPPE   C2A64710  16.625  -0.959   7.628 -0.0890  0.1144 -0.3597
 3571DPPE   C3A64711  16.796  -0.923   7.285 -0.0039 -0.1731 -0.0310
 3571DPPE   C4A64712  16.631  -0.897   6.847  0.1065 -0.1606 -0.1685
 3571DPPE   C1B64713  15.934  -0.599   7.938 -0.1535  0.2430  0.0301
 3571DPPE   C2B64714  15.617  -0.762   7.655 -0.2660 -0.1261  0.0332
 3571DPPE   C3B64715  15.573  -1.109   7.380  0.1163 -0.0753  0.0979
 3571DPPE   C4B64716  15.435  -1.484   7.358 -0.0245  0.1418  0.1116
 3572DPPE   NH364717   9.345   1.597  14.810  0.1919 -0.1241 -0.0035
 3572DPPE   PO464718   9.135   1.886  14.996  0.0685 -0.2693  0.0436
 3572DPPE   GL164719   9.345   2.084  15.233  0.1983  0.2301 -0.0679
 3572DPPE   GL264720   9.218   2.072  15.507 -0.0934 -0.1361  0.1067
 3572DPPE   C1A64721   9.592   2.445  15.246  0.1278 -0.1606 -0.1091
 3572DPPE   C2A64722   9.970   2.630  15.119 -0.0976  0.0938  0.0645
 3572DPPE   C3A64723  10.169   3.012  15.087  0.1243  0.2356 -0.2938
 3572DPPE   C4A64724  10.534   3.226  14.964  0.0053 -0.0475  0.0788
 3572DPPE   C1B64725   9.620   2.215  15.665 -0.0321  0.2544  0.0491
 3572DPPE   C2B64726   9.973   2.536  15.608  0.0458  0.1216 -0.2080
 3572DPPE   C3B64727  10.220   2.890  15.601 -0.1422  0.3600  0.1510
 3572DPPE   C4B64728  10.223   3.185  15.790 -0.0751  0.1796 -0.3119
 3573DPPE   NH364729  14.884   2.724   6.395  0.6024  0.0595  0.0188
 3573DPPE   PO464730  14.338   2.652   6.449 -0.1358  0.1680 -0.1131
 3573DPPE   GL164731  14.214   2.478   6.161  0.1874  0.0950 -0.0974
 3573DPPE   GL264732  14.060   2.579   5.870 -0.4341  0.3782  0.2026
 3573DPPE   C1A64733  13.907   2.141   6.062  0.0663 -0.1579 -0.0870
 3573DPPE   C2A64734  13.851   1.768   5.923  0.0347  0.1098 -0.2947
 3573DPPE   C3A64735  13.825   1.435   5.618 -0.2040  0.0398 -0.0891
 3573DPPE   C4A64736  13.879   1.088   5.267  0.1656  0.1707 -0.1989
 3573DPPE   C1B64737  13.704   2.422   5.643  0.1663  0.1069  0.0136
 3573DPPE   C2B64738  13.769   2.151   5.251 -0.0821  0.1245 -0.5477
 3573DPPE   C3B64739  13.598   1.687   5.114 -0.0212 -0.1196 -0.4667
 3573DPPE   C4B64740  13.524   1.309   4.870 -0.1046 -0.1765 -0.2146
 3574DPPE   NH364741   9.686   1.210  15.497  0.0010 -0.2492 -0.0142
 3574DPPE   PO464742   9.320   1.526  15.442  0.0031 -0.1206  0.2325
 3574DPPE   GL164743   9.573   1.750  15.731  0.1808 -0.0110  0.0061
 3574DPPE   GL264744   9.678   1.583  16.041  0.1587 -0.1165 -0.2524
 3574DPPE   C1A64745   9.997   1.735  15.663  0.0056  0.0962 -0.2360
 3574DPPE   C2A64746  10.491   1.942  15.736  0.2087  0.1117 -0.0476
 3574DPPE   C3A64747  10.813   1.932  15.602 -0.0289  0.1392  0.3793
 3574DPPE   C4A64748  11.203   2.079  15.438 -0.0032  0.0643  0.0638
 3574DPPE   C1B64749   9.967   1.720  16.221 -0.2342  0.1789  0.0276
 3574DPPE   C2B64750  10.184   1.921  16.453 -0.2015  0.0635 -0.2099
 3574DPPE   C3B64751  10.429   2.168  16.662 -0.2538 -0.1568  0.0093
 3574DPPE   C4B64752  10.434   2.401  17.025 -0.1167  0.1774  0.0044
 3575DPPE   NH364753   6.727   8.073  11.189  0.0338  0.1678 -0.0845
 3575DPPE   PO464754   6.891   8.438  11.195 -0.1026  0.2858 -0.1571
 3575DPPE   GL164755   7.131   8.632  11.370  0.1093  0.0953  0.2973
 3575DPPE   GL264756   7.227   8.680  11.689 -0.2511  0.0022  0.1350
 3575DPPE   C1A64757   7.572   8.642  11.367  0.0594 -0.0379  0.0144
 3575DPPE   C2A64758   7.873   8.686  11.532 -0.1115 -0.1332 -0.4224
 3575DPPE   C3A64759   8.177   8.574  11.711 -0.0774 -0.1753 -0.0256
 3575DPPE   C4A64760   8.568   8.794  11.758  0.1726 -0.0791 -0.1101
 3575DPPE   C1B64761   7.515   8.848  11.975 -0.0065 -0.3608  0.1764
 3575DPPE   C2B64762   8.028   8.979  11.923  0.2973 -0.0040  0.1412
 3575DPPE   C3B64763   8.403   9.084  12.116  0.5745 -0.0319 -0.0156
 3575DPPE   C4B64764   8.789   8.878  12.342 -0.1462  0.0303 -0.0445
 3576DPPE   NH364765   5.763   9.587  10.894 -0.1909 -0.3637  0.0055
 3576DPPE   PO464766   5.475   9.774  11.148  0.1354  0.0398  0.0417
 3576DPPE   GL164767   5.076   9.626  11.115  0.3039  0.2065 -0.0001
 3576DPPE   GL264768   4.943   9.325  11.308 -0.0346  0.4665  0.0160
 3576DPPE   C1A64769   4.634   9.768  10.919 -0.2166 -0.0802 -0.2044
 3576DPPE   C2A64770   4.552  10.197  10.831 -0.0597  0.0127 -0.0585
 3576DPPE   C3A64771   4.147  10.415  10.886 -0.0660 -0.0586  0.1230
 3576DPPE   C4A64772   3.736  10.583  10.698  0.0808  0.0730  0.1013
 3576DPPE   C1B64773   4.515   9.458  11.337  0.0350  0.2858 -0.2628
 3576DPPE   C2B64774   4.190   9.575  11.032 -0.0053  0.0912  0.0260
 3576DPPE   C3B64775   3.956   9.471  10.624  0.0718 -0.0114  0.2987
 3576DPPE   C4B64776   3.752   9.649  10.284  0.2043  0.1582 -0.0545
 3577DPPE   NH364777  13.080   7.491   4.658 -0.2676 -0.0493 -0.1111
 3577DPPE   PO464778  12.922   7.883   4.649  0.2411  0.0173  0.2250
 3577DPPE   GL164779  12.763   7.720   4.296  0.1847 -0.3711 -0.2091
 3577DPPE   GL264780  12.720   7.466   4.302  0.1259  0.1479 -0.2500
 3577DPPE   C1A64781  12.856   7.702   3.843  0.0312 -0.1643  0.0861
 3577DPPE   C2A64782  13.068   7.845   3.514  0.1299 -0.2356 -0.1292
 3577DPPE   C3A64783  13.086   8.014   3.153 -0.1264 -0.4573  0.4633
 3577DPPE   C4A64784  13.357   8.232   2.870 -0.0126  0.0494 -0.1735
 3577DPPE   C1B64785  12.436   7.301   3.922  0.0143 -0.0456  0.1819
 3577DPPE   C2B64786  12.212   7.193   3.529  0.2020 -0.0399 -0.2608
 3577DPPE   C3B64787  12.110   7.054   3.313  0.1725 -0.2505 -0.0662
 3577DPPE   C4B64788  12.015   6.792   2.929 -0.3422 -0.1933  0.0043
 3578DPPE   NH364789  17.126   4.000   5.733  0.1128  0.0085 -0.3446
 3578DPPE   PO464790  16.689   3.948   5.628 -0.1737  0.1720  0.0713
 3578DPPE   GL164791  16.787   3.679   5.339 -0.2742 -0.0484 -0.3286
 3578DPPE   GL264792  16.992   3.396   5.359 -0.0071  0.0776 -0.0956
 3578DPPE   C1A64793  16.703   3.731   4.917 -0.3250  0.2604  0.3130
 3578DPPE   C2A64794  16.780   3.724   4.490  0.3909 -0.1800 -0.1018
 3578DPPE   C3A64795  17.116   3.573   4.325 -0.1831 -0.4709 -0.0737
 3578DPPE   C4A64796  17.354   3.202   4.130 -0.5554  0.1491  0.3574
 3578DPPE   C1B64797  16.902   3.201   4.975  0.1114 -0.0930  0.1266
 3578DPPE   C2B64798  16.950   3.142   4.513  0.0450  0.2737  0.1053
 3578DPPE   C3B64799  16.854   3.204   4.067 -0.3152  0.0586 -0.0248
 3578DPPE   C4B64800  16.659   3.220   3.688  0.3028  0.0303 -0.2497
 3579DPPE   NH364801   7.205   4.123  14.607 -0.1039  0.1374 -0.1878
 3579DPPE   PO464802   6.982   4.336  14.978  0.3214  0.0340 -0.1220
 3579DPPE   GL164803   7.445   4.340  14.964 -0.1925 -0.0745  0.2442
 3579DPPE   GL264804   7.477   4.559  14.664  0.1275 -0.0213 -0.1345
 3579DPPE   C1A64805   7.662   4.590  15.149 -0.1520  0.0335  0.2057
 3579DPPE   C2A64806   7.771   4.966  15.498  0.4499  0.0626  0.0302
 3579DPPE   C3A64807   8.023   5.224  15.705 -0.0333  0.1963  0.2228
 3579DPPE   C4A64808   8.145   5.658  15.870 -0.1000  0.0526 -0.0273
 3579DPPE   C1B64809   7.837   4.854  14.736  0.0871 -0.1326  0.1791
 3579DPPE   C2B64810   8.150   4.972  14.810 -0.0042 -0.1843  0.0788
 3579DPPE   C3B64811   8.509   5.098  15.017  0.0945 -0.1113 -0.0254
 3579DPPE   C4B64812   8.736   5.383  15.120  0.0174 -0.0609 -0.1022
 3580DPPE   NH364813   9.030   4.152  10.815 -0.1542  0.1346  0.1066
 3580DPPE   PO464814   9.132   3.818  11.058  0.2201 -0.0043 -0.2790
 3580DPPE   GL164815   9.327   4.173  11.285  0.1232 -0.0859 -0.2264
 3580DPPE   GL264816   9.111   4.421  11.296 -0.1714 -0.0209  0.1726
 3580DPPE   C1A64817   9.583   4.510  11.443  0.1274  0.3968 -0.2691
 3580DPPE   C2A64818   9.736   4.918  11.399 -0.1518  0.1543 -0.1151
 3580DPPE   C3A64819  10.011   5.148  11.512  0.0768 -0.0351 -0.0173
 3580DPPE   C4A64820  10.181   5.260  11.921 -0.4217 -0.0519  0.0035
 3580DPPE   C1B64821   9.195   4.765  11.561 -0.0533  0.1804 -0.3081
 3580DPPE   C2B64822   9.392   5.128  11.743 -0.0529  0.1215 -0.1387
 3580DPPE   C3B64823   9.708   5.106  12.040 -0.1805 -0.3528  0.4506
 3580DPPE   C4B64824   9.962   4.716  11.862  0.1532 -0.0303  0.0206
 3581DPPE   NH364825   8.291   3.079  12.682  0.1670  0.0057 -0.1942
 3581DPPE   PO464826   8.254   2.749  12.964 -0.0911  0.0461  0.0761
 3581DPPE   GL164827   8.434   3.026  13.200  0.0394  0.0626 -0.0882
 3581DPPE   GL264828   8.700   2.940  13.478  0.0395  0.1896  0.0316
 3581DPPE   C1A64829   8.793   3.394  13.156 -0.0240 -0.1691 -0.1000
 3581DPPE   C2A64830   8.913   3.776  13.085  0.3385  0.2737  0.3001
 3581DPPE   C3A64831   9.037   4.172  12.849 -0.2537 -0.3270  0.0309
 3581DPPE   C4A64832   9.415   4.502  12.983 -0.1053  0.0757 -0.2342
 3581DPPE   C1B64833   9.144   2.913  13.375  0.1904 -0.0669  0.0941
 3581DPPE   C2B64834   9.359   2.923  13.024 -0.0056  0.0452  0.1486
 3581DPPE   C3B64835   9.537   2.916  12.542  0.1456  0.1100  0.1036
 3581DPPE   C4B64836   9.885   2.814  12.328  0.0110 -0.0713  0.1263
 3582DPPE   NH364837  10.157   3.002   9.667 -0.2449  0.0930  0.1634
 3582DPPE   PO464838  10.398   3.352   9.928 -0.0646 -0.4205 -0.1120
 3582DPPE   GL164839  10.587   3.527  10.270  0.1870 -0.0688 -0.0413
 3582DPPE   GL264840  10.423   3.523  10.601 -0.1062 -0.0378 -0.1808
 3582DPPE   C1A64841  10.719   3.922  10.427  0.1714  0.0372 -0.0759
 3582DPPE   C2A64842  10.764   4.138  10.768  0.0536  0.2390  0.1003
 3582DPPE   C3A64843  11.033   4.265  11.003 -0.1465 -0.2312  0.2064
 3582DPPE   C4A64844  11.285   4.423  11.285 -0.2591 -0.0543  0.0147
 3582DPPE   C1B64845  10.695   3.611  10.886  0.0456  0.1106 -0.1325
 3582DPPE   C2B64846  10.840   3.861  11.225  0.0618  0.3000 -0.0940
 3582DPPE   C3B64847  11.069   4.074  11.504  0.0312 -0.0724  0.3311
 3582DPPE   C4B64848  11.170   4.361  11.768 -0.1141 -0.1143  0.2174
 3583DPPE   NH364849  15.308   0.251  10.443  0.1298  0.0746 -0.1524
 3583DPPE   PO464850  15.635   0.015  10.384 -0.1959 -0.1723  0.1266
 3583DPPE   GL164851  15.798   0.177  10.668  0.1799 -0.1211  0.1722
 3583DPPE   GL264852  16.058   0.271  10.706 -0.0923  0.1153 -0.4625
 3583DPPE   C1A64853  15.778   0.250  11.103 -0.1848  0.2218 -0.2361
 3583DPPE   C2A64854  15.709   0.420  11.550 -0.1794  0.1835 -0.3384
 3583DPPE   C3A64855  15.684   0.667  11.880  0.0081 -0.1078  0.0551
 3583DPPE   C4A64856  15.703   1.161  11.904 -0.2971 -0.1646 -0.4330
 3583DPPE   C1B64857  15.957   0.682  10.733 -0.3309  0.2786  0.1911
 3583DPPE   C2B64858  15.933   1.067  10.620  0.2973 -0.4565  0.0986
 3583DPPE   C3B64859  15.665   1.383  10.587 -0.1512 -0.0756 -0.2171
 3583DPPE   C4B64860  15.274   1.311  10.658 -0.1242 -0.3666 -0.2542
 3584DPPE   NH364861   8.207   9.795   8.382 -0.2264  0.1329  0.0601
 3584DPPE   PO464862   8.540  10.103   8.474 -0.1096 -0.0738  0.3607
 3584DPPE   GL164863   8.944  10.158   8.736 -0.2054 -0.0936  0.3630
 3584DPPE   GL264864   9.250   9.893   8.686  0.3228  0.2211  0.0053
 3584DPPE   C1A64865   9.214  10.423   9.012  0.4080  0.1146 -0.0480
 3584DPPE   C2A64866   9.535  10.461   9.351  0.2867 -0.2709 -0.2036
 3584DPPE   C3A64867   9.730  10.271   9.769  0.0007 -0.1004  0.0195
 3584DPPE   C4A64868  10.028  10.199   9.837  0.1268 -0.2399 -0.0537
 3584DPPE   C1B64869   9.582  10.099   8.901 -0.2503 -0.0292  0.5846
 3584DPPE   C2B64870  10.011  10.250   8.780 -0.3772  0.0211 -0.1982
 3584DPPE   C3B64871  10.447  10.425   9.009 -0.1041  0.3606 -0.0387
 3584DPPE   C4B64872  10.959  10.257   9.139 -0.1838  0.0872 -0.4230
 3585DPPE   NH364873   6.969   5.978  10.535 -0.3992 -0.2371 -0.5131
 3585DPPE   PO464874   6.915   5.451  10.520  0.0782 -0.0702  0.4476
 3585DPPE   GL164875   6.505   5.302  10.338 -0.0079 -0.1199 -0.1307
 3585DPPE   GL264876   6.394   5.171  10.032 -0.3414 -0.1206  0.3254
 3585DPPE   C1A64877   6.099   5.321  10.359 -0.1243 -0.0624  0.0019
 3585DPPE   C2A64878   5.970   4.917  10.115 -0.0746 -0.0552 -0.2093
 3585DPPE   C3A64879   5.910   4.574   9.829 -0.0199 -0.4249 -0.1947
 3585DPPE   C4A64880   5.780   4.200   9.972  0.0098 -0.1364 -0.0657
 3585DPPE   C1B64881   6.161   5.042   9.630 -0.0482 -0.1283 -0.0079
 3585DPPE   C2B64882   6.135   5.240   9.225 -0.1261 -0.3045 -0.0430
 3585DPPE   C3B64883   6.156   4.994   8.796 -0.2398  0.2535  0.0354
 3585DPPE   C4B64884   5.891   4.980   8.369  0.0890  0.1874 -0.2999
 3586DPPE   NH364885   5.701   3.971  14.229 -0.3776  0.3648 -0.1311
 3586DPPE   PO464886   5.849   3.999  14.668  0.0041  0.2783  0.5458
 3586DPPE   GL164887   5.400   3.796  14.644  0.3089 -0.0331 -0.2145
 3586DPPE   GL264888   5.044   3.998  14.934 -0.1978 -0.0984 -0.1896
 3586DPPE   C1A64889   5.091   3.600  14.499  0.0168  0.3352 -0.4717
 3586DPPE   C2A64890   5.006   3.320  14.252  0.0659 -0.0393  0.3143
 3586DPPE   C3A64891   4.805   3.090  13.891 -0.0072  0.0206  0.2100
 3586DPPE   C4A64892   4.659   3.207  13.504  0.2654 -0.1380 -0.0505
 3586DPPE   C1B64893   4.724   3.724  14.899 -0.0471 -0.1487 -0.1285
 3586DPPE   C2B64894   4.337   3.769  15.063  0.4120  0.1066 -0.0048
 3586DPPE   C3B64895   4.003   4.055  15.192 -0.3319 -0.0366  0.0624
 3586DPPE   C4B64896   3.573   4.134  14.880  0.0159  0.1425 -0.4518
 3587DPPE   NH364897  15.078  36.120  11.553  0.1443 -0.0157  0.1206
 3587DPPE   PO464898  15.271  36.420  11.501 -0.2032  0.1261  0.2457
 3587DPPE   GL164899  15.711  36.296  11.554 -0.0404 -0.4262  0.1835
 3587DPPE   GL264900  15.791  36.187  11.873 -0.0685 -0.0105 -0.0361
 3587DPPE   C1A64901  16.068  36.411  11.526 -0.0004  0.4615  0.0793
 3587DPPE   C2A64902  16.430  36.264  11.499 -0.1758  0.2164  0.0261
 3587DPPE   C3A64903  16.849  35.954  11.374  0.0284  0.1585  0.0380
 3587DPPE   C4A64904  17.213  35.750  11.351  0.3361  0.1836  0.1180
 3587DPPE   C1B64905  16.136  36.180  12.132  0.1900 -0.0211  0.1919
 3587DPPE   C2B64906  16.366  36.376  12.384  0.0412  0.1011 -0.0441
 3587DPPE   C3B64907  16.411  36.670  12.641  0.1666  0.0628 -0.0803
 3587DPPE   C4B64908  16.506  36.678  12.997 -0.1612  0.1591  0.0422
 3588DPPE   NH364909  13.735   3.563   7.885 -0.2347  0.0053  0.2140
 3588DPPE   PO464910  14.130   3.659   7.759  0.0659  0.0343 -0.0776
 3588DPPE   GL164911  14.286   3.821   8.131  0.1024 -0.3949 -0.0761
 3588DPPE   GL264912  14.249   4.156   8.059 -0.2471  0.0406 -0.0481
 3588DPPE   C1A64913  14.510   3.647   8.462 -0.0709  0.2639  0.0283
 3588DPPE   C2A64914  14.428   3.288   8.831  0.4019 -0.2106 -0.2595
 3588DPPE   C3A64915  14.248   3.386   9.163 -0.1239 -0.1481  0.2706
 3588DPPE   C4A64916  13.886   3.141   9.459 -0.0462 -0.1866  0.4091
 3588DPPE   C1B64917  14.443   4.273   8.520  0.1995 -0.1167 -0.0054
 3588DPPE   C2B64918  14.519   4.359   8.909  0.0669  0.0876 -0.2051
 3588DPPE   C3B64919  14.504   4.221   9.196 -0.0240  0.0254 -0.1045
 3588DPPE   C4B64920  14.334   4.358   9.619  0.0863 -0.1807  0.0407
 3589DPPE   NH364921  15.796   6.779   5.773  0.1964  0.1462  0.2243
 3589DPPE   PO464922  16.122   6.579   5.782 -0.3265  0.3466 -0.0000
 3589DPPE   GL164923  16.357   6.967   5.977 -0.0193  0.1415 -0.3749
 3589DPPE   GL264924  16.095   7.082   6.049 -0.1593 -0.1369  0.1702
 3589DPPE   C1A64925  16.689   7.020   6.300 -0.2516  0.0011  0.0938
 3589DPPE   C2A64926  16.961   7.140   6.709 -0.0770  0.2045  0.0986
 3589DPPE   C3A64927  16.913   7.262   7.085 -0.1177  0.2499  0.1765
 3589DPPE   C4A64928  16.935   7.172   7.419  0.1815  0.0349 -0.0160
 3589DPPE   C1B64929  15.913   7.464   6.240 -0.1533 -0.2274  0.1101
 3589DPPE   C2B64930  16.159   7.869   6.341 -0.0497  0.0084  0.0318
 3589DPPE   C3B64931  16.540   8.108   6.428 -0.0650  0.3501 -0.2986
 3589DPPE   C4B64932  16.741   8.579   6.457  0.1002  0.0792  0.2383
 3590DPPE   NH364933  13.839   0.220   8.968  0.0152  0.3677 -0.1388
 3590DPPE   PO464934  14.151  -0.089   8.950 -0.2382 -0.1951  0.0023
 3590DPPE   GL164935  14.313  -0.372   8.736  0.3198  0.0762  0.1871
 3590DPPE   GL264936  14.417  -0.194   8.330  0.3509 -0.2104 -0.1659
 3590DPPE   C1A64937  14.536  -0.637   8.504 -0.2956 -0.1027  0.2443
 3590DPPE   C2A64938  14.638  -1.018   8.298  0.0834 -0.0321  0.0621
 3590DPPE   C3A64939  14.995  -1.143   8.032  0.1733  0.0928  0.1495
 3590DPPE   C4A64940  15.225  -1.315   7.798 -0.1740 -0.0808 -0.2264
 3590DPPE   C1B64941  14.300  -0.473   7.957  0.0053  0.4353 -0.0263
 3590DPPE   C2B64942  14.299  -0.488   7.492 -0.0418  0.0537  0.0836
 3590DPPE   C3B64943  14.495  -0.859   7.166  0.2101 -0.0966 -0.3250
 3590DPPE   C4B64944  14.440  -1.204   6.862 -0.3412  0.0650  0.0001
 3591DPPE   NH364945   5.734   8.249  14.242 -0.4039  0.2029 -0.0625
 3591DPPE   PO464946   5.550   7.906  14.516  0.3104 -0.3258  0.0779
 3591DPPE   GL164947   5.948   7.902  14.578 -0.0669 -0.3494 -0.3707
 3591DPPE   GL264948   6.089   7.882  14.190 -0.1918 -0.0343  0.0093
 3591DPPE   C1A64949   6.292   8.067  14.608 -0.0473 -0.0256  0.1709
 3591DPPE   C2A64950   6.359   8.467  14.702  0.0375  0.0359 -0.0909
 3591DPPE   C3A64951   6.342   8.942  14.730  0.0985  0.2703 -0.2676
 3591DPPE   C4A64952   6.204   9.220  15.150  0.0514  0.0990 -0.1159
 3591DPPE   C1B64953   6.501   7.961  14.177  0.0981  0.0938  0.2199
 3591DPPE   C2B64954   6.919   8.081  14.269 -0.1459 -0.2067  0.1677
 3591DPPE   C3B64955   6.865   8.494  14.475 -0.2713  0.0419  0.0367
 3591DPPE   C4B64956   6.831   8.735  14.895  0.0602 -0.0026  0.0435
 3592DPPE   NH364957  12.755   8.767   4.919  0.0971  0.0012 -0.1955
 3592DPPE   PO464958  12.997   9.132   4.901 -0.1630  0.1276 -0.2846
 3592DPPE   GL164959  13.173   9.208   4.549 -0.1128  0.1411  0.1661
 3592DPPE   GL264960  13.432   9.306   4.564 -0.2947 -0.1723 -0.1464
 3592DPPE   C1A64961  12.966   9.249   4.164 -0.0106  0.3195 -0.0825
 3592DPPE   C2A64962  12.795   9.188   3.772 -0.1165 -0.4150  0.3605
 3592DPPE   C3A64963  12.870   8.944   3.421  0.1499  0.2003  0.2342
 3592DPPE   C4A64964  12.945   9.039   3.026  0.0388 -0.2395 -0.2717
 3592DPPE   C1B64965  13.535   9.435   4.127 -0.0896 -0.2103 -0.0901
 3592DPPE   C2B64966  13.198   9.651   3.836 -0.3950  0.1751  0.0864
 3592DPPE   C3B64967  13.215   9.864   3.463 -0.4242 -0.1170 -0.2637
 3592DPPE   C4B64968  13.483  10.300   3.253 -0.0472  0.0018 -0.1098
 3593DPPE   NH364969  17.894   3.749   5.650  0.0239  0.0040 -0.0335
 3593DPPE   PO464970  17.594   4.137   5.739 -0.2027  0.0617 -0.0912
 3593DPPE   GL164971  18.017   4.261   5.434  0.0414  0.3228 -0.1079
 3593DPPE   GL264972  17.955   4.365   5.109 -0.1186 -0.0314  0.2790
 3593DPPE   C1A64973  18.347   3.991   5.255  0.0170 -0.1242  0.1131
 3593DPPE   C2A64974  18.715   3.873   4.883 -0.1201 -0.0813 -0.2240
 3593DPPE   C3A64975  18.494   3.866   4.407 -0.2073  0.4092  0.1595
 3593DPPE   C4A64976  18.613   3.971   4.071 -0.0871 -0.2790 -0.0144
 3593DPPE   C1B64977  18.167   4.125   4.804 -0.2351  0.0879 -0.2227
 3593DPPE   C2B64978  17.961   4.055   4.438  0.0102  0.0646 -0.0785
 3593DPPE   C3B64979  17.612   4.138   4.359 -0.1189  0.0640 -0.1260
 3593DPPE   C4B64980  17.161   4.125   4.159 -0.0671 -0.1722 -0.0098
 3594DPPE   NH364981  15.906   2.455   8.152 -0.3209 -0.1869 -0.1151
 3594DPPE   PO464982  16.245   2.606   7.707  0.0719 -0.3571  0.3850
 3594DPPE   GL164983  16.328   2.732   8.065  0.0357  0.0510 -0.0835
 3594DPPE   GL264984  16.464   2.477   8.264 -0.0732 -0.0473  0.4061
 3594DPPE   C1A64985  16.358   2.965   8.420  0.0594  0.0349  0.1011
 3594DPPE   C2A64986  16.322   3.133   8.798  0.2524  0.0204 -0.0626
 3594DPPE   C3A64987  16.203   3.428   9.082  0.3298 -0.0743  0.0497
 3594DPPE   C4A64988  16.100   3.455   9.527  0.1535 -0.1535  0.0644
 3594DPPE   C1B64989  16.564   2.545   8.666 -0.2590 -0.1951  0.1146
 3594DPPE   C2B64990  16.592   2.698   9.127  0.0272 -0.3111 -0.3402
 3594DPPE   C3B64991  16.439   3.059   9.365  0.0807  0.0032  0.4027
 3594DPPE   C4B64992  16.685   3.366   9.667 -0.0821 -0.0656 -0.2502
 3595DPPE   NH364993   8.312   8.975   7.053 -0.0685 -0.1929  0.2894
 3595DPPE   PO464994   8.286   8.768   7.497  0.0596 -0.1342 -0.0644
 3595DPPE   GL164995   7.903   8.727   7.321 -0.3014  0.0845 -0.0977
 3595DPPE   GL264996   8.026   8.558   7.126 -0.1352  0.1634  0.0820
 3595DPPE   C1A64997   7.535   8.716   7.137  0.1679 -0.0090  0.1391
 3595DPPE   C2A64998   7.225   9.047   7.030  0.1820 -0.2782  0.3510
 3595DPPE   C3A64999   6.882   9.237   6.987  0.3062  0.1377  0.2807
 3595DPPE   C4A65000   6.421   9.400   6.850  0.1252 -0.0765 -0.2055
 3595DPPE   C1B65001   7.729   8.470   6.763  0.0140  0.0176 -0.3282
 3595DPPE   C2B65002   7.727   8.445   6.401  0.0470 -0.4108 -0.2905
 3595DPPE   C3B65003   7.828   8.362   6.052  0.3595 -0.0355  0.2237
 3595DPPE   C4B65004   7.938   8.587   5.717 -0.3457  0.0712 -0.1608
 3596DPPE   NH365005   7.025   4.719  14.677  0.1099 -0.0274 -0.0858
 3596DPPE   PO465006   6.949   4.829  15.141  0.0407 -0.1711 -0.2326
 3596DPPE   GL165007   7.272   5.106  15.090 -0.0589 -0.2193  0.0534
 3596DPPE   GL265008   7.286   5.122  15.457  0.0796  0.4758  0.1197
 3596DPPE   C1A65009   7.624   5.192  15.059  0.1194  0.0575 -0.4541
 3596DPPE   C2A65010   8.028   5.415  15.224  0.0025  0.2700  0.2246
 3596DPPE   C3A65011   8.361   5.668  15.374 -0.2414  0.1024 -0.1535
 3596DPPE   C4A65012   8.595   6.005  15.636 -0.2225 -0.4693  0.1213
 3596DPPE   C1B65013   7.368   5.452  15.454 -0.2365 -0.4675  0.1038
 3596DPPE   C2B65014   7.749   5.748  15.453 -0.2180 -0.2081  0.2496
 3596DPPE   C3B65015   8.095   6.047  15.564 -0.0222  0.1526  0.3584
 3596DPPE   C4B65016   8.222   6.273  15.183  0.0885 -0.1635 -0.1991
 3597DPPE   NH365017  12.769  10.063   4.703 -0.0008  0.0690 -0.0779
 3597DPPE   PO465018  12.940  10.385   4.854 -0.1693 -0.1017  0.0148
 3597DPPE   GL165019  13.001  10.835   4.592 -0.0165  0.0395 -0.0115
 3597DPPE   GL265020  12.949  11.076   4.741 -0.0179  0.2504  0.2334
 3597DPPE   C1A65021  13.076  11.079   4.215  0.0707  0.0729  0.0366
 3597DPPE   C2A65022  12.808  11.172   3.874 -0.1207 -0.4115 -0.0000
 3597DPPE   C3A65023  12.558  10.863   3.648  0.1756  0.0008  0.1311
 3597DPPE   C4A65024  12.545  10.730   3.387 -0.2360  0.0763 -0.1765
 3597DPPE   C1B65025  13.351  11.466   4.676  0.0107 -0.0921 -0.2575
 3597DPPE   C2B65026  13.745  11.466   4.504 -0.0253 -0.0431  0.0308
 3597DPPE   C3B65027  14.284  11.555   4.549 -0.2216  0.2477  0.0370
 3597DPPE   C4B65028  14.692  11.617   4.623  0.1640 -0.0628 -0.0005
 3598DPPE   NH365029   6.885   9.883   8.866 -0.0568  0.1636 -0.1269
 3598DPPE   PO465030   6.898  10.315   9.030  0.1071 -0.2872  0.1620
 3598DPPE   GL165031   6.666  10.683   8.881 -0.0034  0.1859 -0.0926
 3598DPPE   GL265032   6.835  10.761   8.589 -0.1061 -0.1000 -0.0659
 3598DPPE   C1A65033   6.466  11.063   8.801  0.0908  0.0763  0.0519
 3598DPPE   C2A65034   6.121  11.248   8.475  0.1355 -0.3210 -0.0459
 3598DPPE   C3A65035   5.687  11.146   8.272 -0.0842  0.1284 -0.1718
 3598DPPE   C4A65036   5.273  11.113   8.006 -0.2304 -0.1476  0.0813
 3598DPPE   C1B65037   6.653  11.134   8.269 -0.0425 -0.2255 -0.0682
 3598DPPE   C2B65038   6.392  11.478   8.155 -0.0016  0.0877  0.1259
 3598DPPE   C3B65039   6.008  11.741   8.110  0.2926  0.3050  0.2492
 3598DPPE   C4B65040   5.716  12.028   8.174 -0.3254  0.1758 -0.1710
 3599DPPE   NH365041  16.896   0.306   8.120 -0.3574  0.2198  0.1167
 3599DPPE   PO465042  16.821   0.607   8.407  0.0560 -0.1091 -0.3768
 3599DPPE   GL165043  17.242   0.349   8.464  0.2551 -0.1037 -0.0617
 3599DPPE   GL265044  17.402   0.467   8.785  0.0950  0.3291 -0.1576
 3599DPPE   C1A65045  17.535   0.080   8.386  0.2283  0.0191 -0.0368
 3599DPPE   C2A65046  17.811  -0.282   8.243  0.0562  0.3601 -0.1340
 3599DPPE   C3A65047  17.962  -0.526   7.869 -0.2882  0.0491 -0.2323
 3599DPPE   C4A65048  18.154  -0.650   7.409  0.1814  0.0817  0.4711
 3599DPPE   C1B65049  17.642   0.040   8.905  0.0040  0.1241 -0.1118
 3599DPPE   C2B65050  17.579  -0.309   8.708 -0.1552  0.1705 -0.2721
 3599DPPE   C3B65051  17.307  -0.437   8.346  0.0421 -0.1372  0.0340
 3599DPPE   C4B65052  17.392  -0.310   7.924  0.3187  0.2040  0.0368
 3600DPPE   NH365053   4.552   7.649  14.753 -0.2617  0.0690 -0.2020
 3600DPPE   PO465054   4.686   8.025  14.872  0.3032  0.3156 -0.0724
 3600DPPE   GL165055   4.465   7.842  15.234 -0.0010  0.1874  0.1815
 3600DPPE   GL265056   4.118   7.688  15.221 -0.0372 -0.1049  0.2071
 3600DPPE   C1A65057   4.213   8.007  15.593 -0.2303  0.2311 -0.0476
 3600DPPE   C2A65058   3.859   7.908  16.046 -0.3376 -0.2667 -0.4002
 3600DPPE   C3A65059   3.497   7.832  16.262 -0.2170 -0.0260  0.0814
 3600DPPE   C4A65060   3.392   7.461  16.436  0.2574  0.2348 -0.1945
 3600DPPE   C1B65061   3.916   7.298  15.065 -0.2068  0.1552 -0.0568
 3600DPPE   C2B65062   3.595   7.119  14.811 -0.2515 -0.0692 -0.2589
 3600DPPE   C3B65063   3.191   7.111  14.738 -0.1111  0.1910 -0.1107
 3600DPPE   C4B65064   2.972   7.478  14.809 -0.0727 -0.1219  0.1911
 3601DPPE   NH365065  15.622   5.424   4.999 -0.0351 -0.1712 -0.1854
 3601DPPE   PO465066  15.923   5.235   5.316 -0.1626 -0.0571  0.1200
 3601DPPE   GL165067  16.026   5.141   4.891 -0.0002  0.0196  0.1951
 3601DPPE   GL265068  15.922   5.333   4.613 -0.2808 -0.1134  0.4255
 3601DPPE   C1A65069  16.325   5.109   4.435  0.0175 -0.3615 -0.0880
 3601DPPE   C2A65070  16.383   5.516   4.144  0.0955 -0.0527 -0.1283
 3601DPPE   C3A65071  16.247   5.766   3.852  0.0709 -0.3235  0.2264
 3601DPPE   C4A65072  15.921   5.908   3.540  0.4009 -0.1066  0.0001
 3601DPPE   C1B65073  15.850   5.110   4.289 -0.3018 -0.2414  0.2468
 3601DPPE   C2B65074  16.087   4.949   3.879 -0.1321  0.0620  0.1626
 3601DPPE   C3B65075  16.410   4.830   3.559 -0.1744 -0.2030 -0.0598
 3601DPPE   C4B65076  16.410   5.010   3.202  0.2327  0.0417  0.1351
 3602DPPE   NH365077   5.149   6.035  15.852  0.1775  0.3908  0.3140
 3602DPPE   PO465078   5.012   6.338  15.572  0.3887  0.0270 -0.0117
 3602DPPE   GL165079   4.877   6.417  16.023  0.0827 -0.1836 -0.0436
 3602DPPE   GL265080   4.911   6.770  16.086 -0.1052  0.0014  0.0157
 3602DPPE   C1A65081   4.638   6.058  16.287 -0.2071 -0.0026 -0.2151
 3602DPPE   C2A65082   4.402   5.795  16.559  0.3926  0.0771  0.1802
 3602DPPE   C3A65083   4.395   5.449  16.869 -0.0349  0.0681  0.3748
 3602DPPE   C4A65084   4.217   5.131  16.849 -0.1749 -0.0855 -0.0570
 3602DPPE   C1B65085   4.887   6.552  16.482  0.2810  0.2758 -0.1651
 3602DPPE   C2B65086   5.029   6.294  16.764 -0.0016 -0.1165 -0.0396
 3602DPPE   C3B65087   4.839   6.374  17.225 -0.0248  0.0061  0.1974
 3602DPPE   C4B65088   4.751   6.334  17.646 -0.0652  0.0637  0.0803
 3603DPPE   NH365089  12.303   7.226   6.468 -0.0662  0.0564  0.1585
 3603DPPE   PO465090  11.695   7.317   6.574 -0.2104 -0.1910  0.0993
 3603DPPE   GL165091  11.567   7.430   6.990  0.2886  0.1013 -0.0054
 3603DPPE   GL265092  11.552   7.866   7.124 -0.2842  0.2259  0.4266
 3603DPPE   C1A65093  11.812   7.501   7.382  0.1049 -0.1313 -0.0324
 3603DPPE   C2A65094  11.978   7.737   7.748  0.2969 -0.3008  0.0256
 3603DPPE   C3A65095  12.226   7.825   8.178 -0.1053  0.1053 -0.2694
 3603DPPE   C4A65096  12.047   8.145   8.382 -0.1396 -0.2616 -0.0366
 3603DPPE   C1B65097  11.672   8.106   7.592 -0.2339 -0.0868  0.1641
 3603DPPE   C2B65098  11.887   8.364   7.965  0.4220 -0.4565  0.3035
 3603DPPE   C3B65099  12.063   8.691   8.199  0.0279  0.0613 -0.1862
 3603DPPE   C4B65100  11.919   9.140   8.192  0.0671  0.0441  0.2227
 3604DPPE   NH365101  12.218  36.043  12.372  0.2848 -0.3113  0.0850
 3604DPPE   PO465102  11.959  35.662  12.449 -0.1744  0.1146 -0.0346
 3604DPPE   GL165103  11.659  35.272  12.538  0.1136  0.2036 -0.1485
 3604DPPE   GL265104  11.522  35.230  12.184 -0.0673  0.1554  0.1005
 3604DPPE   C1A65105  11.593  34.870  12.621  0.1174  0.1367 -0.0259
 3604DPPE   C2A65106  11.294  34.435  12.525  0.2468 -0.1656 -0.0499
 3604DPPE   C3A65107  10.969  34.139  12.478  0.1714 -0.0586  0.0865
 3604DPPE   C4A65108  10.849  33.803  12.698 -0.0438 -0.0690  0.1347
 3604DPPE   C1B65109  11.205  35.010  12.259  0.1332  0.1047  0.4723
 3604DPPE   C2B65110  10.942  34.627  12.138  0.1438 -0.0732 -0.1863
 3604DPPE   C3B65111  10.661  34.334  12.102  0.3839 -0.1258 -0.0300
 3604DPPE   C4B65112  10.469  33.975  12.014 -0.1745 -0.1819 -0.2584
 3605DPPE   NH365113  13.046   5.055   5.651 -0.2002  0.0453  0.2832
 3605DPPE   PO465114  13.178   5.464   5.323  0.1092  0.0152 -0.2013
 3605DPPE   GL165115  12.854   5.263   5.129 -0.1160 -0.1698  0.2401
 3605DPPE   GL265116  12.964   5.378   4.799  0.1093 -0.0032  0.4297
 3605DPPE   C1A65117  12.508   5.064   5.020 -0.1742  0.0816 -0.0924
 3605DPPE   C2A65118  12.261   4.929   4.659  0.3818 -0.0148  0.0731
 3605DPPE   C3A65119  12.081   4.599   4.483 -0.0039  0.1373  0.1446
 3605DPPE   C4A65120  11.674   4.511   4.181  0.0526 -0.3897 -0.0954
 3605DPPE   C1B65121  12.808   5.068   4.584  0.1416  0.3478  0.3126
 3605DPPE   C2B65122  12.582   4.772   4.274  0.0208  0.1629  0.0400
 3605DPPE   C3B65123  12.580   4.428   3.971  0.1958 -0.1917  0.3003
 3605DPPE   C4B65124  12.455   4.118   3.649  0.1681  0.0577  0.2566
 3606DPPE   NH365125  17.737   4.621   5.541 -0.0697 -0.0708  0.0963
 3606DPPE   PO465126  17.629   4.947   5.823 -0.0060  0.1128  0.1069
 3606DPPE   GL165127  17.985   5.048   5.720 -0.3997 -0.0454 -0.4193
 3606DPPE   GL265128  18.008   5.032   5.372  0.3073  0.0953  0.0509
 3606DPPE   C1A65129  18.453   4.992   5.837  0.2207  0.0655 -0.1622
 3606DPPE   C2A65130  18.760   5.194   5.969  0.3184  0.4936 -0.0405
 3606DPPE   C3A65131  18.731   5.340   6.393 -0.2632 -0.0533 -0.2551
 3606DPPE   C4A65132  18.788   5.703   6.544  0.1251 -0.0741  0.1739
 3606DPPE   C1B65133  18.331   4.687   5.291 -0.2453  0.0626 -0.0601
 3606DPPE   C2B65134  18.664   4.761   5.441  0.0757  0.1361 -0.3017
 3606DPPE   C3B65135  19.057   4.594   5.754 -0.0833 -0.5610  0.4364
 3606DPPE   C4B65136  19.502   4.383   5.679  0.3141 -0.2232 -0.1260
 3607DPPE   NH365137   6.360   6.036  12.998 -0.1202  0.1531  0.0347
 3607DPPE   PO465138   6.531   6.217  12.571 -0.1194  0.2559 -0.2471
 3607DPPE   GL165139   6.990   6.381  12.512  0.1334  0.1568 -0.0706
 3607DPPE   GL265140   6.933   6.679  12.752 -0.1279 -0.3473 -0.1616
 3607DPPE   C1A65141   7.509   6.375  12.598 -0.1393 -0.1300 -0.1252
 3607DPPE   C2A65142   7.860   6.686  12.563 -0.2417 -0.0039 -0.1486
 3607DPPE   C3A65143   8.280   6.699  12.527 -0.2128  0.1692 -0.0296
 3607DPPE   C4A65144   8.659   6.722  12.626 -0.4494 -0.1376  0.0139
 3607DPPE   C1B65145   7.407   6.756  12.887  0.4515 -0.1113 -0.1498
 3607DPPE   C2B65146   7.704   7.019  12.953  0.1512  0.0570  0.0398
 3607DPPE   C3B65147   8.131   7.064  12.811  0.1621  0.2284  0.0921
 3607DPPE   C4B65148   8.500   7.218  12.663  0.1328 -0.1994 -0.1329
 3608DPPE   NH365149   5.530   8.872  13.493  0.1951  0.1389 -0.2061
 3608DPPE   PO465150   5.372   9.281  13.604  0.2995 -0.2866 -0.3130
 3608DPPE   GL165151   5.677   9.550  14.000 -0.1268  0.1740 -0.1852
 3608DPPE   GL265152   5.461   9.739  14.165 -0.1222 -0.2819 -0.1117
 3608DPPE   C1A65153   6.043   9.824  14.187 -0.1138 -0.0501  0.2436
 3608DPPE   C2A65154   5.950  10.073  14.552 -0.0350  0.3514  0.1898
 3608DPPE   C3A65155   5.725  10.021  14.888  0.0201 -0.3103  0.3766
 3608DPPE   C4A65156   5.451   9.965  15.241 -0.0730 -0.1757  0.0746
 3608DPPE   C1B65157   5.405  10.041  14.295 -0.0029 -0.1319  0.0826
 3608DPPE   C2B65158   5.586  10.314  14.286 -0.0502 -0.0156 -0.0627
 3608DPPE   C3B65159   5.795  10.536  14.700 -0.0849  0.2353  0.0364
 3608DPPE   C4B65160   5.910  10.842  15.136 -0.0830 -0.1521 -0.1824
 3609DPPE   NH365161  14.894  35.791  11.900 -0.2305  0.2254  0.0277
 3609DPPE   PO465162  15.100  35.608  11.525  0.1846 -0.0612  0.2534
 3609DPPE   GL165163  15.543  35.384  11.626  0.0625  0.2704  0.0886
 3609DPPE   GL265164  15.796  35.659  11.677 -0.1057 -0.3699 -0.0548
 3609DPPE   C1A65165  15.959  35.400  11.373  0.1059 -0.0564  0.2161
 3609DPPE   C2A65166  16.294  35.224  11.074 -0.1044  0.3264 -0.1926
 3609DPPE   C3A65167  16.660  35.021  10.879 -0.0771  0.1779  0.0878
 3609DPPE   C4A65168  16.917  34.731  11.104 -0.1731 -0.1961 -0.2658
 3609DPPE   C1B65169  16.175  35.790  11.796  0.0272 -0.0031 -0.1043
 3609DPPE   C2B65170  16.608  35.946  11.836 -0.0999 -0.0200  0.1980
 3609DPPE   C3B65171  17.056  35.868  11.872 -0.0250 -0.1505  0.1250
 3609DPPE   C4B65172  17.525  35.819  11.744 -0.3443  0.2244 -0.3165
 3610DPPE   NH365173  14.148   0.495  10.081 -0.4011 -0.2724  0.0340
 3610DPPE   PO465174  14.089   0.707   9.729 -0.0554  0.3423  0.0739
 3610DPPE   GL165175  14.447   0.872   9.943  0.1028  0.0243 -0.2312
 3610DPPE   GL265176  14.759   0.855  10.143  0.1790 -0.0201 -0.0151
 3610DPPE   C1A65177  14.665   1.283   9.945  0.0923  0.3862  0.1118
 3610DPPE   C2A65178  14.623   1.590  10.280 -0.0686  0.1074  0.0289
 3610DPPE   C3A65179  14.832   1.509  10.693 -0.2329  0.3482  0.3138
 3610DPPE   C4A65180  15.069   1.609  11.036  0.2740  0.0283  0.3533
 3610DPPE   C1B65181  14.986   0.847  10.550 -0.0173  0.0853 -0.2166
 3610DPPE   C2B65182  15.086   0.931  10.959  0.2338  0.1095 -0.3988
 3610DPPE   C3B65183  15.255   1.133  11.159  0.0568 -0.0960  0.1154
 3610DPPE   C4B65184  15.624   1.324  11.331  0.0142 -0.1032  0.0504
 3611DPPE   NH365185   5.485   5.231  12.875  0.0438  0.0136 -0.0690
 3611DPPE   PO465186   5.260   5.278  13.274  0.0166  0.0522 -0.2490
 3611DPPE   GL165187   4.951   5.159  13.110 -0.0543 -0.4056  0.0511
 3611DPPE   GL265188   4.666   5.339  13.171  0.0051  0.0869 -0.0208
 3611DPPE   C1A65189   4.634   4.845  13.113  0.2238  0.1919 -0.0620
 3611DPPE   C2A65190   4.244   4.784  12.814 -0.1550 -0.1478  0.1163
 3611DPPE   C3A65191   3.920   4.677  12.480  0.3718 -0.0830 -0.0536
 3611DPPE   C4A65192   3.578   4.520  12.185  0.1688  0.1445  0.2199
 3611DPPE   C1B65193   4.277   5.330  12.977 -0.0975  0.3206 -0.0397
 3611DPPE   C2B65194   3.904   5.170  12.869  0.1157  0.1212  0.2724
 3611DPPE   C3B65195   3.446   5.183  12.829  0.0231  0.1161  0.2034
 3611DPPE   C4B65196   3.185   5.210  12.521 -0.1455  0.0584  0.0479
 3612DPPE   NH365197  16.571   0.146   9.417  0.1056  0.0984 -0.1056
 3612DPPE   PO465198  16.495  -0.082   8.987  0.0535 -0.0957  0.0820
 3612DPPE   GL165199  16.803  -0.355   9.216 -0.0145  0.1038  0.1294
 3612DPPE   GL265200  16.609  -0.556   9.443  0.0543  0.0920 -0.2231
 3612DPPE   C1A65201  17.189  -0.572   9.340 -0.1609  0.0980 -0.2377
 3612DPPE   C2A65202  17.097  -0.946   9.234 -0.1818 -0.1679 -0.0276
 3612DPPE   C3A65203  17.223  -1.332   9.104 -0.1295 -0.0110  0.1867
 3612DPPE   C4A65204  17.491  -1.631   8.966 -0.2632 -0.1868 -0.2130
 3612DPPE   C1B65205  16.901  -0.848   9.688  0.0007  0.1908  0.1773
 3612DPPE   C2B65206  17.036  -0.839  10.193 -0.2497  0.0758 -0.0076
 3612DPPE   C3B65207  17.461  -0.689  10.492 -0.1511  0.0228 -0.1209
 3612DPPE   C4B65208  17.880  -0.927  10.440 -0.0412 -0.0743  0.1764
 3613DPPE   NH365209   7.628  10.163   7.616  0.2007 -0.0095 -0.0100
 3613DPPE   PO465210   8.067  10.280   7.596 -0.0010  0.1364 -0.0130
 3613DPPE   GL165211   7.693  10.516   7.286 -0.0800  0.0229 -0.1333
 3613DPPE   GL265212   7.635  10.826   7.321 -0.1593 -0.0619  0.2818
 3613DPPE   C1A65213   7.412  10.576   6.927  0.0112 -0.0265  0.2919
 3613DPPE   C2A65214   7.076  10.734   6.698  0.1419 -0.0216 -0.1204
 3613DPPE   C3A65215   6.620  10.828   6.694  0.0185  0.3067  0.1812
 3613DPPE   C4A65216   6.160  10.743   6.783 -0.1284  0.1233  0.0463
 3613DPPE   C1B65217   7.204  10.628   7.409 -0.1066 -0.0646  0.3614
 3613DPPE   C2B65218   6.918  10.485   7.214 -0.0853 -0.0122 -0.4710
 3613DPPE   C3B65219   6.581  10.128   7.307  0.0663  0.0117 -0.1175
 3613DPPE   C4B65220   6.188  10.149   7.496  0.0255  0.0375 -0.1540
 3614DPPE   NH365221   6.840   9.741   9.673 -0.1900 -0.0374 -0.0119
 3614DPPE   PO465222   6.599   9.395   9.767  0.2708  0.2651 -0.0382
 3614DPPE   GL165223   6.169   9.351   9.567  0.1275  0.1639  0.0315
 3614DPPE   GL265224   6.179   9.314   9.351 -0.1012  0.1919  0.0313
 3614DPPE   C1A65225   5.692   9.478   9.427  0.1674  0.1873  0.0261
 3614DPPE   C2A65226   5.356   9.288   9.082 -0.0841 -0.1801 -0.2014
 3614DPPE   C3A65227   4.854   9.335   9.012 -0.2629 -0.0528  0.0783
 3614DPPE   C4A65228   4.530   9.379   9.136  0.1143 -0.1428 -0.1380
 3614DPPE   C1B65229   5.933   9.314   8.987 -0.3330 -0.0056 -0.1775
 3614DPPE   C2B65230   5.622   9.105   8.708 -0.3273 -0.3751  0.3541
 3614DPPE   C3B65231   5.239   9.072   8.658  0.1057 -0.4027  0.1952
 3614DPPE   C4B65232   4.945   9.207   8.525 -0.1530 -0.0225 -0.2154
 3615DPPE   NH365233  11.405  35.769  14.941  0.2807 -0.1572  0.1158
 3615DPPE   PO465234  11.329  35.510  15.374 -0.0997  0.1289  0.1417
 3615DPPE   GL165235  11.260  35.668  15.819 -0.2304 -0.1960  0.0217
 3615DPPE   GL265236  11.003  35.658  16.021  0.1449 -0.0729  0.1194
 3615DPPE   C1A65237  11.393  35.965  16.241  0.3153 -0.2983  0.0066
 3615DPPE   C2A65238  11.558  35.990  16.636 -0.0833 -0.0117  0.3713
 3615DPPE   C3A65239  11.568  36.199  17.040 -0.1082  0.1481  0.2344
 3615DPPE   C4A65240  11.668  36.590  17.290  0.2774 -0.1486 -0.2958
 3615DPPE   C1B65241  10.965  35.318  16.157 -0.2230  0.0763 -0.1716
 3615DPPE   C2B65242  10.860  35.092  16.537  0.3031  0.0659 -0.1046
 3615DPPE   C3B65243  10.887  34.630  16.719  0.1555 -0.1842 -0.2394
 3615DPPE   C4B65244  10.851  34.207  16.759  0.0215 -0.0370 -0.1486
 3616DPPE   NH365245   5.552   9.507  12.795 -0.4864 -0.3173 -0.2088
 3616DPPE   PO465246   5.177   9.505  12.827 -0.1021 -0.0681 -0.1100
 3616DPPE   GL165247   4.752   9.684  12.896 -0.1771 -0.1043  0.0401
 3616DPPE   GL265248   4.699  10.043  13.063 -0.0512  0.3501 -0.0807
 3616DPPE   C1A65249   4.328   9.733  12.692 -0.2192  0.0149  0.0536
 3616DPPE   C2A65250   4.041   9.931  12.569 -0.1685  0.0369  0.0055
 3616DPPE   C3A65251   3.661  10.087  12.443 -0.2522 -0.4825  0.3751
 3616DPPE   C4A65252   3.202  10.047  12.460  0.2505  0.1791  0.2334
 3616DPPE   C1B65253   4.324  10.198  12.899  0.1270  0.1531  0.1874
 3616DPPE   C2B65254   4.003  10.431  12.568 -0.1069  0.2826  0.0027
 3616DPPE   C3B65255   3.861  10.369  12.050 -0.0182 -0.1687  0.4052
 3616DPPE   C4B65256   3.893  10.201  11.651  0.0338 -0.0117  0.0874
 3617DPPE   NH365257   6.804   5.063  10.857  0.1593 -0.0154 -0.0786
 3617DPPE   PO465258   6.595   5.444  11.080  0.1254  0.1296 -0.2078
 3617DPPE   GL165259   6.205   5.311  10.896  0.2643 -0.0453  0.3048
 3617DPPE   GL265260   5.991   5.117  11.139 -0.2062  0.1169 -0.0587
 3617DPPE   C1A65261   5.762   5.199  10.726 -0.1411  0.0701  0.2484
 3617DPPE   C2A65262   5.303   5.023  10.726  0.0186  0.0785 -0.1699
 3617DPPE   C3A65263   4.978   5.186  10.334 -0.0021 -0.0896 -0.2578
 3617DPPE   C4A65264   4.856   5.006   9.948 -0.0808 -0.0875 -0.0234
 3617DPPE   C1B65265   5.565   5.120  11.158 -0.1634 -0.2729 -0.0402
 3617DPPE   C2B65266   5.227   5.449  11.110  0.1873  0.0052  0.0390
 3617DPPE   C3B65267   4.930   5.414  10.758 -0.2026  0.2330  0.2272
 3617DPPE   C4B65268   4.746   5.634  10.474  0.0386 -0.0561  0.3337
 3618DPPE   NH365269  13.756  35.271  11.107 -0.1216  0.1924  0.0379
 3618DPPE   PO465270  13.990  34.964  11.367 -0.0778 -0.0768 -0.1493
 3618DPPE   GL165271  13.758  34.548  11.448  0.3034  0.0388 -0.0923
 3618DPPE   GL265272  13.679  34.409  11.254 -0.0203 -0.1214  0.2402
 3618DPPE   C1A65273  13.620  34.096  11.623 -0.0516 -0.1414  0.0180
 3618DPPE   C2A65274  13.425  33.938  11.945  0.1382 -0.4048 -0.1291
 3618DPPE   C3A65275  13.156  33.630  12.050  0.1259  0.0417 -0.0157
 3618DPPE   C4A65276  12.797  33.409  12.255 -0.2007 -0.2062 -0.1010
 3618DPPE   C1B65277  13.442  34.017  11.069  0.0905 -0.1037 -0.2201
 3618DPPE   C2B65278  13.634  33.668  11.250 -0.3461 -0.0546  0.0339
 3618DPPE   C3B65279  14.074  33.520  11.210  0.0184  0.3441 -0.0489
 3618DPPE   C4B65280  14.454  33.733  11.244  0.0552 -0.0980 -0.2479
 3619DPPE   NH365281  12.108   1.351   8.805  0.1175  0.5035  0.3130
 3619DPPE   PO465282  11.746   1.299   8.737  0.1647  0.0919 -0.3065
 3619DPPE   GL165283  11.431   1.407   8.508 -0.2127  0.2463 -0.1797
 3619DPPE   GL265284  11.490   1.721   8.396 -0.0866  0.0840 -0.1852
 3619DPPE   C1A65285  11.284   1.089   8.308  0.1434  0.2535 -0.0723
 3619DPPE   C2A65286  11.021   0.765   8.050 -0.2490  0.0585  0.3163
 3619DPPE   C3A65287  10.767   0.729   7.731  0.1155 -0.0796  0.3883
 3619DPPE   C4A65288  10.688   0.456   7.403 -0.1460  0.1373  0.3053
 3619DPPE   C1B65289  11.623   1.396   8.073  0.0855 -0.2221  0.0340
 3619DPPE   C2B65290  11.491   0.805   7.972  0.0355  0.1366  0.1173
 3619DPPE   C3B65291  11.553   0.359   7.802  0.0041 -0.1514  0.1844
 3619DPPE   C4B65292  11.434   0.197   7.456 -0.3182  0.0228  0.1045
 3620DPPE   NH365293   8.689   0.149  14.182 -0.0387 -0.5469  0.2319
 3620DPPE   PO465294   8.847   0.024  13.778  0.1926 -0.0494  0.0006
 3620DPPE   GL165295   8.773  -0.403  13.968 -0.2204 -0.4248 -0.2385
 3620DPPE   GL265296   8.934  -0.652  14.079 -0.5143 -0.0311  0.1842
 3620DPPE   C1A65297   8.640  -0.572  14.448  0.0338 -0.0084  0.2707
 3620DPPE   C2A65298   8.245  -0.669  14.271  0.0854  0.0949 -0.0370
 3620DPPE   C3A65299   7.779  -0.810  14.125 -0.1381 -0.1444  0.3729
 3620DPPE   C4A65300   7.501  -1.083  14.050  0.0717 -0.1981  0.1456
 3620DPPE   C1B65301   8.626  -0.969  14.151  0.1868 -0.2242  0.0534
 3620DPPE   C2B65302   8.351  -1.145  14.480 -0.4464  0.0777 -0.1198
 3620DPPE   C3B65303   8.389  -1.548  14.655  0.1286  0.0840 -0.0795
 3620DPPE   C4B65304   8.625  -1.872  14.497 -0.1185 -0.0156  0.2089
 3621DPPE   NH365305  13.635  36.211  12.524  0.0331  0.0858 -0.0592
 3621DPPE   PO465306  13.227  36.226  12.529 -0.2571 -0.3716  0.1543
 3621DPPE   GL165307  13.348  36.683  12.367 -0.0821  0.1645 -0.1685
 3621DPPE   GL265308  13.086  36.825  12.123  0.1594  0.0735  0.1931
 3621DPPE   C1A65309  13.440  37.091  12.166 -0.0762 -0.3226 -0.1283
 3621DPPE   C2A65310  13.445  37.457  12.117  0.0955  0.0650  0.0757
 3621DPPE   C3A65311  13.659  37.825  12.242  0.0684  0.0235 -0.0856
 3621DPPE   C4A65312  13.650  38.129  12.491 -0.0333 -0.3325 -0.1624
 3621DPPE   C1B65313  13.006  37.148  12.478 -0.3602 -0.1900 -0.2418
 3621DPPE   C2B65314  12.854  37.623  12.708 -0.2442  0.1765  0.1878
 3621DPPE   C3B65315  13.008  38.062  12.623  0.0973  0.3667  0.7034
 3621DPPE   C4B65316  13.001  38.342  12.884 -0.0080  0.0531 -0.0213
 3622DPPE   NH365317  12.471  36.413  10.199 -0.1078 -0.1078 -0.0559
 3622DPPE   PO465318  12.115  36.566  10.313 -0.0039  0.2360 -0.0982
 3622DPPE   GL165319  11.943  36.135  10.278  0.0184  0.2319  0.1923
 3622DPPE   GL265320  11.686  36.143  10.544 -0.3864 -0.1637 -0.0097
 3622DPPE   C1A65321  11.839  35.736  10.068 -0.2518 -0.2308  0.2741
 3622DPPE   C2A65322  11.803  35.332   9.949  0.5097  0.0027 -0.1083
 3622DPPE   C3A65323  11.915  34.932   9.782  0.0621 -0.2906  0.1233
 3622DPPE   C4A65324  11.847  34.699   9.321 -0.0879  0.4680 -0.1973
 3622DPPE   C1B65325  11.464  35.805  10.350 -0.1397  0.1482 -0.0379
 3622DPPE   C2B65326  11.333  35.494   9.938 -0.0221  0.0949 -0.5596
 3622DPPE   C3B65327  11.255  35.232   9.656 -0.0597  0.4142 -0.1531
 3622DPPE   C4B65328  10.969  34.940   9.452 -0.1982 -0.0852 -0.3248
 3623DPPE   NH365329  12.191   8.865   6.149 -0.6651  0.2128  0.1206
 3623DPPE   PO465330  12.537   8.510   5.993 -0.2240  0.1675 -0.1387
 3623DPPE   GL165331  12.589   8.514   6.410 -0.1642 -0.3627  0.1983
 3623DPPE   GL265332  12.540   8.248   6.619  0.0101  0.0652 -0.2163
 3623DPPE   C1A65333  12.876   8.582   6.776  0.2652 -0.0832 -0.1291
 3623DPPE   C2A65334  12.946   8.773   7.171  0.1083  0.0659  0.2311
 3623DPPE   C3A65335  12.996   9.138   7.510  0.1071  0.1564  0.2806
 3623DPPE   C4A65336  13.173   9.516   7.536 -0.1180 -0.0362 -0.0972
 3623DPPE   C1B65337  12.587   8.303   7.039  0.1783 -0.3948 -0.1700
 3623DPPE   C2B65338  12.672   8.499   7.469 -0.1479  0.1206  0.0654
 3623DPPE   C3B65339  12.754   8.669   7.866 -0.1350  0.2716  0.1113
 3623DPPE   C4B65340  12.692   8.627   8.371 -0.0402 -0.0882  0.2164
 3624DPPE   NH365341   6.392   7.567  12.938 -0.1492  0.2853  0.0194
 3624DPPE   PO465342   6.273   7.328  13.288 -0.0672  0.0016 -0.1146
 3624DPPE   GL165343   6.649   7.352  13.367 -0.0330  0.3161  0.2742
 3624DPPE   GL265344   6.816   7.559  13.269  0.0474  0.3495 -0.2818
 3624DPPE   C1A65345   6.970   7.339  13.744 -0.3531 -0.1324  0.1714
 3624DPPE   C2A65346   7.362   7.610  13.894  0.3752 -0.2025 -0.0708
 3624DPPE   C3A65347   7.692   7.917  14.041 -0.2195  0.0327 -0.5813
 3624DPPE   C4A65348   7.993   7.752  13.830  0.0615 -0.2133  0.2080
 3624DPPE   C1B65349   7.151   7.717  13.427 -0.1894 -0.0582 -0.2535
 3624DPPE   C2B65350   7.650   7.922  13.527  0.3204 -0.3835 -0.0535
 3624DPPE   C3B65351   7.873   8.225  13.518  0.1582 -0.0126 -0.2984
 3624DPPE   C4B65352   7.991   8.407  13.836  0.2108  0.0076  0.3427
 3625DPPE   NH365353   7.858  10.800   8.725  0.3167 -0.1710  0.2433
 3625DPPE   PO465354   7.594  10.566   8.387 -0.1038  0.0675  0.1743
 3625DPPE   GL165355   7.174  10.676   8.099 -0.2363  0.3006 -0.4272
 3625DPPE   GL265356   6.837  10.523   8.138 -0.0885 -0.0512  0.3128
 3625DPPE   C1A65357   6.967  10.872   7.703 -0.1593 -0.1619  0.2769
 3625DPPE   C2A65358   6.594  11.110   7.587 -0.3316  0.1260 -0.1599
 3625DPPE   C3A65359   6.283  11.429   7.566  0.0387 -0.0785  0.3035
 3625DPPE   C4A65360   6.249  11.779   7.621  0.2733 -0.1451 -0.0085
 3625DPPE   C1B65361   6.499  10.774   7.952  0.3095  0.1495  0.1540
 3625DPPE   C2B65362   6.182  11.092   7.892  0.2846  0.2681  0.1071
 3625DPPE   C3B65363   5.866  11.296   7.893  0.0593  0.0829  0.1628
 3625DPPE   C4B65364   5.728  11.653   7.713 -0.0849 -0.3092  0.2500
 3626DPPE   NH365365  13.333  10.350   5.143  0.2504 -0.1525 -0.0539
 3626DPPE   PO465366  13.120  10.028   5.131  0.0750 -0.0806  0.0470
 3626DPPE   GL165367  13.286  10.105   4.636 -0.0169 -0.0216  0.0304
 3626DPPE   GL265368  13.387  10.375   4.636  0.2958 -0.0217  0.3785
 3626DPPE   C1A65369  13.136  10.138   4.133  0.1732  0.2944 -0.1609
 3626DPPE   C2A65370  12.841  10.119   3.806  0.0071  0.2767  0.0978
 3626DPPE   C3A65371  12.716   9.674   3.594  0.0647  0.4100  0.1735
 3626DPPE   C4A65372  12.512   9.382   3.294  0.4492  0.1655  0.1612
 3626DPPE   C1B65373  13.286  10.573   4.193  0.1358  0.1384  0.1527
 3626DPPE   C2B65374  13.454  10.828   3.916 -0.0319 -0.3307  0.1502
 3626DPPE   C3B65375  13.750  11.177   4.001  0.1907 -0.0064 -0.2199
 3626DPPE   C4B65376  13.732  11.565   3.923  0.1484  0.1664 -0.0748
 3627DPPE   NH365377  10.681   3.048   9.503  0.1318 -0.0750 -0.0716
 3627DPPE   PO465378  11.087   3.008   9.312 -0.1178 -0.0194  0.1776
 3627DPPE   GL165379  11.450   3.089   9.662  0.2125 -0.1881 -0.0840
 3627DPPE   GL265380  11.532   3.325   9.460  0.0575 -0.0576 -0.0249
 3627DPPE   C1A65381  11.877   3.270   9.917 -0.0154  0.0209 -0.0706
 3627DPPE   C2A65382  12.083   3.687  10.177 -0.0791 -0.2947 -0.1691
 3627DPPE   C3A65383  12.432   3.770  10.539 -0.0349  0.1025 -0.2864
 3627DPPE   C4A65384  12.443   4.120  10.864  0.2048  0.0990  0.0305
 3627DPPE   C1B65385  11.440   3.612   9.794  0.1654  0.0086 -0.0809
 3627DPPE   C2B65386  11.686   3.906   9.837 -0.0133 -0.0921  0.2297
 3627DPPE   C3B65387  11.833   4.177  10.143  0.4892  0.0885 -0.3916
 3627DPPE   C4B65388  11.691   4.567  10.431 -0.0522 -0.0474 -0.1263
 3628DPPE   NH365389  15.835   1.526   8.991 -0.0092  0.1761 -0.1104
 3628DPPE   PO465390  15.566   1.046   8.936 -0.3594 -0.0559 -0.3737
 3628DPPE   GL165391  15.704   1.181   9.312  0.2850 -0.4740  0.1999
 3628DPPE   GL265392  16.038   1.138   9.532  0.3096 -0.0157 -0.1344
 3628DPPE   C1A65393  15.612   1.380   9.780 -0.1853 -0.0967  0.1472
 3628DPPE   C2A65394  15.552   1.626  10.096  0.3909  0.0694  0.1915
 3628DPPE   C3A65395  15.755   1.916  10.367  0.1078  0.0248 -0.2588
 3628DPPE   C4A65396  15.660   2.150  10.831 -0.0824  0.1155  0.0465
 3628DPPE   C1B65397  16.080   1.363   9.802 -0.2467  0.0180  0.1029
 3628DPPE   C2B65398  16.064   1.578  10.155 -0.0172  0.3765 -0.1066
 3628DPPE   C3B65399  16.222   1.825  10.444 -0.0405  0.0330 -0.1150
 3628DPPE   C4B65400  16.526   2.101  10.467 -0.0972 -0.1035 -0.0620
 3629DPPE   NH365401   7.896   3.022  16.036 -0.2097 -0.1186  0.1056
 3629DPPE   PO465402   7.594   3.292  15.931 -0.0958  0.0191 -0.1764
 3629DPPE   GL165403   7.937   3.505  16.190  0.1658 -0.1462 -0.1794
 3629DPPE   GL265404   7.918   3.531  16.599 -0.0299 -0.0061  0.1322
 3629DPPE   C1A65405   8.140   3.847  16.176 -0.0193 -0.1196  0.1013
 3629DPPE   C2A65406   8.373   4.111  16.400  0.5159  0.2696  0.3336
 3629DPPE   C3A65407   8.491   3.945  16.824 -0.0904 -0.0601  0.3839
 3629DPPE   C4A65408   8.899   3.936  17.046 -0.0694 -0.0227 -0.2989
 3629DPPE   C1B65409   8.314   3.403  16.918 -0.0566 -0.3345 -0.1443
 3629DPPE   C2B65410   8.617   3.369  17.250 -0.4614 -0.1698 -0.0817
 3629DPPE   C3B65411   8.967   3.648  17.510  0.1965 -0.0068 -0.0254
 3629DPPE   C4B65412   9.198   3.958  17.452 -0.1318 -0.0064  0.2014
 3630DPPE   NH365413   7.370   7.587   8.843  0.0976  0.0026  0.4419
 3630DPPE   PO465414   7.260   7.161   8.974  0.0758  0.0289  0.1432
 3630DPPE   GL165415   6.829   6.993   8.951  0.1660 -0.1388 -0.2323
 3630DPPE   GL265416   6.780   6.604   8.869 -0.4195 -0.0954  0.1420
 3630DPPE   C1A65417   6.475   6.934   8.700 -0.2135  0.0745  0.3274
 3630DPPE   C2A65418   6.141   6.753   8.493  0.1499  0.1434 -0.0400
 3630DPPE   C3A65419   5.797   6.557   8.514 -0.1060  0.1735 -0.1443
 3630DPPE   C4A65420   5.482   6.208   8.528 -0.1158 -0.2965 -0.1497
 3630DPPE   C1B65421   6.510   6.225   8.696  0.1235 -0.3779  0.0753
 3630DPPE   C2B65422   6.420   6.042   8.428 -0.1690  0.0220  0.1009
 3630DPPE   C3B65423   6.023   6.216   8.269 -0.2310  0.1388  0.0469
 3630DPPE   C4B65424   5.647   6.029   8.106 -0.5347  0.1985  0.0451
 3631DPPE   NH365425   8.003   6.231   8.015  0.0298  0.0203 -0.0973
 3631DPPE   PO465426   7.957   6.660   8.124 -0.1542  0.0747 -0.0561
 3631DPPE   GL165427   7.808   6.719   7.747  0.2370  0.0591  0.0234
 3631DPPE   GL265428   7.656   6.504   7.707  0.1889 -0.1273  0.2010
 3631DPPE   C1A65429   7.582   6.774   7.319 -0.3257 -0.1216  0.3057
 3631DPPE   C2A65430   7.173   7.025   7.085  0.1107 -0.1085 -0.2588
 3631DPPE   C3A65431   6.825   7.324   6.886 -0.0729  0.1669 -0.2256
 3631DPPE   C4A65432   6.529   7.302   6.685 -0.0938 -0.1111  0.1121
 3631DPPE   C1B65433   7.390   6.302   7.402 -0.0018  0.1795 -0.1125
 3631DPPE   C2B65434   7.305   6.160   7.063 -0.3901  0.0125 -0.2359
 3631DPPE   C3B65435   7.358   6.056   6.568 -0.6130  0.0853 -0.1528
 3631DPPE   C4B65436   7.039   5.939   6.220 -0.2462 -0.1121 -0.2755
 3632DPPE   NH365437  10.592   1.937  10.968  0.1000 -0.0605 -0.3515
 3632DPPE   PO465438  11.069   1.933  11.018 -0.0684 -0.2207 -0.2213
 3632DPPE   GL165439  11.416   2.129  10.892 -0.0253  0.0491 -0.0358
 3632DPPE   GL265440  11.768   1.927  11.001 -0.1244  0.1188  0.0607
 3632DPPE   C1A65441  11.442   2.566  11.068  0.0120 -0.0447 -0.0601
 3632DPPE   C2A65442  11.310   2.937  11.140  0.1356 -0.2799  0.1822
 3632DPPE   C3A65443  11.616   3.199  11.297 -0.1404  0.2942 -0.1162
 3632DPPE   C4A65444  11.893   3.509  11.382 -0.2555  0.2236  0.2249
 3632DPPE   C1B65445  11.980   2.441  10.990 -0.0191  0.2454  0.0549
 3632DPPE   C2B65446  12.354   2.714  11.095  0.0518  0.2015 -0.1132
 3632DPPE   C3B65447  12.671   2.971  10.919  0.1801 -0.1738 -0.3556
 3632DPPE   C4B65448  13.146   3.090  11.064 -0.0556 -0.2794  0.1857
 3633DPPE   NH365449  12.819  35.453  12.626  0.2059 -0.4670 -0.0025
 3633DPPE   PO465450  13.021  35.118  12.911  0.2412 -0.1329  0.3610
 3633DPPE   GL165451  13.077  34.606  12.852 -0.2098 -0.1201  0.5930
 3633DPPE   GL265452  13.264  34.589  12.496 -0.0576  0.0828 -0.2144
 3633DPPE   C1A65453  13.244  34.111  12.684  0.4202  0.1004 -0.1041
 3633DPPE   C2A65454  13.528  33.850  12.802  0.2147  0.2819  0.1373
 3633DPPE   C3A65455  13.822  33.780  13.176  0.1170 -0.0362  0.1241
 3633DPPE   C4A65456  13.757  33.891  13.682 -0.0159  0.1217 -0.1227
 3633DPPE   C1B65457  13.597  34.195  12.398  0.1841  0.3099  0.2603
 3633DPPE   C2B65458  13.780  33.851  12.279  0.1590 -0.0777 -0.0606
 3633DPPE   C3B65459  13.684  33.517  12.163  0.1787 -0.1649  0.0795
 3633DPPE   C4B65460  13.359  33.093  12.021  0.0697 -0.1422  0.0284
 3634DPPE   NH365461   6.586   3.753  16.883  0.2095 -0.1447 -0.1820
 3634DPPE   PO465462   6.044   3.877  16.965 -0.0577 -0.0784 -0.0696
 3634DPPE   GL165463   5.991   3.775  17.429  0.1416 -0.0032  0.0225
 3634DPPE   GL265464   5.667   3.861  17.354  0.0480  0.0229 -0.0488
 3634DPPE   C1A65465   5.996   3.748  17.924  0.1960  0.2093 -0.1319
 3634DPPE   C2A65466   5.947   4.031  18.251 -0.0285  0.3889 -0.0636
 3634DPPE   C3A65467   5.788   4.480  18.355 -0.0274  0.1160 -0.0229
 3634DPPE   C4A65468   5.811   4.937  18.508 -0.0942 -0.0431 -0.0106
 3634DPPE   C1B65469   5.277   4.047  17.420  0.1893  0.0594 -0.0480
 3634DPPE   C2B65470   4.930   4.211  17.580  0.2018  0.2522 -0.0359
 3634DPPE   C3B65471   4.579   4.461  17.696  0.1241  0.3513 -0.0297
 3634DPPE   C4B65472   4.499   4.552  18.115 -0.0596 -0.0288  0.1415
 3635DPPE   NH365473   8.030   3.087  11.047 -0.2584 -0.3684 -0.1379
 3635DPPE   PO465474   7.813   2.755  11.266 -0.3784  0.1337 -0.0865
 3635DPPE   GL165475   7.415   2.532  11.229  0.1889  0.0473 -0.2964
 3635DPPE   GL265476   7.267   2.770  11.021  0.1095 -0.0427  0.1940
 3635DPPE   C1A65477   7.086   2.340  11.335 -0.1868  0.0180 -0.3343
 3635DPPE   C2A65478   6.617   2.063  11.291  0.1633  0.0203 -0.0960
 3635DPPE   C3A65479   6.597   1.717  10.994 -0.0044 -0.0475  0.0771
 3635DPPE   C4A65480   6.367   1.394  10.868  0.0151 -0.0418  0.0857
 3635DPPE   C1B65481   7.126   2.345  10.842 -0.0158  0.0756 -0.1126
 3635DPPE   C2B65482   6.854   1.917  10.583  0.2704 -0.0656  0.0059
 3635DPPE   C3B65483   6.511   1.605  10.414  0.2060  0.0848 -0.1322
 3635DPPE   C4B65484   6.030   1.723  10.389  0.0610  0.1362  0.1617
 3636DPPE   NH365485  12.203   2.665   8.389  0.0156  0.0010  0.0256
 3636DPPE   PO465486  12.338   2.703   8.791  0.1653 -0.1711 -0.0601
 3636DPPE   GL165487  12.450   2.920   9.246  0.2299  0.1923  0.1014
 3636DPPE   GL265488  12.202   3.066   9.530  0.1644  0.1291  0.1975
 3636DPPE   C1A65489  12.792   3.120   9.533  0.1471 -0.1780 -0.0386
 3636DPPE   C2A65490  12.986   3.370   9.888 -0.1118 -0.3257 -0.1811
 3636DPPE   C3A65491  13.251   3.415  10.257 -0.0562 -0.1353  0.3282
 3636DPPE   C4A65492  13.336   3.497  10.660  0.2645 -0.2644 -0.1275
 3636DPPE   C1B65493  12.424   3.411   9.744 -0.4263 -0.0485  0.2714
 3636DPPE   C2B65494  12.546   3.720  10.044 -0.0923  0.2878 -0.0856
 3636DPPE   C3B65495  12.865   3.743  10.295  0.1042 -0.0174 -0.2289
 3636DPPE   C4B65496  12.976   3.876  10.758  0.0603 -0.1101  0.0137
 3637DPPE   NH365497   6.332   2.772  15.735  0.0714  0.2737  0.1019
 3637DPPE   PO465498   6.040   2.886  15.421  0.0983  0.1001  0.0744
 3637DPPE   GL165499   5.859   2.593  15.431 -0.1658  0.1389 -0.0362
 3637DPPE   GL265500   6.041   2.338  15.470 -0.0501 -0.0966 -0.1550
 3637DPPE   C1A65501   5.431   2.477  15.529  0.0210  0.0468 -0.2662
 3637DPPE   C2A65502   5.230   2.110  15.532  0.1486  0.2083 -0.1003
 3637DPPE   C3A65503   4.975   1.806  15.782 -0.0587 -0.0887  0.1339
 3637DPPE   C4A65504   4.576   1.894  15.939 -0.0622 -0.1018 -0.0712
 3637DPPE   C1B65505   5.822   2.119  15.212 -0.2325 -0.3927  0.0175
 3637DPPE   C2B65506   5.792   1.692  15.067 -0.0857  0.2279 -0.0196
 3637DPPE   C3B65507   5.475   1.347  14.950 -0.2413 -0.1244  0.3155
 3637DPPE   C4B65508   5.073   1.562  14.781 -0.2368 -0.3765 -0.1477
 3638DPPE   NH365509   6.580  11.549  10.592  0.3513 -0.4359  0.4653
 3638DPPE   PO465510   6.445  11.552  10.185  0.0110 -0.3025  0.2639
 3638DPPE   GL165511   6.150  11.819  10.086 -0.2769  0.1134 -0.0493
 3638DPPE   GL265512   5.954  11.906  10.359 -0.2212 -0.5642  0.0744
 3638DPPE   C1A65513   5.762  11.890   9.900  0.0622  0.0310 -0.2030
 3638DPPE   C2A65514   5.483  11.992   9.490 -0.0880 -0.3645 -0.2419
 3638DPPE   C3A65515   5.935  12.115   9.238  0.0790 -0.2212  0.0528
 3638DPPE   C4A65516   6.250  12.060   9.020  0.2395  0.3151  0.0487
 3638DPPE   C1B65517   6.212  12.340  10.360 -0.3422 -0.2713  0.1455
 3638DPPE   C2B65518   6.406  12.683  10.615  0.3826 -0.3720 -0.2467
 3638DPPE   C3B65519   6.673  13.027  10.800  0.5231 -0.1022  0.0837
 3638DPPE   C4B65520   6.686  13.516  10.913 -0.1298 -0.0968 -0.0490
 3639DPPE   NH365521  14.030   0.088   9.883  0.1738 -0.0834 -0.1567
 3639DPPE   PO465522  14.197  -0.076   9.503  0.2337  0.0422  0.0440
 3639DPPE   GL165523  14.119  -0.516   9.246  0.0088 -0.0134 -0.0333
 3639DPPE   GL265524  14.056  -0.744   9.442 -0.1631 -0.0092 -0.0070
 3639DPPE   C1A65525  13.983  -0.682   8.899  0.1187 -0.4301 -0.0644
 3639DPPE   C2A65526  14.093  -0.996   8.568 -0.0337 -0.1773 -0.2008
 3639DPPE   C3A65527  14.082  -1.406   8.334 -0.0145  0.3922  0.0456
 3639DPPE   C4A65528  14.390  -1.746   8.124  0.1158 -0.2212 -0.0048
 3639DPPE   C1B65529  13.714  -0.998   9.243  0.2412  0.1658  0.2246
 3639DPPE   C2B65530  13.429  -1.191   9.017 -0.1652  0.2477 -0.1027
 3639DPPE   C3B65531  13.130  -1.315   8.774 -0.1576  0.0182 -0.4683
 3639DPPE   C4B65532  12.756  -1.250   8.656 -0.3052 -0.3173  0.0517
 3640DPPE   NH365533  11.008   7.083   5.995  0.1921 -0.1240  0.1394
 3640DPPE   PO465534  10.580   6.911   6.062  0.1627  0.0915 -0.1598
 3640DPPE   GL165535  10.217   7.052   5.883  0.1225  0.0815  0.1176
 3640DPPE   GL265536  10.105   6.949   5.508  0.1937 -0.2121  0.1706
 3640DPPE   C1A65537   9.803   7.041   5.887 -0.0092 -0.1153  0.1123
 3640DPPE   C2A65538   9.481   6.868   5.700 -0.2007 -0.0174  0.1100
 3640DPPE   C3A65539   9.202   6.566   5.359  0.2421  0.0990  0.2046
 3640DPPE   C4A65540   8.855   6.522   4.982  0.0616 -0.0268 -0.0954
 3640DPPE   C1B65541   9.723   7.152   5.418  0.0844 -0.0971  0.0962
 3640DPPE   C2B65542   9.341   7.099   5.189 -0.0667 -0.2144 -0.2063
 3640DPPE   C3B65543   9.117   7.000   4.785 -0.0454 -0.2377  0.3367
 3640DPPE   C4B65544   8.944   7.013   4.483 -0.3211 -0.1641  0.0992
 3641DPPE   NH365545  11.322  11.675   6.250 -0.3037 -0.0756  0.1853
 3641DPPE   PO465546  10.979  11.449   6.667  0.0400 -0.1184  0.2365
 3641DPPE   GL165547  11.241  11.777   6.838  0.2986 -0.3029 -0.1730
 3641DPPE   GL265548  11.115  12.271   6.796 -0.2012 -0.2520  0.1992
 3641DPPE   C1A65549  11.457  12.024   7.153 -0.0271  0.0001 -0.1702
 3641DPPE   C2A65550  11.675  12.228   7.444 -0.1692 -0.2498 -0.0269
 3641DPPE   C3A65551  11.961  12.265   7.829 -0.0263  0.0287  0.0336
 3641DPPE   C4A65552  12.212  12.353   8.184 -0.4171  0.1253  0.0995
 3641DPPE   C1B65553  11.346  12.497   6.951 -0.0807  0.1377  0.0794
 3641DPPE   C2B65554  11.491  12.917   7.063  0.0906 -0.1164  0.0792
 3641DPPE   C3B65555  11.660  13.292   7.036  0.0711  0.2455 -0.0279
 3641DPPE   C4B65556  11.518  13.784   7.076  0.1595  0.0020  0.1011
 3642DPPE   NH365557   6.690   9.140   9.352  0.2692  0.2363  0.0362
 3642DPPE   PO465558   6.623   9.520   9.215  0.1185 -0.1788 -0.3728
 3642DPPE   GL165559   6.289   9.620   8.960 -0.1248 -0.0801  0.0178
 3642DPPE   GL265560   6.144   9.726   9.079 -0.1427 -0.1860  0.0442
 3642DPPE   C1A65561   5.965   9.676   8.630 -0.1559  0.2191  0.1122
 3642DPPE   C2A65562   5.772   9.514   8.217  0.3581  0.0280 -0.2410
 3642DPPE   C3A65563   5.688   9.556   7.791 -0.3531 -0.3709 -0.0638
 3642DPPE   C4A65564   5.821   9.803   7.489  0.1153 -0.2423 -0.0082
 3642DPPE   C1B65565   5.633   9.716   9.013  0.0937  0.0114  0.1611
 3642DPPE   C2B65566   5.430   9.538   8.607  0.2651 -0.0521 -0.2380
 3642DPPE   C3B65567   5.156   9.552   8.318  0.4002  0.1636 -0.0644
 3642DPPE   C4B65568   5.063   9.524   7.885  0.2314 -0.1844 -0.1969
 3643DPPE   NH365569  14.335   1.147   8.992  0.0172  0.3317  0.1430
 3643DPPE   PO465570  14.646   1.007   8.599  0.0968 -0.0489  0.2781
 3643DPPE   GL165571  14.911   1.179   8.829  0.0912  0.0109  0.0062
 3643DPPE   GL265572  14.839   1.605   8.854  0.1133 -0.0609 -0.1635
 3643DPPE   C1A65573  15.178   1.384   9.254  0.1831 -0.1475 -0.0663
 3643DPPE   C2A65574  15.364   1.630   9.478  0.1628 -0.1431  0.0466
 3643DPPE   C3A65575  15.414   1.979   9.676 -0.1902  0.4754  0.1574
 3643DPPE   C4A65576  15.557   2.216   9.922  0.2657  0.2067 -0.1538
 3643DPPE   C1B65577  14.996   1.862   9.117  0.4132  0.2905 -0.2438
 3643DPPE   C2B65578  14.950   2.130   9.449  0.0355  0.0414 -0.0526
 3643DPPE   C3B65579  15.170   2.477   9.728  0.0085  0.1828 -0.1098
 3643DPPE   C4B65580  15.316   2.585  10.241  0.0288 -0.0826  0.1643
 3644DPPE   NH365581  11.367   1.538   8.995  0.1218  0.0764  0.0777
 3644DPPE   PO465582  10.928   1.509   8.904 -0.0116  0.0926  0.0997
 3644DPPE   GL165583  10.731   1.271   8.586  0.5205  0.1033 -0.2463
 3644DPPE   GL265584  10.464   1.376   8.644 -0.0563 -0.3841  0.0373
 3644DPPE   C1A65585  10.579   0.946   8.299  0.2301 -0.0476 -0.0530
 3644DPPE   C2A65586  10.253   0.689   8.147  0.0538  0.0308 -0.1470
 3644DPPE   C3A65587   9.981   0.357   8.028 -0.2112  0.0252  0.2124
 3644DPPE   C4A65588   9.792   0.039   8.230  0.2197 -0.2712 -0.3382
 3644DPPE   C1B65589  10.130   1.076   8.532  0.0587 -0.4092 -0.1771
 3644DPPE   C2B65590   9.786   0.890   8.151 -0.0028  0.3115 -0.2648
 3644DPPE   C3B65591   9.639   0.661   7.823 -0.3141  0.3664 -0.0583
 3644DPPE   C4B65592   9.719   0.317   7.561 -0.2288  0.1520  0.4112
 3645DPPE   NH365593  16.118   7.021   4.444 -0.1432  0.1267  0.3722
 3645DPPE   PO465594  16.425   7.143   4.661  0.0340 -0.2044  0.2783
 3645DPPE   GL165595  16.401   7.491   4.401 -0.0093 -0.0778  0.0950
 3645DPPE   GL265596  16.296   7.893   4.532 -0.2192 -0.1402 -0.0962
 3645DPPE   C1A65597  16.313   7.822   4.036 -0.1251  0.1748 -0.0545
 3645DPPE   C2A65598  16.159   7.785   3.648  0.2129 -0.4089 -0.1848
 3645DPPE   C3A65599  16.182   7.471   3.380 -0.1218 -0.1005 -0.2463
 3645DPPE   C4A65600  16.201   7.138   2.923  0.0262 -0.1362 -0.2168
 3645DPPE   C1B65601  16.216   8.403   4.513 -0.1928  0.1867 -0.3213
 3645DPPE   C2B65602  15.975   8.673   4.510  0.2250 -0.1260  0.3244
 3645DPPE   C3B65603  15.943   9.068   4.525 -0.1957  0.0979 -0.0268
 3645DPPE   C4B65604  15.964   9.491   4.707 -0.0258 -0.1760 -0.1102
 3646DPPE   NH365605  10.118  11.279   7.038  0.2281 -0.1072  0.0599
 3646DPPE   PO465606  10.066  11.443   7.370 -0.0420 -0.4449 -0.0309
 3646DPPE   GL165607  10.159  11.752   7.757 -0.2128  0.2780  0.1913
 3646DPPE   GL265608   9.956  12.086   7.802 -0.0440 -0.0184 -0.0934
 3646DPPE   C1A65609  10.383  11.802   8.146  0.3326 -0.1588  0.2003
 3646DPPE   C2A65610  10.707  11.542   8.275 -0.0147  0.2566  0.3122
 3646DPPE   C3A65611  10.786  11.200   8.372 -0.1225  0.0958  0.0885
 3646DPPE   C4A65612  11.139  11.059   8.571 -0.1535  0.0513 -0.1991
 3646DPPE   C1B65613  10.096  12.529   7.895 -0.0084  0.0914 -0.0320
 3646DPPE   C2B65614  10.089  12.727   8.228 -0.3697  0.2329  0.0017
 3646DPPE   C3B65615  10.210  12.698   8.652  0.0702  0.0278 -0.1219
 3646DPPE   C4B65616  10.308  12.546   9.034  0.1083 -0.3205  0.5198
 3647DPPE   NH365617  12.474   8.219   4.770 -0.1061  0.1411 -0.1028
 3647DPPE   PO465618  12.271   8.631   4.961 -0.0908  0.2712 -0.1243
 3647DPPE   GL165619  12.152   8.962   4.538  0.1857  0.1029 -0.0611
 3647DPPE   GL265620  12.361   8.680   4.446  0.0788  0.0247 -0.0790
 3647DPPE   C1A65621  11.913   8.787   4.148 -0.0278  0.0103 -0.2071
 3647DPPE   C2A65622  11.711   8.477   3.842 -0.0215  0.0683 -0.1358
 3647DPPE   C3A65623  11.471   8.351   3.468 -0.0294 -0.0603 -0.2231
 3647DPPE   C4A65624  11.084   8.248   3.159 -0.1516 -0.1428  0.1630
 3647DPPE   C1B65625  12.251   8.447   4.048 -0.3282 -0.0004  0.0929
 3647DPPE   C2B65626  12.233   8.248   3.681  0.0331 -0.1147  0.1197
 3647DPPE   C3B65627  12.262   8.040   3.280  0.5133 -0.0053 -0.2415
 3647DPPE   C4B65628  12.500   8.172   2.987 -0.0594 -0.3450 -0.1760
 3648DPPE   NH365629  11.112  35.403  14.143  0.0435  0.0698 -0.1036
 3648DPPE   PO465630  11.048  35.616  14.554  0.1703 -0.0846 -0.0693
 3648DPPE   GL165631  10.875  35.255  14.578  0.0998 -0.0718 -0.2571
 3648DPPE   GL265632  10.587  35.265  14.802 -0.3381 -0.0194  0.0820
 3648DPPE   C1A65633  10.704  34.869  14.638 -0.1290 -0.0502  0.0300
 3648DPPE   C2A65634  10.892  34.493  14.779  0.0848  0.4210 -0.0936
 3648DPPE   C3A65635  10.747  34.143  14.967  0.3498 -0.2157 -0.0898
 3648DPPE   C4A65636  10.666  33.786  15.120 -0.2874  0.0415  0.2329
 3648DPPE   C1B65637  10.260  35.001  14.850 -0.1935 -0.0663 -0.0427
 3648DPPE   C2B65638   9.790  34.958  14.923 -0.1301  0.2001 -0.1957
 3648DPPE   C3B65639   9.389  34.772  15.073 -0.0243  0.0112 -0.1667
 3648DPPE   C4B65640   8.984  34.672  15.190 -0.1217 -0.2389  0.1147
 3649DPPE   NH365641   7.032  10.417  11.211  0.0358 -0.0869  0.1635
 3649DPPE   PO465642   6.658  10.542  11.507 -0.2408  0.1464 -0.0383
 3649DPPE   GL165643   6.772  10.802  11.861 -0.1700  0.1200  0.0084
 3649DPPE   GL265644   7.030  10.633  11.964 -0.5210  0.1440  0.3595
 3649DPPE   C1A65645   6.675  11.102  12.132  0.0718 -0.0056 -0.1643
 3649DPPE   C2A65646   6.783  11.339  12.396  0.0108 -0.5571  0.2319
 3649DPPE   C3A65647   7.037  11.380  12.743 -0.3190  0.1370  0.0425
 3649DPPE   C4A65648   6.793  11.500  13.102  0.1357  0.0061 -0.0423
 3649DPPE   C1B65649   7.461  10.395  11.974 -0.1173 -0.2294  0.0080
 3649DPPE   C2B65650   7.838  10.360  12.204  0.3100  0.0610 -0.0854
 3649DPPE   C3B65651   8.186  10.510  12.117 -0.0323 -0.0235  0.0948
 3649DPPE   C4B65652   8.466  10.350  11.803  0.3060  0.2538 -0.0083
 3650DPPE   NH365653  14.863   4.998   4.919 -0.0506  0.0072  0.2405
 3650DPPE   PO465654  15.272   4.947   5.091 -0.5439  0.1224 -0.2289
 3650DPPE   GL165655  15.403   4.941   4.723  0.0264  0.3055 -0.1689
 3650DPPE   GL265656  15.748   4.776   4.654 -0.1793  0.1889 -0.2335
 3650DPPE   C1A65657  15.264   4.730   4.307 -0.1235  0.2850  0.2575
 3650DPPE   C2A65658  14.998   4.590   3.942  0.1105 -0.1647 -0.0167
 3650DPPE   C3A65659  14.837   4.350   3.640 -0.0903 -0.3105 -0.0681
 3650DPPE   C4A65660  14.568   4.438   3.238 -0.3848 -0.2587  0.3337
 3650DPPE   C1B65661  16.100   4.664   4.350 -0.0437 -0.0674  0.1032
 3650DPPE   C2B65662  16.241   4.427   3.968 -0.1528  0.1267  0.3250
 3650DPPE   C3B65663  16.035   4.187   3.607 -0.0354  0.3065  0.0156
 3650DPPE   C4B65664  15.773   4.121   3.203 -0.0109 -0.0374 -0.0159
 3651DPPE   NH365665   5.007   7.303  12.228  0.2252  0.2951  0.1725
 3651DPPE   PO465666   4.780   6.976  12.464 -0.2879 -0.1545 -0.3621
 3651DPPE   GL165667   4.313   6.877  12.574  0.1778 -0.2106  0.2058
 3651DPPE   GL265668   4.187   6.742  12.883  0.0274 -0.2449 -0.3357
 3651DPPE   C1A65669   3.937   6.815  12.407 -0.0492 -0.2189  0.0785
 3651DPPE   C2A65670   3.499   6.901  12.493 -0.1276  0.1906  0.2205
 3651DPPE   C3A65671   3.042   6.701  12.401  0.0788 -0.1171 -0.1381
 3651DPPE   C4A65672   2.663   6.793  12.346  0.3348 -0.1217  0.0971
 3651DPPE   C1B65673   3.805   6.737  12.869 -0.0891 -0.1235  0.0026
 3651DPPE   C2B65674   3.386   6.620  12.917  0.0657 -0.2075  0.1603
 3651DPPE   C3B65675   3.074   6.841  12.859  0.0252  0.0711  0.0719
 3651DPPE   C4B65676   2.695   7.293  12.840 -0.0293 -0.0405  0.1150
 3652DPPE   NH365677   9.282   6.067   8.157  0.2634  0.2173  0.0097
 3652DPPE   PO465678   9.728   6.308   8.083 -0.1328 -0.2079  0.0854
 3652DPPE   GL165679   9.821   6.581   8.251 -0.0839 -0.2765 -0.1797
 3652DPPE   GL265680  10.164   6.723   8.214 -0.1364 -0.0536 -0.0228
 3652DPPE   C1A65681   9.791   7.092   8.340  0.1044 -0.0215 -0.0909
 3652DPPE   C2A65682   9.635   7.438   8.461 -0.2612  0.0410 -0.0239
 3652DPPE   C3A65683   9.744   7.864   8.627  0.1175  0.1340 -0.2157
 3652DPPE   C4A65684   9.526   8.156   8.738 -0.3274  0.0047 -0.2037
 3652DPPE   C1B65685  10.330   7.073   8.443 -0.2294  0.0563 -0.1477
 3652DPPE   C2B65686  10.181   7.444   8.604  0.0221 -0.0043 -0.1017
 3652DPPE   C3B65687  10.258   7.709   8.955 -0.1089 -0.0548 -0.1524
 3652DPPE   C4B65688  10.253   8.055   9.309  0.2379 -0.2091 -0.0389
 3653DPPE   NH365689   8.966   5.724   9.809 -0.2439 -0.0840  0.0119
 3653DPPE   PO465690   8.976   5.328   9.938  0.2102 -0.1270 -0.1294
 3653DPPE   GL165691   9.198   5.463  10.200  0.0614 -0.5209  0.2759
 3653DPPE   GL265692   9.079   5.655  10.369  0.0643 -0.0999  0.0409
 3653DPPE   C1A65693   9.689   5.712  10.213 -0.0615  0.3095 -0.3946
 3653DPPE   C2A65694  10.053   5.916  10.402 -0.1323 -0.1235  0.1000
 3653DPPE   C3A65695  10.293   6.152  10.700  0.0504  0.2141  0.1384
 3653DPPE   C4A65696  10.280   6.497  10.877 -0.0826 -0.1893 -0.1786
 3653DPPE   C1B65697   9.269   5.994  10.348 -0.3854 -0.3782  0.1703
 3653DPPE   C2B65698   9.602   6.193  10.532  0.1908  0.1542 -0.1878
 3653DPPE   C3B65699   9.843   6.590  10.652  0.0329  0.1557 -0.1183
 3653DPPE   C4B65700  10.121   6.967  10.663 -0.0588 -0.2967 -0.3388
 3654DPPE   NH365701  15.682  35.790   9.876 -0.1386  0.0776 -0.0976
 3654DPPE   PO465702  15.667  36.180   9.515 -0.1629 -0.0029  0.4074
 3654DPPE   GL165703  15.788  35.882   9.319  0.3942 -0.0270 -0.1474
 3654DPPE   GL265704  15.816  35.836   9.001  0.0334  0.4194 -0.0952
 3654DPPE   C1A65705  15.692  35.371   9.288 -0.0494  0.3949 -0.0475
 3654DPPE   C2A65706  15.548  34.818   9.435 -0.0731 -0.0447 -0.2375
 3654DPPE   C3A65707  15.390  34.384   9.487 -0.1627  0.2086  0.0774
 3654DPPE   C4A65708  14.974  34.110   9.497  0.0154 -0.0306  0.1763
 3654DPPE   C1B65709  16.145  35.547   9.238 -0.3975  0.1220 -0.3412
 3654DPPE   C2B65710  16.426  35.418   9.590 -0.4884  0.1558  0.1021
 3654DPPE   C3B65711  16.930  35.171   9.519 -0.0847  0.0698  0.0590
 3654DPPE   C4B65712  17.286  34.887   9.501  0.2304  0.2413  0.1577
 3655DPPE   NH365713   9.477   1.716  10.433 -0.0459 -0.3161 -0.0923
 3655DPPE   PO465714   9.296   2.107  10.169  0.0327  0.1209 -0.0046
 3655DPPE   GL165715   8.980   1.986   9.977  0.2501  0.1840  0.2205
 3655DPPE   GL265716   8.734   2.034  10.156  0.1167 -0.1408 -0.1147
 3655DPPE   C1A65717   8.875   1.641   9.660  0.3482  0.0969 -0.1286
 3655DPPE   C2A65718   8.582   1.338   9.600  0.0735  0.1544  0.0362
 3655DPPE   C3A65719   8.233   1.121   9.711 -0.0461  0.0275 -0.1827
 3655DPPE   C4A65720   7.892   0.906   9.800 -0.1065 -0.1818  0.0206
 3655DPPE   C1B65721   8.436   1.654   9.975  0.0752 -0.1438 -0.0106
 3655DPPE   C2B65722   8.188   1.613   9.575 -0.1161 -0.2585  0.1799
 3655DPPE   C3B65723   7.959   1.337   9.333  0.2443  0.0066 -0.0715
 3655DPPE   C4B65724   7.567   1.307   9.430  0.2376 -0.3431 -0.0173
 3656DPPE   NH365725  12.023   3.773   6.870  0.3303  0.0094  0.1600
 3656DPPE   PO465726  12.342   3.726   6.444 -0.2922 -0.0874  0.0033
 3656DPPE   GL165727  11.925   3.915   6.383  0.0051 -0.2226 -0.0524
 3656DPPE   GL265728  11.644   3.730   6.533  0.1434 -0.0380  0.2355
 3656DPPE   C1A65729  11.806   3.890   6.056  0.1231  0.2358  0.0027
 3656DPPE   C2A65730  11.727   3.727   5.658 -0.1185  0.2058  0.2553
 3656DPPE   C3A65731  11.599   3.419   5.326  0.3131 -0.2063 -0.1780
 3656DPPE   C4A65732  11.283   3.542   5.064 -0.2302  0.0370  0.0525
 3656DPPE   C1B65733  11.440   3.563   6.107 -0.2194  0.3255  0.0885
 3656DPPE   C2B65734  11.369   3.289   5.752 -0.1779 -0.0027 -0.0780
 3656DPPE   C3B65735  11.433   2.928   5.504 -0.1934  0.1807 -0.1637
 3656DPPE   C4B65736  11.620   2.480   5.280  0.0301 -0.1014 -0.0278
 3657DPPE   NH365737   7.343   8.826   8.565 -0.1074  0.1831 -0.0534
 3657DPPE   PO465738   7.271   8.514   8.873  0.0091  0.1123  0.0731
 3657DPPE   GL165739   6.889   8.441   8.574  0.3714 -0.0974  0.1189
 3657DPPE   GL265740   6.600   8.304   8.684 -0.0459 -0.3138 -0.1171
 3657DPPE   C1A65741   6.635   8.547   8.263  0.2870 -0.1682 -0.1888
 3657DPPE   C2A65742   6.264   8.582   8.091  0.1766  0.2007  0.1829
 3657DPPE   C3A65743   5.923   8.576   7.857 -0.2192  0.0670  0.0511
 3657DPPE   C4A65744   5.651   8.433   7.636 -0.0025  0.0011  0.0938
 3657DPPE   C1B65745   6.301   8.682   8.601  0.3015 -0.2832  0.3708
 3657DPPE   C2B65746   6.010   8.945   8.346  0.2833 -0.1822  0.0989
 3657DPPE   C3B65747   5.713   8.844   8.281 -0.4195  0.3365  0.0631
 3657DPPE   C4B65748   5.343   9.123   8.163 -0.3744 -0.2749 -0.3069
 3658DPPE   NH365749  13.685  36.397   9.493  0.1346  0.0337  0.0303
 3658DPPE   PO465750  13.517  36.427   9.192  0.0748  0.0397  0.0528
 3658DPPE   GL165751  13.645  36.163   8.884 -0.1399  0.2783 -0.3919
 3658DPPE   GL265752  13.825  36.252   8.664 -0.1999  0.2545 -0.1116
 3658DPPE   C1A65753  13.562  35.780   8.629  0.2408  0.1973  0.1136
 3658DPPE   C2A65754  13.554  35.415   8.396 -0.2570  0.0503  0.0194
 3658DPPE   C3A65755  13.710  35.146   8.051 -0.0425  0.1405  0.0719
 3658DPPE   C4A65756  13.797  34.713   8.050  0.0829  0.1131  0.0938
 3658DPPE   C1B65757  14.035  35.988   8.400 -0.2468 -0.0138 -0.2560
 3658DPPE   C2B65758  13.974  35.668   8.065  0.3538 -0.1779  0.0909
 3658DPPE   C3B65759  14.075  35.388   7.809  0.0505 -0.2956  0.1378
 3658DPPE   C4B65760  13.986  34.999   7.690  0.1274  0.0792  0.0345
 3659DPPE   NH365761  10.011   1.087  10.756  0.0076 -0.1153  0.0239
 3659DPPE   PO465762  10.467   1.038  10.618 -0.5595 -0.1050  0.1142
 3659DPPE   GL165763  10.146   1.064  10.295 -0.0456  0.2620  0.2845
 3659DPPE   GL265764  10.042   1.198   9.990  0.0155  0.1484  0.0196
 3659DPPE   C1A65765   9.744   0.837  10.161 -0.1602 -0.4846 -0.1484
 3659DPPE   C2A65766   9.664   0.484  10.299  0.2532 -0.2370 -0.2291
 3659DPPE   C3A65767   9.486   0.140  10.157 -0.1019  0.0296  0.3190
 3659DPPE   C4A65768   9.130  -0.015  10.074  0.0197 -0.2879  0.0099
 3659DPPE   C1B65769   9.999   0.911   9.671  0.1468  0.0035  0.2362
 3659DPPE   C2B65770   9.758   0.683   9.248 -0.1616 -0.0187  0.1506
 3659DPPE   C3B65771   9.353   0.425   9.157  0.6525  0.2526  0.1315
 3659DPPE   C4B65772   8.826   0.366   9.183  0.0518 -0.1416 -0.1464
 3660DPPE   NH365773  15.300   8.406   5.383 -0.0593  0.1981 -0.2875
 3660DPPE   PO465774  14.937   8.375   5.757  0.0364 -0.0782  0.1385
 3660DPPE   GL165775  15.275   8.697   5.842  0.1025  0.1344 -0.0456
 3660DPPE   GL265776  15.344   8.941   5.561  0.1239  0.0842  0.1297
 3660DPPE   C1A65777  15.683   8.892   5.975 -0.1927 -0.0418  0.1513
 3660DPPE   C2A65778  16.137   8.730   5.981 -0.0839 -0.1364  0.1003
 3660DPPE   C3A65779  16.476   8.879   6.170 -0.0675 -0.1129  0.2489
 3660DPPE   C4A65780  16.908   8.979   6.205 -0.0247  0.0359 -0.2240
 3660DPPE   C1B65781  15.467   9.270   5.785 -0.2965  0.2251  0.0696
 3660DPPE   C2B65782  15.830   9.444   5.913 -0.0664  0.1635 -0.3291
 3660DPPE   C3B65783  16.232   9.391   6.246 -0.0913  0.3248  0.1875
 3660DPPE   C4B65784  16.597   9.157   6.571  0.2085 -0.1815 -0.3359
 3661DPPE   NH365785  11.529  35.783  14.410 -0.1748 -0.3561  0.0745
 3661DPPE   PO465786  11.532  35.411  14.572  0.2627 -0.0653  0.0912
 3661DPPE   GL165787  11.306  34.986  14.499 -0.1758 -0.4942  0.0202
 3661DPPE   GL265788  11.300  34.819  14.836 -0.1851 -0.1067  0.3425
 3661DPPE   C1A65789  11.296  34.494  14.419 -0.2111 -0.0919  0.2532
 3661DPPE   C2A65790  11.137  34.147  14.149 -0.1805 -0.2017  0.1165
 3661DPPE   C3A65791  11.165  33.743  14.214 -0.2004  0.1574 -0.0169
 3661DPPE   C4A65792  11.144  33.479  14.580  0.1695  0.0862 -0.0860
 3661DPPE   C1B65793  11.542  34.451  14.983  0.3131 -0.0117 -0.2213
 3661DPPE   C2B65794  11.778  34.081  14.917  0.0844 -0.0579 -0.2243
 3661DPPE   C3B65795  11.603  33.661  14.776  0.2209 -0.0815 -0.2052
 3661DPPE   C4B65796  11.572  33.174  14.944  0.1813  0.2849 -0.2213
 3662DPPE   NH365797  10.199   6.537   7.273 -0.2808 -0.2531  0.2956
 3662DPPE   PO465798  10.440   6.157   7.392 -0.3808 -0.2307 -0.1787
 3662DPPE   GL165799  10.790   6.410   7.683  0.1983  0.3428 -0.0043
 3662DPPE   GL265800  10.619   6.691   7.810  0.0926 -0.1455 -0.1096
 3662DPPE   C1A65801  10.966   6.455   8.128  0.0869  0.3094 -0.0276
 3662DPPE   C2A65802  11.047   6.239   8.420 -0.0004 -0.3633 -0.2557
 3662DPPE   C3A65803  10.902   5.838   8.677  0.1418 -0.1039  0.0230
 3662DPPE   C4A65804  10.636   5.629   9.041  0.0118 -0.0093 -0.0359
 3662DPPE   C1B65805  10.496   7.056   7.987  0.1494  0.1504  0.4637
 3662DPPE   C2B65806  10.649   7.398   8.263  0.0033  0.1647 -0.1759
 3662DPPE   C3B65807  10.775   7.674   8.500 -0.3825  0.0196 -0.1682
 3662DPPE   C4B65808  10.651   7.920   8.760  0.1299 -0.0415 -0.0507
 3663DPPE   NH365809   9.948  10.033   7.596  0.0264 -0.0094  0.2467
 3663DPPE   PO465810   9.708  10.516   7.518  0.2209  0.4026  0.3016
 3663DPPE   GL165811  10.145  10.521   7.617  0.0290  0.1341  0.4086
 3663DPPE   GL265812  10.394  10.475   7.436  0.0204  0.2257 -0.2339
 3663DPPE   C1A65813  10.468  10.855   7.845  0.3015 -0.0112  0.0290
 3663DPPE   C2A65814  10.900  11.117   7.903  0.4482 -0.0822 -0.0696
 3663DPPE   C3A65815  11.192  11.515   7.990 -0.1136  0.4345 -0.3334
 3663DPPE   C4A65816  11.694  11.475   7.903  0.2774 -0.1908 -0.1348
 3663DPPE   C1B65817  10.608  10.369   7.828 -0.0489  0.0048 -0.2249
 3663DPPE   C2B65818  10.807  10.694   8.132 -0.3875  0.0953 -0.3247
 3663DPPE   C3B65819  10.941  10.633   8.447 -0.0579 -0.1601 -0.1008
 3663DPPE   C4B65820  10.908  10.654   8.870  0.2380 -0.0124  0.0935
 3664DPPE   NH365821  15.357   0.713   7.783  0.2040  0.1949 -0.0784
 3664DPPE   PO465822  15.763   0.848   7.737  0.0028  0.1968  0.1285
 3664DPPE   GL165823  15.640   0.513   7.470 -0.0167  0.0699  0.2052
 3664DPPE   GL265824  15.981   0.565   7.330 -0.0845  0.0310  0.1954
 3664DPPE   C1A65825  15.750   0.097   7.120  0.2903 -0.0871 -0.2084
 3664DPPE   C2A65826  15.989  -0.225   6.926 -0.0049 -0.2663  0.1729
 3664DPPE   C3A65827  16.191  -0.488   6.611 -0.1326 -0.0336  0.2456
 3664DPPE   C4A65828  16.417  -0.517   6.282 -0.2039 -0.1257  0.1025
 3664DPPE   C1B65829  16.168   0.439   6.992  0.0690 -0.1509 -0.1244
 3664DPPE   C2B65830  16.221   0.418   6.575  0.1259 -0.2207  0.1278
 3664DPPE   C3B65831  16.311   0.214   6.203 -0.0907 -0.0165 -0.0197
 3664DPPE   C4B65832  16.373  -0.140   5.858  0.2553  0.3791  0.1144
 3665DPPE   NH365833  11.918  10.822   5.598 -0.1393 -0.0783 -0.3042
 3665DPPE   PO465834  11.892  10.745   5.993 -0.0599 -0.2264  0.1757
 3665DPPE   GL165835  12.070  10.802   6.347  0.0441  0.2186 -0.1313
 3665DPPE   GL265836  11.986  11.110   6.468 -0.1935  0.1921  0.0053
 3665DPPE   C1A65837  12.456  11.079   6.565  0.1954  0.1791 -0.0620
 3665DPPE   C2A65838  12.772  11.205   6.784 -0.2787 -0.0724 -0.3407
 3665DPPE   C3A65839  13.221  11.381   6.740 -0.3329  0.1204  0.6086
 3665DPPE   C4A65840  13.706  11.433   6.745 -0.3081  0.1212  0.0393
 3665DPPE   C1B65841  12.140  11.453   6.771 -0.0273 -0.2391 -0.2903
 3665DPPE   C2B65842  12.433  11.666   6.918  0.1960  0.1419  0.2813
 3665DPPE   C3B65843  12.907  11.801   6.987  0.1153  0.1126 -0.1069
 3665DPPE   C4B65844  13.098  11.804   7.526  0.4410  0.1661  0.0526
 3666DPPE   NH365845   8.257   7.836   7.029  0.4389 -0.1889 -0.1779
 3666DPPE   PO465846   8.434   7.359   6.981 -0.1004  0.4322 -0.1406
 3666DPPE   GL165847   8.308   6.998   6.794 -0.2558  0.3587 -0.0915
 3666DPPE   GL265848   8.564   7.018   6.680  0.1225 -0.0770  0.0772
 3666DPPE   C1A65849   7.959   6.917   6.548 -0.1230 -0.1090  0.2053
 3666DPPE   C2A65850   7.659   6.944   6.162  0.0120 -0.1305 -0.1281
 3666DPPE   C3A65851   7.403   7.300   5.982 -0.1376  0.2366  0.1702
 3666DPPE   C4A65852   7.364   7.597   5.594  0.1036  0.0188  0.0398
 3666DPPE   C1B65853   8.316   7.196   6.305 -0.1517  0.1018  0.0945
 3666DPPE   C2B65854   8.054   7.052   5.878 -0.1257 -0.0112  0.0375
 3666DPPE   C3B65855   7.658   7.181   5.564 -0.1825 -0.1350  0.0982
 3666DPPE   C4B65856   7.670   7.163   5.067 -0.1294  0.4217  0.1807
 3667DPPE   NH365857   6.712   8.770  11.821  0.0189 -0.2608  0.0269
 3667DPPE   PO465858   6.394   9.024  11.893  0.0463  0.3314  0.0407
 3667DPPE   GL165859   6.801   9.313  11.992  0.1715  0.1378  0.0721
 3667DPPE   GL265860   7.034   8.998  12.140  0.1305 -0.4813  0.1068
 3667DPPE   C1A65861   7.160   9.461  12.210  0.2593 -0.3001 -0.0601
 3667DPPE   C2A65862   7.603   9.570  12.417 -0.1032  0.2328  0.1561
 3667DPPE   C3A65863   7.751   9.873  12.576 -0.2258 -0.1733 -0.1358
 3667DPPE   C4A65864   8.034  10.153  12.806  0.0615 -0.0280 -0.2088
 3667DPPE   C1B65865   7.336   9.096  12.430 -0.2025  0.0374  0.0261
 3667DPPE   C2B65866   7.636   9.181  12.811  0.0130 -0.3976  0.4750
 3667DPPE   C3B65867   8.112   9.276  12.949 -0.0212 -0.2097  0.2395
 3667DPPE   C4B65868   8.472   9.335  12.905  0.0659  0.0987 -0.0951
 3668DPPE   NH365869  17.615   3.803   6.774  0.2533  0.1390  0.3014
 3668DPPE   PO465870  17.976   3.698   6.926 -0.1949  0.0159 -0.1779
 3668DPPE   GL165871  18.379   3.666   6.989  0.0295  0.1916 -0.2955
 3668DPPE   GL265872  18.554   3.374   6.896  0.2432 -0.2683 -0.1708
 3668DPPE   C1A65873  18.559   4.126   6.842  0.0423  0.2851 -0.2824
 3668DPPE   C2A65874  18.967   4.377   6.768 -0.4255  0.1076  0.3978
 3668DPPE   C3A65875  19.367   4.424   6.569  0.1491 -0.0175 -0.0126
 3668DPPE   C4A65876  19.774   4.512   6.477  0.0928  0.0373  0.0792
 3668DPPE   C1B65877  18.871   3.680   6.955  0.1394 -0.0488  0.0104
 3668DPPE   C2B65878  19.094   3.984   6.955 -0.3871  0.0242  0.3477
 3668DPPE   C3B65879  19.371   4.324   7.163  0.0351  0.1112  0.1591
 3668DPPE   C4B65880  19.674   4.574   6.972  0.3162 -0.3228  0.0657
 3669DPPE   NH365881  12.316  35.278  12.440 -0.4721 -0.0196 -0.1369
 3669DPPE   PO465882  12.453  35.262  12.963 -0.0454 -0.2853 -0.1388
 3669DPPE   GL165883  12.154  34.939  12.817 -0.1066  0.2362  0.0560
 3669DPPE   GL265884  12.081  34.876  12.529 -0.0239 -0.0846 -0.3040
 3669DPPE   C1A65885  12.195  34.399  12.800  0.4428  0.1435  0.1103
 3669DPPE   C2A65886  12.060  33.915  12.940 -0.3739  0.0282  0.0804
 3669DPPE   C3A65887  12.044  33.549  12.836 -0.0996 -0.1125 -0.3826
 3669DPPE   C4A65888  12.179  33.175  12.568  0.3324  0.1706  0.1345
 3669DPPE   C1B65889  12.105  34.441  12.325 -0.3932 -0.0997  0.2202
 3669DPPE   C2B65890  11.887  34.367  11.979  0.1104  0.2021 -0.1091
 3669DPPE   C3B65891  11.652  34.139  11.620 -0.0740 -0.1472 -0.1181
 3669DPPE   C4B65892  11.427  33.719  11.569 -0.0213 -0.2223 -0.4864
 3670DPPE   NH365893  10.657   6.394   7.019  0.2231 -0.2563  0.1161
 3670DPPE   PO465894  10.298   6.719   6.844 -0.2093 -0.0097  0.2000
 3670DPPE   GL165895   9.958   6.360   6.726  0.0521  0.0380 -0.0395
 3670DPPE   GL265896   9.662   6.409   6.822 -0.1262  0.0582 -0.0632
 3670DPPE   C1A65897   9.652   6.148   6.423 -0.0636  0.2155 -0.0235
 3670DPPE   C2A65898   9.347   6.043   6.015  0.1612 -0.1415 -0.2110
 3670DPPE   C3A65899   9.153   5.879   5.614 -0.0108  0.0735  0.0360
 3670DPPE   C4A65900   9.191   5.492   5.326  0.2361  0.2423 -0.4328
 3670DPPE   C1B65901   9.293   6.234   6.703 -0.3078  0.0508  0.1417
 3670DPPE   C2B65902   9.016   6.067   6.394 -0.1807 -0.1874 -0.0357
 3670DPPE   C3B65903   8.803   5.857   6.026 -0.0914 -0.2710  0.2481
 3670DPPE   C4B65904   8.787   5.572   5.690 -0.1510  0.0014  0.1734
 3671DPPE   NH365905   5.068   9.705  13.708  0.0380 -0.1969 -0.1759
 3671DPPE   PO465906   5.154   9.390  14.106 -0.3286  0.1515 -0.2138
 3671DPPE   GL165907   5.009   9.737  14.418 -0.1592  0.0831  0.2924
 3671DPPE   GL265908   5.229   9.744  14.609  0.1057  0.2603  0.0892
 3671DPPE   C1A65909   4.840   9.970  14.801 -0.1919 -0.0905 -0.0775
 3671DPPE   C2A65910   4.952  10.179  15.217 -0.0926 -0.1250 -0.1771
 3671DPPE   C3A65911   5.276  10.442  15.295  0.0278 -0.2002  0.0755
 3671DPPE   C4A65912   5.565  10.747  15.602  0.1992  0.0003 -0.0734
 3671DPPE   C1B65913   5.235  10.215  14.719 -0.0002 -0.1004 -0.2982
 3671DPPE   C2B65914   5.205  10.595  14.451 -0.2820 -0.0735  0.3056
 3671DPPE   C3B65915   5.352  11.003  14.413  0.0771  0.2735 -0.0714
 3671DPPE   C4B65916   5.622  11.180  14.772 -0.0064 -0.3870  0.3207
 3672DPPE   NH365917   6.644   4.253  11.351 -0.3373 -0.0046 -0.0519
 3672DPPE   PO465918   6.775   4.606  11.079  0.1758  0.4035  0.1987
 3672DPPE   GL165919   6.474   4.723  10.895  0.1290 -0.0575 -0.0532
 3672DPPE   GL265920   6.497   4.842  10.489 -0.1859  0.2909  0.0128
 3672DPPE   C1A65921   6.071   4.737  10.746  0.2025  0.0269 -0.1249
 3672DPPE   C2A65922   5.620   4.678  10.536 -0.2071  0.2877  0.2555
 3672DPPE   C3A65923   5.101   4.689  10.419  0.2297 -0.0240 -0.0449
 3672DPPE   C4A65924   4.674   4.572  10.409 -0.1028  0.2985  0.1541
 3672DPPE   C1B65925   6.333   4.595  10.277  0.1307  0.0763  0.0738
 3672DPPE   C2B65926   6.362   4.152  10.076 -0.0799 -0.1364  0.0991
 3672DPPE   C3B65927   6.248   3.810   9.852 -0.2394 -0.0456  0.1658
 3672DPPE   C4B65928   5.977   3.602   9.623 -0.1554  0.2542 -0.0123
 3673DPPE   NH365929  11.459  10.107   5.049 -0.0467 -0.2571  0.4235
 3673DPPE   PO465930  11.736   9.885   4.926  0.0556 -0.1551  0.0943
 3673DPPE   GL165931  11.444   9.793   4.673  0.4335 -0.1739  0.2989
 3673DPPE   GL265932  11.579  10.130   4.466 -0.3258  0.3173 -0.1774
 3673DPPE   C1A65933  11.475   9.633   4.261 -0.1026  0.0072 -0.0583
 3673DPPE   C2A65934  11.563   9.497   3.810 -0.2094 -0.0406  0.1373
 3673DPPE   C3A65935  11.494   9.158   3.503 -0.0715  0.3882 -0.0396
 3673DPPE   C4A65936  11.450   8.806   3.163  0.0468 -0.0357 -0.0533
 3673DPPE   C1B65937  11.715  10.366   4.056 -0.2365  0.1114  0.1737
 3673DPPE   C2B65938  11.712  10.405   3.634  0.1581  0.0458  0.1650
 3673DPPE   C3B65939  11.997  10.300   3.245  0.0807 -0.1149  0.1247
 3673DPPE   C4B65940  11.926   9.927   3.052  0.0064 -0.1046 -0.0270
 3674DPPE   NH365941  16.732   1.840   8.263 -0.0407  0.4180  0.0092
 3674DPPE   PO465942  16.781   1.519   8.594 -0.2802  0.0917  0.0960
 3674DPPE   GL165943  17.040   1.752   8.945 -0.0510  0.3819 -0.2418
 3674DPPE   GL265944  17.125   1.542   9.265  0.2938  0.0633  0.1300
 3674DPPE   C1A65945  17.346   2.112   8.995  0.4963  0.2592  0.0677
 3674DPPE   C2A65946  17.673   2.342   8.728  0.0857  0.1402  0.1232
 3674DPPE   C3A65947  18.035   2.403   8.847  0.1681 -0.0444 -0.0457
 3674DPPE   C4A65948  18.326   2.711   9.077 -0.2378 -0.0324  0.0830
 3674DPPE   C1B65949  17.396   1.426   9.472  0.0264  0.2138  0.0820
 3674DPPE   C2B65950  17.661   1.502   9.715 -0.3846  0.0051 -0.0132
 3674DPPE   C3B65951  17.861   1.737   9.980  0.0105 -0.2270  0.0054
 3674DPPE   C4B65952  18.167   1.948  10.126  0.1692 -0.1071 -0.0161
 3675DPPE   NH365953  10.516   9.570   6.775  0.0575  0.1440  0.1017
 3675DPPE   PO465954  10.366   9.803   7.071 -0.2269 -0.0832  0.2549
 3675DPPE   GL165955  10.560   9.975   7.399  0.0267  0.0732  0.4928
 3675DPPE   GL265956  10.421   9.736   7.580 -0.3153 -0.1923 -0.3576
 3675DPPE   C1A65957  10.936  10.130   7.581 -0.0184 -0.0319  0.4558
 3675DPPE   C2A65958  11.398  10.154   7.610  0.1091 -0.0819  0.0697
 3675DPPE   C3A65959  11.629   9.986   7.910 -0.2840 -0.0581 -0.1987
 3675DPPE   C4A65960  11.843   9.727   8.263  0.1428 -0.3091  0.2259
 3675DPPE   C1B65961  10.791   9.686   7.901 -0.0784 -0.0906  0.1334
 3675DPPE   C2B65962  11.016   9.620   8.326 -0.2598  0.0590  0.2275
 3675DPPE   C3B65963  11.309   9.738   8.557 -0.0677  0.4026 -0.0276
 3675DPPE   C4B65964  11.365  10.233   8.817  0.0299  0.0733  0.1121
 3676DPPE   NH365965  14.041   6.100   6.146  0.6577 -0.2575 -0.0255
 3676DPPE   PO465966  14.088   5.906   6.508 -0.0409  0.0175  0.0778
 3676DPPE   GL165967  14.255   6.283   6.777 -0.0643  0.0015 -0.0700
 3676DPPE   GL265968  14.414   6.063   6.912 -0.2437  0.0625  0.0201
 3676DPPE   C1A65969  14.211   6.638   7.117  0.2835  0.0544  0.0146
 3676DPPE   C2A65970  14.512   6.697   7.409  0.3324 -0.0449 -0.1670
 3676DPPE   C3A65971  14.465   6.922   7.877  0.4583  0.5519 -0.0065
 3676DPPE   C4A65972  14.732   6.864   8.218 -0.0527  0.0543 -0.0855
 3676DPPE   C1B65973  14.692   6.372   7.029 -0.0319  0.1417  0.1435
 3676DPPE   C2B65974  14.992   6.462   7.385 -0.3115 -0.1558 -0.2819
 3676DPPE   C3B65975  14.908   6.933   7.528 -0.1091  0.0242  0.2703
 3676DPPE   C4B65976  14.921   7.191   7.840  0.0644 -0.0960  0.2166
 3677DPPE   NH365977   8.508   2.748  15.817  0.1129 -0.0735 -0.2727
 3677DPPE   PO465978   8.226   2.688  16.229  0.2538 -0.2142  0.2032
 3677DPPE   GL165979   8.371   2.753  16.614  0.1971  0.0721 -0.3584
 3677DPPE   GL265980   8.415   2.536  16.776  0.0802  0.4304  0.0197
 3677DPPE   C1A65981   8.627   2.955  16.954  0.2884  0.0087  0.0003
 3677DPPE   C2A65982   8.896   2.954  17.208 -0.3507  0.0707 -0.0401
 3677DPPE   C3A65983   9.014   3.061  17.565 -0.1824 -0.0190 -0.0558
 3677DPPE   C4A65984   9.414   2.875  17.527  0.1104  0.3142  0.1664
 3677DPPE   C1B65985   8.441   2.482  17.157  0.4231 -0.1566  0.4342
 3677DPPE   C2B65986   8.656   2.691  17.506  0.2506  0.0358  0.1943
 3677DPPE   C3B65987   8.774   2.799  17.952  0.1134 -0.0011 -0.0760
 3677DPPE   C4B65988   8.814   2.942  18.317  0.0579 -0.2346  0.0104
 3678DPPE   NH365989   7.243   9.783   8.414 -0.1283  0.0218 -0.2248
 3678DPPE   PO465990   7.348   9.336   8.426 -0.0127 -0.0288  0.0407
 3678DPPE   GL165991   6.888   9.459   8.301 -0.0211 -0.5173 -0.0298
 3678DPPE   GL265992   6.741   9.694   8.440 -0.0833  0.0887 -0.0650
 3678DPPE   C1A65993   6.832   9.496   7.879  0.1918  0.3185 -0.4619
 3678DPPE   C2A65994   6.472   9.334   7.756 -0.2856  0.2447 -0.4233
 3678DPPE   C3A65995   6.312   8.878   7.594 -0.1871  0.3114 -0.1665
 3678DPPE   C4A65996   6.168   8.902   7.150  0.1125  0.1991 -0.3808
 3678DPPE   C1B65997   6.720  10.006   8.065 -0.0243  0.0360 -0.0352
 3678DPPE   C2B65998   6.431  10.266   7.908  0.0152 -0.0079  0.0420
 3678DPPE   C3B65999   6.047  10.473   7.999 -0.1235  0.0124  0.1710
 3678DPPE   C4B66000   5.883  10.586   8.308 -0.2107  0.2273 -0.3173
 3679DPPE   NH366001  12.550   0.709  11.236 -0.0666  0.4030 -0.0327
 3679DPPE   PO466002  12.637   0.240  11.230  0.1121  0.2433 -0.2590
 3679DPPE   GL166003  13.124   0.534  11.301  0.1407  0.0477 -0.0118
 3679DPPE   GL266004  13.063   0.502  11.563 -0.1327 -0.2952  0.2331
 3679DPPE   C1A66005  13.222   0.958  11.445 -0.2874 -0.1001  0.1398
 3679DPPE   C2A66006  13.227   1.238  11.810  0.1130  0.1281  0.4162
 3679DPPE   C3A66007  13.303   1.671  12.097 -0.1264 -0.2747  0.0248
 3679DPPE   C4A66008  13.744   1.896  12.086  0.2870 -0.1918 -0.3309
 3679DPPE   C1B66009  12.996   0.775  11.955 -0.1762 -0.0887 -0.1129
 3679DPPE   C2B66010  12.969   1.094  12.193 -0.0913 -0.1861 -0.1039
 3679DPPE   C3B66011  13.348   1.170  12.583 -0.1568  0.0720  0.0561
 3679DPPE   C4B66012  13.867   1.219  12.707 -0.0231  0.3112 -0.1881
 3680DPPE   NH366013  10.353   3.069  10.358  0.0733 -0.2076  0.1217
 3680DPPE   PO466014  10.451   2.840  10.015  0.0307  0.1897  0.0938
 3680DPPE   GL166015  10.730   2.737  10.381  0.0367 -0.2268 -0.1824
 3680DPPE   GL266016  10.894   3.064  10.262  0.0026  0.1925 -0.2925
 3680DPPE   C1A66017  10.880   2.827  10.794  0.0966  0.0804  0.0348
 3680DPPE   C2A66018  10.943   3.196  11.003  0.0052 -0.0997  0.0117
 3680DPPE   C3A66019  11.186   3.510  11.322 -0.1445  0.1495 -0.1893
 3680DPPE   C4A66020  11.511   3.742  11.516  0.0480 -0.0659 -0.1112
 3680DPPE   C1B66021  11.033   3.424  10.475  0.2774  0.0297 -0.0897
 3680DPPE   C2B66022  11.186   3.783  10.757 -0.0542  0.2680  0.2002
 3680DPPE   C3B66023  11.411   3.970  11.062 -0.3011 -0.4292  0.0593
 3680DPPE   C4B66024  11.815   4.068  11.197 -0.2002  0.1058 -0.2353
 3681DPPE   NH366025  11.063   0.018  15.276 -0.3970  0.2540  0.0714
 3681DPPE   PO466026  11.179   0.109  14.881  0.3589  0.4841 -0.0789
 3681DPPE   GL166027  11.508   0.268  15.235 -0.4249 -0.0853  0.0321
 3681DPPE   GL266028  11.665   0.614  15.186 -0.0679  0.0521  0.0080
 3681DPPE   C1A66029  11.820   0.358  15.580  0.1325 -0.0702 -0.0573
 3681DPPE   C2A66030  11.974   0.079  15.888 -0.2203  0.3757  0.1272
 3681DPPE   C3A66031  12.044  -0.154  16.315 -0.0800  0.0758 -0.0661
 3681DPPE   C4A66032  11.976  -0.105  16.741 -0.4569 -0.1419  0.1376
 3681DPPE   C1B66033  11.896   1.035  15.424  0.0157  0.1088 -0.1774
 3681DPPE   C2B66034  12.341   1.234  15.306  0.0928  0.4175  0.0351
 3681DPPE   C3B66035  12.624   1.401  15.486 -0.3746  0.0841 -0.0535
 3681DPPE   C4B66036  12.467   1.816  15.646  0.3129  0.0107  0.1078
 3682DPPE   NH366037  12.812   0.474   9.170  0.2603 -0.0066  0.1525
 3682DPPE   PO466038  12.909   0.865   8.923 -0.0050 -0.1543  0.0071
 3682DPPE   GL166039  12.766   0.581   8.589 -0.2743 -0.0484  0.0749
 3682DPPE   GL266040  12.615   0.278   8.758 -0.1754 -0.2081 -0.3237
 3682DPPE   C1A66041  12.591   0.263   8.247  0.0839 -0.0780  0.2382
 3682DPPE   C2A66042  12.524   0.191   7.813 -0.0447 -0.2798  0.4897
 3682DPPE   C3A66043  12.417  -0.180   7.479  0.1267  0.0513 -0.1653
 3682DPPE   C4A66044  12.595  -0.408   7.180  0.1146  0.0196 -0.2232
 3682DPPE   C1B66045  12.561  -0.197   8.717 -0.0258 -0.0635  0.0061
 3682DPPE   C2B66046  12.526  -0.683   8.609  0.0403  0.4355  0.0249
 3682DPPE   C3B66047  12.347  -1.016   8.500 -0.0142  0.0468 -0.0775
 3682DPPE   C4B66048  12.214  -1.423   8.106 -0.0489 -0.0150 -0.0904
 3683DPPE   NH366049  11.189   3.191   7.756 -0.0116 -0.2923 -0.2702
 3683DPPE   PO466050  11.021   2.795   7.916 -0.2544 -0.0078 -0.0202
 3683DPPE   GL166051  10.861   2.777   7.527  0.0098 -0.3950  0.0948
 3683DPPE   GL266052  10.613   2.951   7.663 -0.1128 -0.0000  0.4217
 3683DPPE   C1A66053  11.067   2.438   7.203 -0.0745 -0.2019 -0.0088
 3683DPPE   C2A66054  10.907   1.998   7.246  0.3074  0.2783 -0.0768
 3683DPPE   C3A66055  10.990   1.516   7.227 -0.1049 -0.1905 -0.1534
 3683DPPE   C4A66056  10.968   1.261   6.871 -0.2842 -0.2904  0.1248
 3683DPPE   C1B66057  10.225   2.929   7.460 -0.1302 -0.1522  0.1759
 3683DPPE   C2B66058  10.192   2.942   7.100 -0.6185  0.3581  0.0395
 3683DPPE   C3B66059   9.948   2.760   6.741 -0.4083 -0.3011  0.0477
 3683DPPE   C4B66060   9.651   2.582   6.448  0.1987 -0.0827  0.2841
 3684DPPE   NH366061   9.280   4.534   8.741  0.3019  0.1852  0.1015
 3684DPPE   PO466062   9.349   4.611   8.281 -0.0763  0.0335  0.3968
 3684DPPE   GL166063   9.176   4.568   7.859 -0.1698 -0.1038  0.1399
 3684DPPE   GL266064   9.316   4.615   7.564 -0.0839 -0.1091 -0.1076
 3684DPPE   C1A66065   8.969   4.305   7.660 -0.0498 -0.0894 -0.1456
 3684DPPE   C2A66066   8.459   4.173   7.523  0.2023 -0.2484  0.0748
 3684DPPE   C3A66067   8.142   3.993   7.677 -0.2146 -0.2223  0.0702
 3684DPPE   C4A66068   7.777   3.715   7.618  0.2155 -0.0904 -0.0820
 3684DPPE   C1B66069   9.191   4.671   7.235 -0.1304 -0.0351  0.2071
 3684DPPE   C2B66070   8.937   4.631   6.889  0.1772 -0.0902 -0.1903
 3684DPPE   C3B66071   8.625   4.612   6.522  0.0459 -0.2212  0.0850
 3684DPPE   C4B66072   8.368   4.564   6.162 -0.1799 -0.2945 -0.1617
 3685DPPE   NH366073   8.463   0.495  14.815  0.2156 -0.4117 -0.0840
 3685DPPE   PO466074   8.536   0.520  14.462 -0.2109 -0.2330  0.0324
 3685DPPE   GL166075   8.207   0.294  14.365 -0.1858  0.1007 -0.2825
 3685DPPE   GL266076   8.233  -0.029  14.026  0.2561  0.2206  0.1224
 3685DPPE   C1A66077   7.733   0.233  14.512 -0.0108 -0.0844  0.2959
 3685DPPE   C2A66078   7.335   0.374  14.475  0.0709  0.0414 -0.0423
 3685DPPE   C3A66079   6.929   0.391  14.288  0.1774 -0.1442 -0.2334
 3685DPPE   C4A66080   6.636   0.322  13.958  0.0563 -0.3012  0.1949
 3685DPPE   C1B66081   7.945  -0.244  13.885 -0.2767  0.3478  0.0854
 3685DPPE   C2B66082   8.008  -0.230  13.438  0.0248 -0.1283 -0.0509
 3685DPPE   C3B66083   7.695  -0.360  13.244  0.1410  0.3923  0.0434
 3685DPPE   C4B66084   7.240  -0.384  13.242  0.0040  0.0168 -0.1360
 3686DPPE   NH366085  14.557  35.006  11.822  0.1968  0.4595  0.0141
 3686DPPE   PO466086  14.289  34.878  12.144 -0.0455  0.1263 -0.2364
 3686DPPE   GL166087  14.546  34.508  12.193  0.0975 -0.2043 -0.0617
 3686DPPE   GL266088  14.728  34.556  11.865  0.1159 -0.3381  0.2716
 3686DPPE   C1A66089  14.496  34.211  12.434 -0.2445 -0.0253 -0.0926
 3686DPPE   C2A66090  14.300  33.871  12.454  0.1102  0.0607 -0.1638
 3686DPPE   C3A66091  13.975  33.613  12.658  0.2590 -0.0479  0.2924
 3686DPPE   C4A66092  13.688  33.362  12.850 -0.0264 -0.2916  0.0467
 3686DPPE   C1B66093  14.471  34.294  11.617 -0.1576  0.0866  0.2221
 3686DPPE   C2B66094  14.110  34.062  11.431  0.1718  0.1826  0.0986
 3686DPPE   C3B66095  13.990  33.934  10.944  0.1383  0.0380  0.0524
 3686DPPE   C4B66096  13.694  33.646  10.771 -0.0242  0.0601 -0.1913
 3687DPPE   NH366097   5.416   8.770  15.162 -0.1434 -0.2158 -0.0313
 3687DPPE   PO466098   5.629   8.360  15.325  0.1331  0.0477 -0.0173
 3687DPPE   GL166099   5.848   8.370  15.708 -0.4204 -0.2611  0.0840
 3687DPPE   GL266100   5.477   8.341  15.890 -0.1557  0.1699 -0.3542
 3687DPPE   C1A66101   5.872   8.669  15.994 -0.4200 -0.0275 -0.0087
 3687DPPE   C2A66102   5.772   8.935  16.371  0.3504 -0.2944 -0.0436
 3687DPPE   C3A66103   5.591   9.278  16.714  0.1537 -0.0758  0.0346
 3687DPPE   C4A66104   5.722   9.518  17.063 -0.1091  0.3694  0.2969
 3687DPPE   C1B66105   5.542   8.477  16.374  0.2993  0.1756 -0.0478
 3687DPPE   C2B66106   5.812   8.618  16.755  0.0186 -0.0291  0.0924
 3687DPPE   C3B66107   5.940   9.058  16.920 -0.2733 -0.0693  0.1777
 3687DPPE   C4B66108   6.342   9.158  17.095  0.1315 -0.1263 -0.0569
 3688DPPE   NH366109  10.503  10.661   5.899  0.1756 -0.2469  0.3027
 3688DPPE   PO466110  10.602  10.281   5.621 -0.1425 -0.0262 -0.2271
 3688DPPE   GL166111  10.570  10.410   5.120  0.1070 -0.0577 -0.1229
 3688DPPE   GL266112  10.688  10.614   4.976 -0.0402  0.2054 -0.1434
 3688DPPE   C1A66113  10.213  10.357   4.683 -0.0715  0.1655  0.2402
 3688DPPE   C2A66114   9.915  10.267   4.281 -0.4494  0.2399  0.1584
 3688DPPE   C3A66115   9.709  10.019   3.870 -0.0393 -0.1631  0.0144
 3688DPPE   C4A66116   9.538   9.852   3.461 -0.1979 -0.0050  0.0341
 3688DPPE   C1B66117  10.626  10.567   4.589 -0.0456  0.2793 -0.2930
 3688DPPE   C2B66118  10.322  10.613   4.314 -0.0684  0.0047 -0.1558
 3688DPPE   C3B66119   9.913  10.747   4.025  0.0302  0.2868 -0.0818
 3688DPPE   C4B66120   9.569  10.443   3.753 -0.0651  0.2726  0.4044
 3689DPPE   NH366121   6.714   7.198  11.777 -0.4326 -0.0818 -0.0429
 3689DPPE   PO466122   6.344   7.409  12.010 -0.0466  0.3504  0.0035
 3689DPPE   GL166123   6.647   7.281  12.330  0.1600 -0.1120  0.3342
 3689DPPE   GL266124   6.914   7.432  12.247 -0.1265  0.1384  0.0074
 3689DPPE   C1A66125   6.849   7.168  12.650  0.1730 -0.1452 -0.2915
 3689DPPE   C2A66126   7.131   7.123  13.063  0.1224  0.3734 -0.1048
 3689DPPE   C3A66127   7.279   7.142  13.439 -0.1320  0.1900 -0.2375
 3689DPPE   C4A66128   7.692   7.258  13.671 -0.0329  0.1107  0.0869
 3689DPPE   C1B66129   7.200   7.748  12.444 -0.0688  0.0625  0.1583
 3689DPPE   C2B66130   7.541   7.862  12.705  0.0270  0.1303 -0.0690
 3689DPPE   C3B66131   7.973   7.829  12.799 -0.1170  0.2447  0.1080
 3689DPPE   C4B66132   8.225   7.539  12.907 -0.0229  0.1269 -0.0129
 3690DPPE   NH366133  15.152   7.016   6.055  0.2459 -0.1916  0.3058
 3690DPPE   PO466134  15.526   7.219   5.800  0.0612  0.0009 -0.3913
 3690DPPE   GL166135  15.564   7.645   5.995 -0.1805 -0.3064 -0.0321
 3690DPPE   GL266136  15.836   7.833   5.889  0.1455 -0.2263 -0.1193
 3690DPPE   C1A66137  15.669   7.936   6.359  0.0804 -0.0376 -0.1205
 3690DPPE   C2A66138  15.904   8.133   6.701 -0.3810  0.0899 -0.1081
 3690DPPE   C3A66139  16.328   8.042   6.961 -0.0182  0.3207 -0.0625
 3690DPPE   C4A66140  16.712   8.293   6.885 -0.0908 -0.0634  0.1067
 3690DPPE   C1B66141  16.252   8.061   5.868  0.1989  0.0697 -0.0379
 3690DPPE   C2B66142  16.477   8.318   6.014  0.4120  0.0176 -0.1084
 3690DPPE   C3B66143  16.966   8.291   6.130  0.1871 -0.3611  0.2474
 3690DPPE   C4B66144  17.279   8.637   5.989 -0.1866  0.4636 -0.0638
 3691DPPE   NH366145  10.491  35.451  14.206  0.0384  0.0278  0.2375
 3691DPPE   PO466146  10.208  35.788  14.325 -0.1068  0.3494  0.3680
 3691DPPE   GL166147  10.027  35.377  14.454 -0.1159 -0.3108  0.0376
 3691DPPE   GL266148   9.768  35.378  14.505 -0.0406  0.0382 -0.2514
 3691DPPE   C1A66149  10.087  34.908  14.373  0.0434  0.2166  0.5222
 3691DPPE   C2A66150   9.953  34.507  14.543 -0.4296  0.1088  0.1769
 3691DPPE   C3A66151   9.817  34.402  14.978  0.0333 -0.0512 -0.2519
 3691DPPE   C4A66152   9.751  34.171  15.343 -0.1078 -0.2098  0.1734
 3691DPPE   C1B66153   9.421  35.410  14.826 -0.3513  0.0919  0.2366
 3691DPPE   C2B66154   9.134  35.193  14.932  0.0527 -0.2040  0.2763
 3691DPPE   C3B66155   8.735  35.099  15.002  0.0779 -0.1724 -0.0875
 3691DPPE   C4B66156   8.370  34.873  15.124 -0.0299  0.0031 -0.1577
 3692DPPE   NH366157   6.987   5.225  12.993  0.0322  0.3225  0.1428
 3692DPPE   PO466158   7.083   5.414  12.601  0.3414  0.0512  0.1528
 3692DPPE   GL166159   7.271   5.690  12.191 -0.4976  0.0518 -0.2635
 3692DPPE   GL266160   7.505   5.784  11.885  0.0997 -0.1493  0.0118
 3692DPPE   C1A66161   7.599   6.061  12.274 -0.1044  0.0276  0.2375
 3692DPPE   C2A66162   7.862   6.292  12.160 -0.2047  0.1214 -0.2457
 3692DPPE   C3A66163   7.914   6.685  12.067  0.0292 -0.0543  0.1098
 3692DPPE   C4A66164   7.999   7.027  12.248 -0.3147  0.4044 -0.1968
 3692DPPE   C1B66165   7.493   6.140  11.808  0.2715 -0.0145  0.1231
 3692DPPE   C2B66166   7.402   6.486  12.080 -0.0658 -0.0935  0.2159
 3692DPPE   C3B66167   7.378   6.858  12.417  0.0769 -0.3776  0.0369
 3692DPPE   C4B66168   7.337   7.208  12.597 -0.0755  0.2237  0.1329
 3693DPPE   NH366169   8.875   5.546   7.769  0.1257  0.4719 -0.2250
 3693DPPE   PO466170   8.686   5.230   7.961 -0.1104  0.2723 -0.0539
 3693DPPE   GL166171   8.428   4.936   7.771 -0.2265  0.1023 -0.0345
 3693DPPE   GL266172   8.489   4.566   7.873  0.2918 -0.0181 -0.0723
 3693DPPE   C1A66173   8.179   4.948   7.418 -0.2931 -0.2466 -0.2219
 3693DPPE   C2A66174   7.850   5.057   7.063  0.2972  0.2609  0.0220
 3693DPPE   C3A66175   7.711   5.043   6.622 -0.1133  0.0242 -0.0840
 3693DPPE   C4A66176   7.610   5.144   6.172 -0.2475  0.1744  0.0627
 3693DPPE   C1B66177   8.119   4.477   7.663 -0.3079 -0.2111 -0.0519
 3693DPPE   C2B66178   7.978   4.554   7.219 -0.0195  0.0642  0.0190
 3693DPPE   C3B66179   7.800   4.582   6.768 -0.0724  0.2751  0.1685
 3693DPPE   C4B66180   8.109   4.365   6.584  0.0246  0.2818  0.0672
 3694DPPE   NH366181  10.196   9.342   5.808 -0.0668  0.2262  0.1961
 3694DPPE   PO466182   9.912   9.515   6.209 -0.1786 -0.1934  0.0260
 3694DPPE   GL166183   9.672   9.387   5.917  0.0645  0.1151  0.0255
 3694DPPE   GL266184   9.744   9.348   5.695  0.3124  0.0091 -0.1868
 3694DPPE   C1A66185   9.194   9.379   5.682 -0.2852  0.2860  0.0940
 3694DPPE   C2A66186   8.886   9.288   5.266 -0.0823  0.2317  0.1200
 3694DPPE   C3A66187   8.694   9.494   4.966 -0.3008 -0.1085 -0.2822
 3694DPPE   C4A66188   8.723   9.480   4.529  0.0220  0.0315  0.0352
 3694DPPE   C1B66189   9.464   9.453   5.283  0.0743 -0.1196 -0.0133
 3694DPPE   C2B66190   9.216   9.769   4.867  0.0520  0.2869 -0.2414
 3694DPPE   C3B66191   9.036   9.951   4.540  0.0310  0.0473  0.0174
 3694DPPE   C4B66192   8.986  10.124   4.143 -0.0357  0.0777  0.2466
 3695DPPE   NH366193   9.279  11.780   6.905  0.0014 -0.0436  0.1628
 3695DPPE   PO466194   9.654  11.904   6.727 -0.0421  0.0044  0.0411
 3695DPPE   GL166195   9.549  12.306   6.649 -0.1053 -0.0168 -0.0630
 3695DPPE   GL266196   9.704  12.387   6.962  0.1375  0.1463 -0.2440
 3695DPPE   C1A66197   9.535  12.803   6.528 -0.0804 -0.1040 -0.0616
 3695DPPE   C2A66198   9.768  13.049   6.170  0.1450 -0.2064  0.1362
 3695DPPE   C3A66199   9.519  12.881   5.832  0.1704  0.0833 -0.1804
 3695DPPE   C4A66200   9.175  12.793   5.589  0.3441 -0.0395  0.0979
 3695DPPE   C1B66201   9.759  12.864   7.000  0.0427  0.2994 -0.0821
 3695DPPE   C2B66202  10.211  12.980   7.008  0.2557  0.1406 -0.1952
 3695DPPE   C3B66203  10.565  13.184   7.000 -0.1597  0.0890 -0.3543
 3695DPPE   C4B66204  10.777  13.453   6.863  0.0133 -0.0898 -0.0932
 3696DPPE   NH366205   7.816   1.805  16.487  0.2108  0.0940  0.2605
 3696DPPE   PO466206   7.499   2.098  16.345  0.1039  0.3019  0.1324
 3696DPPE   GL166207   7.256   1.867  16.535  0.1475  0.1877 -0.0300
 3696DPPE   GL266208   7.402   1.890  16.861  0.1667 -0.1239 -0.1702
 3696DPPE   C1A66209   6.815   1.670  16.452  0.0151  0.1181  0.1091
 3696DPPE   C2A66210   6.673   1.295  16.493  0.0127  0.4916 -0.4080
 3696DPPE   C3A66211   6.210   1.067  16.475 -0.1108  0.0075  0.3256
 3696DPPE   C4A66212   6.236   0.807  16.153  0.1347 -0.2746 -0.0650
 3696DPPE   C1B66213   7.296   2.003  17.354 -0.0233  0.1520  0.3385
 3696DPPE   C2B66214   7.656   1.890  17.695  0.3692 -0.0095 -0.0647
 3696DPPE   C3B66215   8.039   1.990  18.001  0.0808  0.1697  0.0050
 3696DPPE   C4B66216   8.194   2.120  18.482  0.2371 -0.1403  0.4367
 3697DPPE   NH366217  11.058   3.526   9.169 -0.0288 -0.2822 -0.1185
 3697DPPE   PO466218  11.499   3.592   8.953  0.2460 -0.0641 -0.0174
 3697DPPE   GL166219  11.837   3.600   9.173 -0.1054  0.0841  0.0591
 3697DPPE   GL266220  12.088   3.794   8.988 -0.3004  0.2160 -0.2295
 3697DPPE   C1A66221  12.049   3.687   9.625 -0.0789  0.1493 -0.0259
 3697DPPE   C2A66222  12.209   4.011   9.877 -0.0904  0.1577 -0.0730
 3697DPPE   C3A66223  12.449   4.159  10.188  0.1901  0.1350 -0.0289
 3697DPPE   C4A66224  12.681   4.284  10.460  0.0972  0.3514  0.0695
 3697DPPE   C1B66225  12.325   4.088   9.408  0.0507  0.0838  0.0080
 3697DPPE   C2B66226  12.622   4.234   9.711 -0.2463  0.1069  0.1577
 3697DPPE   C3B66227  12.877   4.325   9.971  0.0149 -0.0723  0.2397
 3697DPPE   C4B66228  13.328   4.383   9.952  0.3674 -0.3855 -0.1220
 3698DPPE   NH366229   8.570  10.357   7.070 -0.3524  0.0949  0.3339
 3698DPPE   PO466230   8.790  10.396   6.714  0.1040  0.2683 -0.1438
 3698DPPE   GL166231   8.494  10.314   6.466 -0.1516  0.3965 -0.2893
 3698DPPE   GL266232   8.479  10.033   6.454  0.3144 -0.0993  0.1409
 3698DPPE   C1A66233   8.302  10.533   6.161  0.2023  0.0983  0.1664
 3698DPPE   C2A66234   7.894  10.410   5.912 -0.2249 -0.1899  0.3290
 3698DPPE   C3A66235   7.547  10.357   6.068  0.3032 -0.1228 -0.0185
 3698DPPE   C4A66236   7.273  10.419   6.335  0.1840 -0.1623 -0.0117
 3698DPPE   C1B66237   8.274   9.815   6.138  0.0437 -0.1116 -0.0175
 3698DPPE   C2B66238   8.226   9.670   5.847 -0.3713 -0.0750  0.0179
 3698DPPE   C3B66239   8.027   9.562   5.497 -0.0516  0.2224 -0.0087
 3698DPPE   C4B66240   7.859   9.513   5.098 -0.6237  0.3985  0.2606
 3699DPPE   NH366241   5.768   7.338  15.365 -0.2675  0.1477 -0.0669
 3699DPPE   PO466242   6.075   7.545  15.486 -0.0316 -0.1827 -0.1105
 3699DPPE   GL166243   6.296   7.729  15.880 -0.3599 -0.0437  0.0976
 3699DPPE   GL266244   6.090   7.878  15.932 -0.0370  0.0445  0.2403
 3699DPPE   C1A66245   6.512   7.802  16.276  0.3756  0.0367  0.1842
 3699DPPE   C2A66246   6.887   7.734  16.654  0.2668  0.0753 -0.0211
 3699DPPE   C3A66247   7.175   7.903  16.752 -0.3156  0.1001 -0.3186
 3699DPPE   C4A66248   7.413   7.881  17.182 -0.0731  0.1057 -0.0331
 3699DPPE   C1B66249   6.294   8.187  16.102  0.1773 -0.0048  0.0450
 3699DPPE   C2B66250   6.692   8.373  16.290 -0.0513  0.0576 -0.2325
 3699DPPE   C3B66251   6.746   8.726  16.311  0.2963  0.0831  0.2279
 3699DPPE   C4B66252   6.850   9.202  16.289  0.0471 -0.1022  0.0494
 3700DPPE   NH366253   7.588   2.004  12.895  0.2083 -0.1737  0.0049
 3700DPPE   PO466254   7.963   1.833  12.833  0.1604  0.0124 -0.0517
 3700DPPE   GL166255   7.637   1.483  12.847 -0.1513  0.2637  0.1190
 3700DPPE   GL266256   7.377   1.435  13.032  0.2564  0.1987  0.1541
 3700DPPE   C1A66257   7.460   1.008  12.726  0.0566 -0.1059  0.0705
 3700DPPE   C2A66258   7.029   0.852  12.921  0.0713 -0.2239  0.0204
 3700DPPE   C3A66259   6.705   0.572  12.941 -0.3472 -0.1204 -0.3358
 3700DPPE   C4A66260   6.266   0.615  13.284  0.0529  0.0724  0.0713
 3700DPPE   C1B66261   7.016   1.408  12.941  0.1309  0.2362 -0.1144
 3700DPPE   C2B66262   6.603   1.120  12.816 -0.0710  0.1787 -0.1145
 3700DPPE   C3B66263   6.352   1.092  12.400 -0.1301  0.1125  0.0304
 3700DPPE   C4B66264   6.339   0.770  12.024 -0.2664  0.3497  0.1637
 3701DPPE   NH366265  12.858  35.040  14.461 -0.1296  0.3482 -0.3642
 3701DPPE   PO466266  13.145  34.998  14.117  0.2751 -0.1024 -0.4429
 3701DPPE   GL166267  13.350  35.211  14.393  0.0353 -0.0331 -0.2007
 3701DPPE   GL266268  13.711  35.112  14.343  0.0764 -0.0034 -0.1769
 3701DPPE   C1A66269  13.461  35.066  14.912  0.2367 -0.1937  0.1019
 3701DPPE   C2A66270  13.422  35.116  15.354 -0.0356  0.0618  0.1656
 3701DPPE   C3A66271  13.607  34.798  15.643  0.3754 -0.2315 -0.0611
 3701DPPE   C4A66272  13.653  34.429  15.941  0.2908 -0.2763 -0.4771
 3701DPPE   C1B66273  13.648  34.696  14.597 -0.1038  0.0951 -0.4144
 3701DPPE   C2B66274  13.714  34.662  15.021 -0.0424 -0.0346 -0.0127
 3701DPPE   C3B66275  13.837  34.437  15.423  0.3359  0.1084  0.1045
 3701DPPE   C4B66276  13.860  34.049  15.666 -0.0452  0.1970  0.0494
 3702DPPE   NH366277  17.733   2.873   7.162  0.2141  0.0558 -0.2025
 3702DPPE   PO466278  18.162   2.791   7.131 -0.1303  0.1358  0.2734
 3702DPPE   GL166279  18.431   3.097   7.275  0.1214  0.1767  0.1236
 3702DPPE   GL266280  18.721   2.972   7.292 -0.0066  0.0797  0.2683
 3702DPPE   C1A66281  18.861   3.446   7.403  0.0192  0.2550  0.1426
 3702DPPE   C2A66282  19.105   3.712   7.417  0.2252  0.0523  0.0276
 3702DPPE   C3A66283  19.430   3.836   7.625  0.0917 -0.3450 -0.1514
 3702DPPE   C4A66284  19.757   3.900   7.991  0.1586  0.3407 -0.4410
 3702DPPE   C1B66285  18.995   3.206   7.003  0.2069 -0.0211 -0.1715
 3702DPPE   C2B66286  19.334   3.509   6.983  0.0123  0.1153 -0.0281
 3702DPPE   C3B66287  19.559   3.848   7.110  0.0977  0.1476 -0.2957
 3702DPPE   C4B66288  19.917   3.924   6.988  0.1959  0.0613 -0.0580
 3703DPPE   NH366289   6.194   7.308  11.027  0.5225  0.0130  0.3110
 3703DPPE   PO466290   5.900   7.425  11.182  0.1522 -0.2465 -0.0149
 3703DPPE   GL166291   5.572   7.274  10.974 -0.2183  0.0195  0.0549
 3703DPPE   GL266292   5.300   7.515  10.915  0.0004  0.2011 -0.2294
 3703DPPE   C1A66293   5.297   7.104  10.696 -0.2020 -0.3185  0.1603
 3703DPPE   C2A66294   4.988   6.873  10.424  0.1459 -0.0944 -0.1942
 3703DPPE   C3A66295   4.562   6.996  10.190 -0.0326 -0.1869 -0.1377
 3703DPPE   C4A66296   4.319   6.964   9.782 -0.2760  0.1441  0.0901
 3703DPPE   C1B66297   4.906   7.781  10.762 -0.1480 -0.4540  0.2137
 3703DPPE   C2B66298   4.631   8.076  10.626  0.1861 -0.3636 -0.2025
 3703DPPE   C3B66299   4.275   8.100  10.474 -0.5448 -0.0748 -0.4189
 3703DPPE   C4B66300   3.999   8.220  10.114  0.0709 -0.2234 -0.1533
 3704DPPE   NH366301  16.179   0.874   9.027  0.1330 -0.1452 -0.1711
 3704DPPE   PO466302  16.484   1.053   9.307  0.3730 -0.0983 -0.2827
 3704DPPE   GL166303  16.739   1.317   9.537  0.0501 -0.0152 -0.1993
 3704DPPE   GL266304  16.985   1.098   9.671 -0.0497 -0.0321 -0.0531
 3704DPPE   C1A66305  16.518   1.559   9.858 -0.0163 -0.2353 -0.2602
 3704DPPE   C2A66306  16.664   1.599  10.337 -0.1711 -0.0151 -0.0052
 3704DPPE   C3A66307  16.512   1.636  10.814  0.3149 -0.0888  0.1828
 3704DPPE   C4A66308  16.045   1.520  10.984 -0.2549  0.1797 -0.0779
 3704DPPE   C1B66309  16.825   1.153  10.051 -0.1794 -0.3182 -0.1807
 3704DPPE   C2B66310  17.012   1.129  10.456 -0.2600  0.0578  0.1589
 3704DPPE   C3B66311  17.184   0.924  10.888  0.0440  0.0552  0.0639
 3704DPPE   C4B66312  17.542   0.904  11.098  0.1248 -0.2354 -0.4230
 3705DPPE   NH366313   7.389   9.790  10.639 -0.1665 -0.0024  0.1886
 3705DPPE   PO466314   7.148   9.362  10.779 -0.0348 -0.1465  0.1975
 3705DPPE   GL166315   7.487   9.564  11.065 -0.2511  0.0463 -0.1681
 3705DPPE   GL266316   7.520   9.579  11.414 -0.1382 -0.2649 -0.2412
 3705DPPE   C1A66317   7.944   9.415  11.111 -0.1552 -0.1345  0.0383
 3705DPPE   C2A66318   8.270   9.384  10.890  0.0390 -0.2030  0.1147
 3705DPPE   C3A66319   8.521   9.040  10.811 -0.0892  0.0668  0.1645
 3705DPPE   C4A66320   8.664   8.693  11.009 -0.0146  0.1332  0.0965
 3705DPPE   C1B66321   7.926   9.667  11.662  0.1785 -0.0273  0.4400
 3705DPPE   C2B66322   8.093   9.508  12.099 -0.0102 -0.3359  0.0460
 3705DPPE   C3B66323   7.958   9.100  12.381  0.1700 -0.1415 -0.3550
 3705DPPE   C4B66324   7.778   8.751  12.476 -0.0227  0.1756 -0.5159
 3706DPPE   NH366325  10.942   9.438   5.431 -0.1062 -0.3466 -0.0168
 3706DPPE   PO466326  11.295   9.777   5.355  0.1215 -0.0916  0.1410
 3706DPPE   GL166327  11.046   9.594   4.986  0.0912 -0.0864  0.0030
 3706DPPE   GL266328  11.172   9.231   4.985 -0.2754  0.1801 -0.5714
 3706DPPE   C1A66329  10.722   9.465   4.717 -0.0089 -0.1286  0.2476
 3706DPPE   C2A66330  10.614   9.523   4.256  0.0320  0.1522 -0.1256
 3706DPPE   C3A66331  10.221   9.406   3.957 -0.4167  0.4536  0.1054
 3706DPPE   C4A66332   9.847   9.560   3.855 -0.2622 -0.0667  0.0474
 3706DPPE   C1B66333  11.186   9.274   4.518 -0.0473 -0.4116  0.3373
 3706DPPE   C2B66334  11.050   9.270   4.217 -0.3016 -0.1134  0.0288
 3706DPPE   C3B66335  11.118   9.418   3.844  0.1200  0.0105 -0.1325
 3706DPPE   C4B66336  10.996   9.725   3.515  0.1383 -0.1000 -0.0520
 3707DPPE   NH366337  16.902   3.612   5.925 -0.0579  0.1052 -0.0353
 3707DPPE   PO466338  17.427   3.638   5.794  0.0797  0.0656 -0.0401
 3707DPPE   GL166339  17.373   3.685   5.379 -0.1030  0.1211 -0.2001
 3707DPPE   GL266340  17.194   3.818   5.087 -0.4185  0.0956  0.0350
 3707DPPE   C1A66341  17.434   3.414   4.989  0.2353  0.0561 -0.0771
 3707DPPE   C2A66342  17.588   3.512   4.544  0.2001  0.3851 -0.1723
 3707DPPE   C3A66343  17.980   3.284   4.235  0.0177 -0.0132  0.1900
 3707DPPE   C4A66344  18.451   3.388   4.112  0.0231 -0.1691  0.2107
 3707DPPE   C1B66345  17.025   4.072   4.671 -0.1839 -0.1229  0.0711
 3707DPPE   C2B66346  17.053   4.437   4.529  0.0270  0.0803 -0.0397
 3707DPPE   C3B66347  17.128   4.676   4.159  0.0036  0.1479 -0.1238
 3707DPPE   C4B66348  17.168   5.117   3.982  0.0880 -0.3300 -0.3712
 3708DPPE   NH366349  13.517   0.224  11.292 -0.1233 -0.4077 -0.2987
 3708DPPE   PO466350  13.874   0.327  11.510 -0.2409 -0.2080 -0.0292
 3708DPPE   GL166351  14.182   0.634  11.577 -0.0412 -0.0174  0.2081
 3708DPPE   GL266352  14.350   0.592  11.233  0.0961 -0.2106  0.0931
 3708DPPE   C1A66353  14.450   1.051  11.558  0.1103  0.0811 -0.0729
 3708DPPE   C2A66354  14.570   1.448  11.619  0.0996  0.0907  0.3612
 3708DPPE   C3A66355  14.569   1.638  11.990 -0.2002 -0.1239  0.0424
 3708DPPE   C4A66356  14.656   1.666  12.462  0.1040 -0.0406 -0.1028
 3708DPPE   C1B66357  14.569   0.789  10.810 -0.3443 -0.0923 -0.2946
 3708DPPE   C2B66358  14.469   1.129  10.481  0.0243  0.1706  0.1829
 3708DPPE   C3B66359  14.216   1.258  10.241  0.0185 -0.0895 -0.3357
 3708DPPE   C4B66360  13.853   1.429   9.920  0.1206  0.0185  0.2445
 3709DPPE   NH366361  13.961   2.930   8.074 -0.2338  0.2096  0.0433
 3709DPPE   PO466362  14.087   3.272   8.146  0.2416  0.0559  0.3443
 3709DPPE   GL166363  13.966   3.460   8.513 -0.1784 -0.1042  0.1696
 3709DPPE   GL266364  13.903   3.868   8.456  0.1279  0.3219  0.0604
 3709DPPE   C1A66365  14.149   3.778   8.833  0.0475 -0.4081 -0.1605
 3709DPPE   C2A66366  14.159   3.829   9.410 -0.1497  0.2429  0.4115
 3709DPPE   C3A66367  13.818   4.033   9.791 -0.1282 -0.2693  0.0763
 3709DPPE   C4A66368  13.818   4.297  10.153 -0.1739  0.4778 -0.0803
 3709DPPE   C1B66369  13.874   4.319   8.392 -0.1456 -0.1089  0.1978
 3709DPPE   C2B66370  13.960   4.697   8.614 -0.2565  0.4761  0.0034
 3709DPPE   C3B66371  14.078   4.930   8.957 -0.0072  0.0080  0.0224
 3709DPPE   C4B66372  14.091   5.334   9.109  0.1190  0.1099  0.1915
 3710DPPE   NH366373   4.828   6.687  13.721 -0.0253 -0.1855 -0.1649
 3710DPPE   PO466374   4.549   6.758  14.062 -0.0840  0.4808  0.1975
 3710DPPE   GL166375   4.263   6.604  14.258 -0.0513  0.1082  0.1810
 3710DPPE   GL266376   4.065   6.490  14.563  0.3214  0.1421 -0.1670
 3710DPPE   C1A66377   3.753   6.406  14.259 -0.0126  0.2259  0.0651
 3710DPPE   C2A66378   3.592   6.032  14.418 -0.1765  0.0120 -0.0636
 3710DPPE   C3A66379   3.249   5.880  14.527 -0.0926  0.1885  0.1339
 3710DPPE   C4A66380   2.981   5.863  14.862 -0.4898 -0.0470  0.2912
 3710DPPE   C1B66381   3.970   6.805  14.908  0.2917  0.1206 -0.2502
 3710DPPE   C2B66382   3.772   6.768  15.292 -0.0353 -0.1778  0.0298
 3710DPPE   C3B66383   3.488   7.112  15.414 -0.1925 -0.1168  0.0535
 3710DPPE   C4B66384   3.376   7.020  15.790 -0.1119  0.0860  0.2069
 3711DPPE   NH366385  10.314  35.760  13.823 -0.0561 -0.3678 -0.3291
 3711DPPE   PO466386  10.694  35.565  13.763 -0.0825  0.2223 -0.0356
 3711DPPE   GL166387  10.592  35.046  13.781 -0.0772 -0.1179  0.0180
 3711DPPE   GL266388  10.522  34.911  14.167 -0.0635  0.0260 -0.1142
 3711DPPE   C1A66389  10.812  34.676  13.583 -0.0682  0.0470  0.0788
 3711DPPE   C2A66390  10.723  34.258  13.372  0.0480 -0.0676  0.4330
 3711DPPE   C3A66391  10.983  33.830  13.211  0.1377 -0.0301 -0.0331
 3711DPPE   C4A66392  11.205  33.447  13.488  0.0304  0.1923 -0.2825
 3711DPPE   C1B66393  10.384  34.526  13.969 -0.1043 -0.0821 -0.3639
 3711DPPE   C2B66394  10.381  34.100  13.725 -0.0041 -0.3240  0.1589
 3711DPPE   C3B66395   9.990  33.847  13.555 -0.2386  0.0323 -0.1308
 3711DPPE   C4B66396   9.672  33.578  13.538  0.1229  0.1817 -0.2486
 3712DPPE   NH366397   6.168   6.436  10.768  0.3454  0.2120 -0.0258
 3712DPPE   PO466398   6.217   6.856  10.892  0.4490  0.3072  0.0186
 3712DPPE   GL166399   5.721   6.741  10.808 -0.0691 -0.5806  0.0856
 3712DPPE   GL266400   5.454   6.684  11.010 -0.2765  0.0578 -0.2191
 3712DPPE   C1A66401   5.380   6.530  10.528 -0.1884  0.3280  0.1216
 3712DPPE   C2A66402   5.070   6.315  10.376 -0.0259  0.0979  0.0373
 3712DPPE   C3A66403   4.722   6.175  10.107  0.0906  0.2197  0.0783
 3712DPPE   C4A66404   4.350   6.033   9.998 -0.0524  0.0881  0.3307
 3712DPPE   C1B66405   5.028   6.614  10.866 -0.0620 -0.0962 -0.2852
 3712DPPE   C2B66406   4.666   6.505  10.634 -0.0627  0.2016 -0.1304
 3712DPPE   C3B66407   4.390   6.537  10.262  0.0435  0.2957  0.3070
 3712DPPE   C4B66408   4.148   6.493   9.985  0.2212 -0.0850  0.1701
 3713DPPE   NH366409   6.305   6.843  14.953  0.0724 -0.3237  0.1352
 3713DPPE   PO466410   6.055   6.908  15.325 -0.1840 -0.1187 -0.2429
 3713DPPE   GL166411   6.389   7.175  15.494  0.0720  0.0180 -0.2310
 3713DPPE   GL266412   6.491   7.234  15.841  0.1201  0.0793  0.1366
 3713DPPE   C1A66413   6.791   7.248  15.490  0.1891 -0.1259  0.0063
 3713DPPE   C2A66414   7.130   7.475  15.633 -0.0179 -0.0325 -0.1119
 3713DPPE   C3A66415   7.556   7.421  15.956 -0.0728 -0.3190 -0.2850
 3713DPPE   C4A66416   7.950   7.376  16.133  0.2472  0.1436 -0.0811
 3713DPPE   C1B66417   6.856   7.536  16.071 -0.2167  0.1143 -0.3249
 3713DPPE   C2B66418   7.204   7.799  16.208  0.0105 -0.1324  0.1160
 3713DPPE   C3B66419   7.682   7.960  16.155  0.0205 -0.0242  0.2063
 3713DPPE   C4B66420   7.664   8.469  16.191 -0.4921  0.2733 -0.0621
 3714DPPE   NH366421   9.816  35.922  14.626  0.0458  0.3617 -0.1140
 3714DPPE   PO466422  10.129  35.669  14.834 -0.2542 -0.0404 -0.2421
 3714DPPE   GL166423   9.871  35.540  15.093  0.0392 -0.0444  0.2207
 3714DPPE   GL266424   9.654  35.777  15.137 -0.0785 -0.3686 -0.1560
 3714DPPE   C1A66425   9.653  35.229  15.279  0.0860 -0.3280 -0.1373
 3714DPPE   C2A66426   9.226  35.094  15.407  0.2001  0.0838 -0.4689
 3714DPPE   C3A66427   8.821  35.010  15.527 -0.3879  0.1105 -0.0481
 3714DPPE   C4A66428   8.573  34.638  15.550 -0.3853 -0.0918 -0.2536
 3714DPPE   C1B66429   9.119  35.610  15.221  0.0755 -0.1048 -0.0747
 3714DPPE   C2B66430   8.799  35.435  15.343 -0.2592 -0.1300 -0.0420
 3714DPPE   C3B66431   8.419  35.220  15.460 -0.1545 -0.0828 -0.2027
 3714DPPE   C4B66432   8.212  35.073  15.837  0.0959  0.2806 -0.0804
 3715DPPE   NH366433  15.589   5.590   6.271 -0.1029 -0.1833 -0.1451
 3715DPPE   PO466434  15.739   5.234   6.535 -0.0082 -0.0642 -0.2889
 3715DPPE   GL166435  15.718   5.205   6.987 -0.2470  0.0235  0.1395
 3715DPPE   GL266436  15.765   4.923   7.082 -0.0194  0.1002  0.2508
 3715DPPE   C1A66437  15.842   5.421   7.317 -0.1176  0.0855  0.0561
 3715DPPE   C2A66438  16.010   5.476   7.716 -0.3568 -0.0761  0.1942
 3715DPPE   C3A66439  16.288   5.625   7.936 -0.1281  0.1894 -0.1809
 3715DPPE   C4A66440  16.728   5.724   7.756  0.0032  0.1914  0.1556
 3715DPPE   C1B66441  16.207   4.970   7.292 -0.0330 -0.4990 -0.2206
 3715DPPE   C2B66442  16.407   5.168   7.598 -0.0573 -0.0323 -0.0407
 3715DPPE   C3B66443  16.639   5.285   7.997  0.0652  0.1275  0.3239
 3715DPPE   C4B66444  16.480   5.336   8.401 -0.1643  0.1218 -0.0730
 3716DPPE   NH366445  10.516   3.847   9.822 -0.0616  0.4524 -0.0384
 3716DPPE   PO466446  10.661   3.541   9.500  0.0032 -0.1943 -0.2580
 3716DPPE   GL166447  10.947   3.353   9.845 -0.2617 -0.2185 -0.0218
 3716DPPE   GL266448  10.967   3.692   9.922 -0.0382  0.0934 -0.0434
 3716DPPE   C1A66449  11.309   3.223  10.086  0.0871  0.0467  0.1962
 3716DPPE   C2A66450  11.548   3.462  10.376  0.0831  0.1288  0.0036
 3716DPPE   C3A66451  11.695   3.811  10.532 -0.1771 -0.2644 -0.0854
 3716DPPE   C4A66452  11.821   4.078  10.675  0.1220  0.0940  0.1152
 3716DPPE   C1B66453  11.229   3.878  10.230 -0.3017 -0.0828 -0.2654
 3716DPPE   C2B66454  11.358   4.206  10.577 -0.0684 -0.0024 -0.0465
 3716DPPE   C3B66455  11.644   4.441  10.891 -0.0325  0.0362 -0.2553
 3716DPPE   C4B66456  12.082   4.453  10.951  0.1504  0.1139  0.0063
 3717DPPE   NH366457   5.698   3.743  16.643  0.3548  0.1064  0.1272
 3717DPPE   PO466458   5.621   4.156  16.955  0.0727 -0.0200  0.1429
 3717DPPE   GL166459   5.263   3.935  16.843 -0.1687 -0.1470 -0.1268
 3717DPPE   GL266460   5.357   3.684  16.947 -0.0156 -0.1934  0.1346
 3717DPPE   C1A66461   4.882   3.912  16.885  0.3234  0.0294 -0.1372
 3717DPPE   C2A66462   4.466   4.117  16.710 -0.1827  0.1186 -0.0563
 3717DPPE   C3A66463   4.181   4.328  16.621  0.0497  0.1479  0.0885
 3717DPPE   C4A66464   3.923   4.685  16.839  0.2235 -0.1209 -0.2751
 3717DPPE   C1B66465   5.252   3.471  17.233  0.0537 -0.2400  0.1833
 3717DPPE   C2B66466   5.487   3.512  17.627 -0.3122  0.2119  0.0540
 3717DPPE   C3B66467   5.548   3.660  18.154  0.1189 -0.2577 -0.0558
 3717DPPE   C4B66468   5.758   3.687  18.577 -0.0828 -0.0517  0.0740
 3718DPPE   NH366469   8.652   0.414  13.575  0.2907 -0.1420 -0.2281
 3718DPPE   PO466470   8.341   0.499  13.918 -0.1122 -0.1207 -0.2359
 3718DPPE   GL166471   8.156   0.243  13.639 -0.5438 -0.2758 -0.2242
 3718DPPE   GL266472   8.444  -0.058  13.513 -0.0707 -0.0434  0.0727
 3718DPPE   C1A66473   8.050   0.214  13.304  0.0847 -0.0467 -0.0609
 3718DPPE   C2A66474   7.827   0.044  13.045  0.1214 -0.0719 -0.0605
 3718DPPE   C3A66475   7.467  -0.059  12.878  0.0844  0.0426 -0.3235
 3718DPPE   C4A66476   7.091  -0.237  12.729  0.1314  0.0694 -0.0041
 3718DPPE   C1B66477   8.428  -0.442  13.563 -0.1014  0.1692 -0.0657
 3718DPPE   C2B66478   8.170  -0.783  13.735 -0.1964 -0.0902  0.2134
 3718DPPE   C3B66479   7.908  -1.056  13.645  0.0715  0.0383  0.3228
 3718DPPE   C4B66480   7.726  -1.455  13.299  0.2097  0.3257 -0.1038
 3719DPPE   NH366481  15.509  36.416   8.248 -0.0504  0.3797  0.3616
 3719DPPE   PO466482  15.712  36.764   7.940 -0.2358  0.2583  0.1059
 3719DPPE   GL166483  15.811  36.552   7.676  0.2191 -0.1952 -0.0432
 3719DPPE   GL266484  15.593  36.275   7.794  0.0123 -0.1655 -0.1029
 3719DPPE   C1A66485  15.756  36.167   7.358 -0.2069 -0.0044  0.3310
 3719DPPE   C2A66486  15.804  35.808   7.130  0.0290 -0.1163 -0.0368
 3719DPPE   C3A66487  16.086  35.533   6.907 -0.1358  0.0490 -0.2178
 3719DPPE   C4A66488  16.344  35.141   6.754 -0.1363 -0.0166 -0.1411
 3719DPPE   C1B66489  15.273  36.007   7.819  0.2165 -0.3262 -0.3233
 3719DPPE   C2B66490  15.116  35.679   7.605 -0.3257  0.2415 -0.1693
 3719DPPE   C3B66491  14.974  35.440   7.503  0.2011  0.0286  0.1585
 3719DPPE   C4B66492  14.858  35.023   7.460  0.2934 -0.3570  0.1462
 3720DPPE   NH366493   6.775   5.867  14.951 -0.0556 -0.0160 -0.0392
 3720DPPE   PO466494   6.926   5.522  14.948  0.1025 -0.1819  0.0198
 3720DPPE   GL166495   7.256   5.771  14.818  0.1234  0.2152  0.0923
 3720DPPE   GL266496   7.245   5.929  14.623  0.1955  0.1701 -0.1726
 3720DPPE   C1A66497   7.734   5.719  14.915  0.3050 -0.4389  0.1443
 3720DPPE   C2A66498   8.154   5.857  14.913 -0.3466 -0.1430 -0.2254
 3720DPPE   C3A66499   8.636   5.805  14.837 -0.4568  0.0830 -0.4563
 3720DPPE   C4A66500   8.977   5.546  14.684 -0.2277  0.1611  0.4027
 3720DPPE   C1B66501   7.579   6.161  14.807  0.2675 -0.0708  0.0464
 3720DPPE   C2B66502   7.878   6.317  14.851  0.0302  0.2710 -0.0606
 3720DPPE   C3B66503   7.976   6.731  14.980  0.1381  0.0208  0.0414
 3720DPPE   C4B66504   7.763   7.088  15.103  0.1203 -0.4036  0.1896
 3721DPPE   NH366505  17.518   0.891   7.665 -0.1530  0.3084 -0.3634
 3721DPPE   PO466506  17.460   1.136   7.993 -0.0383 -0.0606 -0.2240
 3721DPPE   GL166507  17.721   0.771   8.148  0.0126  0.0856 -0.0558
 3721DPPE   GL266508  17.616   0.467   8.139 -0.4963  0.1062  0.0671
 3721DPPE   C1A66509  17.961   0.733   8.537  0.0609 -0.1703 -0.0031
 3721DPPE   C2A66510  18.261   0.708   8.820  0.1361 -0.2423  0.1292
 3721DPPE   C3A66511  18.493   0.937   9.055  0.2089 -0.2396  0.1363
 3721DPPE   C4A66512  18.508   1.165   9.341  0.2992 -0.1241 -0.0260
 3721DPPE   C1B66513  17.950   0.272   8.313 -0.0622 -0.3498 -0.0272
 3721DPPE   C2B66514  18.002  -0.108   8.620  0.0207 -0.4290  0.1773
 3721DPPE   C3B66515  17.967  -0.349   9.015 -0.0830  0.0360  0.1988
 3721DPPE   C4B66516  17.656  -0.653   9.041 -0.1651  0.1459  0.0238
 3722DPPE   NH366517  11.972  10.642   5.053 -0.3192 -0.0928  0.0045
 3722DPPE   PO466518  11.942  10.353   4.786  0.2824 -0.0927 -0.0455
 3722DPPE   GL166519  12.137  10.306   4.385  0.0229  0.2911  0.4031
 3722DPPE   GL266520  12.450  10.140   4.308  0.0559  0.1907  0.0430
 3722DPPE   C1A66521  12.188  10.342   3.890  0.1081  0.1124 -0.1619
 3722DPPE   C2A66522  12.376  10.281   3.545  0.1339  0.1627  0.2660
 3722DPPE   C3A66523  12.425  10.281   3.038 -0.1254 -0.0968 -0.1412
 3722DPPE   C4A66524  12.236   9.992   2.560 -0.0164  0.1993  0.1742
 3722DPPE   C1B66525  12.631  10.522   4.033  0.0598  0.0438  0.0057
 3722DPPE   C2B66526  13.013  10.674   3.793  0.1228  0.3221 -0.0264
 3722DPPE   C3B66527  13.230  10.751   3.456 -0.2726  0.2484 -0.0277
 3722DPPE   C4B66528  12.978  10.483   3.202 -0.2955 -0.0892 -0.0770
 3723DPPE   NH366529   9.096   3.595   9.121 -0.0862 -0.0444 -0.0230
 3723DPPE   PO466530   9.403   3.576   8.851  0.3619  0.1623  0.0260
 3723DPPE   GL166531   9.070   3.225   8.737 -0.5220  0.0700 -0.2926
 3723DPPE   GL266532   8.616   3.341   8.842 -0.2154 -0.5212  0.2517
 3723DPPE   C1A66533   8.953   3.089   8.402  0.2517  0.1704 -0.2150
 3723DPPE   C2A66534   8.649   2.913   8.068  0.0365  0.1353  0.1002
 3723DPPE   C3A66535   8.312   2.758   7.778  0.1525  0.1977 -0.0539
 3723DPPE   C4A66536   8.012   2.645   7.474 -0.1165  0.1631 -0.0710
 3723DPPE   C1B66537   8.436   3.066   8.512  0.4866  0.0422 -0.1392
 3723DPPE   C2B66538   8.244   2.725   8.317  0.2857  0.2350  0.1394
 3723DPPE   C3B66539   7.839   2.557   8.442  0.1248 -0.2044  0.0262
 3723DPPE   C4B66540   7.550   2.216   8.341  0.3371 -0.0576  0.0614
 3724DPPE   NH366541  12.209  10.325   6.054 -0.2830 -0.4161 -0.0645
 3724DPPE   PO466542  12.662  10.263   5.856  0.1745  0.2382 -0.0745
 3724DPPE   GL166543  12.938  10.538   6.111  0.0225  0.2274 -0.0871
 3724DPPE   GL266544  13.079  10.855   5.989 -0.0832 -0.0923  0.1773
 3724DPPE   C1A66545  12.992  10.821   6.520 -0.0287  0.3210 -0.1936
 3724DPPE   C2A66546  13.022  10.549   6.896 -0.0152 -0.1568 -0.1510
 3724DPPE   C3A66547  13.158  10.229   7.057  0.2227  0.4236 -0.1096
 3724DPPE   C4A66548  13.543  10.081   7.087 -0.0114  0.1644  0.0838
 3724DPPE   C1B66549  13.562  11.026   6.001 -0.0236  0.1046 -0.1615
 3724DPPE   C2B66550  13.758  11.249   5.656  0.0640  0.0450 -0.0900
 3724DPPE   C3B66551  14.188  11.487   5.739 -0.3394 -0.1613 -0.1274
 3724DPPE   C4B66552  14.506  11.510   5.527 -0.2002  0.0445  0.0059
 3725DPPE   NH366553   7.110   4.289  10.875 -0.0495 -0.2154  0.1413
 3725DPPE   PO466554   7.086   3.943  10.648 -0.1076 -0.1586  0.1026
 3725DPPE   GL166555   6.922   3.590  10.637 -0.2844  0.0874  0.1994
 3725DPPE   GL266556   7.047   3.334  10.748 -0.2552 -0.1436 -0.0586
 3725DPPE   C1A66557   6.548   3.335  10.597 -0.1857 -0.0225 -0.2960
 3725DPPE   C2A66558   6.161   3.051  10.466 -0.1652  0.0923 -0.1278
 3725DPPE   C3A66559   6.233   2.633  10.232 -0.0662  0.0294 -0.0426
 3725DPPE   C4A66560   6.371   2.256   9.978 -0.0066  0.0360  0.0604
 3725DPPE   C1B66561   6.884   2.927  10.753 -0.0547  0.2724  0.0933
 3725DPPE   C2B66562   6.667   2.687  10.586 -0.1260  0.1707 -0.2637
 3725DPPE   C3B66563   6.750   2.409  10.192  0.0937  0.2624 -0.1099
 3725DPPE   C4B66564   6.837   1.951  10.095  0.0979 -0.1077 -0.2041
 3726DPPE   NH366565   9.768  36.234  14.195  0.0125  0.0942 -0.0325
 3726DPPE   PO466566   9.380  36.096  14.546  0.0780 -0.1566  0.2348
 3726DPPE   GL166567   9.091  35.804  14.669  0.0385  0.0424  0.2659
 3726DPPE   GL266568   9.119  35.591  14.447  0.1526  0.1776  0.0582
 3726DPPE   C1A66569   8.759  35.567  14.823  0.1634 -0.0534  0.1546
 3726DPPE   C2A66570   8.340  35.410  14.973  0.1054  0.2611 -0.2333
 3726DPPE   C3A66571   7.926  35.165  15.124 -0.1147 -0.1386 -0.2092
 3726DPPE   C4A66572   7.614  35.192  15.241  0.3586 -0.1755  0.0290
 3726DPPE   C1B66573   8.863  35.192  14.522 -0.0817 -0.0364 -0.2837
 3726DPPE   C2B66574   8.667  35.032  14.120 -0.1808  0.1932 -0.1475
 3726DPPE   C3B66575   8.676  34.872  13.690  0.3823  0.0744  0.1153
 3726DPPE   C4B66576   8.863  34.462  13.523 -0.0858  0.0054  0.2163
 3727DPPE   NH366577   8.730   1.061  12.059  0.1481 -0.0618  0.3413
 3727DPPE   PO466578   8.991   1.017  12.436 -0.1240 -0.0727  0.0046
 3727DPPE   GL166579   8.636   0.579  12.359 -0.0148 -0.1731  0.2037
 3727DPPE   GL266580   8.804   0.264  12.518 -0.0254  0.0058  0.0681
 3727DPPE   C1A66581   8.297   0.396  12.133  0.0617  0.2747 -0.2675
 3727DPPE   C2A66582   8.023   0.031  12.116  0.0103  0.0174 -0.3751
 3727DPPE   C3A66583   7.754  -0.311  12.104  0.0197 -0.1085 -0.0169
 3727DPPE   C4A66584   7.403  -0.598  11.820 -0.1574  0.0086  0.3012
 3727DPPE   C1B66585   8.503  -0.052  12.469 -0.0081 -0.4361  0.2018
 3727DPPE   C2B66586   8.207  -0.371  12.335  0.0570 -0.0369 -0.1629
 3727DPPE   C3B66587   8.052  -0.717  12.239 -0.0899 -0.4631  0.3117
 3727DPPE   C4B66588   8.014  -1.185  12.349  0.2453 -0.0046 -0.1297
 3728DPPE   NH366589  15.244  36.471   8.709  0.3637 -0.3356 -0.0547
 3728DPPE   PO466590  15.686  36.528   8.749  0.1552 -0.0968 -0.3221
 3728DPPE   GL166591  15.628  36.114   8.625 -0.1705 -0.1636 -0.2565
 3728DPPE   GL266592  15.386  35.962   8.643 -0.0164  0.1355 -0.0584
 3728DPPE   C1A66593  15.772  35.722   8.406  0.0021 -0.2573 -0.1451
 3728DPPE   C2A66594  15.751  35.275   8.404 -0.2016  0.3217 -0.0847
 3728DPPE   C3A66595  16.099  34.991   8.343 -0.0396 -0.0761 -0.1876
 3728DPPE   C4A66596  16.345  34.708   8.185 -0.1581 -0.4469  0.1134
 3728DPPE   C1B66597  15.560  35.518   8.753  0.0642  0.1369 -0.1124
 3728DPPE   C2B66598  16.044  35.467   8.802  0.0701  0.1815  0.0985
 3728DPPE   C3B66599  16.447  35.259   8.657 -0.0092 -0.2748 -0.1634
 3728DPPE   C4B66600  16.866  35.085   8.752  0.0528 -0.0822 -0.3138
 3729DPPE   NH366601  10.185   4.373   8.699 -0.2340  0.0645  0.2072
 3729DPPE   PO466602  10.262   4.150   8.302  0.1035  0.1366  0.1099
 3729DPPE   GL166603   9.875   4.000   8.102 -0.1383  0.1404  0.1828
 3729DPPE   GL266604   9.854   4.091   7.743  0.0006  0.4009  0.1952
 3729DPPE   C1A66605   9.457   3.998   7.935  0.2953  0.2432  0.1904
 3729DPPE   C2A66606   9.207   3.882   7.620  0.3192 -0.0745 -0.0047
 3729DPPE   C3A66607   8.987   3.687   7.344  0.1075 -0.1689 -0.0942
 3729DPPE   C4A66608   8.772   3.361   7.136  0.0348  0.0352  0.3635
 3729DPPE   C1B66609   9.550   4.202   7.514  0.2028 -0.1276  0.2276
 3729DPPE   C2B66610   9.297   4.186   7.144  0.4672 -0.5167 -0.1374
 3729DPPE   C3B66611   9.215   3.927   6.894 -0.1925  0.2562 -0.3147
 3729DPPE   C4B66612   8.990   3.710   6.636 -0.0296 -0.1331 -0.1260
 3730DPPE   NH366613  10.811   9.958   5.335  0.1263  0.3052  0.3404
 3730DPPE   PO466614  11.053  10.342   5.196 -0.0301 -0.0239 -0.1152
 3730DPPE   GL166615  10.937  10.044   4.882 -0.0342 -0.0765  0.0002
 3730DPPE   GL266616  11.074  10.329   4.608  0.0615 -0.0962  0.2183
 3730DPPE   C1A66617  11.002   9.859   4.430  0.4134  0.0900 -0.1071
 3730DPPE   C2A66618  10.828   9.898   3.989 -0.0843 -0.1075 -0.0696
 3730DPPE   C3A66619  10.590   9.723   3.734 -0.1505 -0.0194 -0.0055
 3730DPPE   C4A66620  10.590   9.459   3.391 -0.2428  0.1815 -0.1814
 3730DPPE   C1B66621  11.153  10.216   4.197  0.3484 -0.4009  0.0493
 3730DPPE   C2B66622  11.404   9.961   3.834  0.0220 -0.1922  0.1218
 3730DPPE   C3B66623  11.427   9.856   3.385 -0.1072  0.0512  0.0770
 3730DPPE   C4B66624  11.437   9.878   2.927  0.1502 -0.0888 -0.0722
 3731DPPE   NH366625  16.075   5.400   6.236  0.0290 -0.0472  0.0571
 3731DPPE   PO466626  16.363   5.554   5.973  0.0768  0.3017  0.2228
 3731DPPE   GL166627  16.870   5.801   6.183  0.1432  0.5577  0.0417
 3731DPPE   GL266628  16.694   6.116   6.191 -0.0770  0.0946  0.1652
 3731DPPE   C1A66629  17.144   6.101   6.462 -0.1170  0.1871  0.3052
 3731DPPE   C2A66630  17.432   6.434   6.325 -0.0708  0.3018 -0.2899
 3731DPPE   C3A66631  17.916   6.683   6.362  0.1937  0.0569  0.2537
 3731DPPE   C4A66632  18.300   6.874   6.368  0.1761 -0.1864 -0.2562
 3731DPPE   C1B66633  16.858   6.540   6.419  0.3058  0.0452 -0.1719
 3731DPPE   C2B66634  17.130   6.568   6.691  0.0793  0.0360 -0.1922
 3731DPPE   C3B66635  17.507   6.432   6.871  0.1330  0.2284  0.5048
 3731DPPE   C4B66636  17.612   6.207   7.157 -0.1585 -0.1866  0.1998
 3732DPPE   NH366637  10.103  13.867  11.882 -0.1030  0.0133  0.3394
 3732DPPE   PO466638  10.059  13.396  11.790 -0.0831 -0.1946 -0.2120
 3732DPPE   GL166639   9.689  13.650  11.565  0.0217 -0.4065 -0.2823
 3732DPPE   GL266640   9.622  13.929  11.727  0.6599 -0.1462 -0.1857
 3732DPPE   C1A66641   9.151  13.557  11.406  0.1787  0.1275 -0.1413
 3732DPPE   C2A66642   8.895  13.431  11.078  0.2037  0.5266  0.0871
 3732DPPE   C3A66643   8.692  13.503  10.703 -0.4082  0.0014  0.0334
 3732DPPE   C4A66644   8.319  13.614  10.624  0.0438  0.3023  0.4193
 3732DPPE   C1B66645   9.388  14.073  11.365  0.2580 -0.1056  0.2681
 3732DPPE   C2B66646   8.989  14.006  11.184 -0.3743 -0.0230  0.3322
 3732DPPE   C3B66647   8.617  13.881  10.970 -0.1999  0.3137 -0.1751
 3732DPPE   C4B66648   8.194  14.165  10.752 -0.0606 -0.0724  0.0208
 3733DPPE   NH366649  17.903  16.507  20.483 -0.2249 -0.0057 -0.0882
 3733DPPE   PO466650  18.098  16.890  20.321  0.0319 -0.0832  0.1450
 3733DPPE   GL166651  18.415  17.177  20.451 -0.0051  0.0470 -0.0552
 3733DPPE   GL266652  18.801  17.152  20.382 -0.1600  0.4111 -0.0050
 3733DPPE   C1A66653  18.449  17.363  20.773 -0.0282 -0.2682 -0.2012
 3733DPPE   C2A66654  18.619  17.632  21.040 -0.0967 -0.0723 -0.0027
 3733DPPE   C3A66655  18.821  18.023  21.046 -0.1853 -0.2175  0.2068
 3733DPPE   C4A66656  18.812  18.343  21.316 -0.2092 -0.1787 -0.1595
 3733DPPE   C1B66657  19.079  17.533  20.482 -0.0421 -0.2035 -0.0279
 3733DPPE   C2B66658  19.217  17.832  20.687  0.0172 -0.0765  0.0851
 3733DPPE   C3B66659  19.445  18.213  20.786  0.1527 -0.4337  0.2887
 3733DPPE   C4B66660  19.669  18.599  20.908 -0.0550  0.2086  0.0903
 3734DPPE   NH366661   5.453  10.900  21.244 -0.0301  0.1374 -0.4208
 3734DPPE   PO466662   5.768  11.143  21.548  0.0044  0.2412  0.1424
 3734DPPE   GL166663   6.101  11.123  21.186  0.0748 -0.1393 -0.1335
 3734DPPE   GL266664   6.012  10.943  20.887 -0.2740 -0.3178 -0.1488
 3734DPPE   C1A66665   6.418  11.367  21.198 -0.1135  0.4972  0.0321
 3734DPPE   C2A66666   6.710  11.492  20.987 -0.0515 -0.1192 -0.0883
 3734DPPE   C3A66667   7.081  11.631  20.800  0.1011  0.0723 -0.0659
 3734DPPE   C4A66668   7.239  11.865  20.504 -0.1932  0.1095 -0.0380
 3734DPPE   C1B66669   6.207  10.551  20.912 -0.3498  0.0812  0.0907
 3734DPPE   C2B66670   6.581  10.420  20.809  0.3290 -0.3784  0.3605
 3734DPPE   C3B66671   6.723  10.221  20.496 -0.1773 -0.4752  0.1853
 3734DPPE   C4B66672   6.816  10.305  20.001  0.1014  0.3243  0.1583
 3735DPPE   NH366673  21.035  11.134  22.447 -0.2073 -0.1371 -0.1424
 3735DPPE   PO466674  21.004  11.465  22.385  0.3515 -0.0257 -0.3706
 3735DPPE   GL166675  21.253  11.609  22.691  0.0253  0.2667 -0.0714
 3735DPPE   GL266676  21.085  11.772  22.951 -0.1635 -0.0005 -0.1065
 3735DPPE   C1A66677  21.569  11.557  22.954 -0.0205  0.0244 -0.0180
 3735DPPE   C2A66678  21.879  11.845  23.246 -0.1013 -0.1755 -0.1568
 3735DPPE   C3A66679  22.014  12.114  23.661 -0.1325 -0.2212 -0.0601
 3735DPPE   C4A66680  22.379  12.122  23.998  0.0036  0.0276  0.0587
 3735DPPE   C1B66681  21.181  11.851  23.256 -0.2852  0.3826 -0.0690
 3735DPPE   C2B66682  21.511  11.915  23.544  0.2346  0.2763  0.1006
 3735DPPE   C3B66683  21.548  12.137  24.068  0.1066  0.0852  0.1200
 3735DPPE   C4B66684  21.567  11.916  24.577  0.5338  0.1479 -0.0620
 3736DPPE   NH366685  17.096   7.794   1.286 -0.1414 -0.3481  0.0304
 3736DPPE   PO466686  16.634   8.027   1.241  0.0866 -0.2801  0.0928
 3736DPPE   GL166687  16.517   7.600   1.344  0.2437  0.2923 -0.0049
 3736DPPE   GL266688  16.305   7.323   1.217  0.0993 -0.2905 -0.1091
 3736DPPE   C1A66689  16.478   7.409   1.706  0.0629 -0.2716 -0.1706
 3736DPPE   C2A66690  16.127   7.158   1.950  0.2653 -0.0352 -0.2303
 3736DPPE   C3A66691  16.066   7.011   2.268 -0.1788  0.2954  0.0266
 3736DPPE   C4A66692  15.957   6.747   2.653  0.2016 -0.2708  0.1990
 3736DPPE   C1B66693  16.215   6.973   1.507  0.4109 -0.0709  0.1910
 3736DPPE   C2B66694  16.048   6.613   1.521 -0.1044 -0.2554 -0.1174
 3736DPPE   C3B66695  15.731   6.407   1.754 -0.1633 -0.1373  0.1458
 3736DPPE   C4B66696  15.528   6.002   1.977 -0.2094  0.2753  0.2527
 3737DPPE   NH366697   4.239   4.014   7.486  0.0904 -0.1461 -0.0439
 3737DPPE   PO466698   4.665   3.939   7.466  0.1070 -0.2110 -0.1027
 3737DPPE   GL166699   4.954   3.699   7.855 -0.1041  0.4188 -0.1676
 3737DPPE   GL266700   4.756   3.407   7.972 -0.1748  0.1043 -0.0183
 3737DPPE   C1A66701   5.147   3.771   8.228  0.1084 -0.0554 -0.0613
 3737DPPE   C2A66702   5.446   3.681   8.553 -0.0091 -0.0114  0.1557
 3737DPPE   C3A66703   5.745   3.301   8.327 -0.0454  0.0344 -0.2872
 3737DPPE   C4A66704   5.815   3.117   7.990 -0.2506 -0.0538 -0.0102
 3737DPPE   C1B66705   4.928   3.430   8.490  0.5694  0.0601 -0.0591
 3737DPPE   C2B66706   5.005   3.491   8.905 -0.2216  0.1313  0.1593
 3737DPPE   C3B66707   5.129   3.765   9.103 -0.2145  0.0278 -0.2102
 3737DPPE   C4B66708   5.115   3.998   9.527  0.0828  0.1965 -0.0644
 3738DPPE   NH366709   9.786   8.396  15.662  0.0403  0.0624  0.0721
 3738DPPE   PO466710   9.785   7.961  15.552  0.1610 -0.1342 -0.1466
 3738DPPE   GL166711   9.435   7.948  15.250  0.0538  0.3580 -0.0630
 3738DPPE   GL266712   9.167   7.996  15.307 -0.0748  0.0570  0.3976
 3738DPPE   C1A66713   9.358   8.022  14.853  0.0381  0.1186  0.2520
 3738DPPE   C2A66714   9.062   8.197  14.831  0.1014  0.1019 -0.0511
 3738DPPE   C3A66715   8.727   8.559  14.958  0.1119  0.2408 -0.0173
 3738DPPE   C4A66716   8.694   8.952  15.059 -0.1978  0.0158  0.2010
 3738DPPE   C1B66717   8.766   7.946  15.159  0.1008 -0.2170  0.2767
 3738DPPE   C2B66718   8.507   8.080  14.861 -0.3001  0.0034 -0.0172
 3738DPPE   C3B66719   8.145   8.145  14.720 -0.0015 -0.1708  0.0523
 3738DPPE   C4B66720   8.069   8.303  14.270  0.0969 -0.1456 -0.0376
 3739DPPE   NH366721  24.489   9.075  15.778  0.1538 -0.2512  0.2762
 3739DPPE   PO466722  24.807   9.311  15.569 -0.1061 -0.3841 -0.1364
 3739DPPE   GL166723  25.236   9.258  15.460 -0.2670 -0.0884 -0.3150
 3739DPPE   GL266724  25.266   9.428  15.151 -0.1748  0.1156 -0.1510
 3739DPPE   C1A66725  25.660   9.200  15.727  0.3432  0.1539 -0.0891
 3739DPPE   C2A66726  25.924   9.276  16.027  0.3319 -0.1498  0.0438
 3739DPPE   C3A66727  26.098   9.580  16.296  0.3467 -0.0080  0.3349
 3739DPPE   C4A66728  26.356   9.436  16.677 -0.0721  0.1918  0.2297
 3739DPPE   C1B66729  25.586   9.135  15.107  0.1383 -0.1414  0.1780
 3739DPPE   C2B66730  25.857   8.783  14.877  0.0993  0.0083 -0.1961
 3739DPPE   C3B66731  26.267   8.651  14.774  0.4289  0.1801  0.1830
 3739DPPE   C4B66732  26.150   8.344  14.582 -0.2577  0.2804 -0.2213
 3740DPPE   NH366733  16.230   4.130  11.784  0.2249 -0.1037  0.1576
 3740DPPE   PO466734  16.401   4.297  11.385 -0.0448 -0.2211 -0.3089
 3740DPPE   GL166735  16.141   3.993  11.302 -0.5093  0.1155 -0.2731
 3740DPPE   GL266736  15.857   3.857  11.547 -0.1847 -0.2425  0.4124
 3740DPPE   C1A66737  15.845   3.913  11.012 -0.1262 -0.0823 -0.1096
 3740DPPE   C2A66738  15.585   3.952  10.641  0.0690  0.1410 -0.0097
 3740DPPE   C3A66739  15.508   3.905  10.117 -0.1281 -0.1257 -0.1097
 3740DPPE   C4A66740  15.699   3.737   9.818 -0.0283 -0.0476 -0.3332
 3740DPPE   C1B66741  15.775   3.496  11.321 -0.0295  0.0092  0.0319
 3740DPPE   C2B66742  15.517   3.501  11.005  0.1439 -0.1309  0.2058
 3740DPPE   C3B66743  15.377   3.211  10.704 -0.0559  0.2726 -0.0254
 3740DPPE   C4B66744  15.137   3.068  10.446  0.2865  0.1990  0.1750
 3741DPPE   NH366745  25.447   2.753  13.196 -0.0975 -0.0042  0.0527
 3741DPPE   PO466746  25.276   2.401  13.077 -0.0737 -0.1502  0.1600
 3741DPPE   GL166747  25.129   2.409  13.457 -0.0424 -0.2610  0.0421
 3741DPPE   GL266748  25.127   2.210  13.729 -0.1048  0.0417 -0.0260
 3741DPPE   C1A66749  24.741   2.582  13.547  0.1589 -0.1906  0.0895
 3741DPPE   C2A66750  24.365   2.796  13.705 -0.1216  0.2076 -0.3512
 3741DPPE   C3A66751  24.212   3.222  13.618 -0.0431 -0.1503  0.1925
 3741DPPE   C4A66752  24.366   3.682  13.812  0.0815 -0.0116  0.3734
 3741DPPE   C1B66753  24.926   2.360  14.068 -0.1304  0.1277 -0.0145
 3741DPPE   C2B66754  24.634   2.683  14.120 -0.1869  0.1557  0.3900
 3741DPPE   C3B66755  24.230   2.870  14.311  0.2293  0.0932 -0.0069
 3741DPPE   C4B66756  23.901   2.794  14.399  0.1346 -0.1887 -0.0267
 3742DPPE   NH366757  11.860   4.201  16.080  0.0685  0.2395 -0.1992
 3742DPPE   PO466758  11.834   3.929  15.692  0.3820 -0.0150  0.1508
 3742DPPE   GL166759  11.578   3.744  15.410  0.2584  0.2839 -0.1065
 3742DPPE   GL266760  11.396   3.561  15.648 -0.3628  0.1898  0.1974
 3742DPPE   C1A66761  11.365   3.945  15.031  0.1261  0.0063 -0.2915
 3742DPPE   C2A66762  11.367   4.209  14.769 -0.2502 -0.1185 -0.0231
 3742DPPE   C3A66763  11.103   4.202  14.456  0.1618 -0.3627 -0.1033
 3742DPPE   C4A66764  10.785   4.137  14.344 -0.0541 -0.0867 -0.2253
 3742DPPE   C1B66765  11.353   3.248  15.353 -0.1059  0.0998 -0.0507
 3742DPPE   C2B66766  11.461   2.797  15.304  0.1108  0.2690  0.2225
 3742DPPE   C3B66767  11.541   2.368  15.293 -0.3226  0.1101  0.1094
 3742DPPE   C4B66768  11.652   1.965  15.569 -0.2017 -0.0947  0.0826
 3743DPPE   NH366769   7.007  14.797   7.431  0.1051  0.2498  0.2331
 3743DPPE   PO466770   7.427  14.725   7.551 -0.4668 -0.2830 -0.1255
 3743DPPE   GL166771   7.517  14.480   7.338  0.0156 -0.2156  0.1389
 3743DPPE   GL266772   7.170  14.355   7.314  0.1106 -0.1629 -0.3677
 3743DPPE   C1A66773   7.901  14.160   7.247 -0.2579 -0.4310 -0.0661
 3743DPPE   C2A66774   7.905  13.863   7.007  0.0202  0.1759  0.1714
 3743DPPE   C3A66775   7.872  13.874   6.573  0.0095 -0.0704 -0.1788
 3743DPPE   C4A66776   7.529  13.788   6.435 -0.1318 -0.1267  0.2121
 3743DPPE   C1B66777   7.187  14.039   7.630 -0.0641 -0.3804 -0.1377
 3743DPPE   C2B66778   7.156  13.696   7.858  0.3494 -0.3103 -0.0512
 3743DPPE   C3B66779   7.360  13.348   8.223 -0.0707  0.0365  0.0758
 3743DPPE   C4B66780   7.775  13.150   8.269  0.2016  0.4045  0.3328
 3744DPPE   NH366781  10.818  10.168  12.028 -0.2130  0.1145  0.0605
 3744DPPE   PO466782  10.927   9.652  11.950 -0.1347  0.1190  0.0150
 3744DPPE   GL166783  10.718   9.308  11.824 -0.0988  0.2885  0.2255
 3744DPPE   GL266784  10.477   9.335  11.933 -0.1415  0.0275  0.2899
 3744DPPE   C1A66785  10.482   9.026  11.549  0.2900 -0.1439 -0.0636
 3744DPPE   C2A66786  10.263   8.868  11.119 -0.0978  0.4027  0.4462
 3744DPPE   C3A66787   9.970   9.177  10.888 -0.0159  0.1797  0.1674
 3744DPPE   C4A66788   9.610   9.171  10.640  0.1265  0.3542  0.0451
 3744DPPE   C1B66789  10.089   9.352  11.726  0.0455 -0.1722  0.1595
 3744DPPE   C2B66790   9.932   9.128  11.423 -0.1100  0.1759  0.0481
 3744DPPE   C3B66791   9.563   8.980  11.186  0.0135 -0.2058 -0.1179
 3744DPPE   C4B66792   9.222   9.272  10.963  0.3043 -0.1024 -0.0062
 3745DPPE   NH366793  13.537   4.182  13.375  0.0700  0.4019  0.1139
 3745DPPE   PO466794  13.288   4.372  13.374  0.3462  0.2294 -0.1504
 3745DPPE   GL166795  13.322   4.130  12.889  0.3810  0.3657 -0.1914
 3745DPPE   GL266796  13.491   3.842  12.984 -0.1163 -0.0784 -0.0496
 3745DPPE   C1A66797  13.068   3.800  12.628  0.0939 -0.1996 -0.0703
 3745DPPE   C2A66798  12.820   3.453  12.461  0.1419  0.0336  0.3087
 3745DPPE   C3A66799  12.505   3.229  12.244  0.1386  0.1211 -0.2943
 3745DPPE   C4A66800  12.017   3.222  12.229  0.0245 -0.1272 -0.0917
 3745DPPE   C1B66801  13.506   3.615  12.661  0.0990  0.0701 -0.0248
 3745DPPE   C2B66802  13.320   3.344  12.314  0.1678 -0.2923 -0.2774
 3745DPPE   C3B66803  13.053   2.974  12.209 -0.0416 -0.1184  0.1244
 3745DPPE   C4B66804  12.752   2.894  11.974 -0.0155  0.0992  0.1522
 3746DPPE   NH366805   9.524  13.793  18.757 -0.2313 -0.0523  0.0996
 3746DPPE   PO466806   9.438  14.246  18.618  0.2098  0.0464  0.2194
 3746DPPE   GL166807   9.153  14.528  18.809  0.1076 -0.0763 -0.0436
 3746DPPE   GL266808   9.241  14.714  19.101  0.3608 -0.1025 -0.1322
 3746DPPE   C1A66809   8.661  14.519  18.694 -0.0764  0.2090  0.0255
 3746DPPE   C2A66810   8.251  14.346  18.759  0.2086 -0.6333 -0.0268
 3746DPPE   C3A66811   7.864  14.154  19.009 -0.0320  0.1193 -0.0477
 3746DPPE   C4A66812   7.550  14.428  19.238  0.1317 -0.0497  0.0886
 3746DPPE   C1B66813   8.835  14.581  19.223 -0.1967 -0.1712 -0.1231
 3746DPPE   C2B66814   8.408  14.502  19.223 -0.0991  0.4909 -0.2394
 3746DPPE   C3B66815   8.023  14.764  19.405  0.0315 -0.0425 -0.2459
 3746DPPE   C4B66816   7.639  14.804  19.567 -0.1543 -0.0630 -0.0677
 3747DPPE   NH366817  16.354  35.081  20.773  0.1659  0.0130  0.2619
 3747DPPE   PO466818  16.434  35.382  21.114 -0.0151  0.0824  0.0188
 3747DPPE   GL166819  16.563  35.508  20.756  0.2085 -0.1995 -0.1010
 3747DPPE   GL266820  16.640  35.362  20.441 -0.2469 -0.0195  0.2564
 3747DPPE   C1A66821  16.543  35.889  20.477  0.2109  0.0716 -0.2100
 3747DPPE   C2A66822  16.384  36.263  20.250 -0.2316 -0.1258  0.3242
 3747DPPE   C3A66823  16.308  36.663  20.034 -0.1619  0.1941 -0.1778
 3747DPPE   C4A66824  16.523  36.987  19.816 -0.1777  0.0299 -0.1905
 3747DPPE   C1B66825  16.658  35.485  20.108  0.4715 -0.1372 -0.0025
 3747DPPE   C2B66826  16.702  35.808  19.731  0.1874 -0.0412 -0.1535
 3747DPPE   C3B66827  16.664  36.248  19.576  0.2151  0.1283 -0.0080
 3747DPPE   C4B66828  16.823  36.767  19.511 -0.2378 -0.1932 -0.1225
 3748DPPE   NH366829  13.835   4.839   1.013  0.1210  0.1061  0.1914
 3748DPPE   PO466830  13.589   4.499   1.247 -0.0984  0.3271  0.0083
 3748DPPE   GL166831  13.325   4.659   1.549 -0.2571 -0.1950  0.1258
 3748DPPE   GL266832  13.569   4.886   1.688 -0.1336  0.1688 -0.1768
 3748DPPE   C1A66833  13.084   4.497   1.918 -0.1341  0.3462 -0.1458
 3748DPPE   C2A66834  12.758   4.445   2.255 -0.3129 -0.0684  0.4177
 3748DPPE   C3A66835  12.307   4.619   2.236 -0.1199  0.0221  0.1948
 3748DPPE   C4A66836  12.161   4.786   2.623 -0.0354  0.0797  0.1207
 3748DPPE   C1B66837  13.635   4.541   1.989 -0.1248 -0.4824  0.2323
 3748DPPE   C2B66838  13.770   4.441   2.477 -0.1685 -0.0048  0.1539
 3748DPPE   C3B66839  14.030   4.288   2.862  0.0144 -0.1225 -0.0416
 3748DPPE   C4B66840  14.197   4.171   3.223  0.1128 -0.0615 -0.2130
 3749DPPE   NH366841  12.367   4.817   7.303 -0.1767  0.0555  0.2161
 3749DPPE   PO466842  12.273   4.455   7.565 -0.1302 -0.2235 -0.3810
 3749DPPE   GL166843  12.576   4.769   7.722 -0.0920 -0.1607  0.0961
 3749DPPE   GL266844  12.434   5.135   7.693  0.1179  0.1040 -0.0105
 3749DPPE   C1A66845  12.725   5.003   8.097 -0.0177  0.0134 -0.0760
 3749DPPE   C2A66846  12.683   5.198   8.532  0.2627  0.1550 -0.1653
 3749DPPE   C3A66847  12.825   4.852   8.859  0.4836  0.1003  0.0035
 3749DPPE   C4A66848  12.769   4.440   8.813 -0.1788 -0.1997 -0.1149
 3749DPPE   C1B66849  12.539   5.418   8.110  0.1981  0.0991 -0.0047
 3749DPPE   C2B66850  12.464   5.666   8.436  0.1409  0.5807  0.0284
 3749DPPE   C3B66851  12.566   5.940   8.871 -0.5093 -0.0250 -0.2129
 3749DPPE   C4B66852  12.683   5.990   9.215  0.4474  0.1288  0.0106
 3750DPPE   NH366853   9.283   1.294  15.925 -0.1402  0.2844  0.2168
 3750DPPE   PO466854   9.348   0.936  15.708 -0.0257 -0.0807 -0.1262
 3750DPPE   GL166855   9.665   0.983  15.987  0.0598 -0.0150 -0.2943
 3750DPPE   GL266856   9.850   1.012  15.894 -0.1171 -0.0888 -0.1837
 3750DPPE   C1A66857   9.828   1.212  16.339  0.0742  0.0642 -0.1604
 3750DPPE   C2A66858  10.102   1.356  16.507 -0.1235  0.1186 -0.2632
 3750DPPE   C3A66859  10.157   1.641  16.853  0.3101  0.1087 -0.1083
 3750DPPE   C4A66860  10.245   1.856  17.279 -0.2312 -0.0187  0.2920
 3750DPPE   C1B66861  10.137   1.346  15.939 -0.0805 -0.3659  0.1460
 3750DPPE   C2B66862  10.515   1.572  16.128 -0.4165 -0.1625  0.2875
 3750DPPE   C3B66863  10.756   1.953  16.359 -0.2688  0.1946 -0.0434
 3750DPPE   C4B66864  11.076   2.278  16.337 -0.0056  0.2707 -0.1743
 3751DPPE   NH366865   7.312   3.648  10.982 -0.0671  0.0116 -0.3698
 3751DPPE   PO466866   7.217   4.001  11.234 -0.0673  0.0967  0.1546
 3751DPPE   GL166867   6.865   3.806  11.237 -0.2598 -0.1255 -0.0147
 3751DPPE   GL266868   6.699   3.934  11.012 -0.3140  0.2772 -0.1279
 3751DPPE   C1A66869   6.640   3.408  11.071  0.0739  0.0535 -0.0220
 3751DPPE   C2A66870   6.331   2.972  10.963  0.0042 -0.3216  0.0595
 3751DPPE   C3A66871   6.144   2.591  10.829  0.4922 -0.1443  0.0002
 3751DPPE   C4A66872   5.820   2.288  10.640 -0.0278  0.3854 -0.0390
 3751DPPE   C1B66873   6.417   3.839  10.961  0.1882 -0.0107 -0.1274
 3751DPPE   C2B66874   6.074   3.496  10.840 -0.1427  0.2383 -0.1410
 3751DPPE   C3B66875   5.702   3.419  10.618 -0.2363  0.0573  0.1556
 3751DPPE   C4B66876   5.310   3.259  10.391 -0.5206  0.2281 -0.0864
 3752DPPE   NH366877  17.324   4.587   6.582  0.0625  0.2280  0.3571
 3752DPPE   PO466878  17.378   4.876   6.304 -0.2679 -0.3073 -0.3424
 3752DPPE   GL166879  17.831   5.156   6.319  0.1208 -0.0422  0.1509
 3752DPPE   GL266880  18.123   5.034   6.222 -0.1272 -0.4476 -0.2604
 3752DPPE   C1A66881  18.275   5.042   6.667 -0.1966 -0.1131 -0.0666
 3752DPPE   C2A66882  18.552   5.374   6.853  0.3748  0.0958  0.0350
 3752DPPE   C3A66883  18.944   5.512   7.033  0.0631 -0.2813  0.5926
 3752DPPE   C4A66884  19.255   5.625   7.202  0.1051  0.2057  0.0781
 3752DPPE   C1B66885  18.274   5.400   6.321  0.1013  0.1285 -0.1444
 3752DPPE   C2B66886  18.304   5.756   6.697 -0.1879  0.1786 -0.4483
 3752DPPE   C3B66887  18.521   6.063   6.906 -0.0165 -0.0200  0.1450
 3752DPPE   C4B66888  19.017   6.140   6.946  0.1201 -0.0425  0.0164
 3753DPPE   NH366889  16.538   6.461   5.350 -0.0598  0.2587  0.2806
 3753DPPE   PO466890  16.382   6.769   4.937 -0.0539 -0.0191  0.0982
 3753DPPE   GL166891  16.491   6.537   4.520  0.3042 -0.2099 -0.2184
 3753DPPE   GL266892  16.407   6.253   4.560 -0.1425 -0.2865  0.0713
 3753DPPE   C1A66893  16.780   6.494   4.066 -0.0491 -0.1905 -0.3399
 3753DPPE   C2A66894  17.152   6.276   3.737 -0.2115  0.0270 -0.0880
 3753DPPE   C3A66895  17.279   5.833   3.655  0.0291 -0.2679 -0.3565
 3753DPPE   C4A66896  17.213   5.464   3.581 -0.0325  0.2018 -0.1837
 3753DPPE   C1B66897  16.407   6.115   4.146 -0.1506  0.1843  0.1176
 3753DPPE   C2B66898  16.728   6.018   3.824  0.3518 -0.0494 -0.1724
 3753DPPE   C3B66899  16.801   5.958   3.429 -0.0328 -0.0633 -0.3010
 3753DPPE   C4B66900  16.758   6.145   3.105 -0.1217 -0.0237 -0.3153
 3754DPPE   NH366901  15.124   3.359   5.799  0.0680 -0.4574  0.1608
 3754DPPE   PO466902  14.912   3.033   5.893  0.1048  0.1320 -0.3583
 3754DPPE   GL166903  14.838   2.869   5.552 -0.1089  0.1606  0.1292
 3754DPPE   GL266904  14.528   2.662   5.638  0.1681  0.0438 -0.1497
 3754DPPE   C1A66905  14.775   2.613   5.174 -0.2203 -0.2684  0.1399
 3754DPPE   C2A66906  14.936   2.258   5.021 -0.3160  0.1337  0.2650
 3754DPPE   C3A66907  14.838   1.839   4.932 -0.0201  0.1692 -0.3905
 3754DPPE   C4A66908  14.948   1.426   4.988 -0.1149 -0.1496  0.1001
 3754DPPE   C1B66909  14.312   2.579   5.420  0.1110 -0.1916  0.0845
 3754DPPE   C2B66910  14.292   2.404   5.050  0.0565  0.1884 -0.2696
 3754DPPE   C3B66911  14.589   2.448   4.704 -0.1958  0.2594  0.2565
 3754DPPE   C4B66912  14.981   2.733   4.684  0.3130  0.2194 -0.0902
 3755DPPE   NH366913  16.750   7.413   4.901  0.0359  0.0690  0.0356
 3755DPPE   PO466914  16.457   7.653   4.976  0.0895 -0.3836  0.1080
 3755DPPE   GL166915  16.707   7.941   5.092 -0.0889 -0.0569  0.3553
 3755DPPE   GL266916  16.446   8.074   5.395  0.1414 -0.0950 -0.3289
 3755DPPE   C1A66917  16.952   8.379   5.194  0.3631 -0.4757  0.1172
 3755DPPE   C2A66918  17.267   8.606   5.484 -0.0315 -0.2820 -0.0763
 3755DPPE   C3A66919  17.397   9.057   5.805 -0.2785 -0.1589 -0.2213
 3755DPPE   C4A66920  17.434   9.065   6.254 -0.0259 -0.3799 -0.1039
 3755DPPE   C1B66921  16.772   8.103   5.638 -0.2985  0.3435  0.2853
 3755DPPE   C2B66922  17.203   8.158   5.710  0.2570  0.0697  0.0531
 3755DPPE   C3B66923  17.514   8.138   5.993  0.0887  0.0714  0.0115
 3755DPPE   C4B66924  17.906   8.312   6.234  0.4561  0.1806 -0.2087
 3756DPPE   NH366925  11.762   7.793   5.266  0.1031  0.3298 -0.0526
 3756DPPE   PO466926  11.930   8.101   4.916 -0.0620 -0.1392 -0.1540
 3756DPPE   GL166927  12.044   7.917   4.537 -0.0494 -0.3450  0.0012
 3756DPPE   GL266928  12.132   8.230   4.411 -0.2082 -0.0969  0.2650
 3756DPPE   C1A66929  12.241   7.710   4.125 -0.0774  0.1512 -0.4274
 3756DPPE   C2A66930  12.368   7.768   3.734  0.0704 -0.0396  0.3073
 3756DPPE   C3A66931  12.596   7.730   3.358  0.1671 -0.2126 -0.3493
 3756DPPE   C4A66932  12.811   7.558   2.988 -0.1865 -0.0720 -0.0665
 3756DPPE   C1B66933  11.775   7.988   4.116 -0.0521  0.0528  0.0929
 3756DPPE   C2B66934  11.704   7.975   3.645  0.1263 -0.2644  0.0327
 3756DPPE   C3B66935  11.707   8.024   3.200 -0.0780  0.3442  0.0063
 3756DPPE   C4B66936  11.536   8.326   3.013 -0.3878  0.2498 -0.0850
 3757DPPE   NH366937   9.788  11.833   6.263 -0.2462 -0.1308  0.0522
 3757DPPE   PO466938  10.281  11.892   6.318 -0.3867  0.3513  0.3000
 3757DPPE   GL166939  10.090  12.286   6.144  0.1492 -0.1490  0.3423
 3757DPPE   GL266940   9.711  12.347   6.098  0.2199 -0.2217 -0.2357
 3757DPPE   C1A66941  10.317  12.632   6.122 -0.1232 -0.0403  0.2124
 3757DPPE   C2A66942  10.570  12.971   6.218 -0.2006  0.2179 -0.0521
 3757DPPE   C3A66943  10.993  13.268   6.417  0.2500  0.1902 -0.0090
 3757DPPE   C4A66944  11.288  13.506   6.710 -0.0625  0.1821  0.0663
 3757DPPE   C1B66945   9.263  12.535   6.124  0.2389  0.2275  0.1129
 3757DPPE   C2B66946   9.087  12.866   6.088 -0.1685  0.0825  0.0968
 3757DPPE   C3B66947   8.649  12.948   5.998  0.0081  0.2161  0.0430
 3757DPPE   C4B66948   8.321  12.970   6.215  0.1065  0.3925  0.2364
 3758DPPE   NH366949  11.561   7.735   6.403  0.4332 -0.4279 -0.2226
 3758DPPE   PO466950  11.724   7.934   6.114  0.2363  0.1252 -0.1073
 3758DPPE   GL166951  12.045   8.035   6.506 -0.1449 -0.3811  0.0295
 3758DPPE   GL266952  12.066   7.662   6.706  0.2302 -0.0605  0.0220
 3758DPPE   C1A66953  12.062   8.270   6.868 -0.0191 -0.1769  0.1250
 3758DPPE   C2A66954  11.720   8.326   7.142  0.0909  0.1358  0.2195
 3758DPPE   C3A66955  11.570   8.612   7.423 -0.1513 -0.1742 -0.1059
 3758DPPE   C4A66956  11.410   8.603   7.836  0.1006 -0.3182  0.0136
 3758DPPE   C1B66957  12.069   7.791   7.049 -0.0544  0.0961  0.1187
 3758DPPE   C2B66958  12.267   7.988   7.272 -0.0277 -0.3978  0.0162
 3758DPPE   C3B66959  12.384   8.038   7.732 -0.2529 -0.0990  0.2600
 3758DPPE   C4B66960  12.555   8.221   8.024  0.0309 -0.0343  0.0153
 3759DPPE   NH366961  12.560  35.646  14.808 -0.1530  0.2685  0.1994
 3759DPPE   PO466962  12.200  35.851  15.049 -0.2870 -0.2152  0.1549
 3759DPPE   GL166963  12.481  35.851  15.389 -0.3785  0.1339 -0.0324
 3759DPPE   GL266964  12.178  36.036  15.572  0.0349  0.0642  0.1217
 3759DPPE   C1A66965  12.919  35.617  15.458  0.3364  0.2422 -0.1118
 3759DPPE   C2A66966  13.035  35.526  15.899 -0.1362 -0.3298 -0.1265
 3759DPPE   C3A66967  13.063  35.204  16.220  0.1051 -0.1534  0.0973
 3759DPPE   C4A66968  13.075  35.352  16.657 -0.2252  0.1264  0.0713
 3759DPPE   C1B66969  12.296  36.175  15.894  0.3499 -0.3662 -0.5527
 3759DPPE   C2B66970  12.430  35.933  16.271 -0.0069 -0.0999 -0.0421
 3759DPPE   C3B66971  12.917  35.765  16.375  0.0896  0.0429 -0.1585
 3759DPPE   C4B66972  13.380  35.809  16.398  0.2920  0.0171 -0.0327
 3760DPPE   NH366973   5.966   5.705  16.145 -0.0921  0.2056  0.2778
 3760DPPE   PO466974   5.657   5.723  16.387 -0.1903 -0.0980 -0.1110
 3760DPPE   GL166975   5.986   5.941  16.768  0.0719  0.0032 -0.2894
 3760DPPE   GL266976   6.298   6.140  16.685 -0.2173  0.1550  0.2703
 3760DPPE   C1A66977   6.170   5.880  17.256 -0.0387 -0.1101 -0.1045
 3760DPPE   C2A66978   5.997   6.075  17.620 -0.3046  0.3310  0.0422
 3760DPPE   C3A66979   5.988   6.349  17.915  0.0478  0.4966 -0.0224
 3760DPPE   C4A66980   6.146   6.505  18.267  0.0750  0.1669 -0.1351
 3760DPPE   C1B66981   6.414   6.473  16.892 -0.3141  0.0544  0.1133
 3760DPPE   C2B66982   6.196   6.610  17.257 -0.1611 -0.2574  0.0600
 3760DPPE   C3B66983   6.291   6.722  17.627  0.0036 -0.2052 -0.0469
 3760DPPE   C4B66984   6.142   6.925  17.995  0.2622 -0.0088 -0.1496
 3761DPPE   NH366985  15.408   7.978   5.129  0.0089  0.2257  0.0509
 3761DPPE   PO466986  15.089   7.905   5.366 -0.0453 -0.2968  0.1460
 3761DPPE   GL166987  15.292   7.946   5.789 -0.0249  0.1629  0.2106
 3761DPPE   GL266988  15.449   8.187   5.783  0.3410  0.0192  0.0861
 3761DPPE   C1A66989  15.246   8.024   6.181  0.1420  0.0099 -0.2021
 3761DPPE   C2A66990  15.344   8.469   6.425  0.0789  0.0415 -0.0197
 3761DPPE   C3A66991  15.422   8.879   6.413  0.0007  0.0017 -0.1983
 3761DPPE   C4A66992  15.919   8.967   6.402 -0.3347  0.0259 -0.1705
 3761DPPE   C1B66993  15.723   8.334   6.046 -0.3023 -0.0574  0.1865
 3761DPPE   C2B66994  15.998   8.481   6.361  0.0739  0.2775  0.0147
 3761DPPE   C3B66995  16.283   8.748   6.654  0.0912  0.2179 -0.0484
 3761DPPE   C4B66996  16.546   8.755   7.005  0.3135 -0.0132 -0.1127
 3762DPPE   NH366997   5.105   5.119  16.058  0.3519 -0.0241  0.0140
 3762DPPE   PO466998   5.039   4.849  15.723  0.2246 -0.1634 -0.2211
 3762DPPE   GL166999   4.660   4.727  15.772 -0.1821 -0.2915 -0.0252
 3762DPPE   GL267000   4.533   5.049  15.893  0.0579 -0.3947 -0.1819
 3762DPPE   C1A67001   4.433   4.512  16.147 -0.0683 -0.0012  0.1361
 3762DPPE   C2A67002   4.517   4.091  16.236  0.1095 -0.0345  0.1944
 3762DPPE   C3A67003   4.788   3.758  16.458  0.3606  0.1752 -0.0860
 3762DPPE   C4A67004   4.914   3.400  16.791 -0.0384  0.2975 -0.0683
 3762DPPE   C1B67005   4.046   5.124  15.946  0.1309 -0.2137 -0.2713
 3762DPPE   C2B67006   3.606   5.234  15.866  0.2891  0.1444 -0.1333
 3762DPPE   C3B67007   3.174   5.386  15.542  0.1511 -0.2306  0.0529
 3762DPPE   C4B67008   2.996   5.485  15.187  0.1495  0.0744  0.1050
 3763DPPE   NH367009  11.095   0.352  10.641 -0.0008  0.0815 -0.0578
 3763DPPE   PO467010  11.348   0.634  10.352  0.1354  0.2347 -0.1449
 3763DPPE   GL167011  11.184   0.252  10.135 -0.2094  0.3723 -0.0481
 3763DPPE   GL267012  10.824   0.243  10.243  0.0490 -0.1096 -0.0761
 3763DPPE   C1A67013  10.935  -0.062   9.887 -0.1688  0.1219  0.0458
 3763DPPE   C2A67014  10.591  -0.387   9.806  0.2198 -0.0030  0.0487
 3763DPPE   C3A67015  10.425  -0.677   9.570 -0.1228  0.0399  0.2346
 3763DPPE   C4A67016  10.115  -0.792   9.322  0.1071  0.0101  0.0205
 3763DPPE   C1B67017  10.477   0.120   9.940 -0.0771 -0.1477  0.2422
 3763DPPE   C2B67018  10.171  -0.171   9.689  0.1997  0.1890  0.1348
 3763DPPE   C3B67019   9.933  -0.333   9.348 -0.1821  0.4913  0.3828
 3763DPPE   C4B67020   9.609  -0.303   9.071 -0.0169 -0.0713  0.1269
 3764DPPE   NH367021   7.658   1.456  15.505 -0.1129  0.0883  0.3264
 3764DPPE   PO467022   8.087   1.261  15.443  0.2842 -0.1276  0.3344
 3764DPPE   GL167023   7.796   0.997  15.627 -0.1107 -0.0112  0.0943
 3764DPPE   GL267024   7.620   1.123  15.869 -0.0465  0.0756 -0.3760
 3764DPPE   C1A67025   7.653   0.635  15.685  0.0704  0.2204  0.3181
 3764DPPE   C2A67026   7.647   0.150  15.862  0.2051  0.2162 -0.0602
 3764DPPE   C3A67027   7.651  -0.252  15.903  0.2775  0.0985  0.1423
 3764DPPE   C4A67028   7.622  -0.558  16.131  0.0204  0.0599  0.2127
 3764DPPE   C1B67029   7.463   0.985  16.303  0.3168 -0.1879  0.0431
 3764DPPE   C2B67030   7.645   0.983  16.733 -0.1265 -0.0428 -0.0680
 3764DPPE   C3B67031   7.473   1.059  17.073 -0.0049  0.1367  0.1942
 3764DPPE   C4B67032   7.030   1.052  17.193  0.1362 -0.0647  0.2535
 3765DPPE   NH367033  12.993   3.929   7.786 -0.0305 -0.1717  0.2932
 3765DPPE   PO467034  13.200   3.510   7.967  0.1511 -0.3427  0.0152
 3765DPPE   GL167035  13.178   3.801   8.228  0.2104 -0.0469  0.1479
 3765DPPE   GL267036  13.494   3.674   8.359  0.0471  0.1695  0.2140
 3765DPPE   C1A67037  13.392   4.155   8.267  0.0485  0.0751 -0.0911
 3765DPPE   C2A67038  13.447   4.519   8.243  0.0768 -0.1766  0.0369
 3765DPPE   C3A67039  13.624   4.953   8.359 -0.1327 -0.1861  0.4524
 3765DPPE   C4A67040  13.640   5.190   8.795  0.0476 -0.0938  0.1515
 3765DPPE   C1B67041  13.501   3.871   8.708  0.1072  0.4625  0.0594
 3765DPPE   C2B67042  13.470   4.287   8.733 -0.0248  0.1530  0.0311
 3765DPPE   C3B67043  13.247   4.323   8.975  0.0024 -0.1314  0.1719
 3765DPPE   C4B67044  12.944   4.374   9.291  0.2625  0.1448 -0.0981
 3766DPPE   NH367045  10.179   3.710   9.338 -0.1216 -0.2394  0.1435
 3766DPPE   PO467046  10.253   4.144   9.121  0.0942 -0.2805 -0.0879
 3766DPPE   GL167047  10.579   4.171   9.434 -0.2587 -0.3964 -0.1557
 3766DPPE   GL267048  10.871   4.057   9.477  0.0411 -0.0739  0.2415
 3766DPPE   C1A67049  10.806   4.476   9.774 -0.1203 -0.2248  0.1622
 3766DPPE   C2A67050  10.940   4.389  10.161  0.2075  0.0543 -0.3207
 3766DPPE   C3A67051  11.049   4.608  10.501  0.2316 -0.0847  0.1105
 3766DPPE   C4A67052  11.203   4.738  10.887  0.1704 -0.1194 -0.2822
 3766DPPE   C1B67053  11.224   4.160   9.794 -0.1028  0.1925 -0.0525
 3766DPPE   C2B67054  11.505   4.465   9.876  0.3228  0.1012  0.1361
 3766DPPE   C3B67055  11.686   4.850  10.056  0.0689 -0.0596  0.1452
 3766DPPE   C4B67056  11.685   5.353  10.022  0.2034 -0.1965  0.0874
  36.49216  36.49216  29.24627
