BUMPy system
67056
    1BOLB   NC1    1   9.209   7.695  24.855  0.2876 -0.1418  0.2794
    1BOLB   PO1    2   9.158   8.036  25.057  0.1964  0.0976  0.0393
    1BOLB   GL1    3   9.524   8.126  24.914 -0.2489  0.1394 -0.0252
    1BOLB   GL2    4   9.823   8.064  25.155  0.3108 -0.0810  0.1049
    1BOLB   C1A    5   9.775   8.253  24.606  0.0143  0.0468 -0.0140
    1BOLB   C2A    6  10.313   8.321  24.392 -0.0658 -0.3889 -0.1614
    1BOLB   C3A    7  10.489   8.780  24.229  0.0703  0.0078 -0.0519
    1BOLB   C4A    8  10.559   9.285  24.182 -0.2662  0.2517 -0.3700
    1BOLB   C1B    9   9.707   8.550  25.160 -0.2272 -0.1474  0.2806
    1BOLB   C2B   10   9.659   8.955  24.859 -0.0418 -0.0548 -0.3432
    1BOLB   C3B   11   9.388   8.923  24.514 -0.2914 -0.2258 -0.0894
    1BOLB   C4B   12   9.497   8.813  24.066 -0.1267  0.3168  0.1130
    1BOLB   NC2   13   8.919   9.179  25.857 -0.2313  0.1933 -0.1639
    1BOLB   PO2   14   8.982   9.425  25.506 -0.1230 -0.1180 -0.0345
    1BOLB   GL3   15   9.210   9.333  25.196 -0.2536 -0.0454  0.2548
    1BOLB   GL4   16   9.025   9.118  24.940  0.3462 -0.1105 -0.3687
    1BOLB   C1C   17   9.596   9.332  25.217 -0.0067  0.0675 -0.0799
    1BOLB   C2C   18   9.955   9.618  25.052  0.0584 -0.0458  0.0212
    1BOLB   C3C   19  10.390   9.651  24.857 -0.0462 -0.1078 -0.0449
    1BOLB   C4C   20  10.722   9.488  24.577  0.1200  0.0225  0.2092
    1BOLB   C1D   21   8.939   9.242  24.562  0.3690 -0.3168 -0.1597
    1BOLB   C2D   22   8.855   9.582  24.310  0.0389 -0.0875 -0.0712
    1BOLB   C3D   23   8.747   9.951  24.072 -0.1177  0.0591 -0.0158
    1BOLB   C4D   24   8.861   9.982  23.694  0.2397 -0.2326 -0.0677
    2BOLB   NC1   25   8.862  20.997  23.554 -0.1240  0.0347 -0.3429
    2BOLB   PO1   26   8.691  20.620  23.866 -0.2566  0.0709  0.3308
    2BOLB   GL1   27   8.539  20.659  24.227  0.2771  0.1642  0.1307
    2BOLB   GL2   28   8.730  20.899  24.430 -0.1946  0.0825  0.0994
    2BOLB   C1A   29   8.300  20.664  24.482 -0.3649  0.3934 -0.1443
    2BOLB   C2A   30   8.333  20.435  24.900 -0.1364 -0.0231  0.0891
    2BOLB   C3A   31   8.295  20.436  25.283  0.2782 -0.0187  0.0437
    2BOLB   C4A   32   8.386  20.554  25.685  0.0186 -0.0912 -0.2783
    2BOLB   C1B   33   8.760  20.754  24.881  0.0112  0.1802  0.2516
    2BOLB   C2B   34   8.845  20.491  25.283 -0.2464 -0.2118  0.2093
    2BOLB   C3B   35   8.940  20.596  25.594 -0.2278 -0.2606 -0.1529
    2BOLB   C4B   36   8.939  20.668  25.971 -0.2596 -0.0494  0.0912
    2BOLB   NC2   37   8.165  20.223  27.926 -0.1180 -0.0732  0.0209
    2BOLB   PO2   38   8.609  20.398  27.885 -0.0979 -0.0329  0.1250
    2BOLB   GL3   39   8.795  20.283  27.557 -0.0222 -0.0692 -0.2777
    2BOLB   GL4   40   9.097  20.264  27.699  0.0692  0.1825  0.2445
    2BOLB   C1C   41   8.547  20.141  27.165  0.2033  0.0531 -0.0967
    2BOLB   C2C   42   8.691  20.137  26.778  0.0149 -0.1603  0.0408
    2BOLB   C3C   43   8.541  20.127  26.338  0.0720  0.2633  0.4585
    2BOLB   C4C   44   8.445  20.431  26.001 -0.1337  0.0040 -0.1525
    2BOLB   C1D   45   9.526  20.188  27.618 -0.1217  0.1575 -0.1235
    2BOLB   C2D   46   9.942  20.087  27.509 -0.2199 -0.1040 -0.1035
    2BOLB   C3D   47  10.305  19.852  27.318  0.4023 -0.2445 -0.0520
    2BOLB   C4D   48  10.310  19.458  27.111 -0.0405 -0.1329 -0.0388
    3BOLB   NC1   49   7.888  24.802  22.644  0.1678  0.2138  0.1426
    3BOLB   PO1   50   7.835  24.859  23.130  0.1578  0.0483 -0.0289
    3BOLB   GL1   51   8.150  24.743  23.263 -0.1291  0.0768 -0.3703
    3BOLB   GL2   52   8.292  24.662  23.591  0.2356 -0.1357  0.2312
    3BOLB   C1A   53   8.679  24.865  23.227  0.1242 -0.1969  0.0864
    3BOLB   C2A   54   9.065  24.720  23.238  0.2462 -0.0280 -0.4093
    3BOLB   C3A   55   9.260  24.693  23.522  0.0583  0.0412 -0.1503
    3BOLB   C4A   56   9.660  24.631  23.763  0.0831 -0.3184  0.2748
    3BOLB   C1B   57   8.700  24.578  23.667 -0.2684  0.2057  0.1394
    3BOLB   C2B   58   8.987  24.323  23.839  0.1602  0.0757  0.1413
    3BOLB   C3B   59   9.352  24.325  24.063 -0.4138 -0.1977  0.2611
    3BOLB   C4B   60   9.830  24.149  24.207  0.0109 -0.1416 -0.2258
    3BOLB   NC2   61   8.712  25.743  25.835 -0.2297 -0.1049  0.0660
    3BOLB   PO2   62   8.967  25.985  25.653  0.0728 -0.1650  0.0109
    3BOLB   GL3   63   9.103  25.604  25.406  0.1451  0.1420  0.3385
    3BOLB   GL4   64   9.054  25.398  25.661  0.2189 -0.3296 -0.2157
    3BOLB   C1C   65   9.256  25.412  25.010 -0.1822  0.1585 -0.0504
    3BOLB   C2C   66   9.541  25.255  24.656  0.4917  0.1844  0.0712
    3BOLB   C3C   67   9.631  25.080  24.382 -0.1778 -0.0233  0.0104
    3BOLB   C4C   68   9.798  24.676  24.193 -0.0938 -0.1483  0.0024
    3BOLB   C1D   69   9.170  25.072  25.383  0.1319 -0.0947 -0.0304
    3BOLB   C2D   70   8.775  24.875  25.153 -0.2119  0.1768 -0.1579
    3BOLB   C3D   71   8.409  24.869  24.907  0.0658 -0.0137  0.1793
    3BOLB   C4D   72   8.185  25.317  24.822 -0.2691  0.0487  0.3258
    4BOLB   NC1   73   7.299  21.183  23.359 -0.2286  0.1955  0.1051
    4BOLB   PO1   74   6.922  21.058  23.092 -0.0849 -0.1810 -0.0125
    4BOLB   GL1   75   6.811  21.152  23.542 -0.0364 -0.4255  0.3244
    4BOLB   GL2   76   6.643  20.914  23.554 -0.2113  0.0972  0.3863
    4BOLB   C1A   77   7.049  21.280  23.956  0.1279 -0.0450  0.0278
    4BOLB   C2A   78   7.294  21.199  24.370 -0.0844 -0.1663 -0.1279
    4BOLB   C3A   79   7.372  21.119  24.829  0.2922 -0.1049 -0.0783
    4BOLB   C4A   80   7.438  20.877  25.088  0.3556 -0.0583 -0.1455
    4BOLB   C1B   81   6.644  20.946  24.013  0.0336 -0.1160 -0.1360
    4BOLB   C2B   82   6.792  20.688  24.216 -0.0637 -0.3040 -0.1326
    4BOLB   C3B   83   6.969  20.293  24.438  0.0169  0.1726  0.0917
    4BOLB   C4B   84   6.998  19.861  24.379  0.1848 -0.2752 -0.0269
    4BOLB   NC2   85   5.770  20.904  26.956 -0.0199  0.4176 -0.3108
    4BOLB   PO2   86   5.685  20.522  27.133  0.1313 -0.1146 -0.1093
    4BOLB   GL3   87   5.902  20.477  26.761 -0.0799 -0.1995 -0.0909
    4BOLB   GL4   88   6.142  20.325  26.967 -0.1046 -0.2608  0.2733
    4BOLB   C1C   89   6.284  20.694  26.489  0.0651  0.0389 -0.4519
    4BOLB   C2C   90   6.738  20.786  26.190 -0.0609  0.0530 -0.0921
    4BOLB   C3C   91   7.081  20.649  25.878  0.0195 -0.2754 -0.1207
    4BOLB   C4C   92   7.307  20.645  25.412 -0.3145  0.2663 -0.0630
    4BOLB   C1D   93   6.502  20.164  26.680 -0.1446 -0.4770  0.2783
    4BOLB   C2D   94   6.665  19.861  26.391 -0.1777  0.0530  0.2675
    4BOLB   C3D   95   6.871  19.655  26.009 -0.0775 -0.3350 -0.0599
    4BOLB   C4D   96   6.795  19.753  25.514 -0.2350  0.0426  0.0750
    5BOLB   NC1   97   8.225  22.214  23.530  0.0875 -0.0659 -0.2538
    5BOLB   PO1   98   8.516  22.159  23.804  0.4248  0.1661 -0.1379
    5BOLB   GL1   99   8.658  22.358  24.216 -0.0908 -0.0470  0.3573
    5BOLB   GL2  100   8.878  22.718  24.193 -0.0967 -0.1262 -0.0988
    5BOLB   C1A  101   8.641  22.577  24.619 -0.3461 -0.3570 -0.2359
    5BOLB   C2A  102   8.758  22.935  24.833  0.2709  0.0460 -0.4592
    5BOLB   C3A  103   9.113  23.045  25.009 -0.0273  0.0156 -0.0587
    5BOLB   C4A  104   9.399  23.180  25.308 -0.1596  0.0821  0.0033
    5BOLB   C1B  105   9.079  22.858  24.475  0.3847  0.1454 -0.2018
    5BOLB   C2B  106   9.364  22.723  24.688  0.0288  0.0932  0.3303
    5BOLB   C3B  107   9.508  22.735  25.068 -0.1040  0.0253 -0.1114
    5BOLB   C4B  108   9.436  22.727  25.560 -0.0331  0.0054 -0.3260
    5BOLB   NC2  109   8.817  24.105  27.562  0.3791  0.0790 -0.0992
    5BOLB   PO2  110   9.193  23.963  27.687  0.1571  0.1319 -0.2438
    5BOLB   GL3  111   9.258  23.887  27.296 -0.1354 -0.3893  0.3226
    5BOLB   GL4  112   8.994  23.562  27.264  0.0221  0.0321 -0.0897
    5BOLB   C1C  113   9.381  23.670  26.905  0.5464 -0.1153 -0.0312
    5BOLB   C2C  114   9.582  23.575  26.488  0.2050  0.2153  0.0089
    5BOLB   C3C  115   9.658  23.255  26.159  0.1800 -0.3123 -0.1671
    5BOLB   C4C  116   9.519  23.180  25.757 -0.0941 -0.0354 -0.1769
    5BOLB   C1D  117   8.950  23.502  26.904 -0.1967  0.1954  0.1335
    5BOLB   C2D  118   9.102  23.230  26.605  0.1244 -0.0525 -0.0529
    5BOLB   C3D  119   8.842  22.973  26.360 -0.0602  0.1524  0.0729
    5BOLB   C4D  120   8.369  22.961  26.304 -0.0671 -0.1412 -0.1057
    6BOLB   NC1  121   8.682  19.117  23.443  0.3958 -0.0287 -0.0283
    6BOLB   PO1  122   8.455  18.935  23.748 -0.1059  0.0649 -0.0698
    6BOLB   GL1  123   8.085  19.046  24.086  0.0314 -0.4344  0.2339
    6BOLB   GL2  124   7.906  18.733  24.206 -0.0153  0.3876 -0.0142
    6BOLB   C1A  125   7.755  19.323  24.321  0.0946 -0.0433  0.1373
    6BOLB   C2A  126   7.460  19.047  24.646 -0.3180 -0.2273  0.0173
    6BOLB   C3A  127   7.126  19.017  24.948  0.0822 -0.1458 -0.0786
    6BOLB   C4A  128   6.901  18.843  25.354  0.1278 -0.0053  0.1588
    6BOLB   C1B  129   7.740  18.493  24.541  0.0171  0.1935 -0.0844
    6BOLB   C2B  130   7.600  18.150  24.722  0.1825 -0.1087  0.1546
    6BOLB   C3B  131   7.607  17.764  24.821  0.0644 -0.1051  0.1495
    6BOLB   C4B  132   7.870  17.476  24.976  0.0599 -0.4085 -0.0442
    6BOLB   NC2  133   6.339  17.632  26.940 -0.3606  0.0001 -0.1982
    6BOLB   PO2  134   6.230  17.255  26.699 -0.1249  0.1550  0.1570
    6BOLB   GL3  135   6.410  17.240  26.331  0.2718  0.0193  0.2602
    6BOLB   GL4  136   6.702  17.189  26.443  0.0595  0.1938 -0.2506
    6BOLB   C1C  137   6.488  17.445  25.905  0.2907  0.0816  0.0432
    6BOLB   C2C  138   6.667  17.697  25.588  0.1487 -0.0804 -0.0042
    6BOLB   C3C  139   6.630  18.019  25.378  0.1620  0.2378  0.3822
    6BOLB   C4C  140   6.796  18.419  25.476 -0.0788  0.1450  0.1099
    6BOLB   C1D  141   6.869  16.900  26.238 -0.0672  0.0373  0.0238
    6BOLB   C2D  142   7.128  16.822  25.831 -0.2843 -0.0390  0.1024
    6BOLB   C3D  143   7.371  16.916  25.426  0.0383  0.0384  0.2582
    6BOLB   C4D  144   7.554  17.354  25.261 -0.1256  0.0693  0.1284
    7BOLB   NC1  145   8.653  17.668  23.473  0.0063 -0.0297 -0.1505
    7BOLB   PO1  146   8.753  17.245  23.678 -0.1215 -0.0049  0.0604
    7BOLB   GL1  147   8.464  17.089  24.093 -0.0404 -0.0703  0.0207
    7BOLB   GL2  148   8.226  16.944  23.966  0.3280 -0.1511 -0.1863
    7BOLB   C1A  149   8.250  17.377  24.331 -0.0994  0.1756  0.3114
    7BOLB   C2A  150   7.864  17.456  24.466 -0.2218  0.0653 -0.1390
    7BOLB   C3A  151   7.479  17.267  24.660  0.1024 -0.2767  0.2224
    7BOLB   C4A  152   7.187  17.064  24.780 -0.0454  0.0169  0.2513
    7BOLB   C1B  153   8.100  16.809  24.303 -0.3583 -0.0351  0.2584
    7BOLB   C2B  154   7.859  17.011  24.671 -0.1855 -0.0978  0.2130
    7BOLB   C3B  155   7.664  16.959  25.005 -0.4258  0.0731  0.0813
    7BOLB   C4B  156   7.426  16.530  25.026  0.0660 -0.1213 -0.1113
    7BOLB   NC2  157   6.906  17.010  27.302  0.2482  0.1361 -0.1511
    7BOLB   PO2  158   6.644  16.647  27.392  0.2363 -0.2192  0.1608
    7BOLB   GL3  159   6.651  16.769  26.920  0.1473 -0.2075  0.1519
    7BOLB   GL4  160   6.899  16.814  26.709 -0.6465 -0.2280 -0.2450
    7BOLB   C1C  161   6.614  16.553  26.462 -0.0555  0.2875 -0.0883
    7BOLB   C2C  162   6.800  16.475  25.949  0.1063 -0.0508  0.0030
    7BOLB   C3C  163   6.765  16.584  25.506  0.1209  0.1456  0.1067
    7BOLB   C4C  164   6.931  16.824  25.044  0.0234  0.1228 -0.0343
    7BOLB   C1D  165   7.446  16.777  26.721 -0.0389  0.2512  0.0855
    7BOLB   C2D  166   7.718  16.729  26.502 -0.1325 -0.2385 -0.0218
    7BOLB   C3D  167   7.770  16.924  26.244 -0.1637 -0.2124 -0.0917
    7BOLB   C4D  168   7.645  16.826  25.908 -0.0973 -0.0949 -0.2212
    8BOLB   NC1  169   4.766  14.540  22.436 -0.0181 -0.2543  0.2079
    8BOLB   PO1  170   5.115  14.323  22.390 -0.2111 -0.0238  0.0994
    8BOLB   GL1  171   5.190  14.778  22.537  0.0281 -0.1363 -0.1340
    8BOLB   GL2  172   4.944  15.050  22.421 -0.0842  0.0596  0.0260
    8BOLB   C1A  173   5.437  15.078  22.674  0.2626  0.2363 -0.0422
    8BOLB   C2A  174   5.824  15.287  22.663  0.2713  0.1694 -0.3879
    8BOLB   C3A  175   5.958  15.777  22.685 -0.1071 -0.3207  0.0964
    8BOLB   C4A  176   5.658  16.118  22.716 -0.1143 -0.0838 -0.0244
    8BOLB   C1B  177   5.065  15.154  21.953 -0.0187 -0.1257  0.1603
    8BOLB   C2B  178   5.131  15.732  21.844 -0.1154 -0.1204 -0.2740
    8BOLB   C3B  179   5.614  15.923  21.881 -0.2047  0.0055 -0.1785
    8BOLB   C4B  180   5.993  16.158  21.730  0.2432 -0.0371 -0.2006
    8BOLB   NC2  181   3.270  16.990  23.372  0.1350  0.1732 -0.1801
    8BOLB   PO2  182   3.392  17.140  22.995 -0.2756 -0.1891 -0.1733
    8BOLB   GL3  183   3.751  17.128  22.857  0.0936  0.0674 -0.0115
    8BOLB   GL4  184   3.701  16.844  22.587 -0.3239 -0.2181 -0.0870
    8BOLB   C1C  185   4.270  16.970  23.081 -0.1460 -0.0440 -0.2709
    8BOLB   C2C  186   4.552  16.670  22.946 -0.1261  0.1496 -0.3527
    8BOLB   C3C  187   4.872  16.394  22.738 -0.2190  0.0034  0.1353
    8BOLB   C4C  188   5.256  16.238  22.673  0.1711  0.2117 -0.1491
    8BOLB   C1D  189   4.138  16.928  22.522  0.0428  0.0310  0.0551
    8BOLB   C2D  190   4.595  16.869  22.513  0.0298 -0.1791  0.0606
    8BOLB   C3D  191   5.003  16.834  22.411 -0.0818 -0.0897  0.2738
    8BOLB   C4D  192   5.272  16.671  22.046  0.0209  0.5155 -0.0469
    9BOLB   NC1  193  10.547  11.898  22.981  0.1290 -0.4322 -0.1647
    9BOLB   PO1  194  10.311  12.187  22.791  0.2596  0.1478 -0.1365
    9BOLB   GL1  195   9.886  12.115  22.697  0.0512 -0.2059 -0.0333
    9BOLB   GL2  196   9.769  12.274  22.972 -0.1839  0.0337  0.0250
    9BOLB   C1A  197   9.625  11.805  22.538 -0.2404  0.1898  0.2660
    9BOLB   C2A  198   9.267  11.833  22.554  0.1937 -0.1858 -0.2295
    9BOLB   C3A  199   8.867  12.060  22.739  0.1539 -0.2304  0.1507
    9BOLB   C4A  200   8.481  12.004  22.528 -0.0011 -0.1046 -0.2170
    9BOLB   C1B  201   9.362  12.006  23.057  0.4011  0.0954  0.1523
    9BOLB   C2B  202   9.269  11.811  23.424 -0.1118 -0.0685  0.1471
    9BOLB   C3B  203   9.284  11.566  23.720  0.0673  0.3227  0.0008
    9BOLB   C4B  204   9.086  11.407  24.026 -0.1844 -0.4586  0.3215
    9BOLB   NC2  205   7.327  10.045  21.843 -0.1137 -0.1399 -0.5963
    9BOLB   PO2  206   7.205  10.036  22.315  0.2815 -0.0734 -0.0322
    9BOLB   GL3  207   7.493  10.350  22.497  0.0248  0.2939 -0.1831
    9BOLB   GL4  208   7.317  10.422  22.786 -0.2944 -0.1794 -0.3568
    9BOLB   C1C  209   7.749  10.728  22.502  0.1991 -0.0093 -0.2686
    9BOLB   C2C  210   8.007  11.015  22.273  0.1813 -0.3401  0.2268
    9BOLB   C3C  211   8.184  11.477  22.161 -0.0153 -0.1163 -0.0191
    9BOLB   C4C  212   8.216  11.890  22.287 -0.1174  0.2677  0.1922
    9BOLB   C1D  213   7.773  10.714  22.948  0.2173  0.0228 -0.0723
    9BOLB   C2D  214   8.220  10.829  22.873 -0.1684 -0.0054 -0.3123
    9BOLB   C3D  215   8.498  11.238  23.043 -0.2334 -0.1195 -0.2823
    9BOLB   C4D  216   8.833  11.418  22.767 -0.3432  0.1033 -0.1491
   10BOLB   NC1  217   9.371  16.767  23.666  0.3354 -0.0347 -0.1061
   10BOLB   PO1  218   8.964  16.807  23.466  0.1492 -0.0628  0.1960
   10BOLB   GL1  219   8.923  16.644  23.901 -0.2149  0.0639  0.3353
   10BOLB   GL2  220   9.009  17.012  24.123 -0.0902 -0.3078 -0.0206
   10BOLB   C1A  221   8.803  16.560  24.224  0.0271 -0.0447  0.2215
   10BOLB   C2A  222   8.597  16.563  24.607  0.0140 -0.0604 -0.0588
   10BOLB   C3A  223   8.509  16.487  25.022 -0.0159  0.1476  0.2838
   10BOLB   C4A  224   8.343  16.582  25.428  0.4598  0.1013  0.1570
   10BOLB   C1B  225   9.031  16.949  24.543  0.1989  0.1730  0.2314
   10BOLB   C2B  226   8.793  16.936  24.977 -0.0154  0.2040 -0.0984
   10BOLB   C3B  227   8.753  17.012  25.324  0.0963  0.2556  0.0587
   10BOLB   C4B  228   8.523  17.014  25.574 -0.1598 -0.1574 -0.0400
   10BOLB   NC2  229   7.483  16.516  27.748  0.1618 -0.0351 -0.0309
   10BOLB   PO2  230   7.933  16.471  27.771  0.1208 -0.4450 -0.0035
   10BOLB   GL3  231   8.213  16.461  27.428 -0.0198 -0.1371 -0.0584
   10BOLB   GL4  232   8.296  16.111  27.396 -0.0943  0.1448 -0.2477
   10BOLB   C1C  233   8.231  16.364  26.966 -0.0624  0.1629 -0.1643
   10BOLB   C2C  234   8.200  16.436  26.644  0.3942  0.0440  0.1613
   10BOLB   C3C  235   8.090  16.414  26.211  0.1076  0.1713 -0.0069
   10BOLB   C4C  236   8.209  16.616  25.857  0.1973  0.2741 -0.0919
   10BOLB   C1D  237   8.472  15.898  27.112 -0.1625  0.1556  0.0762
   10BOLB   C2D  238   8.779  15.917  26.698 -0.5473 -0.0065 -0.1615
   10BOLB   C3D  239   9.256  15.981  26.513  0.0213  0.0931 -0.0058
   10BOLB   C4D  240   9.338  15.963  26.095 -0.2019  0.4085 -0.0074
   11BOLB   NC1  241   7.221  14.830  22.534 -0.0146  0.0697  0.0124
   11BOLB   PO1  242   7.190  14.527  22.276 -0.1114 -0.0503 -0.2703
   11BOLB   GL1  243   6.909  14.465  22.654 -0.1009 -0.1051 -0.0309
   11BOLB   GL2  244   7.055  14.431  22.889 -0.1621  0.2070  0.0935
   11BOLB   C1A  245   6.541  14.553  22.886 -0.1909 -0.2109  0.0198
   11BOLB   C2A  246   6.606  14.392  23.226  0.3207 -0.3247 -0.3071
   11BOLB   C3A  247   6.462  14.130  23.558  0.2239 -0.1591  0.0749
   11BOLB   C4A  248   6.485  13.899  23.976 -0.1909  0.0175 -0.0439
   11BOLB   C1B  249   6.946  14.721  23.158  0.3447 -0.1792 -0.4412
   11BOLB   C2B  250   6.690  14.820  23.516 -0.2338  0.0465  0.0193
   11BOLB   C3B  251   6.416  14.790  23.872  0.2600  0.4646  0.0059
   11BOLB   C4B  252   6.359  14.412  23.990 -0.0357 -0.1586 -0.3011
   11BOLB   NC2  253   5.145  13.271  26.103  0.2295 -0.6052 -0.0001
   11BOLB   PO2  254   5.534  13.499  26.089 -0.0999 -0.1339  0.0416
   11BOLB   GL3  255   5.891  13.760  25.839  0.2724  0.0386 -0.0779
   11BOLB   GL4  256   5.991  14.007  26.024  0.5042 -0.0574 -0.0076
   11BOLB   C1C  257   6.265  13.626  25.633 -0.5352 -0.2852  0.0268
   11BOLB   C2C  258   6.553  13.769  25.325 -0.1619  0.0130 -0.3213
   11BOLB   C3C  259   6.588  13.639  24.891 -0.1562  0.0549  0.1574
   11BOLB   C4C  260   6.507  13.730  24.446  0.1562 -0.6328  0.0000
   11BOLB   C1D  261   6.239  14.149  25.692 -0.0542 -0.1337 -0.3642
   11BOLB   C2D  262   6.388  14.290  25.271 -0.2913 -0.1207  0.1894
   11BOLB   C3D  263   6.249  14.370  24.852 -0.0413  0.5402 -0.1231
   11BOLB   C4D  264   6.380  14.630  24.658  0.2181 -0.0784  0.5549
   12BOLB   NC1  265   5.049  13.183  22.517 -0.0909 -0.0391 -0.4727
   12BOLB   PO1  266   5.016  13.658  22.803 -0.1770 -0.0766  0.1043
   12BOLB   GL1  267   5.452  13.730  22.864  0.1268  0.3466  0.0238
   12BOLB   GL2  268   5.529  13.456  22.763 -0.3208  0.0302  0.1875
   12BOLB   C1A  269   5.892  13.767  22.951  0.2974  0.3305  0.0260
   12BOLB   C2A  270   6.100  14.146  23.200 -0.0550 -0.0764 -0.2703
   12BOLB   C3A  271   6.094  14.510  23.496  0.2284 -0.1979  0.1918
   12BOLB   C4A  272   5.946  14.824  23.828  0.1071 -0.0424  0.1178
   12BOLB   C1B  273   6.000  13.272  22.890  0.0915 -0.3586  0.1601
   12BOLB   C2B  274   6.484  13.170  23.040 -0.0824  0.0175 -0.0412
   12BOLB   C3B  275   6.675  13.061  23.450  0.0538 -0.2842 -0.2578
   12BOLB   C4B  276   6.712  12.914  23.962 -0.0925  0.1068 -0.0623
   12BOLB   NC2  277   3.652  16.012  23.765  0.3252 -0.1617  0.0033
   12BOLB   PO2  278   3.828  15.932  24.180 -0.2972 -0.0458  0.2029
   12BOLB   GL3  279   4.346  15.893  24.290  0.0803  0.2680  0.1109
   12BOLB   GL4  280   4.574  16.070  24.376 -0.2223 -0.0312  0.1405
   12BOLB   C1C  281   4.613  15.595  24.095 -0.3840  0.1090 -0.2242
   12BOLB   C2C  282   4.913  15.357  24.170  0.0678 -0.2733  0.0809
   12BOLB   C3C  283   5.321  15.314  24.036 -0.0219  0.2652 -0.2319
   12BOLB   C4C  284   5.688  14.955  24.114 -0.0975  0.0570  0.0715
   12BOLB   C1D  285   5.030  16.189  24.414 -0.1427  0.1070  0.0113
   12BOLB   C2D  286   5.497  16.260  24.344  0.1521  0.0164 -0.2860
   12BOLB   C3D  287   5.858  16.187  24.058  0.1258 -0.1630  0.1279
   12BOLB   C4D  288   6.085  15.845  24.055 -0.2756  0.1445 -0.0662
   13BOLB   NC1  289   5.990  14.630  21.933 -0.2252  0.1144 -0.2725
   13BOLB   PO1  290   5.679  14.572  22.340 -0.0020  0.0035 -0.4431
   13BOLB   GL1  291   5.987  14.892  22.422  0.3689  0.2902  0.2015
   13BOLB   GL2  292   6.064  15.151  22.202 -0.2102  0.0270  0.1345
   13BOLB   C1A  293   6.281  14.921  22.662  0.2233 -0.3209  0.1554
   13BOLB   C2A  294   6.644  15.108  23.002  0.2322  0.2379  0.2058
   13BOLB   C3A  295   6.745  15.422  23.398 -0.0546 -0.0476 -0.1531
   13BOLB   C4A  296   6.636  15.363  23.766 -0.1903  0.2723  0.1023
   13BOLB   C1B  297   6.293  15.424  22.528  0.1449 -0.1620 -0.0222
   13BOLB   C2B  298   6.199  15.383  23.008  0.2190 -0.0757 -0.0243
   13BOLB   C3B  299   6.204  15.595  23.478 -0.3810  0.0847  0.1436
   13BOLB   C4B  300   6.066  16.044  23.581  0.1648 -0.0746  0.2020
   13BOLB   NC2  301   4.741  15.145  25.407  0.0585 -0.2305 -0.1679
   13BOLB   PO2  302   4.493  14.749  25.186 -0.0393 -0.1259 -0.0929
   13BOLB   GL3  303   4.706  15.080  24.901  0.2809 -0.2644  0.2228
   13BOLB   GL4  304   5.014  14.930  25.033  0.1401 -0.2920 -0.0670
   13BOLB   C1C  305   5.109  15.213  24.656 -0.0124 -0.2039 -0.0008
   13BOLB   C2C  306   5.587  15.320  24.553 -0.2770 -0.1318 -0.0046
   13BOLB   C3C  307   5.922  15.418  24.265 -0.1174  0.5209 -0.0638
   13BOLB   C4C  308   6.218  15.425  23.943  0.0347  0.1036  0.3836
   13BOLB   C1D  309   5.368  15.082  25.107 -0.0350 -0.0548  0.2456
   13BOLB   C2D  310   5.865  15.098  24.926  0.2616  0.1073  0.1153
   13BOLB   C3D  311   6.046  15.029  24.592 -0.1277  0.0092  0.2688
   13BOLB   C4D  312   6.293  15.091  24.240  0.1337 -0.0797 -0.1307
   14BOLB   NC1  313   8.684   8.123  22.109  0.1087 -0.1554  0.0308
   14BOLB   PO1  314   8.870   8.516  21.802 -0.0567  0.0659  0.2066
   14BOLB   GL1  315   9.156   8.840  21.526 -0.0344  0.2278 -0.0043
   14BOLB   GL2  316   9.288   8.926  21.791 -0.2824 -0.3364  0.0037
   14BOLB   C1A  317   9.349   9.128  21.228 -0.1747  0.0891 -0.0922
   14BOLB   C2A  318   9.384   9.242  20.781 -0.1782  0.2201 -0.0316
   14BOLB   C3A  319   9.171   9.590  20.587 -0.1043 -0.4423  0.1133
   14BOLB   C4A  320   8.975   9.865  20.324  0.2935  0.0423 -0.2187
   14BOLB   C1B  321   9.101   9.430  21.575  0.1358 -0.0508  0.2958
   14BOLB   C2B  322   9.141   9.897  21.598 -0.0398  0.0509 -0.1738
   14BOLB   C3B  323   9.082  10.107  21.945 -0.1325 -0.0366  0.1937
   14BOLB   C4B  324   9.213  10.569  22.093  0.1159  0.0936  0.5242
   14BOLB   NC2  325   6.245  10.428  20.591  0.1843 -0.0081 -0.1771
   14BOLB   PO2  326   6.503  10.228  20.826  0.1691  0.1014 -0.3696
   14BOLB   GL3  327   6.933  10.132  20.640 -0.0471  0.2762 -0.2428
   14BOLB   GL4  328   7.284  10.188  20.795 -0.2779  0.5215 -0.2548
   14BOLB   C1C  329   7.254   9.865  20.366 -0.5417 -0.0498  0.1843
   14BOLB   C2C  330   7.668   9.660  20.162 -0.0558 -0.2862  0.1318
   14BOLB   C3C  331   8.113   9.732  20.110  0.1034 -0.0840  0.1073
   14BOLB   C4C  332   8.471   9.916  20.287  0.1493 -0.4074 -0.1233
   14BOLB   C1D  333   7.246  10.525  20.596 -0.0473 -0.2053 -0.1813
   14BOLB   C2D  334   7.030  10.868  20.335 -0.1117 -0.0652  0.0820
   14BOLB   C3D  335   7.000  10.843  19.856 -0.0020 -0.1919  0.3017
   14BOLB   C4D  336   7.303  10.854  19.461 -0.2843 -0.1345 -0.0010
   15BOLB   NC1  337   9.747  14.171  23.945  0.2749  0.1350 -0.0013
   15BOLB   PO1  338   9.391  14.170  23.682 -0.0885  0.0232  0.0603
   15BOLB   GL1  339   9.222  14.172  24.125  0.1883  0.1737  0.0895
   15BOLB   GL2  340   8.954  14.252  24.098 -0.0929 -0.0004  0.1173
   15BOLB   C1A  341   9.046  13.798  24.356 -0.0973  0.0658  0.2669
   15BOLB   C2A  342   8.844  13.831  24.770 -0.1949  0.1880  0.0581
   15BOLB   C3A  343   8.462  14.088  24.886  0.2712  0.1067  0.3110
   15BOLB   C4A  344   8.252  14.120  25.249 -0.1810  0.0944 -0.0209
   15BOLB   C1B  345   8.806  14.274  24.523 -0.0142  0.0077  0.2448
   15BOLB   C2B  346   8.957  14.299  24.941  0.1129  0.0488 -0.4598
   15BOLB   C3B  347   8.763  14.232  25.407  0.0834 -0.2328 -0.1897
   15BOLB   C4B  348   8.345  14.382  25.672  0.1818  0.1813  0.2087
   15BOLB   NC2  349   6.251  12.151  26.591 -0.1852  0.1872  0.0285
   15BOLB   PO2  350   6.600  12.416  26.399 -0.0189 -0.0426 -0.3339
   15BOLB   GL3  351   6.755  12.803  26.211  0.1037  0.1429 -0.2776
   15BOLB   GL4  352   6.842  12.836  25.911  0.0961 -0.3644  0.1843
   15BOLB   C1C  353   7.177  13.043  26.175  0.1918 -0.2261  0.2431
   15BOLB   C2C  354   7.406  13.402  25.976 -0.2078  0.2233 -0.2040
   15BOLB   C3C  355   7.753  13.780  25.892  0.0197 -0.3397 -0.0585
   15BOLB   C4C  356   8.042  13.996  25.710 -0.3854 -0.0622 -0.1093
   15BOLB   C1D  357   7.057  13.189  25.660  0.0115 -0.1531 -0.0596
   15BOLB   C2D  358   6.998  13.628  25.599 -0.0100 -0.0873 -0.2340
   15BOLB   C3D  359   7.324  13.918  25.598 -0.0096  0.2624 -0.0225
   15BOLB   C4D  360   7.615  14.085  25.441 -0.3776 -0.1566  0.1032
   16BOLB   NC1  361  11.096   9.658  22.249  0.1051  0.1026  0.0799
   16BOLB   PO1  362  10.944  10.071  22.164  0.1669 -0.0369  0.2545
   16BOLB   GL1  363  10.741  10.312  21.729 -0.0194  0.2045 -0.3495
   16BOLB   GL2  364  10.708  10.481  22.102  0.2082  0.5501  0.2229
   16BOLB   C1A  365  10.571  10.388  21.266 -0.1470 -0.0652 -0.0418
   16BOLB   C2A  366  10.031  10.517  21.065 -0.2365 -0.1979  0.2522
   16BOLB   C3A  367   9.623  10.636  21.067 -0.1407  0.2461 -0.0616
   16BOLB   C4A  368   9.242  10.383  21.189 -0.1478  0.1624  0.1342
   16BOLB   C1B  369  10.455  10.986  22.081  0.0638  0.1678 -0.0133
   16BOLB   C2B  370  10.042  11.141  21.864  0.0100 -0.1739  0.1981
   16BOLB   C3B  371   9.657  11.295  21.972  0.2785  0.0630  0.0696
   16BOLB   C4B  372   9.203  11.501  22.057 -0.0856 -0.0212  0.3340
   16BOLB   NC2  373   7.122   9.375  20.941 -0.0151 -0.1931 -0.1823
   16BOLB   PO2  374   7.450   9.069  20.952  0.1668  0.2929 -0.2063
   16BOLB   GL3  375   7.660   9.452  21.013  0.0518 -0.3327 -0.0458
   16BOLB   GL4  376   7.587   9.682  20.720 -0.2743 -0.0336  0.1734
   16BOLB   C1C  377   7.912   9.680  21.220 -0.1221 -0.0415  0.0940
   16BOLB   C2C  378   8.257   9.837  21.605 -0.0764 -0.0579  0.1476
   16BOLB   C3C  379   8.652  10.025  21.656 -0.0905  0.1230  0.1600
   16BOLB   C4C  380   8.884  10.152  21.245  0.3852 -0.1850 -0.0780
   16BOLB   C1D  381   7.732  10.037  20.518  0.1375  0.2713  0.0867
   16BOLB   C2D  382   7.672  10.384  20.358  0.2416  0.1951  0.0750
   16BOLB   C3D  383   7.384  10.665  20.100  0.1280 -0.1940  0.0863
   16BOLB   C4D  384   7.391  11.080  19.918  0.2268  0.3367 -0.2460
   17BOLB   NC1  385   7.686  19.402  22.602 -0.0472 -0.1043  0.0623
   17BOLB   PO1  386   7.415  19.831  22.386  0.6457  0.1932 -0.2532
   17BOLB   GL1  387   7.337  19.460  22.156  0.0718  0.0008 -0.0136
   17BOLB   GL2  388   7.304  19.159  22.357 -0.0952  0.2611 -0.1094
   17BOLB   C1A  389   6.932  19.436  21.852  0.1657  0.0528 -0.0245
   17BOLB   C2A  390   6.519  19.442  21.572 -0.2822 -0.2394 -0.1100
   17BOLB   C3A  391   6.191  19.159  21.671  0.0931  0.0010 -0.0937
   17BOLB   C4A  392   5.865  18.874  21.660  0.1831  0.2418  0.0154
   17BOLB   C1B  393   6.812  19.028  22.386 -0.2290 -0.1342 -0.1205
   17BOLB   C2B  394   6.536  18.697  22.408 -0.1667  0.0017 -0.0008
   17BOLB   C3B  395   6.371  18.324  22.697  0.0079  0.2056 -0.1310
   17BOLB   C4B  396   6.122  18.021  23.044  0.4911 -0.1624  0.1835
   17BOLB   NC2  397   3.535  18.245  21.617 -0.1118 -0.0952 -0.0099
   17BOLB   PO2  398   3.638  17.884  21.892  0.0920 -0.1394  0.1574
   17BOLB   GL3  399   4.017  17.831  21.930  0.2344 -0.0686  0.7656
   17BOLB   GL4  400   4.137  17.685  22.260 -0.0325  0.0735  0.3630
   17BOLB   C1C  401   4.532  17.854  22.007 -0.0129 -0.1518 -0.1050
   17BOLB   C2C  402   4.962  17.963  21.890 -0.0060 -0.1378  0.0804
   17BOLB   C3C  403   5.376  18.152  21.817 -0.1709  0.1642  0.0441
   17BOLB   C4C  404   5.770  18.373  21.536 -0.2067 -0.0016 -0.1201
   17BOLB   C1D  405   4.617  17.494  22.278 -0.1436  0.0184 -0.3539
   17BOLB   C2D  406   4.948  17.338  22.564  0.1255  0.0226  0.2297
   17BOLB   C3D  407   5.355  17.118  22.533  0.2427 -0.1000  0.0231
   17BOLB   C4D  408   5.566  16.760  22.532 -0.1286  0.1613  0.0400
   18BOLB   NC1  409   5.364  21.810  24.492  0.4524  0.1081  0.1472
   18BOLB   PO1  410   5.371  21.804  24.864 -0.0329  0.2763 -0.1110
   18BOLB   GL1  411   5.749  21.687  25.059  0.0778  0.1059  0.0859
   18BOLB   GL2  412   6.002  21.985  25.117  0.2041  0.1441  0.3386
   18BOLB   C1A  413   6.177  21.494  25.208 -0.3913  0.2015 -0.1428
   18BOLB   C2A  414   6.327  21.065  25.261  0.1434 -0.1098 -0.2114
   18BOLB   C3A  415   6.488  20.829  25.042 -0.2006 -0.3014  0.5920
   18BOLB   C4A  416   6.497  20.403  25.127  0.1745 -0.2142 -0.0370
   18BOLB   C1B  417   6.382  22.003  25.184  0.0421 -0.0207 -0.1087
   18BOLB   C2B  418   6.704  21.723  25.274 -0.1349  0.1135  0.2006
   18BOLB   C3B  419   6.958  21.749  25.577 -0.2598 -0.1311 -0.2295
   18BOLB   C4B  420   7.337  21.747  25.673  0.2484  0.0839  0.3268
   18BOLB   NC2  421   4.784  20.942  25.722  0.2237  0.1078  0.2762
   18BOLB   PO2  422   5.265  21.077  25.982 -0.0387  0.1339  0.2826
   18BOLB   GL3  423   5.593  20.868  25.770 -0.2612  0.1933  0.1389
   18BOLB   GL4  424   5.876  20.855  25.722  0.2308  0.3288 -0.0044
   18BOLB   C1C  425   5.552  20.408  25.797 -0.2023 -0.1542 -0.2003
   18BOLB   C2C  426   5.652  20.137  25.615  0.0685 -0.1945  0.6717
   18BOLB   C3C  427   5.822  20.074  25.269 -0.1407  0.0303  0.0453
   18BOLB   C4C  428   6.276  20.080  25.302 -0.1043 -0.4775  0.1923
   18BOLB   C1D  429   5.762  21.035  25.271 -0.3820  0.3351  0.0637
   18BOLB   C2D  430   5.569  20.866  24.874  0.2042  0.0948 -0.1077
   18BOLB   C3D  431   5.322  20.566  24.729  0.1801  0.0013  0.2430
   18BOLB   C4D  432   5.230  20.300  24.325 -0.1523 -0.3086  0.0308
   19BOLB   NC1  433   8.051  15.897  23.089  0.1275 -0.0831 -0.1665
   19BOLB   PO1  434   7.577  15.954  22.949 -0.1303  0.1761  0.0328
   19BOLB   GL1  435   7.534  15.933  23.277  0.0825 -0.0529  0.1327
   19BOLB   GL2  436   7.305  16.268  23.187  0.0284 -0.1933 -0.1471
   19BOLB   C1A  437   7.621  15.760  23.747  0.0096  0.1887 -0.3331
   19BOLB   C2A  438   7.480  15.810  24.242 -0.2036 -0.1179 -0.0250
   19BOLB   C3A  439   7.111  15.587  24.439 -0.0271 -0.1169  0.1689
   19BOLB   C4A  440   7.134  15.148  24.648 -0.2635  0.2600 -0.3307
   19BOLB   C1B  441   7.078  16.578  23.372 -0.0328  0.0041 -0.0237
   19BOLB   C2B  442   6.741  16.768  23.178 -0.1502 -0.0116 -0.1289
   19BOLB   C3B  443   6.267  16.770  23.299 -0.1709 -0.6298  0.0397
   19BOLB   C4B  444   6.003  17.128  23.288  0.1058 -0.3315 -0.1383
   19BOLB   NC2  445   5.933  14.722  26.620 -0.2822  0.1298 -0.0211
   19BOLB   PO2  446   5.802  14.952  26.215  0.4132 -0.0907 -0.0202
   19BOLB   GL3  447   6.172  15.087  26.245 -0.0131  0.0792 -0.0535
   19BOLB   GL4  448   6.324  15.039  26.638  0.0389  0.0808 -0.1467
   19BOLB   C1C  449   6.525  15.075  26.032 -0.0873 -0.2704  0.1129
   19BOLB   C2C  450   6.845  15.100  25.713  0.0026 -0.1198  0.1830
   19BOLB   C3C  451   7.113  14.957  25.432  0.0609 -0.0831  0.0325
   19BOLB   C4C  452   7.147  14.929  25.067  0.2492  0.0781  0.0192
   19BOLB   C1D  453   6.651  14.720  26.441 -0.1460  0.2161  0.0734
   19BOLB   C2D  454   7.141  14.676  26.477 -0.1301 -0.1946  0.1086
   19BOLB   C3D  455   7.369  15.109  26.356  0.2267  0.1875  0.2328
   19BOLB   C4D  456   7.478  15.493  26.109 -0.3465  0.2608 -0.1328
   20BOLB   NC1  457   7.633  17.183  22.842 -0.2211  0.0926  0.0289
   20BOLB   PO1  458   7.416  16.787  22.730  0.2776  0.1002  0.2946
   20BOLB   GL1  459   7.106  17.127  22.747  0.0037  0.2973 -0.0812
   20BOLB   GL2  460   6.754  17.070  22.544 -0.1790 -0.2157 -0.0496
   20BOLB   C1A  461   6.793  17.298  22.976 -0.0485  0.3060 -0.1190
   20BOLB   C2A  462   6.509  17.270  23.333 -0.2745  0.0779 -0.2183
   20BOLB   C3A  463   6.397  17.199  23.688  0.1272 -0.2051 -0.1804
   20BOLB   C4A  464   6.346  16.915  23.991 -0.0827 -0.0270 -0.1350
   20BOLB   C1B  465   6.312  16.884  22.414  0.1009 -0.3804  0.0974
   20BOLB   C2B  466   5.955  17.139  22.297  0.1906  0.0293 -0.1112
   20BOLB   C3B  467   5.838  17.241  22.617  0.0338 -0.2457  0.3510
   20BOLB   C4B  468   5.631  17.635  22.701  0.2767 -0.1327  0.0824
   20BOLB   NC2  469   4.460  16.975  25.274 -0.3503 -0.0240  0.0957
   20BOLB   PO2  470   4.529  16.628  25.578 -0.3020  0.4172  0.2498
   20BOLB   GL3  471   4.771  16.498  25.289  0.0691  0.1963 -0.2568
   20BOLB   GL4  472   5.180  16.458  25.313 -0.1448 -0.3761  0.0620
   20BOLB   C1C  473   5.065  16.675  24.900  0.2958  0.3030 -0.3059
   20BOLB   C2C  474   5.441  16.694  24.643  0.0278  0.2012 -0.1597
   20BOLB   C3C  475   5.742  16.679  24.277  0.1334  0.0951 -0.1095
   20BOLB   C4C  476   6.084  16.704  24.131  0.2849  0.0215 -0.1443
   20BOLB   C1D  477   5.524  16.748  25.170 -0.3834  0.1800  0.0369
   20BOLB   C2D  478   5.906  16.864  24.984  0.0721 -0.0204 -0.4152
   20BOLB   C3D  479   6.149  17.311  24.851  0.1516 -0.2273  0.2290
   20BOLB   C4D  480   6.265  17.538  24.512 -0.0986 -0.0926  0.0761
   21BOLB   NC1  481   8.424  20.103  24.300  0.0907  0.0396  0.1554
   21BOLB   PO1  482   8.686  19.747  24.260  0.0825 -0.0590 -0.2159
   21BOLB   GL1  483   8.717  19.675  24.717 -0.0948  0.1146  0.0617
   21BOLB   GL2  484   8.369  19.826  24.689  0.0500  0.1068  0.0270
   21BOLB   C1A  485   8.565  19.334  24.970  0.0781 -0.0053 -0.2929
   21BOLB   C2A  486   8.277  19.030  25.033 -0.1443  0.1472 -0.0541
   21BOLB   C3A  487   7.998  19.067  25.423  0.1153 -0.2986 -0.1091
   21BOLB   C4A  488   7.743  18.868  25.794  0.3588  0.0172 -0.4481
   21BOLB   C1B  489   8.122  19.677  25.019 -0.0559 -0.2924  0.0352
   21BOLB   C2B  490   8.291  19.435  25.410 -0.1363 -0.0212 -0.1490
   21BOLB   C3B  491   8.322  19.269  25.826 -0.1110 -0.0465  0.0784
   21BOLB   C4B  492   8.242  19.261  26.185 -0.1241  0.2496 -0.1715
   21BOLB   NC2  493   6.110  18.474  27.141  0.0792  0.4106 -0.2044
   21BOLB   PO2  494   6.348  18.134  26.911  0.0196 -0.1739  0.2327
   21BOLB   GL3  495   6.796  18.006  26.848  0.0249 -0.0710  0.0927
   21BOLB   GL4  496   6.748  17.722  26.606  0.1390 -0.0453  0.2417
   21BOLB   C1C  497   7.175  18.050  26.735 -0.1311  0.0962  0.2512
   21BOLB   C2C  498   7.405  18.110  26.359 -0.1179  0.2134 -0.1993
   21BOLB   C3C  499   7.600  18.049  25.908  0.1712  0.0705  0.1157
   21BOLB   C4C  500   7.786  18.346  25.924 -0.3347  0.3590  0.1972
   21BOLB   C1D  501   7.077  17.541  26.309  0.2693 -0.1905  0.1737
   21BOLB   C2D  502   7.440  17.635  26.193 -0.0703  0.0869  0.1056
   21BOLB   C3D  503   7.797  17.458  25.955 -0.0135  0.2578 -0.0208
   21BOLB   C4D  504   7.697  17.265  25.727  0.0187 -0.2577 -0.5210
   22BOLB   NC1  505   5.934  11.725  21.867 -0.0766  0.2285 -0.3370
   22BOLB   PO1  506   5.654  11.941  21.547 -0.0367 -0.0711 -0.2706
   22BOLB   GL1  507   6.187  12.105  21.626 -0.2296  0.1318  0.0816
   22BOLB   GL2  508   6.359  12.137  21.887 -0.0357 -0.0831  0.6238
   22BOLB   C1A  509   6.436  12.060  21.274 -0.2686 -0.1206  0.0477
   22BOLB   C2A  510   6.967  12.140  21.145 -0.3894 -0.1767 -0.1725
   22BOLB   C3A  511   7.421  12.237  21.416  0.1212 -0.0417  0.1618
   22BOLB   C4A  512   7.799  12.177  21.198 -0.1627  0.0601 -0.1045
   22BOLB   C1B  513   6.772  12.237  21.800  0.0141  0.1557  0.4311
   22BOLB   C2B  514   7.168  12.002  21.773  0.3309  0.1639 -0.1443
   22BOLB   C3B  515   7.572  11.724  21.564  0.0710 -0.2457 -0.0209
   22BOLB   C4B  516   8.041  11.627  21.660 -0.1023 -0.1862  0.1636
   22BOLB   NC2  517   5.820  10.736  20.827  0.2638  0.0050  0.2055
   22BOLB   PO2  518   6.126  10.999  20.794  0.3977 -0.0910  0.0628
   22BOLB   GL3  519   6.519  11.258  20.812  0.1069  0.1945 -0.0019
   22BOLB   GL4  520   6.336  11.535  20.834 -0.4080  0.0435  0.2205
   22BOLB   C1C  521   6.946  11.113  20.738  0.2486 -0.0798 -0.0223
   22BOLB   C2C  522   7.411  11.226  20.840  0.4618 -0.0558  0.0803
   22BOLB   C3C  523   7.747  11.486  21.053 -0.1120 -0.2953  0.2680
   22BOLB   C4C  524   8.000  11.819  21.169 -0.3601  0.1721  0.1889
   22BOLB   C1D  525   6.738  11.776  20.849  0.0901  0.1387 -0.2399
   22BOLB   C2D  526   7.120  11.907  20.608 -0.1247 -0.1710  0.2457
   22BOLB   C3D  527   7.431  11.751  20.536 -0.1915  0.1391 -0.2068
   22BOLB   C4D  528   7.673  11.443  20.470 -0.1367  0.1016  0.0007
   23BOLB   NC1  529   9.830   7.975  21.192 -0.0759 -0.0102  0.0287
   23BOLB   PO1  530   9.429   8.072  20.990 -0.3079 -0.3689 -0.0564
   23BOLB   GL1  531   9.637   8.496  20.926 -0.1164 -0.1750  0.0331
   23BOLB   GL2  532  10.019   8.339  20.883 -0.3319 -0.0757 -0.4560
   23BOLB   C1A  533   9.598   8.805  20.641 -0.0328 -0.0311  0.1177
   23BOLB   C2A  534   9.687   9.181  20.424  0.2265  0.1052  0.0177
   23BOLB   C3A  535   9.564   9.572  20.178 -0.1744  0.3089 -0.0791
   23BOLB   C4A  536   9.290   9.430  19.936 -0.2217  0.0673 -0.0725
   23BOLB   C1B  537  10.111   8.751  20.724  0.1939 -0.1814 -0.3420
   23BOLB   C2B  538  10.253   9.123  20.632  0.0535  0.0813  0.1091
   23BOLB   C3B  539  10.295   9.557  20.652  0.1459  0.3151 -0.0250
   23BOLB   C4B  540  10.228   9.978  20.984 -0.0652 -0.3057 -0.1442
   23BOLB   NC2  541   7.911   8.251  21.450 -0.0827 -0.1321 -0.1585
   23BOLB   PO2  542   8.015   8.555  21.265 -0.2999  0.3754  0.2815
   23BOLB   GL3  543   7.915   8.906  21.023 -0.1034  0.1107 -0.0949
   23BOLB   GL4  544   7.841   9.045  20.678  0.1534 -0.1545  0.1116
   23BOLB   C1C  545   8.115   9.336  20.932  0.0063 -0.1667  0.2104
   23BOLB   C2C  546   8.448   9.442  20.703  0.0919 -0.0253  0.1675
   23BOLB   C3C  547   8.786   9.220  20.571 -0.0752 -0.0928 -0.0022
   23BOLB   C4C  548   9.083   9.279  20.185 -0.1866 -0.1078 -0.3808
   23BOLB   C1D  549   7.800   9.206  20.376  0.1496 -0.2812  0.2890
   23BOLB   C2D  550   7.985   9.540  20.508 -0.1027  0.1370  0.0261
   23BOLB   C3D  551   8.146   9.819  20.763 -0.3847 -0.2677 -0.0873
   23BOLB   C4D  552   8.467   9.802  21.149 -0.0774 -0.0494  0.0482
   24BOLB   NC1  553   7.243  14.186  21.911 -0.0955  0.0353 -0.1096
   24BOLB   PO1  554   7.204  13.786  21.727  0.1374 -0.1642  0.1402
   24BOLB   GL1  555   7.122  13.737  22.169  0.2798  0.1522 -0.2109
   24BOLB   GL2  556   7.093  14.043  22.399 -0.0382  0.0821 -0.1520
   24BOLB   C1A  557   6.823  13.581  22.447  0.0400 -0.0136  0.1255
   24BOLB   C2A  558   6.815  13.527  22.910  0.1484  0.0306  0.4312
   24BOLB   C3A  559   7.051  13.389  23.278 -0.0416 -0.0000 -0.0179
   24BOLB   C4A  560   6.951  13.432  23.768 -0.0220 -0.0352  0.0581
   24BOLB   C1B  561   7.171  13.886  22.851  0.0567 -0.2217 -0.2790
   24BOLB   C2B  562   7.426  13.794  23.183 -0.2333  0.2315  0.1264
   24BOLB   C3B  563   7.595  13.880  23.554  0.2291 -0.2784 -0.1179
   24BOLB   C4B  564   7.510  13.976  23.910 -0.4525  0.2050  0.0405
   24BOLB   NC2  565   5.729  12.905  25.746  0.0285 -0.2502  0.2366
   24BOLB   PO2  566   5.412  13.136  25.686  0.2634  0.0745  0.3859
   24BOLB   GL3  567   5.803  13.338  25.532  0.0912 -0.1231 -0.0402
   24BOLB   GL4  568   5.736  13.619  25.356  0.0534 -0.0760 -0.2198
   24BOLB   C1C  569   6.116  13.368  25.119 -0.0766  0.0652  0.0422
   24BOLB   C2C  570   6.387  13.145  24.871  0.4408 -0.0614  0.2384
   24BOLB   C3C  571   6.696  13.197  24.519  0.4025  0.0072  0.1252
   24BOLB   C4C  572   6.807  13.374  24.201 -0.2270  0.0162 -0.2346
   24BOLB   C1D  573   6.059  13.944  25.195 -0.0446  0.0725  0.1133
   24BOLB   C2D  574   5.855  14.308  25.171 -0.0881 -0.2435 -0.1156
   24BOLB   C3D  575   5.839  14.571  24.816 -0.1349  0.3723 -0.1294
   24BOLB   C4D  576   5.521  14.824  24.698  0.1273 -0.0046  0.2613
   25BOLB   NC1  577   8.070  14.465  22.640  0.1601 -0.2545  0.5535
   25BOLB   PO1  578   8.186  14.093  22.323  0.2028 -0.0006  0.0177
   25BOLB   GL1  579   8.153  13.593  22.438 -0.3015 -0.0040 -0.0338
   25BOLB   GL2  580   7.935  13.691  22.751  0.0328 -0.2611 -0.0883
   25BOLB   C1A  581   7.958  13.260  22.446  0.0669  0.1856  0.2477
   25BOLB   C2A  582   7.721  12.847  22.626  0.0094 -0.1590 -0.5948
   25BOLB   C3A  583   7.754  12.474  22.837 -0.0516  0.0734 -0.0674
   25BOLB   C4A  584   7.826  12.112  23.170 -0.0030  0.1287  0.3548
   25BOLB   C1B  585   7.809  13.317  22.971 -0.3721 -0.4459 -0.2719
   25BOLB   C2B  586   7.563  13.255  23.504  0.2251 -0.1861  0.0563
   25BOLB   C3B  587   7.436  13.456  23.832 -0.1443 -0.1046  0.4100
   25BOLB   C4B  588   7.343  13.563  24.233 -0.2273 -0.0283  0.5313
   25BOLB   NC2  589   7.223   9.761  24.341 -0.0176 -0.0110  0.0454
   25BOLB   PO2  590   6.996   9.893  23.978  0.1681 -0.1076  0.1288
   25BOLB   GL3  591   7.360  10.328  23.904  0.0400  0.4478  0.2881
   25BOLB   GL4  592   7.327  10.375  24.259  0.1411 -0.0547 -0.0308
   25BOLB   C1C  593   7.381  10.840  23.855 -0.3859  0.6214 -0.0652
   25BOLB   C2C  594   7.422  11.283  23.914  0.0031 -0.0241  0.2113
   25BOLB   C3C  595   7.661  11.604  23.875  0.0844  0.0274 -0.1037
   25BOLB   C4C  596   7.739  11.875  23.466 -0.3588  0.0234 -0.0819
   25BOLB   C1D  597   7.285  10.735  24.436  0.0513 -0.3896  0.1831
   25BOLB   C2D  598   7.435  11.125  24.653  0.0178 -0.3120 -0.1032
   25BOLB   C3D  599   7.845  11.451  24.726 -0.0433 -0.1264 -0.3118
   25BOLB   C4D  600   8.346  11.335  24.704 -0.0250  0.2213  0.1853
   26BOLB   NC1  601   3.461  19.554  21.543 -0.2721  0.0515  0.0087
   26BOLB   PO1  602   3.817  19.735  21.231  0.1570  0.2064 -0.2269
   26BOLB   GL1  603   4.001  19.861  20.887 -0.2304 -0.3527  0.0415
   26BOLB   GL2  604   3.837  19.977  20.658 -0.0835 -0.2873 -0.0339
   26BOLB   C1A  605   4.403  19.707  20.660  0.0508 -0.1367  0.4114
   26BOLB   C2A  606   4.631  19.416  20.472  0.2347 -0.3607  0.0436
   26BOLB   C3A  607   4.709  18.979  20.312  0.5685 -0.0200  0.0531
   26BOLB   C4A  608   4.816  18.621  20.018  0.0214 -0.1756 -0.0086
   26BOLB   C1B  609   3.762  19.613  20.445  0.0737  0.3032 -0.1723
   26BOLB   C2B  610   4.004  19.502  20.041  0.1105  0.1314  0.0723
   26BOLB   C3B  611   4.018  19.116  19.834  0.1018 -0.1397  0.1242
   26BOLB   C4B  612   4.315  18.734  20.080  0.2305  0.0922  0.5117
   26BOLB   NC2  613   2.623  18.675  21.053  0.0138  0.2860  0.4750
   26BOLB   PO2  614   2.733  18.281  20.811  0.0737 -0.3483 -0.1194
   26BOLB   GL3  615   3.186  18.332  20.775 -0.1495  0.3140  0.1332
   26BOLB   GL4  616   3.293  18.116  20.506  0.0863 -0.1375 -0.1436
   26BOLB   C1C  617   3.699  18.253  20.793 -0.0985 -0.2319 -0.3219
   26BOLB   C2C  618   4.064  18.185  20.467  0.0735  0.1425  0.1130
   26BOLB   C3C  619   4.222  18.221  20.067  0.0914  0.1990  0.0847
   26BOLB   C4C  620   4.646  18.231  19.920  0.1688  0.2654  0.0856
   26BOLB   C1D  621   3.576  18.589  20.480 -0.2049 -0.0937  0.6013
   26BOLB   C2D  622   3.931  18.644  20.452  0.2796 -0.1771  0.1959
   26BOLB   C3D  623   4.314  18.589  20.579  0.0562  0.0678 -0.1523
   26BOLB   C4D  624   4.699  18.749  20.731  0.1427  0.0970  0.1638
   27BOLB   NC1  625   5.882  11.421  22.919  0.1093  0.0897 -0.2028
   27BOLB   PO1  626   5.555  11.803  22.957 -0.3834  0.1797 -0.1254
   27BOLB   GL1  627   6.021  11.981  22.858  0.0973  0.1028 -0.1905
   27BOLB   GL2  628   6.269  11.733  22.661 -0.3297 -0.2541  0.2355
   27BOLB   C1A  629   6.346  12.313  22.783 -0.3577 -0.1895  0.1121
   27BOLB   C2A  630   6.542  12.641  23.112  0.2970 -0.0858 -0.0054
   27BOLB   C3A  631   6.436  12.662  23.578 -0.0425  0.4211 -0.0932
   27BOLB   C4A  632   6.145  12.908  23.945  0.0935 -0.2435  0.1371
   27BOLB   C1B  633   6.500  11.879  23.021  0.2853  0.0604 -0.2722
   27BOLB   C2B  634   6.498  12.191  23.314  0.0052  0.2483 -0.0793
   27BOLB   C3B  635   6.888  12.394  23.603 -0.0252 -0.0732 -0.2605
   27BOLB   C4B  636   7.125  12.522  23.977 -0.1150 -0.3115 -0.1172
   27BOLB   NC2  637   4.120  13.599  24.579  0.0061  0.1003 -0.0575
   27BOLB   PO2  638   4.265  13.672  24.116  0.0092  0.3781 -0.0468
   27BOLB   GL3  639   4.665  13.783  24.405  0.1668 -0.1958  0.0138
   27BOLB   GL4  640   4.832  13.596  24.132 -0.1133  0.2504 -0.0792
   27BOLB   C1C  641   5.108  13.814  24.497 -0.2493 -0.0328 -0.0375
   27BOLB   C2C  642   5.519  13.775  24.336 -0.0596 -0.0509 -0.0281
   27BOLB   C3C  643   5.652  13.288  24.281 -0.1237 -0.0700 -0.1686
   27BOLB   C4C  644   5.965  12.970  24.268  0.0009  0.3605  0.0141
   27BOLB   C1D  645   5.094  13.941  24.004  0.2094  0.1094 -0.1678
   27BOLB   C2D  646   5.471  14.114  23.906 -0.1573  0.2826  0.3086
   27BOLB   C3D  647   5.579  14.407  23.613  0.5480  0.2345  0.0102
   27BOLB   C4D  648   5.633  14.771  23.423 -0.2554  0.1346 -0.1026
   28BOLB   NC1  649  10.521   8.250  21.403  0.1708 -0.1674  0.3754
   28BOLB   PO1  650  10.050   8.421  21.373 -0.0524 -0.0937 -0.2345
   28BOLB   GL1  651   9.927   8.814  21.210 -0.0398  0.0389 -0.0732
   28BOLB   GL2  652  10.262   8.994  21.195  0.4402  0.0146  0.1452
   28BOLB   C1A  653   9.850   9.150  20.926  0.3149 -0.2224  0.1436
   28BOLB   C2A  654   9.803   9.610  20.881  0.1510  0.0486 -0.0246
   28BOLB   C3A  655   9.749  10.014  21.119  0.0947 -0.0024 -0.2618
   28BOLB   C4A  656   9.852  10.381  21.469 -0.0090  0.1867 -0.3110
   28BOLB   C1B  657  10.283   9.482  21.213 -0.1790  0.1257 -0.1041
   28BOLB   C2B  658  10.023   9.759  21.500  0.1571  0.2747  0.0378
   28BOLB   C3B  659   9.690   9.964  21.662  0.1048 -0.0386  0.0739
   28BOLB   C4B  660   9.545  10.088  22.031  0.0484  0.1403 -0.0952
   28BOLB   NC2  661   7.695   9.233  22.012  0.0135  0.1213  0.1512
   28BOLB   PO2  662   7.623   9.737  22.188 -0.3616 -0.0386 -0.3085
   28BOLB   GL3  663   7.925  10.016  21.982 -0.1682 -0.0315 -0.0930
   28BOLB   GL4  664   7.640  10.338  22.066 -0.2510  0.0675  0.3366
   28BOLB   C1C  665   8.195  10.372  21.693 -0.0782 -0.1255 -0.2131
   28BOLB   C2C  666   8.569  10.571  21.554 -0.1503 -0.2368  0.3176
   28BOLB   C3C  667   9.015  10.594  21.599 -0.2178  0.2231 -0.1197
   28BOLB   C4C  668   9.493  10.517  21.638  0.2673 -0.2275  0.2338
   28BOLB   C1D  669   7.818  10.751  21.774 -0.3258 -0.1049  0.1212
   28BOLB   C2D  670   8.208  10.835  21.429  0.0844  0.0904  0.0596
   28BOLB   C3D  671   8.440  10.918  21.033 -0.0923  0.1941 -0.1963
   28BOLB   C4D  672   8.556  10.825  20.626  0.0434 -0.3527 -0.0666
   29BOLB   NC1  673   8.044  21.177  23.618  0.4541  0.5268  0.0501
   29BOLB   PO1  674   7.658  20.929  23.548  0.0588  0.1013  0.1549
   29BOLB   GL1  675   7.534  20.870  23.947  0.0514  0.0442 -0.1377
   29BOLB   GL2  676   7.288  20.844  23.935  0.2844  0.0975 -0.1360
   29BOLB   C1A  677   7.700  20.893  24.324  0.2325 -0.1396  0.0254
   29BOLB   C2A  678   7.896  20.857  24.768  0.3353 -0.2197 -0.0612
   29BOLB   C3A  679   7.861  20.539  25.027  0.0142  0.3522  0.2714
   29BOLB   C4A  680   7.806  20.449  25.459 -0.1426  0.4452 -0.0668
   29BOLB   C1B  681   7.314  20.605  24.308 -0.2728  0.1202 -0.2459
   29BOLB   C2B  682   7.440  20.614  24.675  0.0888  0.0672 -0.2294
   29BOLB   C3B  683   7.431  20.292  25.070 -0.1063 -0.0577  0.0071
   29BOLB   C4B  684   7.329  19.928  25.329  0.2014 -0.0191 -0.4122
   29BOLB   NC2  685   8.253  20.825  28.162 -0.2128  0.2468  0.0787
   29BOLB   PO2  686   8.018  20.689  27.931  0.0101  0.1301 -0.2275
   29BOLB   GL3  687   7.786  20.428  27.595 -0.2640 -0.0626  0.1616
   29BOLB   GL4  688   8.093  20.329  27.376 -0.3655 -0.1320  0.3820
   29BOLB   C1C  689   7.581  20.276  27.149  0.0642  0.1589  0.2014
   29BOLB   C2C  690   7.553  20.084  26.681 -0.0970 -0.2556 -0.1368
   29BOLB   C3C  691   7.611  20.301  26.246  0.1503  0.4488  0.0007
   29BOLB   C4C  692   7.606  20.246  25.788 -0.2650  0.2812  0.1229
   29BOLB   C1D  693   8.117  20.344  26.891 -0.4115 -0.0637 -0.0248
   29BOLB   C2D  694   8.015  20.084  26.490 -0.0511  0.0692  0.1695
   29BOLB   C3D  695   8.059  20.020  26.050  0.2123  0.2375  0.0243
   29BOLB   C4D  696   8.159  20.121  25.612  0.1206  0.0351  0.2122
   30BOLB   NC1  697   5.603  21.036  22.547  0.0793  0.3058  0.2389
   30BOLB   PO1  698   6.001  21.114  22.560  0.0227  0.3764  0.3550
   30BOLB   GL1  699   6.094  20.751  22.521 -0.0185 -0.0406 -0.1283
   30BOLB   GL2  700   6.270  20.493  22.809  0.3706 -0.0387 -0.1310
   30BOLB   C1A  701   6.032  20.490  22.137 -0.0666  0.0525  0.0890
   30BOLB   C2A  702   5.948  20.004  22.183  0.1304  0.0507 -0.1341
   30BOLB   C3A  703   6.024  19.584  22.318 -0.2148 -0.0738  0.4070
   30BOLB   C4A  704   5.989  19.163  22.599  0.1333  0.1028  0.1883
   30BOLB   C1B  705   5.864  20.310  22.639 -0.5490  0.0497 -0.1203
   30BOLB   C2B  706   5.458  20.098  22.887  0.0317 -0.0020 -0.1807
   30BOLB   C3B  707   5.492  19.827  23.238  0.0808  0.0405 -0.0709
   30BOLB   C4B  708   5.547  19.770  23.674 -0.0151  0.1595  0.1183
   30BOLB   NC2  709   3.671  19.108  24.080 -0.0831 -0.2691  0.0160
   30BOLB   PO2  710   3.768  18.935  23.588 -0.0723  0.2534  0.1272
   30BOLB   GL3  711   4.258  18.806  23.481 -0.0447 -0.1238 -0.0231
   30BOLB   GL4  712   4.405  18.580  23.675 -0.1873 -0.1266  0.1098
   30BOLB   C1C  713   4.591  18.722  23.186 -0.1574  0.4024  0.0025
   30BOLB   C2C  714   4.998  18.606  23.071  0.1102  0.0616  0.0754
   30BOLB   C3C  715   5.494  18.640  22.934  0.2236 -0.0506  0.4277
   30BOLB   C4C  716   5.693  19.012  22.906  0.0589 -0.0471 -0.2526
   30BOLB   C1D  717   4.661  18.267  23.815 -0.1977 -0.1865  0.0634
   30BOLB   C2D  718   4.629  17.811  23.585  0.0173  0.2726 -0.3042
   30BOLB   C3D  719   4.905  17.595  23.191 -0.1183 -0.1356 -0.2819
   30BOLB   C4D  720   5.110  17.743  22.900 -0.0136  0.0171  0.2351
   31BOLB   NC1  721  11.240  11.316  22.528 -0.2269 -0.0401 -0.0964
   31BOLB   PO1  722  10.991  11.240  22.894 -0.2022  0.1984  0.1069
   31BOLB   GL1  723  10.653  11.269  23.096 -0.1317  0.1606  0.1893
   31BOLB   GL2  724  10.419  11.466  22.999  0.0177  0.1650  0.1989
   31BOLB   C1A  725  10.387  10.946  23.358  0.2462 -0.1639  0.3812
   31BOLB   C2A  726  10.285  10.682  23.683 -0.0904  0.3966 -0.0742
   31BOLB   C3A  727  10.000  10.785  24.061 -0.3761 -0.1559  0.0838
   31BOLB   C4A  728   9.757  10.931  24.409 -0.0556  0.2200 -0.1753
   31BOLB   C1B  729  10.287  11.436  23.438  0.0992  0.1492  0.0629
   31BOLB   C2B  730  10.140  11.694  23.791 -0.0958 -0.3299  0.1246
   31BOLB   C3B  731   9.882  11.863  24.056 -0.2896  0.2167  0.0724
   31BOLB   C4B  732   9.625  12.107  24.238  0.1341  0.3462 -0.0429
   31BOLB   NC2  733   8.725  11.402  27.031 -0.0779 -0.2017 -0.2135
   31BOLB   PO2  734   8.475  11.438  26.585 -0.1150 -0.3006  0.0487
   31BOLB   GL3  735   8.762  11.569  26.242  0.0346 -0.3311 -0.2558
   31BOLB   GL4  736   8.451  11.479  26.019 -0.3677 -0.0251  0.2422
   31BOLB   C1C  737   8.965  11.591  25.905 -0.1798  0.2853 -0.1051
   31BOLB   C2C  738   9.197  11.645  25.558 -0.1044 -0.1288 -0.1745
   31BOLB   C3C  739   9.401  11.497  25.092 -0.1776  0.1413 -0.1215
   31BOLB   C4C  740   9.690  11.329  24.711 -0.2353  0.1696 -0.1432
   31BOLB   C1D  741   8.616  11.369  25.579 -0.1442 -0.0448 -0.2368
   31BOLB   C2D  742   8.406  11.455  25.186  0.1886  0.0218 -0.0534
   31BOLB   C3D  743   8.019  11.220  25.130 -0.0651  0.0690 -0.1632
   31BOLB   C4D  744   7.628  11.102  25.120 -0.0861 -0.4078  0.2187
   32BOLB   NC1  745   5.981  10.749  23.412  0.1816  0.1306 -0.0250
   32BOLB   PO1  746   6.228  11.092  23.202 -0.2123 -0.3495  0.2208
   32BOLB   GL1  747   6.433  11.422  23.385 -0.2278  0.2538 -0.1209
   32BOLB   GL2  748   6.742  11.393  23.207 -0.1708 -0.1897  0.4073
   32BOLB   C1A  749   6.766  11.794  23.620  0.5377  0.0067  0.0045
   32BOLB   C2A  750   7.192  11.962  23.668  0.2176  0.0642 -0.2207
   32BOLB   C3A  751   7.374  12.034  24.048  0.1178  0.0416 -0.1456
   32BOLB   C4A  752   7.124  12.175  24.352 -0.2735 -0.3518  0.1614
   32BOLB   C1B  753   6.962  11.740  23.149 -0.0994  0.0130 -0.2629
   32BOLB   C2B  754   7.366  11.992  23.245  0.1036 -0.2912 -0.1360
   32BOLB   C3B  755   7.443  12.389  23.603 -0.0452 -0.0266  0.1629
   32BOLB   C4B  756   7.617  12.737  23.671 -0.1663 -0.0304  0.0788
   32BOLB   NC2  757   5.026  12.474  25.172 -0.0980 -0.1531 -0.1046
   32BOLB   PO2  758   4.701  12.862  25.029  0.1923  0.0149 -0.3345
   32BOLB   GL3  759   5.097  12.962  24.686  0.2598  0.3757 -0.2815
   32BOLB   GL4  760   4.965  12.871  24.388  0.0408 -0.1527 -0.0817
   32BOLB   C1C  761   5.577  12.984  24.630 -0.0020 -0.1555 -0.0167
   32BOLB   C2C  762   6.011  12.782  24.704 -0.0771  0.1191 -0.1675
   32BOLB   C3C  763   6.436  12.743  24.534 -0.0149 -0.0623  0.3400
   32BOLB   C4C  764   6.779  12.454  24.432 -0.0395  0.1903  0.0715
   32BOLB   C1D  765   5.077  13.202  24.194 -0.1852 -0.3411 -0.1330
   32BOLB   C2D  766   5.343  13.516  23.888 -0.1112 -0.2033 -0.0789
   32BOLB   C3D  767   5.810  13.575  23.935  0.1230 -0.0917 -0.1162
   32BOLB   C4D  768   6.068  13.765  24.189  0.0547 -0.2762 -0.0388
   33BOLB   NC1  769   3.916  15.058  22.480  0.2096 -0.1031  0.1230
   33BOLB   PO1  770   4.174  15.164  22.200 -0.0671 -0.1924  0.2754
   33BOLB   GL1  771   4.206  15.564  22.045 -0.1383 -0.2975  0.2366
   33BOLB   GL2  772   4.505  15.470  21.911 -0.0841  0.0281 -0.3014
   33BOLB   C1A  773   4.510  15.923  22.078  0.0038  0.0802  0.1066
   33BOLB   C2A  774   4.864  15.987  22.451  0.2588 -0.0272  0.0926
   33BOLB   C3A  775   4.968  15.804  22.809 -0.0280 -0.1462  0.0219
   33BOLB   C4A  776   5.152  15.583  23.140 -0.2768  0.0274 -0.1283
   33BOLB   C1B  777   4.865  15.509  22.218  0.0384 -0.1811  0.2465
   33BOLB   C2B  778   5.246  15.501  22.451 -0.2209  0.2828  0.3642
   33BOLB   C3B  779   5.539  15.612  22.823 -0.2926 -0.0811  0.0565
   33BOLB   C4B  780   5.790  15.740  23.204  0.1219 -0.4375 -0.0557
   33BOLB   NC2  781   3.051  16.232  23.655  0.2074 -0.1108 -0.2691
   33BOLB   PO2  782   3.447  16.454  23.475  0.0890 -0.1259  0.0412
   33BOLB   GL3  783   3.799  16.322  23.355 -0.0647  0.0514  0.2761
   33BOLB   GL4  784   4.047  16.393  23.190  0.1930  0.2929 -0.0992
   33BOLB   C1C  785   4.171  16.540  23.635  0.0352  0.1903 -0.2373
   33BOLB   C2C  786   4.561  16.307  23.801 -0.2388 -0.2139 -0.1835
   33BOLB   C3C  787   4.909  15.956  23.978 -0.1806 -0.0302 -0.0546
   33BOLB   C4C  788   5.137  15.777  23.733 -0.1058  0.0048  0.0709
   33BOLB   C1D  789   4.370  16.221  23.357 -0.1022 -0.0831 -0.1667
   33BOLB   C2D  790   4.819  16.241  23.244  0.1646 -0.2353  0.1002
   33BOLB   C3D  791   5.219  16.163  23.188  0.0513  0.4335 -0.1545
   33BOLB   C4D  792   5.528  16.034  23.488  0.2048 -0.0272 -0.2234
   34BOLB   NC1  793   7.743  24.419  23.430 -0.2482  0.1774  0.0454
   34BOLB   PO1  794   7.733  24.151  23.764  0.2307 -0.2748 -0.1513
   34BOLB   GL1  795   8.130  24.178  24.018  0.0285  0.1034  0.2147
   34BOLB   GL2  796   8.346  24.214  23.813  0.1990 -0.1084  0.0281
   34BOLB   C1A  797   8.267  23.844  24.363  0.1168 -0.0833  0.0885
   34BOLB   C2A  798   8.533  23.673  24.701 -0.3411 -0.0220  0.1917
   34BOLB   C3A  799   8.706  23.406  25.118  0.1489  0.0973  0.1943
   34BOLB   C4A  800   8.864  23.121  25.486  0.1765 -0.0271 -0.1651
   34BOLB   C1B  801   8.383  24.173  23.438 -0.0110  0.1353  0.2747
   34BOLB   C2B  802   8.670  24.290  23.187 -0.0112  0.2073 -0.1880
   34BOLB   C3B  803   9.074  24.236  23.294  0.0140  0.1693  0.0659
   34BOLB   C4B  804   9.497  24.239  23.412  0.1135 -0.0197 -0.0917
   34BOLB   NC2  805   9.161  23.384  27.700  0.2149  0.1239 -0.0712
   34BOLB   PO2  806   8.725  23.237  27.547 -0.2329  0.3687 -0.0359
   34BOLB   GL3  807   8.975  23.000  27.380 -0.0876  0.1545  0.1748
   34BOLB   GL4  808   9.038  22.699  27.391  0.1488 -0.2600 -0.1118
   34BOLB   C1C  809   9.215  22.863  26.913 -0.1876  0.1490 -0.1655
   34BOLB   C2C  810   9.402  22.839  26.509 -0.2739 -0.2410  0.0787
   34BOLB   C3C  811   9.394  22.792  26.077  0.1520  0.1295  0.2066
   34BOLB   C4C  812   9.036  22.992  25.861  0.0801 -0.3049 -0.0556
   34BOLB   C1D  813   9.359  22.426  27.200 -0.1897 -0.3243 -0.1555
   34BOLB   C2D  814   9.578  22.022  26.975  0.2434  0.3800 -0.0655
   34BOLB   C3D  815   9.675  21.561  26.736  0.4739 -0.0587  0.0376
   34BOLB   C4D  816   9.789  21.157  26.605  0.1795  0.4115 -0.3424
   35BOLB   NC1  817   9.383  21.626  23.816 -0.1706 -0.0693  0.0629
   35BOLB   PO1  818   9.543  22.019  23.679 -0.2045  0.0722  0.0543
   35BOLB   GL1  819   9.484  22.103  24.079 -0.0804 -0.0041 -0.2706
   35BOLB   GL2  820   9.442  22.442  24.177 -0.0764 -0.0493  0.2592
   35BOLB   C1A  821   9.628  22.086  24.480  0.0524 -0.2356 -0.1824
   35BOLB   C2A  822   9.690  22.250  24.849 -0.1270  0.1699 -0.0248
   35BOLB   C3A  823   9.777  22.133  25.304 -0.1746 -0.2255 -0.0315
   35BOLB   C4A  824   9.546  21.842  25.560  0.0729 -0.3235 -0.0833
   35BOLB   C1B  825   9.116  22.304  24.472 -0.0202  0.2736  0.2071
   35BOLB   C2B  826   9.047  22.440  24.862 -0.1160  0.0682  0.1387
   35BOLB   C3B  827   8.971  22.624  25.297 -0.3254  0.0354 -0.2927
   35BOLB   C4B  828   8.945  22.514  25.715 -0.0994  0.2019  0.0092
   35BOLB   NC2  829   8.759  22.808  27.940  0.0467  0.2330  0.0350
   35BOLB   PO2  830   8.578  22.593  27.641 -0.2281 -0.3826 -0.0445
   35BOLB   GL3  831   8.602  22.693  27.225 -0.1947 -0.1598 -0.0080
   35BOLB   GL4  832   8.591  23.016  27.057 -0.0204  0.0145  0.1453
   35BOLB   C1C  833   8.917  22.427  27.020 -0.0416 -0.0094  0.3797
   35BOLB   C2C  834   9.298  22.351  26.711 -0.0656 -0.1343  0.2386
   35BOLB   C3C  835   9.494  22.057  26.463  0.0465  0.1840 -0.1621
   35BOLB   C4C  836   9.542  21.774  26.042 -0.0282  0.0444  0.2964
   35BOLB   C1D  837   8.542  22.771  26.721 -0.1484 -0.1446  0.0382
   35BOLB   C2D  838   8.824  22.437  26.532 -0.2089 -0.0363  0.0421
   35BOLB   C3D  839   9.101  22.432  26.244 -0.3190 -0.3959 -0.0813
   35BOLB   C4D  840   9.440  22.299  26.012  0.0032 -0.0167  0.0559
   36BOLB   NC1  841   7.960  18.797  23.708 -0.0761  0.2675 -0.0588
   36BOLB   PO1  842   7.726  19.137  23.501 -0.1265  0.2138  0.0601
   36BOLB   GL1  843   7.548  19.048  23.918 -0.1774 -0.0046 -0.1855
   36BOLB   GL2  844   7.338  19.174  24.106  0.1964 -0.0074  0.0567
   36BOLB   C1A  845   7.400  18.681  24.266  0.0793 -0.0354  0.2064
   36BOLB   C2A  846   7.257  18.506  24.749 -0.4107 -0.0985 -0.0148
   36BOLB   C3A  847   6.919  18.391  25.005  0.1522  0.3718  0.2629
   36BOLB   C4A  848   6.580  18.172  24.868  0.0607  0.1786  0.3634
   36BOLB   C1B  849   7.023  19.080  24.431 -0.0600 -0.1999 -0.0422
   36BOLB   C2B  850   6.669  19.078  24.590  0.0254  0.0173  0.0090
   36BOLB   C3B  851   6.336  18.961  24.500 -0.0557 -0.1765 -0.2999
   36BOLB   C4B  852   6.124  18.596  24.333 -0.0678 -0.1118 -0.0786
   36BOLB   NC2  853   5.331  17.375  26.453  0.0123 -0.5352  0.0537
   36BOLB   PO2  854   5.360  16.831  26.437  0.4295 -0.1863  0.2442
   36BOLB   GL3  855   5.554  16.862  26.046 -0.0235  0.1028  0.0970
   36BOLB   GL4  856   5.446  16.947  25.665 -0.1293 -0.0322 -0.1518
   36BOLB   C1C  857   5.974  17.066  25.797  0.1262  0.1299  0.2090
   36BOLB   C2C  858   6.236  17.357  25.433 -0.1268  0.1810  0.0926
   36BOLB   C3C  859   6.459  17.620  25.142 -0.0412  0.1995  0.2889
   36BOLB   C4C  860   6.511  17.791  24.835 -0.1092  0.1684  0.1074
   36BOLB   C1D  861   5.640  17.221  25.355 -0.2516 -0.0345  0.2065
   36BOLB   C2D  862   5.689  17.425  24.982 -0.1002  0.1226 -0.1453
   36BOLB   C3D  863   5.766  17.372  24.554 -0.3516  0.0515  0.3922
   36BOLB   C4D  864   6.043  17.204  24.219  0.1825  0.0601  0.1449
   37BOLB   NC1  865   7.600  25.532  25.591 -0.1105  0.0308  0.2723
   37BOLB   PO1  866   7.649  25.805  25.228  0.1191  0.1507 -0.1243
   37BOLB   GL1  867   7.766  25.305  25.164  0.2292  0.2405  0.0223
   37BOLB   GL2  868   7.506  25.059  25.346  0.3233  0.1447  0.0717
   37BOLB   C1A  869   8.080  24.989  25.235  0.1620  0.0803 -0.0526
   37BOLB   C2A  870   8.335  24.763  25.350  0.0548 -0.1779 -0.1313
   37BOLB   C3A  871   8.512  24.419  25.241  0.5043  0.5339  0.0779
   37BOLB   C4A  872   8.853  24.189  25.396 -0.0322  0.0044 -0.1216
   37BOLB   C1B  873   7.509  24.703  25.647 -0.6076 -0.0056  0.3465
   37BOLB   C2B  874   7.316  24.401  25.962  0.1656  0.2406  0.2922
   37BOLB   C3B  875   7.234  24.138  26.355 -0.0907  0.0199  0.1998
   37BOLB   C4B  876   6.980  23.771  26.466 -0.1625 -0.0020  0.1450
   37BOLB   NC2  877   7.829  25.672  26.501  0.3164  0.1531 -0.1938
   37BOLB   PO2  878   7.664  25.588  26.101  0.0987 -0.0112  0.2963
   37BOLB   GL3  879   7.853  25.202  26.109  0.1719  0.1319  0.1885
   37BOLB   GL4  880   7.659  24.882  26.148 -0.3118 -0.0014  0.2681
   37BOLB   C1C  881   8.125  24.936  26.292  0.1504 -0.1957  0.0079
   37BOLB   C2C  882   8.352  24.623  26.205 -0.2315 -0.1892  0.2243
   37BOLB   C3C  883   8.717  24.319  26.105 -0.1210 -0.1676  0.2286
   37BOLB   C4C  884   8.923  24.204  25.779 -0.0999  0.1767 -0.0004
   37BOLB   C1D  885   7.813  24.516  26.243 -0.0705 -0.6832 -0.0186
   37BOLB   C2D  886   8.143  24.258  26.465  0.0249  0.1481  0.2260
   37BOLB   C3D  887   8.288  24.130  26.859 -0.1483 -0.1900 -0.4344
   37BOLB   C4D  888   8.601  23.787  26.983 -0.0486  0.1758  0.0460
   38BOLB   NC1  889   7.451  16.739  22.036 -0.0239 -0.2242 -0.0045
   38BOLB   PO1  890   7.185  16.590  22.314 -0.2593 -0.0284  0.1541
   38BOLB   GL1  891   6.773  16.495  22.394  0.1088 -0.0395 -0.1836
   38BOLB   GL2  892   6.747  16.221  22.386  0.1244  0.1058 -0.0846
   38BOLB   C1A  893   6.495  16.635  22.781 -0.1395 -0.0285 -0.0166
   38BOLB   C2A  894   6.360  17.070  22.924  0.0320 -0.0359  0.2486
   38BOLB   C3A  895   6.215  17.516  22.910  0.1229 -0.1812  0.3387
   38BOLB   C4A  896   5.829  17.622  23.123  0.0503  0.0611  0.1244
   38BOLB   C1B  897   6.448  16.338  22.023 -0.0831  0.2021 -0.2924
   38BOLB   C2B  898   6.083  16.485  22.165  0.1901 -0.2222  0.1295
   38BOLB   C3B  899   5.727  16.305  22.274  0.0770 -0.1879 -0.1756
   38BOLB   C4B  900   5.274  16.129  22.127  0.0962  0.3863  0.0542
   38BOLB   NC2  901   3.826  17.663  24.970  0.2871  0.0696 -0.2159
   38BOLB   PO2  902   4.091  17.779  24.659  0.1427 -0.1048 -0.0124
   38BOLB   GL3  903   4.442  17.685  24.368  0.0690 -0.1237  0.0678
   38BOLB   GL4  904   4.257  17.638  24.055  0.1864 -0.2154  0.2114
   38BOLB   C1C  905   4.713  17.877  24.051  0.0939  0.1509 -0.0284
   38BOLB   C2C  906   5.084  17.717  23.845  0.0542 -0.2496  0.0866
   38BOLB   C3C  907   5.413  17.466  23.735 -0.0906 -0.0704  0.0099
   38BOLB   C4C  908   5.614  17.419  23.450 -0.1722  0.0474 -0.1810
   38BOLB   C1D  909   4.616  17.401  23.916  0.1953  0.3676  0.0273
   38BOLB   C2D  910   4.852  17.312  23.636  0.3288 -0.5147  0.0252
   38BOLB   C3D  911   5.203  17.198  23.318  0.2111 -0.1506 -0.0273
   38BOLB   C4D  912   5.479  17.280  22.994  0.0018  0.1781  0.1004
   39BOLB   NC1  913   7.314  22.487  23.608 -0.5894 -0.0840 -0.0877
   39BOLB   PO1  914   7.758  22.397  23.755  0.1450  0.0685 -0.2937
   39BOLB   GL1  915   8.180  22.562  23.882  0.1552 -0.1970 -0.2079
   39BOLB   GL2  916   8.135  22.206  24.105  0.0847 -0.3637  0.3752
   39BOLB   C1A  917   8.349  22.734  24.217  0.1347  0.1484 -0.2494
   39BOLB   C2A  918   8.242  22.935  24.755  0.2919 -0.0466 -0.0305
   39BOLB   C3A  919   8.272  22.812  25.100  0.0429 -0.2855 -0.0355
   39BOLB   C4A  920   8.493  22.709  25.393  0.1425  0.2683 -0.1879
   39BOLB   C1B  921   7.998  21.935  24.425 -0.3124 -0.0040  0.1341
   39BOLB   C2B  922   8.210  21.655  24.690 -0.2068 -0.0465 -0.0539
   39BOLB   C3B  923   8.607  21.583  25.020 -0.1750 -0.0382  0.3714
   39BOLB   C4B  924   8.757  21.728  25.478 -0.0779 -0.1638 -0.3229
   39BOLB   NC2  925   7.612  24.258  27.524 -0.1254 -0.2227 -0.1016
   39BOLB   PO2  926   7.449  23.941  27.211 -0.0995  0.0576  0.1215
   39BOLB   GL3  927   7.781  23.760  27.014  0.0136  0.0928  0.1497
   39BOLB   GL4  928   7.753  23.292  27.107  0.1743 -0.0249 -0.0403
   39BOLB   C1C  929   8.023  23.695  26.618  0.3544  0.2723 -0.0734
   39BOLB   C2C  930   8.278  23.586  26.266 -0.1608  0.2086  0.0403
   39BOLB   C3C  931   8.525  23.368  26.006 -0.1675  0.1294  0.0238
   39BOLB   C4C  932   8.440  22.949  25.780  0.0651  0.3614 -0.0345
   39BOLB   C1D  933   8.115  23.220  26.834  0.1043 -0.0570 -0.2567
   39BOLB   C2D  934   8.493  23.284  26.642  0.2068 -0.3215  0.0619
   39BOLB   C3D  935   8.757  23.513  26.357 -0.1921 -0.1517  0.1212
   39BOLB   C4D  936   9.099  23.404  26.103 -0.0640 -0.0093  0.2554
   40BOLB   NC1  937   8.181  18.081  23.070  0.0024  0.0100 -0.0398
   40BOLB   PO1  938   7.979  18.323  23.315 -0.0840  0.1420  0.2346
   40BOLB   GL1  939   7.556  18.308  23.609 -0.0409  0.0642  0.0652
   40BOLB   GL2  940   7.368  18.544  23.757 -0.2048  0.0521 -0.1649
   40BOLB   C1A  941   7.259  17.942  23.688 -0.0432  0.1100  0.2141
   40BOLB   C2A  942   7.062  17.836  24.027  0.0008 -0.0894  0.0685
   40BOLB   C3A  943   6.630  17.750  24.331 -0.5391  0.0481  0.0775
   40BOLB   C4A  944   6.201  18.014  24.495  0.2004  0.0861  0.0520
   40BOLB   C1B  945   7.403  18.229  24.095  0.4077  0.1668 -0.0158
   40BOLB   C2B  946   7.083  18.174  24.361  0.3226 -0.1795 -0.1117
   40BOLB   C3B  947   7.120  17.996  24.742  0.4393 -0.2598 -0.1128
   40BOLB   C4B  948   6.942  17.763  25.100  0.0627  0.0914 -0.0964
   40BOLB   NC2  949   5.096  17.084  26.016 -0.2417 -0.0972  0.3307
   40BOLB   PO2  950   4.971  16.855  25.675 -0.0390 -0.1360  0.0945
   40BOLB   GL3  951   5.096  17.196  25.425  0.0673  0.1553  0.1613
   40BOLB   GL4  952   5.077  17.117  25.091  0.0434 -0.0051 -0.3658
   40BOLB   C1C  953   5.238  17.551  25.321  0.1553  0.1376  0.2307
   40BOLB   C2C  954   5.382  17.891  25.185 -0.0226 -0.4211 -0.3165
   40BOLB   C3C  955   5.601  18.274  24.931  0.1736  0.2139 -0.0776
   40BOLB   C4C  956   6.004  18.360  24.781 -0.0112 -0.0974 -0.0727
   40BOLB   C1D  957   5.342  17.149  24.810 -0.1236 -0.2247  0.2351
   40BOLB   C2D  958   5.405  17.107  24.354 -0.3652 -0.1704 -0.0607
   40BOLB   C3D  959   5.608  17.123  24.017 -0.0091 -0.2543  0.2872
   40BOLB   C4D  960   5.961  17.036  23.753 -0.0824 -0.0118  0.0957
   41BOLB   NC1  961   7.285  17.676  22.312 -0.2969  0.0521  0.6531
   41BOLB   PO1  962   7.473  17.681  22.674  0.1079 -0.1177 -0.2556
   41BOLB   GL1  963   7.050  17.664  22.811  0.0554 -0.1020 -0.1113
   41BOLB   GL2  964   6.897  17.525  22.527  0.1656  0.0895  0.4249
   41BOLB   C1A  965   6.648  17.864  22.811 -0.0840 -0.0536  0.0761
   41BOLB   C2A  966   6.495  17.761  23.238  0.2307 -0.0140  0.0309
   41BOLB   C3A  967   6.154  17.574  23.464  0.0353  0.2400  0.4274
   41BOLB   C4A  968   5.993  17.560  23.825 -0.0128 -0.1692  0.0632
   41BOLB   C1B  969   6.687  17.990  22.304 -0.1463 -0.0676  0.3814
   41BOLB   C2B  970   6.656  18.396  22.037  0.0667 -0.0643 -0.1018
   41BOLB   C3B  971   6.632  18.937  21.796 -0.0147  0.1274 -0.1632
   41BOLB   C4B  972   6.686  18.999  21.367  0.2857  0.4458 -0.1052
   41BOLB   NC2  973   4.515  17.839  25.469  0.2718 -0.0156  0.0558
   41BOLB   PO2  974   4.242  17.744  25.247 -0.0307  0.0496  0.2866
   41BOLB   GL3  975   4.530  17.815  24.869  0.1298 -0.1033  0.2442
   41BOLB   GL4  976   4.469  18.154  24.751 -0.1405  0.0420 -0.3579
   41BOLB   C1C  977   4.832  17.459  24.671  0.4913  0.0546 -0.1748
   41BOLB   C2C  978   5.018  17.461  24.338 -0.0788 -0.0859  0.2882
   41BOLB   C3C  979   5.446  17.672  24.242 -0.2415  0.1142  0.0505
   41BOLB   C4C  980   5.827  17.671  24.155  0.2960 -0.1340  0.2036
   41BOLB   C1D  981   4.825  18.024  24.502  0.0880 -0.0062 -0.2611
   41BOLB   C2D  982   5.266  17.927  24.612  0.0482  0.0652 -0.0311
   41BOLB   C3D  983   5.672  17.830  24.678 -0.0111  0.0029  0.3169
   41BOLB   C4D  984   6.030  17.825  24.968  0.0279  0.1956  0.0028
   42BOLB   NC1  985   9.093  18.918  24.376 -0.0931  0.1544 -0.2528
   42BOLB   PO1  986   8.851  18.689  24.178  0.1883  0.0435  0.0325
   42BOLB   GL1  987   8.931  18.485  24.530 -0.2028  0.1339 -0.0255
   42BOLB   GL2  988   8.623  18.302  24.444  0.1957  0.2826 -0.1435
   42BOLB   C1A  989   8.964  18.379  24.978  0.2778  0.0623  0.1369
   42BOLB   C2A  990   8.956  18.341  25.422  0.4678 -0.2318 -0.0544
   42BOLB   C3A  991   8.707  18.281  25.758 -0.1538 -0.2236  0.1708
   42BOLB   C4A  992   8.265  18.201  25.806  0.1060  0.2374  0.0283
   42BOLB   C1B  993   8.488  18.152  24.937 -0.2900  0.2721 -0.0411
   42BOLB   C2B  994   8.535  17.975  25.364 -0.3226 -0.3815  0.2831
   42BOLB   C3B  995   8.242  17.695  25.530 -0.1433  0.1099  0.1435
   42BOLB   C4B  996   8.106  17.319  25.456 -0.3308 -0.0668 -0.2326
   42BOLB   NC2  997   6.194  17.372  27.647 -0.1350  0.1379 -0.0498
   42BOLB   PO2  998   6.614  17.700  27.461 -0.1494 -0.2000  0.2579
   42BOLB   GL3  999   6.883  17.559  27.137  0.0458  0.2443  0.2421
   42BOLB   GL4 1000   6.789  17.250  26.921  0.1573  0.1808 -0.0503
   42BOLB   C1C 1001   7.185  17.610  26.946  0.1700  0.3741 -0.0381
   42BOLB   C2C 1002   7.491  17.634  26.662  0.0267 -0.3228  0.0393
   42BOLB   C3C 1003   7.833  17.806  26.366  0.1358 -0.1992 -0.4914
   42BOLB   C4C 1004   8.075  17.930  26.077  0.0355 -0.0140 -0.0096
   42BOLB   C1D 1005   7.210  17.167  26.592 -0.0963 -0.3311 -0.0358
   42BOLB   C2D 1006   7.332  17.145  26.224  0.1786  0.0619 -0.2237
   42BOLB   C3D 1007   7.088  17.315  25.844 -0.1106 -0.1788 -0.0878
   42BOLB   C4D 1008   7.258  17.585  25.586  0.2827 -0.2233 -0.3457
   43BOLB   NC1 1009   7.653  18.023  22.437 -0.2163 -0.0001  0.1623
   43BOLB   PO1 1010   7.315  18.173  22.139  0.0919  0.0012  0.0608
   43BOLB   GL1 1011   7.169  17.998  21.733  0.0799 -0.1153  0.2006
   43BOLB   GL2 1012   7.455  17.858  21.580 -0.2755 -0.1403  0.0689
   43BOLB   C1A 1013   6.966  17.786  21.415  0.2096 -0.1013 -0.1342
   43BOLB   C2A 1014   6.409  17.715  21.251  0.1614 -0.1081 -0.0972
   43BOLB   C3A 1015   6.016  17.832  20.882  0.0050 -0.0718  0.2061
   43BOLB   C4A 1016   5.726  17.890  20.580 -0.3406  0.3557 -0.3525
   43BOLB   C1B 1017   7.415  17.613  21.317 -0.2747 -0.0791 -0.0827
   43BOLB   C2B 1018   7.110  17.342  21.055  0.0147  0.1478 -0.1367
   43BOLB   C3B 1019   6.892  17.058  20.835  0.1030 -0.1582 -0.1697
   43BOLB   C4B 1020   6.955  16.562  20.915 -0.0656  0.0253  0.2135
   43BOLB   NC2 1021   3.469  16.544  21.574  0.1244 -0.0586 -0.0432
   43BOLB   PO2 1022   3.844  16.580  21.541 -0.2054 -0.0539 -0.2226
   43BOLB   GL3 1023   4.124  16.802  21.329 -0.1479 -0.2281 -0.0557
   43BOLB   GL4 1024   4.377  16.753  21.541 -0.0584  0.0446 -0.2180
   43BOLB   C1C 1025   4.286  16.956  20.882  0.0116 -0.0300 -0.1277
   43BOLB   C2C 1026   4.470  17.189  20.467  0.0424 -0.1735  0.2555
   43BOLB   C3C 1027   4.847  17.463  20.514 -0.0675  0.0145 -0.0301
   43BOLB   C4C 1028   5.298  17.728  20.486 -0.0485 -0.1566 -0.4269
   43BOLB   C1D 1029   4.792  16.609  21.600  0.2475 -0.0638  0.1163
   43BOLB   C2D 1030   5.225  16.590  21.388  0.2683  0.0332 -0.1012
   43BOLB   C3D 1031   5.397  16.681  21.067 -0.2997 -0.2285 -0.1662
   43BOLB   C4D 1032   5.593  16.994  20.943 -0.2641  0.0842 -0.1468
   44BOLB   NC1 1033   7.383  21.777  23.084 -0.2140  0.0004  0.0438
   44BOLB   PO1 1034   7.252  21.970  23.475 -0.0191  0.1201 -0.1834
   44BOLB   GL1 1035   7.382  21.613  23.736 -0.3755 -0.1546 -0.0305
   44BOLB   GL2 1036   7.572  21.369  23.828  0.3748 -0.0130  0.1566
   44BOLB   C1A 1037   7.313  21.682  24.193 -0.0502 -0.0329 -0.1300
   44BOLB   C2A 1038   7.583  21.740  24.459 -0.2853 -0.2499 -0.0090
   44BOLB   C3A 1039   7.740  21.721  24.918 -0.0634 -0.2652  0.5048
   44BOLB   C4A 1040   7.763  21.665  25.322  0.0109 -0.0194  0.0875
   44BOLB   C1B 1041   7.720  21.391  24.146  0.2253 -0.1940 -0.0542
   44BOLB   C2B 1042   7.824  21.317  24.611  0.2990  0.1146  0.1401
   44BOLB   C3B 1043   8.009  21.288  25.016  0.0949  0.4035 -0.0058
   44BOLB   C4B 1044   8.349  21.371  25.371  0.1468  0.1677 -0.1580
   44BOLB   NC2 1045   5.836  21.606  26.480  0.2855  0.1077 -0.2766
   44BOLB   PO2 1046   6.089  22.024  26.418  0.2544 -0.0714  0.0306
   44BOLB   GL3 1047   6.378  21.692  26.574  0.2749 -0.1278 -0.0131
   44BOLB   GL4 1048   6.215  21.390  26.264  0.2296 -0.2694 -0.1067
   44BOLB   C1C 1049   6.840  21.542  26.528  0.0679 -0.2308 -0.0456
   44BOLB   C2C 1050   7.262  21.461  26.496 -0.0301  0.1402 -0.1431
   44BOLB   C3C 1051   7.596  21.584  26.110  0.2093 -0.1529  0.1728
   44BOLB   C4C 1052   7.802  21.501  25.716 -0.0856  0.2512  0.0354
   44BOLB   C1D 1053   6.228  21.035  26.127 -0.1358 -0.3424 -0.0058
   44BOLB   C2D 1054   6.175  20.594  25.996  0.0672  0.3659  0.1901
   44BOLB   C3D 1055   6.136  20.238  25.794 -0.0965  0.2354 -0.0643
   44BOLB   C4D 1056   6.028  19.766  25.611  0.0926 -0.4121 -0.6297
   45BOLB   NC1 1057   7.424  15.555  22.630 -0.0754  0.3356 -0.1092
   45BOLB   PO1 1058   7.536  15.168  22.700  0.2324 -0.0903 -0.2063
   45BOLB   GL1 1059   7.661  14.986  23.030 -0.1281  0.0759 -0.2879
   45BOLB   GL2 1060   7.928  14.723  23.090 -0.0958  0.2006 -0.0741
   45BOLB   C1A 1061   7.589  14.836  23.479 -0.2469 -0.1763  0.0373
   45BOLB   C2A 1062   7.487  14.882  23.945 -0.1827  0.1383  0.2086
   45BOLB   C3A 1063   7.389  14.800  24.377  0.0014 -0.0431  0.0631
   45BOLB   C4A 1064   7.387  14.620  24.711 -0.0924  0.1248  0.3112
   45BOLB   C1B 1065   8.086  14.701  23.567  0.1745 -0.3956 -0.2694
   45BOLB   C2B 1066   7.717  14.481  23.783  0.0845 -0.2816  0.0742
   45BOLB   C3B 1067   7.604  14.360  24.180 -0.0014 -0.0648 -0.0097
   45BOLB   C4B 1068   7.147  14.328  24.236 -0.1618 -0.0040 -0.4069
   45BOLB   NC2 1069   7.113  13.456  26.718 -0.1436  0.1665  0.0008
   45BOLB   PO2 1070   7.329  13.787  26.899  0.0625 -0.2240 -0.2745
   45BOLB   GL3 1071   7.279  13.979  26.508  0.1875 -0.2448 -0.1875
   45BOLB   GL4 1072   7.302  14.226  26.424  0.0945 -0.2886  0.0268
   45BOLB   C1C 1073   7.172  13.818  26.088  0.2427 -0.0576 -0.4793
   45BOLB   C2C 1074   7.045  14.269  25.950 -0.2098  0.4046  0.0832
   45BOLB   C3C 1075   7.163  14.448  25.554  0.2696  0.0226  0.1387
   45BOLB   C4C 1076   7.311  14.483  25.123 -0.2030  0.3011  0.1957
   45BOLB   C1D 1077   7.539  14.222  26.043  0.0297 -0.0146 -0.0290
   45BOLB   C2D 1078   7.733  14.478  25.698  0.0325  0.2552 -0.0512
   45BOLB   C3D 1079   7.600  14.887  25.437  0.2466  0.0338 -0.1602
   45BOLB   C4D 1080   7.718  15.049  24.952 -0.1547 -0.1712  0.2382
   46BOLB   NC1 1081   4.617  20.051  25.441  0.3031 -0.0658 -0.0492
   46BOLB   PO1 1082   4.683  20.404  25.611 -0.0318  0.1563 -0.1098
   46BOLB   GL1 1083   5.095  20.412  25.304 -0.0365 -0.2362  0.4766
   46BOLB   GL2 1084   5.156  20.781  25.346 -0.0671 -0.0563 -0.0644
   46BOLB   C1A 1085   5.333  20.164  25.116  0.0306 -0.1876  0.1536
   46BOLB   C2A 1086   5.515  20.095  24.694  0.1387 -0.4102  0.3590
   46BOLB   C3A 1087   5.659  19.983  24.352  0.0747 -0.0727 -0.0900
   46BOLB   C4A 1088   5.894  19.660  24.148  0.0013  0.0157  0.1647
   46BOLB   C1B 1089   5.577  20.508  25.302 -0.0271 -0.3828 -0.1219
   46BOLB   C2B 1090   5.979  20.568  25.389 -0.1306  0.2585 -0.0521
   46BOLB   C3B 1091   6.290  20.672  25.498 -0.1546  0.0021  0.1345
   46BOLB   C4B 1092   6.515  20.918  25.787 -0.0755 -0.2941 -0.0936
   46BOLB   NC2 1093   4.322  19.372  25.670 -0.1249  0.1337 -0.0652
   46BOLB   PO2 1094   4.605  19.771  25.830 -0.1060 -0.2262 -0.2910
   46BOLB   GL3 1095   4.923  19.663  25.680  0.3240 -0.2002  0.0425
   46BOLB   GL4 1096   5.026  19.786  25.336  0.2399 -0.1457  0.0853
   46BOLB   C1C 1097   5.188  19.381  25.370 -0.2946  0.0896  0.2342
   46BOLB   C2C 1098   5.535  19.195  25.043  0.1307  0.0410  0.1571
   46BOLB   C3C 1099   5.912  19.264  24.790  0.3323 -0.3699 -0.0759
   46BOLB   C4C 1100   6.116  19.431  24.439  0.0928  0.1788  0.3342
   46BOLB   C1D 1101   5.069  19.509  24.963 -0.0151  0.3877  0.1571
   46BOLB   C2D 1102   5.100  19.001  24.894 -0.0966  0.1047  0.0224
   46BOLB   C3D 1103   5.241  18.615  24.894 -0.1826  0.1628  0.2828
   46BOLB   C4D 1104   5.065  18.243  24.981  0.0600  0.5466  0.1145
   47BOLB   NC1 1105   8.895  13.037  22.486  0.2265  0.0384 -0.1856
   47BOLB   PO1 1106   9.155  13.198  22.748 -0.5798 -0.4607 -0.1032
   47BOLB   GL1 1107   9.210  12.870  23.025  0.2782  0.2024  0.0870
   47BOLB   GL2 1108   9.197  12.857  23.340  0.0945  0.2387  0.0485
   47BOLB   C1A 1109   8.946  12.491  23.038  0.1818 -0.1041  0.0107
   47BOLB   C2A 1110   8.827  12.182  23.211  0.4183 -0.0186 -0.2781
   47BOLB   C3A 1111   8.671  12.180  23.657  0.0698  0.0364  0.1000
   47BOLB   C4A 1112   8.371  12.112  24.093  0.3725  0.3291  0.1349
   47BOLB   C1B 1113   8.828  12.761  23.466  0.1152  0.0706 -0.1030
   47BOLB   C2B 1114   8.486  12.584  23.371  0.0910  0.3462 -0.2069
   47BOLB   C3B 1115   8.118  12.484  23.727 -0.1546 -0.4542  0.0293
   47BOLB   C4B 1116   7.878  12.203  23.890 -0.1227  0.2529  0.1175
   47BOLB   NC2 1117   6.713  11.358  26.296  0.0159 -0.0627 -0.0260
   47BOLB   PO2 1118   7.161  11.536  26.265  0.1716 -0.0789  0.1656
   47BOLB   GL3 1119   7.513  11.623  25.946 -0.2033  0.2819  0.1367
   47BOLB   GL4 1120   7.585  11.815  26.091  0.1356 -0.1374  0.1789
   47BOLB   C1C 1121   7.674  11.704  25.504 -0.4406  0.0925  0.0525
   47BOLB   C2C 1122   8.022  11.785  25.257 -0.0283 -0.1561  0.0011
   47BOLB   C3C 1123   8.194  11.857  24.847  0.0977  0.1453  0.2054
   47BOLB   C4C 1124   8.515  12.086  24.570 -0.1514  0.3200 -0.0594
   47BOLB   C1D 1125   7.990  12.039  25.890 -0.0611 -0.2198  0.0684
   47BOLB   C2D 1126   8.399  11.905  25.718  0.0137  0.2426 -0.0952
   47BOLB   C3D 1127   8.765  11.846  25.376  0.1600 -0.2921 -0.1391
   47BOLB   C4D 1128   8.929  11.471  25.155 -0.2105  0.3913 -0.0789
   48BOLB   NC1 1129   6.091  22.019  23.877  0.1015 -0.0136  0.0663
   48BOLB   PO1 1130   5.965  21.652  23.988  0.2367  0.0840  0.0308
   48BOLB   GL1 1131   6.310  21.396  24.272  0.0381  0.1163  0.0343
   48BOLB   GL2 1132   6.704  21.550  24.170 -0.4242  0.1069  0.1314
   48BOLB   C1A 1133   6.657  21.181  24.512  0.0977 -0.0141  0.2849
   48BOLB   C2A 1134   6.964  20.870  24.725  0.3727  0.1688  0.1283
   48BOLB   C3A 1135   7.035  20.501  24.928 -0.1776  0.2977  0.2911
   48BOLB   C4A 1136   6.975  20.275  25.232  0.0372  0.0251 -0.4748
   48BOLB   C1B 1137   6.866  21.661  24.472  0.0670 -0.1133 -0.2595
   48BOLB   C2B 1138   7.186  21.577  24.795  0.1109  0.4233  0.1018
   48BOLB   C3B 1139   7.192  21.399  25.233  0.1684 -0.2127  0.2859
   48BOLB   C4B 1140   7.559  21.100  25.519 -0.0330 -0.3730 -0.1725
   48BOLB   NC2 1141   6.636  21.127  27.833  0.2341  0.1836 -0.4093
   48BOLB   PO2 1142   6.507  21.023  27.435  0.1962  0.3512 -0.4262
   48BOLB   GL3 1143   6.847  20.765  27.122 -0.2478  0.4054 -0.0994
   48BOLB   GL4 1144   6.981  20.504  27.148  0.2430 -0.0534 -0.2681
   48BOLB   C1C 1145   6.759  20.648  26.718  0.1450 -0.0299  0.0461
   48BOLB   C2C 1146   6.979  20.335  26.492  0.0145  0.5048 -0.1149
   48BOLB   C3C 1147   7.008  20.186  26.109 -0.1503  0.0536 -0.0341
   48BOLB   C4C 1148   7.121  20.111  25.761 -0.0318 -0.0301  0.3281
   48BOLB   C1D 1149   7.278  20.512  26.845 -0.1475  0.1243  0.2869
   48BOLB   C2D 1150   7.688  20.572  26.653 -0.1195  0.1106  0.1718
   48BOLB   C3D 1151   8.022  20.588  26.454  0.1157  0.0663 -0.2663
   48BOLB   C4D 1152   8.252  20.857  26.260 -0.2881  0.2782 -0.0772
   49BOLB   NC1 1153   4.826  21.501  22.653  0.3632 -0.1989 -0.1315
   49BOLB   PO1 1154   5.083  21.066  22.539  0.3219  0.2934 -0.0842
   49BOLB   GL1 1155   5.232  20.619  22.690 -0.0345 -0.0744 -0.0937
   49BOLB   GL2 1156   5.579  20.643  22.929 -0.1173 -0.2812 -0.0264
   49BOLB   C1A 1157   5.409  20.245  22.423  0.0222 -0.0314  0.0451
   49BOLB   C2A 1158   5.381  20.174  21.969  0.1733  0.1510  0.1492
   49BOLB   C3A 1159   5.371  19.927  21.659 -0.1404  0.1152  0.1525
   49BOLB   C4A 1160   5.466  19.568  21.535  0.0277 -0.0550  0.3503
   49BOLB   C1B 1161   5.445  20.391  23.266  0.0057  0.2032 -0.1303
   49BOLB   C2B 1162   5.278  20.227  23.662  0.2760  0.1117 -0.0637
   49BOLB   C3B 1163   5.161  19.943  23.990  0.0667 -0.1560 -0.0809
   49BOLB   C4B 1164   5.089  19.623  23.811  0.1425 -0.4678  0.0645
   49BOLB   NC2 1165   2.936  18.928  21.978  0.0115 -0.0317 -0.0581
   49BOLB   PO2 1166   3.278  18.908  22.143  0.1484  0.0625  0.0165
   49BOLB   GL3 1167   3.691  19.117  21.951 -0.3522  0.1009 -0.1967
   49BOLB   GL4 1168   3.934  19.369  22.107 -0.0431 -0.0738 -0.0675
   49BOLB   C1C 1169   4.122  18.992  21.819 -0.0754  0.0283 -0.1850
   49BOLB   C2C 1170   4.566  18.838  21.694 -0.3220 -0.0336 -0.1396
   49BOLB   C3C 1171   4.927  18.930  21.643 -0.0425 -0.1665 -0.0406
   49BOLB   C4C 1172   5.338  19.197  21.530 -0.1634 -0.0901  0.0894
   49BOLB   C1D 1173   4.351  19.621  22.116  0.2023 -0.0091  0.3241
   49BOLB   C2D 1174   4.724  19.544  22.299  0.0279  0.0083 -0.2990
   49BOLB   C3D 1175   5.013  19.283  22.326 -0.0988 -0.0721  0.0092
   49BOLB   C4D 1176   5.197  19.217  21.980 -0.0751 -0.0770  0.1388
   50BOLB   NC1 1177   7.338  24.635  24.058 -0.1531 -0.1831 -0.0916
   50BOLB   PO1 1178   7.098  24.263  24.194  0.1994  0.2988 -0.1816
   50BOLB   GL1 1179   7.578  24.194  24.245  0.3581  0.1697  0.0498
   50BOLB   GL2 1180   7.832  24.370  24.404 -0.0176  0.0564  0.2380
   50BOLB   C1A 1181   7.780  23.962  24.605 -0.2531  0.1747  0.0113
   50BOLB   C2A 1182   8.024  23.969  24.899 -0.0208  0.3728  0.2525
   50BOLB   C3A 1183   8.356  23.829  25.195 -0.0284 -0.6001 -0.1337
   50BOLB   C4A 1184   8.327  24.083  25.580  0.0257 -0.2832 -0.0623
   50BOLB   C1B 1185   8.132  24.336  24.622 -0.0463  0.1036  0.1027
   50BOLB   C2B 1186   8.529  24.135  24.789 -0.2115  0.1337  0.1399
   50BOLB   C3B 1187   8.921  23.901  25.022 -0.0963  0.2096  0.1998
   50BOLB   C4B 1188   9.156  23.588  25.202  0.0276 -0.0853 -0.0518
   50BOLB   NC2 1189   8.967  25.756  26.730 -0.4643 -0.1595 -0.0106
   50BOLB   PO2 1190   8.621  25.452  26.853  0.0146 -0.0849  0.1087
   50BOLB   GL3 1191   8.760  25.233  26.587 -0.0751 -0.1241  0.2679
   50BOLB   GL4 1192   8.817  25.423  26.332 -0.0319 -0.0219 -0.1703
   50BOLB   C1C 1193   8.805  24.833  26.481  0.2524  0.1373 -0.1351
   50BOLB   C2C 1194   8.660  24.360  26.584 -0.1055  0.0116  0.3637
   50BOLB   C3C 1195   8.564  23.962  26.438 -0.2867 -0.0901  0.4804
   50BOLB   C4C 1196   8.499  23.889  25.982  0.2101 -0.0080  0.1337
   50BOLB   C1D 1197   8.620  25.117  26.137 -0.1666 -0.2082 -0.2599
   50BOLB   C2D 1198   8.635  25.073  25.596  0.0492  0.0367 -0.0659
   50BOLB   C3D 1199   8.470  25.265  25.271  0.3530 -0.2262 -0.0175
   50BOLB   C4D 1200   8.771  25.319  24.861 -0.0456  0.3018 -0.3915
   51BOLB   NC1 1201   5.329  13.880  22.384  0.1576  0.2333  0.0249
   51BOLB   PO1 1202   5.744  13.762  22.382  0.1021 -0.1928 -0.0004
   51BOLB   GL1 1203   6.043  13.488  22.421 -0.0614  0.3886  0.2818
   51BOLB   GL2 1204   6.278  13.403  22.242  0.2179  0.1749  0.0708
   51BOLB   C1A 1205   6.337  13.621  22.738  0.0494  0.0503 -0.0058
   51BOLB   C2A 1206   6.359  13.699  23.124 -0.0718 -0.1071  0.4255
   51BOLB   C3A 1207   6.546  13.563  23.432 -0.0817  0.0429  0.1528
   51BOLB   C4A 1208   6.401  13.380  23.859  0.0125  0.3421 -0.3692
   51BOLB   C1B 1209   6.775  13.253  22.069  0.1379 -0.0885  0.0417
   51BOLB   C2B 1210   7.188  13.185  21.948 -0.2813  0.0886  0.1548
   51BOLB   C3B 1211   7.493  13.136  22.217 -0.1388  0.3549 -0.1616
   51BOLB   C4B 1212   7.805  12.818  22.161 -0.2072 -0.1818 -0.2173
   51BOLB   NC2 1213   5.118  14.337  26.115 -0.3113  0.0313  0.0995
   51BOLB   PO2 1214   5.053  14.285  25.722 -0.4917 -0.0236 -0.2937
   51BOLB   GL3 1215   5.290  14.235  25.346 -0.2787 -0.0968  0.1943
   51BOLB   GL4 1216   5.384  14.512  25.219 -0.0273 -0.2711 -0.2435
   51BOLB   C1C 1217   5.431  13.828  25.080 -0.0974 -0.2183  0.1308
   51BOLB   C2C 1218   5.607  13.540  24.786 -0.0633  0.0559  0.0523
   51BOLB   C3C 1219   6.049  13.423  24.651  0.4271 -0.1173 -0.0937
   51BOLB   C4C 1220   6.280  13.324  24.241  0.0589  0.0316  0.0947
   51BOLB   C1D 1221   5.650  14.752  25.252 -0.3164  0.1947 -0.3941
   51BOLB   C2D 1222   5.738  15.135  25.446  0.2758  0.1137 -0.0505
   51BOLB   C3D 1223   5.944  15.475  25.193 -0.3842 -0.2032 -0.2781
   51BOLB   C4D 1224   6.068  15.501  24.762 -0.0353 -0.4954  0.1451
   52BOLB   NC1 1225   8.321  19.415  23.898 -0.0115  0.2104  0.1969
   52BOLB   PO1 1226   8.262  19.816  23.833 -0.1599  0.0990 -0.0762
   52BOLB   GL1 1227   8.146  19.706  24.277  0.2872 -0.0345  0.4000
   52BOLB   GL2 1228   8.265  19.382  24.419  0.1325  0.1826 -0.2021
   52BOLB   C1A 1229   7.831  19.662  24.580 -0.0318 -0.2956 -0.1052
   52BOLB   C2A 1230   7.620  19.766  24.898  0.3268  0.1466 -0.4345
   52BOLB   C3A 1231   7.324  19.499  24.971  0.0363  0.0299 -0.0700
   52BOLB   C4A 1232   7.028  19.427  25.256  0.2107 -0.0017  0.0536
   52BOLB   C1B 1233   8.051  19.039  24.593 -0.3807  0.1545  0.0785
   52BOLB   C2B 1234   7.791  19.185  24.973 -0.0373 -0.0985  0.1247
   52BOLB   C3B 1235   7.691  19.499  25.330  0.3533  0.0350  0.2038
   52BOLB   C4B 1236   7.343  19.465  25.698 -0.0780  0.0617  0.1145
   52BOLB   NC2 1237   5.311  20.170  27.147 -0.0708  0.0724 -0.2868
   52BOLB   PO2 1238   5.707  20.038  27.129 -0.0359 -0.0295  0.0842
   52BOLB   GL3 1239   6.099  19.759  26.991  0.0429 -0.2044  0.2242
   52BOLB   GL4 1240   5.887  19.433  26.881 -0.1799  0.1520  0.0601
   52BOLB   C1C 1241   6.351  19.617  26.713 -0.1125  0.1044 -0.0780
   52BOLB   C2C 1242   6.547  19.313  26.478 -0.3014  0.1339  0.0803
   52BOLB   C3C 1243   6.602  19.171  26.065  0.0192  0.2211 -0.1188
   52BOLB   C4C 1244   6.854  19.290  25.691  0.1204  0.1989  0.1769
   52BOLB   C1D 1245   5.988  19.350  26.458  0.0781 -0.0934 -0.0368
   52BOLB   C2D 1246   6.038  19.096  26.196 -0.0974 -0.0509 -0.0695
   52BOLB   C3D 1247   6.178  19.196  25.786  0.2426 -0.1896 -0.1281
   52BOLB   C4D 1248   6.374  19.445  25.498 -0.1226 -0.3969 -0.1637
   53BOLB   NC1 1249   4.392  14.578  20.806 -0.2074 -0.1048  0.0139
   53BOLB   PO1 1250   4.721  14.201  20.810  0.3914  0.1274 -0.1843
   53BOLB   GL1 1251   5.056  14.495  20.834 -0.0181  0.0761  0.0904
   53BOLB   GL2 1252   5.440  14.477  20.981  0.0075  0.0475 -0.1783
   53BOLB   C1A 1253   5.230  14.836  20.763 -0.2579  0.0262  0.0068
   53BOLB   C2A 1254   5.481  15.224  20.944 -0.3480  0.0291  0.1203
   53BOLB   C3A 1255   5.495  15.651  20.838  0.1608 -0.2281 -0.1671
   53BOLB   C4A 1256   5.301  16.071  20.895  0.0066 -0.1169 -0.1726
   53BOLB   C1B 1257   5.541  14.780  21.252 -0.1029 -0.0396 -0.2545
   53BOLB   C2B 1258   5.489  15.232  21.538  0.1347  0.0304 -0.3646
   53BOLB   C3B 1259   5.550  15.446  21.897 -0.0150  0.0761 -0.0532
   53BOLB   C4B 1260   5.708  15.562  22.232 -0.2543  0.0073  0.3756
   53BOLB   NC2 1261   3.642  17.354  21.842 -0.2849  0.3950 -0.0063
   53BOLB   PO2 1262   3.589  17.008  21.542 -0.0179 -0.3641 -0.1548
   53BOLB   GL3 1263   3.882  17.277  21.321 -0.0134 -0.1638  0.1629
   53BOLB   GL4 1264   3.810  17.328  20.921 -0.4222 -0.0963 -0.4002
   53BOLB   C1C 1265   4.236  17.326  21.291 -0.3308  0.2129  0.1096
   53BOLB   C2C 1266   4.560  17.082  21.262 -0.2095  0.0167  0.1340
   53BOLB   C3C 1267   4.671  16.683  21.103  0.0217  0.0185 -0.0677
   53BOLB   C4C 1268   5.008  16.415  20.983 -0.2721 -0.2197  0.0014
   53BOLB   C1D 1269   4.019  17.272  20.488  0.0323  0.0491 -0.0529
   53BOLB   C2D 1270   3.811  16.894  20.217  0.0675 -0.1085  0.0019
   53BOLB   C3D 1271   3.794  16.682  19.877 -0.3254 -0.1340  0.2306
   53BOLB   C4D 1272   3.925  16.510  19.565  0.3790  0.1303 -0.1126
   54BOLB   NC1 1273   8.767  15.167  23.010 -0.3418  0.0044  0.0545
   54BOLB   PO1 1274   8.430  15.549  23.102 -0.0785 -0.0238 -0.0782
   54BOLB   GL1 1275   8.254  15.691  23.516  0.4496 -0.3012 -0.1143
   54BOLB   GL2 1276   8.521  15.865  23.630 -0.0320  0.1143  0.0292
   54BOLB   C1A 1277   8.076  15.675  23.796  0.2279 -0.1426  0.2036
   54BOLB   C2A 1278   7.999  15.699  24.274  0.1248  0.4928  0.1075
   54BOLB   C3A 1279   7.928  15.970  24.566  0.1487 -0.0979 -0.0440
   54BOLB   C4A 1280   7.751  16.060  24.989 -0.3524  0.1432 -0.0097
   54BOLB   C1B 1281   8.507  16.065  23.985  0.1295  0.1397  0.0829
   54BOLB   C2B 1282   8.224  16.259  24.276 -0.0029 -0.0361 -0.0444
   54BOLB   C3B 1283   8.011  16.483  24.615  0.1849  0.3292 -0.0076
   54BOLB   C4B 1284   7.964  16.465  25.047 -0.3620  0.0509 -0.1529
   54BOLB   NC2 1285   6.140  15.906  26.959 -0.1481  0.0980  0.1254
   54BOLB   PO2 1286   6.464  15.833  27.280 -0.0126 -0.1306  0.2861
   54BOLB   GL3 1287   6.676  15.815  26.844  0.3047 -0.0508 -0.0289
   54BOLB   GL4 1288   6.426  15.516  26.855 -0.0378  0.2137  0.0552
   54BOLB   C1C 1289   6.726  16.046  26.355 -0.1808  0.3566  0.2667
   54BOLB   C2C 1290   6.737  15.970  25.864  0.0566  0.0834 -0.0848
   54BOLB   C3C 1291   6.999  15.869  25.422 -0.4012  0.0035  0.2029
   54BOLB   C4C 1292   7.403  15.938  25.319 -0.1958  0.1477  0.1764
   54BOLB   C1D 1293   6.542  15.465  26.439  0.0779 -0.3994  0.1112
   54BOLB   C2D 1294   6.803  15.506  26.042 -0.2115  0.1941 -0.4674
   54BOLB   C3D 1295   7.166  15.502  25.738 -0.0886 -0.0741 -0.3668
   54BOLB   C4D 1296   7.352  15.401  25.341  0.3743  0.3334  0.0325
   55BOLB   NC1 1297   5.732  12.396  21.372 -0.1970  0.1043 -0.1242
   55BOLB   PO1 1298   5.734  12.406  20.975  0.0876 -0.1036  0.0581
   55BOLB   GL1 1299   5.968  12.621  20.726  0.1791 -0.0139 -0.0663
   55BOLB   GL2 1300   5.925  12.922  20.950  0.0769 -0.1101  0.3219
   55BOLB   C1A 1301   6.359  12.648  20.802 -0.3092 -0.1775 -0.1407
   55BOLB   C2A 1302   6.664  12.517  21.166  0.1968 -0.2649  0.0324
   55BOLB   C3A 1303   7.019  12.571  21.476 -0.0612 -0.0865 -0.1156
   55BOLB   C4A 1304   7.203  12.597  21.757 -0.1064  0.2197 -0.1510
   55BOLB   C1B 1305   6.199  13.090  20.661  0.1928  0.1566 -0.0189
   55BOLB   C2B 1306   6.458  13.429  20.712 -0.0349  0.0259 -0.1076
   55BOLB   C3B 1307   6.492  13.841  20.793 -0.2106  0.0926 -0.3609
   55BOLB   C4B 1308   6.482  14.213  21.003  0.0653  0.0289 -0.1000
   55BOLB   NC2 1309   6.940  10.468  22.470  0.1745  0.1178 -0.2087
   55BOLB   PO2 1310   7.195  10.636  22.176 -0.1772 -0.1529 -0.0416
   55BOLB   GL3 1311   7.301  11.033  22.036  0.1934 -0.2016  0.1065
   55BOLB   GL4 1312   7.353  11.095  21.707  0.6060 -0.1263 -0.0588
   55BOLB   C1C 1313   7.654  11.399  22.068 -0.2179  0.1533  0.1332
   55BOLB   C2C 1314   7.753  11.818  22.022 -0.1849 -0.2235  0.2388
   55BOLB   C3C 1315   7.801  12.139  21.785 -0.0543 -0.0153  0.1856
   55BOLB   C4C 1316   7.611  12.469  21.788  0.2324 -0.1335 -0.4849
   55BOLB   C1D 1317   7.715  11.193  21.457  0.3513  0.0199 -0.0014
   55BOLB   C2D 1318   8.174  11.298  21.251 -0.3024 -0.3976 -0.0580
   55BOLB   C3D 1319   8.454  11.575  20.991 -0.2111  0.3226 -0.0037
   55BOLB   C4D 1320   8.459  11.965  20.610 -0.0036  0.1387  0.0330
   56BOLB   NC1 1321   7.626  18.648  23.179  0.0466  0.0375 -0.2451
   56BOLB   PO1 1322   7.403  18.957  22.830 -0.1071  0.0394 -0.2038
   56BOLB   GL1 1323   7.044  18.880  23.022 -0.0219 -0.0736  0.0211
   56BOLB   GL2 1324   6.861  18.680  22.808 -0.0097  0.0478 -0.0153
   56BOLB   C1A 1325   6.693  18.782  23.265  0.1807 -0.0730  0.0272
   56BOLB   C2A 1326   6.341  18.544  23.487  0.3008  0.1278 -0.0464
   56BOLB   C3A 1327   6.216  18.125  23.539 -0.3382  0.0353 -0.1542
   56BOLB   C4A 1328   5.863  17.949  23.517 -0.0634 -0.3301  0.0561
   56BOLB   C1B 1329   6.753  18.348  23.037 -0.2365 -0.1174 -0.0676
   56BOLB   C2B 1330   6.716  18.190  23.447  0.0657 -0.0666  0.2662
   56BOLB   C3B 1331   6.732  18.194  23.887 -0.0931  0.2504  0.2878
   56BOLB   C4B 1332   6.576  18.277  24.299 -0.5429 -0.2191  0.0268
   56BOLB   NC2 1333   3.832  18.875  24.914  0.2863  0.2276 -0.0279
   56BOLB   PO2 1334   3.948  18.568  24.587  0.3511  0.2236 -0.1474
   56BOLB   GL3 1335   4.336  18.657  24.672 -0.1660 -0.1318 -0.0826
   56BOLB   GL4 1336   4.303  18.610  24.983 -0.0696 -0.1131 -0.1392
   56BOLB   C1C 1337   4.631  18.570  24.544 -0.2944  0.0908  0.3252
   56BOLB   C2C 1338   4.895  18.422  24.233 -0.0195 -0.1418  0.0646
   56BOLB   C3C 1339   5.219  18.262  24.049 -0.3938 -0.2793 -0.1468
   56BOLB   C4C 1340   5.516  17.973  23.826  0.1302 -0.2628 -0.1101
   56BOLB   C1D 1341   4.711  18.595  25.052 -0.2110  0.1957 -0.1681
   56BOLB   C2D 1342   5.081  18.834  25.332 -0.3190 -0.0239  0.0155
   56BOLB   C3D 1343   5.348  18.892  25.650  0.0272 -0.0123  0.0171
   56BOLB   C4D 1344   5.686  18.781  25.909  0.2791  0.2318  0.0576
   57BOLB   NC1 1345   6.374  24.366  25.848  0.1000 -0.0185  0.0906
   57BOLB   PO1 1346   6.316  24.158  25.387  0.2991 -0.2609 -0.3309
   57BOLB   GL1 1347   6.748  24.016  25.375  0.3408 -0.1190 -0.0186
   57BOLB   GL2 1348   6.989  24.289  25.192  0.0355  0.0888  0.0186
   57BOLB   C1A 1349   7.034  23.722  25.490 -0.0838 -0.0259 -0.0371
   57BOLB   C2A 1350   6.788  23.386  25.620  0.1336 -0.0882  0.3650
   57BOLB   C3A 1351   6.619  23.042  25.470  0.0185 -0.1466 -0.0539
   57BOLB   C4A 1352   6.395  22.631  25.542 -0.0022  0.2021 -0.1346
   57BOLB   C1B 1353   7.324  24.155  25.512 -0.3308  0.0116  0.0507
   57BOLB   C2B 1354   7.720  24.226  25.732 -0.2726 -0.1978  0.2366
   57BOLB   C3B 1355   8.026  24.651  25.733  0.1143  0.0757 -0.2006
   57BOLB   C4B 1356   8.202  25.063  25.751 -0.1858  0.1813 -0.0660
   57BOLB   NC2 1357   6.046  21.277  27.284 -0.0615 -0.1125 -0.5199
   57BOLB   PO2 1358   6.084  21.307  26.762 -0.0638 -0.0125 -0.3549
   57BOLB   GL3 1359   6.542  21.145  26.585 -0.1341 -0.0816  0.1265
   57BOLB   GL4 1360   6.752  21.177  26.823 -0.1111 -0.2308 -0.2075
   57BOLB   C1C 1361   6.774  21.292  26.122 -0.0390 -0.1232  0.1449
   57BOLB   C2C 1362   7.097  21.627  26.087  0.2289 -0.0672  0.0639
   57BOLB   C3C 1363   7.040  22.109  25.957  0.0131 -0.0313  0.1189
   57BOLB   C4C 1364   6.644  22.306  25.868  0.0252  0.1345  0.0523
   57BOLB   C1D 1365   7.085  21.021  26.604  0.1132  0.0525  0.0939
   57BOLB   C2D 1366   7.360  20.877  26.324  0.1640 -0.4228  0.1225
   57BOLB   C3D 1367   7.591  20.831  25.965  0.0334 -0.0780  0.0871
   57BOLB   C4D 1368   7.938  20.592  25.963  0.2011 -0.2431 -0.0907
   58BOLB   NC1 1369   6.844  21.945  23.788 -0.1097 -0.2743  0.5188
   58BOLB   PO1 1370   6.510  22.162  24.029 -0.2251  0.1850  0.0439
   58BOLB   GL1 1371   6.352  21.889  24.310  0.1860 -0.2710  0.0577
   58BOLB   GL2 1372   6.037  21.883  24.495  0.1450 -0.2179  0.1166
   58BOLB   C1A 1373   6.432  21.756  24.777  0.1408  0.0359 -0.0901
   58BOLB   C2A 1374   6.708  21.341  24.982 -0.0366  0.2810  0.1325
   58BOLB   C3A 1375   6.906  20.965  25.227 -0.1120 -0.2115 -0.3357
   58BOLB   C4A 1376   6.742  20.623  25.477 -0.0063  0.0848 -0.3587
   58BOLB   C1B 1377   5.989  21.519  24.679 -0.1205  0.4072 -0.1570
   58BOLB   C2B 1378   6.185  21.124  24.767  0.2314 -0.1731  0.0347
   58BOLB   C3B 1379   6.045  20.751  24.921 -0.0222 -0.0614 -0.3796
   58BOLB   C4B 1380   6.089  20.275  24.852  0.1685 -0.2297  0.2471
   58BOLB   NC2 1381   4.798  20.122  26.113  0.0550 -0.2004  0.1660
   58BOLB   PO2 1382   5.161  20.166  26.208  0.1730  0.1546  0.0696
   58BOLB   GL3 1383   5.482  19.874  26.095  0.1114 -0.1923  0.1146
   58BOLB   GL4 1384   5.367  19.649  25.981 -0.2749  0.0455  0.1685
   58BOLB   C1C 1385   5.871  19.690  26.047 -0.1303  0.2175  0.1565
   58BOLB   C2C 1386   6.301  19.592  26.067 -0.2991  0.1874  0.0071
   58BOLB   C3C 1387   6.448  19.899  25.817 -0.2401  0.0319 -0.3202
   58BOLB   C4C 1388   6.650  20.209  25.659 -0.0028 -0.1478  0.0910
   58BOLB   C1D 1389   5.516  19.672  25.524 -0.1459 -0.1639  0.0936
   58BOLB   C2D 1390   5.588  19.696  25.048 -0.1520  0.2564  0.1937
   58BOLB   C3D 1391   5.495  19.609  24.704 -0.1462 -0.0882  0.1535
   58BOLB   C4D 1392   5.344  19.583  24.295 -0.1975  0.2648 -0.1257
   59BOLB   NC1 1393   6.824  23.890  24.260  0.0542 -0.3232  0.1741
   59BOLB   PO1 1394   6.669  24.408  24.485  0.0931  0.0301  0.0420
   59BOLB   GL1 1395   6.941  24.107  24.698 -0.1887 -0.3037 -0.2297
   59BOLB   GL2 1396   7.304  24.256  24.663  0.1414  0.1812 -0.2123
   59BOLB   C1A 1397   7.087  23.684  24.979 -0.2213 -0.0763  0.3546
   59BOLB   C2A 1398   7.143  23.265  24.878  0.0947 -0.0636  0.0578
   59BOLB   C3A 1399   7.397  23.013  24.928  0.0335 -0.0611  0.1157
   59BOLB   C4A 1400   7.742  22.973  25.151  0.0567  0.2746 -0.0526
   59BOLB   C1B 1401   7.497  24.021  25.052 -0.2015  0.1416  0.0589
   59BOLB   C2B 1402   7.880  23.915  25.351 -0.2093 -0.0092  0.1259
   59BOLB   C3B 1403   8.177  23.635  25.683  0.0928 -0.0733  0.0314
   59BOLB   C4B 1404   8.353  23.311  25.470  0.2979 -0.4597  0.1784
   59BOLB   NC2 1405   7.872  22.625  27.829  0.1080 -0.0502 -0.1314
   59BOLB   PO2 1406   7.440  22.635  27.622 -0.3849 -0.0395  0.1556
   59BOLB   GL3 1407   7.805  22.759  27.310  0.0379  0.3268  0.1198
   59BOLB   GL4 1408   8.085  22.482  27.366 -0.1179 -0.0980 -0.0974
   59BOLB   C1C 1409   7.979  22.736  26.890  0.0015  0.3891  0.1627
   59BOLB   C2C 1410   7.974  22.819  26.493 -0.1051 -0.5143  0.2313
   59BOLB   C3C 1411   7.913  22.934  25.992 -0.0130  0.0188 -0.0447
   59BOLB   C4C 1412   7.937  22.866  25.534 -0.0389 -0.2361 -0.2476
   59BOLB   C1D 1413   8.343  22.410  26.949  0.4633 -0.3395  0.0211
   59BOLB   C2D 1414   8.611  22.084  26.836 -0.1122  0.0755 -0.0327
   59BOLB   C3D 1415   8.584  21.805  26.504 -0.0868  0.2984 -0.0199
   59BOLB   C4D 1416   8.699  21.606  26.171  0.0528  0.2183  0.1678
   60BOLB   NC1 1417  11.030  12.069  22.695  0.0768  0.0541  0.0936
   60BOLB   PO1 1418  10.928  11.690  22.648 -0.5542 -0.1746  0.1524
   60BOLB   GL1 1419  10.527  11.741  22.486  0.1168  0.2122  0.2134
   60BOLB   GL2 1420  10.375  11.992  22.316 -0.1373  0.0021  0.0079
   60BOLB   C1A 1421  10.119  11.549  22.617 -0.0423  0.2276 -0.2666
   60BOLB   C2A 1422   9.950  11.487  23.006  0.2127  0.0064 -0.1251
   60BOLB   C3A 1423   9.518  11.514  23.048  0.0928 -0.1762  0.0488
   60BOLB   C4A 1424   9.049  11.371  23.225  0.0019 -0.0027 -0.4048
   60BOLB   C1B 1425   9.998  11.726  22.143  0.1922 -0.1657  0.0898
   60BOLB   C2B 1426   9.603  11.802  21.894  0.1943 -0.1639 -0.2651
   60BOLB   C3B 1427   9.457  12.229  21.696  0.3947  0.3032  0.2519
   60BOLB   C4B 1428   9.280  12.210  21.274  0.0982 -0.0588  0.0514
   60BOLB   NC2 1429   7.021  10.720  25.007  0.0685  0.2341 -0.1664
   60BOLB   PO2 1430   7.442  10.496  25.178 -0.2729  0.0866  0.3216
   60BOLB   GL3 1431   7.657  10.628  24.803  0.0797  0.4164  0.0301
   60BOLB   GL4 1432   7.709  10.339  24.573 -0.1728  0.0979 -0.0440
   60BOLB   C1C 1433   7.995  10.894  24.629 -0.1199  0.0084 -0.1051
   60BOLB   C2C 1434   8.440  10.836  24.425  0.0346  0.2580  0.1062
   60BOLB   C3C 1435   8.627  10.840  23.957  0.2226  0.0655  0.1388
   60BOLB   C4C 1436   8.852  11.201  23.591  0.1002 -0.0341 -0.0977
   60BOLB   C1D 1437   8.123  10.384  24.667  0.1842 -0.1257 -0.3903
   60BOLB   C2D 1438   8.457  10.596  24.860  0.0588 -0.1634  0.1165
   60BOLB   C3D 1439   8.826  10.572  25.203 -0.0937  0.0629 -0.2064
   60BOLB   C4D 1440   9.123  10.613  25.439  0.1925 -0.1238 -0.2161
   61BOLB   NC1 1441   4.481  21.202  23.548 -0.3577 -0.2548  0.0469
   61BOLB   PO1 1442   4.817  20.914  23.769 -0.1856 -0.2545  0.1678
   61BOLB   GL1 1443   5.275  20.783  23.770 -0.2929 -0.0508  0.1461
   61BOLB   GL2 1444   5.632  20.870  23.676  0.0620 -0.0115  0.4762
   61BOLB   C1A 1445   5.566  20.559  23.993 -0.1226  0.2189  0.0687
   61BOLB   C2A 1446   5.757  20.399  23.701  0.3879  0.0504 -0.1228
   61BOLB   C3A 1447   6.078  20.145  23.629 -0.0382 -0.1050  0.0920
   61BOLB   C4A 1448   5.966  19.814  23.479  0.1202  0.2635 -0.4874
   61BOLB   C1B 1449   6.106  20.791  23.793  0.3032 -0.2018  0.0821
   61BOLB   C2B 1450   6.455  20.482  23.854 -0.1025 -0.3029  0.0126
   61BOLB   C3B 1451   6.565  20.187  24.134  0.1390 -0.1147 -0.0027
   61BOLB   C4B 1452   6.446  19.746  24.124  0.2002 -0.1097 -0.0998
   61BOLB   NC2 1453   3.781  19.104  22.664 -0.1584  0.1133 -0.3950
   61BOLB   PO2 1454   3.664  19.391  22.986 -0.0385  0.2711  0.2567
   61BOLB   GL3 1455   4.132  19.403  22.854  0.1226  0.1197  0.1035
   61BOLB   GL4 1456   4.280  19.379  22.473  0.1723  0.0087 -0.0370
   61BOLB   C1C 1457   4.664  19.383  22.809  0.4853 -0.1683 -0.4429
   61BOLB   C2C 1458   4.992  19.202  22.791 -0.0554  0.3426  0.1949
   61BOLB   C3C 1459   5.318  19.278  23.033 -0.3817  0.2433 -0.0455
   61BOLB   C4C 1460   5.696  19.386  23.361  0.0249 -0.2567 -0.1917
   61BOLB   C1D 1461   4.581  19.074  22.243 -0.0533 -0.1766 -0.1946
   61BOLB   C2D 1462   4.928  18.787  22.164  0.2088 -0.2261 -0.1740
   61BOLB   C3D 1463   5.194  18.405  22.264 -0.0486 -0.0571 -0.0188
   61BOLB   C4D 1464   5.661  18.395  22.183 -0.2837 -0.0340 -0.2774
   62BOLB   NC1 1465   5.006  21.488  25.874  0.0122 -0.3209 -0.0166
   62BOLB   PO1 1466   5.051  21.301  25.505 -0.0515 -0.1412  0.0753
   62BOLB   GL1 1467   5.548  21.346  25.571 -0.1206 -0.0632 -0.0148
   62BOLB   GL2 1468   5.722  21.334  25.847  0.2055  0.0629  0.1818
   62BOLB   C1A 1469   5.790  21.703  25.546 -0.1457 -0.0621  0.2808
   62BOLB   C2A 1470   6.215  21.791  25.591 -0.3087 -0.1010 -0.0773
   62BOLB   C3A 1471   6.476  21.696  25.926 -0.0241 -0.0123  0.0910
   62BOLB   C4A 1472   6.689  21.870  26.195  0.3993  0.2523 -0.1667
   62BOLB   C1B 1473   6.129  21.292  25.689  0.2381 -0.0771  0.1030
   62BOLB   C2B 1474   6.627  21.334  25.560  0.0739  0.3488  0.0035
   62BOLB   C3B 1475   6.957  21.138  25.672 -0.0440 -0.2339 -0.0504
   62BOLB   C4B 1476   7.304  21.204  25.986 -0.1972  0.0965 -0.1462
   62BOLB   NC2 1477   5.812  24.111  25.914 -0.0328 -0.0477 -0.0022
   62BOLB   PO2 1478   6.057  24.070  26.162  0.3746 -0.1340 -0.2484
   62BOLB   GL3 1479   6.516  24.041  26.242  0.0833  0.0097  0.0731
   62BOLB   GL4 1480   6.784  24.234  26.141 -0.4147 -0.3080  0.0270
   62BOLB   C1C 1481   6.725  23.562  26.094  0.1930 -0.1638  0.1350
   62BOLB   C2C 1482   6.735  23.144  26.256 -0.0609 -0.0422  0.1365
   62BOLB   C3C 1483   6.623  22.733  26.236  0.1113  0.1593  0.1234
   62BOLB   C4C 1484   6.747  22.286  26.320 -0.0527  0.0792 -0.0081
   62BOLB   C1D 1485   7.114  23.889  25.979  0.0027  0.1559 -0.1007
   62BOLB   C2D 1486   7.228  23.483  26.139  0.3706 -0.0866  0.3434
   62BOLB   C3D 1487   7.415  23.044  26.262 -0.3418  0.0296  0.2133
   62BOLB   C4D 1488   7.314  22.628  26.010 -0.1684  0.1352 -0.2993
   63BOLB   NC1 1489   6.078  13.772  21.994  0.2051 -0.0298  0.0423
   63BOLB   PO1 1490   6.258  14.168  21.912 -0.0771 -0.1084  0.2546
   63BOLB   GL1 1491   6.389  13.986  21.567 -0.4498 -0.0738 -0.0809
   63BOLB   GL2 1492   6.701  13.751  21.372  0.4757  0.3752  0.1901
   63BOLB   C1A 1493   6.213  13.813  21.240  0.1326 -0.0135  0.4475
   63BOLB   C2A 1494   6.379  13.383  21.211 -0.0282  0.0537  0.1630
   63BOLB   C3A 1495   6.546  13.051  21.008  0.1923  0.1840 -0.0214
   63BOLB   C4A 1496   6.973  12.863  21.053  0.2794  0.1111  0.1639
   63BOLB   C1B 1497   6.936  13.965  21.002 -0.1564 -0.0756  0.1193
   63BOLB   C2B 1498   7.030  14.285  20.674 -0.1251 -0.1274  0.0644
   63BOLB   C3B 1499   6.753  14.738  20.691  0.0287  0.2972 -0.0116
   63BOLB   C4B 1500   6.514  14.812  20.356  0.2446 -0.2303  0.0162
   63BOLB   NC2 1501   6.193  11.252  21.227 -0.0505  0.0635 -0.0369
   63BOLB   PO2 1502   6.554  10.982  21.337  0.2785 -0.0191  0.0733
   63BOLB   GL3 1503   6.691  11.371  21.340  0.5242 -0.2301 -0.1209
   63BOLB   GL4 1504   6.464  11.637  21.554  0.0579 -0.0750 -0.3687
   63BOLB   C1C 1505   7.036  11.557  21.177 -0.1086  0.3507  0.3895
   63BOLB   C2C 1506   7.378  11.840  21.089 -0.1968  0.1550  0.1550
   63BOLB   C3C 1507   7.406  12.251  20.888 -0.2617  0.0387 -0.0167
   63BOLB   C4C 1508   7.287  12.513  21.047  0.0412  0.1358 -0.1193
   63BOLB   C1D 1509   6.776  11.688  22.010  0.0025 -0.2065 -0.0029
   63BOLB   C2D 1510   7.182  11.657  22.187  0.2696 -0.0089  0.0330
   63BOLB   C3D 1511   7.567  11.745  22.431 -0.0139  0.1321 -0.0577
   63BOLB   C4D 1512   7.960  12.066  22.671  0.2371  0.0559 -0.0573
   64BOLB   NC1 1513   7.886  20.011  23.491  0.1590  0.0176  0.1182
   64BOLB   PO1 1514   7.675  19.675  23.380 -0.0352 -0.1093  0.1680
   64BOLB   GL1 1515   7.316  19.488  23.678 -0.0954  0.0683 -0.1070
   64BOLB   GL2 1516   6.974  19.548  23.713 -0.2603  0.1248 -0.2627
   64BOLB   C1A 1517   7.393  19.664  24.104  0.0834 -0.0358  0.0976
   64BOLB   C2A 1518   7.322  19.511  24.472  0.0885  0.1161  0.3261
   64BOLB   C3A 1519   6.908  19.484  24.746 -0.1577  0.6108  0.0797
   64BOLB   C4A 1520   6.497  19.242  25.036  0.1802 -0.0037  0.4779
   64BOLB   C1B 1521   6.881  19.390  24.062  0.0335  0.0590 -0.0907
   64BOLB   C2B 1522   6.628  19.106  24.142  0.2390  0.2229  0.0063
   64BOLB   C3B 1523   6.380  18.846  23.969 -0.3113 -0.2490  0.0030
   64BOLB   C4B 1524   6.028  18.587  23.866  0.0669 -0.0867 -0.2884
   64BOLB   NC2 1525   5.197  18.209  26.112  0.0552 -0.1837  0.1319
   64BOLB   PO2 1526   4.912  18.107  25.882  0.0742 -0.2582  0.0701
   64BOLB   GL3 1527   5.196  18.136  25.614 -0.4506  0.1169 -0.0777
   64BOLB   GL4 1528   5.409  17.927  25.653 -0.1224 -0.0048  0.0249
   64BOLB   C1C 1529   5.350  18.409  25.353 -0.3292  0.0189 -0.3185
   64BOLB   C2C 1530   5.656  18.663  25.252 -0.2502 -0.1247 -0.0211
   64BOLB   C3C 1531   6.038  18.693  25.511  0.4526  0.3343  0.3303
   64BOLB   C4C 1532   6.399  18.961  25.365 -0.2172  0.0866  0.0663
   64BOLB   C1D 1533   5.747  17.719  25.480  0.3929  0.0629  0.0339
   64BOLB   C2D 1534   6.187  17.855  25.505  0.1117  0.1997 -0.3977
   64BOLB   C3D 1535   6.401  18.278  25.741 -0.3662  0.1541  0.0985
   64BOLB   C4D 1536   6.161  18.528  26.080 -0.1038 -0.2346  0.1059
   65BOLB   NC1 1537   8.862  20.114  23.948 -0.2139  0.0759  0.0257
   65BOLB   PO1 1538   9.128  20.439  24.151 -0.2426 -0.1576 -0.3308
   65BOLB   GL1 1539   8.993  20.409  24.496 -0.1140  0.3156 -0.2396
   65BOLB   GL2 1540   8.812  20.220  24.578 -0.0519 -0.3733  0.1206
   65BOLB   C1A 1541   9.188  20.527  24.950  0.0668  0.0169 -0.0676
   65BOLB   C2A 1542   9.446  20.562  25.363 -0.1519  0.3702  0.0843
   65BOLB   C3A 1543   9.383  20.397  25.790  0.0671  0.2715  0.1690
   65BOLB   C4A 1544   9.466  20.518  26.307  0.0225  0.3844 -0.2900
   65BOLB   C1B 1545   8.734  20.151  24.938  0.0899  0.1520 -0.3922
   65BOLB   C2B 1546   8.514  19.987  25.226  0.0480  0.1172 -0.0630
   65BOLB   C3B 1547   8.770  19.609  25.378 -0.2730 -0.0771 -0.1729
   65BOLB   C4B 1548   8.973  19.279  25.633  0.1155 -0.1629 -0.0891
   65BOLB   NC2 1549   9.618  21.232  28.048  0.0462  0.0166 -0.0647
   65BOLB   PO2 1550   9.338  21.564  28.192 -0.2699  0.0403  0.0603
   65BOLB   GL3 1551   9.179  21.326  27.821  0.2109 -0.0713 -0.2935
   65BOLB   GL4 1552   9.288  20.989  27.718  0.2975  0.0802 -0.3007
   65BOLB   C1C 1553   9.024  21.381  27.435 -0.4940  0.0665 -0.0486
   65BOLB   C2C 1554   9.189  21.339  27.011 -0.2791  0.3437  0.0361
   65BOLB   C3C 1555   9.434  20.988  26.994  0.0115 -0.0979  0.1034
   65BOLB   C4C 1556   9.539  20.749  26.647  0.1028  0.3648 -0.1211
   65BOLB   C1D 1557   9.556  20.865  27.412  0.0425  0.1497 -0.0297
   65BOLB   C2D 1558   9.434  20.468  27.157 -0.3183 -0.0492 -0.1408
   65BOLB   C3D 1559   9.510  20.149  26.886  0.3937  0.2495  0.0749
   65BOLB   C4D 1560   9.583  19.761  26.668  0.4014  0.0175 -0.1117
   66BOLB   NC1 1561   3.780  14.764  23.244 -0.1018 -0.4574  0.0820
   66BOLB   PO1 1562   3.981  14.967  22.962 -0.2659 -0.2032  0.1955
   66BOLB   GL1 1563   4.296  15.271  22.934  0.0510 -0.1623 -0.0733
   66BOLB   GL2 1564   4.404  15.231  23.250  0.1449  0.1509  0.2355
   66BOLB   C1A 1565   4.779  15.345  22.862 -0.2694  0.2877  0.0474
   66BOLB   C2A 1566   5.088  15.086  22.988 -0.1060 -0.1964 -0.1073
   66BOLB   C3A 1567   5.384  14.696  23.002  0.2072 -0.1393 -0.1261
   66BOLB   C4A 1568   5.479  14.263  23.113 -0.0909  0.0261  0.1567
   66BOLB   C1B 1569   4.743  14.885  23.359  0.3635  0.1314 -0.3202
   66BOLB   C2B 1570   5.078  14.609  23.400 -0.0046 -0.0643  0.0083
   66BOLB   C3B 1571   5.077  14.241  23.440  0.1344  0.0825  0.1118
   66BOLB   C4B 1572   5.222  13.856  23.549 -0.1575  0.0084  0.1674
   66BOLB   NC2 1573   4.914  11.960  24.465 -0.1427  0.1832  0.2509
   66BOLB   PO2 1574   5.058  12.247  24.066  0.1519 -0.1303 -0.1713
   66BOLB   GL3 1575   5.302  12.626  24.115  0.0032  0.0164  0.1820
   66BOLB   GL4 1576   5.487  12.565  24.362 -0.1893 -0.6780 -0.1690
   66BOLB   C1C 1577   5.538  12.882  23.950 -0.0697 -0.0807 -0.0717
   66BOLB   C2C 1578   5.713  13.106  23.627 -0.1012 -0.1961 -0.0637
   66BOLB   C3C 1579   5.639  13.568  23.442 -0.1031 -0.0164  0.1350
   66BOLB   C4C 1580   5.682  13.971  23.327 -0.0695 -0.2042  0.1249
   66BOLB   C1D 1581   5.818  12.464  24.281  0.0763  0.1859 -0.0978
   66BOLB   C2D 1582   6.168  12.494  24.191 -0.0747 -0.1523  0.1461
   66BOLB   C3D 1583   6.589  12.274  23.984  0.1280 -0.0454 -0.0507
   66BOLB   C4D 1584   6.776  11.820  24.125 -0.3333 -0.1008 -0.3513
   67BOLB   NC1 1585   6.961  22.992  23.873 -0.1432  0.0539 -0.1671
   67BOLB   PO1 1586   7.345  22.988  23.632  0.0542 -0.2588 -0.1876
   67BOLB   GL1 1587   7.407  22.683  24.029 -0.1135  0.1363  0.0387
   67BOLB   GL2 1588   7.496  22.942  24.306 -0.0063 -0.0770 -0.1182
   67BOLB   C1A 1589   7.893  22.601  24.350  0.2340 -0.0711 -0.0143
   67BOLB   C2A 1590   8.175  22.397  24.615 -0.3175 -0.0044 -0.2063
   67BOLB   C3A 1591   8.149  22.123  24.918 -0.4842  0.0442  0.0729
   67BOLB   C4A 1592   8.278  21.844  25.263 -0.0062 -0.1051  0.0043
   67BOLB   C1B 1593   7.348  22.619  24.546 -0.0549  0.0118 -0.0083
   67BOLB   C2B 1594   7.356  22.516  25.012 -0.2336  0.0275  0.1686
   67BOLB   C3B 1595   7.347  22.745  25.340 -0.1763 -0.0966 -0.2422
   67BOLB   C4B 1596   7.143  23.111  25.326  0.4514 -0.0680 -0.0797
   67BOLB   NC2 1597   7.745  21.382  27.435 -0.1549  0.1267 -0.0639
   67BOLB   PO2 1598   7.962  21.789  27.648 -0.0697  0.2390  0.0758
   67BOLB   GL3 1599   8.135  21.937  27.318  0.1982  0.1829  0.1915
   67BOLB   GL4 1600   8.488  22.123  27.370  0.0706  0.1898 -0.1331
   67BOLB   C1C 1601   8.158  21.824  26.921 -0.0955  0.1766  0.3715
   67BOLB   C2C 1602   8.076  21.563  26.584  0.0379  0.0020  0.2274
   67BOLB   C3C 1603   8.217  21.506  26.138 -0.1266 -0.0900 -0.6066
   67BOLB   C4C 1604   8.248  21.698  25.738  0.3002 -0.0567  0.0320
   67BOLB   C1D 1605   8.665  21.730  27.233 -0.3029 -0.1561  0.2092
   67BOLB   C2D 1606   8.759  21.534  26.870  0.2549 -0.1976 -0.0783
   67BOLB   C3D 1607   9.061  21.392  26.507 -0.1432  0.0479  0.0014
   67BOLB   C4D 1608   9.457  21.350  26.334  0.2532  0.2274 -0.0864
   68BOLB   NC1 1609   2.571  17.645  18.800 -0.1362 -0.5987  0.1427
   68BOLB   PO1 1610   2.804  17.943  18.974  0.2967  0.2224  0.0074
   68BOLB   GL1 1611   3.220  18.004  18.935 -0.1681 -0.1185  0.1075
   68BOLB   GL2 1612   3.363  17.994  18.582 -0.2266  0.1685  0.0116
   68BOLB   C1A 1613   3.667  17.897  19.001  0.1526 -0.0469 -0.1753
   68BOLB   C2A 1614   3.955  17.778  19.284 -0.4654 -0.2075  0.1163
   68BOLB   C3A 1615   4.257  17.665  19.344 -0.1062 -0.2315  0.1795
   68BOLB   C4A 1616   4.289  17.326  19.613 -0.2797 -0.0075  0.0947
   68BOLB   C1B 1617   3.706  18.337  18.801 -0.0290 -0.0486  0.0838
   68BOLB   C2B 1618   3.994  18.731  18.839 -0.1427  0.3674  0.1507
   68BOLB   C3B 1619   4.035  19.199  18.645  0.2295  0.1586 -0.1007
   68BOLB   C4B 1620   3.841  19.571  18.496 -0.1508  0.1518  0.0354
   68BOLB   NC2 1621   3.938  16.029  21.977 -0.0101  0.2731 -0.0788
   68BOLB   PO2 1622   3.694  16.024  21.624 -0.0178 -0.1825  0.1485
   68BOLB   GL3 1623   3.965  16.145  21.323  0.3146  0.3320  0.3418
   68BOLB   GL4 1624   4.155  15.869  21.187 -0.0759 -0.1665 -0.2809
   68BOLB   C1C 1625   4.166  16.409  21.003  0.1774  0.0863  0.0898
   68BOLB   C2C 1626   4.059  16.589  20.552  0.2121  0.1295 -0.0032
   68BOLB   C3C 1627   4.329  16.746  20.385 -0.2308  0.0346  0.0899
   68BOLB   C4C 1628   4.257  16.986  19.961  0.0909  0.1831  0.1479
   68BOLB   C1D 1629   4.535  16.051  21.095 -0.1450  0.1210 -0.0306
   68BOLB   C2D 1630   4.906  16.074  21.297  0.0631 -0.2174 -0.1229
   68BOLB   C3D 1631   4.905  16.160  21.708  0.4199 -0.1960  0.1894
   68BOLB   C4D 1632   4.764  16.359  22.153  0.1115  0.0724  0.0570
   69BOLB   NC1 1633   8.288  17.210  23.491  0.1101  0.0890  0.1340
   69BOLB   PO1 1634   7.966  17.257  23.228 -0.0323  0.1966 -0.0007
   69BOLB   GL1 1635   7.613  17.404  23.279  0.0121  0.3314  0.1455
   69BOLB   GL2 1636   7.355  17.419  23.127 -0.2973  0.3182 -0.2071
   69BOLB   C1A 1637   7.394  17.436  23.645  0.3167 -0.1630  0.3138
   69BOLB   C2A 1638   7.111  17.414  23.909  0.1355  0.1057 -0.2431
   69BOLB   C3A 1639   6.759  17.264  24.075 -0.0895  0.0883  0.1835
   69BOLB   C4A 1640   6.582  17.149  24.392  0.5493  0.0907 -0.2528
   69BOLB   C1B 1641   7.197  17.078  23.267  0.0816 -0.0395 -0.0166
   69BOLB   C2B 1642   6.900  17.038  23.600 -0.1134  0.0398  0.2595
   69BOLB   C3B 1643   6.713  16.742  23.677  0.3763 -0.0059  0.1514
   69BOLB   C4B 1644   6.801  16.353  23.856  0.0157 -0.0824 -0.3244
   69BOLB   NC2 1645   4.159  15.707  25.008 -0.0447  0.2448 -0.1759
   69BOLB   PO2 1646   4.492  16.009  24.936  0.1751  0.1670  0.2037
   69BOLB   GL3 1647   4.905  16.060  24.899  0.0261  0.0070  0.2866
   69BOLB   GL4 1648   4.910  15.983  25.242 -0.1443  0.1578 -0.2230
   69BOLB   C1C 1649   5.303  16.231  24.854  0.3063 -0.2994 -0.0590
   69BOLB   C2C 1650   5.725  16.363  24.846  0.3374  0.1161 -0.3003
   69BOLB   C3C 1651   6.066  16.487  24.583 -0.2442  0.0474  0.1513
   69BOLB   C4C 1652   6.370  16.829  24.530  0.1224  0.2657  0.1380
   69BOLB   C1D 1653   5.278  15.861  25.356 -0.0458 -0.4002  0.2094
   69BOLB   C2D 1654   5.664  15.639  25.546 -0.1506 -0.1645  0.4317
   69BOLB   C3D 1655   6.136  15.444  25.650 -0.0952  0.0970 -0.0114
   69BOLB   C4D 1656   6.391  15.070  25.586  0.0538 -0.0434 -0.2718
   70BOLB   NC1 1657   6.437  23.579  23.843  0.1425 -0.0133 -0.0929
   70BOLB   PO1 1658   6.919  23.466  23.942 -0.1414 -0.3502 -0.2713
   70BOLB   GL1 1659   7.062  23.292  24.244 -0.1756 -0.0265 -0.1393
   70BOLB   GL2 1660   6.964  23.052  24.411  0.6401 -0.2575 -0.3233
   70BOLB   C1A 1661   7.432  23.375  24.502 -0.6154  0.0566 -0.0266
   70BOLB   C2A 1662   7.578  23.559  24.824  0.1241 -0.0990  0.4053
   70BOLB   C3A 1663   7.479  23.572  25.299  0.2833 -0.0363 -0.1021
   70BOLB   C4A 1664   7.567  23.729  25.756  0.3054 -0.2021 -0.0336
   70BOLB   C1B 1665   6.920  22.836  24.821 -0.1327 -0.0529 -0.3095
   70BOLB   C2B 1666   6.856  22.687  25.226  0.0580 -0.1829 -0.2340
   70BOLB   C3B 1667   6.912  22.714  25.647  0.0629  0.1731  0.2804
   70BOLB   C4B 1668   7.051  23.027  25.884  0.2319  0.2989  0.0828
   70BOLB   NC2 1669   6.955  22.680  27.617  0.0697 -0.2548 -0.0457
   70BOLB   PO2 1670   6.878  22.295  27.479 -0.0372 -0.1292  0.0512
   70BOLB   GL3 1671   7.235  22.324  27.313  0.1212  0.3697 -0.0873
   70BOLB   GL4 1672   7.270  22.185  27.027 -0.3162  0.1952  0.0487
   70BOLB   C1C 1673   7.454  22.628  26.939  0.2939  0.2572 -0.0881
   70BOLB   C2C 1674   7.609  23.032  26.676 -0.2051  0.0282  0.0136
   70BOLB   C3C 1675   7.817  23.275  26.401 -0.0800 -0.1536 -0.2031
   70BOLB   C4C 1676   7.764  23.529  26.002 -0.2073  0.0926 -0.0457
   70BOLB   C1D 1677   7.181  22.019  26.579 -0.1007  0.0525 -0.1298
   70BOLB   C2D 1678   7.454  22.119  26.196 -0.0517 -0.0731 -0.1677
   70BOLB   C3D 1679   7.652  22.029  25.919 -0.3665 -0.1705  0.2823
   70BOLB   C4D 1680   7.932  22.040  25.709  0.2604  0.4530 -0.1635
   71BOLB   NC1 1681   8.155  25.569  23.699  0.1203 -0.1384  0.2240
   71BOLB   PO1 1682   7.812  25.726  23.692 -0.1710  0.1362  0.0249
   71BOLB   GL1 1683   7.939  25.483  24.092 -0.4522  0.0534  0.0292
   71BOLB   GL2 1684   7.905  25.650  24.347 -0.1510 -0.1502  0.3731
   71BOLB   C1A 1685   8.133  25.202  24.285  0.2137 -0.1813 -0.0266
   71BOLB   C2A 1686   8.166  24.797  24.445 -0.0115  0.2399 -0.1250
   71BOLB   C3A 1687   8.480  24.510  24.312 -0.3003  0.3595 -0.1945
   71BOLB   C4A 1688   8.856  24.674  24.169  0.3484 -0.1189 -0.1996
   71BOLB   C1B 1689   7.658  25.419  24.628  0.1364  0.1683  0.0538
   71BOLB   C2B 1690   7.657  24.987  24.777  0.1395 -0.0741  0.1500
   71BOLB   C3B 1691   7.940  24.668  24.909  0.1134 -0.0050 -0.0033
   71BOLB   C4B 1692   8.006  24.371  25.266  0.1918 -0.0280  0.3365
   71BOLB   NC2 1693   8.783  26.858  23.783 -0.1879  0.4319 -0.2244
   71BOLB   PO2 1694   8.653  26.624  23.432 -0.3195  0.3654  0.0085
   71BOLB   GL3 1695   8.950  26.363  23.496 -0.3715  0.2306  0.1706
   71BOLB   GL4 1696   9.277  26.499  23.335 -0.0677  0.0602  0.0316
   71BOLB   C1C 1697   9.146  25.974  23.666  0.1137  0.1538  0.0553
   71BOLB   C2C 1698   9.371  25.572  23.573 -0.1288  0.0390 -0.2694
   71BOLB   C3C 1699   9.512  25.119  23.721  0.0625 -0.2076  0.1674
   71BOLB   C4C 1700   9.274  24.801  23.983  0.2494  0.0458 -0.2315
   71BOLB   C1D 1701   9.233  26.056  23.144  0.0799 -0.1452  0.0441
   71BOLB   C2D 1702   9.004  25.660  23.237 -0.2755 -0.1026  0.1133
   71BOLB   C3D 1703   8.819  25.372  23.487 -0.1027 -0.0764  0.1539
   71BOLB   C4D 1704   8.905  25.013  23.667  0.2745  0.1977  0.0090
   72BOLB   NC1 1705   7.688  17.782  21.988  0.1270  0.0289  0.1321
   72BOLB   PO1 1706   7.531  17.420  21.983 -0.1347  0.0227 -0.3931
   72BOLB   GL1 1707   7.199  17.412  21.742  0.2474 -0.1857  0.0295
   72BOLB   GL2 1708   6.999  17.577  21.937 -0.1177  0.0875 -0.1737
   72BOLB   C1A 1709   6.762  17.323  21.569 -0.0339 -0.2886 -0.0310
   72BOLB   C2A 1710   6.393  17.561  21.755  0.1952  0.1744 -0.1351
   72BOLB   C3A 1711   6.155  17.809  21.980  0.4272 -0.1576  0.0379
   72BOLB   C4A 1712   5.790  17.839  22.205  0.0971  0.0017 -0.0907
   72BOLB   C1B 1713   6.670  17.968  21.767  0.0869  0.0096  0.1530
   72BOLB   C2B 1714   6.269  18.155  21.638 -0.1361 -0.0177 -0.1885
   72BOLB   C3B 1715   6.260  18.497  21.470 -0.1149 -0.1475 -0.0043
   72BOLB   C4B 1716   6.153  18.823  21.240  0.0013  0.6407 -0.1768
   72BOLB   NC2 1717   3.571  17.902  23.451  0.1193  0.0100 -0.0765
   72BOLB   PO2 1718   3.608  17.958  23.016 -0.1833 -0.1412  0.0498
   72BOLB   GL3 1719   3.940  18.196  22.788 -0.1348 -0.0521 -0.0264
   72BOLB   GL4 1720   4.176  17.986  22.667  0.1692 -0.1025 -0.0770
   72BOLB   C1C 1721   4.355  18.345  22.977  0.0510  0.0916 -0.0694
   72BOLB   C2C 1722   4.705  18.299  22.711  0.1162 -0.2855 -0.0415
   72BOLB   C3C 1723   5.054  18.278  22.715  0.1718  0.0212 -0.1454
   72BOLB   C4C 1724   5.383  18.059  22.484 -0.2093 -0.1182 -0.1004
   72BOLB   C1D 1725   4.429  18.196  22.333 -0.1696 -0.2033  0.2751
   72BOLB   C2D 1726   4.767  18.333  22.074  0.2624  0.0786  0.1703
   72BOLB   C3D 1727   5.048  18.461  21.739 -0.4674  0.0306  0.1019
   72BOLB   C4D 1728   5.336  18.766  21.856 -0.0014 -0.0354  0.2917
   73BOLB   NC1 1729   4.050  20.290  21.663  0.4008 -0.1518  0.0449
   73BOLB   PO1 1730   4.294  20.537  21.969  0.1563  0.2252  0.2021
   73BOLB   GL1 1731   4.618  20.338  21.694  0.2019 -0.0161  0.1466
   73BOLB   GL2 1732   4.928  20.257  21.855 -0.1667  0.0185 -0.0025
   73BOLB   C1A 1733   4.941  20.185  21.389 -0.2671 -0.2389 -0.1624
   73BOLB   C2A 1734   5.213  19.875  21.182 -0.1574 -0.1649  0.1320
   73BOLB   C3A 1735   5.425  19.544  21.061 -0.4636 -0.0503  0.2744
   73BOLB   C4A 1736   5.372  19.221  20.908  0.0701 -0.0525  0.2461
   73BOLB   C1B 1737   5.188  20.531  21.710  0.2110 -0.1994 -0.2378
   73BOLB   C2B 1738   5.655  20.521  21.722  0.2344 -0.1645 -0.5154
   73BOLB   C3B 1739   5.894  20.102  21.657  0.1183  0.0671 -0.1905
   73BOLB   C4B 1740   5.794  19.968  21.295  0.0813 -0.0748 -0.0126
   73BOLB   NC2 1741   3.157  18.790  21.099  0.1667  0.2076 -0.1342
   73BOLB   PO2 1742   3.370  18.638  21.409  0.2688  0.0532 -0.0205
   73BOLB   GL3 1743   3.732  18.592  21.163 -0.0799  0.0984  0.2243
   73BOLB   GL4 1744   4.038  18.837  21.027  0.1816  0.2318 -0.2231
   73BOLB   C1C 1745   4.157  18.281  21.046  0.1758 -0.0422  0.1175
   73BOLB   C2C 1746   4.549  18.236  20.885  0.1085  0.4314 -0.1422
   73BOLB   C3C 1747   4.979  18.367  20.818 -0.3345 -0.0722  0.3497
   73BOLB   C4C 1748   5.215  18.782  20.800  0.4842  0.0801  0.0381
   73BOLB   C1D 1749   4.418  18.767  21.147 -0.1136 -0.1609 -0.1461
   73BOLB   C2D 1750   4.855  18.611  21.231 -0.1165 -0.0605 -0.1431
   73BOLB   C3D 1751   5.276  18.635  21.366 -0.1789  0.2299 -0.1465
   73BOLB   C4D 1752   5.615  18.858  21.176 -0.1172 -0.1312 -0.0173
   74BOLB   NC1 1753   6.766  15.268  22.030  0.1600 -0.0509  0.1942
   74BOLB   PO1 1754   7.083  15.315  22.379 -0.1421  0.1547 -0.0047
   74BOLB   GL1 1755   6.814  15.553  22.489 -0.0293 -0.0454  0.2779
   74BOLB   GL2 1756   6.746  15.753  22.145  0.0617  0.0314  0.0883
   74BOLB   C1A 1757   6.618  15.670  22.875  0.2078  0.0521  0.0644
   74BOLB   C2A 1758   6.323  15.849  23.005 -0.1985  0.1044  0.1171
   74BOLB   C3A 1759   6.048  16.196  23.113  0.0168  0.0793 -0.0161
   74BOLB   C4A 1760   5.704  16.389  23.159  0.2657  0.0488 -0.0587
   74BOLB   C1B 1761   6.631  15.848  21.794  0.1998  0.0036 -0.3008
   74BOLB   C2B 1762   6.387  16.159  21.506 -0.0869  0.1307  0.0690
   74BOLB   C3B 1763   6.325  16.478  21.198 -0.1129  0.3969 -0.0226
   74BOLB   C4B 1764   6.062  16.835  20.968  0.0380 -0.1881 -0.0312
   74BOLB   NC2 1765   3.436  17.326  24.062 -0.4279 -0.0394  0.2001
   74BOLB   PO2 1766   3.575  17.376  23.675  0.1518  0.0496 -0.0699
   74BOLB   GL3 1767   4.049  17.408  23.607 -0.1008  0.2777  0.0632
   74BOLB   GL4 1768   4.125  17.077  23.654 -0.1508  0.0188 -0.2671
   74BOLB   C1C 1769   4.411  17.416  23.387  0.0086  0.2583 -0.0821
   74BOLB   C2C 1770   4.594  17.312  22.923 -0.0992  0.1136  0.0794
   74BOLB   C3C 1771   4.898  17.021  22.902 -0.0137  0.0910  0.1480
   74BOLB   C4C 1772   5.207  16.705  22.969 -0.2359  0.1964 -0.1164
   74BOLB   C1D 1773   4.493  16.939  23.476 -0.0433 -0.0087 -0.1404
   74BOLB   C2D 1774   4.861  16.743  23.398 -0.1741 -0.2590 -0.0434
   74BOLB   C3D 1775   5.139  16.438  23.628  0.1140  0.2108 -0.3801
   74BOLB   C4D 1776   5.321  16.213  23.923  0.2590  0.1633 -0.0779
   75BOLB   NC1 1777   4.236  21.171  21.405  0.2210 -0.1768  0.0680
   75BOLB   PO1 1778   4.101  20.809  21.455  0.1377 -0.2019  0.3013
   75BOLB   GL1 1779   4.456  20.538  21.256  0.1212  0.0772  0.0197
   75BOLB   GL2 1780   4.190  20.259  21.224 -0.1608 -0.1878 -0.1094
   75BOLB   C1A 1781   4.458  20.198  20.833  0.1711 -0.1648  0.0681
   75BOLB   C2A 1782   4.743  19.973  20.395  0.1948  0.0881  0.0794
   75BOLB   C3A 1783   4.991  19.644  20.161 -0.0773 -0.2257 -0.0647
   75BOLB   C4A 1784   5.022  19.208  19.972 -0.1347  0.1907 -0.0910
   75BOLB   C1B 1785   4.467  19.888  21.306 -0.0364 -0.0164  0.1647
   75BOLB   C2B 1786   4.796  19.674  21.007  0.0406 -0.2284  0.0592
   75BOLB   C3B 1787   5.072  19.627  20.681  0.2194  0.0953  0.0191
   75BOLB   C4B 1788   5.421  19.577  20.530 -0.1370  0.3736  0.1484
   75BOLB   NC2 1789   2.624  18.106  19.438 -0.0905  0.1568 -0.0107
   75BOLB   PO2 1790   2.943  18.278  19.704  0.1620 -0.2256  0.0016
   75BOLB   GL3 1791   3.384  18.308  19.696 -0.2865 -0.0710  0.2012
   75BOLB   GL4 1792   3.386  17.997  19.855 -0.0471 -0.3044 -0.0349
   75BOLB   C1C 1793   3.797  18.211  19.668 -0.1788  0.2707  0.1204
   75BOLB   C2C 1794   4.250  18.226  19.529  0.0921  0.0714 -0.1298
   75BOLB   C3C 1795   4.696  18.538  19.513 -0.3346  0.1823  0.1350
   75BOLB   C4C 1796   5.053  18.820  19.660 -0.0237  0.2835  0.0042
   75BOLB   C1D 1797   3.598  17.740  19.644  0.2378  0.2978  0.2778
   75BOLB   C2D 1798   3.610  17.444  19.365 -0.0764  0.3039 -0.2150
   75BOLB   C3D 1799   3.576  17.393  18.944 -0.0623  0.0745  0.2519
   75BOLB   C4D 1800   3.681  17.589  18.546 -0.0267  0.0190  0.1342
   76BOLB   NC1 1801   9.098  19.448  24.411  0.0674 -0.1058  0.0969
   76BOLB   PO1 1802   8.681  19.236  24.189  0.2835  0.0430  0.0715
   76BOLB   GL1 1803   8.589  18.988  24.566  0.1871 -0.4263  0.1091
   76BOLB   GL2 1804   8.412  18.784  24.338  0.1049 -0.1942 -0.0011
   76BOLB   C1A 1805   8.654  18.866  24.855 -0.0611  0.2409 -0.0362
   76BOLB   C2A 1806   8.560  18.614  25.178 -0.0634 -0.2944 -0.0305
   76BOLB   C3A 1807   8.271  18.389  25.323  0.3378  0.1776 -0.1389
   76BOLB   C4A 1808   7.809  18.415  25.441  0.0536 -0.3427  0.2482
   76BOLB   C1B 1809   8.212  18.539  24.769 -0.1884 -0.4007 -0.0926
   76BOLB   C2B 1810   7.867  18.614  25.000  0.0477 -0.0531  0.1431
   76BOLB   C3B 1811   7.571  18.773  25.177  0.0598 -0.0726  0.0960
   76BOLB   C4B 1812   7.357  19.032  25.456 -0.1528  0.0658 -0.1223
   76BOLB   NC2 1813   5.539  19.067  27.006  0.1128  0.1200 -0.0177
   76BOLB   PO2 1814   6.041  19.053  27.154  0.1968  0.3882  0.2004
   76BOLB   GL3 1815   6.427  18.882  26.869 -0.3113 -0.0712 -0.1693
   76BOLB   GL4 1816   6.711  19.048  26.962 -0.1900  0.0211  0.0724
   76BOLB   C1C 1817   6.709  18.862  26.507 -0.1556  0.1289  0.0781
   76BOLB   C2C 1818   7.023  18.922  26.258  0.1665 -0.1835  0.1079
   76BOLB   C3C 1819   7.107  18.790  25.796  0.1049 -0.1585 -0.1865
   76BOLB   C4C 1820   7.354  18.542  25.532  0.1335  0.0954  0.1584
   76BOLB   C1D 1821   7.202  19.108  26.774  0.1371  0.0040  0.0454
   76BOLB   C2D 1822   7.449  18.926  26.549  0.0789  0.2181 -0.1917
   76BOLB   C3D 1823   7.631  18.451  26.610 -0.1790  0.1639 -0.0339
   76BOLB   C4D 1824   7.998  18.288  26.439 -0.0816  0.1149 -0.0907
   77BOLB   NC1 1825   8.909  15.963  23.291 -0.3930  0.0390  0.0780
   77BOLB   PO1 1826   9.006  15.818  23.700 -0.0604  0.1678 -0.0924
   77BOLB   GL1 1827   8.911  15.602  24.052 -0.2612  0.1948 -0.1351
   77BOLB   GL2 1828   8.496  15.550  24.050  0.0334  0.0658  0.1079
   77BOLB   C1A 1829   9.001  15.641  24.408  0.0765  0.3558  0.1210
   77BOLB   C2A 1830   8.873  15.742  24.796  0.1972  0.1465  0.2349
   77BOLB   C3A 1831   8.791  16.058  25.113 -0.0094 -0.3252  0.2472
   77BOLB   C4A 1832   8.625  16.204  25.555 -0.2189 -0.3926  0.3122
   77BOLB   C1B 1833   8.406  15.734  24.481 -0.3447  0.1490 -0.0580
   77BOLB   C2B 1834   8.174  15.626  24.890  0.3351 -0.0818 -0.1659
   77BOLB   C3B 1835   7.921  15.664  25.351 -0.0674 -0.0660 -0.0522
   77BOLB   C4B 1836   7.724  15.351  25.672 -0.2298  0.0008  0.0795
   77BOLB   NC2 1837   6.605  16.173  27.617 -0.0855  0.1777 -0.0284
   77BOLB   PO2 1838   7.080  16.159  27.567 -0.1018 -0.0090  0.1879
   77BOLB   GL3 1839   7.506  16.140  27.358 -0.0727  0.0169  0.2195
   77BOLB   GL4 1840   7.673  16.327  27.321 -0.1199 -0.0071  0.0298
   77BOLB   C1C 1841   7.901  15.937  27.205  0.2265 -0.1829 -0.0172
   77BOLB   C2C 1842   8.058  15.926  26.787 -0.2923 -0.0120 -0.0476
   77BOLB   C3C 1843   8.415  16.028  26.384  0.2287 -0.0051  0.3373
   77BOLB   C4C 1844   8.483  16.146  26.032  0.3509 -0.1617  0.0757
   77BOLB   C1D 1845   7.708  16.332  26.906  0.3458  0.0056  0.5222
   77BOLB   C2D 1846   7.707  16.145  26.567  0.0528 -0.0992  0.0118
   77BOLB   C3D 1847   7.574  16.007  26.213 -0.1056  0.0894 -0.2171
   77BOLB   C4D 1848   7.706  15.860  25.788 -0.1392  0.2324  0.0677
   78BOLB   NC1 1849   4.962  12.483  23.163 -0.1494  0.2939  0.0686
   78BOLB   PO1 1850   5.348  12.722  23.199  0.1706  0.1168 -0.4318
   78BOLB   GL1 1851   5.778  12.707  23.238 -0.1651  0.4007 -0.0919
   78BOLB   GL2 1852   6.021  12.437  23.196  0.0282  0.1082  0.4467
   78BOLB   C1A 1853   6.144  12.944  23.345  0.2151  0.1695 -0.0965
   78BOLB   C2A 1854   6.073  13.387  23.405  0.0343  0.1187 -0.0661
   78BOLB   C3A 1855   6.073  13.806  23.604 -0.1036 -0.0723  0.1389
   78BOLB   C4A 1856   5.992  14.133  23.734  0.3681 -0.2411 -0.0937
   78BOLB   C1B 1857   6.100  12.713  22.899 -0.1956 -0.0894 -0.0714
   78BOLB   C2B 1858   6.311  12.882  22.697  0.0250  0.0479  0.1714
   78BOLB   C3B 1859   6.665  13.105  22.581 -0.2132  0.0471 -0.0270
   78BOLB   C4B 1860   7.051  13.087  22.485  0.2023 -0.0490  0.1506
   78BOLB   NC2 1861   4.191  13.967  23.720  0.1559  0.0392 -0.0185
   78BOLB   PO2 1862   4.538  13.845  23.633  0.0507 -0.0774 -0.3431
   78BOLB   GL3 1863   4.658  14.112  23.941  0.3275  0.0535  0.0899
   78BOLB   GL4 1864   4.614  14.451  23.745 -0.0476 -0.1626 -0.0263
   78BOLB   C1C 1865   4.768  14.266  24.250  0.0207 -0.0458  0.0907
   78BOLB   C2C 1866   5.162  14.302  24.351 -0.0004 -0.1845 -0.0494
   78BOLB   C3C 1867   5.491  14.518  24.259 -0.0889 -0.0296  0.2555
   78BOLB   C4C 1868   5.883  14.299  24.101  0.0047  0.2637 -0.1460
   78BOLB   C1D 1869   5.081  14.426  23.883  0.0308  0.0811 -0.0080
   78BOLB   C2D 1870   5.340  14.752  23.809  0.0139 -0.0404  0.3174
   78BOLB   C3D 1871   5.250  15.102  23.429  0.0398 -0.3475 -0.1584
   78BOLB   C4D 1872   5.605  15.263  23.127  0.0476 -0.2455  0.0388
   79BOLB   NC1 1873  10.230  18.002  24.174 -0.2166 -0.2969 -0.0797
   79BOLB   PO1 1874   9.813  17.847  24.039  0.1570 -0.1336 -0.0228
   79BOLB   GL1 1875   9.629  17.800  24.428  0.0224 -0.1750 -0.2299
   79BOLB   GL2 1876   9.713  17.424  24.348 -0.1190  0.3341  0.1868
   79BOLB   C1A 1877   9.469  17.753  24.842 -0.0128  0.0766 -0.1581
   79BOLB   C2A 1878   9.510  17.739  25.301 -0.2613  0.2599  0.1239
   79BOLB   C3A 1879   9.531  17.759  25.684  0.5000 -0.1271 -0.1650
   79BOLB   C4A 1880   9.482  17.727  26.136  0.2491 -0.0447  0.0194
   79BOLB   C1B 1881   9.750  17.317  24.720  0.1543  0.1984  0.1484
   79BOLB   C2B 1882   9.617  17.304  25.150  0.0101  0.1728 -0.2212
   79BOLB   C3B 1883   9.648  17.247  25.621 -0.0658 -0.0605  0.0250
   79BOLB   C4B 1884   9.410  17.265  25.907 -0.1599  0.4656 -0.3690
   79BOLB   NC2 1885   8.346  18.550  28.418 -0.1509 -0.0774 -0.2747
   79BOLB   PO2 1886   8.289  18.258  28.220 -0.0721 -0.1343 -0.1504
   79BOLB   GL3 1887   8.537  18.237  27.718  0.2376 -0.4079  0.2722
   79BOLB   GL4 1888   8.301  18.466  27.352  0.1971  0.2542 -0.1649
   79BOLB   C1C 1889   8.812  17.936  27.348  0.2205 -0.3284  0.0139
   79BOLB   C2C 1890   9.055  17.624  27.252 -0.0850 -0.2294  0.1669
   79BOLB   C3C 1891   9.445  17.637  26.922 -0.3835 -0.2085 -0.1109
   79BOLB   C4C 1892   9.512  17.736  26.516 -0.0522  0.2069  0.1520
   79BOLB   C1D 1893   8.492  18.713  27.018  0.0781  0.2006 -0.0037
   79BOLB   C2D 1894   8.871  18.773  26.872  0.0415 -0.1736 -0.0995
   79BOLB   C3D 1895   9.311  18.604  26.975  0.6033  0.0766 -0.3788
   79BOLB   C4D 1896   9.637  18.614  26.762  0.0926 -0.0228 -0.2771
   80BOLB   NC1 1897   7.418  16.257  22.558 -0.1087 -0.3110  0.1119
   80BOLB   PO1 1898   7.165  15.917  22.391  0.1963  0.0919  0.1644
   80BOLB   GL1 1899   6.998  15.962  22.765  0.2308 -0.0927  0.1038
   80BOLB   GL2 1900   7.054  15.820  23.063  0.1353  0.0913 -0.2043
   80BOLB   C1A 1901   6.645  16.227  23.013  0.1587 -0.0531 -0.0786
   80BOLB   C2A 1902   6.492  16.306  23.404 -0.3165  0.0162  0.0713
   80BOLB   C3A 1903   6.328  16.342  23.883 -0.0041  0.0578  0.2067
   80BOLB   C4A 1904   6.536  16.251  24.292  0.2695 -0.0042  0.5871
   80BOLB   C1B 1905   6.901  16.050  23.408  0.3370 -0.0239  0.0519
   80BOLB   C2B 1906   6.622  15.869  23.741 -0.0761  0.4012 -0.1124
   80BOLB   C3B 1907   6.735  15.772  24.129  0.2856  0.0248 -0.0777
   80BOLB   C4B 1908   6.471  15.565  24.387  0.0375  0.0896 -0.0458
   80BOLB   NC2 1909   4.414  16.043  25.401 -0.3709 -0.0434  0.1232
   80BOLB   PO2 1910   4.538  15.653  25.393 -0.1961  0.1180  0.0452
   80BOLB   GL3 1911   4.768  15.540  24.982 -0.2148 -0.0516  0.0324
   80BOLB   GL4 1912   4.687  15.626  24.592  0.0298  0.1587 -0.1509
   80BOLB   C1C 1913   5.131  15.524  25.046  0.1757  0.1619 -0.0311
   80BOLB   C2C 1914   5.470  15.741  24.897  0.0423 -0.0600  0.0099
   80BOLB   C3C 1915   5.781  15.836  24.557  0.0060  0.2447 -0.0973
   80BOLB   C4C 1916   6.192  16.002  24.535 -0.3576 -0.2584  0.4010
   80BOLB   C1D 1917   5.142  15.680  24.506  0.2621 -0.2981 -0.1699
   80BOLB   C2D 1918   5.480  15.775  24.191  0.0602  0.0474  0.1376
   80BOLB   C3D 1919   5.699  15.623  23.815 -0.3869 -0.0048  0.2143
   80BOLB   C4D 1920   5.777  15.273  23.542  0.1206 -0.1775 -0.5243
   81BOLB   NC1 1921   7.375  18.530  22.552  0.0208  0.1983  0.2938
   81BOLB   PO1 1922   7.627  18.204  22.902  0.2474  0.0120  0.2938
   81BOLB   GL1 1923   7.308  18.254  23.192 -0.0865  0.2127 -0.1843
   81BOLB   GL2 1924   7.162  17.923  23.232 -0.2215 -0.4788 -0.0306
   81BOLB   C1A 1925   7.083  18.516  23.377 -0.1299  0.1885  0.1181
   81BOLB   C2A 1926   6.817  18.652  23.688  0.4387  0.0021 -0.0929
   81BOLB   C3A 1927   6.920  18.654  24.112  0.1950 -0.1049 -0.1901
   81BOLB   C4A 1928   6.829  18.607  24.494 -0.1577  0.0596  0.2256
   81BOLB   C1B 1929   6.891  17.660  23.462 -0.0129  0.0928  0.2359
   81BOLB   C2B 1930   6.647  17.599  23.761  0.0231  0.2213 -0.4626
   81BOLB   C3B 1931   6.365  17.872  23.970  0.1264  0.0674  0.2087
   81BOLB   C4B 1932   5.938  18.145  23.980  0.1734  0.2603  0.2332
   81BOLB   NC2 1933   5.879  18.121  26.647  0.0115  0.3383  0.0624
   81BOLB   PO2 1934   5.558  17.882  26.420  0.1324 -0.0877  0.1759
   81BOLB   GL3 1935   5.743  18.024  26.031  0.0275  0.2037  0.0251
   81BOLB   GL4 1936   6.134  17.977  26.018  0.4734 -0.1588 -0.0371
   81BOLB   C1C 1937   5.751  18.255  25.656 -0.2193  0.0443  0.0832
   81BOLB   C2C 1938   5.931  18.241  25.286  0.1022  0.0906 -0.0479
   81BOLB   C3C 1939   6.376  18.430  25.230  0.1443 -0.1699 -0.1197
   81BOLB   C4C 1940   6.546  18.706  24.883 -0.1091 -0.2043  0.0137
   81BOLB   C1D 1941   6.577  17.883  26.105 -0.3491  0.1554  0.2309
   81BOLB   C2D 1942   7.082  17.931  25.982  0.0711 -0.0360 -0.0785
   81BOLB   C3D 1943   7.187  18.075  25.558  0.1230 -0.1228 -0.0224
   81BOLB   C4D 1944   7.348  18.049  25.206 -0.0622  0.2595  0.3462
   82BOLB   NC1 1945   7.072  16.201  21.956 -0.0043 -0.0665 -0.2590
   82BOLB   PO1 1946   7.276  16.442  21.633 -0.2219  0.1119 -0.0923
   82BOLB   GL1 1947   7.003  16.722  21.392  0.2286 -0.3001  0.0875
   82BOLB   GL2 1948   6.707  16.503  21.543 -0.2948  0.0308  0.2795
   82BOLB   C1A 1949   6.503  16.937  21.346  0.0592  0.1670 -0.2212
   82BOLB   C2A 1950   6.226  17.204  21.277  0.1264 -0.3203  0.0997
   82BOLB   C3A 1951   5.884  17.322  21.193 -0.1368 -0.0622  0.1285
   82BOLB   C4A 1952   5.512  17.444  20.993 -0.1256 -0.0167  0.1824
   82BOLB   C1B 1953   6.193  16.604  21.660 -0.2448 -0.4915 -0.1422
   82BOLB   C2B 1954   5.873  16.889  21.481  0.1315 -0.1601  0.0287
   82BOLB   C3B 1955   5.534  17.050  21.465  0.1318  0.1390  0.1013
   82BOLB   C4B 1956   5.131  16.990  21.676 -0.1901 -0.3588 -0.0283
   82BOLB   NC2 1957   3.342  17.468  21.316  0.0538 -0.2368 -0.1810
   82BOLB   PO2 1958   3.294  17.903  21.272  0.0993  0.1450  0.0503
   82BOLB   GL3 1959   3.716  17.831  21.166  0.2775  0.0005 -0.0106
   82BOLB   GL4 1960   3.790  17.729  21.463  0.2163  0.0451 -0.0100
   82BOLB   C1C 1961   4.129  17.820  20.842 -0.3206  0.1569  0.2428
   82BOLB   C2C 1962   4.445  17.457  20.870  0.3126  0.3753 -0.1202
   82BOLB   C3C 1963   4.815  17.046  20.781  0.2559  0.1117  0.0239
   82BOLB   C4C 1964   5.262  17.276  20.703  0.2082 -0.0530 -0.0452
   82BOLB   C1D 1965   4.274  17.843  21.388 -0.0177 -0.3405  0.3401
   82BOLB   C2D 1966   4.676  17.745  21.205 -0.0526 -0.2644  0.2994
   82BOLB   C3D 1967   4.932  17.446  21.003 -0.0054 -0.4504  0.0235
   82BOLB   C4D 1968   5.123  17.068  21.181 -0.0920 -0.0188 -0.1267
   83BOLB   NC1 1969   3.403  16.432  22.574 -0.1398  0.0122 -0.0007
   83BOLB   PO1 1970   3.748  16.360  22.327  0.0778 -0.0651 -0.2001
   83BOLB   GL1 1971   4.186  16.467  22.246  0.1072  0.1031  0.0338
   83BOLB   GL2 1972   4.224  16.589  21.959  0.2509 -0.2639 -0.0151
   83BOLB   C1A 1973   4.476  16.264  22.509  0.0700  0.2232  0.1058
   83BOLB   C2A 1974   4.423  16.110  22.882 -0.3813  0.1108  0.2223
   83BOLB   C3A 1975   4.553  15.785  23.180  0.1338  0.0256 -0.2128
   83BOLB   C4A 1976   4.572  15.662  23.583  0.1448 -0.2200 -0.0166
   83BOLB   C1B 1977   4.381  16.198  21.597 -0.3226 -0.3235  0.0253
   83BOLB   C2B 1978   4.575  15.804  21.532  0.2112 -0.0145 -0.0978
   83BOLB   C3B 1979   4.587  15.515  21.179  0.1769  0.0137  0.2235
   83BOLB   C4B 1980   4.524  15.732  20.670 -0.0232  0.0703  0.1411
   83BOLB   NC2 1981   4.683  13.439  25.176  0.0630  0.0237 -0.2020
   83BOLB   PO2 1982   4.525  13.818  24.907  0.5498 -0.1129  0.1893
   83BOLB   GL3 1983   4.880  14.135  24.748 -0.0999  0.0126 -0.2046
   83BOLB   GL4 1984   5.080  14.067  24.861 -0.3004 -0.0510 -0.0676
   83BOLB   C1C 1985   5.137  14.554  24.731  0.2654 -0.0276  0.2310
   83BOLB   C2C 1986   5.136  14.830  24.300 -0.0461  0.5165 -0.0567
   83BOLB   C3C 1987   4.953  15.019  23.821 -0.0122  0.1976  0.0435
   83BOLB   C4C 1988   4.849  15.358  23.640  0.1762 -0.1969  0.2302
   83BOLB   C1D 1989   5.534  14.193  24.635 -0.0586  0.1116  0.3786
   83BOLB   C2D 1990   5.963  13.968  24.634  0.4244 -0.1809  0.1146
   83BOLB   C3D 1991   6.338  14.204  24.419 -0.0424 -0.0774 -0.0033
   83BOLB   C4D 1992   6.719  14.163  24.327 -0.3785 -0.2605 -0.1196
   84BOLB   NC1 1993   7.342  19.348  23.179 -0.0055  0.2974  0.0381
   84BOLB   PO1 1994   7.151  19.466  22.798  0.0114  0.1448 -0.1065
   84BOLB   GL1 1995   6.908  19.521  22.401  0.5080 -0.1715 -0.0252
   84BOLB   GL2 1996   6.707  19.680  22.553 -0.2327 -0.0205 -0.1615
   84BOLB   C1A 1997   6.455  19.295  22.153  0.2254 -0.1086  0.1960
   84BOLB   C2A 1998   6.234  18.941  22.173 -0.1862  0.0075  0.1489
   84BOLB   C3A 1999   6.029  18.660  22.445 -0.1484 -0.0371  0.2219
   84BOLB   C4A 2000   5.810  18.301  22.685  0.2142  0.3165  0.2285
   84BOLB   C1B 2001   6.404  19.832  22.281 -0.2556  0.2067  0.0397
   84BOLB   C2B 2002   6.298  19.705  21.887 -0.0785  0.1268 -0.1888
   84BOLB   C3B 2003   5.961  19.598  21.585 -0.0115 -0.2244 -0.3827
   84BOLB   C4B 2004   5.771  19.295  21.310  0.0360 -0.2654 -0.1036
   84BOLB   NC2 2005   3.823  18.099  24.399  0.3429  0.2328  0.0004
   84BOLB   PO2 2006   3.956  18.094  23.947  0.0574  0.0177  0.0876
   84BOLB   GL3 2007   4.251  18.056  23.559 -0.0823 -0.0808 -0.0878
   84BOLB   GL4 2008   4.097  17.943  23.231 -0.1661 -0.1390  0.3136
   84BOLB   C1C 2009   4.713  18.224  23.305  0.0866 -0.0217 -0.1489
   84BOLB   C2C 2010   5.001  18.044  23.302 -0.0487  0.2217 -0.2724
   84BOLB   C3C 2011   5.370  17.840  23.330  0.0374 -0.0390  0.1025
   84BOLB   C4C 2012   5.641  18.051  22.968 -0.2289  0.0621  0.0624
   84BOLB   C1D 2013   4.425  17.797  23.060 -0.3979  0.2291  0.0789
   84BOLB   C2D 2014   4.656  17.780  22.668  0.0091 -0.2248  0.1702
   84BOLB   C3D 2015   4.881  17.897  22.426 -0.1924  0.2890 -0.0456
   84BOLB   C4D 2016   5.217  17.605  22.298 -0.2158 -0.1370 -0.2512
   85BOLB   NC1 2017   5.282  12.395  22.230  0.1717  0.0998  0.1941
   85BOLB   PO1 2018   5.649  12.547  22.344 -0.2262 -0.1262 -0.3047
   85BOLB   GL1 2019   6.016  12.554  22.365 -0.0356  0.2064 -0.1593
   85BOLB   GL2 2020   6.091  12.238  22.414 -0.0480  0.0968  0.0064
   85BOLB   C1A 2021   6.514  12.555  22.403 -0.2709  0.1998  0.0059
   85BOLB   C2A 2022   6.839  12.686  22.638  0.1026  0.2945  0.0677
   85BOLB   C3A 2023   6.951  12.926  23.041 -0.0063 -0.1999  0.0901
   85BOLB   C4A 2024   7.133  12.874  23.436  0.1979 -0.0331 -0.1384
   85BOLB   C1B 2025   6.612  12.082  22.322  0.0643  0.0528 -0.1404
   85BOLB   C2B 2026   6.943  12.175  22.281 -0.1034  0.0214  0.4425
   85BOLB   C3B 2027   7.379  12.135  22.268 -0.3450 -0.0195  0.1450
   85BOLB   C4B 2028   7.709  12.336  22.279 -0.2261  0.1777  0.0047
   85BOLB   NC2 2029   6.342  12.778  25.894 -0.0932  0.0438 -0.0916
   85BOLB   PO2 2030   6.073  12.461  25.636 -0.2650 -0.1794  0.3115
   85BOLB   GL3 2031   6.375  12.496  25.384  0.0575  0.1284 -0.3309
   85BOLB   GL4 2032   6.605  12.559  25.567 -0.2981 -0.0639  0.3098
   85BOLB   C1C 2033   6.565  12.631  25.047 -0.0564  0.0890  0.3132
   85BOLB   C2C 2034   6.875  12.814  24.757  0.3986  0.2304 -0.1596
   85BOLB   C3C 2035   7.127  12.913  24.389 -0.2397 -0.1605  0.2942
   85BOLB   C4C 2036   7.217  13.016  23.864  0.1704 -0.0502  0.0939
   85BOLB   C1D 2037   6.921  12.824  25.264 -0.2156 -0.1779 -0.0002
   85BOLB   C2D 2038   7.273  13.096  25.175 -0.1072  0.0853  0.2706
   85BOLB   C3D 2039   7.365  13.546  25.221 -0.0628  0.1487 -0.1087
   85BOLB   C4D 2040   7.375  13.999  25.052 -0.1670  0.1857 -0.1084
   86BOLB   NC1 2041   6.767  14.358  22.079 -0.2779 -0.4181 -0.1490
   86BOLB   PO1 2042   6.679  13.917  21.935  0.1540 -0.1260 -0.2944
   86BOLB   GL1 2043   6.570  14.045  22.355  0.1997 -0.0943 -0.1343
   86BOLB   GL2 2044   6.202  13.998  22.465 -0.2985  0.2256  0.1509
   86BOLB   C1A 2045   6.611  14.056  22.799  0.1261 -0.1763 -0.0872
   86BOLB   C2A 2046   6.829  13.921  23.230 -0.0411  0.1137 -0.0320
   86BOLB   C3A 2047   7.088  13.978  23.578 -0.0604 -0.3269 -0.0548
   86BOLB   C4A 2048   7.022  13.912  24.069  0.2088 -0.0144  0.1382
   86BOLB   C1B 2049   6.127  14.320  22.715  0.1647 -0.1567  0.4758
   86BOLB   C2B 2050   5.935  14.533  23.002  0.1244 -0.3110 -0.1833
   86BOLB   C3B 2051   6.090  14.831  23.140 -0.1784  0.1596 -0.2506
   86BOLB   C4B 2052   6.267  15.117  23.499  0.1137  0.1194 -0.3123
   86BOLB   NC2 2053   6.457  12.792  26.701 -0.0996  0.0573 -0.0156
   86BOLB   PO2 2054   6.418  13.160  26.328  0.1203 -0.0283 -0.0314
   86BOLB   GL3 2055   6.546  13.296  25.984 -0.3093  0.2425  0.0188
   86BOLB   GL4 2056   6.759  13.495  26.099 -0.1283  0.0894  0.0978
   86BOLB   C1C 2057   6.581  13.245  25.523  0.1354 -0.1779 -0.2356
   86BOLB   C2C 2058   6.810  13.286  25.142  0.4504  0.1862  0.2116
   86BOLB   C3C 2059   7.053  13.436  24.745  0.1425  0.1283 -0.2237
   86BOLB   C4C 2060   6.969  13.808  24.512 -0.2037  0.0657 -0.1903
   86BOLB   C1D 2061   6.658  13.834  25.841  0.3234 -0.4166 -0.0309
   86BOLB   C2D 2062   6.740  14.165  25.570 -0.1903  0.0190 -0.2908
   86BOLB   C3D 2063   6.853  14.095  25.180 -0.3208  0.0949  0.2461
   86BOLB   C4D 2064   6.998  14.268  24.729  0.1681 -0.3409 -0.0476
   87BOLB   NC1 2065   4.347  14.203  21.713  0.1503  0.5148  0.1432
   87BOLB   PO1 2066   4.350  14.618  21.604 -0.0627  0.3804 -0.0173
   87BOLB   GL1 2067   4.706  15.068  21.630 -0.1414  0.2910 -0.2995
   87BOLB   GL2 2068   5.069  14.852  21.557  0.1839 -0.1794 -0.0735
   87BOLB   C1A 2069   5.023  15.364  21.477 -0.2332 -0.0380  0.2118
   87BOLB   C2A 2070   5.263  15.675  21.321  0.2411 -0.1734 -0.1565
   87BOLB   C3A 2071   5.360  16.091  21.449 -0.3458  0.0901 -0.1861
   87BOLB   C4A 2072   5.594  16.420  21.690  0.5286 -0.1416  0.1228
   87BOLB   C1B 2073   5.026  14.967  21.201 -0.1473 -0.4396 -0.1493
   87BOLB   C2B 2074   4.976  15.379  20.893 -0.0588  0.5234 -0.1134
   87BOLB   C3B 2075   5.013  15.706  20.821 -0.1523  0.0225 -0.1598
   87BOLB   C4B 2076   4.916  16.058  20.599 -0.0896  0.0887  0.2246
   87BOLB   NC2 2077   3.889  17.573  22.700  0.2543 -0.2433  0.1867
   87BOLB   PO2 2078   3.709  17.369  22.311 -0.3933  0.1832 -0.3540
   87BOLB   GL3 2079   4.131  17.173  22.085  0.0519  0.3430 -0.1304
   87BOLB   GL4 2080   4.076  17.159  21.745  0.2592 -0.0785 -0.1310
   87BOLB   C1C 2081   4.543  17.001  21.927 -0.1292  0.4828  0.1429
   87BOLB   C2C 2082   4.952  17.210  22.063 -0.0262  0.2066  0.0403
   87BOLB   C3C 2083   5.454  17.194  22.027  0.1272 -0.0628 -0.1469
   87BOLB   C4C 2084   5.699  16.830  21.952 -0.2129 -0.2472 -0.0715
   87BOLB   C1D 2085   4.487  17.459  21.684 -0.0207 -0.0372  0.1174
   87BOLB   C2D 2086   4.865  17.381  21.573  0.1118  0.2970 -0.2317
   87BOLB   C3D 2087   5.288  17.537  21.432 -0.1754  0.2094 -0.2029
   87BOLB   C4D 2088   5.581  17.665  21.824  0.3113  0.3654 -0.0287
   88BOLB   NC1 2089   8.437  14.700  22.921 -0.0674  0.2434  0.1408
   88BOLB   PO1 2090   8.533  14.353  22.954  0.1439 -0.0785 -0.0225
   88BOLB   GL1 2091   8.376  14.246  23.337  0.0434 -0.1313  0.3339
   88BOLB   GL2 2092   8.174  13.987  23.227  0.0519 -0.1489  0.0429
   88BOLB   C1A 2093   8.183  14.044  23.723 -0.2485 -0.3668  0.1307
   88BOLB   C2A 2094   8.105  14.127  24.134  0.2369  0.1434  0.0747
   88BOLB   C3A 2095   7.951  14.186  24.577 -0.2139 -0.0634 -0.3220
   88BOLB   C4A 2096   7.883  13.983  24.944  0.0719  0.2524 -0.0815
   88BOLB   C1B 2097   7.844  14.197  23.301 -0.2641  0.2549  0.0591
   88BOLB   C2B 2098   7.422  14.375  23.312 -0.0289 -0.2839 -0.1865
   88BOLB   C3B 2099   7.210  14.487  23.709 -0.3220  0.0386 -0.1065
   88BOLB   C4B 2100   6.849  14.400  23.792 -0.2219 -0.1085 -0.0680
   88BOLB   NC2 2101   7.457  12.632  27.092 -0.0631  0.2410 -0.2414
   88BOLB   PO2 2102   7.400  13.046  26.907  0.0721 -0.0494  0.0498
   88BOLB   GL3 2103   7.608  13.212  26.527 -0.2091 -0.1491 -0.2118
   88BOLB   GL4 2104   7.659  13.652  26.445 -0.0493 -0.0966 -0.0920
   88BOLB   C1C 2105   7.695  13.023  26.193  0.1752 -0.3928 -0.2217
   88BOLB   C2C 2106   7.900  13.220  25.956  0.1023  0.3637  0.2741
   88BOLB   C3C 2107   8.095  13.424  25.674  0.0484  0.0170 -0.1921
   88BOLB   C4C 2108   7.987  13.593  25.313 -0.1812 -0.1242 -0.0661
   88BOLB   C1D 2109   7.807  14.120  26.620 -0.0658 -0.0684 -0.0330
   88BOLB   C2D 2110   8.006  14.413  26.787 -0.3106 -0.1268  0.2059
   88BOLB   C3D 2111   8.326  14.555  26.500  0.1800  0.0844  0.0004
   88BOLB   C4D 2112   8.434  14.903  26.162 -0.2268  0.0719 -0.0079
   89BOLB   NC1 2113   3.434  20.411  19.565  0.0248  0.4253 -0.2145
   89BOLB   PO1 2114   3.338  20.326  19.929  0.0674  0.5378  0.2375
   89BOLB   GL1 2115   3.778  20.143  20.113  0.1526 -0.0558  0.2249
   89BOLB   GL2 2116   3.981  20.129  19.758  0.1816  0.2549 -0.3420
   89BOLB   C1A 2117   4.209  20.070  20.271 -0.0969 -0.3089  0.2641
   89BOLB   C2A 2118   4.429  19.751  20.069  0.0636 -0.1006  0.1249
   89BOLB   C3A 2119   4.519  19.284  19.964 -0.2656  0.0389 -0.1756
   89BOLB   C4A 2120   4.552  19.029  19.769  0.0320 -0.0927 -0.0081
   89BOLB   C1B 2121   4.315  20.041  19.535  0.0591  0.0022 -0.1954
   89BOLB   C2B 2122   4.591  20.047  19.153  0.3629  0.1093  0.0012
   89BOLB   C3B 2123   4.474  19.928  18.711 -0.0693 -0.0883 -0.0436
   89BOLB   C4B 2124   4.149  19.884  18.314 -0.0674  0.0763 -0.2841
   89BOLB   NC2 2125   2.288  19.119  18.463 -0.4118  0.5866  0.1871
   89BOLB   PO2 2126   2.623  19.292  18.700 -0.1844  0.0482 -0.3399
   89BOLB   GL3 2127   3.086  19.038  18.723 -0.1097 -0.1291  0.2791
   89BOLB   GL4 2128   3.379  19.187  18.608 -0.1642 -0.1949  0.2572
   89BOLB   C1C 2129   3.278  18.674  18.875  0.1497  0.1318  0.0091
   89BOLB   C2C 2130   3.444  18.432  19.246 -0.3496 -0.2727 -0.2726
   89BOLB   C3C 2131   3.876  18.570  19.289 -0.0177 -0.2126  0.0492
   89BOLB   C4C 2132   4.246  18.745  19.595  0.1609  0.1469  0.1041
   89BOLB   C1D 2133   3.659  18.842  18.531 -0.0986  0.0344  0.0209
   89BOLB   C2D 2134   3.652  18.518  18.223  0.0207  0.1257  0.1070
   89BOLB   C3D 2135   3.847  18.646  17.800 -0.2088  0.2223  0.2400
   89BOLB   C4D 2136   4.171  18.494  17.597 -0.2044  0.3452  0.0896
   90BOLB   NC1 2137   9.661  13.123  22.603  0.2698  0.3209 -0.0886
   90BOLB   PO1 2138   9.296  12.772  22.489  0.1180  0.1498  0.0519
   90BOLB   GL1 2139   9.036  12.559  22.508 -0.1628  0.0717  0.0463
   90BOLB   GL2 2140   8.728  12.569  22.316  0.1743 -0.2975 -0.0120
   90BOLB   C1A 2141   8.544  12.472  22.754 -0.0690  0.0654 -0.2473
   90BOLB   C2A 2142   8.289  12.262  23.028 -0.0384 -0.0790  0.2965
   90BOLB   C3A 2143   8.293  12.023  23.403  0.0785 -0.0979 -0.3173
   90BOLB   C4A 2144   8.187  11.716  23.791 -0.1449  0.1065  0.3976
   90BOLB   C1B 2145   8.564  12.172  22.032  0.0558  0.2530  0.2384
   90BOLB   C2B 2146   8.663  11.837  21.788 -0.3696  0.1641 -0.1133
   90BOLB   C3B 2147   8.563  11.625  21.491  0.1246  0.2309  0.3668
   90BOLB   C4B 2148   8.654  11.142  21.377  0.3663  0.1116 -0.3037
   90BOLB   NC2 2149   7.880  10.171  25.255 -0.0010  0.1237 -0.0853
   90BOLB   PO2 2150   8.330  10.319  25.491  0.3053 -0.0428  0.2617
   90BOLB   GL3 2151   8.377  10.711  25.536 -0.2291  0.0038  0.3600
   90BOLB   GL4 2152   8.615  10.749  25.831  0.0267 -0.2492  0.0940
   90BOLB   C1C 2153   8.671  10.999  25.227  0.3163  0.2213  0.3877
   90BOLB   C2C 2154   8.770  11.102  24.768  0.0715  0.0352  0.4447
   90BOLB   C3C 2155   8.762  11.205  24.270  0.2145 -0.0721 -0.5868
   90BOLB   C4C 2156   8.534  11.365  23.940  0.1907 -0.4753 -0.2087
   90BOLB   C1D 2157   8.972  11.070  25.704 -0.0505  0.1784 -0.1399
   90BOLB   C2D 2158   9.180  11.064  25.348  0.0134  0.0454  0.1518
   90BOLB   C3D 2159   9.279  10.945  24.913  0.1370  0.0552 -0.0042
   90BOLB   C4D 2160   9.322  10.624  24.864  0.1611  0.1275 -0.4095
   91BOLB   NC1 2161   5.698  21.383  23.691  0.3437  0.0600 -0.1363
   91BOLB   PO1 2162   5.520  21.523  24.081 -0.1726 -0.1682  0.1227
   91BOLB   GL1 2163   5.605  21.134  24.125  0.0011  0.1417  0.0734
   91BOLB   GL2 2164   5.923  21.123  24.308 -0.5863 -0.1591  0.2357
   91BOLB   C1A 2165   5.591  20.865  24.392  0.0510 -0.2587  0.0932
   91BOLB   C2A 2166   5.844  20.496  24.449 -0.1157 -0.0304  0.0089
   91BOLB   C3A 2167   6.152  20.139  24.349 -0.0288 -0.1802 -0.0661
   91BOLB   C4A 2168   5.999  19.891  24.666 -0.0919  0.1295 -0.0022
   91BOLB   C1B 2169   6.257  20.817  24.343  0.2588  0.0369 -0.1516
   91BOLB   C2B 2170   6.489  20.551  24.642  0.1813 -0.0007 -0.0842
   91BOLB   C3B 2171   6.539  20.141  24.632  0.0476  0.1019  0.1108
   91BOLB   C4B 2172   6.518  19.706  24.644 -0.0496 -0.0286  0.0069
   91BOLB   NC2 2173   4.873  18.571  26.989  0.1619  0.2494 -0.0907
   91BOLB   PO2 2174   5.173  18.829  26.711 -0.1012  0.2981 -0.2379
   91BOLB   GL3 2175   5.435  19.256  26.424 -0.0447 -0.0869  0.0844
   91BOLB   GL4 2176   5.500  19.435  26.587 -0.1963  0.1112 -0.1166
   91BOLB   C1C 2177   5.626  19.269  25.976  0.1210  0.0205  0.3480
   91BOLB   C2C 2178   5.747  19.107  25.532  0.0907  0.1216 -0.0184
   91BOLB   C3C 2179   5.961  19.294  25.271 -0.0497  0.1915 -0.0687
   91BOLB   C4C 2180   6.068  19.620  25.072  0.0795 -0.1592  0.2377
   91BOLB   C1D 2181   5.725  19.781  26.557 -0.5096  0.1563 -0.0063
   91BOLB   C2D 2182   5.939  20.045  26.543  0.1935 -0.1351 -0.0896
   91BOLB   C3D 2183   6.219  20.063  26.237  0.0227  0.2864 -0.1075
   91BOLB   C4D 2184   6.501  20.305  26.193 -0.2224  0.0262 -0.2252
   92BOLB   NC1 2185   8.966   8.495  23.909 -0.5598  0.0536 -0.0569
   92BOLB   PO1 2186   8.746   8.488  23.468  0.1845 -0.0039 -0.0399
   92BOLB   GL1 2187   8.992   8.835  23.580 -0.1747 -0.1239  0.2702
   92BOLB   GL2 2188   8.948   9.002  23.366  0.1366 -0.3066  0.0791
   92BOLB   C1A 2189   9.188   9.142  23.870 -0.0591  0.1145  0.0580
   92BOLB   C2A 2190   9.380   9.367  24.217  0.1160  0.0027  0.1405
   92BOLB   C3A 2191   9.486   9.699  24.335 -0.2124 -0.6385  0.0029
   92BOLB   C4A 2192   9.655  10.103  24.279 -0.0964  0.1260 -0.0990
   92BOLB   C1B 2193   9.023   9.465  23.339  0.2586 -0.3163 -0.3119
   92BOLB   C2B 2194   8.999   9.860  23.201  0.1450  0.0921 -0.0794
   92BOLB   C3B 2195   8.902   9.973  22.808  0.0288 -0.1214  0.2163
   92BOLB   C4B 2196   8.834  10.265  22.424  0.2019 -0.0227 -0.2073
   92BOLB   NC2 2197   9.061  10.670  26.728  0.1341 -0.1157 -0.2447
   92BOLB   PO2 2198   9.123  10.300  26.412  0.1208  0.3092 -0.2431
   92BOLB   GL3 2199   9.424  10.160  26.119  0.1529  0.0919 -0.1753
   92BOLB   GL4 2200   9.587   9.935  26.216  0.0143  0.2260  0.1084
   92BOLB   C1C 2201   9.457  10.285  25.688 -0.0649  0.1235 -0.1212
   92BOLB   C2C 2202   9.624  10.730  25.316  0.3155 -0.0279 -0.0374
   92BOLB   C3C 2203   9.784  10.811  24.846 -0.0188 -0.0670 -0.2508
   92BOLB   C4C 2204   9.817  10.474  24.506  0.0880 -0.4298  0.0178
   92BOLB   C1D 2205   9.887   9.894  25.855 -0.0944 -0.0112  0.0823
   92BOLB   C2D 2206  10.303   9.957  25.531  0.0844 -0.1588  0.0471
   92BOLB   C3D 2207  10.551  10.125  25.234 -0.2052 -0.2422  0.0902
   92BOLB   C4D 2208  10.600  10.103  24.754  0.0663  0.1715 -0.0353
   93BOLB   NC1 2209   8.015  15.361  22.422 -0.1416 -0.3044  0.0395
   93BOLB   PO1 2210   7.933  15.666  22.697 -0.0509 -0.0671  0.0574
   93BOLB   GL1 2211   7.742  15.529  23.085  0.1509  0.3235 -0.0569
   93BOLB   GL2 2212   7.937  15.406  23.230 -0.0346 -0.0284 -0.2225
   93BOLB   C1A 2213   7.413  15.434  23.366  0.1633  0.0763 -0.3335
   93BOLB   C2A 2214   7.135  15.044  23.558  0.0780 -0.1069  0.2483
   93BOLB   C3A 2215   6.955  14.907  23.902  0.2313 -0.0399  0.0102
   93BOLB   C4A 2216   6.787  14.778  24.267 -0.1100  0.2481  0.0943
   93BOLB   C1B 2217   7.763  15.259  23.690 -0.0732  0.3367  0.1338
   93BOLB   C2B 2218   7.675  15.359  24.017 -0.3374 -0.0974 -0.1211
   93BOLB   C3B 2219   7.324  15.271  24.224 -0.1000  0.2275 -0.1091
   93BOLB   C4B 2220   6.842  15.281  24.157  0.0008  0.1493  0.0818
   93BOLB   NC2 2221   5.721  14.450  26.175 -0.5499  0.0300  0.0956
   93BOLB   PO2 2222   6.179  14.274  26.449 -0.1902  0.0733  0.1323
   93BOLB   GL3 2223   6.261  14.605  26.205  0.0859 -0.1073 -0.3673
   93BOLB   GL4 2224   6.114  14.666  25.946 -0.0631  0.2242  0.0563
   93BOLB   C1C 2225   6.627  14.540  25.952 -0.0453  0.1512 -0.0435
   93BOLB   C2C 2226   6.697  14.655  25.530 -0.1122  0.0878 -0.2013
   93BOLB   C3C 2227   6.752  14.633  25.177 -0.2427 -0.0131  0.2750
   93BOLB   C4C 2228   6.874  14.732  24.672 -0.1412 -0.1093  0.1209
   93BOLB   C1D 2229   6.036  14.613  25.535  0.4628  0.1001 -0.2741
   93BOLB   C2D 2230   6.214  14.758  25.137  0.2879  0.1266 -0.0618
   93BOLB   C3D 2231   6.427  15.137  25.021  0.0553 -0.0497  0.1770
   93BOLB   C4D 2232   6.691  15.174  24.642  0.1688 -0.0836 -0.1442
   94BOLB   NC1 2233   8.404  18.458  23.869  0.0996 -0.0336  0.1256
   94BOLB   PO1 2234   8.379  18.168  23.606 -0.0076 -0.0417  0.0424
   94BOLB   GL1 2235   8.335  17.886  23.972  0.0333  0.3811  0.0706
   94BOLB   GL2 2236   8.298  17.576  23.882  0.0015  0.3488 -0.0153
   94BOLB   C1A 2237   8.453  17.879  24.423  0.0289  0.0517  0.0859
   94BOLB   C2A 2238   8.406  17.626  24.756 -0.0678 -0.3113 -0.4998
   94BOLB   C3A 2239   8.654  17.460  25.202  0.0838 -0.1255 -0.4253
   94BOLB   C4A 2240   8.596  17.460  25.765  0.2445  0.2722  0.2990
   94BOLB   C1B 2241   7.865  17.281  23.936 -0.1439 -0.2486  0.1767
   94BOLB   C2B 2242   7.562  17.137  24.149 -0.1949  0.2204 -0.1444
   94BOLB   C3B 2243   7.133  17.029  24.275  0.1285 -0.2488  0.1428
   94BOLB   C4B 2244   6.796  16.738  24.230  0.4217 -0.0170 -0.2341
   94BOLB   NC2 2245   6.965  16.574  27.706  0.1841 -0.1854 -0.2096
   94BOLB   PO2 2246   7.151  16.951  27.887 -0.1999  0.2872 -0.0934
   94BOLB   GL3 2247   7.414  16.924  27.466  0.0729  0.3122  0.1138
   94BOLB   GL4 2248   7.775  16.843  27.457  0.0375 -0.0225  0.1297
   94BOLB   C1C 2249   7.532  17.115  27.128  0.2978 -0.0935 -0.1837
   94BOLB   C2C 2250   7.734  17.193  26.649  0.0811 -0.2364 -0.1180
   94BOLB   C3C 2251   8.080  17.346  26.366  0.1574 -0.1473 -0.2209
   94BOLB   C4C 2252   8.382  17.449  26.212 -0.1534 -0.0515 -0.1505
   94BOLB   C1D 2253   7.955  16.767  26.983  0.0256 -0.0514  0.1827
   94BOLB   C2D 2254   8.190  16.910  26.792 -0.0432  0.0265  0.1640
   94BOLB   C3D 2255   8.315  16.928  26.434 -0.0138  0.0011  0.4351
   94BOLB   C4D 2256   8.153  17.094  25.909 -0.0136 -0.1691  0.1673
   95BOLB   NC1 2257   7.055  17.083  22.122  0.2552  0.1327 -0.0063
   95BOLB   PO1 2258   6.954  16.760  21.914 -0.3390  0.3399 -0.0320
   95BOLB   GL1 2259   6.631  16.964  21.958 -0.0254 -0.2763 -0.4055
   95BOLB   GL2 2260   6.601  17.294  22.136 -0.2689  0.0372 -0.1980
   95BOLB   C1A 2261   6.216  17.100  21.866 -0.0661 -0.1025 -0.0401
   95BOLB   C2A 2262   5.919  17.336  21.733 -0.2987  0.1383 -0.0965
   95BOLB   C3A 2263   5.924  17.721  21.485  0.0987  0.3152 -0.1660
   95BOLB   C4A 2264   5.595  18.019  21.274 -0.1164 -0.0575  0.4034
   95BOLB   C1B 2265   6.375  17.407  22.431  0.1170 -0.1398  0.4539
   95BOLB   C2B 2266   6.167  17.853  22.567 -0.2595  0.2329  0.0028
   95BOLB   C3B 2267   6.153  18.205  22.256  0.0701 -0.1109 -0.1322
   95BOLB   C4B 2268   6.064  18.506  21.932 -0.2548 -0.1492 -0.0238
   95BOLB   NC2 2269   3.086  17.791  20.824 -0.0120 -0.0967  0.1880
   95BOLB   PO2 2270   3.461  17.641  20.814  0.3103 -0.2538  0.0296
   95BOLB   GL3 2271   3.778  17.697  20.547 -0.0454  0.0214  0.2542
   95BOLB   GL4 2272   3.678  17.799  20.186  0.1215 -0.1647 -0.0813
   95BOLB   C1C 2273   4.213  17.683  20.342  0.0916  0.1082  0.2687
   95BOLB   C2C 2274   4.520  17.874  20.480 -0.0388 -0.2281  0.0756
   95BOLB   C3C 2275   4.867  17.933  20.639 -0.2436  0.1222  0.0513
   95BOLB   C4C 2276   5.228  17.844  20.944 -0.1257  0.1729 -0.0791
   95BOLB   C1D 2277   3.702  18.223  20.127  0.0676 -0.2219 -0.1208
   95BOLB   C2D 2278   3.782  18.644  19.913 -0.2739  0.2371 -0.5060
   95BOLB   C3D 2279   3.587  18.884  19.522 -0.1205  0.2440 -0.0220
   95BOLB   C4D 2280   3.581  19.017  19.082 -0.1238 -0.1014  0.2836
   96BOLB   NC1 2281   6.808  22.437  23.585 -0.2868  0.1487  0.0213
   96BOLB   PO1 2282   6.941  22.522  23.984 -0.1252  0.1410 -0.1506
   96BOLB   GL1 2283   6.958  22.368  24.321 -0.3651 -0.0183 -0.2701
   96BOLB   GL2 2284   6.748  22.196  24.431 -0.1966  0.0333  0.2272
   96BOLB   C1A 2285   7.179  22.093  24.631 -0.0133  0.1858  0.2777
   96BOLB   C2A 2286   7.284  21.990  24.996  0.4241  0.0756 -0.3854
   96BOLB   C3A 2287   7.725  22.212  25.214  0.2755  0.0281 -0.2052
   96BOLB   C4A 2288   8.106  22.393  25.446  0.1708 -0.1865 -0.1490
   96BOLB   C1B 2289   6.782  22.272  24.919  0.2989  0.0346 -0.2089
   96BOLB   C2B 2290   6.901  22.190  25.372 -0.1911 -0.3172 -0.3553
   96BOLB   C3B 2291   7.298  22.335  25.531 -0.1984  0.0601 -0.1614
   96BOLB   C4B 2292   7.606  22.468  25.675 -0.0777 -0.0457 -0.0426
   96BOLB   NC2 2293   6.330  22.848  26.878 -0.1835  0.2580  0.1697
   96BOLB   PO2 2294   6.727  22.974  27.098  0.0860 -0.0956  0.1049
   96BOLB   GL3 2295   6.792  22.878  26.673  0.1036  0.0185 -0.2316
   96BOLB   GL4 2296   7.064  22.978  26.650 -0.0991 -0.0605 -0.0370
   96BOLB   C1C 2297   7.160  22.556  26.515 -0.1012 -0.1215  0.1223
   96BOLB   C2C 2298   7.568  22.547  26.407 -0.3029 -0.2256 -0.1842
   96BOLB   C3C 2299   7.840  22.417  26.169  0.2550 -0.1128 -0.1761
   96BOLB   C4C 2300   8.116  22.508  25.820 -0.1340  0.0869 -0.2766
   96BOLB   C1D 2301   7.245  23.378  26.710 -0.0979  0.0804 -0.0242
   96BOLB   C2D 2302   7.536  23.663  26.483  0.0541 -0.0285 -0.0153
   96BOLB   C3D 2303   7.774  24.049  26.255 -0.2326  0.0003 -0.1394
   96BOLB   C4D 2304   8.084  24.092  26.025  0.0940 -0.0872 -0.2669
   97BOLB   NC1 2305   5.447  13.263  21.272 -0.0901 -0.0124 -0.0369
   97BOLB   PO1 2306   5.821  13.020  21.441 -0.0309  0.1249  0.2455
   97BOLB   GL1 2307   6.102  12.935  21.719  0.1243  0.0880 -0.2785
   97BOLB   GL2 2308   6.151  12.558  21.841  0.4330  0.1740  0.2953
   97BOLB   C1A 2309   6.363  12.955  22.136  0.2015 -0.1778  0.2610
   97BOLB   C2A 2310   6.845  12.753  22.093 -0.0956 -0.0618  0.0581
   97BOLB   C3A 2311   7.238  12.630  22.283  0.0978  0.3206  0.2330
   97BOLB   C4A 2312   7.290  12.494  22.641  0.0198  0.1168  0.2222
   97BOLB   C1B 2313   6.511  12.758  21.604  0.0742 -0.2383 -0.4174
   97BOLB   C2B 2314   6.890  13.050  21.577 -0.1197 -0.0179  0.0542
   97BOLB   C3B 2315   7.288  13.104  21.286 -0.2450 -0.0747 -0.0564
   97BOLB   C4B 2316   7.690  13.018  21.235 -0.1495 -0.2301  0.0425
   97BOLB   NC2 2317   6.751   9.784  23.486  0.2438  0.0468  0.1545
   97BOLB   PO2 2318   6.779  10.100  23.273 -0.0374 -0.0935 -0.0461
   97BOLB   GL3 2319   6.958  10.452  23.148 -0.1705 -0.0946 -0.0622
   97BOLB   GL4 2320   7.309  10.520  23.343 -0.0658 -0.2649  0.2164
   97BOLB   C1C 2321   7.284  10.886  22.964  0.3013  0.0097  0.0593
   97BOLB   C2C 2322   7.187  11.320  22.910 -0.0911  0.0966  0.0129
   97BOLB   C3C 2323   7.429  11.636  22.895 -0.1727 -0.1981 -0.1116
   97BOLB   C4C 2324   7.405  12.058  22.781 -0.4097  0.0712  0.0797
   97BOLB   C1D 2325   7.684  10.882  23.443 -0.1431 -0.0941 -0.0012
   97BOLB   C2D 2326   7.975  11.251  23.487 -0.1112 -0.0712 -0.1505
   97BOLB   C3D 2327   8.428  11.471  23.455  0.0355 -0.1748 -0.1381
   97BOLB   C4D 2328   8.808  11.723  23.618 -0.5478  0.1442 -0.2578
   98BOLB   NC1 2329   7.821  26.092  24.088 -0.4470  0.1605 -0.0729
   98BOLB   PO1 2330   8.233  25.942  24.101  0.2423 -0.0806  0.1692
   98BOLB   GL1 2331   8.578  25.714  24.161  0.1224 -0.2615 -0.2866
   98BOLB   GL2 2332   8.732  25.818  23.909 -0.2794  0.3226  0.0070
   98BOLB   C1A 2333   8.590  25.418  24.363 -0.2385 -0.2004 -0.2212
   98BOLB   C2A 2334   8.589  25.040  24.437 -0.2276 -0.0123  0.1118
   98BOLB   C3A 2335   8.824  24.680  24.676 -0.0029  0.0658 -0.2475
   98BOLB   C4A 2336   9.013  24.375  24.906  0.1571  0.1603  0.2840
   98BOLB   C1B 2337   9.029  25.407  23.900  0.1915 -0.1491  0.1410
   98BOLB   C2B 2338   9.038  25.152  24.236 -0.1809 -0.0602 -0.1688
   98BOLB   C3B 2339   9.105  25.056  24.577  0.0583 -0.2057  0.1504
   98BOLB   C4B 2340   9.224  24.947  24.911 -0.0894  0.0052 -0.0275
   98BOLB   NC2 2341   9.042  26.232  26.035  0.3551  0.0418  0.1020
   98BOLB   PO2 2342   9.017  25.851  26.212  0.2216  0.2418  0.0766
   98BOLB   GL3 2343   9.321  25.583  26.050 -0.2399  0.1787  0.3406
   98BOLB   GL4 2344   9.472  25.744  25.733 -0.0150 -0.0424 -0.0453
   98BOLB   C1C 2345   9.636  25.274  26.000 -0.1911 -0.1827 -0.0486
   98BOLB   C2C 2346   9.691  24.971  25.777 -0.0996  0.0355 -0.0360
   98BOLB   C3C 2347   9.478  24.687  25.518  0.0779  0.1636  0.0447
   98BOLB   C4C 2348   9.291  24.471  25.255  0.2109  0.0449 -0.1295
   98BOLB   C1D 2349   9.511  25.380  25.464 -0.2470 -0.2222  0.0161
   98BOLB   C2D 2350   9.665  24.983  25.158  0.4462 -0.3463 -0.1930
   98BOLB   C3D 2351   9.726  24.706  24.817 -0.0482  0.1342  0.0811
   98BOLB   C4D 2352  10.108  24.633  24.597  0.2362  0.2972 -0.0414
   99BOLB   NC1 2353   7.776  21.967  23.503  0.1417 -0.2555  0.1385
   99BOLB   PO1 2354   8.148  21.739  23.388 -0.1601 -0.1283 -0.0520
   99BOLB   GL1 2355   8.021  21.724  23.819 -0.1429 -0.0260  0.0009
   99BOLB   GL2 2356   7.742  21.875  23.975 -0.0339 -0.0105 -0.1351
   99BOLB   C1A 2357   8.182  21.519  24.172  0.0773  0.1736  0.1047
   99BOLB   C2A 2358   8.221  21.131  24.347 -0.2220  0.0064  0.1649
   99BOLB   C3A 2359   8.409  21.154  24.677  0.1322  0.1795 -0.0609
   99BOLB   C4A 2360   8.322  20.912  25.044  0.1090 -0.1457  0.0454
   99BOLB   C1B 2361   7.539  22.203  24.306  0.0753  0.1288 -0.4560
   99BOLB   C2B 2362   7.674  22.222  24.704 -0.1462 -0.2633  0.2770
   99BOLB   C3B 2363   7.822  22.627  24.843 -0.0897 -0.0013 -0.1311
   99BOLB   C4B 2364   7.792  23.030  24.646  0.0051  0.2313  0.1178
   99BOLB   NC2 2365   6.954  21.255  27.362  0.1081 -0.1291 -0.1974
   99BOLB   PO2 2366   7.299  21.148  27.238  0.1279 -0.0197 -0.2047
   99BOLB   GL3 2367   7.676  21.100  26.942 -0.0781  0.1160  0.1715
   99BOLB   GL4 2368   7.968  20.930  27.041  0.4143 -0.3067 -0.0872
   99BOLB   C1C 2369   7.709  21.203  26.558  0.2795  0.1281  0.0444
   99BOLB   C2C 2370   7.836  21.174  26.244  0.1560 -0.1385  0.1838
   99BOLB   C3C 2371   8.100  21.072  25.849 -0.0117 -0.3264 -0.0163
   99BOLB   C4C 2372   8.058  20.865  25.432 -0.3688  0.1518  0.0202
   99BOLB   C1D 2373   8.320  20.847  26.903 -0.0802 -0.0473 -0.0413
   99BOLB   C2D 2374   8.532  20.586  26.560  0.0986  0.1171  0.0123
   99BOLB   C3D 2375   8.998  20.404  26.387  0.2220 -0.5260  0.1759
   99BOLB   C4D 2376   8.998  20.115  26.058 -0.0669  0.4030 -0.2708
  100BOLB   NC1 2377   8.667  16.545  23.134 -0.4634  0.1619 -0.2720
  100BOLB   PO1 2378   8.503  16.127  23.154  0.0415 -0.2338 -0.0232
  100BOLB   GL1 2379   8.288  16.290  23.449  0.1410  0.0452  0.1229
  100BOLB   GL2 2380   7.994  16.321  23.352 -0.1542 -0.1560  0.0703
  100BOLB   C1A 2381   8.082  16.273  23.811 -0.1186 -0.2881  0.0570
  100BOLB   C2A 2382   7.698  16.224  24.047  0.1266 -0.2315  0.0448
  100BOLB   C3A 2383   7.512  16.225  24.529 -0.0349  0.0219 -0.0429
  100BOLB   C4A 2384   7.240  15.972  24.825 -0.0847  0.1269  0.2907
  100BOLB   C1B 2385   7.627  16.447  23.567 -0.1359 -0.0400  0.0590
  100BOLB   C2B 2386   7.359  16.268  23.711 -0.0206 -0.4224 -0.1342
  100BOLB   C3B 2387   7.188  15.973  23.894  0.1627  0.3916 -0.2063
  100BOLB   C4B 2388   7.083  15.586  23.753 -0.1166 -0.1062 -0.1011
  100BOLB   NC2 2389   5.709  15.460  26.280 -0.1216  0.0559  0.1269
  100BOLB   PO2 2390   5.865  15.622  26.682  0.1197 -0.0116  0.0994
  100BOLB   GL3 2391   6.098  15.866  26.413 -0.1808 -0.1593  0.0440
  100BOLB   GL4 2392   5.849  15.921  26.103 -0.1718 -0.0160 -0.1997
  100BOLB   C1C 2393   6.265  15.655  26.038  0.1847 -0.2148  0.1900
  100BOLB   C2C 2394   6.574  15.568  25.642  0.2489 -0.0124 -0.4470
  100BOLB   C3C 2395   6.783  15.368  25.283  0.1304  0.0949  0.2703
  100BOLB   C4C 2396   6.972  15.581  24.867  0.3061  0.1005 -0.4361
  100BOLB   C1D 2397   6.013  16.018  25.699  0.0931  0.0611 -0.0652
  100BOLB   C2D 2398   6.322  15.925  25.462 -0.1148 -0.0069 -0.0369
  100BOLB   C3D 2399   6.590  16.184  25.306 -0.1198 -0.0692  0.0680
  100BOLB   C4D 2400   7.005  16.338  25.148 -0.1634  0.2449 -0.1870
  101BOLB   NC1 2401   8.954  13.656  22.657 -0.2038 -0.0595  0.0240
  101BOLB   PO1 2402   8.685  13.466  22.864  0.1654  0.1795  0.2569
  101BOLB   GL1 2403   8.404  13.230  22.682  0.0939 -0.3378 -0.1164
  101BOLB   GL2 2404   8.439  12.989  22.537  0.0251 -0.2109  0.2986
  101BOLB   C1A 2405   8.217  12.912  22.916 -0.1108 -0.2327  0.0436
  101BOLB   C2A 2406   7.921  12.871  23.190 -0.1425 -0.0220  0.4443
  101BOLB   C3A 2407   8.054  12.987  23.578 -0.0688 -0.0534 -0.0391
  101BOLB   C4A 2408   7.872  13.182  23.965  0.1895 -0.1710  0.0614
  101BOLB   C1B 2409   8.218  12.690  22.352  0.1295 -0.3281  0.0799
  101BOLB   C2B 2410   8.144  12.395  22.008  0.2981 -0.0414 -0.2352
  101BOLB   C3B 2411   8.267  12.174  21.571  0.0590  0.1504 -0.2196
  101BOLB   C4B 2412   8.324  12.169  21.139  0.0899 -0.0858 -0.2126
  101BOLB   NC2 2413   6.968  12.050  26.167  0.1582 -0.0387 -0.1897
  101BOLB   PO2 2414   6.908  12.354  25.973 -0.0591 -0.1102 -0.0463
  101BOLB   GL3 2415   7.128  12.396  25.581 -0.0033  0.3242 -0.1782
  101BOLB   GL4 2416   7.214  12.095  25.646  0.2102  0.2526 -0.2633
  101BOLB   C1C 2417   7.272  12.523  25.242 -0.1563 -0.3879 -0.2640
  101BOLB   C2C 2418   7.578  12.755  24.899  0.0901  0.0050 -0.1289
  101BOLB   C3C 2419   7.558  13.023  24.660  0.1301  0.0288  0.0583
  101BOLB   C4C 2420   7.577  13.075  24.219  0.0176  0.0675  0.4198
  101BOLB   C1D 2421   7.635  12.261  25.606 -0.0082 -0.0339 -0.2377
  101BOLB   C2D 2422   7.789  12.613  25.490  0.0391  0.1439  0.1702
  101BOLB   C3D 2423   8.144  12.722  25.144  0.1189  0.3413 -0.2584
  101BOLB   C4D 2424   7.997  12.805  24.663  0.3773  0.0012  0.0117
  102BOLB   NC1 2425   8.267  20.302  23.658 -0.0359  0.0675 -0.1010
  102BOLB   PO1 2426   7.919  20.497  23.364 -0.2282  0.0178  0.1003
  102BOLB   GL1 2427   7.705  20.472  23.700  0.0565  0.1866 -0.0758
  102BOLB   GL2 2428   7.398  20.462  23.699 -0.1575 -0.4192 -0.0920
  102BOLB   C1A 2429   7.735  20.473  24.139 -0.2966  0.3199  0.2042
  102BOLB   C2A 2430   7.840  20.417  24.445 -0.2175  0.1789  0.1166
  102BOLB   C3A 2431   7.964  20.112  24.810  0.1384 -0.0882  0.0746
  102BOLB   C4A 2432   7.819  19.977  25.310 -0.1148 -0.1297 -0.1768
  102BOLB   C1B 2433   7.329  20.193  24.105  0.0048  0.0705 -0.1105
  102BOLB   C2B 2434   7.481  20.088  24.497  0.0393  0.0690 -0.0074
  102BOLB   C3B 2435   7.136  19.916  24.838  0.0773 -0.1875  0.0525
  102BOLB   C4B 2436   6.747  19.833  25.060 -0.3369 -0.2640  0.1815
  102BOLB   NC2 2437   6.097  20.067  27.387  0.0166  0.0292  0.0970
  102BOLB   PO2 2438   6.420  19.808  27.382 -0.0019 -0.1768  0.1237
  102BOLB   GL3 2439   6.759  19.881  27.206  0.4768 -0.1937  0.1453
  102BOLB   GL4 2440   6.907  19.620  27.317 -0.1584 -0.1130 -0.3495
  102BOLB   C1C 2441   6.968  20.013  26.871  0.2312 -0.1264 -0.1481
  102BOLB   C2C 2442   7.143  19.883  26.501  0.0687 -0.0505 -0.1042
  102BOLB   C3C 2443   7.483  19.760  26.148  0.4184 -0.1683  0.2572
  102BOLB   C4C 2444   7.758  19.776  25.694 -0.0176  0.1267  0.1978
  102BOLB   C1D 2445   6.869  19.546  26.851 -0.1129  0.0251  0.2367
  102BOLB   C2D 2446   7.027  19.402  26.445  0.1911 -0.2003  0.0146
  102BOLB   C3D 2447   7.370  19.178  26.116 -0.3493 -0.0504  0.2808
  102BOLB   C4D 2448   7.761  19.341  25.913  0.1127 -0.0270 -0.1187
  103BOLB   NC1 2449   8.412  13.869  22.801  0.0246  0.1917  0.0471
  103BOLB   PO1 2450   8.812  13.902  23.071  0.0300  0.2508  0.1654
  103BOLB   GL1 2451   8.563  13.600  23.311 -0.0707  0.0714 -0.2323
  103BOLB   GL2 2452   8.284  13.492  23.137  0.4136  0.0763 -0.1314
  103BOLB   C1A 2453   8.508  13.177  23.532 -0.0769  0.0324  0.0218
  103BOLB   C2A 2454   8.456  12.831  23.872 -0.1037 -0.2689 -0.1759
  103BOLB   C3A 2455   8.162  12.730  24.196  0.3310 -0.1341  0.0829
  103BOLB   C4A 2456   8.169  12.430  24.372 -0.0207  0.0882 -0.2237
  103BOLB   C1B 2457   8.153  13.543  23.595  0.0396 -0.2386  0.2453
  103BOLB   C2B 2458   7.963  13.681  23.960 -0.2474  0.0175  0.0559
  103BOLB   C3B 2459   7.828  13.778  24.364  0.3042  0.6843 -0.1750
  103BOLB   C4B 2460   7.445  14.048  24.517  0.0016  0.5312  0.1371
  103BOLB   NC2 2461   6.502  10.325  24.225 -0.3946 -0.2606 -0.1847
  103BOLB   PO2 2462   6.421  10.837  24.215 -0.1175  0.2711 -0.1283
  103BOLB   GL3 2463   6.676  11.148  24.196  0.0754  0.1228 -0.1412
  103BOLB   GL4 2464   6.919  11.335  23.912 -0.1439  0.1911  0.0391
  103BOLB   C1C 2465   6.957  11.373  24.376 -0.1146  0.4109  0.2696
  103BOLB   C2C 2466   7.364  11.608  24.377 -0.1833  0.0479 -0.1787
  103BOLB   C3C 2467   7.656  11.988  24.581  0.0764 -0.1191 -0.1357
  103BOLB   C4C 2468   8.014  12.079  24.436  0.0957  0.1022  0.1369
  103BOLB   C1D 2469   7.057  11.363  23.572 -0.1704  0.0111  0.2359
  103BOLB   C2D 2470   7.356  11.366  23.333  0.0878  0.1220 -0.2508
  103BOLB   C3D 2471   7.686  11.265  23.090  0.0433  0.0246  0.0362
  103BOLB   C4D 2472   8.012  11.665  23.086 -0.0824  0.4290 -0.2980
  104BOLB   NC1 2473   2.245  17.386  17.205  0.2995 -0.0291 -0.1173
  104BOLB   PO1 2474   2.422  17.830  17.281 -0.2626  0.0436  0.2481
  104BOLB   GL1 2475   2.807  17.830  17.512  0.2688  0.1516 -0.3965
  104BOLB   GL2 2476   2.978  17.915  17.277 -0.5209 -0.3371  0.0526
  104BOLB   C1A 2477   3.023  18.047  17.887  0.0063 -0.1403  0.3303
  104BOLB   C2A 2478   3.384  18.054  18.112  0.1094  0.3118  0.1377
  104BOLB   C3A 2479   3.792  18.065  18.321 -0.2144  0.0368  0.2287
  104BOLB   C4A 2480   4.221  17.852  18.550  0.0984  0.0281  0.1774
  104BOLB   C1B 2481   3.194  18.323  17.486  0.0272  0.1269 -0.0298
  104BOLB   C2B 2482   3.331  18.508  17.839 -0.3193  0.3082 -0.1291
  104BOLB   C3B 2483   3.435  19.024  17.935  0.1631 -0.0837 -0.2553
  104BOLB   C4B 2484   3.395  19.390  18.011 -0.4887  0.1231  0.3365
  104BOLB   NC2 2485   2.849  17.396  20.228  0.1047  0.1841  0.0109
  104BOLB   PO2 2486   3.232  17.632  20.296 -0.1564  0.0386 -0.1844
  104BOLB   GL3 2487   3.496  17.322  19.919 -0.2741  0.2672 -0.1707
  104BOLB   GL4 2488   3.856  17.374  19.983 -0.1211  0.4054  0.0271
  104BOLB   C1C 2489   3.509  16.982  19.591  0.2655  0.1577  0.0721
  104BOLB   C2C 2490   3.866  16.970  19.279  0.0913 -0.1282 -0.3301
  104BOLB   C3C 2491   4.062  17.238  19.156 -0.3160 -0.0839  0.4181
  104BOLB   C4C 2492   4.139  17.534  18.840  0.1691 -0.2167 -0.1227
  104BOLB   C1D 2493   4.079  17.701  19.873  0.1504  0.1138 -0.0023
  104BOLB   C2D 2494   4.438  17.804  19.822 -0.0518 -0.2870  0.2497
  104BOLB   C3D 2495   4.661  17.994  19.436 -0.0410  0.2314 -0.0879
  104BOLB   C4D 2496   4.779  18.237  19.059  0.0871 -0.3502 -0.0845
  105BOLB   NC1 2497   4.767  20.678  22.666 -0.0636 -0.0794  0.1067
  105BOLB   PO1 2498   4.750  20.604  22.217  0.1500 -0.0955  0.2677
  105BOLB   GL1 2499   4.744  20.131  22.299 -0.0028  0.1884  0.0275
  105BOLB   GL2 2500   4.552  20.082  22.134 -0.0969  0.4263  0.0291
  105BOLB   C1A 2501   5.014  19.954  22.278 -0.1303 -0.0249 -0.0496
  105BOLB   C2A 2502   5.084  19.680  22.008  0.1799  0.0195  0.1294
  105BOLB   C3A 2503   4.706  19.356  21.867 -0.2126  0.2897  0.0118
  105BOLB   C4A 2504   4.579  19.284  21.457  0.2414  0.0627 -0.1349
  105BOLB   C1B 2505   4.678  19.845  21.718 -0.2060  0.0028  0.1661
  105BOLB   C2B 2506   4.944  19.682  21.490  0.1075  0.3286 -0.0390
  105BOLB   C3B 2507   4.950  19.198  21.210 -0.0498 -0.1351 -0.3657
  105BOLB   C4B 2508   4.775  19.207  20.849  0.0393 -0.0647 -0.1128
  105BOLB   NC2 2509   2.894  18.805  19.659  0.2461  0.1463 -0.1724
  105BOLB   PO2 2510   2.797  19.201  19.679  0.3006 -0.1601  0.0198
  105BOLB   GL3 2511   3.267  19.163  19.868 -0.1485 -0.2274  0.2759
  105BOLB   GL4 2512   3.637  19.426  19.680  0.1518 -0.0640 -0.3089
  105BOLB   C1C 2513   3.576  19.048  20.153 -0.1569 -0.1069  0.2458
  105BOLB   C2C 2514   3.983  19.141  20.378  0.0652  0.2175 -0.0586
  105BOLB   C3C 2515   4.252  19.105  20.650  0.1227 -0.0125 -0.0730
  105BOLB   C4C 2516   4.406  19.361  21.075 -0.0009 -0.0757  0.0978
  105BOLB   C1D 2517   3.938  19.283  19.363 -0.1980  0.1103  0.3662
  105BOLB   C2D 2518   4.196  19.026  19.181  0.0929 -0.3700  0.1355
  105BOLB   C3D 2519   4.684  18.937  19.264 -0.2299 -0.1372  0.0730
  105BOLB   C4D 2520   4.894  18.705  19.047  0.1236 -0.1053  0.1021
  106BOLB   NC1 2521   7.988  16.807  22.828 -0.1131 -0.1532 -0.1591
  106BOLB   PO1 2522   8.219  16.796  23.204  0.0026 -0.1762  0.0490
  106BOLB   GL1 2523   7.892  16.872  23.602  0.3175  0.1690  0.1199
  106BOLB   GL2 2524   7.523  16.983  23.615 -0.0754  0.0566 -0.0225
  106BOLB   C1A 2525   7.773  16.724  23.949 -0.0422  0.2209  0.2198
  106BOLB   C2A 2526   7.618  16.660  24.366  0.1143  0.1943  0.1421
  106BOLB   C3A 2527   7.173  16.626  24.586  0.1185 -0.0048 -0.2085
  106BOLB   C4A 2528   6.839  16.453  24.664  0.5282  0.2212 -0.1364
  106BOLB   C1B 2529   7.195  16.714  23.885 -0.2107  0.0585  0.0676
  106BOLB   C2B 2530   7.199  16.380  24.162 -0.2261 -0.0083 -0.3675
  106BOLB   C3B 2531   7.041  16.088  24.381  0.1206  0.0177 -0.0469
  106BOLB   C4B 2532   6.711  15.945  24.630  0.2990 -0.1456  0.1003
  106BOLB   NC2 2533   4.946  16.008  26.608  0.3264 -0.4569 -0.0763
  106BOLB   PO2 2534   5.051  15.947  26.275 -0.0580  0.2040 -0.2445
  106BOLB   GL3 2535   5.395  16.310  26.089 -0.1370 -0.0811  0.1078
  106BOLB   GL4 2536   5.223  16.455  25.835  0.1014 -0.3225 -0.2155
  106BOLB   C1C 2537   5.836  16.485  25.904  0.0606 -0.0627  0.4946
  106BOLB   C2C 2538   5.987  16.508  25.337  0.2505 -0.2174 -0.0465
  106BOLB   C3C 2539   6.243  16.405  25.030 -0.0054 -0.1608  0.0935
  106BOLB   C4C 2540   6.586  16.460  24.861  0.1189 -0.0820  0.3141
  106BOLB   C1D 2541   5.533  16.238  25.577  0.1002 -0.1485 -0.1265
  106BOLB   C2D 2542   5.740  16.062  25.245 -0.2587  0.0837  0.3312
  106BOLB   C3D 2543   6.088  15.930  25.032  0.1564 -0.2802  0.1361
  106BOLB   C4D 2544   6.542  15.672  25.052  0.0342 -0.0285 -0.2866
  107BOLB   NC1 2545   4.359  20.357  22.468 -0.1086  0.0580 -0.3964
  107BOLB   PO1 2546   4.252  19.986  22.668 -0.2775  0.0856 -0.2566
  107BOLB   GL1 2547   4.705  19.877  22.719  0.1927  0.2219 -0.1072
  107BOLB   GL2 2548   4.920  20.215  22.729 -0.5579  0.0109 -0.0507
  107BOLB   C1A 2549   5.108  19.657  22.706 -0.0564 -0.0105  0.0914
  107BOLB   C2A 2550   5.514  19.772  22.443 -0.0230  0.2119  0.0300
  107BOLB   C3A 2551   5.547  19.591  22.041  0.1226  0.2526  0.0604
  107BOLB   C4A 2552   5.784  19.287  22.018 -0.1884 -0.0285 -0.2027
  107BOLB   C1B 2553   5.012  20.014  23.084  0.0782  0.5337  0.2417
  107BOLB   C2B 2554   4.942  19.559  23.302 -0.1228 -0.0624 -0.1222
  107BOLB   C3B 2555   5.185  19.256  23.517  0.0103 -0.0972  0.4693
  107BOLB   C4B 2556   5.467  19.242  23.938  0.1346 -0.3072 -0.0085
  107BOLB   NC2 2557   3.409  18.292  22.713 -0.2033  0.2091 -0.1111
  107BOLB   PO2 2558   3.734  18.591  22.545  0.0168 -0.0210  0.1659
  107BOLB   GL3 2559   4.155  18.607  22.507  0.2077  0.1454  0.1849
  107BOLB   GL4 2560   4.089  18.922  22.300 -0.0807  0.1708  0.0965
  107BOLB   C1C 2561   4.615  18.785  22.629  0.0263 -0.2323 -0.0029
  107BOLB   C2C 2562   5.164  18.789  22.600  0.0683  0.0254 -0.2136
  107BOLB   C3C 2563   5.536  18.829  22.461  0.0802  0.1191  0.0709
  107BOLB   C4C 2564   5.737  18.947  22.156  0.1239  0.2473  0.0930
  107BOLB   C1D 2565   4.309  18.605  22.070  0.2466 -0.0592  0.0470
  107BOLB   C2D 2566   4.363  18.311  21.742 -0.0729 -0.1464  0.3378
  107BOLB   C3D 2567   4.717  18.118  21.538  0.1342  0.1096  0.1897
  107BOLB   C4D 2568   5.088  18.187  21.301  0.0491 -0.0956  0.1655
  108BOLB   NC1 2569   9.548   8.555  21.417 -0.1131  0.2910 -0.1537
  108BOLB   PO1 2570   9.803   8.651  21.768  0.0051  0.2772 -0.1339
  108BOLB   GL1 2571   9.914   9.109  21.754 -0.1174  0.0433  0.2073
  108BOLB   GL2 2572  10.142   9.291  21.636 -0.0415  0.0799  0.0938
  108BOLB   C1A 2573   9.588   9.439  21.841 -0.0751 -0.2479 -0.2028
  108BOLB   C2A 2574   9.272   9.689  22.033 -0.2306 -0.0074 -0.2168
  108BOLB   C3A 2575   9.265   9.905  22.415 -0.0331 -0.0262 -0.1101
  108BOLB   C4A 2576   9.291  10.313  22.532 -0.1611  0.0171 -0.0150
  108BOLB   C1B 2577   9.781   9.404  21.354 -0.0554  0.4764  0.1868
  108BOLB   C2B 2578   9.425   9.594  21.192  0.0724  0.0320 -0.1260
  108BOLB   C3B 2579   8.991   9.634  21.129 -0.2383  0.1019 -0.0369
  108BOLB   C4B 2580   8.749   9.957  20.812 -0.1088  0.0737 -0.0646
  108BOLB   NC2 2581   8.122   9.228  22.941  0.0956  0.3348 -0.2901
  108BOLB   PO2 2582   8.361   8.937  22.607 -0.0376  0.2210  0.0301
  108BOLB   GL3 2583   8.614   9.342  22.778  0.2674 -0.1156  0.3132
  108BOLB   GL4 2584   8.853   9.494  22.662  0.1176  0.3749 -0.3210
  108BOLB   C1C 2585   8.502   9.737  23.157 -0.0626  0.5967  0.1983
  108BOLB   C2C 2586   8.545  10.146  23.262  0.0207  0.0858 -0.0729
  108BOLB   C3C 2587   8.864  10.397  23.196 -0.1430 -0.1233 -0.1621
  108BOLB   C4C 2588   9.125  10.427  22.905 -0.1371 -0.2900  0.0820
  108BOLB   C1D 2589   8.813   9.714  22.388  0.0618 -0.0694  0.3415
  108BOLB   C2D 2590   8.758   9.631  21.950  0.1633  0.0333  0.0861
  108BOLB   C3D 2591   8.625   9.509  21.573 -0.0925  0.1002  0.0160
  108BOLB   C4D 2592   8.736   9.212  21.187  0.2430 -0.2300  0.0232
  109BOLB   NC1 2593   7.063  20.263  23.299  0.0385  0.2482  0.2567
  109BOLB   PO1 2594   7.134  19.815  23.293  0.1997 -0.0465  0.1333
  109BOLB   GL1 2595   6.759  19.592  23.072 -0.1509  0.0250 -0.0557
  109BOLB   GL2 2596   6.855  19.329  23.313 -0.2008  0.0413  0.0434
  109BOLB   C1A 2597   6.585  19.236  22.882  0.1611 -0.1312  0.1399
  109BOLB   C2A 2598   6.326  18.923  22.921  0.0275  0.1966 -0.1546
  109BOLB   C3A 2599   6.025  18.624  22.975 -0.0764 -0.0534 -0.0347
  109BOLB   C4A 2600   5.850  18.448  23.249 -0.1337  0.0658  0.0513
  109BOLB   C1B 2601   6.624  19.184  23.669  0.1665  0.2066  0.3338
  109BOLB   C2B 2602   6.235  19.018  23.511  0.2537  0.1368 -0.2522
  109BOLB   C3B 2603   5.789  18.972  23.588 -0.3152  0.0595 -0.3111
  109BOLB   C4B 2604   5.446  18.861  23.358  0.0301 -0.0835 -0.1648
  109BOLB   NC2 2605   4.048  19.769  23.756  0.3154 -0.1548 -0.1888
  109BOLB   PO2 2606   4.441  20.064  23.921  0.5727  0.2553  0.0417
  109BOLB   GL3 2607   4.571  19.633  23.777 -0.0338 -0.0148 -0.0492
  109BOLB   GL4 2608   4.412  19.527  23.975 -0.1533  0.0673 -0.2888
  109BOLB   C1C 2609   4.634  19.285  23.532  0.0925 -0.1268 -0.1560
  109BOLB   C2C 2610   4.902  18.831  23.609  0.2786 -0.0188  0.1721
  109BOLB   C3C 2611   5.212  18.429  23.563  0.0227  0.1091 -0.0677
  109BOLB   C4C 2612   5.649  18.429  23.600  0.0508  0.1474 -0.0395
  109BOLB   C1D 2613   4.850  19.249  24.041  0.0366 -0.2368  0.1740
  109BOLB   C2D 2614   5.161  18.882  24.009  0.0481  0.2534  0.1087
  109BOLB   C3D 2615   5.629  18.669  24.066  0.2662 -0.2435  0.1794
  109BOLB   C4D 2616   5.679  18.249  24.408  0.1576  0.2617  0.2230
  110BOLB   NC1 2617   6.591   9.263  20.414 -0.1138  0.0528 -0.0693
  110BOLB   PO1 2618   6.801   9.595  20.662  0.2074 -0.3600 -0.0093
  110BOLB   GL1 2619   6.702   9.805  20.228 -0.0825  0.2629 -0.1583
  110BOLB   GL2 2620   6.680   9.523  19.977 -0.2286  0.2739 -0.2712
  110BOLB   C1A 2621   6.616  10.091  20.038 -0.1732 -0.1547 -0.2381
  110BOLB   C2A 2622   6.710  10.380  19.723 -0.0619 -0.1808  0.1270
  110BOLB   C3A 2623   6.618  10.745  19.562 -0.1566  0.1209 -0.3560
  110BOLB   C4A 2624   6.331  10.794  19.210 -0.1570 -0.3951 -0.3055
  110BOLB   C1B 2625   6.743   9.789  19.567 -0.0260  0.1700  0.1477
  110BOLB   C2B 2626   6.983  10.035  19.451 -0.2234 -0.2065 -0.2830
  110BOLB   C3B 2627   6.951  10.505  19.308 -0.1350 -0.1029  0.1745
  110BOLB   C4B 2628   6.833  10.921  19.143  0.1083  0.1300 -0.0501
  110BOLB   NC2 2629   5.060  11.867  19.950  0.1480 -0.0416  0.0866
  110BOLB   PO2 2630   5.161  11.681  19.654  0.0943  0.0849  0.2549
  110BOLB   GL3 2631   5.594  11.722  19.560  0.2356 -0.2316  0.0747
  110BOLB   GL4 2632   5.607  11.669  19.865 -0.4187  0.2036 -0.1584
  110BOLB   C1C 2633   5.837  11.628  19.126 -0.0308 -0.0162  0.4001
  110BOLB   C2C 2634   5.873  11.382  18.815  0.2329  0.0433 -0.1865
  110BOLB   C3C 2635   5.714  11.051  18.744 -0.0746  0.0520  0.0471
  110BOLB   C4C 2636   5.970  10.790  18.913  0.1923 -0.0426 -0.0877
  110BOLB   C1D 2637   6.100  11.701  19.918  0.2597 -0.2481  0.1138
  110BOLB   C2D 2638   6.511  11.837  19.970 -0.0616 -0.0762 -0.2788
  110BOLB   C3D 2639   6.670  12.067  20.318 -0.1743  0.0264  0.0202
  110BOLB   C4D 2640   6.505  12.511  20.358 -0.0112 -0.0786 -0.2679
  111BOLB   NC1 2641   7.781  17.881  23.259 -0.2140  0.0153 -0.2469
  111BOLB   PO1 2642   8.153  17.690  23.435 -0.2093 -0.2013 -0.2024
  111BOLB   GL1 2643   7.796  17.890  23.883 -0.1532  0.2176 -0.1626
  111BOLB   GL2 2644   7.960  18.212  23.953 -0.2882 -0.0535 -0.1790
  111BOLB   C1A 2645   7.489  17.660  24.098 -0.1984  0.5249  0.0702
  111BOLB   C2A 2646   7.163  17.585  24.399 -0.1723 -0.0828 -0.3646
  111BOLB   C3A 2647   6.895  17.480  24.615  0.0113  0.1229 -0.1444
  111BOLB   C4A 2648   6.676  17.285  24.909  0.0588 -0.0850  0.0837
  111BOLB   C1B 2649   7.975  17.915  24.354 -0.2682 -0.2876  0.1649
  111BOLB   C2B 2650   8.093  18.014  24.714 -0.1079 -0.1478  0.0073
  111BOLB   C3B 2651   7.904  18.038  25.129  0.1156  0.0662 -0.1849
  111BOLB   C4B 2652   7.755  17.740  25.467  0.1153 -0.1195  0.0231
  111BOLB   NC2 2653   5.484  16.554  26.798  0.1509 -0.0301  0.1303
  111BOLB   PO2 2654   5.906  16.372  26.873 -0.1864 -0.2356  0.0264
  111BOLB   GL3 2655   5.983  16.367  26.450 -0.1055  0.0764  0.1652
  111BOLB   GL4 2656   5.948  16.721  26.415  0.0282 -0.0076 -0.1708
  111BOLB   C1C 2657   6.307  16.233  26.153 -0.0864  0.0207 -0.1561
  111BOLB   C2C 2658   6.287  16.514  25.679 -0.2363  0.1245 -0.1437
  111BOLB   C3C 2659   6.293  16.855  25.395 -0.0001  0.0390 -0.2564
  111BOLB   C4C 2660   6.423  16.959  25.030 -0.0835 -0.1816  0.4662
  111BOLB   C1D 2661   6.186  16.778  26.143  0.2594  0.1606 -0.3606
  111BOLB   C2D 2662   6.449  16.895  25.933 -0.0556 -0.1851 -0.1458
  111BOLB   C3D 2663   6.690  17.206  25.521  0.1964 -0.1977 -0.1986
  111BOLB   C4D 2664   7.073  17.307  25.252 -0.1562  0.2598  0.0347
  112BOLB   NC1 2665   6.178  21.518  22.948  0.2643  0.3183 -0.0455
  112BOLB   PO1 2666   5.846  21.195  23.143  0.6782  0.0858 -0.0546
  112BOLB   GL1 2667   6.099  20.836  23.274 -0.0479  0.1130  0.0020
  112BOLB   GL2 2668   5.921  20.604  23.314  0.0155 -0.0080 -0.1894
  112BOLB   C1A 2669   6.448  20.518  23.341 -0.1169 -0.0407 -0.0489
  112BOLB   C2A 2670   6.459  20.036  23.243 -0.2201 -0.0171  0.1246
  112BOLB   C3A 2671   6.460  19.580  23.470  0.2118 -0.0206 -0.2040
  112BOLB   C4A 2672   6.196  19.427  23.869 -0.0891  0.1606 -0.1846
  112BOLB   C1B 2673   5.938  20.261  23.166  0.1188 -0.1445 -0.0799
  112BOLB   C2B 2674   5.932  19.908  22.970  0.0272 -0.2132  0.1781
  112BOLB   C3B 2675   5.699  19.504  22.827 -0.1301  0.1366  0.1987
  112BOLB   C4B 2676   5.506  19.291  22.441 -0.1424  0.0796 -0.2831
  112BOLB   NC2 2677   4.382  19.926  24.451  0.1582 -0.0405  0.1409
  112BOLB   PO2 2678   4.118  19.608  24.508  0.0956 -0.2810  0.1790
  112BOLB   GL3 2679   4.570  19.444  24.500  0.1722  0.0139 -0.0736
  112BOLB   GL4 2680   4.503  19.106  24.445  0.2525  0.1830 -0.0215
  112BOLB   C1C 2681   4.944  19.369  24.515  0.3032  0.0679  0.0158
  112BOLB   C2C 2682   5.394  19.144  24.525 -0.1317  0.0368 -0.1140
  112BOLB   C3C 2683   5.840  19.047  24.306 -0.0077  0.1270 -0.1201
  112BOLB   C4C 2684   5.957  19.212  23.958  0.1535 -0.1168 -0.0509
  112BOLB   C1D 2685   4.910  18.915  24.421 -0.4066 -0.0147  0.0070
  112BOLB   C2D 2686   5.269  18.655  24.436 -0.2619 -0.0273 -0.1223
  112BOLB   C3D 2687   5.689  18.792  24.724  0.2135  0.1819 -0.2700
  112BOLB   C4D 2688   6.068  18.813  24.985  0.0786  0.0151  0.0770
  113BOLB   NC1 2689   7.764  14.181  21.833  0.3851 -0.3409  0.0890
  113BOLB   PO1 2690   8.068  14.072  21.778 -0.0627 -0.4332 -0.1238
  113BOLB   GL1 2691   7.761  13.710  21.927  0.1149 -0.1839 -0.2691
  113BOLB   GL2 2692   7.622  13.441  21.632 -0.0555 -0.1172 -0.2358
  113BOLB   C1A 2693   7.553  13.629  22.342  0.1783 -0.0431 -0.0590
  113BOLB   C2A 2694   7.338  13.412  22.723 -0.3932 -0.0236 -0.1878
  113BOLB   C3A 2695   7.426  13.054  23.024 -0.0554  0.2544  0.3357
  113BOLB   C4A 2696   7.334  12.570  23.144 -0.1579 -0.0929  0.1692
  113BOLB   C1B 2697   7.645  12.965  21.717 -0.1693  0.3750  0.0299
  113BOLB   C2B 2698   7.963  12.700  21.544  0.0363 -0.0073  0.0684
  113BOLB   C3B 2699   8.029  12.580  21.035 -0.0208  0.0013  0.1635
  113BOLB   C4B 2700   8.079  12.427  20.694 -0.5537  0.0164 -0.3129
  113BOLB   NC2 2701   5.904  10.604  22.513  0.1334  0.0910  0.0697
  113BOLB   PO2 2702   6.407  10.536  22.414  0.3941  0.2962  0.2365
  113BOLB   GL3 2703   6.632  10.933  22.402 -0.0760 -0.1379 -0.0742
  113BOLB   GL4 2704   7.004  10.964  22.524 -0.0013  0.0631  0.0114
  113BOLB   C1C 2705   6.729  11.438  22.599 -0.2330 -0.1833  0.0096
  113BOLB   C2C 2706   7.006  11.765  22.608 -0.1443  0.3181 -0.0881
  113BOLB   C3C 2707   6.835  12.191  22.793  0.0176  0.1205 -0.0345
  113BOLB   C4C 2708   7.022  12.339  23.078 -0.1111 -0.1915 -0.0279
  113BOLB   C1D 2709   7.455  11.159  22.532 -0.3824  0.0550 -0.0611
  113BOLB   C2D 2710   7.886  11.371  22.595  0.1666  0.1443 -0.1295
  113BOLB   C3D 2711   8.340  11.569  22.735  0.0091  0.1830 -0.0616
  113BOLB   C4D 2712   8.543  11.793  23.077 -0.3058  0.2842 -0.2075
  114BOLB   NC1 2713   6.450  14.556  21.658 -0.0066  0.1765 -0.1040
  114BOLB   PO1 2714   6.434  14.913  21.913  0.1746 -0.1686  0.0508
  114BOLB   GL1 2715   6.088  15.037  21.707 -0.0131  0.2352 -0.0273
  114BOLB   GL2 2716   5.990  14.790  21.459  0.1714 -0.2727 -0.0350
  114BOLB   C1A 2717   6.071  15.519  21.806  0.2438  0.0009  0.0822
  114BOLB   C2A 2718   6.119  15.878  22.155  0.0567 -0.1157  0.2835
  114BOLB   C3A 2719   6.167  16.209  22.558  0.0677 -0.2116 -0.0691
  114BOLB   C4A 2720   6.028  16.644  22.696  0.2570 -0.0748 -0.2322
  114BOLB   C1B 2721   5.963  15.153  21.224 -0.0236  0.1678 -0.0656
  114BOLB   C2B 2722   5.784  15.515  21.280 -0.2116  0.1818 -0.0390
  114BOLB   C3B 2723   5.834  15.980  21.274  0.2034  0.1886 -0.1775
  114BOLB   C4B 2724   5.795  16.344  21.166  0.0206 -0.1822  0.0255
  114BOLB   NC2 2725   4.130  17.317  24.405  0.2796 -0.3479 -0.3075
  114BOLB   PO2 2726   3.921  17.130  24.145  0.0327 -0.0941  0.4508
  114BOLB   GL3 2727   4.302  16.933  24.106  0.3303  0.1683 -0.1197
  114BOLB   GL4 2728   4.583  17.123  24.333  0.1186  0.3047  0.1533
  114BOLB   C1C 2729   4.773  16.886  23.913  0.2693 -0.4240 -0.1521
  114BOLB   C2C 2730   5.212  16.972  23.757 -0.0852 -0.1915  0.1747
  114BOLB   C3C 2731   5.524  16.817  23.411  0.2341 -0.1229  0.2191
  114BOLB   C4C 2732   5.738  16.868  23.008  0.0806 -0.1327  0.6210
  114BOLB   C1D 2733   4.994  16.927  24.443 -0.1684 -0.4127  0.4817
  114BOLB   C2D 2734   5.236  16.647  24.163  0.3139 -0.1230 -0.3189
  114BOLB   C3D 2735   5.605  16.617  23.838  0.0542 -0.2230  0.3414
  114BOLB   C4D 2736   5.980  16.557  23.667  0.2740  0.0555 -0.0288
  115BOLB   NC1 2737   9.805  12.652  22.580 -0.0131  0.0210  0.1892
  115BOLB   PO1 2738  10.205  12.531  22.370 -0.1710 -0.1443 -0.0719
  115BOLB   GL1 2739   9.974  12.388  22.054 -0.0267  0.1547 -0.0493
  115BOLB   GL2 2740   9.683  12.423  22.172  0.2088  0.0500  0.1330
  115BOLB   C1A 2741   9.984  12.094  21.720  0.2203 -0.0977 -0.4959
  115BOLB   C2A 2742   9.644  11.840  21.371 -0.2333 -0.1681 -0.1260
  115BOLB   C3A 2743   9.487  11.485  21.427  0.1803 -0.0908 -0.1265
  115BOLB   C4A 2744   9.227  11.111  21.200  0.0861  0.0494 -0.2174
  115BOLB   C1B 2745   9.268  12.088  22.126 -0.2898  0.3427  0.0179
  115BOLB   C2B 2746   8.821  11.764  22.308  0.1488 -0.1055  0.1010
  115BOLB   C3B 2747   8.741  11.386  22.211  0.2513 -0.2167 -0.2268
  115BOLB   C4B 2748   8.490  11.084  22.457  0.1912 -0.1285 -0.0926
  115BOLB   NC2 2749   6.824  10.451  21.141 -0.0765 -0.2313 -0.1384
  115BOLB   PO2 2750   7.043  10.281  21.376 -0.0340  0.2542 -0.0041
  115BOLB   GL3 2751   7.337  10.581  21.089  0.2150  0.2960  0.0503
  115BOLB   GL4 2752   7.646  10.741  21.256 -0.0833 -0.1054  0.1135
  115BOLB   C1C 2753   7.744  10.403  20.869  0.0074 -0.3597  0.2473
  115BOLB   C2C 2754   8.142  10.214  21.184 -0.1665 -0.3168  0.0657
  115BOLB   C3C 2755   8.495  10.400  21.042 -0.3565 -0.1475  0.0259
  115BOLB   C4C 2756   8.862  10.744  21.168  0.4981 -0.0264  0.2404
  115BOLB   C1D 2757   7.979  10.834  20.975  0.2293  0.0560  0.1153
  115BOLB   C2D 2758   8.192  11.152  20.704 -0.4750 -0.2531 -0.1424
  115BOLB   C3D 2759   8.589  11.328  20.473  0.1221  0.0464  0.0833
  115BOLB   C4D 2760   8.808  11.262  20.297  0.0053 -0.1752  0.0119
  116BOLB   NC1 2761   7.717  25.950  23.265 -0.1300  0.0860  0.0030
  116BOLB   PO1 2762   8.129  25.735  23.194  0.1167  0.1211 -0.0897
  116BOLB   GL1 2763   8.496  25.627  22.899 -0.0127  0.1087 -0.2593
  116BOLB   GL2 2764   8.493  25.409  22.588  0.1764 -0.0710  0.4273
  116BOLB   C1A 2765   8.814  25.299  22.923  0.0045 -0.0401 -0.2382
  116BOLB   C2A 2766   9.223  25.194  23.156  0.1842 -0.0631  0.1078
  116BOLB   C3A 2767   9.604  25.102  23.228  0.3595 -0.2201 -0.4189
  116BOLB   C4A 2768   9.864  25.216  23.348  0.1759  0.0865 -0.3353
  116BOLB   C1B 2769   8.557  25.470  22.154 -0.2963 -0.1069  0.2439
  116BOLB   C2B 2770   8.751  25.192  21.891 -0.0155 -0.2616 -0.1615
  116BOLB   C3B 2771   8.977  24.882  22.065  0.1300  0.1126  0.1548
  116BOLB   C4B 2772   9.144  24.458  22.317  0.2327  0.0711 -0.0799
  116BOLB   NC2 2773   8.680  26.574  22.938  0.0242 -0.0880 -0.0840
  116BOLB   PO2 2774   8.827  27.013  22.750 -0.1906  0.2004  0.1434
  116BOLB   GL3 2775   9.161  26.738  22.709  0.0613 -0.3117  0.3885
  116BOLB   GL4 2776   9.154  26.432  22.856  0.0249  0.2236  0.1675
  116BOLB   C1C 2777   9.607  26.569  22.800 -0.2287  0.1699  0.0069
  116BOLB   C2C 2778   9.893  26.315  23.027 -0.0863 -0.1799 -0.1061
  116BOLB   C3C 2779  10.155  26.041  23.122 -0.2438  0.2187 -0.0918
  116BOLB   C4C 2780  10.067  25.589  23.330 -0.1036 -0.0824  0.0950
  116BOLB   C1D 2781   9.521  26.099  22.691  0.0418 -0.4215  0.0696
  116BOLB   C2D 2782   9.987  26.051  22.582 -0.1380  0.3386  0.1881
  116BOLB   C3D 2783  10.248  25.625  22.433 -0.0152  0.1026 -0.0428
  116BOLB   C4D 2784  10.584  25.352  22.333  0.0492  0.1117 -0.1112
  117BOLB   NC1 2785  22.528   9.614  17.886 -0.1337  0.1762 -0.3543
  117BOLB   PO1 2786  22.278   9.519  17.506  0.0525 -0.2688  0.0754
  117BOLB   GL1 2787  22.470   9.166  17.522  0.2008 -0.0124  0.1296
  117BOLB   GL2 2788  22.675   9.115  17.817 -0.0236  0.0767 -0.4542
  117BOLB   C1A 2789  22.362   8.765  17.276  0.1933  0.0988  0.1245
  117BOLB   C2A 2790  22.370   8.361  17.154 -0.2864  0.2692 -0.0444
  117BOLB   C3A 2791  22.512   7.918  17.230 -0.1836 -0.1795  0.0786
  117BOLB   C4A 2792  22.671   7.593  17.372  0.0864  0.0458  0.0406
  117BOLB   C1B 2793  22.833   8.752  17.947 -0.1896 -0.1336 -0.1081
  117BOLB   C2B 2794  23.147   8.465  17.898  0.0369  0.1976 -0.0530
  117BOLB   C3B 2795  23.434   8.143  17.773  0.2954  0.1340 -0.5014
  117BOLB   C4B 2796  23.753   8.161  17.400  0.1805  0.0056 -0.0570
  117BOLB   NC2 2797  23.000   5.053  17.062 -0.1382 -0.1247  0.2369
  117BOLB   PO2 2798  23.319   5.302  16.927 -0.1586 -0.0553 -0.3109
  117BOLB   GL3 2799  23.097   5.636  17.026  0.1976  0.0465 -0.0653
  117BOLB   GL4 2800  22.819   5.552  16.967 -0.3643  0.0129  0.3557
  117BOLB   C1C 2801  23.010   6.134  17.131  0.2767 -0.3115 -0.0555
  117BOLB   C2C 2802  22.670   6.293  17.318  0.1366  0.0407  0.0177
  117BOLB   C3C 2803  22.503   6.631  17.359  0.0768  0.1917  0.3243
  117BOLB   C4C 2804  22.578   7.092  17.473  0.0080  0.1531 -0.1122
  117BOLB   C1D 2805  22.939   5.875  16.590  0.1588 -0.1483 -0.1804
  117BOLB   C2D 2806  22.846   6.196  16.362 -0.3044  0.0530 -0.2346
  117BOLB   C3D 2807  22.533   6.308  16.081  0.2889 -0.0549  0.2056
  117BOLB   C4D 2808  22.449   6.717  15.988 -0.1666  0.1751 -0.3711
  118BOLB   NC1 2809  10.975   8.377  22.887 -0.0933  0.1896 -0.5673
  118BOLB   PO1 2810  11.411   8.383  22.905 -0.1979 -0.0845 -0.2245
  118BOLB   GL1 2811  11.577   8.475  23.409  0.2417  0.1147  0.0148
  118BOLB   GL2 2812  11.896   8.536  23.403  0.1564 -0.0791  0.1030
  118BOLB   C1A 2813  11.726   8.152  23.790  0.1643 -0.1565  0.0052
  118BOLB   C2A 2814  11.891   7.987  24.150 -0.3112 -0.0141 -0.2759
  118BOLB   C3A 2815  11.971   8.104  24.562  0.0405 -0.1860  0.1193
  118BOLB   C4A 2816  11.951   8.177  24.981 -0.2668 -0.0575  0.0006
  118BOLB   C1B 2817  12.183   8.556  23.765  0.0632  0.1850  0.0523
  118BOLB   C2B 2818  11.860   8.490  24.173 -0.1489  0.6375  0.2641
  118BOLB   C3B 2819  11.374   8.392  24.195  0.1803 -0.3437  0.1917
  118BOLB   C4B 2820  11.154   8.329  23.827 -0.1309  0.0304 -0.3649
  118BOLB   NC2 2821  11.224   8.186  26.820  0.3323  0.0210 -0.3152
  118BOLB   PO2 2822  11.246   8.582  26.878  0.1944 -0.0146 -0.0681
  118BOLB   GL3 2823  11.235   8.900  26.542 -0.2278  0.1960  0.3802
  118BOLB   GL4 2824  10.899   8.958  26.394  0.2510  0.0420  0.0887
  118BOLB   C1C 2825  11.237   9.030  26.048  0.0457 -0.1418 -0.2851
  118BOLB   C2C 2826  11.323   8.950  25.680 -0.2261  0.0455 -0.2828
  118BOLB   C3C 2827  11.625   8.696  25.507  0.0559 -0.0278 -0.0885
  118BOLB   C4C 2828  11.841   8.241  25.510 -0.3344 -0.2155  0.0365
  118BOLB   C1D 2829  10.571   9.036  25.998  0.1545 -0.0161 -0.1406
  118BOLB   C2D 2830  10.140   8.869  25.767  0.1129  0.0113  0.1274
  118BOLB   C3D 2831   9.733   8.859  25.590  0.0458 -0.1563 -0.0431
  118BOLB   C4D 2832   9.404   8.908  25.418 -0.0310 -0.3445 -0.1171
  119BOLB   NC1 2833  20.373   9.115  19.885 -0.1730  0.0666 -0.0090
  119BOLB   PO1 2834  20.735   9.130  19.576 -0.1848 -0.0543  0.1425
  119BOLB   GL1 2835  21.037   8.930  19.810  0.1096  0.5239  0.1357
  119BOLB   GL2 2836  21.298   9.027  19.633 -0.0359 -0.3537 -0.0833
  119BOLB   C1A 2837  21.329   8.557  19.699 -0.1721  0.0120 -0.3324
  119BOLB   C2A 2838  21.398   8.318  20.062 -0.2259 -0.0688  0.2982
  119BOLB   C3A 2839  21.457   8.171  20.430  0.3207 -0.0766  0.4156
  119BOLB   C4A 2840  21.766   7.833  20.565  0.0001  0.3053  0.0784
  119BOLB   C1B 2841  21.463   8.909  20.056 -0.0534 -0.2364 -0.0627
  119BOLB   C2B 2842  21.692   8.654  20.339  0.2974 -0.2329  0.0469
  119BOLB   C3B 2843  21.936   8.429  20.583 -0.3213  0.0171 -0.1655
  119BOLB   C4B 2844  22.218   7.989  20.646  0.1380 -0.2075 -0.2596
  119BOLB   NC2 2845  23.174   6.640  21.557 -0.1029 -0.0959  0.1154
  119BOLB   PO2 2846  22.992   6.225  21.340 -0.0877 -0.3198  0.2619
  119BOLB   GL3 2847  22.719   6.447  21.383 -0.0438 -0.0348  0.1487
  119BOLB   GL4 2848  22.765   6.763  21.243 -0.2489 -0.0803  0.2610
  119BOLB   C1C 2849  22.287   6.589  21.412 -0.0171  0.1109 -0.0756
  119BOLB   C2C 2850  22.197   7.007  21.258  0.0510 -0.2868 -0.1050
  119BOLB   C3C 2851  21.966   7.208  21.028 -0.1360 -0.3061  0.1664
  119BOLB   C4C 2852  21.850   7.381  20.718 -0.3369 -0.1276 -0.1262
  119BOLB   C1D 2853  22.519   7.005  20.881  0.2079 -0.2027  0.2433
  119BOLB   C2D 2854  22.597   7.017  20.497 -0.0440  0.2227  0.1461
  119BOLB   C3D 2855  22.586   7.306  20.169  0.3670 -0.1584 -0.0334
  119BOLB   C4D 2856  22.539   7.707  20.024 -0.0529  0.0592 -0.2101
  120BOLB   NC1 2857  14.933   5.113  21.178 -0.0657 -0.1573  0.0276
  120BOLB   PO1 2858  15.344   5.305  21.375  0.2165 -0.0196  0.0536
  120BOLB   GL1 2859  15.498   5.566  21.684  0.1899 -0.0091  0.4277
  120BOLB   GL2 2860  15.788   5.454  21.604  0.2967  0.0915  0.1057
  120BOLB   C1A 2861  15.575   5.933  21.950 -0.1621  0.0912  0.0909
  120BOLB   C2A 2862  15.997   5.997  21.956 -0.1667  0.2277  0.2363
  120BOLB   C3A 2863  16.350   5.922  22.162  0.1810  0.0719  0.1041
  120BOLB   C4A 2864  16.497   5.977  22.616 -0.0697  0.1450  0.3070
  120BOLB   C1B 2865  15.762   5.434  22.069  0.2125 -0.3408  0.1362
  120BOLB   C2B 2866  15.440   5.235  22.385 -0.1293  0.0078  0.1194
  120BOLB   C3B 2867  15.040   5.236  22.571  0.0877 -0.0075  0.0171
  120BOLB   C4B 2868  14.797   4.867  22.900  0.0853 -0.1106 -0.3929
  120BOLB   NC2 2869  16.716   4.740  24.950  0.0181 -0.3811  0.0779
  120BOLB   PO2 2870  16.387   4.707  24.619 -0.2653  0.3659 -0.2618
  120BOLB   GL3 2871  16.489   4.596  24.127  0.2187  0.3945 -0.1452
  120BOLB   GL4 2872  16.376   4.288  24.096 -0.1791 -0.1421  0.2289
  120BOLB   C1C 2873  16.622   4.711  23.658 -0.0700 -0.1142 -0.0750
  120BOLB   C2C 2874  16.787   4.980  23.381  0.0935  0.1923 -0.0102
  120BOLB   C3C 2875  16.647   5.377  23.230  0.3888 -0.1194  0.1285
  120BOLB   C4C 2876  16.655   5.772  22.983 -0.3054 -0.1732 -0.0362
  120BOLB   C1D 2877  16.374   4.247  23.683  0.2030  0.0884 -0.0781
  120BOLB   C2D 2878  16.096   4.449  23.354  0.2176 -0.2273 -0.1355
  120BOLB   C3D 2879  15.767   4.727  23.190 -0.2029 -0.0231 -0.2273
  120BOLB   C4D 2880  15.371   4.489  22.994 -0.0716 -0.0190  0.0453
  121BOLB   NC1 2881  16.000   6.380  20.415  0.3527 -0.0341  0.2500
  121BOLB   PO1 2882  16.380   6.270  20.283  0.0924  0.0205 -0.3944
  121BOLB   GL1 2883  16.463   6.182  20.762 -0.1340 -0.0993  0.2225
  121BOLB   GL2 2884  16.536   5.839  20.876 -0.0265  0.4247  0.0540
  121BOLB   C1A 2885  16.809   6.340  21.029  0.3130  0.0721 -0.0333
  121BOLB   C2A 2886  17.038   6.377  21.315  0.1103 -0.0277 -0.0551
  121BOLB   C3A 2887  17.163   6.443  21.720 -0.1357 -0.3488  0.2808
  121BOLB   C4A 2888  17.303   6.443  22.083  0.3042 -0.1497  0.1178
  121BOLB   C1B 2889  16.960   5.923  20.751  0.1907 -0.2288  0.0830
  121BOLB   C2B 2890  17.296   5.931  21.081 -0.4193  0.1085 -0.1471
  121BOLB   C3B 2891  17.592   6.067  21.393 -0.2512  0.1065 -0.1341
  121BOLB   C4B 2892  17.598   5.943  21.882  0.3181  0.0930 -0.4892
  121BOLB   NC2 2893  18.188   5.567  24.660 -0.1352 -0.1645 -0.0684
  121BOLB   PO2 2894  17.825   5.202  24.490  0.2398  0.0604 -0.3035
  121BOLB   GL3 2895  17.666   5.518  24.117  0.1019 -0.3490 -0.1016
  121BOLB   GL4 2896  17.503   5.698  24.349 -0.0691  0.0140 -0.1102
  121BOLB   C1C 2897  17.387   5.717  23.776  0.0169 -0.0727 -0.2589
  121BOLB   C2C 2898  17.463   5.988  23.365 -0.1309  0.5184  0.2150
  121BOLB   C3C 2899  17.492   6.195  22.982  0.2998 -0.1208  0.0277
  121BOLB   C4C 2900  17.418   6.287  22.489  0.0228 -0.1059 -0.2184
  121BOLB   C1D 2901  17.533   6.183  24.181 -0.2160 -0.0276  0.1938
  121BOLB   C2D 2902  17.639   6.611  24.212  0.0396 -0.2479 -0.4647
  121BOLB   C3D 2903  17.836   6.885  23.992  0.2679 -0.0171 -0.3684
  121BOLB   C4D 2904  17.990   7.014  23.595  0.1523  0.0717  0.1793
  122BOLB   NC1 2905  11.903   7.531  22.596  0.3575  0.0370  0.2433
  122BOLB   PO1 2906  12.106   7.567  23.021 -0.2578 -0.0208  0.1825
  122BOLB   GL1 2907  12.338   7.801  23.316  0.1507 -0.0601  0.2799
  122BOLB   GL2 2908  12.728   7.805  23.298 -0.0101 -0.1100 -0.1114
  122BOLB   C1A 2909  12.345   7.902  23.741  0.1930  0.4110 -0.3661
  122BOLB   C2A 2910  12.342   7.827  24.205 -0.1421 -0.2867  0.1093
  122BOLB   C3A 2911  12.443   7.703  24.581 -0.0925  0.1706  0.0318
  122BOLB   C4A 2912  12.599   7.727  25.026  0.0739  0.0100 -0.2215
  122BOLB   C1B 2913  12.834   7.798  23.798 -0.2295  0.1623 -0.2922
  122BOLB   C2B 2914  12.814   7.745  24.163  0.0857  0.1462 -0.3145
  122BOLB   C3B 2915  12.917   7.954  24.640 -0.1494  0.1443 -0.2011
  122BOLB   C4B 2916  13.039   7.871  25.071 -0.1374 -0.2745 -0.0304
  122BOLB   NC2 2917  13.030   7.725  27.532  0.5815 -0.0024  0.1531
  122BOLB   PO2 2918  12.652   7.689  27.219 -0.0266 -0.0299  0.0212
  122BOLB   GL3 2919  12.582   7.738  26.842  0.2220  0.3098  0.2275
  122BOLB   GL4 2920  12.863   7.907  26.703  0.1620 -0.0171 -0.0447
  122BOLB   C1C 2921  12.471   7.681  26.429  0.1141 -0.1219 -0.3484
  122BOLB   C2C 2922  12.227   7.708  26.049  0.2487  0.1187  0.1830
  122BOLB   C3C 2923  12.148   7.892  25.680  0.0111 -0.1664 -0.1841
  122BOLB   C4C 2924  12.414   7.828  25.450 -0.0006 -0.0771  0.0446
  122BOLB   C1D 2925  12.660   8.173  26.431 -0.0933 -0.0964 -0.1518
  122BOLB   C2D 2926  12.332   8.289  26.295  0.2188  0.2026 -0.0085
  122BOLB   C3D 2927  12.041   7.964  26.622 -0.1989 -0.0970 -0.1694
  122BOLB   C4D 2928  11.824   7.530  26.527 -0.4216  0.0610  0.0256
  123BOLB   NC1 2929  12.611   5.755  23.834  0.1286  0.1024  0.0063
  123BOLB   PO1 2930  12.642   5.682  24.183  0.0835  0.0322 -0.2743
  123BOLB   GL1 2931  12.983   5.977  24.079  0.3334  0.0140  0.3580
  123BOLB   GL2 2932  13.025   6.065  23.707 -0.1759 -0.0353 -0.0625
  123BOLB   C1A 2933  13.153   6.364  24.144 -0.0437 -0.6041 -0.1169
  123BOLB   C2A 2934  13.247   6.794  24.138 -0.0194  0.0884 -0.1467
  123BOLB   C3A 2935  13.482   7.097  24.193  0.1371  0.2881 -0.1797
  123BOLB   C4A 2936  13.434   7.259  24.584 -0.0596  0.1910 -0.1266
  123BOLB   C1B 2937  13.462   6.372  23.715  0.1950 -0.1154  0.1194
  123BOLB   C2B 2938  13.673   6.453  24.055  0.1504 -0.2224  0.2220
  123BOLB   C3B 2939  14.041   6.750  24.114  0.1205 -0.4315 -0.2809
  123BOLB   C4B 2940  14.364   6.926  24.388  0.0335  0.0766  0.2658
  123BOLB   NC2 2941  13.746   5.415  25.852 -0.0528  0.0551  0.0809
  123BOLB   PO2 2942  13.357   5.406  25.989  0.1261  0.0207  0.4197
  123BOLB   GL3 2943  13.407   5.765  25.749  0.2102 -0.0663 -0.0152
  123BOLB   GL4 2944  13.289   5.632  25.461 -0.1377  0.1302  0.1487
  123BOLB   C1C 2945  13.233   6.110  25.576 -0.1030 -0.0965  0.0426
  123BOLB   C2C 2946  13.329   6.507  25.307 -0.0075  0.2113 -0.1595
  123BOLB   C3C 2947  13.405   6.961  25.200 -0.1236  0.1666 -0.1192
  123BOLB   C4C 2948  13.633   7.233  24.972  0.0345 -0.1764  0.1342
  123BOLB   C1D 2949  13.532   5.628  25.084  0.0361  0.1474  0.1274
  123BOLB   C2D 2950  13.662   5.385  24.645  0.0514 -0.0820  0.3611
  123BOLB   C3D 2951  13.873   5.521  24.300 -0.2194  0.0422 -0.1866
  123BOLB   C4D 2952  13.873   5.629  23.837  0.1949 -0.0790 -0.0379
  124BOLB   NC1 2953  17.899   6.123  19.385  0.2479  0.0451  0.1462
  124BOLB   PO1 2954  18.110   6.460  19.556 -0.4444 -0.1910 -0.0592
  124BOLB   GL1 2955  18.435   6.493  19.884 -0.0181 -0.0960  0.1978
  124BOLB   GL2 2956  18.264   6.453  20.191  0.1216  0.0184  0.3768
  124BOLB   C1A 2957  18.779   6.189  19.908 -0.1906  0.2176 -0.0372
  124BOLB   C2A 2958  19.043   5.970  20.199  0.2275  0.1319  0.5742
  124BOLB   C3A 2959  19.201   5.739  20.577 -0.0135 -0.1725  0.1233
  124BOLB   C4A 2960  19.325   5.379  20.789  0.6443 -0.3361 -0.0288
  124BOLB   C1B 2961  18.596   6.095  20.300  0.3426 -0.0419 -0.2352
  124BOLB   C2B 2962  18.836   6.044  20.635  0.0176 -0.0541  0.0266
  124BOLB   C3B 2963  18.870   6.159  21.100  0.0286 -0.3278  0.0016
  124BOLB   C4B 2964  19.134   5.777  21.208  0.0267  0.0347  0.2361
  124BOLB   NC2 2965  21.219   5.623  22.416 -0.0117 -0.2061 -0.0229
  124BOLB   PO2 2966  20.888   5.548  22.702 -0.0853 -0.0333  0.1707
  124BOLB   GL3 2967  20.692   5.524  22.256 -0.1170  0.0239  0.0937
  124BOLB   GL4 2968  20.394   5.681  22.466  0.2318  0.1808 -0.0063
  124BOLB   C1C 2969  20.308   5.485  22.044  0.0033  0.3389 -0.1568
  124BOLB   C2C 2970  20.021   5.465  21.746 -0.0044  0.0887  0.1188
  124BOLB   C3C 2971  20.006   5.466  21.296  0.0490 -0.0983  0.1858
  124BOLB   C4C 2972  19.713   5.328  20.871 -0.1214 -0.2617 -0.0989
  124BOLB   C1D 2973  20.330   6.006  22.078  0.3172 -0.1430  0.1616
  124BOLB   C2D 2974  20.014   6.070  21.762  0.2533 -0.2661 -0.1745
  124BOLB   C3D 2975  19.666   6.427  21.710  0.1199 -0.1089  0.1579
  124BOLB   C4D 2976  19.534   6.675  21.438 -0.2794 -0.3481 -0.1922
  125BOLB   NC1 2977  10.054   6.706  25.023  0.1860 -0.1368 -0.0183
  125BOLB   PO1 2978  10.517   6.848  24.690 -0.1566 -0.0510  0.1826
  125BOLB   GL1 2979  10.778   7.130  24.730  0.0432 -0.1639 -0.5698
  125BOLB   GL2 2980  10.924   7.211  24.495  0.0829 -0.2606  0.1381
  125BOLB   C1A 2981  10.795   7.598  24.690 -0.1439 -0.0157 -0.0014
  125BOLB   C2A 2982  10.782   8.030  24.671  0.0856  0.3174  0.0669
  125BOLB   C3A 2983  10.611   8.546  24.672  0.2795  0.0756  0.0652
  125BOLB   C4A 2984  10.779   9.041  24.738  0.2274  0.0233  0.5079
  125BOLB   C1B 2985  10.930   7.565  24.240  0.2986 -0.3131  0.0642
  125BOLB   C2B 2986  11.220   7.914  24.233 -0.0868  0.2349 -0.1682
  125BOLB   C3B 2987  11.478   8.024  24.561  0.2465 -0.1879 -0.1504
  125BOLB   C4B 2988  11.589   8.551  24.558  0.1549  0.0235  0.1639
  125BOLB   NC2 2989  10.360  10.285  27.389 -0.0194 -0.1139 -0.0027
  125BOLB   PO2 2990  10.376   9.916  27.093 -0.0734 -0.0862 -0.0992
  125BOLB   GL3 2991  10.407   9.781  26.679 -0.3066 -0.1896 -0.0967
  125BOLB   GL4 2992  10.154   9.938  26.497  0.2401  0.2141 -0.2269
  125BOLB   C1C 2993  10.437   9.641  26.244 -0.1255  0.2377 -0.0694
  125BOLB   C2C 2994  10.547   9.672  25.813 -0.0579 -0.1491  0.0174
  125BOLB   C3C 2995  10.496   9.361  25.444 -0.1206  0.2213  0.1691
  125BOLB   C4C 2996  10.665   9.316  25.050  0.0034 -0.0010 -0.2879
  125BOLB   C1D 2997  10.369  10.149  26.063 -0.0189 -0.0099 -0.1208
  125BOLB   C2D 2998  10.524  10.443  25.804  0.1886  0.0806  0.2222
  125BOLB   C3D 2999  10.612  10.651  25.350  0.1327 -0.0723 -0.4006
  125BOLB   C4D 3000  10.807  10.582  25.039  0.1882  0.2047  0.2398
  126BOLB   NC1 3001  20.513   3.683  18.146 -0.0219 -0.2589 -0.0786
  126BOLB   PO1 3002  20.172   3.824  17.742  0.2637 -0.0687  0.1460
  126BOLB   GL1 3003  20.025   3.919  18.063 -0.3700  0.0035 -0.0286
  126BOLB   GL2 3004  19.971   3.849  18.385 -0.2240  0.1704 -0.1853
  126BOLB   C1A 3005  19.972   4.336  18.270 -0.2401  0.0139  0.0870
  126BOLB   C2A 3006  19.892   4.629  18.593  0.2778 -0.0320  0.2048
  126BOLB   C3A 3007  19.778   5.015  18.730 -0.3389 -0.5435  0.1427
  126BOLB   C4A 3008  20.073   5.335  18.816  0.0291  0.4196 -0.0606
  126BOLB   C1B 3009  20.149   4.117  18.734  0.0777  0.3016  0.1899
  126BOLB   C2B 3010  20.007   4.110  19.244 -0.2950  0.3642 -0.0407
  126BOLB   C3B 3011  20.033   4.446  19.425 -0.3187 -0.2317 -0.2652
  126BOLB   C4B 3012  20.011   4.878  19.340  0.2390  0.0349  0.1989
  126BOLB   NC2 3013  22.031   4.326  20.040  0.0425 -0.1021  0.3290
  126BOLB   PO2 3014  22.117   4.690  19.707 -0.0184  0.0176 -0.2986
  126BOLB   GL3 3015  21.905   5.051  19.483  0.1389  0.1236 -0.1983
  126BOLB   GL4 3016  22.071   5.183  19.150  0.1718  0.0316  0.0192
  126BOLB   C1C 3017  21.492   5.185  19.499  0.0487  0.1806 -0.0886
  126BOLB   C2C 3018  21.134   5.436  19.324 -0.0452  0.0189 -0.0323
  126BOLB   C3C 3019  20.868   5.554  19.084 -0.1026 -0.1709 -0.0947
  126BOLB   C4C 3020  20.556   5.513  18.897  0.1399  0.1111  0.0706
  126BOLB   C1D 3021  21.929   5.365  18.693 -0.3187 -0.1093  0.2073
  126BOLB   C2D 3022  21.677   5.201  18.477  0.0974  0.1610 -0.1124
  126BOLB   C3D 3023  21.463   4.922  18.662 -0.1783  0.0741 -0.1987
  126BOLB   C4D 3024  21.002   4.611  18.635 -0.1820 -0.1366 -0.1099
  127BOLB   NC1 3025  18.875   8.486  20.254  0.4973  0.1849 -0.1282
  127BOLB   PO1 3026  18.834   8.589  20.794  0.0872  0.1729 -0.0752
  127BOLB   GL1 3027  18.878   8.256  21.144  0.1774 -0.1545  0.3118
  127BOLB   GL2 3028  18.665   8.264  21.469  0.0470  0.2103 -0.0291
  127BOLB   C1A 3029  19.123   8.012  21.479  0.0623 -0.1186  0.0270
  127BOLB   C2A 3030  19.274   7.868  21.845  0.1997 -0.0377  0.2323
  127BOLB   C3A 3031  19.557   7.676  22.250 -0.2218 -0.0193 -0.1688
  127BOLB   C4A 3032  19.596   7.443  22.466  0.1812  0.0701  0.1574
  127BOLB   C1B 3033  18.928   8.225  22.001 -0.2520 -0.2084  0.3159
  127BOLB   C2B 3034  19.135   7.949  22.307  0.1209  0.1226  0.1625
  127BOLB   C3B 3035  19.179   7.772  22.604 -0.1232  0.0497 -0.2433
  127BOLB   C4B 3036  19.262   7.584  22.931  0.0672  0.1049  0.4768
  127BOLB   NC2 3037  20.208   6.239  24.271  0.0457 -0.1893 -0.1142
  127BOLB   PO2 3038  20.494   6.674  24.321  0.1835 -0.1499 -0.1419
  127BOLB   GL3 3039  20.336   6.651  23.882 -0.3144  0.1656  0.1020
  127BOLB   GL4 3040  20.536   6.314  23.773 -0.0030 -0.0065  0.0576
  127BOLB   C1C 3041  20.494   6.784  23.510  0.0393 -0.0702 -0.1763
  127BOLB   C2C 3042  20.372   6.956  23.181  0.3745  0.1983 -0.1836
  127BOLB   C3C 3043  20.273   7.173  22.791 -0.0328  0.0363 -0.2743
  127BOLB   C4C 3044  19.918   7.231  22.496  0.0161 -0.1497  0.1508
  127BOLB   C1D 3045  20.164   6.414  23.448  0.1574  0.0769 -0.2674
  127BOLB   C2D 3046  19.893   6.511  23.075  0.0719  0.0755  0.2000
  127BOLB   C3D 3047  19.810   6.401  22.655 -0.0220 -0.0252  0.0234
  127BOLB   C4D 3048  19.931   6.250  22.243  0.3403 -0.3432 -0.1750
  128BOLB   NC1 3049  14.687   5.468  22.077 -0.0876 -0.2225  0.2810
  128BOLB   PO1 3050  14.272   5.552  22.212  0.1733 -0.0583  0.0097
  128BOLB   GL1 3051  14.668   5.563  22.594 -0.1221 -0.1155 -0.4364
  128BOLB   GL2 3052  14.313   5.599  22.776  0.0148 -0.0662 -0.3993
  128BOLB   C1A 3053  15.053   5.861  22.525 -0.1751 -0.1745  0.1397
  128BOLB   C2A 3054  15.440   5.763  22.463 -0.0295  0.0949  0.0675
  128BOLB   C3A 3055  15.858   5.812  22.375 -0.2787  0.0912  0.3475
  128BOLB   C4A 3056  16.023   5.815  22.738 -0.3910 -0.1322 -0.0774
  128BOLB   C1B 3057  14.605   5.924  22.952  0.0200  0.0893  0.4792
  128BOLB   C2B 3058  14.858   5.913  23.425 -0.2356 -0.0474 -0.0472
  128BOLB   C3B 3059  14.978   5.622  23.762 -0.2719 -0.1621  0.3010
  128BOLB   C4B 3060  15.175   5.263  23.954 -0.1865 -0.0044  0.1065
  128BOLB   NC2 3061  16.957   3.438  23.790 -0.2086 -0.1606  0.0149
  128BOLB   PO2 3062  17.043   3.778  23.554 -0.0104  0.0299  0.0387
  128BOLB   GL3 3063  16.818   4.157  23.286  0.1910 -0.0584 -0.0034
  128BOLB   GL4 3064  16.679   4.160  22.888 -0.1203 -0.1515 -0.1929
  128BOLB   C1C 3065  16.903   4.506  23.115  0.0464  0.1861  0.0623
  128BOLB   C2C 3066  16.708   4.893  22.892 -0.1334  0.0078 -0.1800
  128BOLB   C3C 3067  16.461   5.181  22.680 -0.0241 -0.0230 -0.0516
  128BOLB   C4C 3068  16.211   5.488  22.868  0.1991 -0.5766 -0.0076
  128BOLB   C1D 3069  16.758   4.513  22.627 -0.0519 -0.0275  0.1155
  128BOLB   C2D 3070  16.761   4.948  22.377 -0.1051  0.1312 -0.0339
  128BOLB   C3D 3071  16.543   5.144  22.185 -0.0263 -0.2114 -0.0464
  128BOLB   C4D 3072  16.184   5.019  21.910  0.0362 -0.1726 -0.2029
  129BOLB   NC1 3073  18.214   7.733  19.472  0.2567  0.1234  0.3289
  129BOLB   PO1 3074  18.501   7.392  19.216  0.0393 -0.3272  0.0205
  129BOLB   GL1 3075  18.740   7.030  19.348  0.4401  0.1286 -0.2974
  129BOLB   GL2 3076  18.835   7.082  19.730  0.0429  0.1247 -0.3206
  129BOLB   C1A 3077  18.853   6.621  19.634  0.3173  0.1713 -0.2566
  129BOLB   C2A 3078  19.255   6.387  19.786  0.0994  0.0545 -0.2879
  129BOLB   C3A 3079  19.442   6.270  20.079  0.0039  0.3649  0.0861
  129BOLB   C4A 3080  19.553   6.064  20.363 -0.3101 -0.1706 -0.0003
  129BOLB   C1B 3081  19.059   6.979  19.995  0.0807  0.0204 -0.1170
  129BOLB   C2B 3082  19.358   6.810  20.172 -0.2093 -0.0178  0.0171
  129BOLB   C3B 3083  19.711   6.603  20.352 -0.0596 -0.0180 -0.3158
  129BOLB   C4B 3084  19.842   6.485  20.617 -0.3761 -0.1280 -0.1347
  129BOLB   NC2 3085  20.919   4.096  21.340  0.3656  0.1511 -0.0051
  129BOLB   PO2 3086  20.929   4.087  20.890  0.1912 -0.1236  0.1825
  129BOLB   GL3 3087  20.674   4.552  20.877  0.0603 -0.0468  0.0883
  129BOLB   GL4 3088  20.449   4.620  20.616  0.0839  0.1411  0.1146
  129BOLB   C1C 3089  20.535   4.902  21.130 -0.2138  0.1923 -0.0947
  129BOLB   C2C 3090  20.152   5.166  20.943 -0.2361 -0.0307  0.0222
  129BOLB   C3C 3091  20.100   5.618  20.838 -0.0925 -0.0044 -0.1626
  129BOLB   C4C 3092  19.748   5.768  20.591  0.0053  0.0759  0.5178
  129BOLB   C1D 3093  20.537   5.074  20.621  0.0253  0.1819  0.2471
  129BOLB   C2D 3094  20.528   5.393  20.332  0.2357  0.0302 -0.2090
  129BOLB   C3D 3095  20.503   5.688  19.991 -0.2289 -0.1823 -0.4998
  129BOLB   C4D 3096  20.712   5.532  19.617 -0.0214  0.1637  0.0417
  130BOLB   NC1 3097  15.352   8.510  22.219  0.0205 -0.0528 -0.2542
  130BOLB   PO1 3098  14.953   8.334  22.331 -0.0159 -0.0066  0.1687
  130BOLB   GL1 3099  15.009   7.949  22.624 -0.2001 -0.2705 -0.0094
  130BOLB   GL2 3100  14.706   8.042  22.800  0.1407 -0.1859  0.2742
  130BOLB   C1A 3101  15.351   7.922  22.982 -0.4316 -0.0943  0.0272
  130BOLB   C2A 3102  15.666   7.951  23.236  0.0543 -0.0705  0.0129
  130BOLB   C3A 3103  16.049   7.771  23.360  0.1327  0.2438  0.2050
  130BOLB   C4A 3104  16.389   7.858  23.722 -0.3335 -0.2219  0.0658
  130BOLB   C1B 3105  14.932   7.881  23.170  0.3068 -0.0882 -0.4243
  130BOLB   C2B 3106  15.187   7.749  23.494 -0.1508  0.3499  0.3122
  130BOLB   C3B 3107  15.564   7.964  23.724 -0.0460 -0.2041 -0.1886
  130BOLB   C4B 3108  16.025   8.158  23.897 -0.1637  0.1194 -0.1057
  130BOLB   NC2 3109  16.877   7.011  26.416  0.2037  0.0561  0.0353
  130BOLB   PO2 3110  17.094   6.955  26.014 -0.0463 -0.0281 -0.2155
  130BOLB   GL3 3111  17.098   7.410  25.757 -0.2366  0.0238  0.1977
  130BOLB   GL4 3112  17.020   7.684  25.828  0.3143 -0.0243 -0.1017
  130BOLB   C1C 3113  17.212   7.725  25.318  0.2715 -0.2494 -0.3352
  130BOLB   C2C 3114  17.028   7.885  24.933 -0.0647 -0.1494  0.1481
  130BOLB   C3C 3115  16.818   7.788  24.508  0.1273 -0.0866 -0.1131
  130BOLB   C4C 3116  16.402   7.822  24.173 -0.0349 -0.0486 -0.2581
  130BOLB   C1D 3117  16.769   8.117  26.013  0.0166 -0.2043  0.1732
  130BOLB   C2D 3118  16.865   8.522  26.123  0.0741  0.1875  0.2939
  130BOLB   C3D 3119  16.474   8.548  26.316  0.3871 -0.0833 -0.1401
  130BOLB   C4D 3120  16.059   8.674  26.486 -0.2010  0.1404 -0.1801
  131BOLB   NC1 3121  16.778   6.130  19.842  0.2344 -0.0139  0.1012
  131BOLB   PO1 3122  17.179   6.381  20.026  0.0966 -0.0922 -0.2729
  131BOLB   GL1 3123  17.233   6.153  20.303  0.0351  0.1144  0.1774
  131BOLB   GL2 3124  17.407   5.890  20.026  0.3536 -0.1365  0.2019
  131BOLB   C1A 3125  17.468   5.940  20.543  0.3038  0.0661  0.3084
  131BOLB   C2A 3126  17.780   5.871  20.856 -0.1379 -0.0981  0.0843
  131BOLB   C3A 3127  18.082   5.623  20.916 -0.1142 -0.2072 -0.1116
  131BOLB   C4A 3128  18.193   5.274  21.135 -0.2698 -0.1958 -0.0127
  131BOLB   C1B 3129  17.610   5.516  20.177  0.2067  0.0781  0.1298
  131BOLB   C2B 3130  17.796   5.434  20.563  0.1692  0.0802  0.1987
  131BOLB   C3B 3131  18.094   4.988  20.775 -0.1464 -0.0369 -0.1028
  131BOLB   C4B 3132  18.401   4.606  20.813 -0.2396  0.0944 -0.1458
  131BOLB   NC2 3133  19.536   4.635  22.913 -0.3367  0.2260  0.1775
  131BOLB   PO2 3134  19.378   4.341  22.644 -0.1368  0.2194 -0.3510
  131BOLB   GL3 3135  19.124   4.621  22.430 -0.0480 -0.1067  0.0570
  131BOLB   GL4 3136  19.258   4.869  22.421  0.4304 -0.0779  0.0313
  131BOLB   C1C 3137  18.885   4.730  22.111  0.0404 -0.0688 -0.1378
  131BOLB   C2C 3138  18.956   4.685  21.792 -0.1908  0.2113  0.0728
  131BOLB   C3C 3139  18.822   4.650  21.494 -0.1769  0.4063  0.0051
  131BOLB   C4C 3140  18.552   4.946  21.361 -0.1227 -0.2576  0.1910
  131BOLB   C1D 3141  19.072   5.174  22.166  0.0078 -0.1206 -0.0430
  131BOLB   C2D 3142  18.719   5.281  21.968  0.1201  0.0195  0.0004
  131BOLB   C3D 3143  18.276   5.469  21.732  0.0700 -0.1245 -0.2008
  131BOLB   C4D 3144  17.918   5.556  21.883 -0.0312  0.0822 -0.0532
  132BOLB   NC1 3145  18.017   6.794  19.920  0.3617  0.0753 -0.0828
  132BOLB   PO1 3146  18.350   6.989  19.758 -0.1255  0.0146 -0.1268
  132BOLB   GL1 3147  18.639   6.808  20.173  0.0338 -0.1492  0.0739
  132BOLB   GL2 3148  18.901   6.525  20.255 -0.2360 -0.0292  0.1918
  132BOLB   C1A 3149  18.846   6.919  20.599 -0.4848  0.0352 -0.1631
  132BOLB   C2A 3150  18.998   6.680  20.969 -0.0744  0.0187  0.2015
  132BOLB   C3A 3151  19.036   6.699  21.451  0.1085 -0.3989 -0.0675
  132BOLB   C4A 3152  19.188   6.581  21.829 -0.1389  0.2181  0.2221
  132BOLB   C1B 3153  19.179   6.431  20.482  0.0104 -0.1776  0.3580
  132BOLB   C2B 3154  19.364   6.180  20.868  0.2651  0.0456  0.2537
  132BOLB   C3B 3155  19.592   5.906  21.099  0.0235 -0.2203  0.2407
  132BOLB   C4B 3156  19.691   5.762  21.537 -0.1042 -0.0254  0.5039
  132BOLB   NC2 3157  20.259   4.798  22.656  0.1949  0.1064  0.0111
  132BOLB   PO2 3158  20.112   5.064  22.924  0.1112 -0.0010 -0.1758
  132BOLB   GL3 3159  20.009   5.450  23.028 -0.1094  0.0313 -0.1237
  132BOLB   GL4 3160  19.718   5.397  22.995 -0.0371 -0.0558 -0.0635
  132BOLB   C1C 3161  19.916   5.734  22.749  0.0416 -0.2577  0.1889
  132BOLB   C2C 3162  19.566   5.998  22.528  0.1799 -0.3545  0.0739
  132BOLB   C3C 3163  19.149   6.172  22.449  0.0737  0.2435 -0.0606
  132BOLB   C4C 3164  18.970   6.370  22.145 -0.1965  0.2192 -0.2696
  132BOLB   C1D 3165  19.486   5.383  22.611 -0.3617  0.0342 -0.2597
  132BOLB   C2D 3166  19.246   5.669  22.311  0.0092 -0.1004 -0.0023
  132BOLB   C3D 3167  18.869   5.905  22.059  0.1711  0.0721  0.1123
  132BOLB   C4D 3168  18.684   6.022  21.747 -0.0141  0.1974 -0.0744
  133BOLB   NC1 3169  17.329   7.254  20.106  0.2963  0.1458  0.0259
  133BOLB   PO1 3170  17.358   7.350  20.585  0.0314 -0.1907 -0.0263
  133BOLB   GL1 3171  17.663   7.205  20.901 -0.1875 -0.3047  0.0982
  133BOLB   GL2 3172  17.770   7.350  21.160  0.1835 -0.1626 -0.1061
  133BOLB   C1A 3173  17.835   6.867  21.199 -0.1390 -0.1299 -0.0426
  133BOLB   C2A 3174  18.122   6.746  21.627  0.1792 -0.0288  0.1276
  133BOLB   C3A 3175  18.370   6.421  21.828  0.2051  0.3731 -0.1569
  133BOLB   C4A 3176  18.446   6.238  22.195  0.0241  0.0701  0.3696
  133BOLB   C1B 3177  17.704   7.311  21.550 -0.1838 -0.2557  0.0119
  133BOLB   C2B 3178  17.907   7.117  21.875  0.0014 -0.0817  0.1125
  133BOLB   C3B 3179  18.084   6.797  22.114  0.0516 -0.2641 -0.2310
  133BOLB   C4B 3180  18.138   6.610  22.337  0.0317  0.3137  0.3678
  133BOLB   NC2 3181  19.249   5.381  24.800 -0.0733  0.3726  0.2140
  133BOLB   PO2 3182  19.457   5.344  24.329  0.3004  0.1418  0.1889
  133BOLB   GL3 3183  19.300   5.614  23.930 -0.1574  0.1332  0.0805
  133BOLB   GL4 3184  19.002   5.562  23.821  0.1801  0.2410 -0.1854
  133BOLB   C1C 3185  19.314   5.967  23.633 -0.3867  0.0673 -0.1440
  133BOLB   C2C 3186  19.142   6.171  23.302  0.0771  0.0134 -0.0610
  133BOLB   C3C 3187  18.911   6.093  22.877 -0.2431  0.2140 -0.1010
  133BOLB   C4C 3188  18.676   6.038  22.511 -0.1860  0.0296  0.2124
  133BOLB   C1D 3189  18.645   5.785  23.759 -0.0084 -0.0254 -0.1909
  133BOLB   C2D 3190  18.285   6.138  23.788  0.1611 -0.0621  0.1507
  133BOLB   C3D 3191  18.089   6.360  24.097  0.2322 -0.0685 -0.0393
  133BOLB   C4D 3192  18.024   6.394  24.522  0.2654  0.1072 -0.0054
  134BOLB   NC1 3193  15.501   6.212  20.737  0.1018  0.0230  0.4217
  134BOLB   PO1 3194  15.499   6.303  21.116 -0.0138 -0.1319  0.1276
  134BOLB   GL1 3195  15.658   6.413  21.473 -0.0217 -0.1959 -0.0243
  134BOLB   GL2 3196  16.006   6.311  21.577 -0.2537 -0.0215 -0.0178
  134BOLB   C1A 3197  15.736   6.452  21.968 -0.3600  0.1315  0.1319
  134BOLB   C2A 3198  15.971   6.328  22.251  0.2500 -0.1464 -0.0061
  134BOLB   C3A 3199  16.011   6.403  22.615 -0.0562 -0.0835  0.0387
  134BOLB   C4A 3200  16.212   6.237  23.046 -0.0334  0.1317 -0.2227
  134BOLB   C1B 3201  16.316   6.426  21.871  0.5075 -0.1778 -0.2118
  134BOLB   C2B 3202  16.456   6.415  22.233  0.0844 -0.1962 -0.1113
  134BOLB   C3B 3203  16.833   6.217  22.231 -0.1317  0.2007  0.0722
  134BOLB   C4B 3204  17.124   5.922  22.282  0.0222  0.0719  0.1947
  134BOLB   NC2 3205  17.588   4.859  24.811  0.2448 -0.2055 -0.0377
  134BOLB   PO2 3206  17.165   4.902  24.890  0.1503 -0.2763 -0.1097
  134BOLB   GL3 3207  17.331   5.111  24.419  0.3689 -0.1890 -0.1501
  134BOLB   GL4 3208  17.425   5.020  24.031  0.0211 -0.1658 -0.1524
  134BOLB   C1C 3209  17.024   5.399  24.187  0.0433 -0.0067  0.0679
  134BOLB   C2C 3210  16.843   5.608  23.884 -0.2793  0.0234  0.1488
  134BOLB   C3C 3211  16.541   5.787  23.639 -0.0886 -0.0787 -0.1734
  134BOLB   C4C 3212  16.273   5.894  23.339  0.0577 -0.0054 -0.0159
  134BOLB   C1D 3213  17.154   5.247  23.649 -0.0166 -0.2105  0.0835
  134BOLB   C2D 3214  17.016   5.668  23.468  0.0050 -0.2146  0.0443
  134BOLB   C3D 3215  16.899   6.050  23.348 -0.2440 -0.2248  0.2432
  134BOLB   C4D 3216  16.705   6.261  23.085 -0.0447 -0.0479  0.0207
  135BOLB   NC1 3217  18.285   5.884  17.519  0.2708 -0.4722  0.0028
  135BOLB   PO1 3218  18.179   5.908  17.894  0.0522  0.0702  0.0200
  135BOLB   GL1 3219  18.531   5.804  17.920  0.2279  0.3076  0.0870
  135BOLB   GL2 3220  18.489   5.680  18.250 -0.1723 -0.0331  0.2124
  135BOLB   C1A 3221  19.007   5.748  17.876  0.0289  0.2502  0.2383
  135BOLB   C2A 3222  19.410   5.668  18.002  0.2408 -0.0819  0.1548
  135BOLB   C3A 3223  19.836   5.520  17.896  0.2608  0.1640  0.1710
  135BOLB   C4A 3224  20.178   5.615  17.925  0.3354 -0.3379 -0.2483
  135BOLB   C1B 3225  18.940   5.662  18.337 -0.1353 -0.3138  0.1982
  135BOLB   C2B 3226  19.173   5.564  18.592 -0.0651 -0.0256 -0.0986
  135BOLB   C3B 3227  19.573   5.617  18.871  0.0466  0.4402  0.0304
  135BOLB   C4B 3228  19.887   5.684  19.087 -0.0266 -0.2866  0.1488
  135BOLB   NC2 3229  20.712   3.621  16.897  0.1317 -0.0888  0.3100
  135BOLB   PO2 3230  20.911   3.988  16.804 -0.4798  0.2017  0.0457
  135BOLB   GL3 3231  21.024   4.350  16.928  0.3775  0.0269 -0.0486
  135BOLB   GL4 3232  20.853   4.544  16.763 -0.1174 -0.1022  0.0390
  135BOLB   C1C 3233  21.025   4.491  17.250  0.0292  0.2757 -0.0912
  135BOLB   C2C 3234  20.712   4.826  17.384 -0.3619 -0.1345 -0.2521
  135BOLB   C3C 3235  20.641   5.171  17.577 -0.0542  0.0413 -0.1740
  135BOLB   C4C 3236  20.447   5.431  17.695 -0.3033  0.1170  0.1644
  135BOLB   C1D 3237  21.031   4.969  16.914 -0.0152 -0.1574  0.1675
  135BOLB   C2D 3238  20.729   5.320  16.956 -0.0566 -0.0159  0.0704
  135BOLB   C3D 3239  20.604   5.697  17.277 -0.2228  0.3545 -0.0794
  135BOLB   C4D 3240  20.407   5.928  17.607  0.1144  0.0032  0.0982
  136BOLB   NC1 3241  20.411   8.859  19.272  0.1370 -0.1738  0.0188
  136BOLB   PO1 3242  20.314   8.478  19.198  0.1390 -0.0834 -0.0761
  136BOLB   GL1 3243  20.227   8.226  19.602 -0.1184 -0.1433 -0.2329
  136BOLB   GL2 3244  20.418   8.057  19.571  0.1801 -0.0345 -0.2398
  136BOLB   C1A 3245  20.379   8.169  20.032  0.0778 -0.1567  0.0432
  136BOLB   C2A 3246  20.435   7.772  20.188 -0.0396 -0.0738  0.2480
  136BOLB   C3A 3247  20.755   7.635  20.501  0.0179 -0.0097  0.0767
  136BOLB   C4A 3248  20.940   7.311  20.820  0.0247 -0.1310  0.1583
  136BOLB   C1B 3249  20.725   7.908  19.830  0.1714  0.1290  0.0809
  136BOLB   C2B 3250  20.794   7.506  19.992 -0.2185  0.1767  0.4094
  136BOLB   C3B 3251  20.885   7.121  20.311 -0.1744  0.2010  0.1161
  136BOLB   C4B 3252  20.690   6.686  20.175  0.0867 -0.1508 -0.0316
  136BOLB   NC2 3253  21.216   4.740  22.571 -0.3822 -0.0593 -0.0733
  136BOLB   PO2 3254  21.111   5.089  22.266  0.4080 -0.3377  0.0721
  136BOLB   GL3 3255  21.009   5.340  21.898 -0.1185  0.0981  0.2890
  136BOLB   GL4 3256  21.039   5.692  21.961  0.0717  0.2629 -0.0786
  136BOLB   C1C 3257  20.905   5.629  21.480 -0.4745 -0.1143  0.0521
  136BOLB   C2C 3258  21.021   6.023  21.283 -0.1614 -0.2798  0.0553
  136BOLB   C3C 3259  20.971   6.461  21.015  0.0834 -0.0614  0.0693
  136BOLB   C4C 3260  21.142   6.813  20.773  0.0719  0.1243  0.3151
  136BOLB   C1D 3261  20.761   6.080  21.851 -0.4594 -0.1248 -0.1398
  136BOLB   C2D 3262  20.660   6.318  21.436  0.0422 -0.1198 -0.1451
  136BOLB   C3D 3263  20.510   6.364  21.148  0.2147  0.0088 -0.0837
  136BOLB   C4D 3264  20.239   6.254  20.877 -0.0612  0.2407 -0.1596
  137BOLB   NC1 3265  20.618   8.519  17.827  0.1112 -0.3520  0.1403
  137BOLB   PO1 3266  20.448   8.278  18.129  0.0137  0.1262  0.1610
  137BOLB   GL1 3267  20.533   7.965  18.556 -0.0843  0.0440 -0.0637
  137BOLB   GL2 3268  20.314   7.631  18.484  0.4953  0.0897 -0.4481
  137BOLB   C1A 3269  20.865   7.746  18.720 -0.1186 -0.0506 -0.0654
  137BOLB   C2A 3270  21.057   7.326  18.802 -0.1300 -0.0261  0.2743
  137BOLB   C3A 3271  20.953   6.883  18.690  0.0319  0.3283  0.1059
  137BOLB   C4A 3272  21.063   6.411  18.503  0.1290  0.0989  0.0122
  137BOLB   C1B 3273  20.516   7.184  18.492 -0.0364  0.0242  0.0732
  137BOLB   C2B 3274  20.552   6.703  18.370  0.0678  0.0159 -0.1880
  137BOLB   C3B 3275  20.280   6.577  18.124 -0.0096  0.3957  0.0633
  137BOLB   C4B 3276  20.100   6.808  17.915 -0.1379 -0.2839  0.1850
  137BOLB   NC2 3277  21.603   3.909  17.931 -0.1171 -0.2559 -0.0623
  137BOLB   PO2 3278  21.205   3.966  17.716  0.1951 -0.0675  0.0807
  137BOLB   GL3 3279  21.230   4.473  17.769 -0.2746 -0.0512 -0.0103
  137BOLB   GL4 3280  21.481   4.511  17.590  0.0451  0.2268 -0.0494
  137BOLB   C1C 3281  20.935   4.765  17.836 -0.2323  0.0905  0.1055
  137BOLB   C2C 3282  20.828   5.274  18.037 -0.1789 -0.2452  0.5438
  137BOLB   C3C 3283  20.681   5.714  18.100 -0.0014 -0.0152 -0.0911
  137BOLB   C4C 3284  20.964   6.166  18.106  0.1831 -0.1308 -0.1575
  137BOLB   C1D 3285  21.453   4.805  17.305  0.0002  0.0525 -0.1665
  137BOLB   C2D 3286  21.149   5.061  17.414  0.1440 -0.2274  0.1887
  137BOLB   C3D 3287  20.997   5.544  17.609 -0.5204 -0.0518 -0.0028
  137BOLB   C4D 3288  20.925   5.982  17.610 -0.0049 -0.1255 -0.3005
  138BOLB   NC1 3289  19.000   3.628  18.568  0.1626 -0.4287  0.0741
  138BOLB   PO1 3290  18.962   4.008  18.422  0.1379 -0.0008  0.0803
  138BOLB   GL1 3291  19.203   4.457  18.396  0.1890 -0.1615 -0.1031
  138BOLB   GL2 3292  19.404   4.611  18.180  0.2478  0.0296  0.2600
  138BOLB   C1A 3293  19.270   4.937  18.603  0.2907  0.0982 -0.0423
  138BOLB   C2A 3294  19.327   5.172  18.902 -0.0913  0.1298 -0.1421
  138BOLB   C3A 3295  19.638   5.251  19.171 -0.2414  0.1607  0.2939
  138BOLB   C4A 3296  19.941   5.366  19.480  0.0294  0.1898  0.2474
  138BOLB   C1B 3297  19.742   4.837  18.105  0.1362  0.0299 -0.2324
  138BOLB   C2B 3298  19.969   5.168  18.195 -0.2418  0.2768  0.0388
  138BOLB   C3B 3299  20.366   5.284  18.244 -0.3626  0.0313 -0.0429
  138BOLB   C4B 3300  20.795   5.364  18.518 -0.1700 -0.0270  0.0481
  138BOLB   NC2 3301  21.272   3.544  19.969 -0.2913 -0.2820 -0.1340
  138BOLB   PO2 3302  20.903   3.787  20.183 -0.4517  0.1224  0.0487
  138BOLB   GL3 3303  21.030   4.068  19.843  0.0543 -0.0108 -0.0581
  138BOLB   GL4 3304  21.303   4.095  19.742  0.0494 -0.0075 -0.1035
  138BOLB   C1C 3305  20.916   4.460  19.747 -0.4252 -0.0549  0.1833
  138BOLB   C2C 3306  20.609   4.753  19.682  0.0310 -0.0286  0.0304
  138BOLB   C3C 3307  20.440   5.180  19.784 -0.0427  0.0850  0.0288
  138BOLB   C4C 3308  20.130   5.392  19.870  0.3880 -0.3877  0.2495
  138BOLB   C1D 3309  21.377   4.520  19.561 -0.2255  0.1038 -0.3871
  138BOLB   C2D 3310  21.028   4.926  19.540 -0.0881  0.1030  0.2855
  138BOLB   C3D 3311  20.682   5.051  19.290 -0.0553  0.2362 -0.1122
  138BOLB   C4D 3312  20.410   5.252  19.246 -0.0507 -0.1447  0.1150
  139BOLB   NC1 3313  17.516   8.552  22.073  0.0710 -0.1112 -0.2040
  139BOLB   PO1 3314  17.787   8.740  21.867  0.2510  0.0670 -0.1509
  139BOLB   GL1 3315  18.219   8.559  22.057 -0.3929  0.1066 -0.0305
  139BOLB   GL2 3316  18.471   8.447  21.912  0.1013 -0.3423  0.0788
  139BOLB   C1A 3317  18.371   8.533  22.446 -0.0818 -0.0878 -0.0378
  139BOLB   C2A 3318  18.374   8.364  22.820 -0.2128  0.0786  0.1373
  139BOLB   C3A 3319  18.499   8.092  23.164  0.2729 -0.0573 -0.1227
  139BOLB   C4A 3320  18.514   7.669  23.224 -0.0246  0.0225  0.1131
  139BOLB   C1B 3321  18.371   8.058  22.286 -0.0777 -0.0823  0.0615
  139BOLB   C2B 3322  18.214   7.748  22.494  0.3219 -0.2250 -0.0715
  139BOLB   C3B 3323  18.188   7.655  22.882 -0.2052  0.0375 -0.0226
  139BOLB   C4B 3324  17.957   7.612  23.287 -0.0604 -0.1319 -0.1318
  139BOLB   NC2 3325  19.855   5.576  24.000 -0.0441 -0.0321  0.3750
  139BOLB   PO2 3326  20.186   5.889  23.862  0.1897 -0.0117  0.0008
  139BOLB   GL3 3327  19.863   6.119  23.830  0.0446 -0.0210 -0.0715
  139BOLB   GL4 3328  19.597   5.998  24.016 -0.0105 -0.1528  0.1860
  139BOLB   C1C 3329  19.654   6.274  23.498 -0.3608 -0.0898  0.0337
  139BOLB   C2C 3330  19.481   6.694  23.384 -0.0129  0.0069 -0.0088
  139BOLB   C3C 3331  19.185   6.933  23.182  0.2970 -0.1500 -0.1483
  139BOLB   C4C 3332  18.881   7.249  23.301  0.1085  0.1729  0.2005
  139BOLB   C1D 3333  19.371   6.391  23.903 -0.1636  0.0291  0.1960
  139BOLB   C2D 3334  19.055   6.565  23.645  0.0468 -0.0960  0.2347
  139BOLB   C3D 3335  18.817   6.622  23.264 -0.1635 -0.0666 -0.1409
  139BOLB   C4D 3336  18.727   6.946  22.942  0.3845 -0.0340 -0.1330
  140BOLB   NC1 3337  11.934   8.623  22.920  0.0189 -0.0347 -0.1577
  140BOLB   PO1 3338  12.247   8.829  23.045 -0.1761 -0.1979 -0.0643
  140BOLB   GL1 3339  12.085   8.986  23.403 -0.4510  0.0173  0.0929
  140BOLB   GL2 3340  12.034   9.284  23.348 -0.2796 -0.1998 -0.0726
  140BOLB   C1A 3341  11.794   8.826  23.742  0.0984  0.0968 -0.2346
  140BOLB   C2A 3342  11.721   8.981  24.225 -0.0006 -0.2590 -0.3657
  140BOLB   C3A 3343  11.657   9.124  24.552  0.0116 -0.1614  0.0244
  140BOLB   C4A 3344  11.605   9.237  25.015  0.0388  0.1521 -0.0317
  140BOLB   C1B 3345  12.021   9.260  23.797  0.0618  0.1396 -0.1083
  140BOLB   C2B 3346  12.143   9.325  24.239 -0.0448  0.1871 -0.4135
  140BOLB   C3B 3347  12.499   9.251  24.639  0.0120  0.3830  0.1273
  140BOLB   C4B 3348  12.757   9.081  24.822 -0.1164  0.0846 -0.0947
  140BOLB   NC2 3349  12.495   9.179  27.353 -0.2472  0.1502 -0.0917
  140BOLB   PO2 3350  12.719   8.678  27.308  0.1522  0.2731 -0.1387
  140BOLB   GL3 3351  12.428   8.775  27.019  0.0405 -0.0934 -0.2432
  140BOLB   GL4 3352  12.436   8.965  26.841  0.0485 -0.2223  0.0836
  140BOLB   C1C 3353  12.108   8.682  26.617 -0.2004  0.1049 -0.0442
  140BOLB   C2C 3354  11.746   8.827  26.329  0.0823  0.3027  0.1335
  140BOLB   C3C 3355  11.755   9.060  25.869 -0.0367 -0.1383  0.0457
  140BOLB   C4C 3356  11.810   9.170  25.424  0.0026 -0.1870 -0.2152
  140BOLB   C1D 3357  12.504   8.870  26.382  0.0899  0.1616  0.2832
  140BOLB   C2D 3358  12.690   8.585  26.075  0.0429  0.1504  0.1182
  140BOLB   C3D 3359  13.025   8.287  26.014  0.0640 -0.1430 -0.1456
  140BOLB   C4D 3360  13.372   8.110  26.124  0.3499  0.0731 -0.0632
  141BOLB   NC1 3361  19.402   7.385  18.587 -0.0561 -0.1483  0.1750
  141BOLB   PO1 3362  19.597   7.812  18.549  0.3365  0.3032  0.2908
  141BOLB   GL1 3363  19.831   7.608  18.257 -0.1800  0.2431  0.3871
  141BOLB   GL2 3364  19.862   7.260  18.442  0.2416 -0.0876  0.3302
  141BOLB   C1A 3365  20.221   7.260  18.126  0.1928  0.0232 -0.1527
  141BOLB   C2A 3366  20.639   7.104  18.009 -0.2160  0.2787 -0.0738
  141BOLB   C3A 3367  20.944   6.785  18.185 -0.0047  0.1904 -0.0990
  141BOLB   C4A 3368  21.351   6.602  18.158 -0.0902 -0.1576  0.3480
  141BOLB   C1B 3369  20.084   7.059  18.697 -0.1000  0.2533 -0.2233
  141BOLB   C2B 3370  20.368   6.924  18.906 -0.4329 -0.0868 -0.2410
  141BOLB   C3B 3371  20.640   6.539  18.969  0.0461 -0.0005 -0.3629
  141BOLB   C4B 3372  21.078   6.415  19.166 -0.0085 -0.2046 -0.2204
  141BOLB   NC2 3373  22.603   4.313  17.167 -0.2558 -0.0307 -0.1833
  141BOLB   PO2 3374  22.295   4.595  17.313  0.0697  0.1483  0.1554
  141BOLB   GL3 3375  21.952   4.812  17.401  0.1903  0.0445 -0.0400
  141BOLB   GL4 3376  21.821   5.056  17.168  0.1459 -0.1599  0.1521
  141BOLB   C1C 3377  21.713   4.984  17.780 -0.2147  0.3643  0.0967
  141BOLB   C2C 3378  21.339   5.270  17.857 -0.0676 -0.0431  0.0053
  141BOLB   C3C 3379  21.232   5.801  17.975  0.0342 -0.0509  0.0262
  141BOLB   C4C 3380  21.427   6.211  18.209  0.3153 -0.0979 -0.0036
  141BOLB   C1D 3381  21.570   5.388  17.357  0.3503  0.1014 -0.0518
  141BOLB   C2D 3382  21.364   5.831  17.312 -0.1037 -0.1277 -0.0814
  141BOLB   C3D 3383  21.188   6.195  17.232  0.2682 -0.0355  0.0370
  141BOLB   C4D 3384  20.995   6.568  17.301  0.2116  0.2608  0.0009
  142BOLB   NC1 3385  19.711   8.428  17.343 -0.2454  0.1336  0.1099
  142BOLB   PO1 3386  19.649   8.135  17.604  0.2182 -0.0081  0.1806
  142BOLB   GL1 3387  19.762   7.761  17.763  0.0053 -0.0968  0.0739
  142BOLB   GL2 3388  20.036   7.796  17.557 -0.0326 -0.3580 -0.0655
  142BOLB   C1A 3389  19.924   7.315  17.720  0.3022  0.0905  0.0168
  142BOLB   C2A 3390  20.347   7.081  17.604 -0.1715  0.0400  0.0115
  142BOLB   C3A 3391  20.738   6.965  17.558 -0.0088  0.0716  0.0211
  142BOLB   C4A 3392  21.144   6.689  17.740  0.0887 -0.0733 -0.3695
  142BOLB   C1B 3393  20.340   7.627  17.277 -0.0164  0.0543 -0.0060
  142BOLB   C2B 3394  20.547   7.279  17.102 -0.0726  0.1179  0.2395
  142BOLB   C3B 3395  20.832   7.004  17.046 -0.0884  0.0976 -0.3068
  142BOLB   C4B 3396  21.129   6.786  16.866  0.2966  0.0883  0.0593
  142BOLB   NC2 3397  23.161   4.910  17.546  0.2259  0.2781 -0.1230
  142BOLB   PO2 3398  22.813   4.880  17.716  0.2680 -0.2838 -0.2742
  142BOLB   GL3 3399  22.719   5.281  17.870 -0.0440  0.0731  0.1090
  142BOLB   GL4 3400  22.719   5.465  18.150  0.3327 -0.2228  0.0037
  142BOLB   C1C 3401  22.438   5.566  17.734 -0.1658 -0.1859 -0.1002
  142BOLB   C2C 3402  22.089   5.778  17.864 -0.2489  0.1954  0.2196
  142BOLB   C3C 3403  21.701   6.013  17.731  0.2669  0.4532 -0.0522
  142BOLB   C4C 3404  21.393   6.247  17.736 -0.0439  0.0005  0.1227
  142BOLB   C1D 3405  22.668   5.895  18.076  0.1592  0.0829 -0.0332
  142BOLB   C2D 3406  22.538   6.131  17.740  0.3189 -0.0236 -0.1717
  142BOLB   C3D 3407  22.209   6.241  17.542  0.2580  0.0708  0.1033
  142BOLB   C4D 3408  22.002   6.604  17.250  0.1498 -0.0345 -0.3202
  143BOLB   NC1 3409   9.635   7.295  23.770  0.2054 -0.1918 -0.1832
  143BOLB   PO1 3410   9.604   7.667  23.908  0.0026  0.1159 -0.1778
  143BOLB   GL1 3411   9.751   8.053  23.797 -0.1816  0.0955 -0.2046
  143BOLB   GL2 3412   9.680   8.228  24.091  0.0731 -0.2279 -0.2802
  143BOLB   C1A 3413  10.002   8.504  23.843  0.0486 -0.0199 -0.1709
  143BOLB   C2A 3414   9.897   8.859  23.813 -0.0969  0.2339  0.0584
  143BOLB   C3A 3415   9.799   9.304  23.974 -0.1677  0.0892 -0.0823
  143BOLB   C4A 3416  10.062   9.460  24.131 -0.0500  0.2433 -0.1683
  143BOLB   C1B 3417   9.886   8.641  24.333  0.2070 -0.1283 -0.1091
  143BOLB   C2B 3418  10.005   9.024  24.328  0.1155  0.0154  0.0249
  143BOLB   C3B 3419   9.789   9.318  24.529 -0.0070 -0.1631 -0.0252
  143BOLB   C4B 3420   9.350   9.462  24.708 -0.2609  0.0244 -0.0454
  143BOLB   NC2 3421   9.212   9.775  26.528  0.2207 -0.3386 -0.0971
  143BOLB   PO2 3422   9.251   9.464  26.168  0.0894  0.2214 -0.0655
  143BOLB   GL3 3423   9.366   9.636  25.784 -0.1023  0.0504 -0.0840
  143BOLB   GL4 3424   9.645   9.404  25.823 -0.1263  0.0198 -0.1654
  143BOLB   C1C 3425   9.518   9.813  25.438 -0.0976  0.0577  0.2432
  143BOLB   C2C 3426   9.497   9.767  25.041  0.0495 -0.0120  0.2335
  143BOLB   C3C 3427   9.717   9.967  24.719  0.3037  0.0655 -0.1919
  143BOLB   C4C 3428  10.032   9.744  24.483 -0.1077  0.1539  0.0009
  143BOLB   C1D 3429   9.985   9.494  25.591 -0.1333  0.1806 -0.0402
  143BOLB   C2D 3430  10.065   9.194  25.274  0.1845 -0.1312  0.2053
  143BOLB   C3D 3431  10.428   8.758  25.154  0.2049 -0.0040  0.1501
  143BOLB   C4D 3432  10.890   8.772  25.090  0.5208  0.1017  0.1645
  144BOLB   NC1 3433  18.541   8.003  19.999 -0.0835  0.1796  0.0670
  144BOLB   PO1 3434  18.958   7.960  19.984  0.0736 -0.3064 -0.1434
  144BOLB   GL1 3435  18.976   7.484  20.063  0.1397 -0.1122  0.1314
  144BOLB   GL2 3436  18.732   7.270  20.257  0.0277 -0.2863  0.1210
  144BOLB   C1A 3437  19.270   7.275  20.372  0.0882 -0.2288  0.2184
  144BOLB   C2A 3438  19.381   6.939  20.641  0.1326 -0.0175  0.1157
  144BOLB   C3A 3439  19.491   6.686  20.927  0.5717  0.1307  0.1251
  144BOLB   C4A 3440  19.835   6.373  21.148  0.5061 -0.0171  0.1756
  144BOLB   C1B 3441  18.967   7.568  20.592 -0.1621  0.1821  0.2021
  144BOLB   C2B 3442  19.195   7.408  20.840  0.0582  0.0325 -0.3006
  144BOLB   C3B 3443  19.109   7.204  21.024  0.3554  0.0599 -0.0923
  144BOLB   C4B 3444  19.235   7.113  21.399  0.2146 -0.1429 -0.1910
  144BOLB   NC2 3445  20.913   4.341  22.938  0.0103  0.1600 -0.0167
  144BOLB   PO2 3446  20.720   4.588  22.531 -0.1212  0.3089 -0.2037
  144BOLB   GL3 3447  20.624   4.787  22.132  0.0355 -0.1833 -0.2068
  144BOLB   GL4 3448  20.306   4.873  22.136 -0.0380  0.0243 -0.0174
  144BOLB   C1C 3449  20.632   5.067  21.743 -0.0083  0.1259 -0.1055
  144BOLB   C2C 3450  20.459   5.421  21.558  0.1204 -0.0255  0.0421
  144BOLB   C3C 3451  20.410   5.803  21.533  0.1607 -0.1164 -0.1977
  144BOLB   C4C 3452  20.062   5.994  21.304  0.2519 -0.5173  0.2241
  144BOLB   C1D 3453  19.960   4.985  21.825  0.0283  0.0877 -0.1367
  144BOLB   C2D 3454  19.466   4.930  21.826  0.2222  0.2232  0.1906
  144BOLB   C3D 3455  19.047   5.102  21.570  0.3776  0.1259  0.0064
  144BOLB   C4D 3456  18.991   5.237  21.178 -0.0462 -0.0627  0.1976
  145BOLB   NC1 3457  11.251   8.881  23.058  0.0444  0.3213 -0.1304
  145BOLB   PO1 3458  11.671   8.973  23.066  0.3162  0.2214  0.1889
  145BOLB   GL1 3459  11.468   9.176  23.472  0.2980 -0.2973  0.1260
  145BOLB   GL2 3460  11.338   8.876  23.617 -0.0189 -0.0731  0.1141
  145BOLB   C1A 3461  11.494   9.296  23.853 -0.1298 -0.0657  0.1330
  145BOLB   C2A 3462  11.683   9.555  24.182  0.2459  0.2093  0.0382
  145BOLB   C3A 3463  12.044   9.621  24.599 -0.1722  0.0172  0.2030
  145BOLB   C4A 3464  12.178   9.582  24.920  0.0722  0.0692  0.0374
  145BOLB   C1B 3465  11.297   8.815  23.930 -0.2157  0.0985 -0.0684
  145BOLB   C2B 3466  11.097   8.803  24.278 -0.1757  0.1654  0.1617
  145BOLB   C3B 3467  11.220   8.928  24.678  0.1090  0.4832 -0.3931
  145BOLB   C4B 3468  11.376   8.824  25.100 -0.0881  0.0387  0.1471
  145BOLB   NC2 3469  13.189   9.451  27.317 -0.1452  0.0144 -0.0518
  145BOLB   PO2 3470  12.770   9.592  27.279  0.2306  0.0173  0.1176
  145BOLB   GL3 3471  12.841   9.602  26.824  0.1518 -0.1555  0.3377
  145BOLB   GL4 3472  12.656   9.415  26.707 -0.0843  0.0971  0.2948
  145BOLB   C1C 3473  12.911   9.754  26.341  0.2737  0.0003  0.0539
  145BOLB   C2C 3474  12.701   9.881  26.064 -0.0252 -0.0228 -0.0368
  145BOLB   C3C 3475  12.343   9.820  25.770 -0.1148 -0.2894  0.0841
  145BOLB   C4C 3476  12.350   9.758  25.384  0.1272 -0.0837  0.3399
  145BOLB   C1D 3477  12.528   9.374  26.332 -0.0139  0.3583 -0.3596
  145BOLB   C2D 3478  12.348   9.381  25.937 -0.0096 -0.0917 -0.1307
  145BOLB   C3D 3479  12.274   9.211  25.567  0.3076 -0.3362 -0.1471
  145BOLB   C4D 3480  12.266   9.126  25.150  0.1106 -0.0818 -0.0767
  146BOLB   NC1 3481  20.416   8.415  18.650 -0.0457 -0.0867 -0.0893
  146BOLB   PO1 3482  19.966   8.344  18.789  0.3457  0.0985  0.2749
  146BOLB   GL1 3483  20.130   8.039  19.037  0.1038  0.0749 -0.1390
  146BOLB   GL2 3484  20.040   7.745  19.322 -0.1107 -0.0868 -0.0393
  146BOLB   C1A 3485  20.464   7.782  19.130  0.2454 -0.0993 -0.2886
  146BOLB   C2A 3486  20.816   7.700  19.381  0.0604 -0.3266  0.2197
  146BOLB   C3A 3487  21.036   7.404  19.460  0.0788 -0.0441 -0.2664
  146BOLB   C4A 3488  21.417   7.228  19.564 -0.0168 -0.0748 -0.1702
  146BOLB   C1B 3489  20.367   7.602  19.609  0.3342  0.0664 -0.1730
  146BOLB   C2B 3490  20.566   7.243  19.594 -0.1875  0.1139 -0.0751
  146BOLB   C3B 3491  20.955   7.029  19.784  0.1268  0.0606 -0.0099
  146BOLB   C4B 3492  21.342   6.787  19.937  0.2042 -0.1012  0.1372
  146BOLB   NC2 3493  23.145   6.119  20.866 -0.0580  0.0139 -0.0271
  146BOLB   PO2 3494  23.428   5.877  20.697 -0.1894  0.0232  0.0185
  146BOLB   GL3 3495  22.967   6.048  20.401  0.1079 -0.1635  0.0502
  146BOLB   GL4 3496  22.888   5.897  20.127 -0.1437  0.1945  0.2123
  146BOLB   C1C 3497  22.765   6.455  20.157  0.0279 -0.0375 -0.2033
  146BOLB   C2C 3498  22.498   6.807  19.971  0.0823 -0.0830  0.4583
  146BOLB   C3C 3499  22.012   6.852  19.809  0.2353 -0.0260 -0.1550
  146BOLB   C4C 3500  21.725   7.108  19.687 -0.0213  0.0327  0.3236
  146BOLB   C1D 3501  22.597   6.098  19.830  0.2544 -0.2270  0.0862
  146BOLB   C2D 3502  22.217   6.357  19.926 -0.0076 -0.0735 -0.2074
  146BOLB   C3D 3503  21.889   6.558  20.185  0.0107  0.0926  0.0769
  146BOLB   C4D 3504  21.465   6.499  20.326  0.1650  0.0963 -0.2166
  147BOLB   NC1 3505  15.667   7.452  21.167 -0.2217 -0.2059  0.1534
  147BOLB   PO1 3506  15.745   7.021  21.101  0.0586  0.1432  0.1456
  147BOLB   GL1 3507  15.736   6.924  21.506 -0.2257 -0.0330  0.0813
  147BOLB   GL2 3508  15.525   6.854  21.709 -0.0267 -0.1684  0.2347
  147BOLB   C1A 3509  16.037   6.849  21.802  0.0494 -0.1461 -0.0413
  147BOLB   C2A 3510  16.482   6.955  21.988 -0.1256 -0.1585 -0.3218
  147BOLB   C3A 3511  16.846   6.699  22.098  0.0430 -0.1620 -0.0514
  147BOLB   C4A 3512  17.087   6.735  22.443 -0.3381 -0.3160 -0.0827
  147BOLB   C1B 3513  15.719   6.905  22.143  0.0911 -0.0352 -0.0756
  147BOLB   C2B 3514  16.103   6.788  22.293  0.4199 -0.2038  0.3847
  147BOLB   C3B 3515  16.514   6.818  22.483 -0.1170  0.1698 -0.0569
  147BOLB   C4B 3516  16.834   7.130  22.550 -0.0338  0.1154  0.1860
  147BOLB   NC2 3517  17.714   4.271  24.054  0.0472  0.2402 -0.1058
  147BOLB   PO2 3518  17.778   4.552  23.706  0.2564  0.1607  0.0344
  147BOLB   GL3 3519  17.526   4.844  23.581  0.1621 -0.1373  0.3612
  147BOLB   GL4 3520  17.663   5.118  23.638 -0.0159  0.1676  0.0973
  147BOLB   C1C 3521  17.501   5.109  23.150  0.0500  0.0899  0.2150
  147BOLB   C2C 3522  17.397   5.585  22.976  0.1837  0.0840  0.1070
  147BOLB   C3C 3523  17.127   5.906  22.815 -0.0724  0.0516 -0.2295
  147BOLB   C4C 3524  17.024   6.392  22.653 -0.1715  0.1871 -0.1491
  147BOLB   C1D 3525  17.786   5.510  23.471  0.0159  0.3911  0.0076
  147BOLB   C2D 3526  17.871   5.770  23.160  0.0065 -0.0917 -0.2296
  147BOLB   C3D 3527  17.805   5.892  22.750 -0.0123  0.0806 -0.0204
  147BOLB   C4D 3528  17.539   5.726  22.459 -0.2063  0.3632 -0.0393
  148BOLB   NC1 3529  18.750   7.639  18.217 -0.3753 -0.0995 -0.0042
  148BOLB   PO1 3530  19.271   7.596  18.166  0.3087  0.4659  0.0706
  148BOLB   GL1 3531  19.538   7.296  18.011 -0.2474 -0.1012  0.4368
  148BOLB   GL2 3532  19.384   7.222  17.720 -0.0565  0.1634 -0.1500
  148BOLB   C1A 3533  19.660   7.028  18.077 -0.0605 -0.0776 -0.1950
  148BOLB   C2A 3534  19.901   6.734  18.367 -0.0915  0.2347  0.1181
  148BOLB   C3A 3535  20.224   6.442  18.674  0.1740  0.0713 -0.2455
  148BOLB   C4A 3536  20.569   6.201  18.508  0.0717  0.1291  0.2053
  148BOLB   C1B 3537  19.582   7.275  17.354  0.3871  0.4616  0.1773
  148BOLB   C2B 3538  19.962   7.284  17.214  0.1910 -0.1421  0.1359
  148BOLB   C3B 3539  20.045   7.229  16.757  0.0582 -0.0855 -0.2553
  148BOLB   C4B 3540  20.448   7.410  16.550  0.0142 -0.0031  0.0456
  148BOLB   NC2 3541  22.830   4.491  18.120  0.0264 -0.2175 -0.0372
  148BOLB   PO2 3542  22.517   4.883  18.235  0.0212  0.0926 -0.2847
  148BOLB   GL3 3543  22.218   5.244  18.250 -0.1651  0.0249 -0.1002
  148BOLB   GL4 3544  22.017   5.323  17.959 -0.4212  0.0657 -0.1573
  148BOLB   C1C 3545  22.219   5.742  18.371  0.3430  0.0118 -0.2113
  148BOLB   C2C 3546  21.856   5.928  18.393 -0.3315 -0.2949 -0.0423
  148BOLB   C3C 3547  21.421   5.822  18.547 -0.2715 -0.2374  0.0012
  148BOLB   C4C 3548  20.969   5.811  18.479 -0.3285  0.1591 -0.2239
  148BOLB   C1D 3549  21.652   5.580  18.042  0.2012  0.2215 -0.1639
  148BOLB   C2D 3550  21.272   5.426  18.295 -0.1096 -0.3665  0.2050
  148BOLB   C3D 3551  21.223   5.360  18.738  0.1907  0.2254  0.3107
  148BOLB   C4D 3552  21.045   4.975  18.959 -0.1813  0.1094  0.0992
  149BOLB   NC1 3553  16.100   7.823  21.370 -0.1442  0.0745  0.1903
  149BOLB   PO1 3554  16.317   7.861  21.764 -0.1042  0.1275 -0.1912
  149BOLB   GL1 3555  16.380   7.492  21.945 -0.1855  0.0917 -0.0393
  149BOLB   GL2 3556  16.164   7.304  22.083  0.1236  0.1265 -0.1801
  149BOLB   C1A 3557  16.699   7.472  22.242 -0.2030 -0.0671  0.2164
  149BOLB   C2A 3558  16.823   7.831  22.588  0.0972  0.4668  0.2360
  149BOLB   C3A 3559  16.942   7.864  23.035  0.0327 -0.3060 -0.1996
  149BOLB   C4A 3560  16.979   7.855  23.512  0.1769 -0.3137  0.2190
  149BOLB   C1B 3561  16.359   7.304  22.513  0.1570 -0.1502 -0.1046
  149BOLB   C2B 3562  16.507   7.152  22.900  0.3686 -0.3002  0.0869
  149BOLB   C3B 3563  16.852   6.849  22.944 -0.1279  0.0977 -0.0821
  149BOLB   C4B 3564  17.149   6.567  23.170 -0.1861  0.1859 -0.0240
  149BOLB   NC2 3565  17.218   7.340  26.247 -0.2250 -0.0017  0.1688
  149BOLB   PO2 3566  17.537   7.299  25.909 -0.4217 -0.1844  0.1245
  149BOLB   GL3 3567  17.600   7.338  25.407  0.0293 -0.2432  0.1698
  149BOLB   GL4 3568  17.794   6.982  25.283 -0.0422 -0.2596 -0.1127
  149BOLB   C1C 3569  17.664   7.550  25.080  0.1380 -0.0564  0.0919
  149BOLB   C2C 3570  17.426   7.572  24.690 -0.0502 -0.0972  0.1550
  149BOLB   C3C 3571  17.281   7.777  24.372 -0.0695 -0.2596  0.1193
  149BOLB   C4C 3572  16.943   7.950  23.985 -0.0046 -0.1134  0.3357
  149BOLB   C1D 3573  17.472   7.080  25.024  0.0408 -0.1094  0.1573
  149BOLB   C2D 3574  17.125   7.211  25.034  0.3324 -0.1189  0.1339
  149BOLB   C3D 3575  16.943   7.331  24.690 -0.0498  0.1375 -0.0344
  149BOLB   C4D 3576  16.861   7.472  24.190 -0.1655 -0.2295  0.3992
  150BOLB   NC1 3577  11.805   5.581  25.203  0.1087 -0.0618  0.0503
  150BOLB   PO1 3578  12.058   5.832  25.556  0.1367  0.1985  0.0613
  150BOLB   GL1 3579  12.135   6.260  25.356  0.5478 -0.0441  0.2827
  150BOLB   GL2 3580  11.865   6.530  25.357  0.3884  0.2883  0.4004
  150BOLB   C1A 3581  12.234   6.557  25.100 -0.2365  0.1170 -0.0586
  150BOLB   C2A 3582  12.574   6.707  24.782 -0.1096  0.1144 -0.1402
  150BOLB   C3A 3583  12.984   6.917  24.730 -0.0438  0.1831  0.0767
  150BOLB   C4A 3584  13.313   6.796  24.642 -0.1543 -0.0722  0.5151
  150BOLB   C1B 3585  11.570   6.885  25.274 -0.0889 -0.0584 -0.1452
  150BOLB   C2B 3586  11.261   7.143  25.172  0.0617  0.1222  0.0579
  150BOLB   C3B 3587  11.059   7.548  25.133  0.0895 -0.1393  0.4352
  150BOLB   C4B 3588  11.086   8.040  25.071  0.0736  0.1537  0.0169
  150BOLB   NC2 3589  14.247   4.744  25.183  0.3320  0.0216 -0.1396
  150BOLB   PO2 3590  14.302   5.266  25.410  0.0044  0.1688  0.0220
  150BOLB   GL3 3591  14.442   5.646  25.250 -0.1211 -0.1714  0.4048
  150BOLB   GL4 3592  14.525   6.016  25.453 -0.1401  0.2984 -0.0944
  150BOLB   C1C 3593  14.342   6.049  24.988 -0.0471  0.1344 -0.1006
  150BOLB   C2C 3594  14.245   6.073  24.601 -0.3475  0.0534  0.1547
  150BOLB   C3C 3595  13.972   6.495  24.519 -0.1193 -0.0897 -0.1745
  150BOLB   C4C 3596  13.591   6.630  24.522  0.2327 -0.0091  0.2251
  150BOLB   C1D 3597  14.066   6.074  25.541  0.3122  0.2321 -0.1178
  150BOLB   C2D 3598  13.679   6.042  25.297  0.0077 -0.1871  0.0762
  150BOLB   C3D 3599  13.490   6.141  24.913 -0.0204  0.0584  0.1059
  150BOLB   C4D 3600  13.705   5.980  24.549 -0.2713 -0.0071 -0.2365
  151BOLB   NC1 3601  13.118   7.331  22.632  0.3388 -0.1908 -0.2376
  151BOLB   PO1 3602  12.818   7.126  22.787  0.0208  0.3247 -0.0147
  151BOLB   GL1 3603  13.152   7.283  23.103 -0.1181  0.1394 -0.2399
  151BOLB   GL2 3604  13.149   7.629  23.099 -0.2408  0.1178  0.2947
  151BOLB   C1A 3605  13.085   7.367  23.516 -0.0419 -0.2419  0.0703
  151BOLB   C2A 3606  13.245   7.541  23.883  0.2909 -0.0437  0.1137
  151BOLB   C3A 3607  13.282   7.820  24.242 -0.0120 -0.0088  0.3177
  151BOLB   C4A 3608  13.431   7.725  24.746  0.2725  0.0241 -0.0336
  151BOLB   C1B 3609  13.405   7.760  23.405 -0.0473 -0.0003  0.1210
  151BOLB   C2B 3610  13.576   7.949  23.817  0.0982 -0.5118  0.1327
  151BOLB   C3B 3611  13.543   8.285  24.067  0.1012 -0.4545  0.0743
  151BOLB   C4B 3612  13.560   8.563  24.413 -0.1223 -0.0800 -0.1746
  151BOLB   NC2 3613  13.045   7.374  27.158  0.0585 -0.0519 -0.0019
  151BOLB   PO2 3614  13.009   6.869  27.133  0.0807 -0.3340  0.1501
  151BOLB   GL3 3615  13.154   6.974  26.721  0.0233 -0.3295  0.1459
  151BOLB   GL4 3616  12.872   7.216  26.589  0.0396  0.4363 -0.0044
  151BOLB   C1C 3617  13.247   7.215  26.306  0.3149  0.1513 -0.0916
  151BOLB   C2C 3618  13.377   7.533  25.991 -0.0285  0.1678 -0.2561
  151BOLB   C3C 3619  13.524   7.868  25.708  0.0134  0.1138 -0.0280
  151BOLB   C4C 3620  13.485   7.734  25.210 -0.0437  0.3368 -0.0186
  151BOLB   C1D 3621  12.715   6.972  26.315  0.1235 -0.3581 -0.0318
  151BOLB   C2D 3622  12.675   6.732  25.979 -0.1772  0.0466 -0.1234
  151BOLB   C3D 3623  12.525   6.775  25.481 -0.2300 -0.1344  0.1342
  151BOLB   C4D 3624  12.140   6.991  25.268  0.1571  0.2156 -0.1008
  152BOLB   NC1 3625  17.058   8.865  22.268 -0.0872 -0.4870  0.0872
  152BOLB   PO1 3626  17.055   8.554  21.860 -0.0809 -0.1184 -0.0692
  152BOLB   GL1 3627  17.214   8.095  21.948  0.0110  0.0362 -0.0921
  152BOLB   GL2 3628  17.460   8.091  22.030  0.0800 -0.2047 -0.2779
  152BOLB   C1A 3629  17.128   7.700  22.170 -0.0193  0.0768  0.1395
  152BOLB   C2A 3630  17.214   7.584  22.651 -0.0990 -0.1234 -0.0305
  152BOLB   C3A 3631  17.151   7.394  23.020  0.1393  0.1564  0.1901
  152BOLB   C4A 3632  17.071   7.022  23.364  0.1785 -0.2629 -0.1660
  152BOLB   C1B 3633  17.504   7.904  22.447  0.0817 -0.3544  0.2727
  152BOLB   C2B 3634  17.720   7.611  22.727 -0.0363  0.2049 -0.1298
  152BOLB   C3B 3635  17.667   7.325  22.967 -0.1226  0.0884 -0.0321
  152BOLB   C4B 3636  17.602   7.210  23.360  0.2984 -0.2575 -0.1858
  152BOLB   NC2 3637  17.913   6.076  25.523 -0.4212  0.3436  0.1168
  152BOLB   PO2 3638  18.216   6.240  25.186  0.2879  0.0206  0.1235
  152BOLB   GL3 3639  17.979   6.462  25.003  0.2726 -0.1531  0.0652
  152BOLB   GL4 3640  18.235   6.844  25.039  0.0923  0.1185  0.2361
  152BOLB   C1C 3641  17.564   6.568  24.785 -0.2569  0.1520  0.0540
  152BOLB   C2C 3642  17.372   6.917  24.584 -0.2938  0.1356  0.1617
  152BOLB   C3C 3643  17.196   7.083  24.223  0.5214 -0.0034 -0.1635
  152BOLB   C4C 3644  17.279   6.989  23.780  0.0136 -0.2646  0.2398
  152BOLB   C1D 3645  18.264   6.846  24.620 -0.0263  0.1383 -0.3800
  152BOLB   C2D 3646  18.336   6.929  24.210  0.1312 -0.1146 -0.0779
  152BOLB   C3D 3647  18.275   7.301  23.912  0.0113  0.2021  0.1123
  152BOLB   C4D 3648  18.210   7.643  23.762 -0.1588 -0.1833 -0.2158
  153BOLB   NC1 3649  17.480   3.011  20.974  0.1642 -0.1334 -0.2313
  153BOLB   PO1 3650  17.799   3.327  21.038  0.2756 -0.1855 -0.1848
  153BOLB   GL1 3651  17.750   3.810  20.973 -0.4015  0.0192  0.0218
  153BOLB   GL2 3652  17.995   3.924  21.201 -0.4113 -0.0548 -0.0569
  153BOLB   C1A 3653  17.740   4.271  20.946 -0.1992  0.1847  0.0244
  153BOLB   C2A 3654  17.947   4.491  21.196 -0.1504 -0.1314  0.1876
  153BOLB   C3A 3655  18.057   4.865  21.370  0.0028  0.0091 -0.1056
  153BOLB   C4A 3656  18.051   5.088  21.798  0.2027 -0.0731 -0.0270
  153BOLB   C1B 3657  18.143   4.050  20.789  0.0340 -0.0618  0.0381
  153BOLB   C2B 3658  18.098   4.358  20.497 -0.0246 -0.1321  0.0116
  153BOLB   C3B 3659  18.092   4.737  20.285  0.1616  0.0422  0.1113
  153BOLB   C4B 3660  17.861   5.026  20.263  0.0731 -0.4036 -0.2951
  153BOLB   NC2 3661  18.587   4.322  23.311 -0.1400  0.0372 -0.1979
  153BOLB   PO2 3662  18.561   4.766  23.531 -0.0606  0.1335  0.2560
  153BOLB   GL3 3663  18.368   5.004  23.359  0.2957  0.1308  0.3076
  153BOLB   GL4 3664  18.086   4.900  23.454 -0.1692  0.1541  0.1605
  153BOLB   C1C 3665  18.125   5.309  23.187  0.4101  0.2430 -0.3131
  153BOLB   C2C 3666  17.857   5.395  22.901 -0.0932 -0.1575 -0.1272
  153BOLB   C3C 3667  17.984   5.322  22.497 -0.0467  0.2647 -0.0373
  153BOLB   C4C 3668  18.268   5.271  22.210 -0.2298 -0.2125  0.1476
  153BOLB   C1D 3669  17.910   4.870  23.120 -0.2619  0.0676 -0.0948
  153BOLB   C2D 3670  17.653   4.871  22.779  0.0937  0.0503 -0.1132
  153BOLB   C3D 3671  17.458   5.253  22.620  0.3460 -0.1050 -0.2887
  153BOLB   C4D 3672  17.175   5.306  22.317 -0.3103 -0.4451 -0.1503
  154BOLB   NC1 3673  18.483   7.101  18.804  0.0679 -0.0825  0.2936
  154BOLB   PO1 3674  18.786   7.234  18.522  0.1807  0.2315 -0.0906
  154BOLB   GL1 3675  19.093   6.934  18.590  0.0459  0.0411 -0.1006
  154BOLB   GL2 3676  19.244   6.977  18.366 -0.0004 -0.1227  0.1456
  154BOLB   C1A 3677  19.509   6.694  18.667  0.0214  0.1570  0.3214
  154BOLB   C2A 3678  19.832   6.624  18.870 -0.1551 -0.0125  0.2862
  154BOLB   C3A 3679  20.061   6.372  19.210 -0.0508 -0.1375  0.0416
  154BOLB   C4A 3680  20.434   6.215  19.304  0.1738 -0.0683 -0.4373
  154BOLB   C1B 3681  19.417   6.553  18.150  0.0806 -0.3988  0.1568
  154BOLB   C2B 3682  19.845   6.297  17.976 -0.1464  0.2574  0.1643
  154BOLB   C3B 3683  20.190   6.393  17.678  0.3867 -0.2878  0.0438
  154BOLB   C4B 3684  20.644   6.498  17.680 -0.0992 -0.0093  0.5783
  154BOLB   NC2 3685  22.772   5.117  20.437  0.0493  0.0817  0.2241
  154BOLB   PO2 3686  22.317   5.233  20.479 -0.0677 -0.1739 -0.1761
  154BOLB   GL3 3687  22.104   5.303  20.166 -0.0245  0.1318  0.2617
  154BOLB   GL4 3688  22.154   5.333  19.845 -0.0882 -0.1549 -0.0737
  154BOLB   C1C 3689  21.652   5.268  19.955 -0.0248 -0.0123 -0.3381
  154BOLB   C2C 3690  21.424   5.608  19.858 -0.0474 -0.0642 -0.0387
  154BOLB   C3C 3691  21.169   5.848  19.641  0.1480  0.0433 -0.1135
  154BOLB   C4C 3692  20.897   6.033  19.432 -0.2464 -0.1321 -0.2302
  154BOLB   C1D 3693  21.956   5.485  19.551 -0.4572 -0.0656 -0.1922
  154BOLB   C2D 3694  21.659   5.714  19.466 -0.0866 -0.3049  0.0315
  154BOLB   C3D 3695  21.488   6.092  19.375  0.1326  0.0282 -0.2025
  154BOLB   C4D 3696  21.640   6.446  19.723 -0.1516  0.0120  0.2184
  155BOLB   NC1 3697  19.568   2.682  19.193  0.0175  0.0042  0.1954
  155BOLB   PO1 3698  19.693   2.985  19.026 -0.2862 -0.2918  0.1006
  155BOLB   GL1 3699  19.635   3.398  19.038 -0.1215 -0.1612  0.1028
  155BOLB   GL2 3700  19.432   3.669  18.772 -0.2625  0.0462  0.1274
  155BOLB   C1A 3701  19.537   3.600  19.394 -0.1509  0.0289 -0.1665
  155BOLB   C2A 3702  19.693   3.899  19.553 -0.1214  0.3295  0.2100
  155BOLB   C3A 3703  19.593   4.352  19.451  0.2895  0.0112 -0.1758
  155BOLB   C4A 3704  19.374   4.636  19.745 -0.0229  0.1062 -0.0766
  155BOLB   C1B 3705  19.555   3.954  19.021  0.0299 -0.1853  0.2651
  155BOLB   C2B 3706  19.724   4.367  18.993  0.1375 -0.2108 -0.0478
  155BOLB   C3B 3707  19.521   4.736  19.114  0.3004 -0.0282  0.2115
  155BOLB   C4B 3708  19.313   4.991  19.411 -0.3101 -0.0071 -0.0635
  155BOLB   NC2 3709  20.434   3.449  21.843 -0.2304  0.1552  0.0010
  155BOLB   PO2 3710  20.118   3.651  21.730 -0.0980  0.1738 -0.1555
  155BOLB   GL3 3711  19.854   3.827  21.442  0.1272 -0.3267 -0.1490
  155BOLB   GL4 3712  19.876   3.776  21.230  0.0478  0.1734  0.2286
  155BOLB   C1C 3713  19.526   4.249  21.254 -0.2384  0.2162 -0.1064
  155BOLB   C2C 3714  19.297   4.376  20.881 -0.0561 -0.1374 -0.0761
  155BOLB   C3C 3715  19.099   4.477  20.540 -0.0168  0.1706 -0.1377
  155BOLB   C4C 3716  18.985   4.533  20.061 -0.0463  0.1999  0.0126
  155BOLB   C1D 3717  20.049   4.247  21.236 -0.2374  0.1232  0.0196
  155BOLB   C2D 3718  20.178   4.566  21.124  0.2664 -0.0416  0.1356
  155BOLB   C3D 3719  19.916   4.869  21.324  0.2914  0.0376 -0.0485
  155BOLB   C4D 3720  19.608   5.238  21.463 -0.0350  0.0236  0.0808
  156BOLB   NC1 3721  20.920   8.822  17.638  0.1634 -0.1195  0.0458
  156BOLB   PO1 3722  21.022   8.790  18.097  0.1556 -0.0091 -0.0524
  156BOLB   GL1 3723  21.090   8.331  17.887  0.0935 -0.2675 -0.1736
  156BOLB   GL2 3724  20.908   8.056  17.979  0.1813 -0.0901  0.1329
  156BOLB   C1A 3725  21.461   7.916  17.976  0.1356 -0.1910 -0.0164
  156BOLB   C2A 3726  21.458   7.600  18.158 -0.1833  0.0881 -0.1838
  156BOLB   C3A 3727  21.602   7.287  18.044 -0.0685 -0.0293 -0.2307
  156BOLB   C4A 3728  21.570   6.880  17.850 -0.0632 -0.0515  0.1172
  156BOLB   C1B 3729  21.034   7.959  18.278  0.0108 -0.0699 -0.1573
  156BOLB   C2B 3730  21.334   7.834  18.568  0.3251 -0.1458 -0.0799
  156BOLB   C3B 3731  21.493   7.578  18.710  0.0013  0.0090  0.0358
  156BOLB   C4B 3732  21.496   7.165  18.962 -0.2103  0.2411  0.2061
  156BOLB   NC2 3733  22.757   4.838  18.633 -0.0257  0.2566 -0.0387
  156BOLB   PO2 3734  23.081   5.082  18.798  0.5382 -0.3222  0.1121
  156BOLB   GL3 3735  22.855   5.411  18.718  0.0991 -0.1263  0.0655
  156BOLB   GL4 3736  22.499   5.306  18.685  0.0010 -0.1680  0.3004
  156BOLB   C1C 3737  22.657   5.819  18.621  0.1254 -0.2342  0.1242
  156BOLB   C2C 3738  22.484   6.183  18.443 -0.0958 -0.0647  0.0592
  156BOLB   C3C 3739  22.205   6.185  18.131 -0.0664  0.1779  0.0815
  156BOLB   C4C 3740  21.881   6.485  17.857 -0.3423  0.3052  0.1008
  156BOLB   C1D 3741  22.219   5.709  18.920  0.1155 -0.1066  0.0085
  156BOLB   C2D 3742  21.895   6.002  18.991 -0.0436  0.2178 -0.2009
  156BOLB   C3D 3743  21.567   6.213  18.860  0.1932 -0.3236 -0.1168
  156BOLB   C4D 3744  21.434   6.618  18.697 -0.0393 -0.1382  0.2603
  157BOLB   NC1 3745  16.942   4.150  19.971 -0.3428 -0.2271 -0.0921
  157BOLB   PO1 3746  17.373   4.336  19.947 -0.1458  0.0348 -0.1290
  157BOLB   GL1 3747  17.708   4.451  20.233  0.4207 -0.1770 -0.0889
  157BOLB   GL2 3748  17.624   4.116  20.451  0.4013 -0.1180 -0.2234
  157BOLB   C1A 3749  17.666   4.765  20.649 -0.0785 -0.1325 -0.0952
  157BOLB   C2A 3750  17.590   4.886  21.079  0.1115  0.3525  0.1448
  157BOLB   C3A 3751  17.244   5.100  21.199 -0.0255 -0.1511 -0.0337
  157BOLB   C4A 3752  17.153   4.972  21.564 -0.2214  0.1431 -0.0747
  157BOLB   C1B 3753  17.349   3.977  20.811  0.0681  0.0278  0.0092
  157BOLB   C2B 3754  17.357   3.938  21.220  0.2543  0.0185 -0.0438
  157BOLB   C3B 3755  17.260   3.987  21.578 -0.0202  0.2344 -0.1784
  157BOLB   C4B 3756  16.988   4.423  21.660  0.2737  0.2297 -0.4827
  157BOLB   NC2 3757  17.541   3.412  22.251  0.0424  0.1112  0.2595
  157BOLB   PO2 3758  17.809   3.372  21.889  0.2884 -0.1448 -0.0227
  157BOLB   GL3 3759  17.906   3.702  22.058 -0.2874 -0.1600 -0.0580
  157BOLB   GL4 3760  18.276   3.904  22.056 -0.1643  0.3887  0.4685
  157BOLB   C1C 3761  17.902   4.204  22.181 -0.0900  0.0971  0.0140
  157BOLB   C2C 3762  17.623   4.487  22.462 -0.0468 -0.2554 -0.0954
  157BOLB   C3C 3763  17.173   4.564  22.332 -0.0047  0.1040  0.1951
  157BOLB   C4C 3764  17.112   4.774  21.958 -0.1538  0.0485 -0.1241
  157BOLB   C1D 3765  18.120   4.040  21.685  0.0261  0.2015 -0.3150
  157BOLB   C2D 3766  17.708   4.190  21.548 -0.3126  0.0077  0.3577
  157BOLB   C3D 3767  17.299   4.419  21.287 -0.2301  0.0916 -0.1578
  157BOLB   C4D 3768  17.275   4.535  20.913  0.1319 -0.1256  0.2596
  158BOLB   NC1 3769  12.194   6.167  23.303  0.0747 -0.1906 -0.2074
  158BOLB   PO1 3770  12.195   6.622  23.126  0.0733 -0.4857  0.0027
  158BOLB   GL1 3771  12.181   6.857  23.495  0.0335  0.0185  0.0268
  158BOLB   GL2 3772  12.246   6.641  23.788  0.1143  0.1863 -0.0652
  158BOLB   C1A 3773  12.284   7.167  23.762  0.3226  0.3570  0.1451
  158BOLB   C2A 3774  12.624   7.344  23.963 -0.4146  0.1318  0.0294
  158BOLB   C3A 3775  12.956   7.240  24.299 -0.1358  0.0498 -0.2977
  158BOLB   C4A 3776  12.954   7.458  24.678 -0.1424  0.2255 -0.2461
  158BOLB   C1B 3777  11.943   6.859  23.975 -0.1073  0.0714  0.0652
  158BOLB   C2B 3778  11.865   6.922  24.353  0.1256 -0.0617  0.0642
  158BOLB   C3B 3779  11.815   7.279  24.551  0.2876 -0.0182  0.2220
  158BOLB   C4B 3780  11.883   7.617  24.539  0.0997  0.2172  0.0758
  158BOLB   NC2 3781  14.616   7.312  26.265 -0.1878 -0.0470 -0.1506
  158BOLB   PO2 3782  14.383   6.949  26.481 -0.1612 -0.0350 -0.0305
  158BOLB   GL3 3783  14.107   6.813  26.188 -0.2316  0.1398 -0.2689
  158BOLB   GL4 3784  14.180   6.481  26.114 -0.0002  0.0169  0.0129
  158BOLB   C1C 3785  13.791   6.816  25.962  0.0035 -0.0826  0.0243
  158BOLB   C2C 3786  13.540   7.159  25.622 -0.0262 -0.2080 -0.2202
  158BOLB   C3C 3787  13.309   7.390  25.510 -0.0947  0.1480  0.1216
  158BOLB   C4C 3788  13.062   7.377  25.186 -0.0074  0.1599 -0.1364
  158BOLB   C1D 3789  14.225   6.725  25.735 -0.1070 -0.0697 -0.1507
  158BOLB   C2D 3790  14.118   7.086  25.305 -0.0262 -0.0128  0.2774
  158BOLB   C3D 3791  14.164   7.263  24.896 -0.1795 -0.1349  0.3744
  158BOLB   C4D 3792  14.178   7.543  24.580  0.1796  0.1987 -0.0936
  159BOLB   NC1 3793  18.284   8.202  20.981  0.0547 -0.1926  0.1384
  159BOLB   PO1 3794  17.921   8.322  21.229  0.0654 -0.2158 -0.3019
  159BOLB   GL1 3795  18.176   8.173  21.487 -0.0066  0.0702 -0.1902
  159BOLB   GL2 3796  18.036   8.295  21.713 -0.1252  0.1253  0.2146
  159BOLB   C1A 3797  18.431   7.914  21.799 -0.0933 -0.0962  0.0433
  159BOLB   C2A 3798  18.776   7.721  21.992  0.1325  0.1627  0.1474
  159BOLB   C3A 3799  18.793   7.513  22.322  0.2707 -0.1080  0.1540
  159BOLB   C4A 3800  19.013   7.244  22.639 -0.0001  0.0105  0.1873
  159BOLB   C1B 3801  17.985   8.029  21.973 -0.2101 -0.2032  0.0163
  159BOLB   C2B 3802  17.987   7.647  22.065 -0.2124  0.0764 -0.1563
  159BOLB   C3B 3803  18.303   7.401  22.071  0.0601  0.1809 -0.2430
  159BOLB   C4B 3804  18.504   7.087  22.468 -0.1691 -0.0760  0.0379
  159BOLB   NC2 3805  19.344   4.706  23.696 -0.0035 -0.0232  0.0272
  159BOLB   PO2 3806  19.563   5.127  23.768  0.0744  0.1266 -0.0167
  159BOLB   GL3 3807  19.635   5.418  23.516  0.4712 -0.0051  0.2017
  159BOLB   GL4 3808  19.707   5.664  23.544  0.1194 -0.1243 -0.2040
  159BOLB   C1C 3809  19.439   5.747  23.174 -0.0667  0.1466 -0.2143
  159BOLB   C2C 3810  19.503   6.128  22.978  0.0441 -0.1444  0.0814
  159BOLB   C3C 3811  19.302   6.468  22.925  0.0052 -0.0694 -0.3351
  159BOLB   C4C 3812  19.067   6.704  22.604  0.2064  0.1964  0.2607
  159BOLB   C1D 3813  19.942   5.924  23.211 -0.2906  0.0584  0.3627
  159BOLB   C2D 3814  20.176   6.095  22.923  0.0673  0.1799 -0.2802
  159BOLB   C3D 3815  20.356   6.199  22.513 -0.2299 -0.2634 -0.0994
  159BOLB   C4D 3816  20.774   6.057  22.322  0.1612  0.0980 -0.2205
  160BOLB   NC1 3817  20.056   8.053  18.381  0.2086 -0.1920  0.0967
  160BOLB   PO1 3818  19.983   8.112  18.026  0.1963 -0.1674 -0.1455
  160BOLB   GL1 3819  20.303   7.812  18.021 -0.0152 -0.0204 -0.0096
  160BOLB   GL2 3820  20.444   7.829  17.795  0.1734  0.0924 -0.0287
  160BOLB   C1A 3821  20.694   7.640  18.174  0.4011  0.0478 -0.2014
  160BOLB   C2A 3822  21.057   7.326  18.327  0.2084  0.1402  0.2037
  160BOLB   C3A 3823  21.374   7.063  18.410  0.0911  0.4378  0.0757
  160BOLB   C4A 3824  21.837   6.984  18.643 -0.1347 -0.2490 -0.2212
  160BOLB   C1B 3825  20.670   7.489  17.568  0.0233 -0.3091 -0.1843
  160BOLB   C2B 3826  21.054   7.325  17.366  0.0282  0.0165  0.2453
  160BOLB   C3B 3827  21.224   7.011  17.333 -0.1554  0.5492  0.2316
  160BOLB   C4B 3828  21.643   6.939  17.255  0.3774  0.1067 -0.2293
  160BOLB   NC2 3829  23.864   5.264  18.863 -0.5232 -0.3203 -0.0381
  160BOLB   PO2 3830  23.756   5.750  18.646 -0.3307 -0.2225 -0.2457
  160BOLB   GL3 3831  23.459   6.054  18.819  0.1056  0.0288  0.3213
  160BOLB   GL4 3832  23.081   5.923  18.855  0.1629  0.2091  0.0719
  160BOLB   C1C 3833  23.205   6.346  19.186 -0.0265  0.0090 -0.0681
  160BOLB   C2C 3834  22.836   6.647  19.191  0.0125  0.1370 -0.0547
  160BOLB   C3C 3835  22.503   6.708  18.966 -0.0479  0.0507 -0.0718
  160BOLB   C4C 3836  22.197   6.838  18.839  0.0636  0.1202  0.0427
  160BOLB   C1D 3837  22.822   6.276  18.914  0.0401 -0.0097  0.0586
  160BOLB   C2D 3838  22.359   6.192  19.019 -0.1159 -0.0681  0.2381
  160BOLB   C3D 3839  22.069   6.346  18.662 -0.1236  0.1389  0.1451
  160BOLB   C4D 3840  21.826   6.455  18.367 -0.1013 -0.2340  0.0626
  161BOLB   NC1 3841  14.261   4.409  23.165 -0.0240 -0.0487  0.0449
  161BOLB   PO1 3842  13.802   4.595  23.219  0.1994  0.4811 -0.1281
  161BOLB   GL1 3843  14.117   4.884  23.348  0.2343  0.3293 -0.2588
  161BOLB   GL2 3844  14.097   4.994  23.634  0.1198  0.1435 -0.2313
  161BOLB   C1A 3845  14.388   5.140  23.243  0.2172  0.0615 -0.0222
  161BOLB   C2A 3846  14.762   5.335  23.031 -0.0535 -0.1547 -0.1109
  161BOLB   C3A 3847  15.154   5.571  22.886 -0.0607  0.3435  0.0544
  161BOLB   C4A 3848  15.543   5.454  22.851  0.1030 -0.2387 -0.1623
  161BOLB   C1B 3849  14.100   5.187  23.999 -0.0919 -0.0044  0.1185
  161BOLB   C2B 3850  14.321   5.402  24.138 -0.4445 -0.0990 -0.1036
  161BOLB   C3B 3851  14.294   5.571  24.509  0.0766  0.1181 -0.1912
  161BOLB   C4B 3852  14.046   5.674  24.872  0.1591  0.2223  0.2560
  161BOLB   NC2 3853  17.036   5.393  24.780 -0.2100  0.2267  0.2447
  161BOLB   PO2 3854  16.600   5.155  24.756  0.1220  0.0794 -0.0174
  161BOLB   GL3 3855  16.636   5.519  24.533 -0.0021 -0.0605  0.1027
  161BOLB   GL4 3856  16.803   5.796  24.665 -0.4367 -0.2566 -0.0176
  161BOLB   C1C 3857  16.369   5.658  24.095  0.1202  0.3604 -0.1681
  161BOLB   C2C 3858  16.143   5.412  23.766 -0.2468  0.1902  0.0263
  161BOLB   C3C 3859  16.104   5.376  23.412  0.0334  0.0766  0.1955
  161BOLB   C4C 3860  15.858   5.288  23.091  0.0409 -0.0901 -0.0843
  161BOLB   C1D 3861  16.992   5.917  24.211  0.1045 -0.0971  0.0651
  161BOLB   C2D 3862  17.019   6.054  23.866  0.0325 -0.2070  0.0130
  161BOLB   C3D 3863  17.304   6.407  23.638 -0.1874  0.3427 -0.4980
  161BOLB   C4D 3864  17.719   6.544  23.675  0.5894 -0.3135  0.1521
  162BOLB   NC1 3865  17.333   7.598  21.034 -0.1883  0.2084  0.2188
  162BOLB   PO1 3866  17.038   7.699  21.376 -0.1637  0.2281  0.2458
  162BOLB   GL1 3867  17.361   7.658  21.686  0.2076  0.1711 -0.2089
  162BOLB   GL2 3868  17.646   7.785  21.659  0.2466 -0.2174 -0.2019
  162BOLB   C1A 3869  17.522   7.449  22.068 -0.1805  0.0119  0.0203
  162BOLB   C2A 3870  17.814   7.300  22.339 -0.3623  0.3019  0.1543
  162BOLB   C3A 3871  18.036   7.114  22.694  0.1496  0.0760  0.2208
  162BOLB   C4A 3872  18.197   7.228  23.117 -0.3036  0.1493  0.0850
  162BOLB   C1B 3873  18.093   7.640  21.544  0.0551  0.1672 -0.3396
  162BOLB   C2B 3874  18.217   7.211  21.416  0.2181 -0.4298 -0.0653
  162BOLB   C3B 3875  18.285   6.896  20.954 -0.3500  0.0512 -0.0334
  162BOLB   C4B 3876  18.552   6.521  20.704  0.0067  0.1947  0.0533
  162BOLB   NC2 3877  19.409   5.893  24.498  0.0895  0.0359 -0.1341
  162BOLB   PO2 3878  19.866   6.092  24.590  0.1760 -0.0175  0.0896
  162BOLB   GL3 3879  19.705   6.371  24.286 -0.0329  0.0013  0.0265
  162BOLB   GL4 3880  19.910   6.732  24.167  0.0468 -0.0565 -0.2031
  162BOLB   C1C 3881  19.410   6.667  24.305 -0.2356 -0.0887 -0.1945
  162BOLB   C2C 3882  19.062   6.886  24.098 -0.0608  0.1557  0.1027
  162BOLB   C3C 3883  18.673   6.897  23.778 -0.1125 -0.0503  0.1416
  162BOLB   C4C 3884  18.413   7.099  23.454  0.2091 -0.0142 -0.2100
  162BOLB   C1D 3885  19.828   6.642  23.811  0.1359 -0.0313  0.0502
  162BOLB   C2D 3886  19.898   6.905  23.393 -0.2684 -0.0091 -0.1252
  162BOLB   C3D 3887  19.714   7.102  22.990  0.0427  0.1308 -0.1240
  162BOLB   C4D 3888  19.510   6.944  22.836 -0.1311  0.1150  0.1826
  163BOLB   NC1 3889  19.851   8.536  19.936 -0.2693 -0.0435 -0.1109
  163BOLB   PO1 3890  20.118   8.747  19.635 -0.0198 -0.2474  0.1373
  163BOLB   GL1 3891  20.565   8.647  19.713 -0.1199 -0.1356 -0.2496
  163BOLB   GL2 3892  20.781   8.478  19.518  0.2931 -0.1167 -0.1173
  163BOLB   C1A 3893  20.895   8.358  19.945 -0.0646  0.1502 -0.0440
  163BOLB   C2A 3894  21.093   7.939  20.185  0.0840 -0.2643  0.0918
  163BOLB   C3A 3895  21.345   7.655  20.361  0.0042  0.2095  0.2871
  163BOLB   C4A 3896  21.382   7.204  20.498 -0.5862  0.6227  0.0084
  163BOLB   C1B 3897  20.951   8.144  19.412 -0.1297 -0.1456 -0.4530
  163BOLB   C2B 3898  21.177   7.972  19.579  0.0420 -0.1175 -0.0895
  163BOLB   C3B 3899  21.310   7.664  19.758 -0.0692 -0.1073  0.0919
  163BOLB   C4B 3900  21.316   7.330  20.026  0.2135 -0.1675  0.2796
  163BOLB   NC2 3901  23.750   6.397  20.425 -0.3556 -0.0352 -0.1090
  163BOLB   PO2 3902  23.720   6.703  20.793 -0.2168  0.0906  0.1094
  163BOLB   GL3 3903  23.302   6.658  20.608 -0.2358  0.1233  0.3501
  163BOLB   GL4 3904  23.213   6.445  20.334  0.0096 -0.0504  0.0546
  163BOLB   C1C 3905  22.880   6.594  20.650  0.2590 -0.1319 -0.0753
  163BOLB   C2C 3906  22.500   6.537  20.937 -0.1777  0.1715  0.3897
  163BOLB   C3C 3907  22.065   6.752  20.839  0.1585 -0.3938  0.1326
  163BOLB   C4C 3908  21.674   6.853  20.660 -0.1951  0.1681 -0.1465
  163BOLB   C1D 3909  23.003   6.889  20.234  0.1640 -0.0292 -0.0418
  163BOLB   C2D 3910  23.032   7.351  20.294 -0.1027 -0.4511  0.1866
  163BOLB   C3D 3911  23.008   7.727  20.131 -0.3418  0.3250 -0.3684
  163BOLB   C4D 3912  22.993   7.825  19.855 -0.0105  0.0124 -0.1038
  164BOLB   NC1 3913  17.532   7.985  21.232 -0.1312 -0.1216 -0.1212
  164BOLB   PO1 3914  17.806   7.821  20.967 -0.3046 -0.2127  0.0660
  164BOLB   GL1 3915  18.216   7.642  21.069  0.0969  0.2039 -0.2924
  164BOLB   GL2 3916  18.281   7.408  20.781  0.2667 -0.1510  0.0046
  164BOLB   C1A 3917  18.532   7.603  21.357  0.2594 -0.0072  0.1123
  164BOLB   C2A 3918  18.958   7.486  21.630 -0.3631 -0.1859  0.0741
  164BOLB   C3A 3919  19.203   7.337  21.925 -0.1376  0.0596  0.0645
  164BOLB   C4A 3920  19.482   6.946  21.911 -0.1270  0.0233 -0.0941
  164BOLB   C1B 3921  18.577   7.265  21.017  0.3194  0.3516  0.0773
  164BOLB   C2B 3922  18.716   7.068  21.409  0.0709 -0.0849  0.0218
  164BOLB   C3B 3923  18.679   6.791  21.772 -0.0287 -0.1699  0.0034
  164BOLB   C4B 3924  18.706   6.779  22.158  0.1038  0.0613 -0.0599
  164BOLB   NC2 3925  21.245   7.168  23.778 -0.0040 -0.0140 -0.1808
  164BOLB   PO2 3926  21.646   7.075  23.479 -0.5779  0.1806 -0.0609
  164BOLB   GL3 3927  21.192   6.887  23.290  0.0795 -0.1607 -0.2472
  164BOLB   GL4 3928  21.030   6.859  23.433 -0.1286  0.0701 -0.0794
  164BOLB   C1C 3929  20.807   6.865  23.009 -0.0948  0.3637  0.2544
  164BOLB   C2C 3930  20.620   6.882  22.550 -0.0716 -0.1814  0.0328
  164BOLB   C3C 3931  20.386   7.019  22.165  0.0864  0.0238  0.1983
  164BOLB   C4C 3932  19.899   6.845  21.944 -0.1281 -0.0582  0.2458
  164BOLB   C1D 3933  20.812   7.264  23.283  0.0015 -0.1193 -0.1709
  164BOLB   C2D 3934  20.759   7.778  23.275  0.2229  0.2444 -0.1740
  164BOLB   C3D 3935  20.732   8.046  22.915  0.3055  0.0812  0.2199
  164BOLB   C4D 3936  20.608   8.202  22.537 -0.0579 -0.2208  0.0916
  165BOLB   NC1 3937  17.598   7.688  19.885  0.0721  0.0759 -0.1547
  165BOLB   PO1 3938  17.813   7.269  19.968  0.0895  0.1652  0.0903
  165BOLB   GL1 3939  17.685   6.887  20.283  0.0213 -0.0784 -0.2326
  165BOLB   GL2 3940  17.444   6.760  20.382  0.0655 -0.2886 -0.1879
  165BOLB   C1A 3941  17.908   6.624  20.573  0.0533 -0.1007 -0.0654
  165BOLB   C2A 3942  18.115   6.226  20.652  0.0701 -0.0249  0.3739
  165BOLB   C3A 3943  18.399   6.045  20.886 -0.0938  0.0595  0.2462
  165BOLB   C4A 3944  18.491   5.692  21.200  0.3261 -0.4057  0.0195
  165BOLB   C1B 3945  17.742   6.239  20.329  0.0956 -0.0407  0.1013
  165BOLB   C2B 3946  17.889   5.889  20.213  0.0079 -0.1043  0.0118
  165BOLB   C3B 3947  18.199   5.645  20.350  0.0300  0.1084  0.1406
  165BOLB   C4B 3948  18.374   5.233  20.382 -0.4983  0.1616 -0.1134
  165BOLB   NC2 3949  20.024   3.968  22.491  0.1625  0.3337 -0.0820
  165BOLB   PO2 3950  19.877   4.502  22.501  0.4421 -0.3641  0.0836
  165BOLB   GL3 3951  19.800   4.976  22.484  0.2616 -0.0073 -0.0839
  165BOLB   GL4 3952  20.039   5.268  22.496 -0.0303  0.1092 -0.4138
  165BOLB   C1C 3953  19.642   5.242  22.176 -0.2867  0.1534 -0.0888
  165BOLB   C2C 3954  19.453   5.479  21.926  0.2517  0.1754 -0.3925
  165BOLB   C3C 3955  19.125   5.579  21.683 -0.1414  0.0257 -0.0656
  165BOLB   C4C 3956  18.718   5.532  21.559  0.1344 -0.1437 -0.0838
  165BOLB   C1D 3957  19.863   5.674  22.250 -0.0729  0.0009  0.1279
  165BOLB   C2D 3958  19.576   5.950  22.048  0.0004  0.4022 -0.0815
  165BOLB   C3D 3959  19.317   6.069  21.791  0.0090  0.1447  0.0297
  165BOLB   C4D 3960  19.272   6.272  21.392 -0.1224  0.0417 -0.1201
  166BOLB   NC1 3961  13.834   8.863  22.805  0.1478  0.3043 -0.4395
  166BOLB   PO1 3962  13.829   8.448  22.734  0.2234  0.0919  0.0965
  166BOLB   GL1 3963  14.019   8.035  22.790  0.4865 -0.0783 -0.2498
  166BOLB   GL2 3964  14.116   7.703  22.775 -0.0293 -0.2458 -0.2591
  166BOLB   C1A 3965  14.356   8.001  23.144  0.0678 -0.2453 -0.0091
  166BOLB   C2A 3966  14.646   8.160  23.520  0.0437  0.1335 -0.3208
  166BOLB   C3A 3967  14.938   8.019  23.844  0.2593 -0.2627 -0.0525
  166BOLB   C4A 3968  15.133   7.816  24.136  0.0105  0.1683 -0.1524
  166BOLB   C1B 3969  14.140   7.342  23.024  0.1597  0.1883  0.1039
  166BOLB   C2B 3970  14.061   6.964  23.256  0.0988  0.1922 -0.2542
  166BOLB   C3B 3971  14.285   6.718  23.390  0.1517 -0.0186 -0.0827
  166BOLB   C4B 3972  14.481   6.360  23.517  0.0670  0.1375 -0.3729
  166BOLB   NC2 3973  15.096   6.299  26.170 -0.1532 -0.1693  0.1665
  166BOLB   PO2 3974  15.509   6.357  26.203  0.0523  0.1045 -0.1165
  166BOLB   GL3 3975  15.662   6.568  25.959  0.1348 -0.3188 -0.0093
  166BOLB   GL4 3976  15.543   6.895  26.116  0.2745 -0.1746 -0.1252
  166BOLB   C1C 3977  15.724   6.917  25.643 -0.1245 -0.2851 -0.0941
  166BOLB   C2C 3978  15.705   7.215  25.329  0.1323  0.2404 -0.0104
  166BOLB   C3C 3979  15.623   7.500  24.962 -0.2311  0.1019 -0.0313
  166BOLB   C4C 3980  15.450   7.607  24.461 -0.1491 -0.0965  0.2089
  166BOLB   C1D 3981  15.369   7.329  25.903  0.3665 -0.1527 -0.0795
  166BOLB   C2D 3982  15.269   7.689  25.699 -0.0971 -0.0403 -0.4439
  166BOLB   C3D 3983  15.359   8.127  25.575 -0.1415  0.1324  0.2041
  166BOLB   C4D 3984  15.392   8.440  25.768  0.1914  0.1606  0.1580
  167BOLB   NC1 3985  19.611   8.133  19.064 -0.2382  0.0982 -0.1679
  167BOLB   PO1 3986  19.346   7.754  19.022  0.2710 -0.2162 -0.2190
  167BOLB   GL1 3987  19.650   7.506  19.041  0.0339  0.2458 -0.2649
  167BOLB   GL2 3988  19.940   7.558  18.853 -0.1450  0.0634 -0.2034
  167BOLB   C1A 3989  19.792   7.071  19.063  0.1023  0.2629 -0.1722
  167BOLB   C2A 3990  20.023   6.817  19.342  0.2970 -0.2406 -0.2188
  167BOLB   C3A 3991  20.522   6.763  19.442  0.0840  0.1449 -0.1379
  167BOLB   C4A 3992  20.825   6.525  19.682 -0.0307  0.2338  0.0686
  167BOLB   C1B 3993  20.185   7.329  19.143 -0.0583  0.0912  0.0541
  167BOLB   C2B 3994  20.698   7.258  19.069 -0.0868 -0.1155  0.0209
  167BOLB   C3B 3995  21.051   6.970  19.230  0.1156  0.0029  0.1732
  167BOLB   C4B 3996  21.439   6.750  19.416  0.0013  0.0238  0.0549
  167BOLB   NC2 3997  22.560   5.070  21.285  0.0005  0.0215  0.2148
  167BOLB   PO2 3998  22.370   5.426  21.240 -0.1253  0.0425  0.2004
  167BOLB   GL3 3999  22.082   5.739  21.217 -0.2357  0.0398  0.0632
  167BOLB   GL4 4000  22.118   5.962  21.400  0.1820  0.0910  0.0573
  167BOLB   C1C 4001  21.633   5.834  20.806 -0.0315 -0.3851 -0.0187
  167BOLB   C2C 4002  21.395   5.994  20.490 -0.0490 -0.0284  0.2954
  167BOLB   C3C 4003  21.430   6.040  20.068  0.3217  0.0705  0.2229
  167BOLB   C4C 4004  21.164   6.338  19.780  0.0437  0.1327 -0.2787
  167BOLB   C1D 4005  22.083   6.273  21.100 -0.0648  0.1790  0.0673
  167BOLB   C2D 4006  21.812   6.643  21.299  0.1863 -0.0879 -0.2024
  167BOLB   C3D 4007  21.720   7.045  21.441  0.2776 -0.0051 -0.2031
  167BOLB   C4D 4008  21.429   7.443  21.424 -0.3055  0.2617 -0.1512
  168BOLB   NC1 4009  14.652   7.313  21.360 -0.1409  0.3231 -0.2362
  168BOLB   PO1 4010  15.034   7.496  21.732 -0.0281 -0.3092 -0.1268
  168BOLB   GL1 4011  15.207   7.321  22.169  0.1165 -0.2004 -0.0595
  168BOLB   GL2 4012  15.227   6.977  22.106  0.3205 -0.2065 -0.2115
  168BOLB   C1A 4013  15.342   7.181  22.666 -0.2625  0.1637 -0.1216
  168BOLB   C2A 4014  15.494   7.222  23.104  0.1122 -0.0086  0.0003
  168BOLB   C3A 4015  15.616   7.488  23.460 -0.1307  0.0702 -0.2651
  168BOLB   C4A 4016  16.007   7.539  23.831  0.1646  0.0436  0.5227
  168BOLB   C1B 4017  15.362   6.712  22.442 -0.0659  0.1482 -0.1768
  168BOLB   C2B 4018  15.578   6.649  22.716  0.1373 -0.0605 -0.1879
  168BOLB   C3B 4019  15.739   6.776  23.112  0.3084 -0.0133 -0.0547
  168BOLB   C4B 4020  15.874   7.043  23.496  0.0427 -0.2279  0.1266
  168BOLB   NC2 4021  16.564   6.152  26.238 -0.0518 -0.2692  0.0664
  168BOLB   PO2 4022  16.240   6.516  26.157 -0.0203  0.1047 -0.1482
  168BOLB   GL3 4023  16.405   6.687  25.763  0.1875  0.0483  0.2161
  168BOLB   GL4 4024  16.385   6.918  25.633  0.0431  0.2263 -0.1719
  168BOLB   C1C 4025  16.608   6.756  25.250 -0.0210  0.2730 -0.2438
  168BOLB   C2C 4026  16.499   6.908  24.914 -0.0812 -0.1020 -0.1043
  168BOLB   C3C 4027  16.445   7.114  24.520 -0.0036  0.1317  0.0571
  168BOLB   C4C 4028  16.279   7.336  24.138 -0.2275  0.3430 -0.1146
  168BOLB   C1D 4029  16.232   7.155  25.343  0.1415  0.0508  0.2178
  168BOLB   C2D 4030  16.091   7.376  24.935 -0.1569  0.2499  0.3387
  168BOLB   C3D 4031  16.085   7.639  24.587  0.3686  0.2447 -0.0513
  168BOLB   C4D 4032  15.796   7.844  24.211 -0.0412 -0.1998  0.0558
  169BOLB   NC1 4033  18.592   4.333  18.241  0.0756 -0.0390 -0.2218
  169BOLB   PO1 4034  18.637   4.809  18.225 -0.3240  0.1487 -0.2780
  169BOLB   GL1 4035  18.680   5.244  18.291  0.5789 -0.3054 -0.1452
  169BOLB   GL2 4036  18.800   5.253  18.003  0.0096  0.0403  0.0167
  169BOLB   C1A 4037  18.721   5.493  18.739 -0.1155 -0.2357 -0.3427
  169BOLB   C2A 4038  18.978   5.662  19.052  0.1353 -0.2354  0.2867
  169BOLB   C3A 4039  19.292   5.549  19.310  0.2807 -0.0166  0.0378
  169BOLB   C4A 4040  19.426   5.382  19.733  0.2157 -0.0721 -0.0823
  169BOLB   C1B 4041  19.172   5.259  18.223  0.2586  0.0120  0.1949
  169BOLB   C2B 4042  19.614   5.427  18.411  0.1500  0.2709  0.1982
  169BOLB   C3B 4043  19.889   5.634  18.482  0.1092 -0.0903 -0.1575
  169BOLB   C4B 4044  20.272   5.716  18.486  0.0108 -0.0404  0.1227
  169BOLB   NC2 4045  20.522   3.406  20.211  0.1982  0.1263 -0.2332
  169BOLB   PO2 4046  20.284   3.261  19.833 -0.4690 -0.2602 -0.3178
  169BOLB   GL3 4047  19.992   3.482  19.906 -0.1242  0.2433  0.1509
  169BOLB   GL4 4048  19.704   3.371  19.822 -0.2395  0.3669 -0.3172
  169BOLB   C1C 4049  19.824   3.896  20.023  0.2876  0.2120 -0.0011
  169BOLB   C2C 4050  19.878   4.326  19.870  0.2903 -0.0857  0.0989
  169BOLB   C3C 4051  19.952   4.738  19.872 -0.1838  0.3058 -0.0407
  169BOLB   C4C 4052  19.704   5.095  19.875  0.3076 -0.1944  0.1614
  169BOLB   C1D 4053  19.386   3.629  19.864 -0.1004  0.3513  0.0250
  169BOLB   C2D 4054  19.172   3.524  20.163  0.0616 -0.1187  0.0518
  169BOLB   C3D 4055  18.824   3.752  20.236 -0.1824  0.0602  0.1279
  169BOLB   C4D 4056  18.673   4.176  20.377 -0.0463  0.1556 -0.0094
  170BOLB   NC1 4057  21.529   9.533  17.914 -0.0968 -0.3362  0.0572
  170BOLB   PO1 4058  21.300   9.129  17.753  0.1401  0.1336  0.0382
  170BOLB   GL1 4059  21.580   8.725  17.966  0.5140  0.2500  0.2559
  170BOLB   GL2 4060  21.422   8.628  18.293 -0.0179  0.0146 -0.0627
  170BOLB   C1A 4061  21.840   8.471  17.953  0.6211 -0.0324  0.1323
  170BOLB   C2A 4062  22.084   8.166  18.101  0.0853 -0.1133  0.2767
  170BOLB   C3A 4063  22.020   7.666  18.043 -0.0179  0.0562  0.4453
  170BOLB   C4A 4064  22.124   7.332  18.035 -0.0782  0.0103 -0.0313
  170BOLB   C1B 4065  21.551   8.242  18.418  0.0532  0.1620  0.0625
  170BOLB   C2B 4066  21.805   7.888  18.425 -0.0533 -0.1031 -0.0652
  170BOLB   C3B 4067  21.949   7.455  18.531 -0.0757  0.2102 -0.1616
  170BOLB   C4B 4068  22.336   7.179  18.453 -0.2181  0.0220 -0.0751
  170BOLB   NC2 4069  24.460   6.140  18.034 -0.0292  0.1453 -0.2082
  170BOLB   PO2 4070  24.289   6.168  17.593  0.0670 -0.1328  0.0611
  170BOLB   GL3 4071  23.999   6.377  17.927  0.0999  0.2261 -0.1168
  170BOLB   GL4 4072  24.141   6.544  18.199 -0.1624  0.2718 -0.0321
  170BOLB   C1C 4073  23.605   6.450  17.857 -0.1042  0.2687  0.0712
  170BOLB   C2C 4074  23.264   6.639  18.060 -0.4978 -0.1352 -0.0828
  170BOLB   C3C 4075  22.914   6.957  18.133  0.1012  0.3032 -0.0848
  170BOLB   C4C 4076  22.548   7.073  18.006  0.0694  0.0843 -0.2130
  170BOLB   C1D 4077  23.772   6.568  18.356 -0.0359  0.2168  0.0858
  170BOLB   C2D 4078  23.543   6.758  18.648 -0.5342  0.0884 -0.2040
  170BOLB   C3D 4079  23.127   6.918  18.703  0.2339 -0.3924 -0.0692
  170BOLB   C4D 4080  22.721   7.121  18.790 -0.1549  0.1119 -0.0104
  171BOLB   NC1 4081  18.277   6.287  18.168 -0.3428 -0.0166 -0.2022
  171BOLB   PO1 4082  18.413   6.058  18.572  0.0774 -0.2079 -0.1835
  171BOLB   GL1 4083  18.660   6.019  18.729  0.0039  0.3110  0.1344
  171BOLB   GL2 4084  18.763   6.150  18.997 -0.1320 -0.1148 -0.0877
  171BOLB   C1A 4085  19.242   6.020  18.770  0.0387 -0.3278  0.1981
  171BOLB   C2A 4086  19.742   6.106  18.884  0.2071  0.0293 -0.0462
  171BOLB   C3A 4087  20.246   5.975  18.903  0.1457  0.0430 -0.1052
  171BOLB   C4A 4088  20.732   6.003  18.959  0.2702 -0.2187 -0.1608
  171BOLB   C1B 4089  19.080   6.232  19.296 -0.1363 -0.1069 -0.1061
  171BOLB   C2B 4090  19.522   5.976  19.323 -0.2817 -0.2697  0.0604
  171BOLB   C3B 4091  19.949   5.836  19.621  0.0955 -0.1347  0.3638
  171BOLB   C4B 4092  20.322   5.764  19.418 -0.1691 -0.0991 -0.1299
  171BOLB   NC2 4093  22.257   4.137  19.248 -0.1526  0.0699 -0.1633
  171BOLB   PO2 4094  21.959   4.128  19.512 -0.3148  0.0460 -0.0354
  171BOLB   GL3 4095  21.739   4.320  19.244  0.0634 -0.1223 -0.1095
  171BOLB   GL4 4096  21.543   4.039  19.161  0.1354  0.0316 -0.0771
  171BOLB   C1C 4097  21.621   4.835  19.165 -0.0689  0.0028  0.0265
  171BOLB   C2C 4098  21.611   5.281  19.033 -0.1018 -0.1994  0.1766
  171BOLB   C3C 4099  21.451   5.711  19.046  0.0156 -0.2098 -0.1469
  171BOLB   C4C 4100  21.150   5.990  18.955 -0.1371 -0.0581 -0.0858
  171BOLB   C1D 4101  21.089   4.108  19.303 -0.1357  0.2894 -0.3005
  171BOLB   C2D 4102  20.663   4.092  19.487  0.0615 -0.3495 -0.0334
  171BOLB   C3D 4103  20.501   4.295  19.880  0.1039  0.2813  0.3711
  171BOLB   C4D 4104  20.171   4.262  20.250 -0.1888  0.0456 -0.0465
  172BOLB   NC1 4105  16.340   5.254  20.358  0.3249  0.0658  0.0599
  172BOLB   PO1 4106  16.408   4.870  20.554  0.3358 -0.1922 -0.0236
  172BOLB   GL1 4107  16.399   4.903  21.018  0.1488 -0.0224 -0.0512
  172BOLB   GL2 4108  16.022   4.772  21.091  0.2680  0.3658 -0.2936
  172BOLB   C1A 4109  16.728   5.076  21.307 -0.1456 -0.2101  0.4941
  172BOLB   C2A 4110  16.842   5.381  21.687 -0.0811 -0.0349  0.1261
  172BOLB   C3A 4111  16.836   5.595  22.012  0.0015 -0.2238 -0.1485
  172BOLB   C4A 4112  16.711   5.554  22.468 -0.1775 -0.1612 -0.0190
  172BOLB   C1B 4113  16.264   5.166  21.420 -0.4826  0.0632  0.0533
  172BOLB   C2B 4114  16.545   5.522  21.290 -0.0083  0.1836  0.2224
  172BOLB   C3B 4115  16.871   5.892  21.424  0.0954  0.1777 -0.2200
  172BOLB   C4B 4116  17.105   5.966  21.784  0.0486  0.3748 -0.1479
  172BOLB   NC2 4117  17.926   4.118  22.953  0.0560  0.0503  0.1168
  172BOLB   PO2 4118  17.841   3.680  22.972  0.3076 -0.1273 -0.1753
  172BOLB   GL3 4119  17.522   3.971  22.703  0.1142 -0.0803  0.1736
  172BOLB   GL4 4120  17.539   3.961  22.405  0.1130  0.1075  0.1569
  172BOLB   C1C 4121  17.224   4.329  22.764  0.2590  0.3473  0.0540
  172BOLB   C2C 4122  17.188   4.762  22.803  0.0393  0.1233 -0.1640
  172BOLB   C3C 4123  17.034   5.214  22.988  0.0339  0.0992 -0.0266
  172BOLB   C4C 4124  16.941   5.437  22.759 -0.2497  0.1729  0.4207
  172BOLB   C1D 4125  17.369   4.089  22.090 -0.2656 -0.0178 -0.2035
  172BOLB   C2D 4126  17.430   4.417  21.925  0.0633 -0.0626  0.0798
  172BOLB   C3D 4127  17.552   4.735  21.651  0.0433 -0.1649  0.1265
  172BOLB   C4D 4128  17.667   5.144  21.483 -0.1179  0.0081  0.2276
  173BOLB   NC1 4129  15.906   6.998  19.857  0.1108  0.0247  0.1387
  173BOLB   PO1 4130  15.775   6.892  20.294 -0.1104  0.1802  0.3565
  173BOLB   GL1 4131  16.081   6.896  20.701 -0.1497 -0.1740  0.1136
  173BOLB   GL2 4132  16.000   7.364  20.717 -0.0656 -0.1038  0.4770
  173BOLB   C1A 4133  16.211   6.559  21.117  0.0670  0.1251  0.1298
  173BOLB   C2A 4134  16.476   6.205  21.453 -0.2614  0.2780  0.1762
  173BOLB   C3A 4135  16.345   5.815  21.584  0.0366 -0.2439  0.0768
  173BOLB   C4A 4136  16.383   5.524  21.881  0.2232 -0.1548 -0.0508
  173BOLB   C1B 4137  15.785   7.706  20.477 -0.1664 -0.1770 -0.1932
  173BOLB   C2B 4138  15.641   7.988  20.381  0.2321 -0.1928 -0.0219
  173BOLB   C3B 4139  15.310   7.911  20.221 -0.1754 -0.0225 -0.0366
  173BOLB   C4B 4140  14.943   7.975  19.942 -0.0859 -0.0400 -0.0912
  173BOLB   NC2 4141  15.533   4.154  21.924  0.0407  0.0181  0.1789
  173BOLB   PO2 4142  15.674   3.846  22.207 -0.0862  0.1894  0.0822
  173BOLB   GL3 4143  15.853   4.261  22.378  0.0418  0.0769  0.2493
  173BOLB   GL4 4144  15.943   4.479  22.136 -0.1355 -0.0339  0.2783
  173BOLB   C1C 4145  15.760   4.577  22.533  0.0619 -0.0683  0.1170
  173BOLB   C2C 4146  15.742   4.989  22.671 -0.2015  0.1271 -0.0120
  173BOLB   C3C 4147  15.910   5.292  22.549  0.0930  0.5286 -0.1904
  173BOLB   C4C 4148  16.210   5.458  22.339 -0.0644 -0.2886  0.2764
  173BOLB   C1D 4149  16.106   4.531  21.720 -0.2082 -0.2890 -0.3928
  173BOLB   C2D 4150  16.521   4.566  21.459 -0.0718 -0.2154  0.0441
  173BOLB   C3D 4151  16.809   4.370  21.193  0.0928  0.0274 -0.0966
  173BOLB   C4D 4152  16.881   4.004  20.914  0.0313 -0.2460  0.0862
  174BOLB   NC1 4153  13.848   7.793  22.400 -0.0080  0.0529  0.0619
  174BOLB   PO1 4154  13.447   7.632  22.458 -0.1075  0.2742  0.1090
  174BOLB   GL1 4155  13.617   7.627  22.864  0.0570  0.2681 -0.0825
  174BOLB   GL2 4156  13.653   7.433  22.999 -0.0875  0.2419 -0.1130
  174BOLB   C1A 4157  13.870   7.816  23.277 -0.4749 -0.0131 -0.0030
  174BOLB   C2A 4158  14.174   7.623  23.524  0.0657  0.1425  0.1280
  174BOLB   C3A 4159  14.607   7.652  23.778 -0.2697 -0.0967  0.1521
  174BOLB   C4A 4160  14.893   7.369  23.918 -0.3245 -0.1718 -0.0930
  174BOLB   C1B 4161  13.699   7.291  23.381 -0.1342  0.2434  0.2174
  174BOLB   C2B 4162  13.756   7.479  23.755  0.2981 -0.0855 -0.0054
  174BOLB   C3B 4163  13.755   7.570  24.230  0.1707  0.3404  0.0206
  174BOLB   C4B 4164  13.793   7.979  24.306 -0.1306 -0.0040  0.0799
  174BOLB   NC2 4165  14.480   5.976  26.073 -0.1528  0.2072  0.1231
  174BOLB   PO2 4166  14.709   6.341  25.926 -0.3241  0.0479  0.0188
  174BOLB   GL3 4167  15.112   6.501  25.715 -0.2324 -0.0109 -0.1538
  174BOLB   GL4 4168  14.913   6.536  25.480 -0.1825  0.4000 -0.1671
  174BOLB   C1C 4169  15.420   6.640  25.336  0.0555  0.2281 -0.1634
  174BOLB   C2C 4170  15.367   6.922  24.990  0.1320 -0.2057  0.0547
  174BOLB   C3C 4171  15.312   7.143  24.687 -0.1655  0.1308  0.3375
  174BOLB   C4C 4172  15.155   7.257  24.192 -0.1434 -0.1234 -0.1771
  174BOLB   C1D 4173  14.422   6.625  25.328 -0.0381  0.0979 -0.4163
  174BOLB   C2D 4174  13.949   6.603  25.296  0.1941  0.2184  0.1984
  174BOLB   C3D 4175  13.771   6.747  24.947 -0.3393  0.2555  0.1170
  174BOLB   C4D 4176  13.861   7.035  24.601 -0.1138  0.3408 -0.1000
  175BOLB   NC1 4177  14.112   6.383  21.520  0.2387  0.0778  0.0241
  175BOLB   PO1 4178  14.593   6.540  21.571  0.1237  0.2239 -0.3663
  175BOLB   GL1 4179  14.796   6.485  21.978 -0.4822  0.0165  0.0903
  175BOLB   GL2 4180  15.113   6.493  21.709 -0.1246 -0.0654  0.1225
  175BOLB   C1A 4181  14.853   6.354  22.497  0.0558 -0.2337 -0.0516
  175BOLB   C2A 4182  15.154   6.305  22.814 -0.2183 -0.2498  0.1933
  175BOLB   C3A 4183  15.290   5.960  23.163  0.0674  0.1779 -0.0324
  175BOLB   C4A 4184  15.357   5.939  23.587 -0.0449 -0.3283  0.1143
  175BOLB   C1B 4185  15.251   6.364  22.026 -0.0244 -0.0131 -0.1659
  175BOLB   C2B 4186  15.438   6.232  22.271  0.3174 -0.0714 -0.1759
  175BOLB   C3B 4187  15.574   6.149  22.684  0.0342 -0.0452  0.0145
  175BOLB   C4B 4188  15.652   6.267  23.063  0.1525  0.1785  0.0178
  175BOLB   NC2 4189  16.047   5.062  24.767 -0.0590 -0.1612 -0.1629
  175BOLB   PO2 4190  16.182   5.441  24.878 -0.5447  0.1173 -0.1203
  175BOLB   GL3 4191  15.943   5.747  24.905 -0.0148 -0.1090  0.4573
  175BOLB   GL4 4192  15.827   6.003  25.002  0.1754 -0.0863  0.0095
  175BOLB   C1C 4193  15.412   5.854  24.827 -0.0695  0.1155 -0.2499
  175BOLB   C2C 4194  15.302   6.075  24.491 -0.3030  0.1424 -0.1167
  175BOLB   C3C 4195  15.537   6.324  24.258 -0.1443  0.0679  0.1210
  175BOLB   C4C 4196  15.520   6.128  23.951  0.1265 -0.1684  0.1629
  175BOLB   C1D 4197  15.863   6.056  24.570 -0.1002 -0.2530 -0.0547
  175BOLB   C2D 4198  15.839   5.695  24.204 -0.0837  0.3638  0.2615
  175BOLB   C3D 4199  15.898   5.848  23.696  0.1087 -0.1555  0.2158
  175BOLB   C4D 4200  15.852   5.837  23.176  0.0224 -0.0266  0.4496
  176BOLB   NC1 4201  18.858   3.166  19.621  0.4082  0.2060  0.0598
  176BOLB   PO1 4202  18.702   3.280  19.319  0.0423 -0.2682 -0.2356
  176BOLB   GL1 4203  19.049   3.621  19.396 -0.0917 -0.0056  0.0977
  176BOLB   GL2 4204  19.016   3.743  19.069  0.1690 -0.2823 -0.4724
  176BOLB   C1A 4205  19.224   4.013  19.465 -0.2664  0.0136 -0.2623
  176BOLB   C2A 4206  19.386   4.192  19.882  0.2649  0.0111 -0.0434
  176BOLB   C3A 4207  19.217   4.100  20.163  0.0926 -0.0214 -0.0996
  176BOLB   C4A 4208  19.133   3.953  20.625  0.0238  0.0617  0.1091
  176BOLB   C1B 4209  18.772   4.091  19.253 -0.2614 -0.0975  0.2266
  176BOLB   C2B 4210  18.490   4.455  19.459 -0.0022  0.0635 -0.2134
  176BOLB   C3B 4211  18.509   4.632  19.883  0.0572  0.2189  0.1260
  176BOLB   C4B 4212  18.648   4.716  20.329 -0.0544  0.1086 -0.0934
  176BOLB   NC2 4213  18.305   3.525  22.944  0.2725  0.2801  0.0493
  176BOLB   PO2 4214  18.429   4.041  22.824  0.0092  0.0038 -0.0675
  176BOLB   GL3 4215  18.240   4.302  22.528 -0.1486 -0.3087 -0.1354
  176BOLB   GL4 4216  18.019   4.557  22.775 -0.0622  0.0177 -0.0011
  176BOLB   C1C 4217  18.424   4.460  22.090 -0.1886 -0.1267 -0.0602
  176BOLB   C2C 4218  18.661   4.279  21.827  0.0931 -0.2267 -0.1216
  176BOLB   C3C 4219  19.006   4.195  21.504  0.0168 -0.1480 -0.3479
  176BOLB   C4C 4220  19.129   3.923  21.108 -0.1370  0.1263 -0.0778
  176BOLB   C1D 4221  18.188   5.000  22.765  0.0442  0.0344  0.1155
  176BOLB   C2D 4222  18.531   5.322  22.880 -0.2510  0.1362 -0.2832
  176BOLB   C3D 4223  18.728   5.345  23.224  0.4228 -0.1644  0.1079
  176BOLB   C4D 4224  18.894   5.730  23.312  0.1231 -0.2296 -0.0929
  177BOLB   NC1 4225  18.741   6.462  18.584 -0.3337  0.2183  0.0787
  177BOLB   PO1 4226  18.778   6.695  18.976 -0.0310 -0.0435  0.1796
  177BOLB   GL1 4227  19.246   6.849  19.133  0.0195  0.1979  0.2970
  177BOLB   GL2 4228  19.324   7.060  19.395  0.1804 -0.1369 -0.2046
  177BOLB   C1A 4229  19.555   6.518  19.372 -0.1184 -0.1106  0.1405
  177BOLB   C2A 4230  19.679   6.244  19.656  0.2070  0.0471  0.0140
  177BOLB   C3A 4231  19.933   6.158  19.983  0.0102  0.1298 -0.1824
  177BOLB   C4A 4232  20.195   5.971  20.388  0.3236  0.0240 -0.0526
  177BOLB   C1B 4233  19.523   6.854  19.732  0.2467  0.0044  0.0085
  177BOLB   C2B 4234  19.868   6.631  19.876 -0.0511 -0.0852  0.1487
  177BOLB   C3B 4235  20.246   6.427  19.726 -0.3055  0.1089  0.2352
  177BOLB   C4B 4236  20.555   6.139  19.942  0.2855 -0.0325  0.1256
  177BOLB   NC2 4237  21.341   4.943  21.863 -0.1607 -0.1940  0.1745
  177BOLB   PO2 4238  21.177   4.609  22.070  0.3030  0.1041  0.0702
  177BOLB   GL3 4239  20.942   4.756  21.705 -0.0914 -0.2249 -0.1662
  177BOLB   GL4 4240  20.768   4.522  21.521 -0.0337  0.0321  0.0095
  177BOLB   C1C 4241  21.002   5.076  21.342  0.2618 -0.1324 -0.1575
  177BOLB   C2C 4242  20.807   5.396  21.077  0.1775  0.1253 -0.1736
  177BOLB   C3C 4243  20.584   5.756  21.071 -0.1889  0.2878  0.4005
  177BOLB   C4C 4244  20.478   5.877  20.644  0.1764 -0.3779 -0.0051
  177BOLB   C1D 4245  20.328   4.578  21.617 -0.1066 -0.2960  0.0955
  177BOLB   C2D 4246  19.991   4.549  21.680 -0.1205  0.2642  0.1232
  177BOLB   C3D 4247  19.513   4.395  21.783  0.0433 -0.0262 -0.0241
  177BOLB   C4D 4248  19.112   4.283  22.064 -0.0480 -0.2381 -0.1528
  178BOLB   NC1 4249  16.502   7.175  20.509  0.3154 -0.0058 -0.0874
  178BOLB   PO1 4250  16.760   7.186  20.764  0.0779  0.2463  0.1640
  178BOLB   GL1 4251  17.138   7.004  20.866 -0.2101 -0.0654  0.1563
  178BOLB   GL2 4252  17.037   6.772  20.803  0.0847  0.1680 -0.1918
  178BOLB   C1A 4253  17.334   6.790  21.188 -0.1932  0.1676  0.1588
  178BOLB   C2A 4254  17.609   6.554  21.520 -0.1909 -0.0084  0.1591
  178BOLB   C3A 4255  17.792   6.438  21.906 -0.3044  0.2461 -0.1372
  178BOLB   C4A 4256  17.836   6.144  22.218  0.0219 -0.3522 -0.2739
  178BOLB   C1B 4257  17.345   6.488  20.781 -0.1069 -0.2819  0.0946
  178BOLB   C2B 4258  17.680   6.401  21.042 -0.0946  0.1725  0.1235
  178BOLB   C3B 4259  18.132   6.440  21.173 -0.3611  0.2596 -0.0992
  178BOLB   C4B 4260  18.575   6.551  21.316 -0.2589 -0.0605 -0.2298
  178BOLB   NC2 4261  18.097   5.133  24.008  0.0155 -0.1085  0.1056
  178BOLB   PO2 4262  18.405   5.402  24.232  0.0638 -0.1196  0.1014
  178BOLB   GL3 4263  18.199   5.645  23.967 -0.0313  0.0397 -0.0817
  178BOLB   GL4 4264  17.976   5.859  24.245  0.0352 -0.1560 -0.0333
  178BOLB   C1C 4265  18.257   5.723  23.459  0.2736 -0.6512 -0.1239
  178BOLB   C2C 4266  18.450   5.767  23.088  0.2338  0.1822 -0.0997
  178BOLB   C3C 4267  18.269   5.681  22.626 -0.2824  0.1623 -0.2920
  178BOLB   C4C 4268  18.028   5.804  22.260 -0.0614 -0.1658 -0.2147
  178BOLB   C1D 4269  17.826   5.931  23.832 -0.0979 -0.2763 -0.1016
  178BOLB   C2D 4270  17.978   6.208  23.402 -0.0293 -0.0812  0.0551
  178BOLB   C3D 4271  18.157   6.170  23.084  0.1539 -0.1405  0.3726
  178BOLB   C4D 4272  18.178   6.163  22.630  0.2430  0.0243 -0.1306
  179BOLB   NC1 4273  13.615   4.704  23.709  0.3888 -0.0747  0.2073
  179BOLB   PO1 4274  13.556   4.790  24.021  0.1546 -0.0736 -0.1406
  179BOLB   GL1 4275  13.606   5.126  24.036  0.0450  0.0756 -0.0842
  179BOLB   GL2 4276  13.593   5.268  23.722  0.1409  0.0593 -0.2164
  179BOLB   C1A 4277  13.407   5.520  24.243 -0.0977 -0.1931  0.0710
  179BOLB   C2A 4278  13.195   5.788  24.502 -0.2727 -0.2111  0.0091
  179BOLB   C3A 4279  13.122   6.185  24.592  0.2536  0.1638 -0.0220
  179BOLB   C4A 4280  13.064   6.482  24.930  0.0694 -0.1205  0.2421
  179BOLB   C1B 4281  14.034   5.440  23.435  0.0709 -0.0115 -0.2740
  179BOLB   C2B 4282  14.119   5.759  23.171 -0.2240  0.2281  0.3987
  179BOLB   C3B 4283  14.042   6.048  22.801 -0.0606 -0.0393  0.2350
  179BOLB   C4B 4284  14.357   6.381  22.518  0.3269  0.0770 -0.3456
  179BOLB   NC2 4285  14.027   6.551  26.606  0.7399  0.4491  0.0681
  179BOLB   PO2 4286  13.759   6.195  26.514 -0.0945  0.1681 -0.1022
  179BOLB   GL3 4287  13.538   6.383  26.127 -0.1090 -0.2666 -0.1589
  179BOLB   GL4 4288  13.604   6.374  25.753 -0.1126 -0.3261  0.1071
  179BOLB   C1C 4289  13.272   6.727  26.166 -0.0015 -0.0327 -0.2100
  179BOLB   C2C 4290  13.068   7.061  25.880  0.0109 -0.3712 -0.0617
  179BOLB   C3C 4291  12.933   7.057  25.617 -0.0140 -0.2863 -0.1201
  179BOLB   C4C 4292  12.931   6.825  25.194 -0.1449  0.1817  0.0768
  179BOLB   C1D 4293  13.313   6.705  25.705 -0.1652  0.5170  0.2776
  179BOLB   C2D 4294  12.920   6.457  25.640  0.1045  0.0048  0.0835
  179BOLB   C3D 4295  12.681   6.277  25.260  0.0723 -0.0700 -0.0217
  179BOLB   C4D 4296  12.873   5.999  24.996  0.2297 -0.1129  0.2400
  180BOLB   NC1 4297  19.124   8.065  19.486  0.2144  0.1313 -0.2249
  180BOLB   PO1 4298  19.419   8.391  19.450  0.1462  0.1836 -0.3244
  180BOLB   GL1 4299  19.653   8.035  19.573  0.2451  0.1109 -0.1701
  180BOLB   GL2 4300  19.577   7.728  19.517 -0.0388 -0.1248  0.1005
  180BOLB   C1A 4301  19.938   7.844  19.898  0.0425 -0.2024  0.0710
  180BOLB   C2A 4302  20.051   7.530  20.021  0.0900  0.1982 -0.1309
  180BOLB   C3A 4303  20.327   7.306  20.305  0.1139 -0.1134  0.1317
  180BOLB   C4A 4304  20.427   6.963  20.588 -0.2019 -0.3684  0.2825
  180BOLB   C1B 4305  19.842   7.353  19.564  0.0074  0.1269  0.2477
  180BOLB   C2B 4306  20.095   7.097  19.784 -0.4391  0.0347  0.2232
  180BOLB   C3B 4307  20.328   6.881  19.964 -0.1370 -0.0980 -0.0729
  180BOLB   C4B 4308  20.217   6.636  20.297  0.0793  0.2528 -0.0785
  180BOLB   NC2 4309  22.038   4.951  20.794 -0.0013  0.0399 -0.0296
  180BOLB   PO2 4310  21.675   4.706  21.092 -0.0577  0.5280 -0.2059
  180BOLB   GL3 4311  21.360   4.929  20.949  0.2455 -0.2814  0.2486
  180BOLB   GL4 4312  21.040   4.903  20.760 -0.1983 -0.1491  0.0348
  180BOLB   C1C 4313  21.293   5.362  20.870  0.0938  0.3289  0.1110
  180BOLB   C2C 4314  21.027   5.660  20.701 -0.4678 -0.1598 -0.1965
  180BOLB   C3C 4315  20.903   6.061  20.717 -0.0879  0.1613 -0.1282
  180BOLB   C4C 4316  20.648   6.472  20.620  0.1151 -0.0397  0.0310
  180BOLB   C1D 4317  21.066   5.123  20.396 -0.1397 -0.0849 -0.2755
  180BOLB   C2D 4318  21.334   5.448  20.377  0.1329  0.2100  0.2296
  180BOLB   C3D 4319  21.718   5.658  20.274 -0.3868  0.0748 -0.3042
  180BOLB   C4D 4320  21.929   5.792  19.942 -0.1130 -0.0324 -0.1398
  181BOLB   NC1 4321  14.408   4.110  23.940 -0.2759  0.0861 -0.0259
  181BOLB   PO1 4322  14.557   4.173  23.540 -0.1431  0.0900  0.0908
  181BOLB   GL1 4323  14.562   4.623  23.607  0.1191  0.0562  0.0321
  181BOLB   GL2 4324  14.622   4.712  23.389  0.3207  0.0152  0.0580
  181BOLB   C1A 4325  14.449   4.819  23.980 -0.2201  0.1091 -0.1420
  181BOLB   C2A 4326  14.725   5.103  24.245 -0.0427  0.3720 -0.1674
  181BOLB   C3A 4327  14.828   5.457  24.286 -0.0484 -0.1068 -0.3826
  181BOLB   C4A 4328  14.603   5.849  24.231 -0.2696 -0.4977 -0.3633
  181BOLB   C1B 4329  15.068   4.721  23.404  0.2489 -0.0820  0.3134
  181BOLB   C2B 4330  15.364   4.904  23.665  0.2693 -0.1228  0.0195
  181BOLB   C3B 4331  15.652   5.112  23.654 -0.3076  0.0307  0.1253
  181BOLB   C4B 4332  15.654   5.402  23.870 -0.0511 -0.2391  0.1242
  181BOLB   NC2 4333  15.082   3.868  24.106  0.1004 -0.0286 -0.1173
  181BOLB   PO2 4334  14.720   3.937  24.251 -0.0996  0.2237  0.1512
  181BOLB   GL3 4335  14.836   4.384  24.128 -0.0987 -0.3182  0.0436
  181BOLB   GL4 4336  14.927   4.619  24.421  0.0976 -0.1739  0.2442
  181BOLB   C1C 4337  14.913   4.789  23.893 -0.2933 -0.1412  0.0658
  181BOLB   C2C 4338  14.763   5.171  23.671  0.0711 -0.0991 -0.1206
  181BOLB   C3C 4339  14.517   5.544  23.503  0.0535  0.0134 -0.2562
  181BOLB   C4C 4340  14.460   5.836  23.776 -0.1200 -0.0986  0.1982
  181BOLB   C1D 4341  15.363   4.923  24.288 -0.1969 -0.0137  0.0168
  181BOLB   C2D 4342  15.809   5.104  24.226  0.1357 -0.1491  0.1757
  181BOLB   C3D 4343  16.291   5.143  24.216 -0.0586  0.4659 -0.1440
  181BOLB   C4D 4344  16.654   5.167  23.996  0.1228  0.0834 -0.0525
  182BOLB   NC1 4345  11.916   7.169  23.232  0.3568  0.0805  0.1167
  182BOLB   PO1 4346  11.445   7.107  23.276 -0.0343  0.1028 -0.2289
  182BOLB   GL1 4347  11.542   7.501  23.445  0.0857 -0.2012 -0.0872
  182BOLB   GL2 4348  11.391   7.657  23.818 -0.2803  0.0121 -0.0366
  182BOLB   C1A 4349  11.905   7.568  23.653 -0.0483 -0.0748 -0.0425
  182BOLB   C2A 4350  11.991   7.502  24.018 -0.3149  0.1571 -0.0065
  182BOLB   C3A 4351  12.267   7.272  24.313  0.0140  0.3183  0.4642
  182BOLB   C4A 4352  12.537   7.208  24.529  0.0985 -0.2407  0.5720
  182BOLB   C1B 4353  11.418   7.442  24.191 -0.1002 -0.0085  0.0049
  182BOLB   C2B 4354  11.290   7.542  24.601  0.2054 -0.1357  0.0770
  182BOLB   C3B 4355  11.476   7.614  24.963 -0.0436  0.0711 -0.0588
  182BOLB   C4B 4356  11.606   7.862  25.192  0.0406 -0.0803 -0.4239
  182BOLB   NC2 4357  11.547   6.557  26.637 -0.1326  0.1282  0.1905
  182BOLB   PO2 4358  11.256   6.938  26.549 -0.1849  0.3292 -0.1750
  182BOLB   GL3 4359  11.493   7.178  26.293  0.2418  0.2929  0.1665
  182BOLB   GL4 4360  11.331   7.500  26.141 -0.3083  0.0352  0.1424
  182BOLB   C1C 4361  11.850   7.312  26.050 -0.3722  0.1523 -0.0727
  182BOLB   C2C 4362  12.115   7.392  25.669  0.1309 -0.1614 -0.5385
  182BOLB   C3C 4363  12.456   7.277  25.446  0.0829  0.0182  0.0165
  182BOLB   C4C 4364  12.552   7.124  25.050  0.0861 -0.1417  0.0564
  182BOLB   C1D 4365  11.321   7.996  25.945  0.1084  0.3385  0.1258
  182BOLB   C2D 4366  11.377   8.184  25.617  0.6142 -0.1386  0.0969
  182BOLB   C3D 4367  11.096   8.406  25.347 -0.3432 -0.1173 -0.0070
  182BOLB   C4D 4368  10.713   8.300  25.143  0.0593  0.0578  0.2678
  183BOLB   NC1 4369  10.407   7.208  25.155  0.1621 -0.3205  0.0820
  183BOLB   PO1 4370   9.966   7.222  25.250  0.0029  0.0593  0.0953
  183BOLB   GL1 4371  10.203   7.649  25.175  0.0915 -0.4489  0.0045
  183BOLB   GL2 4372  10.193   7.816  24.841  0.2825  0.0073  0.3375
  183BOLB   C1A 4373  10.483   7.895  25.402 -0.0779  0.1372 -0.3204
  183BOLB   C2A 4374  10.901   7.829  25.518  0.0628  0.1642  0.0541
  183BOLB   C3A 4375  11.313   7.677  25.534  0.1504  0.3463 -0.1355
  183BOLB   C4A 4376  11.713   7.698  25.777 -0.1807  0.3293  0.0022
  183BOLB   C1B 4377  10.340   8.131  24.849 -0.2211  0.0845 -0.2258
  183BOLB   C2B 4378  10.160   8.399  24.833  0.1335 -0.2079  0.1539
  183BOLB   C3B 4379  10.129   8.814  24.741 -0.0118  0.0160  0.4012
  183BOLB   C4B 4380  10.305   9.195  24.702  0.0977 -0.0884 -0.0333
  183BOLB   NC2 4381  10.741   8.717  26.918  0.1594 -0.2729 -0.1684
  183BOLB   PO2 4382  10.767   8.498  26.588 -0.2866 -0.1859 -0.3044
  183BOLB   GL3 4383  10.734   8.434  26.175  0.3901 -0.2195 -0.0624
  183BOLB   GL4 4384  10.611   8.229  26.026  0.1258  0.0207  0.1392
  183BOLB   C1C 4385  11.121   8.517  25.852 -0.2277 -0.2610  0.2775
  183BOLB   C2C 4386  11.521   8.571  25.981  0.1106 -0.3533 -0.0179
  183BOLB   C3C 4387  11.809   8.302  26.026 -0.2881 -0.0169  0.2501
  183BOLB   C4C 4388  11.831   8.017  26.111 -0.0304  0.1455 -0.0677
  183BOLB   C1D 4389  10.623   8.545  25.628  0.0982 -0.1107  0.1054
  183BOLB   C2D 4390  10.831   8.836  25.587 -0.0615  0.0214 -0.3010
  183BOLB   C3D 4391  10.936   9.294  25.766  0.1531 -0.1105 -0.1428
  183BOLB   C4D 4392  10.932   9.526  26.145  0.1441  0.0812  0.4601
  184BOLB   NC1 4393  13.522   6.966  22.146 -0.0372 -0.0423 -0.1143
  184BOLB   PO1 4394  13.971   7.017  21.993  0.2349 -0.0623  0.0745
  184BOLB   GL1 4395  14.362   7.017  22.295 -0.1167  0.1601 -0.1414
  184BOLB   GL2 4396  14.604   6.887  22.253  0.3685 -0.0844 -0.0836
  184BOLB   C1A 4397  14.259   6.936  22.706  0.4075  0.0908  0.3781
  184BOLB   C2A 4398  14.636   6.987  23.006 -0.0595 -0.1003  0.5486
  184BOLB   C3A 4399  14.763   6.809  23.367 -0.0238  0.0385 -0.0066
  184BOLB   C4A 4400  14.738   6.756  23.811  0.0230  0.3087 -0.0073
  184BOLB   C1B 4401  14.879   6.934  22.564  0.1027  0.0045 -0.1833
  184BOLB   C2B 4402  15.123   6.858  23.040 -0.2544  0.2346 -0.1068
  184BOLB   C3B 4403  15.294   6.741  23.401 -0.1655 -0.1825 -0.1397
  184BOLB   C4B 4404  15.441   6.437  23.503  0.1386 -0.2911  0.0557
  184BOLB   NC2 4405  14.632   5.265  26.027 -0.0868  0.3343 -0.1554
  184BOLB   PO2 4406  14.800   5.678  25.948 -0.0368  0.1754 -0.2946
  184BOLB   GL3 4407  15.085   5.962  25.595 -0.1845  0.0901  0.1780
  184BOLB   GL4 4408  14.960   5.780  25.284  0.3575 -0.0477  0.0143
  184BOLB   C1C 4409  15.347   6.101  25.276  0.0905 -0.0505  0.0078
  184BOLB   C2C 4410  15.240   6.328  24.885 -0.2613 -0.0604 -0.1478
  184BOLB   C3C 4411  15.002   6.601  24.602 -0.0364  0.1896 -0.1031
  184BOLB   C4C 4412  14.890   6.855  24.278  0.1303  0.0894 -0.1256
  184BOLB   C1D 4413  14.836   6.213  25.129  0.2348  0.4573  0.0389
  184BOLB   C2D 4414  14.799   6.666  25.056  0.1336  0.5095  0.0589
  184BOLB   C3D 4415  14.803   7.024  24.760 -0.2330  0.2430  0.0252
  184BOLB   C4D 4416  14.659   7.308  24.445 -0.0730  0.0936 -0.0720
  185BOLB   NC1 4417  16.779   5.278  19.617 -0.1634 -0.2569 -0.2862
  185BOLB   PO1 4418  16.716   5.489  20.077 -0.4448  0.0313  0.1287
  185BOLB   GL1 4419  17.012   5.459  20.509 -0.1402  0.1708  0.0623
  185BOLB   GL2 4420  16.734   5.312  20.747  0.4309  0.2487 -0.0051
  185BOLB   C1A 4421  17.274   5.523  20.769 -0.3565 -0.0640  0.0904
  185BOLB   C2A 4422  17.634   5.437  21.042 -0.2541 -0.1810 -0.3557
  185BOLB   C3A 4423  17.841   5.603  21.366  0.3681 -0.2373 -0.1143
  185BOLB   C4A 4424  18.160   5.985  21.505 -0.2176 -0.0429 -0.0641
  185BOLB   C1B 4425  16.976   5.503  21.141 -0.1948  0.1810  0.1940
  185BOLB   C2B 4426  17.302   5.549  21.485 -0.0031  0.1375  0.3023
  185BOLB   C3B 4427  17.480   5.225  21.913 -0.0328  0.0963 -0.2573
  185BOLB   C4B 4428  17.600   4.955  22.222 -0.1953 -0.3687 -0.2439
  185BOLB   NC2 4429  19.951   5.076  23.358 -0.2786 -0.0368  0.0021
  185BOLB   PO2 4430  19.514   4.997  23.257  0.1068 -0.0365  0.1128
  185BOLB   GL3 4431  19.182   5.285  23.128 -0.0339  0.0495 -0.2628
  185BOLB   GL4 4432  19.041   5.051  22.891  0.0652  0.2483 -0.2465
  185BOLB   C1C 4433  19.042   5.611  22.776  0.0465  0.0181  0.3200
  185BOLB   C2C 4434  18.720   5.537  22.438 -0.0816  0.2966 -0.0077
  185BOLB   C3C 4435  18.468   5.704  22.153 -0.0220  0.2954 -0.2690
  185BOLB   C4C 4436  18.217   5.946  21.851 -0.0140 -0.1276 -0.0013
  185BOLB   C1D 4437  18.775   4.931  22.589 -0.0694  0.0645  0.0870
  185BOLB   C2D 4438  18.477   4.893  22.375 -0.2645  0.0938 -0.0178
  185BOLB   C3D 4439  18.061   4.759  22.274  0.0133 -0.0055  0.3331
  185BOLB   C4D 4440  17.923   4.580  21.906  0.2212  0.0131  0.0730
  186BOLB   NC1 4441  12.918   5.447  22.622  0.3510 -0.0341  0.0943
  186BOLB   PO1 4442  13.180   5.671  22.993 -0.5235  0.1373  0.2055
  186BOLB   GL1 4443  13.315   5.912  23.347  0.0339 -0.0293 -0.0818
  186BOLB   GL2 4444  13.603   5.617  23.310 -0.1149 -0.3237 -0.0123
  186BOLB   C1A 4445  13.448   5.842  23.797  0.1846  0.0502  0.0791
  186BOLB   C2A 4446  13.592   5.984  24.062 -0.1182 -0.0692  0.1414
  186BOLB   C3A 4447  14.099   6.056  24.036  0.0751  0.0334 -0.0921
  186BOLB   C4A 4448  14.325   6.363  24.001 -0.0520 -0.0906  0.2421
  186BOLB   C1B 4449  13.823   6.014  23.528 -0.0471 -0.1007 -0.1104
  186BOLB   C2B 4450  13.959   6.387  23.568  0.1981 -0.1612 -0.0898
  186BOLB   C3B 4451  13.776   6.767  23.592 -0.1228 -0.1306 -0.3925
  186BOLB   C4B 4452  13.389   7.050  23.634  0.0722 -0.2074 -0.4730
  186BOLB   NC2 4453  15.243   4.229  24.983 -0.2068 -0.0113 -0.0399
  186BOLB   PO2 4454  15.069   4.721  24.884  0.0367  0.1490 -0.1951
  186BOLB   GL3 4455  15.034   5.198  24.689 -0.4091 -0.1660 -0.1984
  186BOLB   GL4 4456  14.882   5.381  24.905 -0.3279  0.0040 -0.1167
  186BOLB   C1C 4457  15.322   5.428  24.476 -0.2547 -0.1434 -0.1927
  186BOLB   C2C 4458  15.356   5.695  24.099  0.0189 -0.0377 -0.1227
  186BOLB   C3C 4459  15.035   6.057  24.018  0.1785 -0.0938  0.2328
  186BOLB   C4C 4460  14.718   6.343  24.181 -0.0915 -0.3078  0.0608
  186BOLB   C1D 4461  14.959   5.764  24.677 -0.2253 -0.1914 -0.0117
  186BOLB   C2D 4462  14.828   6.147  24.620 -0.0492  0.2507 -0.0052
  186BOLB   C3D 4463  14.507   6.448  24.672 -0.3967 -0.0176 -0.0663
  186BOLB   C4D 4464  14.227   6.767  24.880 -0.1713  0.0140 -0.0458
  187BOLB   NC1 4465  16.599   7.425  21.538  0.3214 -0.0506  0.2014
  187BOLB   PO1 4466  16.732   7.175  21.253  0.2532 -0.1036 -0.0461
  187BOLB   GL1 4467  17.121   7.161  21.436  0.1847  0.0422  0.2268
  187BOLB   GL2 4468  17.044   7.308  21.743 -0.3311  0.3323 -0.0547
  187BOLB   C1A 4469  17.368   6.938  21.813  0.1729 -0.0960 -0.2490
  187BOLB   C2A 4470  17.565   6.840  22.237  0.1240  0.2967 -0.0248
  187BOLB   C3A 4471  17.643   6.720  22.558 -0.2461 -0.0506 -0.0574
  187BOLB   C4A 4472  17.933   6.566  22.878 -0.0304  0.0071  0.0779
  187BOLB   C1B 4473  17.136   7.189  22.199  0.1521  0.1455 -0.1092
  187BOLB   C2B 4474  17.347   7.160  22.553 -0.2977 -0.0216  0.0029
  187BOLB   C3B 4475  17.403   6.909  22.892  0.0997 -0.0256 -0.1281
  187BOLB   C4B 4476  17.643   6.735  23.212 -0.3128 -0.1554  0.0748
  187BOLB   NC2 4477  18.702   6.022  25.143  0.0144 -0.1782  0.1286
  187BOLB   PO2 4478  19.083   5.828  25.035 -0.0033 -0.2857  0.0723
  187BOLB   GL3 4479  18.922   6.096  24.652  0.5461  0.1551  0.1619
  187BOLB   GL4 4480  19.098   6.165  24.256 -0.1783 -0.0350  0.0455
  187BOLB   C1C 4481  18.690   6.342  24.368 -0.2413  0.2620 -0.2056
  187BOLB   C2C 4482  18.542   6.465  24.054  0.1001 -0.3927 -0.0322
  187BOLB   C3C 4483  18.274   6.601  23.652 -0.1107  0.2547 -0.2380
  187BOLB   C4C 4484  18.147   6.684  23.157  0.0067 -0.0022 -0.2665
  187BOLB   C1D 4485  18.906   6.163  23.856 -0.2657  0.1891 -0.0866
  187BOLB   C2D 4486  18.600   6.157  23.445 -0.2411 -0.3578  0.2715
  187BOLB   C3D 4487  18.554   6.387  22.975 -0.0633 -0.1268 -0.0617
  187BOLB   C4D 4488  18.584   6.617  22.629  0.0559 -0.0753  0.1894
  188BOLB   NC1 4489  11.140   5.807  24.249 -0.1984  0.0520  0.0112
  188BOLB   PO1 4490  11.154   6.197  24.201 -0.0170 -0.0295 -0.0122
  188BOLB   GL1 4491  11.494   6.373  24.430 -0.0998  0.5155 -0.1943
  188BOLB   GL2 4492  11.713   6.076  24.488 -0.0136  0.1327 -0.0641
  188BOLB   C1A 4493  11.886   6.556  24.712  0.0385  0.1644  0.1560
  188BOLB   C2A 4494  12.174   6.949  24.749  0.1570  0.0825 -0.0281
  188BOLB   C3A 4495  12.176   7.373  24.903 -0.1077  0.1206  0.0843
  188BOLB   C4A 4496  12.060   7.605  25.208 -0.2165 -0.3439 -0.0834
  188BOLB   C1B 4497  12.034   6.322  24.320 -0.2714  0.0252  0.3260
  188BOLB   C2B 4498  12.294   6.682  24.359 -0.1511  0.3692 -0.2855
  188BOLB   C3B 4499  12.620   6.921  24.150 -0.0118 -0.0625 -0.1511
  188BOLB   C4B 4500  12.759   6.957  23.693  0.2569 -0.1492 -0.1677
  188BOLB   NC2 4501  12.158   5.877  26.200  0.0738 -0.0045  0.0020
  188BOLB   PO2 4502  11.934   6.224  26.397  0.1815 -0.2805  0.0124
  188BOLB   GL3 4503  12.110   6.547  26.287 -0.0595 -0.0547  0.0175
  188BOLB   GL4 4504  12.153   6.865  26.322 -0.2228 -0.2126 -0.4358
  188BOLB   C1C 4505  12.159   6.729  25.869 -0.0316  0.1111  0.1698
  188BOLB   C2C 4506  11.843   6.903  25.737 -0.1666  0.5121  0.1466
  188BOLB   C3C 4507  11.604   7.239  25.634  0.1195  0.3306 -0.0843
  188BOLB   C4C 4508  11.698   7.388  25.403 -0.4679  0.0273 -0.2389
  188BOLB   C1D 4509  12.315   7.148  26.086  0.1855 -0.4227  0.1613
  188BOLB   C2D 4510  12.633   7.389  26.005 -0.1645 -0.2199 -0.3012
  188BOLB   C3D 4511  12.925   7.570  25.749 -0.1502 -0.2170 -0.1251
  188BOLB   C4D 4512  12.981   7.977  25.579 -0.1262 -0.2384 -0.0007
  189BOLB   NC1 4513  13.360   6.464  22.421  0.4624 -0.2523 -0.2107
  189BOLB   PO1 4514  13.487   6.875  22.689 -0.1633 -0.1819  0.1854
  189BOLB   GL1 4515  13.757   6.825  22.939  0.0404 -0.1293  0.2614
  189BOLB   GL2 4516  13.588   6.696  23.127  0.0689  0.1726 -0.0008
  189BOLB   C1A 4517  14.160   6.520  22.919  0.0104  0.4110 -0.1085
  189BOLB   C2A 4518  14.683   6.479  22.972  0.1984  0.1687 -0.1013
  189BOLB   C3A 4519  14.955   6.358  23.271  0.0094 -0.2946 -0.3054
  189BOLB   C4A 4520  15.006   6.379  23.648  0.2274 -0.2610 -0.2751
  189BOLB   C1B 4521  13.096   6.720  23.331 -0.1035 -0.1528 -0.2115
  189BOLB   C2B 4522  12.961   6.558  23.748 -0.1990  0.2615 -0.0397
  189BOLB   C3B 4523  12.680   6.414  24.142 -0.3877 -0.1060  0.2085
  189BOLB   C4B 4524  12.537   6.274  24.520 -0.0794  0.2589 -0.0805
  189BOLB   NC2 4525  15.950   6.151  26.077 -0.1728  0.0329 -0.2646
  189BOLB   PO2 4526  16.146   6.163  25.700  0.2827  0.0879  0.2454
  189BOLB   GL3 4527  15.988   6.322  25.354  0.0539  0.1521 -0.1244
  189BOLB   GL4 4528  16.074   6.680  25.269  0.2664 -0.2883 -0.2509
  189BOLB   C1C 4529  15.678   6.478  24.998 -0.3848 -0.1263  0.0762
  189BOLB   C2C 4530  15.661   6.610  24.628 -0.0969  0.0739 -0.0100
  189BOLB   C3C 4531  15.386   6.751  24.331 -0.0011  0.3616  0.0606
  189BOLB   C4C 4532  15.216   6.672  23.922  0.2584 -0.0333 -0.3473
  189BOLB   C1D 4533  15.899   6.919  24.929  0.2861 -0.1666 -0.0464
  189BOLB   C2D 4534  15.865   7.062  24.566 -0.0806 -0.2254 -0.2343
  189BOLB   C3D 4535  15.808   7.349  24.259  0.3282  0.1891  0.0073
  189BOLB   C4D 4536  15.487   7.526  23.933 -0.0976  0.1174 -0.1682
  190BOLB   NC1 4537  14.882   4.934  21.934  0.3683  0.0097 -0.0592
  190BOLB   PO1 4538  15.079   5.290  21.891 -0.0565 -0.3161 -0.1513
  190BOLB   GL1 4539  15.408   5.093  21.882  0.4938  0.3598  0.0511
  190BOLB   GL2 4540  15.291   4.761  22.118  0.1007 -0.0842  0.1635
  190BOLB   C1A 4541  15.770   4.959  22.146  0.0863 -0.0768 -0.1862
  190BOLB   C2A 4542  16.160   4.892  22.383 -0.2272 -0.2708  0.1298
  190BOLB   C3A 4543  16.179   4.820  22.809 -0.0928  0.0610  0.0543
  190BOLB   C4A 4544  16.226   4.913  23.198 -0.0617  0.0287 -0.0880
  190BOLB   C1B 4545  15.242   4.819  22.557  0.3382 -0.3464 -0.2691
  190BOLB   C2B 4546  15.288   4.952  22.971 -0.0012  0.0096 -0.1602
  190BOLB   C3B 4547  15.219   5.264  23.339  0.0773  0.1511 -0.3388
  190BOLB   C4B 4548  15.544   5.551  23.406 -0.0111  0.2771  0.2179
  190BOLB   NC2 4549  15.684   3.577  23.049  0.0210  0.0591  0.0385
  190BOLB   PO2 4550  15.326   3.618  23.248 -0.0458 -0.2426  0.0950
  190BOLB   GL3 4551  15.576   4.028  23.139  0.4010  0.0401 -0.2720
  190BOLB   GL4 4552  15.807   4.172  22.899  0.1852 -0.1060  0.0033
  190BOLB   C1C 4553  15.582   4.358  23.424 -0.1034  0.1533  0.1039
  190BOLB   C2C 4554  15.760   4.572  23.752  0.3089 -0.1054 -0.4507
  190BOLB   C3C 4555  16.070   4.739  23.912  0.1030  0.0607  0.0397
  190BOLB   C4C 4556  16.177   4.922  23.625  0.2010 -0.2650 -0.3028
  190BOLB   C1D 4557  16.140   4.351  22.811  0.1452 -0.0268  0.1413
  190BOLB   C2D 4558  16.367   4.433  22.367  0.0798 -0.1065  0.4571
  190BOLB   C3D 4559  16.630   4.538  21.995 -0.0770  0.0487 -0.4181
  190BOLB   C4D 4560  16.665   4.890  21.756 -0.0123 -0.1061 -0.1470
  191BOLB   NC1 4561  17.451   5.834  18.971  0.3383 -0.1033  0.1468
  191BOLB   PO1 4562  17.869   5.628  19.194 -0.0447 -0.0598 -0.0286
  191BOLB   GL1 4563  18.153   5.729  19.535 -0.3797  0.2274  0.1718
  191BOLB   GL2 4564  18.194   5.998  19.773  0.0296  0.0583 -0.1883
  191BOLB   C1A 4565  18.632   5.762  19.462 -0.0337 -0.4917 -0.0470
  191BOLB   C2A 4566  19.073   5.840  19.664  0.0599  0.0171  0.0506
  191BOLB   C3A 4567  19.474   5.854  19.818 -0.1510 -0.1218  0.3627
  191BOLB   C4A 4568  19.741   5.696  20.046 -0.2712  0.0279 -0.0412
  191BOLB   C1B 4569  18.465   5.733  19.962  0.0394  0.1204 -0.1059
  191BOLB   C2B 4570  18.731   5.640  20.386 -0.2003  0.0787 -0.0985
  191BOLB   C3B 4571  18.753   5.527  20.712 -0.0586 -0.2936 -0.1869
  191BOLB   C4B 4572  18.642   5.126  20.853  0.2191 -0.1512 -0.1352
  191BOLB   NC2 4573  21.242   4.084  20.317 -0.2040  0.2229 -0.0741
  191BOLB   PO2 4574  21.498   4.312  20.149  0.0160  0.1038  0.0771
  191BOLB   GL3 4575  21.211   4.582  20.116  0.0775 -0.2911 -0.0514
  191BOLB   GL4 4576  21.320   4.737  20.385  0.2103 -0.1166  0.2118
  191BOLB   C1C 4577  20.803   4.789  20.167  0.3731  0.1333  0.1730
  191BOLB   C2C 4578  20.407   4.815  20.148  0.0238 -0.1597 -0.0801
  191BOLB   C3C 4579  20.085   5.041  20.259 -0.0904 -0.0597  0.2445
  191BOLB   C4C 4580  20.033   5.472  20.382 -0.1677 -0.0650  0.2065
  191BOLB   C1D 4581  21.251   5.011  19.967 -0.1361 -0.2210  0.1999
  191BOLB   C2D 4582  21.018   5.359  19.940  0.0387  0.0410  0.0932
  191BOLB   C3D 4583  20.937   5.707  20.240 -0.0429 -0.2376 -0.1659
  191BOLB   C4D 4584  20.940   6.167  20.251  0.2011  0.0716 -0.0537
  192BOLB   NC1 4585  20.926   9.104  19.159 -0.1134  0.4485  0.4319
  192BOLB   PO1 4586  20.719   8.760  18.855 -0.0575  0.1443 -0.2223
  192BOLB   GL1 4587  20.906   8.422  18.972 -0.1613  0.0909 -0.1287
  192BOLB   GL2 4588  20.792   8.162  18.961 -0.1298  0.2381  0.0123
  192BOLB   C1A 4589  21.288   8.269  18.851 -0.0877 -0.2492 -0.2654
  192BOLB   C2A 4590  21.731   8.015  18.923 -0.0842 -0.2024 -0.1566
  192BOLB   C3A 4591  22.185   7.864  18.763  0.0854  0.0212  0.3168
  192BOLB   C4A 4592  22.418   7.697  18.366  0.0058  0.2347  0.1751
  192BOLB   C1B 4593  21.213   7.838  19.108  0.0009  0.0012 -0.1187
  192BOLB   C2B 4594  21.430   7.588  19.194 -0.0957  0.1435  0.5793
  192BOLB   C3B 4595  21.877   7.524  19.026  0.0572 -0.0031 -0.0844
  192BOLB   C4B 4596  22.323   7.428  18.976 -0.2127  0.5113  0.0447
  192BOLB   NC2 4597  25.029   6.793  18.506  0.0256  0.2552  0.1589
  192BOLB   PO2 4598  24.539   6.647  18.600 -0.0961 -0.1314 -0.0429
  192BOLB   GL3 4599  24.132   6.872  18.572 -0.2419 -0.1071  0.1276
  192BOLB   GL4 4600  24.064   6.718  18.895  0.0745 -0.2331 -0.1203
  192BOLB   C1C 4601  23.865   7.141  18.655  0.0741  0.0102 -0.4191
  192BOLB   C2C 4602  23.482   7.194  18.519 -0.3033  0.1836  0.2020
  192BOLB   C3C 4603  23.138   7.403  18.449 -0.0519 -0.1932  0.0848
  192BOLB   C4C 4604  22.780   7.480  18.287  0.1424  0.1778 -0.1671
  192BOLB   C1D 4605  23.721   6.643  19.106  0.1549  0.1117  0.0994
  192BOLB   C2D 4606  23.271   6.856  19.169  0.1368  0.0734 -0.4246
  192BOLB   C3D 4607  22.946   7.162  19.242 -0.0670 -0.0968  0.0691
  192BOLB   C4D 4608  22.792   7.520  19.208  0.3569 -0.2739  0.0214
  193BOLB   NC1 4609  14.458   8.242  22.336  0.0302  0.0635 -0.0447
  193BOLB   PO1 4610  14.316   7.966  22.424  0.1637  0.2878  0.0637
  193BOLB   GL1 4611  14.583   7.639  22.538 -0.0108 -0.0417  0.1868
  193BOLB   GL2 4612  14.503   7.377  22.623  0.0645 -0.2144  0.1071
  193BOLB   C1A 4613  14.974   7.465  22.645  0.2397 -0.2393 -0.0166
  193BOLB   C2A 4614  15.035   7.320  23.057  0.0764  0.3183  0.0717
  193BOLB   C3A 4615  15.047   7.202  23.481 -0.1511 -0.1519  0.0399
  193BOLB   C4A 4616  15.427   7.090  23.763 -0.3100 -0.4896 -0.1804
  193BOLB   C1B 4617  14.545   7.535  23.014 -0.0023  0.0077 -0.0356
  193BOLB   C2B 4618  14.631   7.370  23.325  0.1206  0.4248  0.0017
  193BOLB   C3B 4619  14.455   7.155  23.615 -0.2382 -0.1494 -0.0282
  193BOLB   C4B 4620  14.116   7.122  23.710 -0.0280 -0.0918 -0.0800
  193BOLB   NC2 4621  17.246   5.958  25.518 -0.1272 -0.3272 -0.0785
  193BOLB   PO2 4622  16.694   5.904  25.452 -0.1026 -0.2457  0.2238
  193BOLB   GL3 4623  16.487   6.170  25.226 -0.3048 -0.1788  0.0299
  193BOLB   GL4 4624  16.520   6.063  24.933 -0.1162  0.1701 -0.1598
  193BOLB   C1C 4625  16.171   6.365  24.861 -0.3383 -0.0776 -0.1283
  193BOLB   C2C 4626  16.331   6.575  24.588  0.1881 -0.1904  0.0146
  193BOLB   C3C 4627  16.094   6.725  24.169  0.2300  0.0412  0.2378
  193BOLB   C4C 4628  15.745   6.797  23.901 -0.3986 -0.0593  0.1342
  193BOLB   C1D 4629  16.473   6.032  24.471 -0.1669 -0.1541  0.2016
  193BOLB   C2D 4630  16.130   6.184  24.183  0.1264  0.1904 -0.1123
  193BOLB   C3D 4631  16.057   6.300  23.884 -0.0497 -0.1484 -0.2584
  193BOLB   C4D 4632  15.908   6.313  23.479  0.1438  0.1549 -0.0746
  194BOLB   NC1 4633  18.209   4.677  18.934  0.1136 -0.2209  0.2057
  194BOLB   PO1 4634  17.795   4.763  19.167 -0.4659 -0.1033 -0.2153
  194BOLB   GL1 4635  18.041   4.663  19.431 -0.0962  0.1091 -0.1698
  194BOLB   GL2 4636  17.939   4.770  19.736 -0.0841  0.0635  0.3052
  194BOLB   C1A 4637  18.470   4.926  19.460 -0.1498 -0.0313 -0.0283
  194BOLB   C2A 4638  18.853   4.936  19.646  0.0497  0.1182 -0.1094
  194BOLB   C3A 4639  19.180   5.040  20.007 -0.0631  0.1907  0.1418
  194BOLB   C4A 4640  19.101   5.062  20.386 -0.1186 -0.4039 -0.1988
  194BOLB   C1B 4641  18.090   4.387  19.868  0.0913  0.0735 -0.2580
  194BOLB   C2B 4642  18.436   4.135  19.953 -0.1580 -0.1730  0.0444
  194BOLB   C3B 4643  18.846   4.120  19.783  0.0759 -0.1467 -0.2523
  194BOLB   C4B 4644  18.991   4.447  19.504  0.0672 -0.0590 -0.3190
  194BOLB   NC2 4645  18.475   2.932  21.001 -0.0795 -0.3144 -0.3798
  194BOLB   PO2 4646  18.784   3.054  20.704 -0.0464 -0.0313 -0.2391
  194BOLB   GL3 4647  18.613   3.406  20.839 -0.1031 -0.3043 -0.2069
  194BOLB   GL4 4648  18.307   3.518  21.050 -0.0019  0.0615  0.2130
  194BOLB   C1C 4649  18.583   3.834  20.701 -0.2335  0.0038  0.0316
  194BOLB   C2C 4650  18.746   4.221  20.882  0.1665 -0.3572  0.1040
  194BOLB   C3C 4651  18.828   4.590  20.981  0.0584  0.1459 -0.1295
  194BOLB   C4C 4652  19.037   4.910  20.803 -0.0079 -0.1221 -0.0974
  194BOLB   C1D 4653  18.538   3.860  21.191 -0.0771 -0.1309 -0.0182
  194BOLB   C2D 4654  18.420   4.297  21.330  0.2072  0.1259 -0.1257
  194BOLB   C3D 4655  18.338   4.555  21.600  0.0082  0.0589 -0.4208
  194BOLB   C4D 4656  18.486   4.876  21.850  0.0925 -0.2060 -0.1838
  195BOLB   NC1 4657  17.945   4.604  18.044 -0.0817 -0.1479 -0.0461
  195BOLB   PO1 4658  18.285   4.580  17.762 -0.3630  0.3561  0.0641
  195BOLB   GL1 4659  18.715   4.867  17.682  0.1112 -0.1943  0.3193
  195BOLB   GL2 4660  18.824   4.913  17.328  0.0565  0.2988 -0.3437
  195BOLB   C1A 4661  19.186   4.840  17.645 -0.2196 -0.1906  0.2497
  195BOLB   C2A 4662  19.537   5.122  17.737 -0.1350 -0.0822  0.0561
  195BOLB   C3A 4663  20.011   5.051  17.648 -0.1320 -0.0093 -0.3160
  195BOLB   C4A 4664  20.405   4.919  17.920  0.0037 -0.1495  0.2698
  195BOLB   C1B 4665  19.188   5.057  17.139 -0.2596 -0.0453  0.0309
  195BOLB   C2B 4666  19.551   5.364  17.065  0.1585 -0.1939 -0.1682
  195BOLB   C3B 4667  19.807   5.661  16.970 -0.1442  0.2138 -0.0215
  195BOLB   C4B 4668  20.118   5.776  17.045 -0.3769 -0.1630  0.0946
  195BOLB   NC2 4669  22.125   3.411  18.623  0.3012  0.0278 -0.1161
  195BOLB   PO2 4670  21.946   3.688  18.840 -0.1313  0.3068 -0.3845
  195BOLB   GL3 4671  21.491   3.840  18.675  0.1894  0.3826  0.1616
  195BOLB   GL4 4672  21.625   4.183  18.676 -0.1830 -0.2536 -0.0120
  195BOLB   C1C 4673  21.104   4.113  18.811 -0.0045  0.1322 -0.1217
  195BOLB   C2C 4674  20.656   4.134  18.703  0.2977  0.0335 -0.1875
  195BOLB   C3C 4675  20.450   4.489  18.538  0.2886  0.2404 -0.0530
  195BOLB   C4C 4676  20.269   4.743  18.296 -0.2895  0.0870  0.0322
  195BOLB   C1D 4677  21.493   4.473  18.858  0.1416 -0.3829 -0.2190
  195BOLB   C2D 4678  21.187   4.503  19.045  0.0992  0.2944 -0.0148
  195BOLB   C3D 4679  20.809   4.422  19.098  0.4577 -0.2927 -0.3957
  195BOLB   C4D 4680  20.404   4.472  19.140 -0.1568  0.0809  0.4024
  196BOLB   NC1 4681  17.497   4.677  19.579 -0.2783 -0.2267 -0.1107
  196BOLB   PO1 4682  17.352   4.989  19.521 -0.4641 -0.0144 -0.5142
  196BOLB   GL1 4683  17.690   5.268  19.669  0.2034 -0.0304  0.1700
  196BOLB   GL2 4684  18.002   5.222  19.436  0.1095  0.1977 -0.2146
  196BOLB   C1A 4685  18.058   5.345  19.939  0.3691 -0.0499 -0.0622
  196BOLB   C2A 4686  18.500   5.346  19.693  0.2294 -0.3201  0.0123
  196BOLB   C3A 4687  18.898   5.443  19.873  0.0744  0.0389  0.1419
  196BOLB   C4A 4688  19.244   5.497  20.191 -0.2885  0.2004 -0.2108
  196BOLB   C1B 4689  18.444   5.356  19.172  0.0094 -0.0667  0.0617
  196BOLB   C2B 4690  18.843   5.220  19.137  0.0804 -0.3730  0.1278
  196BOLB   C3B 4691  18.927   4.783  19.088 -0.1121  0.3167 -0.0500
  196BOLB   C4B 4692  19.111   4.325  19.001  0.1862 -0.0924  0.1695
  196BOLB   NC2 4693  19.413   2.936  20.801 -0.1678  0.0469 -0.1143
  196BOLB   PO2 4694  19.582   3.384  20.931  0.1229  0.2551  0.1679
  196BOLB   GL3 4695  19.715   3.760  20.691 -0.4028 -0.2730 -0.2008
  196BOLB   GL4 4696  19.993   3.871  20.755  0.2710 -0.4411 -0.0098
  196BOLB   C1C 4697  19.592   4.147  20.436 -0.0214  0.3099 -0.1681
  196BOLB   C2C 4698  19.581   4.553  20.239 -0.1771 -0.2703 -0.1457
  196BOLB   C3C 4699  19.619   4.986  20.381 -0.1235 -0.2757  0.0316
  196BOLB   C4C 4700  19.574   5.353  20.405  0.0468  0.2103  0.1065
  196BOLB   C1D 4701  19.894   4.370  20.756 -0.0031  0.0064 -0.2922
  196BOLB   C2D 4702  19.632   4.721  20.802  0.2818  0.2659 -0.2757
  196BOLB   C3D 4703  19.448   4.924  21.090  0.0589  0.1452 -0.0902
  196BOLB   C4D 4704  19.298   4.652  21.440  0.1700 -0.0817 -0.1543
  197BOLB   NC1 4705  19.065   7.299  19.036  0.0634 -0.0074 -0.4611
  197BOLB   PO1 4706  19.152   7.494  19.581  0.0492  0.2566  0.0120
  197BOLB   GL1 4707  19.495   7.407  19.901  0.2952 -0.0288  0.1919
  197BOLB   GL2 4708  19.479   7.716  20.016 -0.1982  0.0596  0.0663
  197BOLB   C1A 4709  19.709   7.108  20.119  0.1318 -0.1122  0.0860
  197BOLB   C2A 4710  19.933   7.027  20.480 -0.2517 -0.1140  0.0769
  197BOLB   C3A 4711  19.964   7.004  20.877 -0.2222 -0.0680  0.2005
  197BOLB   C4A 4712  20.223   6.788  21.025  0.0596  0.2080 -0.0572
  197BOLB   C1B 4713  19.523   7.684  20.454  0.0196 -0.5480  0.1002
  197BOLB   C2B 4714  19.643   7.391  20.686 -0.1815 -0.2132 -0.0204
  197BOLB   C3B 4715  19.662   7.271  21.094  0.0350 -0.1343 -0.0101
  197BOLB   C4B 4716  19.933   7.008  21.471 -0.4961  0.1949  0.2765
  197BOLB   NC2 4717  21.082   5.958  23.680 -0.0357 -0.0137  0.2521
  197BOLB   PO2 4718  21.045   6.372  23.476 -0.0620 -0.2145 -0.3912
  197BOLB   GL3 4719  20.976   6.395  23.114 -0.0529 -0.1445  0.1419
  197BOLB   GL4 4720  20.623   6.449  23.148  0.1337 -0.1358 -0.2108
  197BOLB   C1C 4721  20.779   6.435  22.623 -0.0881 -0.0351 -0.2809
  197BOLB   C2C 4722  20.674   6.539  22.259  0.0566  0.0141 -0.2042
  197BOLB   C3C 4723  20.368   6.483  22.001  0.0710 -0.2080 -0.1032
  197BOLB   C4C 4724  20.246   6.599  21.516 -0.0688  0.0749 -0.3144
  197BOLB   C1D 4725  20.356   6.558  22.797 -0.0556  0.0803  0.0206
  197BOLB   C2D 4726  20.089   6.764  22.488  0.1190  0.4142  0.0302
  197BOLB   C3D 4727  19.617   6.818  22.360  0.0091  0.1377 -0.2050
  197BOLB   C4D 4728  19.480   6.428  22.191 -0.0610 -0.3097 -0.1128
  198BOLB   NC1 4729  22.048  19.784  21.678 -0.6653 -0.1542  0.0169
  198BOLB   PO1 4730  22.350  19.990  21.366  0.1636 -0.1851  0.1228
  198BOLB   GL1 4731  22.635  20.288  21.557 -0.3562 -0.0034 -0.1799
  198BOLB   GL2 4732  22.708  20.607  21.350  0.0368 -0.4183 -0.1558
  198BOLB   C1A 4733  22.829  20.578  21.902 -0.1962  0.2404  0.4888
  198BOLB   C2A 4734  23.265  20.809  22.096  0.0347  0.2238 -0.1631
  198BOLB   C3A 4735  23.598  20.962  22.212  0.3722 -0.3367  0.2643
  198BOLB   C4A 4736  23.894  20.988  22.503 -0.0639  0.0040 -0.5685
  198BOLB   C1B 4737  23.077  20.834  21.581 -0.1242  0.4655 -0.3060
  198BOLB   C2B 4738  23.467  21.088  21.661 -0.1415 -0.0638  0.0938
  198BOLB   C3B 4739  23.877  21.294  21.600 -0.0583 -0.0171 -0.0199
  198BOLB   C4B 4740  24.258  21.497  21.795 -0.1949  0.0761 -0.0525
  198BOLB   NC2 4741  25.583  21.605  23.209 -0.1565  0.1914 -0.0579
  198BOLB   PO2 4742  25.626  21.906  22.965  0.0679 -0.0492  0.2898
  198BOLB   GL3 4743  25.241  21.827  22.817 -0.2526  0.1763 -0.2357
  198BOLB   GL4 4744  25.337  21.772  22.520  0.0599  0.3629  0.1095
  198BOLB   C1C 4745  24.846  21.850  22.723  0.2929  0.1483 -0.0877
  198BOLB   C2C 4746  24.585  21.591  23.030  0.3368  0.0166 -0.0051
  198BOLB   C3C 4747  24.195  21.341  23.165 -0.1374  0.0335  0.1570
  198BOLB   C4C 4748  23.966  21.102  22.870 -0.0143  0.0645  0.2527
  198BOLB   C1D 4749  25.076  21.409  22.563 -0.2228 -0.4000  0.1192
  198BOLB   C2D 4750  24.891  21.144  22.960 -0.1847  0.1013 -0.0967
  198BOLB   C3D 4751  25.040  20.698  23.147 -0.0134 -0.2295 -0.0104
  198BOLB   C4D 4752  25.391  20.368  23.047  0.2821 -0.2958  0.4266
  199BOLB   NC1 4753   9.685  12.927  23.540  0.0287  0.0635 -0.1523
  199BOLB   PO1 4754  10.013  12.506  23.455  0.2380 -0.0631  0.0197
  199BOLB   GL1 4755  10.086  12.296  23.861 -0.1390  0.1995 -0.1044
  199BOLB   GL2 4756  10.356  12.229  23.817  0.1582 -0.0780 -0.1281
  199BOLB   C1A 4757  10.101  12.223  24.373  0.1763 -0.0602  0.1588
  199BOLB   C2A 4758   9.851  12.159  24.689  0.0234 -0.0664 -0.0845
  199BOLB   C3A 4759   9.858  11.794  24.964  0.0333 -0.1908 -0.0413
  199BOLB   C4A 4760   9.733  11.822  25.387 -0.2697  0.0522  0.0351
  199BOLB   C1B 4761  10.429  11.960  24.133  0.0700  0.1440 -0.2820
  199BOLB   C2B 4762  10.422  11.923  24.589 -0.2267 -0.0817  0.0278
  199BOLB   C3B 4763  10.299  12.106  25.034  0.1323  0.1882 -0.0731
  199BOLB   C4B 4764  10.137  12.487  25.441 -0.4313  0.1349 -0.0522
  199BOLB   NC2 4765   9.257  12.316  27.759  0.2491  0.3542 -0.0886
  199BOLB   PO2 4766   9.734  12.152  27.657  0.0117  0.0990 -0.3180
  199BOLB   GL3 4767   9.816  12.159  27.260 -0.1064  0.0552 -0.0244
  199BOLB   GL4 4768   9.972  11.879  27.124  0.2887  0.2913 -0.0787
  199BOLB   C1C 4769   9.949  12.369  26.851  0.0819  0.0845 -0.4287
  199BOLB   C2C 4770   9.931  12.083  26.610 -0.1341 -0.0602  0.3140
  199BOLB   C3C 4771   9.854  11.790  26.294 -0.0140  0.1074  0.0347
  199BOLB   C4C 4772   9.777  11.746  25.883 -0.3128  0.1532  0.1500
  199BOLB   C1D 4773  10.307  12.020  27.013  0.0765 -0.1744 -0.1791
  199BOLB   C2D 4774  10.549  12.078  26.635  0.2780  0.1344  0.4466
  199BOLB   C3D 4775  10.939  12.068  26.529  0.1792  0.3027  0.1734
  199BOLB   C4D 4776  11.312  12.217  26.263 -0.2747  0.0782 -0.0904
  200BOLB   NC1 4777  18.029  15.668  24.167  0.0651  0.1565  0.0368
  200BOLB   PO1 4778  17.552  15.828  24.276 -0.0227 -0.0371  0.0190
  200BOLB   GL1 4779  17.691  15.789  24.622  0.1507  0.3222 -0.1248
  200BOLB   GL2 4780  17.509  15.881  24.902  0.0149  0.1937  0.5271
  200BOLB   C1A 4781  17.950  15.715  25.022 -0.0114  0.1153 -0.2386
  200BOLB   C2A 4782  17.990  15.589  25.353 -0.2853  0.0832 -0.0910
  200BOLB   C3A 4783  18.043  15.381  25.728  0.1501 -0.1472 -0.1163
  200BOLB   C4A 4784  18.180  15.185  26.095 -0.1391 -0.0972  0.1652
  200BOLB   C1B 4785  17.245  16.060  25.252  0.0785 -0.0194  0.0576
  200BOLB   C2B 4786  17.115  15.874  25.601 -0.1662 -0.2958  0.0450
  200BOLB   C3B 4787  17.182  15.702  25.965  0.1699  0.1375 -0.1402
  200BOLB   C4B 4788  17.047  15.529  26.402 -0.4355 -0.0048 -0.0642
  200BOLB   NC2 4789  18.011  15.952  28.183 -0.1217  0.0590  0.1123
  200BOLB   PO2 4790  18.456  15.792  28.039  0.1210 -0.1164 -0.1218
  200BOLB   GL3 4791  18.174  15.902  27.711  0.1396 -0.0628 -0.0064
  200BOLB   GL4 4792  17.923  16.190  27.728  0.0343  0.0356 -0.1214
  200BOLB   C1C 4793  17.880  15.689  27.444 -0.1547 -0.1848  0.0939
  200BOLB   C2C 4794  17.605  15.673  27.153 -0.2806 -0.1672 -0.0664
  200BOLB   C3C 4795  17.672  15.356  26.836  0.2938 -0.0659  0.4021
  200BOLB   C4C 4796  18.085  15.202  26.632  0.3420  0.3913 -0.1776
  200BOLB   C1D 4797  17.558  16.086  27.507 -0.1501  0.0557 -0.1602
  200BOLB   C2D 4798  17.090  16.034  27.320  0.2866 -0.1416 -0.0756
  200BOLB   C3D 4799  16.828  16.190  27.123  0.3479 -0.3037  0.0286
  200BOLB   C4D 4800  16.467  16.253  26.882  0.2536  0.0563 -0.4877
  201BOLB   NC1 4801  21.626  23.290  20.218  0.3906  0.2139 -0.0486
  201BOLB   PO1 4802  21.501  23.545  19.792  0.0295  0.0679 -0.3777
  201BOLB   GL1 4803  21.622  23.851  19.602  0.0418  0.0983  0.0027
  201BOLB   GL2 4804  21.365  23.974  19.426 -0.0387  0.3282 -0.3324
  201BOLB   C1A 4805  21.996  23.952  19.419 -0.3157 -0.0753 -0.1006
  201BOLB   C2A 4806  22.272  24.265  19.283  0.2589  0.0432 -0.0182
  201BOLB   C3A 4807  22.654  24.521  19.287  0.1647  0.3442  0.1612
  201BOLB   C4A 4808  22.826  24.843  19.045 -0.1807 -0.2246 -0.1241
  201BOLB   C1B 4809  21.585  24.180  19.273  0.0025  0.2917 -0.1437
  201BOLB   C2B 4810  21.910  24.209  18.971 -0.2800 -0.0443  0.1662
  201BOLB   C3B 4811  22.263  24.515  18.866 -0.1253 -0.2418 -0.1942
  201BOLB   C4B 4812  22.381  24.906  18.750  0.0569 -0.1035  0.3412
  201BOLB   NC2 4813  24.232  26.327  17.664  0.1209 -0.1804 -0.0185
  201BOLB   PO2 4814  24.437  26.024  17.627  0.3678  0.1837  0.1115
  201BOLB   GL3 4815  24.240  25.803  17.928 -0.1369  0.0759  0.0445
  201BOLB   GL4 4816  24.030  25.924  18.026  0.3266  0.0196 -0.4389
  201BOLB   C1C 4817  23.913  25.526  18.305  0.0955 -0.2099 -0.0269
  201BOLB   C2C 4818  23.600  25.623  18.611  0.0022 -0.2889 -0.1931
  201BOLB   C3C 4819  23.290  25.348  18.619 -0.2101 -0.0995 -0.1372
  201BOLB   C4C 4820  22.948  25.091  18.757 -0.0958  0.1786  0.1600
  201BOLB   C1D 4821  23.566  25.860  18.183  0.1890  0.2097  0.0777
  201BOLB   C2D 4822  23.294  25.566  18.155 -0.1270  0.3975  0.0713
  201BOLB   C3D 4823  22.915  25.587  17.975 -0.1148  0.1187 -0.4910
  201BOLB   C4D 4824  22.475  25.502  18.142  0.1359 -0.0040  0.0719
  202BOLB   NC1 4825  13.654  13.782  23.481 -0.0755 -0.0579 -0.3203
  202BOLB   PO1 4826  13.528  13.810  23.869 -0.1049  0.2951 -0.1486
  202BOLB   GL1 4827  13.426  13.557  24.305  0.0681  0.0658  0.0066
  202BOLB   GL2 4828  13.418  13.199  24.297 -0.0038 -0.2818  0.3789
  202BOLB   C1A 4829  13.164  13.402  24.728  0.0156  0.0066  0.0836
  202BOLB   C2A 4830  13.091  13.045  25.051  0.2645  0.1029  0.0452
  202BOLB   C3A 4831  13.158  12.806  25.321 -0.1968 -0.1762 -0.0615
  202BOLB   C4A 4832  13.328  12.657  25.766  0.2347  0.0626  0.1172
  202BOLB   C1B 4833  13.312  12.900  24.658  0.0934  0.0659 -0.2198
  202BOLB   C2B 4834  13.564  12.757  25.001  0.0153 -0.1388 -0.0820
  202BOLB   C3B 4835  13.623  12.570  25.394  0.1965  0.2929 -0.1141
  202BOLB   C4B 4836  13.860  12.686  25.725  0.0453  0.5412  0.1943
  202BOLB   NC2 4837  13.185  12.440  27.924  0.1508  0.1511 -0.2413
  202BOLB   PO2 4838  13.540  12.178  27.963 -0.1328 -0.1785 -0.2694
  202BOLB   GL3 4839  13.684  12.337  27.720  0.1352 -0.2960 -0.0980
  202BOLB   GL4 4840  13.429  12.171  27.487 -0.2165 -0.1189 -0.0145
  202BOLB   C1C 4841  13.925  12.521  27.356 -0.0846  0.0697  0.1045
  202BOLB   C2C 4842  13.755  12.753  27.041  0.2062 -0.1582 -0.0116
  202BOLB   C3C 4843  13.536  12.792  26.614  0.0952 -0.3200  0.1416
  202BOLB   C4C 4844  13.389  12.657  26.329 -0.2529 -0.1852 -0.1992
  202BOLB   C1D 4845  13.313  12.484  27.247  0.0827  0.0661 -0.2373
  202BOLB   C2D 4846  13.136  12.579  26.792  0.1580  0.1389 -0.1369
  202BOLB   C3D 4847  12.812  12.864  26.657 -0.2661 -0.2444 -0.1648
  202BOLB   C4D 4848  12.559  13.078  26.263 -0.0480  0.0255 -0.0613
  203BOLB   NC1 4849  13.453  14.815  24.673 -0.1436 -0.2662 -0.1332
  203BOLB   PO1 4850  13.281  14.565  24.376  0.0688 -0.2189  0.4182
  203BOLB   GL1 4851  13.213  14.402  24.860 -0.2256  0.1399 -0.1354
  203BOLB   GL2 4852  13.245  14.018  24.872  0.3687  0.0391  0.0074
  203BOLB   C1A 4853  13.024  14.264  25.232  0.0382  0.4314  0.1357
  203BOLB   C2A 4854  13.046  14.177  25.686 -0.2263  0.2218  0.3349
  203BOLB   C3A 4855  13.176  13.795  25.880 -0.1264  0.0840 -0.0129
  203BOLB   C4A 4856  13.105  13.614  26.226  0.0086 -0.1732 -0.0354
  203BOLB   C1B 4857  13.154  13.703  25.124  0.2239 -0.2154 -0.2207
  203BOLB   C2B 4858  13.246  13.524  25.477 -0.1181  0.0240  0.0737
  203BOLB   C3B 4859  13.226  13.284  25.804 -0.0053  0.0363  0.2949
  203BOLB   C4B 4860  13.111  13.158  26.320  0.2847 -0.1405  0.0359
  203BOLB   NC2 4861  12.393  14.300  28.235  0.0222  0.0658 -0.1728
  203BOLB   PO2 4862  12.235  13.896  28.193 -0.0721  0.0997 -0.0774
  203BOLB   GL3 4863  12.430  13.874  27.854  0.0326 -0.1632  0.1065
  203BOLB   GL4 4864  12.705  14.021  27.889 -0.4076 -0.0646 -0.3128
  203BOLB   C1C 4865  12.496  13.936  27.368 -0.0261  0.0393 -0.1804
  203BOLB   C2C 4866  12.541  13.650  27.163  0.0910  0.0261 -0.1775
  203BOLB   C3C 4867  12.531  13.428  26.785  0.0587  0.1418  0.0997
  203BOLB   C4C 4868  12.871  13.535  26.541 -0.1641 -0.0858 -0.1900
  203BOLB   C1D 4869  12.982  14.345  27.941 -0.0339 -0.0547  0.0955
  203BOLB   C2D 4870  13.284  14.511  27.827 -0.1612  0.1017  0.3218
  203BOLB   C3D 4871  13.482  14.637  27.478 -0.0526 -0.4053  0.1246
  203BOLB   C4D 4872  13.514  14.889  27.029  0.0665 -0.1334  0.1880
  204BOLB   NC1 4873  17.325   9.538  22.040  0.1093  0.2231 -0.0927
  204BOLB   PO1 4874  17.383   9.582  22.495  0.2956 -0.0886  0.2599
  204BOLB   GL1 4875  17.503   9.667  22.905  0.1623 -0.0167  0.4231
  204BOLB   GL2 4876  17.634   9.908  22.809  0.2446 -0.1885 -0.3302
  204BOLB   C1A 4877  17.679   9.465  23.278 -0.0060 -0.1779  0.3041
  204BOLB   C2A 4878  17.676   9.233  23.661 -0.1972 -0.3180 -0.3061
  204BOLB   C3A 4879  17.700   9.151  24.068  0.0750 -0.1256  0.1065
  204BOLB   C4A 4880  17.873   9.103  24.510  0.0205  0.3116 -0.0013
  204BOLB   C1B 4881  18.014   9.786  23.095 -0.1871  0.2254 -0.2267
  204BOLB   C2B 4882  18.119   9.634  23.493  0.0752 -0.5049  0.0035
  204BOLB   C3B 4883  18.142   9.337  23.860 -0.1712  0.0938  0.0844
  204BOLB   C4B 4884  18.140   8.972  24.118  0.0699  0.1336 -0.0048
  204BOLB   NC2 4885  17.918   8.813  26.806  0.1317 -0.0329  0.0495
  204BOLB   PO2 4886  18.241   8.977  26.647  0.1175 -0.1713  0.1153
  204BOLB   GL3 4887  18.042   9.328  26.450 -0.4757 -0.2199  0.1485
  204BOLB   GL4 4888  17.845   9.177  26.249 -0.0308 -0.2576  0.3154
  204BOLB   C1C 4889  18.150   9.522  26.041 -0.0218 -0.0345  0.1443
  204BOLB   C2C 4890  17.955   9.549  25.621 -0.2526  0.1375 -0.5098
  204BOLB   C3C 4891  17.810   9.399  25.242 -0.2662  0.3440  0.1980
  204BOLB   C4C 4892  17.685   9.092  24.906 -0.4578 -0.0402  0.0929
  204BOLB   C1D 4893  17.864   9.104  25.776  0.0144 -0.0818 -0.2128
  204BOLB   C2D 4894  17.971   8.910  25.368 -0.2152 -0.0006 -0.0050
  204BOLB   C3D 4895  18.022   8.714  24.888  0.0421 -0.1319  0.0923
  204BOLB   C4D 4896  17.700   8.512  24.782  0.1824 -0.2780 -0.2141
  205BOLB   NC1 4897  14.698  20.868  23.865  0.0955  0.0396  0.2147
  205BOLB   PO1 4898  14.368  21.115  24.061 -0.5838 -0.0231 -0.2048
  205BOLB   GL1 4899  14.449  21.400  24.349  0.1049  0.0860  0.0145
  205BOLB   GL2 4900  14.219  21.563  24.454 -0.0959  0.1547  0.3660
  205BOLB   C1A 4901  14.643  21.482  24.855 -0.3477 -0.0645 -0.4777
  205BOLB   C2A 4902  14.582  21.509  25.310 -0.3371 -0.1144 -0.1914
  205BOLB   C3A 4903  14.888  21.479  25.655  0.1406  0.3328 -0.1044
  205BOLB   C4A 4904  15.226  21.520  25.861  0.0220  0.1176 -0.0145
  205BOLB   C1B 4905  14.092  21.324  24.839 -0.0045  0.1679  0.1926
  205BOLB   C2B 4906  13.987  21.260  25.271  0.1403 -0.1644  0.1337
  205BOLB   C3B 4907  14.127  20.863  25.522 -0.1623  0.1384  0.3505
  205BOLB   C4B 4908  14.461  20.776  25.893  0.2280 -0.1692  0.1507
  205BOLB   NC2 4909  15.646  21.148  28.020  0.0118 -0.0079  0.2695
  205BOLB   PO2 4910  15.662  21.663  28.056  0.2915  0.1473 -0.0811
  205BOLB   GL3 4911  15.709  21.501  27.688  0.1402  0.0659  0.0390
  205BOLB   GL4 4912  15.735  21.770  27.518 -0.0953 -0.1850 -0.1891
  205BOLB   C1C 4913  15.641  21.275  27.340 -0.1144 -0.0479 -0.2599
  205BOLB   C2C 4914  15.533  21.276  26.819 -0.0132  0.0274 -0.0145
  205BOLB   C3C 4915  15.455  21.665  26.542  0.0869  0.0555  0.3685
  205BOLB   C4C 4916  15.480  21.750  26.155  0.0210  0.1527  0.1060
  205BOLB   C1D 4917  15.576  21.731  27.050 -0.0327  0.1855 -0.1134
  205BOLB   C2D 4918  15.868  21.958  26.607  0.0737  0.3064  0.0202
  205BOLB   C3D 4919  15.905  22.371  26.276 -0.2779 -0.1971 -0.0900
  205BOLB   C4D 4920  16.283  22.415  26.065  0.1332  0.0140 -0.0970
  206BOLB   NC1 4921  14.207   9.948  22.719 -0.0570 -0.4591 -0.0234
  206BOLB   PO1 4922  14.061   9.864  23.018  0.0774 -0.0954  0.0081
  206BOLB   GL1 4923  14.044   9.878  23.480 -0.1207  0.0094  0.1233
  206BOLB   GL2 4924  14.226   9.950  23.611  0.0242 -0.1459 -0.1314
  206BOLB   C1A 4925  13.850   9.949  23.926  0.1184 -0.0028  0.1490
  206BOLB   C2A 4926  13.937  10.034  24.418  0.1383  0.0778 -0.0352
  206BOLB   C3A 4927  13.932  10.148  24.864 -0.0357 -0.2301 -0.1995
  206BOLB   C4A 4928  14.084   9.916  25.048 -0.0052 -0.0422  0.0953
  206BOLB   C1B 4929  14.280   9.651  23.956  0.1667 -0.0809 -0.1863
  206BOLB   C2B 4930  14.239   9.326  24.216 -0.1692 -0.0239 -0.1272
  206BOLB   C3B 4931  14.327   9.095  24.532 -0.0483 -0.1009 -0.1750
  206BOLB   C4B 4932  14.195   8.945  24.970  0.0065  0.0515  0.2671
  206BOLB   NC2 4933  14.171   8.955  27.188 -0.1359 -0.0505  0.0354
  206BOLB   PO2 4934  13.998   9.325  27.362 -0.2394 -0.0865  0.1358
  206BOLB   GL3 4935  13.755   9.464  27.079  0.3793 -0.2459 -0.0626
  206BOLB   GL4 4936  13.559   9.798  27.161  0.1118  0.1539  0.2162
  206BOLB   C1C 4937  13.827   9.388  26.668 -0.1955  0.4202  0.1512
  206BOLB   C2C 4938  13.781   9.408  26.264  0.0223 -0.0011  0.4861
  206BOLB   C3C 4939  13.791   9.514  25.788  0.2789  0.1803 -0.0856
  206BOLB   C4C 4940  13.882   9.701  25.376  0.2436 -0.2460  0.1073
  206BOLB   C1D 4941  13.684   9.960  26.715 -0.2381  0.2104 -0.0242
  206BOLB   C2D 4942  13.673   9.922  26.183 -0.2490  0.0488 -0.3776
  206BOLB   C3D 4943  13.775  10.085  25.678  0.0110  0.3042  0.1518
  206BOLB   C4D 4944  13.981  10.470  25.485 -0.1284 -0.1510 -0.2313
  207BOLB   NC1 4945  13.408  11.798  23.972 -0.0408 -0.0329  0.3754
  207BOLB   PO1 4946  13.074  11.643  23.725  0.0274  0.0188  0.1448
  207BOLB   GL1 4947  12.952  11.552  24.133 -0.3132  0.0665  0.0752
  207BOLB   GL2 4948  13.156  11.575  24.431 -0.1238  0.0933 -0.3846
  207BOLB   C1A 4949  12.729  11.323  24.442 -0.0067  0.2539  0.1014
  207BOLB   C2A 4950  12.537  11.212  24.820 -0.0033 -0.3562  0.0000
  207BOLB   C3A 4951  12.758  10.873  25.056  0.1776  0.1147  0.1834
  207BOLB   C4A 4952  12.913  10.563  25.376  0.0849  0.1513  0.4552
  207BOLB   C1B 4953  13.507  11.263  24.402 -0.3642  0.1435  0.2746
  207BOLB   C2B 4954  13.771  11.060  24.764 -0.4415  0.2539 -0.1504
  207BOLB   C3B 4955  13.910  10.881  25.150 -0.1113 -0.0709 -0.0926
  207BOLB   C4B 4956  14.011  10.947  25.501  0.2819 -0.2789  0.0744
  207BOLB   NC2 4957  13.153   9.537  28.043 -0.0588 -0.1469  0.2967
  207BOLB   PO2 4958  12.964   9.806  27.719 -0.0692 -0.0025 -0.4661
  207BOLB   GL3 4959  13.047  10.028  27.272  0.1346 -0.1584 -0.2710
  207BOLB   GL4 4960  13.255  10.284  27.270 -0.2792  0.2208  0.3069
  207BOLB   C1C 4961  13.068  10.042  26.840 -0.1506  0.3019 -0.1794
  207BOLB   C2C 4962  13.190  10.111  26.507  0.3328 -0.0060 -0.0987
  207BOLB   C3C 4963  13.135  10.166  26.035  0.0603 -0.2145  0.1083
  207BOLB   C4C 4964  13.094  10.252  25.601 -0.1893 -0.2905 -0.1712
  207BOLB   C1D 4965  13.556  10.365  26.926 -0.2123 -0.1166  0.1848
  207BOLB   C2D 4966  14.009  10.383  26.948 -0.2337  0.3164  0.0957
  207BOLB   C3D 4967  14.362  10.248  26.759 -0.2853 -0.0996  0.2576
  207BOLB   C4D 4968  14.731  10.501  26.620 -0.1054  0.0984  0.0617
  208BOLB   NC1 4969  11.576  16.328  24.454 -0.2329  0.0332 -0.1819
  208BOLB   PO1 4970  11.958  16.526  24.306  0.5198 -0.2883 -0.1399
  208BOLB   GL1 4971  11.938  16.494  24.740  0.3834 -0.3401 -0.0407
  208BOLB   GL2 4972  12.186  16.470  24.920 -0.1780 -0.2059 -0.0175
  208BOLB   C1A 4973  11.778  16.239  25.090 -0.2227  0.0779  0.2415
  208BOLB   C2A 4974  11.621  16.344  25.525 -0.1964  0.0419 -0.1663
  208BOLB   C3A 4975  11.501  16.159  25.858  0.3275 -0.1865 -0.1004
  208BOLB   C4A 4976  11.507  16.359  26.234 -0.4032 -0.0940  0.1218
  208BOLB   C1B 4977  12.152  16.379  25.402 -0.3647  0.2949  0.3185
  208BOLB   C2B 4978  12.054  16.279  25.909  0.0752 -0.5289  0.1267
  208BOLB   C3B 4979  11.982  16.267  26.312 -0.2707 -0.2777  0.0869
  208BOLB   C4B 4980  11.790  16.119  26.731  0.1747 -0.0128 -0.4161
  208BOLB   NC2 4981   9.594  16.441  28.306 -0.2657 -0.2138  0.1011
  208BOLB   PO2 4982  10.051  16.237  28.357 -0.2082  0.1085 -0.0482
  208BOLB   GL3 4983  10.329  16.286  27.967 -0.0272 -0.0165 -0.0286
  208BOLB   GL4 4984  10.550  16.055  27.750  0.0233 -0.0825  0.4418
  208BOLB   C1C 4985  10.510  16.559  27.667 -0.3952 -0.5033 -0.2310
  208BOLB   C2C 4986  10.844  16.529  27.533 -0.1094  0.2112 -0.0339
  208BOLB   C3C 4987  11.042  16.614  27.125  0.3749  0.0512  0.2505
  208BOLB   C4C 4988  11.344  16.423  26.622 -0.1508 -0.1526  0.0280
  208BOLB   C1D 4989  10.769  15.737  27.400  0.0379 -0.0180 -0.1672
  208BOLB   C2D 4990  11.102  15.690  27.431 -0.2613 -0.1500  0.1582
  208BOLB   C3D 4991  11.525  15.710  27.582  0.0415  0.1240 -0.2189
  208BOLB   C4D 4992  11.666  15.914  27.965 -0.0801 -0.1017 -0.3738
  209BOLB   NC1 4993  21.745  20.677  21.520 -0.2381 -0.2324  0.0954
  209BOLB   PO1 4994  21.534  20.508  21.809  0.0702 -0.2034  0.2616
  209BOLB   GL1 4995  21.900  20.658  22.027  0.2385 -0.0634  0.1828
  209BOLB   GL2 4996  21.892  20.461  22.297 -0.1686 -0.1946  0.1905
  209BOLB   C1A 4997  21.996  20.969  22.268 -0.1340 -0.1369 -0.1373
  209BOLB   C2A 4998  22.384  21.161  22.463  0.0381  0.1795  0.2577
  209BOLB   C3A 4999  22.693  21.464  22.630  0.0097  0.0204 -0.0263
  209BOLB   C4A 5000  23.076  21.669  22.634  0.0637 -0.3085 -0.2535
  209BOLB   C1B 5001  22.273  20.578  22.523 -0.1219 -0.1736 -0.3849
  209BOLB   C2B 5002  22.517  20.717  22.882 -0.1635  0.0120 -0.3171
  209BOLB   C3B 5003  22.901  20.643  23.069  0.3052  0.0035 -0.2196
  209BOLB   C4B 5004  23.184  20.950  23.362  0.2278  0.1216 -0.0958
  209BOLB   NC2 5005  24.093  22.358  24.575  0.2801 -0.0105 -0.0291
  209BOLB   PO2 5006  24.348  22.027  24.476  0.1838  0.1822 -0.1101
  209BOLB   GL3 5007  24.242  22.001  23.985 -0.2656  0.2242 -0.0399
  209BOLB   GL4 5008  24.467  21.784  23.883 -0.0444 -0.0673 -0.1121
  209BOLB   C1C 5009  23.991  22.255  23.697  0.0458  0.3071  0.2514
  209BOLB   C2C 5010  23.894  22.331  23.321  0.0650  0.0112  0.2125
  209BOLB   C3C 5011  23.682  22.092  23.012 -0.0672  0.2253  0.1621
  209BOLB   C4C 5012  23.425  21.814  22.731 -0.0694  0.1109  0.2482
  209BOLB   C1D 5013  24.230  21.393  23.812  0.0339 -0.1787  0.0386
  209BOLB   C2D 5014  24.019  21.028  23.871 -0.2919 -0.0150  0.1012
  209BOLB   C3D 5015  23.881  20.732  23.994 -0.0223  0.2355 -0.0310
  209BOLB   C4D 5016  23.572  20.708  24.243 -0.1352  0.1740  0.0513
  210BOLB   NC1 5017  11.487  22.966  23.725  0.2092 -0.0999 -0.0925
  210BOLB   PO1 5018  11.189  22.747  23.912  0.1674 -0.1160  0.1195
  210BOLB   GL1 5019  11.279  22.773  24.325  0.1416 -0.0157 -0.1837
  210BOLB   GL2 5020  11.019  22.547  24.529 -0.0050  0.3429  0.2121
  210BOLB   C1A 5021  11.147  23.032  24.644 -0.5779 -0.1767  0.2267
  210BOLB   C2A 5022  11.070  23.077  25.107 -0.1668 -0.2102  0.1184
  210BOLB   C3A 5023  11.140  23.057  25.592 -0.2426 -0.0505  0.1112
  210BOLB   C4A 5024  11.031  23.118  26.051 -0.3798 -0.2259 -0.0042
  210BOLB   C1B 5025  11.279  22.621  24.828  0.1855 -0.0760  0.1686
  210BOLB   C2B 5026  11.280  22.558  25.217  0.1366 -0.2195 -0.0834
  210BOLB   C3B 5027  11.178  22.572  25.675 -0.1597  0.0930  0.3339
  210BOLB   C4B 5028  11.455  22.899  25.931  0.1763  0.0147  0.3260
  210BOLB   NC2 5029   9.592  23.762  28.038 -0.1556  0.0721 -0.0823
  210BOLB   PO2 5030   9.672  23.431  27.743 -0.0530 -0.1195  0.3070
  210BOLB   GL3 5031   9.720  23.700  27.323  0.2506  0.1279  0.4016
  210BOLB   GL4 5032  10.000  23.460  27.357  0.3789 -0.0790 -0.0756
  210BOLB   C1C 5033   9.872  23.740  26.915 -0.3290 -0.0578  0.0443
  210BOLB   C2C 5034  10.044  23.497  26.676 -0.2955 -0.0490 -0.0751
  210BOLB   C3C 5035  10.397  23.282  26.623 -0.0549 -0.0704 -0.0839
  210BOLB   C4C 5036  10.669  23.073  26.261 -0.2926  0.1946 -0.2789
  210BOLB   C1D 5037  10.293  23.454  27.145 -0.2389  0.1950 -0.0431
  210BOLB   C2D 5038  10.790  23.458  26.960 -0.0882 -0.1597  0.2047
  210BOLB   C3D 5039  11.056  23.766  26.589  0.1647 -0.1415 -0.1243
  210BOLB   C4D 5040  10.968  23.962  26.251  0.0913 -0.2658 -0.0912
  211BOLB   NC1 5041  18.451  18.086  24.151 -0.2101  0.1019  0.0229
  211BOLB   PO1 5042  18.776  18.310  23.941  0.1075  0.2169 -0.1409
  211BOLB   GL1 5043  18.915  18.335  24.372 -0.0287 -0.3029 -0.0740
  211BOLB   GL2 5044  19.047  18.688  24.490  0.1422 -0.1827  0.0046
  211BOLB   C1A 5045  18.804  18.312  24.847 -0.1253 -0.2148 -0.2231
  211BOLB   C2A 5046  18.918  18.328  25.227 -0.0249  0.2566 -0.2239
  211BOLB   C3A 5047  18.889  18.275  25.739 -0.1825  0.1635  0.2739
  211BOLB   C4A 5048  19.149  18.177  26.129 -0.0396 -0.0995 -0.1155
  211BOLB   C1B 5049  19.108  18.738  24.903  0.0157  0.0642 -0.1398
  211BOLB   C2B 5050  19.143  18.807  25.264 -0.3774  0.0434  0.0841
  211BOLB   C3B 5051  19.218  18.713  25.601 -0.1438 -0.0113 -0.0669
  211BOLB   C4B 5052  19.272  18.670  26.038  0.2456  0.1814 -0.2624
  211BOLB   NC2 5053  21.134  18.039  27.892  0.1118  0.0728  0.3032
  211BOLB   PO2 5054  21.164  18.288  27.403 -0.1150  0.2003  0.2190
  211BOLB   GL3 5055  20.883  18.380  27.071 -0.0232  0.0948  0.4556
  211BOLB   GL4 5056  20.710  18.587  27.302 -0.0480  0.2474  0.2446
  211BOLB   C1C 5057  20.669  18.290  26.731 -0.0396  0.0233 -0.0281
  211BOLB   C2C 5058  20.379  18.014  26.515  0.1508 -0.0847  0.2120
  211BOLB   C3C 5059  19.949  17.999  26.281 -0.1109 -0.2317  0.0327
  211BOLB   C4C 5060  19.560  18.177  26.220 -0.1382 -0.3892 -0.0549
  211BOLB   C1D 5061  20.499  18.723  27.006  0.0713  0.0058 -0.0709
  211BOLB   C2D 5062  20.252  18.847  26.636  0.3144  0.5345  0.2011
  211BOLB   C3D 5063  20.244  18.928  26.157  0.3781  0.0196  0.3017
  211BOLB   C4D 5064  20.058  18.808  25.664 -0.1530 -0.2871 -0.0016
  212BOLB   NC1 5065  17.889  19.786  24.094  0.1290  0.0676  0.2768
  212BOLB   PO1 5066  17.759  20.163  23.786 -0.1333 -0.2394  0.1127
  212BOLB   GL1 5067  17.880  20.283  24.249 -0.0513 -0.1490 -0.1964
  212BOLB   GL2 5068  17.870  20.518  24.406  0.0030 -0.1548  0.0183
  212BOLB   C1A 5069  18.043  20.140  24.634  0.0941 -0.0920  0.0635
  212BOLB   C2A 5070  18.270  20.162  25.104  0.0989 -0.1798  0.0731
  212BOLB   C3A 5071  18.551  20.460  25.284  0.0859 -0.2188 -0.0008
  212BOLB   C4A 5072  18.822  20.514  25.606 -0.1224 -0.2662 -0.1627
  212BOLB   C1B 5073  17.886  20.607  24.911 -0.1427 -0.0737  0.1682
  212BOLB   C2B 5074  18.072  20.702  25.280 -0.0174  0.1588  0.1442
  212BOLB   C3B 5075  18.392  20.832  25.618 -0.0117  0.0275 -0.2800
  212BOLB   C4B 5076  18.304  21.102  26.012  0.0214  0.0832  0.1104
  212BOLB   NC2 5077  18.894  20.518  28.160 -0.0294 -0.1410  0.0686
  212BOLB   PO2 5078  19.094  20.684  27.909 -0.2052  0.0222 -0.1071
  212BOLB   GL3 5079  18.979  20.815  27.512  0.5851  0.1399  0.1522
  212BOLB   GL4 5080  18.742  21.026  27.412 -0.4192 -0.3637 -0.3616
  212BOLB   C1C 5081  19.071  20.801  27.055 -0.2060  0.0264  0.0951
  212BOLB   C2C 5082  19.011  20.663  26.635  0.3491 -0.4696 -0.4349
  212BOLB   C3C 5083  18.910  20.870  26.282 -0.2258 -0.5948 -0.1405
  212BOLB   C4C 5084  18.750  20.678  25.946  0.0904 -0.2368 -0.1337
  212BOLB   C1D 5085  18.696  21.183  26.960 -0.0294  0.1124 -0.1130
  212BOLB   C2D 5086  18.675  21.198  26.562  0.2455 -0.0863  0.1134
  212BOLB   C3D 5087  18.539  21.477  26.204 -0.0798  0.0405 -0.2682
  212BOLB   C4D 5088  18.500  21.696  25.859  0.2702 -0.0849 -0.1959
  213BOLB   NC1 5089  22.017  22.465  19.928  0.0431  0.1649 -0.0760
  213BOLB   PO1 5090  21.659  22.736  20.038  0.0469 -0.0439 -0.1017
  213BOLB   GL1 5091  22.028  22.896  20.260  0.1105  0.0795  0.1604
  213BOLB   GL2 5092  22.136  23.002  20.535 -0.0993  0.2930 -0.0359
  213BOLB   C1A 5093  22.497  23.023  20.201 -0.2229  0.0315  0.0842
  213BOLB   C2A 5094  22.863  23.272  20.396 -0.0315 -0.2319 -0.1729
  213BOLB   C3A 5095  23.193  23.420  20.189  0.0569  0.3163  0.0577
  213BOLB   C4A 5096  23.454  23.526  19.847 -0.0434  0.1362 -0.2456
  213BOLB   C1B 5097  22.242  23.432  20.446 -0.0221 -0.4112  0.0019
  213BOLB   C2B 5098  22.529  23.706  20.571  0.2357  0.0283  0.0414
  213BOLB   C3B 5099  22.709  23.870  20.966  0.2004  0.5293  0.1379
  213BOLB   C4B 5100  23.179  24.011  21.062 -0.0024 -0.1682 -0.1426
  213BOLB   NC2 5101  25.503  23.763  21.411  0.0106  0.2134  0.3860
  213BOLB   PO2 5102  25.051  24.055  21.200  0.0142 -0.2132  0.2923
  213BOLB   GL3 5103  24.657  24.028  21.192 -0.0841 -0.1504 -0.3883
  213BOLB   GL4 5104  24.544  23.872  21.446 -0.3646 -0.1883  0.1653
  213BOLB   C1C 5105  24.339  24.196  20.898  0.3579 -0.1562 -0.2833
  213BOLB   C2C 5106  24.339  24.100  20.404 -0.0136  0.1259  0.1199
  213BOLB   C3C 5107  24.202  23.792  20.130  0.3281  0.0207 -0.0723
  213BOLB   C4C 5108  23.889  23.573  19.911 -0.1074 -0.0496  0.0717
  213BOLB   C1D 5109  24.111  23.780  21.500 -0.0744  0.1371  0.2770
  213BOLB   C2D 5110  23.716  23.633  21.248  0.1365  0.4389  0.2121
  213BOLB   C3D 5111  23.532  23.680  20.908 -0.3843  0.0922 -0.0843
  213BOLB   C4D 5112  23.150  23.702  20.698 -0.0287 -0.0484  0.3378
  214BOLB   NC1 5113  19.686  21.328  23.230  0.2279 -0.1260 -0.1415
  214BOLB   PO1 5114  19.157  21.248  23.172 -0.5625  0.0601  0.2565
  214BOLB   GL1 5115  19.315  21.247  23.593  0.2832  0.2384 -0.0483
  214BOLB   GL2 5116  19.043  21.345  23.831  0.1442 -0.0729 -0.0565
  214BOLB   C1A 5117  19.665  21.267  23.949  0.0990 -0.6166 -0.0203
  214BOLB   C2A 5118  19.689  21.309  24.386  0.2860  0.1201 -0.1691
  214BOLB   C3A 5119  19.978  21.251  24.627  0.3368 -0.0157 -0.2916
  214BOLB   C4A 5120  20.088  21.122  25.020  0.2474 -0.3916 -0.0586
  214BOLB   C1B 5121  19.300  21.517  24.137 -0.1643 -0.1319 -0.1529
  214BOLB   C2B 5122  19.716  21.806  24.367  0.0850  0.2272  0.0402
  214BOLB   C3B 5123  20.086  21.811  24.546  0.3028  0.1363 -0.1538
  214BOLB   C4B 5124  20.437  22.062  24.581 -0.0434 -0.3594  0.0520
  214BOLB   NC2 5125  21.799  22.267  26.347 -0.0989 -0.1065  0.2096
  214BOLB   PO2 5126  21.532  22.454  26.543 -0.0438  0.1340 -0.0321
  214BOLB   GL3 5127  21.318  22.179  26.315 -0.0713 -0.4999  0.0265
  214BOLB   GL4 5128  21.316  22.196  26.003  0.4022 -0.1954  0.0925
  214BOLB   C1C 5129  20.937  21.912  26.268  0.1230  0.2046  0.0248
  214BOLB   C2C 5130  20.489  21.645  26.209  0.2382 -0.0781  0.0299
  214BOLB   C3C 5131  20.396  21.391  25.837  0.0596 -0.1444  0.2860
  214BOLB   C4C 5132  20.131  21.370  25.460  0.0830  0.0583 -0.1537
  214BOLB   C1D 5133  20.906  22.150  25.822 -0.0644 -0.2359 -0.1688
  214BOLB   C2D 5134  20.773  21.809  25.751 -0.0319 -0.2219 -0.0068
  214BOLB   C3D 5135  20.928  21.454  25.940  0.0690  0.0616 -0.1013
  214BOLB   C4D 5136  20.789  21.142  26.024 -0.0577 -0.1247  0.0244
  215BOLB   NC1 5137  11.727  10.392  23.320  0.1339 -0.0736 -0.1197
  215BOLB   PO1 5138  11.529  10.035  23.258 -0.2008  0.2843  0.0692
  215BOLB   GL1 5139  11.145  10.353  23.242  0.0823 -0.0185 -0.2446
  215BOLB   GL2 5140  10.983  10.367  23.571  0.2310  0.0568  0.1639
  215BOLB   C1A 5141  10.679  10.380  23.168  0.1932 -0.1877 -0.2043
  215BOLB   C2A 5142  10.123  10.503  23.289 -0.0487  0.1951  0.2460
  215BOLB   C3A 5143   9.869  10.880  23.293  0.1153  0.0190  0.0923
  215BOLB   C4A 5144   9.423  10.991  23.213 -0.0074 -0.1914 -0.2189
  215BOLB   C1B 5145  10.661  10.260  23.899  0.2800 -0.2466 -0.1053
  215BOLB   C2B 5146  10.724  10.402  24.304 -0.0272 -0.0134 -0.1692
  215BOLB   C3B 5147  10.953  10.617  24.543 -0.0139  0.4481 -0.2876
  215BOLB   C4B 5148  11.355  10.891  24.372  0.3430  0.3899  0.4021
  215BOLB   NC2 5149   7.397   9.695  22.662  0.2814 -0.2223  0.2508
  215BOLB   PO2 5150   7.702   9.473  23.056 -0.1488 -0.1499 -0.0297
  215BOLB   GL3 5151   8.049   9.765  22.892  0.1608 -0.1242 -0.1111
  215BOLB   GL4 5152   7.858   9.921  22.628  0.0373 -0.1939  0.0361
  215BOLB   C1C 5153   8.066  10.134  23.108  0.1067 -0.0670 -0.0690
  215BOLB   C2C 5154   8.208  10.532  23.318  0.4450  0.2123 -0.1296
  215BOLB   C3C 5155   8.615  10.810  23.267  0.0349 -0.2599 -0.1500
  215BOLB   C4C 5156   9.040  10.931  23.039 -0.0328  0.2288 -0.0421
  215BOLB   C1D 5157   8.002  10.337  22.550  0.2708 -0.1480 -0.5020
  215BOLB   C2D 5158   8.303  10.597  22.324 -0.1815  0.2301 -0.2749
  215BOLB   C3D 5159   8.357  10.883  21.924 -0.1114 -0.0755  0.1848
  215BOLB   C4D 5160   8.319  11.201  21.752  0.2881  0.1015  0.2107
  216BOLB   NC1 5161  13.128  20.566  24.021  0.0505  0.1357 -0.2655
  216BOLB   PO1 5162  13.295  20.426  24.503 -0.0596 -0.2135  0.0792
  216BOLB   GL1 5163  13.485  20.677  24.893 -0.1248 -0.3098 -0.2699
  216BOLB   GL2 5164  13.705  21.023  24.808 -0.0819  0.0144 -0.1688
  216BOLB   C1A 5165  13.369  20.500  25.318 -0.2821  0.0023  0.4665
  216BOLB   C2A 5166  13.552  20.606  25.681  0.2705  0.2446 -0.2182
  216BOLB   C3A 5167  13.832  20.605  25.868  0.3082 -0.1733  0.1413
  216BOLB   C4A 5168  14.026  20.555  26.255 -0.2202  0.1594  0.0189
  216BOLB   C1B 5169  13.673  20.904  25.254 -0.0204 -0.4166  0.1987
  216BOLB   C2B 5170  13.821  21.117  25.721  0.0826 -0.0447  0.0251
  216BOLB   C3B 5171  13.835  21.028  26.220  0.0612 -0.1322  0.1395
  216BOLB   C4B 5172  13.512  21.172  26.492 -0.0720 -0.1825 -0.2552
  216BOLB   NC2 5173  14.285  21.233  28.391 -0.4779 -0.0517  0.0563
  216BOLB   PO2 5174  14.787  21.067  28.433  0.0247  0.1210  0.0494
  216BOLB   GL3 5175  14.942  21.197  27.906  0.0907  0.4038 -0.0711
  216BOLB   GL4 5176  15.078  21.513  27.814 -0.1849 -0.0648  0.3944
  216BOLB   C1C 5177  14.846  20.951  27.485 -0.1643  0.2235  0.3405
  216BOLB   C2C 5178  14.756  20.660  27.110 -0.0068 -0.3959  0.3151
  216BOLB   C3C 5179  14.361  20.601  26.889 -0.2659  0.2550 -0.0550
  216BOLB   C4C 5180  14.084  20.525  26.696 -0.0732 -0.0589  0.0655
  216BOLB   C1D 5181  15.112  21.322  27.339  0.0557 -0.0803  0.2005
  216BOLB   C2D 5182  15.058  21.084  27.020 -0.1628  0.0103 -0.0771
  216BOLB   C3D 5183  14.990  20.967  26.670  0.0452 -0.3188  0.1711
  216BOLB   C4D 5184  14.736  21.082  26.284  0.1731 -0.1334 -0.1183
  217BOLB   NC1 5185  19.548  10.607  21.523 -0.1850  0.0949  0.1100
  217BOLB   PO1 5186  19.434  10.531  21.941 -0.0817  0.1415  0.0881
  217BOLB   GL1 5187  19.608  10.414  22.365 -0.1239  0.1945 -0.0797
  217BOLB   GL2 5188  19.400  10.542  22.647 -0.0530  0.2950 -0.0022
  217BOLB   C1A 5189  19.846  10.253  22.729 -0.0675  0.3126  0.1585
  217BOLB   C2A 5190  20.027  10.092  23.139  0.1164 -0.1698  0.2288
  217BOLB   C3A 5191  19.906  10.178  23.526  0.0237  0.1778  0.1444
  217BOLB   C4A 5192  19.783  10.031  23.791  0.1807  0.1358  0.0528
  217BOLB   C1B 5193  19.371  10.296  23.037 -0.1013  0.1125 -0.0599
  217BOLB   C2B 5194  19.398  10.086  23.464  0.1366 -0.2721  0.2885
  217BOLB   C3B 5195  19.306   9.834  23.791  0.1122 -0.2552 -0.0569
  217BOLB   C4B 5196  19.055   9.715  24.090 -0.1474  0.0034 -0.0834
  217BOLB   NC2 5197  20.040   9.560  26.498 -0.3337  0.0752 -0.1075
  217BOLB   PO2 5198  19.886   9.999  26.222 -0.0107  0.4702 -0.0375
  217BOLB   GL3 5199  19.650   9.909  25.822  0.1970  0.3671 -0.2543
  217BOLB   GL4 5200  19.298  10.040  25.789 -0.3898  0.0088  0.1136
  217BOLB   C1C 5201  19.662   9.974  25.363 -0.4338 -0.1078 -0.2753
  217BOLB   C2C 5202  19.631   9.765  25.111  0.2118  0.2244 -0.0330
  217BOLB   C3C 5203  19.656   9.984  24.675 -0.1849  0.0908  0.3931
  217BOLB   C4C 5204  19.598   9.989  24.195 -0.3775  0.3532  0.2085
  217BOLB   C1D 5205  19.093  10.163  25.397  0.0854 -0.4461  0.1670
  217BOLB   C2D 5206  19.156  10.627  25.220  0.2237  0.0560 -0.1395
  217BOLB   C3D 5207  19.023  10.977  25.427  0.0982  0.0407 -0.1168
  217BOLB   C4D 5208  18.663  11.160  25.613 -0.0226 -0.0928  0.1760
  218BOLB   NC1 5209  16.157   9.131  22.560 -0.3323  0.0661  0.3066
  218BOLB   PO1 5210  16.579   8.889  22.510  0.1575 -0.3183 -0.1632
  218BOLB   GL1 5211  17.001   8.780  22.746 -0.1771 -0.1881  0.1182
  218BOLB   GL2 5212  17.310   8.771  22.836  0.2228  0.1426 -0.1756
  218BOLB   C1A 5213  16.965   8.418  23.089  0.0668  0.0842 -0.0358
  218BOLB   C2A 5214  16.785   8.320  23.541  0.0198  0.5203 -0.0225
  218BOLB   C3A 5215  17.025   8.555  23.930 -0.0957 -0.1329  0.2097
  218BOLB   C4A 5216  17.282   8.334  24.267  0.0259 -0.5771  0.0176
  218BOLB   C1B 5217  17.661   8.564  23.059 -0.0615  0.1555 -0.0249
  218BOLB   C2B 5218  17.751   8.521  23.517 -0.2792  0.1866  0.1536
  218BOLB   C3B 5219  17.938   8.739  23.705  0.0931 -0.0494 -0.3395
  218BOLB   C4B 5220  17.528   8.701  23.878  0.1792 -0.2960  0.0230
  218BOLB   NC2 5221  19.727   7.534  25.409  0.2532  0.2397  0.2985
  218BOLB   PO2 5222  19.300   7.636  25.534 -0.0379 -0.1096 -0.4565
  218BOLB   GL3 5223  19.109   7.833  25.303 -0.0872  0.0104 -0.1058
  218BOLB   GL4 5224  18.876   7.585  25.116 -0.1458  0.0754  0.2276
  218BOLB   C1C 5225  18.825   8.211  25.116  0.0266 -0.0436  0.1565
  218BOLB   C2C 5226  18.421   8.378  24.963  0.2078  0.0768 -0.1505
  218BOLB   C3C 5227  18.078   8.273  24.561 -0.3953 -0.2292 -0.0607
  218BOLB   C4C 5228  17.676   8.389  24.286  0.0297  0.0379 -0.0436
  218BOLB   C1D 5229  18.848   7.566  24.814 -0.1649  0.1750 -0.0183
  218BOLB   C2D 5230  18.897   7.628  24.462  0.0503  0.1016 -0.0745
  218BOLB   C3D 5231  19.122   7.630  24.129 -0.3421 -0.0019  0.0218
  218BOLB   C4D 5232  19.162   7.264  23.794  0.0442  0.1634  0.2301
  219BOLB   NC1 5233  22.106  18.444  22.405 -0.2139  0.0255 -0.1376
  219BOLB   PO1 5234  22.112  18.941  22.398 -0.0882  0.0573 -0.3671
  219BOLB   GL1 5235  22.349  19.248  22.619  0.1409 -0.1347  0.0849
  219BOLB   GL2 5236  22.554  19.606  22.553 -0.1045 -0.0316  0.1808
  219BOLB   C1A 5237  22.553  19.430  23.034  0.1316  0.1820 -0.1758
  219BOLB   C2A 5238  22.856  19.602  23.330 -0.0000 -0.0252  0.5188
  219BOLB   C3A 5239  23.224  19.816  23.430 -0.0323 -0.3395 -0.3023
  219BOLB   C4A 5240  23.580  19.775  23.544 -0.1602  0.0009 -0.1850
  219BOLB   C1B 5241  22.661  19.916  22.936 -0.0018  0.2215 -0.0662
  219BOLB   C2B 5242  22.824  20.158  23.178 -0.2196  0.0832 -0.3837
  219BOLB   C3B 5243  23.019  20.511  23.513 -0.1745 -0.2319  0.3992
  219BOLB   C4B 5244  23.183  20.605  23.961 -0.0107  0.1105 -0.0218
  219BOLB   NC2 5245  25.611  19.338  24.714  0.1315 -0.2423 -0.1908
  219BOLB   PO2 5246  25.240  19.631  24.593  0.0156 -0.1355 -0.1785
  219BOLB   GL3 5247  24.742  19.571  24.544 -0.2915  0.0802  0.1092
  219BOLB   GL4 5248  24.436  19.456  24.503  0.1730  0.0716 -0.1420
  219BOLB   C1C 5249  24.560  19.682  24.064 -0.0124  0.2331 -0.1990
  219BOLB   C2C 5250  24.352  19.997  23.951 -0.0540  0.4508  0.0689
  219BOLB   C3C 5251  23.926  20.248  24.003 -0.0688 -0.0648  0.1193
  219BOLB   C4C 5252  23.594  20.118  23.852 -0.1688 -0.3966  0.1719
  219BOLB   C1D 5253  24.317  19.082  24.286 -0.2079  0.1631 -0.0314
  219BOLB   C2D 5254  24.312  18.817  23.914 -0.0399 -0.0133 -0.0448
  219BOLB   C3D 5255  24.445  18.867  23.493 -0.3603 -0.1265  0.0033
  219BOLB   C4D 5256  24.649  18.948  23.074 -0.1229  0.1737 -0.2080
  220BOLB   NC1 5257  16.361  10.491  23.436  0.0659 -0.1598  0.0461
  220BOLB   PO1 5258  16.138  10.799  23.267 -0.0955 -0.0469  0.1287
  220BOLB   GL1 5259  15.968  10.606  23.733 -0.2549  0.4154  0.1461
  220BOLB   GL2 5260  15.948  10.882  23.929 -0.1453  0.1186  0.2764
  220BOLB   C1A 5261  16.137  10.385  24.145  0.0969  0.0265  0.1795
  220BOLB   C2A 5262  16.027   9.975  24.250 -0.0547 -0.3222  0.1345
  220BOLB   C3A 5263  15.966   9.751  24.689 -0.0015 -0.0720  0.0111
  220BOLB   C4A 5264  15.945   9.520  25.050 -0.0625  0.1030  0.1003
  220BOLB   C1B 5265  16.309  10.824  24.159  0.1241 -0.0981 -0.1478
  220BOLB   C2B 5266  16.408  10.794  24.634  0.0703 -0.1979  0.0048
  220BOLB   C3B 5267  16.516  10.637  24.911  0.0646 -0.3307  0.1079
  220BOLB   C4B 5268  16.789  10.609  25.295 -0.1846 -0.4204 -0.0458
  220BOLB   NC2 5269  16.368   9.426  27.373 -0.0905  0.1145  0.0633
  220BOLB   PO2 5270  16.598   9.264  27.038 -0.1448  0.1613 -0.1662
  220BOLB   GL3 5271  16.703   9.265  26.652  0.1298  0.0210  0.0960
  220BOLB   GL4 5272  16.978   9.277  26.743 -0.1267 -0.0921 -0.3427
  220BOLB   C1C 5273  16.530   9.578  26.185  0.1512  0.0342  0.3173
  220BOLB   C2C 5274  16.225   9.671  26.022  0.0806  0.5050  0.1407
  220BOLB   C3C 5275  15.923   9.427  25.772 -0.2392 -0.3717 -0.0042
  220BOLB   C4C 5276  15.990   9.432  25.371 -0.1313 -0.4082  0.0594
  220BOLB   C1D 5277  17.062   9.557  26.410  0.2435 -0.1587 -0.1372
  220BOLB   C2D 5278  17.058   9.811  26.015 -0.1939 -0.0138  0.3310
  220BOLB   C3D 5279  16.903   9.905  25.632  0.0454  0.5551 -0.0145
  220BOLB   C4D 5280  16.605  10.096  25.401  0.1766 -0.1518 -0.1985
  221BOLB   NC1 5281  21.144  10.030  19.270  0.2727  0.0891 -0.0110
  221BOLB   PO1 5282  21.405   9.946  19.509  0.0939  0.0110 -0.2764
  221BOLB   GL1 5283  21.387   9.606  19.703  0.1045  0.2147 -0.3361
  221BOLB   GL2 5284  21.128   9.449  19.861 -0.1041 -0.0394  0.2623
  221BOLB   C1A 5285  21.678   9.289  19.666  0.1547 -0.1002 -0.2174
  221BOLB   C2A 5286  21.835   8.868  19.810 -0.1469  0.0400 -0.3404
  221BOLB   C3A 5287  21.948   8.382  19.941  0.1951 -0.1050 -0.3059
  221BOLB   C4A 5288  21.902   8.082  20.177 -0.0907 -0.1547 -0.4684
  221BOLB   C1B 5289  21.252   9.291  20.241 -0.1182 -0.0337  0.0994
  221BOLB   C2B 5290  21.605   9.324  20.598  0.0304  0.2398  0.0544
  221BOLB   C3B 5291  21.696   9.428  20.988 -0.2366 -0.0320  0.2677
  221BOLB   C4B 5292  21.990   9.095  21.186 -0.1007 -0.0691 -0.0825
  221BOLB   NC2 5293  22.375   5.725  20.805 -0.1511 -0.0891  0.2742
  221BOLB   PO2 5294  22.629   5.749  20.527  0.0719 -0.2145 -0.1501
  221BOLB   GL3 5295  22.432   6.171  20.649 -0.2071 -0.0621  0.1973
  221BOLB   GL4 5296  22.205   6.047  20.399 -0.1504  0.0613 -0.1344
  221BOLB   C1C 5297  22.360   6.549  20.436 -0.0463  0.0776 -0.0717
  221BOLB   C2C 5298  22.118   6.955  20.383  0.1654  0.0763  0.2258
  221BOLB   C3C 5299  21.791   7.149  20.223 -0.2557 -0.2335 -0.0884
  221BOLB   C4C 5300  21.746   7.576  20.091  0.3281  0.2797 -0.2044
  221BOLB   C1D 5301  21.880   6.288  20.614 -0.0473 -0.0175  0.2107
  221BOLB   C2D 5302  21.558   6.313  20.873  0.1192  0.0665  0.1089
  221BOLB   C3D 5303  21.615   6.137  21.318  0.3166  0.1015  0.2749
  221BOLB   C4D 5304  21.395   5.740  21.624  0.0528 -0.1255 -0.0558
  222BOLB   NC1 5305  20.731  20.906  21.908 -0.2153 -0.4843 -0.0821
  222BOLB   PO1 5306  20.741  21.258  22.217 -0.0115  0.0203  0.1017
  222BOLB   GL1 5307  20.788  21.414  22.596  0.1416  0.1887  0.1426
  222BOLB   GL2 5308  20.977  21.241  22.830  0.0493 -0.2028 -0.0292
  222BOLB   C1A 5309  20.691  21.566  23.050  0.1672 -0.1833  0.2670
  222BOLB   C2A 5310  20.961  21.830  23.394 -0.2757 -0.0258  0.0252
  222BOLB   C3A 5311  21.093  21.903  23.749  0.0818 -0.0970 -0.0222
  222BOLB   C4A 5312  21.415  22.034  23.924 -0.0986 -0.2043  0.2912
  222BOLB   C1B 5313  21.332  21.045  23.105 -0.1007 -0.0789  0.0026
  222BOLB   C2B 5314  21.776  21.084  23.270 -0.1734 -0.1865 -0.1523
  222BOLB   C3B 5315  21.990  21.346  23.462 -0.0890  0.1301  0.2476
  222BOLB   C4B 5316  22.363  21.355  23.724 -0.2568 -0.1737  0.0340
  222BOLB   NC2 5317  22.732  22.595  26.312  0.2044  0.2083  0.3631
  222BOLB   PO2 5318  22.265  22.489  26.132  0.1950 -0.2126 -0.0466
  222BOLB   GL3 5319  22.161  22.196  25.696  0.1841  0.2405 -0.1817
  222BOLB   GL4 5320  21.993  22.074  25.887 -0.1314 -0.1407  0.0263
  222BOLB   C1C 5321  21.933  22.363  25.402 -0.1514 -0.1201 -0.1040
  222BOLB   C2C 5322  21.941  22.314  24.861 -0.3491  0.4580 -0.0083
  222BOLB   C3C 5323  21.898  22.460  24.458  0.0014 -0.1835 -0.2720
  222BOLB   C4C 5324  21.694  22.389  24.132  0.3704 -0.4400  0.3104
  222BOLB   C1D 5325  21.601  22.021  25.662 -0.1199 -0.2797 -0.0675
  222BOLB   C2D 5326  21.414  22.112  25.417 -0.2816 -0.1823  0.1654
  222BOLB   C3D 5327  21.591  21.964  24.993 -0.0512 -0.0932  0.0234
  222BOLB   C4D 5328  21.498  22.102  24.575  0.1154 -0.2132 -0.1473
  223BOLB   NC1 5329  15.681  16.709  24.382  0.1871  0.1854  0.3853
  223BOLB   PO1 5330  15.385  17.006  24.339  0.0068  0.1098 -0.0821
  223BOLB   GL1 5331  15.460  17.017  24.715 -0.0096 -0.1938  0.2181
  223BOLB   GL2 5332  15.700  17.018  24.789 -0.1486 -0.0221 -0.2550
  223BOLB   C1A 5333  15.424  17.184  25.147  0.0953 -0.1880 -0.1279
  223BOLB   C2A 5334  15.387  17.146  25.629 -0.1448 -0.1188 -0.0256
  223BOLB   C3A 5335  15.390  17.060  25.991 -0.0903 -0.1457  0.1027
  223BOLB   C4A 5336  15.465  16.753  26.238 -0.0492 -0.1737  0.0606
  223BOLB   C1B 5337  15.956  17.141  25.157 -0.1057  0.1282  0.0820
  223BOLB   C2B 5338  16.138  17.037  25.646  0.0385  0.0294 -0.7225
  223BOLB   C3B 5339  16.349  17.071  26.039 -0.0629 -0.2903  0.0749
  223BOLB   C4B 5340  16.465  17.189  26.355 -0.2738  0.1125  0.0124
  223BOLB   NC2 5341  15.681  16.371  28.485  0.0163 -0.2537  0.0758
  223BOLB   PO2 5342  16.074  16.517  28.568  0.0041 -0.3178 -0.0867
  223BOLB   GL3 5343  15.867  16.552  28.066  0.1784 -0.1135 -0.2745
  223BOLB   GL4 5344  15.691  16.835  28.169 -0.1632  0.3464  0.2198
  223BOLB   C1C 5345  15.762  16.572  27.633  0.1452 -0.1292 -0.1023
  223BOLB   C2C 5346  15.479  16.744  27.337  0.2416  0.3882  0.0364
  223BOLB   C3C 5347  15.317  16.688  27.008  0.4539 -0.0673  0.0306
  223BOLB   C4C 5348  15.437  16.527  26.604  0.0240 -0.1430 -0.1694
  223BOLB   C1D 5349  15.450  16.979  27.853 -0.0167 -0.0475 -0.1637
  223BOLB   C2D 5350  15.147  17.165  27.539  0.0260 -0.0191 -0.4373
  223BOLB   C3D 5351  14.951  17.453  27.231 -0.3506  0.2119 -0.0315
  223BOLB   C4D 5352  14.662  17.781  27.512  0.3496  0.0893 -0.2687
  224BOLB   NC1 5353  14.953  19.030  24.493 -0.0118 -0.2682 -0.1957
  224BOLB   PO1 5354  14.833  19.447  24.364 -0.3953 -0.0521  0.0923
  224BOLB   GL1 5355  14.815  19.629  24.846 -0.0137 -0.0280  0.2286
  224BOLB   GL2 5356  14.535  19.687  25.045  0.0071 -0.0010 -0.0046
  224BOLB   C1A 5357  14.892  19.494  25.325 -0.2146  0.2111  0.0832
  224BOLB   C2A 5358  14.777  19.475  25.799 -0.3075  0.1605  0.1439
  224BOLB   C3A 5359  14.736  19.509  26.141  0.2100  0.0490  0.1643
  224BOLB   C4A 5360  14.812  19.386  26.512 -0.0977 -0.0405  0.3333
  224BOLB   C1B 5361  14.424  19.765  25.524  0.0876  0.1991 -0.0927
  224BOLB   C2B 5362  14.352  19.725  25.944  0.0445 -0.0574 -0.2283
  224BOLB   C3B 5363  14.282  19.650  26.403 -0.0919 -0.0947  0.1369
  224BOLB   C4B 5364  14.147  19.497  26.830 -0.3205  0.2233 -0.1054
  224BOLB   NC2 5365  15.300  18.849  28.533  0.1203 -0.1545  0.2194
  224BOLB   PO2 5366  14.934  18.667  28.831 -0.1825 -0.3133  0.0952
  224BOLB   GL3 5367  14.863  18.450  28.417 -0.0020  0.0566  0.2311
  224BOLB   GL4 5368  15.070  18.486  28.278  0.3415 -0.1521  0.1161
  224BOLB   C1C 5369  14.642  18.618  28.016 -0.2093 -0.2602 -0.6738
  224BOLB   C2C 5370  14.824  19.001  27.660  0.0293  0.2508 -0.0037
  224BOLB   C3C 5371  14.729  19.027  27.199 -0.1154 -0.2581 -0.5211
  224BOLB   C4C 5372  14.844  19.254  26.908 -0.3039 -0.2578  0.0393
  224BOLB   C1D 5373  15.228  18.515  27.875  0.2077  0.2096  0.1511
  224BOLB   C2D 5374  15.367  18.371  27.478 -0.2293  0.1367 -0.1143
  224BOLB   C3D 5375  15.185  18.200  27.045 -0.0854 -0.0590  0.0020
  224BOLB   C4D 5376  14.941  17.940  27.083 -0.1271 -0.1426 -0.1051
  225BOLB   NC1 5377  14.999  10.447  23.543 -0.0536  0.0188 -0.2462
  225BOLB   PO1 5378  15.216  10.831  23.484  0.1069  0.1480 -0.1108
  225BOLB   GL1 5379  14.993  10.893  23.882  0.0053 -0.0898  0.0038
  225BOLB   GL2 5380  14.907  10.616  23.984  0.2455 -0.3594  0.2230
  225BOLB   C1A 5381  14.905  11.045  24.341 -0.0629  0.0350 -0.0543
  225BOLB   C2A 5382  14.898  11.092  24.845 -0.0549  0.0316 -0.0359
  225BOLB   C3A 5383  14.862  11.048  25.238  0.0231 -0.1416  0.0598
  225BOLB   C4A 5384  14.867  11.102  25.659  0.1905 -0.1282 -0.1032
  225BOLB   C1B 5385  15.161  10.506  24.409  0.1061  0.0035  0.3617
  225BOLB   C2B 5386  15.249  10.758  24.750 -0.1625  0.3087 -0.0403
  225BOLB   C3B 5387  15.358  10.882  25.203  0.0241  0.0112 -0.1761
  225BOLB   C4B 5388  15.491  10.858  25.692 -0.2836  0.1398  0.1331
  225BOLB   NC2 5389  16.207  11.022  27.898  0.1752 -0.0790  0.2665
  225BOLB   PO2 5390  16.403  10.719  27.603  0.0593  0.1659  0.2614
  225BOLB   GL3 5391  16.023  10.886  27.371  0.0230 -0.0563  0.1182
  225BOLB   GL4 5392  15.917  11.211  27.498 -0.4740 -0.0099  0.2276
  225BOLB   C1C 5393  15.819  10.969  27.013 -0.1711  0.2031 -0.0305
  225BOLB   C2C 5394  15.453  10.941  26.743 -0.1741 -0.0037  0.0081
  225BOLB   C3C 5395  15.177  10.741  26.397  0.1368  0.0501 -0.1999
  225BOLB   C4C 5396  14.937  10.867  26.051 -0.2250  0.0759  0.2047
  225BOLB   C1D 5397  16.249  11.540  27.418 -0.0411 -0.2257 -0.0949
  225BOLB   C2D 5398  16.224  11.965  27.282 -0.0062  0.0179  0.0304
  225BOLB   C3D 5399  16.072  12.298  27.199  0.2897 -0.1387 -0.0913
  225BOLB   C4D 5400  16.052  12.475  26.836  0.1255  0.1139  0.0637
  226BOLB   NC1 5401  22.922  17.850  21.373  0.1022  0.1042 -0.0964
  226BOLB   PO1 5402  22.765  17.528  21.700  0.0026  0.2129  0.0257
  226BOLB   GL1 5403  22.976  17.411  22.034 -0.1262 -0.3173 -0.3801
  226BOLB   GL2 5404  22.960  17.686  22.184  0.0800  0.2040 -0.1091
  226BOLB   C1A 5405  23.329  17.108  22.100  0.1442  0.0436 -0.1864
  226BOLB   C2A 5406  23.528  16.784  22.278 -0.0766  0.1407 -0.1902
  226BOLB   C3A 5407  23.622  16.619  22.760  0.0307 -0.2075 -0.0062
  226BOLB   C4A 5408  23.968  16.737  23.006  0.0094  0.1194 -0.2048
  226BOLB   C1B 5409  23.158  17.612  22.540  0.0919  0.2415  0.1137
  226BOLB   C2B 5410  23.452  17.438  22.814  0.0846  0.2158  0.0272
  226BOLB   C3B 5411  23.610  17.702  23.109  0.2257 -0.2213 -0.0830
  226BOLB   C4B 5412  23.734  17.908  23.482 -0.1500 -0.1410  0.0400
  226BOLB   NC2 5413  24.675  15.177  24.967 -0.1466  0.1266 -0.4434
  226BOLB   PO2 5414  24.768  15.706  24.966 -0.1629  0.0580 -0.0413
  226BOLB   GL3 5415  24.596  15.814  24.637 -0.1359 -0.2927 -0.2735
  226BOLB   GL4 5416  24.527  15.526  24.524 -0.0290  0.0539 -0.1800
  226BOLB   C1C 5417  24.548  16.096  24.199  0.0057  0.0214  0.0002
  226BOLB   C2C 5418  24.347  16.522  24.048  0.0273 -0.0061 -0.2815
  226BOLB   C3C 5419  23.987  16.731  23.859  0.1916  0.2588 -0.3779
  226BOLB   C4C 5420  24.089  16.877  23.458  0.0535  0.0163 -0.2200
  226BOLB   C1D 5421  24.081  15.445  24.227  0.1565 -0.0364 -0.0089
  226BOLB   C2D 5422  23.836  15.466  23.854  0.2034  0.3258 -0.1199
  226BOLB   C3D 5423  23.454  15.560  23.666 -0.2738 -0.1324 -0.1449
  226BOLB   C4D 5424  22.981  15.463  23.537 -0.1481  0.0478 -0.1490
  227BOLB   NC1 5425  14.244  11.301  23.549  0.0465  0.3005 -0.2681
  227BOLB   PO1 5426  13.780  11.499  23.671  0.1144 -0.0814  0.0299
  227BOLB   GL1 5427  13.847  11.312  24.042  0.0849  0.0768 -0.4040
  227BOLB   GL2 5428  13.855  11.056  23.828  0.0298 -0.1150  0.2281
  227BOLB   C1A 5429  13.972  11.393  24.440  0.1538  0.1827 -0.0867
  227BOLB   C2A 5430  14.185  11.440  24.764 -0.0282  0.1058  0.2168
  227BOLB   C3A 5431  14.328  11.128  24.995 -0.0863 -0.1068 -0.1118
  227BOLB   C4A 5432  14.437  10.812  25.317  0.0887  0.0471 -0.1443
  227BOLB   C1B 5433  13.586  10.800  24.050 -0.2789 -0.1440 -0.5840
  227BOLB   C2B 5434  13.620  10.673  24.583  0.0821  0.1489  0.1187
  227BOLB   C3B 5435  13.601  10.484  24.965 -0.2671 -0.0394  0.1465
  227BOLB   C4B 5436  13.513  10.197  25.218 -0.1589 -0.0005 -0.0813
  227BOLB   NC2 5437  13.933   9.787  27.536 -0.3658  0.1416  0.1084
  227BOLB   PO2 5438  14.183  10.143  27.682  0.1249  0.3274 -0.1166
  227BOLB   GL3 5439  14.276  10.486  27.400 -0.3051  0.1342 -0.1156
  227BOLB   GL4 5440  14.058  10.714  27.521 -0.0469  0.0080  0.0302
  227BOLB   C1C 5441  14.442  10.734  27.081 -0.2069 -0.0700  0.1368
  227BOLB   C2C 5442  14.339  10.790  26.600  0.0766 -0.1076 -0.0581
  227BOLB   C3C 5443  14.472  10.789  26.173  0.1686 -0.1063  0.1531
  227BOLB   C4C 5444  14.402  10.749  25.741  0.1094  0.3183 -0.1617
  227BOLB   C1D 5445  13.976  10.886  27.120 -0.1231 -0.1871 -0.0908
  227BOLB   C2D 5446  13.917  11.191  26.804 -0.0401 -0.0464  0.1011
  227BOLB   C3D 5447  13.783  11.293  26.484  0.2927 -0.4462 -0.0031
  227BOLB   C4D 5448  13.613  11.483  26.171  0.1795 -0.1145 -0.0601
  228BOLB   NC1 5449   9.252  23.227  23.390  0.3680  0.2409  0.2511
  228BOLB   PO1 5450   8.992  23.311  22.962 -0.0411 -0.2742  0.0616
  228BOLB   GL1 5451   9.266  23.644  22.872  0.0387 -0.0874  0.3377
  228BOLB   GL2 5452   9.562  23.595  22.702 -0.2122  0.1561 -0.0725
  228BOLB   C1A 5453   9.464  24.000  22.953 -0.2450 -0.0316 -0.1129
  228BOLB   C2A 5454   9.662  24.295  22.603 -0.0673 -0.1735 -0.0142
  228BOLB   C3A 5455   9.809  24.666  22.340  0.0161 -0.1349 -0.2270
  228BOLB   C4A 5456   9.496  24.845  22.098 -0.4364  0.1388 -0.0889
  228BOLB   C1B 5457   9.958  23.899  22.727 -0.1630 -0.0969  0.2251
  228BOLB   C2B 5458  10.184  24.203  22.608  0.1550  0.5392  0.0591
  228BOLB   C3B 5459  10.298  24.495  22.201  0.1043  0.0848 -0.1734
  228BOLB   C4B 5460  10.110  24.850  21.971 -0.3715  0.1465  0.1519
  228BOLB   NC2 5461   7.946  26.486  20.931 -0.1366  0.0553 -0.1596
  228BOLB   PO2 5462   8.307  26.668  21.005  0.1055 -0.3696  0.0292
  228BOLB   GL3 5463   8.700  26.501  21.090  0.2096  0.2976  0.1551
  228BOLB   GL4 5464   8.658  26.391  20.706  0.2901 -0.2471 -0.3174
  228BOLB   C1C 5465   8.894  26.097  21.203 -0.0726 -0.0321 -0.0235
  228BOLB   C2C 5466   9.124  25.727  21.368 -0.2253 -0.1956  0.1831
  228BOLB   C3C 5467   9.182  25.273  21.552 -0.0608 -0.1233 -0.2659
  228BOLB   C4C 5468   9.406  24.905  21.739 -0.0573 -0.1468  0.2523
  228BOLB   C1D 5469   8.806  26.095  20.522  0.0825  0.1820 -0.1119
  228BOLB   C2D 5470   8.824  25.702  20.716 -0.0234  0.0959 -0.2451
  228BOLB   C3D 5471   9.208  25.387  20.806  0.1059  0.3400  0.2178
  228BOLB   C4D 5472   9.605  25.202  20.731  0.3977 -0.0392  0.0653
  229BOLB   NC1 5473  13.563  12.764  23.860 -0.1542 -0.2453 -0.1182
  229BOLB   PO1 5474  13.546  12.347  23.843 -0.0504 -0.2388 -0.0204
  229BOLB   GL1 5475  13.417  12.227  24.263  0.0859  0.3218 -0.0586
  229BOLB   GL2 5476  13.116  12.103  24.258 -0.2164 -0.0825  0.0717
  229BOLB   C1A 5477  13.413  12.388  24.641 -0.0147  0.2695 -0.1778
  229BOLB   C2A 5478  13.598  12.163  25.026  0.2971  0.0104  0.1338
  229BOLB   C3A 5479  13.615  11.796  25.372  0.0587  0.1310 -0.1062
  229BOLB   C4A 5480  13.638  11.863  25.783  0.2921 -0.0973 -0.1904
  229BOLB   C1B 5481  13.115  11.945  24.767 -0.0804  0.0919  0.0267
  229BOLB   C2B 5482  12.840  12.010  25.086 -0.2184  0.2786  0.0438
  229BOLB   C3B 5483  12.672  11.964  25.603 -0.1277 -0.0050 -0.1030
  229BOLB   C4B 5484  12.747  11.768  25.975 -0.2793 -0.1363  0.1170
  229BOLB   NC2 5485  13.491  11.906  28.343 -0.0927 -0.0705  0.0608
  229BOLB   PO2 5486  13.449  11.670  28.076 -0.0891  0.0834 -0.1110
  229BOLB   GL3 5487  13.669  11.777  27.689 -0.0073  0.1787 -0.0536
  229BOLB   GL4 5488  13.913  11.825  27.662 -0.1906  0.3455 -0.0177
  229BOLB   C1C 5489  13.541  11.795  27.276  0.1130  0.0358  0.4116
  229BOLB   C2C 5490  13.355  11.968  26.947  0.0627  0.3296 -0.0235
  229BOLB   C3C 5491  13.386  12.187  26.527  0.1319  0.0809 -0.0823
  229BOLB   C4C 5492  13.536  12.208  26.150 -0.0658  0.0353 -0.2402
  229BOLB   C1D 5493  13.999  12.002  27.239 -0.2873  0.2629  0.1702
  229BOLB   C2D 5494  13.780  12.248  26.966 -0.0295  0.0039 -0.1523
  229BOLB   C3D 5495  13.813  12.442  26.494 -0.1394 -0.1536  0.2622
  229BOLB   C4D 5496  13.980  12.620  26.236  0.1653  0.1145  0.4105
  230BOLB   NC1 5497  19.954  24.945  20.995 -0.1703 -0.5426 -0.4499
  230BOLB   PO1 5498  19.971  25.125  21.402 -0.0717  0.0138  0.0095
  230BOLB   GL1 5499  20.341  25.254  21.582  0.4736  0.1583  0.2383
  230BOLB   GL2 5500  20.501  25.146  21.243 -0.1553 -0.1016  0.0300
  230BOLB   C1A 5501  20.803  25.208  21.722 -0.0960 -0.1520 -0.2702
  230BOLB   C2A 5502  21.022  25.096  22.013 -0.2561  0.1517  0.1084
  230BOLB   C3A 5503  21.382  25.252  22.136  0.0959 -0.0288  0.1767
  230BOLB   C4A 5504  21.787  25.452  22.197  0.1887  0.1959 -0.0996
  230BOLB   C1B 5505  20.873  25.003  21.296  0.1272 -0.0138  0.1124
  230BOLB   C2B 5506  21.239  25.025  21.420 -0.1761 -0.0449 -0.3072
  230BOLB   C3B 5507  21.416  25.281  21.584  0.1310 -0.1689 -0.0800
  230BOLB   C4B 5508  21.867  25.476  21.666 -0.0368  0.3384 -0.0375
  230BOLB   NC2 5509  23.690  26.094  22.496 -0.0564 -0.2044  0.3150
  230BOLB   PO2 5510  23.960  25.793  22.421  0.1342 -0.0721  0.1991
  230BOLB   GL3 5511  23.581  25.605  22.202 -0.2370  0.0871  0.0321
  230BOLB   GL4 5512  23.856  25.482  21.966 -0.0905 -0.0072  0.4777
  230BOLB   C1C 5513  23.382  25.264  22.070  0.2519 -0.0676  0.0865
  230BOLB   C2C 5514  23.019  25.283  21.830 -0.2921 -0.5678 -0.0466
  230BOLB   C3C 5515  22.589  25.371  21.945  0.2052  0.2980 -0.1546
  230BOLB   C4C 5516  22.230  25.556  22.054  0.1944  0.0036  0.0607
  230BOLB   C1D 5517  23.612  25.595  21.648 -0.1120 -0.4847 -0.1687
  230BOLB   C2D 5518  23.284  25.767  21.465  0.3284  0.0532 -0.0453
  230BOLB   C3D 5519  22.882  25.792  21.373 -0.2707 -0.0424 -0.2633
  230BOLB   C4D 5520  22.557  25.658  21.209 -0.1444 -0.0719  0.0330
  231BOLB   NC1 5521  15.834  20.165  24.128  0.3249  0.0613 -0.0366
  231BOLB   PO1 5522  15.519  19.972  24.258 -0.1409  0.3465  0.0552
  231BOLB   GL1 5523  15.733  20.026  24.615 -0.0184  0.1408 -0.0166
  231BOLB   GL2 5524  15.570  19.918  24.871 -0.0900  0.0131  0.1957
  231BOLB   C1A 5525  16.079  19.979  24.899  0.2864  0.1998 -0.0641
  231BOLB   C2A 5526  16.325  19.787  25.338 -0.1161  0.0518 -0.0540
  231BOLB   C3A 5527  16.728  19.794  25.470 -0.0855  0.1320  0.1464
  231BOLB   C4A 5528  16.921  19.793  25.826  0.2672  0.0128 -0.0142
  231BOLB   C1B 5529  15.843  19.756  25.295  0.2821  0.2898 -0.0117
  231BOLB   C2B 5530  15.912  19.773  25.656  0.0320  0.1674 -0.1235
  231BOLB   C3B 5531  15.641  19.840  26.036 -0.1694 -0.1049 -0.0264
  231BOLB   C4B 5532  15.721  19.914  26.443 -0.0567 -0.0724 -0.1957
  231BOLB   NC2 5533  17.672  19.903  28.209 -0.1793  0.3852 -0.4435
  231BOLB   PO2 5534  17.258  19.813  28.181 -0.1147  0.2181 -0.0473
  231BOLB   GL3 5535  17.253  19.912  27.717  0.0887  0.0136 -0.2424
  231BOLB   GL4 5536  17.047  20.177  27.721 -0.3429  0.2659 -0.0535
  231BOLB   C1C 5537  17.263  20.038  27.291  0.3290  0.4251 -0.0073
  231BOLB   C2C 5538  17.546  19.753  26.950  0.3438 -0.0925 -0.0506
  231BOLB   C3C 5539  17.343  19.623  26.535 -0.2701 -0.2036  0.3732
  231BOLB   C4C 5540  17.065  19.698  26.198 -0.0836  0.0585  0.1289
  231BOLB   C1D 5541  16.738  20.098  27.364  0.0388 -0.1636 -0.1512
  231BOLB   C2D 5542  16.508  19.789  27.186  0.0340  0.1319 -0.1517
  231BOLB   C3D 5543  16.602  19.358  27.050 -0.2139 -0.2613 -0.0631
  231BOLB   C4D 5544  16.657  19.050  26.840 -0.0570  0.0937  0.0502
  232BOLB   NC1 5545  17.722  12.283  23.437 -0.2677 -0.0190 -0.0101
  232BOLB   PO1 5546  17.443  12.558  23.665 -0.2900 -0.0939  0.0015
  232BOLB   GL1 5547  17.401  12.590  24.139 -0.1133 -0.1077 -0.2111
  232BOLB   GL2 5548  17.326  12.907  24.256 -0.4367  0.0564  0.1553
  232BOLB   C1A 5549  17.479  12.281  24.404  0.0615 -0.2084 -0.2368
  232BOLB   C2A 5550  17.644  11.923  24.633 -0.1419 -0.3039 -0.2977
  232BOLB   C3A 5551  17.889  11.750  25.029 -0.0284 -0.0381  0.2132
  232BOLB   C4A 5552  17.975  11.694  25.357 -0.0983  0.0531 -0.4382
  232BOLB   C1B 5553  17.243  12.778  24.622  0.0063  0.0584 -0.2572
  232BOLB   C2B 5554  17.408  12.508  24.953 -0.0606  0.4164  0.2492
  232BOLB   C3B 5555  17.537  12.150  25.119  0.1834 -0.0382  0.0210
  232BOLB   C4B 5556  17.693  12.251  25.496 -0.1780 -0.4006 -0.0437
  232BOLB   NC2 5557  18.144  10.445  27.053 -0.0171  0.1740  0.4039
  232BOLB   PO2 5558  18.492  10.287  27.068 -0.3326 -0.2113 -0.0053
  232BOLB   GL3 5559  18.537  10.475  26.734  0.0677 -0.2422  0.3328
  232BOLB   GL4 5560  18.278  10.407  26.529  0.1677 -0.0374 -0.0227
  232BOLB   C1C 5561  18.633  10.680  26.299 -0.1707 -0.0480 -0.0118
  232BOLB   C2C 5562  18.445  10.729  25.967  0.2133 -0.0101  0.0437
  232BOLB   C3C 5563  18.252  10.923  25.646 -0.1220 -0.2438  0.0183
  232BOLB   C4C 5564  18.205  11.345  25.620  0.1503 -0.0313  0.0759
  232BOLB   C1D 5565  18.399  10.267  26.118 -0.2302  0.0908  0.0511
  232BOLB   C2D 5566  18.285   9.937  25.789  0.2655 -0.0042  0.0580
  232BOLB   C3D 5567  17.875  10.055  25.544 -0.2556 -0.0651 -0.2384
  232BOLB   C4D 5568  17.694  10.477  25.557 -0.1302 -0.1462  0.0904
  233BOLB   NC1 5569  11.593  15.329  24.380  0.5396 -0.0293 -0.0124
  233BOLB   PO1 5570  11.457  14.943  24.550  0.1096 -0.3060  0.0242
  233BOLB   GL1 5571  11.595  14.656  24.864 -0.0107 -0.0507  0.0002
  233BOLB   GL2 5572  11.897  14.517  24.905 -0.3332 -0.0501  0.4406
  233BOLB   C1A 5573  11.488  14.516  25.300  0.2999 -0.0150  0.0872
  233BOLB   C2A 5574  11.603  14.255  25.617 -0.1556 -0.3148  0.0046
  233BOLB   C3A 5575  11.687  13.940  25.824  0.0834  0.2177  0.0053
  233BOLB   C4A 5576  11.481  13.739  26.222  0.1679 -0.2472 -0.2773
  233BOLB   C1B 5577  11.815  14.091  25.036 -0.0184  0.1909 -0.0297
  233BOLB   C2B 5578  11.470  13.905  25.204  0.1889 -0.1050  0.1529
  233BOLB   C3B 5579  11.383  13.694  25.508 -0.3879  0.1723 -0.3998
  233BOLB   C4B 5580  11.115  13.799  25.883  0.1962 -0.0543 -0.0575
  233BOLB   NC2 5581  11.825  13.680  28.302 -0.1155 -0.0496 -0.0733
  233BOLB   PO2 5582  11.507  13.345  28.084  0.1937  0.0251  0.1424
  233BOLB   GL3 5583  11.736  13.518  27.714 -0.2021  0.0658  0.2034
  233BOLB   GL4 5584  11.880  13.885  27.883  0.1500  0.0174  0.1825
  233BOLB   C1C 5585  12.140  13.482  27.465  0.2344 -0.2490  0.1655
  233BOLB   C2C 5586  12.078  13.398  27.115 -0.3430 -0.0385  0.0381
  233BOLB   C3C 5587  11.887  13.551  26.811  0.0106  0.0506  0.3466
  233BOLB   C4C 5588  11.609  13.599  26.543  0.2827 -0.0177 -0.2890
  233BOLB   C1D 5589  12.097  14.222  27.681 -0.3603  0.0583  0.1027
  233BOLB   C2D 5590  12.138  14.336  27.284 -0.1624 -0.0482  0.2421
  233BOLB   C3D 5591  11.869  14.354  26.986  0.0135 -0.1982 -0.2157
  233BOLB   C4D 5592  11.599  14.547  26.812  0.1393  0.0505 -0.3040
  234BOLB   NC1 5593  17.503  18.246  24.096  0.2553  0.0580 -0.2892
  234BOLB   PO1 5594  17.998  18.253  24.235 -0.1085  0.1983 -0.0096
  234BOLB   GL1 5595  18.126  18.401  24.572  0.0196 -0.1084 -0.2334
  234BOLB   GL2 5596  17.788  18.495  24.713 -0.0038  0.1814  0.0547
  234BOLB   C1A 5597  18.305  18.375  24.900 -0.2627 -0.0065  0.0502
  234BOLB   C2A 5598  18.392  18.347  25.385  0.0207 -0.2314  0.0929
  234BOLB   C3A 5599  18.395  18.427  25.845 -0.2569  0.2666 -0.0372
  234BOLB   C4A 5600  18.225  18.351  26.226 -0.0079  0.0861  0.1674
  234BOLB   C1B 5601  17.631  18.654  25.220  0.1767  0.0045  0.0899
  234BOLB   C2B 5602  17.639  18.947  25.592  0.2966  0.1924  0.1583
  234BOLB   C3B 5603  17.761  19.042  25.912  0.1688  0.0950  0.0083
  234BOLB   C4B 5604  17.584  19.115  26.244  0.2916 -0.4008  0.1836
  234BOLB   NC2 5605  19.270  19.602  28.364  0.3736  0.1705  0.2488
  234BOLB   PO2 5606  19.405  19.201  28.163  0.1254  0.2134  0.1361
  234BOLB   GL3 5607  19.321  19.043  27.756  0.2350 -0.0811 -0.1441
  234BOLB   GL4 5608  19.615  18.848  27.751  0.1095 -0.0132 -0.2077
  234BOLB   C1C 5609  19.249  18.912  27.355  0.0669 -0.0535 -0.0486
  234BOLB   C2C 5610  19.177  18.617  27.032 -0.2244  0.0583  0.2836
  234BOLB   C3C 5611  18.842  18.511  26.780  0.1416 -0.1477 -0.1386
  234BOLB   C4C 5612  18.452  18.462  26.585  0.0999  0.2384  0.0380
  234BOLB   C1D 5613  19.666  18.567  27.434 -0.0640  0.0244  0.2722
  234BOLB   C2D 5614  19.941  18.561  27.151  0.2518 -0.2385  0.4809
  234BOLB   C3D 5615  20.230  18.344  27.139  0.0502  0.4009  0.0107
  234BOLB   C4D 5616  20.591  18.079  27.274 -0.1315 -0.2868 -0.1976
  235BOLB   NC1 5617  20.316  14.997  22.725  0.0261  0.3123  0.0400
  235BOLB   PO1 5618  20.481  14.918  23.087  0.2194  0.2944  0.0123
  235BOLB   GL1 5619  20.726  14.948  23.467 -0.4666  0.0920 -0.1042
  235BOLB   GL2 5620  20.518  14.826  23.671  0.0309  0.2486  0.1519
  235BOLB   C1A 5621  21.114  15.072  23.658 -0.4036 -0.0732  0.0261
  235BOLB   C2A 5622  21.423  14.900  24.033 -0.3213 -0.4667  0.2248
  235BOLB   C3A 5623  21.725  14.815  24.298 -0.1106  0.0261  0.2340
  235BOLB   C4A 5624  21.927  14.606  24.601 -0.3163  0.1319  0.0170
  235BOLB   C1B 5625  20.524  14.660  23.962 -0.2696  0.1575  0.1042
  235BOLB   C2B 5626  20.567  14.732  24.367 -0.2377  0.3079 -0.0576
  235BOLB   C3B 5627  20.898  14.902  24.744  0.1252  0.3227  0.0581
  235BOLB   C4B 5628  21.085  15.062  25.037 -0.2411  0.1515 -0.2482
  235BOLB   NC2 5629  21.826  14.483  26.898  0.1512  0.0017  0.1684
  235BOLB   PO2 5630  22.035  14.953  26.755  0.0271  0.1974 -0.0247
  235BOLB   GL3 5631  21.782  15.144  26.540 -0.1331 -0.1620 -0.0146
  235BOLB   GL4 5632  21.715  15.465  26.771  0.2958 -0.2082  0.1347
  235BOLB   C1C 5633  21.804  14.989  26.131  0.0777  0.0336  0.1867
  235BOLB   C2C 5634  21.895  14.723  25.866 -0.0912 -0.1811  0.0417
  235BOLB   C3C 5635  21.893  14.376  25.477 -0.0026 -0.1461 -0.0014
  235BOLB   C4C 5636  21.789  14.437  25.010  0.0245  0.0375 -0.0395
  235BOLB   C1D 5637  21.383  15.421  26.339  0.1748  0.3135 -0.1372
  235BOLB   C2D 5638  21.076  15.608  26.162  0.1931 -0.0397  0.2462
  235BOLB   C3D 5639  21.041  15.736  25.658 -0.2827 -0.1540 -0.1759
  235BOLB   C4D 5640  20.847  15.369  25.368 -0.1382 -0.1718  0.1048
  236BOLB   NC1 5641  13.804  12.564  23.436  0.1218  0.0619  0.1134
  236BOLB   PO1 5642  14.004  12.520  23.879  0.4270  0.2035 -0.1204
  236BOLB   GL1 5643  14.082  12.481  24.307  0.1227 -0.3282 -0.0425
  236BOLB   GL2 5644  13.910  12.185  24.455  0.3083  0.2543 -0.5276
  236BOLB   C1A 5645  14.171  12.568  24.770  0.3058  0.0259  0.3948
  236BOLB   C2A 5646  14.026  12.346  25.137 -0.1782  0.2483 -0.0812
  236BOLB   C3A 5647  13.980  12.199  25.561 -0.1156 -0.1086  0.1894
  236BOLB   C4A 5648  14.028  12.156  26.032 -0.0292  0.0791  0.0008
  236BOLB   C1B 5649  13.615  11.865  24.612 -0.0706 -0.2655  0.1817
  236BOLB   C2B 5650  13.577  11.504  24.933 -0.2393  0.0813  0.0742
  236BOLB   C3B 5651  13.532  11.226  25.256 -0.2455 -0.2136 -0.0018
  236BOLB   C4B 5652  13.582  11.045  25.756  0.1574 -0.2737  0.0876
  236BOLB   NC2 5653  14.505  12.896  28.357  0.1430  0.4113 -0.2525
  236BOLB   PO2 5654  14.913  13.106  28.202 -0.1684  0.1055 -0.0955
  236BOLB   GL3 5655  14.702  12.905  27.828 -0.1470  0.1684  0.2134
  236BOLB   GL4 5656  14.879  12.743  27.653  0.0800 -0.1639 -0.1360
  236BOLB   C1C 5657  14.374  12.779  27.478  0.0023  0.2323  0.0296
  236BOLB   C2C 5658  14.316  12.797  27.106  0.3858  0.2062 -0.1469
  236BOLB   C3C 5659  14.211  12.450  26.866 -0.0601 -0.1143  0.1062
  236BOLB   C4C 5660  14.222  12.153  26.455  0.1154  0.0332 -0.2340
  236BOLB   C1D 5661  14.780  12.553  27.215  0.1317  0.1325 -0.0117
  236BOLB   C2D 5662  14.743  12.655  26.804 -0.0049  0.0744 -0.2187
  236BOLB   C3D 5663  14.598  12.500  26.468 -0.2019  0.2059  0.0382
  236BOLB   C4D 5664  14.442  12.456  26.128  0.4114 -0.0619  0.0369
  237BOLB   NC1 5665  18.134  21.411  23.369 -0.0608 -0.1373 -0.0393
  237BOLB   PO1 5666  18.119  21.633  23.700  0.2208  0.0444  0.2383
  237BOLB   GL1 5667  18.132  21.889  24.096 -0.2845 -0.2295  0.2190
  237BOLB   GL2 5668  18.358  22.228  24.038 -0.0022  0.0317 -0.0700
  237BOLB   C1A 5669  18.074  22.158  24.407 -0.1108  0.1539 -0.1736
  237BOLB   C2A 5670  18.141  22.180  24.862 -0.1333 -0.0631  0.3905
  237BOLB   C3A 5671  18.057  22.165  25.221  0.1146  0.2110  0.3024
  237BOLB   C4A 5672  17.875  22.063  25.646  0.0296 -0.1808 -0.1091
  237BOLB   C1B 5673  18.690  22.269  24.466  0.1170 -0.0882  0.2356
  237BOLB   C2B 5674  18.731  22.362  24.856  0.2629  0.1123 -0.2265
  237BOLB   C3B 5675  18.518  22.561  25.131 -0.1006 -0.1140 -0.2662
  237BOLB   C4B 5676  18.192  22.606  25.487  0.3442 -0.1745 -0.1474
  237BOLB   NC2 5677  18.294  21.945  28.361 -0.1066  0.0319  0.0985
  237BOLB   PO2 5678  18.340  21.941  27.833 -0.0199  0.1322  0.1459
  237BOLB   GL3 5679  18.190  21.958  27.479  0.2285  0.1202 -0.2602
  237BOLB   GL4 5680  17.891  21.795  27.361 -0.1498  0.1282  0.1336
  237BOLB   C1C 5681  18.296  22.057  27.059 -0.1535 -0.3151  0.0783
  237BOLB   C2C 5682  18.484  22.059  26.618 -0.0177 -0.0364 -0.5412
  237BOLB   C3C 5683  18.429  22.034  26.260  0.1916  0.0744 -0.2490
  237BOLB   C4C 5684  18.030  21.873  25.974 -0.0480  0.1700  0.1743
  237BOLB   C1D 5685  17.829  21.763  27.031 -0.2006  0.0573 -0.3141
  237BOLB   C2D 5686  17.607  21.588  26.731 -0.1857 -0.0411  0.0688
  237BOLB   C3D 5687  17.480  21.351  26.429  0.1266 -0.1645  0.1413
  237BOLB   C4D 5688  17.279  21.232  26.085  0.1359 -0.2981 -0.3081
  238BOLB   NC1 5689  15.001  17.006  23.994 -0.0218  0.0311  0.1515
  238BOLB   PO1 5690  14.881  17.306  24.251  0.0143 -0.0481  0.2147
  238BOLB   GL1 5691  15.209  17.499  24.514 -0.0395 -0.2698  0.0164
  238BOLB   GL2 5692  15.096  17.706  24.709  0.1116 -0.0354  0.0703
  238BOLB   C1A 5693  15.584  17.591  24.831 -0.0033  0.0450 -0.1758
  238BOLB   C2A 5694  15.698  17.570  25.350 -0.0740  0.1323 -0.1292
  238BOLB   C3A 5695  15.772  17.423  25.811 -0.1404 -0.3277  0.0102
  238BOLB   C4A 5696  15.851  17.215  26.199  0.3310 -0.1783 -0.5046
  238BOLB   C1B 5697  15.174  17.664  25.208 -0.0072 -0.1209  0.1330
  238BOLB   C2B 5698  15.219  17.610  25.640  0.1083 -0.1683  0.1916
  238BOLB   C3B 5699  15.384  17.598  26.056 -0.1038  0.0539 -0.1549
  238BOLB   C4B 5700  15.393  17.293  26.424 -0.1206 -0.0339  0.3412
  238BOLB   NC2 5701  15.546  17.741  28.543  0.3470  0.2526 -0.0425
  238BOLB   PO2 5702  15.701  17.387  28.452  0.2955  0.0084  0.0508
  238BOLB   GL3 5703  16.040  17.266  28.154  0.4437  0.0961  0.0978
  238BOLB   GL4 5704  16.383  17.279  28.336  0.1098 -0.0569 -0.0395
  238BOLB   C1C 5705  15.924  17.046  27.802 -0.2175  0.2629  0.0165
  238BOLB   C2C 5706  15.945  16.871  27.327 -0.0062 -0.0771 -0.2326
  238BOLB   C3C 5707  15.775  16.874  26.987 -0.0379  0.1750 -0.0401
  238BOLB   C4C 5708  15.886  17.102  26.608  0.2106  0.3149 -0.0359
  238BOLB   C1D 5709  16.417  17.379  27.901 -0.1209  0.6129  0.0243
  238BOLB   C2D 5710  16.542  17.497  27.442 -0.1043  0.3275  0.0098
  238BOLB   C3D 5711  16.507  17.617  27.048 -0.1620  0.1944  0.0651
  238BOLB   C4D 5712  16.275  17.559  26.727 -0.0516  0.1059 -0.1227
  239BOLB   NC1 5713  15.159  22.237  23.736  0.3040 -0.1718 -0.2503
  239BOLB   PO1 5714  15.130  22.643  23.567  0.0753  0.0941  0.0547
  239BOLB   GL1 5715  15.037  22.671  23.948  0.0890 -0.2761 -0.2675
  239BOLB   GL2 5716  14.682  22.737  24.042  0.1500 -0.0364 -0.4249
  239BOLB   C1A 5717  14.995  22.447  24.306 -0.1651 -0.0368 -0.0460
  239BOLB   C2A 5718  15.243  22.246  24.629  0.1116 -0.0717  0.0553
  239BOLB   C3A 5719  15.201  22.113  25.069 -0.2315 -0.3501  0.3212
  239BOLB   C4A 5720  15.188  22.437  25.340 -0.0004  0.2364 -0.1466
  239BOLB   C1B 5721  14.641  22.793  24.540 -0.1087 -0.1450  0.1345
  239BOLB   C2B 5722  14.830  22.924  24.885  0.4909  0.0084 -0.1049
  239BOLB   C3B 5723  14.934  23.198  25.181  0.2838  0.2686  0.0524
  239BOLB   C4B 5724  15.360  23.392  25.339  0.0829 -0.0469  0.1158
  239BOLB   NC2 5725  15.244  23.425  27.431 -0.0298 -0.1709 -0.1055
  239BOLB   PO2 5726  15.465  23.110  27.657 -0.0234 -0.1212  0.1438
  239BOLB   GL3 5727  15.314  22.964  27.233 -0.2399 -0.1427  0.0882
  239BOLB   GL4 5728  15.447  23.149  27.050  0.0018 -0.0054  0.0791
  239BOLB   C1C 5729  15.325  22.654  26.976  0.2680  0.1173  0.0347
  239BOLB   C2C 5730  15.067  22.556  26.719  0.3390  0.2063  0.2481
  239BOLB   C3C 5731  15.002  22.523  26.236 -0.1302  0.1684 -0.0442
  239BOLB   C4C 5732  14.985  22.484  25.758  0.1821  0.0589 -0.0811
  239BOLB   C1D 5733  15.213  23.124  26.798  0.2289  0.1016  0.1680
  239BOLB   C2D 5734  14.967  23.461  26.555 -0.2574  0.1818 -0.3144
  239BOLB   C3D 5735  14.546  23.447  26.354  0.3327 -0.1597  0.2013
  239BOLB   C4D 5736  14.220  23.529  26.061  0.1290  0.0544 -0.1170
  240BOLB   NC1 5737  22.480  10.286  19.465 -0.0080  0.2308  0.1337
  240BOLB   PO1 5738  22.230  10.099  19.734  0.0474 -0.0403 -0.0599
  240BOLB   GL1 5739  22.481  10.061  20.065 -0.0487 -0.0643 -0.1469
  240BOLB   GL2 5740  22.795  10.325  19.912 -0.0881 -0.0579  0.3282
  240BOLB   C1A 5741  22.745  10.029  20.439  0.2839 -0.0051 -0.2656
  240BOLB   C2A 5742  23.061   9.916  20.742 -0.0490  0.1998  0.1965
  240BOLB   C3A 5743  23.065   9.757  21.166  0.1164 -0.0897  0.3688
  240BOLB   C4A 5744  23.242   9.636  21.478 -0.1893  0.3219  0.1827
  240BOLB   C1B 5745  23.015   9.889  20.002 -0.0125  0.0440 -0.0104
  240BOLB   C2B 5746  23.252   9.743  20.303  0.0405 -0.2323 -0.1313
  240BOLB   C3B 5747  23.196   9.444  20.574  0.3006 -0.2299 -0.3493
  240BOLB   C4B 5748  23.129   9.010  20.657  0.2802  0.0355  0.0798
  240BOLB   NC2 5749  25.296   9.214  22.898 -0.0048  0.0355  0.0031
  240BOLB   PO2 5750  25.028   8.935  22.767 -0.0906 -0.3245  0.1746
  240BOLB   GL3 5751  24.795   9.115  22.515 -0.2922 -0.0419 -0.0658
  240BOLB   GL4 5752  24.556   9.293  22.715  0.2710 -0.0541  0.1203
  240BOLB   C1C 5753  24.746   9.366  22.161 -0.1132  0.2211  0.3128
  240BOLB   C2C 5754  24.225   9.561  22.057 -0.0854  0.0156  0.1753
  240BOLB   C3C 5755  23.833   9.541  22.059  0.2938  0.2569  0.0678
  240BOLB   C4C 5756  23.485   9.774  21.862  0.2018  0.3833 -0.3000
  240BOLB   C1D 5757  24.266   9.215  22.520  0.2701 -0.2127 -0.0726
  240BOLB   C2D 5758  24.073   9.003  22.301  0.3276  0.2003  0.1649
  240BOLB   C3D 5759  24.002   8.661  21.943  0.1409  0.2162  0.0688
  240BOLB   C4D 5760  23.930   8.737  21.477 -0.0025 -0.0364 -0.1305
  241BOLB   NC1 5761  16.473  13.209  24.242 -0.2857  0.2254 -0.1852
  241BOLB   PO1 5762  16.521  13.569  24.131  0.0352  0.1162  0.4120
  241BOLB   GL1 5763  16.672  13.538  24.526  0.2916 -0.1565 -0.0381
  241BOLB   GL2 5764  16.482  13.578  24.782  0.0413  0.1353  0.2401
  241BOLB   C1A 5765  16.918  13.589  24.902  0.1380 -0.1192 -0.0208
  241BOLB   C2A 5766  16.989  13.612  25.337  0.0677 -0.2374 -0.1978
  241BOLB   C3A 5767  17.172  13.658  25.700  0.0882 -0.0228  0.2316
  241BOLB   C4A 5768  17.221  13.491  26.017 -0.0242  0.1968 -0.1132
  241BOLB   C1B 5769  16.381  13.459  25.157  0.1386 -0.2166  0.4227
  241BOLB   C2B 5770  16.388  13.347  25.592 -0.3682  0.0649  0.1083
  241BOLB   C3B 5771  16.347  13.458  26.018 -0.0116 -0.0714  0.4157
  241BOLB   C4B 5772  16.064  13.255  26.339 -0.0084 -0.1233 -0.0213
  241BOLB   NC2 5773  17.118  12.409  28.225 -0.0319  0.3967  0.0219
  241BOLB   PO2 5774  17.034  12.850  28.183  0.4176  0.4283  0.3752
  241BOLB   GL3 5775  17.166  12.955  27.713  0.0921 -0.3839  0.0693
  241BOLB   GL4 5776  17.239  12.729  27.423 -0.4346 -0.0718  0.3323
  241BOLB   C1C 5777  16.967  13.195  27.488  0.0702  0.2440 -0.4640
  241BOLB   C2C 5778  17.142  13.230  27.187 -0.0320  0.1990  0.3696
  241BOLB   C3C 5779  17.092  13.196  26.751  0.0871 -0.0747 -0.6463
  241BOLB   C4C 5780  17.303  13.282  26.354  0.2431 -0.1459 -0.3593
  241BOLB   C1D 5781  17.063  12.521  27.122  0.0129  0.0584 -0.1780
  241BOLB   C2D 5782  17.032  12.653  26.663  0.1193 -0.0456  0.2761
  241BOLB   C3D 5783  17.020  12.782  26.259 -0.7721  0.5719 -0.3681
  241BOLB   C4D 5784  17.250  12.986  25.887  0.2267 -0.0303 -0.0594
  242BOLB   NC1 5785  19.901  11.302  22.496 -0.2477  0.0695  0.1414
  242BOLB   PO1 5786  19.495  11.321  22.549  0.0612  0.0293  0.1473
  242BOLB   GL1 5787  19.716  11.193  22.952  0.1096 -0.1579  0.0719
  242BOLB   GL2 5788  19.480  11.076  23.207 -0.0771 -0.0689  0.2046
  242BOLB   C1A 5789  19.977  11.001  23.298 -0.5026  0.0639 -0.3798
  242BOLB   C2A 5790  20.316  10.567  23.393  0.0320 -0.4085 -0.2740
  242BOLB   C3A 5791  20.408  10.340  23.663 -0.2014  0.0480 -0.1809
  242BOLB   C4A 5792  20.773  10.084  23.842 -0.0279 -0.0758 -0.4427
  242BOLB   C1B 5793  19.455  11.109  23.578 -0.2504  0.1438  0.0057
  242BOLB   C2B 5794  19.822  10.957  23.819  0.0974 -0.3283 -0.1892
  242BOLB   C3B 5795  20.054  10.540  23.854 -0.2963 -0.1636  0.1122
  242BOLB   C4B 5796  20.078  10.210  24.158  0.3839 -0.0259  0.0191
  242BOLB   NC2 5797  20.583  10.094  25.924  0.0211 -0.0694 -0.5183
  242BOLB   PO2 5798  20.688  10.293  26.215 -0.2221 -0.0168  0.2658
  242BOLB   GL3 5799  20.871  10.590  25.965  0.3597  0.0719  0.0445
  242BOLB   GL4 5800  21.198  10.660  25.799 -0.1448  0.1402 -0.0488
  242BOLB   C1C 5801  20.824  10.558  25.457 -0.1342  0.0567 -0.1062
  242BOLB   C2C 5802  20.882  10.217  25.038  0.2120 -0.1606 -0.4518
  242BOLB   C3C 5803  20.939  10.235  24.625  0.1882 -0.1470 -0.2787
  242BOLB   C4C 5804  20.970  10.116  24.165  0.0980  0.4196  0.0609
  242BOLB   C1D 5805  20.974  11.057  25.639 -0.0756  0.0579  0.1670
  242BOLB   C2D 5806  20.903  11.399  25.277 -0.1243 -0.0768  0.0354
  242BOLB   C3D 5807  20.751  11.843  25.254  0.1341  0.1307  0.1490
  242BOLB   C4D 5808  20.500  12.019  25.595 -0.2323  0.2360  0.2946
  243BOLB   NC1 5809  14.801   9.096  22.637  0.3958  0.2141  0.0636
  243BOLB   PO1 5810  14.675   8.790  22.302  0.2401  0.0547 -0.1672
  243BOLB   GL1 5811  14.831   8.581  22.753  0.0896  0.0086  0.1088
  243BOLB   GL2 5812  15.105   8.776  22.934 -0.1789  0.1769 -0.1123
  243BOLB   C1A 5813  15.017   8.355  23.128 -0.1531  0.0683 -0.0250
  243BOLB   C2A 5814  15.214   8.348  23.521  0.2933  0.2686  0.3405
  243BOLB   C3A 5815  15.308   8.265  24.044  0.4746 -0.1412  0.1555
  243BOLB   C4A 5816  15.551   8.299  24.363  0.2307 -0.1338  0.0293
  243BOLB   C1B 5817  15.472   8.568  23.181 -0.0463 -0.3674  0.3916
  243BOLB   C2B 5818  15.777   8.386  23.515 -0.2237 -0.0615  0.0683
  243BOLB   C3B 5819  16.181   8.244  23.405  0.0443 -0.0735 -0.0271
  243BOLB   C4B 5820  16.549   8.147  23.105  0.3365  0.0348 -0.1483
  243BOLB   NC2 5821  16.645   7.809  26.629 -0.1492 -0.1188 -0.3387
  243BOLB   PO2 5822  16.790   7.488  26.458 -0.2405  0.0791 -0.2027
  243BOLB   GL3 5823  16.515   7.643  26.180 -0.1384  0.0025  0.1737
  243BOLB   GL4 5824  16.235   7.535  26.082 -0.1555  0.0492  0.0859
  243BOLB   C1C 5825  16.528   7.699  25.689 -0.3022 -0.0088 -0.1941
  243BOLB   C2C 5826  16.219   7.724  25.304 -0.2919  0.1133  0.0854
  243BOLB   C3C 5827  15.988   7.863  25.046 -0.3121  0.3868 -0.4927
  243BOLB   C4C 5828  15.845   8.086  24.622  0.3252 -0.2094  0.2853
  243BOLB   C1D 5829  15.942   7.528  25.695  0.2042  0.2486  0.1689
  243BOLB   C2D 5830  15.684   7.729  25.436  0.1777 -0.1521 -0.0141
  243BOLB   C3D 5831  15.412   7.905  25.033 -0.0496  0.0985 -0.4011
  243BOLB   C4D 5832  15.176   8.033  24.573  0.0127 -0.0961  0.1225
  244BOLB   NC1 5833  12.527   9.924  22.880 -0.1794 -0.7054  0.2149
  244BOLB   PO1 5834  12.320   9.917  23.258 -0.2960  0.0319 -0.1241
  244BOLB   GL1 5835  11.985  10.040  23.533 -0.0051  0.2899  0.3295
  244BOLB   GL2 5836  11.845   9.661  23.619  0.2329  0.0412 -0.0966
  244BOLB   C1A 5837  11.791  10.046  23.999 -0.4213 -0.5755  0.1608
  244BOLB   C2A 5838  11.624  10.439  24.329 -0.1710  0.1327  0.1420
  244BOLB   C3A 5839  11.386  10.434  24.676 -0.0308 -0.0110 -0.2451
  244BOLB   C4A 5840  11.205  10.253  25.002 -0.0564  0.1916  0.1815
  244BOLB   C1B 5841  12.178   9.771  23.980  0.4387  0.0340  0.1033
  244BOLB   C2B 5842  12.426   9.835  24.334  0.2160 -0.2045 -0.0466
  244BOLB   C3B 5843  12.777   9.636  24.557  0.2211  0.3015  0.1037
  244BOLB   C4B 5844  13.071   9.538  24.870 -0.0551  0.0162  0.4394
  244BOLB   NC2 5845  10.886   9.573  27.263  0.0884  0.0669  0.2783
  244BOLB   PO2 5846  10.940   9.199  26.948  0.4075  0.1866  0.0279
  244BOLB   GL3 5847  10.865   9.456  26.612 -0.2767 -0.0325 -0.1025
  244BOLB   GL4 5848  10.880   9.816  26.849 -0.0766 -0.1001 -0.0945
  244BOLB   C1C 5849  10.798   9.944  26.359 -0.0290  0.0556 -0.3470
  244BOLB   C2C 5850  10.849  10.167  26.022  0.3106  0.0528 -0.3335
  244BOLB   C3C 5851  10.946  10.301  25.598  0.1137 -0.3408 -0.0772
  244BOLB   C4C 5852  11.044  10.094  25.301 -0.1591 -0.5258  0.0170
  244BOLB   C1D 5853  10.760  10.265  26.742 -0.3498  0.0002  0.2107
  244BOLB   C2D 5854  10.954  10.668  26.749  0.0162  0.0227  0.2361
  244BOLB   C3D 5855  11.034  11.095  26.743  0.3582 -0.0253 -0.1000
  244BOLB   C4D 5856  11.189  11.527  26.607 -0.2652 -0.4526 -0.1922
  245BOLB   NC1 5857  16.070  22.422  23.272  0.2716 -0.2804 -0.0289
  245BOLB   PO1 5858  16.071  22.778  23.589  0.1833  0.1724  0.1216
  245BOLB   GL1 5859  16.281  22.862  23.996 -0.3196 -0.0211 -0.0626
  245BOLB   GL2 5860  16.403  22.582  24.053 -0.1973  0.0631 -0.3729
  245BOLB   C1A 5861  16.567  22.881  24.418  0.0187  0.3014  0.1672
  245BOLB   C2A 5862  16.720  23.187  24.816 -0.1883  0.0507 -0.0137
  245BOLB   C3A 5863  16.706  23.389  25.158  0.3306  0.0797 -0.1516
  245BOLB   C4A 5864  16.768  23.181  25.545 -0.0343  0.0778  0.1824
  245BOLB   C1B 5865  16.261  22.276  24.301  0.2392 -0.0147  0.0475
  245BOLB   C2B 5866  16.181  22.376  24.697  0.0601  0.1568 -0.1005
  245BOLB   C3B 5867  16.150  22.483  25.131  0.0912 -0.1303 -0.1221
  245BOLB   C4B 5868  16.188  22.304  25.578 -0.2468  0.0667 -0.2792
  245BOLB   NC2 5869  17.118  23.905  27.590  0.0898 -0.1606  0.1336
  245BOLB   PO2 5870  17.626  23.773  27.663  0.1110  0.3115 -0.1954
  245BOLB   GL3 5871  17.398  23.379  27.447 -0.3135 -0.0798  0.2008
  245BOLB   GL4 5872  17.039  23.509  27.310  0.0281  0.0763 -0.3187
  245BOLB   C1C 5873  17.268  22.945  27.321  0.0822 -0.0778  0.0156
  245BOLB   C2C 5874  17.093  22.892  26.816 -0.2525 -0.2414 -0.3578
  245BOLB   C3C 5875  16.945  22.960  26.501 -0.0135  0.0789  0.1930
  245BOLB   C4C 5876  16.958  23.184  26.068 -0.0334  0.0077 -0.1344
  245BOLB   C1D 5877  17.141  23.461  26.837 -0.2487 -0.1293 -0.0611
  245BOLB   C2D 5878  16.915  23.528  26.436 -0.2829 -0.0103 -0.0801
  245BOLB   C3D 5879  16.789  23.694  26.086 -0.0266  0.2830 -0.1667
  245BOLB   C4D 5880  16.390  23.718  25.844 -0.0115  0.0586 -0.1290
  246BOLB   NC1 5881  18.477  12.066  22.818  0.1192  0.2074  0.0130
  246BOLB   PO1 5882  18.897  11.807  23.023 -0.0422  0.2567  0.0399
  246BOLB   GL1 5883  19.060  11.786  23.375 -0.2275  0.0297 -0.2223
  246BOLB   GL2 5884  19.209  11.525  23.529  0.1585  0.1264 -0.2359
  246BOLB   C1A 5885  19.276  11.986  23.689 -0.1749 -0.5074  0.1336
  246BOLB   C2A 5886  19.579  11.843  23.812 -0.1918  0.1511 -0.2063
  246BOLB   C3A 5887  19.746  11.642  24.173  0.2438  0.0971 -0.0306
  246BOLB   C4A 5888  19.968  11.353  24.447  0.0096 -0.3776  0.1131
  246BOLB   C1B 5889  19.333  11.445  24.018  0.3669 -0.0214 -0.2137
  246BOLB   C2B 5890  19.530  11.199  24.303 -0.1081  0.0161 -0.3598
  246BOLB   C3B 5891  19.899  10.877  24.424 -0.3108  0.0115  0.3396
  246BOLB   C4B 5892  20.184  10.581  24.503 -0.0127 -0.0814  0.0126
  246BOLB   NC2 5893  21.894  10.214  25.656  0.1516  0.0291 -0.2818
  246BOLB   PO2 5894  21.645  10.548  25.865 -0.0116  0.0183  0.1594
  246BOLB   GL3 5895  21.558  10.682  25.440 -0.0825  0.0982  0.1092
  246BOLB   GL4 5896  21.427  10.326  25.325 -0.1146  0.3386 -0.1853
  246BOLB   C1C 5897  21.277  10.882  25.262  0.0841  0.3297 -0.2331
  246BOLB   C2C 5898  21.004  10.995  24.935 -0.0899 -0.1597 -0.1148
  246BOLB   C3C 5899  20.656  11.415  24.818 -0.0501 -0.1435  0.1131
  246BOLB   C4C 5900  20.169  11.517  24.758 -0.0448  0.1125  0.1933
  246BOLB   C1D 5901  21.281  10.512  24.915  0.1425  0.1688 -0.2032
  246BOLB   C2D 5902  21.489  10.835  24.733  0.0743  0.1693 -0.3486
  246BOLB   C3D 5903  21.364  11.033  24.391 -0.0834  0.2357  0.2806
  246BOLB   C4D 5904  21.275  11.325  24.202  0.0429  0.0018  0.0547
  247BOLB   NC1 5905  15.663  15.406  24.150 -0.1944 -0.0385  0.1623
  247BOLB   PO1 5906  15.913  15.654  24.378  0.2780  0.1664 -0.2806
  247BOLB   GL1 5907  16.054  15.434  24.774 -0.2039  0.3859  0.2194
  247BOLB   GL2 5908  16.251  15.164  24.800  0.0288  0.3891  0.1897
  247BOLB   C1A 5909  15.884  15.363  25.189  0.0568  0.1977  0.1292
  247BOLB   C2A 5910  15.717  15.148  25.516  0.1329  0.0047 -0.4138
  247BOLB   C3A 5911  15.599  15.237  26.048 -0.2072  0.2348  0.4644
  247BOLB   C4A 5912  15.695  15.248  26.475  0.1383 -0.0468  0.1556
  247BOLB   C1B 5913  16.192  15.017  25.265 -0.1924  0.1825 -0.1013
  247BOLB   C2B 5914  16.104  14.708  25.647  0.1079 -0.3995  0.1339
  247BOLB   C3B 5915  16.060  14.281  25.916  0.0261  0.2459 -0.0122
  247BOLB   C4B 5916  16.170  13.912  26.016 -0.1482  0.2651 -0.1771
  247BOLB   NC2 5917  16.246  15.048  28.427  0.1635  0.1437 -0.1027
  247BOLB   PO2 5918  16.595  14.707  28.411  0.1159  0.3265 -0.4087
  247BOLB   GL3 5919  16.342  14.472  28.117 -0.0714  0.0590  0.2607
  247BOLB   GL4 5920  16.134  14.254  28.072  0.1418  0.3633  0.1616
  247BOLB   C1C 5921  16.226  14.621  27.667  0.1852 -0.1444  0.1544
  247BOLB   C2C 5922  16.096  14.921  27.333 -0.1882  0.1929 -0.4705
  247BOLB   C3C 5923  15.929  15.353  27.222 -0.0445 -0.0886 -0.1108
  247BOLB   C4C 5924  15.634  15.349  26.865 -0.0201  0.0832  0.2450
  247BOLB   C1D 5925  15.749  14.442  27.759 -0.0344 -0.0714  0.2291
  247BOLB   C2D 5926  15.675  14.473  27.384  0.0295  0.0428 -0.1769
  247BOLB   C3D 5927  15.751  14.493  26.972  0.1550  0.0663  0.1760
  247BOLB   C4D 5928  15.926  14.873  26.899  0.3850  0.1766 -0.1456
  248BOLB   NC1 5929  15.691  19.544  24.466  0.1611 -0.2068  0.2314
  248BOLB   PO1 5930  15.359  19.339  24.395 -0.2604 -0.1079  0.0918
  248BOLB   GL1 5931  15.188  19.376  24.780 -0.0296  0.3017  0.0737
  248BOLB   GL2 5932  15.319  19.058  24.873 -0.3612  0.2475  0.1175
  248BOLB   C1A 5933  15.385  19.489  25.120 -0.0051 -0.2665  0.1423
  248BOLB   C2A 5934  15.480  19.301  25.473  0.1288 -0.1006 -0.2430
  248BOLB   C3A 5935  15.577  19.315  25.923  0.0433 -0.0272  0.0096
  248BOLB   C4A 5936  15.708  19.401  26.416 -0.0483  0.4150 -0.1296
  248BOLB   C1B 5937  15.585  18.915  25.219  0.0406  0.3541 -0.2441
  248BOLB   C2B 5938  15.742  18.926  25.636  0.0335 -0.0450  0.6343
  248BOLB   C3B 5939  15.668  18.840  26.053 -0.1724 -0.0252 -0.2540
  248BOLB   C4B 5940  15.816  18.655  26.544 -0.1040 -0.0543  0.1155
  248BOLB   NC2 5941  14.531  19.897  29.125  0.0095 -0.4071 -0.1359
  248BOLB   PO2 5942  14.547  19.766  28.639 -0.1251 -0.1106 -0.1424
  248BOLB   GL3 5943  14.700  19.599  28.282 -0.3428 -0.1289 -0.0999
  248BOLB   GL4 5944  14.458  19.654  27.998 -0.1885  0.0909  0.0432
  248BOLB   C1C 5945  14.960  19.479  27.946  0.4032  0.1584  0.4207
  248BOLB   C2C 5946  14.953  19.417  27.454 -0.0881 -0.0515  0.0944
  248BOLB   C3C 5947  15.284  19.271  27.172  0.0005 -0.1803 -0.1676
  248BOLB   C4C 5948  15.656  19.263  26.947  0.0678  0.2227  0.1060
  248BOLB   C1D 5949  14.373  19.786  27.598  0.0820  0.3688  0.2228
  248BOLB   C2D 5950  14.129  19.929  27.202 -0.5141  0.1391  0.1310
  248BOLB   C3D 5951  14.337  20.079  26.902 -0.0835  0.0960  0.0964
  248BOLB   C4D 5952  14.767  20.257  26.865 -0.0374  0.2506 -0.1111
  249BOLB   NC1 5953  12.707  23.747  23.118  0.2808 -0.0704  0.2143
  249BOLB   PO1 5954  12.276  23.951  23.309  0.4280  0.1167 -0.1402
  249BOLB   GL1 5955  11.843  23.982  23.514 -0.0083 -0.0704  0.4057
  249BOLB   GL2 5956  11.565  24.153  23.405 -0.1801 -0.0641  0.1791
  249BOLB   C1A 5957  11.610  24.209  23.902  0.2628 -0.0034 -0.6183
  249BOLB   C2A 5958  11.318  24.473  24.220  0.2829  0.0248 -0.0603
  249BOLB   C3A 5959  10.975  24.487  24.326  0.2577 -0.0135 -0.2905
  249BOLB   C4A 5960  10.654  24.759  24.504 -0.0077 -0.0496  0.0208
  249BOLB   C1B 5961  11.253  24.486  23.431  0.2503 -0.1196  0.2041
  249BOLB   C2B 5962  10.937  24.705  23.159  0.0435 -0.2496  0.4325
  249BOLB   C3B 5963  10.574  24.878  22.988  0.2539 -0.0474  0.2762
  249BOLB   C4B 5964  10.442  24.931  22.570 -0.1864 -0.0192  0.0376
  249BOLB   NC2 5965   9.086  26.477  24.661 -0.3236  0.0627 -0.0016
  249BOLB   PO2 5966   9.196  26.653  25.055 -0.2271 -0.2120 -0.2812
  249BOLB   GL3 5967   9.359  26.237  25.005 -0.0679 -0.0436 -0.0379
  249BOLB   GL4 5968   9.450  26.141  24.792  0.1006 -0.0911  0.1013
  249BOLB   C1C 5969   9.576  25.845  25.137  0.2299 -0.1050 -0.0093
  249BOLB   C2C 5970   9.792  25.518  24.956  0.1945 -0.0743  0.0256
  249BOLB   C3C 5971   9.972  25.129  24.750  0.1053 -0.1939 -0.0986
  249BOLB   C4C 5972  10.321  24.998  24.756  0.2204  0.1867 -0.0039
  249BOLB   C1D 5973   9.566  25.751  24.584 -0.1378 -0.0257 -0.1366
  249BOLB   C2D 5974  10.004  25.558  24.370  0.0194 -0.0092  0.2501
  249BOLB   C3D 5975  10.352  25.570  24.207 -0.1384 -0.0225 -0.2317
  249BOLB   C4D 5976  10.780  25.753  24.306 -0.1549  0.0957  0.0598
  250BOLB   NC1 5977  14.001  19.258  24.166 -0.0245  0.0621 -0.1474
  250BOLB   PO1 5978  13.594  19.317  24.170  0.3129  0.3872  0.2374
  250BOLB   GL1 5979  13.667  19.410  24.575 -0.0597 -0.2486  0.1475
  250BOLB   GL2 5980  13.446  19.241  24.697 -0.1331  0.0995  0.0899
  250BOLB   C1A 5981  13.622  19.549  25.052  0.1362 -0.5695  0.2670
  250BOLB   C2A 5982  13.617  19.513  25.523 -0.0540  0.1384  0.1074
  250BOLB   C3A 5983  13.498  19.285  25.902 -0.1209 -0.1824 -0.3519
  250BOLB   C4A 5984  13.551  19.352  26.353  0.2679 -0.0522 -0.0574
  250BOLB   C1B 5985  13.313  19.138  25.146 -0.3104 -0.0957 -0.1276
  250BOLB   C2B 5986  13.136  19.201  25.549 -0.0284 -0.0373 -0.0240
  250BOLB   C3B 5987  13.043  19.390  25.964 -0.0880  0.1079 -0.3981
  250BOLB   C4B 5988  13.176  19.686  26.151  0.1858 -0.1067  0.1239
  250BOLB   NC2 5989  12.649  20.817  28.409  0.0152 -0.1643  0.2219
  250BOLB   PO2 5990  12.274  20.434  28.339  0.1478 -0.0809 -0.0309
  250BOLB   GL3 5991  12.532  20.551  27.948 -0.0205  0.1464 -0.0255
  250BOLB   GL4 5992  12.390  20.879  27.938  0.2321  0.1487  0.4229
  250BOLB   C1C 5993  12.814  20.307  27.747  0.1835  0.2037 -0.5214
  250BOLB   C2C 5994  13.047  20.069  27.411 -0.0045 -0.1696  0.0781
  250BOLB   C3C 5995  13.317  19.984  26.983  0.1251  0.0054  0.0760
  250BOLB   C4C 5996  13.513  19.690  26.562  0.2227  0.0308 -0.0237
  250BOLB   C1D 5997  12.484  20.771  27.455 -0.0106  0.0662  0.2467
  250BOLB   C2D 5998  12.770  20.527  27.260  0.3234 -0.1231  0.0290
  250BOLB   C3D 5999  12.815  20.089  26.970  0.1949 -0.1829 -0.2471
  250BOLB   C4D 6000  12.968  19.807  26.668 -0.0537 -0.3141 -0.0416
  251BOLB   NC1 6001  18.681  13.798  23.746  0.2291 -0.1063 -0.0933
  251BOLB   PO1 6002  18.717  14.207  23.726  0.0159  0.2052 -0.0662
  251BOLB   GL1 6003  18.653  14.138  24.127 -0.1960 -0.0336 -0.3660
  251BOLB   GL2 6004  19.041  14.029  24.192 -0.0358  0.0667 -0.1303
  251BOLB   C1A 6005  18.760  14.289  24.562  0.0408  0.1458 -0.0517
  251BOLB   C2A 6006  18.817  14.404  25.002 -0.1297 -0.1045  0.0297
  251BOLB   C3A 6007  19.103  14.688  25.408 -0.0129  0.2001  0.1781
  251BOLB   C4A 6008  19.261  14.609  25.768 -0.1673 -0.0459  0.0385
  251BOLB   C1B 6009  19.327  13.977  24.546 -0.0999 -0.4465  0.2536
  251BOLB   C2B 6010  19.377  13.808  24.883 -0.0225  0.3356  0.1407
  251BOLB   C3B 6011  19.283  13.648  25.261  0.5695 -0.0157 -0.1767
  251BOLB   C4B 6012  19.446  13.672  25.651 -0.1873  0.1087  0.0551
  251BOLB   NC2 6013  18.597  13.563  28.070  0.2207 -0.0030 -0.1806
  251BOLB   PO2 6014  19.053  13.502  28.076 -0.1574 -0.0194 -0.1416
  251BOLB   GL3 6015  18.832  13.584  27.621  0.1278  0.1096  0.1700
  251BOLB   GL4 6016  18.689  13.354  27.612 -0.0522  0.4114 -0.2403
  251BOLB   C1C 6017  18.940  13.785  27.238 -0.2023 -0.0824 -0.2134
  251BOLB   C2C 6018  18.931  13.850  26.804 -0.0520 -0.1834 -0.1335
  251BOLB   C3C 6019  18.948  14.156  26.413 -0.1254  0.0742  0.1666
  251BOLB   C4C 6020  19.180  14.481  26.126  0.1014 -0.3706 -0.0499
  251BOLB   C1D 6021  18.482  13.372  27.288 -0.0296 -0.0539 -0.3408
  251BOLB   C2D 6022  18.075  13.405  27.036 -0.2355 -0.0219 -0.3241
  251BOLB   C3D 6023  17.739  13.233  26.902  0.0581 -0.0392 -0.1098
  251BOLB   C4D 6024  17.742  13.084  26.561  0.1800 -0.0549 -0.2312
  252BOLB   NC1 6025  13.528  10.108  23.385 -0.1310 -0.1102 -0.0830
  252BOLB   PO1 6026  13.480   9.855  23.011 -0.2060 -0.0453  0.0014
  252BOLB   GL1 6027  13.610   9.572  23.293 -0.1588 -0.1171  0.2222
  252BOLB   GL2 6028  13.553   9.232  23.224  0.0100 -0.0949 -0.2104
  252BOLB   C1A 6029  13.854   9.460  23.612 -0.0188 -0.0892 -0.0934
  252BOLB   C2A 6030  13.954   9.077  23.882  0.0060 -0.0742  0.1570
  252BOLB   C3A 6031  14.019   8.818  24.251  0.2747 -0.2700 -0.3332
  252BOLB   C4A 6032  14.094   8.608  24.609  0.0948 -0.2200 -0.1029
  252BOLB   C1B 6033  13.536   9.049  23.554 -0.0004 -0.0154  0.2988
  252BOLB   C2B 6034  13.827   8.595  23.715  0.0333 -0.2249  0.0900
  252BOLB   C3B 6035  14.038   8.355  24.077  0.3448  0.3284 -0.1083
  252BOLB   C4B 6036  14.284   8.135  24.469 -0.0016 -0.0220 -0.3374
  252BOLB   NC2 6037  15.216   8.009  26.770 -0.1196 -0.1326 -0.0226
  252BOLB   PO2 6038  15.269   7.669  26.547 -0.0346 -0.0706  0.0351
  252BOLB   GL3 6039  15.040   7.693  26.131 -0.1004 -0.1474 -0.1233
  252BOLB   GL4 6040  14.894   7.413  25.888 -0.0785 -0.0741 -0.1477
  252BOLB   C1C 6041  14.895   7.977  25.764  0.1920  0.2697  0.0107
  252BOLB   C2C 6042  14.579   8.152  25.645  0.2891  0.1187  0.1070
  252BOLB   C3C 6043  14.364   8.471  25.429 -0.1006 -0.3232  0.1074
  252BOLB   C4C 6044  14.138   8.478  25.000  0.4679 -0.1868 -0.1921
  252BOLB   C1D 6045  14.785   7.532  25.493 -0.2639  0.0392 -0.0109
  252BOLB   C2D 6046  14.868   7.884  25.263 -0.3702  0.0141 -0.4497
  252BOLB   C3D 6047  14.956   8.250  25.121 -0.2377 -0.0260 -0.1470
  252BOLB   C4D 6048  15.267   8.651  25.240  0.1673  0.0684  0.1666
  253BOLB   NC1 6049  16.843  18.414  23.702 -0.2688  0.1791  0.0587
  253BOLB   PO1 6050  17.090  18.164  23.901 -0.2219  0.5905 -0.1271
  253BOLB   GL1 6051  17.143  18.144  24.444 -0.3851 -0.1891 -0.0077
  253BOLB   GL2 6052  17.385  18.168  24.646 -0.4513  0.0865  0.0008
  253BOLB   C1A 6053  17.034  18.007  24.868  0.4491 -0.0967 -0.2788
  253BOLB   C2A 6054  16.922  18.149  25.256  0.4113  0.0351  0.1974
  253BOLB   C3A 6055  17.098  18.115  25.749 -0.1884 -0.0668 -0.4792
  253BOLB   C4A 6056  17.417  18.110  26.176 -0.1196  0.0546  0.1334
  253BOLB   C1B 6057  17.440  18.146  25.126 -0.0006 -0.2695  0.1973
  253BOLB   C2B 6058  17.643  18.037  25.637  0.0301  0.2416 -0.1084
  253BOLB   C3B 6059  17.893  17.978  25.948 -0.0019 -0.1321  0.0750
  253BOLB   C4B 6060  18.029  17.870  26.400 -0.3869  0.4420 -0.0448
  253BOLB   NC2 6061  18.649  18.135  28.700 -0.1073 -0.2407 -0.0198
  253BOLB   PO2 6062  18.619  18.333  28.331 -0.0268  0.0505 -0.3445
  253BOLB   GL3 6063  18.396  18.169  27.980 -0.0282 -0.0860 -0.5890
  253BOLB   GL4 6064  18.334  17.767  27.999  0.1635  0.0258  0.1903
  253BOLB   C1C 6065  18.033  18.249  27.715  0.1086  0.3075 -0.1645
  253BOLB   C2C 6066  18.113  18.326  27.182  0.1312  0.0646 -0.5159
  253BOLB   C3C 6067  17.998  18.345  26.770  0.1187 -0.0560  0.1889
  253BOLB   C4C 6068  17.650  18.216  26.464 -0.1488 -0.1315  0.0213
  253BOLB   C1D 6069  18.259  17.842  27.596 -0.2347 -0.1151  0.3363
  253BOLB   C2D 6070  18.158  17.812  27.132 -0.0600  0.2301 -0.3485
  253BOLB   C3D 6071  17.868  17.881  26.819 -0.0018  0.0218 -0.1965
  253BOLB   C4D 6072  17.491  17.799  26.615 -0.0153 -0.0889 -0.4359
  254BOLB   NC1 6073   9.499  22.491  23.731  0.0555 -0.2327  0.3001
  254BOLB   PO1 6074   9.165  22.775  23.719 -0.0483  0.0099 -0.0206
  254BOLB   GL1 6075   9.141  23.156  23.938 -0.0992  0.1052  0.2512
  254BOLB   GL2 6076   9.455  23.334  23.967 -0.1321 -0.1395  0.2918
  254BOLB   C1A 6077   8.944  23.432  24.094  0.0123  0.0985  0.1094
  254BOLB   C2A 6078   9.288  23.710  24.291 -0.5526 -0.2352 -0.2430
  254BOLB   C3A 6079   9.534  23.956  24.630 -0.1362  0.1498  0.2269
  254BOLB   C4A 6080   9.432  24.097  25.045  0.0500 -0.0662 -0.0355
  254BOLB   C1B 6081   9.465  23.215  24.380  0.2240  0.0936 -0.1399
  254BOLB   C2B 6082   9.776  23.126  24.749 -0.0588  0.0182 -0.3694
  254BOLB   C3B 6083   9.892  23.066  25.125  0.0479  0.3013 -0.0689
  254BOLB   C4B 6084   9.917  22.983  25.526 -0.2505 -0.1486  0.3565
  254BOLB   NC2 6085   9.376  24.547  27.449 -0.0568  0.0952  0.3859
  254BOLB   PO2 6086   9.728  24.744  27.230 -0.0488 -0.1056 -0.1822
  254BOLB   GL3 6087   9.511  24.728  26.829 -0.1889  0.1976  0.2646
  254BOLB   GL4 6088   9.265  24.971  26.715 -0.2033  0.0863 -0.2916
  254BOLB   C1C 6089   9.260  24.447  26.502 -0.0198  0.0029 -0.0585
  254BOLB   C2C 6090   9.219  24.361  26.138 -0.1618  0.1979  0.1505
  254BOLB   C3C 6091   9.467  24.277  25.708 -0.3578 -0.4686  0.1439
  254BOLB   C4C 6092   9.351  23.994  25.420  0.0795 -0.0348  0.1283
  254BOLB   C1D 6093   9.193  25.020  26.249  0.1979 -0.1828  0.1444
  254BOLB   C2D 6094   9.186  24.824  25.929 -0.4633  0.0492  0.1070
  254BOLB   C3D 6095   8.947  24.684  25.584  0.1938  0.1355  0.2160
  254BOLB   C4D 6096   8.599  24.627  25.740 -0.0389  0.1175  0.1294
  255BOLB   NC1 6097  18.903  20.054  23.096  0.3874  0.1250  0.2001
  255BOLB   PO1 6098  19.048  19.886  23.513  0.3187 -0.0529 -0.2831
  255BOLB   GL1 6099  18.987  20.124  23.943  0.2467 -0.1082  0.3914
  255BOLB   GL2 6100  19.130  20.417  23.999  0.0813  0.2946  0.2164
  255BOLB   C1A 6101  18.875  20.230  24.361  0.0756 -0.2507 -0.0717
  255BOLB   C2A 6102  18.878  20.309  24.813  0.2247  0.2716 -0.0461
  255BOLB   C3A 6103  19.053  20.552  25.187 -0.1766  0.1996  0.1035
  255BOLB   C4A 6104  19.376  20.826  25.312 -0.1337 -0.1444 -0.0974
  255BOLB   C1B 6105  19.266  20.550  24.443  0.1768  0.0238  0.0678
  255BOLB   C2B 6106  19.473  20.553  24.807  0.2962 -0.0064  0.0388
  255BOLB   C3B 6107  19.806  20.674  25.082 -0.2988 -0.0389  0.0909
  255BOLB   C4B 6108  20.126  20.719  25.459 -0.0610 -0.0594  0.0870
  255BOLB   NC2 6109  20.960  21.353  27.586 -0.0146  0.0751  0.0696
  255BOLB   PO2 6110  21.006  21.365  27.114 -0.4325 -0.2162 -0.3461
  255BOLB   GL3 6111  20.578  21.192  26.885  0.1639  0.0192 -0.2363
  255BOLB   GL4 6112  20.383  21.483  26.710 -0.2007 -0.0379  0.3038
  255BOLB   C1C 6113  20.543  21.108  26.437 -0.3977 -0.2950  0.3604
  255BOLB   C2C 6114  20.167  21.074  26.185  0.2578 -0.1254  0.0022
  255BOLB   C3C 6115  20.052  21.003  25.857 -0.1407 -0.0326  0.4525
  255BOLB   C4C 6116  19.689  20.999  25.563 -0.0055  0.2319 -0.1074
  255BOLB   C1D 6117  20.173  20.989  26.802 -0.0708 -0.0257 -0.1077
  255BOLB   C2D 6118  19.825  20.757  26.576 -0.1148 -0.0335 -0.1974
  255BOLB   C3D 6119  19.482  20.650  26.454 -0.2489 -0.1002 -0.3141
  255BOLB   C4D 6120  19.167  20.434  26.172  0.1497 -0.0984  0.1967
  256BOLB   NC1 6121  12.222  10.456  23.160  0.1676  0.3048  0.0495
  256BOLB   PO1 6122  12.651  10.320  23.287 -0.2823  0.0618 -0.3724
  256BOLB   GL1 6123  12.586  10.477  23.687  0.1658  0.3331 -0.2448
  256BOLB   GL2 6124  12.295  10.357  23.758  0.1093  0.2850 -0.2102
  256BOLB   C1A 6125  12.599  10.495  24.115  0.0327 -0.0256  0.0882
  256BOLB   C2A 6126  12.627  10.587  24.579  0.2965  0.0402  0.2001
  256BOLB   C3A 6127  12.636  10.382  24.987 -0.2155  0.2865 -0.0429
  256BOLB   C4A 6128  12.571  10.233  25.286  0.0328  0.0518  0.2371
  256BOLB   C1B 6129  12.199  10.250  24.243 -0.2202  0.1305  0.0582
  256BOLB   C2B 6130  12.311  10.203  24.620  0.3617 -0.2491 -0.0839
  256BOLB   C3B 6131  12.196  10.060  25.030 -0.3273  0.0856  0.6010
  256BOLB   C4B 6132  12.105  10.211  25.460 -0.2034  0.1025 -0.2798
  256BOLB   NC2 6133  12.009  10.048  27.908 -0.0233 -0.2714 -0.2401
  256BOLB   PO2 6134  11.922  10.447  27.771 -0.2662  0.0371  0.3939
  256BOLB   GL3 6135  11.866  10.453  27.288  0.4406 -0.0291 -0.0124
  256BOLB   GL4 6136  11.821  10.763  27.188  0.1834  0.0570 -0.0723
  256BOLB   C1C 6137  12.116  10.429  26.846 -0.0173  0.1098 -0.0959
  256BOLB   C2C 6138  12.119  10.593  26.416 -0.2810  0.3404  0.1612
  256BOLB   C3C 6139  12.360  10.544  26.046  0.2312 -0.1055  0.0098
  256BOLB   C4C 6140  12.661  10.311  25.718  0.3844 -0.1598 -0.0208
  256BOLB   C1D 6141  11.943  10.992  26.793  0.0866 -0.0907  0.3568
  256BOLB   C2D 6142  12.119  11.122  26.341 -0.2312  0.0078 -0.3448
  256BOLB   C3D 6143  12.105  11.025  25.903  0.1478 -0.3034 -0.0194
  256BOLB   C4D 6144  11.935  11.050  25.526 -0.1221  0.0855  0.1803
  257BOLB   NC1 6145  19.271  11.428  23.005  0.2916 -0.3096  0.0508
  257BOLB   PO1 6146  19.147  10.972  22.812  0.1598  0.0358  0.1797
  257BOLB   GL1 6147  18.966  10.616  23.059  0.1158 -0.1289 -0.0527
  257BOLB   GL2 6148  19.103  10.720  23.283  0.3004  0.2294  0.2760
  257BOLB   C1A 6149  18.892  10.178  23.341 -0.1288 -0.0715  0.0502
  257BOLB   C2A 6150  18.806  10.101  23.799 -0.0432  0.2612 -0.0251
  257BOLB   C3A 6151  18.600  10.177  24.274 -0.0826 -0.1228 -0.0746
  257BOLB   C4A 6152  18.555  10.195  24.732 -0.2317  0.3348  0.2279
  257BOLB   C1B 6153  19.113  10.490  23.670  0.1174 -0.2664 -0.0275
  257BOLB   C2B 6154  19.217  10.307  24.120 -0.0589  0.1048  0.0707
  257BOLB   C3B 6155  19.195  10.155  24.437  0.0230 -0.0302  0.1598
  257BOLB   C4B 6156  19.092  10.130  24.896  0.0630  0.0540 -0.2482
  257BOLB   NC2 6157  19.280   8.985  26.132 -0.0719  0.3434  0.0396
  257BOLB   PO2 6158  18.937   8.505  26.026  0.0332  0.0492  0.1881
  257BOLB   GL3 6159  18.903   8.924  25.687  0.2813 -0.4399 -0.0447
  257BOLB   GL4 6160  19.220   9.074  25.592  0.1158 -0.0234  0.1645
  257BOLB   C1C 6161  18.810   9.382  25.632 -0.5247  0.0979  0.2657
  257BOLB   C2C 6162  18.829   9.770  25.623  0.1269 -0.2789 -0.0109
  257BOLB   C3C 6163  18.573  10.145  25.439 -0.0615 -0.2301  0.0214
  257BOLB   C4C 6164  18.599  10.403  25.069  0.0379 -0.1102  0.1258
  257BOLB   C1D 6165  18.940   9.128  25.255  0.2547 -0.2502  0.0877
  257BOLB   C2D 6166  18.803   9.257  24.933 -0.0488 -0.4928  0.2394
  257BOLB   C3D 6167  18.880   9.342  24.581 -0.2607  0.0055  0.1241
  257BOLB   C4D 6168  19.095   9.291  24.250  0.1759  0.1532 -0.1568
  258BOLB   NC1 6169  22.876  16.029  20.792 -0.1118 -0.0967  0.0405
  258BOLB   PO1 6170  23.086  15.959  21.234  0.3607  0.0737  0.0640
  258BOLB   GL1 6171  23.417  16.040  21.432 -0.1003 -0.1496  0.1002
  258BOLB   GL2 6172  23.302  16.258  21.599  0.1887 -0.2357 -0.0739
  258BOLB   C1A 6173  23.727  16.118  21.734  0.0885  0.3545 -0.0829
  258BOLB   C2A 6174  23.970  16.026  22.011 -0.4183  0.0308  0.0491
  258BOLB   C3A 6175  23.893  16.191  22.537  0.0946 -0.0279 -0.2145
  258BOLB   C4A 6176  24.048  16.202  22.979  0.1643  0.3273  0.1444
  258BOLB   C1B 6177  23.413  16.384  22.009  0.3025  0.5881 -0.0901
  258BOLB   C2B 6178  23.430  16.255  22.412 -0.1495  0.1896  0.0285
  258BOLB   C3B 6179  23.459  16.143  22.795  0.0086  0.0503 -0.4263
  258BOLB   C4B 6180  23.682  15.947  23.135 -0.0969 -0.0486  0.1669
  258BOLB   NC2 6181  25.830  15.935  24.804 -0.1957 -0.0478 -0.2684
  258BOLB   PO2 6182  25.673  16.167  24.387  0.0624 -0.0017  0.3330
  258BOLB   GL3 6183  25.704  16.009  23.954  0.1397  0.0621  0.0165
  258BOLB   GL4 6184  25.737  16.129  23.706 -0.0310  0.0299 -0.3225
  258BOLB   C1C 6185  25.231  15.825  23.855  0.1598 -0.5579  0.3184
  258BOLB   C2C 6186  24.864  16.051  23.602  0.1014  0.1453  0.1148
  258BOLB   C3C 6187  24.744  16.155  23.240  0.0717 -0.4448  0.3332
  258BOLB   C4C 6188  24.386  16.032  23.077  0.0694 -0.1580 -0.0711
  258BOLB   C1D 6189  25.351  16.245  23.494  0.3890 -0.1087 -0.0767
  258BOLB   C2D 6190  25.186  16.305  23.020  0.2251  0.1615  0.3649
  258BOLB   C3D 6191  25.110  16.466  22.589  0.4230  0.0706 -0.4304
  258BOLB   C4D 6192  24.889  16.659  22.323 -0.0032 -0.2020  0.0564
  259BOLB   NC1 6193  11.152  23.258  23.526 -0.2424  0.0601  0.0265
  259BOLB   PO1 6194  11.644  23.486  23.516  0.1020 -0.1362 -0.0529
  259BOLB   GL1 6195  11.420  23.808  23.785 -0.1100  0.3228 -0.2140
  259BOLB   GL2 6196  11.167  23.778  23.619 -0.1521  0.1180  0.0495
  259BOLB   C1A 6197  11.373  23.810  24.128 -0.1494 -0.0705 -0.2278
  259BOLB   C2A 6198  11.593  24.038  24.419 -0.1193 -0.0161 -0.0583
  259BOLB   C3A 6199  11.840  24.205  24.811 -0.3704 -0.0682 -0.3439
  259BOLB   C4A 6200  11.867  24.387  25.233  0.0677 -0.0118 -0.0943
  259BOLB   C1B 6201  11.091  24.177  23.803  0.1654 -0.1361  0.1995
  259BOLB   C2B 6202  10.980  24.689  23.729  0.2365 -0.1548  0.1158
  259BOLB   C3B 6203  10.877  25.103  23.469  0.0938  0.1934 -0.4828
  259BOLB   C4B 6204  10.395  25.201  23.333  0.2294 -0.0401 -0.4297
  259BOLB   NC2 6205  12.337  24.764  27.516 -0.0777  0.1467 -0.0758
  259BOLB   PO2 6206  12.525  24.414  27.694 -0.1423  0.3445  0.3203
  259BOLB   GL3 6207  12.520  24.339  27.347  0.2497  0.0448 -0.0500
  259BOLB   GL4 6208  12.162  24.147  27.330 -0.1199 -0.0868  0.3955
  259BOLB   C1C 6209  12.297  24.463  26.939 -0.0762  0.0534 -0.0794
  259BOLB   C2C 6210  12.312  24.306  26.527  0.2480 -0.0547 -0.0328
  259BOLB   C3C 6211  12.097  24.355  26.158  0.1583 -0.1521  0.2008
  259BOLB   C4C 6212  11.910  24.283  25.738  0.0136  0.2379 -0.2570
  259BOLB   C1D 6213  12.148  23.968  26.919  0.1947 -0.1853 -0.0986
  259BOLB   C2D 6214  12.123  23.610  26.679 -0.0143 -0.2808  0.0261
  259BOLB   C3D 6215  11.843  23.399  26.369 -0.2125 -0.0709 -0.0492
  259BOLB   C4D 6216  11.407  23.368  26.228 -0.3573 -0.1640  0.1402
  260BOLB   NC1 6217  20.502  10.120  19.893 -0.0834 -0.0947  0.2146
  260BOLB   PO1 6218  20.674   9.884  20.342  0.1094 -0.1529  0.0559
  260BOLB   GL1 6219  20.704   9.541  20.593  0.2499 -0.3626 -0.3970
  260BOLB   GL2 6220  20.945   9.703  20.805  0.2040 -0.0402  0.1479
  260BOLB   C1A 6221  20.873   9.112  20.622  0.2017  0.0180  0.0997
  260BOLB   C2A 6222  21.228   8.896  20.522  0.0733  0.1109  0.1265
  260BOLB   C3A 6223  21.502   8.616  20.768 -0.0403 -0.4651 -0.4163
  260BOLB   C4A 6224  21.666   8.145  20.940  0.2972  0.0931 -0.1356
  260BOLB   C1B 6225  21.198   9.373  20.893  0.0077  0.2262 -0.1699
  260BOLB   C2B 6226  21.422   8.993  21.181 -0.0177  0.0504  0.0829
  260BOLB   C3B 6227  21.650   8.722  21.315  0.1887  0.2409 -0.0168
  260BOLB   C4B 6228  21.942   8.518  21.347  0.0965  0.2149 -0.1271
  260BOLB   NC2 6229  23.635   7.080  21.907  0.0880 -0.0202  0.2913
  260BOLB   PO2 6230  23.283   7.084  21.675  0.1686 -0.1471  0.2059
  260BOLB   GL3 6231  23.084   7.209  21.369 -0.1216  0.0021  0.2291
  260BOLB   GL4 6232  23.287   7.458  21.220 -0.5059  0.0294 -0.2406
  260BOLB   C1C 6233  22.693   7.257  21.290  0.2881  0.1770  0.0216
  260BOLB   C2C 6234  22.395   7.556  21.448 -0.2963 -0.0803 -0.0877
  260BOLB   C3C 6235  21.984   7.561  21.358 -0.0456 -0.1593  0.2047
  260BOLB   C4C 6236  21.900   7.790  21.041 -0.1197  0.2404 -0.3928
  260BOLB   C1D 6237  22.987   7.747  21.217 -0.2245 -0.1186 -0.3253
  260BOLB   C2D 6238  22.654   7.786  21.081 -0.0008 -0.1185 -0.2411
  260BOLB   C3D 6239  22.305   7.562  20.872  0.2303  0.2923 -0.0857
  260BOLB   C4D 6240  22.227   7.474  20.433  0.0445  0.1383  0.1074
  261BOLB   NC1 6241  17.743  21.268  23.731 -0.4680  0.1417 -0.0022
  261BOLB   PO1 6242  17.650  20.938  23.881  0.0691 -0.0286  0.1507
  261BOLB   GL1 6243  18.026  21.035  24.075  0.1105  0.2652  0.0702
  261BOLB   GL2 6244  18.178  21.246  24.079 -0.0234 -0.2061 -0.0139
  261BOLB   C1A 6245  18.280  21.002  24.510 -0.2224 -0.0213 -0.0553
  261BOLB   C2A 6246  18.445  21.302  24.770  0.0607 -0.0301  0.1105
  261BOLB   C3A 6247  18.488  21.443  25.112 -0.1210 -0.2958  0.2904
  261BOLB   C4A 6248  18.554  21.344  25.570  0.3835  0.0762  0.2699
  261BOLB   C1B 6249  18.062  21.451  24.354  0.1777 -0.1804 -0.0738
  261BOLB   C2B 6250  18.121  21.723  24.669  0.1830 -0.0376  0.0846
  261BOLB   C3B 6251  17.966  21.691  25.047  0.0489  0.4354  0.0004
  261BOLB   C4B 6252  18.173  21.688  25.456 -0.3493  0.0870  0.3661
  261BOLB   NC2 6253  19.932  21.489  27.863 -0.0218 -0.2741  0.2944
  261BOLB   PO2 6254  19.675  21.573  27.485  0.1183  0.0872  0.2560
  261BOLB   GL3 6255  19.789  21.340  27.190  0.0157  0.3599 -0.0634
  261BOLB   GL4 6256  20.103  21.349  27.129 -0.2984  0.0112  0.1266
  261BOLB   C1C 6257  19.576  21.031  26.891 -0.2081 -0.1773  0.0838
  261BOLB   C2C 6258  19.272  21.102  26.575 -0.0036  0.0266 -0.1710
  261BOLB   C3C 6259  19.054  21.335  26.213 -0.1095  0.3500 -0.0545
  261BOLB   C4C 6260  18.839  21.244  25.872  0.2980 -0.0050  0.0625
  261BOLB   C1D 6261  19.949  20.852  27.219 -0.0320 -0.1212  0.2582
  261BOLB   C2D 6262  19.627  20.542  26.996 -0.2121 -0.2565 -0.1418
  261BOLB   C3D 6263  19.306  20.272  26.779 -0.1037 -0.1123  0.1337
  261BOLB   C4D 6264  19.096  19.965  26.547  0.0401  0.1845 -0.0595
  262BOLB   NC1 6265  10.568  16.452  23.700 -0.0520  0.0204  0.0087
  262BOLB   PO1 6266  10.236  16.232  23.860 -0.3407  0.1377 -0.3005
  262BOLB   GL1 6267  10.257  16.222  24.367  0.1071  0.3270 -0.0927
  262BOLB   GL2 6268  10.594  16.317  24.554 -0.1216 -0.1353  0.0107
  262BOLB   C1A 6269  10.075  16.300  24.785 -0.0176 -0.0305  0.2821
  262BOLB   C2A 6270   9.968  16.374  25.127 -0.0635  0.2691  0.0771
  262BOLB   C3A 6271   9.727  16.238  25.547 -0.0028  0.0273  0.0604
  262BOLB   C4A 6272   9.339  16.322  25.800 -0.2748 -0.0434 -0.0368
  262BOLB   C1B 6273  10.598  16.186  24.995  0.1963  0.1051  0.1526
  262BOLB   C2B 6274  10.617  16.056  25.418  0.1579  0.0370 -0.0785
  262BOLB   C3B 6275  10.556  15.710  25.677  0.0491 -0.1133  0.1475
  262BOLB   C4B 6276  10.386  15.347  25.724 -0.2467  0.0260  0.2638
  262BOLB   NC2 6277   8.220  16.824  28.070 -0.0454 -0.2703 -0.2459
  262BOLB   PO2 6278   8.667  16.973  28.077 -0.1113  0.0081 -0.5793
  262BOLB   GL3 6279   8.522  16.909  27.629  0.1543  0.2216 -0.2645
  262BOLB   GL4 6280   8.436  17.175  27.639  0.2077  0.1680 -0.2562
  262BOLB   C1C 6281   8.585  16.872  27.171 -0.0447  0.1052 -0.2281
  262BOLB   C2C 6282   8.728  16.774  26.772 -0.1632  0.0198  0.2835
  262BOLB   C3C 6283   8.697  16.497  26.423  0.3921 -0.0973 -0.0759
  262BOLB   C4C 6284   8.943  16.267  26.087 -0.3624 -0.0617 -0.1289
  262BOLB   C1D 6285   8.538  17.474  27.300  0.2311  0.3127  0.0609
  262BOLB   C2D 6286   8.333  17.936  27.198 -0.1030  0.4624 -0.0144
  262BOLB   C3D 6287   8.054  18.156  26.952  0.3177  0.2132 -0.0756
  262BOLB   C4D 6288   7.641  18.044  26.875  0.3755  0.2130 -0.0133
  263BOLB   NC1 6289  21.410  15.596  22.205  0.1246  0.2152  0.1322
  263BOLB   PO1 6290  21.124  15.352  22.508 -0.0480  0.1178 -0.0301
  263BOLB   GL1 6291  21.508  15.323  22.605 -0.2264  0.2442 -0.0438
  263BOLB   GL2 6292  21.446  15.298  22.853 -0.2122 -0.0072  0.1292
  263BOLB   C1A 6293  21.859  15.154  23.005 -0.0044  0.1640 -0.0328
  263BOLB   C2A 6294  22.112  15.283  23.422  0.2814  0.0409  0.1788
  263BOLB   C3A 6295  22.472  15.222  23.785  0.1598 -0.1135 -0.2506
  263BOLB   C4A 6296  22.346  15.110  24.326 -0.1069  0.2173  0.0813
  263BOLB   C1B 6297  21.550  15.468  23.223 -0.0757 -0.0417  0.1223
  263BOLB   C2B 6298  21.517  15.407  23.654  0.1621 -0.0778 -0.0142
  263BOLB   C3B 6299  21.679  15.592  24.008 -0.1591 -0.4752 -0.1138
  263BOLB   C4B 6300  21.666  15.885  24.320 -0.0170  0.2657  0.0340
  263BOLB   NC2 6301  23.182  14.252  26.304  0.0166  0.1911 -0.1008
  263BOLB   PO2 6302  22.972  13.797  26.294  0.0470 -0.1072  0.4935
  263BOLB   GL3 6303  23.006  13.909  25.903 -0.2738 -0.1475 -0.1931
  263BOLB   GL4 6304  23.205  13.684  25.689  0.1355  0.2752 -0.0074
  263BOLB   C1C 6305  22.850  14.274  25.623 -0.1579  0.0012  0.0986
  263BOLB   C2C 6306  22.707  14.531  25.261 -0.2082 -0.0814  0.0167
  263BOLB   C3C 6307  22.649  14.878  25.105 -0.0660  0.0121  0.0095
  263BOLB   C4C 6308  22.421  14.898  24.734  0.1934  0.2940 -0.4348
  263BOLB   C1D 6309  23.161  13.986  25.373 -0.0429 -0.0432 -0.0098
  263BOLB   C2D 6310  23.262  13.900  25.041  0.1311 -0.0902  0.2858
  263BOLB   C3D 6311  23.326  14.098  24.662 -0.0339  0.3357  0.1498
  263BOLB   C4D 6312  23.605  14.209  24.303  0.1113  0.0550 -0.2966
  264BOLB   NC1 6313  16.552  20.688  23.991  0.0146 -0.0917 -0.0294
  264BOLB   PO1 6314  16.958  20.504  24.144 -0.2852 -0.0207 -0.0790
  264BOLB   GL1 6315  16.930  20.796  24.515 -0.0766  0.1087 -0.1023
  264BOLB   GL2 6316  17.224  20.898  24.564 -0.3997 -0.2509  0.3513
  264BOLB   C1A 6317  16.914  21.146  24.852 -0.1441 -0.2905 -0.0678
  264BOLB   C2A 6318  17.082  21.404  25.102  0.3177  0.0191 -0.0171
  264BOLB   C3A 6319  17.130  21.230  25.517  0.0005 -0.1144  0.1248
  264BOLB   C4A 6320  16.874  21.028  25.822  0.2715 -0.1391 -0.3003
  264BOLB   C1B 6321  17.362  20.872  24.987 -0.0070 -0.0818 -0.1229
  264BOLB   C2B 6322  17.594  21.032  25.258  0.1224 -0.4895 -0.0189
  264BOLB   C3B 6323  17.615  21.122  25.709  0.0692 -0.2273 -0.1028
  264BOLB   C4B 6324  17.768  21.086  26.090  0.0379 -0.0932  0.1691
  264BOLB   NC2 6325  16.741  19.849  27.964 -0.7636  0.2769  0.1937
  264BOLB   PO2 6326  16.541  20.305  27.895  0.2822 -0.0838 -0.1409
  264BOLB   GL3 6327  16.576  20.634  27.716  0.0477 -0.1931 -0.0877
  264BOLB   GL4 6328  16.269  20.648  27.621  0.0379 -0.1831  0.2430
  264BOLB   C1C 6329  16.631  20.819  27.376  0.3615  0.0623 -0.3422
  264BOLB   C2C 6330  16.853  20.926  27.042 -0.0572 -0.0381  0.0553
  264BOLB   C3C 6331  16.731  20.884  26.723 -0.3170  0.0579  0.1370
  264BOLB   C4C 6332  16.631  20.905  26.285  0.0336  0.3121 -0.1751
  264BOLB   C1D 6333  15.741  20.416  27.531  0.0037 -0.0194 -0.1969
  264BOLB   C2D 6334  15.513  20.045  27.502  0.1072  0.1925  0.0423
  264BOLB   C3D 6335  15.182  19.814  27.630  0.0419  0.1595  0.1570
  264BOLB   C4D 6336  14.814  19.962  27.841 -0.0223  0.2723  0.0026
  265BOLB   NC1 6337  20.425  13.957  22.382 -0.0847  0.0445 -0.1128
  265BOLB   PO1 6338  20.646  13.600  22.544  0.1631 -0.1848 -0.1576
  265BOLB   GL1 6339  20.870  13.629  22.867  0.0025  0.0955 -0.0643
  265BOLB   GL2 6340  21.229  13.827  22.802 -0.0590 -0.1484  0.0961
  265BOLB   C1A 6341  20.973  13.306  23.171  0.0241 -0.3702  0.0144
  265BOLB   C2A 6342  21.310  13.259  23.529  0.1257  0.0302 -0.0161
  265BOLB   C3A 6343  21.462  13.143  23.943 -0.1035 -0.0496  0.0048
  265BOLB   C4A 6344  21.766  13.043  24.214 -0.2505 -0.2997  0.0220
  265BOLB   C1B 6345  21.304  13.696  23.266  0.0780 -0.0827 -0.2423
  265BOLB   C2B 6346  21.499  13.748  23.634 -0.0243  0.0717 -0.0165
  265BOLB   C3B 6347  21.613  13.603  23.931  0.2708 -0.3384  0.2799
  265BOLB   C4B 6348  21.556  13.705  24.368 -0.3043 -0.2800  0.3240
  265BOLB   NC2 6349  22.715  14.145  26.582  0.1145 -0.3206  0.1261
  265BOLB   PO2 6350  22.347  14.220  26.351 -0.0174  0.2068 -0.1260
  265BOLB   GL3 6351  22.348  14.214  25.963  0.2018  0.1691  0.1251
  265BOLB   GL4 6352  22.492  13.874  25.892  0.1725  0.1762  0.1248
  265BOLB   C1C 6353  22.338  14.205  25.477 -0.2351 -0.1698  0.1152
  265BOLB   C2C 6354  22.128  14.030  25.093 -0.0381  0.1757  0.2250
  265BOLB   C3C 6355  22.073  13.651  24.735 -0.1173  0.0382  0.0843
  265BOLB   C4C 6356  22.013  13.360  24.416  0.0116 -0.0819 -0.1446
  265BOLB   C1D 6357  22.037  13.896  25.742 -0.1181  0.1440  0.0835
  265BOLB   C2D 6358  21.570  14.008  25.529 -0.0848 -0.1415  0.2542
  265BOLB   C3D 6359  21.216  14.073  25.843 -0.0144 -0.0304 -0.0870
  265BOLB   C4D 6360  21.200  14.064  26.297 -0.2544  0.1288  0.1234
  266BOLB   NC1 6361  18.271  23.470  23.063 -0.1143  0.0090 -0.0366
  266BOLB   PO1 6362  18.704  23.504  22.903 -0.0088 -0.0224 -0.1315
  266BOLB   GL1 6363  18.989  23.599  23.231 -0.0296  0.3380  0.3314
  266BOLB   GL2 6364  19.088  23.920  23.207 -0.1906 -0.1814  0.0654
  266BOLB   C1A 6365  19.238  23.568  23.534  0.2462 -0.1461 -0.1768
  266BOLB   C2A 6366  19.262  23.554  23.913  0.0037  0.2873 -0.3209
  266BOLB   C3A 6367  19.364  23.605  24.386 -0.0556  0.4121  0.0234
  266BOLB   C4A 6368  19.499  23.592  24.732  0.1406  0.0769 -0.0384
  266BOLB   C1B 6369  19.442  23.987  23.525  0.2118 -0.0951 -0.3189
  266BOLB   C2B 6370  19.739  23.693  23.807  0.1416 -0.0099 -0.0279
  266BOLB   C3B 6371  19.884  23.582  24.190  0.0019  0.0322  0.0802
  266BOLB   C4B 6372  20.196  23.657  24.359 -0.1628  0.0516 -0.0244
  266BOLB   NC2 6373  19.717  25.347  26.529 -0.1194  0.2028 -0.1643
  266BOLB   PO2 6374  19.754  24.805  26.536  0.4726  0.4982 -0.1665
  266BOLB   GL3 6375  19.917  24.492  26.324 -0.1034 -0.0243  0.0251
  266BOLB   GL4 6376  20.014  24.191  26.389 -0.0069 -0.1916 -0.1618
  266BOLB   C1C 6377  19.853  24.576  25.847 -0.0654 -0.2987  0.0582
  266BOLB   C2C 6378  19.724  24.298  25.544 -0.1181 -0.0754  0.0934
  266BOLB   C3C 6379  19.517  24.188  25.197  0.2449 -0.0884 -0.1003
  266BOLB   C4C 6380  19.334  23.847  25.037 -0.3090  0.0753  0.0922
  266BOLB   C1D 6381  20.032  24.107  25.869 -0.0671 -0.0463 -0.1915
  266BOLB   C2D 6382  20.044  23.764  25.687 -0.0239  0.3452  0.0178
  266BOLB   C3D 6383  19.941  23.332  25.556 -0.0423  0.2098 -0.2376
  266BOLB   C4D 6384  19.664  23.274  25.157  0.1318  0.1751 -0.0020
  267BOLB   NC1 6385  13.255  10.862  23.054  0.3203  0.1710  0.0856
  267BOLB   PO1 6386  13.477  10.660  23.436 -0.2426  0.0425 -0.0360
  267BOLB   GL1 6387  13.780  10.446  23.679 -0.1852 -0.0680 -0.1252
  267BOLB   GL2 6388  13.579  10.364  23.860 -0.0776  0.0547  0.2830
  267BOLB   C1A 6389  14.007  10.563  24.083  0.2831  0.1177 -0.0739
  267BOLB   C2A 6390  14.083  10.507  24.440  0.0323 -0.2147  0.0468
  267BOLB   C3A 6391  14.216  10.514  24.924 -0.2260 -0.2731 -0.0932
  267BOLB   C4A 6392  14.510  10.331  25.313 -0.2600 -0.1563  0.3463
  267BOLB   C1B 6393  13.474  10.165  24.293 -0.0200 -0.1954  0.2214
  267BOLB   C2B 6394  13.466  10.046  24.715 -0.1827  0.0841  0.1822
  267BOLB   C3B 6395  13.522   9.694  25.024 -0.0024  0.1806 -0.3787
  267BOLB   C4B 6396  13.407   9.772  25.529 -0.0306 -0.0756  0.3196
  267BOLB   NC2 6397  15.059   8.987  27.336  0.0296  0.0998 -0.1773
  267BOLB   PO2 6398  15.318   9.308  27.327 -0.2953 -0.3229  0.3732
  267BOLB   GL3 6399  15.244   9.455  26.931 -0.0902 -0.3096  0.1609
  267BOLB   GL4 6400  14.918   9.442  26.829  0.1893 -0.4112 -0.0998
  267BOLB   C1C 6401  15.230   9.896  26.631  0.2214  0.0335 -0.0744
  267BOLB   C2C 6402  15.107  10.237  26.379  0.4466 -0.0465  0.1324
  267BOLB   C3C 6403  14.850  10.392  26.045 -0.1483 -0.3047 -0.0971
  267BOLB   C4C 6404  14.629  10.331  25.677 -0.0791 -0.1189 -0.0083
  267BOLB   C1D 6405  14.664   9.235  26.596 -0.0123 -0.3192  0.2774
  267BOLB   C2D 6406  14.230   9.108  26.414  0.1642  0.2977 -0.1920
  267BOLB   C3D 6407  14.248   9.225  25.865  0.0925 -0.0988 -0.1490
  267BOLB   C4D 6408  14.197   9.356  25.443 -0.0852 -0.0531  0.1344
  268BOLB   NC1 6409  14.510  12.026  23.960 -0.0301  0.2358 -0.2960
  268BOLB   PO1 6410  14.537  12.395  23.919  0.0351  0.0031  0.1671
  268BOLB   GL1 6411  14.610  12.328  24.348 -0.1295  0.0370  0.2496
  268BOLB   GL2 6412  14.377  12.015  24.413  0.1687 -0.1358  0.3037
  268BOLB   C1A 6413  14.623  12.441  24.859 -0.0618  0.2219  0.1681
  268BOLB   C2A 6414  14.494  12.170  25.203 -0.1268  0.1390 -0.1522
  268BOLB   C3A 6415  14.421  11.914  25.489 -0.3838  0.1699  0.1155
  268BOLB   C4A 6416  14.251  11.712  25.870 -0.1861  0.3639 -0.1967
  268BOLB   C1B 6417  14.271  12.035  24.785  0.1683  0.1159  0.1924
  268BOLB   C2B 6418  14.075  11.889  25.017  0.4495  0.1073 -0.1332
  268BOLB   C3B 6419  14.173  11.497  25.257 -0.0188 -0.1357 -0.0704
  268BOLB   C4B 6420  13.929  11.458  25.592 -0.0930 -0.0138 -0.1184
  268BOLB   NC2 6421  13.782  10.857  27.952  0.1460 -0.3980  0.2688
  268BOLB   PO2 6422  14.152  11.036  28.042 -0.0144  0.0959 -0.0018
  268BOLB   GL3 6423  14.204  11.151  27.643  0.2676  0.0329  0.1704
  268BOLB   GL4 6424  13.874  11.242  27.584 -0.2417  0.1990 -0.1952
  268BOLB   C1C 6425  14.306  11.155  27.314 -0.0468 -0.2161  0.0782
  268BOLB   C2C 6426  14.429  11.205  26.840  0.1126  0.1301 -0.4739
  268BOLB   C3C 6427  14.282  11.249  26.453 -0.0525  0.0469 -0.0111
  268BOLB   C4C 6428  14.183  11.610  26.221 -0.0935 -0.0766 -0.2673
  268BOLB   C1D 6429  13.600  11.147  27.325 -0.4670 -0.0981 -0.0655
  268BOLB   C2D 6430  13.377  11.338  27.008 -0.1826 -0.0585 -0.0899
  268BOLB   C3D 6431  13.315  11.568  26.569  0.1756 -0.4002  0.0842
  268BOLB   C4D 6432  13.247  11.829  26.212 -0.0139  0.1458 -0.0822
  269BOLB   NC1 6433  17.990  19.240  24.190 -0.1640  0.2478 -0.2073
  269BOLB   PO1 6434  18.291  19.540  23.999  0.1456 -0.1179  0.1416
  269BOLB   GL1 6435  18.699  19.614  24.095 -0.0896  0.2590  0.1417
  269BOLB   GL2 6436  18.612  19.470  24.403  0.1572  0.2749 -0.0055
  269BOLB   C1A 6437  18.962  19.787  24.487  0.1891 -0.2499  0.0718
  269BOLB   C2A 6438  19.064  19.696  24.910 -0.0964 -0.1792 -0.0894
  269BOLB   C3A 6439  19.084  19.980  25.118 -0.3848  0.2638 -0.0181
  269BOLB   C4A 6440  19.092  20.131  25.588  0.3559 -0.1915  0.0003
  269BOLB   C1B 6441  18.500  19.727  24.800 -0.1516 -0.3271  0.1340
  269BOLB   C2B 6442  18.699  19.745  25.281 -0.0196 -0.0830 -0.1533
  269BOLB   C3B 6443  18.932  19.645  25.693  0.2052  0.2010 -0.2254
  269BOLB   C4B 6444  19.142  19.753  26.088 -0.1770  0.0928 -0.1859
  269BOLB   NC2 6445  20.998  20.876  27.189  0.0083 -0.3473 -0.2605
  269BOLB   PO2 6446  20.642  20.948  27.423 -0.0146 -0.1474  0.1002
  269BOLB   GL3 6447  20.427  20.741  27.124  0.0493  0.0416 -0.1643
  269BOLB   GL4 6448  20.689  20.723  26.883  0.2278  0.0156  0.0662
  269BOLB   C1C 6449  20.125  20.422  26.891  0.2818 -0.0146 -0.0288
  269BOLB   C2C 6450  19.844  20.287  26.621  0.0612 -0.0484 -0.0647
  269BOLB   C3C 6451  19.566  20.196  26.254  0.0037 -0.2468  0.2147
  269BOLB   C4C 6452  19.464  20.105  25.844 -0.1090 -0.2357  0.1241
  269BOLB   C1D 6453  20.462  20.528  26.520  0.0744 -0.0879  0.0508
  269BOLB   C2D 6454  20.116  20.582  26.228  0.4185  0.1876  0.1415
  269BOLB   C3D 6455  19.736  20.627  26.038  0.3100  0.3886 -0.0341
  269BOLB   C4D 6456  19.384  20.596  25.776 -0.0009  0.0350 -0.3395
  270BOLB   NC1 6457  19.393   9.450  21.111 -0.1019 -0.2701  0.3425
  270BOLB   PO1 6458  19.521   9.874  21.255 -0.3205 -0.0969 -0.0949
  270BOLB   GL1 6459  19.687   9.742  21.662  0.5776  0.1493 -0.0994
  270BOLB   GL2 6460  20.032   9.709  21.793 -0.1629  0.0197 -0.0591
  270BOLB   C1A 6461  19.754   9.279  21.775 -0.4319 -0.0764  0.0583
  270BOLB   C2A 6462  19.976   8.939  22.044  0.0219 -0.1354  0.1223
  270BOLB   C3A 6463  20.415   8.803  22.043  0.0557  0.2704  0.0387
  270BOLB   C4A 6464  20.650   8.538  22.198 -0.1396  0.0619 -0.3734
  270BOLB   C1B 6465  20.203   9.400  22.104 -0.3422  0.0154 -0.0136
  270BOLB   C2B 6466  20.132   9.157  22.501  0.2192 -0.3021  0.2120
  270BOLB   C3B 6467  19.865   8.948  22.597 -0.1355 -0.1459  0.2351
  270BOLB   C4B 6468  19.690   8.704  22.451 -0.1756  0.1829 -0.0510
  270BOLB   NC2 6469  22.168   6.740  22.811 -0.0012 -0.0764  0.1721
  270BOLB   PO2 6470  22.010   6.880  23.220 -0.3442 -0.1173  0.1516
  270BOLB   GL3 6471  21.800   7.104  22.922 -0.2595  0.0160  0.2389
  270BOLB   GL4 6472  21.454   7.062  22.858  0.2050  0.0518 -0.0513
  270BOLB   C1C 6473  21.755   7.531  22.860 -0.1361  0.0850  0.4426
  270BOLB   C2C 6474  21.582   7.897  22.896  0.0977 -0.1837  0.0726
  270BOLB   C3C 6475  21.278   8.242  22.736  0.0970 -0.0064 -0.0773
  270BOLB   C4C 6476  21.023   8.342  22.411  0.0267 -0.0671 -0.2138
  270BOLB   C1D 6477  21.178   7.252  22.678  0.2004 -0.0700 -0.0726
  270BOLB   C2D 6478  20.724   7.436  22.769 -0.0344  0.0103 -0.3067
  270BOLB   C3D 6479  20.554   7.389  22.365  0.0053  0.1648 -0.0944
  270BOLB   C4D 6480  20.300   7.503  21.983 -0.2784 -0.0214  0.3866
  271BOLB   NC1 6481  10.599  21.557  24.220 -0.5674  0.0928  0.5224
  271BOLB   PO1 6482  10.284  21.339  23.962 -0.0128 -0.0218 -0.2092
  271BOLB   GL1 6483  10.130  21.470  24.353 -0.1530 -0.0421 -0.2030
  271BOLB   GL2 6484   9.924  21.279  24.477 -0.2211 -0.5256  0.1414
  271BOLB   C1A 6485  10.036  21.688  24.695  0.1765 -0.0179 -0.1887
  271BOLB   C2A 6486   9.938  21.741  25.066 -0.2766 -0.1587 -0.0537
  271BOLB   C3A 6487  10.081  21.662  25.468 -0.0535 -0.0010 -0.0845
  271BOLB   C4A 6488  10.091  21.586  25.897  0.2399 -0.0074 -0.2446
  271BOLB   C1B 6489   9.786  21.188  24.891 -0.0429  0.1874  0.1868
  271BOLB   C2B 6490   9.601  21.400  25.220  0.0929 -0.2261 -0.3877
  271BOLB   C3B 6491   9.606  21.402  25.746  0.0305  0.1641  0.1095
  271BOLB   C4B 6492   9.818  21.187  26.058 -0.0649  0.2956 -0.1704
  271BOLB   NC2 6493   9.698  21.948  28.134 -0.1043  0.2607  0.2157
  271BOLB   PO2 6494   9.859  22.434  27.979  0.1697 -0.2115 -0.0579
  271BOLB   GL3 6495   9.939  22.106  27.654 -0.0092 -0.0982  0.0996
  271BOLB   GL4 6496   9.884  22.303  27.387 -0.0455 -0.2708 -0.0664
  271BOLB   C1C 6497   9.985  21.727  27.391 -0.0314 -0.0557  0.3099
  271BOLB   C2C 6498  10.170  21.578  27.061  0.2754  0.0300  0.2290
  271BOLB   C3C 6499  10.193  21.566  26.692  0.0302 -0.2257 -0.0424
  271BOLB   C4C 6500   9.966  21.620  26.306  0.0698 -0.0098  0.1601
  271BOLB   C1D 6501  10.250  22.522  27.250  0.1611  0.1311  0.3463
  271BOLB   C2D 6502  10.570  22.321  26.955 -0.1903  0.1736 -0.1856
  271BOLB   C3D 6503  10.795  22.476  26.580  0.2020 -0.1419  0.3038
  271BOLB   C4D 6504  10.960  22.668  26.219  0.0976  0.1123  0.2678
  272BOLB   NC1 6505   8.197  23.446  23.297 -0.0810  0.1699  0.3881
  272BOLB   PO1 6506   8.094  23.555  22.851  0.0834  0.4399  0.1740
  272BOLB   GL1 6507   8.409  23.738  22.606 -0.0585  0.0537 -0.3854
  272BOLB   GL2 6508   8.802  23.613  22.626  0.0447 -0.0371  0.0566
  272BOLB   C1A 6509   8.701  23.949  22.276  0.0074  0.0257 -0.2049
  272BOLB   C2A 6510   8.961  23.999  21.880  0.1475 -0.1547  0.1361
  272BOLB   C3A 6511   9.082  23.969  21.486  0.0173  0.2546  0.3202
  272BOLB   C4A 6512   9.400  24.041  21.115 -0.1265  0.0490  0.0664
  272BOLB   C1B 6513   8.878  23.996  22.813 -0.1350 -0.1346 -0.0177
  272BOLB   C2B 6514   9.203  24.442  22.867  0.1264  0.0824  0.1798
  272BOLB   C3B 6515   9.515  24.653  23.116  0.1322  0.0433 -0.3304
  272BOLB   C4B 6516   9.841  24.659  23.343  0.1381  0.2064 -0.3157
  272BOLB   NC2 6517   7.598  26.088  21.921  0.0184 -0.0977  0.0659
  272BOLB   PO2 6518   7.905  26.053  21.507  0.0765  0.1440 -0.0539
  272BOLB   GL3 6519   8.215  25.750  21.373 -0.1247 -0.0946  0.1078
  272BOLB   GL4 6520   8.408  25.522  21.672  0.2917 -0.0039  0.1313
  272BOLB   C1C 6521   8.512  25.522  21.155  0.3620  0.0137  0.1768
  272BOLB   C2C 6522   8.773  25.179  21.004 -0.3614  0.2429  0.0696
  272BOLB   C3C 6523   9.124  24.804  20.885  0.2926 -0.0607  0.3557
  272BOLB   C4C 6524   9.376  24.420  20.881 -0.2140 -0.0225  0.0652
  272BOLB   C1D 6525   8.435  25.168  21.487 -0.1902  0.1177  0.1731
  272BOLB   C2D 6526   8.724  24.855  21.345 -0.1443  0.1103 -0.2952
  272BOLB   C3D 6527   9.152  24.575  21.345 -0.2607  0.0844  0.1123
  272BOLB   C4D 6528   9.470  24.409  21.393 -0.0504 -0.0358  0.0117
  273BOLB   NC1 6529  19.831  14.223  23.208  0.2433 -0.2204  0.2349
  273BOLB   PO1 6530  19.997  13.739  23.220 -0.0992 -0.1890 -0.3491
  273BOLB   GL1 6531  20.092  13.451  23.576 -0.0242  0.1211  0.1171
  273BOLB   GL2 6532  20.330  13.631  23.721  0.0217  0.1516  0.0866
  273BOLB   C1A 6533  20.225  13.111  23.813 -0.1275  0.1365  0.0597
  273BOLB   C2A 6534  20.460  12.815  24.096 -0.0061  0.2055 -0.2330
  273BOLB   C3A 6535  20.405  12.345  24.389  0.2810  0.0931 -0.0614
  273BOLB   C4A 6536  20.181  12.144  24.805 -0.0280  0.0143 -0.2497
  273BOLB   C1B 6537  20.567  13.395  24.028  0.0144  0.1103 -0.0655
  273BOLB   C2B 6538  20.760  13.175  24.312  0.0251 -0.0602 -0.1731
  273BOLB   C3B 6539  20.707  12.758  24.570  0.3138 -0.1124 -0.1044
  273BOLB   C4B 6540  20.863  12.720  25.058 -0.1670  0.4386 -0.0577
  273BOLB   NC2 6541  20.268  10.550  27.021 -0.5828  0.2185  0.2284
  273BOLB   PO2 6542  20.456  10.863  26.773  0.1420 -0.0046 -0.1980
  273BOLB   GL3 6543  20.603  10.792  26.342 -0.0477 -0.0244 -0.1748
  273BOLB   GL4 6544  20.306  10.904  26.260 -0.5124  0.0878 -0.1000
  273BOLB   C1C 6545  20.761  11.122  26.037 -0.0635  0.0286 -0.0152
  273BOLB   C2C 6546  20.629  11.411  25.678 -0.0785 -0.0662 -0.0850
  273BOLB   C3C 6547  20.348  11.582  25.356 -0.2256  0.1743  0.0963
  273BOLB   C4C 6548  20.248  11.924  25.115  0.0017 -0.0750  0.1421
  273BOLB   C1D 6549  20.454  10.796  25.860 -0.1266 -0.3718 -0.2221
  273BOLB   C2D 6550  20.521  10.957  25.497  0.1168 -0.0945 -0.1383
  273BOLB   C3D 6551  20.517  11.010  25.091 -0.3188 -0.1893  0.0619
  273BOLB   C4D 6552  20.288  11.032  24.751 -0.0121 -0.2333  0.1430
  274BOLB   NC1 6553  20.346  15.791  23.520 -0.1508 -0.4154 -0.1918
  274BOLB   PO1 6554  20.489  15.425  23.623 -0.1800  0.1296 -0.1181
  274BOLB   GL1 6555  20.557  15.194  23.986  0.3179 -0.1405 -0.0738
  274BOLB   GL2 6556  20.332  15.133  24.245  0.1173 -0.0483  0.3820
  274BOLB   C1A 6557  20.949  15.019  24.190 -0.2182 -0.0991  0.4413
  274BOLB   C2A 6558  21.313  15.087  24.487  0.2197 -0.1172  0.1337
  274BOLB   C3A 6559  21.666  14.971  24.774 -0.0631 -0.1275  0.0855
  274BOLB   C4A 6560  21.946  15.117  24.827  0.0386  0.0465  0.3866
  274BOLB   C1B 6561  20.342  15.063  24.656 -0.0861 -0.0086  0.0175
  274BOLB   C2B 6562  20.527  15.149  25.052  0.0539  0.1797  0.1507
  274BOLB   C3B 6563  20.730  14.890  25.310  0.1426  0.0319 -0.0341
  274BOLB   C4B 6564  21.152  14.951  25.543 -0.0941  0.0850 -0.4014
  274BOLB   NC2 6565  23.473  15.144  25.952  0.2980  0.1438 -0.0046
  274BOLB   PO2 6566  23.772  15.252  26.114  0.0505 -0.3233 -0.0766
  274BOLB   GL3 6567  23.527  15.585  25.810  0.0789 -0.1747  0.2998
  274BOLB   GL4 6568  23.575  15.885  25.762 -0.0956  0.1320 -0.0475
  274BOLB   C1C 6569  23.318  15.593  25.443  0.0062 -0.2741  0.0808
  274BOLB   C2C 6570  23.091  15.403  25.171  0.1134  0.1969  0.0407
  274BOLB   C3C 6571  22.675  15.343  25.004  0.0567 -0.3157  0.1426
  274BOLB   C4C 6572  22.250  15.271  25.129 -0.1023  0.0522 -0.0099
  274BOLB   C1D 6573  23.353  16.144  25.501  0.2217  0.1356 -0.1911
  274BOLB   C2D 6574  23.110  15.967  25.118  0.0206  0.1215 -0.2117
  274BOLB   C3D 6575  22.788  15.853  24.911  0.2458  0.1844  0.3757
  274BOLB   C4D 6576  22.867  15.600  24.545 -0.0407 -0.1639 -0.1078
  275BOLB   NC1 6577  14.743  14.321  23.962 -0.1666  0.3158  0.0521
  275BOLB   PO1 6578  14.576  14.065  24.339 -0.0267  0.3527 -0.0078
  275BOLB   GL1 6579  14.504  13.971  24.701  0.1239  0.0861  0.0520
  275BOLB   GL2 6580  14.280  13.736  24.639 -0.0155  0.1178  0.2726
  275BOLB   C1A 6581  14.339  14.176  24.979 -0.0259 -0.2830 -0.1066
  275BOLB   C2A 6582  14.030  14.235  25.308  0.4032  0.0340 -0.0309
  275BOLB   C3A 6583  13.995  14.367  25.609 -0.2207  0.1532 -0.0514
  275BOLB   C4A 6584  14.001  14.479  25.983 -0.0010 -0.1267 -0.5217
  275BOLB   C1B 6585  14.064  13.520  25.001  0.0445 -0.1929  0.0790
  275BOLB   C2B 6586  14.016  13.531  25.436 -0.2764 -0.1605 -0.0979
  275BOLB   C3B 6587  13.733  13.559  25.701 -0.1446 -0.0422 -0.1164
  275BOLB   C4B 6588  13.620  13.577  26.075  0.0168  0.0662  0.0711
  275BOLB   NC2 6589  13.892  14.296  28.942 -0.1801 -0.0994  0.0713
  275BOLB   PO2 6590  13.794  14.198  28.573  0.0505  0.0376 -0.0327
  275BOLB   GL3 6591  13.910  14.196  28.178 -0.0971 -0.0537  0.0380
  275BOLB   GL4 6592  13.745  14.393  28.032 -0.3657  0.1366  0.0931
  275BOLB   C1C 6593  14.046  14.046  27.749 -0.6414  0.0337  0.2666
  275BOLB   C2C 6594  14.156  14.206  27.313  0.0839 -0.0570  0.2078
  275BOLB   C3C 6595  14.321  14.385  26.927 -0.2229 -0.0945  0.1994
  275BOLB   C4C 6596  14.296  14.544  26.460 -0.0746  0.2451  0.0904
  275BOLB   C1D 6597  13.970  14.653  27.628  0.0848 -0.3893  0.1576
  275BOLB   C2D 6598  13.978  14.739  27.185 -0.1271  0.0382 -0.1538
  275BOLB   C3D 6599  13.873  14.761  26.719  0.0915  0.2307 -0.2447
  275BOLB   C4D 6600  13.911  14.922  26.290 -0.1697 -0.0979 -0.3143
  276BOLB   NC1 6601  11.821  11.674  23.847 -0.0955  0.0135 -0.1767
  276BOLB   PO1 6602  12.163  11.996  23.894 -0.2410 -0.1143 -0.1135
  276BOLB   GL1 6603  12.056  12.011  24.289  0.2686 -0.3863  0.2422
  276BOLB   GL2 6604  11.876  11.811  24.442  0.2631 -0.0188  0.2430
  276BOLB   C1A 6605  12.266  11.983  24.742  0.3180 -0.0271  0.1737
  276BOLB   C2A 6606  12.457  11.680  25.097  0.1457  0.0818 -0.6741
  276BOLB   C3A 6607  12.698  11.505  25.353  0.1554  0.1244 -0.0039
  276BOLB   C4A 6608  12.760  11.356  25.719 -0.1589  0.1042 -0.0114
  276BOLB   C1B 6609  11.642  11.575  24.781 -0.1843  0.0216  0.0860
  276BOLB   C2B 6610  11.549  11.274  25.140  0.2532 -0.1154 -0.1923
  276BOLB   C3B 6611  11.281  11.322  25.638  0.1255  0.0706  0.1315
  276BOLB   C4B 6612  10.902  11.379  25.820  0.1130  0.2799 -0.2374
  276BOLB   NC2 6613  11.876  10.897  27.650 -0.1022  0.2439  0.1422
  276BOLB   PO2 6614  12.048  11.262  27.964 -0.0892  0.1316  0.2982
  276BOLB   GL3 6615  12.219  11.280  27.474 -0.3364  0.1116  0.4167
  276BOLB   GL4 6616  11.978  11.305  27.204 -0.0366  0.1284 -0.4807
  276BOLB   C1C 6617  12.571  11.270  27.107  0.0330 -0.2978 -0.0947
  276BOLB   C2C 6618  12.567  11.358  26.719  0.3104 -0.1246  0.2169
  276BOLB   C3C 6619  12.805  11.511  26.417  0.0439 -0.0038  0.0673
  276BOLB   C4C 6620  12.971  11.379  26.077 -0.1652  0.3292  0.0603
  276BOLB   C1D 6621  12.045  11.511  26.813  0.2626  0.0155  0.0623
  276BOLB   C2D 6622  12.157  11.625  26.345  0.0444 -0.1517  0.0404
  276BOLB   C3D 6623  12.323  11.451  25.917  0.0125 -0.4353 -0.2560
  276BOLB   C4D 6624  12.272  11.536  25.589 -0.4676  0.1910 -0.3962
  277BOLB   NC1 6625  11.341  10.961  22.881 -0.1064  0.0608 -0.3145
  277BOLB   PO1 6626  11.789  10.777  22.973  0.1214  0.2055  0.0707
  277BOLB   GL1 6627  11.457  10.833  23.352  0.1010 -0.0781 -0.2725
  277BOLB   GL2 6628  11.627  10.844  23.711 -0.0025 -0.0297 -0.0385
  277BOLB   C1A 6629  11.115  10.814  23.780  0.0487  0.0515 -0.2435
  277BOLB   C2A 6630  10.742  10.753  23.871 -0.1400 -0.2597  0.0474
  277BOLB   C3A 6631  10.407  10.907  24.309  0.1417  0.1197  0.0552
  277BOLB   C4A 6632  10.123  11.127  24.652 -0.0836 -0.1292 -0.1758
  277BOLB   C1B 6633  11.559  10.568  23.897 -0.0746 -0.0238 -0.4976
  277BOLB   C2B 6634  11.190  10.343  24.167  0.1085 -0.0354  0.2432
  277BOLB   C3B 6635  11.046  10.053  24.547  0.0813  0.2473 -0.0270
  277BOLB   C4B 6636  10.862   9.750  24.956  0.0844 -0.2328 -0.0532
  277BOLB   NC2 6637   7.908  10.729  26.142 -0.3377  0.0860 -0.0120
  277BOLB   PO2 6638   8.341  10.625  26.248  0.0287  0.0736  0.3075
  277BOLB   GL3 6639   8.872  10.731  26.302  0.2419  0.2240 -0.1565
  277BOLB   GL4 6640   9.086  10.633  26.042  0.0566  0.0287 -0.2516
  277BOLB   C1C 6641   9.147  11.139  26.145  0.1582 -0.0514  0.0283
  277BOLB   C2C 6642   9.496  11.282  25.957  0.2565  0.0823  0.0926
  277BOLB   C3C 6643   9.674  11.267  25.456 -0.0337 -0.0336  0.4624
  277BOLB   C4C 6644  10.040  11.101  25.159 -0.2880  0.1545  0.0021
  277BOLB   C1D 6645   9.538  10.651  26.037  0.0634  0.2270  0.0209
  277BOLB   C2D 6646   9.829  10.925  26.131 -0.1028  0.0360 -0.2528
  277BOLB   C3D 6647  10.231  10.815  26.040  0.2018 -0.1409 -0.1226
  277BOLB   C4D 6648  10.599  10.965  25.931  0.0864 -0.1725  0.0376
  278BOLB   NC1 6649  17.157  21.854  23.797  0.1927 -0.2273  0.1308
  278BOLB   PO1 6650  17.167  21.397  23.828 -0.0479 -0.1183 -0.1159
  278BOLB   GL1 6651  17.275  21.442  24.208 -0.3962  0.1568  0.0065
  278BOLB   GL2 6652  17.555  21.266  24.275  0.0529  0.2397  0.1070
  278BOLB   C1A 6653  17.301  21.396  24.681  0.1659  0.0306  0.0160
  278BOLB   C2A 6654  17.538  21.402  24.935 -0.0478 -0.2556 -0.1775
  278BOLB   C3A 6655  17.640  21.476  25.324 -0.1479 -0.3272  0.0951
  278BOLB   C4A 6656  17.531  21.646  25.728  0.0263 -0.2129  0.1965
  278BOLB   C1B 6657  17.785  20.967  24.586 -0.0470 -0.2076 -0.3178
  278BOLB   C2B 6658  18.030  21.161  24.993 -0.3106 -0.0151  0.2020
  278BOLB   C3B 6659  18.070  21.209  25.387 -0.3391 -0.1636  0.0540
  278BOLB   C4B 6660  18.029  21.411  25.775  0.4321  0.0333 -0.2284
  278BOLB   NC2 6661  18.873  21.206  27.872  0.1938  0.0627  0.1042
  278BOLB   PO2 6662  18.660  21.568  27.575  0.0415  0.0918  0.1336
  278BOLB   GL3 6663  18.634  21.641  27.152  0.0932  0.1230 -0.1116
  278BOLB   GL4 6664  18.728  21.790  27.096 -0.1315  0.1453 -0.1841
  278BOLB   C1C 6665  18.289  21.615  26.831 -0.0468 -0.2786  0.0067
  278BOLB   C2C 6666  17.984  21.941  26.578 -0.3366  0.0041 -0.3913
  278BOLB   C3C 6667  17.634  22.088  26.358  0.1580  0.3063 -0.1048
  278BOLB   C4C 6668  17.386  21.757  26.202 -0.1266 -0.0886  0.1047
  278BOLB   C1D 6669  18.936  21.669  26.713  0.0173 -0.1894  0.1592
  278BOLB   C2D 6670  18.911  21.871  26.308  0.0689  0.2636  0.4575
  278BOLB   C3D 6671  18.794  22.081  25.890 -0.0091 -0.1510  0.1730
  278BOLB   C4D 6672  18.927  22.270  25.473 -0.3071 -0.3413  0.0335
  279BOLB   NC1 6673  22.239   9.727  18.822  0.1649 -0.0580  0.0779
  279BOLB   PO1 6674  22.273   9.895  19.204  0.1231 -0.2401 -0.1167
  279BOLB   GL1 6675  22.518   9.747  19.483  0.1326  0.0237 -0.2968
  279BOLB   GL2 6676  22.829   9.899  19.559  0.2497 -0.1961  0.0151
  279BOLB   C1A 6677  22.609   9.396  19.826  0.3064  0.2299 -0.0236
  279BOLB   C2A 6678  22.506   9.210  20.188  0.4820  0.1249  0.2213
  279BOLB   C3A 6679  22.499   8.992  20.589 -0.1518  0.2546  0.3831
  279BOLB   C4A 6680  22.442   8.991  21.023 -0.1895 -0.0976 -0.2092
  279BOLB   C1B 6681  23.092   9.502  19.744  0.1348  0.1535  0.0787
  279BOLB   C2B 6682  23.173   9.076  19.624 -0.0598  0.0591 -0.0793
  279BOLB   C3B 6683  23.097   8.652  19.384  0.0516  0.1168 -0.4332
  279BOLB   C4B 6684  23.009   8.278  19.483  0.0393  0.2489  0.0529
  279BOLB   NC2 6685  23.631   7.621  23.350 -0.3601  0.1149  0.0807
  279BOLB   PO2 6686  23.376   7.680  22.926 -0.1254 -0.2748 -0.1548
  279BOLB   GL3 6687  23.170   7.835  22.598  0.0347  0.0774 -0.0232
  279BOLB   GL4 6688  22.960   8.038  22.688 -0.3204  0.2524  0.1163
  279BOLB   C1C 6689  23.043   7.999  22.144 -0.1322 -0.0562 -0.0871
  279BOLB   C2C 6690  22.817   8.380  22.046 -0.2881 -0.5412  0.1056
  279BOLB   C3C 6691  22.605   8.681  21.757  0.0756  0.6633  0.2197
  279BOLB   C4C 6692  22.414   8.930  21.464  0.3892 -0.2430 -0.4550
  279BOLB   C1D 6693  22.554   8.080  22.607 -0.1685 -0.0004  0.1688
  279BOLB   C2D 6694  22.290   8.408  22.345  0.4811  0.0283 -0.0977
  279BOLB   C3D 6695  22.398   8.576  22.220 -0.1069 -0.2153 -0.0043
  279BOLB   C4D 6696  22.494   8.957  22.144 -0.0221 -0.0332 -0.1842
  280BOLB   NC1 6697  15.159  19.861  24.532  0.2976  0.1961 -0.2740
  280BOLB   PO1 6698  14.945  20.225  24.489  0.1793  0.1538 -0.0603
  280BOLB   GL1 6699  15.010  20.167  24.912 -0.1881 -0.2578  0.0771
  280BOLB   GL2 6700  14.763  20.173  25.149 -0.1046 -0.1754  0.2446
  280BOLB   C1A 6701  15.291  20.283  25.192  0.0565  0.0237 -0.2355
  280BOLB   C2A 6702  15.495  20.049  25.505  0.2807  0.1159  0.1274
  280BOLB   C3A 6703  15.762  20.261  25.790  0.0382  0.0520  0.1496
  280BOLB   C4A 6704  16.053  20.133  26.033  0.0973 -0.1302  0.1859
  280BOLB   C1B 6705  15.010  19.939  25.492  0.4338  0.0781 -0.0522
  280BOLB   C2B 6706  15.200  19.654  25.767  0.0657  0.1406  0.4157
  280BOLB   C3B 6707  15.214  19.722  26.220 -0.0565  0.1533 -0.0445
  280BOLB   C4B 6708  15.211  19.582  26.750 -0.0082  0.2655 -0.0440
  280BOLB   NC2 6709  16.560  20.729  28.331 -0.2687 -0.0534 -0.1115
  280BOLB   PO2 6710  16.992  20.722  28.065  0.1374  0.1240  0.2455
  280BOLB   GL3 6711  17.090  20.796  27.698 -0.3610  0.3342 -0.3449
  280BOLB   GL4 6712  17.127  21.123  27.510 -0.1911 -0.2726 -0.0622
  280BOLB   C1C 6713  17.076  20.524  27.330 -0.0272 -0.0028  0.1103
  280BOLB   C2C 6714  16.783  20.421  27.017 -0.0890 -0.0636  0.1137
  280BOLB   C3C 6715  16.501  20.188  26.829 -0.1476 -0.4011 -0.2325
  280BOLB   C4C 6716  16.222  20.050  26.486 -0.2085 -0.2446 -0.0171
  280BOLB   C1D 6717  17.390  20.919  27.154 -0.0306  0.0316  0.0540
  280BOLB   C2D 6718  17.566  20.818  26.692  0.4227  0.2926 -0.1379
  280BOLB   C3D 6719  17.463  20.486  26.414  0.0025  0.2696 -0.1677
  280BOLB   C4D 6720  17.485  20.130  26.329 -0.0752 -0.0822 -0.1033
  281BOLB   NC1 6721   9.916  22.299  23.855  0.2269 -0.1946 -0.2099
  281BOLB   PO1 6722  10.374  22.317  23.609 -0.2077  0.1265 -0.0884
  281BOLB   GL1 6723  10.437  22.256  24.086 -0.0887 -0.0267 -0.0121
  281BOLB   GL2 6724  10.258  22.565  24.177 -0.0408  0.0028 -0.0088
  281BOLB   C1A 6725  10.213  22.166  24.481  0.2280  0.0001  0.1093
  281BOLB   C2A 6726  10.183  22.162  24.889 -0.0534 -0.0282 -0.1156
  281BOLB   C3A 6727  10.232  22.155  25.281 -0.2211 -0.2070  0.1080
  281BOLB   C4A 6728  10.167  22.135  25.762 -0.1634  0.0754 -0.2768
  281BOLB   C1B 6729  10.457  22.605  24.582  0.1329  0.0917 -0.1682
  281BOLB   C2B 6730  10.786  22.708  24.913  0.1069 -0.0680 -0.0739
  281BOLB   C3B 6731  10.740  22.678  25.342 -0.0816  0.2437 -0.2770
  281BOLB   C4B 6732  10.657  22.849  25.751  0.2912  0.2139 -0.3766
  281BOLB   NC2 6733  10.298  21.664  28.270  0.3401 -0.1693  0.0396
  281BOLB   PO2 6734  10.216  21.986  28.095  0.0281 -0.1969  0.0956
  281BOLB   GL3 6735  10.445  21.957  27.646  0.0676  0.2867 -0.1469
  281BOLB   GL4 6736  10.721  22.127  27.631  0.0605  0.4136 -0.0574
  281BOLB   C1C 6737  10.424  21.918  27.274  0.0008  0.1229 -0.0137
  281BOLB   C2C 6738  10.079  22.082  27.013  0.2038  0.0154 -0.1337
  281BOLB   C3C 6739   9.938  22.024  26.630 -0.0450  0.0433  0.0857
  281BOLB   C4C 6740  10.079  22.062  26.128 -0.2209 -0.0031  0.1569
  281BOLB   C1D 6741  10.721  22.421  27.431 -0.2367  0.4807  0.0348
  281BOLB   C2D 6742  10.746  22.759  27.089  0.1599  0.2625 -0.0281
  281BOLB   C3D 6743  10.681  22.919  26.732  0.2891 -0.1792  0.0386
  281BOLB   C4D 6744  11.031  23.280  26.514 -0.3059 -0.2291 -0.1248
  282BOLB   NC1 6745  19.844  12.166  22.881  0.1090  0.1460 -0.1390
  282BOLB   PO1 6746  19.443  12.523  22.994  0.1015 -0.1549 -0.0880
  282BOLB   GL1 6747  19.624  12.306  23.341  0.0250  0.0759  0.1140
  282BOLB   GL2 6748  19.561  12.024  23.331 -0.0211 -0.0161 -0.0570
  282BOLB   C1A 6749  19.670  12.339  23.773  0.1624  0.2519 -0.5592
  282BOLB   C2A 6750  19.439  12.113  24.144  0.0591 -0.0103  0.0304
  282BOLB   C3A 6751  19.316  11.776  24.406 -0.1459  0.1184  0.3024
  282BOLB   C4A 6752  19.416  11.440  24.688 -0.0041  0.0703 -0.0063
  282BOLB   C1B 6753  20.042  11.977  23.487  0.1751  0.1254 -0.0193
  282BOLB   C2B 6754  20.089  11.881  23.939 -0.0102 -0.1386 -0.0419
  282BOLB   C3B 6755  20.242  11.779  24.216 -0.1673  0.0470 -0.2567
  282BOLB   C4B 6756  20.461  11.427  24.410 -0.0788 -0.1188  0.0257
  282BOLB   NC2 6757  20.947   9.475  25.673 -0.1405  0.2748 -0.3505
  282BOLB   PO2 6758  20.587   9.559  25.819  0.2344 -0.0705  0.0441
  282BOLB   GL3 6759  20.216   9.895  25.650  0.0404 -0.3691 -0.0320
  282BOLB   GL4 6760  20.080   9.741  25.427 -0.0410  0.0660  0.2722
  282BOLB   C1C 6761  20.043  10.296  25.630 -0.2451 -0.1607 -0.1638
  282BOLB   C2C 6762  20.086  10.728  25.447  0.0024 -0.0321 -0.2157
  282BOLB   C3C 6763  20.068  11.168  25.243  0.1202  0.1314 -0.1531
  282BOLB   C4C 6764  19.781  11.313  24.900  0.0925 -0.0274  0.0267
  282BOLB   C1D 6765  20.085   9.745  25.014  0.3076 -0.0063 -0.1026
  282BOLB   C2D 6766  20.063   9.789  24.550  0.0557 -0.2579 -0.1774
  282BOLB   C3D 6767  19.938   9.605  24.176 -0.1354 -0.0348 -0.3552
  282BOLB   C4D 6768  20.020   9.134  24.126  0.2588  0.0484  0.1132
  283BOLB   NC1 6769  19.007  10.336  22.135  0.2132 -0.0599 -0.1464
  283BOLB   PO1 6770  18.921  10.556  22.503  0.1630  0.3240 -0.1440
  283BOLB   GL1 6771  18.831  10.250  22.721  0.2722 -0.0195  0.0189
  283BOLB   GL2 6772  18.891   9.966  22.479 -0.1462  0.0072 -0.0118
  283BOLB   C1A 6773  19.006   9.886  22.978 -0.1954 -0.0950 -0.1559
  283BOLB   C2A 6774  19.145   9.653  23.293 -0.0569  0.1254 -0.0943
  283BOLB   C3A 6775  19.006   9.453  23.652  0.1592  0.1693  0.0778
  283BOLB   C4A 6776  18.667   9.306  24.018  0.2966  0.0038 -0.0096
  283BOLB   C1B 6777  19.073   9.667  22.539 -0.1263 -0.1132  0.3029
  283BOLB   C2B 6778  19.181   9.445  22.801  0.0104 -0.0096 -0.1611
  283BOLB   C3B 6779  19.301   9.211  23.319 -0.1543  0.2097  0.1709
  283BOLB   C4B 6780  19.412   8.897  23.488 -0.4255 -0.0471 -0.0880
  283BOLB   NC2 6781  19.190   8.099  25.763  0.2425 -0.3164 -0.0027
  283BOLB   PO2 6782  19.329   8.622  25.771  0.1556  0.1430 -0.3037
  283BOLB   GL3 6783  19.051   8.479  25.464  0.2350  0.0432  0.1691
  283BOLB   GL4 6784  19.271   8.284  25.292  0.0290 -0.1361 -0.0563
  283BOLB   C1C 6785  18.598   8.651  25.376 -0.0830 -0.0443  0.1903
  283BOLB   C2C 6786  18.420   8.902  25.104 -0.3984 -0.3637 -0.0198
  283BOLB   C3C 6787  18.326   9.220  24.898  0.0543  0.1300 -0.2262
  283BOLB   C4C 6788  18.375   9.241  24.438  0.2390 -0.0416 -0.2433
  283BOLB   C1D 6789  19.427   8.377  24.955 -0.0089  0.1018  0.2069
  283BOLB   C2D 6790  19.475   8.438  24.463  0.1764 -0.2227 -0.2053
  283BOLB   C3D 6791  19.463   8.506  23.942 -0.3220 -0.2968  0.0955
  283BOLB   C4D 6792  19.315   8.159  23.716 -0.1487  0.2836  0.3258
  284BOLB   NC1 6793  15.545   9.524  23.033  0.4463 -0.0129  0.2007
  284BOLB   PO1 6794  15.169   9.303  22.874 -0.2821 -0.2199  0.1190
  284BOLB   GL1 6795  15.202   9.167  23.264 -0.1070 -0.1667 -0.0566
  284BOLB   GL2 6796  15.356   9.397  23.476  0.2149  0.2419  0.1238
  284BOLB   C1A 6797  15.404   8.865  23.592  0.2471  0.3031  0.2791
  284BOLB   C2A 6798  15.680   8.613  23.970 -0.0535  0.0851  0.0056
  284BOLB   C3A 6799  15.952   8.521  24.252  0.1656 -0.1182 -0.3792
  284BOLB   C4A 6800  16.263   8.394  24.408 -0.2003 -0.2456  0.1997
  284BOLB   C1B 6801  15.175   9.668  23.795 -0.2514 -0.1913 -0.3058
  284BOLB   C2B 6802  15.209   9.640  24.226  0.0128  0.1724 -0.2658
  284BOLB   C3B 6803  14.981   9.580  24.701 -0.1039 -0.0504  0.0851
  284BOLB   C4B 6804  14.956   9.500  25.190  0.2446  0.1480 -0.0883
  284BOLB   NC2 6805  17.905   7.682  25.968 -0.2024 -0.0094 -0.0389
  284BOLB   PO2 6806  17.535   7.781  26.083 -0.1677  0.0247 -0.1632
  284BOLB   GL3 6807  17.514   7.861  25.721 -0.1441  0.3591 -0.1487
  284BOLB   GL4 6808  17.732   7.917  25.436  0.2613 -0.2096  0.3841
  284BOLB   C1C 6809  17.079   8.110  25.596 -0.0853 -0.1036  0.3444
  284BOLB   C2C 6810  16.786   8.003  25.317  0.3371 -0.1479 -0.3786
  284BOLB   C3C 6811  16.761   8.330  25.029 -0.0385  0.1236  0.2691
  284BOLB   C4C 6812  16.514   8.597  24.753 -0.0936  0.1463  0.2156
  284BOLB   C1D 6813  17.384   8.163  25.181 -0.0956 -0.0915 -0.0790
  284BOLB   C2D 6814  17.201   8.376  24.834 -0.4859 -0.2526  0.2246
  284BOLB   C3D 6815  17.001   8.679  24.558 -0.0604 -0.1188 -0.1948
  284BOLB   C4D 6816  16.682   8.748  24.248  0.0718 -0.0583 -0.0114
  285BOLB   NC1 6817  23.785  14.364  20.315  0.1442  0.0371  0.3915
  285BOLB   PO1 6818  23.897  13.917  20.234 -0.2908  0.0470 -0.2067
  285BOLB   GL1 6819  23.964  13.801  20.620 -0.0293  0.3075  0.0658
  285BOLB   GL2 6820  24.220  14.157  20.700  0.0070 -0.1160  0.1898
  285BOLB   C1A 6821  24.017  13.885  21.109  0.0400  0.0084 -0.0991
  285BOLB   C2A 6822  24.149  13.840  21.445  0.3263 -0.1338  0.0880
  285BOLB   C3A 6823  24.155  13.721  21.991  0.1693  0.0081 -0.1751
  285BOLB   C4A 6824  24.402  13.790  22.442 -0.2950 -0.1266  0.1122
  285BOLB   C1B 6825  24.401  14.284  21.121 -0.0096  0.3009 -0.4535
  285BOLB   C2B 6826  24.598  14.371  21.442  0.0065  0.2860  0.2247
  285BOLB   C3B 6827  24.728  14.525  21.869 -0.1573 -0.0894  0.2469
  285BOLB   C4B 6828  24.889  14.610  22.279 -0.1816  0.3232 -0.2586
  285BOLB   NC2 6829  25.509  13.137  24.811  0.2415  0.2656 -0.3332
  285BOLB   PO2 6830  25.435  13.277  24.432  0.1198 -0.1119  0.0876
  285BOLB   GL3 6831  25.307  13.474  24.061 -0.0315 -0.0854  0.1379
  285BOLB   GL4 6832  25.413  13.224  23.870  0.1338  0.2957 -0.0501
  285BOLB   C1C 6833  25.232  13.694  23.672  0.1370 -0.2258  0.4738
  285BOLB   C2C 6834  24.828  13.617  23.485  0.0990  0.0937 -0.2608
  285BOLB   C3C 6835  24.662  13.870  23.273  0.4235 -0.0536 -0.1291
  285BOLB   C4C 6836  24.466  13.890  22.856  0.0007  0.0097 -0.2195
  285BOLB   C1D 6837  25.617  13.405  23.407  0.4881  0.1383 -0.2522
  285BOLB   C2D 6838  25.387  13.440  23.013  0.0390 -0.0209 -0.0969
  285BOLB   C3D 6839  25.370  13.287  22.671  0.2936 -0.1898 -0.2491
  285BOLB   C4D 6840  25.041  13.141  22.436  0.2043 -0.1792 -0.4410
  286BOLB   NC1 6841  18.602  20.060  23.618 -0.0579  0.1163  0.1415
  286BOLB   PO1 6842  18.210  20.247  23.908 -0.5444 -0.0909 -0.1302
  286BOLB   GL1 6843  18.329  20.428  24.275 -0.2272 -0.2208  0.0651
  286BOLB   GL2 6844  18.601  20.697  24.264  0.3405 -0.2350 -0.1856
  286BOLB   C1A 6845  18.428  20.526  24.737  0.3634  0.1820 -0.3966
  286BOLB   C2A 6846  18.470  20.860  24.957  0.0027  0.0597 -0.0035
  286BOLB   C3A 6847  18.677  20.930  25.250 -0.1563 -0.0002 -0.1910
  286BOLB   C4A 6848  18.988  20.933  25.552 -0.2594 -0.3007  0.0190
  286BOLB   C1B 6849  18.790  20.819  24.612  0.1277  0.0885 -0.4661
  286BOLB   C2B 6850  19.022  21.087  24.950  0.1385  0.1223  0.2224
  286BOLB   C3B 6851  19.006  21.477  25.125  0.0999  0.0566 -0.0054
  286BOLB   C4B 6852  18.828  21.755  25.451 -0.3992  0.0563 -0.3108
  286BOLB   NC2 6853  20.539  21.509  27.216 -0.2975  0.0180  0.0323
  286BOLB   PO2 6854  20.366  21.968  27.128  0.2834 -0.0445 -0.1861
  286BOLB   GL3 6855  19.967  21.864  26.970 -0.0860  0.0418 -0.1268
  286BOLB   GL4 6856  19.811  22.158  26.813 -0.1848 -0.0040  0.2508
  286BOLB   C1C 6857  19.866  21.559  26.730 -0.0868  0.1652 -0.0083
  286BOLB   C2C 6858  19.833  21.227  26.509 -0.1199  0.0116  0.3426
  286BOLB   C3C 6859  19.662  21.076  26.160  0.1529 -0.2102 -0.2450
  286BOLB   C4C 6860  19.314  21.101  25.876 -0.2113  0.1354 -0.2274
  286BOLB   C1D 6861  19.804  21.968  26.434  0.1760 -0.0819 -0.4502
  286BOLB   C2D 6862  19.954  21.598  26.179  0.0861 -0.1828  0.0110
  286BOLB   C3D 6863  19.690  21.467  25.810 -0.0956  0.1440 -0.0656
  286BOLB   C4D 6864  19.217  21.460  25.578 -0.2278  0.0390 -0.1878
  287BOLB   NC1 6865  17.622  11.929  23.035 -0.0529 -0.1487  0.1505
  287BOLB   PO1 6866  17.842  11.592  23.205  0.0034  0.2346  0.0548
  287BOLB   GL1 6867  17.804  11.228  23.379  0.0839  0.2200  0.1938
  287BOLB   GL2 6868  17.403  11.128  23.488 -0.1350 -0.2031  0.1723
  287BOLB   C1A 6869  17.863  11.076  23.780  0.2344 -0.0362  0.2189
  287BOLB   C2A 6870  17.794  10.832  24.139 -0.0770 -0.1014 -0.0142
  287BOLB   C3A 6871  17.758  10.498  24.388  0.0440  0.1770  0.0206
  287BOLB   C4A 6872  17.574  10.463  24.704  0.2455 -0.2970 -0.0818
  287BOLB   C1B 6873  17.443  11.161  23.968 -0.4636 -0.3601  0.3836
  287BOLB   C2B 6874  17.449  10.985  24.403  0.0709  0.0308 -0.0238
  287BOLB   C3B 6875  17.102  11.134  24.789 -0.2204  0.3940 -0.0707
  287BOLB   C4B 6876  17.082  11.324  25.258  0.1847  0.2676  0.1259
  287BOLB   NC2 6877  18.236   9.849  27.217 -0.4614  0.2264  0.0025
  287BOLB   PO2 6878  18.224   9.997  26.788 -0.0345 -0.1166 -0.2000
  287BOLB   GL3 6879  17.949  10.012  26.463 -0.1976 -0.2544  0.0087
  287BOLB   GL4 6880  17.743  10.338  26.602  0.1351  0.1097 -0.1768
  287BOLB   C1C 6881  17.793  10.122  26.046  0.3356 -0.2129  0.0819
  287BOLB   C2C 6882  17.419  10.130  25.803 -0.1171  0.0304  0.1394
  287BOLB   C3C 6883  17.221  10.256  25.437 -0.0148 -0.3999  0.0841
  287BOLB   C4C 6884  17.553  10.409  25.118  0.0895  0.0288  0.0897
  287BOLB   C1D 6885  17.484  10.406  26.335 -0.4833  0.0035 -0.1740
  287BOLB   C2D 6886  17.442  10.669  25.983  0.0117  0.2154 -0.3524
  287BOLB   C3D 6887  17.309  10.756  25.647  0.0570 -0.1964  0.1056
  287BOLB   C4D 6888  17.328  10.912  25.282 -0.1638  0.3285 -0.1670
  288BOLB   NC1 6889  16.246  11.916  23.840  0.3146  0.1228  0.2466
  288BOLB   PO1 6890  16.125  12.235  24.050  0.2086  0.0385  0.1356
  288BOLB   GL1 6891  16.292  11.955  24.349  0.0869  0.2942  0.0356
  288BOLB   GL2 6892  16.227  12.107  24.580 -0.1189 -0.1636  0.0623
  288BOLB   C1A 6893  16.188  11.628  24.622 -0.2152  0.0773 -0.1319
  288BOLB   C2A 6894  16.168  11.284  24.919 -0.0585 -0.0722  0.0556
  288BOLB   C3A 6895  16.187  11.022  25.239  0.0937 -0.3198 -0.0331
  288BOLB   C4A 6896  16.090  10.904  25.663 -0.0589  0.2573 -0.1227
  288BOLB   C1B 6897  16.167  12.432  24.701  0.1025  0.2512 -0.0097
  288BOLB   C2B 6898  16.293  12.524  25.049 -0.0079 -0.3149 -0.3945
  288BOLB   C3B 6899  16.534  12.529  25.512  0.1843 -0.0802  0.0648
  288BOLB   C4B 6900  16.911  12.534  25.788 -0.2061  0.2440 -0.0001
  288BOLB   NC2 6901  14.535  10.395  27.828 -0.2046  0.1453 -0.0005
  288BOLB   PO2 6902  14.937  10.374  27.604  0.1075  0.2345  0.1147
  288BOLB   GL3 6903  15.019  10.606  27.298 -0.1461  0.1897 -0.1549
  288BOLB   GL4 6904  14.979  10.933  27.265  0.1035 -0.0068  0.1122
  288BOLB   C1C 6905  15.236  10.463  26.958 -0.1367 -0.3811 -0.1603
  288BOLB   C2C 6906  15.470  10.464  26.675 -0.1199  0.1301 -0.0388
  288BOLB   C3C 6907  15.837  10.599  26.514  0.0864  0.3385  0.2187
  288BOLB   C4C 6908  15.901  10.852  26.118  0.2087  0.4590  0.0015
  288BOLB   C1D 6909  14.883  10.923  26.822  0.0672 -0.0477  0.1991
  288BOLB   C2D 6910  14.752  11.159  26.480  0.1862  0.0149  0.1870
  288BOLB   C3D 6911  14.579  11.280  26.061 -0.1634 -0.2158 -0.3517
  288BOLB   C4D 6912  14.398  11.255  25.613  0.0891 -0.1009 -0.0805
  289BOLB   NC1 6913  21.082  11.582  20.806  0.0844 -0.0602 -0.0921
  289BOLB   PO1 6914  21.467  11.520  21.141 -0.2161  0.1257 -0.2353
  289BOLB   GL1 6915  21.773  11.240  21.272  0.2071 -0.4196 -0.1151
  289BOLB   GL2 6916  22.054  11.177  21.042  0.0305 -0.1648 -0.0500
  289BOLB   C1A 6917  21.957  10.846  21.555  0.1633 -0.1738  0.1581
  289BOLB   C2A 6918  22.102  10.661  21.857 -0.2618 -0.1043  0.2802
  289BOLB   C3A 6919  22.289  10.358  22.177  0.0973  0.0636 -0.0659
  289BOLB   C4A 6920  22.706  10.144  22.313 -0.2773 -0.0193  0.1015
  289BOLB   C1B 6921  22.203  10.760  20.937 -0.2047 -0.3056  0.1500
  289BOLB   C2B 6922  22.273  10.457  21.241  0.1062 -0.2166 -0.3151
  289BOLB   C3B 6923  22.451  10.189  21.570 -0.0618  0.0129 -0.0655
  289BOLB   C4B 6924  22.629   9.997  21.860  0.3149  0.0505 -0.1068
  289BOLB   NC2 6925  24.751   8.559  23.163 -0.1818 -0.0101  0.0641
  289BOLB   PO2 6926  24.355   8.496  23.202  0.0190 -0.1110 -0.1449
  289BOLB   GL3 6927  24.058   8.706  23.016 -0.0995  0.0477  0.1768
  289BOLB   GL4 6928  23.794   8.565  23.062 -0.1718  0.0910  0.3436
  289BOLB   C1C 6929  23.883   9.002  22.766 -0.0227  0.0606  0.1043
  289BOLB   C2C 6930  23.826   9.412  22.550  0.0737 -0.1633  0.2000
  289BOLB   C3C 6931  23.549   9.684  22.447  0.2970  0.2315  0.1940
  289BOLB   C4C 6932  23.073   9.829  22.284 -0.1585  0.0194  0.0918
  289BOLB   C1D 6933  23.482   8.747  22.874  0.0753  0.1435 -0.2252
  289BOLB   C2D 6934  23.069   8.914  22.828  0.3314 -0.0410  0.1943
  289BOLB   C3D 6935  22.869   9.266  22.881 -0.0851 -0.1491  0.0009
  289BOLB   C4D 6936  22.933   9.669  22.728 -0.1749 -0.1154  0.0967
  290BOLB   NC1 6937  21.430  17.014  22.667  0.1476  0.3855 -0.0962
  290BOLB   PO1 6938  21.149  17.133  23.000  0.0524  0.0581  0.4768
  290BOLB   GL1 6939  21.289  17.251  23.409  0.3468  0.3274  0.0290
  290BOLB   GL2 6940  21.054  17.455  23.566 -0.0963  0.0561 -0.1864
  290BOLB   C1A 6941  21.526  17.127  23.744 -0.1430 -0.0905  0.1610
  290BOLB   C2A 6942  21.686  17.137  24.207 -0.0926 -0.0340  0.1303
  290BOLB   C3A 6943  21.815  17.379  24.554  0.0929  0.0554 -0.3806
  290BOLB   C4A 6944  21.940  17.419  24.874  0.0475 -0.0766 -0.2177
  290BOLB   C1B 6945  21.033  17.637  23.972  0.1619  0.2127  0.2328
  290BOLB   C2B 6946  21.073  17.785  24.360 -0.3314  0.0332 -0.0982
  290BOLB   C3B 6947  21.268  17.765  24.678 -0.1650 -0.1407 -0.2317
  290BOLB   C4B 6948  21.432  17.701  25.079  0.2009  0.0879 -0.3245
  290BOLB   NC2 6949  24.423  18.629  25.469 -0.2863  0.2258  0.2552
  290BOLB   PO2 6950  24.247  18.484  25.858  0.3226  0.1323 -0.1258
  290BOLB   GL3 6951  23.887  18.341  25.681 -0.1349  0.1051 -0.3450
  290BOLB   GL4 6952  23.857  18.002  25.680  0.1518 -0.0903 -0.1000
  290BOLB   C1C 6953  23.566  18.279  25.306 -0.1560  0.1744 -0.1855
  290BOLB   C2C 6954  23.202  17.928  25.110  0.0994  0.0968  0.0254
  290BOLB   C3C 6955  22.684  17.838  25.115 -0.4591 -0.1982  0.1013
  290BOLB   C4C 6956  22.322  17.561  24.965 -0.0062  0.0048 -0.1198
  290BOLB   C1D 6957  23.688  17.802  25.357 -0.3141  0.0195  0.2317
  290BOLB   C2D 6958  23.320  17.456  25.245  0.1628 -0.0336 -0.3007
  290BOLB   C3D 6959  23.117  17.445  25.005 -0.4310 -0.0479  0.1558
  290BOLB   C4D 6960  22.685  17.250  24.842 -0.5388 -0.0788 -0.0874
  291BOLB   NC1 6961  17.099  14.134  24.118  0.2947 -0.0678  0.0117
  291BOLB   PO1 6962  17.169  13.728  24.178 -0.2337  0.0596 -0.2550
  291BOLB   GL1 6963  17.266  13.563  24.552 -0.3288 -0.1954 -0.1843
  291BOLB   GL2 6964  17.443  13.308  24.581  0.1672 -0.1594 -0.5284
  291BOLB   C1A 6965  17.425  13.622  25.009  0.0792 -0.3668 -0.0720
  291BOLB   C2A 6966  17.480  13.477  25.343  0.0765  0.2859 -0.2740
  291BOLB   C3A 6967  17.607  13.361  25.706  0.1630  0.2841  0.2605
  291BOLB   C4A 6968  17.930  13.403  25.932 -0.2952 -0.2189 -0.1323
  291BOLB   C1B 6969  17.580  13.156  24.913  0.0639 -0.1401 -0.1470
  291BOLB   C2B 6970  17.826  13.085  25.303 -0.0804 -0.0093  0.0343
  291BOLB   C3B 6971  17.928  12.894  25.730 -0.0191  0.1473  0.2313
  291BOLB   C4B 6972  17.799  12.893  26.072  0.4337 -0.1766 -0.1204
  291BOLB   NC2 6973  19.622  12.659  27.459 -0.4149 -0.2279 -0.2501
  291BOLB   PO2 6974  19.855  12.610  27.112 -0.0772  0.0397  0.1443
  291BOLB   GL3 6975  19.346  12.721  27.003 -0.0392 -0.0318 -0.1074
  291BOLB   GL4 6976  19.377  13.152  26.882  0.0817  0.0321  0.1289
  291BOLB   C1C 6977  18.970  12.737  26.736 -0.0736  0.2332 -0.3252
  291BOLB   C2C 6978  18.680  12.907  26.549 -0.4304 -0.2824 -0.1912
  291BOLB   C3C 6979  18.271  13.073  26.394  0.0428  0.1538  0.0374
  291BOLB   C4C 6980  18.068  13.425  26.357  0.1284  0.2338  0.1999
  291BOLB   C1D 6981  19.220  13.524  26.589 -0.2483  0.2441 -0.1285
  291BOLB   C2D 6982  19.173  13.699  26.199 -0.0904  0.2209  0.3896
  291BOLB   C3D 6983  19.122  14.005  25.971 -0.3049  0.2859 -0.0537
  291BOLB   C4D 6984  19.408  14.103  25.759 -0.0642 -0.1051  0.0352
  292BOLB   NC1 6985  18.022   8.996  22.246 -0.2865 -0.1796  0.0966
  292BOLB   PO1 6986  17.602   8.889  22.396 -0.0101  0.2503 -0.0748
  292BOLB   GL1 6987  17.704   8.426  22.479  0.1492  0.2058  0.0773
  292BOLB   GL2 6988  17.322   8.368  22.509 -0.1547 -0.0537 -0.3414
  292BOLB   C1A 6989  17.853   8.128  22.741  0.2336 -0.2554 -0.0230
  292BOLB   C2A 6990  17.913   8.110  23.197  0.0065  0.1614 -0.3849
  292BOLB   C3A 6991  18.021   8.096  23.588 -0.0879  0.2444  0.4063
  292BOLB   C4A 6992  18.132   8.159  24.023  0.0739  0.2867  0.1700
  292BOLB   C1B 6993  17.388   8.111  22.895 -0.0164 -0.1285 -0.0286
  292BOLB   C2B 6994  17.470   7.742  23.239  0.3104  0.0480 -0.3392
  292BOLB   C3B 6995  17.507   7.661  23.591  0.0956 -0.1984 -0.1540
  292BOLB   C4B 6996  17.237   7.575  23.878  0.1756 -0.1503  0.0208
  292BOLB   NC2 6997  19.271   6.820  24.989 -0.1107  0.2322 -0.1211
  292BOLB   PO2 6998  19.609   7.080  24.980  0.1733 -0.0542  0.0443
  292BOLB   GL3 6999  19.611   7.342  24.632 -0.0566 -0.0072  0.0517
  292BOLB   GL4 7000  19.676   7.173  24.307  0.0537  0.2187 -0.1113
  292BOLB   C1C 7001  19.348   7.629  24.603 -0.1619 -0.1001  0.0600
  292BOLB   C2C 7002  19.142   8.033  24.776  0.2158 -0.0372  0.0778
  292BOLB   C3C 7003  18.891   8.353  24.599  0.0068  0.0919  0.1097
  292BOLB   C4C 7004  18.516   8.279  24.291  0.0994  0.2576  0.0071
  292BOLB   C1D 7005  19.587   7.036  23.842 -0.0772  0.1902  0.0785
  292BOLB   C2D 7006  19.666   7.375  23.391  0.4905 -0.1222  0.1579
  292BOLB   C3D 7007  19.807   7.567  23.009 -0.1244  0.0689 -0.2539
  292BOLB   C4D 7008  19.701   7.799  22.721 -0.1002 -0.1602  0.0637
  293BOLB   NC1 7009  20.131   9.743  20.464  0.1603 -0.0809  0.0803
  293BOLB   PO1 7010  20.290   9.382  20.321  0.2051  0.1115  0.0654
  293BOLB   GL1 7011  20.408   9.051  20.522 -0.1638 -0.1589  0.2273
  293BOLB   GL2 7012  20.107   9.000  20.636  0.0258 -0.1349 -0.1697
  293BOLB   C1A 7013  20.704   8.738  20.889  0.1444 -0.0111  0.0961
  293BOLB   C2A 7014  21.093   8.597  21.076 -0.1679  0.2269  0.0486
  293BOLB   C3A 7015  21.336   8.327  21.301 -0.0571 -0.0032  0.0958
  293BOLB   C4A 7016  21.515   8.114  21.624 -0.2793 -0.2287 -0.2623
  293BOLB   C1B 7017  20.264   8.545  20.752  0.1596  0.0717 -0.0093
  293BOLB   C2B 7018  20.589   8.352  21.108  0.1056  0.3450 -0.0189
  293BOLB   C3B 7019  20.859   8.252  21.443  0.2643 -0.2420  0.2679
  293BOLB   C4B 7020  20.974   8.122  21.790  0.0757  0.2011  0.2500
  293BOLB   NC2 7021  23.049   6.962  23.142 -0.3570 -0.0412 -0.2348
  293BOLB   PO2 7022  22.890   6.680  22.796 -0.1438  0.1159  0.1034
  293BOLB   GL3 7023  22.752   7.078  22.584  0.2844  0.0157 -0.3322
  293BOLB   GL4 7024  22.472   6.931  22.475 -0.4447  0.2501 -0.0561
  293BOLB   C1C 7025  22.828   7.576  22.406 -0.0804 -0.2212 -0.2963
  293BOLB   C2C 7026  22.592   7.772  22.140  0.1806  0.3302 -0.1873
  293BOLB   C3C 7027  22.184   7.798  21.804 -0.0025  0.2904 -0.1436
  293BOLB   C4C 7028  21.920   8.056  21.606  0.0224 -0.0635 -0.0152
  293BOLB   C1D 7029  22.427   7.323  22.202 -0.2862  0.3108 -0.1590
  293BOLB   C2D 7030  22.110   7.716  22.293 -0.0951 -0.0921  0.1125
  293BOLB   C3D 7031  21.880   8.094  22.073  0.0764 -0.1654  0.1228
  293BOLB   C4D 7032  21.415   8.246  22.097 -0.0655  0.0644 -0.1345
  294BOLB   NC1 7033  18.347  11.720  23.252  0.2031  0.0844 -0.1265
  294BOLB   PO1 7034  18.098  12.052  23.227 -0.4496 -0.0842 -0.0526
  294BOLB   GL1 7035  17.975  11.777  23.651  0.0261  0.2306  0.0080
  294BOLB   GL2 7036  18.255  11.472  23.713  0.0121 -0.2297 -0.3573
  294BOLB   C1A 7037  17.939  11.583  24.065  0.1626 -0.2995 -0.0735
  294BOLB   C2A 7038  18.067  11.300  24.214 -0.2702 -0.0643 -0.1827
  294BOLB   C3A 7039  17.974  10.988  24.589  0.0310  0.1418  0.0948
  294BOLB   C4A 7040  17.803  10.814  24.958 -0.1435 -0.0172 -0.2062
  294BOLB   C1B 7041  18.425  11.611  24.151  0.1138  0.4685  0.1237
  294BOLB   C2B 7042  18.650  11.616  24.545 -0.0909 -0.1518  0.0992
  294BOLB   C3B 7043  18.906  11.586  24.843 -0.1765  0.3413  0.1584
  294BOLB   C4B 7044  18.890  11.454  25.216 -0.0263  0.2248 -0.2038
  294BOLB   NC2 7045  18.617  11.045  27.450  0.1619 -0.1204  0.1598
  294BOLB   PO2 7046  18.475  10.799  27.134  0.1563  0.3769 -0.0948
  294BOLB   GL3 7047  18.267  10.976  26.824  0.2741 -0.0868 -0.0129
  294BOLB   GL4 7048  17.920  10.901  26.824 -0.2237 -0.0614  0.0892
  294BOLB   C1C 7049  18.240  11.058  26.352 -0.1293  0.0707 -0.1060
  294BOLB   C2C 7050  18.088  11.168  26.117  0.0160  0.0635  0.4208
  294BOLB   C3C 7051  17.796  11.011  25.808 -0.4886  0.1708 -0.1885
  294BOLB   C4C 7052  17.853  10.859  25.325 -0.1016 -0.0898 -0.0597
  294BOLB   C1D 7053  17.796  10.804  26.369 -0.0577  0.0139  0.2895
  294BOLB   C2D 7054  17.924  10.615  26.078 -0.3212 -0.0252 -0.0011
  294BOLB   C3D 7055  18.167  10.423  25.672 -0.3568  0.1174 -0.0319
  294BOLB   C4D 7056  18.127  10.481  25.254  0.0655  0.1237  0.2723
  295BOLB   NC1 7057  13.721  17.923  24.671  0.1315  0.0781  0.1054
  295BOLB   PO1 7058  13.484  17.608  24.533 -0.1905 -0.1928 -0.0731
  295BOLB   GL1 7059  13.531  17.576  25.056 -0.0128  0.1308  0.1372
  295BOLB   GL2 7060  13.262  17.556  25.163  0.2839  0.1236 -0.0797
  295BOLB   C1A 7061  13.580  17.470  25.502  0.1122  0.3504 -0.0298
  295BOLB   C2A 7062  13.627  17.365  25.932  0.1446  0.1252 -0.0417
  295BOLB   C3A 7063  13.794  17.392  26.310  0.1086  0.0411  0.0799
  295BOLB   C4A 7064  13.978  17.738  26.575  0.2767  0.2132 -0.2611
  295BOLB   C1B 7065  13.077  17.249  25.521  0.1719 -0.0716 -0.3512
  295BOLB   C2B 7066  13.133  17.087  25.854 -0.1364  0.1367 -0.0027
  295BOLB   C3B 7067  13.267  17.000  26.236  0.1751 -0.2007  0.1916
  295BOLB   C4B 7068  13.541  16.854  26.508  0.2828 -0.0686 -0.3567
  295BOLB   NC2 7069  13.888  17.877  28.934 -0.0124 -0.0710  0.0843
  295BOLB   PO2 7070  14.197  17.775  28.550 -0.3289  0.0334  0.0580
  295BOLB   GL3 7071  14.187  17.510  28.254  0.1650  0.1681 -0.0965
  295BOLB   GL4 7072  13.890  17.436  28.195 -0.1288  0.3137  0.3672
  295BOLB   C1C 7073  14.332  17.745  27.915 -0.1540 -0.2692  0.0824
  295BOLB   C2C 7074  14.392  18.148  27.600  0.3844  0.1831 -0.0785
  295BOLB   C3C 7075  14.340  18.121  27.180 -0.5075  0.3574  0.5676
  295BOLB   C4C 7076  14.308  17.799  26.946  0.1777 -0.1109 -0.2845
  295BOLB   C1D 7077  13.888  17.100  27.974 -0.2349  0.2803 -0.2046
  295BOLB   C2D 7078  14.047  16.689  27.909  0.2342  0.0138 -0.1684
  295BOLB   C3D 7079  14.364  16.293  27.891  0.0847  0.2934  0.0886
  295BOLB   C4D 7080  14.786  16.332  27.820  0.0712  0.1419 -0.1840
  296BOLB   NC1 7081  10.545  13.076  24.014 -0.2755 -0.0761 -0.1121
  296BOLB   PO1 7082  10.372  13.464  23.974 -0.0764 -0.0929  0.1023
  296BOLB   GL1 7083  10.217  13.256  24.302  0.0329  0.1263  0.0676
  296BOLB   GL2 7084   9.861  13.065  24.325  0.3412 -0.2135 -0.4751
  296BOLB   C1A 7085  10.075  13.022  24.771 -0.1247 -0.1088  0.0309
  296BOLB   C2A 7086  10.092  12.980  25.208 -0.3629  0.0586  0.0406
  296BOLB   C3A 7087   9.852  13.078  25.590  0.0014 -0.2230 -0.0376
  296BOLB   C4A 7088   9.555  12.858  25.768  0.0044  0.5531 -0.0559
  296BOLB   C1B 7089   9.607  12.995  24.730 -0.1030 -0.0915  0.0495
  296BOLB   C2B 7090   9.128  12.992  24.918 -0.1258 -0.0393  0.2026
  296BOLB   C3B 7091   8.672  12.868  25.122 -0.2317 -0.4139  0.0892
  296BOLB   C4B 7092   8.386  13.250  25.311 -0.0569 -0.0301 -0.1471
  296BOLB   NC2 7093   7.856  11.863  26.635  0.0956 -0.0544 -0.0990
  296BOLB   PO2 7094   7.582  12.252  26.786 -0.0179 -0.1701 -0.1569
  296BOLB   GL3 7095   7.734  12.255  26.310  0.3340 -0.0631 -0.0276
  296BOLB   GL4 7096   7.430  12.286  26.220 -0.2242 -0.1576 -0.2220
  296BOLB   C1C 7097   7.920  12.522  25.973  0.1102  0.0281  0.3499
  296BOLB   C2C 7098   8.233  12.778  25.615  0.0780 -0.3236 -0.2215
  296BOLB   C3C 7099   8.709  12.908  25.691 -0.0128  0.0466 -0.0252
  296BOLB   C4C 7100   9.153  12.799  25.533  0.1763 -0.0212 -0.2658
  296BOLB   C1D 7101   7.405  12.656  25.924  0.0549  0.1099  0.0435
  296BOLB   C2D 7102   7.536  12.974  25.699  0.2144 -0.1549  0.1137
  296BOLB   C3D 7103   7.773  13.125  25.441  0.0261  0.2631  0.1155
  296BOLB   C4D 7104   7.897  13.212  25.037 -0.3094 -0.2012  0.0030
  297BOLB   NC1 7105  15.508  18.236  24.211  0.0437  0.2136 -0.0996
  297BOLB   PO1 7106  15.760  18.612  24.220  0.0943 -0.0231  0.3574
  297BOLB   GL1 7107  15.869  18.375  24.652 -0.0343  0.0460  0.1686
  297BOLB   GL2 7108  15.661  18.084  24.694  0.2701  0.2779 -0.0487
  297BOLB   C1A 7109  16.056  18.492  25.081 -0.0181 -0.0677 -0.3160
  297BOLB   C2A 7110  16.060  18.557  25.511  0.1635  0.2411 -0.1113
  297BOLB   C3A 7111  15.857  18.385  25.882 -0.0082  0.0750  0.0372
  297BOLB   C4A 7112  15.946  18.231  26.289  0.0525  0.0912  0.2966
  297BOLB   C1B 7113  15.496  18.071  25.077 -0.2796  0.2454 -0.0600
  297BOLB   C2B 7114  15.519  18.032  25.447 -0.1510 -0.0013 -0.3473
  297BOLB   C3B 7115  15.419  18.085  25.857 -0.0349  0.0053  0.2104
  297BOLB   C4B 7116  15.430  18.136  26.181 -0.1056 -0.3101 -0.0800
  297BOLB   NC2 7117  16.723  17.979  28.369  0.5875 -0.0189 -0.4653
  297BOLB   PO2 7118  16.657  18.433  28.439  0.3229  0.0585  0.0506
  297BOLB   GL3 7119  16.599  18.279  27.971  0.1389  0.0423 -0.1913
  297BOLB   GL4 7120  16.301  18.536  27.904  0.3163 -0.1166 -0.2424
  297BOLB   C1C 7121  16.275  18.085  27.768  0.1201  0.4464 -0.0889
  297BOLB   C2C 7122  16.157  17.861  27.358 -0.1148 -0.1947 -0.0444
  297BOLB   C3C 7123  15.920  17.917  27.054 -0.2739 -0.0286 -0.1843
  297BOLB   C4C 7124  16.114  18.031  26.695 -0.2985 -0.2172  0.0434
  297BOLB   C1D 7125  16.594  18.411  27.499 -0.0173 -0.0209 -0.0087
  297BOLB   C2D 7126  16.756  18.532  27.086  0.0903 -0.0308 -0.3662
  297BOLB   C3D 7127  17.142  18.372  26.886  0.1059 -0.1915 -0.2823
  297BOLB   C4D 7128  17.575  18.216  26.988 -0.3370  0.1949 -0.0766
  298BOLB   NC1 7129  12.945  10.829  23.438 -0.1661  0.0641 -0.0699
  298BOLB   PO1 7130  12.851  11.128  23.745  0.0703 -0.0132 -0.0963
  298BOLB   GL1 7131  12.962  10.917  24.145  0.0368 -0.2062  0.1877
  298BOLB   GL2 7132  12.990  10.658  24.010 -0.3320  0.0711 -0.2473
  298BOLB   C1A 7133  13.091  11.064  24.617 -0.0277  0.2181 -0.0678
  298BOLB   C2A 7134  13.263  10.806  24.997 -0.0427  0.0244 -0.0187
  298BOLB   C3A 7135  13.486  10.720  25.424 -0.1143  0.0269 -0.4019
  298BOLB   C4A 7136  13.512  10.524  25.784  0.1223 -0.0417 -0.0952
  298BOLB   C1B 7137  13.132  10.572  24.447 -0.2550  0.1425 -0.0460
  298BOLB   C2B 7138  13.108  10.328  24.780  0.0776  0.1989  0.3223
  298BOLB   C3B 7139  13.043  10.082  25.153  0.0368  0.2115 -0.1164
  298BOLB   C4B 7140  12.875   9.781  25.425  0.1956 -0.3882 -0.2144
  298BOLB   NC2 7141  13.105  11.196  28.209 -0.5082 -0.1227  0.0249
  298BOLB   PO2 7142  13.260  10.776  27.947 -0.0397  0.0417 -0.0001
  298BOLB   GL3 7143  13.117  10.794  27.561 -0.0174  0.2435 -0.1369
  298BOLB   GL4 7144  13.472  10.685  27.456  0.0255 -0.1497 -0.0875
  298BOLB   C1C 7145  12.982  11.064  27.256 -0.0914 -0.2013  0.3640
  298BOLB   C2C 7146  12.961  11.103  26.802 -0.0535 -0.1756  0.2037
  298BOLB   C3C 7147  13.233  11.112  26.471  0.1118 -0.1186 -0.0379
  298BOLB   C4C 7148  13.454  10.838  26.164  0.0514 -0.1069  0.1655
  298BOLB   C1D 7149  13.422  10.872  26.964 -0.1694  0.0060 -0.1010
  298BOLB   C2D 7150  13.766  10.784  26.630  0.1665 -0.1535 -0.0632
  298BOLB   C3D 7151  13.950  10.929  26.239 -0.2842 -0.0187 -0.2145
  298BOLB   C4D 7152  14.070  11.166  26.002 -0.3670 -0.0930  0.1215
  299BOLB   NC1 7153  15.595  10.533  23.366  0.1135  0.2244  0.1316
  299BOLB   PO1 7154  15.915  10.188  23.356  0.4066 -0.3448  0.2433
  299BOLB   GL1 7155  16.106  10.018  23.725  0.4062  0.1214  0.0813
  299BOLB   GL2 7156  16.539  10.077  23.696  0.2598  0.0319  0.2870
  299BOLB   C1A 7157  16.145   9.632  23.869  0.2694 -0.0917 -0.0663
  299BOLB   C2A 7158  16.291   9.546  24.169 -0.1609  0.1106 -0.3171
  299BOLB   C3A 7159  16.431   9.423  24.640  0.2145 -0.0038 -0.0924
  299BOLB   C4A 7160  16.338   9.155  24.943 -0.1227 -0.3369  0.0674
  299BOLB   C1B 7161  16.513  10.031  24.102  0.1187  0.3227 -0.2093
  299BOLB   C2B 7162  16.503   9.938  24.614  0.1810  0.0742  0.0285
  299BOLB   C3B 7163  16.487  10.157  24.935  0.1093 -0.1717  0.0363
  299BOLB   C4B 7164  16.314  10.468  25.318 -0.0692 -0.0414  0.0482
  299BOLB   NC2 7165  15.784   9.352  27.284 -0.2670  0.1197  0.1232
  299BOLB   PO2 7166  16.047   9.777  27.220 -0.1688 -0.0961  0.0390
  299BOLB   GL3 7167  16.096   9.519  26.913 -0.0531 -0.3698  0.1220
  299BOLB   GL4 7168  15.801   9.520  26.764 -0.0223  0.3348 -0.0850
  299BOLB   C1C 7169  16.134   9.244  26.490  0.0738 -0.0221  0.1430
  299BOLB   C2C 7170  16.247   9.015  26.112 -0.1769 -0.1205  0.0151
  299BOLB   C3C 7171  16.202   9.001  25.638  0.5351  0.1212 -0.1249
  299BOLB   C4C 7172  16.384   9.021  25.243 -0.1909 -0.3816 -0.1366
  299BOLB   C1D 7173  15.400   9.407  26.469 -0.0783  0.0396  0.2329
  299BOLB   C2D 7174  15.042   9.382  26.234  0.2343 -0.4635  0.1021
  299BOLB   C3D 7175  14.557   9.485  26.128  0.0650  0.0221 -0.1503
  299BOLB   C4D 7176  14.291   9.707  25.898  0.1253 -0.0488 -0.2433
  300BOLB   NC1 7177  11.179  17.322  24.540  0.0439 -0.0804  0.1844
  300BOLB   PO1 7178  11.580  17.360  24.457  0.0108 -0.0203 -0.0109
  300BOLB   GL1 7179  11.576  17.260  24.853 -0.0459 -0.2799 -0.4377
  300BOLB   GL2 7180  11.849  17.256  25.001 -0.0076  0.0976  0.0741
  300BOLB   C1A 7181  11.424  17.235  25.265 -0.2146  0.0076  0.3959
  300BOLB   C2A 7182  11.232  17.133  25.672 -0.1067  0.0287  0.0697
  300BOLB   C3A 7183  10.986  17.334  26.044  0.1878  0.1291  0.3032
  300BOLB   C4A 7184  10.941  17.241  26.487 -0.3798  0.1075  0.0039
  300BOLB   C1B 7185  11.985  17.249  25.413 -0.2257  0.1131  0.1555
  300BOLB   C2B 7186  12.103  17.162  25.930 -0.1062 -0.1622  0.0184
  300BOLB   C3B 7187  12.155  17.103  26.373  0.2781  0.1510  0.0420
  300BOLB   C4B 7188  12.523  16.825  26.630 -0.0953  0.0005  0.0309
  300BOLB   NC2 7189  11.677  16.493  28.413  0.2280 -0.2324 -0.0803
  300BOLB   PO2 7190  11.317  16.703  28.289  0.1498 -0.0320 -0.0136
  300BOLB   GL3 7191  11.545  16.417  27.977  0.2125 -0.0467 -0.1264
  300BOLB   GL4 7192  11.707  16.669  27.874  0.2856  0.2813  0.1786
  300BOLB   C1C 7193  11.844  16.286  27.628  0.1012  0.3228  0.0456
  300BOLB   C2C 7194  11.840  16.401  27.185 -0.1993  0.2759  0.0140
  300BOLB   C3C 7195  11.546  16.617  27.014  0.0059 -0.0411  0.0560
  300BOLB   C4C 7196  11.305  16.956  26.869 -0.0423  0.3028 -0.2194
  300BOLB   C1D 7197  12.055  17.024  27.762  0.2409  0.1689 -0.0021
  300BOLB   C2D 7198  11.986  17.461  27.691  0.2370  0.0778 -0.2801
  300BOLB   C3D 7199  12.204  17.754  27.810 -0.0033  0.1102  0.2246
  300BOLB   C4D 7200  12.639  17.740  27.883 -0.2190 -0.2651 -0.1122
  301BOLB   NC1 7201  17.997  20.640  23.823 -0.0615 -0.3403 -0.2578
  301BOLB   PO1 7202  18.242  21.017  23.609 -0.0391  0.0571 -0.0429
  301BOLB   GL1 7203  18.607  21.095  23.904  0.0578  0.0560 -0.0557
  301BOLB   GL2 7204  18.974  20.882  23.965  0.0161  0.0527  0.0444
  301BOLB   C1A 7205  18.708  21.222  24.285 -0.3129  0.0459 -0.0158
  301BOLB   C2A 7206  18.939  21.482  24.542  0.2753 -0.1051  0.0297
  301BOLB   C3A 7207  19.390  21.636  24.723 -0.0572  0.0596  0.1114
  301BOLB   C4A 7208  19.783  21.770  24.948 -0.0126 -0.0210  0.1902
  301BOLB   C1B 7209  19.176  21.037  24.425 -0.1829  0.1405  0.1111
  301BOLB   C2B 7210  19.518  21.173  24.857  0.1490 -0.1852 -0.3337
  301BOLB   C3B 7211  19.618  21.382  25.253 -0.3297  0.0756 -0.1057
  301BOLB   C4B 7212  19.847  21.764  25.420  0.1529 -0.2401  0.2043
  301BOLB   NC2 7213  20.578  22.396  27.050  0.0083  0.0122 -0.0040
  301BOLB   PO2 7214  20.623  22.745  26.818 -0.0475  0.0572 -0.1831
  301BOLB   GL3 7215  20.786  22.537  26.409 -0.2423  0.0487  0.1538
  301BOLB   GL4 7216  21.014  22.594  26.217 -0.0585  0.0606  0.2348
  301BOLB   C1C 7217  20.499  22.322  26.111  0.0580 -0.0965 -0.0258
  301BOLB   C2C 7218  20.433  22.323  25.687  0.0144 -0.0868 -0.1191
  301BOLB   C3C 7219  20.417  21.872  25.345  0.0499  0.1728  0.3281
  301BOLB   C4C 7220  20.241  21.633  25.005  0.0062 -0.3381 -0.2658
  301BOLB   C1D 7221  20.802  22.692  25.932  0.2709  0.2885 -0.4765
  301BOLB   C2D 7222  20.688  22.646  25.440  0.0318  0.3169 -0.3386
  301BOLB   C3D 7223  20.308  22.507  25.161 -0.3861 -0.2783 -0.1102
  301BOLB   C4D 7224  20.137  22.138  24.953 -0.0836  0.4128  0.2552
  302BOLB   NC1 7225  16.837  17.798  24.170 -0.1068 -0.0867  0.0316
  302BOLB   PO1 7226  16.442  17.868  24.239  0.2321 -0.1906  0.1768
  302BOLB   GL1 7227  16.563  17.943  24.634  0.1512 -0.0712  0.1770
  302BOLB   GL2 7228  16.444  18.193  24.845  0.2040 -0.3239 -0.0668
  302BOLB   C1A 7229  16.593  17.817  25.053 -0.1288 -0.0696 -0.3099
  302BOLB   C2A 7230  16.673  17.762  25.472  0.4344  0.1376 -0.1188
  302BOLB   C3A 7231  16.818  17.720  25.928  0.0608  0.2123  0.1817
  302BOLB   C4A 7232  16.888  17.605  26.369 -0.2581 -0.2970 -0.1783
  302BOLB   C1B 7233  16.445  18.233  25.336  0.1196  0.0239  0.3342
  302BOLB   C2B 7234  16.493  18.231  25.774  0.1012 -0.2959  0.2377
  302BOLB   C3B 7235  16.744  18.516  26.144 -0.0801  0.0240 -0.1609
  302BOLB   C4B 7236  16.853  18.608  26.471 -0.0991 -0.0920 -0.1394
  302BOLB   NC2 7237  17.134  18.650  28.623 -0.1046 -0.1536 -0.0568
  302BOLB   PO2 7238  17.481  18.713  28.381  0.2097 -0.0318  0.0420
  302BOLB   GL3 7239  17.169  18.604  28.091 -0.2013  0.3260  0.2089
  302BOLB   GL4 7240  16.847  18.735  28.067 -0.1123 -0.1234  0.1287
  302BOLB   C1C 7241  17.071  18.305  27.750  0.1779 -0.3318 -0.1317
  302BOLB   C2C 7242  17.158  18.070  27.300  0.0655 -0.0655  0.1563
  302BOLB   C3C 7243  17.183  17.907  27.027  0.0184  0.0589  0.0357
  302BOLB   C4C 7244  16.907  17.695  26.750 -0.1043  0.2736  0.0715
  302BOLB   C1D 7245  16.828  18.883  27.611 -0.0189  0.0455  0.0351
  302BOLB   C2D 7246  16.996  18.993  27.131 -0.1619 -0.1771 -0.4810
  302BOLB   C3D 7247  17.133  19.208  26.804  0.0641 -0.1750 -0.1026
  302BOLB   C4D 7248  17.098  19.206  26.369  0.2094  0.2068 -0.3248
  303BOLB   NC1 7249  19.313  23.002  22.566  0.0067 -0.4781 -0.4821
  303BOLB   PO1 7250  19.017  23.030  22.909 -0.2298 -0.2001 -0.3874
  303BOLB   GL1 7251  18.999  23.099  23.277 -0.0473 -0.0886 -0.0757
  303BOLB   GL2 7252  19.315  23.057  23.295  0.2598 -0.0607 -0.3505
  303BOLB   C1A 7253  19.001  23.150  23.747  0.2428 -0.1635 -0.3677
  303BOLB   C2A 7254  19.003  23.179  24.244  0.1245  0.1113 -0.0707
  303BOLB   C3A 7255  19.257  23.036  24.652  0.1588 -0.1758  0.0651
  303BOLB   C4A 7256  19.358  22.923  25.056 -0.3381 -0.0962 -0.0683
  303BOLB   C1B 7257  19.489  23.096  23.654 -0.0778  0.1034 -0.0603
  303BOLB   C2B 7258  19.444  23.125  24.097  0.1914  0.1583  0.2417
  303BOLB   C3B 7259  19.694  23.227  24.440  0.2183  0.2733  0.1610
  303BOLB   C4B 7260  19.991  23.260  24.712  0.1987  0.2700 -0.1225
  303BOLB   NC2 7261  19.825  22.383  27.885 -0.0124 -0.0739  0.1189
  303BOLB   PO2 7262  19.434  22.678  27.575  0.0205  0.1576 -0.0614
  303BOLB   GL3 7263  19.328  22.503  27.150  0.1278  0.3400  0.0669
  303BOLB   GL4 7264  19.032  22.311  27.144 -0.2840 -0.1576  0.2051
  303BOLB   C1C 7265  19.596  22.674  26.738  0.2642 -0.1337 -0.0387
  303BOLB   C2C 7266  19.446  22.843  26.292  0.0153 -0.2014  0.1725
  303BOLB   C3C 7267  19.528  22.903  25.838 -0.1405 -0.0428 -0.2259
  303BOLB   C4C 7268  19.604  22.861  25.429  0.2090 -0.1303 -0.2683
  303BOLB   C1D 7269  18.699  22.362  26.973 -0.1632  0.3873 -0.2164
  303BOLB   C2D 7270  18.402  22.522  26.741  0.2507 -0.2050  0.0462
  303BOLB   C3D 7271  18.553  22.747  26.400  0.0142 -0.0634  0.0946
  303BOLB   C4D 7272  18.662  22.783  25.882 -0.1389  0.2271  0.2394
  304BOLB   NC1 7273  18.619  10.857  22.843 -0.2552  0.0617  0.1925
  304BOLB   PO1 7274  18.386  10.579  22.560  0.0627  0.1248  0.2066
  304BOLB   GL1 7275  18.406  10.469  22.993 -0.1686 -0.0552 -0.1484
  304BOLB   GL2 7276  18.528  10.658  23.249  0.5019 -0.0127 -0.1456
  304BOLB   C1A 7277  18.302  10.139  23.379  0.1374 -0.1348 -0.1619
  304BOLB   C2A 7278  18.235  10.082  23.810 -0.2661  0.0056 -0.1143
  304BOLB   C3A 7279  18.045  10.133  24.157  0.0606  0.2112 -0.0242
  304BOLB   C4A 7280  18.054  10.240  24.649  0.2306  0.0288  0.1037
  304BOLB   C1B 7281  18.654  10.547  23.615  0.3241 -0.0432  0.0783
  304BOLB   C2B 7282  18.736  10.667  24.007  0.2815 -0.1975  0.1739
  304BOLB   C3B 7283  18.738  10.704  24.400  0.1861 -0.2179 -0.0288
  304BOLB   C4B 7284  18.882  10.658  24.774 -0.1838 -0.0016  0.3222
  304BOLB   NC2 7285  18.604   8.673  26.417  0.1938  0.2180 -0.4130
  304BOLB   PO2 7286  18.741   9.017  26.258  0.2076  0.1979 -0.2131
  304BOLB   GL3 7287  18.408   9.000  25.973 -0.1984 -0.2905  0.3649
  304BOLB   GL4 7288  18.156   8.833  26.093 -0.0421 -0.0405  0.1726
  304BOLB   C1C 7289  18.327   9.148  25.607 -0.0036 -0.1348 -0.3127
  304BOLB   C2C 7290  18.392   9.463  25.349  0.1393  0.0550  0.2192
  304BOLB   C3C 7291  18.232   9.868  25.256 -0.0324  0.0688 -0.2522
  304BOLB   C4C 7292  18.006  10.091  24.996  0.2948 -0.2010 -0.0115
  304BOLB   C1D 7293  18.248   8.596  25.687  0.2116 -0.2528  0.3488
  304BOLB   C2D 7294  18.077   8.293  25.363 -0.0047 -0.4798 -0.0382
  304BOLB   C3D 7295  17.988   8.097  24.984 -0.0346 -0.0224  0.2487
  304BOLB   C4D 7296  18.113   7.702  24.771  0.0354  0.1510  0.1543
  305BOLB   NC1 7297  19.670   8.894  19.631 -0.0428  0.3367 -0.2562
  305BOLB   PO1 7298  19.862   8.967  20.150  0.1427  0.0738  0.2427
  305BOLB   GL1 7299  20.277   8.729  20.176 -0.0212 -0.1418 -0.0757
  305BOLB   GL2 7300  20.141   8.478  20.333  0.0481 -0.1017 -0.1262
  305BOLB   C1A 7301  20.693   8.578  20.350  0.0470  0.1472 -0.0353
  305BOLB   C2A 7302  21.017   8.447  20.641  0.0454 -0.0203  0.0069
  305BOLB   C3A 7303  21.153   8.030  20.780 -0.3062  0.0638 -0.1145
  305BOLB   C4A 7304  21.398   7.619  20.840 -0.1845 -0.4321 -0.0250
  305BOLB   C1B 7305  20.389   8.142  20.603  0.3363  0.2191  0.0799
  305BOLB   C2B 7306  20.501   7.857  20.928  0.0118 -0.0892 -0.0087
  305BOLB   C3B 7307  20.840   7.705  21.132 -0.1420  0.1050 -0.2120
  305BOLB   C4B 7308  21.186   7.842  21.411  0.4355 -0.0089 -0.0486
  305BOLB   NC2 7309  21.977   5.380  21.581 -0.0920  0.0262 -0.2100
  305BOLB   PO2 7310  22.196   5.749  21.871  0.4027 -0.1352 -0.1809
  305BOLB   GL3 7311  21.850   6.034  21.790  0.5168  0.0432 -0.0955
  305BOLB   GL4 7312  21.959   6.389  21.711  0.3737 -0.0178 -0.2050
  305BOLB   C1C 7313  21.497   6.224  21.828 -0.0621  0.0977 -0.3050
  305BOLB   C2C 7314  21.311   6.610  21.563  0.2165 -0.0207  0.3772
  305BOLB   C3C 7315  21.289   6.881  21.263 -0.0850 -0.0619 -0.0225
  305BOLB   C4C 7316  21.454   7.174  21.011  0.1715 -0.0452 -0.1261
  305BOLB   C1D 7317  21.687   6.733  21.877 -0.1097 -0.0632  0.1205
  305BOLB   C2D 7318  21.522   7.102  21.927 -0.1808  0.1129  0.1566
  305BOLB   C3D 7319  21.454   7.388  22.231  0.3917  0.1309  0.1029
  305BOLB   C4D 7320  21.610   7.758  22.390 -0.1104 -0.2104 -0.3051
  306BOLB   NC1 7321  19.407  21.401  22.763 -0.0159  0.1114 -0.4158
  306BOLB   PO1 7322  19.791  21.684  22.870 -0.0825 -0.2325  0.1112
  306BOLB   GL1 7323  19.918  21.749  23.290  0.2127 -0.0801 -0.2716
  306BOLB   GL2 7324  19.675  21.997  23.395 -0.0079 -0.0588 -0.1963
  306BOLB   C1A 7325  20.287  21.656  23.422 -0.1449  0.3595 -0.0989
  306BOLB   C2A 7326  20.448  21.679  23.785  0.1941  0.3533  0.0320
  306BOLB   C3A 7327  20.717  21.601  24.121 -0.3402 -0.0338 -0.0365
  306BOLB   C4A 7328  21.157  21.609  24.420  0.1179  0.0725 -0.0890
  306BOLB   C1B 7329  19.958  22.302  23.640  0.0241  0.0454  0.3483
  306BOLB   C2B 7330  20.097  22.571  24.033  0.2084  0.0487  0.1603
  306BOLB   C3B 7331  20.532  22.498  24.228  0.1638 -0.0915 -0.3305
  306BOLB   C4B 7332  20.750  22.421  24.646  0.1076 -0.0882 -0.2009
  306BOLB   NC2 7333  22.368  21.468  26.267 -0.1046 -0.0051  0.0790
  306BOLB   PO2 7334  22.175  21.754  26.521 -0.1018  0.1860  0.3586
  306BOLB   GL3 7335  21.935  21.615  26.189  0.3079 -0.1336  0.0913
  306BOLB   GL4 7336  21.787  21.303  26.113  0.2126  0.0510  0.1882
  306BOLB   C1C 7337  21.546  21.685  25.954  0.3049 -0.1221 -0.2343
  306BOLB   C2C 7338  21.220  21.693  25.631  0.0618 -0.4625  0.1983
  306BOLB   C3C 7339  21.228  21.658  25.193  0.0909 -0.0277 -0.0266
  306BOLB   C4C 7340  21.354  21.583  24.763 -0.3660  0.0018  0.1715
  306BOLB   C1D 7341  21.520  21.233  25.798 -0.2612 -0.0278 -0.1192
  306BOLB   C2D 7342  21.529  21.363  25.388 -0.3531 -0.2551 -0.5271
  306BOLB   C3D 7343  21.822  21.516  24.986 -0.3171  0.1167  0.2032
  306BOLB   C4D 7344  22.063  21.806  24.814  0.0056  0.0410 -0.0443
  307BOLB   NC1 7345  22.595  14.376  21.574 -0.1100  0.0765  0.0171
  307BOLB   PO1 7346  22.785  14.697  21.336 -0.2764  0.1006 -0.0644
  307BOLB   GL1 7347  23.094  14.840  21.629  0.3905 -0.0232  0.1980
  307BOLB   GL2 7348  23.082  15.103  21.569 -0.0876 -0.2230 -0.0056
  307BOLB   C1A 7349  23.260  14.831  21.924 -0.2264 -0.1155 -0.0608
  307BOLB   C2A 7350  23.513  14.918  22.282  0.0972  0.1183 -0.0507
  307BOLB   C3A 7351  23.892  15.006  22.446 -0.0378  0.0906 -0.1819
  307BOLB   C4A 7352  24.126  14.818  22.854  0.5293  0.0935  0.3102
  307BOLB   C1B 7353  23.411  15.254  21.642 -0.1254  0.1935  0.3458
  307BOLB   C2B 7354  23.770  15.091  21.851 -0.2902  0.2117 -0.0600
  307BOLB   C3B 7355  24.095  14.990  21.966 -0.3251 -0.2544  0.1608
  307BOLB   C4B 7356  24.343  14.793  21.720  0.1660  0.1395  0.0707
  307BOLB   NC2 7357  24.694  14.177  25.207 -0.0084  0.3226 -0.3269
  307BOLB   PO2 7358  24.690  13.770  24.923  0.0418  0.1739  0.2418
  307BOLB   GL3 7359  24.633  14.021  24.557  0.1342  0.1341 -0.1130
  307BOLB   GL4 7360  24.736  14.369  24.641  0.2488  0.2157 -0.0167
  307BOLB   C1C 7361  24.676  14.126  24.208 -0.0196 -0.2298 -0.0343
  307BOLB   C2C 7362  24.806  14.152  23.802  0.4121  0.0012  0.0115
  307BOLB   C3C 7363  24.589  14.477  23.462  0.1437 -0.0908 -0.1452
  307BOLB   C4C 7364  24.425  14.480  23.060  0.0455 -0.3146 -0.0559
  307BOLB   C1D 7365  24.338  14.476  24.386  0.3047  0.2227 -0.1683
  307BOLB   C2D 7366  23.898  14.726  24.297  0.0192  0.2353 -0.1258
  307BOLB   C3D 7367  23.550  15.056  24.045  0.3142 -0.4512  0.7703
  307BOLB   C4D 7368  23.276  15.453  24.200 -0.0661  0.0458 -0.2772
  308BOLB   NC1 7369  11.073   7.477  23.231  0.2671  0.2191 -0.3977
  308BOLB   PO1 7370  10.840   7.801  23.168 -0.1365  0.0709 -0.0034
  308BOLB   GL1 7371  10.677   7.781  23.527  0.0117  0.1458  0.2531
  308BOLB   GL2 7372  10.800   7.737  23.800  0.1522 -0.0237  0.0506
  308BOLB   C1A 7373  10.681   8.254  23.654 -0.0884 -0.0032 -0.3874
  308BOLB   C2A 7374  10.555   8.574  23.787  0.1648  0.0929  0.3095
  308BOLB   C3A 7375  10.568   8.983  23.778  0.1234 -0.1817  0.1901
  308BOLB   C4A 7376  10.423   9.427  23.717  0.2941  0.0877  0.2223
  308BOLB   C1B 7377  10.712   8.040  24.158  0.1567  0.0182 -0.0667
  308BOLB   C2B 7378  10.865   8.367  24.314  0.0975  0.0304  0.2451
  308BOLB   C3B 7379  11.110   8.418  24.698  0.0541 -0.2891 -0.0031
  308BOLB   C4B 7380  11.481   8.290  25.013  0.2747 -0.2587  0.2386
  308BOLB   NC2 7381   8.430   8.580  23.837 -0.2706 -0.1106 -0.2879
  308BOLB   PO2 7382   8.563   8.656  24.305  0.2846 -0.0797 -0.1175
  308BOLB   GL3 7383   8.608   9.052  23.995 -0.3658 -0.0970 -0.1772
  308BOLB   GL4 7384   8.338   9.173  23.735 -0.3232  0.0716  0.0079
  308BOLB   C1C 7385   8.863   9.532  23.834  0.1394 -0.0093  0.1947
  308BOLB   C2C 7386   9.221   9.725  23.922  0.0960  0.0340  0.0032
  308BOLB   C3C 7387   9.677   9.826  23.914  0.0529  0.0426  0.3487
  308BOLB   C4C 7388  10.114   9.728  23.713  0.1337  0.1856 -0.2556
  308BOLB   C1D 7389   8.391   9.664  23.765  0.0806  0.1197 -0.2764
  308BOLB   C2D 7390   8.291  10.169  23.711 -0.0434 -0.2950 -0.0394
  308BOLB   C3D 7391   8.591  10.450  23.638 -0.1882  0.0482  0.0730
  308BOLB   C4D 7392   9.023  10.739  23.482 -0.1467  0.0263 -0.0033
  309BOLB   NC1 7393  22.235  17.068  22.159  0.1427 -0.2188 -0.0641
  309BOLB   PO1 7394  21.843  17.135  22.278  0.1248  0.2687  0.0386
  309BOLB   GL1 7395  21.939  17.079  22.719  0.2835  0.2299 -0.2519
  309BOLB   GL2 7396  21.759  17.255  22.976 -0.1051  0.0917  0.0081
  309BOLB   C1A 7397  22.277  17.215  23.006  0.2106 -0.2045 -0.1150
  309BOLB   C2A 7398  22.691  17.111  23.294 -0.1451 -0.0836 -0.1448
  309BOLB   C3A 7399  23.042  17.111  23.564 -0.0613 -0.3042  0.1694
  309BOLB   C4A 7400  23.314  17.168  23.892  0.1248 -0.0600  0.0103
  309BOLB   C1B 7401  21.843  17.380  23.429  0.3806  0.2899 -0.0761
  309BOLB   C2B 7402  21.960  17.397  23.811  0.2760 -0.0520  0.0493
  309BOLB   C3B 7403  22.043  17.589  24.153  0.1491 -0.0026 -0.0938
  309BOLB   C4B 7404  22.088  17.815  24.537  0.0571  0.2463  0.4479
  309BOLB   NC2 7405  24.365  17.349  25.647 -0.2757  0.0594 -0.0985
  309BOLB   PO2 7406  24.742  17.721  25.538 -0.0967 -0.0440  0.0447
  309BOLB   GL3 7407  24.400  18.034  25.411  0.1281 -0.0196 -0.0049
  309BOLB   GL4 7408  24.224  17.687  25.380  0.0675 -0.0799  0.0423
  309BOLB   C1C 7409  24.100  18.150  25.033 -0.2171  0.0123  0.1593
  309BOLB   C2C 7410  24.025  17.958  24.626  0.1335  0.0048 -0.0570
  309BOLB   C3C 7411  23.879  17.515  24.468 -0.3065 -0.3212  0.2240
  309BOLB   C4C 7412  23.538  17.356  24.180  0.2637  0.2008  0.1141
  309BOLB   C1D 7413  24.330  17.693  24.918  0.1235  0.0513  0.1011
  309BOLB   C2D 7414  24.268  17.291  24.636  0.2556 -0.0159 -0.2251
  309BOLB   C3D 7415  24.258  16.974  24.368  0.3734 -0.1290 -0.1318
  309BOLB   C4D 7416  24.399  17.053  23.991  0.0541  0.0516  0.1736
  310BOLB   NC1 7417  22.787  19.745  21.617  0.0467  0.2086  0.1067
  310BOLB   PO1 7418  22.441  19.400  21.695  0.0101 -0.1151  0.6331
  310BOLB   GL1 7419  22.894  19.241  21.825 -0.0512 -0.0620  0.1130
  310BOLB   GL2 7420  23.167  19.449  21.784 -0.5925  0.2447  0.0241
  310BOLB   C1A 7421  23.191  18.982  22.088  0.1045 -0.0233 -0.1398
  310BOLB   C2A 7422  23.513  18.927  22.354  0.1864  0.2640 -0.0399
  310BOLB   C3A 7423  23.774  19.015  22.638  0.2449  0.2186 -0.0631
  310BOLB   C4A 7424  24.104  19.156  22.931 -0.1765 -0.1310 -0.1431
  310BOLB   C1B 7425  23.585  19.539  22.122 -0.0267  0.3557  0.0979
  310BOLB   C2B 7426  23.914  19.794  22.287  0.1231  0.1793 -0.1502
  310BOLB   C3B 7427  24.221  20.107  22.359 -0.0444  0.2032  0.1304
  310BOLB   C4B 7428  24.598  20.375  22.462  0.3484 -0.1793  0.0583
  310BOLB   NC2 7429  24.954  18.799  24.949  0.1039  0.2905 -0.0076
  310BOLB   PO2 7430  25.423  18.840  24.804  0.2246 -0.3037  0.1128
  310BOLB   GL3 7431  25.220  18.929  24.432  0.0489 -0.4014  0.1416
  310BOLB   GL4 7432  25.390  19.183  24.283  0.0253 -0.0025  0.0197
  310BOLB   C1C 7433  24.901  19.190  24.291  0.0339 -0.0290 -0.3198
  310BOLB   C2C 7434  24.711  19.197  23.936 -0.0502 -0.1583 -0.2102
  310BOLB   C3C 7435  24.343  19.338  23.712 -0.1754 -0.1813  0.0857
  310BOLB   C4C 7436  24.234  19.258  23.279  0.3058 -0.4002  0.0762
  310BOLB   C1D 7437  25.253  18.952  23.919  0.2420 -0.1266 -0.0787
  310BOLB   C2D 7438  24.950  18.714  23.750  0.0412 -0.1488 -0.1127
  310BOLB   C3D 7439  24.614  18.406  23.717 -0.0237 -0.3860 -0.2235
  310BOLB   C4D 7440  24.169  18.373  23.732  0.1918  0.1044 -0.2888
  311BOLB   NC1 7441  19.383  24.591  21.708 -0.1167 -0.3314  0.0172
  311BOLB   PO1 7442  19.156  24.457  22.064 -0.0051  0.0354 -0.0425
  311BOLB   GL1 7443  19.128  24.513  22.435 -0.0265  0.0402 -0.2435
  311BOLB   GL2 7444  18.876  24.337  22.544 -0.1465 -0.3358 -0.2743
  311BOLB   C1A 7445  19.306  24.860  22.775  0.0310  0.2561  0.2959
  311BOLB   C2A 7446  19.405  25.218  23.019  0.1489 -0.0667 -0.1268
  311BOLB   C3A 7447  19.474  25.487  23.459  0.0338 -0.1620  0.0430
  311BOLB   C4A 7448  19.566  25.407  23.981  0.0189 -0.1390 -0.0019
  311BOLB   C1B 7449  19.335  24.237  22.747 -0.1419 -0.0251 -0.1026
  311BOLB   C2B 7450  19.481  24.401  23.086  0.0608 -0.1592 -0.0235
  311BOLB   C3B 7451  19.732  24.532  23.447  0.2495 -0.0888 -0.0335
  311BOLB   C4B 7452  20.089  24.790  23.638 -0.0093  0.1070  0.1824
  311BOLB   NC2 7453  20.434  25.407  26.634 -0.0821 -0.2371 -0.3645
  311BOLB   PO2 7454  20.125  25.621  26.298  0.0280  0.3244 -0.0573
  311BOLB   GL3 7455  19.894  25.442  25.934 -0.0012  0.0535 -0.2289
  311BOLB   GL4 7456  19.659  25.255  26.039 -0.0983 -0.2870 -0.1146
  311BOLB   C1C 7457  19.926  25.375  25.471  0.0902  0.2309  0.1394
  311BOLB   C2C 7458  19.720  25.235  25.149 -0.3600 -0.2739 -0.1755
  311BOLB   C3C 7459  19.795  25.142  24.712  0.1281 -0.0820  0.1240
  311BOLB   C4C 7460  19.701  25.091  24.267  0.1029 -0.0774  0.2691
  311BOLB   C1D 7461  19.522  25.164  25.626 -0.0787  0.0106  0.3330
  311BOLB   C2D 7462  19.452  24.797  25.370 -0.3099  0.1734  0.1181
  311BOLB   C3D 7463  19.135  24.518  25.289 -0.0707  0.2043 -0.3304
  311BOLB   C4D 7464  18.892  24.354  24.899  0.1828  0.1252 -0.3834
  312BOLB   NC1 7465  14.778  23.049  23.605  0.1293  0.0622 -0.1232
  312BOLB   PO1 7466  15.256  23.122  23.523 -0.1505  0.1203  0.0564
  312BOLB   GL1 7467  15.512  23.007  23.885 -0.2102 -0.0684  0.1498
  312BOLB   GL2 7468  15.833  23.088  23.918 -0.3322 -0.2763 -0.0578
  312BOLB   C1A 7469  15.551  22.994  24.322  0.0389  0.1981  0.1238
  312BOLB   C2A 7470  15.353  22.771  24.644  0.1410 -0.1962 -0.1933
  312BOLB   C3A 7471  15.273  22.799  25.049 -0.2227  0.1589 -0.1510
  312BOLB   C4A 7472  15.270  22.916  25.503 -0.2597 -0.0723 -0.1105
  312BOLB   C1B 7473  15.977  23.201  24.317  0.2817 -0.1983  0.1238
  312BOLB   C2B 7474  16.243  23.221  24.711  0.1561 -0.0206  0.1517
  312BOLB   C3B 7475  16.251  23.543  24.974 -0.1925  0.6057  0.0208
  312BOLB   C4B 7476  16.389  23.701  25.331  0.1167 -0.0335 -0.1793
  312BOLB   NC2 7477  14.610  23.587  27.982 -0.0632 -0.1762 -0.0926
  312BOLB   PO2 7478  14.832  23.684  27.572 -0.3098 -0.3461 -0.2346
  312BOLB   GL3 7479  14.734  23.241  27.584 -0.0221 -0.2039  0.0577
  312BOLB   GL4 7480  14.978  22.931  27.606 -0.1047 -0.0558  0.0561
  312BOLB   C1C 7481  14.678  22.919  27.213 -0.1688 -0.2586  0.2947
  312BOLB   C2C 7482  14.760  22.929  26.838 -0.1893  0.0831  0.5195
  312BOLB   C3C 7483  14.790  22.964  26.344  0.1832  0.0138  0.2423
  312BOLB   C4C 7484  15.121  22.941  25.907 -0.4024  0.0017 -0.0952
  312BOLB   C1D 7485  15.101  22.573  27.404 -0.0082 -0.0410 -0.2394
  312BOLB   C2D 7486  15.476  22.276  27.253  0.4639 -0.0412 -0.0043
  312BOLB   C3D 7487  15.856  22.229  27.020  0.1123 -0.0573 -0.2549
  312BOLB   C4D 7488  16.150  22.035  27.158  0.4144  0.2516 -0.1746
  313BOLB   NC1 7489  19.323  23.393  22.884 -0.2452 -0.0607  0.0446
  313BOLB   PO1 7490  19.467  23.527  22.539  0.1298  0.0594  0.3091
  313BOLB   GL1 7491  19.802  23.663  22.805 -0.0004 -0.4020  0.0378
  313BOLB   GL2 7492  20.102  23.713  22.665  0.2787 -0.1623 -0.1608
  313BOLB   C1A 7493  19.867  23.814  23.171  0.1499  0.0939 -0.1234
  313BOLB   C2A 7494  20.043  24.081  23.508 -0.0576 -0.0087  0.0633
  313BOLB   C3A 7495  20.016  24.284  23.850 -0.1391  0.1341  0.0587
  313BOLB   C4A 7496  19.913  24.050  24.161  0.2258 -0.2686  0.2482
  313BOLB   C1B 7497  20.356  24.046  22.949 -0.0316 -0.0847 -0.1069
  313BOLB   C2B 7498  20.753  24.229  23.195 -0.3884 -0.2552 -0.0052
  313BOLB   C3B 7499  20.964  24.493  23.385 -0.1302  0.1400  0.1340
  313BOLB   C4B 7500  21.126  24.843  23.493  0.2802 -0.1011  0.0649
  313BOLB   NC2 7501  20.842  24.646  26.922  0.0263  0.4520 -0.0788
  313BOLB   PO2 7502  20.775  24.393  26.477 -0.0014  0.0741  0.5711
  313BOLB   GL3 7503  20.609  24.320  26.110 -0.0449 -0.0091 -0.0779
  313BOLB   GL4 7504  20.359  24.438  26.094  0.0170 -0.0172  0.1898
  313BOLB   C1C 7505  20.581  24.107  25.754  0.3909  0.1004 -0.1444
  313BOLB   C2C 7506  20.444  24.052  25.373  0.0519 -0.0887 -0.0505
  313BOLB   C3C 7507  20.343  23.940  24.995 -0.0534 -0.0387 -0.2214
  313BOLB   C4C 7508  19.996  23.964  24.660 -0.1693  0.1808  0.1375
  313BOLB   C1D 7509  20.271  24.464  25.542 -0.1552 -0.0322 -0.2922
  313BOLB   C2D 7510  20.055  24.275  25.170 -0.0543  0.0646  0.1690
  313BOLB   C3D 7511  19.862  23.841  25.139 -0.2714 -0.2406 -0.0497
  313BOLB   C4D 7512  19.549  23.712  25.492 -0.0859  0.0067 -0.2644
  314BOLB   NC1 7513  18.505  13.394  23.510  0.0671 -0.2827 -0.0314
  314BOLB   PO1 7514  18.542  13.228  23.840 -0.3963  0.0064  0.1513
  314BOLB   GL1 7515  18.893  12.884  23.731  0.2322 -0.1616 -0.1735
  314BOLB   GL2 7516  18.757  12.583  23.596 -0.0129 -0.1063  0.0287
  314BOLB   C1A 7517  19.357  12.965  24.008  0.2865  0.2340  0.0034
  314BOLB   C2A 7518  19.528  13.164  24.459  0.1779  0.5199 -0.0504
  314BOLB   C3A 7519  19.550  13.326  24.930 -0.2177 -0.2495 -0.0523
  314BOLB   C4A 7520  19.720  13.437  25.335 -0.0656  0.1134 -0.0227
  314BOLB   C1B 7521  19.044  12.504  24.053 -0.0737 -0.1828  0.3100
  314BOLB   C2B 7522  19.445  12.580  24.333 -0.0405  0.0516  0.2882
  314BOLB   C3B 7523  19.467  12.348  24.616  0.2962 -0.0958 -0.0323
  314BOLB   C4B 7524  19.690  12.260  24.918  0.0432 -0.2048  0.0778
  314BOLB   NC2 7525  20.721  14.018  27.693  0.2156 -0.2724  0.0761
  314BOLB   PO2 7526  20.401  13.711  27.440  0.1205  0.2540 -0.1618
  314BOLB   GL3 7527  20.091  13.845  27.215  0.1036  0.1217 -0.0569
  314BOLB   GL4 7528  19.783  14.010  27.240 -0.0742  0.2541  0.2439
  314BOLB   C1C 7529  20.092  13.927  26.858 -0.0743 -0.0987 -0.1220
  314BOLB   C2C 7530  19.892  13.950  26.527 -0.1044  0.0288  0.0534
  314BOLB   C3C 7531  19.685  13.744  26.118  0.0364  0.0825  0.3216
  314BOLB   C4C 7532  19.908  13.466  25.742 -0.0497 -0.1035  0.0281
  314BOLB   C1D 7533  19.775  14.310  26.850  0.1321 -0.2794  0.2553
  314BOLB   C2D 7534  19.423  14.500  26.718  0.0747 -0.1609  0.0072
  314BOLB   C3D 7535  19.471  14.881  26.524 -0.2088  0.0891  0.0166
  314BOLB   C4D 7536  19.527  15.294  26.250 -0.2203 -0.0437  0.0969
  315BOLB   NC1 7537  12.300  20.678  24.260 -0.1782 -0.0615  0.0743
  315BOLB   PO1 7538  12.405  21.038  24.299  0.1843  0.2532  0.0850
  315BOLB   GL1 7539  12.506  20.897  24.730  0.2744 -0.2005  0.0596
  315BOLB   GL2 7540  12.518  20.530  24.776  0.1045 -0.0492 -0.0568
  315BOLB   C1A 7541  12.624  21.054  25.093  0.2410  0.0908 -0.0679
  315BOLB   C2A 7542  12.636  21.096  25.544 -0.0589 -0.1524  0.1609
  315BOLB   C3A 7543  12.880  21.046  25.908 -0.2410 -0.1248 -0.3236
  315BOLB   C4A 7544  13.025  21.062  26.359  0.2564 -0.1289 -0.2102
  315BOLB   C1B 7545  12.376  20.592  25.157  0.0682  0.0520 -0.0428
  315BOLB   C2B 7546  12.402  20.621  25.548 -0.1181 -0.2014  0.0920
  315BOLB   C3B 7547  12.504  20.735  25.949  0.2499 -0.1911 -0.0231
  315BOLB   C4B 7548  12.476  21.173  26.138  0.1986  0.1575 -0.0059
  315BOLB   NC2 7549  13.151  20.372  28.753  0.1447 -0.2420  0.0579
  315BOLB   PO2 7550  13.118  20.837  28.589  0.1208  0.3223  0.0103
  315BOLB   GL3 7551  13.064  20.738  28.119  0.0557 -0.0381 -0.0599
  315BOLB   GL4 7552  12.869  20.984  27.929  0.0047 -0.3817 -0.0156
  315BOLB   C1C 7553  13.329  20.542  27.743  0.1879  0.2644  0.1175
  315BOLB   C2C 7554  13.390  20.512  27.236  0.0990  0.1471  0.4050
  315BOLB   C3C 7555  13.148  20.496  26.956  0.4230  0.0574  0.0151
  315BOLB   C4C 7556  13.177  20.842  26.736 -0.1373  0.1336 -0.1356
  315BOLB   C1D 7557  13.044  20.891  27.489  0.2744 -0.0256 -0.1538
  315BOLB   C2D 7558  13.329  21.117  27.174  0.0206  0.3546 -0.1398
  315BOLB   C3D 7559  13.293  21.346  26.910  0.1276  0.0831  0.0177
  315BOLB   C4D 7560  13.335  21.638  26.586  0.1621 -0.2258  0.1915
  316BOLB   NC1 7561  21.712  11.860  21.440 -0.0071  0.2146  0.0385
  316BOLB   PO1 7562  22.060  11.674  21.464  0.0835 -0.1916  0.1588
  316BOLB   GL1 7563  22.219  11.245  21.565 -0.0733 -0.4941  0.1037
  316BOLB   GL2 7564  22.480  11.331  21.648  0.1281 -0.0704 -0.2437
  316BOLB   C1A 7565  22.192  11.121  21.952 -0.1501 -0.0523  0.1222
  316BOLB   C2A 7566  22.239  11.005  22.338  0.2424 -0.0145  0.1222
  316BOLB   C3A 7567  22.272  11.035  22.823 -0.2895  0.2251  0.3210
  316BOLB   C4A 7568  22.449  11.032  23.320  0.0723 -0.1969  0.2689
  316BOLB   C1B 7569  22.653  11.291  22.067  0.0124 -0.1358 -0.0357
  316BOLB   C2B 7570  22.706  11.218  22.492  0.0410 -0.0741  0.0128
  316BOLB   C3B 7571  22.829  11.022  22.814  0.2513  0.2161  0.1269
  316BOLB   C4B 7572  22.773  10.738  23.086 -0.3607 -0.2874 -0.0249
  316BOLB   NC2 7573  23.152  11.543  25.452 -0.0923  0.4480  0.1071
  316BOLB   PO2 7574  22.969  11.226  25.560  0.0244 -0.0622 -0.0592
  316BOLB   GL3 7575  22.732  11.186  25.202  0.1422  0.0886 -0.3678
  316BOLB   GL4 7576  22.944  11.517  25.024  0.0946 -0.0306  0.4824
  316BOLB   C1C 7577  22.561  11.266  24.776 -0.0441  0.0680  0.0216
  316BOLB   C2C 7578  22.378  11.162  24.480  0.0080  0.0480 -0.1854
  316BOLB   C3C 7579  22.338  10.829  24.141  0.3927 -0.0014 -0.0748
  316BOLB   C4C 7580  22.494  10.762  23.693 -0.0441  0.0840 -0.0903
  316BOLB   C1D 7581  22.594  11.827  24.877  0.1487 -0.1910  0.1915
  316BOLB   C2D 7582  22.286  12.197  24.885  0.0246  0.3143  0.1523
  316BOLB   C3D 7583  22.195  12.583  24.815 -0.1319  0.1657  0.2463
  316BOLB   C4D 7584  22.144  12.937  24.665 -0.2695  0.0974  0.1085
  317BOLB   NC1 7585  17.061  10.602  22.912 -0.1722  0.1425  0.0157
  317BOLB   PO1 7586  17.496  10.809  23.031 -0.1655 -0.0068 -0.4248
  317BOLB   GL1 7587  17.656  10.608  23.269 -0.0097 -0.1189  0.2249
  317BOLB   GL2 7588  17.866  10.357  23.233  0.1337  0.1735  0.0016
  317BOLB   C1A 7589  17.668  10.512  23.659 -0.0362  0.0700 -0.4105
  317BOLB   C2A 7590  17.488  10.201  23.968 -0.4531  0.0795 -0.3379
  317BOLB   C3A 7591  17.489  10.078  24.421 -0.0845  0.1315  0.1289
  317BOLB   C4A 7592  17.506   9.950  24.817  0.2922  0.1588  0.0539
  317BOLB   C1B 7593  17.784  10.047  23.535  0.1872 -0.1736 -0.1380
  317BOLB   C2B 7594  17.795   9.781  23.886 -0.4767  0.2198  0.0668
  317BOLB   C3B 7595  17.893   9.583  24.292  0.3119 -0.2538 -0.0768
  317BOLB   C4B 7596  17.852   9.559  24.782 -0.0103  0.0232 -0.2375
  317BOLB   NC2 7597  17.271   9.168  27.548 -0.3853 -0.1708 -0.2989
  317BOLB   PO2 7598  17.300   9.359  27.149  0.2518  0.0330  0.0259
  317BOLB   GL3 7599  17.291   9.687  26.794  0.0214 -0.1663 -0.2875
  317BOLB   GL4 7600  17.314  10.115  26.766 -0.0786  0.1533 -0.0090
  317BOLB   C1C 7601  17.579   9.575  26.448 -0.1705 -0.1226 -0.2265
  317BOLB   C2C 7602  17.608   9.594  25.969  0.1910  0.0410 -0.0917
  317BOLB   C3C 7603  17.443   9.722  25.540  0.1850 -0.0009  0.2061
  317BOLB   C4C 7604  17.554   9.896  25.185 -0.2331  0.0951 -0.3053
  317BOLB   C1D 7605  17.192  10.051  26.448  0.0157  0.3637  0.0524
  317BOLB   C2D 7606  17.034  10.314  26.072 -0.0505  0.4820 -0.0260
  317BOLB   C3D 7607  16.868  10.435  25.734  0.1388 -0.0394  0.0025
  317BOLB   C4D 7608  16.410  10.577  25.780  0.0496  0.2416  0.1503
  318BOLB   NC1 7609  16.242  14.856  24.068 -0.1538  0.2442  0.1811
  318BOLB   PO1 7610  16.002  15.136  24.348 -0.0672 -0.1779 -0.2388
  318BOLB   GL1 7611  15.871  14.839  24.648 -0.2720 -0.1125 -0.0052
  318BOLB   GL2 7612  16.075  14.631  24.744 -0.1028  0.2651  0.1576
  318BOLB   C1A 7613  15.672  14.920  24.996  0.0945 -0.2777  0.5336
  318BOLB   C2A 7614  15.472  14.757  25.350 -0.4021  0.0189  0.1157
  318BOLB   C3A 7615  15.333  14.812  25.794 -0.1323  0.1509  0.2404
  318BOLB   C4A 7616  15.653  14.717  26.123 -0.0374  0.0281  0.0041
  318BOLB   C1B 7617  16.371  14.575  25.114 -0.0596 -0.0769 -0.0894
  318BOLB   C2B 7618  16.438  14.380  25.411 -0.3070 -0.1421 -0.0274
  318BOLB   C3B 7619  16.539  14.418  25.853 -0.0679  0.0591  0.0453
  318BOLB   C4B 7620  16.482  14.424  26.311 -0.1754 -0.0549 -0.2349
  318BOLB   NC2 7621  16.729  13.466  28.601 -0.1433  0.0423 -0.0584
  318BOLB   PO2 7622  16.465  13.674  28.278  0.1404  0.0844 -0.1569
  318BOLB   GL3 7623  16.451  13.890  27.916 -0.2971  0.0632 -0.3968
  318BOLB   GL4 7624  16.498  13.584  27.782 -0.2128  0.0945  0.2466
  318BOLB   C1C 7625  16.185  14.074  27.567  0.0577 -0.0268 -0.1103
  318BOLB   C2C 7626  16.184  14.338  27.214 -0.2875 -0.0921  0.0218
  318BOLB   C3C 7627  16.202  14.437  26.728  0.3140 -0.0955  0.1670
  318BOLB   C4C 7628  15.901  14.466  26.398  0.0078  0.1459 -0.1094
  318BOLB   C1D 7629  16.510  13.753  27.347  0.0743  0.0106 -0.1575
  318BOLB   C2D 7630  16.335  13.838  26.916 -0.2720 -0.0184 -0.1646
  318BOLB   C3D 7631  15.953  14.047  26.745 -0.1247  0.1501 -0.0541
  318BOLB   C4D 7632  15.540  14.038  26.601  0.1301  0.1263  0.0090
  319BOLB   NC1 7633  12.695  13.246  23.790 -0.1003 -0.1508  0.1686
  319BOLB   PO1 7634  12.552  13.467  24.131  0.0371  0.0047  0.1898
  319BOLB   GL1 7635  12.515  13.459  24.574 -0.0251  0.1613 -0.1922
  319BOLB   GL2 7636  12.631  13.605  24.768  0.0436 -0.0684 -0.3458
  319BOLB   C1A 7637  12.265  13.243  24.984 -0.0801  0.1434 -0.1081
  319BOLB   C2A 7638  12.116  13.029  25.225  0.2385 -0.1117 -0.3543
  319BOLB   C3A 7639  12.132  12.719  25.533 -0.0471 -0.6229  0.0801
  319BOLB   C4A 7640  12.401  12.606  25.825  0.0910 -0.2987  0.2340
  319BOLB   C1B 7641  12.738  13.398  25.223 -0.2624  0.1746  0.0194
  319BOLB   C2B 7642  12.448  13.333  25.533  0.0426 -0.0403  0.2485
  319BOLB   C3B 7643  12.242  13.102  25.794 -0.0523 -0.1287 -0.0860
  319BOLB   C4B 7644  12.111  13.282  26.167 -0.0253  0.2289  0.3397
  319BOLB   NC2 7645  12.014  11.766  28.167 -0.1070  0.3212 -0.3506
  319BOLB   PO2 7646  12.169  12.045  27.872  0.2239  0.1550  0.4167
  319BOLB   GL3 7647  12.277  11.991  27.448 -0.0410  0.3463  0.2635
  319BOLB   GL4 7648  12.191  12.360  27.330  0.1216 -0.2974 -0.0395
  319BOLB   C1C 7649  12.382  11.712  27.103  0.0131  0.1537 -0.4384
  319BOLB   C2C 7650  12.467  11.857  26.663 -0.1243 -0.0467  0.0099
  319BOLB   C3C 7651  12.511  11.985  26.331  0.1150  0.0649  0.1127
  319BOLB   C4C 7652  12.515  12.285  26.011 -0.0201  0.4069 -0.2468
  319BOLB   C1D 7653  12.080  12.227  26.970 -0.2413  0.0127 -0.0463
  319BOLB   C2D 7654  12.101  12.249  26.575  0.3981  0.4347 -0.2908
  319BOLB   C3D 7655  11.997  12.279  26.167 -0.1661 -0.0785  0.1219
  319BOLB   C4D 7656  11.887  12.363  25.779 -0.0257 -0.0979 -0.1079
  320BOLB   NC1 7657  14.505  24.220  22.976 -0.1739 -0.1095 -0.1270
  320BOLB   PO1 7658  14.947  24.349  22.988  0.0173 -0.1862  0.1309
  320BOLB   GL1 7659  14.885  24.351  23.415  0.0858  0.0296  0.0514
  320BOLB   GL2 7660  15.020  24.103  23.574 -0.1264 -0.4991  0.1854
  320BOLB   C1A 7661  14.800  24.564  23.825  0.0110  0.1150  0.2340
  320BOLB   C2A 7662  14.846  24.661  24.238 -0.0702 -0.0912 -0.1397
  320BOLB   C3A 7663  14.818  24.612  24.691 -0.1547 -0.1057 -0.0467
  320BOLB   C4A 7664  14.736  24.647  25.040  0.1145 -0.0804 -0.0898
  320BOLB   C1B 7665  15.232  24.364  23.836  0.1782  0.0380  0.0763
  320BOLB   C2B 7666  15.234  24.407  24.362 -0.3983  0.1210 -0.0541
  320BOLB   C3B 7667  15.230  24.415  24.858  0.0517 -0.1207  0.0443
  320BOLB   C4B 7668  15.245  24.509  25.219 -0.1657  0.0801 -0.1414
  320BOLB   NC2 7669  15.197  26.372  27.149 -0.0265  0.0430 -0.1084
  320BOLB   PO2 7670  14.897  26.033  27.106  0.2364 -0.0746  0.1400
  320BOLB   GL3 7671  15.014  25.796  26.743 -0.0557  0.2565  0.0619
  320BOLB   GL4 7672  14.792  25.629  26.569  0.1629  0.2601 -0.3854
  320BOLB   C1C 7673  15.198  25.703  26.310  0.2085  0.3457 -0.0902
  320BOLB   C2C 7674  15.019  25.548  25.987  0.0294 -0.0663 -0.0522
  320BOLB   C3C 7675  15.063  25.168  25.756  0.0845 -0.2322  0.2713
  320BOLB   C4C 7676  14.904  24.854  25.369 -0.3362  0.1560  0.3338
  320BOLB   C1D 7677  14.620  26.072  26.528 -0.0335  0.1589  0.3477
  320BOLB   C2D 7678  14.928  26.506  26.518  0.3361 -0.2950 -0.3208
  320BOLB   C3D 7679  15.268  26.484  26.273 -0.1298  0.3087  0.1407
  320BOLB   C4D 7680  15.493  26.551  25.827  0.2822 -0.1981 -0.0398
  321BOLB   NC1 7681  18.009  22.382  23.128  0.0444  0.0321  0.0484
  321BOLB   PO1 7682  18.110  22.700  23.207 -0.0294 -0.0191  0.1992
  321BOLB   GL1 7683  17.934  23.013  23.516  0.0644  0.2759 -0.0237
  321BOLB   GL2 7684  17.873  23.306  23.686 -0.1250  0.2180 -0.0759
  321BOLB   C1A 7685  18.016  22.934  23.994 -0.0207 -0.0728  0.2624
  321BOLB   C2A 7686  18.231  22.671  24.225 -0.0537  0.0091 -0.1916
  321BOLB   C3A 7687  18.216  22.649  24.708  0.1126 -0.1074 -0.3587
  321BOLB   C4A 7688  18.000  22.814  25.090  0.2053  0.2239  0.4404
  321BOLB   C1B 7689  17.981  23.374  24.122 -0.1508  0.0271  0.1992
  321BOLB   C2B 7690  17.986  23.346  24.559  0.0122 -0.0203 -0.2248
  321BOLB   C3B 7691  17.939  23.326  24.973  0.0662 -0.2663  0.0976
  321BOLB   C4B 7692  17.730  23.428  25.442  0.3374  0.0716  0.2071
  321BOLB   NC2 7693  18.277  23.332  27.840  0.1288 -0.3390 -0.1082
  321BOLB   PO2 7694  18.590  23.536  27.584 -0.2222  0.0085  0.1090
  321BOLB   GL3 7695  18.457  23.543  27.174  0.0554  0.2225  0.0479
  321BOLB   GL4 7696  18.754  23.595  27.008  0.3656 -0.0387  0.2750
  321BOLB   C1C 7697  18.110  23.430  26.831 -0.0291 -0.4526  0.2384
  321BOLB   C2C 7698  17.898  23.384  26.426 -0.3191  0.2339 -0.0747
  321BOLB   C3C 7699  17.846  23.266  25.950 -0.1020  0.2113 -0.0853
  321BOLB   C4C 7700  17.869  22.945  25.596 -0.2177 -0.3003 -0.0176
  321BOLB   C1D 7701  18.562  23.212  26.784 -0.0085  0.0568  0.0002
  321BOLB   C2D 7702  18.795  22.870  26.862  0.0562  0.0722  0.1707
  321BOLB   C3D 7703  19.126  22.560  26.662  0.2254  0.2032 -0.3515
  321BOLB   C4D 7704  18.863  22.367  26.320  0.1947  0.0180  0.0504
  322BOLB   NC1 7705  11.256  15.099  23.855  0.0909 -0.2273 -0.0749
  322BOLB   PO1 7706  11.078  15.170  24.214 -0.2353 -0.0546  0.0657
  322BOLB   GL1 7707  11.111  15.320  24.616  0.3960  0.1231 -0.0031
  322BOLB   GL2 7708  10.888  15.201  24.722 -0.0973  0.0369  0.0302
  322BOLB   C1A 7709  11.264  15.363  25.087  0.0447  0.0037 -0.0452
  322BOLB   C2A 7710  11.265  15.232  25.469 -0.1281  0.1316  0.3317
  322BOLB   C3A 7711  11.359  15.078  25.838 -0.3489  0.0856  0.1794
  322BOLB   C4A 7712  11.188  14.996  26.184  0.0925 -0.2123 -0.4266
  322BOLB   C1B 7713  10.529  15.415  24.755 -0.0902  0.0065  0.0748
  322BOLB   C2B 7714  10.099  15.326  24.972 -0.0116 -0.1215  0.2309
  322BOLB   C3B 7715   9.931  15.248  25.407  0.2893 -0.1623  0.0489
  322BOLB   C4B 7716   9.722  14.967  25.822  0.2784  0.3245 -0.0487
  322BOLB   NC2 7717   9.567  14.800  28.238 -0.0461 -0.1810 -0.1021
  322BOLB   PO2 7718   9.878  14.509  28.155 -0.2044 -0.2562  0.0787
  322BOLB   GL3 7719  10.063  14.459  27.752  0.0250 -0.1454 -0.1794
  322BOLB   GL4 7720   9.920  14.098  27.715  0.2435 -0.1614  0.0092
  322BOLB   C1C 7721  10.318  14.307  27.346  0.0930 -0.2506  0.0358
  322BOLB   C2C 7722  10.623  14.250  27.014  0.0199  0.1810  0.1084
  322BOLB   C3C 7723  10.717  14.230  26.507 -0.2385  0.1420 -0.5324
  322BOLB   C4C 7724  10.919  14.601  26.209  0.3919  0.1113 -0.3606
  322BOLB   C1D 7725   9.910  14.062  27.179  0.2622  0.0665 -0.3558
  322BOLB   C2D 7726   9.679  14.045  26.806 -0.1488 -0.0486 -0.2531
  322BOLB   C3D 7727   9.459  14.338  26.374 -0.0705 -0.0417 -0.1683
  322BOLB   C4D 7728   9.278  14.695  26.147  0.0960  0.5323 -0.0895
  323BOLB   NC1 7729  10.050  17.032  24.152 -0.0761 -0.0825  0.1990
  323BOLB   PO1 7730   9.874  16.637  23.876 -0.1275 -0.0043  0.1203
  323BOLB   GL1 7731   9.748  16.368  24.303  0.4890 -0.1436 -0.1991
  323BOLB   GL2 7732   9.884  16.658  24.405 -0.3616 -0.0386 -0.3153
  323BOLB   C1A 7733   9.618  16.366  24.748 -0.2889 -0.4753 -0.1726
  323BOLB   C2A 7734   9.437  16.421  25.165  0.2558  0.3260 -0.0904
  323BOLB   C3A 7735   9.197  16.033  25.422  0.2992 -0.1606  0.0748
  323BOLB   C4A 7736   9.042  15.939  25.702  0.1722  0.3751 -0.0833
  323BOLB   C1B 7737   9.919  16.833  24.884  0.2331 -0.0873  0.3858
  323BOLB   C2B 7738   9.744  16.803  25.302  0.1020 -0.1569 -0.1161
  323BOLB   C3B 7739   9.760  16.738  25.695  0.1413  0.0834 -0.1712
  323BOLB   C4B 7740   9.963  16.467  25.985  0.2290  0.2465 -0.0871
  323BOLB   NC2 7741   8.319  15.911  27.898  0.0207  0.0568 -0.1229
  323BOLB   PO2 7742   8.577  15.596  28.054  0.0185  0.2714  0.0569
  323BOLB   GL3 7743   8.527  15.313  27.685 -0.3867  0.1736 -0.0383
  323BOLB   GL4 7744   8.234  15.474  27.479  0.0823  0.1444 -0.2557
  323BOLB   C1C 7745   8.695  15.434  27.227 -0.2294  0.2498  0.2621
  323BOLB   C2C 7746   8.835  15.355  26.825  0.0260 -0.2193 -0.0425
  323BOLB   C3C 7747   9.018  15.556  26.448  0.1399  0.0614 -0.0457
  323BOLB   C4C 7748   8.891  15.747  26.039  0.1691  0.2557  0.0657
  323BOLB   C1D 7749   8.346  15.060  27.229 -0.1856 -0.0453  0.0687
  323BOLB   C2D 7750   8.643  14.816  27.083 -0.1079  0.2689  0.0016
  323BOLB   C3D 7751   9.048  14.676  26.924 -0.0765 -0.1588 -0.5823
  323BOLB   C4D 7752   9.227  14.722  26.639  0.1449 -0.0057  0.1423
  324BOLB   NC1 7753  21.822  10.374  19.864 -0.4869 -0.1037 -0.2120
  324BOLB   PO1 7754  21.387  10.212  19.944  0.0107 -0.0648 -0.1219
  324BOLB   GL1 7755  21.607   9.906  20.138 -0.2794 -0.2140  0.0149
  324BOLB   GL2 7756  21.926   9.922  20.076  0.0125  0.1329 -0.0522
  324BOLB   C1A 7757  21.710   9.490  20.148 -0.1514  0.1801  0.0969
  324BOLB   C2A 7758  21.970   9.122  20.274  0.4228 -0.2641  0.2279
  324BOLB   C3A 7759  22.182   8.817  20.173  0.3115  0.1877  0.0091
  324BOLB   C4A 7760  22.395   8.460  20.390  0.1225 -0.1728  0.1230
  324BOLB   C1B 7761  22.313   9.650  20.238 -0.0899 -0.1275  0.0215
  324BOLB   C2B 7762  22.773   9.527  20.348 -0.1744 -0.0261  0.0078
  324BOLB   C3B 7763  23.000   9.137  20.154  0.2000  0.0322  0.0091
  324BOLB   C4B 7764  23.485   9.091  19.984 -0.1382  0.0585 -0.2271
  324BOLB   NC2 7765  23.914   6.562  21.231 -0.0427  0.0112  0.3134
  324BOLB   PO2 7766  23.645   6.807  21.466 -0.1732 -0.3986  0.2054
  324BOLB   GL3 7767  23.458   7.003  21.105  0.1502 -0.0214  0.0169
  324BOLB   GL4 7768  23.586   7.234  20.743 -0.2278  0.1222 -0.2282
  324BOLB   C1C 7769  23.074   7.038  20.907  0.1708  0.2409 -0.0335
  324BOLB   C2C 7770  22.801   7.439  20.783  0.7458 -0.1595  0.3127
  324BOLB   C3C 7771  22.659   7.727  20.492 -0.2859 -0.0281  0.1124
  324BOLB   C4C 7772  22.785   8.140  20.372 -0.3671 -0.0640  0.0127
  324BOLB   C1D 7773  23.273   7.514  20.689  0.1327  0.1508 -0.0185
  324BOLB   C2D 7774  23.009   7.926  20.752 -0.2600 -0.1768 -0.0211
  324BOLB   C3D 7775  22.640   8.194  20.823  0.0765  0.0100 -0.0842
  324BOLB   C4D 7776  22.285   8.509  20.976  0.0053 -0.2814  0.1117
  325BOLB   NC1 7777  10.935  14.696  23.991  0.0353 -0.3057  0.2907
  325BOLB   PO1 7778  10.702  14.348  24.297  0.1919 -0.0627 -0.2312
  325BOLB   GL1 7779  10.635  14.301  24.699 -0.1208  0.1275  0.0942
  325BOLB   GL2 7780  10.426  14.357  24.773 -0.0927 -0.0069 -0.2588
  325BOLB   C1A 7781  10.694  14.505  25.139 -0.0871 -0.1750  0.0804
  325BOLB   C2A 7782  10.583  14.462  25.477 -0.1320 -0.0359  0.0965
  325BOLB   C3A 7783  10.266  14.126  25.702 -0.0328 -0.0903 -0.0937
  325BOLB   C4A 7784  10.079  14.190  26.108 -0.1734  0.0981 -0.0085
  325BOLB   C1B 7785  10.187  14.387  25.139 -0.1511 -0.1107  0.2928
  325BOLB   C2B 7786   9.845  14.178  25.355  0.0801 -0.0493 -0.1013
  325BOLB   C3B 7787   9.794  13.942  25.744 -0.0965 -0.2156  0.0513
  325BOLB   C4B 7788   9.529  13.903  26.134 -0.4213 -0.2659  0.1384
  325BOLB   NC2 7789  10.276  14.767  28.251  0.2867 -0.3344  0.1576
  325BOLB   PO2 7790  10.797  14.894  28.183  0.0460  0.4159 -0.0227
  325BOLB   GL3 7791  10.587  14.727  27.777  0.2792 -0.0905 -0.0348
  325BOLB   GL4 7792  10.698  14.403  27.637 -0.1759  0.0092  0.2139
  325BOLB   C1C 7793  10.285  14.821  27.422 -0.1308 -0.1230 -0.0956
  325BOLB   C2C 7794  10.306  14.953  26.947 -0.0848  0.2139 -0.1381
  325BOLB   C3C 7795  10.212  14.922  26.566 -0.2076 -0.0703  0.1496
  325BOLB   C4C 7796   9.945  14.615  26.263 -0.3106  0.2013 -0.0848
  325BOLB   C1D 7797  10.715  14.690  27.171  0.1059  0.1089 -0.1730
  325BOLB   C2D 7798  10.644  14.667  26.682 -0.0392 -0.3302 -0.1653
  325BOLB   C3D 7799  10.443  14.630  26.257 -0.3642  0.1761  0.0488
  325BOLB   C4D 7800  10.257  14.958  25.993 -0.2916  0.1856 -0.2675
  326BOLB   NC1 7801  19.003   9.762  21.482 -0.3187  0.1099 -0.1394
  326BOLB   PO1 7802  18.839   9.993  21.804 -0.1361  0.0527 -0.0188
  326BOLB   GL1 7803  19.115   9.796  22.024 -0.0989  0.3373 -0.2691
  326BOLB   GL2 7804  19.361  10.035  22.127  0.1642  0.1004  0.0930
  326BOLB   C1A 7805  19.512   9.585  22.173  0.3876 -0.1175  0.0301
  326BOLB   C2A 7806  19.629   9.430  22.535 -0.0374  0.0125 -0.2290
  326BOLB   C3A 7807  19.697   9.262  22.955  0.0294 -0.0471  0.0248
  326BOLB   C4A 7808  19.813   8.925  23.180  0.2385 -0.1638 -0.1260
  326BOLB   C1B 7809  19.481   9.963  22.610  0.3045  0.2068  0.1230
  326BOLB   C2B 7810  19.587   9.813  22.992  0.1627 -0.0517  0.1598
  326BOLB   C3B 7811  19.728   9.674  23.345 -0.2233 -0.0051  0.0413
  326BOLB   C4B 7812  19.808   9.312  23.550 -0.0022  0.1248  0.0943
  326BOLB   NC2 7813  21.582   7.418  24.467 -0.3243 -0.1910 -0.6189
  326BOLB   PO2 7814  21.532   7.715  24.160  0.3174 -0.0476 -0.3670
  326BOLB   GL3 7815  21.063   7.915  24.084 -0.1093 -0.2336  0.3031
  326BOLB   GL4 7816  21.018   8.104  24.468  0.0813  0.1667  0.3868
  326BOLB   C1C 7817  20.833   8.154  23.778 -0.0568  0.1441 -0.2292
  326BOLB   C2C 7818  20.593   8.315  23.390  0.1013 -0.0351 -0.2493
  326BOLB   C3C 7819  20.450   8.416  22.999 -0.1827  0.2178 -0.0253
  326BOLB   C4C 7820  20.006   8.556  22.963  0.1785  0.1827 -0.0065
  326BOLB   C1D 7821  20.896   8.498  24.265  0.1248  0.0928  0.1661
  326BOLB   C2D 7822  20.848   8.650  23.775 -0.1511 -0.0182  0.2401
  326BOLB   C3D 7823  20.671   8.793  23.414 -0.1776 -0.1267 -0.1291
  326BOLB   C4D 7824  20.337   8.873  23.048  0.2058  0.4350 -0.1638
  327BOLB   NC1 7825  10.509  18.781  24.338 -0.1182 -0.0409  0.0173
  327BOLB   PO1 7826  10.625  18.324  24.296 -0.1270 -0.2222  0.2925
  327BOLB   GL1 7827  10.610  18.066  24.585 -0.3919  0.4454 -0.1574
  327BOLB   GL2 7828  10.818  18.227  24.784 -0.2878  0.2757 -0.1353
  327BOLB   C1A 7829  10.609  17.690  24.839 -0.0838  0.1235 -0.0904
  327BOLB   C2A 7830  10.477  17.597  25.262  0.0359 -0.2371 -0.3511
  327BOLB   C3A 7831  10.368  17.453  25.741 -0.0392  0.2334 -0.4173
  327BOLB   C4A 7832  10.495  17.424  26.215  0.0807  0.3932  0.1486
  327BOLB   C1B 7833  10.409  18.155  25.092  0.0568 -0.0335  0.2996
  327BOLB   C2B 7834  10.365  18.025  25.494  0.2452  0.2311 -0.4334
  327BOLB   C3B 7835  10.332  17.986  25.889 -0.1191 -0.1729  0.1288
  327BOLB   C4B 7836  10.451  18.252  26.171  0.3518  0.1293  0.2363
  327BOLB   NC2 7837  10.321  18.402  28.626 -0.1457  0.0649  0.0297
  327BOLB   PO2 7838  10.094  18.257  28.283 -0.1674  0.3082 -0.0946
  327BOLB   GL3 7839  10.128  18.402  27.947 -0.3761  0.0873  0.4439
  327BOLB   GL4 7840  10.414  18.502  27.956  0.1053  0.0817  0.1848
  327BOLB   C1C 7841  10.092  18.545  27.539 -0.1924  0.0073  0.1489
  327BOLB   C2C 7842  10.254  18.369  27.107 -0.0873 -0.1671  0.0615
  327BOLB   C3C 7843  10.355  18.122  26.739 -0.0161  0.1769 -0.0639
  327BOLB   C4C 7844  10.435  17.802  26.421  0.0649  0.2149  0.2495
  327BOLB   C1D 7845  10.557  18.735  27.583 -0.0444 -0.0973  0.0231
  327BOLB   C2D 7846  10.783  18.843  27.140  0.1086  0.2095 -0.2980
  327BOLB   C3D 7847  10.891  18.853  26.792 -0.0873  0.0466  0.2929
  327BOLB   C4D 7848  10.855  18.929  26.373  0.0536  0.0851  0.0059
  328BOLB   NC1 7849  17.059  11.690  23.685  0.2939  0.0130  0.0183
  328BOLB   PO1 7850  17.204  12.125  23.412  0.2166 -0.0301 -0.1479
  328BOLB   GL1 7851  17.301  12.030  23.884 -0.0046 -0.2584  0.3127
  328BOLB   GL2 7852  17.587  12.128  23.921 -0.0127  0.0372 -0.2122
  328BOLB   C1A 7853  17.460  11.730  24.254 -0.2061 -0.1111  0.3298
  328BOLB   C2A 7854  17.673  11.427  24.450  0.4903  0.1886 -0.0420
  328BOLB   C3A 7855  17.662  11.302  24.888 -0.0847  0.1233 -0.0620
  328BOLB   C4A 7856  17.616  11.311  25.264 -0.1775  0.1648 -0.0774
  328BOLB   C1B 7857  17.916  12.019  24.271  0.0955  0.1384  0.3421
  328BOLB   C2B 7858  18.117  11.720  24.539  0.1068 -0.1330 -0.0349
  328BOLB   C3B 7859  18.216  11.425  24.786 -0.1051 -0.3155 -0.0555
  328BOLB   C4B 7860  18.114  11.216  25.108 -0.0812  0.3362  0.3160
  328BOLB   NC2 7861  16.919   9.680  27.130  0.0213 -0.0161  0.2447
  328BOLB   PO2 7862  16.915  10.121  27.071 -0.2115  0.0360  0.3286
  328BOLB   GL3 7863  16.820  10.290  26.744  0.0506  0.0835  0.1155
  328BOLB   GL4 7864  16.519  10.509  26.939 -0.1475 -0.0735 -0.0274
  328BOLB   C1C 7865  16.748  10.575  26.424 -0.0949  0.0123 -0.0562
  328BOLB   C2C 7866  16.840  10.819  26.020  0.2764 -0.0343  0.1129
  328BOLB   C3C 7867  17.071  11.131  25.840 -0.0437 -0.0261 -0.1149
  328BOLB   C4C 7868  17.339  11.262  25.598 -0.1736  0.2133  0.0116
  328BOLB   C1D 7869  16.231  10.732  26.721  0.1514  0.0347  0.2447
  328BOLB   C2D 7870  16.060  11.095  26.598 -0.1864  0.0856  0.2315
  328BOLB   C3D 7871  16.213  11.406  26.386 -0.1011 -0.6010  0.2061
  328BOLB   C4D 7872  16.648  11.743  26.307 -0.0353 -0.3227 -0.0603
  329BOLB   NC1 7873  21.254  13.689  21.592 -0.3525  0.0204  0.0281
  329BOLB   PO1 7874  21.337  13.817  22.003 -0.1408  0.0177 -0.0162
  329BOLB   GL1 7875  21.540  13.816  22.367  0.0408  0.0166 -0.0670
  329BOLB   GL2 7876  21.605  14.145  22.547 -0.0372  0.1723 -0.0461
  329BOLB   C1A 7877  21.776  13.713  22.777  0.0949  0.1151  0.0210
  329BOLB   C2A 7878  21.875  13.777  23.220  0.3671  0.2226  0.2520
  329BOLB   C3A 7879  22.053  13.766  23.640  0.2441 -0.2667 -0.1435
  329BOLB   C4A 7880  22.412  13.925  23.936  0.0636  0.0758  0.4957
  329BOLB   C1B 7881  21.993  14.226  22.728 -0.3501  0.2301  0.1865
  329BOLB   C2B 7882  22.083  14.184  23.081 -0.0440  0.1617  0.0189
  329BOLB   C3B 7883  22.179  14.276  23.573  0.6172  0.0620  0.0452
  329BOLB   C4B 7884  21.930  14.643  23.823 -0.0661  0.3191 -0.0034
  329BOLB   NC2 7885  23.786  13.431  26.032 -0.1111  0.0100 -0.2056
  329BOLB   PO2 7886  23.812  13.531  25.526 -0.2160  0.1062  0.2354
  329BOLB   GL3 7887  23.435  13.515  25.313 -0.2866  0.3655  0.0091
  329BOLB   GL4 7888  23.502  13.245  24.982 -0.1941  0.1609  0.1544
  329BOLB   C1C 7889  23.005  13.537  25.171 -0.1308 -0.0861  0.0353
  329BOLB   C2C 7890  22.678  13.601  24.770 -0.0106  0.2231  0.0814
  329BOLB   C3C 7891  22.542  13.349  24.458 -0.2591 -0.1174  0.0413
  329BOLB   C4C 7892  22.425  13.507  24.148  0.5501 -0.0865 -0.2688
  329BOLB   C1D 7893  23.197  13.547  24.748 -0.0617 -0.0320 -0.1747
  329BOLB   C2D 7894  22.928  13.798  24.412  0.0873 -0.2538  0.2048
  329BOLB   C3D 7895  22.460  13.920  24.469  0.0537 -0.0083 -0.0045
  329BOLB   C4D 7896  22.035  13.861  24.243 -0.2135 -0.0077 -0.4142
  330BOLB   NC1 7897  18.537   9.523  21.616 -0.1533  0.3292  0.1579
  330BOLB   PO1 7898  18.774   9.343  21.258 -0.3369 -0.1401  0.1077
  330BOLB   GL1 7899  19.172   9.279  21.473 -0.0187  0.4734  0.0675
  330BOLB   GL2 7900  19.345   9.027  21.478 -0.0334 -0.0716 -0.2219
  330BOLB   C1A 7901  19.241   9.278  21.871 -0.1344 -0.2185 -0.3332
  330BOLB   C2A 7902  19.475   9.124  22.200  0.1340 -0.0446 -0.0184
  330BOLB   C3A 7903  19.370   9.002  22.662  0.5892 -0.3027 -0.2607
  330BOLB   C4A 7904  19.401   8.693  23.009 -0.1671  0.0454  0.1467
  330BOLB   C1B 7905  19.701   8.765  21.631  0.1242  0.0019  0.3342
  330BOLB   C2B 7906  19.860   8.466  21.970 -0.0793  0.0621  0.1032
  330BOLB   C3B 7907  20.156   8.410  22.229 -0.0373  0.1143  0.2361
  330BOLB   C4B 7908  20.259   8.633  22.558 -0.1479  0.0104 -0.0524
  330BOLB   NC2 7909  20.010   6.901  25.141 -0.1998  0.0252 -0.1813
  330BOLB   PO2 7910  20.034   7.384  25.067 -0.1111  0.1535 -0.2077
  330BOLB   GL3 7911  20.063   7.765  24.825 -0.1143  0.1267  0.1325
  330BOLB   GL4 7912  20.324   8.022  24.885  0.0598 -0.1595 -0.1742
  330BOLB   C1C 7913  20.218   7.959  24.416 -0.0560  0.2287 -0.1680
  330BOLB   C2C 7914  20.069   8.066  23.993 -0.2418  0.1731  0.2615
  330BOLB   C3C 7915  19.893   8.327  23.680  0.0636 -0.3891 -0.1331
  330BOLB   C4C 7916  19.547   8.398  23.329  0.1580  0.0280  0.0860
  330BOLB   C1D 7917  20.535   8.268  24.612  0.0949  0.0525  0.0267
  330BOLB   C2D 7918  20.383   8.369  24.202 -0.5274 -0.1056  0.0549
  330BOLB   C3D 7919  20.408   8.420  23.807  0.0890 -0.6068 -0.1516
  330BOLB   C4D 7920  20.138   8.655  23.441 -0.2536 -0.0914 -0.0997
  331BOLB   NC1 7921  14.617  18.082  24.739 -0.1541 -0.0480  0.1223
  331BOLB   PO1 7922  14.265  17.990  24.587  0.0176 -0.3592  0.0914
  331BOLB   GL1 7923  14.122  18.126  24.943 -0.0607 -0.3023 -0.4201
  331BOLB   GL2 7924  14.190  17.939  25.076 -0.0633 -0.1785 -0.0741
  331BOLB   C1A 7925  13.980  18.413  25.332  0.0031 -0.1974  0.2561
  331BOLB   C2A 7926  13.846  18.173  25.740 -0.3772  0.2346 -0.1861
  331BOLB   C3A 7927  13.671  17.976  26.086  0.0773 -0.0419  0.0319
  331BOLB   C4A 7928  13.502  17.900  26.362 -0.2793 -0.2503 -0.0206
  331BOLB   C1B 7929  13.886  17.801  25.383  0.1347 -0.0682  0.1007
  331BOLB   C2B 7930  14.168  17.758  25.794  0.1959  0.1926  0.0240
  331BOLB   C3B 7931  14.224  17.854  26.158  0.2647  0.4412  0.1417
  331BOLB   C4B 7932  14.445  17.815  26.422 -0.0016  0.0463  0.0790
  331BOLB   NC2 7933  12.796  18.493  28.576  0.0630  0.3884  0.5019
  331BOLB   PO2 7934  12.916  18.053  28.680 -0.0720 -0.0775  0.0149
  331BOLB   GL3 7935  13.155  17.725  28.346 -0.1341 -0.0018 -0.0296
  331BOLB   GL4 7936  13.362  17.428  28.335 -0.1524  0.0010 -0.0729
  331BOLB   C1C 7937  13.174  17.773  27.951 -0.1581  0.0759  0.2418
  331BOLB   C2C 7938  13.369  17.899  27.632  0.2699  0.3431  0.0367
  331BOLB   C3C 7939  13.474  17.908  27.241 -0.0732 -0.3465  0.0379
  331BOLB   C4C 7940  13.468  17.740  26.857  0.1420 -0.0296  0.2443
  331BOLB   C1D 7941  13.428  17.335  27.889 -0.1143  0.0788  0.1530
  331BOLB   C2D 7942  13.590  17.472  27.497  0.2224 -0.2500 -0.0601
  331BOLB   C3D 7943  13.738  17.429  27.115 -0.1494  0.0442  0.0259
  331BOLB   C4D 7944  13.750  17.258  26.780  0.1806  0.1811 -0.1312
  332BOLB   NC1 7945  11.240  21.027  23.814 -0.3966  0.0689  0.0793
  332BOLB   PO1 7946  11.692  20.950  23.980 -0.0440  0.1918  0.2412
  332BOLB   GL1 7947  11.854  20.816  24.464 -0.1664  0.0264  0.2071
  332BOLB   GL2 7948  11.610  20.742  24.715 -0.1573 -0.2070  0.0193
  332BOLB   C1A 7949  12.025  20.878  24.917 -0.0433  0.4621  0.1623
  332BOLB   C2A 7950  12.162  21.021  25.360  0.1483 -0.3052  0.1211
  332BOLB   C3A 7951  12.020  21.144  25.776  0.1228 -0.4133 -0.0571
  332BOLB   C4A 7952  11.993  21.203  26.225 -0.1231 -0.1535  0.2120
  332BOLB   C1B 7953  11.473  20.411  25.059  0.1131  0.0838  0.1285
  332BOLB   C2B 7954  11.379  20.202  25.432  0.0251  0.0214  0.3852
  332BOLB   C3B 7955  11.590  20.212  25.800 -0.0440 -0.0968 -0.1570
  332BOLB   C4B 7956  11.769  20.290  26.204  0.1712  0.3189 -0.1311
  332BOLB   NC2 7957  12.718  22.556  28.781 -0.0618 -0.1145 -0.2368
  332BOLB   PO2 7958  12.726  22.601  28.332 -0.2521  0.1041  0.4405
  332BOLB   GL3 7959  12.705  22.322  27.995  0.0526  0.0248  0.0721
  332BOLB   GL4 7960  13.032  22.250  27.836 -0.2916 -0.2761  0.0066
  332BOLB   C1C 7961  12.450  22.091  27.629 -0.0403 -0.2490 -0.0650
  332BOLB   C2C 7962  12.369  21.763  27.381 -0.1116 -0.0251  0.2121
  332BOLB   C3C 7963  12.279  21.665  26.935  0.1155  0.2578  0.1645
  332BOLB   C4C 7964  12.289  21.364  26.572  0.1516 -0.1016  0.2128
  332BOLB   C1D 7965  13.029  21.974  27.514  0.1863 -0.1009  0.0728
  332BOLB   C2D 7966  13.190  21.994  27.091  0.0810 -0.0077 -0.0446
  332BOLB   C3D 7967  13.377  22.162  26.670  0.0638  0.2367  0.1490
  332BOLB   C4D 7968  13.475  21.968  26.178 -0.0170 -0.0290 -0.1371
  333BOLB   NC1 7969  10.157  23.354  23.074  0.0894 -0.1198 -0.2595
  333BOLB   PO1 7970   9.634  23.327  23.083  0.0949  0.2654 -0.0232
  333BOLB   GL1 7971   9.889  23.561  23.429  0.1182 -0.0581 -0.1633
  333BOLB   GL2 7972  10.081  23.788  23.269 -0.0163 -0.0704  0.1951
  333BOLB   C1A 7973   9.963  23.616  23.894 -0.2596 -0.0607  0.0225
  333BOLB   C2A 7974   9.828  23.536  24.390 -0.0316 -0.1899  0.0985
  333BOLB   C3A 7975  10.074  23.492  24.758  0.2002  0.0119 -0.2011
  333BOLB   C4A 7976  10.178  23.521  25.209  0.1326 -0.0802  0.5606
  333BOLB   C1B 7977   9.967  24.209  23.118 -0.2821 -0.2137  0.4430
  333BOLB   C2B 7978   9.965  24.560  22.877 -0.2935 -0.0936 -0.1079
  333BOLB   C3B 7979   9.927  24.975  22.822 -0.0943 -0.0533  0.1258
  333BOLB   C4B 7980  10.053  25.164  22.329  0.0100 -0.0209 -0.1532
  333BOLB   NC2 7981   9.896  25.668  26.728 -0.1206  0.1093 -0.0810
  333BOLB   PO2 7982   9.802  25.366  26.840  0.0773  0.0256 -0.0833
  333BOLB   GL3 7983   9.818  25.074  26.660 -0.2037 -0.0056  0.1203
  333BOLB   GL4 7984  10.003  24.853  26.790  0.0141  0.3176  0.3068
  333BOLB   C1C 7985   9.685  24.888  26.283  0.1850  0.2032  0.1765
  333BOLB   C2C 7986   9.775  24.524  26.046 -0.1743  0.1149  0.3637
  333BOLB   C3C 7987   9.981  24.100  25.910 -0.0028  0.3266  0.0206
  333BOLB   C4C 7988  10.116  23.818  25.496  0.0683  0.0393 -0.0284
  333BOLB   C1D 7989   9.901  24.539  26.547  0.1937 -0.1732 -0.0592
  333BOLB   C2D 7990  10.023  24.028  26.435 -0.1801 -0.3232 -0.0827
  333BOLB   C3D 7991  10.090  23.726  26.175  0.1006 -0.1557 -0.0526
  333BOLB   C4D 7992  10.134  23.393  25.891 -0.3438 -0.0281 -0.2177
  334BOLB   NC1 7993  22.296  13.992  21.138  0.1000  0.1108  0.0534
  334BOLB   PO1 7994  22.672  13.848  21.481  0.1377  0.0136  0.3413
  334BOLB   GL1 7995  22.871  13.623  21.787  0.2543 -0.3524  0.1917
  334BOLB   GL2 7996  22.861  13.348  21.709  0.1788 -0.0941  0.1396
  334BOLB   C1A 7997  23.084  13.433  22.114 -0.0436 -0.0259  0.2273
  334BOLB   C2A 7998  23.329  13.416  22.470  0.0417  0.0567 -0.0040
  334BOLB   C3A 7999  23.565  13.225  22.773 -0.2968 -0.1019  0.2654
  334BOLB   C4A 8000  23.713  13.281  23.200  0.1414 -0.1535 -0.0122
  334BOLB   C1B 8001  22.924  12.893  21.869  0.0626  0.0302 -0.1723
  334BOLB   C2B 8002  22.957  12.708  22.238 -0.0914 -0.0476 -0.2451
  334BOLB   C3B 8003  23.213  12.425  22.576  0.1929  0.0250 -0.1383
  334BOLB   C4B 8004  23.429  11.989  22.550  0.0758 -0.4370  0.3395
  334BOLB   NC2 8005  23.883  11.295  25.236 -0.1079  0.1072 -0.4041
  334BOLB   PO2 8006  23.499  11.566  25.108 -0.0706  0.3895  0.2959
  334BOLB   GL3 8007  23.732  11.835  24.871 -0.0956 -0.0498  0.1144
  334BOLB   GL4 8008  24.075  12.005  24.766  0.3830 -0.0522 -0.1362
  334BOLB   C1C 8009  23.738  12.140  24.416 -0.5627 -0.0056  0.3222
  334BOLB   C2C 8010  23.955  12.356  24.082 -0.0154  0.2361 -0.2828
  334BOLB   C3C 8011  24.059  12.582  23.652  0.3382 -0.4306 -0.0213
  334BOLB   C4C 8012  23.984  13.012  23.498  0.0818 -0.0069  0.1499
  334BOLB   C1D 8013  24.075  11.779  24.412  0.3285  0.0140  0.0810
  334BOLB   C2D 8014  24.173  11.864  23.932 -0.1571  0.1809  0.2529
  334BOLB   C3D 8015  24.071  12.109  23.618 -0.0238 -0.1225 -0.1339
  334BOLB   C4D 8016  23.889  12.330  23.273  0.2996  0.1588  0.1052
  335BOLB   NC1 8017  13.021  22.122  24.132  0.2776  0.1315  0.2854
  335BOLB   PO1 8018  12.858  21.697  24.332 -0.2094 -0.1954  0.2562
  335BOLB   GL1 8019  12.984  22.014  24.597  0.2804  0.3881 -0.2405
  335BOLB   GL2 8020  13.190  21.832  24.870  0.0229 -0.1906 -0.1233
  335BOLB   C1A 8021  12.696  22.300  24.694  0.2720  0.1106  0.0814
  335BOLB   C2A 8022  12.585  22.500  25.097 -0.3491  0.0725 -0.2590
  335BOLB   C3A 8023  12.227  22.480  25.295  0.4592 -0.3122  0.1643
  335BOLB   C4A 8024  12.152  22.601  25.720  0.0011  0.1460 -0.1940
  335BOLB   C1B 8025  13.138  21.906  25.334 -0.1300 -0.3432  0.0726
  335BOLB   C2B 8026  13.268  22.041  25.702 -0.1239 -0.3422  0.1531
  335BOLB   C3B 8027  13.154  22.315  26.007 -0.0296  0.0960 -0.0280
  335BOLB   C4B 8028  13.368  22.511  26.253 -0.2899 -0.0986 -0.1926
  335BOLB   NC2 8029  11.353  23.297  28.207 -0.0564  0.0625 -0.0630
  335BOLB   PO2 8030  11.038  23.069  28.056 -0.0415  0.0889  0.0548
  335BOLB   GL3 8031  11.272  22.970  27.734 -0.1246 -0.3123  0.0905
  335BOLB   GL4 8032  11.196  22.674  27.636  0.0939 -0.0114 -0.2848
  335BOLB   C1C 8033  11.603  22.966  27.311 -0.1013  0.0981 -0.1270
  335BOLB   C2C 8034  11.990  22.766  27.057  0.0598 -0.0103  0.0294
  335BOLB   C3C 8035  12.021  22.623  26.609 -0.2819 -0.0934 -0.0997
  335BOLB   C4C 8036  12.215  22.637  26.168 -0.2728 -0.2914 -0.3764
  335BOLB   C1D 8037  11.229  22.590  27.207  0.2546  0.0070  0.4397
  335BOLB   C2D 8038  11.167  22.266  26.881 -0.0696  0.1512 -0.1505
  335BOLB   C3D 8039  11.187  22.227  26.491  0.2549  0.1206 -0.2389
  335BOLB   C4D 8040  11.130  22.225  26.063 -0.2940  0.0906  0.0214
  336BOLB   NC1 8041  17.826  23.630  22.803  0.1590 -0.1824  0.0877
  336BOLB   PO1 8042  17.743  23.411  23.164 -0.1451 -0.0385  0.0589
  336BOLB   GL1 8043  17.997  23.836  23.254  0.3054 -0.1932 -0.2916
  336BOLB   GL2 8044  18.132  23.712  23.543  0.2488  0.1647  0.4621
  336BOLB   C1A 8045  18.066  24.188  23.485 -0.0505 -0.1615 -0.0971
  336BOLB   C2A 8046  18.308  24.367  23.723  0.3422 -0.1818 -0.2992
  336BOLB   C3A 8047  18.465  24.156  24.102 -0.1016 -0.0402 -0.0937
  336BOLB   C4A 8048  18.712  24.077  24.541 -0.1844 -0.0568  0.0921
  336BOLB   C1B 8049  18.274  23.745  23.840 -0.0152  0.2329  0.2508
  336BOLB   C2B 8050  18.308  23.724  24.325  0.1198 -0.1123  0.0229
  336BOLB   C3B 8051  18.565  23.543  24.627 -0.1969  0.1113 -0.2111
  336BOLB   C4B 8052  18.948  23.447  24.706 -0.2579  0.1682  0.1496
  336BOLB   NC2 8053  19.402  24.721  26.848  0.0629 -0.1522 -0.0468
  336BOLB   PO2 8054  19.266  25.091  26.681  0.4524  0.2455 -0.1093
  336BOLB   GL3 8055  19.290  24.928  26.287  0.1128 -0.4059 -0.3002
  336BOLB   GL4 8056  19.260  24.540  26.374  0.0181 -0.0655 -0.0850
  336BOLB   C1C 8057  19.378  24.659  25.921 -0.0178 -0.0996 -0.0572
  336BOLB   C2C 8058  19.247  24.197  25.673 -0.1362 -0.3885 -0.2313
  336BOLB   C3C 8059  18.933  24.064  25.388  0.0455 -0.1047  0.0505
  336BOLB   C4C 8060  18.828  23.889  24.990 -0.0238  0.0048  0.0662
  336BOLB   C1D 8061  19.252  24.202  26.208  0.2423  0.4213 -0.2635
  336BOLB   C2D 8062  19.630  23.982  26.110 -0.0212 -0.0963 -0.1116
  336BOLB   C3D 8063  19.875  23.629  26.108  0.0870  0.0132  0.3296
  336BOLB   C4D 8064  20.172  23.326  26.013  0.1789 -0.2266 -0.2376
  337BOLB   NC1 8065  14.833  13.665  24.253 -0.2389 -0.0736  0.1921
  337BOLB   PO1 8066  15.227  14.083  24.182  0.1156 -0.1951 -0.0248
  337BOLB   GL1 8067  15.422  14.074  24.538  0.3307 -0.0151  0.0774
  337BOLB   GL2 8068  15.463  14.396  24.590 -0.0196 -0.0588 -0.3814
  337BOLB   C1A 8069  15.530  13.895  24.899  0.2292  0.0890 -0.4448
  337BOLB   C2A 8070  15.642  13.776  25.289  0.1983  0.2136 -0.0128
  337BOLB   C3A 8071  15.790  13.792  25.721  0.0075  0.0668 -0.0259
  337BOLB   C4A 8072  15.650  13.589  26.145 -0.2685  0.1786  0.1560
  337BOLB   C1B 8073  15.713  14.395  24.997 -0.0817 -0.0607  0.2928
  337BOLB   C2B 8074  15.749  14.251  25.352 -0.1832  0.0639 -0.0390
  337BOLB   C3B 8075  15.626  14.393  25.722 -0.1260 -0.0455 -0.0332
  337BOLB   C4B 8076  15.674  14.098  26.159  0.0043  0.0872  0.2442
  337BOLB   NC2 8077  16.128  12.283  28.358 -0.1255  0.4898  0.1187
  337BOLB   PO2 8078  16.267  12.469  27.946  0.0670  0.1146 -0.2333
  337BOLB   GL3 8079  16.280  12.695  27.680  0.1263  0.0208 -0.0327
  337BOLB   GL4 8080  16.276  12.988  27.731 -0.0041 -0.1130  0.1620
  337BOLB   C1C 8081  16.244  12.789  27.258  0.0673  0.2840 -0.1938
  337BOLB   C2C 8082  16.223  13.068  26.929 -0.0604  0.0473  0.2570
  337BOLB   C3C 8083  15.919  13.342  26.861  0.0401 -0.3540 -0.0121
  337BOLB   C4C 8084  15.708  13.582  26.510 -0.0807  0.1093  0.1941
  337BOLB   C1D 8085  16.396  13.267  27.364  0.2493 -0.2939 -0.2126
  337BOLB   C2D 8086  16.669  13.325  27.005 -0.0214  0.0462 -0.1576
  337BOLB   C3D 8087  16.527  13.468  26.631 -0.0335  0.0898 -0.0373
  337BOLB   C4D 8088  16.288  13.837  26.452 -0.0967 -0.2816 -0.0541
  338BOLB   NC1 8089   9.511  17.538  23.858  0.0418  0.1746 -0.1775
  338BOLB   PO1 8090   9.646  17.191  23.878  0.2232  0.0335 -0.1571
  338BOLB   GL1 8091   9.531  17.012  24.200  0.0219  0.3649 -0.0707
  338BOLB   GL2 8092   9.420  16.656  24.148 -0.1003  0.1646 -0.0393
  338BOLB   C1A 8093   9.504  16.948  24.632 -0.1301  0.0605  0.0812
  338BOLB   C2A 8094   9.383  16.843  24.988  0.0160 -0.0302  0.0695
  338BOLB   C3A 8095   9.335  16.782  25.564  0.2598 -0.0491  0.0229
  338BOLB   C4A 8096   9.257  16.755  25.964 -0.1295 -0.0649 -0.2355
  338BOLB   C1B 8097   9.170  16.475  24.518  0.0406 -0.1420 -0.0015
  338BOLB   C2B 8098   9.018  16.443  24.849  0.1210 -0.0973  0.0254
  338BOLB   C3B 8099   8.982  16.515  25.361  0.4809  0.1593  0.1586
  338BOLB   C4B 8100   8.752  16.653  25.730  0.1627  0.0115 -0.2579
  338BOLB   NC2 8101   8.690  15.732  28.513 -0.0585  0.2411 -0.0392
  338BOLB   PO2 8102   8.633  16.041  28.235 -0.0207  0.1242  0.0531
  338BOLB   GL3 8103   8.824  15.954  27.789  0.1577 -0.2130  0.1753
  338BOLB   GL4 8104   8.675  15.801  27.546  0.0447 -0.2427  0.0531
  338BOLB   C1C 8105   8.745  16.245  27.423 -0.0077 -0.2262  0.2495
  338BOLB   C2C 8106   8.797  16.335  26.984 -0.0357  0.2029 -0.0182
  338BOLB   C3C 8107   9.094  16.349  26.685 -0.2434  0.0401 -0.2250
  338BOLB   C4C 8108   9.440  16.460  26.392 -0.0679 -0.1200  0.2589
  338BOLB   C1D 8109   9.083  15.797  27.435 -0.3254  0.0055 -0.1136
  338BOLB   C2D 8110   9.058  15.718  27.082 -0.1579  0.0122 -0.1119
  338BOLB   C3D 8111   9.472  15.656  26.886  0.0984 -0.0424 -0.3349
  338BOLB   C4D 8112   9.595  15.628  26.527  0.0814 -0.1353 -0.1498
  339BOLB   NC1 8113  12.344  19.855  23.891  0.3215 -0.2538 -0.3164
  339BOLB   PO1 8114  12.256  20.177  24.219 -0.3568  0.3776  0.1750
  339BOLB   GL1 8115  12.305  20.061  24.577  0.1043  0.0088 -0.0053
  339BOLB   GL2 8116  12.507  20.058  24.817  0.1672  0.2618  0.2387
  339BOLB   C1A 8117  12.047  20.214  25.013 -0.1221 -0.4020 -0.1159
  339BOLB   C2A 8118  11.932  20.429  25.393  0.1825 -0.3235  0.2972
  339BOLB   C3A 8119  12.021  20.525  25.840  0.2379 -0.0335 -0.3615
  339BOLB   C4A 8120  12.013  20.736  26.220 -0.5179  0.1809  0.1143
  339BOLB   C1B 8121  12.403  20.022  25.249 -0.2226  0.2088 -0.3225
  339BOLB   C2B 8122  12.214  19.992  25.575 -0.0064  0.0713  0.1212
  339BOLB   C3B 8123  12.094  20.010  26.001  0.2785 -0.3275  0.0562
  339BOLB   C4B 8124  11.933  19.816  26.359 -0.2580 -0.1015 -0.1428
  339BOLB   NC2 8125  11.870  20.436  28.557  0.0188 -0.0184 -0.0454
  339BOLB   PO2 8126  11.612  20.797  28.637 -0.0815  0.2064  0.0044
  339BOLB   GL3 8127  11.763  20.799  28.211  0.2046 -0.0884 -0.0029
  339BOLB   GL4 8128  11.597  20.516  28.128  0.0501 -0.2031  0.2816
  339BOLB   C1C 8129  11.869  20.944  27.731 -0.1532  0.0884 -0.0735
  339BOLB   C2C 8130  12.028  21.193  27.418 -0.3170  0.1736  0.0568
  339BOLB   C3C 8131  12.121  21.113  26.959 -0.1021 -0.3047 -0.2626
  339BOLB   C4C 8132  12.147  20.865  26.615  0.0643 -0.2477 -0.2742
  339BOLB   C1D 8133  11.320  20.650  27.758  0.1099 -0.1073 -0.0803
  339BOLB   C2D 8134  11.308  20.863  27.284 -0.1444  0.0530 -0.2456
  339BOLB   C3D 8135  11.589  20.703  27.078  0.1187  0.3115  0.2887
  339BOLB   C4D 8136  11.690  20.593  26.632 -0.3551  0.1215 -0.0394
  340BOLB   NC1 8137  20.157  17.824  23.385 -0.2388  0.0625  0.1759
  340BOLB   PO1 8138  20.398  17.414  23.255 -0.4631 -0.0631 -0.2243
  340BOLB   GL1 8139  20.582  17.270  23.591 -0.0570 -0.2317  0.1627
  340BOLB   GL2 8140  20.505  17.449  23.786  0.2677  0.2718 -0.3720
  340BOLB   C1A 8141  20.915  17.159  23.936  0.2631  0.0578 -0.0273
  340BOLB   C2A 8142  21.145  17.294  24.348 -0.0305  0.0773 -0.1903
  340BOLB   C3A 8143  21.301  17.313  24.821  0.1634  0.2181  0.3068
  340BOLB   C4A 8144  21.547  17.176  25.033  0.0523 -0.3075 -0.1373
  340BOLB   C1B 8145  20.558  17.555  24.195 -0.2716 -0.0714 -0.3645
  340BOLB   C2B 8146  20.642  17.497  24.493  0.1445 -0.3002  0.2120
  340BOLB   C3B 8147  20.842  17.530  24.846  0.0792  0.1486 -0.1157
  340BOLB   C4B 8148  20.684  17.436  25.226 -0.3277 -0.0432 -0.1506
  340BOLB   NC2 8149  22.337  18.017  27.217 -0.0851 -0.0459 -0.1095
  340BOLB   PO2 8150  22.597  17.823  26.887  0.0947 -0.1357 -0.0194
  340BOLB   GL3 8151  22.432  17.732  26.457 -0.2037 -0.1966  0.1692
  340BOLB   GL4 8152  22.539  17.960  26.323  0.3352 -0.1960 -0.1651
  340BOLB   C1C 8153  22.567  17.396  26.167  0.0647  0.2370  0.0679
  340BOLB   C2C 8154  22.350  17.141  25.812  0.1744  0.0135 -0.3727
  340BOLB   C3C 8155  22.064  16.877  25.614 -0.2720  0.0439 -0.2575
  340BOLB   C4C 8156  21.656  17.028  25.454 -0.2339  0.1148  0.0732
  340BOLB   C1D 8157  22.452  17.822  25.914  0.3892 -0.2182  0.0678
  340BOLB   C2D 8158  22.013  17.803  25.703 -0.3034  0.0942 -0.3184
  340BOLB   C3D 8159  21.621  17.734  25.909  0.1258 -0.1783  0.3026
  340BOLB   C4D 8160  21.188  17.687  26.066  0.0757 -0.1415 -0.3825
  341BOLB   NC1 8161   7.773  22.933  23.801  0.1418  0.0157 -0.0971
  341BOLB   PO1 8162   8.143  23.157  23.682  0.1547 -0.0744  0.0215
  341BOLB   GL1 8163   8.262  23.299  24.060 -0.2230 -0.2210  0.2136
  341BOLB   GL2 8164   8.076  23.220  24.228  0.2389 -0.5349 -0.1514
  341BOLB   C1A 8165   8.614  23.165  24.370 -0.2395 -0.0067 -0.1198
  341BOLB   C2A 8166   9.007  23.416  24.582  0.0276 -0.2450  0.1760
  341BOLB   C3A 8167   9.433  23.475  24.782 -0.2291 -0.1264  0.0265
  341BOLB   C4A 8168   9.723  23.534  25.103  0.2011 -0.0003  0.0614
  341BOLB   C1B 8169   8.142  23.421  24.565  0.0793  0.0217  0.0777
  341BOLB   C2B 8170   8.068  23.386  24.992  0.3937  0.0360  0.1025
  341BOLB   C3B 8171   7.893  23.358  25.464 -0.2083 -0.2267  0.1733
  341BOLB   C4B 8172   7.509  23.223  25.709 -0.0775 -0.1689  0.0000
  341BOLB   NC2 8173   8.658  24.990  27.054  0.0855  0.3045  0.3324
  341BOLB   PO2 8174   9.000  24.613  27.084 -0.0398  0.1080  0.2520
  341BOLB   GL3 8175   9.315  24.286  26.940 -0.2476  0.2425  0.1376
  341BOLB   GL4 8176   8.994  24.089  26.912 -0.2506 -0.1020 -0.2214
  341BOLB   C1C 8177   9.566  24.012  26.623 -0.0342 -0.1869  0.1139
  341BOLB   C2C 8178   9.589  23.934  26.178 -0.0607 -0.1064 -0.1568
  341BOLB   C3C 8179   9.657  23.645  25.901  0.3176  0.3610  0.2924
  341BOLB   C4C 8180   9.703  23.537  25.490  0.0936 -0.0696  0.3010
  341BOLB   C1D 8181   9.039  23.870  26.547 -0.2313  0.1468  0.1262
  341BOLB   C2D 8182   9.009  23.902  26.145 -0.0775 -0.0622 -0.1206
  341BOLB   C3D 8183   9.086  23.711  25.727  0.0308  0.3544  0.3408
  341BOLB   C4D 8184   8.791  23.663  25.511 -0.1264 -0.0724  0.1794
  342BOLB   NC1 8185  16.404  23.111  23.477  0.0813 -0.2525 -0.1533
  342BOLB   PO1 8186  16.549  23.498  23.393  0.4916  0.0096 -0.3541
  342BOLB   GL1 8187  16.792  23.469  23.800 -0.0797  0.0087  0.1117
  342BOLB   GL2 8188  17.125  23.471  23.654 -0.1940  0.0572 -0.0235
  342BOLB   C1A 8189  16.994  23.330  24.237  0.2625 -0.1740 -0.0984
  342BOLB   C2A 8190  17.211  23.502  24.547  0.1860 -0.0870  0.6070
  342BOLB   C3A 8191  17.316  23.522  24.929 -0.1134 -0.0544  0.1593
  342BOLB   C4A 8192  17.378  23.842  25.290 -0.3101  0.0350 -0.3961
  342BOLB   C1B 8193  17.434  23.517  23.953 -0.1851  0.0803 -0.0769
  342BOLB   C2B 8194  17.579  23.782  24.311 -0.3533 -0.0193 -0.1782
  342BOLB   C3B 8195  17.716  23.871  24.718 -0.0791  0.2968 -0.3858
  342BOLB   C4B 8196  17.869  23.817  25.103 -0.1816  0.0533 -0.2022
  342BOLB   NC2 8197  17.605  24.271  27.423  0.0612 -0.4062  0.0273
  342BOLB   PO2 8198  17.142  24.432  27.600 -0.2390  0.1494  0.0559
  342BOLB   GL3 8199  17.116  24.304  27.084 -0.1323 -0.0896  0.1065
  342BOLB   GL4 8200  17.434  24.385  26.957 -0.1454 -0.1099  0.1419
  342BOLB   C1C 8201  17.065  23.984  26.820  0.0108 -0.1256 -0.1503
  342BOLB   C2C 8202  17.321  24.007  26.431 -0.1685 -0.2359 -0.0018
  342BOLB   C3C 8203  17.421  24.065  26.052 -0.0153 -0.4179 -0.2936
  342BOLB   C4C 8204  17.462  24.006  25.653  0.0865 -0.1555 -0.2587
  342BOLB   C1D 8205  17.621  24.367  26.620  0.0766 -0.1723  0.0807
  342BOLB   C2D 8206  17.871  24.375  26.136 -0.2567 -0.1299 -0.2671
  342BOLB   C3D 8207  18.020  24.322  25.791  0.2761 -0.1963 -0.1832
  342BOLB   C4D 8208  17.952  24.231  25.431 -0.0952 -0.0532  0.1670
  343BOLB   NC1 8209  19.922  10.613  22.015 -0.1364 -0.0657 -0.0832
  343BOLB   PO1 8210  19.796  10.237  21.687  0.2852 -0.1673 -0.0901
  343BOLB   GL1 8211  19.837  10.030  22.136 -0.0387 -0.1726  0.0153
  343BOLB   GL2 8212  20.084  10.200  22.281 -0.0933 -0.3533  0.0692
  343BOLB   C1A 8213  20.003   9.755  22.434 -0.5236 -0.0850 -0.0282
  343BOLB   C2A 8214  20.027   9.634  22.823  0.1213  0.1205  0.2134
  343BOLB   C3A 8215  20.196   9.534  23.223 -0.0342 -0.0420 -0.3793
  343BOLB   C4A 8216  20.305   9.135  23.471 -0.3769  0.1143  0.2818
  343BOLB   C1B 8217  20.360  10.036  22.644  0.0245 -0.0881 -0.2612
  343BOLB   C2B 8218  20.549   9.883  22.958 -0.0835  0.2532 -0.2495
  343BOLB   C3B 8219  20.534   9.825  23.436  0.0615 -0.2272 -0.0538
  343BOLB   C4B 8220  20.194   9.793  23.786 -0.1292 -0.3724 -0.0936
  343BOLB   NC2 8221  19.736   8.310  25.876  0.0019 -0.0942 -0.0153
  343BOLB   PO2 8222  19.643   8.007  25.550 -0.1274  0.1062  0.0039
  343BOLB   GL3 8223  19.700   7.933  25.157  0.1593  0.0501  0.2832
  343BOLB   GL4 8224  19.511   7.720  25.032 -0.1172  0.1083  0.1613
  343BOLB   C1C 8225  19.960   8.332  24.970 -0.1136  0.0347  0.0477
  343BOLB   C2C 8226  20.209   8.742  24.769 -0.0145 -0.0362  0.2893
  343BOLB   C3C 8227  20.359   8.856  24.343 -0.1486  0.2599 -0.0053
  343BOLB   C4C 8228  20.434   8.902  23.891  0.4051  0.0929  0.1136
  343BOLB   C1D 8229  19.663   8.019  24.656  0.1742  0.2010  0.2785
  343BOLB   C2D 8230  19.966   8.373  24.479  0.0107  0.1159  0.1792
  343BOLB   C3D 8231  19.952   8.622  24.097 -0.0668 -0.1430  0.0643
  343BOLB   C4D 8232  19.811   8.857  23.758  0.1489 -0.0632  0.2456
  344BOLB   NC1 8233  20.885  14.628  23.022  0.2210 -0.0937 -0.1211
  344BOLB   PO1 8234  20.561  14.310  23.246  0.1014 -0.4395  0.0435
  344BOLB   GL1 8235  20.663  14.301  23.581  0.1957 -0.5302  0.2784
  344BOLB   GL2 8236  20.932  14.502  23.625 -0.0034 -0.4355 -0.3275
  344BOLB   C1A 8237  20.654  14.069  23.973 -0.1659  0.1439 -0.0365
  344BOLB   C2A 8238  20.849  13.775  24.237 -0.1060 -0.0780  0.1098
  344BOLB   C3A 8239  20.956  13.559  24.635  0.1369 -0.1201 -0.3125
  344BOLB   C4A 8240  21.073  13.069  24.745 -0.3448  0.1146 -0.2320
  344BOLB   C1B 8241  21.008  14.508  24.127  0.1677  0.2111  0.0383
  344BOLB   C2B 8242  21.224  14.580  24.397  0.0254  0.2476  0.0040
  344BOLB   C3B 8243  21.392  14.539  24.789 -0.1919  0.4540  0.1013
  344BOLB   C4B 8244  21.359  14.475  25.317 -0.1687  0.0250 -0.2438
  344BOLB   NC2 8245  21.546  12.246  26.461 -0.0065 -0.1361 -0.0047
  344BOLB   PO2 8246  21.927  12.232  26.288  0.0035  0.0016 -0.2207
  344BOLB   GL3 8247  21.714  12.370  25.962 -0.2876 -0.1287  0.1159
  344BOLB   GL4 8248  21.393  12.550  25.958 -0.0325 -0.0558  0.0688
  344BOLB   C1C 8249  21.609  12.193  25.535  0.1329 -0.1342 -0.2018
  344BOLB   C2C 8250  21.605  12.221  25.135  0.0977 -0.2317 -0.0498
  344BOLB   C3C 8251  21.698  12.599  25.023  0.0429  0.1210 -0.1552
  344BOLB   C4C 8252  21.323  12.883  24.948 -0.1243  0.0243  0.0025
  344BOLB   C1D 8253  21.086  12.843  26.007 -0.0674 -0.2083  0.0291
  344BOLB   C2D 8254  20.871  13.202  25.955  0.1301  0.1215  0.1549
  344BOLB   C3D 8255  20.495  13.451  26.018 -0.2762 -0.3279  0.1915
  344BOLB   C4D 8256  20.286  13.747  25.956 -0.0105 -0.0122  0.1080
  345BOLB   NC1 8257  22.548  11.242  20.235 -0.0258 -0.2366 -0.2656
  345BOLB   PO1 8258  22.289  11.418  20.644 -0.1427  0.0591  0.0785
  345BOLB   GL1 8259  22.566  11.039  20.792 -0.0159  0.1730 -0.1921
  345BOLB   GL2 8260  22.913  11.020  20.568  0.2087 -0.0388 -0.2556
  345BOLB   C1A 8261  22.680  10.668  21.046 -0.4435  0.3712  0.0206
  345BOLB   C2A 8262  22.811  10.526  21.381  0.3119 -0.0771 -0.2194
  345BOLB   C3A 8263  23.051  10.608  21.700 -0.0038 -0.2559  0.0661
  345BOLB   C4A 8264  23.189  10.527  22.108  0.1639  0.1062  0.3450
  345BOLB   C1B 8265  23.092  10.977  20.928  0.2791 -0.0491  0.2535
  345BOLB   C2B 8266  23.242  10.847  21.282  0.0252  0.0877  0.1807
  345BOLB   C3B 8267  23.570  10.813  21.580  0.5244 -0.1279  0.2853
  345BOLB   C4B 8268  23.965  10.894  21.665 -0.2767 -0.2526  0.0941
  345BOLB   NC2 8269  25.083  10.129  23.657  0.2304  0.0500 -0.4646
  345BOLB   PO2 8270  25.144   9.688  23.789  0.2231 -0.1126 -0.3336
  345BOLB   GL3 8271  24.810   9.888  23.349 -0.3148 -0.1291  0.1176
  345BOLB   GL4 8272  24.467   9.723  23.187 -0.5751  0.0434 -0.2331
  345BOLB   C1C 8273  24.522  10.113  22.997  0.4422  0.0884  0.0098
  345BOLB   C2C 8274  24.172  10.119  22.835  0.2030 -0.1008  0.0004
  345BOLB   C3C 8275  23.755  10.186  22.632 -0.1603 -0.4293  0.1083
  345BOLB   C4C 8276  23.406  10.205  22.430  0.1851 -0.4007  0.0715
  345BOLB   C1D 8277  24.064   9.889  23.230 -0.0754  0.2081 -0.0440
  345BOLB   C2D 8278  23.798   9.731  22.952  0.2546  0.1184 -0.0073
  345BOLB   C3D 8279  23.414   9.930  22.868 -0.1009 -0.0079 -0.0137
  345BOLB   C4D 8280  23.009  10.148  22.757 -0.2781 -0.1988 -0.0859
  346BOLB   NC1 8281  22.029  20.673  20.801 -0.1706 -0.0097 -0.0704
  346BOLB   PO1 8282  21.966  20.879  21.156  0.1510 -0.2203 -0.2442
  346BOLB   GL1 8283  22.373  20.955  21.366  0.1079 -0.0335 -0.2193
  346BOLB   GL2 8284  22.314  20.734  21.637  0.3520 -0.0382 -0.1257
  346BOLB   C1A 8285  22.689  21.167  21.578  0.1658 -0.3631 -0.3899
  346BOLB   C2A 8286  22.831  21.269  21.921  0.0741 -0.3674 -0.1802
  346BOLB   C3A 8287  23.243  21.363  22.182  0.1801 -0.1899 -0.2349
  346BOLB   C4A 8288  23.547  21.396  22.503 -0.3907  0.1303 -0.0037
  346BOLB   C1B 8289  22.373  20.901  21.987 -0.2727 -0.1213 -0.0955
  346BOLB   C2B 8290  22.783  20.999  22.309 -0.0966  0.2748 -0.3439
  346BOLB   C3B 8291  23.115  21.154  22.663  0.0413  0.1346  0.4511
  346BOLB   C4B 8292  23.425  20.893  23.002  0.0228 -0.2382  0.2176
  346BOLB   NC2 8293  25.288  22.051  23.247  0.2603 -0.1792  0.1157
  346BOLB   PO2 8294  25.432  22.340  22.882  0.1864  0.1429 -0.0627
  346BOLB   GL3 8295  25.097  22.318  22.634 -0.0842  0.0703  0.0108
  346BOLB   GL4 8296  25.063  22.162  22.352  0.1393 -0.1490 -0.0708
  346BOLB   C1C 8297  24.603  22.249  22.601 -0.1990 -0.3130  0.1089
  346BOLB   C2C 8298  24.359  21.872  22.600 -0.0927  0.1203  0.0040
  346BOLB   C3C 8299  24.133  21.788  22.884  0.3007 -0.0602  0.1054
  346BOLB   C4C 8300  23.749  21.513  22.890  0.3444  0.1249 -0.0047
  346BOLB   C1D 8301  25.042  22.423  21.979 -0.0291  0.1835  0.1741
  346BOLB   C2D 8302  24.741  22.551  21.717 -0.0806 -0.4571  0.1318
  346BOLB   C3D 8303  24.324  22.682  21.376  0.0474 -0.3399 -0.1197
  346BOLB   C4D 8304  24.129  23.131  21.277 -0.0179  0.0511 -0.1059
  347BOLB   NC1 8305  15.617  22.613  23.436  0.1386 -0.2610 -0.0161
  347BOLB   PO1 8306  15.769  22.256  23.644  0.1199 -0.2189  0.1069
  347BOLB   GL1 8307  15.814  22.551  23.921 -0.0987 -0.2391 -0.0496
  347BOLB   GL2 8308  15.445  22.503  24.135  0.0467 -0.1912  0.0048
  347BOLB   C1A 8309  15.966  22.689  24.311 -0.3014 -0.1836 -0.1718
  347BOLB   C2A 8310  15.838  22.833  24.748  0.0424 -0.0481 -0.2901
  347BOLB   C3A 8311  15.831  22.845  25.207 -0.0045 -0.1500 -0.0250
  347BOLB   C4A 8312  15.782  23.126  25.520 -0.3044 -0.1395  0.2089
  347BOLB   C1B 8313  15.669  22.339  24.473  0.2464  0.0272 -0.0739
  347BOLB   C2B 8314  15.674  22.332  24.917 -0.0592 -0.2403 -0.1701
  347BOLB   C3B 8315  15.719  22.272  25.343 -0.2078  0.0145 -0.0198
  347BOLB   C4B 8316  15.713  22.213  25.867 -0.2447 -0.1071 -0.1793
  347BOLB   NC2 8317  15.866  23.173  27.872 -0.1118  0.0811  0.1934
  347BOLB   PO2 8318  16.115  23.439  27.728 -0.2957  0.1956 -0.2153
  347BOLB   GL3 8319  16.161  23.153  27.436 -0.0051 -0.0924 -0.3920
  347BOLB   GL4 8320  15.976  22.951  27.404  0.4972  0.0524 -0.3077
  347BOLB   C1C 8321  16.113  23.289  27.039  0.0937  0.0918 -0.5277
  347BOLB   C2C 8322  15.848  23.314  26.669  0.3253  0.1509  0.0018
  347BOLB   C3C 8323  15.636  23.226  26.295 -0.0748  0.1073 -0.0259
  347BOLB   C4C 8324  15.706  23.238  25.887 -0.0421  0.2424 -0.1528
  347BOLB   C1D 8325  15.853  22.709  27.113 -0.1998 -0.1308 -0.2551
  347BOLB   C2D 8326  15.693  22.627  26.697 -0.1470  0.2295 -0.0330
  347BOLB   C3D 8327  15.336  22.830  26.425 -0.2120  0.3053 -0.1770
  347BOLB   C4D 8328  15.517  22.619  26.012  0.2316  0.1908 -0.0365
  348BOLB   NC1 8329  21.184  19.793  23.090 -0.0297 -0.1278 -0.3625
  348BOLB   PO1 8330  21.120  19.393  23.294  0.0453  0.1827  0.0137
  348BOLB   GL1 8331  21.098  19.409  23.733  0.0326  0.0749 -0.1895
  348BOLB   GL2 8332  20.990  19.445  24.025  0.0739 -0.0476 -0.0001
  348BOLB   C1A 8333  21.504  19.515  23.906 -0.1104  0.0371  0.0502
  348BOLB   C2A 8334  21.757  19.738  24.115 -0.1434 -0.0371 -0.0702
  348BOLB   C3A 8335  22.007  19.865  24.490  0.1424 -0.0531  0.0546
  348BOLB   C4A 8336  22.137  20.207  24.607 -0.2632  0.0748 -0.0862
  348BOLB   C1B 8337  21.304  19.562  24.339  0.1134 -0.1467  0.1009
  348BOLB   C2B 8338  21.604  19.568  24.675  0.1450  0.0036  0.0135
  348BOLB   C3B 8339  21.824  19.871  25.026 -0.0061  0.0578 -0.0887
  348BOLB   C4B 8340  21.999  20.233  25.139 -0.2787 -0.0126  0.1331
  348BOLB   NC2 8341  23.873  21.488  25.324  0.1436  0.1901  0.2032
  348BOLB   PO2 8342  24.158  21.231  25.291 -0.0894  0.2783 -0.0977
  348BOLB   GL3 8343  23.684  21.093  25.074 -0.0336  0.3476 -0.2506
  348BOLB   GL4 8344  23.449  21.316  24.966 -0.0169 -0.0519  0.2702
  348BOLB   C1C 8345  23.396  20.888  24.684  0.2515  0.0927 -0.3339
  348BOLB   C2C 8346  23.017  20.713  24.579 -0.1853  0.0985 -0.1128
  348BOLB   C3C 8347  22.679  20.638  24.713  0.0660  0.1323 -0.0569
  348BOLB   C4C 8348  22.549  20.260  24.762  0.0875 -0.2339  0.1672
  348BOLB   C1D 8349  23.472  21.528  24.639  0.2524 -0.3687  0.2508
  348BOLB   C2D 8350  23.433  21.351  24.143 -0.0513  0.0885 -0.0330
  348BOLB   C3D 8351  23.486  21.029  23.845  0.4103  0.0941  0.1952
  348BOLB   C4D 8352  23.668  20.727  23.561 -0.0619 -0.3032  0.1253
  349BOLB   NC1 8353  11.343  12.486  23.572 -0.0034  0.1793 -0.0388
  349BOLB   PO1 8354  11.275  12.496  24.067 -0.0504  0.0353  0.2009
  349BOLB   GL1 8355  11.156  12.408  24.481 -0.1173 -0.0105 -0.1683
  349BOLB   GL2 8356  11.356  12.602  24.639 -0.1908  0.0617 -0.2608
  349BOLB   C1A 8357  10.895  12.260  24.846 -0.5875 -0.1029 -0.2905
  349BOLB   C2A 8358  10.743  11.955  25.047 -0.2290  0.0078  0.0080
  349BOLB   C3A 8359  10.899  11.456  25.179 -0.1578 -0.0271  0.1246
  349BOLB   C4A 8360  10.986  11.050  25.320  0.1305 -0.0810  0.1066
  349BOLB   C1B 8361  11.328  12.377  25.053 -0.2442 -0.1850 -0.0747
  349BOLB   C2B 8362  11.012  12.284  25.378 -0.2772 -0.1757  0.0311
  349BOLB   C3B 8363  10.891  12.165  25.846 -0.0268  0.2517 -0.0614
  349BOLB   C4B 8364  10.769  12.392  26.210 -0.2270  0.1348 -0.0945
  349BOLB   NC2 8365  11.319   9.422  27.642  0.2478  0.0109 -0.1815
  349BOLB   PO2 8366  11.191   9.929  27.574  0.0468 -0.1211  0.0066
  349BOLB   GL3 8367  11.275   9.885  27.191 -0.0347 -0.0390  0.1810
  349BOLB   GL4 8368  11.301   9.578  27.009  0.0874 -0.1792 -0.1657
  349BOLB   C1C 8369  11.205  10.193  26.886 -0.0640  0.1410  0.1149
  349BOLB   C2C 8370  11.156  10.298  26.459 -0.0911  0.1785 -0.0340
  349BOLB   C3C 8371  11.155  10.552  26.043 -0.1700  0.0712  0.3896
  349BOLB   C4C 8372  11.027  10.781  25.727  0.2241 -0.1080 -0.2396
  349BOLB   C1D 8373  11.275   9.722  26.515  0.1695  0.4004 -0.1290
  349BOLB   C2D 8374  11.226   9.908  26.136 -0.0321  0.1584 -0.0861
  349BOLB   C3D 8375  11.163   9.830  25.743  0.0301 -0.0893 -0.1265
  349BOLB   C4D 8376  10.896   9.666  25.452 -0.0328  0.0832 -0.0070
  350BOLB   NC1 8377  16.962   9.676  22.901  0.0923  0.1541 -0.0569
  350BOLB   PO1 8378  16.585   9.913  22.715  0.3980  0.0719 -0.3337
  350BOLB   GL1 8379  16.546   9.691  23.258  0.0449 -0.2151  0.2835
  350BOLB   GL2 8380  16.851   9.766  23.393  0.3825 -0.1816 -0.1250
  350BOLB   C1A 8381  16.446   9.347  23.502 -0.1336 -0.1387 -0.1725
  350BOLB   C2A 8382  16.385   9.075  23.866 -0.0184  0.0214  0.0520
  350BOLB   C3A 8383  16.166   8.994  24.333 -0.4116  0.0165  0.2794
  350BOLB   C4A 8384  15.907   9.094  24.747 -0.1375  0.3680  0.3060
  350BOLB   C1B 8385  16.852   9.468  23.676  0.1023  0.0296 -0.0038
  350BOLB   C2B 8386  17.035   9.251  23.811 -0.0387  0.1251  0.2599
  350BOLB   C3B 8387  17.206   9.021  24.110 -0.0620  0.1400 -0.1652
  350BOLB   C4B 8388  17.377   9.042  24.511 -0.0128  0.2092  0.1866
  350BOLB   NC2 8389  16.528   8.627  27.197  0.0773  0.2823 -0.1178
  350BOLB   PO2 8390  16.148   9.021  27.173 -0.0869 -0.0514  0.0648
  350BOLB   GL3 8391  15.802   8.998  26.809  0.2785  0.0892  0.1556
  350BOLB   GL4 8392  15.503   9.000  26.976 -0.1174  0.0255 -0.1474
  350BOLB   C1C 8393  15.652   8.989  26.362  0.0193  0.0443  0.2795
  350BOLB   C2C 8394  15.736   8.880  25.998  0.2343  0.0037  0.3344
  350BOLB   C3C 8395  15.747   8.687  25.505 -0.0238 -0.1066  0.0861
  350BOLB   C4C 8396  15.873   8.897  25.163  0.0588 -0.1040  0.2226
  350BOLB   C1D 8397  15.166   9.010  26.636  0.1528  0.0033 -0.2065
  350BOLB   C2D 8398  14.903   8.650  26.549  0.1232 -0.3172 -0.1170
  350BOLB   C3D 8399  14.746   8.464  26.032  0.2897  0.1634 -0.1569
  350BOLB   C4D 8400  14.899   8.539  25.599 -0.6587  0.5115  0.0787
  351BOLB   NC1 8401  20.774  10.974  22.033 -0.1818  0.4094  0.2238
  351BOLB   PO1 8402  20.475  10.613  21.997 -0.1653  0.1337 -0.0386
  351BOLB   GL1 8403  20.571  10.329  22.323 -0.0108  0.0848 -0.0987
  351BOLB   GL2 8404  20.690  10.529  22.518  0.0507  0.2551 -0.3079
  351BOLB   C1A 8405  20.843   9.988  22.430  0.0397  0.2331  0.1649
  351BOLB   C2A 8406  21.015   9.711  22.741 -0.1279  0.2653 -0.2270
  351BOLB   C3A 8407  20.992   9.652  23.203  0.3340 -0.0712 -0.1575
  351BOLB   C4A 8408  20.975   9.713  23.656  0.0201 -0.0686  0.0823
  351BOLB   C1B 8409  21.037  10.439  22.741 -0.1224 -0.2144  0.2812
  351BOLB   C2B 8410  21.327  10.434  23.122 -0.0110  0.0239 -0.1664
  351BOLB   C3B 8411  21.455  10.564  23.518 -0.0687  0.0319  0.5231
  351BOLB   C4B 8412  21.470  10.842  23.786 -0.1185  0.0880  0.0863
  351BOLB   NC2 8413  22.730   9.305  25.330 -0.2367 -0.1673  0.0863
  351BOLB   PO2 8414  22.451   9.610  25.205 -0.2916 -0.0852  0.1133
  351BOLB   GL3 8415  22.059  10.004  24.992  0.1367 -0.4025  0.3163
  351BOLB   GL4 8416  21.790   9.993  25.191  0.0678 -0.0230 -0.0409
  351BOLB   C1C 8417  21.795  10.432  24.772  0.0252 -0.2497 -0.2679
  351BOLB   C2C 8418  21.421  10.332  24.432  0.1258 -0.0121 -0.1226
  351BOLB   C3C 8419  21.488   9.926  24.233  0.1170  0.0939 -0.1274
  351BOLB   C4C 8420  21.269   9.704  23.962 -0.0356 -0.1867  0.0969
  351BOLB   C1D 8421  21.408   9.999  24.801 -0.1411  0.4901 -0.0215
  351BOLB   C2D 8422  21.132   9.630  24.686  0.3061  0.2655 -0.1618
  351BOLB   C3D 8423  20.824   9.631  24.326 -0.2615  0.0347  0.1090
  351BOLB   C4D 8424  20.461   9.911  24.223 -0.1118 -0.0894  0.1589
  352BOLB   NC1 8425  10.954  13.983  24.394  0.2536  0.4344 -0.2047
  352BOLB   PO1 8426  11.314  13.859  24.432 -0.2677 -0.3054  0.0844
  352BOLB   GL1 8427  11.325  13.774  24.787 -0.0184 -0.1686  0.1704
  352BOLB   GL2 8428  11.644  13.660  24.754 -0.1560  0.1095 -0.1698
  352BOLB   C1A 8429  10.979  13.747  25.002  0.1745 -0.2367  0.0880
  352BOLB   C2A 8430  10.753  13.371  25.007  0.2221  0.1304  0.0463
  352BOLB   C3A 8431  10.489  13.257  25.365  0.2163 -0.1722 -0.2490
  352BOLB   C4A 8432  10.307  12.943  25.703 -0.1177 -0.1480 -0.0275
  352BOLB   C1B 8433  11.793  13.547  25.226  0.0293 -0.2244 -0.2508
  352BOLB   C2B 8434  11.908  13.395  25.545 -0.2281  0.3030  0.1149
  352BOLB   C3B 8435  12.082  13.635  25.863 -0.0270 -0.1234 -0.0972
  352BOLB   C4B 8436  11.978  13.775  26.298  0.0597 -0.1743 -0.1402
  352BOLB   NC2 8437  10.454  12.754  28.006 -0.1425 -0.1153  0.5148
  352BOLB   PO2 8438  10.629  12.290  27.875 -0.1859 -0.1469 -0.0103
  352BOLB   GL3 8439  10.356  12.534  27.543 -0.4865 -0.3604 -0.0497
  352BOLB   GL4 8440  10.079  12.507  27.513 -0.3461 -0.4707  0.0356
  352BOLB   C1C 8441  10.469  12.466  27.157 -0.2790  0.1579  0.2153
  352BOLB   C2C 8442  10.771  12.562  26.724  0.1851 -0.2785  0.1807
  352BOLB   C3C 8443  10.680  12.923  26.379  0.1949  0.1774  0.0368
  352BOLB   C4C 8444  10.311  12.941  26.139 -0.0063  0.0850 -0.3749
  352BOLB   C1D 8445  10.007  12.778  27.189  0.1794 -0.1579  0.3606
  352BOLB   C2D 8446   9.696  13.059  26.923  0.3888  0.1668  0.3922
  352BOLB   C3D 8447   9.551  13.207  26.600 -0.1201 -0.2276  0.0905
  352BOLB   C4D 8448   9.446  13.646  26.520 -0.3248  0.3337 -0.2295
  353BOLB   NC1 8449  24.097  11.347  19.178 -0.0376 -0.0664  0.1024
  353BOLB   PO1 8450  24.245  11.695  19.390 -0.0904 -0.1193 -0.0844
  353BOLB   GL1 8451  24.129  11.445  19.755 -0.3302  0.0816 -0.2039
  353BOLB   GL2 8452  23.982  11.167  19.640  0.2181 -0.1172 -0.0047
  353BOLB   C1A 8453  24.295  11.345  20.149 -0.0392 -0.1695 -0.2396
  353BOLB   C2A 8454  24.358  11.168  20.582  0.0423  0.1577  0.1967
  353BOLB   C3A 8455  24.478  10.860  20.867  0.0002 -0.1477 -0.0821
  353BOLB   C4A 8456  24.745  10.680  21.104  0.1102  0.0430 -0.0070
  353BOLB   C1B 8457  24.294  10.913  19.841 -0.1042 -0.1678  0.1200
  353BOLB   C2B 8458  24.508  10.586  19.933  0.0497  0.0060  0.0278
  353BOLB   C3B 8459  24.811  10.189  19.869  0.3788  0.0401 -0.0918
  353BOLB   C4B 8460  24.670   9.813  20.212 -0.1169 -0.2232 -0.1111
  353BOLB   NC2 8461  25.970   9.085  21.843 -0.0554  0.2525  0.0661
  353BOLB   PO2 8462  25.776   9.311  22.118  0.0349  0.1555 -0.2256
  353BOLB   GL3 8463  25.421   9.565  22.055  0.3028  0.1681 -0.0282
  353BOLB   GL4 8464  25.336   9.506  21.721  0.0581 -0.2177  0.2860
  353BOLB   C1C 8465  25.032   9.804  22.162  0.0006 -0.0266 -0.1989
  353BOLB   C2C 8466  24.952  10.227  22.152  0.3027 -0.1242  0.0707
  353BOLB   C3C 8467  24.845  10.477  21.935 -0.2076 -0.2089  0.1104
  353BOLB   C4C 8468  24.917  10.641  21.527 -0.1883  0.0285  0.0368
  353BOLB   C1D 8469  25.237   9.864  21.650  0.0748 -0.1973  0.1314
  353BOLB   C2D 8470  25.206  10.204  21.613 -0.0260 -0.1817 -0.0324
  353BOLB   C3D 8471  25.234  10.541  21.198 -0.3367  0.2310 -0.3223
  353BOLB   C4D 8472  25.421  10.833  20.903 -0.1860 -0.0614  0.1072
  354BOLB   NC1 8473  21.520  13.414  22.078  0.1850 -0.0054  0.0426
  354BOLB   PO1 8474  21.720  13.625  21.720 -0.3178  0.0055 -0.0532
  354BOLB   GL1 8475  21.988  13.714  22.079  0.1797  0.4361 -0.1822
  354BOLB   GL2 8476  22.025  14.091  22.195 -0.1390  0.0544  0.2051
  354BOLB   C1A 8477  22.099  13.562  22.466  0.3032  0.0466 -0.1560
  354BOLB   C2A 8478  22.092  13.303  22.891 -0.0079  0.0360 -0.1193
  354BOLB   C3A 8479  22.162  12.974  23.021 -0.1799 -0.2454 -0.3686
  354BOLB   C4A 8480  22.307  12.664  23.310 -0.0436  0.2316 -0.0567
  354BOLB   C1B 8481  22.288  13.980  22.417  0.2132 -0.3229 -0.0160
  354BOLB   C2B 8482  22.306  13.774  22.847 -0.4358 -0.3849 -0.0614
  354BOLB   C3B 8483  22.341  13.613  23.223  0.1335 -0.0671  0.0568
  354BOLB   C4B 8484  22.569  13.608  23.530  0.2699 -0.2706 -0.5096
  354BOLB   NC2 8485  22.858  12.423  25.664  0.2127  0.1515  0.0102
  354BOLB   PO2 8486  23.233  12.555  25.501 -0.4327 -0.2544  0.0646
  354BOLB   GL3 8487  23.156  12.461  25.066  0.4046 -0.2031  0.1419
  354BOLB   GL4 8488  23.345  12.689  25.010  0.2139 -0.1701 -0.0266
  354BOLB   C1C 8489  22.837  12.381  24.785  0.1521  0.0760  0.0660
  354BOLB   C2C 8490  22.553  12.365  24.417  0.2669  0.1032 -0.4138
  354BOLB   C3C 8491  22.597  12.404  24.015  0.3636 -0.0820 -0.1903
  354BOLB   C4C 8492  22.579  12.661  23.649 -0.0831 -0.0144 -0.0575
  354BOLB   C1D 8493  23.245  12.651  24.645 -0.1564  0.1439 -0.0964
  354BOLB   C2D 8494  23.476  12.567  24.242 -0.0942  0.0667  0.3003
  354BOLB   C3D 8495  23.541  12.491  23.784 -0.2430 -0.0648  0.1058
  354BOLB   C4D 8496  23.589  12.693  23.499 -0.2131  0.2130  0.1226
  355BOLB   NC1 8497  16.581  12.332  24.145  0.1147 -0.0402 -0.0009
  355BOLB   PO1 8498  16.800  12.735  24.097 -0.1016  0.1416  0.1378
  355BOLB   GL1 8499  16.923  12.479  24.493  0.1642  0.1011 -0.0429
  355BOLB   GL2 8500  16.693  12.279  24.638 -0.2901 -0.1357  0.1119
  355BOLB   C1A 8501  16.874  12.599  24.929  0.0310 -0.2686  0.2103
  355BOLB   C2A 8502  17.021  12.552  25.317 -0.3372  0.1131  0.1698
  355BOLB   C3A 8503  17.236  12.230  25.518 -0.0642 -0.3542  0.0820
  355BOLB   C4A 8504  17.407  12.090  25.908  0.2798 -0.0347 -0.0755
  355BOLB   C1B 8505  16.506  12.076  25.056  0.0129 -0.2469  0.2796
  355BOLB   C2B 8506  16.601  11.985  25.566  0.2635  0.2269  0.0342
  355BOLB   C3B 8507  16.878  12.009  25.894 -0.1467 -0.0736  0.0597
  355BOLB   C4B 8508  17.070  12.276  26.209  0.0304  0.1230 -0.2195
  355BOLB   NC2 8509  19.304  11.292  27.063  0.1511  0.2002  0.3963
  355BOLB   PO2 8510  18.961  11.401  27.346 -0.1546 -0.0564 -0.1085
  355BOLB   GL3 8511  18.812  11.569  26.919 -0.5356 -0.3130 -0.1220
  355BOLB   GL4 8512  19.117  11.554  26.685  0.4091 -0.0956  0.4325
  355BOLB   C1C 8513  18.471  11.546  26.611  0.3378  0.1058 -0.0468
  355BOLB   C2C 8514  18.013  11.450  26.519 -0.3302  0.1168 -0.1126
  355BOLB   C3C 8515  17.655  11.708  26.445  0.2590  0.2373 -0.0769
  355BOLB   C4C 8516  17.589  12.038  26.255 -0.3711  0.1188 -0.3356
  355BOLB   C1D 8517  19.012  11.700  26.292 -0.0424  0.1858 -0.2412
  355BOLB   C2D 8518  18.790  11.810  25.983  0.0666  0.0910  0.0948
  355BOLB   C3D 8519  18.557  11.793  25.662  0.4653  0.2254 -0.1088
  355BOLB   C4D 8520  18.430  11.578  25.233  0.0684  0.0594  0.1506
  356BOLB   NC1 8521  17.525  10.097  22.349  0.1689 -0.0349 -0.2522
  356BOLB   PO1 8522  17.871   9.804  22.405 -0.3498  0.0838 -0.0278
  356BOLB   GL1 8523  17.958   9.512  22.645  0.0160  0.4300 -0.1012
  356BOLB   GL2 8524  18.247   9.257  22.638 -0.1303 -0.2236  0.0923
  356BOLB   C1A 8525  18.175   9.330  23.110 -0.0897 -0.0622 -0.3567
  356BOLB   C2A 8526  18.352   9.136  23.369  0.0422  0.4012  0.0931
  356BOLB   C3A 8527  18.458   8.879  23.725 -0.0354  0.1085  0.1827
  356BOLB   C4A 8528  18.521   8.702  24.052  0.0779 -0.0083  0.3006
  356BOLB   C1B 8529  18.498   8.962  22.876 -0.2330 -0.0580 -0.1636
  356BOLB   C2B 8530  18.651   8.673  23.244 -0.2949 -0.0433 -0.3909
  356BOLB   C3B 8531  19.033   8.568  23.534 -0.2902  0.1432  0.1647
  356BOLB   C4B 8532  18.928   8.410  23.871  0.2884 -0.1038  0.2975
  356BOLB   NC2 8533  20.240   9.182  25.681  0.0735 -0.1448  0.0495
  356BOLB   PO2 8534  19.870   8.805  25.811 -0.1608 -0.3143  0.1716
  356BOLB   GL3 8535  19.687   8.847  25.486  0.0783  0.1667 -0.0373
  356BOLB   GL4 8536  19.675   8.518  25.425  0.0633 -0.0000 -0.1296
  356BOLB   C1C 8537  19.353   8.848  25.174  0.3459  0.0117 -0.0907
  356BOLB   C2C 8538  18.964   8.688  25.037  0.0086  0.1071  0.0729
  356BOLB   C3C 8539  18.674   8.792  24.699  0.1448  0.0184  0.3569
  356BOLB   C4C 8540  18.389   8.695  24.444  0.0310 -0.1038 -0.1343
  356BOLB   C1D 8541  19.815   8.842  25.018  0.0076  0.0478 -0.0080
  356BOLB   C2D 8542  19.659   8.934  24.569  0.0981  0.2647  0.2434
  356BOLB   C3D 8543  19.534   8.933  24.204  0.1073  0.0861  0.1901
  356BOLB   C4D 8544  19.469   9.284  23.948 -0.1455 -0.0226 -0.0644
  357BOLB   NC1 8545  20.734  14.099  22.857 -0.3804  0.1277 -0.1846
  357BOLB   PO1 8546  21.142  14.371  22.589 -0.1153 -0.0503  0.1819
  357BOLB   GL1 8547  21.243  14.281  22.942 -0.2701 -0.0737  0.1075
  357BOLB   GL2 8548  21.072  14.123  23.248  0.0731  0.4169  0.0531
  357BOLB   C1A 8549  21.574  14.134  23.067 -0.2033 -0.1362 -0.3094
  357BOLB   C2A 8550  21.616  14.312  23.435 -0.3699 -0.0032  0.0906
  357BOLB   C3A 8551  21.801  14.155  23.873  0.0129 -0.4402  0.3233
  357BOLB   C4A 8552  22.092  14.355  24.224  0.2286  0.1239  0.2787
  357BOLB   C1B 8553  21.147  14.079  23.629 -0.1529  0.0975  0.1986
  357BOLB   C2B 8554  21.280  14.087  24.070 -0.0020 -0.0461  0.0704
  357BOLB   C3B 8555  21.559  14.252  24.346  0.2037 -0.1342  0.1261
  357BOLB   C4B 8556  21.743  14.042  24.684  0.4940 -0.1616  0.1051
  357BOLB   NC2 8557  22.573  15.007  26.644 -0.1890  0.5186  0.0746
  357BOLB   PO2 8558  23.006  14.684  26.532 -0.0123 -0.0115  0.1132
  357BOLB   GL3 8559  22.690  14.531  26.272 -0.1128 -0.0750 -0.0505
  357BOLB   GL4 8560  22.450  14.698  26.242 -0.0322 -0.1791 -0.0018
  357BOLB   C1C 8561  22.641  14.726  25.799 -0.1454  0.2527  0.1904
  357BOLB   C2C 8562  22.284  14.731  25.480 -0.0143  0.0586 -0.2629
  357BOLB   C3C 8563  22.243  14.534  25.058  0.1835 -0.2041  0.1468
  357BOLB   C4C 8564  22.329  14.338  24.668 -0.1170  0.4305 -0.1623
  357BOLB   C1D 8565  22.418  15.089  25.950  0.1551  0.0312 -0.3227
  357BOLB   C2D 8566  22.077  15.198  25.586 -0.1633  0.2189 -0.0026
  357BOLB   C3D 8567  21.875  15.548  25.455  0.1143  0.0969  0.0069
  357BOLB   C4D 8568  21.573  15.822  25.161 -0.4785 -0.2848 -0.2055
  358BOLB   NC1 8569  20.310  21.258  22.578 -0.0081  0.5780  0.2950
  358BOLB   PO1 8570  20.211  21.664  22.516  0.2188  0.0740  0.0126
  358BOLB   GL1 8571  20.312  21.839  22.888  0.4054  0.1382  0.0597
  358BOLB   GL2 8572  20.440  22.055  23.232 -0.1707 -0.1102 -0.2244
  358BOLB   C1A 8573  20.793  22.040  22.906 -0.0520 -0.0199 -0.2325
  358BOLB   C2A 8574  21.281  21.949  23.015 -0.0959  0.1886 -0.0302
  358BOLB   C3A 8575  21.447  22.075  23.376  0.0928 -0.0665 -0.1055
  358BOLB   C4A 8576  21.790  22.257  23.612  0.2718  0.0419  0.2960
  358BOLB   C1B 8577  20.394  22.168  23.659  0.0741  0.1242 -0.1137
  358BOLB   C2B 8578  20.660  22.083  24.065 -0.0060  0.3623 -0.0584
  358BOLB   C3B 8579  20.955  22.072  24.374  0.1688 -0.0129  0.0132
  358BOLB   C4B 8580  21.073  22.033  24.763  0.4102 -0.1473 -0.1567
  358BOLB   NC2 8581  22.619  22.397  25.735  0.3423  0.0580  0.1198
  358BOLB   PO2 8582  23.067  22.317  25.685  0.0901  0.1106  0.3284
  358BOLB   GL3 8583  22.792  22.335  25.264 -0.1925  0.3371 -0.1230
  358BOLB   GL4 8584  22.579  22.523  25.206 -0.1841  0.0865 -0.3415
  358BOLB   C1C 8585  22.674  22.061  24.852  0.2270  0.3005 -0.1298
  358BOLB   C2C 8586  22.366  22.129  24.569 -0.1765  0.0096  0.1601
  358BOLB   C3C 8587  22.203  22.128  24.238  0.3266 -0.0091 -0.1701
  358BOLB   C4C 8588  22.122  22.127  23.824  0.2152 -0.1421  0.2061
  358BOLB   C1D 8589  22.273  22.130  25.153 -0.1051  0.2531 -0.1637
  358BOLB   C2D 8590  22.001  21.842  25.351  0.0724  0.1656  0.0953
  358BOLB   C3D 8591  21.966  21.592  25.724  0.0116 -0.1891 -0.1423
  358BOLB   C4D 8592  22.018  21.095  25.707 -0.2283 -0.2218 -0.0797
  359BOLB   NC1 8593  10.178  18.401  23.493  0.1108  0.1721  0.4080
  359BOLB   PO1 8594  10.216  18.473  24.001  0.4187  0.1756  0.0768
  359BOLB   GL1 8595  10.135  18.510  24.430  0.2606  0.2939 -0.0909
  359BOLB   GL2 8596   9.827  18.256  24.356  0.0203  0.1867 -0.1168
  359BOLB   C1A 8597  10.261  18.677  24.945  0.2282  0.1522  0.1404
  359BOLB   C2A 8598  10.282  18.630  25.360  0.0743  0.3429 -0.2035
  359BOLB   C3A 8599  10.350  18.535  25.745  0.0548 -0.0400  0.2539
  359BOLB   C4A 8600  10.068  18.508  26.067 -0.0651 -0.0855  0.2125
  359BOLB   C1B 8601   9.961  18.237  24.823 -0.0004  0.1953 -0.0034
  359BOLB   C2B 8602   9.967  18.212  25.328  0.1264 -0.1472  0.1963
  359BOLB   C3B 8603   9.897  18.162  25.754 -0.0187  0.1616  0.1604
  359BOLB   C4B 8604   9.900  18.059  26.199 -0.0012 -0.0365  0.1050
  359BOLB   NC2 8605   9.657  17.562  28.178 -0.0524  0.0005  0.0899
  359BOLB   PO2 8606   9.353  17.831  27.948  0.0513 -0.1115 -0.1909
  359BOLB   GL3 8607   9.338  17.890  27.536  0.0060 -0.0789 -0.1597
  359BOLB   GL4 8608   9.627  17.814  27.324  0.1384 -0.4479 -0.0025
  359BOLB   C1C 8609   9.238  18.120  27.152 -0.0316  0.1167  0.1118
  359BOLB   C2C 8610   9.240  18.061  26.770  0.1998  0.1353 -0.0276
  359BOLB   C3C 8611   9.439  18.237  26.463  0.3036 -0.0108  0.1679
  359BOLB   C4C 8612   9.650  18.513  26.268  0.0172 -0.3793 -0.0956
  359BOLB   C1D 8613   9.937  17.531  27.285  0.0737 -0.0827  0.0550
  359BOLB   C2D 8614  10.138  17.239  26.997 -0.0080  0.2569 -0.2589
  359BOLB   C3D 8615  10.066  16.849  26.939 -0.0159  0.0209 -0.2081
  359BOLB   C4D 8616   9.833  16.676  26.571  0.1075  0.3679  0.0952
  360BOLB   NC1 8617  20.126  24.656  21.392  0.1846  0.2956  0.0160
  360BOLB   PO1 8618  19.898  24.548  21.768  0.2235  0.1307  0.0071
  360BOLB   GL1 8619  20.357  24.839  21.889 -0.0834  0.2686  0.0891
  360BOLB   GL2 8620  20.556  24.713  21.680  0.0669  0.1838  0.2212
  360BOLB   C1A 8621  20.687  24.746  22.113  0.0725 -0.0198 -0.0418
  360BOLB   C2A 8622  21.037  24.655  22.318  0.0576  0.1180  0.0422
  360BOLB   C3A 8623  21.447  24.832  22.396  0.2512  0.3066 -0.2218
  360BOLB   C4A 8624  21.564  25.204  22.721 -0.1044 -0.0932  0.1691
  360BOLB   C1B 8625  21.004  24.633  21.750  0.0861 -0.0858 -0.0125
  360BOLB   C2B 8626  21.417  24.779  21.937 -0.0871 -0.0464 -0.0508
  360BOLB   C3B 8627  21.811  24.989  21.687 -0.0376  0.0185  0.1147
  360BOLB   C4B 8628  22.237  25.130  21.760  0.4260  0.1152  0.1683
  360BOLB   NC2 8629  21.367  27.369  24.251  0.2613  0.1463 -0.0344
  360BOLB   PO2 8630  21.719  27.104  24.092  0.4694 -0.0868 -0.0031
  360BOLB   GL3 8631  21.776  26.729  23.924 -0.3514  0.0341 -0.0580
  360BOLB   GL4 8632  21.594  26.444  24.053 -0.3276  0.2792 -0.0740
  360BOLB   C1C 8633  21.731  26.575  23.568 -0.0320 -0.0095 -0.1271
  360BOLB   C2C 8634  21.810  26.351  23.193 -0.2290  0.2944  0.1349
  360BOLB   C3C 8635  21.849  26.006  22.921 -0.0893 -0.0799 -0.0995
  360BOLB   C4C 8636  21.779  25.671  22.653 -0.3462  0.1791 -0.1529
  360BOLB   C1D 8637  21.752  26.100  23.838 -0.0958  0.1464  0.2798
  360BOLB   C2D 8638  21.898  25.814  23.527 -0.3664  0.1183 -0.0545
  360BOLB   C3D 8639  22.145  25.522  23.213  0.0308 -0.2372 -0.1663
  360BOLB   C4D 8640  22.456  25.431  23.141 -0.2514 -0.0146 -0.1052
  361BOLB   NC1 8641  14.187  15.584  24.763  0.2893  0.4135  0.2865
  361BOLB   PO1 8642  14.052  15.987  24.894 -0.1407  0.2785  0.2084
  361BOLB   GL1 8643  14.007  16.067  25.259 -0.0613  0.0579  0.0258
  361BOLB   GL2 8644  13.682  16.134  25.463  0.2638 -0.0732  0.0400
  361BOLB   C1A 8645  14.195  16.394  25.477  0.0571  0.0763 -0.3865
  361BOLB   C2A 8646  14.386  16.426  25.896  0.0731  0.0783  0.0784
  361BOLB   C3A 8647  14.524  16.556  26.272  0.1523 -0.1504 -0.1464
  361BOLB   C4A 8648  14.587  17.006  26.517 -0.0726  0.0109  0.2272
  361BOLB   C1B 8649  13.843  16.349  25.762 -0.1017  0.1687  0.0655
  361BOLB   C2B 8650  13.943  16.482  26.260 -0.3541  0.1455 -0.1057
  361BOLB   C3B 8651  13.884  16.501  26.723  0.0617  0.1760  0.3530
  361BOLB   C4B 8652  13.833  16.768  27.055  0.1335  0.2415  0.2981
  361BOLB   NC2 8653  15.238  17.194  28.713 -0.1297  0.1471 -0.6413
  361BOLB   PO2 8654  15.178  17.332  28.378 -0.2818  0.0544 -0.0208
  361BOLB   GL3 8655  15.395  17.467  28.093  0.2798  0.0389 -0.0387
  361BOLB   GL4 8656  15.719  17.682  28.059 -0.1264  0.2035 -0.3396
  361BOLB   C1C 8657  15.539  17.437  27.644  0.0835 -0.0112  0.0466
  361BOLB   C2C 8658  15.559  17.208  27.289 -0.1457 -0.2463 -0.0028
  361BOLB   C3C 8659  15.350  17.187  26.926 -0.0329  0.1285 -0.0085
  361BOLB   C4C 8660  15.053  17.050  26.654  0.1252 -0.0730  0.1175
  361BOLB   C1D 8661  15.988  17.587  27.743 -0.2313 -0.4025 -0.3059
  361BOLB   C2D 8662  16.026  17.382  27.312  0.0829 -0.2004  0.1815
  361BOLB   C3D 8663  16.289  17.109  26.991  0.1334 -0.1419  0.0958
  361BOLB   C4D 8664  16.537  16.736  27.006 -0.1203  0.0119  0.2642
  362BOLB   NC1 8665  19.633  14.990  23.622 -0.1096  0.0565 -0.2972
  362BOLB   PO1 8666  19.217  14.946  23.816 -0.2574  0.0582 -0.2234
  362BOLB   GL1 8667  19.517  15.016  24.102 -0.2515 -0.2829  0.5724
  362BOLB   GL2 8668  19.862  15.184  23.995  0.0394 -0.1050 -0.2250
  362BOLB   C1A 8669  19.539  15.014  24.498  0.0769  0.0256 -0.1202
  362BOLB   C2A 8670  19.794  14.919  24.790  0.0748  0.1194  0.4241
  362BOLB   C3A 8671  20.094  14.868  25.094  0.2839  0.0293 -0.0119
  362BOLB   C4A 8672  20.135  14.776  25.562 -0.1377  0.0666 -0.0032
  362BOLB   C1B 8673  19.904  15.374  24.456  0.0932 -0.2420  0.2566
  362BOLB   C2B 8674  20.081  15.419  24.869 -0.0229 -0.1376  0.0917
  362BOLB   C3B 8675  20.354  15.634  25.194 -0.2924 -0.1263  0.0851
  362BOLB   C4B 8676  20.604  15.931  25.357 -0.1187  0.1534 -0.1740
  362BOLB   NC2 8677  19.069  15.709  27.909  0.1419  0.4837 -0.1204
  362BOLB   PO2 8678  19.478  15.660  27.956  0.0696  0.1338  0.1793
  362BOLB   GL3 8679  19.558  15.556  27.486 -0.3675  0.3461 -0.0747
  362BOLB   GL4 8680  19.214  15.592  27.363  0.0862  0.2512 -0.2396
  362BOLB   C1C 8681  19.667  15.487  27.033  0.0036 -0.1353  0.0860
  362BOLB   C2C 8682  19.815  15.316  26.667 -0.6053 -0.2182  0.0477
  362BOLB   C3C 8683  20.048  15.199  26.286  0.1310 -0.0879  0.0836
  362BOLB   C4C 8684  19.994  15.058  25.862 -0.1327 -0.2131 -0.0090
  362BOLB   C1D 8685  19.094  15.544  26.927  0.0655 -0.2647  0.0099
  362BOLB   C2D 8686  18.926  15.994  26.639  0.1609 -0.0807 -0.0531
  362BOLB   C3D 8687  18.796  16.451  26.555 -0.2022 -0.1905  0.1148
  362BOLB   C4D 8688  18.655  16.508  26.136 -0.2196 -0.0859 -0.0746
  363BOLB   NC1 8689  15.595  11.481  23.716  0.2046 -0.1496 -0.2925
  363BOLB   PO1 8690  15.267  11.291  23.612 -0.0863  0.0653 -0.1604
  363BOLB   GL1 8691  15.494  11.081  23.986  0.2403  0.3583  0.1154
  363BOLB   GL2 8692  15.478  10.730  23.886 -0.2560 -0.2302 -0.3314
  363BOLB   C1A 8693  15.394  11.171  24.420 -0.1752 -0.1123 -0.1253
  363BOLB   C2A 8694  15.579  11.139  24.797 -0.2389 -0.1873 -0.0974
  363BOLB   C3A 8695  15.699  11.296  25.162  0.0810 -0.1917 -0.1010
  363BOLB   C4A 8696  15.765  11.370  25.589  0.2228 -0.1194 -0.3309
  363BOLB   C1B 8697  15.691  10.608  24.253  0.0225  0.1420 -0.2398
  363BOLB   C2B 8698  15.626  10.452  24.641 -0.1935 -0.2149  0.0370
  363BOLB   C3B 8699  15.402  10.308  25.063 -0.3758  0.0648 -0.0641
  363BOLB   C4B 8700  15.328  10.247  25.484 -0.0864 -0.0371  0.1696
  363BOLB   NC2 8701  15.468  11.677  28.179  0.2920 -0.1591 -0.0534
  363BOLB   PO2 8702  15.810  11.598  27.862  0.0714 -0.0279 -0.0594
  363BOLB   GL3 8703  15.776  11.718  27.443 -0.0696  0.3375  0.0206
  363BOLB   GL4 8704  15.675  12.053  27.513  0.1372 -0.2103 -0.0814
  363BOLB   C1C 8705  15.720  11.479  27.101 -0.2115  0.1674 -0.0876
  363BOLB   C2C 8706  15.677  11.408  26.788 -0.1415 -0.3016 -0.0842
  363BOLB   C3C 8707  15.643  11.352  26.405  0.1574 -0.0457 -0.0840
  363BOLB   C4C 8708  15.942  11.323  25.992  0.1264 -0.0065  0.3896
  363BOLB   C1D 8709  15.297  11.955  27.230 -0.0140  0.4916  0.1380
  363BOLB   C2D 8710  15.314  11.906  26.879 -0.0403  0.0926 -0.1522
  363BOLB   C3D 8711  15.518  11.827  26.595  0.0968 -0.2224 -0.1292
  363BOLB   C4D 8712  15.884  11.782  26.313  0.1586 -0.0732  0.1018
  364BOLB   NC1 8713  20.374  12.577  22.419  0.2207  0.2483  0.0917
  364BOLB   PO1 8714  20.304  12.145  22.593 -0.0715  0.0741 -0.1463
  364BOLB   GL1 8715  20.567  11.943  22.948  0.0620 -0.2826 -0.2376
  364BOLB   GL2 8716  20.360  11.991  23.170  0.0647  0.2497 -0.1377
  364BOLB   C1A 8717  20.967  11.898  23.146 -0.2068  0.0752  0.0667
  364BOLB   C2A 8718  21.282  11.747  23.265  0.1730  0.3438 -0.1458
  364BOLB   C3A 8719  21.771  11.779  23.362  0.1738  0.0236 -0.0449
  364BOLB   C4A 8720  21.916  11.840  23.810  0.1660 -0.1326  0.2625
  364BOLB   C1B 8721  20.497  12.062  23.695 -0.1517  0.0838 -0.1152
  364BOLB   C2B 8722  20.757  11.892  23.979  0.3529  0.2379 -0.1130
  364BOLB   C3B 8723  20.827  11.722  24.347 -0.1776  0.0819 -0.1337
  364BOLB   C4B 8724  20.732  11.893  24.691 -0.0773 -0.0306 -0.2049
  364BOLB   NC2 8725  22.507  10.890  25.724  0.0760 -0.0218 -0.2531
  364BOLB   PO2 8726  22.306  10.569  25.634 -0.0950  0.0084 -0.1207
  364BOLB   GL3 8727  22.066  10.502  25.325 -0.1984  0.1989  0.3615
  364BOLB   GL4 8728  22.302  10.457  25.071 -0.1454  0.0925 -0.0412
  364BOLB   C1C 8729  21.873  10.812  25.074  0.0264 -0.2054  0.2155
  364BOLB   C2C 8730  21.858  11.183  24.825  0.0822  0.2413  0.1005
  364BOLB   C3C 8731  21.630  11.493  24.593  0.1598 -0.2397  0.2125
  364BOLB   C4C 8732  21.845  11.644  24.201  0.3361 -0.1265 -0.1769
  364BOLB   C1D 8733  22.297  10.220  24.682 -0.1971  0.1207 -0.2107
  364BOLB   C2D 8734  22.587  10.429  24.332  0.0902 -0.0887  0.1881
  364BOLB   C3D 8735  22.561  10.190  23.936 -0.0836 -0.0047  0.1569
  364BOLB   C4D 8736  22.600   9.843  23.707  0.1510 -0.0769 -0.1963
  365BOLB   NC1 8737  20.645  22.759  21.208 -0.3742  0.2298 -0.1272
  365BOLB   PO1 8738  20.544  22.881  21.616  0.1132  0.0439 -0.0180
  365BOLB   GL1 8739  20.847  23.030  21.915 -0.0030 -0.4138  0.1834
  365BOLB   GL2 8740  21.057  23.343  21.939  0.0249  0.0605 -0.4922
  365BOLB   C1A 8741  20.895  23.157  22.393  0.0476 -0.1579  0.2057
  365BOLB   C2A 8742  21.055  23.438  22.699 -0.0892 -0.0798 -0.0708
  365BOLB   C3A 8743  21.362  23.415  22.989 -0.1697 -0.3102  0.4675
  365BOLB   C4A 8744  21.672  23.574  23.059  0.0930  0.0855 -0.1899
  365BOLB   C1B 8745  21.384  23.432  22.277 -0.0444 -0.2897  0.0787
  365BOLB   C2B 8746  21.738  23.347  22.578 -0.1347 -0.0145  0.0460
  365BOLB   C3B 8747  22.222  23.097  22.643  0.0277  0.2562  0.1726
  365BOLB   C4B 8748  22.683  23.117  22.538 -0.0333 -0.3369 -0.2252
  365BOLB   NC2 8749  23.614  25.557  23.360 -0.0570  0.2964 -0.0771
  365BOLB   PO2 8750  23.494  25.127  23.250 -0.1863 -0.3054  0.0139
  365BOLB   GL3 8751  23.133  24.782  23.242  0.0961 -0.3613 -0.1696
  365BOLB   GL4 8752  23.128  24.716  23.586  0.0442 -0.0853  0.3577
  365BOLB   C1C 8753  22.986  24.388  23.215  0.3935  0.0575 -0.0086
  365BOLB   C2C 8754  22.743  24.109  23.390 -0.3330 -0.0249  0.1372
  365BOLB   C3C 8755  22.242  24.130  23.395  0.0926 -0.0422 -0.2205
  365BOLB   C4C 8756  21.985  23.800  23.289 -0.0286  0.2039 -0.0111
  365BOLB   C1D 8757  22.682  24.519  23.734  0.2392 -0.2327  0.3501
  365BOLB   C2D 8758  22.365  24.334  23.903  0.1179  0.2168 -0.3129
  365BOLB   C3D 8759  21.977  24.202  24.089  0.0136  0.0555  0.2584
  365BOLB   C4D 8760  21.869  23.993  23.733 -0.1004  0.0710 -0.0619
  366BOLB   NC1 8761   8.827  14.211  23.578  0.0967  0.1899  0.2592
  366BOLB   PO1 8762   9.068  14.616  23.735  0.3623 -0.1033 -0.0507
  366BOLB   GL1 8763   8.688  14.651  23.968  0.0744 -0.4151 -0.0324
  366BOLB   GL2 8764   8.399  14.483  23.904  0.1033  0.3907 -0.0157
  366BOLB   C1A 8765   8.494  14.776  24.369 -0.1432  0.1350  0.0966
  366BOLB   C2A 8766   8.364  14.540  24.729  0.0253 -0.1352 -0.1474
  366BOLB   C3A 8767   8.374  14.598  25.142  0.3211  0.0251  0.0207
  366BOLB   C4A 8768   8.112  14.868  25.399 -0.1150  0.0317 -0.0742
  366BOLB   C1B 8769   8.046  14.672  24.121  0.2276  0.1350 -0.2941
  366BOLB   C2B 8770   7.899  14.836  24.488  0.1537  0.3505 -0.1521
  366BOLB   C3B 8771   7.859  14.588  24.823 -0.1596  0.1327  0.1219
  366BOLB   C4B 8772   7.791  14.485  25.186 -0.3528  0.0616 -0.1225
  366BOLB   NC2 8773   6.474  14.579  27.340 -0.1080 -0.5232  0.1544
  366BOLB   PO2 8774   6.484  15.008  27.117 -0.0599  0.0836 -0.0992
  366BOLB   GL3 8775   6.779  15.158  26.849 -0.1588  0.0690 -0.0759
  366BOLB   GL4 8776   7.032  15.419  26.950 -0.1059  0.2987  0.3252
  366BOLB   C1C 8777   6.879  15.116  26.386  0.1541 -0.1497 -0.0359
  366BOLB   C2C 8778   7.211  14.867  25.945 -0.0751 -0.1652  0.0500
  366BOLB   C3C 8779   7.558  14.862  25.935 -0.2004  0.0345  0.1326
  366BOLB   C4C 8780   7.998  14.889  25.829 -0.2785 -0.0351 -0.2700
  366BOLB   C1D 8781   7.026  15.628  26.555  0.2299 -0.0134  0.3267
  366BOLB   C2D 8782   7.163  15.800  26.234 -0.0994  0.2320  0.2393
  366BOLB   C3D 8783   7.218  16.138  25.859  0.1181 -0.4560  0.0508
  366BOLB   C4D 8784   7.284  16.413  25.569 -0.0564 -0.0366  0.2527
  367BOLB   NC1 8785  19.904  23.251  22.368  0.1646  0.1722  0.1095
  367BOLB   PO1 8786  19.771  23.145  22.755  0.3604  0.3245 -0.2397
  367BOLB   GL1 8787  19.807  23.192  23.257  0.0366 -0.2255 -0.3151
  367BOLB   GL2 8788  20.088  23.054  23.192  0.2674 -0.1328 -0.2549
  367BOLB   C1A 8789  20.037  23.436  23.495 -0.0157 -0.0259  0.1523
  367BOLB   C2A 8790  20.241  23.810  23.841 -0.4259  0.2430  0.3360
  367BOLB   C3A 8791  20.619  23.732  24.084  0.1559  0.0695 -0.1870
  367BOLB   C4A 8792  20.856  23.668  24.537  0.1266 -0.0567 -0.1167
  367BOLB   C1B 8793  20.445  23.149  23.427  0.3175 -0.0107  0.1450
  367BOLB   C2B 8794  20.708  23.407  23.632  0.4400 -0.0883  0.2958
  367BOLB   C3B 8795  21.115  23.560  23.794  0.1793  0.0334 -0.1374
  367BOLB   C4B 8796  21.488  23.703  24.052  0.1417  0.0741 -0.2997
  367BOLB   NC2 8797  20.309  24.090  27.104  0.4384  0.3319  0.4583
  367BOLB   PO2 8798  19.984  24.002  26.935 -0.0544 -0.2158 -0.1807
  367BOLB   GL3 8799  20.074  23.670  26.640  0.0235  0.0913  0.1906
  367BOLB   GL4 8800  19.951  23.418  26.527 -0.0521 -0.0856  0.1474
  367BOLB   C1C 8801  20.307  23.712  26.277 -0.1334 -0.1428 -0.4352
  367BOLB   C2C 8802  20.612  23.596  25.918 -0.3828 -0.0652 -0.3514
  367BOLB   C3C 8803  20.705  23.572  25.485  0.1531  0.0110  0.1920
  367BOLB   C4C 8804  20.815  23.707  25.037  0.0404  0.1308 -0.1903
  367BOLB   C1D 8805  19.867  23.044  26.333 -0.1629 -0.1515 -0.0951
  367BOLB   C2D 8806  19.804  22.491  26.281  0.2603 -0.2055 -0.0782
  367BOLB   C3D 8807  19.926  22.211  25.966  0.0769  0.1148 -0.0764
  367BOLB   C4D 8808  20.252  21.904  25.834 -0.1180 -0.7612  0.2782
  368BOLB   NC1 8809  11.726  19.167  23.686  0.1482  0.0224 -0.0559
  368BOLB   PO1 8810  11.573  19.162  24.089 -0.0458 -0.1668  0.2295
  368BOLB   GL1 8811  11.570  19.083  24.582  0.0265 -0.2794 -0.0354
  368BOLB   GL2 8812  11.518  18.926  24.861 -0.1388 -0.0445 -0.1629
  368BOLB   C1A 8813  11.465  19.374  24.777 -0.0483 -0.2160  0.1670
  368BOLB   C2A 8814  11.388  19.522  25.177  0.0756 -0.3948  0.2381
  368BOLB   C3A 8815  11.197  19.772  25.482 -0.1304 -0.1889  0.0639
  368BOLB   C4A 8816  11.156  19.838  25.953  0.0460  0.2895 -0.3763
  368BOLB   C1B 8817  11.689  18.765  25.203 -0.1331  0.0044 -0.0739
  368BOLB   C2B 8818  11.619  18.714  25.503 -0.2465 -0.1592 -0.1054
  368BOLB   C3B 8819  11.692  18.616  25.920  0.2930  0.1500  0.0628
  368BOLB   C4B 8820  11.782  18.612  26.451  0.0313  0.0125 -0.2237
  368BOLB   NC2 8821  10.874  19.874  28.348  0.0959 -0.0771 -0.1243
  368BOLB   PO2 8822  10.589  19.481  28.243 -0.2825  0.0999 -0.0964
  368BOLB   GL3 8823  10.695  19.644  27.863  0.0545 -0.0630 -0.0199
  368BOLB   GL4 8824  11.034  19.484  27.726 -0.0742 -0.1657  0.0095
  368BOLB   C1C 8825  10.735  19.954  27.441  0.0198  0.0917  0.0150
  368BOLB   C2C 8826  10.762  20.196  27.192 -0.0129  0.4464  0.1637
  368BOLB   C3C 8827  10.887  20.102  26.777  0.2105 -0.1388 -0.2345
  368BOLB   C4C 8828  11.081  19.808  26.425  0.2938 -0.1816 -0.2629
  368BOLB   C1D 8829  11.217  19.666  27.454 -0.1519  0.1253  0.0618
  368BOLB   C2D 8830  11.285  19.671  26.994 -0.0312  0.1271 -0.0611
  368BOLB   C3D 8831  11.507  19.992  26.717  0.1759 -0.2580 -0.1318
  368BOLB   C4D 8832  11.274  20.359  26.530  0.4350 -0.1157  0.1089
  369BOLB   NC1 8833  17.429  19.734  23.700  0.1181  0.0204  0.0511
  369BOLB   PO1 8834  17.505  19.434  24.012  0.1458  0.2003 -0.2159
  369BOLB   GL1 8835  17.622  19.390  24.497  0.0332  0.2146 -0.0267
  369BOLB   GL2 8836  17.714  19.027  24.563 -0.0162 -0.3997 -0.0330
  369BOLB   C1A 8837  17.812  19.339  24.942 -0.1272 -0.2694 -0.1169
  369BOLB   C2A 8838  18.055  19.302  25.330  0.0800  0.0217  0.1001
  369BOLB   C3A 8839  17.995  19.395  25.761  0.1320 -0.3246  0.0358
  369BOLB   C4A 8840  18.093  19.444  26.143  0.3505  0.0152  0.0812
  369BOLB   C1B 8841  17.426  18.992  24.835  0.6187 -0.3464  0.0677
  369BOLB   C2B 8842  17.251  19.052  25.244  0.0151 -0.1355 -0.1192
  369BOLB   C3B 8843  17.049  19.320  25.589 -0.2047  0.0075  0.2645
  369BOLB   C4B 8844  16.840  19.297  25.964 -0.2346  0.2435 -0.1702
  369BOLB   NC2 8845  18.645  19.701  28.285  0.0032 -0.1248 -0.0549
  369BOLB   PO2 8846  18.570  20.050  28.134  0.2087 -0.1601 -0.1501
  369BOLB   GL3 8847  18.597  19.731  27.772  0.1366 -0.0224 -0.1999
  369BOLB   GL4 8848  18.394  19.399  27.873 -0.0781 -0.0626  0.1236
  369BOLB   C1C 8849  18.536  19.560  27.383 -0.3898  0.1020 -0.0939
  369BOLB   C2C 8850  18.519  19.325  27.047 -0.0826  0.3286 -0.0505
  369BOLB   C3C 8851  18.349  19.341  26.806  0.2597 -0.2597  0.0406
  369BOLB   C4C 8852  18.082  19.234  26.496 -0.2810 -0.3678 -0.0299
  369BOLB   C1D 8853  18.033  19.175  27.852 -0.0032 -0.1841 -0.2407
  369BOLB   C2D 8854  17.752  19.164  27.595  0.0549 -0.1668 -0.3917
  369BOLB   C3D 8855  17.541  19.189  27.151 -0.0027  0.0412 -0.0020
  369BOLB   C4D 8856  17.664  19.131  26.761  0.0922 -0.2545 -0.0972
  370BOLB   NC1 8857  12.000  11.214  23.135  0.0667  0.1837  0.2515
  370BOLB   PO1 8858  11.614  11.299  23.240 -0.1360 -0.0415 -0.1490
  370BOLB   GL1 8859  11.512  11.364  23.644 -0.1216 -0.3222  0.0806
  370BOLB   GL2 8860  11.677  11.285  24.011  0.0456 -0.1116 -0.1364
  370BOLB   C1A 8861  11.193  11.255  24.012  0.0029 -0.0425 -0.1701
  370BOLB   C2A 8862  10.971  11.151  24.329  0.1285 -0.3316 -0.1904
  370BOLB   C3A 8863  10.724  11.033  24.731  0.0080  0.0016  0.0514
  370BOLB   C4A 8864  10.532  11.062  25.070  0.0861 -0.1017 -0.3587
  370BOLB   C1B 8865  11.692  11.250  24.426 -0.2173 -0.3049  0.0513
  370BOLB   C2B 8866  11.683  10.910  24.726  0.3851 -0.0571 -0.1057
  370BOLB   C3B 8867  11.981  11.016  24.968  0.1678 -0.2997  0.1818
  370BOLB   C4B 8868  12.350  11.165  25.291 -0.1769 -0.1186  0.1950
  370BOLB   NC2 8869  10.609  11.729  27.741  0.0605 -0.2639 -0.0515
  370BOLB   PO2 8870  10.365  11.475  27.332  0.0098  0.2161  0.1326
  370BOLB   GL3 8871  10.461  11.545  26.970  0.2795  0.0165 -0.1556
  370BOLB   GL4 8872  10.738  11.570  26.785  0.4038 -0.1991 -0.3856
  370BOLB   C1C 8873  10.271  11.649  26.552  0.0555 -0.2753  0.0394
  370BOLB   C2C 8874  10.160  11.337  26.168  0.1069 -0.0324 -0.0907
  370BOLB   C3C 8875  10.163  11.234  25.756 -0.0652 -0.1634  0.0593
  370BOLB   C4C 8876  10.485  11.125  25.436  0.1648 -0.0573 -0.0074
  370BOLB   C1D 8877  10.768  11.622  26.305 -0.0132  0.0842  0.1776
  370BOLB   C2D 8878  10.474  11.864  26.020  0.0973  0.0143 -0.0432
  370BOLB   C3D 8879  10.316  12.256  26.002  0.1713  0.0278 -0.0699
  370BOLB   C4D 8880  10.577  12.509  25.776  0.0628  0.0279  0.0131
  371BOLB   NC1 8881  15.670  11.004  23.481  0.1663 -0.1308 -0.0571
  371BOLB   PO1 8882  15.959  11.250  23.495 -0.0287 -0.0351 -0.0080
  371BOLB   GL1 8883  16.172  11.311  23.892  0.2329  0.0810  0.1940
  371BOLB   GL2 8884  15.958  11.370  24.045 -0.0420  0.0152  0.1379
  371BOLB   C1A 8885  16.384  11.262  24.312  0.2732 -0.1730  0.1408
  371BOLB   C2A 8886  16.632  11.241  24.669  0.1215 -0.4068 -0.3107
  371BOLB   C3A 8887  16.652  11.076  24.998 -0.3021 -0.0419  0.0476
  371BOLB   C4A 8888  16.628  11.062  25.455  0.0530 -0.2134  0.2467
  371BOLB   C1B 8889  15.863  11.086  24.439  0.0160 -0.0403  0.0427
  371BOLB   C2B 8890  15.943  10.788  24.847  0.1233 -0.1720 -0.1377
  371BOLB   C3B 8891  15.764  10.567  25.263 -0.1503 -0.0282  0.0242
  371BOLB   C4B 8892  15.740  10.419  25.695 -0.0749  0.3429  0.1599
  371BOLB   NC2 8893  17.350   9.919  27.261 -0.0588  0.0540  0.1262
  371BOLB   PO2 8894  17.245  10.400  27.389 -0.0700  0.0397  0.0499
  371BOLB   GL3 8895  17.146  10.596  26.979 -0.2127  0.0400  0.2578
  371BOLB   GL4 8896  17.419  10.737  26.780 -0.2336 -0.1264 -0.3561
  371BOLB   C1C 8897  16.937  10.889  26.769 -0.3027 -0.0856 -0.0254
  371BOLB   C2C 8898  16.636  11.086  26.636  0.0507  0.2517  0.0460
  371BOLB   C3C 8899  16.394  10.996  26.176  0.0473  0.1150  0.0290
  371BOLB   C4C 8900  16.439  11.109  25.868 -0.1713  0.1537  0.1944
  371BOLB   C1D 8901  17.244  10.957  26.375 -0.3196  0.4559  0.2019
  371BOLB   C2D 8902  16.903  11.272  26.306  0.0083 -0.2149  0.2042
  371BOLB   C3D 8903  16.707  11.528  25.886  0.2137 -0.1025  0.1019
  371BOLB   C4D 8904  16.316  11.597  25.709  0.1221 -0.1229 -0.1607
  372BOLB   NC1 8905  17.549  15.734  23.751  0.0448 -0.2148  0.1123
  372BOLB   PO1 8906  17.646  15.413  24.012  0.2100  0.0973 -0.1855
  372BOLB   GL1 8907  17.821  15.269  24.441  0.2912  0.0111  0.0376
  372BOLB   GL2 8908  17.704  14.893  24.592 -0.1325  0.0899 -0.0529
  372BOLB   C1A 8909  17.986  15.229  24.879  0.2240  0.0819  0.2027
  372BOLB   C2A 8910  18.188  15.066  25.233  0.3314  0.0286  0.2165
  372BOLB   C3A 8911  18.346  14.976  25.649  0.0573 -0.3758 -0.2595
  372BOLB   C4A 8912  18.258  14.575  25.945  0.0941 -0.1171 -0.1179
  372BOLB   C1B 8913  17.880  14.747  25.009  0.1658 -0.1750 -0.2574
  372BOLB   C2B 8914  18.040  14.632  25.422  0.1460  0.0584 -0.0378
  372BOLB   C3B 8915  18.189  14.258  25.561 -0.0948  0.1989 -0.1683
  372BOLB   C4B 8916  18.543  14.171  25.764 -0.2302  0.2861 -0.1406
  372BOLB   NC2 8917  18.997  13.009  27.755  0.2072 -0.1953 -0.0926
  372BOLB   PO2 8918  19.289  12.991  27.393 -0.1999  0.0133  0.0391
  372BOLB   GL3 8919  19.010  13.231  27.246  0.2135  0.1252  0.3244
  372BOLB   GL4 8920  18.782  12.876  27.177 -0.0143  0.1340 -0.0045
  372BOLB   C1C 8921  18.869  13.308  26.877  0.2236  0.0168 -0.0778
  372BOLB   C2C 8922  18.533  13.621  26.728  0.2234  0.3094 -0.1258
  372BOLB   C3C 8923  18.528  13.881  26.365 -0.0669 -0.1641  0.2390
  372BOLB   C4C 8924  18.217  14.236  26.158 -0.1665  0.1152 -0.2263
  372BOLB   C1D 8925  18.411  12.994  26.975  0.4027  0.3547  0.2872
  372BOLB   C2D 8926  18.014  12.827  27.007  0.1451 -0.0681 -0.0003
  372BOLB   C3D 8927  17.873  12.618  26.694  0.0845 -0.0526 -0.3190
  372BOLB   C4D 8928  17.892  12.444  26.209  0.1352 -0.1206  0.1081
  373BOLB   NC1 8929  16.395  25.299  22.713 -0.2823  0.1564  0.0735
  373BOLB   PO1 8930  16.358  24.916  23.092  0.1425 -0.2732 -0.2755
  373BOLB   GL1 8931  16.364  24.859  23.587 -0.0459  0.0717  0.0902
  373BOLB   GL2 8932  16.148  24.688  23.780 -0.0712 -0.1106  0.1164
  373BOLB   C1A 8933  16.708  24.955  23.898 -0.1792  0.2463 -0.0294
  373BOLB   C2A 8934  17.095  25.060  24.177  0.1472 -0.2809  0.0109
  373BOLB   C3A 8935  17.238  25.244  24.589  0.0173 -0.0580 -0.2789
  373BOLB   C4A 8936  17.229  25.143  25.046  0.2005  0.0745 -0.0633
  373BOLB   C1B 8937  16.169  25.020  24.054  0.0370  0.0274  0.0658
  373BOLB   C2B 8938  16.231  24.914  24.505  0.0673  0.0521 -0.0464
  373BOLB   C3B 8939  16.164  24.913  24.865 -0.1158 -0.1288 -0.3706
  373BOLB   C4B 8940  16.236  25.020  25.243  0.3072  0.0048 -0.0362
  373BOLB   NC2 8941  18.126  25.805  27.004 -0.2683  0.0789  0.1274
  373BOLB   PO2 8942  18.328  25.419  26.923  0.2704  0.1807  0.1634
  373BOLB   GL3 8943  18.368  25.234  26.568 -0.1388 -0.0505  0.3241
  373BOLB   GL4 8944  18.671  25.220  26.369  0.0192  0.0993 -0.1308
  373BOLB   C1C 8945  18.134  25.012  26.202 -0.2009 -0.0120 -0.1419
  373BOLB   C2C 8946  18.050  24.854  25.753 -0.4807 -0.1193  0.0760
  373BOLB   C3C 8947  17.831  24.800  25.383 -0.1621  0.0699 -0.2024
  373BOLB   C4C 8948  17.533  25.060  25.279 -0.0757 -0.2040 -0.0672
  373BOLB   C1D 8949  18.656  25.038  25.943  0.0840  0.2303  0.0269
  373BOLB   C2D 8950  19.017  24.979  25.706 -0.3227 -0.1287  0.3661
  373BOLB   C3D 8951  19.030  25.037  25.267  0.0792 -0.3038  0.0704
  373BOLB   C4D 8952  19.230  25.149  24.892  0.1934  0.2238  0.0698
  374BOLB   NC1 8953  13.448   8.178  22.444  0.3534  0.1006  0.1118
  374BOLB   PO1 8954  13.131   8.444  22.650  0.2462  0.0442 -0.1246
  374BOLB   GL1 8955  13.118   8.183  23.058 -0.1892 -0.2617  0.3093
  374BOLB   GL2 8956  13.394   8.102  23.076 -0.0629  0.0807  0.2519
  374BOLB   C1A 8957  13.049   8.190  23.464  0.0022  0.0926 -0.2924
  374BOLB   C2A 8958  13.064   8.168  23.967  0.1168  0.0343  0.1215
  374BOLB   C3A 8959  13.027   8.364  24.382  0.1838  0.0823 -0.1606
  374BOLB   C4A 8960  12.971   8.453  24.797  0.1561 -0.0591  0.3332
  374BOLB   C1B 8961  13.638   8.243  23.409  0.2060  0.3734 -0.1179
  374BOLB   C2B 8962  14.053   8.170  23.600 -0.0811  0.0354  0.0079
  374BOLB   C3B 8963  14.043   7.855  23.920  0.2039  0.2319 -0.0043
  374BOLB   C4B 8964  14.298   7.417  24.120  0.0770  0.3372  0.1054
  374BOLB   NC2 8965  13.946   7.291  26.428  0.2504  0.0346  0.0989
  374BOLB   PO2 8966  14.287   7.457  26.667 -0.0567  0.0931 -0.1326
  374BOLB   GL3 8967  14.241   7.747  26.291 -0.0642  0.3254 -0.0548
  374BOLB   GL4 8968  14.542   7.780  26.072 -0.1198 -0.3534  0.0022
  374BOLB   C1C 8969  14.216   8.207  26.016 -0.0184  0.0887 -0.0441
  374BOLB   C2C 8970  13.823   8.307  25.859  0.1333  0.2717  0.1318
  374BOLB   C3C 8971  13.398   8.341  25.615 -0.2080  0.0031  0.1471
  374BOLB   C4C 8972  13.084   8.429  25.251  0.2501  0.0497 -0.0071
  374BOLB   C1D 8973  14.377   7.722  25.725  0.1431 -0.1030  0.1163
  374BOLB   C2D 8974  14.076   8.045  25.486 -0.1590  0.1319 -0.2036
  374BOLB   C3D 8975  13.735   8.192  25.204 -0.0992 -0.4504 -0.1770
  374BOLB   C4D 8976  13.449   8.305  24.863  0.1614 -0.0380 -0.0445
  375BOLB   NC1 8977  21.721  23.359  19.370  0.1419 -0.3578 -0.1827
  375BOLB   PO1 8978  21.849  23.145  19.769 -0.3765 -0.0547  0.2627
  375BOLB   GL1 8979  22.236  23.334  19.958 -0.3442 -0.0647 -0.1445
  375BOLB   GL2 8980  22.166  23.527  19.601  0.0072 -0.3184  0.0012
  375BOLB   C1A 8981  22.626  23.558  20.098 -0.2844  0.1277  0.3703
  375BOLB   C2A 8982  22.879  23.924  20.272  0.1143 -0.2629 -0.2583
  375BOLB   C3A 8983  23.255  23.960  20.188  0.0867  0.4560  0.2296
  375BOLB   C4A 8984  23.644  23.587  20.366 -0.1540 -0.0259  0.0539
  375BOLB   C1B 8985  22.443  23.831  19.706  0.2421  0.0225  0.0322
  375BOLB   C2B 8986  22.814  24.167  19.733  0.1849 -0.4742 -0.1976
  375BOLB   C3B 8987  23.089  24.531  19.485  0.2722  0.0276  0.2185
  375BOLB   C4B 8988  23.472  24.747  19.421 -0.2337 -0.2387 -0.2236
  375BOLB   NC2 8989  26.314  23.059  20.190  0.0093  0.0887 -0.1869
  375BOLB   PO2 8990  26.345  23.222  20.596 -0.1074 -0.2473 -0.1083
  375BOLB   GL3 8991  25.879  23.233  20.491  0.0324 -0.0461  0.0784
  375BOLB   GL4 8992  25.749  22.941  20.542  0.1161 -0.1564  0.0195
  375BOLB   C1C 8993  25.375  23.206  20.520 -0.0062 -0.1475 -0.2626
  375BOLB   C2C 8994  24.961  23.352  20.673  0.0105  0.3975  0.1402
  375BOLB   C3C 8995  24.504  23.540  20.482 -0.0229  0.0762 -0.1234
  375BOLB   C4C 8996  24.040  23.380  20.384  0.1274 -0.0693  0.1043
  375BOLB   C1D 8997  25.588  22.621  20.552  0.1005 -0.0245  0.2588
  375BOLB   C2D 8998  25.191  22.542  20.495 -0.2125  0.2941 -0.1956
  375BOLB   C3D 8999  24.914  22.439  20.185  0.0019 -0.0747 -0.0551
  375BOLB   C4D 9000  24.410  22.506  20.248 -0.0848  0.3307 -0.1211
  376BOLB   NC1 9001  12.139  24.531  22.517 -0.1459 -0.1513  0.0031
  376BOLB   PO1 9002  11.937  24.104  22.505  0.2596 -0.0141  0.0481
  376BOLB   GL1 9003  11.666  24.440  22.450  0.2216  0.0599  0.0506
  376BOLB   GL2 9004  11.434  24.439  22.676 -0.0171 -0.1568 -0.1833
  376BOLB   C1A 9005  11.594  24.760  22.208 -0.0371 -0.0509  0.2270
  376BOLB   C2A 9006  11.331  24.833  21.869 -0.1479 -0.1221 -0.0640
  376BOLB   C3A 9007  10.931  24.952  21.733  0.1896 -0.0783 -0.1207
  376BOLB   C4A 9008  10.572  25.116  21.885  0.2095 -0.1392 -0.0467
  376BOLB   C1B 9009  11.163  24.749  22.658  0.2051 -0.1620 -0.2432
  376BOLB   C2B 9010  10.965  25.173  22.817  0.0562 -0.4565 -0.3029
  376BOLB   C3B 9011  10.913  25.653  22.806 -0.0020  0.5276  0.2242
  376BOLB   C4B 9012  10.544  25.982  22.693  0.0610 -0.2984 -0.0292
  376BOLB   NC2 9013   9.383  27.356  22.374 -0.0800  0.0702 -0.2783
  376BOLB   PO2 9014   9.231  27.056  22.006  0.1598 -0.0332 -0.1371
  376BOLB   GL3 9015   9.296  26.670  22.189 -0.0923  0.2066 -0.1955
  376BOLB   GL4 9016   9.522  26.846  22.379  0.1516 -0.0057  0.3167
  376BOLB   C1C 9017   9.394  26.259  22.241 -0.1268 -0.1293 -0.0733
  376BOLB   C2C 9018   9.778  26.014  22.078  0.3764 -0.1085 -0.0541
  376BOLB   C3C 9019  10.026  25.836  22.025  0.0789  0.0302 -0.0124
  376BOLB   C4C 9020  10.232  25.414  21.940 -0.0148 -0.4382  0.3044
  376BOLB   C1D 9021   9.813  26.532  22.383  0.1742 -0.1528 -0.0906
  376BOLB   C2D 9022  10.186  26.472  22.642  0.0412  0.2923  0.0847
  376BOLB   C3D 9023  10.543  26.581  22.491 -0.1649 -0.2640  0.6571
  376BOLB   C4D 9024  10.910  26.528  22.278 -0.0085 -0.0430  0.1382
  377BOLB   NC1 9025  20.490  22.687  22.085  0.0749  0.1333 -0.0545
  377BOLB   PO1 9026  20.089  22.773  22.307  0.1648  0.2828 -0.1983
  377BOLB   GL1 9027  20.360  23.009  22.528 -0.1755 -0.2092 -0.2859
  377BOLB   GL2 9028  20.251  23.217  22.705 -0.2040 -0.0763 -0.2749
  377BOLB   C1A 9029  20.722  23.090  22.843  0.0535 -0.0734 -0.3918
  377BOLB   C2A 9030  20.830  23.343  23.084 -0.1248  0.1299  0.0691
  377BOLB   C3A 9031  21.264  23.227  23.451  0.1758 -0.1013  0.2345
  377BOLB   C4A 9032  21.697  23.191  23.532  0.0127  0.1480 -0.0498
  377BOLB   C1B 9033  20.306  23.537  23.078  0.0054 -0.1693  0.4887
  377BOLB   C2B 9034  20.473  23.848  23.399  0.1095 -0.2302  0.4126
  377BOLB   C3B 9035  20.822  23.954  23.688  0.2615  0.1005  0.2790
  377BOLB   C4B 9036  21.258  24.071  23.693  0.0961 -0.2128 -0.0783
  377BOLB   NC2 9037  23.074  23.877  24.422  0.0140 -0.0756 -0.3366
  377BOLB   PO2 9038  23.334  24.211  24.156  0.0349  0.1505  0.0340
  377BOLB   GL3 9039  23.138  24.070  23.718 -0.1263 -0.0185  0.0903
  377BOLB   GL4 9040  23.264  24.005  23.471  0.1586  0.3232 -0.1636
  377BOLB   C1C 9041  22.782  23.795  23.736 -0.5821 -0.3140 -0.1654
  377BOLB   C2C 9042  22.838  23.389  23.796  0.4235 -0.3900 -0.0652
  377BOLB   C3C 9043  22.562  23.077  23.759 -0.0271 -0.2823 -0.1515
  377BOLB   C4C 9044  22.120  23.192  23.506  0.0037  0.1198  0.1212
  377BOLB   C1D 9045  23.425  23.621  23.190  0.1163  0.2325 -0.2104
  377BOLB   C2D 9046  23.582  23.397  22.788  0.4676  0.1278 -0.1227
  377BOLB   C3D 9047  23.431  23.261  22.423  0.0699 -0.1210 -0.0832
  377BOLB   C4D 9048  23.582  23.082  22.087  0.0857  0.0474  0.3024
  378BOLB   NC1 9049  17.119  11.132  23.052 -0.0825  0.2776  0.1094
  378BOLB   PO1 9050  16.940  11.238  23.451 -0.0635 -0.3046 -0.0805
  378BOLB   GL1 9051  16.975  11.067  23.854  0.3838 -0.0280  0.2162
  378BOLB   GL2 9052  16.718  11.150  23.973 -0.0369 -0.6089 -0.0209
  378BOLB   C1A 9053  17.116  11.310  24.292  0.0593  0.0556  0.1968
  378BOLB   C2A 9054  17.234  11.543  24.639 -0.1696 -0.1751 -0.2205
  378BOLB   C3A 9055  17.285  11.706  25.041  0.0301 -0.0153 -0.3085
  378BOLB   C4A 9056  17.538  11.787  25.485 -0.0860  0.0035  0.0442
  378BOLB   C1B 9057  16.868  10.874  24.370 -0.2325 -0.0309 -0.0342
  378BOLB   C2B 9058  17.073  10.666  24.753  0.0071  0.0470  0.0642
  378BOLB   C3B 9059  17.084  10.259  24.959  0.2278 -0.1040 -0.0258
  378BOLB   C4B 9060  17.029   9.857  25.142 -0.0009 -0.0934 -0.1318
  378BOLB   NC2 9061  16.792  10.501  27.350 -0.0528 -0.0995  0.0839
  378BOLB   PO2 9062  16.954  10.750  27.700  0.1380 -0.2963  0.0119
  378BOLB   GL3 9063  16.977  10.980  27.318 -0.0184 -0.3136  0.3077
  378BOLB   GL4 9064  16.641  10.958  27.143 -0.1700 -0.0459  0.0721
  378BOLB   C1C 9065  17.212  11.233  27.007 -0.0864  0.1043  0.3332
  378BOLB   C2C 9066  17.554  11.232  26.627  0.1997 -0.0216  0.2310
  378BOLB   C3C 9067  17.610  11.285  26.222 -0.1193  0.2735  0.0041
  378BOLB   C4C 9068  17.653  11.609  25.905 -0.0386  0.1152  0.1667
  378BOLB   C1D 9069  16.238  11.162  27.047  0.0986  0.2270 -0.0015
  378BOLB   C2D 9070  16.104  11.614  26.935 -0.2921  0.0339  0.1608
  378BOLB   C3D 9071  15.805  11.970  26.982  0.1245  0.4865 -0.1981
  378BOLB   C4D 9072  15.590  12.315  26.749 -0.0485  0.2076  0.0704
  379BOLB   NC1 9073  13.091  17.477  24.270  0.0689  0.0021 -0.0361
  379BOLB   PO1 9074  12.931  17.562  24.676  0.0709 -0.3802  0.0850
  379BOLB   GL1 9075  12.766  17.796  25.031  0.1422 -0.0386 -0.0717
  379BOLB   GL2 9076  12.506  18.041  25.043  0.1429  0.0488 -0.1552
  379BOLB   C1A 9077  12.857  17.713  25.445 -0.0873  0.2585  0.1330
  379BOLB   C2A 9078  12.744  17.676  25.903  0.2990  0.3569  0.0501
  379BOLB   C3A 9079  12.494  17.543  26.271  0.0912  0.0736  0.1299
  379BOLB   C4A 9080  12.496  17.365  26.620 -0.0453  0.0870 -0.2024
  379BOLB   C1B 9081  12.560  18.159  25.526 -0.0274 -0.1326  0.3852
  379BOLB   C2B 9082  12.520  18.126  25.922 -0.0681  0.2763  0.1593
  379BOLB   C3B 9083  12.516  18.065  26.357 -0.0403  0.0991  0.1187
  379BOLB   C4B 9084  12.608  17.910  26.838  0.0011  0.2960 -0.2110
  379BOLB   NC2 9085  12.455  16.886  29.172 -0.0280 -0.2119 -0.1012
  379BOLB   PO2 9086  12.311  16.871  28.760  0.0975  0.3647  0.0743
  379BOLB   GL3 9087  12.590  16.640  28.465 -0.0448  0.5870  0.4142
  379BOLB   GL4 9088  12.885  16.558  28.481 -0.2705 -0.0652  0.0956
  379BOLB   C1C 9089  12.686  16.749  28.057  0.2618 -0.0916  0.3285
  379BOLB   C2C 9090  12.922  16.874  27.614 -0.1942 -0.4869 -0.1016
  379BOLB   C3C 9091  12.903  16.888  27.168 -0.3386 -0.0808 -0.1553
  379BOLB   C4C 9092  12.761  17.264  27.005 -0.2702 -0.0376  0.0291
  379BOLB   C1D 9093  13.062  16.297  28.206  0.5594  0.0376 -0.2433
  379BOLB   C2D 9094  13.085  16.323  27.738 -0.0373  0.0239 -0.4255
  379BOLB   C3D 9095  12.900  16.433  27.345  0.0900 -0.0024  0.0657
  379BOLB   C4D 9096  12.593  16.524  27.142  0.0349  0.2847 -0.1122
  380BOLB   NC1 9097  22.280  21.129  20.842  0.2391  0.5066 -0.0247
  380BOLB   PO1 9098  22.207  21.647  20.833 -0.2482 -0.0499  0.2658
  380BOLB   GL1 9099  22.521  22.047  20.898  0.0055  0.3906  0.1464
  380BOLB   GL2 9100  22.511  21.916  21.153  0.0095  0.0198 -0.1557
  380BOLB   C1A 9101  22.893  22.269  20.976 -0.3333 -0.0649  0.4951
  380BOLB   C2A 9102  23.341  22.448  21.049 -0.0600 -0.2722 -0.0974
  380BOLB   C3A 9103  23.579  22.729  20.761  0.0062  0.3461 -0.3747
  380BOLB   C4A 9104  23.897  22.897  20.529  0.6557  0.2941 -0.0691
  380BOLB   C1B 9105  22.675  22.170  21.392 -0.2501  0.0368  0.0846
  380BOLB   C2B 9106  23.023  22.495  21.499 -0.0063  0.0475  0.1542
  380BOLB   C3B 9107  23.227  22.783  21.898 -0.0153  0.2760 -0.0235
  380BOLB   C4B 9108  23.064  23.165  22.198 -0.0450  0.0269 -0.4117
  380BOLB   NC2 9109  26.276  24.176  20.396 -0.0491  0.0033 -0.2261
  380BOLB   PO2 9110  25.802  23.911  20.585 -0.2082  0.0716 -0.2199
  380BOLB   GL3 9111  25.581  23.642  20.372 -0.0188 -0.1172 -0.0025
  380BOLB   GL4 9112  25.575  23.654  19.936 -0.2307 -0.1151  0.1188
  380BOLB   C1C 9113  25.125  23.421  20.151  0.0143 -0.2680 -0.0528
  380BOLB   C2C 9114  25.029  23.101  20.230 -0.0152 -0.0144  0.1150
  380BOLB   C3C 9115  24.752  22.858  20.382  0.5457  0.1806  0.0760
  380BOLB   C4C 9116  24.343  22.984  20.343 -0.3381  0.4927  0.2880
  380BOLB   C1D 9117  25.585  23.182  20.063  0.0706 -0.2490  0.1776
  380BOLB   C2D 9118  25.510  22.771  20.105 -0.0900  0.0347 -0.0546
  380BOLB   C3D 9119  25.402  22.238  20.208 -0.0877 -0.0186  0.3321
  380BOLB   C4D 9120  25.056  22.032  20.444  0.0079  0.4692 -0.2251
  381BOLB   NC1 9121  11.289  20.865  24.300 -0.1472  0.1521 -0.1618
  381BOLB   PO1 9122  10.962  20.624  24.156 -0.1554  0.0409  0.0401
  381BOLB   GL1 9123  10.869  20.705  24.582  0.4195 -0.0720  0.3038
  381BOLB   GL2 9124  11.115  20.610  24.771 -0.3078  0.0848  0.0964
  381BOLB   C1A 9125  10.713  20.991  24.882 -0.2952 -0.3761 -0.1616
  381BOLB   C2A 9126  10.785  21.249  25.185 -0.5112  0.0307 -0.1777
  381BOLB   C3A 9127  10.660  21.371  25.550  0.2578  0.3242 -0.1336
  381BOLB   C4A 9128  10.677  21.443  25.973 -0.0258 -0.1555 -0.3179
  381BOLB   C1B 9129  11.044  20.720  25.137  0.1457 -0.1903  0.1445
  381BOLB   C2B 9130  11.114  20.651  25.565  0.0275 -0.0847 -0.4336
  381BOLB   C3B 9131  10.874  20.294  25.847  0.3947  0.0901  0.1498
  381BOLB   C4B 9132  10.848  20.226  26.283  0.0368  0.0611  0.0252
  381BOLB   NC2 9133  11.942  22.201  28.308 -0.3193  0.3443 -0.1889
  381BOLB   PO2 9134  11.497  22.275  28.329  0.2104  0.0282 -0.3546
  381BOLB   GL3 9135  11.600  22.254  27.898 -0.1623  0.4050 -0.3724
  381BOLB   GL4 9136  11.926  22.260  27.785 -0.0406  0.0987 -0.0041
  381BOLB   C1C 9137  11.387  22.084  27.440 -0.2263  0.1655 -0.0945
  381BOLB   C2C 9138  11.063  21.932  27.245 -0.3313 -0.1135  0.2022
  381BOLB   C3C 9139  10.849  21.794  26.870 -0.0867 -0.2270  0.0087
  381BOLB   C4C 9140  10.719  21.624  26.499  0.1723 -0.0882 -0.0117
  381BOLB   C1D 9141  11.930  22.060  27.339 -0.3334  0.1132  0.0482
  381BOLB   C2D 9142  11.735  21.866  27.024  0.0217  0.1288  0.0070
  381BOLB   C3D 9143  11.347  21.829  26.804 -0.1091 -0.3987  0.0584
  381BOLB   C4D 9144  11.193  21.472  26.521 -0.1324 -0.2208 -0.2258
  382BOLB   NC1 9145  11.253   9.875  22.788  0.2035  0.0238 -0.0923
  382BOLB   PO1 9146  10.939  10.037  22.693 -0.0470 -0.2672  0.1138
  382BOLB   GL1 9147  10.613  10.186  22.611  0.2962 -0.0832  0.1306
  382BOLB   GL2 9148  10.658  10.608  22.660  0.1736  0.0748 -0.0382
  382BOLB   C1A 9149  10.300  10.367  22.374 -0.0663 -0.0052 -0.0563
  382BOLB   C2A 9150  10.118  10.706  22.453 -0.1646  0.0126 -0.1084
  382BOLB   C3A 9151   9.784  10.958  22.321 -0.3457 -0.4686  0.2191
  382BOLB   C4A 9152   9.288  11.011  22.243  0.3128  0.2124 -0.0056
  382BOLB   C1B 9153  10.440  10.788  22.915  0.1156 -0.0771 -0.0442
  382BOLB   C2B 9154  10.130  11.031  22.924  0.1594  0.1190 -0.1411
  382BOLB   C3B 9155   9.714  11.090  22.789  0.2779 -0.2233 -0.0438
  382BOLB   C4B 9156   9.356  11.362  22.588 -0.2249 -0.2663  0.2882
  382BOLB   NC2 9157   8.348   8.966  21.968 -0.2083  0.0273  0.2108
  382BOLB   PO2 9158   8.147   9.140  22.253 -0.0951 -0.3409  0.0564
  382BOLB   GL3 9159   8.169   9.546  22.457  0.0215  0.4165 -0.0264
  382BOLB   GL4 9160   8.276   9.742  22.242 -0.0934 -0.0288  0.1699
  382BOLB   C1C 9161   8.442   9.901  22.688 -0.1526 -0.1721 -0.1174
  382BOLB   C2C 9162   8.472  10.304  22.800 -0.0459 -0.1082 -0.2862
  382BOLB   C3C 9163   8.680  10.677  22.763 -0.2350  0.2728  0.0898
  382BOLB   C4C 9164   9.039  10.865  22.546  0.4202  0.0835 -0.0097
  382BOLB   C1D 9165   8.488  10.073  22.182 -0.4412 -0.0276  0.4732
  382BOLB   C2D 9166   8.652  10.444  21.992 -0.0884 -0.3471 -0.1498
  382BOLB   C3D 9167   8.843  10.929  22.014 -0.0816 -0.3471  0.1398
  382BOLB   C4D 9168   9.062  11.193  21.728 -0.2896  0.0423 -0.2009
  383BOLB   NC1 9169  14.710  19.930  24.178  0.0825 -0.2694 -0.2029
  383BOLB   PO1 9170  14.381  19.649  24.080  0.0215  0.0975  0.1541
  383BOLB   GL1 9171  14.394  19.630  24.446  0.0036 -0.1509 -0.1815
  383BOLB   GL2 9172  14.497  19.884  24.634  0.0785 -0.0540  0.2489
  383BOLB   C1A 9173  14.162  19.609  24.790  0.2600 -0.0133  0.1834
  383BOLB   C2A 9174  14.092  19.473  25.293 -0.1904 -0.0257 -0.0296
  383BOLB   C3A 9175  14.148  19.355  25.686 -0.0928  0.2467  0.3382
  383BOLB   C4A 9176  14.033  19.297  26.178  0.2570  0.1126 -0.0991
  383BOLB   C1B 9177  14.314  20.109  25.055  0.0873 -0.1475 -0.3273
  383BOLB   C2B 9178  14.013  19.955  25.249 -0.3030 -0.0267 -0.4837
  383BOLB   C3B 9179  13.976  19.828  25.694  0.3213 -0.0751  0.2205
  383BOLB   C4B 9180  13.734  19.700  26.054  0.0596 -0.0278  0.2847
  383BOLB   NC2 9181  14.244  19.417  28.474 -0.1147  0.1630 -0.6675
  383BOLB   PO2 9182  14.268  18.930  28.564  0.2326  0.1869  0.0342
  383BOLB   GL3 9183  14.152  18.896  28.176 -0.2000  0.0135 -0.0493
  383BOLB   GL4 9184  14.391  19.002  27.983  0.3592  0.3986  0.1751
  383BOLB   C1C 9185  13.934  18.939  27.709  0.1890 -0.2868  0.2404
  383BOLB   C2C 9186  13.672  19.077  27.349 -0.2061  0.2040 -0.0812
  383BOLB   C3C 9187  13.736  19.182  26.924  0.0021 -0.2572  0.1008
  383BOLB   C4C 9188  14.011  19.142  26.570 -0.1260  0.0647  0.2627
  383BOLB   C1D 9189  14.386  19.279  27.590 -0.3428  0.0491 -0.0874
  383BOLB   C2D 9190  14.462  19.495  27.222 -0.1998  0.0337  0.1716
  383BOLB   C3D 9191  14.665  19.732  26.854 -0.1586  0.2004  0.2145
  383BOLB   C4D 9192  14.774  19.909  26.503  0.3220  0.4007 -0.3719
  384BOLB   NC1 9193  21.571  18.159  22.833  0.2063 -0.3726 -0.2797
  384BOLB   PO1 9194  21.720  18.550  22.678  0.0211  0.0364 -0.0928
  384BOLB   GL1 9195  22.055  18.482  22.884 -0.0276 -0.2891  0.1818
  384BOLB   GL2 9196  22.172  18.779  22.872 -0.2427 -0.1882  0.0763
  384BOLB   C1A 9197  22.389  18.412  23.237  0.0970 -0.1036 -0.2033
  384BOLB   C2A 9198  22.600  18.120  23.451 -0.0615 -0.0997  0.4050
  384BOLB   C3A 9199  22.869  18.020  23.843  0.0655 -0.0458  0.2545
  384BOLB   C4A 9200  23.063  18.138  24.216 -0.2397  0.2448  0.1236
  384BOLB   C1B 9201  22.483  18.951  23.119 -0.0829  0.0308  0.0489
  384BOLB   C2B 9202  22.881  19.108  23.221 -0.1668  0.0674 -0.0985
  384BOLB   C3B 9203  23.367  19.281  23.333  0.2892 -0.4267 -0.2659
  384BOLB   C4B 9204  23.778  19.461  23.152 -0.1692 -0.0881 -0.0089
  384BOLB   NC2 9205  24.165  19.075  26.270 -0.0282  0.1178  0.0811
  384BOLB   PO2 9206  23.908  18.673  26.328 -0.0379  0.2143 -0.0751
  384BOLB   GL3 9207  23.829  18.731  25.941  0.1800  0.0098  0.2068
  384BOLB   GL4 9208  23.983  18.915  25.766  0.0973 -0.2267  0.0056
  384BOLB   C1C 9209  23.512  18.707  25.516  0.0572 -0.1741  0.3534
  384BOLB   C2C 9210  23.277  18.733  25.136 -0.0717  0.1980 -0.1376
  384BOLB   C3C 9211  23.121  18.543  24.888 -0.0090 -0.0546 -0.0514
  384BOLB   C4C 9212  23.164  18.170  24.659 -0.0296  0.1082 -0.2157
  384BOLB   C1D 9213  23.846  18.927  25.264 -0.4223  0.2428 -0.1443
  384BOLB   C2D 9214  23.787  18.597  24.951 -0.1125  0.0343 -0.0043
  384BOLB   C3D 9215  23.643  18.303  24.746  0.0980 -0.2358 -0.2686
  384BOLB   C4D 9216  23.657  18.194  24.315  0.0146 -0.1253 -0.1434
  385BOLB   NC1 9217  18.390  16.472  23.763 -0.1058  0.1562  0.4740
  385BOLB   PO1 9218  18.351  16.544  24.248  0.1093 -0.2879 -0.0346
  385BOLB   GL1 9219  18.439  16.704  24.632  0.0494  0.2244 -0.0434
  385BOLB   GL2 9220  18.639  16.895  24.731 -0.5227  0.0387  0.1917
  385BOLB   C1A 9221  18.536  16.532  25.115  0.1508 -0.0777  0.2310
  385BOLB   C2A 9222  18.489  16.504  25.547 -0.0898  0.1746 -0.1731
  385BOLB   C3A 9223  18.301  16.736  25.822 -0.0371  0.0413 -0.2339
  385BOLB   C4A 9224  18.174  16.941  26.119  0.0641 -0.0532 -0.0494
  385BOLB   C1B 9225  18.838  16.954  25.136 -0.0982  0.1248 -0.1454
  385BOLB   C2B 9226  18.745  16.946  25.571  0.2071 -0.0516 -0.0708
  385BOLB   C3B 9227  18.716  17.068  26.078  0.1687 -0.2796 -0.0909
  385BOLB   C4B 9228  18.608  16.980  26.460  0.2466  0.0495 -0.1505
  385BOLB   NC2 9229  18.575  17.170  28.541 -0.0818  0.2638 -0.3366
  385BOLB   PO2 9230  18.445  16.721  28.547 -0.0255 -0.1232 -0.2219
  385BOLB   GL3 9231  18.198  16.862  28.169 -0.0390 -0.2439 -0.0665
  385BOLB   GL4 9232  18.443  17.026  28.117 -0.0951 -0.0121  0.1032
  385BOLB   C1C 9233  18.171  16.671  27.756 -0.2179 -0.0578  0.0244
  385BOLB   C2C 9234  17.940  16.930  27.399 -0.2143 -0.0149  0.3825
  385BOLB   C3C 9235  17.959  16.943  27.011 -0.1500  0.0512  0.1759
  385BOLB   C4C 9236  18.064  16.984  26.547 -0.0688  0.4277  0.3095
  385BOLB   C1D 9237  18.689  16.835  27.781  0.2610 -0.1229  0.1437
  385BOLB   C2D 9238  18.465  16.801  27.390  0.0622 -0.3364 -0.0677
  385BOLB   C3D 9239  18.484  16.762  26.881 -0.0557  0.0672 -0.1411
  385BOLB   C4D 9240  18.296  16.569  26.481  0.0863 -0.4218  0.0220
  386BOLB   NC1 9241  12.746  18.756  24.547 -0.0172  0.1753 -0.3074
  386BOLB   PO1 9242  13.130  18.978  24.444 -0.1666 -0.1464  0.0805
  386BOLB   GL1 9243  12.956  19.121  24.803 -0.0184  0.2351 -0.1748
  386BOLB   GL2 9244  12.958  19.481  24.901 -0.1780 -0.0581  0.0496
  386BOLB   C1A 9245  12.761  19.198  25.243  0.2824 -0.1482  0.4210
  386BOLB   C2A 9246  12.567  19.191  25.688 -0.3469 -0.2603  0.0668
  386BOLB   C3A 9247  12.533  19.151  26.114  0.0150  0.0066 -0.4037
  386BOLB   C4A 9248  12.420  18.962  26.535  0.1575  0.0577  0.1360
  386BOLB   C1B 9249  13.170  19.628  25.311  0.1230  0.2545  0.2670
  386BOLB   C2B 9250  13.230  19.795  25.639  0.2950 -0.1993 -0.3936
  386BOLB   C3B 9251  13.104  20.151  25.948  0.1025  0.0676  0.0878
  386BOLB   C4B 9252  12.783  20.056  26.255 -0.0042  0.0753 -0.1554
  386BOLB   NC2 9253  11.266  18.169  28.413 -0.2225  0.1146  0.3155
  386BOLB   PO2 9254  11.606  18.184  28.644 -0.0029  0.1752 -0.0877
  386BOLB   GL3 9255  11.728  18.379  28.192  0.3475  0.2087 -0.1110
  386BOLB   GL4 9256  11.635  18.058  28.049  0.1602  0.4197  0.0258
  386BOLB   C1C 9257  11.902  18.804  28.022  0.3700 -0.0509 -0.0760
  386BOLB   C2C 9258  11.942  19.044  27.690  0.1964  0.2204 -0.1825
  386BOLB   C3C 9259  12.077  18.986  27.290 -0.3728 -0.1296  0.0481
  386BOLB   C4C 9260  12.070  18.907  26.840  0.2273  0.1190  0.1099
  386BOLB   C1D 9261  11.918  18.108  27.648  0.1697  0.1984  0.2996
  386BOLB   C2D 9262  11.962  18.528  27.429 -0.0701  0.2710  0.3834
  386BOLB   C3D 9263  12.133  18.524  27.158  0.1174  0.2972 -0.3427
  386BOLB   C4D 9264  12.211  18.150  26.984  0.1590  0.0231 -0.0286
  387BOLB   NC1 9265  18.250   9.724  22.094 -0.0752 -0.0163  0.2894
  387BOLB   PO1 9266  18.642   9.559  22.108  0.1561  0.2078 -0.2338
  387BOLB   GL1 9267  18.849   9.213  22.191  0.2612  0.2077  0.1834
  387BOLB   GL2 9268  18.591   8.947  22.232 -0.5025 -0.0715  0.0574
  387BOLB   C1A 9269  18.880   9.134  22.594  0.0879 -0.0764  0.2817
  387BOLB   C2A 9270  18.945   8.766  22.844 -0.1227 -0.2273 -0.0985
  387BOLB   C3A 9271  19.009   8.352  23.012  0.2584  0.1124  0.1028
  387BOLB   C4A 9272  19.004   8.123  23.318 -0.0036 -0.3631  0.1064
  387BOLB   C1B 9273  18.865   8.675  22.404 -0.0297  0.0543  0.0680
  387BOLB   C2B 9274  18.803   8.233  22.620  0.0535  0.0137  0.0498
  387BOLB   C3B 9275  18.607   7.885  22.709 -0.0921  0.0022 -0.0545
  387BOLB   C4B 9276  18.617   7.446  22.791 -0.2750  0.1529 -0.1048
  387BOLB   NC2 9277  18.532   7.211  25.498 -0.0847  0.0833 -0.0266
  387BOLB   PO2 9278  18.853   6.972  25.356 -0.0212  0.3343 -0.3465
  387BOLB   GL3 9279  18.758   6.883  24.978 -0.2299  0.0386 -0.0048
  387BOLB   GL4 9280  18.639   7.148  24.924  0.0759 -0.0579 -0.1857
  387BOLB   C1C 9281  18.781   6.985  24.481 -0.0374  0.0174  0.3158
  387BOLB   C2C 9282  18.747   7.297  24.121  0.1515 -0.0741 -0.0271
  387BOLB   C3C 9283  18.680   7.475  23.737 -0.4116  0.3569  0.1170
  387BOLB   C4C 9284  18.982   7.713  23.484  0.1700  0.0446 -0.2533
  387BOLB   C1D 9285  18.438   7.327  24.618 -0.1623 -0.1678 -0.0350
  387BOLB   C2D 9286  18.244   7.535  24.320 -0.4143 -0.1748 -0.1464
  387BOLB   C3D 9287  17.868   7.815  24.367 -0.0427  0.3835  0.0578
  387BOLB   C4D 9288  17.607   8.002  24.704  0.0051  0.1479 -0.2260
  388BOLB   NC1 9289  11.453  11.788  23.324  0.2394  0.0488  0.1590
  388BOLB   PO1 9290  11.438  12.008  23.620 -0.0049  0.2179 -0.0666
  388BOLB   GL1 9291  11.383  11.743  24.037 -0.2811  0.0746  0.2810
  388BOLB   GL2 9292  11.399  12.026  24.152  0.0049  0.1778 -0.2815
  388BOLB   C1A 9293  11.315  11.558  24.455  0.1577  0.0322  0.4316
  388BOLB   C2A 9294  11.247  11.205  24.774  0.0682  0.0513  0.1766
  388BOLB   C3A 9295  11.244  10.804  24.951  0.1635 -0.1510  0.0269
  388BOLB   C4A 9296  11.390  10.754  25.351  0.1357  0.2587 -0.1383
  388BOLB   C1B 9297  11.329  12.021  24.710 -0.2999 -0.2941 -0.0470
  388BOLB   C2B 9298  11.280  11.871  25.142 -0.3645 -0.2424 -0.0807
  388BOLB   C3B 9299  11.047  11.806  25.536  0.1572  0.3496 -0.2510
  388BOLB   C4B 9300  10.594  11.645  25.574 -0.1266 -0.0318  0.2479
  388BOLB   NC2 9301  11.569  11.250  27.830  0.1829 -0.2351  0.2099
  388BOLB   PO2 9302  11.412  10.790  27.816 -0.2365 -0.0796 -0.0461
  388BOLB   GL3 9303  11.336  10.961  27.450 -0.4159  0.0139  0.1823
  388BOLB   GL4 9304  11.255  11.258  27.117 -0.4602 -0.3759 -0.1877
  388BOLB   C1C 9305  11.364  10.823  26.927  0.1433 -0.4184  0.0179
  388BOLB   C2C 9306  11.495  10.687  26.592  0.0615  0.1881 -0.0124
  388BOLB   C3C 9307  11.565  10.835  26.197  0.3006  0.0160  0.1194
  388BOLB   C4C 9308  11.543  10.879  25.715 -0.0543 -0.1942 -0.0984
  388BOLB   C1D 9309  11.592  11.321  26.836  0.2586  0.3634  0.3247
  388BOLB   C2D 9310  11.665  11.389  26.377  0.2985 -0.0444 -0.0461
  388BOLB   C3D 9311  11.781  11.388  26.016 -0.2160 -0.0397  0.1043
  388BOLB   C4D 9312  11.765  11.538  25.708 -0.2687  0.2039 -0.0300
  389BOLB   NC1 9313  20.671  23.270  20.530 -0.1219 -0.0593 -0.1443
  389BOLB   PO1 9314  20.930  23.351  20.876 -0.1318 -0.1590  0.1714
  389BOLB   GL1 9315  21.355  23.533  21.134 -0.1071  0.2374  0.3029
  389BOLB   GL2 9316  21.484  23.367  21.437  0.0605  0.4059  0.1323
  389BOLB   C1A 9317  21.691  23.895  20.966 -0.0371  0.1672 -0.4723
  389BOLB   C2A 9318  21.896  24.314  20.840 -0.1132 -0.0487  0.3137
  389BOLB   C3A 9319  21.915  24.712  20.599  0.2918  0.1398 -0.0978
  389BOLB   C4A 9320  22.307  24.997  20.689  0.1992 -0.1898  0.1337
  389BOLB   C1B 9321  21.576  23.409  21.793  0.3739 -0.2388  0.3293
  389BOLB   C2B 9322  21.935  23.548  22.056  0.0879  0.0418 -0.0902
  389BOLB   C3B 9323  22.289  23.534  22.274  0.1019 -0.3061 -0.0079
  389BOLB   C4B 9324  22.583  23.736  22.513 -0.1815  0.2360 -0.2472
  389BOLB   NC2 9325  24.836  25.103  21.315 -0.3022 -0.4339  0.3870
  389BOLB   PO2 9326  24.525  25.210  21.653 -0.0161 -0.1273  0.0282
  389BOLB   GL3 9327  24.122  25.199  21.660 -0.2147  0.1020  0.3003
  389BOLB   GL4 9328  23.991  25.352  21.395  0.0196  0.2098 -0.2992
  389BOLB   C1C 9329  23.710  25.032  21.766 -0.2496 -0.1105  0.2491
  389BOLB   C2C 9330  23.309  25.132  21.481  0.2978 -0.2427  0.0596
  389BOLB   C3C 9331  22.977  25.270  21.229  0.1543  0.2089  0.2278
  389BOLB   C4C 9332  22.668  25.261  20.871  0.1671  0.0085  0.1366
  389BOLB   C1D 9333  23.703  24.943  21.220 -0.0584 -0.0678  0.1445
  389BOLB   C2D 9334  23.722  24.556  20.981 -0.2083  0.3267 -0.1136
  389BOLB   C3D 9335  23.673  24.175  21.144 -0.3288  0.0948  0.0803
  389BOLB   C4D 9336  23.429  24.069  21.495 -0.1125  0.0283  0.1508
  390BOLB   NC1 9337  21.016  15.677  22.932 -0.2802 -0.0936  0.0516
  390BOLB   PO1 9338  21.332  15.895  22.582  0.1584 -0.1991 -0.0334
  390BOLB   GL1 9339  21.523  15.874  22.962 -0.0370 -0.1109  0.0353
  390BOLB   GL2 9340  21.412  15.973  23.252 -0.1087 -0.0665 -0.1913
  390BOLB   C1A 9341  21.954  15.917  23.178 -0.1590 -0.2131 -0.0431
  390BOLB   C2A 9342  22.358  16.020  23.352 -0.2294 -0.0850 -0.1776
  390BOLB   C3A 9343  22.708  16.155  23.506  0.0391  0.1832 -0.0768
  390BOLB   C4A 9344  22.805  16.324  23.993  0.1988  0.0557  0.1735
  390BOLB   C1B 9345  21.811  15.880  23.603 -0.0136  0.2295 -0.4086
  390BOLB   C2B 9346  22.129  15.853  23.922 -0.0255 -0.1195 -0.2876
  390BOLB   C3B 9347  22.226  15.681  24.294 -0.1357 -0.2005 -0.0553
  390BOLB   C4B 9348  22.300  15.447  24.675  0.0402 -0.0052 -0.0863
  390BOLB   NC2 9349  23.398  16.749  26.235 -0.0933  0.0485 -0.2418
  390BOLB   PO2 9350  23.854  16.806  26.280  0.0234 -0.3388  0.1081
  390BOLB   GL3 9351  23.697  16.657  25.860  0.6428  0.0070  0.0919
  390BOLB   GL4 9352  23.476  16.352  25.944 -0.1658  0.0310 -0.2914
  390BOLB   C1C 9353  23.347  16.677  25.545 -0.1011 -0.0055 -0.2834
  390BOLB   C2C 9354  23.307  16.938  25.174  0.0532 -0.1421  0.2234
  390BOLB   C3C 9355  23.365  16.742  24.701  0.0132 -0.2217  0.3339
  390BOLB   C4C 9356  23.054  16.565  24.384 -0.0909  0.1539 -0.4818
  390BOLB   C1D 9357  23.022  16.364  25.797  0.0085 -0.0560 -0.1970
  390BOLB   C2D 9358  22.734  16.229  25.907 -0.3001  0.1202 -0.1520
  390BOLB   C3D 9359  22.439  16.220  26.282 -0.0059 -0.1338  0.2801
  390BOLB   C4D 9360  22.139  16.411  26.252 -0.3268  0.1031 -0.1683
  391BOLB   NC1 9361  22.580  20.282  20.992  0.3436  0.1405  0.1408
  391BOLB   PO1 9362  22.470  20.654  20.930  0.2601 -0.0068  0.2575
  391BOLB   GL1 9363  22.779  21.020  21.030  0.5403 -0.3672  0.0110
  391BOLB   GL2 9364  23.036  20.866  20.982  0.0898  0.1736 -0.1137
  391BOLB   C1A 9365  22.773  21.465  21.146  0.1076  0.0662 -0.2190
  391BOLB   C2A 9366  23.038  21.709  21.154 -0.3785 -0.2534  0.0888
  391BOLB   C3A 9367  23.275  21.997  21.414 -0.1474  0.0067  0.3258
  391BOLB   C4A 9368  23.604  22.070  21.344  0.1039  0.3230 -0.0406
  391BOLB   C1B 9369  23.209  21.152  21.242  0.1173  0.1069 -0.0397
  391BOLB   C2B 9370  23.143  21.426  21.568 -0.1228 -0.1126 -0.1859
  391BOLB   C3B 9371  23.469  21.563  21.775  0.1486 -0.1652  0.0053
  391BOLB   C4B 9372  23.774  21.463  22.065  0.1747 -0.2505  0.2283
  391BOLB   NC2 9373  25.455  23.485  22.146  0.1721  0.0101  0.1585
  391BOLB   PO2 9374  25.247  23.783  21.854 -0.0922  0.3583  0.2261
  391BOLB   GL3 9375  24.899  23.632  21.911 -0.3727 -0.2134  0.3811
  391BOLB   GL4 9376  24.912  23.573  21.476  0.0419  0.1031  0.0522
  391BOLB   C1C 9377  24.617  23.396  21.848 -0.1558  0.1072  0.0987
  391BOLB   C2C 9378  24.476  22.962  21.776 -0.0482  0.2186 -0.1052
  391BOLB   C3C 9379  24.262  22.511  21.828  0.2310  0.1650  0.2200
  391BOLB   C4C 9380  23.899  22.277  21.650 -0.1461 -0.0288 -0.0377
  391BOLB   C1D 9381  24.576  23.430  21.280 -0.0169  0.1799  0.0143
  391BOLB   C2D 9382  24.318  23.484  20.925 -0.0688  0.0580 -0.3245
  391BOLB   C3D 9383  24.000  23.873  20.727  0.0710 -0.2312 -0.2073
  391BOLB   C4D 9384  23.571  24.125  20.692 -0.0256 -0.0601  0.0508
  392BOLB   NC1 9385  14.272  20.212  24.296  0.0040 -0.1485 -0.3136
  392BOLB   PO1 9386  14.451  20.683  24.314 -0.0291  0.1336  0.3771
  392BOLB   GL1 9387  14.671  20.844  24.613 -0.0005  0.1344 -0.0618
  392BOLB   GL2 9388  14.503  21.056  24.719  0.2981  0.1585 -0.3869
  392BOLB   C1A 9389  14.916  20.661  24.977  0.3266  0.0865  0.1024
  392BOLB   C2A 9390  14.950  20.621  25.405  0.0752 -0.1147 -0.4310
  392BOLB   C3A 9391  15.201  20.372  25.707 -0.1381 -0.0566  0.0762
  392BOLB   C4A 9392  15.387  20.310  26.113  0.1164  0.0864  0.1704
  392BOLB   C1B 9393  14.597  21.059  25.088  0.2831  0.1433 -0.1624
  392BOLB   C2B 9394  14.616  20.985  25.468 -0.3948 -0.3099  0.2873
  392BOLB   C3B 9395  14.448  21.231  25.768  0.0837 -0.1242  0.0717
  392BOLB   C4B 9396  14.159  21.428  26.066  0.2307 -0.2350  0.1181
  392BOLB   NC2 9397  15.767  19.552  28.201 -0.3236  0.1540 -0.0249
  392BOLB   PO2 9398  15.557  19.255  28.355  0.2222  0.4484  0.2034
  392BOLB   GL3 9399  15.361  19.247  28.001 -0.0570  0.1545 -0.0655
  392BOLB   GL4 9400  15.109  19.038  28.073 -0.1326 -0.1181 -0.0665
  392BOLB   C1C 9401  15.552  19.404  27.619  0.1802 -0.1227  0.1241
  392BOLB   C2C 9402  15.593  19.724  27.192  0.1907 -0.0209 -0.4789
  392BOLB   C3C 9403  15.478  20.119  26.946  0.1229 -0.1005 -0.0420
  392BOLB   C4C 9404  15.252  20.143  26.501 -0.1655  0.0660 -0.0319
  392BOLB   C1D 9405  15.273  18.939  27.603  0.0067  0.2020 -0.0734
  392BOLB   C2D 9406  15.577  18.823  27.212  0.1809  0.1906 -0.1504
  392BOLB   C3D 9407  15.613  18.439  27.027  0.4101 -0.0152  0.3088
  392BOLB   C4D 9408  15.584  18.160  26.707 -0.2058  0.0215  0.0287
  393BOLB   NC1 9409   8.107  24.060  22.820  0.3730 -0.1877 -0.1091
  393BOLB   PO1 9410   7.843  24.353  22.959 -0.1310 -0.0057  0.2641
  393BOLB   GL1 9411   8.301  24.540  22.824 -0.0324 -0.1825  0.3321
  393BOLB   GL2 9412   8.699  24.468  22.728 -0.3491  0.1158  0.0771
  393BOLB   C1A 9413   8.580  24.913  22.740 -0.0103  0.0065 -0.2335
  393BOLB   C2A 9414   9.011  24.891  22.750 -0.1517 -0.3575 -0.3203
  393BOLB   C3A 9415   9.445  24.790  22.623 -0.2212 -0.0442 -0.3195
  393BOLB   C4A 9416   9.573  25.179  22.446  0.2508  0.0007  0.1434
  393BOLB   C1B 9417   8.596  24.470  22.266  0.0967  0.1092  0.1352
  393BOLB   C2B 9418   8.497  24.245  21.959 -0.1342  0.0325  0.0370
  393BOLB   C3B 9419   8.224  23.909  21.984  0.3488  0.0380 -0.1820
  393BOLB   C4B 9420   8.256  23.478  21.960 -0.0960 -0.0099 -0.0678
  393BOLB   NC2 9421   8.026  26.205  22.224 -0.1548 -0.0138 -0.2697
  393BOLB   PO2 9422   8.408  26.238  22.558  0.1664 -0.0385  0.1220
  393BOLB   GL3 9423   8.664  26.047  22.313 -0.5258  0.1400 -0.1065
  393BOLB   GL4 9424   8.915  25.892  22.540  0.1129  0.1085  0.0278
  393BOLB   C1C 9425   8.939  26.144  22.059 -0.0387 -0.0882 -0.2843
  393BOLB   C2C 9426   9.293  25.990  21.839 -0.1878  0.0243  0.2665
  393BOLB   C3C 9427   9.616  25.616  21.770  0.2157  0.1388 -0.2396
  393BOLB   C4C 9428   9.721  25.361  22.075 -0.0669 -0.0483  0.1608
  393BOLB   C1D 9429   9.249  25.811  22.346 -0.0075 -0.0971  0.2884
  393BOLB   C2D 9430   9.632  25.650  22.505 -0.1039  0.2429 -0.0920
  393BOLB   C3D 9431   9.890  25.560  22.846 -0.1372 -0.3943  0.2121
  393BOLB   C4D 9432  10.337  25.336  22.866  0.3304 -0.0547 -0.0117
  394BOLB   NC1 9433  16.462  11.176  23.234 -0.1795 -0.3029  0.2188
  394BOLB   PO1 9434  16.742  10.829  23.256 -0.0104 -0.2282  0.2078
  394BOLB   GL1 9435  16.845  10.658  23.645 -0.0486  0.0706 -0.0443
  394BOLB   GL2 9436  17.180  10.722  23.561  0.1927  0.0517 -0.1616
  394BOLB   C1A 9437  16.769  10.498  24.035 -0.1590  0.0747 -0.3565
  394BOLB   C2A 9438  16.545  10.393  24.467 -0.1345 -0.1365 -0.0349
  394BOLB   C3A 9439  16.114  10.293  24.637  0.0262  0.0318  0.0910
  394BOLB   C4A 9440  15.985  10.202  25.001 -0.0185 -0.0338 -0.0513
  394BOLB   C1B 9441  17.297  10.652  24.011  0.2145  0.0535 -0.2616
  394BOLB   C2B 9442  17.183  10.493  24.317 -0.3320 -0.1217 -0.1739
  394BOLB   C3B 9443  17.008  10.175  24.497  0.2684 -0.0655 -0.1308
  394BOLB   C4B 9444  17.009   9.794  24.678  0.0447  0.3952  0.1285
  394BOLB   NC2 9445  16.974   8.989  27.208  0.0546  0.2095  0.1991
  394BOLB   PO2 9446  16.914   8.664  26.874 -0.0737 -0.1149  0.3224
  394BOLB   GL3 9447  17.036   8.803  26.498  0.1278 -0.0225  0.0793
  394BOLB   GL4 9448  17.231   9.067  26.397 -0.0424  0.1399 -0.1123
  394BOLB   C1C 9449  16.751   8.991  26.205  0.0255 -0.0208 -0.2252
  394BOLB   C2C 9450  16.633   9.172  25.796 -0.3256  0.0354  0.0839
  394BOLB   C3C 9451  16.406   9.504  25.616 -0.0991  0.0876 -0.0444
  394BOLB   C4C 9452  16.259   9.823  25.212 -0.0263  0.1903  0.1348
  394BOLB   C1D 9453  17.161   9.261  26.027 -0.3214 -0.1557 -0.0911
  394BOLB   C2D 9454  17.086   9.366  25.651  0.1582  0.2369 -0.1467
  394BOLB   C3D 9455  16.853   9.503  25.375  0.1737  0.2352  0.0758
  394BOLB   C4D 9456  16.682   9.490  25.060 -0.0453  0.3652  0.3439
  395BOLB   NC1 9457  19.234  10.881  22.321  0.0582 -0.1882 -0.4681
  395BOLB   PO1 9458  19.654  10.984  22.167 -0.0769  0.1346 -0.1679
  395BOLB   GL1 9459  19.792  10.843  22.459  0.3535  0.0516 -0.4391
  395BOLB   GL2 9460  20.097  10.707  22.514 -0.1220  0.1630 -0.2696
  395BOLB   C1A 9461  19.827  10.705  22.952 -0.0026  0.2637  0.0517
  395BOLB   C2A 9462  19.619  10.618  23.376  0.1726  0.1584 -0.3233
  395BOLB   C3A 9463  19.567  10.523  23.831 -0.1601 -0.2103  0.0595
  395BOLB   C4A 9464  19.609  10.567  24.156 -0.4574  0.2578  0.1363
  395BOLB   C1B 9465  20.295  10.464  22.844  0.0221 -0.3494  0.0219
  395BOLB   C2B 9466  20.619  10.402  23.040 -0.1465  0.4000 -0.2967
  395BOLB   C3B 9467  20.895  10.161  23.223 -0.0221  0.1222  0.3306
  395BOLB   C4B 9468  21.179  10.129  23.492  0.2744  0.2561  0.0592
  395BOLB   NC2 9469  19.649  10.392  26.480  0.0870 -0.0399  0.0176
  395BOLB   PO2 9470  19.310  10.357  26.648  0.1943 -0.2534  0.1245
  395BOLB   GL3 9471  19.148  10.426  26.211 -0.0154  0.2778  0.0999
  395BOLB   GL4 9472  19.243  10.672  26.170 -0.0844 -0.2245 -0.1245
  395BOLB   C1C 9473  19.247  10.551  25.694 -0.1041 -0.0400 -0.1204
  395BOLB   C2C 9474  19.614  10.445  25.403  0.1398  0.1493  0.1086
  395BOLB   C3C 9475  19.525  10.338  25.002 -0.2908 -0.1103 -0.2075
  395BOLB   C4C 9476  19.620  10.442  24.530 -0.1299  0.1661  0.0976
  395BOLB   C1D 9477  19.000  10.945  26.058 -0.4082 -0.2360  0.1894
  395BOLB   C2D 9478  19.007  11.406  25.863  0.1320 -0.1809 -0.1260
  395BOLB   C3D 9479  19.100  11.835  25.522 -0.2881 -0.1899 -0.0855
  395BOLB   C4D 9480  19.486  12.066  25.359 -0.1132  0.0047  0.3768
  396BOLB   NC1 9481  21.163   9.182  18.396  0.1552  0.2049  0.2897
  396BOLB   PO1 9482  21.003   9.228  18.691  0.4083 -0.0587 -0.0098
  396BOLB   GL1 9483  21.243   8.788  18.770 -0.1041 -0.0019 -0.1124
  396BOLB   GL2 9484  21.308   8.684  19.177 -0.1321 -0.1792 -0.2556
  396BOLB   C1A 9485  21.639   8.719  18.749  0.3015 -0.1821 -0.1150
  396BOLB   C2A 9486  21.987   8.469  18.937 -0.0342 -0.0157  0.1445
  396BOLB   C3A 9487  22.387   8.526  19.220 -0.1799  0.0301 -0.1789
  396BOLB   C4A 9488  22.535   8.196  19.212  0.2819  0.2039  0.0434
  396BOLB   C1B 9489  21.485   8.268  19.309  0.4674 -0.1124  0.0612
  396BOLB   C2B 9490  21.646   7.985  19.619 -0.3947  0.0646 -0.1669
  396BOLB   C3B 9491  21.785   7.653  19.552 -0.0551  0.0408  0.3929
  396BOLB   C4B 9492  22.154   7.396  19.907  0.1174  0.0572  0.2052
  396BOLB   NC2 9493  23.296   5.715  19.876  0.0607 -0.1711  0.4020
  396BOLB   PO2 9494  23.611   5.911  19.719  0.0388 -0.2814 -0.1121
  396BOLB   GL3 9495  23.246   6.225  19.823 -0.4688  0.0313  0.0352
  396BOLB   GL4 9496  23.539   6.448  19.549  0.2032 -0.0893 -0.1268
  396BOLB   C1C 9497  22.961   6.476  19.679 -0.0321 -0.0058 -0.1995
  396BOLB   C2C 9498  22.861   6.962  19.709  0.0606 -0.3316  0.1694
  396BOLB   C3C 9499  22.796   7.447  19.661  0.3392 -0.1754  0.0951
  396BOLB   C4C 9500  22.657   7.866  19.531 -0.0883 -0.1467  0.0567
  396BOLB   C1D 9501  23.574   6.993  19.533  0.0170  0.0492  0.0577
  396BOLB   C2D 9502  23.908   7.295  19.676 -0.2583 -0.3123  0.0390
  396BOLB   C3D 9503  24.095   7.576  20.093  0.2044  0.1513 -0.0612
  396BOLB   C4D 9504  24.325   7.881  20.385  0.1723  0.0393  0.0485
  397BOLB   NC1 9505  21.371  17.300  22.252  0.1397 -0.4643  0.2026
  397BOLB   PO1 9506  21.682  17.581  22.515 -0.0117  0.1025  0.0155
  397BOLB   GL1 9507  21.964  17.727  22.848 -0.3243  0.1431 -0.0315
  397BOLB   GL2 9508  22.142  18.003  22.761  0.0565 -0.0469  0.1130
  397BOLB   C1A 9509  22.229  17.782  23.223  0.3268 -0.0268 -0.1570
  397BOLB   C2A 9510  22.661  17.601  23.346  0.3567  0.3706  0.6441
  397BOLB   C3A 9511  23.021  17.582  23.684  0.2582 -0.2248 -0.0208
  397BOLB   C4A 9512  23.014  17.547  24.104 -0.1676  0.1132 -0.3827
  397BOLB   C1B 9513  22.611  17.932  22.946  0.4271  0.4149  0.0856
  397BOLB   C2B 9514  22.957  17.910  23.086 -0.1780  0.0515 -0.0381
  397BOLB   C3B 9515  23.251  17.959  23.406 -0.2012  0.0259  0.0929
  397BOLB   C4B 9516  23.344  18.232  23.760 -0.0868 -0.0538 -0.1195
  397BOLB   NC2 9517  24.202  16.609  25.895 -0.3900  0.0561  0.0647
  397BOLB   PO2 9518  24.331  16.830  25.511  0.1356 -0.2308  0.1176
  397BOLB   GL3 9519  24.013  17.003  25.382  0.1834  0.2376  0.1143
  397BOLB   GL4 9520  23.724  17.014  25.452  0.0798  0.1961 -0.3609
  397BOLB   C1C 9521  23.755  17.328  25.053  0.1300 -0.1847 -0.0727
  397BOLB   C2C 9522  23.877  17.596  24.976 -0.2079 -0.0236  0.0534
  397BOLB   C3C 9523  23.533  17.866  24.712 -0.3322  0.0583  0.5472
  397BOLB   C4C 9524  23.268  17.675  24.414  0.0290 -0.2173  0.1735
  397BOLB   C1D 9525  23.407  17.191  25.679  0.0405  0.3811 -0.0203
  397BOLB   C2D 9526  22.920  17.287  25.594  0.2707  0.0941  0.0556
  397BOLB   C3D 9527  22.481  17.010  25.336  0.1625 -0.0511 -0.1771
  397BOLB   C4D 9528  22.236  17.001  24.989  0.0625 -0.0056 -0.2270
  398BOLB   NC1 9529  10.180  15.332  23.734  0.1182  0.1028  0.2581
  398BOLB   PO1 9530  10.112  14.971  23.975  0.0949 -0.0746 -0.0018
  398BOLB   GL1 9531  10.267  14.796  24.352 -0.1520  0.2163 -0.3076
  398BOLB   GL2 9532  10.493  14.854  24.575  0.0425  0.2819 -0.2391
  398BOLB   C1A 9533  10.063  14.834  24.760 -0.0748  0.0301  0.1105
  398BOLB   C2A 9534   9.770  14.846  24.943 -0.0466  0.3619  0.0881
  398BOLB   C3A 9535   9.538  14.755  25.316 -0.3330  0.0943  0.0795
  398BOLB   C4A 9536   9.069  14.653  25.455 -0.2516 -0.0438  0.1737
  398BOLB   C1B 9537  10.483  14.939  24.961  0.0453  0.1234 -0.1789
  398BOLB   C2B 9538  10.193  14.855  25.232 -0.1284  0.1252 -0.3350
  398BOLB   C3B 9539  10.008  14.657  25.642 -0.1112 -0.1626  0.0289
  398BOLB   C4B 9540   9.649  14.446  25.779  0.2040 -0.0357 -0.5582
  398BOLB   NC2 9541   7.954  13.467  27.615  0.2403 -0.0578 -0.0496
  398BOLB   PO2 9542   8.203  13.803  27.569  0.3089  0.0828 -0.2455
  398BOLB   GL3 9543   8.429  14.134  27.456  0.0626 -0.1829 -0.1335
  398BOLB   GL4 9544   8.684  13.983  27.433  0.3411  0.0270 -0.0457
  398BOLB   C1C 9545   8.446  14.374  27.124 -0.4668  0.0567  0.0019
  398BOLB   C2C 9546   8.726  14.382  26.757  0.1247 -0.4142 -0.1192
  398BOLB   C3C 9547   8.786  14.545  26.346 -0.1370 -0.2810  0.0082
  398BOLB   C4C 9548   8.847  14.632  25.919 -0.0199  0.0459  0.0209
  398BOLB   C1D 9549   8.695  13.966  27.000  0.1349 -0.1046 -0.3831
  398BOLB   C2D 9550   8.732  13.726  26.656 -0.0266  0.2823  0.0803
  398BOLB   C3D 9551   8.588  13.598  26.229 -0.0476  0.0406 -0.0540
  398BOLB   C4D 9552   8.584  13.419  25.849 -0.0443  0.2844  0.1498
  399BOLB   NC1 9553  19.123  23.882  22.209 -0.0855  0.1744  0.0350
  399BOLB   PO1 9554  19.384  24.100  21.804  0.1251 -0.1050 -0.4108
  399BOLB   GL1 9555  19.559  24.152  22.254  0.1423 -0.0719 -0.1823
  399BOLB   GL2 9556  19.645  24.466  22.245  0.2347  0.0304  0.0711
  399BOLB   C1A 9557  19.829  24.115  22.668  0.1237 -0.1687 -0.0938
  399BOLB   C2A 9558  19.985  24.332  23.049  0.1910  0.0383 -0.1156
  399BOLB   C3A 9559  20.344  24.429  23.326  0.0964 -0.1682  0.0557
  399BOLB   C4A 9560  20.489  24.345  23.613  0.2578 -0.0313 -0.0485
  399BOLB   C1B 9561  19.773  24.625  22.616 -0.1061  0.0395  0.0304
  399BOLB   C2B 9562  19.803  24.856  23.081  0.0748 -0.2985  0.2107
  399BOLB   C3B 9563  19.891  25.441  23.031 -0.1155 -0.1112  0.0536
  399BOLB   C4B 9564  19.957  25.861  22.952  0.0905 -0.2665  0.1566
  399BOLB   NC2 9565  21.098  24.011  26.235 -0.1282 -0.1300 -0.0654
  399BOLB   PO2 9566  21.354  24.097  25.878  0.4150 -0.1566 -0.1161
  399BOLB   GL3 9567  21.368  23.991  25.452  0.0670 -0.1214 -0.0098
  399BOLB   GL4 9568  21.713  24.010  25.384  0.0225 -0.0774  0.2054
  399BOLB   C1C 9569  21.209  23.994  25.071 -0.0075  0.1578  0.1405
  399BOLB   C2C 9570  20.889  24.116  24.743  0.0564  0.4798  0.0104
  399BOLB   C3C 9571  20.508  24.028  24.478 -0.2282  0.2706  0.0382
  399BOLB   C4C 9572  20.467  24.188  24.052  0.1145 -0.0557 -0.1050
  399BOLB   C1D 9573  21.662  24.086  24.898  0.2196 -0.3609  0.4436
  399BOLB   C2D 9574  21.734  24.174  24.578 -0.0334  0.2467  0.0488
  399BOLB   C3D 9575  21.431  24.167  24.219 -0.1404  0.1515 -0.1970
  399BOLB   C4D 9576  21.072  23.959  24.194 -0.2213 -0.1570  0.2899
  400BOLB   NC1 9577  12.669  14.390  23.964  0.2574  0.1756 -0.2669
  400BOLB   PO1 9578  12.169  14.283  24.217  0.2194  0.0886 -0.1662
  400BOLB   GL1 9579  12.174  14.061  24.655 -0.0238  0.5329 -0.0181
  400BOLB   GL2 9580  12.149  13.785  24.846  0.1262 -0.1346  0.0159
  400BOLB   C1A 9581  12.271  14.256  25.100 -0.1452 -0.2805 -0.0630
  400BOLB   C2A 9582  12.133  14.456  25.526  0.0757 -0.1465  0.2771
  400BOLB   C3A 9583  12.032  14.302  25.967  0.2598 -0.3026 -0.3180
  400BOLB   C4A 9584  12.269  14.136  26.361 -0.2111  0.2593 -0.0371
  400BOLB   C1B 9585  12.310  13.711  25.235  0.0025  0.0182  0.0857
  400BOLB   C2B 9586  12.156  13.955  25.502  0.1062  0.1479 -0.0848
  400BOLB   C3B 9587  12.435  14.101  25.822 -0.0648 -0.0644 -0.0327
  400BOLB   C4B 9588  12.774  14.063  26.220 -0.1104 -0.3057  0.2271
  400BOLB   NC2 9589  11.708  14.637  28.572  0.0794  0.0316 -0.1267
  400BOLB   PO2 9590  12.109  14.649  28.402  0.1544 -0.1116  0.1859
  400BOLB   GL3 9591  11.974  14.794  27.977  0.1914  0.0025 -0.1829
  400BOLB   GL4 9592  11.707  14.789  27.915 -0.2557 -0.0110  0.3059
  400BOLB   C1C 9593  12.127  14.697  27.559  0.2347 -0.1013 -0.0586
  400BOLB   C2C 9594  12.362  14.820  27.358  0.0167 -0.1245  0.2131
  400BOLB   C3C 9595  12.448  14.743  26.955 -0.1866  0.2783  0.1490
  400BOLB   C4C 9596  12.313  14.361  26.703 -0.0536 -0.0331 -0.2193
  400BOLB   C1D 9597  11.707  15.051  27.589  0.2100  0.2433  0.2119
  400BOLB   C2D 9598  11.671  15.335  27.263  0.1234 -0.0498 -0.0713
  400BOLB   C3D 9599  11.926  15.631  26.892 -0.0406 -0.1051 -0.2862
  400BOLB   C4D 9600  12.065  15.799  26.442  0.3096 -0.2855  0.1204
  401BOLB   NC1 9601  11.386  12.925  24.250 -0.1427  0.2051 -0.0414
  401BOLB   PO1 9602  10.987  12.949  24.224  0.0883  0.0967  0.0004
  401BOLB   GL1 9603  10.904  12.931  24.547 -0.3561 -0.3075 -0.2780
  401BOLB   GL2 9604  10.633  13.010  24.593  0.2320 -0.0853 -0.2796
  401BOLB   C1A 9605  11.061  12.743  25.000  0.4654  0.1372  0.0759
  401BOLB   C2A 9606  11.020  12.787  25.307 -0.3601 -0.1404  0.0455
  401BOLB   C3A 9607  10.832  12.983  25.558 -0.1602  0.0786  0.1865
  401BOLB   C4A 9608  10.797  13.021  25.808  0.0695 -0.1207  0.0190
  401BOLB   C1B 9609  10.559  12.873  25.020  0.3869 -0.1895 -0.2929
  401BOLB   C2B 9610  10.616  12.477  25.218 -0.0409 -0.2910  0.0709
  401BOLB   C3B 9611  10.514  12.111  25.461 -0.0464  0.0751 -0.0317
  401BOLB   C4B 9612  10.118  11.991  25.616 -0.0105 -0.2168  0.1116
  401BOLB   NC2 9613  11.062  13.527  28.256 -0.0102 -0.0219 -0.0698
  401BOLB   PO2 9614  10.817  13.157  28.133  0.0039  0.2306 -0.4095
  401BOLB   GL3 9615  10.896  13.177  27.749 -0.3897 -0.2245 -0.0195
  401BOLB   GL4 9616  10.871  12.988  27.603  0.2798  0.1022  0.0447
  401BOLB   C1C 9617  11.220  13.272  27.356 -0.5339  0.1950  0.0764
  401BOLB   C2C 9618  11.227  13.340  26.968 -0.1697 -0.0437  0.2355
  401BOLB   C3C 9619  11.164  13.359  26.554 -0.3796 -0.2491  0.0322
  401BOLB   C4C 9620  11.014  13.256  26.091 -0.2106 -0.2648 -0.0046
  401BOLB   C1D 9621  10.858  13.014  27.091 -0.2631 -0.2754 -0.0957
  401BOLB   C2D 9622  10.707  13.341  26.809 -0.0243 -0.2288  0.0212
  401BOLB   C3D 9623  10.590  13.411  26.371 -0.2834 -0.0432 -0.0164
  401BOLB   C4D 9624  10.601  13.558  25.954 -0.0829  0.0333 -0.5690
  402BOLB   NC1 9625  21.061  18.209  22.773  0.0419  0.1423 -0.1328
  402BOLB   PO1 9626  21.240  18.577  22.628  0.2018 -0.1162  0.3063
  402BOLB   GL1 9627  21.248  18.525  23.102 -0.0571  0.1151  0.0531
  402BOLB   GL2 9628  21.636  18.564  23.217  0.0589 -0.3965 -0.2897
  402BOLB   C1A 9629  21.338  18.487  23.589  0.0333 -0.2395  0.1315
  402BOLB   C2A 9630  21.469  18.568  24.036  0.3131 -0.0225 -0.1178
  402BOLB   C3A 9631  21.691  18.744  24.368  0.0676 -0.0981  0.2354
  402BOLB   C4A 9632  22.032  18.674  24.752  0.1729  0.0238  0.1672
  402BOLB   C1B 9633  22.019  18.409  23.568  0.2400 -0.2934  0.0899
  402BOLB   C2B 9634  22.427  18.417  23.816  0.0376  0.3862 -0.2546
  402BOLB   C3B 9635  22.625  18.334  24.109  0.2320  0.0969 -0.0919
  402BOLB   C4B 9636  22.690  18.234  24.549 -0.0609  0.0084  0.0612
  402BOLB   NC2 9637  23.924  17.788  26.380 -0.1223  0.1137 -0.0151
  402BOLB   PO2 9638  23.702  17.656  26.053  0.3660 -0.0901 -0.0961
  402BOLB   GL3 9639  23.392  17.912  25.915  0.0655 -0.4156 -0.0866
  402BOLB   GL4 9640  23.292  17.738  25.715  0.3412  0.1179 -0.4984
  402BOLB   C1C 9641  23.237  18.221  25.641  0.1607 -0.1731  0.1136
  402BOLB   C2C 9642  23.058  18.336  25.310 -0.1852  0.2302  0.2365
  402BOLB   C3C 9643  22.679  18.404  25.086 -0.1127  0.0513  0.1680
  402BOLB   C4C 9644  22.397  18.686  25.014 -0.0631  0.1307  0.4138
  402BOLB   C1D 9645  22.871  17.812  25.556 -0.3148  0.1358  0.0050
  402BOLB   C2D 9646  22.460  17.563  25.477 -0.0134 -0.1422  0.0833
  402BOLB   C3D 9647  22.105  17.390  25.420  0.0734  0.1397 -0.0348
  402BOLB   C4D 9648  21.649  17.511  25.469  0.1667  0.2625  0.0127
  403BOLB   NC1 9649  22.678  18.787  21.711 -0.1955  0.1053 -0.3962
  403BOLB   PO1 9650  22.258  18.456  21.933  0.0484 -0.1642 -0.3028
  403BOLB   GL1 9651  22.652  18.555  22.167  0.3712 -0.0816 -0.3127
  403BOLB   GL2 9652  22.561  18.719  22.492 -0.0941  0.0565 -0.1658
  403BOLB   C1A 9653  23.040  18.476  22.219 -0.0225  0.2437 -0.0349
  403BOLB   C2A 9654  23.482  18.456  22.540  0.1137  0.2112 -0.4279
  403BOLB   C3A 9655  23.751  18.512  22.774 -0.1404  0.0554  0.0054
  403BOLB   C4A 9656  24.081  18.507  23.143 -0.0325 -0.0527 -0.1590
  403BOLB   C1B 9657  23.010  18.708  22.655 -0.3791  0.0730 -0.0531
  403BOLB   C2B 9658  23.331  18.894  22.952  0.1570 -0.3149  0.3338
  403BOLB   C3B 9659  23.723  18.918  23.178  0.0274  0.0851  0.1280
  403BOLB   C4B 9660  23.947  18.964  23.544  0.1694 -0.1286  0.1903
  403BOLB   NC2 9661  26.226  18.547  24.070 -0.2633 -0.4041  0.1289
  403BOLB   PO2 9662  26.243  18.419  24.542  0.0389  0.1756  0.2377
  403BOLB   GL3 9663  25.788  18.422  24.172 -0.0481 -0.0512 -0.2870
  403BOLB   GL4 9664  25.562  18.568  24.221 -0.2423  0.1180  0.0575
  403BOLB   C1C 9665  25.454  18.228  23.885  0.0605  0.1616  0.1819
  403BOLB   C2C 9666  25.113  18.030  23.665 -0.4184  0.0683 -0.1151
  403BOLB   C3C 9667  24.987  18.117  23.299  0.1451 -0.2758 -0.1218
  403BOLB   C4C 9668  24.574  18.335  23.189 -0.0478  0.2194 -0.1680
  403BOLB   C1D 9669  25.150  18.528  24.235  0.2175 -0.1938  0.1241
  403BOLB   C2D 9670  24.711  18.579  24.322  0.0374 -0.2263 -0.2371
  403BOLB   C3D 9671  24.307  18.617  24.482 -0.0737  0.2667 -0.0002
  403BOLB   C4D 9672  24.019  18.472  24.316  0.0997 -0.0902  0.0076
  404BOLB   NC1 9673  15.271  11.902  23.822  0.0682 -0.1561 -0.1142
  404BOLB   PO1 9674  15.763  11.953  23.832 -0.0426  0.0605  0.0308
  404BOLB   GL1 9675  15.722  11.833  24.245 -0.0691 -0.0591  0.3720
  404BOLB   GL2 9676  15.524  11.639  24.295  0.0806 -0.4486  0.3321
  404BOLB   C1A 9677  15.728  12.144  24.593 -0.3201  0.3097  0.0380
  404BOLB   C2A 9678  15.970  12.080  25.047  0.1823 -0.1195  0.1168
  404BOLB   C3A 9679  16.096  12.080  25.408  0.0758  0.1054 -0.0101
  404BOLB   C4A 9680  16.208  12.101  25.877 -0.3105 -0.0755 -0.3068
  404BOLB   C1B 9681  15.614  11.616  24.679 -0.1054 -0.2255 -0.0949
  404BOLB   C2B 9682  15.536  11.812  25.126  0.1218  0.1068 -0.1135
  404BOLB   C3B 9683  15.633  12.050  25.505 -0.2698 -0.4462 -0.3644
  404BOLB   C4B 9684  15.829  11.788  25.840 -0.0045 -0.0516  0.1858
  404BOLB   NC2 9685  16.694  11.976  27.953  0.1221  0.1213  0.3049
  404BOLB   PO2 9686  17.192  12.095  27.822 -0.1461 -0.0518 -0.2987
  404BOLB   GL3 9687  16.987  12.367  27.547  0.1080 -0.1268 -0.0494
  404BOLB   GL4 9688  16.800  12.573  27.785 -0.2311 -0.0976  0.2232
  404BOLB   C1C 9689  16.562  12.336  27.389 -0.2874 -0.2671  0.0702
  404BOLB   C2C 9690  16.519  12.364  26.815  0.0191 -0.0479  0.1113
  404BOLB   C3C 9691  16.572  12.405  26.379  0.0328 -0.0820  0.2442
  404BOLB   C4C 9692  16.334  12.415  26.012 -0.3214  0.1684  0.1083
  404BOLB   C1D 9693  16.674  12.784  27.487  0.1648 -0.1031  0.3535
  404BOLB   C2D 9694  16.722  12.848  27.033 -0.1272 -0.2334 -0.0335
  404BOLB   C3D 9695  16.544  12.972  26.591 -0.1546  0.1409  0.0326
  404BOLB   C4D 9696  16.173  12.783  26.429  0.0491 -0.1755  0.2603
  405BOLB   NC1 9697  19.047  15.433  23.694  0.1439 -0.0923 -0.0902
  405BOLB   PO1 9698  19.439  15.426  23.711 -0.2982  0.1689 -0.1102
  405BOLB   GL1 9699  19.358  15.460  24.191 -0.1138 -0.0952 -0.2030
  405BOLB   GL2 9700  19.033  15.257  24.205 -0.0349 -0.0004  0.3842
  405BOLB   C1A 9701  19.283  15.458  24.542  0.2362 -0.0429 -0.2658
  405BOLB   C2A 9702  19.598  15.384  24.869 -0.1560 -0.3170  0.0295
  405BOLB   C3A 9703  19.850  15.322  25.278  0.0060  0.0674  0.1224
  405BOLB   C4A 9704  20.235  15.271  25.462  0.1405  0.1837  0.0584
  405BOLB   C1B 9705  19.041  14.979  24.629  0.2147  0.2538 -0.2822
  405BOLB   C2B 9706  19.280  14.904  24.956 -0.0437 -0.1942 -0.0135
  405BOLB   C3B 9707  19.565  14.768  25.269 -0.0757  0.0314  0.0016
  405BOLB   C4B 9708  19.709  14.437  25.552  0.0860  0.0788 -0.0173
  405BOLB   NC2 9709  20.915  14.661  27.188  0.2896  0.1314 -0.1943
  405BOLB   PO2 9710  21.355  14.701  27.196  0.0961  0.0188  0.0140
  405BOLB   GL3 9711  21.391  14.718  26.730  0.1923  0.0603 -0.0513
  405BOLB   GL4 9712  21.080  14.533  26.729 -0.0251 -0.0957 -0.0258
  405BOLB   C1C 9713  21.377  14.876  26.371  0.2680  0.1907 -0.1954
  405BOLB   C2C 9714  21.209  15.098  26.018 -0.0952 -0.1191  0.1254
  405BOLB   C3C 9715  20.918  15.290  25.821 -0.0796 -0.2238 -0.2494
  405BOLB   C4C 9716  20.499  15.173  25.697  0.2499  0.3301  0.3435
  405BOLB   C1D 9717  20.895  14.889  26.563  0.1614  0.1056  0.0550
  405BOLB   C2D 9718  20.771  15.051  26.210 -0.3840  0.2524 -0.0988
  405BOLB   C3D 9719  20.547  15.401  26.137 -0.0852 -0.1056 -0.1116
  405BOLB   C4D 9720  20.643  15.774  25.937  0.0928 -0.0928 -0.1840
  406BOLB   NC1 9721  13.375  14.046  24.382 -0.0512 -0.2772  0.1153
  406BOLB   PO1 9722  13.688  14.270  24.649  0.2424 -0.1309 -0.2705
  406BOLB   GL1 9723  13.751  14.501  25.012  0.0189  0.0754 -0.0271
  406BOLB   GL2 9724  13.495  14.508  25.205  0.1539  0.2495  0.0600
  406BOLB   C1A 9725  13.927  14.778  25.266  0.0928  0.1665 -0.1890
  406BOLB   C2A 9726  14.135  14.958  25.672 -0.0136  0.1622  0.0456
  406BOLB   C3A 9727  14.400  15.169  26.042 -0.0787 -0.1847 -0.0565
  406BOLB   C4A 9728  14.417  15.063  26.406  0.3577  0.1509  0.2127
  406BOLB   C1B 9729  13.569  14.644  25.574 -0.2932  0.0645 -0.1089
  406BOLB   C2B 9730  13.620  14.836  25.929 -0.1188 -0.1423  0.2830
  406BOLB   C3B 9731  13.462  15.165  26.249 -0.2559 -0.0093  0.2688
  406BOLB   C4B 9732  13.067  15.345  26.168  0.0986  0.0332 -0.0671
  406BOLB   NC2 9733  13.210  14.748  29.028 -0.1686  0.0568 -0.2403
  406BOLB   PO2 9734  13.639  14.729  28.834 -0.3116 -0.1296 -0.2990
  406BOLB   GL3 9735  13.937  14.653  28.382 -0.1933  0.2702  0.0916
  406BOLB   GL4 9736  13.674  14.844  28.294 -0.2986 -0.4414  0.1531
  406BOLB   C1C 9737  14.245  14.578  28.043  0.1706 -0.2938  0.1129
  406BOLB   C2C 9738  14.597  14.683  27.666  0.0416  0.0352 -0.0879
  406BOLB   C3C 9739  14.491  14.766  27.204  0.5901 -0.2912 -0.0525
  406BOLB   C4C 9740  14.372  14.922  26.800  0.1574  0.0964 -0.2414
  406BOLB   C1D 9741  13.592  14.993  27.857 -0.4261  0.1726 -0.0330
  406BOLB   C2D 9742  13.388  15.128  27.450 -0.0825  0.1846 -0.0472
  406BOLB   C3D 9743  13.105  15.093  27.184  0.1225 -0.0882  0.1714
  406BOLB   C4D 9744  13.078  15.032  26.739 -0.0852  0.2462  0.1514
  407BOLB   NC1 9745  21.514  21.074  21.299 -0.1030  0.0628  0.2194
  407BOLB   PO1 9746  21.759  21.374  21.385 -0.0327  0.1418  0.3886
  407BOLB   GL1 9747  22.023  21.644  21.615  0.0875  0.0596  0.2478
  407BOLB   GL2 9748  22.213  21.689  21.447  0.3476 -0.0346  0.0263
  407BOLB   C1A 9749  22.087  21.949  22.069  0.0724 -0.0260  0.2227
  407BOLB   C2A 9750  22.349  22.191  22.434  0.3510 -0.0600  0.1328
  407BOLB   C3A 9751  22.133  22.486  22.677  0.2195 -0.0423 -0.2312
  407BOLB   C4A 9752  22.271  22.714  22.997 -0.0105  0.1962 -0.0862
  407BOLB   C1B 9753  22.658  21.701  21.650 -0.4135  0.0993  0.1115
  407BOLB   C2B 9754  23.032  21.724  21.944  0.1569  0.1194 -0.2021
  407BOLB   C3B 9755  23.304  21.946  22.269  0.2182  0.0826 -0.2388
  407BOLB   C4B 9756  23.527  22.294  22.412 -0.1287  0.0738 -0.1733
  407BOLB   NC2 9757  23.923  22.985  24.717 -0.2585  0.0546  0.2658
  407BOLB   PO2 9758  23.910  22.759  24.293 -0.1151 -0.2575  0.1790
  407BOLB   GL3 9759  23.692  22.372  24.078 -0.2925  0.1888  0.0281
  407BOLB   GL4 9760  23.832  22.116  24.214 -0.0137  0.1562 -0.1935
  407BOLB   C1C 9761  23.473  22.145  23.705 -0.0829 -0.2237 -0.1441
  407BOLB   C2C 9762  23.270  22.331  23.370  0.3298  0.0955  0.0047
  407BOLB   C3C 9763  22.872  22.488  23.248 -0.2363 -0.2352  0.0003
  407BOLB   C4C 9764  22.442  22.707  23.394 -0.1780  0.1676  0.1779
  407BOLB   C1D 9765  23.773  21.784  23.936  0.3217  0.0641 -0.2011
  407BOLB   C2D 9766  23.711  21.461  23.652  0.2504 -0.2439  0.2492
  407BOLB   C3D 9767  23.617  21.243  23.322 -0.1009 -0.4157 -0.1073
  407BOLB   C4D 9768  23.271  21.361  23.058  0.0113 -0.0879 -0.0160
  408BOLB   NC1 9769  10.947  23.328  22.354  0.2523  0.0092  0.2146
  408BOLB   PO1 9770  11.138  23.566  22.615  0.1127  0.1436  0.1305
  408BOLB   GL1 9771  10.978  23.914  22.307 -0.0155 -0.0990  0.1458
  408BOLB   GL2 9772  11.096  24.214  22.395 -0.0699 -0.2467 -0.0624
  408BOLB   C1A 9773  10.791  23.978  22.052 -0.0360  0.1443 -0.0149
  408BOLB   C2A 9774  10.495  24.193  21.816 -0.0530 -0.0542 -0.1611
  408BOLB   C3A 9775  10.440  24.331  21.372  0.3578 -0.2210 -0.0380
  408BOLB   C4A 9776  10.229  24.659  21.160 -0.0917 -0.3298  0.0379
  408BOLB   C1B 9777  11.222  24.427  22.101  0.0150  0.0735  0.0336
  408BOLB   C2B 9778  10.969  24.441  21.807 -0.1109 -0.1895 -0.4037
  408BOLB   C3B 9779  10.964  24.218  21.448  0.0959 -0.1702  0.2285
  408BOLB   C4B 9780  10.688  23.997  21.116 -0.0135 -0.1552 -0.1911
  408BOLB   NC2 9781   9.120  27.139  20.517  0.1584  0.0033 -0.0649
  408BOLB   PO2 9782   8.871  26.822  20.566 -0.1880 -0.0851 -0.0356
  408BOLB   GL3 9783   9.318  26.427  20.564 -0.1544  0.1494 -0.0005
  408BOLB   GL4 9784   9.250  26.146  20.798  0.1489  0.1699 -0.2436
  408BOLB   C1C 9785   9.697  26.146  20.508  0.1347 -0.0194 -0.0932
  408BOLB   C2C 9786   9.957  25.887  20.740 -0.1573  0.1988 -0.1504
  408BOLB   C3C 9787   9.961  25.524  20.965 -0.2884 -0.1312 -0.2559
  408BOLB   C4C 9788  10.034  25.084  21.040 -0.0854 -0.1726  0.3066
  408BOLB   C1D 9789   9.561  25.842  21.077  0.1300 -0.1179  0.3960
  408BOLB   C2D 9790   9.614  25.439  21.321  0.0175  0.0955 -0.2589
  408BOLB   C3D 9791   9.544  25.029  21.207  0.0966 -0.0200 -0.0720
  408BOLB   C4D 9792   9.826  24.752  21.470 -0.1857 -0.1036  0.1558
  409BOLB   NC1 9793  12.805  20.255  24.469  0.0870 -0.0323  0.1551
  409BOLB   PO1 9794  12.815  20.706  24.349  0.0773  0.1053 -0.0548
  409BOLB   GL1 9795  13.001  20.754  24.758 -0.1710  0.1800 -0.1027
  409BOLB   GL2 9796  13.000  20.496  24.861 -0.1847  0.0120  0.0050
  409BOLB   C1A 9797  13.124  20.914  25.168  0.0034  0.0374 -0.4701
  409BOLB   C2A 9798  13.263  21.000  25.472 -0.0823  0.0842 -0.0836
  409BOLB   C3A 9799  13.358  20.984  25.939  0.0288 -0.1191 -0.0745
  409BOLB   C4A 9800  13.374  20.679  26.313 -0.0444 -0.2374  0.1249
  409BOLB   C1B 9801  12.846  20.496  25.301  0.0960 -0.1241  0.3816
  409BOLB   C2B 9802  12.912  20.540  25.665  0.3680 -0.1091 -0.0169
  409BOLB   C3B 9803  12.887  20.615  26.149  0.2028  0.2141 -0.2662
  409BOLB   C4B 9804  12.961  20.475  26.471  0.3564  0.2494 -0.0733
  409BOLB   NC2 9805  13.107  21.238  28.878 -0.0950  0.2345  0.5259
  409BOLB   PO2 9806  12.982  21.450  28.535  0.2790  0.1263 -0.1735
  409BOLB   GL3 9807  12.976  21.466  28.017  0.0926  0.0946  0.1788
  409BOLB   GL4 9808  12.970  21.520  27.673  0.2019 -0.1925 -0.1260
  409BOLB   C1C 9809  13.365  21.183  27.740  0.2672 -0.0122  0.1883
  409BOLB   C2C 9810  13.654  20.848  27.491 -0.2242 -0.5361  0.0493
  409BOLB   C3C 9811  13.777  20.842  27.056  0.1690  0.0459  0.2709
  409BOLB   C4C 9812  13.587  20.590  26.745 -0.0172 -0.2209 -0.0898
  409BOLB   C1D 9813  12.962  21.502  27.264 -0.2125  0.3936  0.0750
  409BOLB   C2D 9814  12.829  21.402  26.700  0.0251  0.0664 -0.0140
  409BOLB   C3D 9815  12.905  21.502  26.168 -0.1819 -0.2063  0.0007
  409BOLB   C4D 9816  12.837  21.945  25.858  0.3405 -0.0050 -0.0937
  410BOLB   NC1 9817  15.607  13.745  24.177  0.0096  0.1216  0.0312
  410BOLB   PO1 9818  15.955  13.438  24.184  0.2004  0.0027  0.0558
  410BOLB   GL1 9819  15.998  13.485  24.624 -0.2272 -0.0898  0.1356
  410BOLB   GL2 9820  16.202  13.230  24.614  0.4768  0.1838  0.1829
  410BOLB   C1A 9821  15.926  13.425  24.973 -0.2913  0.1216 -0.2172
  410BOLB   C2A 9822  15.939  13.344  25.417 -0.2250 -0.0503 -0.0706
  410BOLB   C3A 9823  15.842  13.193  25.803 -0.0246 -0.3742  0.1474
  410BOLB   C4A 9824  15.565  13.130  26.298  0.0900 -0.1708  0.0077
  410BOLB   C1B 9825  16.042  12.936  24.833  0.0603 -0.0126 -0.0729
  410BOLB   C2B 9826  16.098  12.899  25.351  0.0406  0.0185 -0.1623
  410BOLB   C3B 9827  16.246  12.882  25.743 -0.3382  0.1209 -0.1420
  410BOLB   C4B 9828  16.543  12.850  26.070 -0.0059 -0.0993 -0.0810
  410BOLB   NC2 9829  16.165  13.286  28.133 -0.0221  0.0004  0.2324
  410BOLB   PO2 9830  15.895  13.497  28.361  0.2561  0.1325  0.1068
  410BOLB   GL3 9831  15.976  13.719  27.985  0.0085 -0.2728 -0.2380
  410BOLB   GL4 9832  15.758  13.894  27.798 -0.0590  0.0867 -0.2455
  410BOLB   C1C 9833  16.006  13.584  27.541 -0.0760  0.0598  0.1721
  410BOLB   C2C 9834  15.929  13.149  27.389 -0.1232 -0.2351  0.1843
  410BOLB   C3C 9835  15.745  12.891  27.039 -0.0943 -0.2419 -0.0860
  410BOLB   C4C 9836  15.661  12.789  26.592 -0.1168  0.1755  0.4690
  410BOLB   C1D 9837  15.746  13.983  27.280 -0.1036 -0.2509  0.1608
  410BOLB   C2D 9838  15.569  13.740  27.010 -0.3120 -0.0336  0.1184
  410BOLB   C3D 9839  15.228  13.726  26.749  0.1233 -0.4045  0.2337
  410BOLB   C4D 9840  14.905  13.691  26.687  0.1273  0.5670 -0.2153
  411BOLB   NC1 9841  20.541  24.574  20.455  0.1506 -0.2298 -0.1591
  411BOLB   PO1 9842  20.403  24.585  20.900 -0.1244 -0.1048  0.0109
  411BOLB   GL1 9843  20.741  24.537  21.268  0.0068  0.0164  0.0324
  411BOLB   GL2 9844  20.828  24.302  21.484  0.1471 -0.4878 -0.0487
  411BOLB   C1A 9845  21.138  24.596  21.303 -0.0091  0.1442  0.2371
  411BOLB   C2A 9846  21.640  24.578  21.474  0.2343  0.0991 -0.1516
  411BOLB   C3A 9847  22.093  24.558  21.573  0.0250 -0.5791  0.1091
  411BOLB   C4A 9848  22.501  24.516  21.551  0.1844 -0.2690  0.4021
  411BOLB   C1B 9849  21.314  24.254  21.679 -0.0977 -0.0424  0.1629
  411BOLB   C2B 9850  21.697  24.200  21.840  0.3252 -0.0404  0.1232
  411BOLB   C3B 9851  22.017  24.312  22.141 -0.3203 -0.1531  0.2729
  411BOLB   C4B 9852  22.395  24.248  22.297  0.1694  0.1623  0.2021
  411BOLB   NC2 9853  24.331  24.830  21.374 -0.0479 -0.0263  0.0702
  411BOLB   PO2 9854  24.672  24.697  21.598  0.0822  0.0023  0.0493
  411BOLB   GL3 9855  24.342  24.331  21.562 -0.0063  0.1800  0.0590
  411BOLB   GL4 9856  24.141  24.348  21.331  0.0115 -0.1705  0.0164
  411BOLB   C1C 9857  24.013  24.210  21.788  0.1868  0.0102  0.2076
  411BOLB   C2C 9858  23.705  24.013  21.893  0.1673 -0.2996  0.0517
  411BOLB   C3C 9859  23.254  24.109  21.980  0.2333  0.1297 -0.1613
  411BOLB   C4C 9860  22.955  24.411  21.780 -0.3383  0.1613  0.0394
  411BOLB   C1D 9861  23.708  24.518  21.520 -0.0431  0.0061  0.1778
  411BOLB   C2D 9862  23.519  24.518  21.869 -0.0375  0.2586  0.1119
  411BOLB   C3D 9863  23.246  24.728  22.183  0.0273  0.1666  0.0555
  411BOLB   C4D 9864  22.821  24.513  22.289 -0.0567 -0.4644 -0.0459
  412BOLB   NC1 9865  15.249  23.822  23.067  0.1200 -0.1197  0.1316
  412BOLB   PO1 9866  15.448  23.478  23.220  0.2098  0.2528  0.2037
  412BOLB   GL1 9867  15.528  23.561  23.649 -0.1194  0.0417 -0.1075
  412BOLB   GL2 9868  15.456  23.863  23.849  0.1618  0.2648  0.0451
  412BOLB   C1A 9869  15.518  23.457  24.050  0.0885 -0.1566  0.1160
  412BOLB   C2A 9870  15.678  23.579  24.468  0.0018 -0.1718 -0.0885
  412BOLB   C3A 9871  15.847  23.822  24.852 -0.0407 -0.0394 -0.1681
  412BOLB   C4A 9872  15.846  23.570  25.208  0.2868 -0.1379 -0.1483
  412BOLB   C1B 9873  15.228  23.866  24.140  0.1192 -0.2937  0.3017
  412BOLB   C2B 9874  14.916  23.647  24.409  0.1907 -0.2192  0.0718
  412BOLB   C3B 9875  14.712  23.508  24.733  0.1573 -0.0464 -0.2197
  412BOLB   C4B 9876  14.600  23.703  25.100  0.0593 -0.3015  0.3628
  412BOLB   NC2 9877  16.512  23.260  27.950  0.0763  0.1893 -0.1999
  412BOLB   PO2 9878  16.732  23.551  27.743  0.0902 -0.2887 -0.1630
  412BOLB   GL3 9879  16.577  23.552  27.323 -0.0249 -0.2398  0.2198
  412BOLB   GL4 9880  16.288  23.730  27.248  0.3573  0.2490 -0.3231
  412BOLB   C1C 9881  16.561  23.700  26.841 -0.3556 -0.4525 -0.0147
  412BOLB   C2C 9882  16.257  23.634  26.628  0.5628  0.0062  0.1744
  412BOLB   C3C 9883  15.978  23.617  26.255  0.0188 -0.5863  0.0775
  412BOLB   C4C 9884  15.985  23.598  25.691  0.1131 -0.0118  0.1021
  412BOLB   C1D 9885  16.041  23.763  27.002 -0.0134 -0.3382 -0.2720
  412BOLB   C2D 9886  15.913  23.964  26.601  0.2529 -0.1232  0.3285
  412BOLB   C3D 9887  15.537  24.051  26.296  0.3927  0.0189  0.0145
  412BOLB   C4D 9888  15.600  24.412  26.005 -0.3561 -0.0692  0.5992
  413BOLB   NC1 9889  19.755  12.911  22.730 -0.1376 -0.5209  0.0571
  413BOLB   PO1 9890  19.870  12.656  22.672  0.0400 -0.0215 -0.1197
  413BOLB   GL1 9891  20.126  12.545  22.997  0.0967  0.2976  0.4148
  413BOLB   GL2 9892  20.488  12.448  22.942  0.0233  0.5209  0.0233
  413BOLB   C1A 9893  20.214  12.409  23.380 -0.0991 -0.4242 -0.1152
  413BOLB   C2A 9894  20.258  12.421  23.844 -0.1666 -0.0162  0.0160
  413BOLB   C3A 9895  19.944  12.229  24.207  0.1299  0.1838 -0.0817
  413BOLB   C4A 9896  19.792  11.963  24.521 -0.0592 -0.1688  0.1369
  413BOLB   C1B 9897  20.735  12.333  23.253 -0.1852 -0.1014  0.0843
  413BOLB   C2B 9898  21.073  12.147  23.685 -0.1217  0.0156  0.1888
  413BOLB   C3B 9899  21.323  12.188  24.073  0.2394  0.1536  0.1607
  413BOLB   C4B 9900  21.682  12.145  24.219  0.2588 -0.2916 -0.0665
  413BOLB   NC2 9901  20.888  11.686  26.473 -0.2796  0.1430 -0.0579
  413BOLB   PO2 9902  20.669  11.545  26.794 -0.0854 -0.0296 -0.1426
  413BOLB   GL3 9903  20.406  11.508  26.381  0.1329  0.2941  0.1389
  413BOLB   GL4 9904  20.400  11.748  26.198 -0.0318  0.4675 -0.1840
  413BOLB   C1C 9905  20.215  11.301  25.937 -0.0078  0.0365  0.1639
  413BOLB   C2C 9906  19.859  11.423  25.650 -0.0056  0.1097 -0.1003
  413BOLB   C3C 9907  19.871  11.644  25.315  0.0949  0.0103  0.1052
  413BOLB   C4C 9908  19.766  11.798  24.923 -0.0158 -0.0514  0.1228
  413BOLB   C1D 9909  20.090  11.884  25.803 -0.1059 -0.1189  0.0612
  413BOLB   C2D 9910  19.978  12.126  25.555  0.1986 -0.0127  0.0421
  413BOLB   C3D 9911  19.879  12.476  25.375 -0.1021 -0.0924  0.0196
  413BOLB   C4D 9912  19.814  12.895  25.008 -0.1040 -0.0681  0.0204
  414BOLB   NC1 9913  19.630  18.553  23.630 -0.0340  0.1728 -0.1237
  414BOLB   PO1 9914  19.363  18.859  23.766  0.4344  0.0741 -0.2046
  414BOLB   GL1 9915  19.533  18.891  24.224  0.0684  0.1832  0.2388
  414BOLB   GL2 9916  19.774  18.771  24.265 -0.1062 -0.5489 -0.2495
  414BOLB   C1A 9917  19.401  18.961  24.585  0.3413  0.0927  0.1341
  414BOLB   C2A 9918  19.494  19.036  25.021  0.4007  0.3270  0.1563
  414BOLB   C3A 9919  19.593  19.025  25.460 -0.3403  0.0984  0.4420
  414BOLB   C4A 9920  19.841  19.157  25.856  0.1263  0.0836  0.1174
  414BOLB   C1B 9921  19.834  18.707  24.714  0.0626 -0.0519  0.0700
  414BOLB   C2B 9922  20.128  18.710  25.013 -0.1408 -0.1316  0.1822
  414BOLB   C3B 9923  20.357  19.031  25.254  0.2953 -0.0286  0.1502
  414BOLB   C4B 9924  20.550  19.083  25.625 -0.0316 -0.1653  0.2625
  414BOLB   NC2 9925  21.112  20.224  28.391 -0.0936 -0.0050  0.0385
  414BOLB   PO2 9926  20.608  20.303  28.218 -0.0835  0.2349  0.3211
  414BOLB   GL3 9927  20.323  20.203  27.897 -0.4389 -0.0662 -0.1832
  414BOLB   GL4 9928  19.911  20.143  27.719  0.1480  0.0256  0.0867
  414BOLB   C1C 9929  20.298  20.181  27.422  0.1228 -0.1050  0.0479
  414BOLB   C2C 9930  20.180  19.929  27.056  0.1367  0.1393  0.0116
  414BOLB   C3C 9931  20.067  19.789  26.560  0.1578  0.3118 -0.0937
  414BOLB   C4C 9932  20.084  19.448  26.204 -0.0130 -0.2341 -0.2759
  414BOLB   C1D 9933  19.865  19.722  27.478 -0.0729 -0.1456  0.2436
  414BOLB   C2D 9934  19.959  19.509  27.060  0.0281  0.0271 -0.1938
  414BOLB   C3D 9935  19.937  19.225  26.726 -0.0713 -0.1401 -0.2334
  414BOLB   C4D 9936  19.629  19.141  26.327 -0.0686 -0.1056  0.3203
  415BOLB   NC1 9937  14.365  17.910  24.012 -0.1568 -0.2645  0.0602
  415BOLB   PO1 9938  14.723  17.731  24.357  0.6470 -0.0896  0.0799
  415BOLB   GL1 9939  14.614  17.450  24.641  0.0575  0.2046 -0.0144
  415BOLB   GL2 9940  14.562  17.584  24.888 -0.0282 -0.0723  0.2591
  415BOLB   C1A 9941  14.932  17.271  25.068  0.2423 -0.2709  0.2169
  415BOLB   C2A 9942  14.798  17.025  25.381 -0.2719  0.4861  0.0976
  415BOLB   C3A 9943  15.044  16.819  25.721 -0.0475 -0.1597  0.2242
  415BOLB   C4A 9944  14.995  16.794  26.206  0.4155  0.4698 -0.3068
  415BOLB   C1B 9945  14.649  17.761  25.272  0.1183  0.0891 -0.0709
  415BOLB   C2B 9946  14.745  17.739  25.823 -0.0819  0.1186 -0.0408
  415BOLB   C3B 9947  14.925  17.668  26.268 -0.1262  0.5729 -0.1573
  415BOLB   C4B 9948  15.191  17.706  26.703 -0.0426 -0.1735  0.1016
  415BOLB   NC2 9949  15.144  16.816  28.465  0.0383  0.0085 -0.0953
  415BOLB   PO2 9950  15.132  16.450  28.557 -0.0731  0.1687 -0.1535
  415BOLB   GL3 9951  15.209  16.310  28.103 -0.3528  0.1062  0.1778
  415BOLB   GL4 9952  15.281  16.564  28.058 -0.1282 -0.1573  0.1810
  415BOLB   C1C 9953  15.392  16.279  27.671  0.1247 -0.0706  0.0576
  415BOLB   C2C 9954  15.018  16.259  27.371  0.3732  0.0233  0.0280
  415BOLB   C3C 9955  14.739  16.453  26.917 -0.0006 -0.1528  0.0264
  415BOLB   C4C 9956  14.911  16.529  26.564  0.0161 -0.1443  0.0185
  415BOLB   C1D 9957  15.083  16.651  27.642 -0.2302 -0.0516 -0.1634
  415BOLB   C2D 9958  14.903  16.784  27.284 -0.2920  0.4133  0.1682
  415BOLB   C3D 9959  14.672  17.049  27.024  0.0192 -0.0366  0.2656
  415BOLB   C4D 9960  14.722  17.454  26.788 -0.0129 -0.3991  0.1210
  416BOLB   NC1 9961  20.251  22.486  21.668 -0.1421  0.0639  0.2221
  416BOLB   PO1 9962  20.606  22.218  21.698 -0.0146 -0.0677 -0.0808
  416BOLB   GL1 9963  20.917  22.279  22.133  0.3761 -0.0694 -0.0667
  416BOLB   GL2 9964  20.729  22.402  22.395 -0.0570  0.0208  0.1543
  416BOLB   C1A 9965  21.134  22.666  22.215 -0.1611 -0.0779 -0.2886
  416BOLB   C2A 9966  21.251  22.913  22.601 -0.0817  0.0720 -0.1506
  416BOLB   C3A 9967  21.364  22.901  23.068 -0.0957 -0.1372  0.0023
  416BOLB   C4A 9968  21.327  22.708  23.453  0.0079  0.2765 -0.0365
  416BOLB   C1B 9969  20.840  22.564  22.828  0.4350  0.3514 -0.2422
  416BOLB   C2B 9970  20.962  22.388  23.265 -0.1493 -0.0042 -0.1039
  416BOLB   C3B 9971  20.868  22.476  23.752 -0.4892 -0.3586  0.2222
  416BOLB   C4B 9972  21.070  22.432  24.113  0.1434 -0.0509 -0.0426
  416BOLB   NC2 9973  22.995  24.790  24.855  0.3039 -0.0837  0.0646
  416BOLB   PO2 9974  22.978  24.388  24.624 -0.0849 -0.0262  0.1831
  416BOLB   GL3 9975  22.629  24.053  24.637  0.1231  0.0577 -0.2721
  416BOLB   GL4 9976  22.260  24.194  24.451  0.0034 -0.0085  0.5009
  416BOLB   C1C 9977  22.401  23.575  24.586  0.4711  0.3834 -0.2973
  416BOLB   C2C 9978  22.221  23.332  24.240 -0.0754  0.1084  0.2000
  416BOLB   C3C 9979  21.912  22.886  24.124 -0.1014  0.0071  0.0769
  416BOLB   C4C 9980  21.634  22.751  23.764  0.0185 -0.0632 -0.0159
  416BOLB   C1D 9981  22.477  23.848  24.161 -0.0505  0.0014  0.1923
  416BOLB   C2D 9982  22.305  23.714  23.729  0.3313 -0.4690 -0.0843
  416BOLB   C3D 9983  22.435  23.538  23.462 -0.2189 -0.1237  0.0510
  416BOLB   C4D 9984  22.858  23.557  23.363 -0.2425  0.0172  0.3047
  417BOLB   NC1 9985  12.552  17.298  24.933 -0.2810  0.1321  0.0468
  417BOLB   PO1 9986  12.153  17.040  24.718 -0.0235  0.1110  0.2252
  417BOLB   GL1 9987  12.235  16.937  25.140  0.0237  0.1183  0.0381
  417BOLB   GL2 9988  11.865  16.810  25.180  0.2871  0.0844  0.5541
  417BOLB   C1A 9989  12.210  16.816  25.591  0.0122 -0.2412 -0.1317
  417BOLB   C2A 9990  12.372  16.630  26.012  0.0245 -0.1408 -0.0243
  417BOLB   C3A 9991  12.528  16.443  26.288  0.0880 -0.0857  0.1792
  417BOLB   C4A 9992  12.363  16.141  26.655 -0.3207 -0.2991  0.0786
  417BOLB   C1B 9993  11.702  16.864  25.578  0.1260 -0.2665 -0.1716
  417BOLB   C2B 9994  11.807  16.736  26.040 -0.0385 -0.3858 -0.4421
  417BOLB   C3B 9995  11.811  16.713  26.549 -0.1677  0.1653 -0.1642
  417BOLB   C4B 9996  12.131  16.563  26.831  0.3207  0.0294  0.0648
  417BOLB   NC2 9997  11.884  16.033  29.313 -0.4680  0.0203  0.0891
  417BOLB   PO2 9998  12.061  15.878  28.919 -0.2524  0.0041  0.0375
  417BOLB   GL3 9999  12.329  15.916  28.550 -0.1843 -0.0720 -0.1272
  417BOLB   GL410000  12.678  16.095  28.550  0.1970  0.1653 -0.0905
  417BOLB   C1C10001  12.198  15.856  28.133 -0.0598  0.1417  0.0309
  417BOLB   C2C10002  12.295  16.015  27.763  0.0307  0.0105 -0.1052
  417BOLB   C3C10003  12.337  16.159  27.373 -0.2097  0.0739 -0.2148
  417BOLB   C4C10004  12.214  16.122  27.008  0.0205  0.2451 -0.2822
  417BOLB   C1D10005  12.557  16.312  28.101  0.1201  0.2895 -0.1058
  417BOLB   C2D10006  12.481  16.485  27.709 -0.1577  0.3212 -0.0065
  417BOLB   C3D10007  12.157  16.622  27.505  0.1931 -0.1603  0.2074
  417BOLB   C4D10008  11.792  16.900  27.381  0.1501 -0.0664 -0.1651
  418BOLB   NC110009  22.996  13.756  21.086  0.1110 -0.0879  0.2694
  418BOLB   PO110010  22.794  14.136  21.029 -0.0704  0.1787 -0.0209
  418BOLB   GL110011  23.047  14.147  21.475 -0.1461  0.0967 -0.2766
  418BOLB   GL210012  23.093  14.365  21.636 -0.2622 -0.0335 -0.1564
  418BOLB   C1A10013  23.314  13.854  21.798 -0.0817 -0.1561  0.1210
  418BOLB   C2A10014  23.541  13.537  21.990 -0.2307 -0.0767 -0.1872
  418BOLB   C3A10015  23.738  13.254  22.270 -0.1188  0.0009 -0.1320
  418BOLB   C4A10016  23.939  12.948  22.569  0.0009 -0.3101  0.1331
  418BOLB   C1B10017  23.287  14.331  22.025  0.0253 -0.1955 -0.2441
  418BOLB   C2B10018  23.526  14.413  22.389  0.1906  0.0654  0.1406
  418BOLB   C3B10019  23.888  14.288  22.707  0.1083  0.1501 -0.2640
  418BOLB   C4B10020  23.986  14.101  23.093 -0.1140 -0.1408  0.0242
  418BOLB   NC210021  26.501  13.107  23.103  0.0756 -0.1532  0.1965
  418BOLB   PO210022  26.339  13.053  23.468  0.0539  0.0580  0.0900
  418BOLB   GL310023  25.782  12.909  23.295  0.3182  0.0607 -0.1716
  418BOLB   GL410024  25.613  12.636  23.385 -0.0259 -0.1929  0.2136
  418BOLB   C1C10025  25.544  12.936  22.971 -0.2323  0.1905 -0.0100
  418BOLB   C2C10026  25.169  12.878  22.940  0.1254 -0.1705 -0.0816
  418BOLB   C3C10027  24.767  12.892  22.822 -0.2272 -0.1845  0.2723
  418BOLB   C4C10028  24.420  12.774  22.705  0.1966 -0.1268  0.2740
  418BOLB   C1D10029  25.270  12.942  23.417 -0.2619  0.2577  0.0188
  418BOLB   C2D10030  25.055  13.255  23.283 -0.0588 -0.0451 -0.0274
  418BOLB   C3D10031  24.527  13.316  23.152 -0.0354 -0.2139  0.2286
  418BOLB   C4D10032  24.112  13.525  23.377 -0.2045  0.1226 -0.2554
  419BOLB   NC110033  14.121  14.302  24.388 -0.2239 -0.0039  0.3854
  419BOLB   PO110034  13.830  13.921  24.239 -0.0157  0.1617  0.1208
  419BOLB   GL110035  13.711  13.794  24.647  0.1917  0.0174  0.3153
  419BOLB   GL210036  13.674  13.449  24.730 -0.0860 -0.1240  0.3586
  419BOLB   C1A10037  13.703  13.866  25.151 -0.1557  0.0298  0.0332
  419BOLB   C2A10038  13.506  13.986  25.512  0.0929  0.1408  0.4012
  419BOLB   C3A10039  13.636  14.133  25.811  0.2990 -0.0072  0.2527
  419BOLB   C4A10040  13.478  14.022  26.257 -0.3087 -0.3935 -0.2753
  419BOLB   C1B10041  13.530  13.229  25.133 -0.1694 -0.0846 -0.1817
  419BOLB   C2B10042  13.590  13.064  25.558 -0.1558  0.2231  0.0368
  419BOLB   C3B10043  13.666  13.079  25.972 -0.2249  0.0488 -0.0629
  419BOLB   C4B10044  13.709  13.153  26.317 -0.0010  0.0339 -0.1823
  419BOLB   NC210045  12.654  14.967  28.600  0.0387  0.1516 -0.0035
  419BOLB   PO210046  12.729  14.578  28.458 -0.1637 -0.0667 -0.0803
  419BOLB   GL310047  12.517  14.790  28.090  0.1326 -0.0632 -0.1714
  419BOLB   GL410048  12.429  15.023  27.858  0.0806 -0.2890  0.2966
  419BOLB   C1C10049  12.537  14.486  27.674  0.4497  0.2123  0.4484
  419BOLB   C2C10050  12.622  14.346  27.186  0.1368 -0.0564  0.0032
  419BOLB   C3C10051  12.717  14.052  26.869 -0.3432 -0.2043  0.1943
  419BOLB   C4C10052  13.102  13.949  26.617  0.0211 -0.1848  0.1819
  419BOLB   C1D10053  12.670  15.163  27.492 -0.1668  0.0563  0.0017
  419BOLB   C2D10054  12.665  15.212  26.997  0.2478  0.0692 -0.0524
  419BOLB   C3D10055  12.601  15.089  26.577 -0.1878 -0.0201 -0.0527
  419BOLB   C4D10056  12.703  14.995  26.105  0.1639  0.1684 -0.1672
  420BOLB   NC110057  14.195   9.137  22.390  0.1343 -0.0977 -0.1762
  420BOLB   PO110058  14.370   8.999  22.811 -0.1010 -0.0856  0.1408
  420BOLB   GL110059  14.632   8.900  23.130  0.1625  0.0141 -0.1704
  420BOLB   GL210060  14.756   9.177  23.126  0.2407 -0.2278  0.0631
  420BOLB   C1A10061  14.973   8.743  23.481  0.0757 -0.0707  0.4868
  420BOLB   C2A10062  14.909   8.559  23.855 -0.0432 -0.1865  0.0224
  420BOLB   C3A10063  14.765   8.351  24.295  0.1195 -0.0521  0.1230
  420BOLB   C4A10064  14.738   8.128  24.732 -0.2144 -0.0506 -0.2866
  420BOLB   C1B10065  14.879   9.228  23.646 -0.0264  0.1426 -0.0890
  420BOLB   C2B10066  15.190   9.152  23.931  0.2888 -0.1579 -0.0195
  420BOLB   C3B10067  15.128   8.834  24.283  0.0904 -0.2312 -0.0060
  420BOLB   C4B10068  15.111   8.515  24.631  0.1822  0.2516  0.0529
  420BOLB   NC210069  15.110   6.993  27.002  0.1451  0.0516  0.1853
  420BOLB   PO210070  14.818   6.767  26.710  0.1723  0.2809  0.1610
  420BOLB   GL310071  14.925   6.861  26.232 -0.1120  0.1669  0.1887
  420BOLB   GL410072  14.607   6.891  26.000 -0.3089 -0.1832  0.0927
  420BOLB   C1C10073  15.119   6.950  25.886  0.2364 -0.1272 -0.0206
  420BOLB   C2C10074  15.199   7.093  25.492 -0.2019  0.0405  0.1325
  420BOLB   C3C10075  15.045   7.299  25.083 -0.3549 -0.0012  0.0596
  420BOLB   C4C10076  14.924   7.610  24.789  0.2374 -0.0619  0.0474
  420BOLB   C1D10077  14.661   7.021  25.604 -0.4307  0.0963  0.4058
  420BOLB   C2D10078  14.543   7.164  25.188  0.1638  0.0474  0.1404
  420BOLB   C3D10079  14.440   7.626  25.174 -0.2131  0.2713 -0.1005
  420BOLB   C4D10080  14.405   8.060  25.153 -0.1687  0.1974 -0.1608
  421BOLB   NC110081   9.312  15.446  23.640 -0.0673 -0.4303  0.2424
  421BOLB   PO110082   9.138  15.120  23.426 -0.3536 -0.0457 -0.0735
  421BOLB   GL110083   8.948  15.147  23.809  0.1481  0.1151 -0.0235
  421BOLB   GL210084   8.689  15.106  23.720  0.0309  0.0971  0.4288
  421BOLB   C1A10085   8.757  15.167  24.227  0.4382 -0.1782 -0.2617
  421BOLB   C2A10086   8.661  15.327  24.558  0.1695  0.0427  0.2107
  421BOLB   C3A10087   8.613  15.380  24.988 -0.2920 -0.2127  0.0989
  421BOLB   C4A10088   8.427  15.401  25.265 -0.2104  0.0140 -0.1902
  421BOLB   C1B10089   8.329  15.083  23.980  0.0783 -0.0444 -0.1072
  421BOLB   C2B10090   8.205  15.269  24.355  0.0230 -0.0619  0.1454
  421BOLB   C3B10091   7.746  15.335  24.533 -0.1328  0.1525 -0.1529
  421BOLB   C4B10092   7.560  15.527  24.907  0.1965  0.1404  0.3727
  421BOLB   NC210093   6.717  15.396  27.403 -0.0945 -0.2614 -0.0811
  421BOLB   PO210094   7.087  15.320  27.480  0.0001  0.2358  0.0223
  421BOLB   GL310095   7.499  15.312  27.234  0.1166 -0.2201 -0.0966
  421BOLB   GL410096   7.722  15.486  27.323 -0.4155  0.0262 -0.0428
  421BOLB   C1C10097   7.562  15.157  26.837 -0.1531  0.1111  0.1501
  421BOLB   C2C10098   7.868  15.100  26.455 -0.3095 -0.1414  0.1171
  421BOLB   C3C10099   8.037  15.317  26.063  0.1291 -0.0610 -0.1558
  421BOLB   C4C10100   8.277  15.316  25.614  0.1878  0.0174 -0.3713
  421BOLB   C1D10101   8.068  15.434  27.003 -0.0428 -0.0616 -0.0853
  421BOLB   C2D10102   8.435  15.559  26.682 -0.2891 -0.2996  0.0412
  421BOLB   C3D10103   8.502  15.478  26.247 -0.0194  0.1266  0.1830
  421BOLB   C4D10104   8.710  15.260  25.928 -0.1766  0.1462 -0.1279
  422BOLB   NC110105  15.749  23.141  23.359 -0.0395  0.0671  0.4523
  422BOLB   PO110106  16.015  23.426  23.345 -0.1639  0.3442  0.0372
  422BOLB   GL110107  16.043  23.671  23.749  0.4638  0.0335  0.0536
  422BOLB   GL210108  16.251  23.422  23.895  0.0082  0.0262 -0.0591
  422BOLB   C1A10109  16.060  23.783  24.218 -0.1078 -0.2666  0.1049
  422BOLB   C2A10110  16.301  23.941  24.582  0.0362  0.3619  0.2712
  422BOLB   C3A10111  16.275  24.028  25.030  0.2635  0.0720  0.0410
  422BOLB   C4A10112  15.923  24.049  25.358 -0.0554  0.0310 -0.1204
  422BOLB   C1B10113  16.447  23.479  24.349 -0.1084 -0.0988  0.0264
  422BOLB   C2B10114  16.778  23.674  24.702 -0.1199  0.0844  0.2366
  422BOLB   C3B10115  16.905  23.803  25.109  0.1177 -0.2864  0.1194
  422BOLB   C4B10116  16.871  24.168  25.343 -0.0239 -0.2285  0.0571
  422BOLB   NC210117  15.491  25.125  27.215 -0.0450  0.2020 -0.0609
  422BOLB   PO210118  15.400  24.679  27.090  0.1008 -0.2343 -0.3467
  422BOLB   GL310119  15.213  24.868  26.721 -0.2830 -0.1480  0.0081
  422BOLB   GL410120  14.990  24.650  26.607 -0.1898 -0.0058 -0.1404
  422BOLB   C1C10121  15.207  25.106  26.312 -0.0253  0.3778 -0.0535
  422BOLB   C2C10122  15.062  24.807  26.091  0.1010  0.0134  0.3696
  422BOLB   C3C10123  15.197  24.546  25.709  0.1201  0.1604 -0.0680
  422BOLB   C4C10124  15.570  24.323  25.537 -0.1282 -0.1091 -0.3403
  422BOLB   C1D10125  15.121  24.374  26.240 -0.0398 -0.0959 -0.1607
  422BOLB   C2D10126  15.126  24.044  25.935 -0.1728 -0.0919 -0.0347
  422BOLB   C3D10127  15.193  24.031  25.486 -0.0559 -0.0959 -0.0337
  422BOLB   C4D10128  15.476  24.045  25.141  0.2553 -0.0422 -0.1122
  423BOLB   NC110129  19.852  20.487  23.338 -0.0173 -0.0926 -0.0253
  423BOLB   PO110130  20.204  20.426  23.153 -0.2418  0.1732 -0.2310
  423BOLB   GL110131  20.575  20.545  23.422  0.3513  0.3311  0.3212
  423BOLB   GL210132  20.472  20.711  23.699  0.1389  0.4370  0.0964
  423BOLB   C1A10133  20.990  20.791  23.490  0.0480  0.0741  0.2671
  423BOLB   C2A10134  21.416  21.003  23.638 -0.2017  0.2947  0.0516
  423BOLB   C3A10135  21.742  21.152  23.904 -0.1952  0.2203 -0.0982
  423BOLB   C4A10136  21.917  21.116  24.453  0.0196  0.0363  0.1277
  423BOLB   C1B10137  20.732  20.663  24.016 -0.0393 -0.1269  0.2218
  423BOLB   C2B10138  20.935  20.547  24.363 -0.2678 -0.2977  0.1296
  423BOLB   C3B10139  21.218  20.745  24.623 -0.0401  0.0062  0.0083
  423BOLB   C4B10140  21.642  20.700  24.498 -0.0438 -0.2592 -0.0527
  423BOLB   NC210141  24.561  20.791  25.537  0.0624  0.2367 -0.0954
  423BOLB   PO210142  24.028  20.778  25.555  0.3550 -0.2677 -0.0701
  423BOLB   GL310143  23.749  20.605  25.263 -0.1729  0.2464 -0.3331
  423BOLB   GL410144  23.691  20.402  25.419  0.1783 -0.3301 -0.1515
  423BOLB   C1C10145  23.304  20.658  25.146 -0.1098 -0.3949  0.2760
  423BOLB   C2C10146  22.990  20.972  25.032 -0.0273 -0.1349 -0.0726
  423BOLB   C3C10147  22.535  21.074  24.930  0.2139 -0.3343 -0.0734
  423BOLB   C4C10148  22.137  21.118  24.784 -0.3429  0.0846 -0.3054
  423BOLB   C1D10149  23.287  20.166  25.229  0.1529 -0.0216 -0.5870
  423BOLB   C2D10150  23.055  20.191  24.899  0.0385 -0.1475  0.3551
  423BOLB   C3D10151  22.857  19.892  24.762  0.1257  0.0325 -0.1557
  423BOLB   C4D10152  22.545  19.717  24.486 -0.3937 -0.0838 -0.3485
  424BOLB   NC110153  13.380  22.841  23.681 -0.1205 -0.0185 -0.3086
  424BOLB   PO110154  13.227  23.208  23.869  0.0659 -0.2145  0.0268
  424BOLB   GL110155  13.362  23.236  24.229 -0.0568 -0.0313 -0.3129
  424BOLB   GL210156  13.077  23.367  24.404  0.0548 -0.0560  0.1665
  424BOLB   C1A10157  13.748  23.206  24.565 -0.2748 -0.1127 -0.4367
  424BOLB   C2A10158  13.862  23.020  24.951  0.2272 -0.3210 -0.0216
  424BOLB   C3A10159  13.873  23.149  25.365 -0.1486  0.2753  0.3092
  424BOLB   C4A10160  13.858  23.253  25.810  0.2058 -0.3671  0.2916
  424BOLB   C1B10161  13.035  23.687  24.711  0.0776 -0.2464 -0.2520
  424BOLB   C2B10162  13.139  23.905  25.063 -0.1294  0.1383 -0.4099
  424BOLB   C3B10163  12.973  24.061  25.397 -0.0521 -0.0648 -0.0410
  424BOLB   C4B10164  12.648  24.272  25.636  0.0875 -0.1768 -0.0258
  424BOLB   NC210165  13.276  24.323  28.408 -0.2231 -0.0061  0.2146
  424BOLB   PO210166  13.591  24.280  28.037 -0.1449  0.2848 -0.1247
  424BOLB   GL310167  13.420  24.102  27.699 -0.0141 -0.3318 -0.4616
  424BOLB   GL410168  13.147  23.815  27.654 -0.0909  0.0084  0.1117
  424BOLB   C1C10169  13.496  23.857  27.331 -0.3577  0.1321 -0.1917
  424BOLB   C2C10170  13.637  23.556  27.065  0.0434  0.2635 -0.1274
  424BOLB   C3C10171  13.633  23.435  26.641  0.4040  0.1449  0.0505
  424BOLB   C4C10172  13.764  23.334  26.226  0.0673 -0.0821 -0.0435
  424BOLB   C1D10173  12.918  23.976  27.275  0.1170  0.0314 -0.0331
  424BOLB   C2D10174  12.609  23.949  26.921  0.2176  0.0313  0.0009
  424BOLB   C3D10175  12.535  23.899  26.485  0.0577 -0.0572  0.1472
  424BOLB   C4D10176  12.439  24.013  26.076  0.2148 -0.1984  0.4066
  425BOLB   NC110177  14.134  22.141  23.844 -0.0640 -0.4153 -0.0594
  425BOLB   PO110178  14.213  22.509  24.033  0.0758  0.1242 -0.1977
  425BOLB   GL110179  14.051  22.729  24.367 -0.0093  0.0407 -0.1209
  425BOLB   GL210180  13.976  22.534  24.553  0.2185  0.0163 -0.3325
  425BOLB   C1A10181  14.264  22.744  24.890  0.0429  0.1654  0.0974
  425BOLB   C2A10182  14.153  22.750  25.289  0.0704  0.1711 -0.1820
  425BOLB   C3A10183  14.149  22.864  25.720 -0.1005 -0.1539  0.0953
  425BOLB   C4A10184  14.029  22.571  26.141  0.1467 -0.1715 -0.1078
  425BOLB   C1B10185  13.775  22.496  24.956 -0.1782 -0.2212 -0.2343
  425BOLB   C2B10186  13.496  22.721  25.187 -0.0069 -0.1704  0.0510
  425BOLB   C3B10187  13.383  23.041  25.472 -0.1814 -0.0321  0.2343
  425BOLB   C4B10188  13.308  23.234  25.878  0.2880 -0.0167  0.0652
  425BOLB   NC210189  12.742  21.901  28.265 -0.4571  0.1849 -0.0332
  425BOLB   PO210190  13.167  21.879  28.162  0.1608 -0.0890  0.0058
  425BOLB   GL310191  13.474  21.760  27.808 -0.3007  0.0860 -0.1287
  425BOLB   GL410192  13.846  21.776  27.838  0.1360 -0.2146  0.4743
  425BOLB   C1C10193  13.410  21.663  27.380 -0.0512  0.1756  0.2907
  425BOLB   C2C10194  13.644  21.724  26.973  0.0932  0.1245  0.7186
  425BOLB   C3C10195  13.832  21.912  26.778  0.1323  0.0652  0.2869
  425BOLB   C4C10196  13.896  22.166  26.423  0.2427 -0.0615  0.0612
  425BOLB   C1D10197  14.028  21.772  27.299  0.0489 -0.0400  0.4264
  425BOLB   C2D10198  14.254  21.697  27.008  0.2325  0.0525  0.2655
  425BOLB   C3D10199  14.382  21.535  26.576  0.0290 -0.1110  0.3598
  425BOLB   C4D10200  14.625  21.556  26.151 -0.2489 -0.1019  0.3278
  426BOLB   NC110201  10.484  20.868  23.932 -0.3620  0.2954 -0.1369
  426BOLB   PO110202  10.829  21.132  24.132  0.0870 -0.3434 -0.0749
  426BOLB   GL110203  11.014  21.286  24.474 -0.4322 -0.2571  0.1549
  426BOLB   GL210204  11.047  21.575  24.477  0.0673 -0.2952  0.0748
  426BOLB   C1A10205  11.170  21.276  24.872 -0.1393  0.2583 -0.0140
  426BOLB   C2A10206  11.251  21.182  25.246  0.1745 -0.3523  0.1946
  426BOLB   C3A10207  11.135  21.232  25.710 -0.0288 -0.0806  0.1738
  426BOLB   C4A10208  11.135  21.200  26.075  0.1543 -0.1014  0.1522
  426BOLB   C1B10209  10.866  21.648  24.883  0.0986  0.1368 -0.1474
  426BOLB   C2B10210  11.009  21.666  25.269 -0.4289  0.2884 -0.0896
  426BOLB   C3B10211  10.982  21.919  25.695 -0.2613 -0.0488  0.1239
  426BOLB   C4B10212  11.057  21.689  26.121  0.2125 -0.2406 -0.3294
  426BOLB   NC210213  11.291  21.686  28.381 -0.1587  0.0138  0.0395
  426BOLB   PO210214  10.977  21.450  28.444  0.0829  0.3627 -0.2484
  426BOLB   GL310215  10.885  21.608  28.005 -0.1490 -0.1391 -0.2281
  426BOLB   GL410216  11.161  21.709  27.737  0.2462  0.0512  0.0472
  426BOLB   C1C10217  10.721  21.523  27.512 -0.1996 -0.2668  0.1644
  426BOLB   C2C10218  10.599  21.352  27.112  0.1672  0.3032 -0.1266
  426BOLB   C3C10219  10.716  21.100  26.770  0.0764 -0.0148  0.1131
  426BOLB   C4C10220  10.806  21.138  26.389  0.0278  0.1040 -0.1172
  426BOLB   C1D10221  11.120  21.288  27.484 -0.0270  0.2922  0.2038
  426BOLB   C2D10222  11.053  21.406  27.023 -0.0422  0.4285  0.0856
  426BOLB   C3D10223  11.187  21.002  26.738 -0.0595 -0.0397  0.1430
  426BOLB   C4D10224  11.153  20.755  26.255 -0.3438 -0.2117 -0.1594
  427BOLB   NC110225  19.175  14.506  23.509 -0.0553  0.2105 -0.0991
  427BOLB   PO110226  19.582  14.608  23.339 -0.1028  0.0593  0.0697
  427BOLB   GL110227  19.807  14.482  23.738  0.1262  0.1239 -0.0326
  427BOLB   GL210228  20.029  14.751  23.899  0.3098 -0.1102  0.1411
  427BOLB   C1A10229  20.051  14.316  24.098 -0.2611  0.2847 -0.1723
  427BOLB   C2A10230  20.369  14.266  24.307 -0.1226  0.1052  0.1086
  427BOLB   C3A10231  20.797  14.185  24.477  0.0211  0.1571  0.1124
  427BOLB   C4A10232  21.047  14.068  24.793  0.1279 -0.0699 -0.0713
  427BOLB   C1B10233  19.968  14.725  24.370  0.2058 -0.2790  0.1158
  427BOLB   C2B10234  20.132  14.518  24.643 -0.1281 -0.1235 -0.0021
  427BOLB   C3B10235  20.529  14.510  24.806 -0.2750 -0.2436  0.3739
  427BOLB   C4B10236  20.920  14.491  25.001 -0.0978  0.0675 -0.2448
  427BOLB   NC210237  21.451  13.706  26.852  0.1249  0.0363 -0.1579
  427BOLB   PO210238  21.288  14.149  26.932 -0.2549 -0.0480  0.0087
  427BOLB   GL310239  20.900  14.056  26.832 -0.0893  0.1004 -0.2984
  427BOLB   GL410240  20.753  14.170  27.138 -0.0774 -0.0177 -0.3948
  427BOLB   C1C10241  20.626  14.070  26.451  0.0368 -0.1537  0.2757
  427BOLB   C2C10242  20.716  14.104  26.049  0.1027  0.0464  0.2150
  427BOLB   C3C10243  20.749  13.901  25.620  0.1195  0.0068 -0.0033
  427BOLB   C4C10244  21.039  14.104  25.290 -0.0885 -0.2600 -0.2414
  427BOLB   C1D10245  20.419  14.311  27.002  0.1181  0.2978  0.1099
  427BOLB   C2D10246  20.292  14.392  26.652 -0.1171 -0.1410 -0.0885
  427BOLB   C3D10247  20.182  14.212  26.196  0.2365 -0.0371  0.0612
  427BOLB   C4D10248  20.322  14.300  25.793  0.0004 -0.1227  0.2944
  428BOLB   NC110249  12.178  23.650  23.733 -0.1571 -0.4253  0.0555
  428BOLB   PO110250  12.596  23.864  23.667  0.0813  0.2792  0.0823
  428BOLB   GL110251  12.358  24.201  23.746 -0.2646 -0.0159  0.2949
  428BOLB   GL210252  12.648  24.470  23.803  0.0034 -0.0038 -0.0798
  428BOLB   C1A10253  12.076  24.401  23.954 -0.0778  0.0982 -0.1160
  428BOLB   C2A10254  11.804  24.542  24.313  0.1889 -0.0355  0.0953
  428BOLB   C3A10255  11.568  24.623  24.657 -0.0340 -0.1007  0.0818
  428BOLB   C4A10256  11.116  24.682  24.801 -0.1829  0.1207 -0.3486
  428BOLB   C1B10257  12.585  24.764  24.143 -0.2444  0.2758  0.0050
  428BOLB   C2B10258  12.449  24.890  24.492 -0.0501 -0.1880 -0.3766
  428BOLB   C3B10259  12.365  25.334  24.388  0.1536 -0.0254  0.0451
  428BOLB   C4B10260  12.062  25.540  24.217 -0.0278 -0.2396 -0.1222
  428BOLB   NC210261   9.688  26.603  25.100  0.2307 -0.2177 -0.0516
  428BOLB   PO210262   9.561  26.656  24.616 -0.2303  0.0565 -0.2950
  428BOLB   GL310263   9.815  26.341  24.526  0.1361  0.2030 -0.1454
  428BOLB   GL410264  10.122  26.385  24.557 -0.1298 -0.0576 -0.0319
  428BOLB   C1C10265  10.053  25.898  24.706  0.1065 -0.3072 -0.0650
  428BOLB   C2C10266  10.346  25.580  24.806  0.0313  0.1206 -0.2059
  428BOLB   C3C10267  10.674  25.407  25.055 -0.0851  0.2767 -0.1896
  428BOLB   C4C10268  10.749  24.934  25.003  0.1542  0.0121 -0.1997
  428BOLB   C1D10269  10.414  26.164  24.393  0.0012  0.2662 -0.1417
  428BOLB   C2D10270  10.562  25.971  23.903  0.0744  0.1384 -0.0809
  428BOLB   C3D10271  10.434  25.955  23.550  0.1036  0.0090 -0.1626
  428BOLB   C4D10272  10.558  25.717  23.165  0.2097  0.0260  0.0424
  429BOLB   NC110273  14.874  11.226  23.351  0.3427  0.1503  0.0495
  429BOLB   PO110274  14.589  10.929  23.474  0.0916  0.4312 -0.1491
  429BOLB   GL110275  14.483  10.747  23.869  0.2017  0.0899 -0.1846
  429BOLB   GL210276  14.460  10.387  23.765 -0.1903  0.0801  0.0969
  429BOLB   C1A10277  14.577  10.473  24.301  0.2267 -0.4233 -0.1895
  429BOLB   C2A10278  14.510  10.234  24.663  0.0408  0.2440 -0.1757
  429BOLB   C3A10279  14.595   9.945  24.971 -0.1351 -0.3272  0.1174
  429BOLB   C4A10280  14.447   9.842  25.403 -0.1631 -0.1926 -0.1779
  429BOLB   C1B10281  14.349  10.129  24.092  0.3509  0.0068 -0.0456
  429BOLB   C2B10282  14.372   9.787  24.543  0.2988  0.0222  0.2514
  429BOLB   C3B10283  14.501   9.539  24.686 -0.0074 -0.2156  0.1343
  429BOLB   C4B10284  14.544   9.288  25.037  0.2728  0.5193  0.0795
  429BOLB   NC210285  15.632   8.230  27.483  0.1133  0.3389  0.1993
  429BOLB   PO210286  15.503   8.386  27.101 -0.2128 -0.1980  0.0493
  429BOLB   GL310287  15.471   8.538  26.684 -0.0654 -0.0439  0.1381
  429BOLB   GL410288  15.600   8.228  26.531 -0.2476 -0.2757 -0.3285
  429BOLB   C1C10289  15.278   8.726  26.221  0.1780  0.3653 -0.2213
  429BOLB   C2C10290  15.221   8.927  25.787  0.2883 -0.0338 -0.0451
  429BOLB   C3C10291  14.982   9.294  25.644  0.1483 -0.0837  0.2974
  429BOLB   C4C10292  14.629   9.468  25.646 -0.1660 -0.0716 -0.0135
  429BOLB   C1D10293  15.862   8.403  26.180 -0.2053  0.0976  0.1791
  429BOLB   C2D10294  16.159   8.547  25.887 -0.1417  0.0974  0.1329
  429BOLB   C3D10295  16.540   8.675  25.749 -0.1345 -0.0474  0.0557
  429BOLB   C4D10296  16.794   8.485  25.536 -0.0720  0.0426  0.2661
  430BOLB   NC110297  20.730  11.386  21.732 -0.2435 -0.0427 -0.1251
  430BOLB   PO110298  21.114  11.357  21.824 -0.2047  0.2691  0.1284
  430BOLB   GL110299  21.287  11.091  22.148 -0.1351  0.0146 -0.4559
  430BOLB   GL210300  21.577  11.021  21.980  0.2605 -0.0703  0.0340
  430BOLB   C1A10301  21.409  10.897  22.470 -0.3521  0.3375 -0.0144
  430BOLB   C2A10302  21.648  10.487  22.666 -0.2760 -0.2630  0.0413
  430BOLB   C3A10303  21.913  10.192  22.904 -0.0270 -0.4063  0.0506
  430BOLB   C4A10304  21.964   9.804  23.100 -0.2154  0.0593 -0.0874
  430BOLB   C1B10305  21.830  10.740  22.251  0.0579 -0.0274  0.1558
  430BOLB   C2B10306  22.143  10.624  22.626  0.1940  0.1203  0.1082
  430BOLB   C3B10307  22.422  10.384  22.729 -0.1534  0.0954  0.1384
  430BOLB   C4B10308  22.724  10.223  23.091  0.1227 -0.0401 -0.0111
  430BOLB   NC210309  22.576   8.947  24.485  0.0600  0.0610  0.0406
  430BOLB   PO210310  22.623   9.255  24.867  0.0809  0.0937  0.2538
  430BOLB   GL310311  22.675   9.485  24.503 -0.0603 -0.0113  0.0793
  430BOLB   GL410312  22.594   9.814  24.697 -0.2107  0.1884 -0.5482
  430BOLB   C1C10313  22.773   9.462  24.054 -0.0327 -0.1297 -0.1527
  430BOLB   C2C10314  22.878   9.336  23.639  0.2457 -0.2131 -0.0679
  430BOLB   C3C10315  22.603   9.344  23.273  0.0594  0.1251 -0.3586
  430BOLB   C4C10316  22.139   9.391  23.112 -0.1132  0.0746  0.0958
  430BOLB   C1D10317  22.413   9.919  24.326  0.1669  0.2708  0.0733
  430BOLB   C2D10318  22.129   9.806  24.085 -0.0263  0.2277  0.1253
  430BOLB   C3D10319  21.805   9.936  23.874 -0.0367  0.0968 -0.0416
  430BOLB   C4D10320  21.670  10.149  23.466  0.0206 -0.2265 -0.1457
  431BOLB   NC110321  16.164  23.898  23.248 -0.0552 -0.0832 -0.0659
  431BOLB   PO110322  15.728  23.914  23.357  0.0846 -0.1247  0.1702
  431BOLB   GL110323  15.896  24.110  23.600  0.1835  0.0252  0.1540
  431BOLB   GL210324  15.731  24.298  23.716  0.0520  0.1577  0.2132
  431BOLB   C1A10325  16.151  24.135  23.947 -0.1385  0.0787 -0.0602
  431BOLB   C2A10326  16.171  24.433  24.250  0.0090  0.4029  0.0092
  431BOLB   C3A10327  16.304  24.452  24.730  0.1021 -0.0490  0.2891
  431BOLB   C4A10328  16.393  24.491  25.211  0.0177  0.1537  0.3916
  431BOLB   C1B10329  15.712  24.358  24.128  0.0225  0.1110  0.0373
  431BOLB   C2B10330  15.722  24.090  24.410  0.3781 -0.1075  0.0489
  431BOLB   C3B10331  15.350  23.926  24.672  0.1431 -0.1905 -0.0230
  431BOLB   C4B10332  15.140  23.681  25.011 -0.1102 -0.2672  0.0408
  431BOLB   NC210333  16.597  25.398  27.300  0.2291 -0.1298 -0.1417
  431BOLB   PO210334  16.189  25.172  27.251  0.0948 -0.0987  0.1137
  431BOLB   GL310335  16.434  24.964  27.036 -0.0406  0.4193  0.0361
  431BOLB   GL410336  16.596  25.192  26.821  0.5536  0.0748 -0.1470
  431BOLB   C1C10337  16.573  24.651  26.773  0.2763  0.0993 -0.5186
  431BOLB   C2C10338  16.500  24.602  26.376 -0.1703 -0.5759  0.0892
  431BOLB   C3C10339  16.476  24.446  26.068  0.0226 -0.0489 -0.2108
  431BOLB   C4C10340  16.407  24.220  25.627 -0.1363  0.0130  0.1485
  431BOLB   C1D10341  16.408  25.449  26.613 -0.0740  0.1391  0.2140
  431BOLB   C2D10342  16.013  25.531  26.373 -0.3931  0.1894  0.0916
  431BOLB   C3D10343  15.658  25.363  26.153  0.1738 -0.1438 -0.2581
  431BOLB   C4D10344  15.506  25.342  25.776  0.0432  0.1539 -0.0089
  432BOLB   NC110345  16.592  22.635  23.541 -0.3125  0.0235  0.3914
  432BOLB   PO110346  16.822  22.291  23.788  0.0710 -0.0499  0.0962
  432BOLB   GL110347  16.830  22.237  24.236  0.0438 -0.4776 -0.0799
  432BOLB   GL210348  17.200  22.026  24.214 -0.1797 -0.0972 -0.1486
  432BOLB   C1A10349  16.759  22.422  24.503  0.1193 -0.1762 -0.2726
  432BOLB   C2A10350  16.598  22.648  24.882  0.0475 -0.0805  0.0928
  432BOLB   C3A10351  16.435  22.963  25.164 -0.0853 -0.4225 -0.0362
  432BOLB   C4A10352  16.249  23.212  25.496  0.0078 -0.1577 -0.1129
  432BOLB   C1B10353  17.322  22.339  24.577 -0.5127 -0.2062  0.3733
  432BOLB   C2B10354  17.120  22.371  25.079 -0.0244  0.0052 -0.0145
  432BOLB   C3B10355  17.135  22.477  25.477  0.3623 -0.0701 -0.2805
  432BOLB   C4B10356  16.934  22.778  25.745  0.0715 -0.4829  0.1122
  432BOLB   NC210357  16.378  22.331  27.964  0.1197  0.0005  0.0005
  432BOLB   PO210358  16.540  22.683  27.755  0.0257 -0.0699  0.2082
  432BOLB   GL310359  16.585  22.851  27.482 -0.0632  0.2919 -0.1053
  432BOLB   GL410360  16.375  22.727  27.214  0.0789  0.0797  0.0455
  432BOLB   C1C10361  16.641  23.130  27.158  0.0817  0.1438  0.0818
  432BOLB   C2C10362  16.523  23.213  26.760  0.0199 -0.0587  0.1160
  432BOLB   C3C10363  16.510  23.304  26.301  0.0312  0.3644 -0.0188
  432BOLB   C4C10364  16.210  23.270  26.000  0.1314  0.0854  0.2434
  432BOLB   C1D10365  16.153  22.828  26.782 -0.3952  0.0103 -0.2670
  432BOLB   C2D10366  15.997  22.875  26.342 -0.0632  0.2375 -0.0936
  432BOLB   C3D10367  15.957  22.767  25.907 -0.0920 -0.0150 -0.1931
  432BOLB   C4D10368  16.138  22.756  25.585 -0.0615 -0.3259  0.1324
  433BOLB   NC110369  20.572  23.379  21.696  0.0325  0.0234 -0.1496
  433BOLB   PO110370  20.346  23.184  22.006 -0.1267  0.3939 -0.0417
  433BOLB   GL110371  20.411  23.533  22.297  0.3437  0.1869  0.4232
  433BOLB   GL210372  20.731  23.601  22.128 -0.1465  0.1996 -0.0246
  433BOLB   C1A10373  20.553  23.627  22.648  0.1525 -0.1784 -0.1975
  433BOLB   C2A10374  20.830  23.811  22.967 -0.0501 -0.4242  0.1833
  433BOLB   C3A10375  21.213  23.800  23.270 -0.0273 -0.3789  0.2353
  433BOLB   C4A10376  21.542  23.699  23.519  0.1516  0.2792  0.2615
  433BOLB   C1B10377  21.040  23.773  22.376  0.2863  0.0382 -0.0856
  433BOLB   C2B10378  21.414  23.844  22.718 -0.1180  0.1246  0.1169
  433BOLB   C3B10379  21.622  24.126  23.087  0.0927  0.3017 -0.0512
  433BOLB   C4B10380  21.453  24.459  23.306 -0.0851  0.0092 -0.3447
  433BOLB   NC210381  22.277  24.250  26.129  0.0507 -0.3822 -0.3873
  433BOLB   PO210382  22.284  23.838  25.937  0.0535 -0.0331 -0.0934
  433BOLB   GL310383  22.166  23.686  25.525  0.0630  0.0955 -0.1717
  433BOLB   GL410384  21.902  23.476  25.462 -0.0205  0.1989  0.0373
  433BOLB   C1C10385  22.005  23.716  24.946  0.1765  0.0585  0.0547
  433BOLB   C2C10386  21.881  23.724  24.534  0.2881  0.1151 -0.0464
  433BOLB   C3C10387  21.998  23.761  24.200  0.2961  0.0447 -0.2592
  433BOLB   C4C10388  21.912  23.484  23.845 -0.1863  0.1683  0.1241
  433BOLB   C1D10389  21.486  23.547  25.496  0.4421  0.1716  0.1489
  433BOLB   C2D10390  21.131  23.408  25.368 -0.3674  0.0697  0.1613
  433BOLB   C3D10391  20.764  23.173  25.214 -0.0133  0.0555  0.0712
  433BOLB   C4D10392  20.633  22.893  24.976  0.3456  0.3884 -0.2690
  434BOLB   NC110393  12.667  21.308  23.991 -0.0730 -0.0061 -0.1526
  434BOLB   PO110394  12.362  21.603  24.157 -0.0010 -0.1466 -0.0975
  434BOLB   GL110395  12.183  21.498  24.592  0.0519  0.1198 -0.1038
  434BOLB   GL210396  12.396  21.339  24.713  0.1484 -0.0850  0.0823
  434BOLB   C1A10397  12.069  21.469  25.046  0.1533 -0.1198  0.1155
  434BOLB   C2A10398  12.286  21.567  25.483  0.0265  0.0022 -0.2954
  434BOLB   C3A10399  12.556  21.487  25.762  0.1564 -0.2115 -0.3423
  434BOLB   C4A10400  12.472  21.718  26.126  0.1848  0.2850  0.0879
  434BOLB   C1B10401  12.464  21.745  24.865  0.0985  0.1327  0.1959
  434BOLB   C2B10402  12.745  22.009  25.037  0.0130 -0.2004 -0.0832
  434BOLB   C3B10403  12.611  22.115  25.430 -0.0547  0.0761 -0.3062
  434BOLB   C4B10404  12.267  22.115  25.738 -0.3983 -0.0647  0.1193
  434BOLB   NC210405  11.865  22.911  28.809  0.0273 -0.0275 -0.0058
  434BOLB   PO210406  12.104  22.678  28.490 -0.0096 -0.2445  0.1326
  434BOLB   GL310407  12.272  22.630  28.043 -0.0087 -0.1307 -0.1304
  434BOLB   GL410408  12.499  22.770  27.912  0.1733 -0.0758  0.2860
  434BOLB   C1C10409  12.218  22.637  27.588 -0.0704 -0.2380 -0.3275
  434BOLB   C2C10410  12.333  22.341  27.217 -0.0189  0.0847 -0.0742
  434BOLB   C3C10411  12.167  22.174  26.865  0.1536 -0.2294 -0.0577
  434BOLB   C4C10412  12.403  21.889  26.517 -0.1851 -0.2523 -0.0379
  434BOLB   C1D10413  12.670  22.613  27.506  0.0477 -0.1255 -0.4528
  434BOLB   C2D10414  12.802  22.337  27.138  0.0186  0.4471  0.0132
  434BOLB   C3D10415  12.738  22.045  26.817 -0.0144  0.0077 -0.0451
  434BOLB   C4D10416  12.954  22.038  26.377 -0.2437  0.4940  0.0660
  435BOLB   NC110417  22.039  12.174  21.613  0.2922 -0.2343  0.4099
  435BOLB   PO110418  21.716  12.085  21.896  0.0659 -0.1930 -0.0789
  435BOLB   GL110419  22.136  11.962  22.027 -0.4066 -0.0831 -0.1260
  435BOLB   GL210420  22.256  11.664  21.996  0.2428  0.4376 -0.1583
  435BOLB   C1A10421  22.373  12.242  22.267 -0.0935 -0.1113  0.0402
  435BOLB   C2A10422  22.702  12.226  22.539  0.2585  0.0080 -0.4456
  435BOLB   C3A10423  22.888  12.205  23.004 -0.1905  0.0991  0.0434
  435BOLB   C4A10424  23.275  12.318  23.130  0.0250 -0.4306 -0.0278
  435BOLB   C1B10425  22.610  11.760  22.170 -0.3063  0.0130 -0.2849
  435BOLB   C2B10426  22.921  11.726  22.629  0.2471 -0.1718 -0.4649
  435BOLB   C3B10427  23.179  11.829  22.962  0.0073  0.0336 -0.1048
  435BOLB   C4B10428  23.054  11.768  23.400  0.3324  0.1222 -0.3030
  435BOLB   NC210429  24.870  10.743  24.489  0.2353  0.0869 -0.0304
  435BOLB   PO210430  24.481  10.683  24.652  0.1805 -0.3298 -0.2683
  435BOLB   GL310431  24.402  11.039  24.312  0.2494  0.2670 -0.1405
  435BOLB   GL410432  24.621  11.235  24.288 -0.4846 -0.4133 -0.1054
  435BOLB   C1C10433  24.052  11.281  24.269  0.1110  0.0940  0.3152
  435BOLB   C2C10434  23.716  11.486  24.039 -0.2922  0.0510 -0.1586
  435BOLB   C3C10435  23.692  11.831  23.731 -0.0287  0.0939  0.0577
  435BOLB   C4C10436  23.505  12.052  23.438 -0.1172  0.1202  0.2936
  435BOLB   C1D10437  24.439  11.448  24.025  0.0978 -0.5758  0.1329
  435BOLB   C2D10438  24.067  11.260  23.712 -0.4795 -0.0844 -0.2989
  435BOLB   C3D10439  23.822  11.289  23.308 -0.2847  0.0360 -0.0333
  435BOLB   C4D10440  23.557  11.585  23.218  0.0043 -0.1721  0.4257
  436BOLB   NC110441  17.729  22.566  23.553 -0.0497  0.2123  0.0583
  436BOLB   PO110442  17.509  22.163  23.714 -0.1689  0.1575 -0.1394
  436BOLB   GL110443  17.653  22.151  24.121 -0.2628  0.0217 -0.1400
  436BOLB   GL210444  17.836  22.376  24.024 -0.3237  0.0909 -0.1827
  436BOLB   C1A10445  17.677  21.940  24.489 -0.2519  0.0606 -0.0779
  436BOLB   C2A10446  17.555  21.917  24.835  0.0898  0.3866 -0.3358
  436BOLB   C3A10447  17.603  21.993  25.262 -0.1463  0.1056 -0.1123
  436BOLB   C4A10448  17.311  22.114  25.719 -0.2376  0.1055 -0.5424
  436BOLB   C1B10449  17.722  22.576  24.380  0.3791  0.1985 -0.3947
  436BOLB   C2B10450  17.631  22.543  24.930  0.2709 -0.1738  0.1499
  436BOLB   C3B10451  17.622  22.440  25.413  0.0219 -0.3082 -0.0187
  436BOLB   C4B10452  17.674  22.440  25.907 -0.0750 -0.1352  0.0287
  436BOLB   NC210453  17.602  22.604  28.098  0.0099 -0.0244 -0.1128
  436BOLB   PO210454  17.941  22.953  28.021  0.1367  0.1538 -0.1182
  436BOLB   GL310455  17.933  23.069  27.554  0.1264 -0.0330  0.3610
  436BOLB   GL410456  18.054  23.326  27.297 -0.3645  0.0564 -0.0797
  436BOLB   C1C10457  17.752  22.828  27.355  0.1355  0.0759  0.0562
  436BOLB   C2C10458  17.567  22.724  26.970  0.0152 -0.2024 -0.1908
  436BOLB   C3C10459  17.407  22.542  26.477  0.0404  0.4990 -0.0060
  436BOLB   C4C10460  17.159  22.368  26.097 -0.2777  0.2271 -0.1186
  436BOLB   C1D10461  17.706  23.368  27.086 -0.3195 -0.0186  0.0409
  436BOLB   C2D10462  17.498  23.164  26.694 -0.2377 -0.1062  0.0481
  436BOLB   C3D10463  17.408  22.991  26.268  0.2114 -0.4572  0.1708
  436BOLB   C4D10464  17.416  22.820  25.788  0.0382  0.0733 -0.3471
  437BOLB   NC110465  13.133  16.535  24.952  0.0693 -0.2490 -0.0387
  437BOLB   PO110466  12.685  16.787  24.936  0.3378 -0.0325 -0.1659
  437BOLB   GL110467  12.739  16.985  25.283  0.0809  0.2588 -0.3128
  437BOLB   GL210468  13.132  16.822  25.348 -0.0487 -0.1962 -0.1410
  437BOLB   C1A10469  12.574  17.190  25.632  0.0186 -0.1654 -0.0018
  437BOLB   C2A10470  12.634  17.065  26.062  0.1688  0.2893 -0.0748
  437BOLB   C3A10471  12.897  17.125  26.479  0.0553 -0.0070 -0.0414
  437BOLB   C4A10472  13.193  17.193  26.728 -0.1940 -0.1746  0.1778
  437BOLB   C1B10473  13.254  16.425  25.663  0.2542  0.0086 -0.1001
  437BOLB   C2B10474  13.355  16.120  25.916 -0.0634 -0.0376  0.2260
  437BOLB   C3B10475  13.036  15.813  25.992  0.0803 -0.0290 -0.1726
  437BOLB   C4B10476  12.780  15.574  25.739 -0.0665 -0.0683 -0.0771
  437BOLB   NC210477  13.323  18.211  28.507 -0.1379  0.0737  0.1218
  437BOLB   PO210478  13.285  18.630  28.565  0.0503 -0.2367 -0.1195
  437BOLB   GL310479  13.074  18.432  28.151 -0.0734  0.1284  0.1342
  437BOLB   GL410480  13.296  18.316  27.943 -0.0733 -0.1423 -0.2238
  437BOLB   C1C10481  12.862  18.199  27.745  0.2523 -0.1657  0.1281
  437BOLB   C2C10482  12.911  17.864  27.478 -0.1124  0.1012 -0.4996
  437BOLB   C3C10483  13.081  17.618  27.190 -0.2002  0.0952 -0.3647
  437BOLB   C4C10484  13.292  17.203  27.112 -0.0724 -0.0078 -0.1304
  437BOLB   C1D10485  13.375  18.394  27.496  0.0726 -0.2021  0.0990
  437BOLB   C2D10486  13.096  18.654  27.135  0.0078  0.0777 -0.0356
  437BOLB   C3D10487  13.199  19.079  27.092  0.2067 -0.0641 -0.1520
  437BOLB   C4D10488  13.219  19.428  26.964  0.0779 -0.1127 -0.0420
  438BOLB   NC110489  21.154  21.005  22.209 -0.0491 -0.3497  0.0607
  438BOLB   PO110490  21.223  20.877  21.734  0.1632  0.0129  0.0369
  438BOLB   GL110491  21.599  21.078  21.904  0.0749  0.1610 -0.0058
  438BOLB   GL210492  21.969  21.141  21.752 -0.0012  0.2802 -0.3789
  438BOLB   C1A10493  21.887  21.458  22.116 -0.0049 -0.1278 -0.1065
  438BOLB   C2A10494  22.196  21.638  22.513  0.0921 -0.2717 -0.1997
  438BOLB   C3A10495  22.402  21.879  22.900 -0.1929 -0.1405 -0.1241
  438BOLB   C4A10496  22.793  21.995  23.005  0.1062  0.1996  0.0150
  438BOLB   C1B10497  22.307  21.354  21.851 -0.1856 -0.0219  0.1016
  438BOLB   C2B10498  22.546  21.646  22.157 -0.1182  0.1131 -0.0499
  438BOLB   C3B10499  22.800  21.981  22.408  0.0746  0.2241 -0.0601
  438BOLB   C4B10500  23.086  22.262  22.750 -0.0499 -0.1073  0.0174
  438BOLB   NC210501  25.001  21.734  23.766 -0.3095 -0.1446  0.4017
  438BOLB   PO210502  25.104  22.198  23.736  0.1213 -0.1065  0.3697
  438BOLB   GL310503  24.728  21.983  23.453 -0.1546  0.1073  0.2725
  438BOLB   GL410504  24.735  22.056  23.229 -0.0362  0.2386  0.0012
  438BOLB   C1C10505  24.312  21.863  23.407  0.2649 -0.2782 -0.0296
  438BOLB   C2C10506  23.930  21.832  23.428 -0.0654  0.4756  0.3742
  438BOLB   C3C10507  23.459  21.804  23.364  0.1146 -0.2849 -0.0715
  438BOLB   C4C10508  23.148  21.880  23.109  0.0513  0.1413  0.0676
  438BOLB   C1D10509  24.298  22.260  23.041  0.2939  0.6103  0.1004
  438BOLB   C2D10510  23.953  22.513  22.890  0.1224  0.0607 -0.1882
  438BOLB   C3D10511  23.387  22.634  22.884  0.3251  0.1813  0.1822
  438BOLB   C4D10512  23.139  22.814  22.539 -0.3603  0.1224  0.1457
  439BOLB   NC110513  18.416  14.634  23.952 -0.0902  0.1854  0.3152
  439BOLB   PO110514  18.914  14.560  24.032 -0.1004  0.1144  0.1056
  439BOLB   GL110515  19.121  14.580  24.331 -0.0333 -0.0106  0.0797
  439BOLB   GL210516  19.484  14.559  24.278  0.5129 -0.1131  0.1054
  439BOLB   C1A10517  19.267  14.449  24.734  0.0176  0.1358 -0.1047
  439BOLB   C2A10518  19.333  14.259  25.155  0.1501 -0.1142 -0.3533
  439BOLB   C3A10519  19.694  13.965  25.282 -0.0758 -0.0380 -0.1421
  439BOLB   C4A10520  20.153  13.770  25.276 -0.2288 -0.1304  0.0839
  439BOLB   C1B10521  19.691  14.331  24.568  0.1848  0.2735  0.1390
  439BOLB   C2B10522  19.789  14.411  24.995 -0.0931  0.0991 -0.0125
  439BOLB   C3B10523  20.086  14.292  25.183 -0.2734 -0.0534  0.0442
  439BOLB   C4B10524  20.559  14.205  25.254 -0.1929  0.0777  0.0402
  439BOLB   NC210525  20.851  11.626  27.293 -0.0932 -0.1190 -0.2351
  439BOLB   PO210526  20.979  11.992  26.928 -0.1157  0.0116 -0.0183
  439BOLB   GL310527  20.952  12.282  26.469 -0.2246 -0.0817  0.0568
  439BOLB   GL410528  20.912  12.117  26.153  0.0653 -0.1998 -0.0047
  439BOLB   C1C10529  20.768  12.584  26.317  0.3651  0.3785  0.1967
  439BOLB   C2C10530  20.601  12.808  25.970  0.1192 -0.3957  0.2298
  439BOLB   C3C10531  20.540  13.124  25.591 -0.2800 -0.4020  0.0495
  439BOLB   C4C10532  20.454  13.486  25.495  0.3616 -0.4369  0.3866
  439BOLB   C1D10533  20.519  12.209  26.035 -0.0196  0.0265  0.2507
  439BOLB   C2D10534  20.104  12.144  26.233  0.0432 -0.0647  0.0044
  439BOLB   C3D10535  19.647  12.454  26.270 -0.1787 -0.0350 -0.0224
  439BOLB   C4D10536  19.362  12.459  26.611 -0.1014 -0.0270  0.0589
  440BOLB   NC110537   9.055  20.912  24.035  0.1220  0.3554 -0.0278
  440BOLB   PO110538   9.399  21.155  24.064  0.4237 -0.2533 -0.0715
  440BOLB   GL110539   9.523  20.988  24.481  0.0560 -0.0753 -0.0858
  440BOLB   GL210540   9.378  20.724  24.571  0.0688 -0.0577  0.2206
  440BOLB   C1A10541   9.317  20.975  24.954  0.1844  0.1123 -0.0712
  440BOLB   C2A10542   9.249  20.979  25.290  0.2148 -0.2833 -0.0480
  440BOLB   C3A10543   9.347  20.954  25.703  0.2853  0.2135  0.1986
  440BOLB   C4A10544   9.334  20.952  26.111 -0.1469  0.1498 -0.1672
  440BOLB   C1B10545   9.709  20.669  24.921  0.1147  0.1128 -0.2480
  440BOLB   C2B10546   9.758  20.926  25.332  0.1399 -0.0378 -0.0019
  440BOLB   C3B10547   9.766  20.760  25.843 -0.2354  0.0255  0.0319
  440BOLB   C4B10548   9.857  20.401  25.995 -0.0064  0.1618 -0.1024
  440BOLB   NC210549   8.980  20.638  28.609  0.0989  0.0977  0.0294
  440BOLB   PO210550   8.683  20.708  28.295  0.0522  0.1874  0.2277
  440BOLB   GL310551   8.840  20.882  27.893  0.4079  0.0514  0.0497
  440BOLB   GL410552   8.527  21.030  27.789  0.1923  0.4379 -0.1349
  440BOLB   C1C10553   8.880  20.857  27.459 -0.3235 -0.1699 -0.1368
  440BOLB   C2C10554   8.850  20.998  27.112  0.0636 -0.0097  0.0830
  440BOLB   C3C10555   8.808  21.006  26.804  0.1502 -0.1268  0.0043
  440BOLB   C4C10556   9.077  20.881  26.479  0.2939  0.2309  0.0347
  440BOLB   C1D10557   8.410  21.190  27.410  0.1417 -0.1271 -0.1040
  440BOLB   C2D10558   8.306  21.370  27.029 -0.0023  0.0818  0.1707
  440BOLB   C3D10559   8.452  21.220  26.538  0.1104  0.0628 -0.0501
  440BOLB   C4D10560   8.754  21.112  26.155 -0.1648  0.1968  0.0042
  441BOLB   NC110561  18.075  14.213  23.803 -0.1301  0.2111  0.2057
  441BOLB   PO110562  18.017  14.769  23.739  0.0487  0.1797 -0.0050
  441BOLB   GL110563  18.001  14.673  24.197 -0.2390 -0.2531 -0.0048
  441BOLB   GL210564  18.143  14.339  24.294  0.0865 -0.1848 -0.2568
  441BOLB   C1A10565  18.187  14.793  24.620 -0.0521  0.0306  0.1314
  441BOLB   C2A10566  18.390  14.651  24.963 -0.0970  0.0341  0.0894
  441BOLB   C3A10567  18.565  14.602  25.445 -0.1950  0.1985 -0.0603
  441BOLB   C4A10568  18.740  14.649  25.877  0.1869  0.2467 -0.0532
  441BOLB   C1B10569  18.251  14.212  24.712  0.3654 -0.2132 -0.0760
  441BOLB   C2B10570  18.265  14.012  25.148  0.2117  0.2431 -0.1167
  441BOLB   C3B10571  18.458  13.823  25.428  0.0485 -0.0111  0.1317
  441BOLB   C4B10572  18.913  13.749  25.665 -0.0447  0.3488  0.1217
  441BOLB   NC210573  17.981  13.838  28.204  0.4043 -0.2426  0.1876
  441BOLB   PO210574  18.292  14.013  27.956 -0.2508  0.0258  0.1757
  441BOLB   GL310575  18.392  13.785  27.615 -0.2189  0.0866 -0.1402
  441BOLB   GL410576  18.108  13.630  27.510  0.3576 -0.0674  0.0112
  441BOLB   C1C10577  18.473  13.881  27.218  0.0408 -0.0563 -0.1203
  441BOLB   C2C10578  18.546  14.085  26.900  0.1498 -0.0748  0.2167
  441BOLB   C3C10579  18.564  14.331  26.607 -0.0334  0.1769 -0.1496
  441BOLB   C4C10580  18.662  14.537  26.249  0.0111 -0.0039  0.1069
  441BOLB   C1D10581  17.912  13.845  27.094 -0.1954  0.2563 -0.0486
  441BOLB   C2D10582  18.087  13.889  26.630 -0.0390  0.4305 -0.3392
  441BOLB   C3D10583  17.816  13.850  26.250  0.0601 -0.1218 -0.0715
  441BOLB   C4D10584  17.359  13.896  26.263 -0.2967  0.0577  0.1691
  442BOLB   NC110585  10.135  12.637  22.914  0.4524  0.0131 -0.3111
  442BOLB   PO110586   9.745  12.748  23.097 -0.3253 -0.3392  0.0569
  442BOLB   GL110587   9.538  12.440  23.395 -0.1524 -0.1834  0.0931
  442BOLB   GL210588   9.641  12.228  23.707 -0.1711 -0.1136 -0.1165
  442BOLB   C1A10589   9.185  12.325  23.571  0.1416  0.0841  0.0556
  442BOLB   C2A10590   9.115  11.993  23.931 -0.0096  0.0369 -0.2968
  442BOLB   C3A10591   8.760  11.722  24.202  0.1531  0.0131  0.2312
  442BOLB   C4A10592   8.417  11.631  24.369  0.1351 -0.1505 -0.0664
  442BOLB   C1B10593   9.771  11.868  23.542 -0.1851  0.1297 -0.3171
  442BOLB   C2B10594   9.731  11.409  23.527  0.2025  0.0056 -0.0356
  442BOLB   C3B10595   9.548  11.108  23.732 -0.0145 -0.0154  0.0750
  442BOLB   C4B10596   9.158  10.920  24.050 -0.0668 -0.2314 -0.2689
  442BOLB   NC210597   7.735   9.199  24.287 -0.0751 -0.1302 -0.0417
  442BOLB   PO210598   7.693   9.577  24.340 -0.2984 -0.3380 -0.1455
  442BOLB   GL310599   7.670   9.974  24.157 -0.0284 -0.0773 -0.0198
  442BOLB   GL410600   7.498   9.824  23.903  0.2472  0.3067 -0.0865
  442BOLB   C1C10601   7.938  10.383  24.098  0.0345 -0.5788  0.0678
  442BOLB   C2C10602   7.771  10.769  24.192 -0.2640 -0.0491  0.0777
  442BOLB   C3C10603   7.767  11.178  24.321  0.1496 -0.2631  0.2125
  442BOLB   C4C10604   8.045  11.570  24.279  0.0670  0.0421  0.2278
  442BOLB   C1D10605   7.727  10.049  23.659 -0.0892  0.1836  0.1847
  442BOLB   C2D10606   7.792  10.406  23.601  0.0004  0.0322  0.1899
  442BOLB   C3D10607   8.145  10.747  23.796 -0.0473  0.1537 -0.1357
  442BOLB   C4D10608   8.105  11.108  23.950  0.0146 -0.0214  0.2353
  443BOLB   NC110609  19.638  19.289  23.893  0.3103  0.1486  0.1891
  443BOLB   PO110610  19.640  19.650  23.520  0.3393  0.2835  0.0292
  443BOLB   GL110611  19.835  19.764  23.993 -0.2256 -0.0365 -0.0463
  443BOLB   GL210612  20.172  19.913  24.127 -0.0414 -0.0161  0.0242
  443BOLB   C1A10613  19.787  19.799  24.506  0.1561  0.1304  0.0966
  443BOLB   C2A10614  19.992  19.768  24.846  0.0938  0.2746 -0.1293
  443BOLB   C3A10615  20.166  19.693  25.129  0.4090  0.2321 -0.0473
  443BOLB   C4A10616  20.351  19.870  25.487 -0.0854 -0.1482 -0.1654
  443BOLB   C1B10617  20.267  19.968  24.539  0.0706  0.0126  0.0593
  443BOLB   C2B10618  20.541  20.012  24.954  0.0414  0.3623  0.0044
  443BOLB   C3B10619  20.855  20.056  25.270 -0.1187  0.0093 -0.3801
  443BOLB   C4B10620  21.293  20.306  25.248  0.0849 -0.0268  0.0240
  443BOLB   NC210621  21.086  19.380  27.948  0.1365  0.1041  0.0411
  443BOLB   PO210622  21.240  19.759  27.892 -0.0769 -0.3444  0.1672
  443BOLB   GL310623  21.069  19.615  27.396  0.0794 -0.0276 -0.0699
  443BOLB   GL410624  20.761  19.365  27.550 -0.1804 -0.1200  0.0322
  443BOLB   C1C10625  20.841  19.813  27.020  0.3856 -0.1349  0.3864
  443BOLB   C2C10626  20.857  19.661  26.625 -0.2318 -0.0202 -0.0111
  443BOLB   C3C10627  20.597  19.703  26.169 -0.5661  0.0128 -0.0270
  443BOLB   C4C10628  20.482  19.930  25.875 -0.2849  0.0455 -0.1918
  443BOLB   C1D10629  20.523  19.070  27.344  0.1925  0.2370 -0.2513
  443BOLB   C2D10630  20.114  18.980  27.152  0.1705 -0.0596 -0.1472
  443BOLB   C3D10631  19.731  18.986  27.145  0.2619  0.2220 -0.0611
  443BOLB   C4D10632  19.618  18.754  26.793 -0.1543  0.0609  0.0685
  444BOLB   NC110633  11.077  19.065  24.439 -0.0572  0.3242  0.0678
  444BOLB   PO110634  10.951  18.624  24.514 -0.1750 -0.1098 -0.1340
  444BOLB   GL110635  10.738  18.755  24.826 -0.1275  0.0477 -0.0520
  444BOLB   GL210636  11.045  19.025  24.975 -0.1883 -0.1273 -0.0647
  444BOLB   C1A10637  10.767  18.662  25.212 -0.0340 -0.0523 -0.3612
  444BOLB   C2A10638  11.031  18.695  25.486 -0.2084  0.1584 -0.0372
  444BOLB   C3A10639  11.229  18.833  25.829  0.0643  0.1310 -0.1695
  444BOLB   C4A10640  11.356  18.789  26.268  0.3937  0.0754 -0.0182
  444BOLB   C1B10641  11.188  19.150  25.371  0.0077 -0.3021 -0.0542
  444BOLB   C2B10642  11.268  19.351  25.800  0.0617 -0.2475  0.1413
  444BOLB   C3B10643  11.253  19.270  26.215  0.1237 -0.1552 -0.3128
  444BOLB   C4B10644  11.109  19.275  26.609 -0.0998 -0.1244  0.2746
  444BOLB   NC210645  10.903  18.276  29.140  0.0338  0.1396 -0.0765
  444BOLB   PO210646  10.786  18.207  28.669  0.0660  0.1388  0.0793
  444BOLB   GL310647  10.891  18.442  28.282  0.0597 -0.0782 -0.0275
  444BOLB   GL410648  11.270  18.619  28.274 -0.2632  0.0335  0.0171
  444BOLB   C1C10649  10.911  18.438  27.885 -0.1190 -0.0015 -0.0126
  444BOLB   C2C10650  11.034  18.527  27.482 -0.1841  0.2280 -0.3229
  444BOLB   C3C10651  11.183  18.531  27.081 -0.1864 -0.1081 -0.0122
  444BOLB   C4C10652  11.345  18.680  26.690  0.1622 -0.2244  0.0735
  444BOLB   C1D10653  11.387  18.593  27.833  0.0177 -0.1557  0.0246
  444BOLB   C2D10654  11.436  18.275  27.557 -0.1368  0.4075 -0.2438
  444BOLB   C3D10655  11.520  17.976  27.336  0.0223 -0.1829  0.0580
  444BOLB   C4D10656  11.692  17.863  27.001  0.3253 -0.2090  0.1341
  445BOLB   NC110657  10.303  13.943  24.001  0.2185  0.0822  0.0205
  445BOLB   PO110658   9.974  13.750  23.787  0.1488  0.3830 -0.0082
  445BOLB   GL110659   9.934  13.719  24.238 -0.2759  0.1330 -0.2340
  445BOLB   GL210660   9.663  13.975  24.398  0.0169  0.2780  0.0877
  445BOLB   C1A10661   9.980  13.509  24.628 -0.0597  0.0705  0.2684
  445BOLB   C2A10662  10.178  13.457  25.018  0.0836  0.2462 -0.0111
  445BOLB   C3A10663  10.190  13.750  25.373 -0.3644  0.0601  0.3158
  445BOLB   C4A10664  10.127  13.581  25.726  0.0059  0.1617 -0.2299
  445BOLB   C1B10665   9.515  13.578  24.497 -0.1183  0.1227  0.0186
  445BOLB   C2B10666   9.413  13.496  24.958  0.2787 -0.0687 -0.1451
  445BOLB   C3B10667   9.534  13.170  25.192 -0.0390 -0.0723  0.0572
  445BOLB   C4B10668   9.538  12.777  25.182 -0.3080  0.3573 -0.1951
  445BOLB   NC210669   9.469  12.766  27.621  0.0194  0.1369  0.1362
  445BOLB   PO210670   9.840  12.761  27.918  0.0521 -0.1468  0.0182
  445BOLB   GL310671   9.974  13.011  27.639 -0.1494 -0.2009 -0.3479
  445BOLB   GL410672  10.323  13.116  27.671  0.0891 -0.1050 -0.3572
  445BOLB   C1C10673  10.035  13.300  27.274  0.5145 -0.2811 -0.1412
  445BOLB   C2C10674   9.890  13.603  26.946  0.0979 -0.1657 -0.1789
  445BOLB   C3C10675   9.933  13.738  26.528 -0.0123  0.0059 -0.0742
  445BOLB   C4C10676   9.947  13.639  26.147 -0.1987 -0.1317 -0.1044
  445BOLB   C1D10677  10.416  13.004  27.339  0.0788  0.0539 -0.0424
  445BOLB   C2D10678  10.388  13.101  26.986 -0.0691  0.1488  0.5471
  445BOLB   C3D10679  10.281  12.854  26.769  0.1739 -0.1118 -0.1491
  445BOLB   C4D10680  10.165  12.576  26.434 -0.0385  0.2131 -0.0181
  446BOLB   NC110681  21.294  22.630  20.383 -0.1631  0.3466  0.0314
  446BOLB   PO110682  21.622  22.927  20.596  0.3016  0.2627  0.0414
  446BOLB   GL110683  21.672  23.316  20.806 -0.3823  0.1871  0.1022
  446BOLB   GL210684  21.535  23.587  20.596  0.3390  0.0385  0.0364
  446BOLB   C1A10685  22.032  23.510  20.923  0.0308  0.0953  0.3010
  446BOLB   C2A10686  22.244  23.851  21.019  0.1578  0.0724 -0.0830
  446BOLB   C3A10687  22.381  24.149  20.669 -0.1429 -0.3737 -0.0250
  446BOLB   C4A10688  22.467  24.540  20.583 -0.1425 -0.0672 -0.1226
  446BOLB   C1B10689  21.947  23.870  20.536 -0.2402 -0.2316  0.1699
  446BOLB   C2B10690  22.005  24.267  20.340 -0.0944 -0.4374 -0.1399
  446BOLB   C3B10691  22.135  24.589  20.178  0.0108 -0.0089 -0.2063
  446BOLB   C4B10692  22.458  24.861  20.166  0.0372  0.2244  0.0294
  446BOLB   NC210693  24.047  26.115  20.648  0.0379 -0.0515  0.3526
  446BOLB   PO210694  24.302  25.670  20.568  0.1094  0.0358  0.1152
  446BOLB   GL310695  23.950  25.590  20.347 -0.4074  0.0782  0.0127
  446BOLB   GL410696  23.675  25.694  20.568 -0.1050 -0.0627 -0.1009
  446BOLB   C1C10697  23.586  25.526  20.108 -0.1462 -0.2166  0.3507
  446BOLB   C2C10698  23.204  25.617  20.395 -0.0609 -0.0033  0.1095
  446BOLB   C3C10699  22.957  25.336  20.513  0.1908  0.1054  0.0924
  446BOLB   C4C10700  22.816  24.857  20.661 -0.2481  0.1891  0.1104
  446BOLB   C1D10701  23.532  25.226  20.483 -0.2182  0.1676  0.0917
  446BOLB   C2D10702  23.539  24.874  20.546  0.0630  0.2255  0.3017
  446BOLB   C3D10703  23.273  24.556  20.647  0.3278 -0.3915  0.2630
  446BOLB   C4D10704  22.944  24.348  20.719 -0.1918  0.2156  0.1872
  447BOLB   NC110705  18.088  17.005  24.331  0.0552  0.2129 -0.0149
  447BOLB   PO110706  18.129  17.519  24.150  0.0185 -0.1498 -0.2621
  447BOLB   GL110707  18.318  17.732  24.464  0.0569 -0.0843 -0.3418
  447BOLB   GL210708  18.540  17.911  24.663 -0.1371 -0.2837  0.2532
  447BOLB   C1A10709  18.099  17.880  24.851  0.1065 -0.1385 -0.0280
  447BOLB   C2A10710  17.976  18.138  25.240 -0.1591  0.2142 -0.1943
  447BOLB   C3A10711  17.943  18.462  25.567  0.1790  0.1493 -0.1898
  447BOLB   C4A10712  17.867  18.529  25.976  0.1994 -0.1176  0.2529
  447BOLB   C1B10713  18.524  17.955  25.098 -0.1288  0.1998 -0.3041
  447BOLB   C2B10714  18.668  17.858  25.426  0.2418 -0.0371  0.0378
  447BOLB   C3B10715  19.113  17.863  25.615  0.2737  0.0333  0.4368
  447BOLB   C4B10716  19.396  18.112  25.726 -0.2221 -0.2269  0.3964
  447BOLB   NC210717  19.722  18.018  28.162 -0.1751 -0.0709 -0.2203
  447BOLB   PO210718  19.392  18.207  28.015 -0.2396  0.1699 -0.1814
  447BOLB   GL310719  19.140  18.420  27.662 -0.2264  0.0772  0.2483
  447BOLB   GL410720  18.821  18.358  27.833 -0.0170  0.1247  0.1561
  447BOLB   C1C10721  18.783  18.559  27.375  0.0358 -0.1344 -0.1448
  447BOLB   C2C10722  18.464  18.675  27.107  0.2639 -0.3621  0.2047
  447BOLB   C3C10723  18.087  18.801  26.812 -0.1434  0.0241  0.0840
  447BOLB   C4C10724  17.849  18.675  26.399  0.2011  0.1207  0.0852
  447BOLB   C1D10725  18.644  18.106  27.447  0.1936  0.1973  0.1284
  447BOLB   C2D10726  18.594  18.137  27.003 -0.0929  0.1055 -0.2128
  447BOLB   C3D10727  18.484  17.874  26.701 -0.2404 -0.1104 -0.1404
  447BOLB   C4D10728  18.734  17.456  26.668 -0.0599 -0.2165  0.0528
  448BOLB   NC110729  15.024  10.176  23.129 -0.0937 -0.0777  0.1506
  448BOLB   PO110730  15.344  10.080  23.170  0.0725 -0.1747 -0.0705
  448BOLB   GL110731  15.485   9.911  23.519  0.3165 -0.2040  0.3229
  448BOLB   GL210732  15.311  10.111  23.801  0.1152  0.2303  0.0725
  448BOLB   C1A10733  15.685   9.663  23.967  0.0403  0.1733 -0.2020
  448BOLB   C2A10734  15.717   9.444  24.316  0.0072 -0.2952  0.1063
  448BOLB   C3A10735  15.420   9.330  24.726  0.0214 -0.2344  0.1156
  448BOLB   C4A10736  15.426   9.168  25.080 -0.1704  0.1879 -0.1693
  448BOLB   C1B10737  15.501  10.103  24.227  0.2998 -0.2438 -0.2345
  448BOLB   C2B10738  15.490   9.975  24.585  0.1380 -0.0654  0.2514
  448BOLB   C3B10739  15.457   9.743  25.024 -0.1785 -0.2384 -0.0345
  448BOLB   C4B10740  15.326   9.605  25.453  0.0477  0.0664 -0.2567
  448BOLB   NC210741  16.334  10.287  27.407 -0.0536 -0.3323  0.1816
  448BOLB   PO210742  16.564   9.934  27.357  0.2794  0.0593  0.0981
  448BOLB   GL310743  16.467   9.879  26.964  0.0520 -0.0744 -0.0312
  448BOLB   GL410744  16.752   9.779  26.719  0.1802  0.0788  0.1499
  448BOLB   C1C10745  16.260   9.791  26.537 -0.3475 -0.2449  0.2112
  448BOLB   C2C10746  15.798   9.545  26.285 -0.4227 -0.0250  0.1648
  448BOLB   C3C10747  15.483   9.339  25.942  0.2790 -0.2760  0.1050
  448BOLB   C4C10748  15.546   9.193  25.521  0.0167  0.2205  0.0830
  448BOLB   C1D10749  16.698  10.037  26.371  0.4697  0.1758  0.2684
  448BOLB   C2D10750  16.493  10.067  25.930 -0.0292  0.1391  0.0976
  448BOLB   C3D10751  16.136  10.135  25.600 -0.0844 -0.0749 -0.2909
  448BOLB   C4D10752  15.758  10.027  25.393  0.2862  0.1963 -0.0603
  449BOLB   NC110753  15.365  21.528  23.953 -0.4633  0.1476  0.1386
  449BOLB   PO110754  15.735  21.354  24.146  0.0387 -0.1164 -0.2843
  449BOLB   GL110755  15.782  21.768  24.375 -0.2133 -0.0896  0.0012
  449BOLB   GL210756  16.110  21.790  24.517 -0.2376 -0.1171  0.1693
  449BOLB   C1A10757  15.587  21.736  24.778  0.0408  0.1331 -0.1723
  449BOLB   C2A10758  15.728  21.786  25.259 -0.1380  0.1082  0.1274
  449BOLB   C3A10759  15.825  21.716  25.663  0.0791  0.1873  0.0080
  449BOLB   C4A10760  15.995  21.619  26.075 -0.1859 -0.0632  0.1258
  449BOLB   C1B10761  16.049  21.927  24.939  0.1104 -0.0555 -0.0119
  449BOLB   C2B10762  16.319  21.898  25.355  0.3419  0.1147  0.1525
  449BOLB   C3B10763  16.386  21.866  25.796 -0.0600 -0.0698  0.2575
  449BOLB   C4B10764  16.329  21.947  26.285  0.0455 -0.0870  0.0828
  449BOLB   NC210765  15.805  22.276  27.905  0.1512 -0.2202 -0.0343
  449BOLB   PO210766  16.206  21.914  28.068  0.2688 -0.0335  0.2692
  449BOLB   GL310767  16.242  21.894  27.592  0.0593  0.1860 -0.1457
  449BOLB   GL410768  16.461  22.140  27.498  0.2305  0.4381  0.3542
  449BOLB   C1C10769  16.427  21.688  27.244 -0.0102 -0.4171  0.2994
  449BOLB   C2C10770  16.421  21.246  26.999  0.2547  0.1209 -0.1323
  449BOLB   C3C10771  16.076  21.146  26.661 -0.3480 -0.1343 -0.2230
  449BOLB   C4C10772  15.893  21.481  26.416  0.0126 -0.1554  0.0349
  449BOLB   C1D10773  16.622  22.327  27.158 -0.1496 -0.2842  0.2346
  449BOLB   C2D10774  16.582  22.626  26.782  0.0149 -0.3095  0.2437
  449BOLB   C3D10775  16.483  22.742  26.355  0.1725 -0.0349  0.1012
  449BOLB   C4D10776  16.506  22.880  25.969 -0.0535 -0.0578 -0.0435
  450BOLB   NC110777  10.759  23.800  22.743  0.1947 -0.0987 -0.2290
  450BOLB   PO110778  11.000  23.568  23.177  0.1996  0.1367  0.1616
  450BOLB   GL110779  10.562  23.725  23.215 -0.2308  0.1994 -0.0998
  450BOLB   GL210780  10.437  24.048  23.041 -0.0964 -0.3057 -0.1167
  450BOLB   C1A10781  10.415  23.907  23.641 -0.3134 -0.1695 -0.0157
  450BOLB   C2A10782  10.284  23.928  24.105  0.2181  0.0742 -0.2283
  450BOLB   C3A10783  10.130  23.943  24.501  0.0139 -0.0153  0.2051
  450BOLB   C4A10784  10.079  24.009  25.017  0.1337  0.0449  0.3177
  450BOLB   C1B10785  10.395  24.433  23.150 -0.1780  0.3359 -0.4045
  450BOLB   C2B10786  10.513  24.710  23.465 -0.1255 -0.4606  0.2770
  450BOLB   C3B10787  10.511  24.908  23.958  0.1797  0.1901 -0.0948
  450BOLB   C4B10788  10.245  25.022  24.261  0.2313  0.0623  0.1551
  450BOLB   NC210789  11.287  24.684  27.540  0.1361  0.1722  0.1441
  450BOLB   PO210790  11.102  24.877  27.169  0.3386  0.3534 -0.1923
  450BOLB   GL310791  11.033  24.835  26.733 -0.1258  0.0202 -0.1400
  450BOLB   GL410792  11.251  24.840  26.611 -0.0136 -0.1851 -0.3251
  450BOLB   C1C10793  10.864  24.925  26.335  0.2939  0.0734 -0.1674
  450BOLB   C2C10794  10.657  24.779  25.944  0.0831  0.1160 -0.0144
  450BOLB   C3C10795  10.502  24.480  25.636 -0.0648 -0.0894 -0.1845
  450BOLB   C4C10796  10.246  24.254  25.405  0.0504  0.1783 -0.0757
  450BOLB   C1D10797  11.456  24.890  26.313 -0.0918 -0.0969 -0.0157
  450BOLB   C2D10798  11.249  24.837  25.951  0.0436  0.1732 -0.1105
  450BOLB   C3D10799  11.041  24.715  25.552 -0.3753 -0.0158 -0.0834
  450BOLB   C4D10800  10.929  24.467  25.254 -0.1414 -0.0660  0.1292
  451BOLB   NC110801  18.911   8.876  21.215  0.0297  0.1258  0.3046
  451BOLB   PO110802  19.085   9.137  20.902 -0.3342  0.0101  0.2863
  451BOLB   GL110803  19.467   8.822  21.065  0.0238  0.0534  0.1032
  451BOLB   GL210804  19.721   8.740  20.848 -0.1437 -0.2397 -0.0228
  451BOLB   C1A10805  19.485   8.328  21.248  0.1124 -0.3003 -0.2385
  451BOLB   C2A10806  19.783   8.046  21.468  0.1787  0.3700 -0.1372
  451BOLB   C3A10807  19.795   7.882  21.828 -0.4714  0.2090  0.2095
  451BOLB   C4A10808  20.023   7.874  22.170 -0.1947  0.0694 -0.0122
  451BOLB   C1B10809  19.921   8.637  21.176  0.0282  0.3397  0.0347
  451BOLB   C2B10810  20.135   8.517  21.521  0.1964  0.1646  0.1094
  451BOLB   C3B10811  20.301   8.169  21.804 -0.0581 -0.3544  0.0454
  451BOLB   C4B10812  20.526   8.054  22.103 -0.0058 -0.0745  0.1408
  451BOLB   NC210813  21.419   6.747  23.747  0.0436 -0.2646  0.1697
  451BOLB   PO210814  20.981   6.779  23.975 -0.0241  0.3156 -0.1322
  451BOLB   GL310815  20.696   7.118  23.953 -0.1924  0.1842 -0.2117
  451BOLB   GL410816  20.349   7.077  24.077  0.0243  0.0824 -0.2591
  451BOLB   C1C10817  20.529   7.399  23.688 -0.4138 -0.0421  0.2977
  451BOLB   C2C10818  20.261   7.411  23.314  0.1955  0.1830 -0.1649
  451BOLB   C3C10819  20.287   7.716  22.931  0.0001 -0.0827  0.2100
  451BOLB   C4C10820  20.183   7.688  22.523 -0.3540 -0.0131 -0.1333
  451BOLB   C1D10821  20.099   7.187  23.851 -0.1947 -0.1198 -0.0750
  451BOLB   C2D10822  20.030   7.564  23.780  0.3114  0.3130  0.0769
  451BOLB   C3D10823  19.737   7.822  23.594 -0.1336 -0.2714 -0.1679
  451BOLB   C4D10824  19.416   7.877  23.328  0.1795  0.0586  0.1845
  452BOLB   NC110825  13.070  15.222  24.223  0.0307  0.0418  0.0241
  452BOLB   PO110826  13.325  15.375  24.576 -0.0864 -0.3653  0.1613
  452BOLB   GL110827  13.364  15.209  24.978  0.2100 -0.4599  0.0185
  452BOLB   GL210828  13.498  15.023  25.194  0.0635 -0.2225 -0.0624
  452BOLB   C1A10829  13.238  15.561  25.366  0.1951  0.0942 -0.2453
  452BOLB   C2A10830  13.105  15.954  25.543 -0.1125  0.0546  0.1633
  452BOLB   C3A10831  12.820  16.216  25.835 -0.1154 -0.0762 -0.2934
  452BOLB   C4A10832  12.979  16.212  26.327  0.2898  0.1356 -0.1075
  452BOLB   C1B10833  13.719  15.183  25.489 -0.2166 -0.1609 -0.1259
  452BOLB   C2B10834  13.878  15.253  25.959  0.1905 -0.2848 -0.1134
  452BOLB   C3B10835  14.044  15.460  26.347  0.1758 -0.0363  0.0069
  452BOLB   C4B10836  14.256  15.459  26.793  0.0121  0.1621 -0.0680
  452BOLB   NC210837  12.470  15.392  29.129  0.0309 -0.2810 -0.1919
  452BOLB   PO210838  12.463  15.460  28.689 -0.1627  0.2792 -0.1841
  452BOLB   GL310839  12.691  15.659  28.310  0.1855 -0.1662  0.0758
  452BOLB   GL410840  12.636  15.517  28.024  0.0041 -0.0757 -0.0056
  452BOLB   C1C10841  12.936  15.868  27.969  0.0245  0.2385  0.0885
  452BOLB   C2C10842  12.846  15.926  27.557  0.0230 -0.0418  0.2961
  452BOLB   C3C10843  12.758  16.009  27.148 -0.1266  0.4363  0.0716
  452BOLB   C4C10844  12.824  16.266  26.769 -0.0032 -0.1618  0.1615
  452BOLB   C1D10845  12.492  15.593  27.633  0.1195  0.1977 -0.2954
  452BOLB   C2D10846  12.419  15.569  27.182  0.0485 -0.1632  0.0587
  452BOLB   C3D10847  12.413  15.622  26.786  0.0756 -0.1083  0.4002
  452BOLB   C4D10848  12.690  15.785  26.555  0.0856 -0.3047 -0.0196
  453BOLB   NC110849  11.377  21.788  24.186 -0.4506  0.1661 -0.0198
  453BOLB   PO110850  11.741  21.726  24.364  0.6334 -0.1653  0.4124
  453BOLB   GL110851  11.893  21.897  24.676 -0.1255 -0.2692  0.1273
  453BOLB   GL210852  12.157  21.961  24.506  0.0608  0.0325 -0.2584
  453BOLB   C1A10853  11.965  22.018  25.132 -0.1506  0.0540 -0.1302
  453BOLB   C2A10854  11.817  21.882  25.457 -0.0865 -0.0040 -0.1642
  453BOLB   C3A10855  11.988  21.754  25.943  0.1759 -0.1624  0.2473
  453BOLB   C4A10856  12.053  22.094  26.209 -0.2415  0.0039  0.3757
  453BOLB   C1B10857  12.155  22.366  24.759  0.2521  0.3720 -0.2044
  453BOLB   C2B10858  12.261  22.808  24.913 -0.3525  0.0337  0.1365
  453BOLB   C3B10859  12.007  23.182  25.024  0.1962 -0.0077 -0.3102
  453BOLB   C4B10860  11.940  23.435  25.392 -0.0430 -0.1148  0.1550
  453BOLB   NC210861  12.455  23.037  28.306  0.3017  0.0058  0.0829
  453BOLB   PO210862  12.349  23.425  28.117  0.1138 -0.1360 -0.1434
  453BOLB   GL310863  12.122  23.141  27.897 -0.0244 -0.2039 -0.0315
  453BOLB   GL410864  12.113  23.181  27.533 -0.2134 -0.1776 -0.1816
  453BOLB   C1C10865  11.804  22.827  27.751  0.3033 -0.3358 -0.3760
  453BOLB   C2C10866  11.701  22.482  27.417 -0.0264  0.1400  0.0504
  453BOLB   C3C10867  11.646  22.332  27.007 -0.2248 -0.1671 -0.0002
  453BOLB   C4C10868  11.758  22.189  26.540  0.2635 -0.2218  0.1633
  453BOLB   C1D10869  12.439  23.034  27.416  0.0779  0.1871 -0.2583
  453BOLB   C2D10870  12.944  23.010  27.341 -0.1329  0.1584 -0.2561
  453BOLB   C3D10871  13.455  22.880  27.193 -0.0146 -0.1975 -0.3163
  453BOLB   C4D10872  13.780  23.070  26.989 -0.2078  0.1439  0.0995
  454BOLB   NC110873  22.382  13.529  21.705  0.1045 -0.1724  0.0891
  454BOLB   PO110874  22.200  13.951  21.673  0.0857  0.0645  0.0266
  454BOLB   GL110875  22.516  13.992  21.952 -0.1294  0.0635  0.2259
  454BOLB   GL210876  22.671  14.147  22.021  0.0499 -0.0102  0.2768
  454BOLB   C1A10877  22.588  13.637  22.273 -0.1747  0.1351  0.1036
  454BOLB   C2A10878  22.878  13.644  22.611  0.1756 -0.2595  0.0403
  454BOLB   C3A10879  23.004  13.399  22.884  0.0167  0.0460  0.0258
  454BOLB   C4A10880  23.230  13.313  23.157 -0.1718 -0.1557  0.2250
  454BOLB   C1B10881  23.055  13.881  22.190 -0.1797 -0.3735  0.1163
  454BOLB   C2B10882  23.374  13.907  22.403  0.0271 -0.0417  0.1094
  454BOLB   C3B10883  23.473  13.760  22.875 -0.1216 -0.0186 -0.1330
  454BOLB   C4B10884  23.609  13.772  23.251  0.1442  0.0479  0.0025
  454BOLB   NC210885  23.651  12.928  25.428 -0.2048 -0.1869  0.0512
  454BOLB   PO210886  23.401  13.210  25.675 -0.1366 -0.0693 -0.0236
  454BOLB   GL310887  23.208  13.054  25.349  0.0657 -0.3583  0.1980
  454BOLB   GL410888  22.849  13.120  25.444  0.0174 -0.1385  0.1027
  454BOLB   C1C10889  23.052  13.098  24.949 -0.3751  0.0930  0.1411
  454BOLB   C2C10890  23.123  13.137  24.521  0.3352  0.1692 -0.3178
  454BOLB   C3C10891  22.997  13.402  24.138  0.0207  0.0547 -0.0235
  454BOLB   C4C10892  23.046  13.398  23.643 -0.3298 -0.4912  0.1941
  454BOLB   C1D10893  22.638  12.794  25.079 -0.2232  0.1257 -0.3666
  454BOLB   C2D10894  22.648  12.807  24.614  0.0298  0.0548  0.3101
  454BOLB   C3D10895  22.820  12.878  24.218  0.2254 -0.3002  0.0313
  454BOLB   C4D10896  22.714  13.131  23.879 -0.0394  0.1655  0.0476
  455BOLB   NC110897  13.421  20.915  24.365 -0.1381 -0.0769  0.0077
  455BOLB   PO110898  13.111  21.224  24.278 -0.3652 -0.2247 -0.1871
  455BOLB   GL110899  12.929  21.367  24.649  0.1134 -0.0137  0.2624
  455BOLB   GL210900  13.240  21.270  24.766 -0.1720  0.0659  0.1140
  455BOLB   C1A10901  12.845  21.525  25.098 -0.1442  0.0720 -0.1231
  455BOLB   C2A10902  12.910  21.483  25.447  0.0582  0.0263 -0.0693
  455BOLB   C3A10903  13.258  21.493  25.708 -0.5188  0.1451 -0.0271
  455BOLB   C4A10904  13.439  21.446  26.106  0.0268  0.1603  0.1531
  455BOLB   C1B10905  13.410  21.336  25.077 -0.1979  0.0541 -0.1409
  455BOLB   C2B10906  13.618  21.548  25.376  0.2171 -0.0696  0.1298
  455BOLB   C3B10907  13.758  21.784  25.755 -0.2971 -0.0435  0.3335
  455BOLB   C4B10908  13.828  22.210  25.892  0.0573  0.1775 -0.0957
  455BOLB   NC210909  13.620  21.980  28.233 -0.0347  0.2058  0.3112
  455BOLB   PO210910  13.846  21.664  28.387 -0.1958 -0.1110 -0.0431
  455BOLB   GL310911  13.958  21.235  28.013 -0.0667 -0.2727 -0.2701
  455BOLB   GL410912  14.145  20.939  28.031  0.0680 -0.1283  0.1063
  455BOLB   C1C10913  14.031  21.145  27.584 -0.2330  0.0370 -0.1091
  455BOLB   C2C10914  13.852  21.290  27.235 -0.0123  0.1943  0.1319
  455BOLB   C3C10915  13.891  21.339  26.776  0.0974 -0.0188  0.2283
  455BOLB   C4C10916  13.845  21.574  26.368  0.2228 -0.1614 -0.2516
  455BOLB   C1D10917  14.424  20.849  27.770  0.1243 -0.5195  0.0418
  455BOLB   C2D10918  14.601  20.465  27.524  0.4547 -0.1561 -0.4697
  455BOLB   C3D10919  14.624  20.085  27.336  0.1187  0.1873 -0.2265
  455BOLB   C4D10920  15.041  19.889  27.143  0.1400  0.1178  0.0963
  456BOLB   NC110921  17.709  24.970  22.282  0.0069 -0.1268 -0.1028
  456BOLB   PO110922  17.344  24.789  22.411 -0.1184  0.1110 -0.0853
  456BOLB   GL110923  17.576  24.757  22.869  0.0192 -0.2393  0.0605
  456BOLB   GL210924  17.649  25.029  22.800 -0.2328  0.0117 -0.0889
  456BOLB   C1A10925  17.618  24.806  23.382 -0.0138  0.1674  0.1169
  456BOLB   C2A10926  17.786  24.525  23.806 -0.3500 -0.2765  0.0250
  456BOLB   C3A10927  18.105  24.577  24.148  0.3252 -0.1470  0.0540
  456BOLB   C4A10928  18.372  24.603  24.458 -0.0082 -0.4379  0.0662
  456BOLB   C1B10929  18.005  25.116  23.080 -0.2241  0.0959  0.0266
  456BOLB   C2B10930  17.967  25.178  23.553 -0.0283  0.1057  0.3079
  456BOLB   C3B10931  18.009  25.088  23.910 -0.3338 -0.0609  0.1056
  456BOLB   C4B10932  18.259  25.097  24.373  0.1346 -0.1575 -0.1707
  456BOLB   NC210933  18.752  25.021  26.978  0.0827 -0.1469  0.0419
  456BOLB   PO210934  18.953  24.687  27.006 -0.0852  0.1982 -0.1639
  456BOLB   GL310935  18.863  24.765  26.556  0.0766  0.2351  0.1257
  456BOLB   GL410936  18.550  24.760  26.424  0.0981  0.1273 -0.0460
  456BOLB   C1C10937  18.883  24.590  26.046  0.2908  0.0152  0.1207
  456BOLB   C2C10938  18.730  24.574  25.755  0.2824 -0.3645 -0.0611
  456BOLB   C3C10939  18.403  24.501  25.435 -0.0507  0.0426  0.1199
  456BOLB   C4C10940  18.296  24.421  24.973 -0.2775 -0.2258  0.0732
  456BOLB   C1D10941  18.375  24.454  26.154  0.1266 -0.0230  0.0238
  456BOLB   C2D10942  18.401  24.043  26.208  0.0186  0.1406  0.2718
  456BOLB   C3D10943  18.514  23.667  26.015  0.3549 -0.0552  0.0910
  456BOLB   C4D10944  18.276  23.378  25.795 -0.1829 -0.0413  0.3023
  457BOLB   NC110945  15.745  20.804  23.966  0.0783  0.4406  0.5609
  457BOLB   PO110946  15.238  20.987  23.879  0.0595 -0.1357 -0.2172
  457BOLB   GL110947  15.477  20.942  24.349  0.4951  0.0560  0.1637
  457BOLB   GL210948  15.179  20.897  24.532  0.0177  0.1387  0.2252
  457BOLB   C1A10949  15.595  21.154  24.711  0.0521 -0.2414  0.0943
  457BOLB   C2A10950  15.608  21.322  25.085 -0.1614  0.1626  0.2519
  457BOLB   C3A10951  15.573  21.309  25.482 -0.3141  0.1661  0.0518
  457BOLB   C4A10952  15.576  21.236  25.989  0.0503 -0.3411  0.4919
  457BOLB   C1B10953  15.088  21.172  24.856  0.1506 -0.1817 -0.2237
  457BOLB   C2B10954  15.058  21.139  25.245  0.0518  0.0032 -0.0804
  457BOLB   C3B10955  15.101  21.050  25.644  0.0686  0.0491 -0.3348
  457BOLB   C4B10956  14.967  20.754  25.946 -0.0614  0.0202  0.0612
  457BOLB   NC210957  15.317  21.023  28.629 -0.1466 -0.0710 -0.2470
  457BOLB   PO210958  15.244  20.916  28.212  0.2678  0.0260  0.2268
  457BOLB   GL310959  15.232  20.715  27.751  0.0016  0.3146 -0.0279
  457BOLB   GL410960  15.216  20.432  27.716 -0.1555  0.3911 -0.0814
  457BOLB   C1C10961  15.375  20.897  27.430 -0.2811  0.3709 -0.2776
  457BOLB   C2C10962  15.564  20.772  27.063 -0.0552  0.2050  0.1043
  457BOLB   C3C10963  15.584  20.829  26.661 -0.0231 -0.0303  0.2186
  457BOLB   C4C10964  15.765  20.977  26.291 -0.2875  0.2328 -0.3320
  457BOLB   C1D10965  15.197  20.400  27.269  0.1059 -0.2537  0.1956
  457BOLB   C2D10966  15.213  20.482  26.852 -0.2332 -0.2857  0.0775
  457BOLB   C3D10967  14.887  20.520  26.467  0.3680  0.3588  0.2891
  457BOLB   C4D10968  14.538  20.561  26.326  0.0302  0.1587  0.1081
  458BOLB   NC110969  18.691  15.078  23.860  0.0994 -0.0664 -0.1221
  458BOLB   PO110970  18.494  15.536  23.832  0.1290 -0.0206  0.2236
  458BOLB   GL110971  18.614  15.509  24.362  0.2885 -0.0015 -0.1831
  458BOLB   GL210972  18.352  15.300  24.569 -0.0870 -0.2732 -0.2202
  458BOLB   C1A10973  18.802  15.512  24.749  0.3739  0.0849 -0.4879
  458BOLB   C2A10974  19.069  15.392  25.047  0.5775  0.2494  0.1464
  458BOLB   C3A10975  19.294  15.191  25.395  0.0972 -0.0582  0.2598
  458BOLB   C4A10976  19.453  15.076  25.750  0.1767 -0.0475 -0.1531
  458BOLB   C1B10977  18.656  15.080  24.915  0.2220  0.2204 -0.3043
  458BOLB   C2B10978  18.792  15.098  25.334  0.2393  0.6347  0.3386
  458BOLB   C3B10979  18.889  15.110  25.686 -0.1666 -0.0437 -0.0451
  458BOLB   C4B10980  19.071  15.015  26.026 -0.3988  0.0380 -0.3689
  458BOLB   NC210981  20.410  14.919  27.880 -0.0548 -0.1565  0.0201
  458BOLB   PO210982  20.651  15.201  27.503 -0.0691  0.5049  0.1265
  458BOLB   GL310983  20.446  15.240  27.177 -0.0490  0.0267 -0.0965
  458BOLB   GL410984  20.691  15.159  26.932  0.0942  0.0040  0.0638
  458BOLB   C1C10985  20.083  15.056  27.050  0.5601 -0.0220  0.0008
  458BOLB   C2C10986  19.933  14.808  26.725  0.0308  0.1349 -0.2486
  458BOLB   C3C10987  19.878  14.592  26.434  0.1088 -0.0684  0.2154
  458BOLB   C4C10988  19.615  14.822  26.100  0.1682 -0.0101  0.0378
  458BOLB   C1D10989  20.401  14.983  26.638 -0.1701  0.1700 -0.1492
  458BOLB   C2D10990  20.344  14.800  26.158 -0.2351 -0.1606  0.0212
  458BOLB   C3D10991  20.616  14.704  25.792  0.0739  0.2240  0.4341
  458BOLB   C4D10992  20.887  14.490  25.579 -0.0589 -0.1013 -0.0813
  459BOLB   NC110993   9.897  18.890  24.160  0.0625  0.0360  0.1106
  459BOLB   PO110994   9.502  18.667  24.336 -0.0312  0.1456  0.2306
  459BOLB   GL110995   9.388  18.733  24.734 -0.0706 -0.3975  0.1773
  459BOLB   GL210996   9.755  18.690  24.774 -0.0965 -0.1948 -0.1794
  459BOLB   C1A10997   9.300  18.756  25.123  0.0082  0.0343  0.0558
  459BOLB   C2A10998   8.954  18.885  25.335 -0.2127  0.0349 -0.1795
  459BOLB   C3A10999   8.566  18.969  25.533 -0.0946  0.2139  0.0851
  459BOLB   C4A11000   8.224  18.793  25.803 -0.1946  0.2088 -0.1284
  459BOLB   C1B11001   9.791  18.670  25.231 -0.0043  0.3272  0.2953
  459BOLB   C2B11002   9.642  18.656  25.605  0.0340  0.1539 -0.1092
  459BOLB   C3B11003   9.233  18.671  25.719 -0.0968  0.2699  0.1116
  459BOLB   C4B11004   8.847  18.761  25.901 -0.0957 -0.1081 -0.0950
  459BOLB   NC211005   9.037  19.250  28.084 -0.0424  0.0078  0.0397
  459BOLB   PO211006   8.796  18.965  28.221 -0.0209 -0.1873  0.1540
  459BOLB   GL311007   8.977  18.784  27.850 -0.1359 -0.2536 -0.1709
  459BOLB   GL411008   9.260  18.739  27.795  0.1647  0.2945  0.0186
  459BOLB   C1C11009   8.867  18.444  27.333 -0.0369  0.3570 -0.0247
  459BOLB   C2C11010   8.705  18.245  26.931  0.0335 -0.1457 -0.4483
  459BOLB   C3C11011   8.572  18.289  26.494  0.0291 -0.2304  0.3084
  459BOLB   C4C11012   8.310  18.497  26.170  0.0570  0.0533 -0.1955
  459BOLB   C1D11013   9.450  18.502  27.472  0.0934 -0.0256 -0.0627
  459BOLB   C2D11014   9.724  18.278  27.272 -0.0410  0.2209 -0.3010
  459BOLB   C3D11015   9.802  18.039  26.893 -0.0303  0.1762  0.0915
  459BOLB   C4D11016   9.948  17.617  26.706 -0.0889 -0.0820 -0.0008
  460BOLB   NC111017   9.891  19.451  24.019 -0.2022 -0.1980  0.0203
  460BOLB   PO111018   9.520  19.190  24.152  0.2076  0.0258 -0.2840
  460BOLB   GL111019   9.468  19.212  24.662  0.2016 -0.1081  0.1115
  460BOLB   GL211020   9.651  19.154  24.993  0.0096  0.0806  0.3224
  460BOLB   C1A11021   9.130  19.242  25.022  0.0683 -0.2690 -0.2080
  460BOLB   C2A11022   9.286  19.495  25.286  0.2433  0.1058  0.0473
  460BOLB   C3A11023   9.317  19.627  25.754 -0.3339  0.1466 -0.0774
  460BOLB   C4A11024   8.957  19.600  26.049  0.1583 -0.4103 -0.1372
  460BOLB   C1B11025   9.568  19.092  25.399  0.0551 -0.0792 -0.0949
  460BOLB   C2B11026   9.461  19.108  25.781  0.0514 -0.2986 -0.1314
  460BOLB   C3B11027   9.410  18.948  26.147 -0.2851  0.0023 -0.0604
  460BOLB   C4B11028   9.241  18.789  26.508 -0.2592 -0.0223 -0.0485
  460BOLB   NC211029   7.146  18.300  27.732  0.1373 -0.2374 -0.1058
  460BOLB   PO211030   7.520  18.327  27.493 -0.3925  0.0249  0.3456
  460BOLB   GL311031   7.717  18.495  27.146 -0.2280  0.0295  0.3669
  460BOLB   GL411032   7.423  18.707  27.028 -0.2823 -0.0107 -0.0114
  460BOLB   C1C11033   8.025  18.701  26.883 -0.2776  0.1873 -0.1709
  460BOLB   C2C11034   8.308  18.823  26.563 -0.0022  0.2067 -0.4814
  460BOLB   C3C11035   8.615  18.868  26.310  0.2457 -0.1097  0.1745
  460BOLB   C4C11036   8.856  19.197  26.210  0.0172 -0.1277 -0.3052
  460BOLB   C1D11037   7.170  18.601  26.687  0.1437  0.1778 -0.2364
  460BOLB   C2D11038   6.963  18.398  26.369 -0.0508 -0.0821 -0.1848
  460BOLB   C3D11039   6.866  18.405  25.999  0.0531  0.0755  0.1164
  460BOLB   C4D11040   6.602  18.738  25.791 -0.0507 -0.5279 -0.4136
  461BOLB   NC111041  14.621  16.220  24.328  0.1579 -0.0574  0.1279
  461BOLB   PO111042  14.339  15.927  24.465  0.0888 -0.0368 -0.0438
  461BOLB   GL111043  14.597  15.918  24.865  0.2325 -0.1236  0.2538
  461BOLB   GL211044  14.832  16.016  24.875 -0.5304 -0.2498  0.0507
  461BOLB   C1A11045  14.545  15.974  25.370 -0.1202  0.3026  0.2031
  461BOLB   C2A11046  14.366  15.875  25.775  0.1133 -0.0648  0.2200
  461BOLB   C3A11047  14.246  16.016  26.155  0.1985  0.0102 -0.3372
  461BOLB   C4A11048  14.083  15.901  26.588 -0.1523  0.3065  0.0965
  461BOLB   C1B11049  15.022  16.164  25.225  0.2020  0.1178  0.1113
  461BOLB   C2B11050  15.190  16.295  25.610  0.1551 -0.0371 -0.2519
  461BOLB   C3B11051  15.497  16.607  25.758 -0.1357 -0.2269  0.0431
  461BOLB   C4B11052  15.758  16.835  25.741  0.2408 -0.1137  0.0116
  461BOLB   NC211053  14.633  16.431  28.699  0.0515  0.0438 -0.3156
  461BOLB   PO211054  14.278  16.133  28.510 -0.0389 -0.0248 -0.2084
  461BOLB   GL311055  14.090  15.974  28.083  0.1985  0.1985 -0.3873
  461BOLB   GL411056  14.370  15.781  27.897 -0.1469 -0.0720 -0.0038
  461BOLB   C1C11057  13.867  15.719  27.827 -0.0651 -0.2070  0.2571
  461BOLB   C2C11058  13.599  15.572  27.584 -0.2960 -0.1577  0.0697
  461BOLB   C3C11059  13.482  15.587  27.139 -0.0927 -0.1169  0.1075
  461BOLB   C4C11060  13.726  15.795  26.825  0.2808  0.0598  0.1691
  461BOLB   C1D11061  14.452  15.293  27.757  0.3045  0.0334  0.1379
  461BOLB   C2D11062  14.450  15.210  27.260 -0.2018 -0.1361  0.1320
  461BOLB   C3D11063  14.784  15.226  27.012  0.4656 -0.1100 -0.0119
  461BOLB   C4D11064  15.169  15.285  26.935 -0.1799 -0.1825  0.0231
  462BOLB   NC111065   9.420  14.688  23.416 -0.1729  0.1310  0.0563
  462BOLB   PO111066   9.785  14.567  23.622 -0.0377  0.0527 -0.1974
  462BOLB   GL111067   9.459  14.601  24.106  0.0136  0.0015 -0.2252
  462BOLB   GL211068   9.185  14.697  24.204 -0.2658 -0.2857 -0.1557
  462BOLB   C1A11069   9.266  14.307  24.547 -0.0540 -0.0347 -0.2073
  462BOLB   C2A11070   9.319  13.970  24.767 -0.1391  0.0356  0.0185
  462BOLB   C3A11071   9.706  13.896  24.895  0.2968  0.2028  0.2901
  462BOLB   C4A11072   9.691  13.610  25.320 -0.0042 -0.2678 -0.1189
  462BOLB   C1B11073   9.246  15.180  24.388  0.4739  0.1525  0.1013
  462BOLB   C2B11074   9.143  15.246  24.780  0.2120 -0.1981  0.1051
  462BOLB   C3B11075   9.021  15.105  25.181 -0.0230 -0.3827 -0.0077
  462BOLB   C4B11076   8.645  14.910  25.503 -0.2235  0.0275 -0.1130
  462BOLB   NC211077   8.453  12.490  27.604 -0.1804 -0.2508 -0.0327
  462BOLB   PO211078   8.959  12.641  27.537  0.1341  0.4989  0.0350
  462BOLB   GL311079   8.956  12.753  26.970 -0.2584 -0.1723  0.0442
  462BOLB   GL411080   8.843  12.437  26.725 -0.2214 -0.0806  0.1977
  462BOLB   C1C11081   9.168  12.906  26.582  0.0769 -0.0092 -0.1565
  462BOLB   C2C11082   9.252  12.938  26.259  0.0955 -0.2734  0.0849
  462BOLB   C3C11083   9.532  13.341  26.112 -0.2668 -0.0858  0.1738
  462BOLB   C4C11084   9.621  13.485  25.749 -0.1928  0.0435  0.0339
  462BOLB   C1D11085   8.862  12.600  26.328  0.1054 -0.1991  0.2145
  462BOLB   C2D11086   8.919  12.558  25.950  0.1539  0.1001 -0.2260
  462BOLB   C3D11087   8.761  12.452  25.547  0.0152 -0.0379  0.2268
  462BOLB   C4D11088   8.218  12.275  25.428 -0.1018  0.0250 -0.4906
  463BOLB   NC111089  13.502  16.086  24.957 -0.2259 -0.0794 -0.1372
  463BOLB   PO111090  13.700  15.601  24.790 -0.0055 -0.2519  0.1784
  463BOLB   GL111091  13.708  15.647  25.164  0.0193 -0.0073 -0.3869
  463BOLB   GL211092  13.997  15.540  25.208 -0.0380 -0.2211 -0.2209
  463BOLB   C1A11093  13.792  15.729  25.664 -0.2806  0.1100 -0.0198
  463BOLB   C2A11094  13.773  15.866  26.012 -0.2339  0.3737  0.0464
  463BOLB   C3A11095  13.507  15.638  26.317 -0.0157 -0.2532  0.0853
  463BOLB   C4A11096  13.366  15.513  26.612  0.0502  0.1729 -0.0442
  463BOLB   C1B11097  14.263  15.522  25.452  0.2529  0.1957  0.0628
  463BOLB   C2B11098  14.619  15.481  25.713  0.0835 -0.5402  0.1966
  463BOLB   C3B11099  14.687  15.598  26.128  0.0486  0.0502 -0.2755
  463BOLB   C4B11100  14.840  15.425  26.600  0.0493 -0.0939  0.1973
  463BOLB   NC211101  13.809  15.189  28.966  0.0557  0.0453 -0.3506
  463BOLB   PO211102  13.378  15.158  28.744  0.0684 -0.1277  0.0095
  463BOLB   GL311103  13.527  15.378  28.435  0.0842  0.3174 -0.1429
  463BOLB   GL411104  13.831  15.378  28.515  0.0936  0.2626 -0.3169
  463BOLB   C1C11105  13.322  15.484  27.963  0.2931  0.1219 -0.2280
  463BOLB   C2C11106  13.008  15.444  27.686 -0.0530  0.0567  0.2934
  463BOLB   C3C11107  12.941  15.545  27.259 -0.0433 -0.0363  0.2897
  463BOLB   C4C11108  13.060  15.584  26.864 -0.1090 -0.2070  0.1409
  463BOLB   C1D11109  14.028  15.310  28.031 -0.0012 -0.0565  0.1203
  463BOLB   C2D11110  13.973  15.238  27.579 -0.2067 -0.1735 -0.1201
  463BOLB   C3D11111  13.913  15.372  27.213  0.0813  0.2371 -0.2154
  463BOLB   C4D11112  13.788  15.290  26.775 -0.1897  0.0334  0.0139
  464BOLB   NC111113  16.678  16.951  24.535  0.2978  0.3000 -0.5549
  464BOLB   PO111114  17.083  17.024  24.593 -0.0289 -0.0288  0.3144
  464BOLB   GL111115  17.000  16.891  24.990  0.0637 -0.0240 -0.0392
  464BOLB   GL211116  16.846  16.479  25.056  0.1486  0.2078 -0.0778
  464BOLB   C1A11117  17.068  16.901  25.435 -0.1601 -0.0827 -0.2235
  464BOLB   C2A11118  17.157  16.734  25.834  0.0662 -0.0285 -0.1104
  464BOLB   C3A11119  17.237  16.480  26.210 -0.1842 -0.2635 -0.0757
  464BOLB   C4A11120  17.335  16.430  26.551 -0.2626 -0.0441 -0.0639
  464BOLB   C1B11121  16.953  16.404  25.498 -0.3466 -0.2400  0.2727
  464BOLB   C2B11122  16.927  16.299  25.907 -0.1558 -0.2054  0.0801
  464BOLB   C3B11123  16.677  16.038  26.109 -0.3890 -0.1428  0.0358
  464BOLB   C4B11124  16.579  15.755  26.345 -0.1418 -0.3569 -0.0678
  464BOLB   NC211125  19.279  16.189  28.363  0.1431  0.3137 -0.4011
  464BOLB   PO211126  18.929  16.032  28.209  0.2464  0.0064  0.2214
  464BOLB   GL311127  18.776  16.105  27.765  0.1282 -0.1594 -0.2091
  464BOLB   GL411128  18.957  16.085  27.572  0.1682 -0.0839  0.3024
  464BOLB   C1C11129  18.485  16.311  27.515  0.2832 -0.3442  0.2691
  464BOLB   C2C11130  18.140  16.486  27.178 -0.0989 -0.0612 -0.0387
  464BOLB   C3C11131  17.828  16.084  27.035 -0.0998 -0.1084  0.0933
  464BOLB   C4C11132  17.350  16.210  26.909 -0.1122 -0.1969 -0.1703
  464BOLB   C1D11133  18.852  15.917  27.142  0.1016  0.2467 -0.0126
  464BOLB   C2D11134  18.602  15.599  26.894 -0.0821 -0.1276  0.0560
  464BOLB   C3D11135  18.608  15.498  26.538 -0.0239 -0.4903  0.1350
  464BOLB   C4D11136  18.654  15.152  26.328  0.0590  0.1005  0.1637
  465BOLB   NC111137  20.427  10.246  20.627 -0.0992  0.0332 -0.0647
  465BOLB   PO111138  20.109  10.065  20.851 -0.1189  0.2254  0.1465
  465BOLB   GL111139  20.427   9.757  20.958  0.1423  0.1175 -0.0972
  465BOLB   GL211140  20.261   9.487  20.879 -0.3340  0.4555 -0.1509
  465BOLB   C1A11141  20.713   9.434  21.161  0.1746 -0.0511  0.0293
  465BOLB   C2A11142  20.965   9.146  21.312 -0.3297  0.0252  0.0787
  465BOLB   C3A11143  21.246   8.872  21.612 -0.0623 -0.2530 -0.1372
  465BOLB   C4A11144  21.530   8.655  21.793 -0.0543  0.0021 -0.0198
  465BOLB   C1B11145  20.415   9.065  21.100 -0.3420  0.0920  0.1276
  465BOLB   C2B11146  20.650   8.732  21.372  0.1181 -0.0454  0.0569
  465BOLB   C3B11147  20.758   8.619  21.743 -0.2613 -0.2832 -0.1131
  465BOLB   C4B11148  21.066   8.804  22.128 -0.0262 -0.1144  0.1784
  465BOLB   NC211149  22.790   7.789  23.510 -0.1094 -0.0344 -0.0027
  465BOLB   PO211150  22.587   7.992  23.851 -0.0570  0.0961  0.2845
  465BOLB   GL311151  22.289   7.799  23.502 -0.0335 -0.2774  0.0416
  465BOLB   GL411152  22.105   7.968  23.472 -0.1609  0.1786  0.1811
  465BOLB   C1C11153  22.281   7.894  23.046  0.0681  0.0973 -0.1258
  465BOLB   C2C11154  22.041   7.978  22.678 -0.0122 -0.1397  0.0831
  465BOLB   C3C11155  21.739   8.269  22.502 -0.2598 -0.1158 -0.0307
  465BOLB   C4C11156  21.817   8.582  22.209  0.4659  0.0025 -0.3203
  465BOLB   C1D11157  21.858   8.168  23.299  0.1942  0.1459 -0.5165
  465BOLB   C2D11158  21.563   8.330  23.220  0.0102  0.0573 -0.0567
  465BOLB   C3D11159  21.564   8.585  22.832  0.2337  0.0287 -0.5835
  465BOLB   C4D11160  21.360   8.743  22.516  0.0964 -0.3139  0.2064
  466BOLB   NC111161  16.751  13.266  23.794  0.1906  0.0060 -0.4584
  466BOLB   PO111162  17.007  13.272  24.081 -0.2014  0.0882  0.0492
  466BOLB   GL111163  16.930  13.147  24.511 -0.2611  0.0855  0.0500
  466BOLB   GL211164  16.687  12.990  24.650  0.1275  0.1653 -0.0123
  466BOLB   C1A11165  17.041  13.140  24.963 -0.0556 -0.0351  0.0417
  466BOLB   C2A11166  17.272  13.000  25.252  0.1833  0.1928 -0.3254
  466BOLB   C3A11167  17.495  12.743  25.470  0.2463 -0.0379 -0.1810
  466BOLB   C4A11168  17.475  12.545  25.920  0.4780  0.0619  0.1836
  466BOLB   C1B11169  16.575  12.982  25.118  0.3002 -0.1246 -0.0187
  466BOLB   C2B11170  16.813  12.987  25.500  0.1025 -0.0973  0.0964
  466BOLB   C3B11171  16.808  13.323  25.788 -0.0359  0.2261 -0.0136
  466BOLB   C4B11172  16.813  13.221  26.195 -0.1880 -0.1874 -0.3779
  466BOLB   NC211173  18.640  12.771  28.483  0.1427  0.1756  0.0224
  466BOLB   PO211174  18.636  13.068  28.106 -0.1730 -0.3324 -0.0773
  466BOLB   GL311175  18.279  13.297  27.836  0.2920 -0.0207  0.3138
  466BOLB   GL411176  17.983  13.360  28.019  0.4447 -0.1745 -0.0309
  466BOLB   C1C11177  18.035  13.134  27.458  0.0666 -0.2064 -0.2312
  466BOLB   C2C11178  17.594  12.996  27.297  0.1148  0.2042 -0.2341
  466BOLB   C3C11179  17.436  12.794  26.865 -0.1003  0.2702  0.1411
  466BOLB   C4C11180  17.496  12.637  26.462  0.2023 -0.0345 -0.1711
  466BOLB   C1D11181  17.702  13.389  27.775 -0.1023  0.1042 -0.0622
  466BOLB   C2D11182  17.605  13.508  27.400 -0.0969  0.1082  0.2443
  466BOLB   C3D11183  17.423  13.622  27.038  0.0299  0.0161 -0.1400
  466BOLB   C4D11184  17.571  13.629  26.634 -0.3260  0.0330  0.4263
  467BOLB   NC111185  22.684  19.601  22.093 -0.4393  0.1356  0.0403
  467BOLB   PO111186  22.449  19.897  21.915 -0.3374  0.0370 -0.3659
  467BOLB   GL111187  22.880  20.089  22.040 -0.1253 -0.0106  0.3457
  467BOLB   GL211188  23.126  19.880  22.118  0.2574  0.4388 -0.0338
  467BOLB   C1A11189  23.272  20.298  22.276 -0.2987  0.0915 -0.0891
  467BOLB   C2A11190  23.596  20.132  22.529  0.2311  0.0349  0.0602
  467BOLB   C3A11191  23.632  19.862  22.879 -0.2228 -0.0930 -0.2933
  467BOLB   C4A11192  23.963  19.916  23.253  0.2110  0.3549 -0.1095
  467BOLB   C1B11193  23.536  19.994  22.023  0.1152  0.3068 -0.3439
  467BOLB   C2B11194  23.688  20.472  22.187  0.0155 -0.0565  0.2708
  467BOLB   C3B11195  24.028  20.542  22.320  0.1077  0.0510 -0.2711
  467BOLB   C4B11196  24.244  20.628  22.692 -0.1429 -0.2194  0.1550
  467BOLB   NC211197  24.963  21.946  24.557  0.0611  0.2729  0.1136
  467BOLB   PO211198  24.914  21.585  24.207  0.1674  0.3327  0.1112
  467BOLB   GL311199  24.445  21.565  24.341  0.3106 -0.4181 -0.1150
  467BOLB   GL411200  24.119  21.585  24.261 -0.5250 -0.6321  0.0780
  467BOLB   C1C11201  24.425  21.109  24.258  0.5362 -0.2197 -0.1934
  467BOLB   C2C11202  24.451  20.803  23.973 -0.1780  0.2752  0.1351
  467BOLB   C3C11203  24.299  20.490  23.731 -0.2107 -0.0557 -0.1691
  467BOLB   C4C11204  24.144  20.244  23.506 -0.0517 -0.1668  0.0504
  467BOLB   C1D11205  23.896  21.205  24.313 -0.4221 -0.1909  0.0280
  467BOLB   C2D11206  23.876  20.945  24.544  0.1602  0.0980 -0.0050
  467BOLB   C3D11207  23.947  20.489  24.507 -0.2889 -0.1052 -0.4105
  467BOLB   C4D11208  23.840  20.052  24.413 -0.0193 -0.0624  0.1156
  468BOLB   NC111209  20.154  15.046  23.443 -0.0720 -0.0935  0.2218
  468BOLB   PO111210  19.967  15.445  23.561  0.0067  0.2961 -0.1463
  468BOLB   GL111211  20.201  15.611  23.987  0.3066 -0.1166 -0.1126
  468BOLB   GL211212  20.523  15.791  24.008  0.2062 -0.1193  0.0527
  468BOLB   C1A11213  20.192  15.781  24.415 -0.2394 -0.5919  0.2778
  468BOLB   C2A11214  20.386  15.858  24.731 -0.0415 -0.1182 -0.0701
  468BOLB   C3A11215  20.386  16.200  25.065  0.3515  0.1538  0.0155
  468BOLB   C4A11216  20.275  16.569  25.361 -0.2039 -0.2147  0.4584
  468BOLB   C1B11217  20.677  15.659  24.386 -0.0377 -0.1879  0.2369
  468BOLB   C2B11218  20.842  15.462  24.667 -0.3047 -0.0940  0.0561
  468BOLB   C3B11219  20.955  15.702  25.005  0.0540 -0.0338  0.1997
  468BOLB   C4B11220  21.138  16.072  25.270 -0.1581  0.1872  0.0160
  468BOLB   NC211221  22.520  16.184  27.487  0.0784  0.0457 -0.0675
  468BOLB   PO211222  22.205  16.230  27.111 -0.0543  0.0063  0.1004
  468BOLB   GL311223  21.866  16.403  26.729 -0.1034  0.2736 -0.3014
  468BOLB   GL411224  21.934  16.725  26.878 -0.2642  0.0471 -0.0887
  468BOLB   C1C11225  21.634  16.403  26.344 -0.2125  0.0165 -0.0714
  468BOLB   C2C11226  21.193  16.584  26.208  0.1863 -0.1655  0.5323
  468BOLB   C3C11227  20.965  16.700  25.821  0.0296 -0.1711  0.0992
  468BOLB   C4C11228  20.519  16.690  25.715  0.0331 -0.2727 -0.1043
  468BOLB   C1D11229  21.632  16.816  26.598 -0.0214 -0.0140 -0.0457
  468BOLB   C2D11230  21.325  16.955  26.595  0.0384  0.0069  0.0371
  468BOLB   C3D11231  20.957  16.962  26.431  0.1293 -0.0404  0.2643
  468BOLB   C4D11232  20.605  16.831  26.133  0.0525  0.0342 -0.0244
  469BOLB   NC111233  20.409  24.184  21.092  0.0073 -0.1861 -0.1484
  469BOLB   PO111234  20.576  23.858  21.329  0.1000 -0.1888  0.4330
  469BOLB   GL111235  20.890  23.772  21.663  0.0005 -0.2875 -0.0797
  469BOLB   GL211236  21.104  23.837  21.517 -0.2657  0.0048 -0.0026
  469BOLB   C1A11237  21.296  23.823  21.959 -0.2692  0.1290 -0.0918
  469BOLB   C2A11238  21.659  23.924  22.247  0.0467  0.1919 -0.2876
  469BOLB   C3A11239  21.974  23.816  22.623  0.1556  0.1321  0.4145
  469BOLB   C4A11240  22.045  24.152  22.840 -0.0383  0.1751 -0.1484
  469BOLB   C1B11241  21.623  23.871  21.459  0.0172 -0.0301 -0.4899
  469BOLB   C2B11242  21.972  24.133  21.355 -0.0447 -0.1052 -0.0290
  469BOLB   C3B11243  22.338  24.284  21.139 -0.3945 -0.3661 -0.0866
  469BOLB   C4B11244  22.806  24.312  21.243 -0.1061  0.1044  0.1650
  469BOLB   NC211245  22.526  24.564  24.694  0.3018 -0.0928  0.1684
  469BOLB   PO211246  22.262  24.984  24.753  0.2781  0.0165  0.2044
  469BOLB   GL311247  21.957  24.782  24.559  0.0740 -0.3515  0.1724
  469BOLB   GL411248  21.706  24.650  24.836  0.1525 -0.1242 -0.0431
  469BOLB   C1C11249  21.651  24.678  24.317  0.3049 -0.0823 -0.2226
  469BOLB   C2C11250  21.571  24.659  23.881  0.2232  0.0399 -0.0537
  469BOLB   C3C11251  21.766  24.772  23.506  0.0501 -0.4369  0.0570
  469BOLB   C4C11252  21.957  24.499  23.109  0.0453 -0.0676 -0.1949
  469BOLB   C1D11253  21.268  24.436  24.632 -0.1797  0.2106  0.0286
  469BOLB   C2D11254  20.796  24.509  24.503 -0.0482  0.0806  0.0389
  469BOLB   C3D11255  20.562  24.797  24.308  0.0590 -0.1897 -0.0725
  469BOLB   C4D11256  20.212  24.791  24.137 -0.3941  0.1929 -0.2304
  470BOLB   NC111257  22.352  15.711  22.076  0.3001  0.1930 -0.0816
  470BOLB   PO111258  22.486  15.219  22.125 -0.1789  0.0297 -0.3139
  470BOLB   GL111259  22.746  15.577  22.361 -0.3106 -0.1595 -0.1906
  470BOLB   GL211260  22.851  15.344  22.513  0.0892 -0.0802  0.0367
  470BOLB   C1A11261  23.079  15.806  22.556 -0.1277  0.0265 -0.0336
  470BOLB   C2A11262  23.346  15.667  22.916  0.1009 -0.0837 -0.2361
  470BOLB   C3A11263  23.727  15.462  23.035 -0.1388 -0.0148 -0.0728
  470BOLB   C4A11264  24.110  15.226  23.113 -0.1758  0.1533  0.0038
  470BOLB   C1B11265  22.991  15.288  22.938 -0.0997 -0.0691 -0.0329
  470BOLB   C2B11266  23.297  15.247  23.234  0.3044 -0.0392  0.0047
  470BOLB   C3B11267  23.563  15.002  23.519  0.0648  0.1910  0.1476
  470BOLB   C4B11268  23.895  14.838  23.772 -0.2716 -0.0211 -0.0357
  470BOLB   NC211269  26.341  15.138  23.135 -0.0265  0.2524  0.1476
  470BOLB   PO211270  26.339  15.180  23.645  0.2393 -0.0959  0.2776
  470BOLB   GL311271  25.972  15.168  23.545  0.2177 -0.1332  0.0226
  470BOLB   GL411272  25.825  14.860  23.542 -0.0455 -0.1169 -0.1987
  470BOLB   C1C11273  25.758  15.363  23.250 -0.3410  0.0445 -0.2808
  470BOLB   C2C11274  25.423  15.411  22.937  0.2007 -0.4207  0.1166
  470BOLB   C3C11275  24.993  15.161  22.933 -0.1761  0.1151 -0.0365
  470BOLB   C4C11276  24.536  15.119  23.133  0.1614  0.1553 -0.1597
  470BOLB   C1D11277  25.484  15.069  23.596 -0.2924 -0.1600  0.1184
  470BOLB   C2D11278  25.196  15.319  23.418  0.0028 -0.0102 -0.2706
  470BOLB   C3D11279  24.808  15.426  23.403  0.0113 -0.0066  0.4023
  470BOLB   C4D11280  24.539  15.617  23.356 -0.1353  0.0042  0.0255
  471BOLB   NC111281  22.358  11.592  21.115  0.2078  0.1105  0.0379
  471BOLB   PO111282  22.792  11.898  20.959 -0.1210 -0.1439  0.1542
  471BOLB   GL111283  22.919  11.633  21.264 -0.1175  0.1642  0.2802
  471BOLB   GL211284  22.864  11.373  21.059  0.1432  0.1535 -0.3113
  471BOLB   C1A11285  23.099  11.340  21.499  0.0391  0.0219 -0.0224
  471BOLB   C2A11286  23.003  11.108  21.745  0.1155  0.1557 -0.0891
  471BOLB   C3A11287  23.094  11.022  22.218 -0.0135  0.0161  0.0798
  471BOLB   C4A11288  23.298  10.811  22.554 -0.0467 -0.3213 -0.0215
  471BOLB   C1B11289  22.741  11.074  21.309 -0.0908  0.0012  0.0463
  471BOLB   C2B11290  22.550  10.828  21.726  0.0359 -0.1284 -0.0238
  471BOLB   C3B11291  22.713  10.716  22.089  0.0120  0.0421 -0.3005
  471BOLB   C4B11292  22.815  10.610  22.552  0.1113  0.0645  0.0023
  471BOLB   NC211293  23.778   9.888  24.639  0.0647 -0.2475  0.2389
  471BOLB   PO211294  23.525  10.170  24.441 -0.2907 -0.0150 -0.2273
  471BOLB   GL311295  23.166  10.301  24.286 -0.0229 -0.2693  0.2593
  471BOLB   GL411296  22.921  10.121  24.469  0.0155  0.2540 -0.1615
  471BOLB   C1C11297  23.162  10.292  23.809 -0.0008 -0.0526  0.0714
  471BOLB   C2C11298  22.988  10.508  23.501  0.2967  0.0114  0.0352
  471BOLB   C3C11299  23.241  10.337  23.156  0.2164 -0.0356  0.1283
  471BOLB   C4C11300  23.447  10.545  22.798 -0.1984 -0.0763 -0.0204
  471BOLB   C1D11301  22.899   9.914  24.099  0.1719 -0.1624 -0.0080
  471BOLB   C2D11302  23.088   9.791  23.723  0.0211 -0.1433 -0.1126
  471BOLB   C3D11303  23.506   9.960  23.381  0.1044 -0.1824  0.1359
  471BOLB   C4D11304  23.718  10.266  23.137  0.0869  0.1763  0.1285
  472BOLB   NC111305  21.662  20.023  22.528 -0.1741 -0.5724  0.0356
  472BOLB   PO111306  21.552  19.752  22.828 -0.1817 -0.0875 -0.0924
  472BOLB   GL111307  21.623  19.791  23.286 -0.1702 -0.3598 -0.0532
  472BOLB   GL211308  21.412  19.895  23.543 -0.1015  0.2587 -0.0008
  472BOLB   C1A11309  21.938  19.741  23.633  0.0011 -0.2158 -0.0766
  472BOLB   C2A11310  22.259  19.615  23.827 -0.2003 -0.3839 -0.0673
  472BOLB   C3A11311  22.745  19.564  23.947 -0.0392 -0.3669  0.0684
  472BOLB   C4A11312  22.983  19.577  24.287 -0.0293 -0.1116 -0.0089
  472BOLB   C1B11313  21.230  19.957  24.014 -0.0252 -0.0251 -0.0670
  472BOLB   C2B11314  21.205  20.051  24.415  0.1952 -0.0493  0.0342
  472BOLB   C3B11315  21.048  20.151  24.827 -0.2120 -0.0115  0.0398
  472BOLB   C4B11316  20.950  20.563  25.052 -0.3265 -0.1576  0.0503
  472BOLB   NC211317  23.644  20.465  26.484 -0.0675 -0.2279  0.0254
  472BOLB   PO211318  23.335  20.332  26.232 -0.1019  0.0894  0.1143
  472BOLB   GL311319  22.927  20.268  25.976 -0.1274  0.1120  0.1129
  472BOLB   GL411320  22.783  20.540  25.858  0.1330 -0.0175 -0.1315
  472BOLB   C1C11321  22.862  19.929  25.782  0.0944 -0.2311  0.1428
  472BOLB   C2C11322  23.136  19.717  25.513  0.2702  0.0689  0.5044
  472BOLB   C3C11323  23.200  19.607  25.087 -0.0537 -0.1077 -0.0793
  472BOLB   C4C11324  23.193  19.475  24.616  0.2051  0.1803 -0.0660
  472BOLB   C1D11325  22.501  20.266  25.513  0.0632 -0.0927  0.0620
  472BOLB   C2D11326  22.201  20.070  25.647  0.0620  0.1983 -0.1792
  472BOLB   C3D11327  21.753  20.116  25.606 -0.1304  0.0817 -0.1509
  472BOLB   C4D11328  21.533  20.144  25.985  0.0374  0.1764 -0.1560
  473BOLB   NC111329  16.555  14.061  23.941 -0.2537 -0.1806 -0.2282
  473BOLB   PO111330  16.220  14.324  23.893  0.1711  0.1271 -0.2288
  473BOLB   GL111331  16.246  14.294  24.274  0.0663  0.2649  0.1680
  473BOLB   GL211332  16.126  13.934  24.257 -0.3281  0.3510  0.0650
  473BOLB   C1A11333  16.460  14.207  24.664 -0.0950  0.0787 -0.0524
  473BOLB   C2A11334  16.620  14.097  25.088  0.0889  0.1538 -0.1782
  473BOLB   C3A11335  16.898  14.125  25.526 -0.0641 -0.0380 -0.0573
  473BOLB   C4A11336  16.932  14.111  26.016 -0.1260  0.0069 -0.3162
  473BOLB   C1B11337  15.953  14.087  24.639  0.4844 -0.0265  0.0919
  473BOLB   C2B11338  16.117  14.039  25.104 -0.0935  0.1979 -0.1580
  473BOLB   C3B11339  16.404  13.897  25.511  0.0662 -0.2165 -0.2225
  473BOLB   C4B11340  16.687  13.755  25.833 -0.0922  0.0548  0.0238
  473BOLB   NC211341  17.251  14.269  28.094 -0.0481  0.0202  0.1143
  473BOLB   PO211342  17.434  13.923  28.267 -0.2059  0.1171  0.2736
  473BOLB   GL311343  17.402  13.801  27.896  0.0092  0.1203 -0.4492
  473BOLB   GL411344  17.758  13.996  27.795  0.0557 -0.0868  0.2329
  473BOLB   C1C11345  17.187  13.597  27.581 -0.3247  0.2245  0.0161
  473BOLB   C2C11346  16.992  13.702  27.232  0.2201 -0.3239 -0.0347
  473BOLB   C3C11347  16.886  13.813  26.792 -0.1850  0.3022 -0.3233
  473BOLB   C4C11348  16.865  13.913  26.398 -0.1822 -0.2304 -0.2906
  473BOLB   C1D11349  17.526  14.038  27.437  0.0246 -0.1470 -0.1048
  473BOLB   C2D11350  17.284  14.096  27.113 -0.0319 -0.0601 -0.1001
  473BOLB   C3D11351  17.391  14.127  26.707  0.3129  0.1522  0.3521
  473BOLB   C4D11352  17.270  14.384  26.266 -0.0811  0.3209  0.2396
  474BOLB   NC111353  17.960  10.354  22.686 -0.0839 -0.2811 -0.0981
  474BOLB   PO111354  17.527  10.367  22.749  0.1903 -0.1526 -0.2111
  474BOLB   GL111355  17.341  10.219  23.187 -0.1334  0.1274 -0.2219
  474BOLB   GL211356  17.274   9.878  23.291 -0.0937  0.1317  0.1818
  474BOLB   C1A11357  17.081  10.204  23.624  0.3310  0.1421  0.1021
  474BOLB   C2A11358  17.002   9.989  24.037 -0.0558  0.1033  0.0208
  474BOLB   C3A11359  16.886   9.546  24.261 -0.1026  0.0251 -0.0032
  474BOLB   C4A11360  16.883   9.176  24.583  0.0113 -0.2954 -0.2776
  474BOLB   C1B11361  17.372   9.637  23.648  0.2150  0.0915  0.1816
  474BOLB   C2B11362  17.361   9.540  24.083 -0.0493 -0.1473  0.2344
  474BOLB   C3B11363  17.448   9.528  24.528 -0.1405 -0.4340 -0.0301
  474BOLB   C4B11364  17.344   9.469  24.922 -0.0599  0.0058  0.2838
  474BOLB   NC211365  17.654   8.014  26.474 -0.0393  0.0501 -0.0544
  474BOLB   PO211366  17.672   8.305  26.810 -0.4318 -0.1534  0.0978
  474BOLB   GL311367  17.510   8.597  26.547  0.2195 -0.1320 -0.1201
  474BOLB   GL411368  17.321   8.360  26.377  0.1276 -0.2732 -0.0857
  474BOLB   C1C11369  17.578   8.749  26.108  0.2245 -0.0589  0.3310
  474BOLB   C2C11370  17.348   8.872  25.777 -0.1194 -0.1472  0.1718
  474BOLB   C3C11371  16.913   8.940  25.491 -0.0285  0.0606 -0.0726
  474BOLB   C4C11372  16.818   8.875  25.001 -0.2591  0.0532 -0.0178
  474BOLB   C1D11373  17.301   8.336  25.969  0.1854 -0.1672 -0.1575
  474BOLB   C2D11374  17.711   8.493  25.624 -0.3160  0.4344 -0.0859
  474BOLB   C3D11375  17.506   8.740  25.296 -0.2108  0.1868 -0.1925
  474BOLB   C4D11376  17.393   9.196  25.337 -0.0875 -0.1654  0.0562
  475BOLB   NC111377  15.838  12.623  23.979 -0.1699  0.0777  0.0206
  475BOLB   PO111378  15.824  13.002  23.939  0.2987 -0.0764  0.0491
  475BOLB   GL111379  15.813  12.927  24.413  0.0211 -0.0570 -0.3231
  475BOLB   GL211380  15.676  12.651  24.511 -0.2351  0.1730 -0.1674
  475BOLB   C1A11381  15.576  13.053  24.796  0.2301 -0.5090 -0.0416
  475BOLB   C2A11382  15.621  13.057  25.185 -0.3396  0.1415 -0.1177
  475BOLB   C3A11383  15.471  12.917  25.638  0.3756  0.0912 -0.0434
  475BOLB   C4A11384  15.263  12.787  26.057 -0.3694  0.3516 -0.0470
  475BOLB   C1B11385  15.720  12.468  24.906  0.1353 -0.1898 -0.0033
  475BOLB   C2B11386  15.740  12.515  25.340  0.0177 -0.0546 -0.1632
  475BOLB   C3B11387  15.894  12.455  25.736  0.0291  0.2346  0.1448
  475BOLB   C4B11388  15.845  12.762  26.028  0.2155 -0.1794 -0.0309
  475BOLB   NC211389  15.284  12.833  28.545  0.3213 -0.4064 -0.0839
  475BOLB   PO211390  15.676  12.558  28.359  0.3602  0.1896  0.1354
  475BOLB   GL311391  15.369  12.739  28.095  0.2133  0.3175  0.1002
  475BOLB   GL411392  15.428  12.959  27.836  0.1770 -0.0755  0.0419
  475BOLB   C1C11393  15.270  12.499  27.683  0.2776 -0.3559  0.0695
  475BOLB   C2C11394  15.305  12.467  27.241 -0.2192  0.0586 -0.1522
  475BOLB   C3C11395  15.212  12.699  26.893  0.0019 -0.3001 -0.1042
  475BOLB   C4C11396  15.187  12.804  26.465  0.0044  0.0265 -0.1262
  475BOLB   C1D11397  15.343  13.057  27.360  0.1518 -0.1618 -0.1498
  475BOLB   C2D11398  15.237  13.480  27.236  0.0326 -0.1937  0.1310
  475BOLB   C3D11399  15.024  13.832  27.156  0.0511  0.0594 -0.1306
  475BOLB   C4D11400  15.281  14.207  27.031  0.0739  0.2220 -0.1122
  476BOLB   NC111401  18.407  16.126  23.451 -0.0623  0.2143 -0.1972
  476BOLB   PO111402  18.385  16.052  23.960 -0.1167  0.1652 -0.2708
  476BOLB   GL111403  18.576  16.015  24.345  0.2157 -0.2263  0.3262
  476BOLB   GL211404  18.324  15.910  24.513  0.0076 -0.1824 -0.1833
  476BOLB   C1A11405  18.710  16.158  24.773 -0.1980  0.1336  0.2425
  476BOLB   C2A11406  18.816  16.084  25.245  0.0022 -0.1905  0.0703
  476BOLB   C3A11407  19.258  16.127  25.548  0.1305  0.1544  0.3085
  476BOLB   C4A11408  19.485  16.340  25.823 -0.3331  0.1870 -0.0595
  476BOLB   C1B11409  18.401  15.820  24.851 -0.1572 -0.1271  0.2235
  476BOLB   C2B11410  18.554  15.592  25.158 -0.1374  0.0023 -0.4990
  476BOLB   C3B11411  18.929  15.585  25.513  0.0527 -0.0169  0.0773
  476BOLB   C4B11412  19.264  15.505  25.728  0.4258 -0.2815  0.2504
  476BOLB   NC211413  19.255  17.080  28.018 -0.1329 -0.0423  0.2644
  476BOLB   PO211414  19.668  17.158  28.188  0.1023 -0.1045  0.2415
  476BOLB   GL311415  19.676  17.249  27.687  0.2555 -0.0371 -0.1046
  476BOLB   GL411416  19.417  17.279  27.560 -0.0444  0.0484  0.1905
  476BOLB   C1C11417  19.936  17.333  27.321  0.3312  0.0577  0.2912
  476BOLB   C2C11418  19.861  17.195  26.929 -0.0866 -0.0257 -0.0949
  476BOLB   C3C11419  19.794  16.868  26.584  0.3241  0.0979 -0.1656
  476BOLB   C4C11420  19.693  16.557  26.220  0.0876  0.1847 -0.1074
  476BOLB   C1D11421  19.414  16.994  27.296  0.3525  0.1415 -0.0219
  476BOLB   C2D11422  19.154  16.858  26.917  0.2753 -0.1595  0.2504
  476BOLB   C3D11423  19.247  16.733  26.521 -0.1157  0.0716  0.1117
  476BOLB   C4D11424  19.144  16.572  26.205 -0.3490  0.0914  0.0215
  477BOLB   NC111425  13.535  23.582  23.521 -0.1719  0.0580 -0.1528
  477BOLB   PO111426  13.795  23.202  23.712  0.2807 -0.3378 -0.3503
  477BOLB   GL111427  13.992  23.321  24.142  0.1108  0.1095 -0.4640
  477BOLB   GL211428  13.932  23.595  24.317 -0.0435 -0.0687 -0.0146
  477BOLB   C1A11429  14.203  23.160  24.503  0.0247 -0.2361  0.1417
  477BOLB   C2A11430  14.351  23.257  24.987  0.0625  0.1191  0.1007
  477BOLB   C3A11431  14.426  23.172  25.336  0.1438  0.0011  0.4411
  477BOLB   C4A11432  14.282  23.356  25.525  0.2703 -0.2493 -0.0345
  477BOLB   C1B11433  14.014  23.566  24.787  0.4063  0.1516  0.0166
  477BOLB   C2B11434  14.074  23.704  25.176  0.1578 -0.0555  0.2625
  477BOLB   C3B11435  14.007  23.800  25.626 -0.0477  0.0584  0.1378
  477BOLB   C4B11436  13.942  23.942  26.085 -0.0473 -0.1258  0.0385
  477BOLB   NC211437  15.540  24.144  28.038 -0.1163 -0.2311  0.0365
  477BOLB   PO211438  15.391  24.142  27.573  0.0229 -0.3070  0.1262
  477BOLB   GL311439  15.378  24.129  27.172  0.5512 -0.1359  0.1809
  477BOLB   GL411440  15.415  23.714  27.079 -0.1911  0.2270  0.0288
  477BOLB   C1C11441  15.096  24.084  26.823  0.0386 -0.2734  0.0089
  477BOLB   C2C11442  14.856  23.948  26.439 -0.0826 -0.1846  0.0757
  477BOLB   C3C11443  14.603  23.890  26.063  0.1333  0.1679  0.0656
  477BOLB   C4C11444  14.483  23.738  25.652  0.0472  0.1387 -0.0897
  477BOLB   C1D11445  15.496  23.686  26.663 -0.2021 -0.1784 -0.0279
  477BOLB   C2D11446  15.344  23.651  26.194  0.0832 -0.3780 -0.1976
  477BOLB   C3D11447  14.948  23.528  25.955  0.2155 -0.1290  0.1975
  477BOLB   C4D11448  14.905  23.545  25.535  0.2338 -0.3542  0.2618
  478BOLB   NC111449  17.164  13.034  23.684 -0.0429 -0.1421  0.5737
  478BOLB   PO111450  17.616  13.017  23.769 -0.0673  0.1294  0.4632
  478BOLB   GL111451  17.818  12.937  24.099  0.0208  0.0256  0.6692
  478BOLB   GL211452  18.208  13.053  24.183  0.1643 -0.1024  0.0021
  478BOLB   C1A11453  17.790  12.860  24.547 -0.1603  0.0275  0.3472
  478BOLB   C2A11454  17.926  12.782  24.910 -0.2194 -0.3029 -0.2135
  478BOLB   C3A11455  17.976  12.614  25.306 -0.1397  0.0703 -0.0737
  478BOLB   C4A11456  18.151  12.467  25.783  0.0324  0.1749  0.0063
  478BOLB   C1B11457  18.249  12.785  24.476 -0.2054 -0.1537  0.1334
  478BOLB   C2B11458  18.426  12.563  24.865  0.2328 -0.1077 -0.1461
  478BOLB   C3B11459  18.444  12.480  25.296 -0.1084 -0.2573  0.0240
  478BOLB   C4B11460  18.655  12.329  25.639  0.0903 -0.1745  0.0052
  478BOLB   NC211461  17.938  11.696  28.053 -0.4279 -0.1308  0.0446
  478BOLB   PO211462  18.497  11.822  28.090  0.1706  0.0466 -0.1869
  478BOLB   GL311463  18.205  11.991  27.772 -0.1446  0.0031 -0.0772
  478BOLB   GL411464  18.043  12.345  27.711  0.1574 -0.2030 -0.1951
  478BOLB   C1C11465  18.104  11.883  27.376 -0.0368 -0.2286  0.2302
  478BOLB   C2C11466  18.058  11.763  26.984 -0.2784  0.2103  0.2429
  478BOLB   C3C11467  18.159  11.997  26.457 -0.1529 -0.1605  0.0032
  478BOLB   C4C11468  18.368  12.192  26.012  0.2467 -0.2214  0.1644
  478BOLB   C1D11469  17.758  12.559  27.391 -0.2874  0.0364  0.1254
  478BOLB   C2D11470  17.524  12.409  27.156 -0.3017  0.2920  0.0390
  478BOLB   C3D11471  17.371  12.088  27.171  0.2431  0.1267 -0.2604
  478BOLB   C4D11472  17.448  11.696  26.922 -0.1137 -0.2059 -0.2368
  479BOLB   NC111473  20.628  20.507  22.872 -0.1146 -0.1498  0.1048
  479BOLB   PO111474  20.548  20.929  22.827 -0.0855 -0.3108 -0.0541
  479BOLB   GL111475  20.735  21.030  23.190 -0.1105  0.3625 -0.1641
  479BOLB   GL211476  20.496  21.168  23.417  0.2520 -0.4419 -0.0891
  479BOLB   C1A11477  20.979  21.326  23.406  0.2110 -0.0083  0.3297
  479BOLB   C2A11478  21.439  21.491  23.497 -0.0174 -0.2400 -0.2010
  479BOLB   C3A11479  21.755  21.704  23.701  0.0426  0.0764  0.0630
  479BOLB   C4A11480  22.041  21.648  23.984  0.0230  0.2356 -0.1002
  479BOLB   C1B11481  20.695  21.239  23.789  0.3673 -0.1803 -0.2198
  479BOLB   C2B11482  21.107  21.291  23.890  0.3449 -0.2618  0.0412
  479BOLB   C3B11483  21.513  21.543  24.065 -0.1573  0.1409 -0.1650
  479BOLB   C4B11484  21.763  21.673  24.443  0.1119 -0.1231 -0.2377
  479BOLB   NC211485  23.430  22.696  25.572 -0.0198  0.1653 -0.1295
  479BOLB   PO211486  23.632  22.151  25.689 -0.1110 -0.0949  0.1263
  479BOLB   GL311487  23.379  21.980  25.382 -0.0586 -0.1259  0.1998
  479BOLB   GL411488  23.452  21.782  25.121  0.0113 -0.0262 -0.1921
  479BOLB   C1C11489  22.971  21.865  25.311  0.0858 -0.2225  0.0877
  479BOLB   C2C11490  22.502  21.669  25.152 -0.4872  0.0435 -0.0851
  479BOLB   C3C11491  22.477  21.525  24.774 -0.1843  0.1137  0.1358
  479BOLB   C4C11492  22.393  21.627  24.273 -0.2744  0.1399 -0.0148
  479BOLB   C1D11493  23.140  21.910  24.738 -0.3103  0.2774  0.2623
  479BOLB   C2D11494  22.867  21.758  24.410 -0.3255 -0.0365 -0.1522
  479BOLB   C3D11495  22.891  21.501  24.085 -0.2705  0.0766  0.1529
  479BOLB   C4D11496  22.907  21.461  23.602 -0.1407  0.0163  0.3428
  480BOLB   NC111497  21.723  11.386  20.701  0.0682  0.2115  0.0632
  480BOLB   PO111498  21.396  11.063  20.898 -0.1612  0.3461 -0.1691
  480BOLB   GL111499  21.629  10.796  21.072 -0.2626 -0.1019  0.2545
  480BOLB   GL211500  21.788  10.608  20.850 -0.2223  0.4137 -0.2040
  480BOLB   C1A11501  21.739  10.463  21.332  0.2876  0.0613  0.0334
  480BOLB   C2A11502  21.935  10.122  21.562 -0.0711 -0.2503  0.0003
  480BOLB   C3A11503  22.118   9.924  21.898 -0.2364  0.1901 -0.1667
  480BOLB   C4A11504  22.288   9.807  22.247 -0.0035 -0.1078  0.0252
  480BOLB   C1B11505  21.945  10.168  20.896 -0.0721 -0.1531 -0.1290
  480BOLB   C2B11506  22.123   9.922  21.137 -0.1567  0.4976 -0.0394
  480BOLB   C3B11507  22.371   9.549  21.163 -0.2190  0.1534  0.1487
  480BOLB   C4B11508  22.728   9.567  21.442 -0.1108 -0.4468  0.0910
  480BOLB   NC211509  23.212   8.325  24.164 -0.0260  0.0917  0.0064
  480BOLB   PO211510  23.199   8.682  23.807 -0.0873  0.0322 -0.1757
  480BOLB   GL311511  23.257   8.962  23.382  0.0254 -0.2328  0.1703
  480BOLB   GL411512  22.961   8.893  23.340 -0.1423 -0.2024  0.0788
  480BOLB   C1C11513  23.235   9.470  23.203 -0.1089 -0.0437 -0.2745
  480BOLB   C2C11514  22.950   9.820  23.202  0.3355  0.2003  0.3305
  480BOLB   C3C11515  22.483   9.777  23.020  0.0386 -0.0253  0.4341
  480BOLB   C4C11516  22.470   9.868  22.689  0.1084 -0.1065 -0.1234
  480BOLB   C1D11517  22.660   8.933  23.583  0.1166 -0.1573  0.0019
  480BOLB   C2D11518  22.337   9.274  23.679  0.0856 -0.2144 -0.0577
  480BOLB   C3D11519  22.103   9.667  23.601 -0.2401 -0.1898  0.1138
  480BOLB   C4D11520  22.205  10.110  23.422  0.0877  0.1431 -0.0980
  481BOLB   NC111521  10.402  20.160  23.296 -0.0474  0.0903  0.0070
  481BOLB   PO111522  10.512  20.351  23.749  0.2131  0.2171 -0.0421
  481BOLB   GL111523  10.467  20.406  24.158 -0.0733 -0.2168 -0.0140
  481BOLB   GL211524  10.525  20.115  24.177  0.0954 -0.0559 -0.0128
  481BOLB   C1A11525  10.395  20.366  24.618 -0.1066  0.0395 -0.0633
  481BOLB   C2A11526  10.583  20.512  24.992 -0.1008  0.1676 -0.0632
  481BOLB   C3A11527  10.434  20.397  25.450  0.0049 -0.1316 -0.2302
  481BOLB   C4A11528  10.396  20.438  25.882  0.0219  0.0482 -0.0646
  481BOLB   C1B11529  10.290  19.889  24.504 -0.1424  0.1802 -0.0572
  481BOLB   C2B11530  10.008  20.081  24.672  0.1422 -0.4720 -0.2105
  481BOLB   C3B11531  10.064  20.338  25.046 -0.0441 -0.2202 -0.1822
  481BOLB   C4B11532   9.911  20.426  25.516 -0.0932 -0.2650 -0.0072
  481BOLB   NC211533   9.465  19.428  28.712 -0.0095  0.0747 -0.3083
  481BOLB   PO211534   9.608  19.483  28.322  0.1130  0.0172 -0.0762
  481BOLB   GL311535   9.382  19.519  27.877  0.1087  0.0027 -0.0064
  481BOLB   GL411536   9.490  19.246  27.602  0.2604  0.1003 -0.2973
  481BOLB   C1C11537   9.516  19.716  27.456  0.0146  0.0955 -0.4891
  481BOLB   C2C11538   9.870  19.779  27.078  0.2765 -0.1000  0.1430
  481BOLB   C3C11539  10.159  20.036  26.694  0.0843  0.0063 -0.0553
  481BOLB   C4C11540  10.256  20.245  26.252  0.1554 -0.0843  0.0066
  481BOLB   C1D11541   9.170  19.422  27.271 -0.1501 -0.0755  0.2566
  481BOLB   C2D11542   9.188  19.789  26.998  0.1067  0.0925 -0.1601
  481BOLB   C3D11543   9.060  20.174  27.134  0.3689 -0.0953 -0.3938
  481BOLB   C4D11544   8.979  20.518  26.902  0.0575  0.1072 -0.0022
  482BOLB   NC111545  15.703  19.018  24.586  0.0551  0.3062  0.3650
  482BOLB   PO111546  16.040  19.252  24.326  0.0072  0.2202 -0.1579
  482BOLB   GL111547  16.060  19.458  24.778 -0.1933  0.4078  0.1317
  482BOLB   GL211548  16.372  19.519  24.744 -0.0385  0.1612 -0.1998
  482BOLB   C1A11549  15.932  19.310  25.184  0.0477 -0.1629 -0.0970
  482BOLB   C2A11550  16.090  19.302  25.567  0.1290  0.1331  0.0337
  482BOLB   C3A11551  16.079  19.147  26.037 -0.2288 -0.3262  0.2338
  482BOLB   C4A11552  16.100  19.059  26.391 -0.0906  0.1087  0.5668
  482BOLB   C1B11553  16.285  19.029  24.919  0.0312  0.0785 -0.4921
  482BOLB   C2B11554  16.263  18.915  25.326  0.0923 -0.3960  0.0088
  482BOLB   C3B11555  16.397  18.855  25.777 -0.4102  0.0537 -0.1403
  482BOLB   C4B11556  16.247  18.679  26.151 -0.2244  0.0093  0.3471
  482BOLB   NC211557  15.814  18.324  29.143 -0.3494  0.1087  0.1896
  482BOLB   PO211558  15.625  18.299  28.667  0.2038  0.3431 -0.1881
  482BOLB   GL311559  15.549  18.513  28.243 -0.1831 -0.0155 -0.0293
  482BOLB   GL411560  15.636  18.132  28.190  0.0173 -0.5097 -0.0910
  482BOLB   C1C11561  15.686  18.700  27.768  0.2562 -0.0881 -0.0316
  482BOLB   C2C11562  15.906  18.938  27.554 -0.4980 -0.0595  0.1151
  482BOLB   C3C11563  16.159  18.953  27.171 -0.3206  0.1858  0.1435
  482BOLB   C4C11564  16.169  19.097  26.761  0.1371 -0.2422 -0.1538
  482BOLB   C1D11565  15.717  18.119  27.737 -0.0902 -0.1383  0.0205
  482BOLB   C2D11566  15.886  18.314  27.438 -0.0709  0.1997  0.1608
  482BOLB   C3D11567  16.216  18.439  27.090 -0.1042  0.1878 -0.0518
  482BOLB   C4D11568  16.336  18.576  26.706  0.0251  0.1376 -0.1556
  483BOLB   NC111569  16.789  24.601  23.310 -0.0108 -0.0281  0.1072
  483BOLB   PO111570  17.134  24.316  23.269 -0.2101  0.2414  0.2803
  483BOLB   GL111571  17.034  24.295  23.702 -0.0300 -0.0393  0.0007
  483BOLB   GL211572  17.053  23.951  23.736  0.0582 -0.0157 -0.2383
  483BOLB   C1A11573  17.184  24.499  24.084  0.0675  0.3154  0.3240
  483BOLB   C2A11574  17.186  24.591  24.493  0.0577 -0.1428  0.0299
  483BOLB   C3A11575  17.426  24.710  24.821 -0.2478  0.0589 -0.0498
  483BOLB   C4A11576  17.299  24.525  25.260 -0.0359 -0.1965 -0.0999
  483BOLB   C1B11577  17.086  23.818  24.141 -0.2390  0.1638 -0.0309
  483BOLB   C2B11578  17.189  24.020  24.558  0.1430  0.2791  0.3593
  483BOLB   C3B11579  17.342  24.207  24.842 -0.3743  0.1486 -0.0295
  483BOLB   C4B11580  17.753  24.310  24.985  0.1039  0.4299  0.4912
  483BOLB   NC211581  16.876  25.343  27.726 -0.0693 -0.0838  0.1894
  483BOLB   PO211582  17.090  25.528  27.302  0.0192  0.1282 -0.0424
  483BOLB   GL311583  16.939  25.589  26.881 -0.2373 -0.1411 -0.1388
  483BOLB   GL411584  17.093  25.855  26.546 -0.1465  0.3307  0.0888
  483BOLB   C1C11585  16.997  25.344  26.477  0.0623 -0.1168  0.1034
  483BOLB   C2C11586  17.246  25.079  26.048 -0.1814  0.0537 -0.0543
  483BOLB   C3C11587  17.583  24.874  25.842  0.1659  0.2450  0.0128
  483BOLB   C4C11588  17.424  24.515  25.657 -0.0517  0.1106  0.3025
  483BOLB   C1D11589  16.718  25.755  26.389 -0.1501  0.0130  0.0990
  483BOLB   C2D11590  16.566  25.500  26.079  0.1163  0.0419 -0.0901
  483BOLB   C3D11591  16.278  25.611  25.827  0.1688  0.0130  0.1100
  483BOLB   C4D11592  15.816  25.815  25.854  0.2295 -0.1839 -0.0414
  484BOLB   NC111593  21.387  20.083  22.089 -0.0948 -0.0986  0.1717
  484BOLB   PO111594  21.311  20.481  22.382 -0.1715 -0.3028  0.3356
  484BOLB   GL111595  21.667  20.818  22.609  0.3913  0.2963  0.0199
  484BOLB   GL211596  21.438  21.220  22.610 -0.1411  0.1146  0.1139
  484BOLB   C1A11597  22.027  20.822  22.916 -0.0775  0.0834  0.0512
  484BOLB   C2A11598  22.232  20.950  23.278 -0.0491  0.2038 -0.0559
  484BOLB   C3A11599  22.698  20.989  23.395  0.1083 -0.0045  0.1678
  484BOLB   C4A11600  22.953  21.009  23.811  0.2330 -0.1591 -0.2680
  484BOLB   C1B11601  21.865  21.306  22.601  0.0812  0.2712  0.1449
  484BOLB   C2B11602  22.034  21.376  22.927  0.0665  0.2106 -0.1907
  484BOLB   C3B11603  22.358  21.388  23.001 -0.0765 -0.1004 -0.0740
  484BOLB   C4B11604  22.732  21.507  23.134  0.0230 -0.0175  0.0633
  484BOLB   NC211605  23.253  21.927  25.938  0.1756 -0.0360  0.0350
  484BOLB   PO211606  22.897  21.662  26.116  0.0698 -0.2694  0.3016
  484BOLB   GL311607  22.882  21.546  25.705  0.1683  0.0445 -0.2035
  484BOLB   GL411608  22.590  21.709  25.728  0.1682  0.1299  0.3209
  484BOLB   C1C11609  22.851  21.382  25.315 -0.1544 -0.0988 -0.0533
  484BOLB   C2C11610  22.965  21.490  24.928  0.0510  0.0664  0.0714
  484BOLB   C3C11611  22.937  21.250  24.587  0.1396 -0.0145  0.1811
  484BOLB   C4C11612  22.985  21.014  24.189  0.0609 -0.0460 -0.1528
  484BOLB   C1D11613  22.400  21.372  25.595 -0.0817 -0.0138 -0.0328
  484BOLB   C2D11614  22.218  21.209  25.285 -0.5747 -0.2375 -0.0769
  484BOLB   C3D11615  21.956  20.970  25.250 -0.1256 -0.1393  0.0149
  484BOLB   C4D11616  21.711  20.656  24.984 -0.1287 -0.0423 -0.1975
  485BOLB   NC111617  11.268  18.231  24.495 -0.0684 -0.0219  0.1031
  485BOLB   PO111618  11.065  17.884  24.496  0.0265  0.0297 -0.2179
  485BOLB   GL111619  11.140  17.772  24.876 -0.4688  0.1981  0.1039
  485BOLB   GL211620  10.960  17.527  25.126  0.2005 -0.1412  0.1068
  485BOLB   C1A11621  11.388  17.785  25.217 -0.1509  0.0501  0.0574
  485BOLB   C2A11622  11.336  17.756  25.655 -0.1659  0.1731  0.1093
  485BOLB   C3A11623  11.385  17.729  26.009  0.1587 -0.1270  0.0619
  485BOLB   C4A11624  11.428  17.731  26.434 -0.0968  0.0343 -0.2533
  485BOLB   C1B11625  10.883  17.506  25.588  0.1585  0.2155  0.0110
  485BOLB   C2B11626  10.725  17.721  25.925  0.2329 -0.0774  0.4006
  485BOLB   C3B11627  10.935  17.846  26.217 -0.1976 -0.1835  0.0619
  485BOLB   C4B11628  10.884  17.800  26.647  0.0751 -0.0631 -0.1129
  485BOLB   NC211629  10.527  16.556  28.349  0.3376  0.2158 -0.2262
  485BOLB   PO211630  10.217  16.892  28.354 -0.0376 -0.0326 -0.1635
  485BOLB   GL311631  10.294  17.017  27.963 -0.0000 -0.3337 -0.1496
  485BOLB   GL411632  10.154  17.335  27.991 -0.2573 -0.0823  0.1124
  485BOLB   C1C11633  10.694  17.042  27.674 -0.1494 -0.0143  0.1215
  485BOLB   C2C11634  10.811  17.131  27.239 -0.1340 -0.3681 -0.0019
  485BOLB   C3C11635  10.891  17.457  27.012 -0.0155 -0.0848 -0.0404
  485BOLB   C4C11636  11.221  17.612  26.910 -0.0023 -0.2916  0.0464
  485BOLB   C1D11637  10.490  17.577  27.948  0.1898 -0.4166  0.2076
  485BOLB   C2D11638  10.569  17.562  27.499 -0.3547 -0.1150 -0.1605
  485BOLB   C3D11639  10.997  17.516  27.461  0.0703  0.3840  0.1096
  485BOLB   C4D11640  11.275  17.171  27.346 -0.1051 -0.2346  0.1062
  486BOLB   NC111641  14.194  14.629  23.907  0.2409  0.1147 -0.0788
  486BOLB   PO111642  14.399  14.769  24.265 -0.2651  0.1208  0.0325
  486BOLB   GL111643  14.489  14.599  24.656  0.1713 -0.0019 -0.2399
  486BOLB   GL211644  14.274  14.644  24.929 -0.0396 -0.1789  0.2317
  486BOLB   C1A11645  14.794  14.364  24.889 -0.1389 -0.3580 -0.0908
  486BOLB   C2A11646  14.785  14.149  25.189 -0.0897 -0.1000 -0.1225
  486BOLB   C3A11647  14.399  13.925  25.371  0.0657  0.2567  0.2332
  486BOLB   C4A11648  14.115  13.930  25.753 -0.0625  0.0766 -0.2253
  486BOLB   C1B11649  14.382  14.610  25.344 -0.0215 -0.0605 -0.0248
  486BOLB   C2B11650  14.479  14.344  25.600  0.0287  0.2136 -0.2787
  486BOLB   C3B11651  14.512  14.170  25.947 -0.0630  0.0250 -0.2400
  486BOLB   C4B11652  14.639  14.176  26.417  0.1968  0.1177  0.0813
  486BOLB   NC211653  15.134  13.492  27.885  0.1377  0.1837 -0.0525
  486BOLB   PO211654  15.037  13.905  28.013 -0.5554  0.0607 -0.2341
  486BOLB   GL311655  14.695  13.729  27.779  0.0132  0.0447  0.3992
  486BOLB   GL411656  14.341  13.669  27.906  0.1176 -0.0784 -0.0471
  486BOLB   C1C11657  14.500  13.783  27.381 -0.0127  0.3361 -0.1077
  486BOLB   C2C11658  14.450  13.899  26.982 -0.2662 -0.0638  0.1480
  486BOLB   C3C11659  14.330  13.828  26.475 -0.0043  0.1958 -0.0266
  486BOLB   C4C11660  14.087  13.940  26.182 -0.2202 -0.0376  0.0162
  486BOLB   C1D11661  14.426  13.268  27.577 -0.3458 -0.1156  0.3000
  486BOLB   C2D11662  14.722  13.057  27.184  0.2249  0.0357  0.1189
  486BOLB   C3D11663  15.016  13.244  26.855  0.0818 -0.1785  0.1558
  486BOLB   C4D11664  15.445  13.233  26.800 -0.3880 -0.0819  0.0496
  487BOLB   NC111665  12.378  12.469  23.742 -0.4371 -0.2418  0.1154
  487BOLB   PO111666  12.168  12.616  23.945  0.0358  0.0504 -0.3301
  487BOLB   GL111667  12.470  12.320  24.234  0.0667 -0.0645 -0.1612
  487BOLB   GL211668  12.334  12.380  24.453 -0.1948  0.1077  0.4410
  487BOLB   C1A11669  12.697  11.944  24.454  0.0731 -0.2531 -0.0561
  487BOLB   C2A11670  12.715  11.668  24.741  0.1732  0.0167  0.2909
  487BOLB   C3A11671  13.042  11.379  25.022  0.0875  0.2808  0.1090
  487BOLB   C4A11672  13.075  11.083  25.415  0.1682 -0.0874 -0.2493
  487BOLB   C1B11673  12.436  12.429  24.818 -0.0497 -0.3525  0.1389
  487BOLB   C2B11674  12.629  12.439  25.239  0.0010  0.1233 -0.3980
  487BOLB   C3B11675  12.823  12.419  25.648  0.1715 -0.2799  0.1100
  487BOLB   C4B11676  13.213  12.149  25.804  0.3307 -0.0837 -0.0530
  487BOLB   NC211677  12.630  10.103  27.520  0.0375 -0.0286  0.1140
  487BOLB   PO211678  12.256  10.290  27.436  0.0578  0.1244 -0.0434
  487BOLB   GL311679  12.508  10.309  27.086 -0.1037  0.2035 -0.1425
  487BOLB   GL411680  12.538   9.966  27.002 -0.0483 -0.2088  0.0920
  487BOLB   C1C11681  12.666  10.374  26.764  0.0745  0.1095 -0.2400
  487BOLB   C2C11682  12.790  10.308  26.330 -0.3366  0.1338 -0.2160
  487BOLB   C3C11683  12.954  10.632  26.058 -0.0948  0.0734  0.2962
  487BOLB   C4C11684  13.089  10.923  25.819 -0.1560 -0.2069  0.3005
  487BOLB   C1D11685  12.417   9.944  26.622 -0.0751 -0.3055 -0.0407
  487BOLB   C2D11686  12.136  10.083  26.434  0.4491 -0.5206  0.4085
  487BOLB   C3D11687  12.083  10.121  25.980  0.1859  0.0438  0.0457
  487BOLB   C4D11688  11.956  10.606  25.743  0.0533  0.1284  0.0432
  488BOLB   NC111689  20.895  24.229  20.276  0.1576 -0.1858 -0.3678
  488BOLB   PO111690  20.755  24.226  20.760 -0.0288  0.4569 -0.1387
  488BOLB   GL111691  20.982  24.557  20.688 -0.0996 -0.0981 -0.1416
  488BOLB   GL211692  20.900  24.848  20.844  0.2938 -0.0193 -0.2391
  488BOLB   C1A11693  21.211  24.903  20.458  0.0976 -0.1471  0.1404
  488BOLB   C2A11694  21.613  25.083  20.285  0.3886 -0.0676  0.0061
  488BOLB   C3A11695  22.048  25.156  20.264 -0.0896 -0.0224 -0.0332
  488BOLB   C4A11696  22.378  25.466  20.305 -0.0236  0.1544  0.2794
  488BOLB   C1B11697  21.271  25.044  20.955 -0.0552  0.1389 -0.1282
  488BOLB   C2B11698  21.670  25.370  21.147 -0.3975  0.0031 -0.1542
  488BOLB   C3B11699  22.182  25.330  21.071  0.1258 -0.0277 -0.2091
  488BOLB   C4B11700  22.508  25.243  21.418  0.1112  0.0637 -0.2157
  488BOLB   NC211701  23.198  27.617  21.549 -0.1674  0.0047 -0.0612
  488BOLB   PO211702  23.500  27.297  21.622 -0.0053  0.0592  0.0172
  488BOLB   GL311703  23.335  27.046  21.306  0.0416 -0.1926 -0.0550
  488BOLB   GL411704  23.009  27.046  21.279 -0.1132 -0.1793  0.1605
  488BOLB   C1C11705  23.172  26.597  21.288  0.1138 -0.3645  0.0874
  488BOLB   C2C11706  22.873  26.245  21.132  0.0139  0.2594  0.4653
  488BOLB   C3C11707  22.852  25.953  20.861  0.2696  0.0962  0.2742
  488BOLB   C4C11708  22.660  25.693  20.610 -0.2004 -0.1402  0.2563
  488BOLB   C1D11709  22.663  26.660  21.250  0.0565  0.3971 -0.0893
  488BOLB   C2D11710  22.430  26.361  20.990  0.2833  0.0677 -0.1018
  488BOLB   C3D11711  22.108  26.130  20.830  0.0699 -0.3349  0.1353
  488BOLB   C4D11712  22.082  25.689  20.705 -0.0967  0.0737  0.1270
  489BOLB   NC111713  13.824  17.165  24.225 -0.4413 -0.1588  0.3347
  489BOLB   PO111714  14.089  17.333  24.645 -0.0529 -0.3071 -0.2729
  489BOLB   GL111715  14.139  17.430  25.050  0.0104  0.0110  0.1016
  489BOLB   GL211716  14.419  17.287  25.239 -0.0206 -0.0535 -0.1513
  489BOLB   C1A11717  14.035  17.329  25.598 -0.3379  0.2242 -0.1950
  489BOLB   C2A11718  14.000  17.062  25.939  0.0895  0.3404 -0.1607
  489BOLB   C3A11719  14.111  16.965  26.410 -0.0493  0.0809 -0.0124
  489BOLB   C4A11720  14.317  16.683  26.862  0.1097  0.1317  0.1951
  489BOLB   C1B11721  14.530  17.342  25.658 -0.2414 -0.1469 -0.1237
  489BOLB   C2B11722  14.317  17.399  26.156 -0.1426  0.1744 -0.1123
  489BOLB   C3B11723  14.281  17.353  26.638  0.2636  0.2137  0.0350
  489BOLB   C4B11724  14.198  17.323  27.111 -0.2255  0.3709  0.0752
  489BOLB   NC211725  12.745  16.484  28.942  0.0524 -0.1414 -0.1292
  489BOLB   PO211726  13.123  16.586  28.905  0.1476 -0.1984 -0.0287
  489BOLB   GL311727  13.386  16.583  28.485  0.0795 -0.0929  0.1648
  489BOLB   GL411728  13.327  16.761  28.188  0.3970  0.0443 -0.5578
  489BOLB   C1C11729  13.598  16.351  28.197  0.0941  0.0005  0.1466
  489BOLB   C2C11730  13.743  16.344  27.724 -0.1027 -0.0767 -0.1416
  489BOLB   C3C11731  14.053  16.404  27.489 -0.0055 -0.1339  0.4008
  489BOLB   C4C11732  14.218  16.283  27.068  0.0810  0.2572 -0.1635
  489BOLB   C1D11733  13.420  16.752  27.769 -0.1039 -0.1742 -0.1246
  489BOLB   C2D11734  13.422  16.578  27.422 -0.3292  0.0031  0.0626
  489BOLB   C3D11735  13.686  16.295  27.146  0.0654 -0.0531 -0.1651
  489BOLB   C4D11736  13.878  15.924  27.312 -0.0196  0.1605  0.1113
  490BOLB   NC111737  19.330  16.592  23.990 -0.0609 -0.2116 -0.0336
  490BOLB   PO111738  19.376  16.966  24.243 -0.0981 -0.1070  0.0259
  490BOLB   GL111739  19.322  16.937  24.671 -0.2554  0.0341  0.1014
  490BOLB   GL211740  19.079  17.130  24.668 -0.0268 -0.2070  0.0169
  490BOLB   C1A11741  19.414  16.803  25.011  0.3152  0.1917 -0.1400
  490BOLB   C2A11742  19.399  16.983  25.444  0.0696 -0.2036  0.2202
  490BOLB   C3A11743  19.673  16.921  25.846  0.3348 -0.2772 -0.0460
  490BOLB   C4A11744  19.639  17.237  26.171 -0.0529  0.1724  0.0462
  490BOLB   C1B11745  19.234  17.262  25.005  0.0767 -0.1287  0.0178
  490BOLB   C2B11746  18.950  17.380  25.349  0.3936  0.1602  0.0957
  490BOLB   C3B11747  18.777  17.495  25.764 -0.3046  0.0599  0.0488
  490BOLB   C4B11748  18.746  17.625  26.230 -0.0164  0.0920  0.0852
  490BOLB   NC211749  20.864  17.087  28.343  0.5598 -0.0289 -0.0121
  490BOLB   PO211750  20.596  16.891  28.001  0.2515  0.0428 -0.2948
  490BOLB   GL311751  20.373  16.747  27.618 -0.0425  0.1339 -0.0076
  490BOLB   GL411752  20.085  16.872  27.518  0.0380  0.0811  0.0846
  490BOLB   C1C11753  20.447  17.168  27.285 -0.2650 -0.1409 -0.1964
  490BOLB   C2C11754  20.406  17.531  27.057 -0.1653 -0.2277  0.2502
  490BOLB   C3C11755  20.080  17.713  26.748 -0.1241  0.2326 -0.2362
  490BOLB   C4C11756  19.838  17.487  26.480 -0.1141 -0.1480  0.0033
  490BOLB   C1D11757  19.810  16.748  27.111 -0.2331 -0.1518 -0.1502
  490BOLB   C2D11758  19.597  16.504  26.868 -0.2753  0.0138 -0.0240
  490BOLB   C3D11759  19.195  16.333  26.847  0.2265 -0.2805 -0.2048
  490BOLB   C4D11760  18.851  16.461  27.087  0.0379  0.0753  0.0864
  491BOLB   NC111761  20.809  21.807  21.814  0.3077  0.1565 -0.0196
  491BOLB   PO111762  21.097  22.068  21.589 -0.1688  0.4342  0.1154
  491BOLB   GL111763  21.419  22.371  21.617  0.0309  0.0301 -0.2207
  491BOLB   GL211764  21.642  22.414  21.439  0.2289  0.0371 -0.1087
  491BOLB   C1A11765  21.647  22.590  21.905  0.0418 -0.2153 -0.2000
  491BOLB   C2A11766  22.041  22.524  22.044  0.5016  0.0327  0.1017
  491BOLB   C3A11767  22.513  22.609  21.799  0.3373  0.3158 -0.1636
  491BOLB   C4A11768  22.817  22.963  21.764 -0.2224 -0.1012 -0.0573
  491BOLB   C1B11769  22.021  22.667  21.463 -0.1555 -0.0312 -0.2001
  491BOLB   C2B11770  22.327  22.926  21.509  0.0948  0.2250  0.0218
  491BOLB   C3B11771  22.510  23.354  21.347 -0.0380 -0.0468 -0.0096
  491BOLB   C4B11772  22.462  23.730  21.461  0.1901 -0.3710 -0.0858
  491BOLB   NC211773  24.867  23.301  22.738  0.0035  0.0257  0.2832
  491BOLB   PO211774  24.862  23.518  22.423 -0.0200 -0.0086  0.0410
  491BOLB   GL311775  24.449  23.488  22.289  0.4040 -0.0105 -0.0224
  491BOLB   GL411776  24.475  23.105  22.328  0.2124 -0.0284 -0.0880
  491BOLB   C1C11777  24.144  23.538  21.938 -0.1511 -0.0307 -0.3687
  491BOLB   C2C11778  23.866  23.300  21.677 -0.1230  0.0698  0.0061
  491BOLB   C3C11779  23.468  23.254  21.556 -0.1831 -0.0176 -0.1923
  491BOLB   C4C11780  23.071  23.224  21.654 -0.4515 -0.2202  0.0080
  491BOLB   C1D11781  24.226  22.752  22.568 -0.1264  0.0568  0.1392
  491BOLB   C2D11782  24.051  22.301  22.478 -0.4535 -0.1109  0.2132
  491BOLB   C3D11783  23.878  21.900  22.479 -0.1382 -0.1092 -0.2708
  491BOLB   C4D11784  24.065  21.484  22.438 -0.0826  0.0877 -0.0715
  492BOLB   NC111785  19.236  18.127  23.744 -0.0112 -0.1872 -0.1834
  492BOLB   PO111786  19.660  18.036  23.726 -0.1927 -0.2886 -0.0667
  492BOLB   GL111787  19.761  18.279  24.040 -0.0381  0.1290  0.0230
  492BOLB   GL211788  20.015  18.466  23.962  0.0271  0.3938 -0.3397
  492BOLB   C1A11789  19.867  18.214  24.494  0.2318 -0.2499 -0.2604
  492BOLB   C2A11790  20.067  18.163  24.939  0.2204  0.1778  0.1982
  492BOLB   C3A11791  20.151  18.319  25.363  0.1499  0.1717 -0.3161
  492BOLB   C4A11792  20.474  18.074  25.618 -0.3031 -0.3873 -0.0259
  492BOLB   C1B11793  20.196  18.506  24.332  0.0428  0.0176  0.0703
  492BOLB   C2B11794  20.466  18.372  24.643 -0.0358 -0.0694  0.1694
  492BOLB   C3B11795  20.592  18.382  25.091  0.0585 -0.1341 -0.1071
  492BOLB   C4B11796  20.545  18.600  25.481  0.2447 -0.0669 -0.0852
  492BOLB   NC211797  20.337  17.170  28.383 -0.1448  0.1718  0.1637
  492BOLB   PO211798  20.651  17.461  28.132  0.0490 -0.1667  0.2386
  492BOLB   GL311799  20.823  17.261  27.706  0.0001 -0.0882 -0.2992
  492BOLB   GL411800  20.908  16.997  27.537 -0.0364 -0.0996 -0.2614
  492BOLB   C1C11801  20.863  17.566  27.254 -0.0703 -0.0591 -0.0063
  492BOLB   C2C11802  20.831  17.803  26.919  0.0434 -0.1435 -0.1587
  492BOLB   C3C11803  20.976  17.954  26.496  0.4040 -0.1899  0.3923
  492BOLB   C4C11804  20.633  17.997  26.035  0.1531 -0.1314  0.0063
  492BOLB   C1D11805  20.759  16.780  27.247 -0.1741  0.0028  0.2531
  492BOLB   C2D11806  20.705  16.683  26.825 -0.3712  0.4985 -0.0494
  492BOLB   C3D11807  20.709  16.412  26.461 -0.0611 -0.2193 -0.1284
  492BOLB   C4D11808  20.734  16.361  26.037  0.0496 -0.1665 -0.0700
  493BOLB   NC111809   9.584  13.789  23.462  0.0193  0.0497  0.0592
  493BOLB   PO111810   9.382  13.365  23.589  0.0835  0.1018  0.0535
  493BOLB   GL111811   9.087  13.133  23.872  0.2304 -0.0340  0.1428
  493BOLB   GL211812   9.277  13.123  24.224 -0.2518  0.1294  0.4202
  493BOLB   C1A11813   8.774  13.059  24.222 -0.2767  0.0423 -0.1830
  493BOLB   C2A11814   8.841  13.388  24.503 -0.1575 -0.0192  0.3542
  493BOLB   C3A11815   8.773  13.399  24.981  0.1762 -0.1010  0.0690
  493BOLB   C4A11816   8.939  13.401  25.421  0.0511  0.0772  0.1570
  493BOLB   C1B11817   9.281  12.774  24.394  0.2585 -0.4257  0.1316
  493BOLB   C2B11818   9.235  12.351  24.275  0.2627 -0.2204 -0.3881
  493BOLB   C3B11819   8.990  12.117  24.598 -0.0468 -0.0129  0.0600
  493BOLB   C4B11820   8.767  11.799  24.869  0.0131 -0.0189 -0.1040
  493BOLB   NC211821   9.206  13.067  27.270  0.2152  0.1711  0.1120
  493BOLB   PO211822   9.058  13.472  27.491 -0.1811  0.0314  0.1689
  493BOLB   GL311823   8.938  13.482  27.019  0.1187  0.1847  0.2549
  493BOLB   GL411824   9.129  13.323  26.817  0.0157  0.2380 -0.0755
  493BOLB   C1C11825   8.625  13.168  26.888 -0.1114  0.2011 -0.3344
  493BOLB   C2C11826   8.649  13.025  26.513  0.0362  0.1991 -0.0868
  493BOLB   C3C11827   8.781  13.085  26.124 -0.0271  0.2690 -0.0711
  493BOLB   C4C11828   9.112  13.222  25.821 -0.1560  0.1222  0.2981
  493BOLB   C1D11829   9.039  13.390  26.363 -0.1116  0.0051 -0.0374
  493BOLB   C2D11830   9.072  13.676  26.082 -0.2023  0.2318  0.2040
  493BOLB   C3D11831   9.180  13.716  25.686  0.3434 -0.0990  0.3315
  493BOLB   C4D11832   9.111  13.841  25.197  0.3377 -0.2609  0.2882
  494BOLB   NC111833  17.502  24.260  22.904 -0.2493 -0.3997  0.1845
  494BOLB   PO111834  17.948  24.108  22.815  0.0957 -0.3832  0.0032
  494BOLB   GL111835  17.959  24.398  23.056  0.1528 -0.0172  0.2279
  494BOLB   GL211836  18.118  24.593  22.909  0.2098  0.4317  0.0737
  494BOLB   C1A11837  18.068  24.703  23.393 -0.0520 -0.3984  0.2288
  494BOLB   C2A11838  18.422  24.833  23.534  0.1080  0.1274 -0.2311
  494BOLB   C3A11839  18.822  24.868  23.594  0.1950 -0.1401  0.1401
  494BOLB   C4A11840  18.973  24.948  24.053  0.0104 -0.1567 -0.0258
  494BOLB   C1B11841  18.479  24.740  23.066  0.1130 -0.0098  0.0954
  494BOLB   C2B11842  18.863  25.036  23.098  0.3343 -0.0916  0.1312
  494BOLB   C3B11843  19.038  25.227  23.422  0.0811 -0.0117 -0.1296
  494BOLB   C4B11844  19.063  25.387  23.828  0.2160 -0.1411 -0.3821
  494BOLB   NC211845  20.739  24.765  25.965 -0.4512 -0.0680  0.2257
  494BOLB   PO211846  20.642  25.150  25.684 -0.0963 -0.2342 -0.1082
  494BOLB   GL311847  20.481  24.878  25.321  0.3252 -0.0498  0.0593
  494BOLB   GL411848  20.499  25.037  25.034 -0.0544  0.0352 -0.1598
  494BOLB   C1C11849  20.055  24.843  25.226 -0.3601  0.1986  0.0217
  494BOLB   C2C11850  19.683  24.621  24.908  0.0297 -0.2828 -0.1985
  494BOLB   C3C11851  19.258  24.647  24.670 -0.3619  0.4194  0.0930
  494BOLB   C4C11852  19.264  24.942  24.429  0.0157  0.0778 -0.1966
  494BOLB   C1D11853  20.289  25.052  24.594  0.4281 -0.1065 -0.0290
  494BOLB   C2D11854  20.140  25.349  24.363 -0.0111  0.2071  0.1143
  494BOLB   C3D11855  20.066  25.490  23.903 -0.1631  0.1664 -0.1069
  494BOLB   C4D11856  19.974  25.727  23.465 -0.1380 -0.0394 -0.0832
  495BOLB   NC111857   9.032  13.353  23.220  0.1921  0.2403 -0.0150
  495BOLB   PO111858   9.068  13.771  23.526 -0.1801 -0.1551  0.2969
  495BOLB   GL111859   8.866  13.737  23.873 -0.0949 -0.2029 -0.2667
  495BOLB   GL211860   8.699  13.490  23.832  0.1278 -0.0994  0.2622
  495BOLB   C1A11861   8.540  13.910  24.137  0.2035 -0.1548  0.1303
  495BOLB   C2A11862   8.313  13.822  24.528 -0.0749 -0.1137 -0.0486
  495BOLB   C3A11863   8.278  13.602  24.872  0.1006  0.0754  0.0085
  495BOLB   C4A11864   8.526  13.687  25.303  0.2503  0.2469  0.0315
  495BOLB   C1B11865   8.388  13.304  24.021  0.1180  0.2436 -0.0007
  495BOLB   C2B11866   8.270  13.285  24.354 -0.2173 -0.0259 -0.1969
  495BOLB   C3B11867   7.954  13.330  24.582  0.1816 -0.0777 -0.0122
  495BOLB   C4B11868   7.569  13.577  24.728  0.0192 -0.0290  0.0459
  495BOLB   NC211869   7.837  14.200  27.635  0.1093 -0.3703 -0.2570
  495BOLB   PO211870   7.693  13.920  27.405 -0.0171  0.1605  0.0079
  495BOLB   GL311871   8.096  13.980  27.115 -0.2866  0.0574 -0.2057
  495BOLB   GL411872   8.294  13.632  27.081  0.1682  0.0900  0.2500
  495BOLB   C1C11873   8.312  14.009  26.723  0.1005 -0.1147  0.0791
  495BOLB   C2C11874   8.468  14.108  26.317  0.0968 -0.1338  0.0244
  495BOLB   C3C11875   8.626  14.101  26.011  0.1307 -0.0069 -0.0369
  495BOLB   C4C11876   8.666  13.824  25.633 -0.1712 -0.1158 -0.1065
  495BOLB   C1D11877   8.183  13.425  26.608 -0.0309  0.0484 -0.1693
  495BOLB   C2D11878   8.291  13.225  26.229  0.2387  0.0853 -0.1075
  495BOLB   C3D11879   8.413  12.716  26.087  0.0681  0.1509  0.2032
  495BOLB   C4D11880   8.429  12.367  25.954 -0.0059  0.1559 -0.1362
  496BOLB   NC111881  22.957  11.257  19.912  0.0199 -0.1161  0.1896
  496BOLB   PO111882  22.758  10.836  20.052 -0.3597  0.0171 -0.2739
  496BOLB   GL111883  22.959  10.544  20.324 -0.0316 -0.0804 -0.1013
  496BOLB   GL211884  23.152  10.295  20.285  0.0642 -0.2532  0.4189
  496BOLB   C1A11885  22.954  10.411  20.747  0.0141 -0.1745  0.2644
  496BOLB   C2A11886  23.211  10.268  21.155 -0.3271  0.2067 -0.1679
  496BOLB   C3A11887  23.514   9.973  21.239 -0.0671 -0.0238 -0.1368
  496BOLB   C4A11888  23.697   9.596  21.197 -0.0200  0.0833 -0.1825
  496BOLB   C1B11889  23.516  10.061  20.060  0.1488 -0.1226 -0.1459
  496BOLB   C2B11890  23.868   9.948  20.351  0.0868 -0.2857 -0.0304
  496BOLB   C3B11891  23.997   9.896  20.773 -0.2147 -0.0773  0.0586
  496BOLB   C4B11892  23.950  10.109  21.135 -0.0160  0.1391 -0.5293
  496BOLB   NC211893  25.380   8.698  22.499 -0.1113  0.1049 -0.2871
  496BOLB   PO211894  25.265   8.650  22.129  0.3426 -0.2194  0.0792
  496BOLB   GL311895  24.977   8.838  21.880  0.3568 -0.2599  0.1010
  496BOLB   GL411896  24.749   8.876  22.123  0.4934 -0.1122 -0.0241
  496BOLB   C1C11897  24.850   9.248  21.678  0.0517 -0.1648 -0.0281
  496BOLB   C2C11898  24.718   9.596  21.740  0.2715 -0.0228 -0.1742
  496BOLB   C3C11899  24.332   9.760  21.611  0.4912 -0.1016  0.1271
  496BOLB   C4C11900  23.970   9.736  21.535  0.1152 -0.0534  0.2895
  496BOLB   C1D11901  24.426   9.100  21.979  0.2912  0.0325  0.2623
  496BOLB   C2D11902  24.045   9.169  21.710 -0.0768 -0.0191 -0.1859
  496BOLB   C3D11903  23.970   9.212  21.317 -0.3611 -0.1704  0.2788
  496BOLB   C4D11904  24.040   9.432  20.921  0.3330 -0.2854  0.2782
  497BOLB   NC111905  20.415  20.030  23.411  0.2088 -0.1662 -0.0285
  497BOLB   PO111906  19.957  20.058  23.582  0.2698  0.1327 -0.1775
  497BOLB   GL111907  20.224  20.332  23.801 -0.0234 -0.0061  0.0773
  497BOLB   GL211908  20.553  20.198  23.877  0.0537 -0.0001 -0.0136
  497BOLB   C1A11909  20.333  20.450  24.228  0.0400 -0.0159 -0.0362
  497BOLB   C2A11910  20.513  20.388  24.611  0.0356  0.1060  0.0198
  497BOLB   C3A11911  20.649  20.831  24.710  0.0638  0.2731 -0.1647
  497BOLB   C4A11912  20.529  21.166  24.920 -0.1827 -0.0497 -0.3134
  497BOLB   C1B11913  20.713  20.094  24.272 -0.0957 -0.0338 -0.2873
  497BOLB   C2B11914  20.796  19.809  24.556  0.0734 -0.3199 -0.0662
  497BOLB   C3B11915  20.854  19.432  24.747  0.1414 -0.0671 -0.3320
  497BOLB   C4B11916  21.145  19.285  25.057  0.0727  0.2358  0.1111
  497BOLB   NC211917  21.830  21.260  26.644  0.0024 -0.3121 -0.0244
  497BOLB   PO211918  21.566  20.910  26.792  0.0663 -0.1160 -0.0751
  497BOLB   GL311919  21.560  20.685  26.417 -0.0254  0.1965  0.1848
  497BOLB   GL411920  21.536  20.860  26.132 -0.0884 -0.2306 -0.0824
  497BOLB   C1C11921  21.138  20.543  26.310 -0.3804 -0.1136 -0.0796
  497BOLB   C2C11922  20.812  20.694  26.192 -0.3244  0.0157  0.0975
  497BOLB   C3C11923  20.494  20.727  25.872  0.0097 -0.2242 -0.1455
  497BOLB   C4C11924  20.501  21.016  25.412  0.0268 -0.0078 -0.3531
  497BOLB   C1D11925  21.305  20.560  25.832  0.0137 -0.0692 -0.1511
  497BOLB   C2D11926  20.964  20.696  25.578 -0.1712  0.0342  0.1442
  497BOLB   C3D11927  20.972  21.140  25.552  0.0905  0.2988  0.0682
  497BOLB   C4D11928  20.708  21.437  25.351 -0.1670 -0.0664  0.2711
  498BOLB   NC111929  21.322  21.485  21.700  0.0480 -0.1778  0.1917
  498BOLB   PO111930  20.929  21.330  21.762  0.1359 -0.1555  0.4131
  498BOLB   GL111931  21.132  21.605  22.126 -0.0958  0.3365 -0.0748
  498BOLB   GL211932  21.384  21.475  22.156  0.0421 -0.2557  0.1021
  498BOLB   C1A11933  21.186  21.675  22.605 -0.0003 -0.3976  0.3367
  498BOLB   C2A11934  21.533  21.547  22.967 -0.4794 -0.0510  0.2554
  498BOLB   C3A11935  21.836  21.744  23.229 -0.0528 -0.0016 -0.1440
  498BOLB   C4A11936  22.338  21.717  23.366  0.0755  0.1403 -0.2021
  498BOLB   C1B11937  21.600  21.735  22.423  0.1695  0.1601 -0.0602
  498BOLB   C2B11938  21.918  21.916  22.808  0.1503  0.0776 -0.3576
  498BOLB   C3B11939  22.080  22.218  23.155  0.2448  0.1635  0.1943
  498BOLB   C4B11940  22.469  22.193  23.374 -0.1426  0.1059 -0.1926
  498BOLB   NC211941  23.885  22.003  25.269  0.0350  0.0085  0.2496
  498BOLB   PO211942  24.060  21.977  24.942 -0.3341  0.1915 -0.1924
  498BOLB   GL311943  23.681  21.943  24.659  0.2988 -0.0038  0.0270
  498BOLB   GL411944  23.535  22.260  24.552  0.1473 -0.3285 -0.0296
  498BOLB   C1C11945  23.372  21.860  24.262 -0.0693  0.1042  0.0677
  498BOLB   C2C11946  23.277  21.711  23.858 -0.0390  0.0538 -0.0765
  498BOLB   C3C11947  22.917  21.964  23.684 -0.3110  0.4901 -0.0423
  498BOLB   C4C11948  22.555  21.798  23.750 -0.2786  0.0096 -0.1511
  498BOLB   C1D11949  23.148  22.278  24.408  0.1244 -0.0546  0.1043
  498BOLB   C2D11950  22.780  22.312  24.325  0.3840 -0.1442 -0.2311
  498BOLB   C3D11951  22.440  22.616  24.334  0.0972  0.0840  0.1900
  498BOLB   C4D11952  22.175  22.879  24.704 -0.0532 -0.0207 -0.1464
  499BOLB   NC111953  14.383  12.819  24.144  0.0847 -0.1323  0.1069
  499BOLB   PO111954  13.942  13.011  24.108  0.0842 -0.0498  0.2679
  499BOLB   GL111955  13.897  13.036  24.615  0.1347  0.0118  0.1272
  499BOLB   GL211956  14.190  13.132  24.764 -0.0453 -0.2783 -0.0787
  499BOLB   C1A11957  13.965  12.952  25.141  0.1984 -0.0962 -0.0737
  499BOLB   C2A11958  14.154  13.031  25.536 -0.2767  0.2681  0.1776
  499BOLB   C3A11959  14.284  12.948  26.002  0.0340  0.1928 -0.0600
  499BOLB   C4A11960  14.376  12.951  26.476  0.3842  0.0583  0.1762
  499BOLB   C1B11961  14.530  13.084  25.005  0.4587 -0.0340  0.0612
  499BOLB   C2B11962  14.610  12.874  25.374 -0.0588 -0.3317  0.4112
  499BOLB   C3B11963  14.823  12.703  25.789 -0.1800  0.3228 -0.0100
  499BOLB   C4B11964  14.900  12.320  25.934 -0.2228 -0.1619 -0.0120
  499BOLB   NC211965  12.947  13.019  28.907  0.0652  0.2739  0.3499
  499BOLB   PO211966  12.956  13.205  28.479  0.0436 -0.1281  0.0034
  499BOLB   GL311967  13.085  13.387  28.104  0.3623  0.1302  0.2196
  499BOLB   GL411968  12.760  13.218  27.825 -0.2196 -0.1094 -0.2365
  499BOLB   C1C11969  13.361  13.459  27.798 -0.0150 -0.1558 -0.3145
  499BOLB   C2C11970  13.524  13.383  27.367 -0.3015 -0.2047 -0.0276
  499BOLB   C3C11971  13.713  13.368  26.985 -0.4322  0.0374 -0.0323
  499BOLB   C4C11972  14.008  13.069  26.711 -0.1364  0.2243  0.1631
  499BOLB   C1D11973  12.680  13.478  27.605  0.0407 -0.1138 -0.0330
  499BOLB   C2D11974  12.937  13.743  27.560 -0.0640 -0.2586  0.2787
  499BOLB   C3D11975  13.086  13.999  27.567  0.1138 -0.0690  0.0513
  499BOLB   C4D11976  13.189  14.320  27.314  0.3719  0.1250 -0.1142
  500BOLB   NC111977  17.193  17.347  24.127 -0.0793  0.0042 -0.2637
  500BOLB   PO111978  17.332  17.781  24.154  0.0680 -0.1509  0.1266
  500BOLB   GL111979  17.188  17.654  24.525  0.2169  0.3250 -0.2490
  500BOLB   GL211980  16.924  17.521  24.665 -0.0804 -0.0598  0.1431
  500BOLB   C1A11981  17.508  17.601  24.857 -0.0655 -0.0619  0.0438
  500BOLB   C2A11982  17.645  17.700  25.265 -0.0914 -0.0503  0.3084
  500BOLB   C3A11983  17.808  17.571  25.683  0.0235  0.0771 -0.0207
  500BOLB   C4A11984  17.814  17.354  25.988  0.0836  0.0435 -0.2672
  500BOLB   C1B11985  16.997  17.499  25.019 -0.1888  0.3639 -0.4092
  500BOLB   C2B11986  17.158  17.630  25.388 -0.4068 -0.2865  0.0673
  500BOLB   C3B11987  17.320  17.704  25.790 -0.1151  0.1846  0.0572
  500BOLB   C4B11988  17.335  17.593  26.165 -0.0647 -0.0908 -0.0526
  500BOLB   NC211989  17.785  17.504  28.557  0.1480 -0.0744 -0.1791
  500BOLB   PO211990  17.701  17.854  28.400  0.0221  0.0605 -0.0088
  500BOLB   GL311991  17.857  17.814  27.943 -0.1869  0.2549  0.0301
  500BOLB   GL411992  17.574  17.909  27.880  0.0480 -0.2034 -0.2600
  500BOLB   C1C11993  17.853  17.540  27.603  0.2623 -0.3946  0.4932
  500BOLB   C2C11994  17.730  17.437  27.309  0.0136 -0.0890 -0.0030
  500BOLB   C3C11995  17.761  17.335  26.785 -0.0231 -0.2423 -0.4236
  500BOLB   C4C11996  17.725  17.367  26.419  0.2334  0.2447 -0.0966
  500BOLB   C1D11997  17.264  17.787  27.697 -0.0620 -0.0205 -0.1097
  500BOLB   C2D11998  17.288  17.563  27.375  0.3248  0.0980 -0.0460
  500BOLB   C3D11999  17.347  17.424  27.019 -0.0378 -0.0504  0.2678
  500BOLB   C4D12000  17.212  17.341  26.605  0.0884 -0.2333  0.2781
  501BOLB   NC112001  21.360  11.670  22.144 -0.2444 -0.0829  0.2942
  501BOLB   PO112002  21.275  12.134  22.190 -0.1130  0.2071 -0.1183
  501BOLB   GL112003  21.686  12.109  22.361  0.2458  0.2212  0.0697
  501BOLB   GL212004  21.529  12.320  22.625 -0.0877  0.1746 -0.1426
  501BOLB   C1A12005  22.006  11.993  22.532 -0.1478  0.1089 -0.0206
  501BOLB   C2A12006  22.423  11.868  22.729  0.1592  0.0653  0.1658
  501BOLB   C3A12007  22.579  11.476  22.912 -0.3712 -0.0476  0.0064
  501BOLB   C4A12008  22.910  11.329  23.215  0.0837  0.1241  0.0824
  501BOLB   C1B12009  21.605  12.056  22.901  0.0026 -0.1889 -0.3814
  501BOLB   C2B12010  21.636  11.678  22.841 -0.4744  0.1163 -0.0992
  501BOLB   C3B12011  21.611  11.332  23.083  0.0820 -0.2687  0.0590
  501BOLB   C4B12012  21.324  10.937  23.042 -0.1840  0.0926 -0.0223
  501BOLB   NC212013  25.360  10.059  24.175  0.0403 -0.2421  0.2175
  501BOLB   PO212014  24.992  10.413  24.091  0.2517  0.4007  0.0545
  501BOLB   GL312015  24.657  10.624  24.028 -0.1516  0.0399 -0.0541
  501BOLB   GL412016  24.311  10.448  24.127  0.1062  0.1782 -0.2282
  501BOLB   C1C12017  24.268  10.783  23.749 -0.0225  0.0502  0.0319
  501BOLB   C2C12018  23.952  10.783  23.643 -0.2228  0.1396  0.4302
  501BOLB   C3C12019  23.572  11.035  23.662  0.0007  0.0672  0.1471
  501BOLB   C4C12020  23.264  11.359  23.611 -0.0778  0.3560 -0.3514
  501BOLB   C1D12021  23.929  10.730  24.163 -0.1875  0.3962  0.1585
  501BOLB   C2D12022  23.428  10.699  24.100  0.0801 -0.4642 -0.0930
  501BOLB   C3D12023  23.005  10.712  23.981 -0.0688  0.1320 -0.0115
  501BOLB   C4D12024  22.928  10.977  23.606  0.0982  0.1211 -0.0856
  502BOLB   NC112025  13.939  13.427  24.360 -0.5015 -0.0380 -0.0604
  502BOLB   PO112026  14.401  13.281  24.366 -0.0086  0.1289  0.0727
  502BOLB   GL112027  14.704  13.392  24.682  0.0444 -0.0735 -0.0898
  502BOLB   GL212028  14.939  13.193  24.791 -0.1369  0.1660 -0.2567
  502BOLB   C1A12029  14.609  13.547  25.108  0.0638 -0.2586 -0.1669
  502BOLB   C2A12030  14.577  13.451  25.473  0.3325  0.2118 -0.0860
  502BOLB   C3A12031  14.464  13.514  25.811  0.1919 -0.3906  0.2303
  502BOLB   C4A12032  14.069  13.405  26.092 -0.2362  0.3444  0.1831
  502BOLB   C1B12033  15.033  13.175  25.167  0.0176  0.3354  0.2593
  502BOLB   C2B12034  14.981  13.125  25.597 -0.2893 -0.1454  0.0417
  502BOLB   C3B12035  14.814  13.191  25.910  0.5470 -0.0067  0.1317
  502BOLB   C4B12036  14.784  12.991  26.263  0.1376 -0.3172  0.0901
  502BOLB   NC212037  12.517  12.557  27.690  0.1828 -0.0564  0.1111
  502BOLB   PO212038  12.824  12.761  27.767  0.0551  0.3960  0.0713
  502BOLB   GL312039  12.979  12.791  27.414  0.1207  0.1880 -0.0432
  502BOLB   GL412040  12.718  12.612  27.164  0.0509 -0.1294  0.1972
  502BOLB   C1C12041  13.222  12.971  27.046 -0.0821  0.2077 -0.1238
  502BOLB   C2C12042  13.213  13.253  26.748 -0.2837 -0.1378  0.0101
  502BOLB   C3C12043  13.467  13.569  26.563 -0.0523 -0.3546  0.0596
  502BOLB   C4C12044  13.956  13.505  26.523 -0.0819  0.0891 -0.2302
  502BOLB   C1D12045  12.378  12.832  26.921 -0.1205  0.2933  0.0360
  502BOLB   C2D12046  12.122  13.132  26.646 -0.2992  0.1711 -0.2054
  502BOLB   C3D12047  11.695  13.105  26.350  0.3426 -0.0778 -0.0811
  502BOLB   C4D12048  11.648  13.349  26.011 -0.0936 -0.0257 -0.0063
  503BOLB   NC112049  14.780  12.142  23.587 -0.3002 -0.0436  0.0586
  503BOLB   PO112050  14.722  11.619  23.677  0.0852 -0.1749 -0.2317
  503BOLB   GL112051  14.589  11.289  23.914 -0.1531  0.2704  0.0655
  503BOLB   GL212052  14.366  11.490  24.108  0.0659 -0.1576 -0.0600
  503BOLB   C1A12053  14.371  10.980  24.236  0.0467 -0.0738  0.1810
  503BOLB   C2A12054  14.524  10.864  24.627  0.3294 -0.0723  0.2703
  503BOLB   C3A12055  14.762  10.573  24.894  0.2620  0.0458  0.0476
  503BOLB   C4A12056  14.970  10.530  25.233 -0.0734  0.1283  0.0678
  503BOLB   C1B12057  14.601  11.433  24.494  0.0965 -0.0496  0.0188
  503BOLB   C2B12058  14.606  11.544  25.006 -0.1483  0.1301 -0.0771
  503BOLB   C3B12059  14.817  11.618  25.361  0.0745 -0.0716 -0.0973
  503BOLB   C4B12060  14.842  11.646  25.770  0.0059 -0.0093  0.1662
  503BOLB   NC212061  15.150   9.910  27.580 -0.0052  0.1988  0.0755
  503BOLB   PO212062  15.503   9.825  27.197 -0.1943  0.0347  0.0384
  503BOLB   GL312063  15.690  10.079  26.917  0.7000  0.1013  0.0497
  503BOLB   GL412064  16.043  10.195  26.890  0.1759  0.3169  0.0868
  503BOLB   C1C12065  15.775  10.068  26.449  0.1564 -0.0108 -0.1643
  503BOLB   C2C12066  15.543  10.372  26.192 -0.0778  0.2890 -0.3141
  503BOLB   C3C12067  15.356  10.493  25.952  0.1533  0.1115 -0.3891
  503BOLB   C4C12068  15.026  10.652  25.592  0.3001 -0.2705  0.0763
  503BOLB   C1D12069  16.285  10.314  26.588 -0.1388  0.3181  0.0977
  503BOLB   C2D12070  16.117  10.308  26.184  0.0324 -0.2608  0.2002
  503BOLB   C3D12071  15.756   9.971  25.968 -0.1023  0.0880  0.3648
  503BOLB   C4D12072  15.321  10.031  25.914  0.2360  0.3073 -0.2698
  504BOLB   NC112073  10.354  17.333  23.644 -0.0757 -0.1764 -0.1322
  504BOLB   PO112074  10.176  17.501  24.069  0.0726 -0.2818  0.2005
  504BOLB   GL112075  10.241  17.388  24.565  0.0689  0.2140  0.1147
  504BOLB   GL212076  10.168  17.761  24.583 -0.3264  0.0682 -0.1299
  504BOLB   C1A12077  10.141  17.286  25.022 -0.0890 -0.2105  0.3744
  504BOLB   C2A12078  10.084  17.126  25.421 -0.5021  0.1655 -0.0019
  504BOLB   C3A12079  10.269  16.986  25.802  0.1965  0.0591  0.0775
  504BOLB   C4A12080  10.195  16.932  26.395 -0.1034  0.0924  0.3041
  504BOLB   C1B12081  10.026  17.740  25.076 -0.3176  0.0616  0.1989
  504BOLB   C2B12082  10.001  17.661  25.435 -0.0304  0.1223 -0.1384
  504BOLB   C3B12083   9.952  17.669  25.876 -0.0565 -0.0694  0.0499
  504BOLB   C4B12084   9.966  17.483  26.216 -0.2023  0.4633 -0.2496
  504BOLB   NC212085   9.772  15.609  28.168 -0.2739 -0.2045 -0.3151
  504BOLB   PO212086   9.574  15.931  28.319 -0.0800  0.0350  0.1015
  504BOLB   GL312087   9.810  16.172  27.918 -0.0590  0.2917  0.0379
  504BOLB   GL412088  10.035  15.952  27.680 -0.1772 -0.2556 -0.1327
  504BOLB   C1C12089  10.013  16.520  27.727  0.0132 -0.0033  0.1660
  504BOLB   C2C12090  10.072  16.421  27.400  0.2856 -0.0037  0.1019
  504BOLB   C3C12091  10.121  16.293  26.913 -0.1096  0.0657  0.0879
  504BOLB   C4C12092  10.338  16.559  26.670 -0.0495  0.0691  0.2153
  504BOLB   C1D12093  10.159  15.901  27.324  0.1314 -0.0850 -0.0234
  504BOLB   C2D12094   9.950  15.798  26.898  0.0889  0.2328 -0.1121
  504BOLB   C3D12095  10.096  15.608  26.530 -0.1232 -0.4262 -0.3201
  504BOLB   C4D12096  10.216  15.619  26.103 -0.2110 -0.1552  0.1120
  505BOLB   NC112097  16.215  21.480  23.945  0.0597  0.1900 -0.2549
  505BOLB   PO112098  16.196  21.033  23.900  0.0438 -0.0265  0.1133
  505BOLB   GL112099  16.075  21.031  24.377  0.2242  0.3324  0.1699
  505BOLB   GL212100  16.111  21.271  24.488 -0.2323 -0.0336  0.2675
  505BOLB   C1A12101  15.982  20.850  24.732  0.0190 -0.0546  0.0189
  505BOLB   C2A12102  15.996  20.852  25.116 -0.1660 -0.0688 -0.1591
  505BOLB   C3A12103  15.965  20.733  25.538  0.1049  0.1025  0.0631
  505BOLB   C4A12104  16.099  20.777  25.901  0.4271  0.0555 -0.0771
  505BOLB   C1B12105  16.023  21.433  24.871 -0.4174 -0.1445  0.3117
  505BOLB   C2B12106  16.102  21.412  25.336  0.3506  0.2823 -0.1987
  505BOLB   C3B12107  16.102  21.270  25.737  0.2117 -0.1829 -0.0357
  505BOLB   C4B12108  16.230  21.162  26.167 -0.1272 -0.1804 -0.0192
  505BOLB   NC212109  16.088  20.424  28.096 -0.2093 -0.1012 -0.0312
  505BOLB   PO212110  15.971  20.014  28.204 -0.3630 -0.0739  0.4280
  505BOLB   GL312111  16.137  19.948  27.828  0.1451 -0.1368  0.0908
  505BOLB   GL412112  15.928  19.746  27.746  0.2125 -0.2215 -0.2865
  505BOLB   C1C12113  16.078  20.033  27.402 -0.1947 -0.0545 -0.1401
  505BOLB   C2C12114  16.025  20.053  27.025 -0.1117  0.0954 -0.1470
  505BOLB   C3C12115  15.862  20.318  26.715  0.2537  0.1827  0.0691
  505BOLB   C4C12116  15.872  20.489  26.287 -0.1249 -0.0288 -0.1600
  505BOLB   C1D12117  16.019  19.543  27.236  0.0257  0.1530 -0.0139
  505BOLB   C2D12118  16.139  19.622  26.789  0.0874 -0.0059 -0.1651
  505BOLB   C3D12119  16.449  19.385  26.494  0.2277  0.0248 -0.0735
  505BOLB   C4D12120  16.579  18.990  26.321  0.0432 -0.3652 -0.1367
  506BOLB   NC112121  18.592  22.660  23.057  0.2016  0.1028 -0.1388
  506BOLB   PO112122  18.466  23.044  22.873 -0.4835 -0.1390 -0.0101
  506BOLB   GL112123  18.433  23.058  23.301 -0.0625  0.1480 -0.2373
  506BOLB   GL212124  18.626  23.336  23.452  0.0219 -0.1266 -0.0843
  506BOLB   C1A12125  18.372  23.118  23.746  0.3519  0.1735 -0.1284
  506BOLB   C2A12126  18.472  23.309  24.128  0.0045  0.1539 -0.2328
  506BOLB   C3A12127  18.370  23.106  24.399 -0.2345  0.1297  0.0653
  506BOLB   C4A12128  18.419  23.087  24.851  0.1128 -0.3344 -0.3554
  506BOLB   C1B12129  18.752  23.592  23.818 -0.1210  0.2307 -0.0363
  506BOLB   C2B12130  18.895  23.753  24.253  0.3022  0.0232  0.1266
  506BOLB   C3B12131  19.157  24.022  24.559  0.4159  0.0510  0.2237
  506BOLB   C4B12132  19.532  24.185  24.709  0.1145  0.1534  0.1988
  506BOLB   NC212133  19.802  23.825  27.345  0.1865  0.0038  0.0471
  506BOLB   PO212134  19.386  23.534  27.287 -0.1805 -0.1200 -0.0703
  506BOLB   GL312135  19.229  23.400  26.867  0.1883  0.3207 -0.2107
  506BOLB   GL412136  19.527  23.161  26.646  0.0331 -0.1745 -0.0039
  506BOLB   C1C12137  19.010  23.244  26.474 -0.1950  0.0767  0.1884
  506BOLB   C2C12138  19.022  23.111  26.055  0.0500 -0.2551 -0.0135
  506BOLB   C3C12139  18.792  23.204  25.639  0.3562 -0.1280 -0.2069
  506BOLB   C4C12140  18.487  23.026  25.312  0.0826 -0.1738 -0.0324
  506BOLB   C1D12141  19.428  23.496  26.314  0.1728 -0.0353  0.3709
  506BOLB   C2D12142  19.451  23.392  25.893  0.3298 -0.5957  0.2047
  506BOLB   C3D12143  19.279  23.280  25.495 -0.1929 -0.0486 -0.0363
  506BOLB   C4D12144  19.107  23.394  25.194 -0.0504  0.2540 -0.1273
  507BOLB   NC112145  12.754  25.389  22.652  0.2633  0.1318  0.3301
  507BOLB   PO112146  13.126  25.501  22.778 -0.0500 -0.0797 -0.0735
  507BOLB   GL112147  13.203  25.368  23.135  0.3794 -0.1202  0.0352
  507BOLB   GL212148  13.098  25.065  23.280  0.2031  0.1853 -0.0375
  507BOLB   C1A12149  13.425  25.403  23.554 -0.0683 -0.3033 -0.0610
  507BOLB   C2A12150  13.468  25.440  23.914 -0.4188 -0.1174 -0.3660
  507BOLB   C3A12151  13.617  25.543  24.350 -0.0802  0.2214  0.0120
  507BOLB   C4A12152  13.477  25.446  24.709  0.0881  0.2815 -0.1082
  507BOLB   C1B12153  12.877  25.241  23.579 -0.3080 -0.1344  0.1412
  507BOLB   C2B12154  12.754  25.391  24.004  0.2085  0.1426 -0.0181
  507BOLB   C3B12155  13.118  25.486  24.271  0.0128  0.2244 -0.0562
  507BOLB   C4B12156  13.099  25.728  24.623 -0.2225 -0.0731  0.0952
  507BOLB   NC212157  13.119  26.699  26.585  0.1229  0.4975 -0.2324
  507BOLB   PO212158  13.460  26.426  26.780 -0.1114  0.0422  0.2448
  507BOLB   GL312159  13.313  26.274  26.387  0.2112  0.0997  0.2752
  507BOLB   GL412160  13.301  25.925  26.434  0.1918 -0.1897  0.2942
  507BOLB   C1C12161  13.314  26.202  25.927  0.0771 -0.0760 -0.3791
  507BOLB   C2C12162  13.307  25.923  25.734 -0.2037  0.1440  0.3858
  507BOLB   C3C12163  13.377  25.600  25.593 -0.1261 -0.1119  0.1421
  507BOLB   C4C12164  13.359  25.441  25.145 -0.3569  0.0411  0.3906
  507BOLB   C1D12165  13.114  25.607  26.147  0.1986 -0.0514  0.2782
  507BOLB   C2D12166  12.773  25.445  25.994  0.2310 -0.2048  0.1505
  507BOLB   C3D12167  12.542  25.079  25.917 -0.3101 -0.0912 -0.0630
  507BOLB   C4D12168  12.294  24.699  25.776 -0.4334  0.2420 -0.4072
  508BOLB   NC112169  21.209  18.997  22.950  0.0033  0.0649 -0.1682
  508BOLB   PO112170  21.144  19.418  22.774  0.0831 -0.1052 -0.2179
  508BOLB   GL112171  21.557  19.313  23.068 -0.2556 -0.0138  0.0915
  508BOLB   GL212172  21.709  18.997  23.016 -0.1412  0.0213 -0.0534
  508BOLB   C1A12173  21.747  19.308  23.450 -0.0068 -0.0709 -0.0444
  508BOLB   C2A12174  21.951  19.265  23.823  0.0984  0.1295  0.0860
  508BOLB   C3A12175  22.375  19.141  24.033 -0.1354  0.2295  0.0159
  508BOLB   C4A12176  22.754  18.939  24.081  0.3197  0.1882  0.1481
  508BOLB   C1B12177  22.048  18.920  23.357  0.1261  0.1083 -0.0626
  508BOLB   C2B12178  22.339  18.846  23.672 -0.1528 -0.0215  0.1179
  508BOLB   C3B12179  22.753  18.697  23.632 -0.0413 -0.2811 -0.0496
  508BOLB   C4B12180  23.016  18.522  23.836 -0.0442 -0.1599 -0.0655
  508BOLB   NC212181  24.846  19.931  25.849  0.0749  0.3773 -0.0796
  508BOLB   PO212182  24.696  19.884  25.337  0.1673 -0.0945  0.1323
  508BOLB   GL312183  24.285  19.815  25.187 -0.1383  0.0672 -0.2174
  508BOLB   GL412184  24.174  19.708  25.433 -0.1233 -0.4326 -0.0343
  508BOLB   C1C12185  24.062  19.710  24.747 -0.0186  0.1681  0.0726
  508BOLB   C2C12186  23.788  19.393  24.509  0.2076  0.2342  0.0708
  508BOLB   C3C12187  23.512  19.292  24.244  0.1758  0.4092  0.1160
  508BOLB   C4C12188  23.088  19.086  24.280  0.0583 -0.0566 -0.1167
  508BOLB   C1D12189  23.930  19.443  25.158  0.1174  0.3617  0.2132
  508BOLB   C2D12190  23.555  19.291  24.910 -0.0110 -0.0594 -0.1883
  508BOLB   C3D12191  23.329  19.060  24.737  0.1688  0.4896 -0.0471
  508BOLB   C4D12192  23.478  18.677  24.433  0.0853 -0.0895  0.0673
  509BOLB   NC112193  11.666  16.895  24.550 -0.1837  0.0282  0.2143
  509BOLB   PO112194  11.233  16.713  24.386  0.4191 -0.2017 -0.1052
  509BOLB   GL112195  11.156  16.797  24.742  0.0966 -0.0239 -0.0249
  509BOLB   GL212196  11.450  16.584  24.957  0.0804 -0.2828  0.1398
  509BOLB   C1A12197  10.894  16.648  24.897 -0.1393  0.1259 -0.0645
  509BOLB   C2A12198  10.772  16.597  25.309  0.0297 -0.1862 -0.2966
  509BOLB   C3A12199  10.709  16.487  25.764  0.1063 -0.0813 -0.1148
  509BOLB   C4A12200  10.494  16.454  26.104  0.1333 -0.2339  0.2462
  509BOLB   C1B12201  11.272  16.719  25.335  0.0883 -0.0534  0.0277
  509BOLB   C2B12202  11.299  16.660  25.830  0.3581  0.0224  0.1602
  509BOLB   C3B12203  10.991  16.481  26.177  0.2542 -0.0237  0.1721
  509BOLB   C4B12204  10.751  16.315  26.582  0.0311  0.0570 -0.0893
  509BOLB   NC212205   8.811  16.514  28.417  0.1882  0.4802 -0.3403
  509BOLB   PO212206   9.115  16.311  28.038  0.3722 -0.0651 -0.1075
  509BOLB   GL312207   9.209  16.227  27.615 -0.1602 -0.1293 -0.1024
  509BOLB   GL412208   9.635  16.144  27.474  0.0856  0.4456 -0.0373
  509BOLB   C1C12209   9.246  16.227  27.180 -0.3118 -0.2010 -0.2935
  509BOLB   C2C12210   9.591  16.126  26.891  0.1731 -0.3682  0.5204
  509BOLB   C3C12211   9.779  16.102  26.501 -0.1828 -0.0381 -0.0831
  509BOLB   C4C12212  10.225  16.186  26.305 -0.4087  0.1185  0.0076
  509BOLB   C1D12213   9.666  15.700  27.334  0.1298  0.3987 -0.0620
  509BOLB   C2D12214   9.808  15.354  27.156  0.1394 -0.2431  0.1610
  509BOLB   C3D12215   9.846  15.176  26.721  0.0658 -0.4066  0.1354
  509BOLB   C4D12216   9.902  15.219  26.267 -0.0877 -0.3839 -0.2432
  510BOLB   NC112217  22.882  19.414  20.876  0.2629 -0.0001  0.1149
  510BOLB   PO112218  22.794  19.851  21.085 -0.0785 -0.0709  0.1320
  510BOLB   GL112219  23.062  20.171  21.365 -0.0817 -0.2370  0.0602
  510BOLB   GL212220  23.214  20.039  21.576  0.1249 -0.3762  0.3183
  510BOLB   C1A12221  23.313  20.543  21.277 -0.1183 -0.4077  0.0052
  510BOLB   C2A12222  23.585  20.910  21.100  0.0005  0.1562  0.0140
  510BOLB   C3A12223  24.004  20.958  21.281 -0.0765 -0.2475  0.3569
  510BOLB   C4A12224  24.331  21.038  21.585 -0.0280  0.1595 -0.1636
  510BOLB   C1B12225  23.398  20.434  21.744  0.1436  0.2095 -0.2000
  510BOLB   C2B12226  23.698  20.680  21.607 -0.2717 -0.1495 -0.3806
  510BOLB   C3B12227  23.916  20.796  21.881 -0.0434 -0.1092  0.1388
  510BOLB   C4B12228  24.200  21.050  22.070  0.0389 -0.2668  0.4105
  510BOLB   NC212229  25.590  22.164  22.424  0.0209 -0.0904  0.0747
  510BOLB   PO212230  25.834  22.112  22.090  0.1309 -0.0553 -0.1230
  510BOLB   GL312231  25.383  22.012  22.022 -0.2616  0.0993  0.0729
  510BOLB   GL412232  25.461  21.835  21.734  0.4107  0.0048  0.2480
  510BOLB   C1C12233  24.966  21.930  21.906 -0.1136 -0.4023  0.0298
  510BOLB   C2C12234  24.738  21.689  22.215 -0.3102 -0.0803 -0.1500
  510BOLB   C3C12235  24.626  21.270  22.232  0.1027  0.1543 -0.1861
  510BOLB   C4C12236  24.622  21.032  21.815  0.0953 -0.2481 -0.0065
  510BOLB   C1D12237  25.283  21.828  21.372  0.1535  0.1616  0.0014
  510BOLB   C2D12238  24.948  21.898  21.037  0.1494 -0.0618 -0.1721
  510BOLB   C3D12239  24.611  21.651  20.978 -0.0317 -0.1810 -0.1286
  510BOLB   C4D12240  24.432  21.267  20.705 -0.3579 -0.0941 -0.1232
  511BOLB   NC112241  20.689  13.148  22.192 -0.4347 -0.1987  0.1269
  511BOLB   PO112242  20.767  12.892  22.247 -0.3539  0.3595  0.0782
  511BOLB   GL112243  20.763  12.764  22.634  0.1102 -0.0363 -0.0088
  511BOLB   GL212244  20.993  13.087  22.656 -0.0253  0.0211 -0.0035
  511BOLB   C1A12245  20.716  12.824  23.101 -0.1412 -0.4306  0.0960
  511BOLB   C2A12246  21.002  12.804  23.423 -0.1098 -0.0167  0.1259
  511BOLB   C3A12247  21.264  12.617  23.744 -0.1197  0.1433  0.1738
  511BOLB   C4A12248  21.690  12.557  23.969 -0.1275 -0.0834 -0.0203
  511BOLB   C1B12249  21.348  13.285  22.835 -0.2261 -0.0746 -0.1321
  511BOLB   C2B12250  21.628  13.341  23.126  0.0799 -0.4424  0.1191
  511BOLB   C3B12251  21.872  13.328  23.446  0.1864 -0.0953 -0.2262
  511BOLB   C4B12252  21.998  13.313  23.902  0.0918 -0.2541  0.1029
  511BOLB   NC212253  22.669  11.529  25.738 -0.0873  0.0600 -0.1068
  511BOLB   PO212254  22.824  11.907  25.512 -0.1423  0.3412 -0.0489
  511BOLB   GL312255  22.423  11.841  25.342 -0.1491  0.0459 -0.1454
  511BOLB   GL412256  22.219  11.837  25.587 -0.1075  0.1556  0.0172
  511BOLB   C1C12257  22.183  11.441  25.118 -0.1242 -0.1176 -0.3344
  511BOLB   C2C12258  22.155  11.597  24.637 -0.2013  0.2979  0.1284
  511BOLB   C3C12259  22.197  11.992  24.317 -0.1976  0.0909 -0.1436
  511BOLB   C4C12260  22.122  12.384  24.209  0.0139 -0.2751 -0.2781
  511BOLB   C1D12261  22.090  12.204  25.395  0.1299  0.1410  0.1660
  511BOLB   C2D12262  22.143  12.568  25.349 -0.3529  0.0030 -0.1404
  511BOLB   C3D12263  22.107  12.936  25.173  0.0474  0.2102  0.2226
  511BOLB   C4D12264  22.419  13.243  25.005 -0.1781  0.0803 -0.0171
  512BOLB   NC112265  21.775  21.742  20.548  0.0229 -0.2904 -0.1580
  512BOLB   PO112266  21.848  22.119  20.797 -0.1794 -0.0703  0.0371
  512BOLB   GL112267  22.076  22.244  21.161 -0.0289 -0.0570 -0.1712
  512BOLB   GL212268  22.379  22.486  21.128  0.1967 -0.3880 -0.1993
  512BOLB   C1A12269  22.185  22.197  21.585 -0.2945  0.0277 -0.1373
  512BOLB   C2A12270  22.583  22.104  21.922 -0.2420  0.2990 -0.1370
  512BOLB   C3A12271  23.038  22.206  21.867  0.5066 -0.1914 -0.0741
  512BOLB   C4A12272  23.431  22.268  21.885 -0.0697 -0.0573  0.0417
  512BOLB   C1B12273  22.705  22.809  21.253  0.2333 -0.0312 -0.0596
  512BOLB   C2B12274  23.137  22.905  21.232  0.0561 -0.0531  0.1447
  512BOLB   C3B12275  23.559  23.092  21.112  0.0901  0.2154  0.1112
  512BOLB   C4B12276  23.885  23.294  20.861 -0.0658  0.1006  0.1140
  512BOLB   NC212277  24.711  23.490  23.625  0.0078  0.0690 -0.0340
  512BOLB   PO212278  24.280  23.635  23.721 -0.2972  0.2554  0.4116
  512BOLB   GL312279  23.883  23.534  23.627 -0.2099  0.1088  0.0172
  512BOLB   GL412280  23.667  23.369  23.780  0.0961 -0.0048  0.0564
  512BOLB   C1C12281  23.902  23.353  23.199  0.0550 -0.1309  0.1381
  512BOLB   C2C12282  23.893  22.993  22.832  0.4255 -0.1551 -0.3013
  512BOLB   C3C12283  23.674  22.835  22.500 -0.2158  0.2160  0.2950
  512BOLB   C4C12284  23.733  22.612  22.095  0.0140 -0.2660  0.1990
  512BOLB   C1D12285  23.282  23.245  23.587 -0.4379  0.2000  0.0658
  512BOLB   C2D12286  22.993  22.939  23.442 -0.1535  0.1320 -0.2157
  512BOLB   C3D12287  22.792  22.831  22.928  0.1266 -0.2214  0.0485
  512BOLB   C4D12288  22.634  22.370  22.792  0.2571 -0.1921  0.2625
  513BOLB   NC112289  20.128  16.548  23.767  0.3797 -0.5195 -0.3288
  513BOLB   PO112290  20.051  16.091  23.772  0.0979  0.3105  0.0859
  513BOLB   GL112291  20.129  16.172  24.211  0.1278 -0.2364  0.3795
  513BOLB   GL212292  20.345  16.507  24.229  0.2785 -0.1366 -0.0914
  513BOLB   C1A12293  20.085  16.396  24.623 -0.1630 -0.0759 -0.4891
  513BOLB   C2A12294  19.940  16.652  24.976  0.0852  0.1792  0.0654
  513BOLB   C3A12295  19.792  16.680  25.424 -0.1826  0.2562 -0.0485
  513BOLB   C4A12296  20.004  16.558  25.741  0.2211  0.0958 -0.0986
  513BOLB   C1B12297  20.559  16.191  24.329 -0.3184  0.2826  0.3181
  513BOLB   C2B12298  20.858  16.053  24.638 -0.1354  0.1405 -0.1037
  513BOLB   C3B12299  21.283  16.004  24.809 -0.2723 -0.5463  0.0586
  513BOLB   C4B12300  21.639  16.276  24.752 -0.0037  0.5343 -0.0453
  513BOLB   NC212301  20.857  15.770  27.829  0.0469  0.4986  0.2345
  513BOLB   PO212302  20.507  15.459  27.923 -0.1750  0.2765  0.2885
  513BOLB   GL312303  20.479  15.689  27.485  0.1601 -0.0184 -0.0749
  513BOLB   GL412304  20.183  15.805  27.402  0.1067 -0.1039 -0.1485
  513BOLB   C1C12305  20.654  15.792  27.088 -0.0415  0.0115  0.0074
  513BOLB   C2C12306  20.444  16.025  26.821  0.1752  0.1775  0.1128
  513BOLB   C3C12307  20.230  16.444  26.650  0.1282  0.1015 -0.0560
  513BOLB   C4C12308  20.176  16.545  26.123  0.0239  0.0474 -0.0003
  513BOLB   C1D12309  20.146  15.665  26.995  0.1354  0.0864 -0.1376
  513BOLB   C2D12310  20.413  15.516  26.680 -0.2265 -0.0515 -0.3418
  513BOLB   C3D12311  20.873  15.412  26.571  0.1663 -0.0561 -0.1445
  513BOLB   C4D12312  21.198  15.282  26.802  0.2226 -0.1583  0.0954
  514BOLB   NC112313  20.617  11.766  22.497  0.0857 -0.3615  0.0142
  514BOLB   PO112314  20.866  11.456  22.234 -0.0504  0.0549 -0.1182
  514BOLB   GL112315  20.928  11.326  22.616  0.0675  0.0936  0.4941
  514BOLB   GL212316  21.107  11.407  22.829  0.1594 -0.2420  0.4461
  514BOLB   C1A12317  20.941  10.909  22.746  0.1160 -0.1947 -0.0868
  514BOLB   C2A12318  20.878  10.783  23.170 -0.2171  0.0640 -0.0114
  514BOLB   C3A12319  20.906  10.600  23.552  0.0352  0.2339  0.0718
  514BOLB   C4A12320  21.029  10.580  24.002 -0.3330  0.1395 -0.1428
  514BOLB   C1B12321  21.006  11.275  23.300 -0.1523 -0.0847  0.3024
  514BOLB   C2B12322  21.407  11.345  23.554  0.0295 -0.0130  0.1376
  514BOLB   C3B12323  21.696  11.308  23.835 -0.2972 -0.2916  0.0124
  514BOLB   C4B12324  21.918  11.145  24.171  0.0476  0.1538  0.1541
  514BOLB   NC212325  21.413  10.120  25.817  0.0567 -0.0863 -0.2377
  514BOLB   PO212326  21.007   9.987  25.684  0.1251  0.0415  0.0092
  514BOLB   GL312327  20.639   9.929  25.400  0.0169 -0.1324  0.5115
  514BOLB   GL412328  20.563   9.630  25.262 -0.2230  0.2084  0.1266
  514BOLB   C1C12329  20.359  10.150  25.286 -0.2700  0.0413  0.0662
  514BOLB   C2C12330  20.432  10.461  25.045  0.1162  0.1383 -0.0554
  514BOLB   C3C12331  20.631  10.649  24.737  0.0501  0.0881 -0.1661
  514BOLB   C4C12332  20.936  10.698  24.386 -0.1130 -0.0137 -0.3115
  514BOLB   C1D12333  20.628   9.755  24.844  0.1434  0.2282  0.2134
  514BOLB   C2D12334  20.384  10.133  24.730 -0.2293 -0.3572 -0.2721
  514BOLB   C3D12335  19.997  10.291  24.868  0.0214  0.0898 -0.0374
  514BOLB   C4D12336  19.949  10.700  24.909 -0.1382  0.1468 -0.3016
  515BOLB   NC112337  17.908  16.183  24.422 -0.1862 -0.0482  0.1380
  515BOLB   PO112338  17.881  16.637  24.557 -0.2498  0.0042 -0.0021
  515BOLB   GL112339  18.013  16.834  24.864  0.0622 -0.0187 -0.1444
  515BOLB   GL212340  17.925  16.720  25.186 -0.0521  0.1435  0.0029
  515BOLB   C1A12341  18.309  16.999  25.221 -0.0162  0.1412 -0.0642
  515BOLB   C2A12342  18.364  17.267  25.653 -0.0328  0.0065 -0.0150
  515BOLB   C3A12343  18.332  17.400  26.029  0.0698 -0.3156 -0.1528
  515BOLB   C4A12344  18.288  17.418  26.461 -0.1199  0.0069 -0.2799
  515BOLB   C1B12345  17.953  16.513  25.515  0.1001 -0.0915  0.2509
  515BOLB   C2B12346  18.010  16.303  25.853 -0.0624  0.0587  0.2973
  515BOLB   C3B12347  18.301  16.182  26.124 -0.2002  0.0298 -0.0164
  515BOLB   C4B12348  18.494  15.948  26.337 -0.0109 -0.1076  0.0108
  515BOLB   NC212349  17.943  16.672  28.692  0.2406 -0.0166 -0.1545
  515BOLB   PO212350  17.757  16.999  28.514  0.2025  0.4279  0.1194
  515BOLB   GL312351  17.668  17.177  28.170  0.1430  0.1853 -0.2827
  515BOLB   GL412352  17.498  16.863  28.036  0.0775  0.0154 -0.0923
  515BOLB   C1C12353  17.859  17.124  27.889  0.1384  0.2022  0.0745
  515BOLB   C2C12354  18.223  17.208  27.683 -0.2147  0.0558 -0.3203
  515BOLB   C3C12355  18.256  17.279  27.316  0.0618 -0.2392 -0.1403
  515BOLB   C4C12356  18.340  17.260  26.887  0.0894 -0.0826  0.2648
  515BOLB   C1D12357  17.692  16.658  27.734 -0.0099  0.1029  0.4153
  515BOLB   C2D12358  17.581  16.506  27.261 -0.3055 -0.0933 -0.1217
  515BOLB   C3D12359  17.845  16.529  26.751 -0.0644  0.1362 -0.0214
  515BOLB   C4D12360  17.960  16.189  26.515  0.2265 -0.0813  0.0375
  516BOLB   NC112361  18.323  18.568  24.029  0.1774 -0.0781 -0.2397
  516BOLB   PO112362  17.935  18.741  24.267 -0.1794 -0.0727 -0.0517
  516BOLB   GL112363  18.199  19.059  24.610  0.0622 -0.0854 -0.2117
  516BOLB   GL212364  18.094  18.827  24.856 -0.1484  0.0076 -0.0327
  516BOLB   C1A12365  18.458  19.236  24.941  0.1081  0.0154 -0.7348
  516BOLB   C2A12366  18.612  19.239  25.321 -0.1962 -0.1912 -0.2486
  516BOLB   C3A12367  18.530  19.321  25.725  0.1154  0.2612 -0.1394
  516BOLB   C4A12368  18.641  19.359  26.101 -0.0324  0.0133 -0.0464
  516BOLB   C1B12369  18.094  18.835  25.211  0.1070  0.0792 -0.2589
  516BOLB   C2B12370  18.217  18.900  25.657  0.2099  0.0989  0.0720
  516BOLB   C3B12371  18.303  18.897  26.137 -0.3368  0.2331 -0.1172
  516BOLB   C4B12372  18.547  18.922  26.527 -0.0296  0.3754  0.2770
  516BOLB   NC212373  20.070  19.828  28.104 -0.1586  0.0960 -0.1140
  516BOLB   PO212374  19.651  19.787  28.175 -0.3007 -0.1003 -0.0670
  516BOLB   GL312375  19.556  19.781  27.860 -0.1895  0.2542  0.1273
  516BOLB   GL412376  19.342  19.590  27.866  0.1232  0.2717 -0.0081
  516BOLB   C1C12377  19.393  19.846  27.467  0.1259  0.0030  0.0730
  516BOLB   C2C12378  19.083  19.857  27.194 -0.3458 -0.0149  0.0744
  516BOLB   C3C12379  18.941  19.629  26.895 -0.1590 -0.0467  0.3481
  516BOLB   C4C12380  18.763  19.421  26.485 -0.1690  0.0161 -0.0565
  516BOLB   C1D12381  19.037  19.435  27.549 -0.1365 -0.1299  0.0273
  516BOLB   C2D12382  18.934  19.262  27.238 -0.2510 -0.0548 -0.0042
  516BOLB   C3D12383  18.899  19.087  26.847  0.1403  0.0109  0.1046
  516BOLB   C4D12384  19.091  18.880  26.542 -0.1198  0.0881 -0.1844
  517BOLB   NC112385  19.276  19.271  23.481  0.1170 -0.0134  0.0762
  517BOLB   PO112386  19.184  19.475  23.808  0.2916  0.3246 -0.4106
  517BOLB   GL112387  19.253  19.706  24.077  0.1655  0.1392  0.2183
  517BOLB   GL212388  19.462  20.059  24.233  0.1943 -0.0128  0.2954
  517BOLB   C1A12389  19.367  19.457  24.489 -0.0470 -0.6173  0.1711
  517BOLB   C2A12390  19.544  19.556  24.932 -0.3589 -0.0726  0.2171
  517BOLB   C3A12391  19.456  19.597  25.325 -0.0912 -0.0267  0.3278
  517BOLB   C4A12392  19.493  19.642  25.790  0.0683  0.1875  0.1400
  517BOLB   C1B12393  19.320  20.094  24.679 -0.4594  0.0586 -0.2412
  517BOLB   C2B12394  19.606  20.042  24.948 -0.0441 -0.1177  0.0473
  517BOLB   C3B12395  19.531  20.278  25.268 -0.0214 -0.2902 -0.2318
  517BOLB   C4B12396  19.748  20.426  25.553 -0.1169 -0.1161  0.1311
  517BOLB   NC212397  20.325  20.690  28.154  0.1183 -0.1259 -0.1398
  517BOLB   PO212398  19.902  20.736  28.006 -0.2412  0.1808 -0.0181
  517BOLB   GL312399  19.750  20.545  27.544  0.1703  0.1382  0.1010
  517BOLB   GL412400  19.450  20.653  27.430 -0.0164 -0.0098 -0.1574
  517BOLB   C1C12401  19.770  20.163  27.283 -0.0296 -0.4206 -0.0887
  517BOLB   C2C12402  19.686  19.914  26.968  0.2382  0.3878  0.2316
  517BOLB   C3C12403  19.593  19.823  26.606  0.1510  0.2761 -0.2841
  517BOLB   C4C12404  19.590  19.665  26.257 -0.3033 -0.3034 -0.0324
  517BOLB   C1D12405  19.226  20.345  27.249  0.1724 -0.0210 -0.1140
  517BOLB   C2D12406  18.818  20.180  26.868 -0.1863 -0.0426  0.1115
  517BOLB   C3D12407  18.514  20.172  26.590 -0.4829 -0.2284 -0.2569
  517BOLB   C4D12408  18.412  19.929  26.311 -0.0569 -0.1497  0.0895
  518BOLB   NC112409  11.813  19.943  24.241 -0.1217  0.0251  0.2366
  518BOLB   PO112410  11.439  19.986  24.107  0.3592 -0.1240 -0.1148
  518BOLB   GL112411  11.376  19.896  24.530 -0.1609 -0.1726  0.0293
  518BOLB   GL212412  11.651  19.916  24.731  0.0457 -0.1525  0.1337
  518BOLB   C1A12413  11.199  19.995  24.934 -0.0782 -0.0746 -0.0225
  518BOLB   C2A12414  10.896  20.155  25.256  0.4047  0.0517  0.0503
  518BOLB   C3A12415  10.627  19.897  25.594 -0.5241 -0.0643  0.2167
  518BOLB   C4A12416  10.640  19.774  26.011  0.2096 -0.2285 -0.0400
  518BOLB   C1B12417  11.714  19.902  25.210  0.1273 -0.0558 -0.0367
  518BOLB   C2B12418  11.736  19.743  25.663  0.4006  0.2718 -0.0583
  518BOLB   C3B12419  11.579  19.639  26.086 -0.0489  0.0261  0.1283
  518BOLB   C4B12420  11.608  19.528  26.584  0.0019  0.0012  0.1871
  518BOLB   NC212421  10.026  18.701  28.380  0.0730 -0.0295 -0.1192
  518BOLB   PO212422  10.505  18.799  28.359 -0.1141  0.1920  0.0754
  518BOLB   GL312423  10.558  19.013  27.953 -0.0329 -0.1934  0.0087
  518BOLB   GL412424  10.940  19.058  27.902 -0.0724 -0.0402 -0.1594
  518BOLB   C1C12425  10.579  19.211  27.423 -0.0192 -0.3971 -0.2117
  518BOLB   C2C12426  10.822  19.417  27.120  0.1965 -0.0796 -0.0183
  518BOLB   C3C12427  10.682  19.655  26.744 -0.1880  0.1637 -0.1762
  518BOLB   C4C12428  10.522  19.877  26.444 -0.1384  0.0572 -0.2698
  518BOLB   C1D12429  11.071  19.020  27.486 -0.0245 -0.4199  0.2547
  518BOLB   C2D12430  11.344  18.983  27.148 -0.1258 -0.0630 -0.4260
  518BOLB   C3D12431  11.678  18.737  27.079  0.3646  0.1851  0.0711
  518BOLB   C4D12432  11.731  18.338  26.927  0.2729  0.1057 -0.0045
  519BOLB   NC112433  15.141  17.878  24.141 -0.0100  0.1497 -0.0086
  519BOLB   PO112434  15.037  18.178  24.442  0.0250  0.0105  0.2052
  519BOLB   GL112435  15.111  18.222  24.939  0.0010  0.3663  0.3116
  519BOLB   GL212436  15.213  18.575  25.042 -0.2162 -0.0096 -0.1867
  519BOLB   C1A12437  15.042  18.197  25.348  0.0350  0.1681 -0.1778
  519BOLB   C2A12438  14.929  18.150  25.732 -0.1669 -0.0229 -0.1181
  519BOLB   C3A12439  14.954  18.136  26.123  0.0324 -0.2152  0.0716
  519BOLB   C4A12440  14.864  18.034  26.587 -0.1181 -0.0016 -0.0948
  519BOLB   C1B12441  15.361  18.538  25.448 -0.1011 -0.0410 -0.1317
  519BOLB   C2B12442  15.348  18.587  25.808  0.3952 -0.2566 -0.1932
  519BOLB   C3B12443  15.197  18.611  26.195 -0.0299 -0.0430 -0.1569
  519BOLB   C4B12444  15.161  18.465  26.632  0.0340  0.3356  0.1350
  519BOLB   NC212445  14.461  18.540  28.832  0.0252  0.3155  0.0800
  519BOLB   PO212446  14.082  18.231  28.605 -0.1309  0.3592  0.0783
  519BOLB   GL312447  14.317  18.410  28.350 -0.2614 -0.2242  0.0114
  519BOLB   GL412448  14.418  18.176  28.152  0.1702  0.3766 -0.0763
  519BOLB   C1C12449  14.139  18.518  27.913  0.2003  0.1783 -0.0797
  519BOLB   C2C12450  14.374  18.700  27.561 -0.2278  0.1435  0.0944
  519BOLB   C3C12451  14.447  18.587  27.114  0.1584 -0.3648  0.2398
  519BOLB   C4C12452  14.706  18.364  26.911 -0.0083 -0.0107  0.1184
  519BOLB   C1D12453  14.814  18.170  27.922 -0.1016  0.0010  0.0357
  519BOLB   C2D12454  14.896  18.282  27.512 -0.0124  0.1605  0.0444
  519BOLB   C3D12455  14.907  18.530  27.322 -0.0607 -0.2943 -0.1203
  519BOLB   C4D12456  15.075  18.699  27.020 -0.1704 -0.3551  0.2349
  520BOLB   NC112457  11.378  12.927  23.759 -0.1202 -0.1146  0.1815
  520BOLB   PO112458  10.964  12.787  23.766  0.0183  0.0575  0.2363
  520BOLB   GL112459  10.739  12.597  24.093  0.0525 -0.1137 -0.0900
  520BOLB   GL212460  10.754  12.294  24.121 -0.0128 -0.4046  0.4075
  520BOLB   C1A12461  10.625  12.543  24.518  0.0747  0.2010 -0.1855
  520BOLB   C2A12462  10.307  12.576  24.694 -0.0583  0.0486  0.1273
  520BOLB   C3A12463  10.016  12.540  24.909  0.1134 -0.1479 -0.1821
  520BOLB   C4A12464   9.702  12.278  25.186  0.0562  0.0701  0.0052
  520BOLB   C1B12465  10.917  11.962  24.347  0.0741 -0.0612 -0.0455
  520BOLB   C2B12466  10.818  11.594  24.676  0.0835 -0.4340  0.1506
  520BOLB   C3B12467  10.321  11.511  24.878 -0.1900 -0.2467  0.2564
  520BOLB   C4B12468  10.142  11.555  25.294 -0.1053  0.0441  0.2358
  520BOLB   NC212469   9.626  11.257  27.743 -0.1148  0.2203 -0.0149
  520BOLB   PO212470   9.159  11.285  27.532 -0.0543  0.3297 -0.1631
  520BOLB   GL312471   9.261  11.493  27.165 -0.0647 -0.3886  0.2924
  520BOLB   GL412472   9.376  11.865  27.019 -0.0439 -0.0595 -0.3544
  520BOLB   C1C12473   9.372  11.480  26.741  0.0433 -0.3413  0.0132
  520BOLB   C2C12474   9.362  11.561  26.378 -0.0492 -0.1964 -0.0572
  520BOLB   C3C12475   9.403  11.984  26.048  0.2510 -0.0188 -0.0208
  520BOLB   C4C12476   9.661  12.209  25.690 -0.1216  0.2007 -0.0085
  520BOLB   C1D12477   9.486  12.232  26.824 -0.2040  0.3770  0.0821
  520BOLB   C2D12478   9.645  12.658  26.609  0.2815  0.0162 -0.2303
  520BOLB   C3D12479   9.831  12.918  26.305  0.0418  0.0348  0.2141
  520BOLB   C4D12480  10.148  13.295  26.599 -0.0465 -0.0392 -0.1467
  521BOLB   NC112481  19.900  24.008  21.892  0.0685 -0.4960 -0.0058
  521BOLB   PO112482  19.929  23.741  22.211  0.0703 -0.0910 -0.1227
  521BOLB   GL112483  20.243  24.084  22.310 -0.1018  0.0632  0.2585
  521BOLB   GL212484  20.238  24.368  22.113  0.0186  0.3267  0.3135
  521BOLB   C1A12485  20.620  24.242  22.511 -0.0993  0.5659 -0.1358
  521BOLB   C2A12486  21.043  24.244  22.755 -0.1104 -0.0733 -0.2092
  521BOLB   C3A12487  21.263  24.524  22.861 -0.1067  0.0196 -0.0508
  521BOLB   C4A12488  21.576  24.755  22.971 -0.2007  0.1491 -0.4322
  521BOLB   C1B12489  20.581  24.268  21.939  0.2088  0.0054  0.1128
  521BOLB   C2B12490  21.006  24.148  22.126  0.2972 -0.2417  0.2664
  521BOLB   C3B12491  21.362  24.332  22.205  0.1392  0.2044  0.4725
  521BOLB   C4B12492  21.607  24.348  22.594  0.4139  0.2830  0.1510
  521BOLB   NC212493  22.630  26.996  23.489  0.1202  0.0258 -0.1561
  521BOLB   PO212494  22.609  26.567  23.634 -0.0849 -0.0668 -0.3119
  521BOLB   GL312495  22.727  26.256  23.290  0.0481  0.3560  0.2936
  521BOLB   GL412496  22.757  25.879  23.222  0.1159 -0.1446 -0.1049
  521BOLB   C1C12497  22.342  26.082  23.048  0.0443  0.1368 -0.1899
  521BOLB   C2C12498  22.242  25.784  22.674  0.0712  0.2210 -0.0880
  521BOLB   C3C12499  22.136  25.381  22.701  0.0507  0.2996 -0.2340
  521BOLB   C4C12500  21.989  24.911  22.755 -0.1975 -0.0876  0.0167
  521BOLB   C1D12501  22.719  25.702  22.830  0.0916  0.1468 -0.1071
  521BOLB   C2D12502  22.569  25.539  22.385 -0.0533  0.1117 -0.0641
  521BOLB   C3D12503  22.336  25.125  22.316  0.4776 -0.3457  0.3490
  521BOLB   C4D12504  21.895  24.890  22.171 -0.2054  0.0691  0.0832
  522BOLB   NC112505  15.020  23.610  23.434  0.1367 -0.0625 -0.2013
  522BOLB   PO112506  14.784  23.849  23.201 -0.1554  0.2115  0.1769
  522BOLB   GL112507  14.614  23.809  23.555  0.0021  0.0419 -0.1511
  522BOLB   GL212508  14.380  24.059  23.533 -0.1195  0.0373  0.3412
  522BOLB   C1A12509  14.721  23.946  23.976 -0.0814  0.1834  0.0827
  522BOLB   C2A12510  14.775  24.137  24.337 -0.0944  0.0467  0.1405
  522BOLB   C3A12511  14.860  23.984  24.804  0.3704 -0.2436 -0.0734
  522BOLB   C4A12512  14.868  24.175  25.159  0.0182  0.2115  0.3115
  522BOLB   C1B12513  14.213  24.335  23.714 -0.4001  0.0550 -0.0701
  522BOLB   C2B12514  14.344  24.497  24.145  0.2907  0.1371  0.1167
  522BOLB   C3B12515  14.394  24.409  24.560 -0.1386  0.0110 -0.0539
  522BOLB   C4B12516  14.269  24.501  24.986 -0.0596 -0.4737  0.0953
  522BOLB   NC212517  13.695  25.391  27.088 -0.2222 -0.1553  0.0502
  522BOLB   PO212518  14.125  25.252  27.075 -0.2106  0.0052 -0.3757
  522BOLB   GL312519  14.088  25.024  26.797  0.1325 -0.2559 -0.1707
  522BOLB   GL412520  14.016  24.668  26.888 -0.1961 -0.0658  0.0639
  522BOLB   C1C12521  14.296  24.841  26.391 -0.0089  0.3874 -0.5892
  522BOLB   C2C12522  14.577  24.594  26.318 -0.3017  0.3573  0.2425
  522BOLB   C3C12523  14.690  24.341  26.043  0.0499  0.2067  0.3178
  522BOLB   C4C12524  14.757  24.240  25.683 -0.3370  0.2648  0.0947
  522BOLB   C1D12525  14.115  24.273  26.741  0.1476  0.2675 -0.1479
  522BOLB   C2D12526  13.839  23.941  26.587 -0.2125 -0.1542 -0.3516
  522BOLB   C3D12527  13.419  23.810  26.361  0.3547 -0.0343 -0.1294
  522BOLB   C4D12528  13.261  23.526  26.249  0.1763  0.2031 -0.0835
  523BOLB   NC112529  22.918  16.605  21.615 -0.4136 -0.0697  0.0938
  523BOLB   PO112530  22.652  16.414  21.924 -0.2825  0.3643  0.1255
  523BOLB   GL112531  22.656  16.558  22.439  0.3025 -0.2024  0.0803
  523BOLB   GL212532  22.420  16.727  22.642 -0.3448  0.2285 -0.0667
  523BOLB   C1A12533  22.978  16.336  22.602 -0.1806  0.0956 -0.2864
  523BOLB   C2A12534  23.165  16.412  23.047 -0.0658  0.0542  0.1499
  523BOLB   C3A12535  23.083  16.568  23.502  0.3851  0.0488 -0.0529
  523BOLB   C4A12536  23.407  16.730  23.735 -0.0134 -0.0434 -0.2426
  523BOLB   C1B12537  22.634  16.610  22.981  0.0637 -0.1859  0.0179
  523BOLB   C2B12538  22.550  16.593  23.389 -0.2146 -0.0739 -0.2374
  523BOLB   C3B12539  22.713  16.784  23.792  0.1166  0.2784 -0.0685
  523BOLB   C4B12540  22.648  17.157  24.137 -0.0256  0.2420  0.3933
  523BOLB   NC212541  24.615  15.691  25.463  0.0822  0.3022 -0.2259
  523BOLB   PO212542  24.297  15.388  25.225  0.2493 -0.1300  0.2939
  523BOLB   GL312543  24.110  15.582  25.018  0.1049 -0.1367 -0.0670
  523BOLB   GL412544  23.924  15.722  25.320  0.1024 -0.1839 -0.0606
  523BOLB   C1C12545  24.120  15.919  24.686 -0.0652 -0.1262 -0.0784
  523BOLB   C2C12546  24.019  16.157  24.420 -0.2854  0.2785  0.0381
  523BOLB   C3C12547  23.895  16.607  24.345 -0.0091 -0.1139 -0.2217
  523BOLB   C4C12548  23.468  16.796  24.179 -0.0007  0.0688  0.2814
  523BOLB   C1D12549  23.594  15.837  25.082  0.0929 -0.2944  0.1948
  523BOLB   C2D12550  23.291  15.873  24.643 -0.1718 -0.1582  0.4069
  523BOLB   C3D12551  23.070  15.943  24.246 -0.0261  0.1466 -0.3322
  523BOLB   C4D12552  23.234  16.131  23.884  0.0053  0.0147  0.2312
  524BOLB   NC112553  11.969  22.029  24.088  0.0079 -0.1247 -0.1200
  524BOLB   PO112554  11.634  22.133  23.938 -0.1063 -0.5090  0.1476
  524BOLB   GL112555  11.609  22.223  24.391  0.1235 -0.1741  0.0786
  524BOLB   GL212556  11.312  22.113  24.541 -0.1717 -0.2397 -0.1832
  524BOLB   C1A12557  11.694  22.310  24.855  0.3391  0.1030 -0.1541
  524BOLB   C2A12558  11.776  22.411  25.368 -0.1703  0.0811  0.5460
  524BOLB   C3A12559  11.746  22.304  25.707  0.4056  0.3252 -0.3177
  524BOLB   C4A12560  11.728  22.501  26.093  0.3928  0.2282 -0.0596
  524BOLB   C1B12561  11.258  22.055  24.983  0.2661  0.0771  0.1057
  524BOLB   C2B12562  11.368  22.071  25.423  0.1901 -0.0732  0.0545
  524BOLB   C3B12563  11.493  21.884  25.810 -0.3485  0.1974  0.1906
  524BOLB   C4B12564  11.583  22.010  26.148 -0.1919 -0.0926  0.2046
  524BOLB   NC212565  10.995  23.974  27.854  0.1854  0.0016  0.2103
  524BOLB   PO212566  11.359  23.777  28.051 -0.1357  0.1535  0.2367
  524BOLB   GL312567  11.441  23.512  27.714  0.2230 -0.1812 -0.3259
  524BOLB   GL412568  11.664  23.412  27.512  0.2320  0.1294  0.3154
  524BOLB   C1C12569  11.183  23.398  27.446  0.0095  0.1154 -0.0041
  524BOLB   C2C12570  11.160  23.093  27.049 -0.0414  0.2464 -0.1018
  524BOLB   C3C12571  11.139  22.805  26.696 -0.0999 -0.1458  0.0450
  524BOLB   C4C12572  11.505  22.602  26.470 -0.3365  0.1173 -0.2835
  524BOLB   C1D12573  11.947  23.302  27.030  0.3663 -0.2534 -0.3062
  524BOLB   C2D12574  12.112  23.109  26.692 -0.0814 -0.0796  0.0458
  524BOLB   C3D12575  12.334  23.126  26.409 -0.0779 -0.0451  0.1491
  524BOLB   C4D12576  12.593  22.833  26.373  0.2005 -0.1168 -0.1995
  525BOLB   NC112577  21.400  22.102  21.099 -0.3710 -0.1913 -0.2449
  525BOLB   PO112578  21.453  22.532  20.883  0.0038  0.0597 -0.0881
  525BOLB   GL112579  21.703  22.745  21.081 -0.0119  0.0318 -0.0381
  525BOLB   GL212580  21.978  22.739  20.990  0.1963 -0.0235  0.1972
  525BOLB   C1A12581  21.873  23.133  21.269 -0.1846 -0.0487 -0.1305
  525BOLB   C2A12582  22.004  23.504  21.527 -0.0322  0.2749 -0.0438
  525BOLB   C3A12583  22.130  23.951  21.772  0.2493  0.4748 -0.1235
  525BOLB   C4A12584  22.579  24.036  21.857 -0.1097 -0.0796 -0.1790
  525BOLB   C1B12585  22.294  22.968  21.009 -0.3946  0.1286  0.2110
  525BOLB   C2B12586  22.521  23.171  20.795  0.3086 -0.1878  0.0891
  525BOLB   C3B12587  22.768  23.338  20.910  0.2472 -0.1186  0.0297
  525BOLB   C4B12588  23.150  23.405  21.099 -0.3806 -0.0608 -0.0591
  525BOLB   NC212589  24.329  24.425  22.551 -0.1914  0.1535 -0.0547
  525BOLB   PO212590  24.471  24.078  22.441 -0.1623  0.1154 -0.2788
  525BOLB   GL312591  24.104  23.857  22.432  0.0862  0.3721 -0.2030
  525BOLB   GL412592  23.999  23.723  22.715 -0.1184  0.2481 -0.1884
  525BOLB   C1C12593  23.692  23.678  22.340 -0.0857 -0.0564 -0.0331
  525BOLB   C2C12594  23.537  23.562  21.955  0.5298  0.1556  0.1037
  525BOLB   C3C12595  23.214  23.663  21.616 -0.0653 -0.3987  0.1114
  525BOLB   C4C12596  22.936  23.905  21.582  0.3254  0.1074 -0.0252
  525BOLB   C1D12597  23.987  23.243  22.369  0.0382 -0.0851 -0.1875
  525BOLB   C2D12598  24.093  22.955  22.050 -0.1629  0.1638 -0.0041
  525BOLB   C3D12599  23.898  22.830  21.617 -0.1807 -0.0914  0.0579
  525BOLB   C4D12600  23.523  22.683  21.485  0.0861  0.2177 -0.1695
  526BOLB   NC112601  18.879  21.610  23.341  0.2622 -0.0024  0.0525
  526BOLB   PO112602  18.589  21.408  23.528 -0.1312  0.1449  0.0760
  526BOLB   GL112603  18.578  21.550  23.968  0.0119  0.0117  0.3219
  526BOLB   GL212604  18.843  21.795  23.940  0.1884 -0.0226  0.1637
  526BOLB   C1A12605  18.529  21.725  24.359 -0.1737  0.0501 -0.1115
  526BOLB   C2A12606  18.583  21.846  24.750 -0.2545 -0.2434  0.1510
  526BOLB   C3A12607  18.548  22.013  25.159  0.2049  0.4775 -0.0667
  526BOLB   C4A12608  18.442  22.136  25.515 -0.1608  0.3337  0.1485
  526BOLB   C1B12609  19.022  22.156  24.110 -0.1100 -0.1113  0.0901
  526BOLB   C2B12610  19.179  21.983  24.476  0.1890  0.1517  0.0133
  526BOLB   C3B12611  19.053  21.973  24.907  0.1319  0.0249  0.2623
  526BOLB   C4B12612  19.370  21.877  25.256 -0.1732 -0.0131 -0.1892
  526BOLB   NC212613  18.124  22.324  28.109 -0.1477  0.1061  0.1069
  526BOLB   PO212614  17.900  22.121  28.062 -0.4316 -0.0251 -0.0669
  526BOLB   GL312615  17.848  22.317  27.681 -0.3076  0.1079 -0.2135
  526BOLB   GL412616  17.939  22.568  27.729 -0.0906 -0.2740 -0.1414
  526BOLB   C1C12617  17.881  22.338  27.147 -0.1123  0.4122 -0.0291
  526BOLB   C2C12618  17.843  22.421  26.700 -0.0306 -0.2884  0.1899
  526BOLB   C3C12619  18.019  22.369  26.291  0.2028 -0.1354  0.0019
  526BOLB   C4C12620  18.289  22.325  25.885  0.2876  0.1441  0.3306
  526BOLB   C1D12621  18.204  22.602  27.355 -0.0161 -0.0876  0.0770
  526BOLB   C2D12622  18.264  22.848  27.108 -0.0069  0.0519 -0.2663
  526BOLB   C3D12623  17.991  22.953  26.870  0.1109 -0.1575 -0.0472
  526BOLB   C4D12624  17.940  22.841  26.419 -0.1040 -0.0236 -0.1530
  527BOLB   NC112625  21.007  23.491  20.156  0.0411 -0.0436 -0.0151
  527BOLB   PO112626  21.337  23.833  20.226  0.4228 -0.0059  0.3636
  527BOLB   GL112627  21.715  23.973  20.063 -0.0015 -0.0993 -0.3121
  527BOLB   GL212628  21.958  23.782  20.012  0.0696 -0.0689 -0.0800
  527BOLB   C1A12629  22.022  24.273  19.861 -0.0335 -0.1391  0.1547
  527BOLB   C2A12630  22.488  24.565  19.801  0.2344  0.3056  0.1258
  527BOLB   C3A12631  22.792  24.796  19.814 -0.3695 -0.2807 -0.1156
  527BOLB   C4A12632  22.872  25.017  19.545  0.1477 -0.0752  0.1169
  527BOLB   C1B12633  22.385  24.080  20.132 -0.0979 -0.0068 -0.1194
  527BOLB   C2B12634  22.748  24.443  20.193 -0.2436  0.0418  0.1129
  527BOLB   C3B12635  23.209  24.515  20.025 -0.0493  0.1966 -0.0576
  527BOLB   C4B12636  23.565  24.521  20.213 -0.1244  0.2385  0.3868
  527BOLB   NC212637  24.910  25.435  19.400 -0.0961 -0.2946 -0.1555
  527BOLB   PO212638  24.890  25.398  18.993  0.1018  0.1967  0.0709
  527BOLB   GL312639  24.657  25.119  18.800  0.3334 -0.2236  0.0206
  527BOLB   GL412640  24.851  24.970  18.657  0.2160  0.2177 -0.0465
  527BOLB   C1C12641  24.257  24.885  18.932  0.2943 -0.0728 -0.0373
  527BOLB   C2C12642  23.910  25.060  19.222 -0.0215  0.0125  0.5078
  527BOLB   C3C12643  23.552  25.342  19.093  0.5018 -0.1185 -0.0353
  527BOLB   C4C12644  23.101  25.281  19.248  0.1893 -0.0797 -0.1021
  527BOLB   C1D12645  24.523  24.795  18.410 -0.1952  0.0980  0.0222
  527BOLB   C2D12646  24.155  24.565  18.339 -0.0879 -0.0748 -0.0765
  527BOLB   C3D12647  23.878  24.838  18.233  0.0243 -0.0190 -0.1219
  527BOLB   C4D12648  23.503  25.128  18.141  0.2812 -0.0294  0.0339
  528BOLB   NC112649  19.651  22.544  22.595  0.2844 -0.3209 -0.0142
  528BOLB   PO112650  19.482  22.776  22.970  0.0572  0.1325  0.1190
  528BOLB   GL112651  19.784  22.694  23.293  0.1238  0.1490  0.1396
  528BOLB   GL212652  19.546  22.636  23.509 -0.1693 -0.2588  0.1192
  528BOLB   C1A12653  19.952  22.821  23.625 -0.2512 -0.1951 -0.1391
  528BOLB   C2A12654  19.915  23.089  23.913 -0.4479  0.1095  0.0120
  528BOLB   C3A12655  20.193  23.028  24.340  0.1324 -0.1051  0.3946
  528BOLB   C4A12656  20.540  22.920  24.523  0.0182 -0.1932  0.2622
  528BOLB   C1B12657  19.627  22.607  23.937  0.1671  0.2068 -0.2131
  528BOLB   C2B12658  19.747  22.789  24.321 -0.2070  0.0017  0.2015
  528BOLB   C3B12659  19.717  22.695  24.778 -0.1229 -0.2157  0.0635
  528BOLB   C4B12660  20.027  22.937  25.087  0.2583  0.0633  0.3937
  528BOLB   NC212661  22.646  23.966  25.532  0.3687  0.2269  0.0894
  528BOLB   PO212662  22.645  23.468  25.369  0.0672  0.1291  0.0206
  528BOLB   GL312663  22.274  23.323  25.091  0.2496 -0.0561 -0.1590
  528BOLB   GL412664  22.068  23.051  25.270 -0.0863  0.0824 -0.0844
  528BOLB   C1C12665  21.896  23.282  24.891 -0.1331  0.0243  0.0540
  528BOLB   C2C12666  21.572  22.940  24.663 -0.2615  0.2798 -0.3718
  528BOLB   C3C12667  21.382  22.760  24.380  0.0619 -0.1283 -0.0485
  528BOLB   C4C12668  20.889  22.893  24.474 -0.1174 -0.0871  0.2294
  528BOLB   C1D12669  21.827  22.730  25.038 -0.0543 -0.0352 -0.2377
  528BOLB   C2D12670  21.425  22.555  25.057 -0.3081  0.1531  0.0196
  528BOLB   C3D12671  21.023  22.510  25.061 -0.0596  0.1676  0.1173
  528BOLB   C4D12672  20.867  22.229  25.275 -0.1885 -0.3726 -0.3763
  529BOLB   NC112673  11.750  16.129  23.927  0.1334 -0.1245 -0.1278
  529BOLB   PO112674  11.659  15.834  24.286 -0.3293  0.0188  0.1551
  529BOLB   GL112675  11.461  15.900  24.663 -0.0218  0.0959  0.2333
  529BOLB   GL212676  11.644  15.575  24.840 -0.2993  0.2258 -0.1335
  529BOLB   C1A12677  11.420  15.881  25.140  0.0786  0.0374  0.0059
  529BOLB   C2A12678  11.068  15.712  25.490  0.0105  0.1945  0.0876
  529BOLB   C3A12679  10.907  15.385  25.742  0.2347 -0.4017  0.3178
  529BOLB   C4A12680  10.748  15.427  26.133 -0.0439 -0.0901 -0.3454
  529BOLB   C1B12681  11.863  15.430  25.162 -0.2094 -0.0533 -0.0338
  529BOLB   C2B12682  11.840  15.381  25.524  0.3417 -0.0712 -0.1846
  529BOLB   C3B12683  11.803  15.314  25.876  0.0516 -0.0795 -0.0782
  529BOLB   C4B12684  11.711  14.983  26.289  0.3780 -0.0834  0.0678
  529BOLB   NC212685  10.781  14.561  28.537  0.0301  0.3498 -0.1944
  529BOLB   PO212686  11.197  14.621  28.279 -0.2929  0.3454 -0.0260
  529BOLB   GL312687  11.095  14.557  27.932 -0.3611 -0.1428  0.1612
  529BOLB   GL412688  11.407  14.339  27.920 -0.0486  0.1598  0.0443
  529BOLB   C1C12689  11.220  14.723  27.509  0.0427 -0.0139 -0.0244
  529BOLB   C2C12690  11.240  14.808  27.122  0.0002 -0.1772 -0.0915
  529BOLB   C3C12691  11.010  14.964  26.772  0.0550 -0.0478 -0.0804
  529BOLB   C4C12692  10.723  15.017  26.371  0.4051 -0.1221  0.3005
  529BOLB   C1D12693  11.702  14.500  27.548 -0.0605  0.2560 -0.0552
  529BOLB   C2D12694  11.816  14.826  27.198 -0.1372  0.0552 -0.0396
  529BOLB   C3D12695  11.647  15.057  26.861  0.0083 -0.1984  0.1518
  529BOLB   C4D12696  11.574  15.374  26.503 -0.1491 -0.2042  0.0204
  530BOLB   NC112697  15.157  16.014  24.060  0.3264 -0.1466 -0.1671
  530BOLB   PO112698  15.138  16.164  24.508  0.0667  0.2389  0.1944
  530BOLB   GL112699  15.385  16.032  24.832  0.1399 -0.1660  0.1941
  530BOLB   GL212700  15.661  15.848  24.794 -0.2063 -0.1300 -0.1659
  530BOLB   C1A12701  15.531  16.228  25.262 -0.1379  0.3256 -0.2462
  530BOLB   C2A12702  15.819  16.228  25.497  0.0950  0.0488 -0.2172
  530BOLB   C3A12703  15.861  16.233  25.859 -0.2817 -0.0387  0.3265
  530BOLB   C4A12704  15.761  16.234  26.241  0.4200 -0.1432  0.1768
  530BOLB   C1B12705  15.961  15.978  25.094 -0.0849  0.0345  0.0145
  530BOLB   C2B12706  16.127  15.834  25.525 -0.1275  0.2181  0.0156
  530BOLB   C3B12707  16.204  15.785  25.949  0.3036  0.2043 -0.0635
  530BOLB   C4B12708  16.228  16.143  26.323  0.0161  0.1046  0.2672
  530BOLB   NC212709  17.082  15.585  28.551 -0.1330 -0.1977 -0.0447
  530BOLB   PO212710  16.603  15.502  28.515 -0.1139  0.1290 -0.5537
  530BOLB   GL312711  16.746  15.682  28.203 -0.1506 -0.2610  0.2861
  530BOLB   GL412712  16.984  15.556  28.060 -0.3323 -0.0909 -0.0454
  530BOLB   C1C12713  16.673  15.754  27.662 -0.2027  0.0301  0.0555
  530BOLB   C2C12714  16.378  15.989  27.338  0.3483 -0.2482  0.0643
  530BOLB   C3C12715  16.034  16.024  27.023  0.0193  0.2492 -0.1481
  530BOLB   C4C12716  15.755  16.174  26.627  0.1496  0.0121 -0.2484
  530BOLB   C1D12717  17.079  15.923  27.805 -0.0586  0.2195 -0.3543
  530BOLB   C2D12718  16.786  16.236  27.787 -0.2057 -0.1779 -0.2283
  530BOLB   C3D12719  16.649  16.593  27.488 -0.3285 -0.0221 -0.0299
  530BOLB   C4D12720  16.395  16.942  27.486  0.2054 -0.1479  0.2083
  531BOLB   NC112721  20.855  17.680  23.089 -0.3623  0.1675 -0.1225
  531BOLB   PO112722  21.191  17.994  23.215 -0.3926 -0.2268 -0.1414
  531BOLB   GL112723  21.379  17.785  23.366 -0.2034 -0.3271  0.0366
  531BOLB   GL212724  21.732  17.988  23.386  0.0224 -0.2966  0.5650
  531BOLB   C1A12725  21.511  17.627  23.755  0.2233 -0.0792 -0.0992
  531BOLB   C2A12726  21.530  17.621  24.173 -0.0131  0.0840  0.2112
  531BOLB   C3A12727  21.633  17.761  24.361  0.0419 -0.0367 -0.3795
  531BOLB   C4A12728  21.724  17.960  24.806  0.3499  0.0829  0.0067
  531BOLB   C1B12729  22.022  17.896  23.638 -0.2623 -0.2428 -0.3443
  531BOLB   C2B12730  22.242  17.998  24.068 -0.2566  0.1155  0.1289
  531BOLB   C3B12731  22.640  17.803  24.294  0.1411  0.3404  0.0867
  531BOLB   C4B12732  22.841  17.727  24.639 -0.1442  0.2259  0.3482
  531BOLB   NC212733  23.389  17.624  26.439  0.1383 -0.1993  0.1428
  531BOLB   PO212734  23.333  17.977  26.408  0.2092 -0.2095 -0.2199
  531BOLB   GL312735  23.124  18.316  26.110 -0.3203 -0.1337 -0.0604
  531BOLB   GL412736  23.365  18.559  25.989 -0.0845 -0.5410  0.0625
  531BOLB   C1C12737  22.758  18.325  25.911 -0.2914  0.3176  0.0770
  531BOLB   C2C12738  22.649  18.278  25.553  0.3145 -0.0864 -0.1720
  531BOLB   C3C12739  22.357  18.043  25.351  0.0800 -0.3076 -0.0596
  531BOLB   C4C12740  21.917  17.968  25.197  0.2010  0.2127 -0.1937
  531BOLB   C1D12741  22.969  18.674  25.676 -0.3135  0.1428 -0.4082
  531BOLB   C2D12742  22.762  18.856  25.392  0.0598  0.2708 -0.0249
  531BOLB   C3D12743  22.793  18.931  24.971 -0.2291 -0.2111  0.3047
  531BOLB   C4D12744  22.654  19.213  24.518  0.2070  0.4968  0.0443
  532BOLB   NC112745  20.091  19.592  23.445  0.1233  0.2013  0.0782
  532BOLB   PO112746  20.121  19.343  23.797  0.0900  0.0281 -0.0892
  532BOLB   GL112747  20.517  19.414  24.183 -0.1657  0.1379 -0.5249
  532BOLB   GL212748  20.422  19.491  24.485 -0.0814  0.1886  0.1057
  532BOLB   C1A12749  20.744  19.087  24.379 -0.1794 -0.2156  0.0012
  532BOLB   C2A12750  21.134  19.094  24.532 -0.0441 -0.2520  0.0309
  532BOLB   C3A12751  21.562  19.095  24.728 -0.0574  0.2559 -0.0527
  532BOLB   C4A12752  21.659  19.316  25.147 -0.2391 -0.1132 -0.0997
  532BOLB   C1B12753  20.368  19.373  24.821  0.3965  0.2636  0.1900
  532BOLB   C2B12754  20.605  19.440  25.211  0.2684 -0.0991  0.1299
  532BOLB   C3B12755  20.799  19.503  25.661 -0.4289 -0.0242  0.0703
  532BOLB   C4B12756  21.113  19.451  26.172 -0.0618  0.0072 -0.2073
  532BOLB   NC212757  21.234  18.793  27.473 -0.0897 -0.1884 -0.1575
  532BOLB   PO212758  21.359  19.156  27.639 -0.0397  0.1250  0.1314
  532BOLB   GL312759  21.388  19.281  27.207  0.1934 -0.2058  0.2031
  532BOLB   GL412760  21.089  19.229  27.076 -0.0505  0.2958  0.2631
  532BOLB   C1C12761  21.444  19.330  26.766 -0.0412 -0.0329 -0.2956
  532BOLB   C2C12762  21.623  19.492  26.369  0.0276 -0.0412 -0.0539
  532BOLB   C3C12763  21.570  19.654  25.944 -0.2534 -0.2590 -0.1717
  532BOLB   C4C12764  21.580  19.592  25.495 -0.0473  0.1313  0.2957
  532BOLB   C1D12765  20.990  19.065  26.639  0.1542  0.1078 -0.0063
  532BOLB   C2D12766  20.703  18.726  26.513 -0.2758 -0.1176 -0.1137
  532BOLB   C3D12767  20.398  18.421  26.231  0.0407 -0.0017  0.2688
  532BOLB   C4D12768  20.205  18.430  25.936  0.1671  0.0067  0.1409
  533BOLB   NC112769  13.084  18.006  24.440  0.2698 -0.0440  0.1031
  533BOLB   PO112770  13.261  18.432  24.399 -0.1003 -0.2873 -0.1592
  533BOLB   GL112771  13.108  18.512  24.807 -0.1046  0.0177  0.2800
  533BOLB   GL212772  13.041  18.248  24.892  0.3116  0.1156 -0.1322
  533BOLB   C1A12773  13.034  18.729  25.235 -0.0725  0.0980 -0.0475
  533BOLB   C2A12774  13.125  18.793  25.806 -0.1761  0.1535  0.0993
  533BOLB   C3A12775  13.184  18.919  26.175  0.1248  0.1740 -0.1003
  533BOLB   C4A12776  12.949  19.204  26.423  0.0325  0.4248  0.1295
  533BOLB   C1B12777  13.065  18.195  25.306  0.2265 -0.3165  0.2078
  533BOLB   C2B12778  13.032  18.309  25.817 -0.0590  0.1521  0.0795
  533BOLB   C3B12779  13.040  18.077  26.141 -0.4674  0.0854 -0.3717
  533BOLB   C4B12780  12.953  18.198  26.532  0.1627 -0.2110  0.0387
  533BOLB   NC212781  11.653  19.878  28.855 -0.1229 -0.2592  0.2145
  533BOLB   PO212782  11.822  19.957  28.459  0.0869 -0.4648 -0.0090
  533BOLB   GL312783  11.952  19.846  28.067 -0.1673  0.2744  0.3221
  533BOLB   GL412784  12.000  20.130  27.983 -0.0177  0.2001  0.2073
  533BOLB   C1C12785  12.067  19.513  27.888 -0.3172  0.1135  0.2188
  533BOLB   C2C12786  12.150  19.510  27.356 -0.1515 -0.1116  0.1047
  533BOLB   C3C12787  12.308  19.376  26.940  0.2375  0.0121  0.0000
  533BOLB   C4C12788  12.707  19.358  26.711 -0.1587  0.0119 -0.1706
  533BOLB   C1D12789  11.783  20.376  27.624 -0.1569  0.0023  0.1110
  533BOLB   C2D12790  11.956  20.629  27.311 -0.0276  0.1402 -0.0950
  533BOLB   C3D12791  12.273  20.587  27.066 -0.2528  0.1810 -0.0583
  533BOLB   C4D12792  12.564  20.386  26.723  0.2737 -0.0394 -0.2238
  534BOLB   NC112793  12.607  11.628  23.578  0.5603 -0.1437 -0.0936
  534BOLB   PO112794  12.075  11.593  23.469  0.0260 -0.5256 -0.3230
  534BOLB   GL112795  12.094  11.215  23.779 -0.2608  0.1024 -0.1393
  534BOLB   GL212796  12.353  10.908  23.894 -0.1121  0.0478  0.2729
  534BOLB   C1A12797  11.881  10.846  24.182  0.2426 -0.0375 -0.5380
  534BOLB   C2A12798  12.027  10.648  24.529 -0.2288 -0.1874  0.0190
  534BOLB   C3A12799  12.250  10.615  24.969  0.0578 -0.0056 -0.2334
  534BOLB   C4A12800  12.333  10.686  25.386  0.1488  0.3304 -0.0143
  534BOLB   C1B12801  12.441  10.925  24.324 -0.1141  0.0378  0.2821
  534BOLB   C2B12802  12.222  11.214  24.452 -0.0853 -0.3632 -0.2169
  534BOLB   C3B12803  12.103  11.501  24.772 -0.0145 -0.0525 -0.1674
  534BOLB   C4B12804  11.952  11.524  25.223  0.0224 -0.0887 -0.0770
  534BOLB   NC212805  12.743  10.823  27.959 -0.1313  0.0771  0.0687
  534BOLB   PO212806  12.352  10.852  27.740 -0.0199 -0.2268 -0.2047
  534BOLB   GL312807  12.407  10.751  27.344 -0.0654  0.1249 -0.0878
  534BOLB   GL412808  12.661  10.628  27.394  0.0848 -0.0034  0.2564
  534BOLB   C1C12809  12.423  10.822  26.887  0.1800 -0.1428  0.1818
  534BOLB   C2C12810  12.556  10.826  26.489 -0.0898  0.1947  0.1501
  534BOLB   C3C12811  12.581  11.057  26.082  0.3123  0.1742  0.3875
  534BOLB   C4C12812  12.596  10.887  25.681  0.1781  0.1006 -0.1803
  534BOLB   C1D12813  12.941  10.574  27.097 -0.4365 -0.1253 -0.0184
  534BOLB   C2D12814  13.116  10.627  26.578 -0.4290 -0.5051  0.3748
  534BOLB   C3D12815  13.522  10.443  26.421 -0.1048 -0.0177  0.0584
  534BOLB   C4D12816  13.970  10.394  26.451 -0.1681  0.0239  0.1728
  535BOLB   NC112817  14.879  21.342  23.792  0.0156 -0.1236  0.1642
  535BOLB   PO112818  14.957  21.828  23.986 -0.0197 -0.3234  0.1118
  535BOLB   GL112819  14.842  21.739  24.440  0.2505  0.0919 -0.0417
  535BOLB   GL212820  14.675  21.868  24.528  0.0413 -0.1225 -0.0869
  535BOLB   C1A12821  15.067  21.679  24.850  0.0754  0.0268  0.3379
  535BOLB   C2A12822  15.138  21.718  25.282 -0.0665  0.0600  0.2613
  535BOLB   C3A12823  15.347  21.992  25.548  0.3446  0.3266 -0.2550
  535BOLB   C4A12824  15.253  22.123  25.930 -0.0020  0.1995  0.3062
  535BOLB   C1B12825  14.691  21.919  25.038 -0.0161 -0.0496  0.1884
  535BOLB   C2B12826  14.783  22.006  25.505  0.1964  0.0952  0.0907
  535BOLB   C3B12827  14.760  22.066  25.989 -0.0763  0.1523  0.0018
  535BOLB   C4B12828  14.936  21.992  26.369 -0.1879  0.0844 -0.0055
  535BOLB   NC212829  15.081  21.949  28.181 -0.2078  0.1914 -0.0048
  535BOLB   PO212830  15.374  22.204  28.257 -0.0489  0.0317  0.0576
  535BOLB   GL312831  15.272  22.349  27.829  0.0374  0.0125  0.0089
  535BOLB   GL412832  15.349  22.024  27.783 -0.3238  0.1491 -0.1379
  535BOLB   C1C12833  14.859  22.127  27.501  0.2881 -0.0384 -0.2727
  535BOLB   C2C12834  14.997  22.162  27.051  0.0370  0.4715  0.1024
  535BOLB   C3C12835  15.286  22.125  26.788 -0.0621 -0.3503 -0.1388
  535BOLB   C4C12836  15.411  22.260  26.407  0.0114  0.4655 -0.3520
  535BOLB   C1D12837  15.194  21.835  27.385  0.0714  0.0473 -0.0987
  535BOLB   C2D12838  15.093  21.648  26.982 -0.1411 -0.2109  0.3656
  535BOLB   C3D12839  14.992  21.467  26.575  0.3062  0.2375 -0.0593
  535BOLB   C4D12840  15.227  21.257  26.304  0.1438  0.0875 -0.1452
  536BOLB   NC112841  16.260  15.893  24.118  0.0410 -0.1169 -0.0096
  536BOLB   PO112842  16.590  16.067  24.288 -0.0734 -0.1058  0.2764
  536BOLB   GL112843  16.722  15.916  24.733 -0.0555 -0.1548  0.4362
  536BOLB   GL212844  16.456  15.748  24.891 -0.1786 -0.0052 -0.1460
  536BOLB   C1A12845  16.781  15.966  25.162  0.2549 -0.2859  0.2692
  536BOLB   C2A12846  16.582  16.093  25.540 -0.0453 -0.0785  0.1784
  536BOLB   C3A12847  16.381  16.247  25.803 -0.0391 -0.5001 -0.1437
  536BOLB   C4A12848  16.163  16.611  26.056  0.0266 -0.0283 -0.1228
  536BOLB   C1B12849  16.487  15.486  25.255 -0.0378 -0.0052  0.0326
  536BOLB   C2B12850  16.322  15.393  25.601 -0.2596  0.0112  0.0955
  536BOLB   C3B12851  16.101  15.291  25.991  0.3316 -0.1895 -0.1537
  536BOLB   C4B12852  16.140  15.034  26.377  0.3244  0.2352 -0.2530
  536BOLB   NC212853  16.463  16.879  28.683 -0.2076  0.0694 -0.0198
  536BOLB   PO212854  16.608  16.512  28.429  0.2137 -0.0135 -0.0237
  536BOLB   GL312855  16.368  16.482  28.037 -0.2018 -0.0618  0.1412
  536BOLB   GL412856  16.273  16.829  28.116  0.0421 -0.1743  0.0722
  536BOLB   C1C12857  16.209  16.443  27.659  0.0783 -0.0685  0.0898
  536BOLB   C2C12858  16.160  16.425  27.279 -0.0180  0.1334 -0.2058
  536BOLB   C3C12859  16.023  16.541  26.819 -0.1337 -0.0232 -0.0351
  536BOLB   C4C12860  15.901  16.601  26.443 -0.2623  0.2389 -0.0926
  536BOLB   C1D12861  16.632  16.966  27.934 -0.1794 -0.1705  0.2127
  536BOLB   C2D12862  16.916  16.985  27.626  0.0758 -0.0657 -0.1485
  536BOLB   C3D12863  16.858  17.199  27.258 -0.2730  0.1248 -0.3738
  536BOLB   C4D12864  16.818  17.174  26.830 -0.3392  0.0383 -0.0016
  537BOLB   NC112865  20.570  17.265  22.396 -0.0132  0.0372 -0.1953
  537BOLB   PO112866  20.748  16.874  22.739 -0.2837 -0.1864  0.0288
  537BOLB   GL112867  20.986  16.643  23.121  0.0726  0.0872 -0.1300
  537BOLB   GL212868  21.023  16.838  23.387  0.0270  0.1235  0.2821
  537BOLB   C1A12869  21.249  16.396  23.316  0.0179  0.0003  0.1047
  537BOLB   C2A12870  21.396  16.200  23.708 -0.0460 -0.1713 -0.2003
  537BOLB   C3A12871  21.793  16.250  23.972 -0.0006  0.1706 -0.1805
  537BOLB   C4A12872  22.096  16.206  24.231 -0.1619  0.2792 -0.3850
  537BOLB   C1B12873  21.175  16.758  23.730  0.1759 -0.0226 -0.0825
  537BOLB   C2B12874  21.335  16.825  24.121 -0.1253  0.1586 -0.3296
  537BOLB   C3B12875  21.409  16.902  24.600  0.0354 -0.3594 -0.0551
  537BOLB   C4B12876  21.795  16.812  24.833  0.0978 -0.2880  0.0395
  537BOLB   NC212877  22.947  15.202  26.985  0.3281 -0.0675 -0.0555
  537BOLB   PO212878  22.787  15.502  26.591 -0.0759  0.2060  0.1186
  537BOLB   GL312879  22.562  15.540  26.226  0.3607 -0.0360  0.1560
  537BOLB   GL412880  22.286  15.592  26.283 -0.0998 -0.0964  0.0703
  537BOLB   C1C12881  22.488  15.663  25.832  0.0829  0.2932  0.0351
  537BOLB   C2C12882  22.357  15.727  25.352 -0.1828 -0.0715  0.1239
  537BOLB   C3C12883  22.334  15.789  25.020  0.0682  0.1237 -0.2946
  537BOLB   C4C12884  22.273  15.994  24.666  0.4292  0.2080 -0.1178
  537BOLB   C1D12885  21.888  15.451  26.119  0.0325  0.0316 -0.2357
  537BOLB   C2D12886  21.579  15.446  25.862 -0.0575  0.0387  0.2181
  537BOLB   C3D12887  21.621  15.151  25.678  0.1180 -0.1582  0.2605
  537BOLB   C4D12888  21.660  14.855  25.319  0.1175 -0.0339 -0.3591
  538BOLB   NC112889  19.900  18.253  23.300 -0.0226  0.0456  0.2383
  538BOLB   PO112890  20.155  18.375  23.472  0.0649 -0.1909 -0.0657
  538BOLB   GL112891  20.493  18.505  23.817 -0.2422 -0.3773 -0.1889
  538BOLB   GL212892  20.751  18.510  23.706  0.0549 -0.0333  0.1611
  538BOLB   C1A12893  20.618  18.622  24.209  0.0736 -0.0057  0.0839
  538BOLB   C2A12894  20.986  18.604  24.515 -0.1206  0.2048 -0.2343
  538BOLB   C3A12895  21.106  18.710  24.852  0.1065  0.0203 -0.3590
  538BOLB   C4A12896  21.368  18.799  25.166 -0.0644 -0.0821 -0.1557
  538BOLB   C1B12897  20.978  18.347  23.992  0.2875 -0.1054 -0.0588
  538BOLB   C2B12898  21.305  18.186  24.389 -0.2384 -0.1162 -0.1285
  538BOLB   C3B12899  21.496  18.443  24.804  0.1469 -0.3037 -0.0348
  538BOLB   C4B12900  21.855  18.438  25.132  0.3589  0.2240 -0.2468
  538BOLB   NC212901  21.680  18.143  27.622  0.1329  0.0738 -0.0987
  538BOLB   PO212902  21.691  18.434  27.388  0.3438  0.4035  0.2082
  538BOLB   GL312903  21.600  18.448  27.066 -0.0876 -0.0761  0.0457
  538BOLB   GL412904  21.303  18.619  27.007 -0.1347  0.1773  0.2823
  538BOLB   C1C12905  21.748  18.315  26.674  0.2741 -0.2477  0.2296
  538BOLB   C2C12906  21.838  18.575  26.318  0.1311 -0.5023 -0.2276
  538BOLB   C3C12907  21.906  18.695  25.885  0.0341 -0.1011 -0.0440
  538BOLB   C4C12908  21.699  18.945  25.506 -0.1974 -0.0316 -0.0226
  538BOLB   C1D12909  21.147  18.401  26.628  0.2606 -0.1243  0.1122
  538BOLB   C2D12910  20.941  18.382  26.227 -0.1189 -0.3262  0.1801
  538BOLB   C3D12911  21.085  18.164  25.805  0.1613  0.0442  0.0809
  538BOLB   C4D12912  21.309  17.995  25.467  0.1917 -0.0369  0.2208
  539BOLB   NC112913  20.010   9.961  21.326 -0.2754  0.1290  0.0886
  539BOLB   PO112914  20.405  10.159  21.242  0.0015  0.0510  0.2742
  539BOLB   GL112915  20.743   9.894  21.342  0.0614  0.3621  0.0529
  539BOLB   GL212916  20.936  10.183  21.417 -0.0911  0.1818  0.2015
  539BOLB   C1A12917  21.139   9.767  21.380 -0.1187  0.2515  0.1349
  539BOLB   C2A12918  21.456   9.344  21.543  0.1461 -0.4457 -0.2899
  539BOLB   C3A12919  21.749   9.141  21.703  0.0768  0.1124 -0.2523
  539BOLB   C4A12920  22.045   8.831  21.796  0.2514 -0.1806 -0.0137
  539BOLB   C1B12921  21.434  10.068  21.706  0.0847  0.1305  0.0671
  539BOLB   C2B12922  21.644   9.753  21.963 -0.0726 -0.0362  0.0055
  539BOLB   C3B12923  21.976   9.484  22.124 -0.1754 -0.1085  0.1297
  539BOLB   C4B12924  22.046   9.033  22.261  0.3166  0.0781 -0.0782
  539BOLB   NC212925  23.277   6.407  22.576  0.1502  0.4358 -0.0770
  539BOLB   PO212926  23.206   6.826  22.367 -0.2255  0.0558  0.0703
  539BOLB   GL312927  22.848   7.012  22.050  0.0215  0.1922 -0.2477
  539BOLB   GL412928  22.733   6.751  21.786  0.5229 -0.1384  0.0248
  539BOLB   C1C12929  22.808   7.394  21.825  0.5864 -0.1587 -0.0169
  539BOLB   C2C12930  22.746   7.919  21.701 -0.0452  0.2047 -0.0108
  539BOLB   C3C12931  22.453   8.202  21.794  0.0518  0.2270 -0.1530
  539BOLB   C4C12932  22.157   8.431  21.757  0.0580 -0.0554 -0.0593
  539BOLB   C1D12933  22.414   7.047  21.723 -0.3533  0.1121  0.2622
  539BOLB   C2D12934  22.035   7.278  21.794  0.0477 -0.1040 -0.3605
  539BOLB   C3D12935  21.706   7.666  21.881  0.0502  0.1853 -0.0168
  539BOLB   C4D12936  21.279   7.776  21.935 -0.1400 -0.3976  0.0428
  540BOLB   NC112937  19.467  13.085  22.342  0.2756 -0.0866  0.0335
  540BOLB   PO112938  19.564  13.345  22.824 -0.2211  0.0969 -0.1133
  540BOLB   GL112939  19.931  13.274  22.977  0.0315 -0.0313  0.4104
  540BOLB   GL212940  19.825  12.993  23.177 -0.3196 -0.0652  0.1426
  540BOLB   C1A12941  20.278  12.962  23.256  0.0850  0.1127  0.3320
  540BOLB   C2A12942  20.488  12.755  23.552 -0.2759 -0.0389 -0.3262
  540BOLB   C3A12943  20.698  12.507  23.764 -0.1088  0.0371  0.2493
  540BOLB   C4A12944  20.894  12.406  24.169  0.1478  0.1131 -0.1411
  540BOLB   C1B12945  19.879  12.805  23.602  0.0942  0.1359 -0.2723
  540BOLB   C2B12946  19.847  12.720  24.059  0.2344  0.1832 -0.2033
  540BOLB   C3B12947  19.996  12.680  24.495 -0.1047 -0.0704  0.2370
  540BOLB   C4B12948  20.335  12.635  24.877  0.2184  0.2519 -0.0927
  540BOLB   NC212949  22.362  12.430  26.410 -0.0501 -0.0835 -0.1589
  540BOLB   PO212950  22.387  12.785  26.135 -0.1272 -0.2552  0.2216
  540BOLB   GL312951  21.984  12.782  25.814 -0.3224 -0.0821  0.1083
  540BOLB   GL412952  21.930  13.070  25.680 -0.1901 -0.2530  0.2142
  540BOLB   C1C12953  21.688  12.680  25.573  0.0543 -0.2731  0.0889
  540BOLB   C2C12954  21.259  12.583  25.328 -0.1129  0.2388  0.1523
  540BOLB   C3C12955  21.201  12.326  24.914  0.0010 -0.1010 -0.0377
  540BOLB   C4C12956  20.978  12.233  24.469 -0.2891 -0.1664 -0.2156
  540BOLB   C1D12957  21.609  13.062  26.029  0.1173  0.2093 -0.2949
  540BOLB   C2D12958  21.321  13.192  26.376  0.3831  0.0657  0.0811
  540BOLB   C3D12959  20.932  13.157  26.478 -0.0016 -0.2514 -0.4139
  540BOLB   C4D12960  20.522  13.071  26.454 -0.0582 -0.3211 -0.0286
  541BOLB   NC112961  12.576  15.240  24.424 -0.0716 -0.5053  0.1252
  541BOLB   PO112962  12.733  14.750  24.337  0.0402  0.1247  0.1912
  541BOLB   GL112963  12.944  14.989  24.678 -0.1025 -0.0054 -0.3477
  541BOLB   GL212964  12.908  15.268  24.841  0.2264 -0.2740  0.1919
  541BOLB   C1A12965  12.982  14.870  25.207 -0.0110  0.2679  0.0976
  541BOLB   C2A12966  13.067  14.675  25.588 -0.0454  0.1833  0.1251
  541BOLB   C3A12967  13.138  14.513  26.097  0.1262 -0.2349 -0.0915
  541BOLB   C4A12968  13.392  14.600  26.508  0.2139 -0.1797 -0.0128
  541BOLB   C1B12969  12.566  15.032  25.048 -0.1628 -0.0388 -0.0228
  541BOLB   C2B12970  12.633  15.067  25.532 -0.2790  0.2432  0.2620
  541BOLB   C3B12971  13.148  15.176  25.699 -0.1089 -0.0430 -0.2187
  541BOLB   C4B12972  13.364  15.497  25.823 -0.0864 -0.0059 -0.0067
  541BOLB   NC212973  14.147  13.753  28.843 -0.1831  0.0042 -0.0041
  541BOLB   PO212974  13.846  13.588  28.503 -0.0051  0.0316  0.2869
  541BOLB   GL312975  13.841  13.672  28.081 -0.0642 -0.0073  0.0484
  541BOLB   GL412976  13.833  13.489  27.816  0.0685  0.0879 -0.0745
  541BOLB   C1C12977  13.546  13.946  27.795  0.4571 -0.1620  0.0904
  541BOLB   C2C12978  13.680  14.182  27.469  0.1063 -0.0789 -0.2099
  541BOLB   C3C12979  13.679  14.335  27.113  0.2013  0.0602 -0.0085
  541BOLB   C4C12980  13.427  14.369  26.851 -0.1312 -0.3492  0.0020
  541BOLB   C1D12981  14.007  13.629  27.507  0.3848 -0.0747 -0.2082
  541BOLB   C2D12982  13.922  13.784  27.037  0.2583  0.1239  0.0970
  541BOLB   C3D12983  13.755  13.938  26.685 -0.3219 -0.0234  0.0674
  541BOLB   C4D12984  13.788  14.293  26.494  0.2945  0.0243 -0.4725
  542BOLB   NC112985  12.996  22.367  23.725  0.0529  0.2380  0.2888
  542BOLB   PO112986  12.649  22.515  23.988 -0.0315  0.0695  0.1743
  542BOLB   GL112987  12.620  22.621  24.339 -0.3327  0.0005 -0.0997
  542BOLB   GL212988  12.570  22.932  24.434  0.1040  0.0239  0.0284
  542BOLB   C1A12989  12.949  22.721  24.714 -0.1181 -0.1034  0.0946
  542BOLB   C2A12990  12.948  22.792  25.121  0.1366 -0.0762  0.2838
  542BOLB   C3A12991  12.884  23.024  25.475  0.0541  0.0393  0.2815
  542BOLB   C4A12992  13.047  22.771  25.826 -0.2693  0.0074 -0.0607
  542BOLB   C1B12993  12.756  23.137  24.839 -0.5677  0.0087  0.0356
  542BOLB   C2B12994  12.516  23.159  25.175 -0.0272 -0.0871  0.2612
  542BOLB   C3B12995  12.358  23.049  25.475  0.1193 -0.0090  0.2799
  542BOLB   C4B12996  12.415  23.042  25.928  0.0597 -0.1176  0.1603
  542BOLB   NC212997  12.795  23.648  28.077  0.0243 -0.0392 -0.0122
  542BOLB   PO212998  12.915  23.258  27.978 -0.1259  0.1816 -0.0386
  542BOLB   GL312999  12.809  23.363  27.656 -0.2715 -0.1515 -0.1622
  542BOLB   GL413000  12.549  23.512  27.689 -0.0406  0.2754  0.1706
  542BOLB   C1C13001  13.094  23.476  27.278  0.2914 -0.2038 -0.1241
  542BOLB   C2C13002  13.211  23.237  26.915 -0.0490 -0.1539  0.0518
  542BOLB   C3C13003  13.248  23.022  26.588  0.0361  0.2128  0.1124
  542BOLB   C4C13004  13.056  22.924  26.279  0.3593  0.2812  0.0575
  542BOLB   C1D13005  12.609  23.559  27.214  0.1104  0.3369  0.4053
  542BOLB   C2D13006  12.559  23.268  26.867  0.1407  0.0808  0.0678
  542BOLB   C3D13007  12.793  23.005  26.821  0.2560  0.1373  0.0042
  542BOLB   C4D13008  12.522  22.666  26.895 -0.1850 -0.3071 -0.3535
  543BOLB   NC113009  22.191  18.992  21.890 -0.1963 -0.3414  0.0681
  543BOLB   PO113010  22.484  19.081  22.068 -0.1083 -0.0877 -0.2434
  543BOLB   GL113011  22.805  19.143  22.322  0.1384 -0.0218  0.2309
  543BOLB   GL213012  22.845  19.117  22.724 -0.1105 -0.3947 -0.1176
  543BOLB   C1A13013  23.236  19.362  22.446 -0.2489  0.1376  0.1910
  543BOLB   C2A13014  23.447  19.404  22.793  0.1108  0.2264 -0.1482
  543BOLB   C3A13015  23.852  19.498  22.659  0.0371 -0.1135 -0.0130
  543BOLB   C4A13016  24.188  19.698  22.723 -0.1004 -0.0059 -0.1769
  543BOLB   C1B13017  22.965  19.538  22.805 -0.1144 -0.4047 -0.1414
  543BOLB   C2B13018  23.058  19.985  22.645 -0.1984  0.3595  0.0620
  543BOLB   C3B13019  23.269  20.226  22.961 -0.4392 -0.5221  0.1395
  543BOLB   C4B13020  23.480  20.248  23.328  0.2104  0.0320  0.0179
  543BOLB   NC213021  26.014  21.252  22.471 -0.0815 -0.1502 -0.1485
  543BOLB   PO213022  25.717  21.465  22.739 -0.0586 -0.0701 -0.1744
  543BOLB   GL313023  25.459  21.072  22.608 -0.0373  0.2557 -0.0530
  543BOLB   GL413024  25.502  20.854  22.318 -0.1195 -0.1726  0.1750
  543BOLB   C1C13025  25.236  20.734  22.698 -0.0942  0.0434 -0.0367
  543BOLB   C2C13026  25.257  20.288  22.511 -0.0066 -0.0864  0.1523
  543BOLB   C3C13027  25.028  19.984  22.526  0.3007 -0.0412  0.0546
  543BOLB   C4C13028  24.597  19.850  22.567 -0.0829 -0.1300  0.0186
  543BOLB   C1D13029  25.426  21.260  22.158  0.2651  0.0432  0.0960
  543BOLB   C2D13030  25.165  21.494  22.075  0.4070 -0.0376 -0.0132
  543BOLB   C3D13031  24.823  21.470  21.741  0.0099 -0.1460 -0.0003
  543BOLB   C4D13032  24.775  21.258  21.354 -0.0289 -0.1780 -0.0215
  544BOLB   NC113033  19.527  11.862  22.132 -0.1963  0.0671  0.2673
  544BOLB   PO113034  19.637  11.816  22.561  0.2089 -0.0750  0.0069
  544BOLB   GL113035  19.801  11.692  23.012  0.3188  0.0377 -0.1966
  544BOLB   GL213036  20.128  11.608  22.873  0.0066 -0.0157 -0.0784
  544BOLB   C1A13037  19.707  11.568  23.422  0.0314  0.0762 -0.0623
  544BOLB   C2A13038  19.934  11.443  23.799  0.4390 -0.2181  0.3520
  544BOLB   C3A13039  20.204  11.137  24.055 -0.2126  0.1164 -0.1930
  544BOLB   C4A13040  20.456  10.966  24.285  0.1326  0.2070  0.1681
  544BOLB   C1B13041  20.179  11.479  23.364 -0.2095 -0.1034 -0.1665
  544BOLB   C2B13042  20.453  11.522  23.781 -0.3134  0.0961  0.1682
  544BOLB   C3B13043  20.709  11.231  23.919  0.3512 -0.0080 -0.0840
  544BOLB   C4B13044  21.055  11.074  23.839  0.1009 -0.1052  0.0796
  544BOLB   NC213045  21.894  11.137  26.183 -0.0437  0.0993  0.0023
  544BOLB   PO213046  22.206  11.323  25.797  0.0398 -0.1457 -0.0871
  544BOLB   GL313047  21.856  11.441  25.754  0.1008 -0.1604 -0.1126
  544BOLB   GL413048  21.805  11.794  25.771  0.1823 -0.0416 -0.2139
  544BOLB   C1C13049  21.699  11.271  25.326 -0.1879 -0.0861 -0.0283
  544BOLB   C2C13050  21.426  11.429  25.031 -0.0475  0.0650  0.3430
  544BOLB   C3C13051  21.158  11.448  24.731 -0.0126  0.0451  0.1666
  544BOLB   C4C13052  20.866  11.162  24.445 -0.0453 -0.0009  0.2830
  544BOLB   C1D13053  21.745  11.766  25.369 -0.3002 -0.0534  0.2672
  544BOLB   C2D13054  21.856  11.821  25.012 -0.0879 -0.0282  0.1426
  544BOLB   C3D13055  21.853  12.199  24.668 -0.1751  0.2310  0.0716
  544BOLB   C4D13056  21.796  12.652  24.494  0.3158 -0.1252 -0.1802
  545BOLB   NC113057  23.141  16.490  21.173 -0.1118  0.1012  0.2059
  545BOLB   PO113058  23.037  16.869  21.157  0.3287 -0.2544 -0.0397
  545BOLB   GL113059  23.360  16.839  21.481 -0.0281  0.0886  0.4067
  545BOLB   GL213060  23.598  17.087  21.409 -0.4473 -0.1145  0.3114
  545BOLB   C1A13061  23.609  16.689  21.723 -0.2783 -0.4509 -0.4231
  545BOLB   C2A13062  24.005  16.534  21.864  0.1492 -0.0742  0.1274
  545BOLB   C3A13063  24.343  16.293  21.798  0.2681  0.1386  0.2078
  545BOLB   C4A13064  24.731  16.167  22.075 -0.1222 -0.0153 -0.0245
  545BOLB   C1B13065  23.736  17.167  21.842  0.1457  0.2072 -0.0789
  545BOLB   C2B13066  23.988  16.988  22.095  0.0750 -0.0650 -0.1103
  545BOLB   C3B13067  24.320  17.186  22.322 -0.1754 -0.4287  0.1906
  545BOLB   C4B13068  24.419  17.519  22.674  0.0161 -0.0982 -0.0118
  545BOLB   NC213069  26.109  16.264  24.127 -0.3418  0.1702  0.0978
  545BOLB   PO213070  26.475  16.505  23.838 -0.2420  0.2733  0.0677
  545BOLB   GL313071  26.055  16.491  23.670  0.2268  0.2657 -0.1004
  545BOLB   GL413072  25.966  16.807  23.896 -0.0396  0.1306  0.2110
  545BOLB   C1C13073  25.776  16.469  23.315  0.3069 -0.0274 -0.0836
  545BOLB   C2C13074  25.647  16.152  23.081  0.0357 -0.3374  0.1941
  545BOLB   C3C13075  25.423  15.920  22.766 -0.1264  0.2025  0.0007
  545BOLB   C4C13076  25.072  15.929  22.395 -0.2811  0.4004  0.0792
  545BOLB   C1D13077  25.547  16.789  23.667 -0.0581 -0.2234 -0.0852
  545BOLB   C2D13078  25.393  16.796  23.139  0.0212  0.3611  0.1930
  545BOLB   C3D13079  24.971  16.821  22.906  0.2788 -0.2007 -0.0279
  545BOLB   C4D13080  24.702  17.012  22.591 -0.3061  0.2803 -0.0628
  546BOLB   NC113081  20.186  14.089  23.520  0.3587 -0.2195 -0.0455
  546BOLB   PO113082  20.241  14.057  22.943 -0.2303 -0.2298 -0.5713
  546BOLB   GL113083  20.516  13.756  23.218  0.0254  0.0684 -0.4804
  546BOLB   GL213084  20.441  13.451  23.251  0.3646 -0.2625 -0.0963
  546BOLB   C1A13085  20.802  13.712  23.483  0.3019  0.0650  0.1564
  546BOLB   C2A13086  21.081  13.521  23.825 -0.2551  0.0399  0.0415
  546BOLB   C3A13087  21.173  13.397  24.248 -0.3199 -0.2509  0.2117
  546BOLB   C4A13088  21.464  13.276  24.549 -0.0955 -0.2872  0.0996
  546BOLB   C1B13089  20.728  13.204  23.580  0.1852 -0.3605  0.1682
  546BOLB   C2B13090  20.972  12.967  23.885  0.0710 -0.0401  0.1926
  546BOLB   C3B13091  21.165  12.910  24.220  0.0338  0.2273  0.0545
  546BOLB   C4B13092  21.301  12.607  24.438 -0.0359  0.3211 -0.0721
  546BOLB   NC213093  22.367  13.656  27.127 -0.0772  0.0758 -0.0041
  546BOLB   PO213094  22.039  13.563  26.870 -0.1920  0.3632  0.1510
  546BOLB   GL313095  21.873  13.583  26.472  0.2247 -0.0875  0.2544
  546BOLB   GL413096  22.040  13.853  26.228 -0.1540 -0.0586 -0.1106
  546BOLB   C1C13097  21.613  13.541  26.041  0.2985 -0.4132 -0.2309
  546BOLB   C2C13098  21.587  13.492  25.550 -0.0577  0.1469 -0.3624
  546BOLB   C3C13099  21.687  13.186  25.256 -0.4833  0.0747  0.0200
  546BOLB   C4C13100  21.783  13.156  24.859 -0.1628  0.0439  0.2891
  546BOLB   C1D13101  21.808  14.258  25.972 -0.1440  0.0540 -0.1941
  546BOLB   C2D13102  21.404  14.485  26.034 -0.1372 -0.2157 -0.5019
  546BOLB   C3D13103  21.024  14.526  26.058  0.2539  0.1609 -0.0223
  546BOLB   C4D13104  20.696  14.520  26.334 -0.2497 -0.2896 -0.0365
  547BOLB   NC113105  13.363   9.397  22.713  0.0437 -0.0550 -0.2058
  547BOLB   PO113106  13.873   9.374  22.790 -0.2759  0.1463  0.1141
  547BOLB   GL113107  14.056   9.307  23.129  0.2315 -0.1461  0.1288
  547BOLB   GL213108  14.005   9.025  23.279  0.0408  0.1793 -0.0213
  547BOLB   C1A13109  14.316   9.308  23.541 -0.0132  0.1480  0.1408
  547BOLB   C2A13110  14.530   9.026  23.884  0.0032 -0.2175  0.0216
  547BOLB   C3A13111  14.486   8.723  24.240  0.0006  0.2520  0.0499
  547BOLB   C4A13112  14.572   8.680  24.662  0.1200 -0.1539 -0.0796
  547BOLB   C1B13113  14.289   8.735  23.501  0.2155  0.2803  0.0665
  547BOLB   C2B13114  14.356   8.516  23.746 -0.3011 -0.1593 -0.1847
  547BOLB   C3B13115  14.435   8.099  23.964 -0.0022 -0.0153  0.0233
  547BOLB   C4B13116  14.585   7.797  24.355 -0.2174 -0.0519 -0.0672
  547BOLB   NC213117  13.824   8.361  26.498  0.1140 -0.0977 -0.0074
  547BOLB   PO213118  14.283   8.420  26.838  0.1328  0.1803 -0.1354
  547BOLB   GL313119  14.409   8.661  26.557  0.0201 -0.0254 -0.0456
  547BOLB   GL413120  14.257   8.629  26.297 -0.4066  0.1261  0.1017
  547BOLB   C1C13121  14.633   8.897  26.204  0.2366  0.2130  0.0817
  547BOLB   C2C13122  14.716   8.936  25.800  0.2558 -0.3248  0.0372
  547BOLB   C3C13123  14.544   8.958  25.378  0.2053  0.2141 -0.0540
  547BOLB   C4C13124  14.675   8.697  25.057  0.0526  0.1449 -0.0233
  547BOLB   C1D13125  14.185   8.712  25.877 -0.0922 -0.1099 -0.1959
  547BOLB   C2D13126  14.066   8.912  25.532 -0.1126 -0.3695 -0.1994
  547BOLB   C3D13127  13.759   9.221  25.420  0.2922 -0.0696 -0.0338
  547BOLB   C4D13128  13.523   9.230  25.058  0.0235 -0.0737  0.4597
  548BOLB   NC113129  12.001  17.145  24.252 -0.2251 -0.1113 -0.6010
  548BOLB   PO113130  12.207  17.497  24.524 -0.0203 -0.1324 -0.1032
  548BOLB   GL113131  12.215  17.656  24.997 -0.0830 -0.1468  0.0029
  548BOLB   GL213132  11.921  17.721  25.093 -0.0541  0.0095  0.0339
  548BOLB   C1A13133  12.354  17.675  25.497  0.0614  0.0230  0.1103
  548BOLB   C2A13134  12.209  17.641  25.900  0.1966  0.1097 -0.1031
  548BOLB   C3A13135  11.917  17.560  26.265  0.2095  0.2730 -0.2024
  548BOLB   C4A13136  11.680  17.314  26.600 -0.2948  0.3814  0.1141
  548BOLB   C1B13137  11.854  17.756  25.577  0.2394  0.1047  0.2152
  548BOLB   C2B13138  11.716  17.457  25.801 -0.1602  0.0036 -0.1671
  548BOLB   C3B13139  11.531  17.225  26.153 -0.2337  0.3231 -0.0568
  548BOLB   C4B13140  11.341  16.830  26.356 -0.0049 -0.2705  0.0753
  548BOLB   NC213141  12.646  17.748  28.950 -0.2043  0.1497  0.1610
  548BOLB   PO213142  12.518  17.332  28.915  0.0023 -0.0009  0.1547
  548BOLB   GL313143  12.655  17.181  28.486 -0.2141 -0.1589 -0.0117
  548BOLB   GL413144  12.963  17.023  28.499 -0.2663 -0.1254  0.0873
  548BOLB   C1C13145  12.486  17.194  27.959  0.1719  0.0864  0.0338
  548BOLB   C2C13146  12.475  17.031  27.457 -0.2457  0.2418 -0.2715
  548BOLB   C3C13147  12.292  16.931  27.097  0.0287 -0.1745 -0.0078
  548BOLB   C4C13148  11.954  17.003  26.892  0.4871 -0.0659  0.1659
  548BOLB   C1D13149  12.968  17.166  28.043  0.1695  0.2425 -0.2068
  548BOLB   C2D13150  12.866  17.351  27.571  0.1216  0.2311  0.2039
  548BOLB   C3D13151  12.555  17.565  27.304  0.1168  0.0373  0.0905
  548BOLB   C4D13152  12.125  17.748  27.304  0.1397  0.0757 -0.2392
  549BOLB   NC113153  17.487  16.786  24.338 -0.0653 -0.3939  0.1496
  549BOLB   PO113154  17.608  17.253  24.391 -0.4843  0.1329 -0.2305
  549BOLB   GL113155  17.556  17.054  24.838 -0.2480  0.1071  0.0752
  549BOLB   GL213156  17.471  16.794  24.937 -0.2150 -0.1613 -0.1439
  549BOLB   C1A13157  17.423  17.182  25.296  0.1585 -0.1339 -0.2673
  549BOLB   C2A13158  17.429  17.177  25.675 -0.2453  0.0016  0.0090
  549BOLB   C3A13159  17.433  17.043  26.167 -0.0733 -0.2411 -0.1052
  549BOLB   C4A13160  17.563  16.912  26.598 -0.1907  0.0636  0.2096
  549BOLB   C1B13161  17.401  16.552  25.278  0.2746 -0.1834  0.1105
  549BOLB   C2B13162  17.400  16.344  25.667  0.2019  0.0301  0.0049
  549BOLB   C3B13163  17.587  16.133  26.151  0.4353 -0.1541  0.0356
  549BOLB   C4B13164  17.533  15.873  26.577  0.2224 -0.3847 -0.2875
  549BOLB   NC213165  16.862  17.690  28.948  0.1681  0.0085  0.2962
  549BOLB   PO213166  16.804  17.350  28.691 -0.0622  0.2600  0.2908
  549BOLB   GL313167  16.869  17.355  28.261 -0.2608  0.3005 -0.1340
  549BOLB   GL413168  16.904  17.586  28.070  0.0150 -0.0900  0.0141
  549BOLB   C1C13169  17.129  17.172  28.085 -0.1178 -0.0927  0.0335
  549BOLB   C2C13170  17.335  17.253  27.763 -0.1315  0.1038  0.2516
  549BOLB   C3C13171  17.418  16.981  27.435 -0.3877 -0.2293 -0.0003
  549BOLB   C4C13172  17.385  16.909  26.954 -0.0590  0.2234  0.0561
  549BOLB   C1D13173  16.731  17.890  27.743  0.1136  0.0730 -0.1042
  549BOLB   C2D13174  16.687  17.975  27.304  0.1368 -0.0888  0.1882
  549BOLB   C3D13175  16.637  18.078  26.867  0.1230  0.0128  0.1482
  549BOLB   C4D13176  16.950  18.112  26.487  0.1104 -0.0554 -0.2640
  550BOLB   NC113177  12.733   9.967  23.665  0.0114  0.4187  0.1510
  550BOLB   PO113178  13.086  10.323  23.647 -0.0712 -0.1349  0.0938
  550BOLB   GL113179  12.988  10.161  24.066  0.2497  0.2105  0.3272
  550BOLB   GL213180  12.924   9.813  24.053  0.1872 -0.1425  0.1266
  550BOLB   C1A13181  12.799  10.154  24.447 -0.0835 -0.0070  0.2983
  550BOLB   C2A13182  12.619   9.869  24.931  0.0072  0.3806 -0.0747
  550BOLB   C3A13183  12.632   9.468  25.112  0.1412  0.1234 -0.0295
  550BOLB   C4A13184  12.700   9.036  25.350 -0.0569 -0.1822 -0.0468
  550BOLB   C1B13185  13.256   9.728  24.343 -0.3985 -0.0782 -0.0763
  550BOLB   C2B13186  13.471   9.388  24.583 -0.1907 -0.3239 -0.5735
  550BOLB   C3B13187  13.808   9.070  24.697 -0.1446  0.2780 -0.1852
  550BOLB   C4B13188  13.682   8.763  24.912  0.1362 -0.2262 -0.0760
  550BOLB   NC213189  12.469   8.165  27.076  0.2022  0.1833  0.2294
  550BOLB   PO213190  12.882   8.162  27.323 -0.1686 -0.1190  0.2000
  550BOLB   GL313191  12.902   8.454  26.858 -0.1352 -0.0019  0.3135
  550BOLB   GL413192  12.818   8.713  26.709  0.0417  0.0521  0.3900
  550BOLB   C1C13193  13.112   8.398  26.519 -0.0360 -0.0142  0.0012
  550BOLB   C2C13194  13.354   8.611  26.180  0.1858  0.1148  0.2387
  550BOLB   C3C13195  13.150   8.766  25.823  0.0374 -0.0015 -0.2997
  550BOLB   C4C13196  12.871   8.664  25.604 -0.3505 -0.0246  0.2615
  550BOLB   C1D13197  13.004   9.089  26.569  0.2639 -0.2427 -0.0528
  550BOLB   C2D13198  13.067   9.216  26.211  0.2207  0.1896  0.3040
  550BOLB   C3D13199  13.359   9.182  25.927 -0.0403  0.0654 -0.0211
  550BOLB   C4D13200  13.248   9.184  25.517 -0.0198  0.2190 -0.1400
  551BOLB   NC113201  12.033  22.825  23.421  0.0943 -0.2442 -0.0533
  551BOLB   PO113202  11.868  22.585  23.712  0.1978  0.0135 -0.2534
  551BOLB   GL113203  11.684  22.651  24.117  0.1989 -0.0547  0.0249
  551BOLB   GL213204  11.770  22.940  24.186 -0.3805 -0.0113  0.1462
  551BOLB   C1A13205  11.742  22.770  24.645 -0.1031  0.2153 -0.3248
  551BOLB   C2A13206  11.810  22.762  25.031  0.2575  0.2273  0.0198
  551BOLB   C3A13207  11.737  22.983  25.410 -0.1386 -0.1948 -0.2007
  551BOLB   C4A13208  11.920  23.150  25.846 -0.1449 -0.1199  0.4942
  551BOLB   C1B13209  12.125  23.169  24.518  0.2238 -0.0769  0.0073
  551BOLB   C2B13210  11.993  23.609  24.834  0.0516  0.0439 -0.0965
  551BOLB   C3B13211  11.744  23.817  25.146 -0.2714  0.2694 -0.0620
  551BOLB   C4B13212  11.698  23.953  25.419 -0.2793  0.2177 -0.3531
  551BOLB   NC213213  11.792  23.974  27.606  0.0250 -0.0525 -0.0805
  551BOLB   PO213214  11.638  24.363  27.396  0.1372  0.3740 -0.1290
  551BOLB   GL313215  11.574  24.098  27.133  0.3496  0.0853  0.0197
  551BOLB   GL413216  11.764  23.750  27.155  0.3324 -0.1489 -0.1842
  551BOLB   C1C13217  11.299  23.708  27.035  0.3007  0.0838 -0.1532
  551BOLB   C2C13218  11.427  23.374  26.800 -0.0036 -0.0049  0.0102
  551BOLB   C3C13219  11.595  23.045  26.664 -0.1316  0.1004 -0.2143
  551BOLB   C4C13220  11.848  22.924  26.243 -0.1267 -0.0013 -0.0839
  551BOLB   C1D13221  11.704  23.828  26.708  0.1990  0.2210  0.1198
  551BOLB   C2D13222  11.480  23.904  26.344 -0.0695 -0.0643 -0.1859
  551BOLB   C3D13223  11.365  24.005  25.911 -0.1192  0.3928 -0.0183
  551BOLB   C4D13224  11.442  24.353  25.607  0.0055  0.1385 -0.1969
  552BOLB   NC113225  13.510  24.335  23.050  0.1656  0.2679  0.0575
  552BOLB   PO113226  13.190  24.183  23.234  0.0917 -0.0644  0.0392
  552BOLB   GL113227  13.196  24.183  23.718  0.1867 -0.0245 -0.3638
  552BOLB   GL213228  12.932  24.051  23.975  0.4602 -0.0743  0.0416
  552BOLB   C1A13229  13.231  24.486  24.078 -0.0176  0.2709  0.0550
  552BOLB   C2A13230  13.131  24.529  24.537 -0.0224  0.0142  0.1704
  552BOLB   C3A13231  12.856  24.727  24.759  0.1125  0.2158 -0.0811
  552BOLB   C4A13232  12.538  24.902  25.008  0.0398  0.0320  0.0431
  552BOLB   C1B13233  12.896  24.152  24.362  0.1815 -0.1118 -0.4874
  552BOLB   C2B13234  12.804  24.248  24.771 -0.1040  0.3085  0.0428
  552BOLB   C3B13235  12.644  24.248  25.118 -0.2426 -0.1588 -0.0947
  552BOLB   C4B13236  12.384  24.482  25.270 -0.2167  0.0338 -0.2294
  552BOLB   NC213237  12.001  25.950  27.009 -0.1941 -0.0528 -0.3673
  552BOLB   PO213238  11.619  26.291  26.904  0.1060  0.1547  0.1630
  552BOLB   GL313239  11.572  25.939  26.534 -0.1318 -0.0804 -0.4936
  552BOLB   GL413240  11.318  25.672  26.589  0.3238 -0.1933  0.2999
  552BOLB   C1C13241  12.053  25.762  26.419  0.3138  0.1141 -0.2845
  552BOLB   C2C13242  12.217  25.443  26.176  0.1821  0.0476  0.1111
  552BOLB   C3C13243  12.123  25.181  25.703  0.1903  0.2233 -0.0018
  552BOLB   C4C13244  12.368  25.021  25.401  0.2863  0.2599 -0.2077
  552BOLB   C1D13245  11.183  25.358  26.310 -0.0240 -0.1001  0.0510
  552BOLB   C2D13246  11.204  25.434  25.822  0.3192  0.3161 -0.0402
  552BOLB   C3D13247  10.996  25.209  25.407 -0.0403  0.3964  0.0256
  552BOLB   C4D13248  10.610  24.926  25.472  0.3322 -0.0456  0.1505
  553BOLB   NC113249  23.091  18.443  20.890  0.0656 -0.0604  0.0965
  553BOLB   PO113250  23.256  18.116  21.125 -0.2380 -0.0923 -0.0796
  553BOLB   GL113251  23.267  18.509  21.350 -0.0118 -0.1258 -0.1874
  553BOLB   GL213252  23.146  18.594  21.656  0.0321  0.0374 -0.0348
  553BOLB   C1A13253  23.707  18.776  21.385  0.0251 -0.0045 -0.0489
  553BOLB   C2A13254  24.031  18.853  21.658 -0.3506 -0.1379 -0.0537
  553BOLB   C3A13255  24.448  18.953  21.895  0.1141  0.3325 -0.0652
  553BOLB   C4A13256  24.578  18.995  22.330  0.1247  0.1308  0.2231
  553BOLB   C1B13257  23.542  18.643  21.821 -0.2056  0.4334  0.0302
  553BOLB   C2B13258  23.813  18.591  22.166 -0.3614  0.0760 -0.0131
  553BOLB   C3B13259  24.126  18.685  22.390 -0.2319  0.2753 -0.0348
  553BOLB   C4B13260  24.364  18.705  22.734 -0.0010 -0.1461 -0.0429
  553BOLB   NC213261  26.648  19.261  24.405  0.0772 -0.1477 -0.0119
  553BOLB   PO213262  26.235  19.088  24.153  0.1875 -0.0711 -0.1403
  553BOLB   GL313263  25.869  18.945  23.949 -0.1176 -0.1513 -0.0375
  553BOLB   GL413264  25.642  19.162  23.656  0.0700  0.0414  0.0648
  553BOLB   C1C13265  25.610  18.687  23.649 -0.1255  0.3897  0.0908
  553BOLB   C2C13266  25.293  18.477  23.405  0.2600  0.2699  0.1570
  553BOLB   C3C13267  25.049  18.650  23.014  0.1068  0.2034  0.0918
  553BOLB   C4C13268  24.863  18.863  22.649  0.2341 -0.1033  0.1206
  553BOLB   C1D13269  25.596  19.473  23.388 -0.2288  0.0557  0.1925
  553BOLB   C2D13270  25.315  19.854  23.245 -0.1498 -0.0499 -0.2192
  553BOLB   C3D13271  24.942  20.057  23.151  0.0078 -0.0297  0.0160
  553BOLB   C4D13272  24.871  20.341  22.878 -0.2534  0.1310 -0.3011
  554BOLB   NC113273  22.152  14.500  21.854 -0.0669  0.1359 -0.1265
  554BOLB   PO113274  21.729  14.596  21.979 -0.2181 -0.2679  0.1243
  554BOLB   GL113275  22.027  14.589  22.365 -0.0276  0.2125 -0.0336
  554BOLB   GL213276  22.302  14.662  22.313  0.1896  0.0372  0.1172
  554BOLB   C1A13277  22.199  14.753  22.827 -0.2926 -0.0492  0.0212
  554BOLB   C2A13278  22.403  15.025  23.119  0.1315 -0.1843 -0.1458
  554BOLB   C3A13279  22.800  15.025  23.364 -0.2248  0.2926 -0.2677
  554BOLB   C4A13280  23.090  15.014  23.705 -0.2583  0.0683  0.2290
  554BOLB   C1B13281  22.508  14.400  22.621 -0.3519  0.2531  0.0951
  554BOLB   C2B13282  22.679  14.059  22.787  0.2562  0.1169 -0.1440
  554BOLB   C3B13283  22.801  13.821  23.067  0.2409 -0.1239 -0.2093
  554BOLB   C4B13284  23.044  13.920  23.370 -0.0615  0.2306 -0.0409
  554BOLB   NC213285  24.162  14.907  25.957  0.0932 -0.1840  0.2843
  554BOLB   PO213286  23.768  14.639  26.016 -0.0029 -0.1052 -0.1247
  554BOLB   GL313287  23.650  14.729  25.550 -0.0165 -0.0004 -0.1838
  554BOLB   GL413288  23.682  14.486  25.248  0.0630  0.2964 -0.3495
  554BOLB   C1C13289  23.448  14.958  25.266  0.3988 -0.4784 -0.0107
  554BOLB   C2C13290  23.102  14.974  24.912  0.2621 -0.2093  0.2731
  554BOLB   C3C13291  22.843  15.113  24.588 -0.2528 -0.3348 -0.0974
  554BOLB   C4C13292  22.860  15.143  24.109  0.1409 -0.1417  0.0688
  554BOLB   C1D13293  23.671  14.719  24.894 -0.4122 -0.0734  0.3345
  554BOLB   C2D13294  23.809  15.109  24.626  0.1866 -0.0055  0.0139
  554BOLB   C3D13295  23.713  15.527  24.514 -0.2037  0.2056 -0.0821
  554BOLB   C4D13296  23.649  15.813  24.183  0.0058  0.1418  0.1867
  555BOLB   NC113297  21.598  18.951  22.516  0.2963 -0.0399 -0.1713
  555BOLB   PO113298  21.767  19.146  22.136  0.2420 -0.0171  0.0453
  555BOLB   GL113299  21.862  19.367  22.551 -0.2177 -0.0542  0.1723
  555BOLB   GL213300  22.018  19.660  22.698 -0.0484 -0.2224  0.2884
  555BOLB   C1A13301  22.061  19.321  23.051 -0.0647 -0.3442  0.1951
  555BOLB   C2A13302  22.248  19.358  23.405 -0.2123 -0.1353  0.0922
  555BOLB   C3A13303  22.638  19.216  23.599  0.0839  0.3325  0.0113
  555BOLB   C4A13304  23.040  19.268  23.708  0.0398 -0.0259  0.1224
  555BOLB   C1B13305  22.139  19.812  23.074 -0.2804 -0.1072  0.1811
  555BOLB   C2B13306  22.428  19.838  23.405  0.2648 -0.3040 -0.1956
  555BOLB   C3B13307  22.617  20.017  23.713  0.0760 -0.0332 -0.1421
  555BOLB   C4B13308  23.011  20.155  23.899  0.1475  0.2926  0.3078
  555BOLB   NC213309  23.545  19.898  26.321  0.2218  0.2259 -0.3791
  555BOLB   PO213310  23.864  19.748  26.061  0.1273  0.1123 -0.1706
  555BOLB   GL313311  23.713  19.603  25.619 -0.0160  0.1510  0.0342
  555BOLB   GL413312  23.570  19.227  25.611 -0.1594  0.1990  0.1731
  555BOLB   C1C13313  23.748  19.913  25.234 -0.0125  0.2351  0.1994
  555BOLB   C2C13314  23.558  19.804  24.740 -0.0993 -0.2154 -0.2752
  555BOLB   C3C13315  23.428  19.801  24.257  0.0444 -0.2268  0.1128
  555BOLB   C4C13316  23.308  19.552  23.875 -0.0069  0.1004 -0.0575
  555BOLB   C1D13317  23.155  19.191  25.510 -0.1478  0.1895 -0.3103
  555BOLB   C2D13318  22.773  19.318  25.620 -0.1721  0.2064 -0.1851
  555BOLB   C3D13319  22.552  19.668  25.567  0.2095  0.1196 -0.0488
  555BOLB   C4D13320  22.343  19.905  25.078 -0.0665  0.0290  0.0172
  556BOLB   NC113321  21.636  16.231  22.392  0.2429  0.2737  0.5375
  556BOLB   PO113322  21.240  16.491  22.547 -0.3410 -0.2453  0.0377
  556BOLB   GL113323  21.521  16.460  22.869  0.0418  0.1452  0.0473
  556BOLB   GL213324  21.535  16.797  23.118  0.1647 -0.0054 -0.2331
  556BOLB   C1A13325  21.738  16.320  23.209 -0.0786  0.1178 -0.2578
  556BOLB   C2A13326  22.029  16.396  23.572 -0.0134 -0.0619  0.1889
  556BOLB   C3A13327  22.365  16.316  23.829  0.2883  0.0820  0.2072
  556BOLB   C4A13328  22.456  16.580  24.238 -0.1476  0.0688 -0.0641
  556BOLB   C1B13329  21.643  16.660  23.566 -0.1162  0.0832  0.2286
  556BOLB   C2B13330  21.905  16.723  23.938  0.2671  0.1949 -0.1306
  556BOLB   C3B13331  22.165  16.958  24.340 -0.2221 -0.2272  0.0820
  556BOLB   C4B13332  22.376  17.358  24.422  0.2340 -0.3133  0.2574
  556BOLB   NC213333  22.661  17.034  26.646  0.3193 -0.1163 -0.1235
  556BOLB   PO213334  23.029  17.041  26.436  0.2357  0.1113  0.1979
  556BOLB   GL313335  22.844  16.883  26.141  0.0140  0.4177  0.3499
  556BOLB   GL413336  22.534  16.733  26.273  0.1196 -0.2250  0.1476
  556BOLB   C1C13337  22.845  16.785  25.621  0.6516 -0.0912  0.0514
  556BOLB   C2C13338  22.922  16.591  25.240 -0.2140  0.2767  0.1690
  556BOLB   C3C13339  22.752  16.780  24.918 -0.2853  0.1139  0.3046
  556BOLB   C4C13340  22.546  16.788  24.569 -0.1949 -0.0479  0.0642
  556BOLB   C1D13341  22.391  16.614  25.853 -0.0670  0.0603 -0.1025
  556BOLB   C2D13342  22.396  16.501  25.483  0.0459 -0.3138 -0.2144
  556BOLB   C3D13343  22.062  16.532  25.190 -0.0440 -0.2606  0.1943
  556BOLB   C4D13344  21.619  16.334  25.253  0.1653 -0.2364  0.1110
  557BOLB   NC113345  19.058  12.782  23.188 -0.1750 -0.0430  0.0005
  557BOLB   PO113346  19.357  13.081  23.278  0.1101  0.2975 -0.5457
  557BOLB   GL113347  19.639  13.308  23.590  0.2532  0.1912  0.4707
  557BOLB   GL213348  19.510  13.519  23.743 -0.0107  0.0195 -0.2010
  557BOLB   C1A13349  19.807  13.289  24.046  0.0950 -0.2481  0.0412
  557BOLB   C2A13350  20.119  13.158  24.322  0.1050  0.0851 -0.1283
  557BOLB   C3A13351  20.315  13.087  24.626  0.1959 -0.0061 -0.5057
  557BOLB   C4A13352  20.598  13.193  24.903  0.0612  0.0885  0.0006
  557BOLB   C1B13353  19.375  13.572  24.208 -0.1221 -0.0873 -0.1761
  557BOLB   C2B13354  19.129  13.441  24.549 -0.1771 -0.0499 -0.0558
  557BOLB   C3B13355  19.063  13.335  24.948 -0.0500  0.1695 -0.1827
  557BOLB   C4B13356  19.239  13.153  25.287  0.3141  0.1456 -0.3699
  557BOLB   NC213357  22.879  13.401  25.865 -0.1620  0.3092  0.0453
  557BOLB   PO213358  22.492  13.231  25.833  0.3331 -0.1362  0.1913
  557BOLB   GL313359  22.261  13.448  25.593  0.1488 -0.0052  0.0001
  557BOLB   GL413360  22.485  13.512  25.402 -0.0004  0.2153 -0.1187
  557BOLB   C1C13361  21.973  13.610  25.338  0.1760  0.0348 -0.3389
  557BOLB   C2C13362  21.665  13.730  25.059  0.1283 -0.1212  0.0443
  557BOLB   C3C13363  21.328  13.478  24.976 -0.0881  0.1778  0.0213
  557BOLB   C4C13364  20.906  13.193  25.164 -0.2508  0.2229 -0.0427
  557BOLB   C1D13365  22.686  13.891  25.284 -0.2868  0.2688  0.1480
  557BOLB   C2D13366  22.864  14.170  24.924  0.0857  0.0181  0.2905
  557BOLB   C3D13367  22.900  14.580  24.714 -0.2698  0.3279 -0.0390
  557BOLB   C4D13368  23.074  14.369  24.334  0.0117 -0.1569 -0.1870
  558BOLB   NC113369  20.442  18.721  23.283  0.1414 -0.2115 -0.0123
  558BOLB   PO113370  20.812  19.007  23.253  0.2260  0.3024 -0.1208
  558BOLB   GL113371  21.023  18.858  23.499 -0.3153  0.0581 -0.2333
  558BOLB   GL213372  21.359  18.939  23.458 -0.0252  0.1493  0.1446
  558BOLB   C1A13373  21.070  18.886  23.868 -0.1429 -0.3307 -0.1679
  558BOLB   C2A13374  21.399  19.057  24.124  0.2349 -0.1192  0.3060
  558BOLB   C3A13375  21.766  19.279  24.285 -0.2988 -0.1510 -0.2622
  558BOLB   C4A13376  22.117  19.181  24.538 -0.0804 -0.1502  0.3098
  558BOLB   C1B13377  21.697  18.844  23.693 -0.0199  0.3803 -0.2256
  558BOLB   C2B13378  22.039  18.786  23.999 -0.2118 -0.1273  0.0544
  558BOLB   C3B13379  22.405  18.747  24.394 -0.1373 -0.1067 -0.2349
  558BOLB   C4B13380  22.806  18.692  24.509 -0.1540 -0.1597  0.2045
  558BOLB   NC213381  23.283  21.375  25.939 -0.1668 -0.2161 -0.1318
  558BOLB   PO213382  23.132  20.919  25.919 -0.3770 -0.1079  0.2409
  558BOLB   GL313383  22.864  20.892  25.543 -0.1832 -0.0401 -0.0980
  558BOLB   GL413384  22.485  20.859  25.563  0.0550 -0.2234 -0.0624
  558BOLB   C1C13385  22.859  20.499  25.268 -0.2632 -0.4646 -0.0825
  558BOLB   C2C13386  22.812  20.003  25.279  0.2242  0.1763  0.1954
  558BOLB   C3C13387  22.676  19.543  25.099  0.1489 -0.2216  0.2314
  558BOLB   C4C13388  22.311  19.409  24.807 -0.1163  0.2347  0.0339
  558BOLB   C1D13389  22.377  20.705  25.225 -0.0131  0.0905 -0.2116
  558BOLB   C2D13390  22.144  20.631  24.830 -0.0029 -0.2413 -0.0415
  558BOLB   C3D13391  22.174  20.653  24.415 -0.0339 -0.2440  0.1205
  558BOLB   C4D13392  21.830  20.643  24.017  0.2874 -0.0545 -0.1585
  559BOLB   NC113393  14.966  20.618  24.158  0.0623 -0.0142 -0.2149
  559BOLB   PO113394  15.404  20.488  24.125 -0.0646  0.0527  0.1819
  559BOLB   GL113395  15.687  20.530  24.447 -0.0717  0.0516 -0.1346
  559BOLB   GL213396  15.402  20.411  24.618  0.3130 -0.2998  0.1357
  559BOLB   C1A13397  15.804  20.414  24.914  0.0394  0.2398  0.0853
  559BOLB   C2A13398  15.959  20.260  25.349 -0.0676 -0.2618 -0.2616
  559BOLB   C3A13399  16.256  20.253  25.574  0.3101 -0.1143  0.0071
  559BOLB   C4A13400  16.460  20.016  25.794  0.3193 -0.0219  0.2868
  559BOLB   C1B13401  15.453  20.785  24.981 -0.2265 -0.1949  0.0462
  559BOLB   C2B13402  15.442  20.764  25.434  0.0599 -0.0959 -0.2206
  559BOLB   C3B13403  15.559  20.752  25.885  0.0599  0.1475  0.0307
  559BOLB   C4B13404  15.296  20.791  26.310  0.2598 -0.2513  0.0229
  559BOLB   NC213405  16.330  18.843  28.286  0.2713  0.0768 -0.1543
  559BOLB   PO213406  16.601  19.170  28.143  0.4356  0.0995 -0.4665
  559BOLB   GL313407  16.772  19.382  27.816 -0.0215  0.0480 -0.2652
  559BOLB   GL413408  17.202  19.386  27.908 -0.2322  0.1886  0.1024
  559BOLB   C1C13409  16.978  19.402  27.420  0.1015 -0.1649 -0.3382
  559BOLB   C2C13410  17.036  19.658  26.977  0.1093 -0.0971  0.1558
  559BOLB   C3C13411  16.786  19.715  26.667  0.2468 -0.0485  0.0263
  559BOLB   C4C13412  16.637  19.978  26.253 -0.0844  0.0445 -0.4167
  559BOLB   C1D13413  17.236  19.020  27.774 -0.0484 -0.2835  0.1636
  559BOLB   C2D13414  17.251  18.710  27.521  0.2456  0.0369 -0.2237
  559BOLB   C3D13415  17.518  18.378  27.487  0.1193  0.2091 -0.0219
  559BOLB   C4D13416  17.704  17.955  27.365 -0.0642 -0.0943 -0.3533
  560BOLB   NC113417  21.640   9.957  19.111 -0.3511  0.0577  0.0408
  560BOLB   PO113418  21.750   9.702  18.919  0.3097  0.1901  0.2921
  560BOLB   GL113419  21.885   9.405  19.213 -0.2352  0.0958  0.0323
  560BOLB   GL213420  22.229   9.339  19.196 -0.0144 -0.3107  0.1409
  560BOLB   C1A13421  21.781   8.951  19.262 -0.0081 -0.2889 -0.1051
  560BOLB   C2A13422  21.869   8.546  19.457  0.0528 -0.0236  0.2721
  560BOLB   C3A13423  22.007   8.181  19.363 -0.0494 -0.3456  0.0903
  560BOLB   C4A13424  22.266   7.758  19.287  0.3570 -0.2480 -0.1258
  560BOLB   C1B13425  22.217   9.044  19.548  0.0247 -0.1568 -0.2945
  560BOLB   C2B13426  22.296   8.725  19.705 -0.2921 -0.0674  0.0259
  560BOLB   C3B13427  22.500   8.273  19.895  0.2297 -0.3296 -0.1463
  560BOLB   C4B13428  22.177   7.901  19.783  0.0953 -0.1945 -0.0410
  560BOLB   NC213429  22.857   5.346  19.260  0.0062 -0.1809  0.2713
  560BOLB   PO213430  23.006   5.401  19.707 -0.1586 -0.2646  0.1760
  560BOLB   GL313431  22.813   5.741  19.547 -0.0123  0.1359 -0.0751
  560BOLB   GL413432  22.511   5.594  19.567  0.0107 -0.3649 -0.7149
  560BOLB   C1C13433  22.800   6.106  19.412 -0.1828 -0.4662  0.0689
  560BOLB   C2C13434  22.489   6.452  19.463  0.2386 -0.1379  0.1689
  560BOLB   C3C13435  22.370   6.956  19.462  0.2271  0.0611  0.0058
  560BOLB   C4C13436  22.338   7.353  19.449  0.1703 -0.0517 -0.3138
  560BOLB   C1D13437  22.198   5.873  19.391 -0.1311  0.0253  0.0305
  560BOLB   C2D13438  22.027   6.225  19.460  0.1255  0.0794 -0.0530
  560BOLB   C3D13439  21.984   6.670  19.382  0.2385 -0.1959 -0.0872
  560BOLB   C4D13440  21.894   7.064  19.197 -0.0410  0.1702 -0.0018
  561BOLB   NC113441  16.919  12.354  23.746 -0.3157 -0.2783  0.1201
  561BOLB   PO113442  16.727  12.004  23.711  0.2132  0.2369  0.2284
  561BOLB   GL113443  16.854  11.934  24.124 -0.4021  0.1873 -0.0917
  561BOLB   GL213444  16.687  11.674  24.126 -0.1190 -0.3618 -0.6545
  561BOLB   C1A13445  17.088  11.986  24.384 -0.2685  0.0773 -0.3188
  561BOLB   C2A13446  17.132  12.086  24.812  0.1037  0.4484 -0.2925
  561BOLB   C3A13447  16.926  12.076  25.195  0.1184 -0.2355  0.1789
  561BOLB   C4A13448  17.038  11.730  25.517 -0.0052  0.0107 -0.1759
  561BOLB   C1B13449  16.686  11.762  24.542  0.2032  0.0828 -0.1537
  561BOLB   C2B13450  16.772  11.640  24.950  0.4776 -0.1998  0.1006
  561BOLB   C3B13451  16.472  11.547  25.229 -0.0228  0.0474 -0.1812
  561BOLB   C4B13452  16.027  11.641  25.242 -0.2609  0.1885  0.2072
  561BOLB   NC213453  16.708  10.963  28.096 -0.1986  0.0385  0.1677
  561BOLB   PO213454  16.859  11.480  27.901 -0.1239 -0.0596 -0.2128
  561BOLB   GL313455  16.916  11.559  27.477  0.2843 -0.1557 -0.0554
  561BOLB   GL413456  16.998  11.841  27.500  0.3357 -0.0064 -0.1851
  561BOLB   C1C13457  16.803  11.518  27.030 -0.0091 -0.1464 -0.2206
  561BOLB   C2C13458  16.973  11.610  26.714  0.2234  0.4804  0.2719
  561BOLB   C3C13459  17.171  11.778  26.351 -0.0766 -0.3421  0.4150
  561BOLB   C4C13460  17.171  11.634  25.896 -0.0534 -0.3189 -0.3093
  561BOLB   C1D13461  16.884  12.034  27.103 -0.0965  0.2262  0.0410
  561BOLB   C2D13462  16.574  11.886  26.811  0.2362 -0.1872 -0.0254
  561BOLB   C3D13463  16.290  12.065  26.523  0.1187  0.1195 -0.0260
  561BOLB   C4D13464  15.801  12.270  26.321 -0.0631 -0.1565  0.0791
  562BOLB   NC113465  10.292   7.823  23.112 -0.0458  0.0085  0.0443
  562BOLB   PO113466   9.930   8.181  23.117 -0.1102  0.1493  0.0209
  562BOLB   GL113467   9.770   8.556  23.354  0.0025 -0.1918  0.0284
  562BOLB   GL213468   9.755   8.827  23.161  0.2058  0.2015  0.0462
  562BOLB   C1A13469   9.493   8.915  23.522 -0.0577  0.2750 -0.1005
  562BOLB   C2A13470   9.502   9.304  23.528  0.1878  0.0594 -0.2201
  562BOLB   C3A13471   9.450   9.713  23.436 -0.1698 -0.1582 -0.0826
  562BOLB   C4A13472   9.379  10.142  23.602 -0.1658 -0.2138 -0.0896
  562BOLB   C1B13473   9.926   9.139  23.398 -0.2530  0.2204 -0.2320
  562BOLB   C2B13474  10.218   9.438  23.276 -0.1974 -0.2096  0.1330
  562BOLB   C3B13475  10.261   9.601  22.938  0.0941  0.2339 -0.1354
  562BOLB   C4B13476  10.309   9.800  22.596  0.0976  0.1676 -0.4988
  562BOLB   NC213477   8.093   9.403  25.257 -0.4679 -0.0061 -0.0217
  562BOLB   PO213478   8.101   9.711  25.108  0.1668 -0.0875  0.1202
  562BOLB   GL313479   8.224   9.823  24.678 -0.0637  0.3066 -0.2287
  562BOLB   GL413480   8.515   9.955  24.550 -0.2965 -0.2026 -0.0970
  562BOLB   C1C13481   8.233  10.052  24.240 -0.0446 -0.1548  0.0886
  562BOLB   C2C13482   8.510  10.401  24.132 -0.0381 -0.0062 -0.2130
  562BOLB   C3C13483   8.937  10.474  24.061  0.1276 -0.0810 -0.1214
  562BOLB   C4C13484   9.239  10.224  23.977 -0.1355  0.0813 -0.2349
  562BOLB   C1D13485   8.809  10.335  24.555  0.0515 -0.1389 -0.0254
  562BOLB   C2D13486   8.931  10.769  24.474 -0.2840  0.2133  0.0991
  562BOLB   C3D13487   9.253  11.113  24.467 -0.2564 -0.1480  0.2676
  562BOLB   C4D13488   9.058  11.490  24.623 -0.2254 -0.3178  0.0551
  563BOLB   NC113489  14.145  23.791  23.121 -0.1336  0.6339 -0.3113
  563BOLB   PO113490  13.908  23.375  23.172 -0.0615  0.0309 -0.3178
  563BOLB   GL113491  14.242  23.514  23.653 -0.1439  0.1072 -0.1172
  563BOLB   GL213492  14.528  23.410  23.772  0.2249  0.2239  0.3134
  563BOLB   C1A13493  14.287  23.769  24.054 -0.0333  0.3131 -0.1088
  563BOLB   C2A13494  14.384  23.852  24.530  0.1639 -0.3867  0.0059
  563BOLB   C3A13495  14.369  24.052  24.877  0.3813  0.1666 -0.0718
  563BOLB   C4A13496  14.369  24.120  25.330 -0.1447 -0.0771 -0.2198
  563BOLB   C1B13497  14.600  23.254  24.255 -0.1344 -0.1600 -0.1834
  563BOLB   C2B13498  15.059  23.127  24.409 -0.1483  0.0810  0.1788
  563BOLB   C3B13499  15.284  23.276  24.720 -0.0507 -0.1017 -0.0220
  563BOLB   C4B13500  15.672  23.241  24.866  0.0584  0.1776  0.3119
  563BOLB   NC213501  13.750  26.023  26.842 -0.1379  0.2247  0.1066
  563BOLB   PO213502  13.409  25.764  26.934 -0.1250  0.1175  0.0755
  563BOLB   GL313503  13.373  25.475  26.534 -0.1914  0.5568 -0.3980
  563BOLB   GL413504  13.392  25.257  26.735 -0.0988 -0.1226  0.0426
  563BOLB   C1C13505  13.580  25.183  26.298 -0.1701 -0.0112  0.2098
  563BOLB   C2C13506  13.818  24.924  26.039 -0.0508  0.1398 -0.0119
  563BOLB   C3C13507  14.064  24.617  25.876 -0.1810 -0.0309  0.0695
  563BOLB   C4C13508  14.282  24.184  25.755 -0.0695  0.0318 -0.0374
  563BOLB   C1D13509  13.649  24.839  26.617 -0.1192  0.1819 -0.0266
  563BOLB   C2D13510  13.835  24.582  26.377  0.1292  0.0548  0.1617
  563BOLB   C3D13511  14.239  24.229  26.282  0.3874 -0.0599  0.2542
  563BOLB   C4D13512  14.304  23.881  26.484  0.1306 -0.2463  0.3898
  564BOLB   NC113513  14.298  18.477  24.611  0.0976 -0.2440  0.1518
  564BOLB   PO113514  14.758  18.568  24.602  0.0190  0.0565  0.0394
  564BOLB   GL113515  14.618  18.622  25.046  0.0311  0.0853  0.0413
  564BOLB   GL213516  14.576  18.345  25.156 -0.0763  0.2741 -0.1753
  564BOLB   C1A13517  14.680  18.618  25.520 -0.1200  0.1350 -0.2603
  564BOLB   C2A13518  14.802  18.600  25.922  0.2106  0.1638 -0.2031
  564BOLB   C3A13519  14.758  18.807  26.243 -0.0419 -0.0231  0.3926
  564BOLB   C4A13520  14.707  18.780  26.577 -0.0179 -0.0977  0.0642
  564BOLB   C1B13521  14.374  18.136  25.522 -0.3066 -0.1997  0.0491
  564BOLB   C2B13522  14.458  18.218  25.868 -0.0509  0.1665 -0.1786
  564BOLB   C3B13523  14.530  18.318  26.335  0.2616  0.0576 -0.0537
  564BOLB   C4B13524  14.315  18.205  26.680  0.0214 -0.2614 -0.2075
  564BOLB   NC213525  13.851  19.212  28.904 -0.3895 -0.0967 -0.0558
  564BOLB   PO213526  13.841  19.656  28.676  0.0252 -0.0687 -0.5104
  564BOLB   GL313527  13.977  19.689  28.171 -0.4592 -0.0871  0.0001
  564BOLB   GL413528  14.016  19.961  27.940  0.0278  0.3049 -0.2855
  564BOLB   C1C13529  13.983  19.490  27.745  0.1846  0.1917  0.0134
  564BOLB   C2C13530  14.022  19.393  27.359  0.1976  0.1844  0.0955
  564BOLB   C3C13531  14.216  19.073  27.218  0.0380 -0.1063  0.3624
  564BOLB   C4C13532  14.412  19.019  26.846 -0.0127 -0.2383  0.0126
  564BOLB   C1D13533  14.022  20.283  27.616 -0.2704 -0.1551  0.1097
  564BOLB   C2D13534  14.132  20.666  27.376  0.2127 -0.1469  0.0484
  564BOLB   C3D13535  14.314  21.032  27.183  0.1816  0.0326 -0.0331
  564BOLB   C4D13536  14.519  21.335  27.515 -0.3706 -0.0302  0.0187
  565BOLB   NC113537  17.171  20.987  24.083  0.0751 -0.0662  0.1971
  565BOLB   PO113538  16.701  21.131  23.839 -0.0833 -0.3362  0.0751
  565BOLB   GL113539  16.602  21.157  24.247 -0.1130  0.0472 -0.2802
  565BOLB   GL213540  16.877  21.313  24.399 -0.1314 -0.0075  0.0491
  565BOLB   C1A13541  16.484  20.973  24.639  0.0822 -0.0035  0.1965
  565BOLB   C2A13542  16.427  21.077  25.065  0.1848  0.2401  0.2515
  565BOLB   C3A13543  16.408  21.007  25.440  0.3568  0.0008 -0.1186
  565BOLB   C4A13544  16.523  20.654  25.725 -0.2502  0.0057  0.0682
  565BOLB   C1B13545  16.572  21.486  24.677  0.0705  0.1511  0.2471
  565BOLB   C2B13546  16.574  21.556  25.049 -0.0923 -0.3579 -0.1050
  565BOLB   C3B13547  16.626  21.525  25.495 -0.2563  0.3529  0.0626
  565BOLB   C4B13548  16.583  21.436  25.982 -0.0611  0.0283 -0.4700
  565BOLB   NC213549  16.072  21.381  28.138  0.3464  0.1903 -0.0017
  565BOLB   PO213550  16.155  20.918  28.102 -0.3028 -0.1535 -0.1919
  565BOLB   GL313551  16.016  21.094  27.638 -0.0856 -0.0811  0.0753
  565BOLB   GL413552  16.155  21.372  27.530 -0.1340 -0.1320 -0.1125
  565BOLB   C1C13553  16.091  20.937  27.251 -0.0993  0.1354 -0.2107
  565BOLB   C2C13554  16.204  20.669  26.918 -0.1608  0.0324 -0.0244
  565BOLB   C3C13555  16.336  20.607  26.515 -0.1102 -0.1655 -0.0832
  565BOLB   C4C13556  16.445  20.404  26.127  0.0035 -0.0059 -0.1000
  565BOLB   C1D13557  16.000  21.535  27.074  0.1121  0.0925 -0.0514
  565BOLB   C2D13558  16.244  21.681  26.739  0.0652  0.2443 -0.3416
  565BOLB   C3D13559  16.539  21.518  26.500  0.2423  0.3549  0.2909
  565BOLB   C4D13560  16.933  21.450  26.348  0.3836  0.1373  0.0047
  566BOLB   NC113561  19.717   9.732  20.828 -0.0142 -0.0501  0.0271
  566BOLB   PO113562  19.765   9.237  20.858 -0.3006 -0.3248  0.0705
  566BOLB   GL113563  19.974   9.217  21.350  0.2437  0.0256 -0.0347
  566BOLB   GL213564  20.215   9.523  21.381 -0.0482  0.0658 -0.1001
  566BOLB   C1A13565  20.230   9.025  21.552  0.0784  0.0828 -0.0186
  566BOLB   C2A13566  20.601   9.112  21.682 -0.1215 -0.4156 -0.1605
  566BOLB   C3A13567  20.754   9.222  22.139  0.3236  0.2408  0.0482
  566BOLB   C4A13568  21.076   9.260  22.432 -0.4342 -0.2739 -0.1642
  566BOLB   C1B13569  20.499   9.623  21.697 -0.1340  0.0098  0.0001
  566BOLB   C2B13570  20.932   9.461  21.717  0.0800 -0.1314  0.0063
  566BOLB   C3B13571  21.255   9.271  21.956  0.3210  0.0056 -0.0546
  566BOLB   C4B13572  21.577   9.080  22.226  0.2811 -0.3351 -0.1355
  566BOLB   NC213573  22.509   7.694  24.240 -0.4012 -0.5295  0.0996
  566BOLB   PO213574  22.381   8.108  24.273  0.2608 -0.0428  0.1623
  566BOLB   GL313575  22.107   8.359  23.888  0.1517 -0.0517  0.0905
  566BOLB   GL413576  22.343   8.575  23.821  0.2044  0.0782 -0.2536
  566BOLB   C1C13577  21.795   8.599  23.681 -0.0898  0.3039 -0.0738
  566BOLB   C2C13578  21.438   8.813  23.441 -0.0964 -0.1484  0.0621
  566BOLB   C3C13579  21.210   8.921  22.973  0.0509  0.0593  0.0173
  566BOLB   C4C13580  21.058   9.219  22.827 -0.0837 -0.1377 -0.0619
  566BOLB   C1D13581  22.117   8.908  23.964 -0.0096  0.3554  0.0960
  566BOLB   C2D13582  21.696   8.765  24.115 -0.2530 -0.1411 -0.0566
  566BOLB   C3D13583  21.265   8.780  24.074  0.1947 -0.3223  0.0742
  566BOLB   C4D13584  20.821   8.956  24.250  0.3073 -0.1429  0.0436
  567BOLB   NC113585  21.183  12.578  22.433 -0.3380  0.1644  0.1188
  567BOLB   PO113586  20.776  12.231  22.443  0.0035  0.0374 -0.1901
  567BOLB   GL113587  20.970  12.332  22.811  0.0687  0.1272 -0.0188
  567BOLB   GL213588  21.166  12.667  22.912  0.0993  0.1590  0.0220
  567BOLB   C1A13589  21.310  12.303  23.266  0.1268 -0.4017  0.2263
  567BOLB   C2A13590  21.685  12.320  23.538  0.2867 -0.0612  0.1607
  567BOLB   C3A13591  22.157  12.292  23.661 -0.3419  0.2115  0.4452
  567BOLB   C4A13592  22.449  11.947  23.882  0.1071  0.0197  0.2072
  567BOLB   C1B13593  21.464  12.850  23.211  0.0905 -0.0952 -0.0787
  567BOLB   C2B13594  21.777  12.819  23.483  0.0579 -0.1141  0.0039
  567BOLB   C3B13595  22.051  12.808  23.839 -0.0111 -0.0328 -0.0446
  567BOLB   C4B13596  22.263  12.959  24.161 -0.0729 -0.1432 -0.0274
  567BOLB   NC213597  23.712  10.390  24.830 -0.2250 -0.0206 -0.0999
  567BOLB   PO213598  23.803  10.815  25.210 -0.2053  0.1508 -0.0427
  567BOLB   GL313599  23.490  11.000  24.903 -0.0977 -0.1642 -0.0509
  567BOLB   GL413600  23.194  11.104  25.012 -0.0876 -0.3329  0.3086
  567BOLB   C1C13601  23.554  11.025  24.460  0.0336  0.0305  0.0559
  567BOLB   C2C13602  23.332  11.184  24.083 -0.0522  0.0045 -0.0096
  567BOLB   C3C13603  23.175  11.583  24.078  0.2739  0.0170 -0.1372
  567BOLB   C4C13604  22.886  11.910  23.902 -0.1366 -0.2493 -0.0444
  567BOLB   C1D13605  23.188  11.359  24.607  0.2827 -0.3184  0.0085
  567BOLB   C2D13606  23.439  11.697  24.450  0.1709 -0.0987 -0.0070
  567BOLB   C3D13607  23.319  12.059  24.112 -0.1514 -0.0155  0.1462
  567BOLB   C4D13608  23.034  12.370  24.267  0.0043 -0.0210 -0.1874
  568BOLB   NC113609   9.530  20.680  24.039  0.3746 -0.0570  0.0556
  568BOLB   PO113610   9.924  20.903  24.071  0.3717 -0.0195  0.1303
  568BOLB   GL113611  10.258  20.885  24.455  0.0359  0.1012  0.0074
  568BOLB   GL213612  10.508  21.165  24.495  0.3341  0.0188  0.0449
  568BOLB   C1A13613  10.216  20.855  24.847  0.2865 -0.1105  0.1527
  568BOLB   C2A13614  10.231  20.826  25.242 -0.2066  0.0763 -0.1020
  568BOLB   C3A13615  10.627  20.841  25.412 -0.0163 -0.3118 -0.5276
  568BOLB   C4A13616  10.733  20.864  25.859  0.0141  0.0880  0.1699
  568BOLB   C1B13617  10.382  21.370  24.817 -0.2471 -0.0369  0.0128
  568BOLB   C2B13618  10.190  21.308  25.182 -0.0182 -0.2172  0.1404
  568BOLB   C3B13619  10.139  21.089  25.696  0.1970 -0.0895  0.0204
  568BOLB   C4B13620  10.302  21.096  26.021  0.0064  0.0067  0.1962
  568BOLB   NC213621   9.176  20.564  28.089 -0.0288 -0.1139  0.2635
  568BOLB   PO213622   9.607  20.664  28.056  0.0691  0.0071 -0.0408
  568BOLB   GL313623   9.986  20.784  27.704  0.0669  0.0427 -0.1933
  568BOLB   GL413624   9.878  21.105  27.665  0.2333  0.1087 -0.1915
  568BOLB   C1C13625   9.974  20.766  27.251 -0.1252  0.1691  0.2353
  568BOLB   C2C13626  10.389  20.638  26.946 -0.1078 -0.1395  0.0817
  568BOLB   C3C13627  10.723  20.648  26.619 -0.0662 -0.2629  0.3275
  568BOLB   C4C13628  10.637  20.646  26.214 -0.0500 -0.0572 -0.2538
  568BOLB   C1D13629  10.197  21.237  27.513 -0.3571  0.0018 -0.1652
  568BOLB   C2D13630  10.529  21.005  27.461 -0.1084  0.1830  0.1308
  568BOLB   C3D13631  10.811  20.893  27.160 -0.0213  0.0925 -0.1419
  568BOLB   C4D13632  11.051  20.518  26.950 -0.0574  0.0652  0.0419
  569BOLB   NC113633  17.734  11.201  22.881 -0.0987 -0.2357 -0.1474
  569BOLB   PO113634  18.290  11.400  22.870  0.0795 -0.0788 -0.0917
  569BOLB   GL113635  18.288  11.102  23.206  0.1993  0.0694  0.1291
  569BOLB   GL213636  18.061  10.878  23.085  0.1522  0.1579 -0.1792
  569BOLB   C1A13637  18.487  10.997  23.528 -0.3467 -0.0042 -0.3644
  569BOLB   C2A13638  18.479  11.142  23.992  0.3433  0.1404 -0.0713
  569BOLB   C3A13639  18.506  11.126  24.411  0.2908 -0.0928 -0.0714
  569BOLB   C4A13640  18.576  11.109  24.904  0.1547 -0.1056 -0.2252
  569BOLB   C1B13641  18.118  10.615  23.518  0.4385  0.2544  0.0870
  569BOLB   C2B13642  18.210  10.682  23.875 -0.0508  0.1617  0.3508
  569BOLB   C3B13643  18.251  10.597  24.314  0.0380  0.3060  0.0303
  569BOLB   C4B13644  18.263  10.664  24.791  0.3130 -0.2446  0.2537
  569BOLB   NC213645  19.135   9.676  26.667 -0.1099 -0.0411 -0.0658
  569BOLB   PO213646  19.101   9.225  26.555 -0.0103  0.0898  0.3243
  569BOLB   GL313647  18.997   9.472  26.174  0.1141 -0.0448 -0.3785
  569BOLB   GL413648  19.138   9.475  25.948 -0.1075  0.1902 -0.2557
  569BOLB   C1C13649  18.883   9.946  26.096  0.1786  0.1376 -0.0338
  569BOLB   C2C13650  18.844  10.344  25.834  0.1389 -0.2512  0.1261
  569BOLB   C3C13651  18.657  10.627  25.554  0.2133  0.1614 -0.1298
  569BOLB   C4C13652  18.554  10.828  25.206 -0.0980 -0.1223 -0.1265
  569BOLB   C1D13653  19.366   9.638  25.553  0.1718 -0.1882  0.2497
  569BOLB   C2D13654  19.085   9.630  25.185 -0.0117  0.3380  0.0052
  569BOLB   C3D13655  18.706   9.800  25.018  0.2829  0.2766  0.1874
  569BOLB   C4D13656  18.273   9.775  24.686 -0.2650 -0.0498  0.0286
  570BOLB   NC113657  10.258  14.613  23.486  0.3952  0.2392 -0.1273
  570BOLB   PO113658  10.363  14.530  23.945  0.1888 -0.1307 -0.0415
  570BOLB   GL113659   9.932  14.454  24.291  0.3177  0.1331  0.0617
  570BOLB   GL213660  10.123  14.176  24.393 -0.1184 -0.3930 -0.1762
  570BOLB   C1A13661   9.693  14.436  24.683  0.0454  0.0762 -0.1292
  570BOLB   C2A13662   9.443  14.299  25.103  0.0294  0.0139 -0.0208
  570BOLB   C3A13663   9.351  14.182  25.473 -0.1338  0.2816 -0.0197
  570BOLB   C4A13664   9.178  14.207  25.917  0.0274  0.0824  0.3236
  570BOLB   C1B13665  10.178  13.919  24.805 -0.1047 -0.2939 -0.0159
  570BOLB   C2B13666  10.546  14.029  25.164 -0.1230  0.4040  0.5252
  570BOLB   C3B13667  10.719  13.863  25.492  0.0656  0.1439 -0.0215
  570BOLB   C4B13668  10.917  13.513  25.527  0.0554  0.2951 -0.1475
  570BOLB   NC213669   8.420  14.941  28.026 -0.3023  0.0513 -0.1020
  570BOLB   PO213670   8.724  14.644  28.129 -0.1731  0.2009 -0.0587
  570BOLB   GL313671   8.845  14.538  27.778 -0.1994  0.2653 -0.2197
  570BOLB   GL413672   8.595  14.722  27.554  0.2901  0.1105  0.3032
  570BOLB   C1C13673   9.100  14.312  27.468 -0.0929  0.4736 -0.2986
  570BOLB   C2C13674   9.266  14.274  27.155 -0.1706 -0.0086  0.0801
  570BOLB   C3C13675   9.186  14.094  26.728  0.0535  0.2938  0.1894
  570BOLB   C4C13676   8.989  14.112  26.343  0.4370  0.0005 -0.2214
  570BOLB   C1D13677   8.948  15.000  27.536 -0.4707  0.2400  0.0315
  570BOLB   C2D13678   9.330  14.775  27.371  0.0420  0.1689 -0.0601
  570BOLB   C3D13679   9.581  14.816  27.026 -0.2179 -0.2044 -0.1266
  570BOLB   C4D13680   9.705  14.688  26.661 -0.0068  0.2308  0.0751
  571BOLB   NC113681  18.333  17.706  23.738 -0.4028  0.0810  0.0566
  571BOLB   PO113682  18.754  17.829  23.751  0.2795 -0.2420 -0.2672
  571BOLB   GL113683  19.045  17.835  24.087 -0.1039 -0.1086 -0.2074
  571BOLB   GL213684  18.807  17.818  24.291  0.2573  0.0783  0.1337
  571BOLB   C1A13685  19.378  18.057  24.323 -0.2154  0.2145  0.1669
  571BOLB   C2A13686  19.400  18.342  24.669 -0.0401 -0.0467  0.1584
  571BOLB   C3A13687  19.520  18.421  25.052  0.1561  0.0834 -0.2486
  571BOLB   C4A13688  19.663  18.537  25.394 -0.0656 -0.0907  0.1605
  571BOLB   C1B13689  19.077  17.907  24.651  0.3371  0.0381 -0.1886
  571BOLB   C2B13690  19.246  17.997  25.037 -0.0924  0.0910 -0.1244
  571BOLB   C3B13691  19.695  17.986  25.281 -0.3239 -0.3547  0.1125
  571BOLB   C4B13692  19.950  17.998  25.711 -0.0306  0.2850 -0.0315
  571BOLB   NC213693  19.975  17.609  27.925 -0.1351 -0.1987  0.0465
  571BOLB   PO213694  20.116  17.946  27.750  0.0196 -0.0141  0.2603
  571BOLB   GL313695  20.117  17.878  27.255  0.0478 -0.1080  0.0194
  571BOLB   GL413696  19.816  18.041  27.282  0.0852 -0.1769 -0.0158
  571BOLB   C1C13697  19.881  18.146  26.842  0.1930  0.1552  0.2214
  571BOLB   C2C13698  19.894  18.457  26.548  0.3623 -0.2343  0.1515
  571BOLB   C3C13699  19.777  18.632  26.269 -0.0779 -0.1421  0.1058
  571BOLB   C4C13700  19.691  18.493  25.847  0.0238 -0.0201 -0.0093
  571BOLB   C1D13701  19.572  17.716  26.951  0.0982  0.0226 -0.1295
  571BOLB   C2D13702  19.441  17.812  26.495 -0.0217  0.0075 -0.0293
  571BOLB   C3D13703  19.211  17.576  26.258  0.3192 -0.1500  0.0581
  571BOLB   C4D13704  19.065  17.212  26.368 -0.0298  0.3082 -0.3560
  572BOLB   NC113705  21.253  14.886  22.726  0.0079  0.0823  0.1663
  572BOLB   PO113706  21.552  14.630  22.447 -0.0849 -0.0637  0.1541
  572BOLB   GL113707  21.754  14.603  22.907 -0.2818  0.2301  0.1006
  572BOLB   GL213708  21.483  14.726  23.094  0.1513 -0.1027 -0.2495
  572BOLB   C1A13709  22.059  14.696  23.293  0.0240  0.3444  0.2533
  572BOLB   C2A13710  22.363  14.752  23.610  0.1301  0.4513  0.0821
  572BOLB   C3A13711  22.400  14.702  24.037 -0.2914  0.4779 -0.1016
  572BOLB   C4A13712  22.617  14.335  24.258 -0.2838 -0.2374 -0.1398
  572BOLB   C1B13713  21.673  14.961  23.508 -0.0482 -0.0999  0.1097
  572BOLB   C2B13714  21.882  15.127  23.880  0.0070  0.1067  0.1067
  572BOLB   C3B13715  21.876  15.269  24.344 -0.0158 -0.3077 -0.2602
  572BOLB   C4B13716  21.853  15.658  24.723 -0.0388  0.1662 -0.0258
  572BOLB   NC213717  24.202  13.734  25.296  0.0128  0.3193 -0.1160
  572BOLB   PO213718  24.019  14.091  25.293  0.3288  0.3427 -0.1916
  572BOLB   GL313719  23.805  13.900  25.060 -0.0799  0.0904 -0.0334
  572BOLB   GL413720  23.759  14.228  24.791 -0.1515  0.0419  0.1547
  572BOLB   C1C13721  23.753  13.675  24.827 -0.2569  0.0129  0.2976
  572BOLB   C2C13722  23.557  13.697  24.389 -0.1798  0.3008  0.2712
  572BOLB   C3C13723  23.340  13.821  24.019  0.0323 -0.1576 -0.1586
  572BOLB   C4C13724  22.881  13.970  23.959  0.1983  0.1456  0.0675
  572BOLB   C1D13725  23.964  13.882  24.426  0.3795  0.0112 -0.1293
  572BOLB   C2D13726  24.077  13.595  24.282 -0.1780  0.1804 -0.1376
  572BOLB   C3D13727  23.897  13.290  24.024  0.1031 -0.2832 -0.1974
  572BOLB   C4D13728  23.789  12.852  23.994  0.0996  0.0323  0.0073
  573BOLB   NC113729  18.715  24.732  22.120  0.1483 -0.1370 -0.4184
  573BOLB   PO113730  18.864  24.892  21.768  0.2573  0.4190 -0.0972
  573BOLB   GL113731  19.121  25.054  22.018  0.0298  0.0996 -0.1068
  573BOLB   GL213732  19.284  25.367  22.023 -0.4131 -0.2860 -0.0792
  573BOLB   C1A13733  19.505  24.996  22.300  0.2120  0.0144 -0.2807
  573BOLB   C2A13734  19.791  25.136  22.612 -0.0846 -0.1650 -0.0022
  573BOLB   C3A13735  20.204  25.120  22.785  0.0773  0.0411 -0.0742
  573BOLB   C4A13736  20.610  25.289  22.959  0.0298 -0.1035  0.0674
  573BOLB   C1B13737  19.602  25.515  22.252  0.0925  0.0230  0.0333
  573BOLB   C2B13738  19.874  25.641  22.526 -0.0556  0.1232  0.0719
  573BOLB   C3B13739  20.309  25.652  22.547  0.0853  0.1153  0.2637
  573BOLB   C4B13740  20.727  25.588  22.424  0.1553 -0.0289  0.2045
  573BOLB   NC213741  22.161  25.427  24.548 -0.3331  0.2529 -0.2958
  573BOLB   PO213742  21.973  25.827  24.544  0.0362  0.1290  0.2455
  573BOLB   GL313743  21.565  25.912  24.305  0.0950  0.0579  0.0222
  573BOLB   GL413744  21.550  25.635  23.929  0.0657 -0.0066 -0.0965
  573BOLB   C1C13745  21.195  26.004  23.999 -0.0333 -0.2122 -0.0459
  573BOLB   C2C13746  20.986  25.900  23.589  0.0825  0.0479 -0.2641
  573BOLB   C3C13747  20.915  25.944  23.185  0.3268  0.0417  0.0418
  573BOLB   C4C13748  20.855  25.583  23.006 -0.1303 -0.0579  0.2043
  573BOLB   C1D13749  21.275  25.491  23.539 -0.0574  0.2855  0.0743
  573BOLB   C2D13750  20.828  25.289  23.485 -0.0509  0.1405 -0.0520
  573BOLB   C3D13751  20.608  24.948  23.395  0.1541 -0.1743 -0.3008
  573BOLB   C4D13752  20.311  24.874  23.178  0.0419  0.0202  0.0145
  574BOLB   NC113753  14.675  15.245  24.335 -0.0524  0.0312 -0.2856
  574BOLB   PO113754  15.101  15.300  24.302 -0.2171 -0.1361  0.0187
  574BOLB   GL113755  15.136  15.382  24.681  0.3135 -0.4525 -0.2724
  574BOLB   GL213756  15.117  15.625  24.838 -0.0021 -0.0392 -0.1016
  574BOLB   C1A13757  15.095  15.142  25.208 -0.0536 -0.0843  0.1079
  574BOLB   C2A13758  15.237  15.280  25.553  0.0630 -0.2886 -0.2525
  574BOLB   C3A13759  15.190  15.477  25.870 -0.1569 -0.1146 -0.0770
  574BOLB   C4A13760  15.172  15.592  26.282 -0.0441  0.0386 -0.2443
  574BOLB   C1B13761  15.418  15.556  25.076  0.1359  0.2847 -0.0255
  574BOLB   C2B13762  15.461  15.770  25.462  0.2100 -0.2810 -0.2802
  574BOLB   C3B13763  15.661  15.630  25.692 -0.3802 -0.0331 -0.3358
  574BOLB   C4B13764  15.716  15.694  26.182 -0.0014 -0.4839 -0.1019
  574BOLB   NC213765  14.746  15.421  29.042  0.0512  0.1858 -0.1709
  574BOLB   PO213766  14.869  15.324  28.512 -0.1154  0.1367  0.0803
  574BOLB   GL313767  14.982  15.662  28.271  0.2473  0.2481  0.1170
  574BOLB   GL413768  14.832  15.567  27.989 -0.3042 -0.0358  0.0829
  574BOLB   C1C13769  15.213  15.901  27.859  0.0021  0.0031  0.0189
  574BOLB   C2C13770  15.339  15.879  27.409 -0.0129 -0.2331  0.3074
  574BOLB   C3C13771  15.518  15.783  27.020 -0.2829 -0.0948 -0.0761
  574BOLB   C4C13772  15.445  15.799  26.590 -0.0398  0.0131  0.0314
  574BOLB   C1D13773  14.844  15.736  27.541 -0.0874 -0.0852  0.2580
  574BOLB   C2D13774  14.744  15.744  27.197  0.1541 -0.4115  0.0180
  574BOLB   C3D13775  14.481  15.901  26.910  0.3067  0.0822  0.2629
  574BOLB   C4D13776  14.493  16.168  26.611  0.0872 -0.0105 -0.0085
  575BOLB   NC113777  17.213  19.180  23.698  0.1695  0.1307  0.1220
  575BOLB   PO113778  17.028  18.743  24.047 -0.2774 -0.1927 -0.0096
  575BOLB   GL113779  16.898  18.651  24.495 -0.0779 -0.0263  0.3321
  575BOLB   GL213780  16.766  18.865  24.681  0.2984  0.1784 -0.1207
  575BOLB   C1A13781  17.112  18.562  24.949  0.2412  0.2212 -0.1512
  575BOLB   C2A13782  17.190  18.508  25.412  0.1358 -0.2179  0.0705
  575BOLB   C3A13783  17.332  18.527  25.839  0.0079  0.3221 -0.0506
  575BOLB   C4A13784  17.339  18.593  26.262 -0.3044  0.1474  0.3316
  575BOLB   C1B13785  16.582  18.632  25.058 -0.0327  0.1075 -0.0982
  575BOLB   C2B13786  16.739  18.716  25.403 -0.0146 -0.1380  0.2217
  575BOLB   C3B13787  16.915  18.854  25.752 -0.3218  0.1687  0.0859
  575BOLB   C4B13788  17.251  18.997  25.882  0.3320 -0.0632  0.0432
  575BOLB   NC213789  19.114  18.657  28.081  0.0744 -0.0676  0.3521
  575BOLB   PO213790  18.732  18.819  28.293 -0.2175 -0.1482 -0.1613
  575BOLB   GL313791  18.556  18.858  27.987 -0.0409 -0.0051  0.1981
  575BOLB   GL413792  18.815  18.865  27.758  0.2379  0.0835 -0.1522
  575BOLB   C1C13793  18.372  18.619  27.642 -0.0035  0.0782 -0.1784
  575BOLB   C2C13794  17.927  18.707  27.457 -0.1112 -0.1475  0.1070
  575BOLB   C3C13795  17.511  18.718  27.114 -0.2083 -0.0772  0.0797
  575BOLB   C4C13796  17.319  18.767  26.661 -0.0390  0.0408  0.0018
  575BOLB   C1D13797  18.529  19.029  27.472  0.2530 -0.2192  0.0320
  575BOLB   C2D13798  18.101  19.196  27.214  0.0305 -0.0985 -0.2411
  575BOLB   C3D13799  17.912  19.542  27.158  0.1377  0.0372  0.0980
  575BOLB   C4D13800  17.488  19.593  27.404  0.1857  0.2315 -0.1504
  576BOLB   NC113801  17.011  23.789  23.175 -0.0132 -0.1906 -0.3533
  576BOLB   PO113802  17.419  23.784  23.104 -0.1549 -0.1777 -0.0244
  576BOLB   GL113803  17.537  23.767  23.473 -0.2185 -0.0257  0.5086
  576BOLB   GL213804  17.498  24.143  23.572  0.0027 -0.0494  0.2193
  576BOLB   C1A13805  17.775  23.847  23.798 -0.3145 -0.0768 -0.3507
  576BOLB   C2A13806  17.976  24.080  24.139 -0.0345 -0.3535  0.1753
  576BOLB   C3A13807  18.110  24.142  24.556  0.1436  0.1951 -0.0027
  576BOLB   C4A13808  18.352  23.982  24.836 -0.2444 -0.0683 -0.1137
  576BOLB   C1B13809  17.461  24.119  23.965 -0.0694  0.2142  0.0173
  576BOLB   C2B13810  17.603  24.351  24.388 -0.0563 -0.1423  0.3139
  576BOLB   C3B13811  17.947  24.634  24.664  0.3151  0.1329  0.0659
  576BOLB   C4B13812  18.251  24.871  24.846 -0.0939 -0.1817 -0.0915
  576BOLB   NC213813  19.075  23.621  27.677 -0.4374  0.3138 -0.2436
  576BOLB   PO213814  19.073  23.930  27.264 -0.1748 -0.1378  0.4421
  576BOLB   GL313815  19.000  24.175  26.859  0.1677 -0.0429 -0.0895
  576BOLB   GL413816  19.112  23.885  26.610 -0.0626 -0.1007  0.1670
  576BOLB   C1C13817  18.749  24.240  26.421 -0.2078  0.1483 -0.1060
  576BOLB   C2C13818  18.841  24.071  25.941  0.0967 -0.0339  0.3252
  576BOLB   C3C13819  18.460  24.103  25.711  0.1503 -0.2755 -0.0541
  576BOLB   C4C13820  18.433  24.041  25.287 -0.2054 -0.3515 -0.3785
  576BOLB   C1D13821  18.970  23.673  26.160  0.2921  0.3529 -0.0191
  576BOLB   C2D13822  18.984  23.649  25.701  0.1558 -0.4585  0.0996
  576BOLB   C3D13823  18.675  23.604  25.381 -0.0695  0.3072  0.0681
  576BOLB   C4D13824  18.444  23.518  25.095  0.1625  0.2823 -0.1804
  577BOLB   NC113825  19.342  14.351  23.894  0.0459  0.0740  0.0986
  577BOLB   PO113826  19.608  14.062  23.617 -0.0187 -0.0710 -0.0782
  577BOLB   GL113827  19.807  13.929  23.894  0.4238  0.2242 -0.0688
  577BOLB   GL213828  19.662  14.009  24.132  0.0324  0.2044  0.0469
  577BOLB   C1A13829  20.248  13.785  24.143  0.1171  0.3161  0.0260
  577BOLB   C2A13830  20.350  13.602  24.490 -0.0144  0.1866 -0.1381
  577BOLB   C3A13831  20.493  13.912  24.847 -0.2280  0.1521  0.1705
  577BOLB   C4A13832  20.751  13.716  25.100  0.1304  0.1112  0.0450
  577BOLB   C1B13833  19.828  13.641  24.457 -0.0282 -0.1529 -0.3269
  577BOLB   C2B13834  20.018  13.459  24.811 -0.1335 -0.3312  0.0000
  577BOLB   C3B13835  20.115  13.226  25.193 -0.3351 -0.2164  0.1467
  577BOLB   C4B13836  20.077  12.939  25.500 -0.0598  0.2994  0.0989
  577BOLB   NC213837  21.411  12.876  27.148 -0.1930 -0.0744 -0.1194
  577BOLB   PO213838  21.125  13.319  27.102  0.3294 -0.1062  0.0316
  577BOLB   GL313839  20.723  13.493  26.882 -0.1902 -0.0988 -0.2135
  577BOLB   GL413840  20.553  13.811  26.998 -0.2358  0.4442 -0.2879
  577BOLB   C1C13841  20.849  13.624  26.515  0.0630 -0.2129 -0.1683
  577BOLB   C2C13842  21.074  13.608  26.186 -0.1800 -0.0673  0.0353
  577BOLB   C3C13843  21.111  13.594  25.767  0.4736 -0.3477  0.1906
  577BOLB   C4C13844  21.109  13.584  25.377 -0.0448 -0.0055  0.0918
  577BOLB   C1D13845  20.335  13.620  26.581 -0.0666 -0.0107 -0.0987
  577BOLB   C2D13846  20.154  13.363  26.289 -0.1241 -0.1371 -0.0307
  577BOLB   C3D13847  20.086  13.081  26.005 -0.0421 -0.1076  0.3298
  577BOLB   C4D13848  19.800  12.712  25.900 -0.3036 -0.3294  0.0283
  578BOLB   NC113849  19.088  17.377  24.225  0.1352  0.0638  0.2984
  578BOLB   PO113850  18.567  17.321  24.403  0.1084  0.2908 -0.1536
  578BOLB   GL113851  18.332  17.315  24.793 -0.2526  0.0535  0.0936
  578BOLB   GL213852  18.053  17.353  24.715  0.1448 -0.1908 -0.3385
  578BOLB   C1A13853  18.380  17.518  25.195 -0.3677 -0.2228 -0.2068
  578BOLB   C2A13854  18.202  17.814  25.594 -0.0080 -0.3517 -0.1539
  578BOLB   C3A13855  18.465  17.975  25.956  0.1132 -0.4135  0.2323
  578BOLB   C4A13856  18.687  18.098  26.263 -0.4674 -0.1485 -0.0323
  578BOLB   C1B13857  17.894  17.246  25.169 -0.2356 -0.0987 -0.2655
  578BOLB   C2B13858  17.911  17.072  25.579  0.1095  0.1174 -0.5033
  578BOLB   C3B13859  17.659  16.780  25.821 -0.2941  0.0751 -0.1821
  578BOLB   C4B13860  17.749  16.592  26.233  0.1129 -0.0432  0.0179
  578BOLB   NC213861  19.540  17.487  28.646 -0.2929 -0.0757 -0.3549
  578BOLB   PO213862  19.072  17.276  28.421 -0.0449 -0.2226 -0.2063
  578BOLB   GL313863  18.796  17.344  27.986 -0.3000  0.2660 -0.3080
  578BOLB   GL413864  19.039  17.486  27.801 -0.4010 -0.4539  0.0070
  578BOLB   C1C13865  18.596  17.486  27.585  0.0478  0.1750  0.2124
  578BOLB   C2C13866  18.622  17.596  27.153  0.1181  0.2877 -0.0752
  578BOLB   C3C13867  18.973  17.878  27.007  0.0526 -0.0136  0.0981
  578BOLB   C4C13868  18.935  18.029  26.592  0.0581 -0.1938 -0.0444
  578BOLB   C1D13869  19.098  17.620  27.462 -0.0798 -0.0212  0.0083
  578BOLB   C2D13870  19.336  18.048  27.286 -0.0282 -0.1130 -0.2742
  578BOLB   C3D13871  19.335  18.144  26.865  0.3395 -0.0144 -0.1081
  578BOLB   C4D13872  19.329  18.440  26.575 -0.0410  0.1049 -0.1077
  579BOLB   NC113873  12.258  22.872  23.993 -0.2585 -0.0259  0.3447
  579BOLB   PO113874  12.027  23.171  23.752 -0.0624 -0.2263  0.0619
  579BOLB   GL113875  11.795  23.411  24.053 -0.4884 -0.0083  0.1706
  579BOLB   GL213876  11.840  23.740  24.042  0.1342 -0.0159 -0.0396
  579BOLB   C1A13877  11.592  23.384  24.494 -0.0771  0.0088  0.4079
  579BOLB   C2A13878  11.510  23.192  24.919  0.1284 -0.1176 -0.1442
  579BOLB   C3A13879  11.471  23.422  25.241 -0.3138  0.1757 -0.0246
  579BOLB   C4A13880  11.515  23.499  25.692 -0.0322 -0.0494 -0.1949
  579BOLB   C1B13881  12.079  23.910  24.415 -0.0337 -0.2825 -0.2666
  579BOLB   C2B13882  12.324  23.964  24.698 -0.1109 -0.0436 -0.2793
  579BOLB   C3B13883  12.245  23.952  25.146 -0.0195 -0.0879 -0.0011
  579BOLB   C4B13884  12.230  23.952  25.520 -0.1600  0.0923  0.0714
  579BOLB   NC213885  11.458  25.754  27.070 -0.1162  0.3280  0.0587
  579BOLB   PO213886  11.640  25.455  27.375  0.1906 -0.0341  0.1759
  579BOLB   GL313887  11.827  25.274  26.947 -0.0533  0.0292  0.0295
  579BOLB   GL413888  11.868  25.547  26.774  0.1288  0.2278 -0.0194
  579BOLB   C1C13889  11.802  24.790  26.779  0.1550 -0.2962  0.1587
  579BOLB   C2C13890  11.825  24.316  26.609  0.4032 -0.2193 -0.0398
  579BOLB   C3C13891  11.949  23.933  26.228 -0.0270 -0.0683  0.0402
  579BOLB   C4C13892  11.868  23.786  25.864 -0.0993 -0.1409 -0.0352
  579BOLB   C1D13893  11.691  25.441  26.300  0.2170 -0.0833 -0.2526
  579BOLB   C2D13894  11.698  25.258  25.920  0.0934  0.1022 -0.0243
  579BOLB   C3D13895  11.480  25.132  25.487  0.3874 -0.1482 -0.0232
  579BOLB   C4D13896  11.420  24.762  25.228 -0.0182 -0.2086  0.0097
  580BOLB   NC113897  11.101  22.272  24.004 -0.2063  0.0690 -0.0432
  580BOLB   PO113898  10.858  21.976  24.154  0.1973  0.2156 -0.3029
  580BOLB   GL113899  10.732  22.105  24.440 -0.1248 -0.1612  0.0570
  580BOLB   GL213900  10.519  21.823  24.630  0.1902  0.2048  0.1690
  580BOLB   C1A13901  10.717  22.172  24.921 -0.0443  0.0554  0.2445
  580BOLB   C2A13902  10.905  22.216  25.275  0.1437 -0.0180  0.1367
  580BOLB   C3A13903  10.692  22.318  25.677  0.2342 -0.1344  0.3185
  580BOLB   C4A13904  10.473  22.453  26.073 -0.0075  0.1401 -0.0291
  580BOLB   C1B13905  10.453  21.792  25.101 -0.0443  0.2561 -0.2154
  580BOLB   C2B13906  10.518  21.856  25.529 -0.0994 -0.0415 -0.0297
  580BOLB   C3B13907  10.553  21.889  25.983 -0.0878 -0.1043  0.1067
  580BOLB   C4B13908  10.729  22.091  26.286 -0.0352  0.0574 -0.0716
  580BOLB   NC213909  10.428  23.899  28.535 -0.2597  0.2657 -0.2420
  580BOLB   PO213910  10.507  23.811  27.980 -0.1458 -0.2477  0.0024
  580BOLB   GL313911  10.538  23.626  27.561 -0.2895 -0.5000  0.1551
  580BOLB   GL413912  10.811  23.770  27.377 -0.2310 -0.0647 -0.1131
  580BOLB   C1C13913  10.575  23.172  27.448 -0.1672 -0.2161 -0.0238
  580BOLB   C2C13914  10.234  22.974  27.114 -0.2069  0.1398  0.0809
  580BOLB   C3C13915  10.233  22.674  26.744  0.0351  0.1286  0.0531
  580BOLB   C4C13916  10.300  22.450  26.416  0.1171  0.0748  0.0964
  580BOLB   C1D13917  10.834  24.006  26.974 -0.1816  0.0418  0.0119
  580BOLB   C2D13918  11.008  24.288  26.655 -0.3951 -0.2582  0.0764
  580BOLB   C3D13919  11.307  24.394  26.436 -0.3613 -0.0546 -0.4548
  580BOLB   C4D13920  11.626  24.426  26.154  0.1729 -0.2777  0.1883
  581BOLB   NC113921  18.781  16.903  24.149 -0.0617 -0.1532 -0.0394
  581BOLB   PO113922  18.831  16.503  24.065 -0.1551  0.2663 -0.1284
  581BOLB   GL113923  18.994  16.327  24.289  0.0535 -0.0079 -0.2425
  581BOLB   GL213924  19.048  16.536  24.595  0.1145 -0.2106  0.0396
  581BOLB   C1A13925  19.135  15.996  24.610 -0.0421  0.0268  0.3698
  581BOLB   C2A13926  19.187  15.849  24.966  0.0662  0.0093 -0.0787
  581BOLB   C3A13927  19.457  15.664  25.315 -0.1456 -0.3936  0.2765
  581BOLB   C4A13928  19.627  15.816  25.734 -0.3247  0.1156 -0.1482
  581BOLB   C1B13929  19.101  16.448  24.961 -0.0003  0.1371 -0.1993
  581BOLB   C2B13930  19.119  16.609  25.345  0.0029 -0.2552  0.0187
  581BOLB   C3B13931  18.961  16.439  25.751  0.2549 -0.1893 -0.0712
  581BOLB   C4B13932  18.733  16.113  25.856  0.1355 -0.4602 -0.0404
  581BOLB   NC213933  21.866  15.855  27.028  0.2755  0.0980  0.2559
  581BOLB   PO213934  21.542  15.662  27.354 -0.0537 -0.0570 -0.1207
  581BOLB   GL313935  21.353  15.963  26.986 -0.2380  0.2282  0.3311
  581BOLB   GL413936  21.534  15.959  26.657  0.2030  0.0567  0.0473
  581BOLB   C1C13937  21.045  15.833  26.771 -0.0692  0.1213  0.1021
  581BOLB   C2C13938  20.715  15.856  26.430  0.0792 -0.1665  0.4217
  581BOLB   C3C13939  20.311  16.039  26.272  0.0469 -0.1615 -0.1273
  581BOLB   C4C13940  19.885  16.101  26.043  0.0623 -0.0580 -0.1857
  581BOLB   C1D13941  21.826  15.955  26.384 -0.0870 -0.5494  0.0016
  581BOLB   C2D13942  22.143  15.940  25.955 -0.0255 -0.1583  0.1712
  581BOLB   C3D13943  22.034  16.069  25.555 -0.5124 -0.1685 -0.1931
  581BOLB   C4D13944  21.980  16.072  25.079 -0.0885  0.0447  0.2587
  582BOLB   NC113945   8.923  21.883  23.833 -0.0204  0.0041 -0.1313
  582BOLB   PO113946   8.958  21.428  23.724 -0.2208  0.1538 -0.2230
  582BOLB   GL113947   8.923  21.338  24.164 -0.4375 -0.0434  0.1749
  582BOLB   GL213948   9.113  21.318  24.455  0.0110  0.3631  0.2209
  582BOLB   C1A13949   8.594  21.501  24.350 -0.4785  0.0837 -0.2786
  582BOLB   C2A13950   8.613  21.942  24.491  0.1315  0.0926 -0.0828
  582BOLB   C3A13951   8.718  22.117  24.755 -0.1813  0.1891 -0.0061
  582BOLB   C4A13952   8.605  22.199  25.186 -0.1100  0.2661  0.0606
  582BOLB   C1B13953   8.923  21.196  24.763  0.0680 -0.2620  0.0481
  582BOLB   C2B13954   8.761  21.127  25.164  0.0577  0.1984 -0.1823
  582BOLB   C3B13955   8.785  21.088  25.596 -0.3098  0.1707 -0.2422
  582BOLB   C4B13956   8.626  21.335  25.765  0.1725 -0.0894 -0.1841
  582BOLB   NC213957   6.610  22.031  27.050  0.1585 -0.1952  0.1210
  582BOLB   PO213958   6.984  21.784  27.145 -0.0232  0.0307  0.3178
  582BOLB   GL313959   7.344  21.677  26.949  0.0810 -0.0018  0.0880
  582BOLB   GL413960   7.619  21.819  27.162  0.3622  0.1370 -0.3056
  582BOLB   C1C13961   7.642  21.794  26.621 -0.2447  0.1071  0.3101
  582BOLB   C2C13962   8.021  21.963  26.235 -0.1430 -0.1225 -0.0338
  582BOLB   C3C13963   8.362  22.061  26.024 -0.0057 -0.0833  0.2622
  582BOLB   C4C13964   8.581  22.154  25.622  0.0638  0.1218 -0.1052
  582BOLB   C1D13965   7.755  22.100  27.006 -0.2983 -0.0550 -0.2884
  582BOLB   C2D13966   7.927  22.241  26.685  0.1549  0.1168  0.2526
  582BOLB   C3D13967   8.327  22.366  26.445  0.0403  0.2051 -0.0485
  582BOLB   C4D13968   8.603  22.612  26.111  0.0041 -0.2655  0.1353
  583BOLB   NC113969  11.867  18.789  24.295 -0.2689 -0.2300 -0.2203
  583BOLB   PO113970  12.119  18.971  24.015 -0.1964 -0.3085  0.0657
  583BOLB   GL113971  12.172  19.114  24.534  0.0419  0.1074  0.2051
  583BOLB   GL213972  12.449  19.078  24.780 -0.1799  0.2909  0.4964
  583BOLB   C1A13973  11.934  19.194  24.989 -0.1409 -0.1286  0.1495
  583BOLB   C2A13974  11.702  19.210  25.400 -0.1809  0.0401 -0.0663
  583BOLB   C3A13975  11.769  19.153  25.848  0.1518 -0.0662  0.0279
  583BOLB   C4A13976  11.711  19.123  26.276  0.1727 -0.4048 -0.1228
  583BOLB   C1B13977  12.327  19.041  25.182 -0.1965 -0.1224  0.1065
  583BOLB   C2B13978  12.138  18.922  25.526 -0.1594 -0.0588 -0.2319
  583BOLB   C3B13979  12.208  18.905  25.892  0.2987 -0.3936  0.0010
  583BOLB   C4B13980  12.201  18.571  26.181 -0.2889 -0.0261  0.1345
  583BOLB   NC213981  10.949  18.954  28.527 -0.4320  0.3163 -0.1334
  583BOLB   PO213982  11.328  19.097  28.599  0.0409  0.0172 -0.0335
  583BOLB   GL313983  11.565  19.144  28.286 -0.0588 -0.1030 -0.0756
  583BOLB   GL413984  11.632  19.358  28.212  0.2650 -0.3911 -0.0482
  583BOLB   C1C13985  11.462  19.106  27.808 -0.0454 -0.0208  0.1747
  583BOLB   C2C13986  11.594  19.319  27.465  0.0942  0.1579 -0.1303
  583BOLB   C3C13987  11.842  19.314  27.056  0.1829 -0.0796  0.2075
  583BOLB   C4C13988  11.646  19.069  26.714  0.2860  0.0420 -0.0645
  583BOLB   C1D13989  11.441  19.609  27.918 -0.1061  0.2131  0.3391
  583BOLB   C2D13990  11.718  19.803  27.589 -0.2469 -0.0471 -0.0583
  583BOLB   C3D13991  11.749  19.758  27.205 -0.3095 -0.1927  0.1989
  583BOLB   C4D13992  11.980  19.759  26.855 -0.0594  0.1019 -0.1346
  584BOLB   NC113993  19.104  25.253  21.582 -0.1702  0.2464  0.1844
  584BOLB   PO113994  19.491  25.038  21.651 -0.1992 -0.6123  0.1665
  584BOLB   GL113995  19.857  25.043  21.958  0.5328  0.2176  0.0628
  584BOLB   GL213996  19.976  25.320  21.890  0.2220 -0.1149 -0.0990
  584BOLB   C1A13997  20.095  24.873  22.348  0.0145  0.0876  0.0935
  584BOLB   C2A13998  20.321  24.616  22.597  0.1004  0.2806 -0.2538
  584BOLB   C3A13999  20.674  24.649  22.822 -0.2955 -0.0574  0.3696
  584BOLB   C4A14000  21.011  25.009  22.989  0.1498  0.0518  0.0273
  584BOLB   C1B14001  20.341  25.310  22.156  0.2336  0.0059 -0.1409
  584BOLB   C2B14002  20.566  25.099  22.437  0.0751  0.1327 -0.1771
  584BOLB   C3B14003  21.002  25.155  22.521  0.2193 -0.1987  0.1542
  584BOLB   C4B14004  21.255  25.575  22.575 -0.0093  0.3128 -0.0960
  584BOLB   NC214005  22.930  25.982  23.682 -0.0658 -0.0953  0.2015
  584BOLB   PO214006  23.158  25.674  23.573 -0.0066 -0.0570  0.1146
  584BOLB   GL314007  22.811  25.359  23.449  0.1409 -0.0737  0.3106
  584BOLB   GL414008  22.976  25.254  23.191 -0.3824 -0.1285  0.0491
  584BOLB   C1C14009  22.568  25.016  23.422  0.1769 -0.0349 -0.1180
  584BOLB   C2C14010  22.139  25.011  23.208  0.0707 -0.2102 -0.4101
  584BOLB   C3C14011  21.691  25.262  23.244  0.1136  0.0104 -0.1285
  584BOLB   C4C14012  21.297  25.205  23.119  0.2360 -0.1879  0.4623
  584BOLB   C1D14013  22.817  25.244  22.863 -0.1754  0.2380 -0.1533
  584BOLB   C2D14014  22.498  24.990  22.748 -0.1820 -0.2344  0.0815
  584BOLB   C3D14015  22.402  24.619  22.596 -0.1028  0.1688 -0.1868
  584BOLB   C4D14016  22.331  24.688  22.088  0.0325  0.0908  0.1180
  585BOLB   NC114017  23.300  14.630  21.133  0.2713 -0.0913 -0.1503
  585BOLB   PO114018  23.274  14.219  21.051  0.0329 -0.1245 -0.3109
  585BOLB   GL114019  23.601  14.155  21.316  0.1706  0.1280 -0.1942
  585BOLB   GL214020  23.560  14.215  21.595 -0.1878 -0.2532  0.1771
  585BOLB   C1A14021  23.631  13.702  21.458  0.1433  0.1993  0.1654
  585BOLB   C2A14022  23.801  13.322  21.614  0.1931 -0.0576  0.2038
  585BOLB   C3A14023  23.719  13.017  21.797  0.0288  0.0756  0.0645
  585BOLB   C4A14024  23.924  12.724  22.140 -0.3558 -0.2143 -0.3836
  585BOLB   C1B14025  23.733  14.079  21.994 -0.2621 -0.2759 -0.0801
  585BOLB   C2B14026  23.926  13.993  22.363  0.0957  0.0076 -0.2159
  585BOLB   C3B14027  23.889  13.688  22.631 -0.0823  0.1239 -0.0420
  585BOLB   C4B14028  24.031  13.356  22.836 -0.1114 -0.0927 -0.2062
  585BOLB   NC214029  25.936  13.001  23.788 -0.0397 -0.3571 -0.3089
  585BOLB   PO214030  25.695  12.648  24.026 -0.0480  0.1009  0.0391
  585BOLB   GL314031  25.291  12.563  23.760  0.0618 -0.0989 -0.2764
  585BOLB   GL414032  25.294  12.281  23.508 -0.3182  0.0044  0.0174
  585BOLB   C1C14033  24.967  12.551  23.369 -0.2676 -0.4458  0.2084
  585BOLB   C2C14034  24.833  12.406  22.939  0.0643  0.4508 -0.1771
  585BOLB   C3C14035  24.586  12.328  22.501 -0.0815  0.0543 -0.1312
  585BOLB   C4C14036  24.176  12.470  22.375  0.3379 -0.3010  0.3626
  585BOLB   C1D14037  25.454  12.035  23.161 -0.2371  0.3915  0.3281
  585BOLB   C2D14038  25.573  11.943  22.792 -0.0020  0.1109 -0.2045
  585BOLB   C3D14039  25.571  11.964  22.387  0.0990  0.0250 -0.0657
  585BOLB   C4D14040  25.767  12.353  22.271  0.5874  0.0993 -0.1786
  586BOLB   NC114041  11.933  21.299  24.221 -0.1243  0.1467 -0.0384
  586BOLB   PO114042  11.498  21.285  24.301  0.0764 -0.2150  0.1030
  586BOLB   GL114043  11.638  21.309  24.696  0.3359 -0.0607  0.0388
  586BOLB   GL214044  11.489  21.654  24.775 -0.0015  0.0271 -0.0996
  586BOLB   C1A14045  11.710  21.196  25.174  0.0157  0.1959 -0.2306
  586BOLB   C2A14046  11.559  20.896  25.498 -0.0111  0.1294 -0.3068
  586BOLB   C3A14047  11.609  20.888  26.004 -0.0929  0.0921 -0.0571
  586BOLB   C4A14048  11.545  21.072  26.357  0.1625  0.0035 -0.2252
  586BOLB   C1B14049  11.476  21.634  25.208 -0.1486 -0.0345  0.2107
  586BOLB   C2B14050  11.631  21.443  25.644  0.2476  0.2568 -0.0235
  586BOLB   C3B14051  11.552  21.507  26.112 -0.0965  0.0640  0.0453
  586BOLB   C4B14052  11.841  21.732  26.487  0.1191  0.1927 -0.1021
  586BOLB   NC214053  12.094  21.538  28.769 -0.0596  0.1467  0.0703
  586BOLB   PO214054  12.127  21.765  28.408  0.3629  0.0873  0.1123
  586BOLB   GL314055  12.264  21.893  28.062 -0.0281 -0.0116  0.1877
  586BOLB   GL414056  12.526  21.678  27.893  0.0342 -0.1216  0.0683
  586BOLB   C1C14057  12.009  21.771  27.716  0.0748 -0.0794  0.0919
  586BOLB   C2C14058  11.658  21.612  27.490 -0.5531  0.4453 -0.0547
  586BOLB   C3C14059  11.602  21.274  27.080 -0.1095  0.0136  0.2508
  586BOLB   C4C14060  11.671  21.191  26.693  0.4073 -0.4048 -0.2134
  586BOLB   C1D14061  12.477  21.373  27.690 -0.2259  0.0330 -0.2757
  586BOLB   C2D14062  12.568  21.242  27.246 -0.0685  0.2615  0.0097
  586BOLB   C3D14063  12.715  20.960  26.959 -0.0660 -0.1481 -0.1267
  586BOLB   C4D14064  12.632  20.912  26.588 -0.1687  0.0510 -0.2958
  587BOLB   NC114065   9.531  14.997  23.782 -0.0914 -0.1065  0.0510
  587BOLB   PO114066   9.725  15.295  23.906 -0.1254 -0.1567  0.5471
  587BOLB   GL114067   9.762  15.258  24.283 -0.1735 -0.2034  0.1398
  587BOLB   GL214068   9.726  14.938  24.436 -0.3763  0.4485 -0.1098
  587BOLB   C1A14069   9.626  15.368  24.696  0.0506 -0.3157 -0.0686
  587BOLB   C2A14070   9.570  15.237  25.101  0.1036  0.0242 -0.4916
  587BOLB   C3A14071   9.434  15.218  25.480 -0.2963  0.1101 -0.0544
  587BOLB   C4A14072   9.119  15.091  25.726  0.0125  0.2846  0.0420
  587BOLB   C1B14073   9.388  14.842  24.633 -0.0796  0.1319 -0.4028
  587BOLB   C2B14074   8.993  14.762  24.688  0.1109  0.2128 -0.1855
  587BOLB   C3B14075   8.670  14.886  24.854 -0.1541  0.3474 -0.1044
  587BOLB   C4B14076   8.248  14.998  24.810 -0.0507 -0.5099 -0.1347
  587BOLB   NC214077   7.380  14.754  28.206 -0.0010 -0.1784 -0.0583
  587BOLB   PO214078   7.703  14.653  27.839 -0.2357 -0.0336  0.1482
  587BOLB   GL314079   7.759  14.842  27.318 -0.0427  0.1668  0.0817
  587BOLB   GL414080   7.483  14.761  27.127 -0.1533 -0.2797 -0.1449
  587BOLB   C1C14081   7.930  14.913  27.033  0.0575  0.2990  0.3139
  587BOLB   C2C14082   8.207  14.944  26.736  0.0338  0.1238  0.0973
  587BOLB   C3C14083   8.662  14.973  26.572 -0.3810  0.0765 -0.1098
  587BOLB   C4C14084   8.966  15.046  26.291 -0.0651 -0.1409 -0.0132
  587BOLB   C1D14085   7.524  14.598  26.765  0.1438 -0.0230  0.3309
  587BOLB   C2D14086   7.729  14.571  26.365 -0.2259 -0.1464 -0.1322
  587BOLB   C3D14087   8.034  14.267  26.162  0.2455 -0.0202  0.3659
  587BOLB   C4D14088   8.143  13.787  26.227 -0.0549 -0.1706  0.0642
  588BOLB   NC114089  12.571   9.165  22.813  0.0821  0.0003  0.1664
  588BOLB   PO114090  12.934   9.181  22.811  0.1470  0.0072 -0.0695
  588BOLB   GL114091  12.968   9.093  23.260 -0.1609  0.0681  0.1391
  588BOLB   GL214092  12.644   9.047  23.392  0.0913  0.1433 -0.0860
  588BOLB   C1A14093  13.048   8.984  23.762 -0.1564  0.0337  0.2052
  588BOLB   C2A14094  12.780   8.749  24.060  0.1050  0.0953  0.0246
  588BOLB   C3A14095  12.601   8.744  24.516 -0.2843 -0.0983 -0.1786
  588BOLB   C4A14096  12.434   8.679  24.858 -0.2347 -0.4396  0.1563
  588BOLB   C1B14097  12.407   8.967  23.757 -0.0034  0.2238  0.2878
  588BOLB   C2B14098  12.253   8.845  24.146  0.1210 -0.0671 -0.3532
  588BOLB   C3B14099  12.068   8.863  24.521  0.2260  0.1808 -0.1531
  588BOLB   C4B14100  11.931   8.734  24.933  0.0665  0.0376 -0.2352
  588BOLB   NC214101  12.222   9.774  27.337 -0.0301 -0.2874  0.0149
  588BOLB   PO214102  12.268   9.531  27.060 -0.4025 -0.1677  0.1515
  588BOLB   GL314103  12.082   9.299  26.750 -0.0177 -0.0452 -0.2237
  588BOLB   GL414104  11.727   9.183  26.757  0.1002  0.1923  0.1161
  588BOLB   C1C14105  12.110   9.143  26.321 -0.0921 -0.0848 -0.2141
  588BOLB   C2C14106  12.179   8.827  26.039  0.3028  0.0387  0.0208
  588BOLB   C3C14107  12.164   8.745  25.681  0.0786 -0.1758  0.2343
  588BOLB   C4C14108  12.239   8.584  25.274  0.2441 -0.0485 -0.1051
  588BOLB   C1D14109  11.510   9.278  26.412  0.0359 -0.1589  0.0175
  588BOLB   C2D14110  11.440   9.520  25.984 -0.2102  0.2322 -0.0324
  588BOLB   C3D14111  11.339   9.466  25.496  0.1069  0.1865 -0.2607
  588BOLB   C4D14112  11.121   9.246  25.201  0.0021 -0.0061  0.2128
  589BOLB   NC114113  12.399  12.990  24.320 -0.0300 -0.0173  0.1673
  589BOLB   PO114114  12.704  12.699  24.116  0.1800 -0.0589  0.0050
  589BOLB   GL114115  12.751  12.742  24.475 -0.2338 -0.0183  0.1338
  589BOLB   GL214116  12.926  12.457  24.556 -0.0178  0.0943  0.1822
  589BOLB   C1A14117  12.636  12.913  24.926 -0.1580 -0.1654  0.0397
  589BOLB   C2A14118  12.708  12.905  25.431  0.0759 -0.2001  0.1877
  589BOLB   C3A14119  12.800  12.905  25.854 -0.0347  0.1827 -0.2178
  589BOLB   C4A14120  12.899  12.650  26.143 -0.2578  0.0024 -0.1332
  589BOLB   C1B14121  13.019  12.526  24.931  0.1025  0.3056  0.3261
  589BOLB   C2B14122  13.187  12.269  25.317 -0.1148  0.1087 -0.0667
  589BOLB   C3B14123  13.101  11.785  25.403  0.0068 -0.0190 -0.2157
  589BOLB   C4B14124  13.359  11.484  25.639  0.0540  0.4460  0.0718
  589BOLB   NC214125  12.444  12.434  28.230  0.0650  0.2393 -0.0326
  589BOLB   PO214126  12.811  12.196  28.158  0.3091 -0.2087 -0.1383
  589BOLB   GL314127  12.702  12.083  27.717  0.1538  0.0340  0.2212
  589BOLB   GL414128  12.930  12.240  27.435  0.1558 -0.0811  0.0523
  589BOLB   C1C14129  12.775  11.688  27.406 -0.1323  0.2549 -0.0473
  589BOLB   C2C14130  12.905  11.741  26.957 -0.3280 -0.1805  0.1922
  589BOLB   C3C14131  12.936  11.949  26.613 -0.3056  0.0962 -0.1889
  589BOLB   C4C14132  12.949  12.209  26.300  0.1370  0.1153 -0.0858
  589BOLB   C1D14133  12.647  12.164  27.036  0.1293 -0.0002 -0.0189
  589BOLB   C2D14134  12.579  12.380  26.640 -0.1972  0.3382  0.2257
  589BOLB   C3D14135  12.416  12.589  26.382 -0.0647 -0.0499 -0.0592
  589BOLB   C4D14136  12.090  12.766  26.141  0.1034  0.0960 -0.2106
  590BOLB   NC114137  20.563  19.116  23.668  0.2112 -0.0733  0.0543
  590BOLB   PO114138  20.161  18.870  23.649 -0.5221 -0.0186  0.1449
  590BOLB   GL114139  20.212  18.942  24.048 -0.0457  0.0624 -0.1854
  590BOLB   GL214140  20.041  19.274  24.281  0.0451  0.0255  0.2537
  590BOLB   C1A14141  20.278  18.984  24.529  0.2143 -0.0721  0.1958
  590BOLB   C2A14142  20.554  18.859  24.834  0.2637 -0.0353  0.3937
  590BOLB   C3A14143  20.830  18.889  25.170 -0.1403  0.3288  0.1427
  590BOLB   C4A14144  21.001  18.760  25.451  0.1091 -0.0066 -0.0777
  590BOLB   C1B14145  19.798  19.184  24.642 -0.0233 -0.1317 -0.0750
  590BOLB   C2B14146  19.954  19.233  24.970 -0.0401 -0.2046  0.0379
  590BOLB   C3B14147  19.978  19.337  25.429 -0.0190  0.2959  0.1112
  590BOLB   C4B14148  20.267  19.481  25.723  0.0322 -0.0476  0.0039
  590BOLB   NC214149  22.560  18.582  27.272  0.3251  0.0883 -0.1205
  590BOLB   PO214150  22.668  18.977  27.147 -0.2853 -0.1417 -0.2241
  590BOLB   GL314151  22.255  18.933  26.846  0.1251 -0.2143  0.0011
  590BOLB   GL414152  22.498  18.867  26.631  0.0572 -0.1468 -0.2493
  590BOLB   C1C14153  21.817  18.827  26.797 -0.0905  0.0590 -0.2254
  590BOLB   C2C14154  21.444  18.840  26.490 -0.0357  0.1133  0.0064
  590BOLB   C3C14155  21.185  18.945  26.175 -0.3337  0.2957  0.1396
  590BOLB   C4C14156  20.990  18.832  25.880 -0.0077  0.0453  0.1991
  590BOLB   C1D14157  22.218  18.903  26.277 -0.2117 -0.3145  0.1294
  590BOLB   C2D14158  21.915  19.091  26.176  0.0381 -0.2772 -0.1770
  590BOLB   C3D14159  21.584  19.144  25.948 -0.2153  0.3446 -0.0637
  590BOLB   C4D14160  21.291  19.232  25.572  0.0175 -0.2688 -0.3342
  591BOLB   NC114161  13.705  16.206  24.530  0.1571  0.3095  0.2957
  591BOLB   PO114162  13.475  16.668  24.667  0.0222  0.1221 -0.2136
  591BOLB   GL114163  13.588  16.676  25.097 -0.0174  0.1270  0.0995
  591BOLB   GL214164  13.979  16.546  25.078  0.0118 -0.3565  0.1775
  591BOLB   C1A14165  13.692  16.949  25.493  0.2525  0.1629  0.1730
  591BOLB   C2A14166  13.596  16.796  25.835  0.1089 -0.1009 -0.2752
  591BOLB   C3A14167  13.477  16.496  26.203  0.0227  0.1621  0.2366
  591BOLB   C4A14168  13.411  16.143  26.610 -0.1117 -0.0144 -0.0509
  591BOLB   C1B14169  14.159  16.890  25.314  0.3404  0.1064 -0.2046
  591BOLB   C2B14170  14.338  16.853  25.657 -0.2225  0.0999  0.1409
  591BOLB   C3B14171  14.524  16.964  25.971 -0.0769  0.0066 -0.3117
  591BOLB   C4B14172  14.914  17.253  26.013 -0.0373 -0.3855 -0.1686
  591BOLB   NC214173  13.354  16.137  28.862 -0.1435  0.1023  0.0424
  591BOLB   PO214174  13.051  15.787  28.922  0.4018  0.3156 -0.0870
  591BOLB   GL314175  13.121  15.608  28.533 -0.0029  0.0189 -0.1763
  591BOLB   GL414176  13.020  15.257  28.389 -0.0699 -0.4800  0.0367
  591BOLB   C1C14177  13.331  15.873  28.275  0.0302 -0.2614 -0.2912
  591BOLB   C2C14178  13.451  15.971  27.890 -0.1505  0.1008  0.1533
  591BOLB   C3C14179  13.414  16.035  27.444 -0.0683  0.4158  0.3347
  591BOLB   C4C14180  13.227  16.061  26.984 -0.1755  0.1671 -0.0280
  591BOLB   C1D14181  12.936  15.146  28.029  0.1107 -0.2027 -0.1421
  591BOLB   C2D14182  13.019  14.863  27.667  0.1288 -0.0769 -0.0242
  591BOLB   C3D14183  12.875  14.746  27.348  0.1042  0.3382 -0.1586
  591BOLB   C4D14184  12.944  14.601  26.853  0.1463  0.3433 -0.1860
  592BOLB   NC114185  18.515   8.710  20.391  0.0800 -0.2621 -0.4699
  592BOLB   PO114186  18.433   8.312  20.486  0.2504 -0.0338 -0.0854
  592BOLB   GL114187  18.675   8.059  20.680 -0.3248 -0.0483 -0.0104
  592BOLB   GL214188  18.662   7.841  20.853  0.0568  0.0849 -0.1582
  592BOLB   C1A14189  19.210   7.980  20.901  0.2026  0.3601 -0.0527
  592BOLB   C2A14190  19.617   7.827  20.951  0.0599  0.0566 -0.0224
  592BOLB   C3A14191  19.921   7.702  21.180 -0.0387 -0.0476  0.0074
  592BOLB   C4A14192  20.125   7.486  21.488 -0.2008  0.0314  0.1066
  592BOLB   C1B14193  18.893   7.715  21.131  0.1597 -0.0262 -0.0461
  592BOLB   C2B14194  19.357   7.594  21.280  0.2931  0.0251 -0.0257
  592BOLB   C3B14195  19.584   7.441  21.583  0.0891 -0.0451  0.2069
  592BOLB   C4B14196  19.830   7.369  22.016 -0.2299  0.0354 -0.1504
  592BOLB   NC214197  21.637   6.550  23.293  0.1461  0.1436 -0.1428
  592BOLB   PO214198  21.750   6.487  22.909 -0.0643  0.0305 -0.1569
  592BOLB   GL314199  21.395   6.384  22.767  0.1130  0.0469 -0.0820
  592BOLB   GL414200  21.260   6.657  22.748  0.2604 -0.2505  0.3674
  592BOLB   C1C14201  21.228   6.318  22.373  0.1086 -0.0747  0.0269
  592BOLB   C2C14202  21.100   6.524  22.016  0.0927  0.0517  0.1474
  592BOLB   C3C14203  20.716   6.746  21.718  0.2588 -0.0104 -0.4247
  592BOLB   C4C14204  20.421   7.143  21.672 -0.0795  0.1414 -0.3238
  592BOLB   C1D14205  21.070   6.847  22.368 -0.3545 -0.2546  0.2412
  592BOLB   C2D14206  20.980   7.144  22.115 -0.1574  0.2140  0.1015
  592BOLB   C3D14207  21.055   7.172  21.712  0.1634 -0.0722 -0.1155
  592BOLB   C4D14208  20.964   7.255  21.322 -0.0441 -0.1659 -0.0117
  593BOLB   NC114209  23.010  12.167  19.900 -0.3534 -0.1396  0.0499
  593BOLB   PO114210  23.432  11.947  20.084 -0.0736 -0.2751  0.1248
  593BOLB   GL114211  23.749  12.083  20.407  0.0630  0.0438  0.1502
  593BOLB   GL214212  23.662  11.756  20.649  0.0602  0.2286 -0.0594
  593BOLB   C1A14213  24.017  12.063  20.707  0.0123  0.0820 -0.2763
  593BOLB   C2A14214  24.249  11.996  21.037 -0.2647  0.0393 -0.0084
  593BOLB   C3A14215  24.613  11.757  21.180  0.1716 -0.1340 -0.2082
  593BOLB   C4A14216  24.663  11.284  21.049 -0.1756  0.2386 -0.2585
  593BOLB   C1B14217  23.807  11.747  21.003  0.1616 -0.0903  0.1752
  593BOLB   C2B14218  24.115  11.636  21.313  0.0596 -0.0392  0.0470
  593BOLB   C3B14219  24.443  11.471  21.558 -0.1270  0.1662 -0.1430
  593BOLB   C4B14220  24.591  11.418  21.987 -0.2569 -0.3606 -0.0575
  593BOLB   NC214221  25.583  10.587  23.329  0.1304 -0.3419  0.0274
  593BOLB   PO214222  25.307  10.259  23.195  0.0524  0.0625  0.4021
  593BOLB   GL314223  25.302  10.610  22.914  0.3846 -0.0564 -0.0199
  593BOLB   GL414224  25.223  10.885  23.097  0.2020  0.0084 -0.0266
  593BOLB   C1C14225  24.964  10.648  22.552 -0.1519 -0.2061 -0.0437
  593BOLB   C2C14226  24.561  10.778  22.269  0.0036 -0.0864 -0.2131
  593BOLB   C3C14227  24.569  10.905  21.806  0.0981 -0.1870  0.0454
  593BOLB   C4C14228  24.528  10.982  21.386 -0.1328  0.3457 -0.1653
  593BOLB   C1D14229  24.971  11.052  22.804  0.1100  0.1021  0.0982
  593BOLB   C2D14230  24.842  11.249  22.496 -0.3395 -0.0388  0.2000
  593BOLB   C3D14231  24.730  11.698  22.383 -0.2061 -0.0979  0.0089
  593BOLB   C4D14232  24.385  12.005  22.177 -0.2621 -0.2405 -0.2245
  594BOLB   NC114233  13.774  22.273  24.128 -0.1842  0.1345  0.4343
  594BOLB   PO114234  13.424  22.397  23.969 -0.1167  0.0214  0.4480
  594BOLB   GL114235  13.298  22.471  24.457  0.0387 -0.2034  0.0606
  594BOLB   GL214236  13.422  22.701  24.582  0.3322  0.1280 -0.0836
  594BOLB   C1A14237  13.243  22.331  24.973 -0.0566  0.3809 -0.2189
  594BOLB   C2A14238  13.086  22.406  25.501  0.0467 -0.0823  0.0931
  594BOLB   C3A14239  12.697  22.430  25.817  0.1375  0.1054 -0.0907
  594BOLB   C4A14240  12.526  22.309  26.112  0.1461  0.1315  0.4927
  594BOLB   C1B14241  13.323  23.082  24.849 -0.3352 -0.3729 -0.0138
  594BOLB   C2B14242  13.110  23.368  25.120  0.1324 -0.1995  0.2192
  594BOLB   C3B14243  13.073  23.556  25.504 -0.1655  0.0758  0.0851
  594BOLB   C4B14244  12.841  23.771  25.810  0.3234  0.0453  0.1348
  594BOLB   NC214245  13.253  22.945  28.280 -0.0117 -0.3990 -0.1780
  594BOLB   PO214246  13.603  22.752  28.181 -0.1307  0.0759  0.0633
  594BOLB   GL314247  13.516  22.600  27.781  0.0892 -0.2059  0.0994
  594BOLB   GL414248  13.615  22.318  27.902  0.0276  0.0406  0.1403
  594BOLB   C1C14249  13.242  22.488  27.425  0.0820  0.2064  0.0228
  594BOLB   C2C14250  13.195  22.559  26.928  0.0473  0.1544  0.1592
  594BOLB   C3C14251  12.943  22.489  26.609 -0.3136 -0.3616  0.2381
  594BOLB   C4C14252  12.511  22.350  26.483 -0.2323  0.0656  0.0468
  594BOLB   C1D14253  13.558  22.121  27.533  0.0685  0.0632 -0.0924
  594BOLB   C2D14254  13.637  22.207  27.095 -0.1188 -0.3761 -0.0402
  594BOLB   C3D14255  13.724  22.559  26.791  0.2587 -0.0388  0.0173
  594BOLB   C4D14256  13.764  22.858  26.493  0.0828  0.1225 -0.1634
  595BOLB   NC114257  20.906  20.290  22.496 -0.2161 -0.3031 -0.0578
  595BOLB   PO114258  21.273  20.205  22.837 -0.1266  0.1776  0.1695
  595BOLB   GL114259  21.649  20.272  22.962 -0.0954  0.1197 -0.1508
  595BOLB   GL214260  21.570  20.596  23.062 -0.1515  0.2360 -0.1919
  595BOLB   C1A14261  21.939  20.208  23.288 -0.0549  0.1922 -0.1818
  595BOLB   C2A14262  22.164  20.293  23.691 -0.2883  0.2149 -0.2915
  595BOLB   C3A14263  22.088  20.065  24.033  0.2570  0.0108  0.4749
  595BOLB   C4A14264  22.480  20.153  24.191  0.2209  0.2315  0.1691
  595BOLB   C1B14265  21.840  20.657  23.521 -0.4325  0.1158 -0.1685
  595BOLB   C2B14266  22.155  20.884  23.746 -0.0170 -0.1328 -0.0123
  595BOLB   C3B14267  22.272  21.060  24.121 -0.0087 -0.1108 -0.0039
  595BOLB   C4B14268  22.480  21.061  24.443  0.1877 -0.1090 -0.3650
  595BOLB   NC214269  24.252  20.799  25.101  0.3735  0.1799 -0.1476
  595BOLB   PO214270  24.770  20.716  25.077  0.1555  0.0448 -0.1453
  595BOLB   GL314271  24.430  20.438  24.818 -0.0047  0.1898  0.0417
  595BOLB   GL414272  24.565  20.122  24.876  0.0786 -0.0161  0.0738
  595BOLB   C1C14273  24.055  20.232  24.967  0.6468 -0.1889  0.1171
  595BOLB   C2C14274  23.567  20.291  24.794 -0.3155  0.5247  0.0874
  595BOLB   C3C14275  23.316  20.270  24.379  0.2150  0.0909  0.2760
  595BOLB   C4C14276  22.958  20.146  24.366 -0.3198 -0.1732  0.2128
  595BOLB   C1D14277  24.364  20.102  24.417 -0.0564 -0.1710 -0.1946
  595BOLB   C2D14278  24.077  19.689  24.226  0.1447 -0.0944 -0.0230
  595BOLB   C3D14279  23.970  19.573  23.882  0.1283  0.1361 -0.3408
  595BOLB   C4D14280  23.693  19.299  23.728  0.1633  0.2564 -0.0508
  596BOLB   NC114281  14.445  17.040  24.403 -0.0146  0.1619 -0.1785
  596BOLB   PO114282  14.686  16.717  24.257 -0.1208 -0.2172 -0.1093
  596BOLB   GL114283  14.751  16.566  24.654  0.5105 -0.1954 -0.2211
  596BOLB   GL214284  14.980  16.635  24.949  0.0336  0.0047 -0.1514
  596BOLB   C1A14285  14.568  16.444  25.100 -0.2052  0.0225  0.0049
  596BOLB   C2A14286  14.692  16.545  25.452 -0.2641  0.2508  0.0420
  596BOLB   C3A14287  14.861  16.414  25.930  0.2278  0.1097 -0.4270
  596BOLB   C4A14288  14.777  16.138  26.223  0.0483  0.2423  0.0328
  596BOLB   C1B14289  15.204  16.659  25.239  0.0883 -0.4528 -0.3495
  596BOLB   C2B14290  15.599  16.775  25.267  0.0908  0.1585  0.2862
  596BOLB   C3B14291  15.991  16.627  25.216 -0.4704  0.0282 -0.1184
  596BOLB   C4B14292  16.329  16.347  25.138  0.4149 -0.0492 -0.1415
  596BOLB   NC214293  16.404  16.028  28.322  0.0765  0.0088  0.2706
  596BOLB   PO214294  16.009  15.960  28.434 -0.0714 -0.1233 -0.4436
  596BOLB   GL314295  16.008  16.097  27.973 -0.3523 -0.0274  0.0145
  596BOLB   GL414296  16.300  16.003  27.833 -0.2445 -0.1385 -0.0508
  596BOLB   C1C14297  15.880  16.022  27.507  0.2075 -0.0195  0.0590
  596BOLB   C2C14298  15.618  16.253  27.230 -0.1621 -0.0945  0.3517
  596BOLB   C3C14299  15.254  16.184  26.883 -0.2415 -0.4649 -0.1312
  596BOLB   C4C14300  14.919  15.999  26.603 -0.0060  0.0678  0.0696
  596BOLB   C1D14301  16.086  15.585  27.663  0.0519  0.0084  0.0595
  596BOLB   C2D14302  15.589  15.494  27.582  0.1218 -0.1041  0.0114
  596BOLB   C3D14303  15.257  15.361  27.404 -0.0960 -0.0690 -0.1718
  596BOLB   C4D14304  14.874  15.129  27.563 -0.1240  0.0139  0.1179
  597BOLB   NC114305  20.908   9.620  18.395  0.2409  0.2785  0.1004
  597BOLB   PO114306  21.378   9.636  18.397  0.1132  0.0038 -0.2637
  597BOLB   GL114307  21.669   9.235  18.371 -0.0613 -0.0134 -0.1763
  597BOLB   GL214308  21.525   9.230  18.719  0.2221 -0.0471  0.0368
  597BOLB   C1A14309  21.898   8.907  18.283 -0.2378 -0.1885  0.0512
  597BOLB   C2A14310  22.078   8.552  18.416 -0.0976  0.2265  0.2275
  597BOLB   C3A14311  22.439   8.261  18.552 -0.0294  0.0910  0.0635
  597BOLB   C4A14312  22.733   8.020  18.722  0.1881  0.1156 -0.0411
  597BOLB   C1B14313  21.923   9.103  18.827  0.1105 -0.0384 -0.2561
  597BOLB   C2B14314  22.284   8.913  18.929 -0.1149  0.1474 -0.0073
  597BOLB   C3B14315  22.691   8.928  18.968  0.5310 -0.1669  0.4318
  597BOLB   C4B14316  22.874   8.545  18.919  0.3746 -0.1144 -0.1321
  597BOLB   NC214317  24.849   7.127  19.398 -0.0497 -0.0349 -0.0453
  597BOLB   PO214318  24.723   7.007  19.011 -0.0766 -0.0638  0.1269
  597BOLB   GL314319  24.396   6.990  19.214  0.1850  0.0545  0.1095
  597BOLB   GL414320  24.370   7.220  19.439 -0.1943  0.3040 -0.1532
  597BOLB   C1C14321  23.963   7.159  19.180 -0.1007 -0.3733 -0.2140
  597BOLB   C2C14322  23.532   7.274  19.113  0.0973 -0.1270  0.2602
  597BOLB   C3C14323  23.214   7.410  18.926  0.4523  0.1417  0.3203
  597BOLB   C4C14324  22.799   7.656  18.743  0.0221  0.1050 -0.2018
  597BOLB   C1D14325  24.230   7.585  19.250  0.1213 -0.0288  0.2739
  597BOLB   C2D14326  24.381   8.103  19.358 -0.3333  0.1125  0.2012
  597BOLB   C3D14327  24.379   8.574  19.318  0.0088  0.1041 -0.1888
  597BOLB   C4D14328  24.018   8.823  19.296 -0.3305  0.4685 -0.0022
  598BOLB   NC114329  10.800  12.305  23.620  0.2100 -0.3201  0.1477
  598BOLB   PO114330  11.026  12.138  23.292 -0.0271  0.0950 -0.0145
  598BOLB   GL114331  11.004  11.890  23.765  0.0135 -0.1608 -0.0183
  598BOLB   GL214332  11.049  11.648  23.662 -0.4729  0.0197  0.3703
  598BOLB   C1A14333  10.735  11.522  24.073 -0.3613  0.0300  0.1237
  598BOLB   C2A14334  10.330  11.418  24.315 -0.2108 -0.0759  0.2473
  598BOLB   C3A14335   9.999  11.633  24.488  0.2234 -0.1502  0.0623
  598BOLB   C4A14336   9.522  11.805  24.602 -0.1683  0.1468 -0.1926
  598BOLB   C1B14337  10.711  11.333  23.632 -0.4180 -0.0637  0.0658
  598BOLB   C2B14338  10.290  11.183  23.847  0.0093 -0.0849  0.2665
  598BOLB   C3B14339   9.876  11.357  24.004 -0.1043  0.0881  0.3312
  598BOLB   C4B14340   9.493  11.535  24.245 -0.0788  0.2070  0.2753
  598BOLB   NC214341   8.075  12.335  26.825  0.2313 -0.0785  0.0235
  598BOLB   PO214342   8.331  11.951  26.798  0.1506  0.0610 -0.2284
  598BOLB   GL314343   8.668  11.891  26.573 -0.0613  0.1307  0.2270
  598BOLB   GL414344   8.880  11.867  26.840 -0.2359 -0.0171  0.3467
  598BOLB   C1C14345   8.793  12.118  26.207  0.2433 -0.0554 -0.4398
  598BOLB   C2C14346   9.019  12.104  25.783 -0.0527  0.1162  0.1462
  598BOLB   C3C14347   9.209  12.142  25.362 -0.0286  0.0459  0.3458
  598BOLB   C4C14348   9.342  12.045  24.932 -0.0184 -0.0672 -0.1032
  598BOLB   C1D14349   9.163  11.996  26.504  0.1632  0.0249 -0.0499
  598BOLB   C2D14350   9.349  12.401  26.300  0.1649  0.0286 -0.2015
  598BOLB   C3D14351   9.641  12.484  26.104 -0.2358  0.1032  0.0014
  598BOLB   C4D14352   9.979  12.637  25.906  0.1567 -0.2223  0.0285
  599BOLB   NC114353  22.609  15.111  21.690 -0.1147 -0.2905 -0.0498
  599BOLB   PO114354  22.593  14.754  21.837  0.1305 -0.1976 -0.3753
  599BOLB   GL114355  22.789  14.599  22.211  0.0678  0.4080  0.0951
  599BOLB   GL214356  22.943  14.897  22.269  0.2698 -0.1178  0.0023
  599BOLB   C1A14357  22.987  14.378  22.495  0.1613 -0.3501 -0.0426
  599BOLB   C2A14358  23.193  14.347  22.943 -0.0991 -0.1614  0.0346
  599BOLB   C3A14359  23.488  14.291  23.322 -0.0963  0.1511  0.0390
  599BOLB   C4A14360  23.586  14.389  23.774 -0.4620 -0.1085  0.0372
  599BOLB   C1B14361  23.160  14.830  22.662 -0.2813 -0.1526  0.1828
  599BOLB   C2B14362  23.188  14.800  23.170 -0.1948 -0.0173 -0.0434
  599BOLB   C3B14363  23.116  14.487  23.474  0.0622 -0.1016 -0.0963
  599BOLB   C4B14364  22.870  14.482  23.859  0.0848  0.3577  0.0937
  599BOLB   NC214365  23.933  15.363  25.663  0.3647  0.1132 -0.1057
  599BOLB   PO214366  24.139  14.951  25.458 -0.2719 -0.2099 -0.0161
  599BOLB   GL314367  23.912  15.089  25.118  0.0407 -0.1070  0.0381
  599BOLB   GL414368  24.261  15.105  24.785  0.0988 -0.2076  0.0158
  599BOLB   C1C14369  23.563  15.378  25.058 -0.0837  0.4980  0.1447
  599BOLB   C2C14370  23.303  15.322  24.681  0.1426 -0.1994 -0.0643
  599BOLB   C3C14371  23.271  14.860  24.473 -0.0496 -0.0879  0.0897
  599BOLB   C4C14372  23.300  14.599  24.000  0.0031 -0.1483  0.2258
  599BOLB   C1D14373  24.332  15.004  24.401  0.2024  0.1204  0.1713
  599BOLB   C2D14374  24.246  15.078  23.915 -0.0595  0.2154 -0.3010
  599BOLB   C3D14375  24.284  15.353  23.721  0.1766  0.0683 -0.1539
  599BOLB   C4D14376  24.059  15.717  23.440 -0.1838  0.0231 -0.0795
  600BOLB   NC114377  11.490  23.878  22.436  0.2738  0.1697  0.1281
  600BOLB   PO114378  11.307  23.957  22.844  0.0020  0.1626 -0.2398
  600BOLB   GL114379  11.016  24.066  23.142  0.0230  0.3537 -0.1143
  600BOLB   GL214380  10.897  24.316  22.932 -0.0133  0.1880 -0.2017
  600BOLB   C1A14381  10.746  24.227  23.461 -0.4375  0.1271 -0.0319
  600BOLB   C2A14382  10.617  24.288  23.839  0.5787 -0.1880  0.0982
  600BOLB   C3A14383  10.402  24.419  24.198 -0.0097 -0.3291  0.0775
  600BOLB   C4A14384  10.543  24.277  24.604 -0.1909 -0.1487 -0.0525
  600BOLB   C1B14385  10.673  24.462  22.625 -0.1067 -0.2403  0.0564
  600BOLB   C2B14386  10.731  24.689  22.179  0.0395  0.4078  0.3422
  600BOLB   C3B14387  10.498  24.674  21.743 -0.0055 -0.1369 -0.0518
  600BOLB   C4B14388  10.392  25.043  21.445 -0.0237 -0.0345  0.1460
  600BOLB   NC214389   9.770  26.408  26.398 -0.1399  0.1335  0.4239
  600BOLB   PO214390   9.907  26.011  26.381 -0.1708  0.1714  0.5260
  600BOLB   GL314391   9.813  25.764  26.094 -0.1523  0.2696  0.0788
  600BOLB   GL414392  10.060  25.428  26.165 -0.3433  0.0464  0.0585
  600BOLB   C1C14393  10.027  25.616  25.712  0.1362 -0.1678 -0.0408
  600BOLB   C2C14394   9.994  25.257  25.446  0.1673  0.0464 -0.2519
  600BOLB   C3C14395  10.132  24.863  25.185  0.2350  0.0380  0.3387
  600BOLB   C4C14396  10.416  24.486  24.977  0.0208  0.0229  0.5086
  600BOLB   C1D14397  10.206  25.201  25.866 -0.0789 -0.2184 -0.1416
  600BOLB   C2D14398  10.164  24.834  25.781 -0.0368  0.1886  0.1253
  600BOLB   C3D14399   9.920  24.550  25.565  0.1626 -0.2599  0.1713
  600BOLB   C4D14400   9.799  24.357  25.272 -0.1158 -0.1611  0.0598
  601BOLB   NC114401  20.006  16.934  23.361  0.0187 -0.1375  0.0458
  601BOLB   PO114402  20.015  17.369  23.566  0.2163 -0.1052  0.0185
  601BOLB   GL114403  20.046  17.611  23.918 -0.0073 -0.1952 -0.0669
  601BOLB   GL214404  20.072  17.866  23.971 -0.3066 -0.1679  0.2943
  601BOLB   C1A14405  20.129  17.445  24.367 -0.0316  0.0494 -0.1270
  601BOLB   C2A14406  20.346  17.287  24.844  0.0849 -0.1029 -0.1137
  601BOLB   C3A14407  20.340  17.083  25.200  0.0611  0.0041  0.2510
  601BOLB   C4A14408  20.214  17.090  25.628 -0.0703  0.0489  0.0869
  601BOLB   C1B14409  20.349  17.925  24.453  0.3914 -0.1149  0.0409
  601BOLB   C2B14410  20.538  17.898  24.948 -0.2544  0.3865  0.0488
  601BOLB   C3B14411  20.813  17.893  25.267  0.0360  0.0290 -0.0257
  601BOLB   C4B14412  20.837  17.692  25.641 -0.0589  0.0076 -0.4116
  601BOLB   NC214413  20.568  16.408  27.940 -0.2052 -0.0973  0.0405
  601BOLB   PO214414  20.665  16.198  27.595 -0.0994  0.1763 -0.2488
  601BOLB   GL314415  20.399  16.248  27.325 -0.3610  0.2429  0.1405
  601BOLB   GL414416  19.973  16.288  27.284 -0.2346 -0.1548 -0.3530
  601BOLB   C1C14417  20.308  16.584  27.122  0.2934  0.0723  0.2776
  601BOLB   C2C14418  20.273  16.937  26.894 -0.1175  0.0106  0.2136
  601BOLB   C3C14419  20.233  17.091  26.427 -0.2101 -0.1250 -0.1336
  601BOLB   C4C14420  20.110  17.069  26.081 -0.3441  0.0680 -0.0374
  601BOLB   C1D14421  19.851  16.078  26.981 -0.1666  0.3016 -0.1693
  601BOLB   C2D14422  19.842  16.215  26.564 -0.1880  0.3948  0.1639
  601BOLB   C3D14423  19.445  16.202  26.379  0.2857  0.2083 -0.1715
  601BOLB   C4D14424  19.195  16.067  26.056 -0.0712  0.4533 -0.1319
  602BOLB   NC114425  12.727  15.996  24.303 -0.2440 -0.2608 -0.1348
  602BOLB   PO114426  12.875  15.646  24.477 -0.0227 -0.0597 -0.3739
  602BOLB   GL114427  12.512  15.881  24.739  0.2107 -0.3318 -0.0737
  602BOLB   GL214428  12.363  15.464  24.845  0.0196  0.2019 -0.0303
  602BOLB   C1A14429  12.144  15.917  25.074  0.0231  0.1061  0.0657
  602BOLB   C2A14430  11.830  15.873  25.398  0.0945  0.0714  0.1657
  602BOLB   C3A14431  11.472  15.683  25.737 -0.1665  0.1138 -0.1391
  602BOLB   C4A14432  11.201  15.608  26.084 -0.0519 -0.1918  0.0252
  602BOLB   C1B14433  12.486  15.484  25.311 -0.0231  0.4552  0.2292
  602BOLB   C2B14434  12.296  15.443  25.691 -0.1675  0.0087  0.2984
  602BOLB   C3B14435  11.985  15.765  25.933  0.0343 -0.2096  0.0766
  602BOLB   C4B14436  11.651  15.848  26.211  0.1215 -0.1258  0.0827
  602BOLB   NC214437  10.944  15.379  28.341 -0.0483 -0.5131 -0.2819
  602BOLB   PO214438  11.419  15.513  28.450 -0.0907 -0.2098  0.0242
  602BOLB   GL314439  11.412  15.528  28.078  0.3988 -0.2580  0.2618
  602BOLB   GL414440  11.222  15.799  27.972 -0.1429 -0.0527  0.1983
  602BOLB   C1C14441  11.265  15.323  27.782  0.0386  0.2412  0.2535
  602BOLB   C2C14442  11.202  15.210  27.420 -0.1245  0.0559 -0.0404
  602BOLB   C3C14443  11.236  15.363  26.967 -0.0632  0.0977  0.0442
  602BOLB   C4C14444  11.107  15.444  26.508  0.1665  0.3734 -0.1635
  602BOLB   C1D14445  11.194  16.116  27.776 -0.2660 -0.3676  0.2194
  602BOLB   C2D14446  11.339  16.267  27.424  0.0748 -0.4228  0.2351
  602BOLB   C3D14447  11.075  16.078  27.109  0.1363  0.1470  0.2838
  602BOLB   C4D14448  10.930  15.765  26.868  0.2940 -0.3012 -0.0190
  603BOLB   NC114449  16.329  19.375  23.943  0.0924 -0.0071 -0.2719
  603BOLB   PO114450  16.572  19.631  24.205 -0.3464 -0.1338  0.0510
  603BOLB   GL114451  16.783  19.849  24.643  0.0811 -0.0936 -0.1280
  603BOLB   GL214452  17.104  20.020  24.595 -0.2661  0.3365 -0.1450
  603BOLB   C1A14453  16.622  20.014  24.947 -0.1963 -0.0165 -0.2424
  603BOLB   C2A14454  16.686  20.241  25.313  0.1132 -0.0827  0.2472
  603BOLB   C3A14455  16.870  20.285  25.679 -0.0546 -0.1665  0.1409
  603BOLB   C4A14456  16.959  20.396  26.124 -0.2170 -0.3395  0.1115
  603BOLB   C1B14457  17.089  20.030  25.017 -0.0026 -0.0220 -0.0713
  603BOLB   C2B14458  17.262  19.942  25.499 -0.1550 -0.1351  0.5352
  603BOLB   C3B14459  17.383  20.183  25.858  0.0509  0.0264 -0.1016
  603BOLB   C4B14460  17.763  20.386  25.903  0.0686  0.1480  0.3832
  603BOLB   NC214461  18.308  20.499  28.147 -0.1133 -0.0738 -0.3481
  603BOLB   PO214462  18.543  20.850  27.901 -0.1981  0.2623  0.2008
  603BOLB   GL314463  18.241  20.881  27.576  0.3969  0.2882 -0.5557
  603BOLB   GL414464  18.021  20.612  27.783 -0.2238 -0.0559 -0.0585
  603BOLB   C1C14465  18.174  20.795  27.221  0.4820 -0.0695 -0.1800
  603BOLB   C2C14466  17.758  20.551  27.116 -0.1352  0.1590  0.0246
  603BOLB   C3C14467  17.290  20.419  26.860 -0.0283  0.0607  0.0497
  603BOLB   C4C14468  16.902  20.264  26.575 -0.1241  0.1112 -0.0430
  603BOLB   C1D14469  18.175  20.337  27.488  0.1017 -0.1977  0.2327
  603BOLB   C2D14470  18.197  20.346  26.989 -0.0459  0.0627  0.0067
  603BOLB   C3D14471  18.040  20.684  26.703 -0.2890 -0.0872 -0.0366
  603BOLB   C4D14472  17.975  20.706  26.305 -0.0520 -0.0183  0.1688
  604BOLB   NC114473  22.323  16.849  21.758  0.0017  0.4372 -0.0022
  604BOLB   PO114474  22.679  16.988  21.819  0.2168  0.0467 -0.1516
  604BOLB   GL114475  22.777  17.095  22.309  0.3004 -0.2796  0.1546
  604BOLB   GL214476  22.560  17.278  22.514 -0.2295  0.0452  0.2353
  604BOLB   C1A14477  23.055  17.114  22.616 -0.2898  0.0742 -0.0471
  604BOLB   C2A14478  23.181  16.899  23.032  0.1692  0.3116 -0.1843
  604BOLB   C3A14479  23.531  16.949  23.259  0.1051 -0.0042 -0.2127
  604BOLB   C4A14480  23.827  17.289  23.154 -0.1542  0.4409  0.1755
  604BOLB   C1B14481  22.772  17.482  22.880 -0.1714  0.1384 -0.1452
  604BOLB   C2B14482  23.077  17.363  23.145  0.0044 -0.0717  0.2969
  604BOLB   C3B14483  23.422  17.427  23.441 -0.2139  0.0189  0.0077
  604BOLB   C4B14484  23.806  17.292  23.694 -0.0299  0.2382 -0.3850
  604BOLB   NC214485  25.126  17.159  25.152  0.1437 -0.0261 -0.2741
  604BOLB   PO214486  25.260  16.995  24.807  0.2000  0.2242  0.0140
  604BOLB   GL314487  25.177  17.378  24.617  0.1084  0.2090 -0.1000
  604BOLB   GL414488  24.892  17.259  24.656 -0.0341  0.1292 -0.2277
  604BOLB   C1C14489  24.706  17.707  24.488 -0.0319 -0.1720 -0.0267
  604BOLB   C2C14490  24.315  17.544  24.209 -0.0273 -0.3263 -0.1869
  604BOLB   C3C14491  24.208  17.590  23.693 -0.1186  0.1330 -0.0169
  604BOLB   C4C14492  24.109  17.516  23.240 -0.2091  0.4519 -0.2802
  604BOLB   C1D14493  24.864  17.293  24.250  0.0400 -0.3496 -0.2045
  604BOLB   C2D14494  24.683  17.421  23.920 -0.0125 -0.4825  0.2143
  604BOLB   C3D14495  24.640  17.310  23.546  0.0190  0.5237 -0.0993
  604BOLB   C4D14496  24.582  16.849  23.480  0.0190 -0.0675 -0.1072
  605BOLB   NC114497  20.515  16.889  23.160  0.1443  0.1325 -0.0767
  605BOLB   PO114498  20.492  16.756  23.469  0.0784  0.0282 -0.0645
  605BOLB   GL114499  20.636  16.747  23.848  0.1841  0.0644  0.1348
  605BOLB   GL214500  20.749  16.452  23.920 -0.1723  0.0559 -0.0080
  605BOLB   C1A14501  20.579  16.991  24.202 -0.0152 -0.1604 -0.4674
  605BOLB   C2A14502  20.746  17.044  24.548  0.0034 -0.0955 -0.1788
  605BOLB   C3A14503  20.855  16.982  24.916 -0.3199 -0.1092 -0.1290
  605BOLB   C4A14504  20.774  16.968  25.405 -0.0920  0.1118 -0.2063
  605BOLB   C1B14505  20.856  16.585  24.315  0.2627 -0.1611  0.0572
  605BOLB   C2B14506  20.994  16.530  24.695 -0.0085  0.0964  0.2371
  605BOLB   C3B14507  21.226  16.589  24.944 -0.0181 -0.1594 -0.0748
  605BOLB   C4B14508  21.292  16.713  25.456  0.1786 -0.0760 -0.1938
  605BOLB   NC214509  21.940  17.100  27.457  0.4521 -0.3354  0.1691
  605BOLB   PO214510  21.795  17.597  27.521 -0.4186  0.0751  0.1725
  605BOLB   GL314511  21.624  17.454  27.123 -0.5550  0.4044  0.0211
  605BOLB   GL414512  21.789  17.210  26.985 -0.1241  0.2764  0.1577
  605BOLB   C1C14513  21.327  17.621  26.783 -0.1336 -0.0362  0.0436
  605BOLB   C2C14514  21.064  17.444  26.470 -0.1064 -0.0341  0.4757
  605BOLB   C3C14515  20.852  17.301  26.051  0.2298  0.2692  0.4600
  605BOLB   C4C14516  20.655  17.189  25.807  0.0844  0.2060 -0.1592
  605BOLB   C1D14517  21.753  17.703  26.710  0.1176 -0.2067 -0.0967
  605BOLB   C2D14518  21.503  17.865  26.395  0.0953  0.0967  0.2998
  605BOLB   C3D14519  21.539  18.217  26.132  0.3786 -0.0048  0.0283
  605BOLB   C4D14520  21.459  18.602  25.986 -0.1104  0.0974  0.2029
  606BOLB   NC114521  15.350   7.774  22.019  0.1822  0.0616  0.4689
  606BOLB   PO114522  15.399   8.013  22.302 -0.0625 -0.2365  0.2922
  606BOLB   GL114523  15.514   7.682  22.508  0.2652 -0.0902 -0.0336
  606BOLB   GL214524  15.697   7.422  22.413  0.1397 -0.2027  0.0393
  606BOLB   C1A14525  15.803   7.641  22.836  0.1939  0.1942  0.0853
  606BOLB   C2A14526  15.983   7.272  23.074 -0.4252  0.0004  0.2503
  606BOLB   C3A14527  16.339   7.170  23.382 -0.3089  0.1612  0.1109
  606BOLB   C4A14528  16.632   6.830  23.356  0.2100  0.1313  0.3648
  606BOLB   C1B14529  15.902   7.128  22.602 -0.1516  0.0887 -0.1455
  606BOLB   C2B14530  16.143   6.817  22.856  0.0068  0.0275  0.0719
  606BOLB   C3B14531  16.186   6.690  23.322 -0.1475  0.2231 -0.1083
  606BOLB   C4B14532  16.267   6.792  23.720  0.0960  0.2341  0.2310
  606BOLB   NC214533  16.648   5.526  25.058 -0.1536  0.1852 -0.1402
  606BOLB   PO214534  17.066   5.529  25.307  0.1894  0.0712 -0.0972
  606BOLB   GL314535  17.184   5.842  25.018 -0.0024  0.1300  0.0647
  606BOLB   GL414536  17.036   6.194  25.104 -0.1421 -0.1107  0.0302
  606BOLB   C1C14537  17.335   6.098  24.654  0.1011 -0.0997 -0.0683
  606BOLB   C2C14538  17.223   6.421  24.441  0.1817 -0.1085 -0.1355
  606BOLB   C3C14539  17.098   6.644  24.070  0.2678  0.3590 -0.0440
  606BOLB   C4C14540  16.857   6.673  23.680  0.0694  0.0277  0.0572
  606BOLB   C1D14541  16.825   6.348  24.695  0.4869  0.5234 -0.0062
  606BOLB   C2D14542  16.695   6.394  24.263  0.2434  0.1071 -0.0934
  606BOLB   C3D14543  16.596   6.286  23.937 -0.0489  0.1233 -0.0467
  606BOLB   C4D14544  16.415   6.359  23.533  0.0799  0.3655 -0.2538
  607BOLB   NC114545   8.504  23.307  22.954 -0.1398  0.1953  0.0616
  607BOLB   PO114546   8.696  23.413  23.327 -0.2937 -0.1256  0.0822
  607BOLB   GL114547   8.929  23.702  23.370  0.1297 -0.0269  0.0453
  607BOLB   GL214548   8.728  23.922  23.599 -0.0776  0.2102  0.0676
  607BOLB   C1A14549   9.210  23.842  23.716 -0.0497 -0.0878  0.0436
  607BOLB   C2A14550   9.656  23.929  23.737 -0.1111  0.0965 -0.0825
  607BOLB   C3A14551  10.006  24.181  23.635  0.0331  0.1343 -0.1119
  607BOLB   C4A14552  10.214  24.544  23.777  0.2120 -0.2740 -0.0775
  607BOLB   C1B14553   8.715  23.935  23.971  0.3098 -0.2563 -0.1027
  607BOLB   C2B14554   8.744  23.915  24.349 -0.1801 -0.0483  0.0206
  607BOLB   C3B14555   9.002  24.178  24.470  0.0910  0.0641 -0.1206
  607BOLB   C4B14556   9.305  24.607  24.460  0.2098  0.0243  0.1732
  607BOLB   NC214557   8.923  26.298  25.277  0.1342  0.3824  0.1381
  607BOLB   PO214558   8.675  26.235  24.850 -0.0147  0.3204 -0.1968
  607BOLB   GL314559   8.819  25.989  24.545  0.2465  0.0737 -0.0432
  607BOLB   GL414560   8.882  26.155  24.297  0.1735  0.0447 -0.2186
  607BOLB   C1C14561   9.034  25.609  24.472  0.0589 -0.1914  0.0203
  607BOLB   C2C14562   9.466  25.460  24.199 -0.2832  0.0953  0.1430
  607BOLB   C3C14563   9.899  25.272  23.967 -0.0144  0.0445 -0.1459
  607BOLB   C4C14564  10.037  24.920  23.710 -0.0948 -0.0197  0.1134
  607BOLB   C1D14565   9.174  25.933  24.117 -0.4555 -0.0785  0.0840
  607BOLB   C2D14566   9.630  25.979  24.034  0.0322  0.0902 -0.1322
  607BOLB   C3D14567   9.978  25.755  23.907  0.1475  0.2890  0.0891
  607BOLB   C4D14568  10.277  25.403  23.723  0.2561 -0.1193  0.3290
  608BOLB   NC114569  16.223  10.001  23.046 -0.0606  0.2034 -0.2854
  608BOLB   PO114570  16.035   9.523  22.840  0.0028  0.2428  0.0453
  608BOLB   GL114571  16.084   9.135  23.136  0.0190 -0.3202  0.0829
  608BOLB   GL214572  15.895   8.903  23.137 -0.5936  0.3157 -0.1552
  608BOLB   C1A14573  15.891   9.266  23.502  0.1146  0.2329 -0.1485
  608BOLB   C2A14574  15.717   9.142  23.922  0.3222 -0.0922 -0.1350
  608BOLB   C3A14575  15.617   8.974  24.334  0.4389 -0.0069 -0.0244
  608BOLB   C4A14576  15.559   8.766  24.733 -0.1420  0.1621 -0.0855
  608BOLB   C1B14577  16.071   8.785  23.499 -0.1621  0.2112  0.0815
  608BOLB   C2B14578  16.402   8.543  23.768  0.2893  0.0603 -0.1388
  608BOLB   C3B14579  16.582   8.290  24.025  0.4003  0.2127  0.1635
  608BOLB   C4B14580  16.716   8.254  24.402 -0.3323 -0.0219 -0.2877
  608BOLB   NC214581  15.554   7.287  26.801  0.0281  0.0125  0.1766
  608BOLB   PO214582  15.848   7.512  26.889  0.1418 -0.0636 -0.2044
  608BOLB   GL314583  15.850   7.789  26.446  0.0956  0.0736 -0.2351
  608BOLB   GL414584  16.114   7.960  26.389 -0.0603  0.0255 -0.0996
  608BOLB   C1C14585  15.628   7.875  26.041  0.0937  0.0036  0.2861
  608BOLB   C2C14586  15.838   8.159  25.671 -0.1986  0.0834 -0.1849
  608BOLB   C3C14587  15.868   8.273  25.227  0.0818 -0.0379 -0.1502
  608BOLB   C4C14588  15.656   8.403  24.994 -0.0808  0.0635 -0.1529
  608BOLB   C1D14589  16.257   7.992  25.928 -0.0962  0.2631  0.0219
  608BOLB   C2D14590  16.397   8.172  25.537  0.0215 -0.1775 -0.2653
  608BOLB   C3D14591  16.260   8.530  25.278  0.1146 -0.2004 -0.1985
  608BOLB   C4D14592  16.044   8.600  24.824 -0.0793  0.4415  0.1250
  609BOLB   NC114593  12.831  23.500  23.956  0.0523 -0.2178 -0.2124
  609BOLB   PO114594  12.438  23.347  24.018 -0.0665  0.3548  0.1859
  609BOLB   GL114595  12.506  23.809  24.155 -0.1051  0.1831 -0.0714
  609BOLB   GL214596  12.676  23.687  24.451  0.1902 -0.1617 -0.0814
  609BOLB   C1A14597  12.447  24.224  24.237 -0.0739  0.1284 -0.1118
  609BOLB   C2A14598  12.288  24.438  24.527  0.0634  0.2224 -0.4644
  609BOLB   C3A14599  12.122  24.705  24.854  0.2053  0.4048 -0.1581
  609BOLB   C4A14600  11.885  24.957  25.270 -0.0314 -0.4847  0.1279
  609BOLB   C1B14601  12.518  23.569  24.910  0.0623  0.1377  0.2507
  609BOLB   C2B14602  12.581  23.601  25.376 -0.3689 -0.3704  0.3808
  609BOLB   C3B14603  12.377  23.484  25.746  0.1237  0.1297  0.2697
  609BOLB   C4B14604  12.325  23.559  26.154  0.0056  0.1922 -0.0054
  609BOLB   NC214605  12.734  26.271  27.312 -0.0072  0.3082 -0.0991
  609BOLB   PO214606  12.483  25.883  27.247 -0.0981  0.1522  0.0885
  609BOLB   GL314607  12.441  25.612  26.907 -0.0750  0.0296  0.0667
  609BOLB   GL414608  12.660  25.585  26.836  0.3428 -0.0316  0.1766
  609BOLB   C1C14609  12.289  25.308  26.665 -0.0055  0.0290  0.2895
  609BOLB   C2C14610  12.298  24.858  26.436  0.2918  0.3737  0.2291
  609BOLB   C3C14611  11.965  24.880  26.154 -0.0335  0.0766  0.0170
  609BOLB   C4C14612  11.750  24.748  25.736  0.2164 -0.0807  0.0261
  609BOLB   C1D14613  12.528  25.814  26.487 -0.0933  0.1955 -0.0676
  609BOLB   C2D14614  12.410  25.877  26.050  0.0353 -0.1358 -0.2512
  609BOLB   C3D14615  12.425  25.576  25.666 -0.3067 -0.2477  0.1515
  609BOLB   C4D14616  12.376  25.582  25.249 -0.0395  0.0827 -0.0149
  610BOLB   NC114617  12.158  18.045  24.709  0.0765  0.0887  0.0048
  610BOLB   PO114618  11.756  18.346  24.513  0.0977  0.1492  0.0197
  610BOLB   GL114619  11.701  18.252  24.914 -0.0692  0.1849  0.3068
  610BOLB   GL214620  11.367  18.461  24.946  0.0387 -0.0847 -0.1221
  610BOLB   C1A14621  11.610  18.209  25.310 -0.0337 -0.1103  0.2965
  610BOLB   C2A14622  11.339  18.296  25.579  0.1198 -0.0717 -0.0604
  610BOLB   C3A14623  11.316  18.296  25.954 -0.1539  0.2081 -0.1207
  610BOLB   C4A14624  11.041  18.412  26.320 -0.1672  0.3111 -0.3065
  610BOLB   C1B14625  11.076  18.277  25.123 -0.1978 -0.2961 -0.0568
  610BOLB   C2B14626  10.846  18.061  25.300  0.3103 -0.2494 -0.3532
  610BOLB   C3B14627  10.870  18.214  25.768 -0.0169 -0.0677  0.0135
  610BOLB   C4B14628  10.769  18.627  25.982 -0.0605 -0.1636  0.1935
  610BOLB   NC214629  10.008  18.027  28.792  0.0815  0.0187 -0.3651
  610BOLB   PO214630  10.067  17.742  28.400  0.2287 -0.2352  0.2657
  610BOLB   GL314631  10.074  17.885  27.964 -0.0285  0.3794 -0.0130
  610BOLB   GL414632   9.874  17.717  27.769  0.1733 -0.4011 -0.2604
  610BOLB   C1C14633  10.433  18.049  27.753 -0.2958  0.1255 -0.1805
  610BOLB   C2C14634  10.657  18.210  27.443 -0.0433  0.3425  0.0503
  610BOLB   C3C14635  10.722  18.364  27.024  0.2741 -0.1660  0.1132
  610BOLB   C4C14636  10.768  18.428  26.510 -0.2281  0.0655 -0.0200
  610BOLB   C1D14637  10.044  17.978  27.498 -0.0683  0.0789  0.0724
  610BOLB   C2D14638  10.230  17.900  27.152  0.0160  0.0212  0.0857
  610BOLB   C3D14639  10.430  17.651  26.910 -0.4338  0.2449 -0.2307
  610BOLB   C4D14640  10.468  17.269  26.665  0.0573  0.1745 -0.1027
  611BOLB   NC114641  17.085  19.138  24.381 -0.0902 -0.1044 -0.1461
  611BOLB   PO114642  17.069  19.606  24.255  0.5436  0.1011  0.3504
  611BOLB   GL114643  17.195  19.508  24.690  0.2287 -0.0349  0.0944
  611BOLB   GL214644  16.935  19.429  24.818 -0.4276  0.0687 -0.2630
  611BOLB   C1A14645  17.386  19.538  25.076 -0.0108 -0.1032  0.3595
  611BOLB   C2A14646  17.550  19.463  25.465  0.1156  0.0869  0.1371
  611BOLB   C3A14647  17.483  19.425  25.886  0.0894  0.0685  0.0595
  611BOLB   C4A14648  17.635  19.671  26.171  0.0081  0.0127  0.3378
  611BOLB   C1B14649  16.691  19.210  25.129 -0.1034  0.1620  0.1073
  611BOLB   C2B14650  16.588  19.306  25.535  0.1593 -0.0588  0.0572
  611BOLB   C3B14651  16.393  19.565  25.880 -0.2782 -0.1582  0.0969
  611BOLB   C4B14652  16.092  19.661  26.163 -0.1649  0.0371  0.1627
  611BOLB   NC214653  19.361  20.181  28.301 -0.1233  0.2769  0.1541
  611BOLB   PO214654  19.059  19.956  28.049 -0.1006 -0.2114 -0.0120
  611BOLB   GL314655  18.901  20.148  27.616  0.1597 -0.2373  0.1392
  611BOLB   GL414656  18.619  20.369  27.715  0.0897 -0.1826  0.1653
  611BOLB   C1C14657  18.571  20.070  27.284 -0.1043  0.2106 -0.0990
  611BOLB   C2C14658  18.451  19.857  26.952  0.0222 -0.1637  0.1887
  611BOLB   C3C14659  18.144  19.787  26.733  0.3561 -0.3296 -0.0368
  611BOLB   C4C14660  17.816  19.731  26.499  0.0126  0.2173 -0.2591
  611BOLB   C1D14661  18.686  20.531  27.281 -0.0663 -0.2025 -0.0111
  611BOLB   C2D14662  18.577  20.695  26.874 -0.0122  0.2582 -0.3755
  611BOLB   C3D14663  18.500  20.676  26.419  0.0341 -0.2387 -0.2349
  611BOLB   C4D14664  18.271  20.455  26.000 -0.3608 -0.0416 -0.1950
  612BOLB   NC114665  18.182  12.589  23.283  0.0371  0.1839 -0.1246
  612BOLB   PO114666  18.581  12.419  23.154 -0.0072  0.2395  0.0601
  612BOLB   GL114667  18.631  12.085  23.365 -0.3364 -0.3298  0.0301
  612BOLB   GL214668  18.364  12.220  23.608 -0.0390  0.0423 -0.0765
  612BOLB   C1A14669  18.780  11.959  23.836  0.0470  0.0137  0.3816
  612BOLB   C2A14670  18.877  11.912  24.240  0.1896 -0.0499  0.0079
  612BOLB   C3A14671  18.965  12.060  24.657 -0.1023  0.0062  0.2641
  612BOLB   C4A14672  19.133  11.937  25.026  0.1702 -0.1928  0.1056
  612BOLB   C1B14673  18.274  12.014  23.959  0.1586  0.0978  0.2496
  612BOLB   C2B14674  18.406  12.093  24.435 -0.0675 -0.2514  0.3525
  612BOLB   C3B14675  18.453  11.929  24.827  0.1008  0.1923  0.1664
  612BOLB   C4B14676  18.679  12.024  25.231 -0.1282 -0.0441  0.3460
  612BOLB   NC214677  19.004  10.565  26.990  0.2081 -0.0378  0.0667
  612BOLB   PO214678  19.352  10.811  26.966 -0.0635  0.3119 -0.2022
  612BOLB   GL314679  19.209  10.997  26.644 -0.0531  0.1614  0.0157
  612BOLB   GL414680  18.802  11.057  26.871  0.1818 -0.2749  0.0477
  612BOLB   C1C14681  19.354  11.171  26.393  0.1958 -0.0837 -0.0344
  612BOLB   C2C14682  19.464  11.314  26.009  0.1262 -0.3055 -0.4057
  612BOLB   C3C14683  19.357  11.418  25.466  0.0023  0.0627  0.0171
  612BOLB   C4C14684  19.308  11.622  25.137  0.0698 -0.3145 -0.1083
  612BOLB   C1D14685  18.808  11.195  26.453  0.4117  0.1192  0.3660
  612BOLB   C2D14686  18.622  11.300  26.173 -0.4317  0.1144  0.0167
  612BOLB   C3D14687  18.318  11.674  26.122 -0.2827 -0.1355  0.0898
  612BOLB   C4D14688  18.006  11.904  25.844  0.2592 -0.1212 -0.0379
  613BOLB   NC114689  17.285  23.220  23.098 -0.1851 -0.0250 -0.1526
  613BOLB   PO114690  17.419  23.045  23.570 -0.0561  0.4203  0.1078
  613BOLB   GL114691  17.519  22.824  23.919  0.2241 -0.2218 -0.2117
  613BOLB   GL214692  17.313  22.520  24.074  0.0345 -0.2830  0.2323
  613BOLB   C1A14693  17.524  23.122  24.317  0.0201  0.1417 -0.3123
  613BOLB   C2A14694  17.581  23.070  24.721  0.1276  0.0739 -0.2412
  613BOLB   C3A14695  17.487  23.065  25.141  0.1760  0.1378 -0.3166
  613BOLB   C4A14696  17.259  23.290  25.454 -0.2224  0.2628  0.1612
  613BOLB   C1B14697  17.091  22.779  24.326 -0.2318  0.0919  0.2080
  613BOLB   C2B14698  17.077  22.816  24.748  0.1485 -0.3693  0.1487
  613BOLB   C3B14699  16.919  22.923  25.171 -0.0659 -0.0228  0.0491
  613BOLB   C4B14700  16.662  22.590  25.388  0.1968  0.1222  0.0179
  613BOLB   NC214701  18.246  24.300  27.902 -0.0978 -0.3190  0.2599
  613BOLB   PO214702  18.124  24.473  27.598 -0.1992  0.2023 -0.2227
  613BOLB   GL314703  18.203  24.109  27.276  0.1114 -0.0777 -0.0187
  613BOLB   GL414704  18.400  24.036  27.107 -0.0529  0.0626  0.1054
  613BOLB   C1C14705  17.897  23.893  27.018  0.0741  0.0362 -0.1536
  613BOLB   C2C14706  17.586  23.672  26.721  0.1568  0.1814 -0.1053
  613BOLB   C3C14707  17.411  23.519  26.368 -0.2193 -0.1987  0.2909
  613BOLB   C4C14708  17.324  23.487  25.890  0.3838 -0.1892 -0.1236
  613BOLB   C1D14709  18.478  23.967  26.781 -0.0205  0.2408 -0.2108
  613BOLB   C2D14710  18.364  23.691  26.561  0.1147  0.2213  0.0362
  613BOLB   C3D14711  18.354  23.184  26.284 -0.0932  0.1438 -0.0384
  613BOLB   C4D14712  18.200  22.851  25.984  0.0219  0.1811  0.0309
  614BOLB   NC114713   9.276   8.471  22.493 -0.2915  0.0890  0.3507
  614BOLB   PO114714   9.499   8.803  22.663  0.1202 -0.0644  0.0920
  614BOLB   GL114715   9.385   9.251  22.745 -0.2343  0.1510 -0.0415
  614BOLB   GL214716   9.386   9.214  22.994 -0.0612 -0.2673 -0.0785
  614BOLB   C1A14717   9.327   9.757  22.866 -0.1682  0.1373  0.0448
  614BOLB   C2A14718   9.512  10.122  22.930  0.0746 -0.0771 -0.1321
  614BOLB   C3A14719   9.497  10.513  23.209 -0.1366 -0.0299  0.2993
  614BOLB   C4A14720   9.678  10.635  23.666  0.0653  0.2607 -0.0315
  614BOLB   C1B14721   9.742   9.463  23.065  0.1013  0.0761  0.0277
  614BOLB   C2B14722   9.859   9.871  23.224 -0.0428  0.1673 -0.3251
  614BOLB   C3B14723   9.851  10.139  23.495 -0.1743 -0.1134 -0.1889
  614BOLB   C4B14724  10.051  10.225  23.944 -0.0345 -0.1152 -0.0935
  614BOLB   NC214725   8.369   9.034  24.564 -0.5860  0.2339  0.1310
  614BOLB   PO214726   8.438   9.212  24.981 -0.1218 -0.2669  0.1503
  614BOLB   GL314727   8.671   9.464  25.073  0.0969  0.1609  0.0129
  614BOLB   GL414728   8.597   9.686  25.254 -0.0740  0.0595  0.2502
  614BOLB   C1C14729   8.937   9.767  24.766 -0.0719  0.2127  0.2415
  614BOLB   C2C14730   9.165  10.067  24.463 -0.2019  0.2929  0.2401
  614BOLB   C3C14731   9.350  10.452  24.395  0.1335 -0.1289  0.0382
  614BOLB   C4C14732   9.558  10.607  24.093  0.5364  0.1955 -0.1255
  614BOLB   C1D14733   8.914  10.026  25.343  0.2896  0.1317 -0.1008
  614BOLB   C2D14734   9.228  10.172  25.151  0.1688  0.0917 -0.0683
  614BOLB   C3D14735   9.651  10.230  25.151 -0.2527  0.1897  0.1001
  614BOLB   C4D14736  10.104  10.129  24.944 -0.2791 -0.0241  0.1046
  615BOLB   NC114737  12.995  23.176  23.450 -0.0013  0.2402 -0.3792
  615BOLB   PO114738  13.036  23.691  23.504 -0.3077 -0.0892  0.2379
  615BOLB   GL114739  13.306  23.714  23.936 -0.2914  0.1711 -0.0457
  615BOLB   GL214740  13.578  23.624  23.997 -0.2381 -0.3799  0.0424
  615BOLB   C1A14741  13.423  24.066  24.178  0.4177 -0.4139  0.0348
  615BOLB   C2A14742  13.381  24.126  24.663 -0.2343 -0.0349  0.0431
  615BOLB   C3A14743  13.248  24.432  25.071  0.0972  0.0767  0.0001
  615BOLB   C4A14744  13.225  24.440  25.472 -0.1544 -0.0163 -0.1593
  615BOLB   C1B14745  13.448  23.645  24.487  0.0185 -0.1634 -0.0445
  615BOLB   C2B14746  13.514  23.523  24.976  0.1520  0.0601  0.2450
  615BOLB   C3B14747  13.630  23.561  25.430 -0.0373 -0.0575  0.2339
  615BOLB   C4B14748  13.546  23.681  25.869  0.0479  0.1439  0.3431
  615BOLB   NC214749  12.720  24.705  28.025  0.3342 -0.2493 -0.3909
  615BOLB   PO214750  12.842  24.877  27.675 -0.2313 -0.2892  0.0078
  615BOLB   GL314751  12.883  24.746  27.265  0.1418  0.0025  0.2346
  615BOLB   GL414752  13.117  24.868  27.103 -0.1641 -0.3183  0.0699
  615BOLB   C1C14753  12.782  24.431  26.987  0.2960 -0.4778 -0.1295
  615BOLB   C2C14754  12.983  24.227  26.625 -0.2135  0.0104 -0.3067
  615BOLB   C3C14755  13.031  24.081  26.196 -0.3822  0.4696 -0.0080
  615BOLB   C4C14756  13.080  24.244  25.875  0.1435 -0.3517 -0.1030
  615BOLB   C1D14757  13.171  24.704  26.639 -0.2751 -0.2028 -0.0003
  615BOLB   C2D14758  13.254  24.597  26.232  0.1277  0.2397  0.3106
  615BOLB   C3D14759  13.381  24.684  25.907  0.0446 -0.2026  0.2654
  615BOLB   C4D14760  13.668  24.769  25.540 -0.2149  0.0303 -0.2881
  616BOLB   NC114761  14.561  19.082  23.968  0.1040  0.2244  0.2209
  616BOLB   PO114762  14.416  19.125  24.483  0.1230  0.1468  0.0442
  616BOLB   GL114763  14.531  19.198  24.897 -0.0003  0.0412 -0.3181
  616BOLB   GL214764  14.846  19.054  24.968 -0.3447  0.0823 -0.0308
  616BOLB   C1A14765  14.624  19.160  25.401  0.2248 -0.0392  0.3123
  616BOLB   C2A14766  14.566  19.015  25.807  0.2355 -0.1797 -0.0596
  616BOLB   C3A14767  14.289  18.877  26.124 -0.1088  0.1921 -0.0380
  616BOLB   C4A14768  14.186  18.684  26.515 -0.1073 -0.0206 -0.3838
  616BOLB   C1B14769  15.070  18.984  25.325 -0.2020  0.0222 -0.0628
  616BOLB   C2B14770  15.072  18.995  25.749 -0.2167 -0.3354 -0.4535
  616BOLB   C3B14771  15.164  19.103  26.214  0.0428 -0.2352  0.1796
  616BOLB   C4B14772  15.247  19.035  26.609 -0.0431 -0.0981 -0.0482
  616BOLB   NC214773  13.421  17.448  29.095 -0.0127 -0.1706 -0.2869
  616BOLB   PO214774  13.408  17.845  28.788  0.0327  0.0244 -0.0216
  616BOLB   GL314775  13.729  17.893  28.382 -0.3821 -0.1133 -0.2935
  616BOLB   GL414776  13.742  18.246  28.249  0.0606  0.0686 -0.0663
  616BOLB   C1C14777  13.770  17.783  27.876 -0.0417 -0.0744 -0.0027
  616BOLB   C2C14778  13.839  18.136  27.574  0.0824  0.0192  0.0640
  616BOLB   C3C14779  13.944  18.600  27.286 -0.0979 -0.0080  0.0176
  616BOLB   C4C14780  13.925  18.669  26.815  0.1604 -0.1342 -0.3734
  616BOLB   C1D14781  13.649  18.681  28.077 -0.0271  0.0120  0.1719
  616BOLB   C2D14782  13.242  18.836  27.818 -0.1774 -0.0586 -0.2893
  616BOLB   C3D14783  12.743  18.675  27.811 -0.1747 -0.0970  0.2728
  616BOLB   C4D14784  12.374  18.736  27.621 -0.1136 -0.0664  0.4331
  617BOLB   NC114785  11.331  13.848  23.907 -0.0650 -0.0322 -0.1752
  617BOLB   PO114786  11.165  14.251  24.065  0.0062  0.1436  0.1543
  617BOLB   GL114787  11.207  14.420  24.496  0.0719 -0.1098  0.0705
  617BOLB   GL214788  11.005  14.720  24.620  0.4046  0.2155 -0.0094
  617BOLB   C1A14789  11.207  14.275  24.979  0.0401 -0.1022 -0.1486
  617BOLB   C2A14790  11.161  14.145  25.466 -0.0346  0.0492  0.0954
  617BOLB   C3A14791  10.891  14.302  25.766 -0.0780  0.1375 -0.0634
  617BOLB   C4A14792  10.562  14.133  26.061  0.0320 -0.0387  0.1037
  617BOLB   C1B14793  11.037  14.875  25.052 -0.3576  0.1339 -0.4219
  617BOLB   C2B14794  11.083  14.752  25.467  0.0426 -0.3205  0.0432
  617BOLB   C3B14795  11.275  14.577  25.796  0.3531 -0.1766  0.0463
  617BOLB   C4B14796  11.366  14.238  26.071 -0.2024 -0.0386  0.0280
  617BOLB   NC214797  10.392  13.405  28.476  0.2268 -0.2864  0.0318
  617BOLB   PO214798  10.660  13.752  28.468  0.2485 -0.0041 -0.1182
  617BOLB   GL314799  10.638  13.761  27.989 -0.2331 -0.1259  0.1765
  617BOLB   GL414800  10.460  13.481  27.965 -0.0841 -0.2520 -0.0262
  617BOLB   C1C14801  10.415  13.886  27.664 -0.2849  0.2244  0.1033
  617BOLB   C2C14802  10.375  13.816  27.159 -0.0786  0.1097 -0.0052
  617BOLB   C3C14803  10.353  13.690  26.763 -0.0392 -0.0457 -0.2222
  617BOLB   C4C14804  10.418  13.864  26.322 -0.0565 -0.3295  0.1334
  617BOLB   C1D14805  10.738  13.575  27.498 -0.0150 -0.3742 -0.0024
  617BOLB   C2D14806  10.898  13.745  27.123 -0.1331 -0.2427  0.0367
  617BOLB   C3D14807  10.935  13.862  26.767  0.0431  0.1455 -0.6131
  617BOLB   C4D14808  10.984  13.760  26.397 -0.0465 -0.2030  0.1268
  618BOLB   NC114809  19.360  13.572  23.282  0.0814  0.1362  0.1380
  618BOLB   PO114810  19.014  13.421  23.606 -0.2618  0.0019 -0.1136
  618BOLB   GL114811  19.033  13.355  24.016  0.3337 -0.3329  0.0678
  618BOLB   GL214812  18.817  13.573  24.153  0.1548 -0.1542  0.1268
  618BOLB   C1A14813  18.935  13.016  24.296  0.2612 -0.1102 -0.1662
  618BOLB   C2A14814  19.245  12.919  24.819 -0.2165  0.0125  0.5163
  618BOLB   C3A14815  19.399  12.646  25.101  0.3136  0.2486  0.1502
  618BOLB   C4A14816  19.450  12.711  25.473 -0.0594 -0.1707 -0.0722
  618BOLB   C1B14817  18.753  13.812  24.471  0.2195 -0.3382  0.2024
  618BOLB   C2B14818  18.877  13.792  24.851 -0.2386  0.1521 -0.0934
  618BOLB   C3B14819  18.874  13.867  25.137 -0.0357 -0.2964 -0.0167
  618BOLB   C4B14820  18.974  14.207  25.492 -0.0663 -0.2538  0.3701
  618BOLB   NC214821  19.753  13.740  27.624  0.0652  0.1852 -0.1846
  618BOLB   PO214822  19.338  13.432  27.660  0.0677  0.0876  0.1331
  618BOLB   GL314823  19.476  13.516  27.253  0.1008  0.0385 -0.7328
  618BOLB   GL414824  19.329  13.627  27.083 -0.1038  0.0173 -0.3805
  618BOLB   C1C14825  19.805  13.476  26.830 -0.1049  0.0962  0.1790
  618BOLB   C2C14826  19.696  13.427  26.468  0.0385  0.1195  0.0879
  618BOLB   C3C14827  19.515  13.296  26.100  0.1711  0.1462 -0.2724
  618BOLB   C4C14828  19.558  13.042  25.701 -0.0968 -0.2064  0.1892
  618BOLB   C1D14829  19.499  13.911  26.790  0.1925  0.1241 -0.2033
  618BOLB   C2D14830  19.482  14.166  26.366 -0.3900  0.2498  0.1312
  618BOLB   C3D14831  19.736  14.367  26.014 -0.1429 -0.2514 -0.0963
  618BOLB   C4D14832  19.900  14.038  25.745 -0.0753  0.3780 -0.2108
  619BOLB   NC114833  15.939  24.569  23.285 -0.0496  0.2132 -0.0306
  619BOLB   PO114834  16.238  24.394  23.149  0.0866 -0.0610 -0.0832
  619BOLB   GL114835  16.339  24.296  23.513  0.1003 -0.0760  0.0322
  619BOLB   GL214836  16.526  24.048  23.529 -0.2758  0.0505  0.0811
  619BOLB   C1A14837  16.511  24.437  23.918 -0.3046  0.3599 -0.1020
  619BOLB   C2A14838  16.670  24.571  24.339 -0.0921 -0.2824 -0.0638
  619BOLB   C3A14839  16.763  24.836  24.655  0.0144  0.2256  0.0434
  619BOLB   C4A14840  16.719  24.956  25.122  0.0582  0.0592 -0.3167
  619BOLB   C1B14841  16.604  23.832  23.954  0.2188 -0.1360 -0.0084
  619BOLB   C2B14842  16.694  24.053  24.356 -0.2977 -0.2090 -0.0737
  619BOLB   C3B14843  16.771  24.266  24.725 -0.1240 -0.6135 -0.0166
  619BOLB   C4B14844  16.876  24.513  24.981 -0.4577 -0.1234  0.0157
  619BOLB   NC214845  18.268  24.922  27.035  0.2524 -0.0268 -0.1762
  619BOLB   PO214846  17.740  24.910  27.063  0.0117 -0.0568  0.0937
  619BOLB   GL314847  17.850  25.008  26.710 -0.0215  0.3571 -0.0294
  619BOLB   GL414848  18.067  24.765  26.626 -0.1161  0.1659  0.0885
  619BOLB   C1C14849  17.672  24.773  26.336  0.1997  0.0165 -0.3182
  619BOLB   C2C14850  17.312  24.553  26.195  0.1004 -0.1878 -0.1693
  619BOLB   C3C14851  17.021  24.608  25.931  0.0587 -0.0355  0.3236
  619BOLB   C4C14852  16.710  24.662  25.552  0.0654  0.2947  0.3352
  619BOLB   C1D14853  18.137  24.294  26.598 -0.1490  0.2405 -0.2246
  619BOLB   C2D14854  17.908  23.927  26.378 -0.2423 -0.1500  0.0264
  619BOLB   C3D14855  17.852  23.760  26.014  0.1006 -0.0929  0.0018
  619BOLB   C4D14856  18.060  23.774  25.633  0.2100 -0.2109  0.1105
  620BOLB   NC114857  21.840  21.799  21.148 -0.1246  0.1933 -0.0171
  620BOLB   PO114858  21.577  21.888  21.561  0.1146 -0.0970 -0.2413
  620BOLB   GL114859  21.593  21.941  21.981  0.3692 -0.1415 -0.2424
  620BOLB   GL214860  21.317  22.057  22.037 -0.1888 -0.3383  0.2264
  620BOLB   C1A14861  21.711  22.214  22.287  0.2460 -0.1395  0.1222
  620BOLB   C2A14862  21.618  22.595  22.452 -0.0878 -0.0828 -0.2123
  620BOLB   C3A14863  21.774  22.893  22.781 -0.0374  0.1708  0.1136
  620BOLB   C4A14864  21.972  23.189  23.034  0.0877 -0.1800 -0.0332
  620BOLB   C1B14865  21.304  22.164  22.480  0.2545 -0.1807  0.1416
  620BOLB   C2B14866  21.296  22.446  22.835  0.2069 -0.0893  0.3031
  620BOLB   C3B14867  21.626  22.345  22.989 -0.2208  0.1035 -0.1324
  620BOLB   C4B14868  21.847  22.724  23.260 -0.0936  0.0821 -0.3744
  620BOLB   NC214869  23.554  24.924  22.847 -0.0934  0.0112  0.1816
  620BOLB   PO214870  23.925  24.670  22.720 -0.1684  0.2460  0.0114
  620BOLB   GL314871  23.503  24.430  22.562 -0.2443  0.0547 -0.0668
  620BOLB   GL414872  23.635  24.084  22.531  0.5577 -0.1510  0.2701
  620BOLB   C1C14873  23.098  24.277  22.693  0.3326 -0.5026  0.1272
  620BOLB   C2C14874  22.645  24.203  22.795  0.0971  0.0326  0.2043
  620BOLB   C3C14875  22.434  23.924  23.006  0.3049 -0.0732 -0.2285
  620BOLB   C4C14876  22.185  23.493  22.977  0.1331  0.0421  0.0209
  620BOLB   C1D14877  23.358  23.839  22.745 -0.1609 -0.2267 -0.0645
  620BOLB   C2D14878  22.962  23.882  22.941  0.2804  0.0658  0.0115
  620BOLB   C3D14879  22.641  23.550  22.916 -0.3288  0.1828 -0.0893
  620BOLB   C4D14880  22.582  23.135  23.201  0.0519 -0.1356 -0.0893
  621BOLB   NC114881  16.861  20.046  24.134 -0.1794 -0.0159 -0.0341
  621BOLB   PO114882  16.427  20.120  24.112 -0.2529 -0.1199 -0.1475
  621BOLB   GL114883  16.433  20.193  24.467 -0.0350  0.1539 -0.0823
  621BOLB   GL214884  16.716  20.344  24.570  0.0027 -0.0236  0.0018
  621BOLB   C1A14885  16.277  20.431  24.912 -0.0442  0.1429 -0.0676
  621BOLB   C2A14886  16.377  20.586  25.212  0.3112  0.0271  0.0800
  621BOLB   C3A14887  16.839  20.777  25.318 -0.1606 -0.3159 -0.1467
  621BOLB   C4A14888  17.190  20.750  25.595 -0.4149  0.2882  0.0097
  621BOLB   C1B14889  16.902  20.513  24.916  0.3614  0.0820  0.0456
  621BOLB   C2B14890  17.294  20.396  25.284 -0.4484 -0.0199  0.0279
  621BOLB   C3B14891  17.655  20.581  25.462  0.0665 -0.1575 -0.0219
  621BOLB   C4B14892  18.132  20.336  25.559  0.4296 -0.6885 -0.3635
  621BOLB   NC214893  17.545  21.888  28.187  0.2040  0.1041 -0.0474
  621BOLB   PO214894  17.146  21.783  27.907 -0.2027  0.1129 -0.2942
  621BOLB   GL314895  17.135  21.672  27.506 -0.1080  0.3697 -0.1357
  621BOLB   GL414896  16.837  21.545  27.601 -0.3233  0.0107  0.1231
  621BOLB   C1C14897  17.324  21.432  27.133  0.2555 -0.1322  0.0736
  621BOLB   C2C14898  17.124  21.230  26.756 -0.1739 -0.1285 -0.0679
  621BOLB   C3C14899  17.164  20.884  26.419  0.4057 -0.0852 -0.1306
  621BOLB   C4C14900  17.320  20.752  26.036  0.3624 -0.5170 -0.2809
  621BOLB   C1D14901  16.793  21.373  27.309  0.5084  0.0761 -0.2602
  621BOLB   C2D14902  16.832  21.523  26.953 -0.4646  0.0940  0.2093
  621BOLB   C3D14903  17.144  21.775  26.699  0.2171 -0.0135  0.1072
  621BOLB   C4D14904  17.468  22.104  26.810  0.1740 -0.2869  0.2985
  622BOLB   NC114905  13.174  19.580  24.400 -0.0726 -0.3186  0.0420
  622BOLB   PO114906  13.161  20.021  24.244  0.5788  0.1257 -0.1668
  622BOLB   GL114907  13.113  19.968  24.716  0.2369  0.1282  0.0565
  622BOLB   GL214908  13.404  20.111  24.859 -0.1256 -0.1427  0.3354
  622BOLB   C1A14909  12.896  20.035  25.144 -0.1952 -0.1181 -0.1056
  622BOLB   C2A14910  12.838  20.046  25.538  0.1188 -0.2329  0.1411
  622BOLB   C3A14911  12.532  20.224  25.820 -0.4926  0.2000  0.3721
  622BOLB   C4A14912  12.366  20.334  26.260  0.0379 -0.0249  0.0081
  622BOLB   C1B14913  13.518  19.987  25.218  0.2221 -0.0471 -0.1866
  622BOLB   C2B14914  13.632  20.157  25.549  0.2137  0.0645 -0.0431
  622BOLB   C3B14915  13.700  20.213  26.148  0.3462  0.1028  0.1837
  622BOLB   C4B14916  13.350  20.121  26.520  0.0612  0.0770 -0.0806
  622BOLB   NC214917  10.040  19.757  28.310  0.2354 -0.0538  0.0682
  622BOLB   PO214918  10.431  19.964  28.146 -0.0801  0.0058  0.2550
  622BOLB   GL314919  10.722  20.186  27.987 -0.2152  0.1383  0.0072
  622BOLB   GL414920  10.758  20.518  27.751 -0.0126  0.0007 -0.0766
  622BOLB   C1C14921  11.113  20.170  27.688 -0.3595  0.1111 -0.0122
  622BOLB   C2C14922  11.397  20.222  27.223  0.0950  0.1783 -0.0332
  622BOLB   C3C14923  11.845  20.235  27.009 -0.2028 -0.3907 -0.1895
  622BOLB   C4C14924  12.107  20.262  26.636  0.2814 -0.0497 -0.0792
  622BOLB   C1D14925  10.331  20.440  27.392  0.2906 -0.0485 -0.3309
  622BOLB   C2D14926   9.922  20.331  27.090  0.0049  0.0068 -0.2268
  622BOLB   C3D14927   9.983  20.504  26.661  0.1689  0.0992  0.1179
  622BOLB   C4D14928  10.054  20.708  26.324 -0.4313 -0.2642  0.2602
  623BOLB   NC114929  12.423  16.657  24.501  0.0014 -0.2840  0.0659
  623BOLB   PO114930  12.711  16.325  24.708 -0.0775  0.2192  0.0306
  623BOLB   GL114931  12.762  16.225  25.120  0.2882 -0.1668 -0.0369
  623BOLB   GL214932  12.641  16.431  25.385  0.0955  0.2406  0.0213
  623BOLB   C1A14933  12.661  15.943  25.324  0.0278 -0.2157 -0.0360
  623BOLB   C2A14934  12.409  15.982  25.597  0.0095 -0.0128  0.0072
  623BOLB   C3A14935  12.530  15.912  26.066 -0.2810 -0.1512  0.1139
  623BOLB   C4A14936  12.514  15.505  26.191  0.0431 -0.2364  0.2748
  623BOLB   C1B14937  12.765  16.700  25.686 -0.1447  0.0782  0.0239
  623BOLB   C2B14938  12.976  16.633  26.023 -0.5463 -0.2706  0.1456
  623BOLB   C3B14939  13.002  16.659  26.513 -0.1453  0.0397  0.1944
  623BOLB   C4B14940  13.263  16.648  26.984 -0.3007  0.0079 -0.0418
  623BOLB   NC214941  11.962  15.448  28.637  0.0800 -0.2497  0.0881
  623BOLB   PO214942  11.777  15.130  28.343  0.4548  0.1165  0.1274
  623BOLB   GL314943  11.923  15.341  27.933  0.1627 -0.3185  0.0979
  623BOLB   GL414944  11.971  15.614  27.746  0.4094  0.0878  0.1959
  623BOLB   C1C14945  12.181  15.246  27.476 -0.1774 -0.0149 -0.1531
  623BOLB   C2C14946  12.167  15.184  27.030 -0.0401 -0.0593  0.4632
  623BOLB   C3C14947  12.058  15.255  26.632  0.2167  0.0229 -0.0161
  623BOLB   C4C14948  12.264  15.247  26.228  0.0176  0.0964 -0.1102
  623BOLB   C1D14949  11.926  15.859  27.397 -0.0692  0.2380 -0.0240
  623BOLB   C2D14950  11.571  15.874  27.069  0.0615 -0.2385 -0.1510
  623BOLB   C3D14951  11.399  15.848  26.682 -0.0953 -0.1645 -0.2039
  623BOLB   C4D14952  11.110  15.989  26.429  0.0932  0.0648  0.0457
  624BOLB   NC114953  10.295  22.792  23.734  0.2177  0.0205 -0.0859
  624BOLB   PO114954  10.241  22.965  23.356  0.1608 -0.1052  0.0268
  624BOLB   GL114955  10.330  23.383  23.582  0.0652 -0.0634 -0.0235
  624BOLB   GL214956  10.661  23.505  23.652 -0.1397  0.1006 -0.4136
  624BOLB   C1A14957  10.425  23.432  24.065  0.3950  0.1765 -0.2403
  624BOLB   C2A14958  10.593  23.590  24.446  0.1135 -0.2756 -0.0046
  624BOLB   C3A14959  10.555  23.828  24.839  0.0753  0.1009  0.5760
  624BOLB   C4A14960  10.667  23.946  25.333  0.1399 -0.1644 -0.1299
  624BOLB   C1B14961  10.839  23.713  23.971  0.0663  0.1670  0.1658
  624BOLB   C2B14962  10.850  23.953  24.300  0.0129  0.0034 -0.1905
  624BOLB   C3B14963  11.139  24.095  24.674 -0.0164  0.2440 -0.2255
  624BOLB   C4B14964  11.373  24.287  25.017 -0.0415 -0.0062  0.0979
  624BOLB   NC214965  10.574  25.021  27.077  0.3055 -0.0006 -0.1004
  624BOLB   PO214966  10.316  25.371  26.903  0.4317 -0.0504  0.0150
  624BOLB   GL314967  10.467  25.007  26.633 -0.0122  0.4488 -0.2495
  624BOLB   GL414968  10.797  25.270  26.693  0.0711 -0.0433 -0.1968
  624BOLB   C1C14969  10.221  24.888  26.326 -0.0712 -0.0877 -0.3479
  624BOLB   C2C14970  10.265  24.478  26.102 -0.3378 -0.2725 -0.0549
  624BOLB   C3C14971  10.424  24.039  26.138 -0.0517 -0.2232 -0.2593
  624BOLB   C4C14972  10.569  23.895  25.765 -0.1044  0.0327  0.0755
  624BOLB   C1D14973  10.626  25.499  26.283  0.0541 -0.0571 -0.2137
  624BOLB   C2D14974  10.721  25.287  25.845  0.1795 -0.0751  0.2419
  624BOLB   C3D14975  10.462  25.405  25.461  0.1230 -0.0349 -0.0444
  624BOLB   C4D14976  10.420  25.759  25.311 -0.1728  0.1153 -0.0996
  625BOLB   NC114977  13.569  20.259  24.109 -0.1232  0.1057  0.0680
  625BOLB   PO114978  13.924  20.478  24.111 -0.1018 -0.1386  0.0941
  625BOLB   GL114979  13.784  20.521  24.505 -0.0870 -0.0037 -0.0816
  625BOLB   GL214980  13.970  20.614  24.625 -0.0638  0.1583  0.0560
  625BOLB   C1A14981  13.894  20.413  25.104  0.2031 -0.3750 -0.1846
  625BOLB   C2A14982  14.063  20.362  25.454 -0.0385  0.3960  0.2948
  625BOLB   C3A14983  14.259  20.285  25.858 -0.0060  0.0971 -0.3486
  625BOLB   C4A14984  14.262  20.123  26.332  0.1496  0.0367 -0.0566
  625BOLB   C1B14985  14.159  20.774  24.967 -0.0130  0.1150 -0.0542
  625BOLB   C2B14986  14.476  20.570  25.215  0.2227 -0.0031 -0.2146
  625BOLB   C3B14987  14.700  20.261  25.611 -0.0369  0.0559 -0.2956
  625BOLB   C4B14988  14.715  20.105  25.977  0.2635 -0.1090 -0.0846
  625BOLB   NC214989  13.695  20.191  28.828 -0.0641 -0.0180  0.2469
  625BOLB   PO214990  13.584  20.500  28.553 -0.1086  0.3492  0.1815
  625BOLB   GL314991  13.591  20.159  28.301 -0.0265 -0.2587 -0.0716
  625BOLB   GL414992  13.471  19.860  28.465  0.2609  0.0455  0.0791
  625BOLB   C1C14993  13.584  20.129  27.828 -0.1323  0.1299 -0.1304
  625BOLB   C2C14994  13.622  20.067  27.398 -0.0582 -0.1476 -0.0777
  625BOLB   C3C14995  13.787  20.240  27.048  0.3400  0.2273  0.5433
  625BOLB   C4C14996  13.900  19.955  26.670 -0.4122 -0.1696 -0.0329
  625BOLB   C1D14997  13.503  19.597  28.090 -0.0332  0.0864  0.3043
  625BOLB   C2D14998  13.475  19.316  27.828 -0.0527 -0.1138  0.1817
  625BOLB   C3D14999  13.538  19.539  27.431  0.3139  0.2315 -0.0353
  625BOLB   C4D15000  13.743  19.712  27.035  0.1861 -0.0297  0.1376
  626BOLB   NC115001   9.827  21.352  23.865 -0.3505 -0.3539  0.1201
  626BOLB   PO115002   9.902  21.757  24.057  0.1090  0.0229 -0.0823
  626BOLB   GL115003   9.574  21.621  24.282 -0.4315  0.0572 -0.1462
  626BOLB   GL215004   9.121  21.767  24.323  0.2843  0.4748 -0.0743
  626BOLB   C1A15005   9.528  21.593  24.697 -0.3569 -0.1162  0.2082
  626BOLB   C2A15006   9.379  21.878  25.051  0.0021 -0.1873 -0.4101
  626BOLB   C3A15007   9.266  22.257  25.381  0.0232  0.0729 -0.0221
  626BOLB   C4A15008   9.159  22.047  25.714 -0.0015 -0.2622 -0.2355
  626BOLB   C1B15009   9.042  21.697  24.740 -0.1699  0.0815  0.2276
  626BOLB   C2B15010   9.113  21.480  25.170 -0.2896  0.1462  0.2108
  626BOLB   C3B15011   9.150  21.453  25.598 -0.0179 -0.1184  0.0392
  626BOLB   C4B15012   9.137  21.518  25.989  0.0054  0.2646 -0.0057
  626BOLB   NC215013   8.896  22.206  27.655 -0.3936 -0.2118 -0.3273
  626BOLB   PO215014   8.876  21.819  27.906  0.2734 -0.0241 -0.1560
  626BOLB   GL315015   9.195  21.799  27.648  0.0774  0.0726  0.1873
  626BOLB   GL415016   9.547  21.773  27.657  0.1729  0.2428 -0.0445
  626BOLB   C1C15017   9.209  21.811  27.231  0.4063 -0.1435 -0.0339
  626BOLB   C2C15018   9.132  21.862  26.861  0.1040 -0.1760 -0.2049
  626BOLB   C3C15019   9.039  21.946  26.429 -0.1971  0.0190  0.0736
  626BOLB   C4C15020   8.912  22.035  25.956  0.0577  0.1109 -0.1427
  626BOLB   C1D15021   9.589  21.409  27.430  0.3029  0.3069 -0.0326
  626BOLB   C2D15022   9.828  21.277  27.142  0.0545  0.1366 -0.1541
  626BOLB   C3D15023  10.196  21.102  26.846 -0.1714  0.1364 -0.1143
  626BOLB   C4D15024  10.305  21.120  26.462  0.1662  0.0992  0.1516
  627BOLB   NC115025  17.143  16.043  24.426 -0.0628  0.0417 -0.2288
  627BOLB   PO115026  17.532  16.304  24.699  0.0886 -0.3618 -0.0355
  627BOLB   GL115027  17.803  16.287  24.969 -0.1403 -0.2047  0.1256
  627BOLB   GL215028  18.175  16.280  24.854  0.1015  0.0030  0.0889
  627BOLB   C1A15029  17.734  15.997  25.398  0.1238  0.0953 -0.0440
  627BOLB   C2A15030  17.823  15.850  25.861  0.0594 -0.5187  0.1841
  627BOLB   C3A15031  18.001  15.706  26.240 -0.1492  0.2734 -0.1699
  627BOLB   C4A15032  18.107  15.690  26.610 -0.3293  0.2946 -0.0102
  627BOLB   C1B15033  18.227  16.053  25.290 -0.1059 -0.3087 -0.0397
  627BOLB   C2B15034  18.255  15.939  25.617 -0.0960 -0.0781  0.1120
  627BOLB   C3B15035  18.405  15.727  25.857  0.3456 -0.0260  0.0200
  627BOLB   C4B15036  18.652  15.453  25.941  0.0138 -0.0117  0.1752
  627BOLB   NC215037  19.169  14.420  27.613 -0.0954  0.2441 -0.0527
  627BOLB   PO215038  19.585  14.386  27.549  0.0909  0.0963  0.0782
  627BOLB   GL315039  19.420  14.608  27.199  0.6583  0.2432 -0.1208
  627BOLB   GL415040  19.316  14.219  27.128  0.0384 -0.2364  0.1080
  627BOLB   C1C15041  19.216  14.978  27.029  0.1454  0.0097  0.2630
  627BOLB   C2C15042  18.751  15.131  26.894  0.0767 -0.2926 -0.0863
  627BOLB   C3C15043  18.386  15.204  27.103  0.0131 -0.2140  0.0363
  627BOLB   C4C15044  18.144  15.466  27.008  0.1861 -0.0135 -0.0638
  627BOLB   C1D15045  18.951  14.435  26.938 -0.1152 -0.0106 -0.0004
  627BOLB   C2D15046  18.985  14.713  26.536 -0.1493  0.2121 -0.1676
  627BOLB   C3D15047  19.121  15.218  26.527  0.1336  0.2173 -0.1616
  627BOLB   C4D15048  19.113  15.636  26.319  0.1236  0.2509  0.1393
  628BOLB   NC115049  20.214  10.604  21.008 -0.1476  0.5355 -0.1409
  628BOLB   PO115050  20.105  10.569  21.474 -0.0429  0.2888 -0.0785
  628BOLB   GL115051  20.291  10.223  21.772 -0.1364 -0.2273  0.0905
  628BOLB   GL215052  20.597  10.133  21.793  0.1052  0.4845 -0.1159
  628BOLB   C1A15053  20.396   9.855  22.099 -0.2331  0.0952 -0.0754
  628BOLB   C2A15054  20.494   9.589  22.419  0.1150  0.1212  0.4456
  628BOLB   C3A15055  20.571   9.379  22.732  0.1352 -0.2238  0.0666
  628BOLB   C4A15056  20.619   9.347  23.149 -0.0247 -0.0759  0.2938
  628BOLB   C1B15057  20.977   9.914  21.913 -0.1789  0.1366 -0.0648
  628BOLB   C2B15058  21.248   9.733  22.243 -0.2054  0.1219 -0.4626
  628BOLB   C3B15059  21.494   9.489  22.602 -0.1288  0.3210  0.3620
  628BOLB   C4B15060  21.558   9.327  23.088  0.0373  0.2432 -0.1464
  628BOLB   NC215061  21.838   8.952  25.450  0.2955 -0.0359  0.1741
  628BOLB   PO215062  21.552   8.621  25.296  0.2806  0.2939  0.0544
  628BOLB   GL315063  21.316   8.674  24.958  0.3071 -0.2300  0.2412
  628BOLB   GL415064  21.010   8.510  24.810  0.0060 -0.1472  0.3409
  628BOLB   C1C15065  21.431   8.858  24.561 -0.2635 -0.0417 -0.0490
  628BOLB   C2C15066  21.292   9.183  24.371 -0.0520  0.1320  0.0931
  628BOLB   C3C15067  21.053   9.294  23.944  0.0848 -0.0179 -0.1416
  628BOLB   C4C15068  21.001   9.245  23.489  0.2392  0.0016  0.5977
  628BOLB   C1D15069  20.662   8.864  24.726 -0.0355  0.1273  0.1302
  628BOLB   C2D15070  20.534   9.251  24.583 -0.2873  0.0483 -0.4470
  628BOLB   C3D15071  20.467   9.362  24.229 -0.2654 -0.0982  0.4178
  628BOLB   C4D15072  20.567   9.432  23.818 -0.0731 -0.2435 -0.3290
  629BOLB   NC115073   9.715  22.318  23.276 -0.4231 -0.1968 -0.2967
  629BOLB   PO115074   9.899  22.614  23.472 -0.1206  0.4686 -0.0518
  629BOLB   GL115075   9.854  22.783  23.954  0.0697  0.1326  0.1238
  629BOLB   GL215076   9.836  23.087  24.064  0.0829  0.0025  0.3158
  629BOLB   C1A15077   9.859  22.602  24.380  0.0396  0.4347  0.1223
  629BOLB   C2A15078  10.024  22.666  24.790 -0.5068 -0.0064  0.4572
  629BOLB   C3A15079  10.251  22.581  25.063  0.0302  0.2665  0.0242
  629BOLB   C4A15080  10.246  22.604  25.543 -0.0363 -0.0420  0.2380
  629BOLB   C1B15081  10.141  23.014  24.329  0.2334 -0.2609 -0.3845
  629BOLB   C2B15082  10.371  23.039  24.745 -0.1982 -0.2657  0.3181
  629BOLB   C3B15083  10.460  23.022  25.120  0.2686  0.0908  0.1583
  629BOLB   C4B15084  10.356  23.137  25.458 -0.3796  0.2132  0.1088
  629BOLB   NC215085   9.735  22.910  27.779 -0.1684 -0.0421 -0.0352
  629BOLB   PO215086   9.259  22.939  27.790 -0.1190  0.0030 -0.1404
  629BOLB   GL315087   9.504  22.953  27.342  0.0218  0.1169 -0.3520
  629BOLB   GL415088   9.436  23.249  27.293 -0.1637  0.4225  0.0574
  629BOLB   C1C15089   9.756  22.739  27.100  0.2861 -0.0212  0.0016
  629BOLB   C2C15090   9.767  22.482  26.796  0.0689 -0.1235  0.1900
  629BOLB   C3C15091   9.773  22.559  26.343  0.4563  0.1121  0.1582
  629BOLB   C4C15092   9.843  22.538  25.837  0.1095 -0.1710 -0.1601
  629BOLB   C1D15093   9.734  23.222  27.003  0.1513 -0.2006  0.0179
  629BOLB   C2D15094   9.917  22.995  26.687  0.3775 -0.3441 -0.2537
  629BOLB   C3D15095  10.120  22.950  26.336  0.0320 -0.2681  0.0152
  629BOLB   C4D15096  10.163  22.910  25.952 -0.1539  0.1389 -0.0668
  630BOLB   NC115097  13.910  24.031  22.442  0.2475 -0.1616  0.4160
  630BOLB   PO115098  13.946  24.131  22.875 -0.1899 -0.2594  0.0634
  630BOLB   GL115099  13.935  24.243  23.268  0.2023  0.3070  0.0194
  630BOLB   GL215100  13.938  23.926  23.588  0.3115  0.2415 -0.3469
  630BOLB   C1A15101  13.691  24.390  23.720  0.2215 -0.0258 -0.1061
  630BOLB   C2A15102  13.716  24.478  24.123 -0.1345 -0.2495  0.0105
  630BOLB   C3A15103  13.635  24.489  24.577  0.0607  0.0366 -0.0697
  630BOLB   C4A15104  13.758  24.493  25.068  0.1270 -0.2672 -0.1212
  630BOLB   C1B15105  13.914  24.046  24.009  0.2573 -0.0025  0.2925
  630BOLB   C2B15106  14.010  24.179  24.447  0.1223  0.1797 -0.0843
  630BOLB   C3B15107  13.888  24.047  24.875 -0.2669 -0.0467 -0.2577
  630BOLB   C4B15108  13.584  24.038  25.224  0.1691  0.0763  0.0740
  630BOLB   NC215109  14.136  24.491  27.656 -0.0659  0.0012 -0.0431
  630BOLB   PO215110  13.813  24.505  27.344  0.1056  0.0044  0.3460
  630BOLB   GL315111  13.644  24.300  27.092  0.1574  0.3665 -0.0953
  630BOLB   GL415112  13.277  24.307  27.072 -0.0741 -0.1813 -0.0229
  630BOLB   C1C15113  13.459  24.286  26.597 -0.1871 -0.4030  0.3308
  630BOLB   C2C15114  13.558  24.233  26.132 -0.0541  0.3794  0.0944
  630BOLB   C3C15115  13.740  24.272  25.754 -0.0504  0.1540 -0.0589
  630BOLB   C4C15116  13.927  24.304  25.411  0.0561  0.0201  0.0643
  630BOLB   C1D15117  13.167  23.890  26.857 -0.5251  0.2863  0.0025
  630BOLB   C2D15118  12.920  23.559  26.658 -0.2503  0.0573  0.0273
  630BOLB   C3D15119  12.787  23.379  26.309 -0.1097  0.2708 -0.0649
  630BOLB   C4D15120  12.819  23.308  25.858 -0.1177  0.0809 -0.2558
  631BOLB   NC115121  17.516  13.438  24.023 -0.4555  0.3537 -0.0964
  631BOLB   PO115122  17.787  13.926  24.101  0.1475 -0.5276 -0.1021
  631BOLB   GL115123  17.820  13.738  24.504  0.1051  0.4340  0.2076
  631BOLB   GL215124  17.922  13.377  24.515 -0.1136 -0.2178 -0.0884
  631BOLB   C1A15125  17.899  13.689  25.020 -0.1682  0.0931 -0.1217
  631BOLB   C2A15126  18.120  13.445  25.298 -0.1953 -0.0059  0.1579
  631BOLB   C3A15127  18.339  13.366  25.592 -0.0120  0.2081  0.0190
  631BOLB   C4A15128  18.554  13.483  25.909  0.0966  0.1675  0.1521
  631BOLB   C1B15129  18.193  13.282  24.840  0.1852  0.2113  0.3550
  631BOLB   C2B15130  18.324  12.979  25.175 -0.3701 -0.2183 -0.0014
  631BOLB   C3B15131  18.420  12.895  25.528  0.0650  0.1453 -0.0670
  631BOLB   C4B15132  18.425  13.006  25.907 -0.2685 -0.3512  0.1001
  631BOLB   NC215133  20.419  12.850  27.113  0.0044  0.1193 -0.0912
  631BOLB   PO215134  20.674  12.433  26.974  0.0389  0.0191 -0.2610
  631BOLB   GL315135  20.299  12.609  26.695 -0.0876 -0.1900 -0.3116
  631BOLB   GL415136  20.006  12.446  26.665  0.1829 -0.0810 -0.0368
  631BOLB   C1C15137  20.045  12.954  26.582  0.3812 -0.2143 -0.0401
  631BOLB   C2C15138  19.639  12.925  26.425  0.3077  0.2207  0.3511
  631BOLB   C3C15139  19.132  13.091  26.445  0.1901  0.1915  0.1545
  631BOLB   C4C15140  18.717  13.350  26.282  0.3051  0.1458  0.0033
  631BOLB   C1D15141  20.235  12.632  26.224 -0.0472 -0.0406  0.0411
  631BOLB   C2D15142  20.264  12.527  25.754  0.2756  0.0938 -0.0610
  631BOLB   C3D15143  20.390  12.485  25.365 -0.1566 -0.0399 -0.1900
  631BOLB   C4D15144  20.646  12.275  25.016  0.1078 -0.2982  0.3405
  632BOLB   NC115145  21.339  10.993  21.510 -0.3618 -0.2174 -0.1352
  632BOLB   PO115146  21.597  11.465  21.701 -0.0291  0.0180 -0.0228
  632BOLB   GL115147  21.855  11.381  22.006  0.0115 -0.0103  0.3158
  632BOLB   GL215148  21.801  11.616  22.253 -0.5376  0.0716  0.1945
  632BOLB   C1A15149  22.273  11.487  22.430  0.2144  0.1617  0.0604
  632BOLB   C2A15150  22.062  11.521  22.925  0.0426  0.1489 -0.0331
  632BOLB   C3A15151  22.101  11.416  23.343 -0.3125  0.2149  0.2542
  632BOLB   C4A15152  21.938  11.050  23.333 -0.1195 -0.1449 -0.1658
  632BOLB   C1B15153  21.792  11.249  22.512  0.2142 -0.1252  0.0089
  632BOLB   C2B15154  21.806  10.917  22.864  0.0513  0.3311 -0.0620
  632BOLB   C3B15155  21.968  10.641  23.084 -0.1139 -0.2519  0.0004
  632BOLB   C4B15156  22.332  10.552  23.315 -0.0041 -0.2914  0.0468
  632BOLB   NC215157  22.181   9.159  25.131 -0.2517 -0.3328 -0.0227
  632BOLB   PO215158  21.834   9.388  25.205  0.1983 -0.0301  0.1476
  632BOLB   GL315159  21.668   9.578  24.860  0.4705 -0.3853  0.0274
  632BOLB   GL415160  21.713   9.331  24.725  0.0681  0.1243  0.0637
  632BOLB   C1C15161  21.851   9.862  24.571 -0.2578 -0.3651 -0.1691
  632BOLB   C2C15162  21.910  10.268  24.309 -0.0641 -0.0472 -0.0312
  632BOLB   C3C15163  22.014  10.388  23.872 -0.2674  0.2680 -0.1168
  632BOLB   C4C15164  21.988  10.765  23.738 -0.0853 -0.1807  0.1957
  632BOLB   C1D15165  21.660   9.449  24.301 -0.0984 -0.1094 -0.0193
  632BOLB   C2D15166  21.675   9.463  23.826 -0.1102 -0.0545  0.2626
  632BOLB   C3D15167  21.894   9.168  23.573  0.0777 -0.0029 -0.2604
  632BOLB   C4D15168  22.139   8.826  23.272  0.2536 -0.0204  0.3305
  633BOLB   NC115169  10.458  18.867  23.542 -0.1674 -0.0107 -0.1860
  633BOLB   PO115170  10.357  19.086  23.958  0.2820 -0.1763  0.0436
  633BOLB   GL115171  10.254  19.218  24.334  0.0705  0.0346  0.0386
  633BOLB   GL215172  10.522  19.200  24.674  0.1924 -0.0090 -0.3478
  633BOLB   C1A15173  10.058  19.169  24.739 -0.1592  0.0454  0.1676
  633BOLB   C2A15174  10.080  19.127  25.218  0.2924  0.0598 -0.2401
  633BOLB   C3A15175   9.951  19.104  25.671 -0.2355 -0.0889 -0.0962
  633BOLB   C4A15176   9.854  18.938  26.054  0.1686 -0.0934 -0.2895
  633BOLB   C1B15177  10.548  19.227  25.054  0.3068  0.0343 -0.0691
  633BOLB   C2B15178  10.556  19.053  25.443 -0.0031  0.3433  0.4468
  633BOLB   C3B15179  10.451  18.983  25.927  0.3051  0.1975  0.1725
  633BOLB   C4B15180  10.404  18.766  26.259 -0.3837  0.0678 -0.1083
  633BOLB   NC215181   7.931  18.646  27.608 -0.1298 -0.3265 -0.2342
  633BOLB   PO215182   7.933  18.915  27.830  0.1119 -0.3915  0.1278
  633BOLB   GL315183   8.157  19.104  27.551 -0.0255  0.0163 -0.1859
  633BOLB   GL415184   8.107  19.042  27.232 -0.2430  0.0456  0.1182
  633BOLB   C1C15185   8.592  18.874  27.476 -0.0247 -0.2391  0.1451
  633BOLB   C2C15186   9.097  18.903  27.353 -0.2933  0.1467 -0.3168
  633BOLB   C3C15187   9.409  19.062  26.908  0.0262 -0.0946  0.0135
  633BOLB   C4C15188   9.708  19.049  26.584  0.1550 -0.0802  0.1339
  633BOLB   C1D15189   8.266  19.260  26.902 -0.0093 -0.0601  0.3745
  633BOLB   C2D15190   8.539  19.333  26.587 -0.0802  0.1673  0.1992
  633BOLB   C3D15191   8.854  19.714  26.522  0.0558  0.0954  0.2630
  633BOLB   C4D15192   9.216  20.013  26.489 -0.2998  0.1118  0.1370
  634BOLB   NC115193   9.595  20.226  24.238  0.0429 -0.2614  0.3081
  634BOLB   PO115194   9.627  19.864  24.052  0.2247 -0.1981 -0.1771
  634BOLB   GL115195   9.614  19.704  24.385  0.2101 -0.2372 -0.3180
  634BOLB   GL215196   9.879  19.614  24.538 -0.4478  0.1561  0.1869
  634BOLB   C1A15197   9.565  19.725  24.921  0.0253  0.1782  0.2001
  634BOLB   C2A15198   9.745  19.627  25.292 -0.0041  0.0049  0.0529
  634BOLB   C3A15199   9.779  19.558  25.729 -0.0972  0.3040 -0.0297
  634BOLB   C4A15200   9.606  19.513  26.207  0.0194  0.3055  0.1899
  634BOLB   C1B15201  10.150  19.638  24.923  0.1195 -0.2095  0.0924
  634BOLB   C2B15202  10.295  19.545  25.378  0.0052  0.0610  0.1502
  634BOLB   C3B15203  10.280  19.457  25.854 -0.0148  0.0443 -0.0780
  634BOLB   C4B15204  10.181  19.227  26.304 -0.0157  0.2675  0.2208
  634BOLB   NC215205   7.345  19.863  27.866 -0.1481 -0.0078 -0.1933
  634BOLB   PO215206   7.817  19.939  27.700 -0.2139 -0.4031  0.5099
  634BOLB   GL315207   8.248  19.858  27.450  0.0222  0.2306 -0.0239
  634BOLB   GL415208   8.510  19.941  27.654  0.0566 -0.2248 -0.0598
  634BOLB   C1C15209   8.415  19.510  27.422  0.1051  0.0375 -0.3411
  634BOLB   C2C15210   8.713  19.212  27.121 -0.0066 -0.2944 -0.0760
  634BOLB   C3C15211   8.991  19.271  26.755 -0.0113  0.2102  0.0473
  634BOLB   C4C15212   9.340  19.352  26.496  0.1508  0.0101  0.0366
  634BOLB   C1D15213   8.813  19.778  27.374  0.1900  0.0709 -0.0586
  634BOLB   C2D15214   8.674  19.675  26.963  0.3579 -0.2338  0.1261
  634BOLB   C3D15215   8.290  19.804  26.864  0.1685 -0.4359  0.0651
  634BOLB   C4D15216   7.849  19.771  26.880 -0.0296  0.2704 -0.3375
  635BOLB   NC115217  14.029  21.426  24.002 -0.0959 -0.2025 -0.2485
  635BOLB   PO115218  13.909  21.781  24.142  0.2206 -0.0172  0.3023
  635BOLB   GL115219  14.205  22.092  24.354 -0.0429 -0.0537 -0.2718
  635BOLB   GL215220  14.517  22.309  24.399  0.0738  0.2757 -0.0801
  635BOLB   C1A15221  14.245  22.248  24.841  0.1694  0.4351  0.1214
  635BOLB   C2A15222  14.161  22.173  25.295  0.0521 -0.0080  0.0523
  635BOLB   C3A15223  14.370  22.326  25.639  0.1379 -0.2397  0.2615
  635BOLB   C4A15224  14.528  22.593  26.010  0.1240 -0.0269  0.3725
  635BOLB   C1B15225  14.754  22.339  24.784  0.2579 -0.0743  0.1212
  635BOLB   C2B15226  14.627  22.565  25.193 -0.1649 -0.0246  0.1283
  635BOLB   C3B15227  14.711  22.847  25.585 -0.0647  0.1630 -0.4497
  635BOLB   C4B15228  14.615  23.180  25.871 -0.2792 -0.0762  0.0979
  635BOLB   NC215229  13.440  23.401  28.091  0.2127  0.0502  0.0589
  635BOLB   PO215230  13.815  23.216  27.914  0.2360  0.2036 -0.4033
  635BOLB   GL315231  13.821  23.063  27.608  0.5040 -0.0408  0.0846
  635BOLB   GL415232  13.898  23.314  27.430  0.0148 -0.1367  0.0469
  635BOLB   C1C15233  13.875  22.651  27.387 -0.1210  0.1352 -0.1408
  635BOLB   C2C15234  14.105  22.342  27.286  0.0946  0.0207 -0.2939
  635BOLB   C3C15235  14.155  22.319  26.847 -0.2468  0.3883 -0.3336
  635BOLB   C4C15236  14.465  22.533  26.488 -0.0654  0.0165  0.0035
  635BOLB   C1D15237  14.205  23.060  27.362 -0.0057  0.0091  0.0885
  635BOLB   C2D15238  14.229  22.835  27.047 -0.0263  0.1380  0.0936
  635BOLB   C3D15239  14.298  22.950  26.681  0.0448  0.3477  0.3824
  635BOLB   C4D15240  14.240  23.042  26.248  0.1623 -0.0753  0.2250
  636BOLB   NC115241  19.987  22.072  22.583 -0.1083 -0.0136 -0.3725
  636BOLB   PO115242  19.968  22.273  22.978 -0.4513  0.0858  0.1605
  636BOLB   GL115243  20.248  22.508  23.222  0.2290 -0.0434 -0.3290
  636BOLB   GL215244  20.430  22.714  23.035  0.1652 -0.4480  0.0500
  636BOLB   C1A15245  20.412  22.654  23.649  0.0049 -0.2404 -0.2714
  636BOLB   C2A15246  20.450  22.904  23.961  0.1339  0.1107  0.3398
  636BOLB   C3A15247  20.757  23.216  24.121 -0.1620 -0.0020  0.0691
  636BOLB   C4A15248  21.132  23.361  24.255  0.0297  0.0227 -0.1799
  636BOLB   C1B15249  20.798  22.854  23.363 -0.0211  0.1803  0.0531
  636BOLB   C2B15250  20.947  23.014  23.736 -0.2928  0.1276 -0.0499
  636BOLB   C3B15251  21.361  23.085  23.916 -0.2476  0.0871 -0.0315
  636BOLB   C4B15252  21.653  23.230  24.245  0.0020 -0.0786 -0.3252
  636BOLB   NC215253  21.575  23.095  26.316  0.4220  0.1212  0.2822
  636BOLB   PO215254  21.864  22.792  26.290 -0.0771  0.1028  0.1014
  636BOLB   GL315255  21.532  22.623  26.020 -0.1800 -0.2290  0.2214
  636BOLB   GL415256  21.803  22.548  25.852 -0.2381  0.0201 -0.0375
  636BOLB   C1C15257  21.257  22.570  25.611 -0.2964  0.1528 -0.2165
  636BOLB   C2C15258  21.160  22.848  25.397  0.2184  0.0296 -0.2543
  636BOLB   C3C15259  21.145  23.022  24.920 -0.0243  0.1401  0.0066
  636BOLB   C4C15260  21.237  23.255  24.568  0.0884 -0.0742 -0.0391
  636BOLB   C1D15261  21.682  22.840  25.499 -0.1830 -0.4030  0.0339
  636BOLB   C2D15262  21.546  23.116  25.221  0.1303  0.0014 -0.0828
  636BOLB   C3D15263  21.474  23.568  24.964  0.0854 -0.0875 -0.0667
  636BOLB   C4D15264  21.362  23.745  24.576 -0.2985 -0.1720  0.0172
  637BOLB   NC115265  11.857  13.742  24.355  0.1269 -0.2541  0.1487
  637BOLB   PO115266  11.958  13.312  24.415  0.0094  0.0657 -0.1053
  637BOLB   GL115267  11.634  13.068  24.739  0.1283 -0.0403 -0.0010
  637BOLB   GL215268  11.306  13.161  24.777 -0.0580 -0.0286 -0.0295
  637BOLB   C1A15269  11.604  12.877  25.112 -0.1649  0.0735  0.1030
  637BOLB   C2A15270  11.473  12.648  25.440  0.3239  0.0598  0.0177
  637BOLB   C3A15271  11.151  12.659  25.789 -0.0862 -0.0354 -0.1051
  637BOLB   C4A15272  11.146  12.758  26.225  0.4431 -0.1340 -0.2135
  637BOLB   C1B15273  11.185  13.270  25.174  0.0543  0.2184 -0.0774
  637BOLB   C2B15274  11.378  13.144  25.582  0.0167 -0.1517  0.0269
  637BOLB   C3B15275  11.670  12.898  25.861 -0.0710  0.0554 -0.1584
  637BOLB   C4B15276  11.585  12.562  26.094 -0.1258  0.0134  0.1268
  637BOLB   NC215277  11.153  11.713  28.142 -0.2782  0.0778  0.3826
  637BOLB   PO215278  11.547  11.729  27.943 -0.3696  0.2187  0.3558
  637BOLB   GL315279  11.421  11.895  27.622 -0.0503  0.1692  0.0267
  637BOLB   GL415280  11.490  11.688  27.431 -0.0548 -0.7103  0.1976
  637BOLB   C1C15281  11.203  12.143  27.400 -0.1976  0.0281 -0.1381
  637BOLB   C2C15282  11.037  12.564  27.322 -0.1751  0.1840 -0.1299
  637BOLB   C3C15283  11.292  12.744  27.091  0.1176 -0.4680 -0.0640
  637BOLB   C4C15284  11.344  12.775  26.687  0.0254  0.0834 -0.1115
  637BOLB   C1D15285  11.736  11.988  27.316  0.3101 -0.4978  0.0637
  637BOLB   C2D15286  11.696  12.411  27.184  0.1763 -0.3892  0.0292
  637BOLB   C3D15287  11.924  12.772  27.069  0.4395  0.1844 -0.2481
  637BOLB   C4D15288  11.672  13.119  26.867 -0.2636 -0.0926  0.1384
  638BOLB   NC115289  12.468  19.338  23.941  0.1567 -0.1295  0.2100
  638BOLB   PO115290  12.324  19.612  24.314  0.2436 -0.0158  0.2473
  638BOLB   GL115291  12.265  19.598  24.688 -0.3336  0.1201  0.2971
  638BOLB   GL215292  12.023  19.648  24.950 -0.0270 -0.3791  0.0558
  638BOLB   C1A15293  12.470  19.522  25.029  0.1053  0.0199  0.2276
  638BOLB   C2A15294  12.661  19.623  25.363  0.2264  0.0824  0.2664
  638BOLB   C3A15295  12.582  19.679  25.828  0.0056 -0.1435 -0.0511
  638BOLB   C4A15296  12.448  19.667  26.297  0.0756 -0.0292  0.1271
  638BOLB   C1B15297  12.100  19.520  25.352 -0.1925  0.2353 -0.1956
  638BOLB   C2B15298  12.170  19.480  25.701 -0.0240  0.1411 -0.1113
  638BOLB   C3B15299  12.079  19.413  26.104  0.1108  0.4057 -0.0201
  638BOLB   C4B15300  12.068  19.319  26.503 -0.0489  0.0561  0.0799
  638BOLB   NC215301  12.520  19.244  28.372  0.2110 -0.0448 -0.0206
  638BOLB   PO215302  12.834  19.323  28.553 -0.1675 -0.1191  0.0628
  638BOLB   GL315303  12.891  19.640  28.358 -0.1297 -0.1914 -0.2465
  638BOLB   GL415304  12.948  19.904  28.544 -0.1610 -0.0879  0.2016
  638BOLB   C1C15305  12.717  19.670  27.868  0.1839 -0.0631 -0.3186
  638BOLB   C2C15306  12.526  19.918  27.487  0.1852 -0.1901 -0.1985
  638BOLB   C3C15307  12.346  20.000  27.075  0.2314  0.0239 -0.0407
  638BOLB   C4C15308  12.458  19.892  26.657 -0.3571 -0.1438 -0.0509
  638BOLB   C1D15309  13.159  20.106  28.064 -0.0152 -0.0558  0.2141
  638BOLB   C2D15310  13.191  19.787  27.773  0.1136 -0.2118 -0.3500
  638BOLB   C3D15311  13.010  19.543  27.437 -0.2054 -0.0548  0.1673
  638BOLB   C4D15312  12.739  19.607  27.147  0.4300 -0.0299 -0.0759
  639BOLB   NC115313  16.618  15.412  23.563  0.1885  0.4845 -0.3407
  639BOLB   PO115314  16.682  15.110  23.958  0.0793 -0.1067 -0.0594
  639BOLB   GL115315  16.825  14.992  24.323 -0.0568 -0.2829  0.0052
  639BOLB   GL215316  16.553  14.939  24.462 -0.1190  0.3209  0.2558
  639BOLB   C1A15317  17.199  14.939  24.699 -0.1332 -0.4487  0.3091
  639BOLB   C2A15318  17.309  15.032  25.134  0.1706  0.1151 -0.1194
  639BOLB   C3A15319  17.619  15.055  25.367  0.1252  0.0025 -0.2910
  639BOLB   C4A15320  17.681  15.020  25.778  0.0316  0.2582  0.0730
  639BOLB   C1B15321  16.691  15.005  24.877 -0.2380  0.0593  0.0188
  639BOLB   C2B15322  16.809  15.082  25.197 -0.1588  0.0241 -0.2647
  639BOLB   C3B15323  16.592  14.968  25.682  0.1592  0.5075  0.6578
  639BOLB   C4B15324  16.417  14.837  26.046 -0.2843  0.0938 -0.0627
  639BOLB   NC215325  19.041  14.713  28.216 -0.0204  0.1733  0.2956
  639BOLB   PO215326  18.772  14.512  27.886 -0.2118  0.1661 -0.3212
  639BOLB   GL315327  18.747  14.804  27.574  0.3578 -0.0252 -0.1474
  639BOLB   GL415328  19.048  14.902  27.482 -0.2381  0.3400 -0.1561
  639BOLB   C1C15329  18.610  14.737  27.172  0.0655  0.3420  0.0646
  639BOLB   C2C15330  18.353  14.725  26.849  0.2867  0.2575  0.0691
  639BOLB   C3C15331  18.105  14.728  26.539  0.1648  0.3141  0.0643
  639BOLB   C4C15332  17.806  14.930  26.178  0.0475 -0.2719  0.2386
  639BOLB   C1D15333  18.794  15.303  27.367 -0.1325 -0.1080  0.2223
  639BOLB   C2D15334  18.437  15.609  27.386 -0.0136 -0.1412  0.0846
  639BOLB   C3D15335  18.316  15.985  27.215  0.0987 -0.0027  0.1324
  639BOLB   C4D15336  18.430  16.161  26.858 -0.1309 -0.0781  0.2372
  640BOLB   NC115337  10.589   8.788  22.607  0.3214 -0.0020 -0.0351
  640BOLB   PO115338  10.732   8.780  23.158 -0.1159  0.0669  0.2146
  640BOLB   GL115339  10.920   9.160  23.395 -0.1759 -0.1472 -0.4599
  640BOLB   GL215340  10.689   9.477  23.308 -0.0509 -0.0238 -0.1963
  640BOLB   C1A15341  11.021   9.302  23.804  0.3392 -0.2139 -0.2549
  640BOLB   C2A15342  11.112   9.320  24.256 -0.0672 -0.1650 -0.1950
  640BOLB   C3A15343  11.324   9.499  24.546 -0.1489  0.1612  0.1780
  640BOLB   C4A15344  11.418   9.808  25.001  0.1361  0.3393  0.1159
  640BOLB   C1B15345  10.463   9.856  23.347  0.3306  0.3255 -0.2684
  640BOLB   C2B15346  10.318  10.091  22.997  0.0605  0.1048 -0.1420
  640BOLB   C3B15347  10.118  10.400  22.801  0.1450  0.2471 -0.1496
  640BOLB   C4B15348   9.755  10.594  22.797  0.1554  0.0934  0.0190
  640BOLB   NC215349  11.485  10.333  27.597 -0.2072 -0.1119  0.4017
  640BOLB   PO215350  11.769   9.985  27.445  0.1896 -0.1968  0.1204
  640BOLB   GL315351  11.774  10.024  27.018 -0.1510  0.2243 -0.0123
  640BOLB   GL415352  12.029   9.947  26.905  0.0451 -0.0321  0.0379
  640BOLB   C1C15353  11.712  10.232  26.592  0.2443 -0.0734  0.1209
  640BOLB   C2C15354  11.635  10.267  26.181 -0.2775 -0.2341 -0.2014
  640BOLB   C3C15355  11.512  10.255  25.792  0.1978 -0.0766  0.1688
  640BOLB   C4C15356  11.546  10.158  25.396 -0.3541  0.0972  0.0013
  640BOLB   C1D15357  11.751   9.707  26.631 -0.4196 -0.2308 -0.0370
  640BOLB   C2D15358  11.992   9.649  26.211  0.0511 -0.0743  0.1525
  640BOLB   C3D15359  11.817   9.650  25.692  0.1905 -0.1320 -0.2974
  640BOLB   C4D15360  11.868   9.750  25.283 -0.0247 -0.0345 -0.0880
  641BOLB   NC115361  22.212  12.591  21.426  0.1287  0.2640  0.0065
  641BOLB   PO115362  21.826  12.620  21.583  0.1668 -0.2332 -0.0330
  641BOLB   GL115363  22.036  12.583  21.966 -0.2528  0.4959 -0.0579
  641BOLB   GL215364  21.961  12.565  22.270  0.0965 -0.2023  0.0998
  641BOLB   C1A15365  22.457  12.718  22.294 -0.1025  0.2862 -0.0014
  641BOLB   C2A15366  22.690  12.735  22.638  0.2002  0.0121 -0.0319
  641BOLB   C3A15367  22.799  12.702  23.047 -0.2943  0.1815 -0.0141
  641BOLB   C4A15368  23.087  12.835  23.262  0.2917 -0.0710 -0.0847
  641BOLB   C1B15369  22.176  12.542  22.657  0.3350 -0.0894 -0.1979
  641BOLB   C2B15370  22.441  12.407  22.919 -0.1814  0.4399  0.0284
  641BOLB   C3B15371  22.594  12.199  23.408  0.0641  0.1192 -0.1805
  641BOLB   C4B15372  23.015  12.288  23.640  0.3325 -0.0248  0.1030
  641BOLB   NC215373  24.165  12.432  25.342 -0.0784  0.3830 -0.1563
  641BOLB   PO215374  24.127  12.812  25.314 -0.2469 -0.0598 -0.0117
  641BOLB   GL315375  23.929  12.784  24.917 -0.0657  0.0361  0.0138
  641BOLB   GL415376  23.703  12.470  24.756 -0.1676 -0.1714 -0.2153
  641BOLB   C1C15377  23.918  13.168  24.571  0.3633  0.3404  0.2394
  641BOLB   C2C15378  23.560  13.103  24.358  0.0043  0.1032  0.4985
  641BOLB   C3C15379  23.303  13.035  24.022 -0.2004 -0.0664 -0.0261
  641BOLB   C4C15380  23.135  12.835  23.681  0.0685  0.4157 -0.3314
  641BOLB   C1D15381  23.319  12.124  24.691 -0.1964  0.2590  0.4147
  641BOLB   C2D15382  22.971  11.881  24.508  0.1281 -0.4649  0.0413
  641BOLB   C3D15383  22.615  11.607  24.356 -0.0752 -0.0534 -0.4041
  641BOLB   C4D15384  22.354  11.476  24.089 -0.0637  0.2442 -0.0338
  642BOLB   NC115385   9.817  13.308  23.908  0.2050  0.0895  0.0208
  642BOLB   PO115386  10.098  13.076  23.806 -0.0616 -0.2425 -0.1650
  642BOLB   GL115387   9.804  12.699  23.966 -0.1173 -0.0037  0.3326
  642BOLB   GL215388   9.496  12.662  23.911  0.1280 -0.1453 -0.2489
  642BOLB   C1A15389   9.742  12.613  24.433 -0.0306 -0.0307 -0.1175
  642BOLB   C2A15390   9.467  12.530  24.749 -0.3930 -0.0492  0.0130
  642BOLB   C3A15391   9.059  12.553  24.812 -0.2046  0.0698  0.0953
  642BOLB   C4A15392   8.629  12.346  25.030  0.0158 -0.1620  0.0647
  642BOLB   C1B15393   9.012  12.624  23.985 -0.1022 -0.4627 -0.3161
  642BOLB   C2B15394   8.747  12.517  24.350 -0.1801 -0.1347 -0.0343
  642BOLB   C3B15395   8.490  12.784  24.645 -0.1333 -0.1732  0.0358
  642BOLB   C4B15396   8.318  13.113  24.840  0.0028  0.1517  0.3104
  642BOLB   NC215397   6.488  11.713  25.147  0.0232 -0.2122 -0.1136
  642BOLB   PO215398   6.499  11.412  24.882 -0.0143  0.3039 -0.0543
  642BOLB   GL315399   6.762  11.774  24.742 -0.1310  0.3114  0.0707
  642BOLB   GL415400   6.603  12.035  24.566  0.0340 -0.3276 -0.1643
  642BOLB   C1C15401   7.206  11.814  24.804  0.0584  0.1952  0.0256
  642BOLB   C2C15402   7.512  11.928  25.090  0.1323 -0.0273  0.3642
  642BOLB   C3C15403   7.853  12.256  25.089  0.1036  0.3025  0.4383
  642BOLB   C4C15404   8.262  12.369  24.850  0.1147 -0.2139  0.0062
  642BOLB   C1D15405   6.901  12.228  24.888  0.0573 -0.1543  0.2488
  642BOLB   C2D15406   7.247  12.429  24.760  0.0566 -0.0723 -0.1030
  642BOLB   C3D15407   7.595  12.541  24.458  0.1181  0.3947 -0.1079
  642BOLB   C4D15408   7.711  12.572  24.127  0.0125 -0.0566 -0.0640
  643BOLB   NC115409  12.224  18.478  24.407 -0.2467  0.0082 -0.0217
  643BOLB   PO115410  12.601  18.262  24.585  0.1954 -0.2220 -0.1899
  643BOLB   GL115411  12.366  18.520  24.919  0.2432  0.0373 -0.4308
  643BOLB   GL215412  12.630  18.546  25.006  0.0731 -0.1511 -0.0821
  643BOLB   C1A15413  12.122  18.342  25.294  0.2800  0.0316  0.1256
  643BOLB   C2A15414  12.090  18.380  25.723  0.2390  0.2110  0.3425
  643BOLB   C3A15415  11.988  18.051  26.037 -0.2793  0.0258  0.0968
  643BOLB   C4A15416  12.017  18.072  26.455 -0.3272  0.1561 -0.1491
  643BOLB   C1B15417  12.586  18.617  25.434 -0.0675 -0.1438  0.1875
  643BOLB   C2B15418  12.610  18.651  25.871 -0.1583  0.1402 -0.2417
  643BOLB   C3B15419  12.819  18.574  26.233  0.4312  0.0535 -0.0438
  643BOLB   C4B15420  12.929  18.675  26.644  0.0170  0.1516 -0.2404
  643BOLB   NC215421  11.321  17.181  28.455 -0.2805  0.0786 -0.0322
  643BOLB   PO215422  11.500  17.640  28.344  0.2317 -0.1339 -0.0358
  643BOLB   GL315423  11.267  17.657  28.010 -0.5770 -0.2628 -0.0493
  643BOLB   GL415424  11.013  17.924  28.002  0.2839  0.3577  0.0906
  643BOLB   C1C15425  11.543  17.548  27.649 -0.0330  0.1870  0.3003
  643BOLB   C2C15426  11.741  17.413  27.206  0.0075 -0.1495 -0.0477
  643BOLB   C3C15427  12.074  17.454  26.876 -0.1093 -0.4266  0.3643
  643BOLB   C4C15428  12.156  17.740  26.676 -0.2648  0.2073  0.0421
  643BOLB   C1D15429  11.083  17.981  27.614  0.1453 -0.0967 -0.1518
  643BOLB   C2D15430  10.977  17.936  27.165 -0.6271 -0.3534 -0.0333
  643BOLB   C3D15431  11.238  18.129  26.735  0.1437  0.0651 -0.0350
  643BOLB   C4D15432  11.575  18.199  26.403  0.1372  0.0993 -0.0301
  644BOLB   NC115433  10.965  20.205  23.824  0.0287 -0.1204  0.1510
  644BOLB   PO115434  10.930  19.742  23.997 -0.2708 -0.3588 -0.2011
  644BOLB   GL115435  10.848  19.716  24.446 -0.2097 -0.0188  0.1402
  644BOLB   GL215436  11.006  19.550  24.748  0.1294  0.0283 -0.0482
  644BOLB   C1A15437  10.679  19.903  24.828  0.2515  0.2295  0.1567
  644BOLB   C2A15438  10.396  19.988  25.181  0.0840  0.0599  0.1560
  644BOLB   C3A15439  10.084  19.969  25.449  0.0117  0.0233 -0.0218
  644BOLB   C4A15440  10.059  19.939  25.882  0.0544 -0.2357  0.1851
  644BOLB   C1B15441  10.871  19.538  25.198 -0.1606 -0.2115  0.0857
  644BOLB   C2B15442  10.807  19.404  25.733 -0.0264 -0.5782  0.6327
  644BOLB   C3B15443  10.768  19.407  26.276  0.2193 -0.2234 -0.3687
  644BOLB   C4B15444  10.543  19.189  26.643 -0.1985  0.1067 -0.1554
  644BOLB   NC215445   9.218  18.681  28.368 -0.1448 -0.3450  0.0651
  644BOLB   PO215446   9.652  18.504  28.162  0.2626  0.1908 -0.1305
  644BOLB   GL315447   9.780  18.767  27.793 -0.1101 -0.1815  0.0479
  644BOLB   GL415448  10.042  18.906  27.905 -0.1400  0.1186 -0.1368
  644BOLB   C1C15449   9.704  18.839  27.235  0.3023  0.0195 -0.0634
  644BOLB   C2C15450   9.864  19.203  27.086  0.0003  0.1635 -0.2008
  644BOLB   C3C15451  10.054  19.546  26.681  0.0335  0.3559  0.1737
  644BOLB   C4C15452  10.066  19.739  26.266 -0.0412 -0.0057  0.1223
  644BOLB   C1D15453  10.105  19.072  27.453 -0.2765  0.1742 -0.1047
  644BOLB   C2D15454  10.312  18.906  27.142 -0.1281 -0.2312  0.3358
  644BOLB   C3D15455  10.257  18.736  26.722 -0.0123 -0.0391  0.3421
  644BOLB   C4D15456  10.059  18.428  26.569 -0.1740 -0.1253  0.3298
  645BOLB   NC115457  18.972  17.293  23.419 -0.1373 -0.1333  0.0693
  645BOLB   PO115458  19.305  17.532  23.743 -0.0350 -0.2124 -0.2335
  645BOLB   GL115459  19.563  17.603  24.194 -0.0522 -0.1751  0.3374
  645BOLB   GL215460  19.436  17.491  24.559  0.0367  0.1320  0.3236
  645BOLB   C1A15461  19.852  17.766  24.606 -0.2886  0.1976  0.1001
  645BOLB   C2A15462  20.052  17.648  25.052  0.0307  0.0451 -0.3739
  645BOLB   C3A15463  20.295  17.636  25.457  0.0250 -0.2199 -0.0072
  645BOLB   C4A15464  20.361  17.579  25.870  0.3694 -0.0221 -0.0233
  645BOLB   C1B15465  19.586  17.554  25.005  0.0310 -0.0955  0.0667
  645BOLB   C2B15466  19.471  17.568  25.379  0.1819  0.0943  0.0832
  645BOLB   C3B15467  19.295  17.351  25.781 -0.2746  0.1897 -0.0341
  645BOLB   C4B15468  19.179  16.952  25.868  0.2813  0.1280 -0.2526
  645BOLB   NC215469  21.660  16.468  27.904  0.2235 -0.1710  0.0482
  645BOLB   PO215470  21.584  16.836  27.665 -0.2563 -0.2969  0.2192
  645BOLB   GL315471  21.478  16.844  27.238 -0.2840  0.0117 -0.0458
  645BOLB   GL415472  21.193  16.628  27.059  0.2027  0.1425  0.0339
  645BOLB   C1C15473  21.199  17.113  27.008  0.0170  0.0428 -0.3072
  645BOLB   C2C15474  20.757  17.216  26.855 -0.1163 -0.1534 -0.1777
  645BOLB   C3C15475  20.523  17.459  26.571  0.0134 -0.1361  0.0429
  645BOLB   C4C15476  20.334  17.524  26.274  0.0649 -0.2195 -0.0386
  645BOLB   C1D15477  21.186  16.450  26.687 -0.1618  0.1926 -0.3239
  645BOLB   C2D15478  21.228  16.106  26.303 -0.1814  0.2426  0.3004
  645BOLB   C3D15479  21.412  15.895  26.014 -0.3161 -0.0202  0.0956
  645BOLB   C4D15480  21.543  15.925  25.646 -0.1794  0.0574  0.0357
  646BOLB   NC115481  11.823  14.656  24.417  0.4381  0.1678  0.1057
  646BOLB   PO115482  12.113  15.084  24.372 -0.0433 -0.0666  0.0729
  646BOLB   GL115483  11.940  15.076  24.739  0.2101  0.0926 -0.3464
  646BOLB   GL215484  12.119  14.937  24.961  0.2990 -0.2047 -0.1974
  646BOLB   C1A15485  11.664  14.992  25.167 -0.1787  0.3714 -0.0053
  646BOLB   C2A15486  11.809  14.879  25.540  0.4505  0.0596  0.0421
  646BOLB   C3A15487  11.762  14.669  25.968 -0.0762  0.0879  0.2501
  646BOLB   C4A15488  11.809  14.440  26.406 -0.0193  0.2180 -0.1682
  646BOLB   C1B15489  12.208  15.047  25.374  0.1073  0.0920 -0.3188
  646BOLB   C2B15490  12.220  14.865  25.882  0.2268  0.2826  0.0427
  646BOLB   C3B15491  12.249  14.741  26.330 -0.0816  0.0381 -0.2948
  646BOLB   C4B15492  12.024  14.756  26.710  0.0137  0.1573 -0.0771
  646BOLB   NC215493  11.696  12.179  27.920 -0.6595 -0.0279 -0.1086
  646BOLB   PO215494  12.080  12.555  27.913 -0.1047  0.0716  0.0968
  646BOLB   GL315495  11.892  12.803  27.600  0.2903 -0.2152  0.2181
  646BOLB   GL415496  12.135  12.922  27.475 -0.0031 -0.1246  0.1674
  646BOLB   C1C15497  11.725  13.159  27.386 -0.1927  0.1640  0.0462
  646BOLB   C2C15498  11.613  13.555  27.220 -0.2755  0.2041 -0.0358
  646BOLB   C3C15499  11.532  13.931  26.973  0.0338  0.1478  0.3278
  646BOLB   C4C15500  11.570  14.084  26.598  0.0384  0.1039  0.1390
  646BOLB   C1D15501  12.465  13.147  27.302  0.3872 -0.0548 -0.1929
  646BOLB   C2D15502  12.953  13.269  27.293  0.2527  0.2455 -0.2179
  646BOLB   C3D15503  13.062  13.583  27.038 -0.1245  0.5660 -0.3460
  646BOLB   C4D15504  13.391  13.866  27.105  0.0327  0.2607 -0.0825
  647BOLB   NC115505  20.976  23.849  21.042 -0.1250  0.1901 -0.0355
  647BOLB   PO115506  21.020  23.786  20.618  0.2121  0.1715 -0.1565
  647BOLB   GL115507  21.318  24.055  20.732 -0.0375 -0.2956 -0.0908
  647BOLB   GL215508  21.367  24.208  21.154 -0.4106  0.0186 -0.4330
  647BOLB   C1A15509  21.532  24.372  20.458  0.1155  0.1822  0.2572
  647BOLB   C2A15510  21.670  24.632  20.070 -0.2151 -0.1115 -0.1865
  647BOLB   C3A15511  21.842  25.018  19.867  0.1898  0.0923 -0.1503
  647BOLB   C4A15512  22.352  25.175  19.787 -0.2147 -0.0888  0.2581
  647BOLB   C1B15513  21.471  24.546  20.888  0.1524  0.4356 -0.0827
  647BOLB   C2B15514  21.721  24.878  21.034 -0.0537 -0.1390  0.0876
  647BOLB   C3B15515  22.128  24.902  21.219  0.1137  0.6577 -0.0983
  647BOLB   C4B15516  22.573  24.749  21.070 -0.0762 -0.0979 -0.2539
  647BOLB   NC215517  24.819  26.044  18.914  0.0030  0.3155  0.0688
  647BOLB   PO215518  24.797  25.897  19.274 -0.0032  0.0862  0.2014
  647BOLB   GL315519  24.381  25.666  19.367  0.0425  0.3143  0.0387
  647BOLB   GL415520  24.417  25.316  19.227 -0.0383 -0.0455  0.1838
  647BOLB   C1C15521  23.972  25.559  19.356 -0.3088 -0.1814  0.0906
  647BOLB   C2C15522  23.621  25.433  19.622 -0.3124  0.5811 -0.3835
  647BOLB   C3C15523  23.131  25.435  19.876 -0.1268  0.1649 -0.0755
  647BOLB   C4C15524  22.724  25.290  20.046  0.0296  0.1651  0.1641
  647BOLB   C1D15525  24.191  25.267  19.660 -0.3062  0.0043  0.2396
  647BOLB   C2D15526  23.881  25.060  19.861  0.3301  0.1297  0.0572
  647BOLB   C3D15527  23.420  25.014  20.020 -0.1848  0.2466  0.2195
  647BOLB   C4D15528  23.119  24.977  20.268 -0.1894 -0.0697 -0.2301
  648BOLB   NC115529   9.276  19.573  23.925  0.1204 -0.1763 -0.2676
  648BOLB   PO115530   9.179  19.929  24.273 -0.0261 -0.5015  0.3189
  648BOLB   GL115531   9.176  19.855  24.653 -0.2360  0.0403 -0.0454
  648BOLB   GL215532   9.371  20.168  24.716 -0.0120  0.1009  0.2989
  648BOLB   C1A15533   9.116  19.949  25.114 -0.1518  0.0848  0.0774
  648BOLB   C2A15534   9.052  20.041  25.518  0.2891  0.2212  0.0610
  648BOLB   C3A15535   8.654  20.106  25.692  0.0829 -0.0974  0.0615
  648BOLB   C4A15536   8.492  19.806  25.905  0.0019  0.0602 -0.0448
  648BOLB   C1B15537   9.605  20.182  25.136 -0.1356 -0.1633 -0.2206
  648BOLB   C2B15538   9.560  20.013  25.479  0.0654 -0.1338  0.4591
  648BOLB   C3B15539   9.533  19.986  26.004  0.0026 -0.3789 -0.0206
  648BOLB   C4B15540   9.752  20.045  26.369  0.3973  0.0460  0.0784
  648BOLB   NC215541   6.682  19.514  27.776 -0.0226 -0.3209 -0.2730
  648BOLB   PO215542   7.164  19.420  27.745 -0.2074  0.1675 -0.3748
  648BOLB   GL315543   7.407  19.583  27.416  0.3001 -0.4767 -0.2316
  648BOLB   GL415544   7.741  19.519  27.283 -0.2212 -0.0487  0.2588
  648BOLB   C1C15545   7.337  19.695  27.022  0.0328 -0.1785 -0.1109
  648BOLB   C2C15546   7.505  19.488  26.660  0.2199 -0.1005  0.0695
  648BOLB   C3C15547   7.893  19.580  26.367  0.3929  0.3954  0.0957
  648BOLB   C4C15548   8.287  19.702  26.331  0.1606  0.1704  0.0169
  648BOLB   C1D15549   7.738  19.135  26.979  0.0282  0.2985  0.2167
  648BOLB   C2D15550   7.917  19.103  26.529  0.0970  0.2391  0.0526
  648BOLB   C3D15551   7.806  18.784  26.290 -0.0644  0.0619  0.1353
  648BOLB   C4D15552   7.384  18.568  26.158 -0.0578  0.0814  0.0590
  649BOLB   NC115553  10.720  16.093  24.026  0.1368 -0.1063 -0.0418
  649BOLB   PO115554  10.413  15.773  23.813 -0.0112  0.1718  0.1107
  649BOLB   GL115555  10.202  15.758  24.165 -0.2613 -0.1436  0.0134
  649BOLB   GL215556   9.958  15.880  24.165 -0.0719 -0.0278  0.0678
  649BOLB   C1A15557  10.297  15.840  24.669 -0.2286 -0.0342 -0.1578
  649BOLB   C2A15558  10.251  15.805  25.249  0.1272  0.0847 -0.0790
  649BOLB   C3A15559  10.045  15.693  25.589 -0.3143  0.0203  0.0748
  649BOLB   C4A15560   9.750  15.428  25.859 -0.0534 -0.1364 -0.2244
  649BOLB   C1B15561   9.791  15.945  24.490 -0.2017 -0.0096 -0.1348
  649BOLB   C2B15562   9.849  15.819  24.862 -0.0088  0.0222  0.0972
  649BOLB   C3B15563   9.709  15.779  25.305  0.1093 -0.1144 -0.3754
  649BOLB   C4B15564   9.522  15.790  25.665 -0.1854  0.2476  0.0204
  649BOLB   NC215565   9.072  15.773  28.175  0.0621 -0.0969  0.2472
  649BOLB   PO215566   9.368  15.299  28.110  0.2479  0.0903 -0.2282
  649BOLB   GL315567   9.469  15.267  27.613 -0.0790  0.2804  0.3040
  649BOLB   GL415568   9.829  15.403  27.677  0.1267 -0.2069 -0.0789
  649BOLB   C1C15569   9.307  15.333  27.279  0.3502 -0.2451  0.0463
  649BOLB   C2C15570   9.325  15.179  26.831  0.2484  0.3666  0.1463
  649BOLB   C3C15571   9.422  15.194  26.382 -0.0174  0.0536 -0.0056
  649BOLB   C4C15572   9.350  15.459  26.043  0.1786 -0.3176  0.2454
  649BOLB   C1D15573   9.803  14.938  27.533  0.2379 -0.0713 -0.1712
  649BOLB   C2D15574   9.816  14.523  27.299  0.0166  0.0302  0.0270
  649BOLB   C3D15575  10.081  14.495  26.884  0.0982  0.0021 -0.0397
  649BOLB   C4D15576  10.176  14.124  26.686 -0.1270  0.0972  0.3603
  650BOLB   NC115577  17.985  13.372  23.919  0.2284 -0.1174  0.2168
  650BOLB   PO115578  18.115  13.654  23.691  0.0577  0.1188  0.1816
  650BOLB   GL115579  18.330  13.554  24.199  0.4939  0.0283 -0.2287
  650BOLB   GL215580  18.277  13.889  24.239  0.1149  0.3540  0.1619
  650BOLB   C1A15581  18.616  13.331  24.533 -0.2368  0.0857 -0.0028
  650BOLB   C2A15582  18.670  12.985  24.739 -0.0987  0.0650 -0.0086
  650BOLB   C3A15583  18.807  12.892  25.110  0.2559  0.1399  0.0292
  650BOLB   C4A15584  18.922  12.839  25.690  0.2200 -0.1532  0.0762
  650BOLB   C1B15585  18.353  13.721  24.741  0.2660 -0.2608  0.2207
  650BOLB   C2B15586  18.571  13.449  25.089 -0.0598  0.1067  0.0323
  650BOLB   C3B15587  18.829  13.398  25.397  0.1641  0.0317 -0.1108
  650BOLB   C4B15588  19.025  13.286  25.891  0.1160 -0.3512 -0.3370
  650BOLB   NC215589  18.903  11.710  27.769 -0.0490 -0.2478 -0.0946
  650BOLB   PO215590  18.740  12.232  27.706  0.1743  0.3935 -0.0495
  650BOLB   GL315591  18.486  12.139  27.382 -0.2263  0.1137  0.2207
  650BOLB   GL415592  18.288  12.365  27.317  0.0054  0.3638  0.0739
  650BOLB   C1C15593  18.469  11.973  26.999  0.1763 -0.0646 -0.1025
  650BOLB   C2C15594  18.722  11.987  26.574 -0.0873 -0.1286  0.2864
  650BOLB   C3C15595  18.760  12.267  26.333  0.1130  0.0214 -0.0347
  650BOLB   C4C15596  18.779  12.694  26.078 -0.0031  0.2680 -0.2330
  650BOLB   C1D15597  17.986  12.267  27.036 -0.1010  0.2018  0.1547
  650BOLB   C2D15598  17.678  12.155  26.718 -0.0146  0.1815 -0.1457
  650BOLB   C3D15599  17.298  12.142  26.694  0.0129 -0.1023  0.1739
  650BOLB   C4D15600  16.895  12.147  26.622  0.0456  0.0636 -0.0300
  651BOLB   NC115601  21.275  23.008  21.028  0.1805 -0.1303  0.1104
  651BOLB   PO115602  21.143  22.728  21.250 -0.1043  0.1113  0.3174
  651BOLB   GL115603  21.500  22.902  21.558 -0.1009 -0.0254  0.3318
  651BOLB   GL215604  21.344  22.967  21.784  0.2721 -0.3683  0.2057
  651BOLB   C1A15605  21.900  23.054  21.793 -0.1288 -0.0337 -0.2003
  651BOLB   C2A15606  22.351  23.071  21.921  0.0003  0.3690 -0.0190
  651BOLB   C3A15607  22.564  23.459  21.888 -0.0323 -0.2942  0.1298
  651BOLB   C4A15608  22.917  23.596  22.020 -0.1220 -0.1083 -0.0688
  651BOLB   C1B15609  21.579  23.023  22.174  0.0297 -0.0795  0.4045
  651BOLB   C2B15610  21.920  22.949  22.311  0.1155 -0.0554  0.0399
  651BOLB   C3B15611  22.395  22.774  22.290  0.0535 -0.2958 -0.3976
  651BOLB   C4B15612  22.794  22.526  22.241  0.0108 -0.3634  0.0329
  651BOLB   NC215613  24.181  23.166  23.828 -0.0730  0.2294  0.4995
  651BOLB   PO215614  24.516  22.853  23.584  0.2217  0.5650  0.0383
  651BOLB   GL315615  23.997  22.729  23.611  0.0620  0.1624  0.0346
  651BOLB   GL415616  23.709  22.875  23.855 -0.2422  0.0625  0.2655
  651BOLB   C1C15617  23.572  22.916  23.327  0.2106 -0.3231 -0.2528
  651BOLB   C2C15618  23.290  23.093  22.988 -0.0717 -0.4500 -0.0787
  651BOLB   C3C15619  23.076  23.445  22.678  0.1055  0.7620 -0.0223
  651BOLB   C4C15620  23.059  23.702  22.349 -0.3046  0.0954  0.2072
  651BOLB   C1D15621  23.314  22.650  23.803 -0.0196 -0.1199 -0.0573
  651BOLB   C2D15622  22.998  22.518  23.751  0.0314 -0.3272 -0.0904
  651BOLB   C3D15623  22.593  22.416  23.772 -0.1242 -0.1350 -0.1275
  651BOLB   C4D15624  22.212  22.613  23.778 -0.0672  0.2016 -0.0085
  652BOLB   NC115625  16.419  15.461  24.439  0.0072  0.1980 -0.1599
  652BOLB   PO115626  16.696  15.603  24.124 -0.0197 -0.1839  0.3781
  652BOLB   GL115627  17.043  15.503  24.393  0.1636 -0.0411 -0.1648
  652BOLB   GL215628  17.298  15.228  24.358  0.2845  0.0567 -0.3059
  652BOLB   C1A15629  16.993  15.470  24.823  0.1106  0.1410 -0.1719
  652BOLB   C2A15630  17.001  15.522  25.286  0.0526 -0.1309  0.5112
  652BOLB   C3A15631  16.828  15.442  25.664 -0.1309 -0.0556  0.0765
  652BOLB   C4A15632  16.569  15.356  26.077 -0.0432 -0.0337 -0.1207
  652BOLB   C1B15633  17.521  15.358  24.797  0.3134  0.1386 -0.2689
  652BOLB   C2B15634  17.515  15.468  25.214 -0.0865  0.2059  0.2706
  652BOLB   C3B15635  17.516  15.535  25.654  0.1019  0.1246 -0.1569
  652BOLB   C4B15636  17.546  15.395  26.066 -0.0143  0.3607 -0.0341
  652BOLB   NC215637  16.494  14.134  28.425 -0.3220 -0.3306 -0.2092
  652BOLB   PO215638  16.781  14.183  28.096 -0.0525 -0.1229  0.0042
  652BOLB   GL315639  16.888  14.239  27.718 -0.0821 -0.1105  0.1073
  652BOLB   GL415640  17.153  14.381  27.504 -0.0356  0.2672 -0.1093
  652BOLB   C1C15641  16.621  14.298  27.451 -0.2145  0.2481  0.0776
  652BOLB   C2C15642  16.643  14.581  26.993  0.0409  0.0647  0.0018
  652BOLB   C3C15643  16.483  14.922  26.744  0.1248 -0.0539  0.1465
  652BOLB   C4C15644  16.577  15.230  26.536  0.1148  0.0003  0.0263
  652BOLB   C1D15645  16.991  14.708  27.380  0.4746  0.0956 -0.0009
  652BOLB   C2D15646  16.855  15.082  27.164  0.1479 -0.0815  0.0431
  652BOLB   C3D15647  16.993  15.434  26.915  0.0896 -0.0215 -0.1051
  652BOLB   C4D15648  17.109  15.804  26.850 -0.1893  0.0547 -0.0808
  653BOLB   NC115649  13.169  25.004  22.758 -0.0064  0.3206 -0.1010
  653BOLB   PO115650  13.483  24.759  22.879 -0.1275  0.3065 -0.2567
  653BOLB   GL115651  13.383  24.686  23.384 -0.1001  0.0910 -0.0956
  653BOLB   GL215652  13.046  24.652  23.535  0.0385  0.0169 -0.1610
  653BOLB   C1A15653  13.536  24.964  23.728  0.3299 -0.2153  0.0845
  653BOLB   C2A15654  13.505  24.930  24.077  0.2066 -0.2299 -0.1996
  653BOLB   C3A15655  13.408  24.941  24.582 -0.1494  0.0287 -0.0639
  653BOLB   C4A15656  13.328  24.968  24.954 -0.1501  0.1587  0.0358
  653BOLB   C1B15657  13.020  24.854  23.852  0.0415 -0.1201  0.1274
  653BOLB   C2B15658  12.975  25.009  24.338 -0.3237 -0.1688  0.0982
  653BOLB   C3B15659  12.964  25.206  24.736 -0.0013 -0.1001  0.0557
  653BOLB   C4B15660  12.785  25.571  24.941 -0.2801  0.2727  0.0574
  653BOLB   NC215661  13.024  25.439  27.623  0.0552  0.0376  0.2348
  653BOLB   PO215662  12.646  25.437  27.427  0.1764 -0.3233 -0.2238
  653BOLB   GL315663  12.691  25.175  27.071 -0.0979 -0.2115  0.0731
  653BOLB   GL415664  12.600  24.897  26.931  0.0090  0.1188 -0.1437
  653BOLB   C1C15665  12.887  25.191  26.649 -0.0285  0.2787  0.1444
  653BOLB   C2C15666  13.007  25.052  26.274 -0.0596 -0.4511 -0.1019
  653BOLB   C3C15667  13.216  25.228  25.905 -0.2207  0.4725 -0.0000
  653BOLB   C4C15668  13.261  24.966  25.400 -0.1137  0.0965 -0.0278
  653BOLB   C1D15669  12.717  24.643  26.569  0.1556  0.1701 -0.2330
  653BOLB   C2D15670  12.782  24.635  26.054  0.1313  0.1006 -0.0214
  653BOLB   C3D15671  12.830  24.698  25.666 -0.3560 -0.2697 -0.3788
  653BOLB   C4D15672  12.871  24.700  25.292  0.0417 -0.0668 -0.0945
  654BOLB   NC115673  17.811  13.331  23.044  0.0054  0.1013 -0.1666
  654BOLB   PO115674  18.061  13.102  23.423 -0.0630 -0.1078 -0.0533
  654BOLB   GL115675  18.249  12.816  23.719 -0.0113 -0.0712 -0.3117
  654BOLB   GL215676  17.970  12.588  23.740  0.3774 -0.2508  0.0319
  654BOLB   C1A15677  18.476  12.499  24.009  0.2373  0.1855 -0.0263
  654BOLB   C2A15678  18.664  12.606  24.344  0.0388  0.0252 -0.1397
  654BOLB   C3A15679  18.956  12.629  24.582 -0.2788  0.1926  0.1268
  654BOLB   C4A15680  18.973  12.468  24.958  0.0542  0.2187  0.1790
  654BOLB   C1B15681  17.959  12.482  24.199 -0.0314  0.1232  0.3576
  654BOLB   C2B15682  17.918  12.340  24.642 -0.0895 -0.0143 -0.0265
  654BOLB   C3B15683  18.089  12.274  25.007  0.0927 -0.0386 -0.1181
  654BOLB   C4B15684  18.261  12.092  25.398  0.0143  0.1162 -0.0176
  654BOLB   NC215685  20.436  11.916  27.020  0.0861 -0.0112 -0.2306
  654BOLB   PO215686  19.993  11.906  27.151 -0.0199  0.2032 -0.1589
  654BOLB   GL315687  19.636  12.130  26.927 -0.3155  0.0458  0.1835
  654BOLB   GL415688  19.390  12.235  27.125 -0.1739  0.1413 -0.0957
  654BOLB   C1C15689  19.445  11.967  26.476 -0.0046  0.1758 -0.0742
  654BOLB   C2C15690  19.223  12.141  26.247 -0.0133 -0.1138 -0.1213
  654BOLB   C3C15691  19.082  12.273  25.875  0.3984 -0.1925 -0.0039
  654BOLB   C4C15692  19.063  12.323  25.316 -0.2047 -0.1619 -0.2383
  654BOLB   C1D15693  19.067  12.226  26.958 -0.2183 -0.0866  0.1392
  654BOLB   C2D15694  18.705  12.396  26.943  0.3697 -0.3779 -0.2268
  654BOLB   C3D15695  18.359  12.444  26.683 -0.0542  0.2362  0.3358
  654BOLB   C4D15696  18.338  12.609  26.277 -0.3577  0.1399 -0.0696
  655BOLB   NC115697  18.240   9.210  21.799 -0.2569  0.1640 -0.0593
  655BOLB   PO115698  18.579   8.991  21.708 -0.0165  0.0935  0.4001
  655BOLB   GL115699  18.953   8.812  21.755 -0.1927 -0.1318 -0.1902
  655BOLB   GL215700  19.071   8.549  21.538 -0.0556  0.1492  0.0255
  655BOLB   C1A15701  19.236   8.646  22.082 -0.0152 -0.2690  0.0624
  655BOLB   C2A15702  19.292   8.447  22.502 -0.0176  0.3150  0.1478
  655BOLB   C3A15703  19.405   8.171  22.857 -0.0225 -0.0278 -0.0404
  655BOLB   C4A15704  19.818   8.045  23.115 -0.2583 -0.1221  0.0218
  655BOLB   C1B15705  19.457   8.368  21.732 -0.2743  0.2385  0.1152
  655BOLB   C2B15706  19.518   8.193  22.118 -0.0828  0.0375 -0.3040
  655BOLB   C3B15707  19.744   8.223  22.446 -0.0254  0.2169 -0.0312
  655BOLB   C4B15708  20.062   8.147  22.638  0.3354 -0.4118  0.1236
  655BOLB   NC215709  20.624   7.656  25.192 -0.1060 -0.2503 -0.0088
  655BOLB   PO215710  20.811   7.377  24.986 -0.2815 -0.1581  0.1903
  655BOLB   GL315711  20.572   7.585  24.704  0.0703  0.3610 -0.0437
  655BOLB   GL415712  20.384   7.352  24.685  0.3709  0.1473 -0.0276
  655BOLB   C1C15713  20.672   7.787  24.351 -0.2785 -0.0334  0.1450
  655BOLB   C2C15714  20.501   7.781  24.006 -0.2544  0.3796  0.0027
  655BOLB   C3C15715  20.388   7.876  23.618  0.3776  0.1139  0.1827
  655BOLB   C4C15716  20.174   8.065  23.267 -0.0596 -0.1086 -0.2075
  655BOLB   C1D15717  20.083   7.413  24.375  0.0343  0.0589  0.1840
  655BOLB   C2D15718  19.761   7.680  24.281  0.2897  0.3244 -0.0423
  655BOLB   C3D15719  19.550   7.960  24.131  0.1177 -0.0461 -0.2188
  655BOLB   C4D15720  19.139   8.166  24.207 -0.0674  0.1953 -0.0614
  656BOLB   NC115721  18.909  18.817  23.974 -0.0934  0.0170 -0.0508
  656BOLB   PO115722  18.532  19.069  23.935 -0.2071 -0.2534 -0.1164
  656BOLB   GL115723  18.597  18.893  24.350 -0.2701 -0.1673  0.0895
  656BOLB   GL215724  18.571  18.743  24.648 -0.0772  0.0389 -0.0308
  656BOLB   C1A15725  18.916  19.171  24.730  0.3317 -0.1534 -0.2807
  656BOLB   C2A15726  19.088  19.324  25.156  0.0059 -0.1163 -0.2776
  656BOLB   C3A15727  19.089  19.174  25.615 -0.0016  0.1619 -0.1678
  656BOLB   C4A15728  19.171  19.198  26.073  0.1448  0.1501  0.1564
  656BOLB   C1B15729  18.563  18.761  25.121 -0.0837  0.1684 -0.0583
  656BOLB   C2B15730  18.672  18.742  25.456  0.2154 -0.3657  0.4202
  656BOLB   C3B15731  18.715  18.909  25.870 -0.1053 -0.0346 -0.2394
  656BOLB   C4B15732  18.756  18.608  26.190  0.1039 -0.1281 -0.1813
  656BOLB   NC215733  20.733  18.836  28.402 -0.0997 -0.1263 -0.0843
  656BOLB   PO215734  20.647  19.239  28.124  0.0163  0.2648  0.3108
  656BOLB   GL315735  20.360  19.399  27.873  0.0478 -0.0464 -0.1854
  656BOLB   GL415736  20.299  19.744  27.680 -0.0671 -0.1750 -0.1039
  656BOLB   C1C15737  20.063  19.284  27.513  0.1063  0.2849  0.0116
  656BOLB   C2C15738  19.528  19.348  27.379 -0.1146  0.0658 -0.1574
  656BOLB   C3C15739  19.462  19.426  26.934  0.0925 -0.0746  0.1313
  656BOLB   C4C15740  19.276  19.390  26.575 -0.1109 -0.0696  0.2897
  656BOLB   C1D15741  20.439  19.572  27.240  0.0915 -0.0288  0.0520
  656BOLB   C2D15742  20.384  19.476  26.714 -0.0207  0.3121  0.1385
  656BOLB   C3D15743  20.603  19.269  26.451 -0.1899 -0.3836  0.0944
  656BOLB   C4D15744  20.733  19.185  26.058  0.0354 -0.1409 -0.2071
  657BOLB   NC115745  11.153  15.727  24.166  0.1665 -0.1108  0.3054
  657BOLB   PO115746  11.214  16.156  24.224  0.1433  0.1968  0.0218
  657BOLB   GL115747  11.099  16.263  24.629 -0.0947  0.1379 -0.0056
  657BOLB   GL215748  10.978  15.902  24.643 -0.0064 -0.1181  0.5154
  657BOLB   C1A15749  11.048  16.253  25.097  0.0706 -0.1211  0.3156
  657BOLB   C2A15750  11.128  16.218  25.440  0.0178 -0.3147 -0.0431
  657BOLB   C3A15751  11.019  16.006  25.889  0.0126 -0.2499  0.1531
  657BOLB   C4A15752  10.629  15.902  26.091  0.1369 -0.0028 -0.2059
  657BOLB   C1B15753  10.831  15.782  24.933 -0.1410  0.0236 -0.0584
  657BOLB   C2B15754  10.722  15.393  25.249 -0.3314 -0.0628  0.2120
  657BOLB   C3B15755  10.675  14.981  25.434  0.3247 -0.3241  0.0630
  657BOLB   C4B15756  10.718  14.847  25.816  0.1000 -0.0673  0.2866
  657BOLB   NC215757  10.109  15.149  28.905 -0.0426  0.2507  0.6539
  657BOLB   PO215758  10.103  15.239  28.447  0.1996  0.1869  0.1062
  657BOLB   GL315759  10.421  15.238  28.073  0.0243 -0.1423 -0.0492
  657BOLB   GL415760  10.329  15.479  27.805  0.1830  0.1433 -0.0822
  657BOLB   C1C15761  10.630  15.156  27.576  0.0378  0.1342  0.1320
  657BOLB   C2C15762  10.778  15.297  27.134  0.1259  0.1017  0.4199
  657BOLB   C3C15763  10.619  15.324  26.734  0.3172  0.0371 -0.5975
  657BOLB   C4C15764  10.565  15.750  26.497 -0.4104 -0.1091 -0.0666
  657BOLB   C1D15765  10.233  15.414  27.390  0.2058  0.2510  0.1077
  657BOLB   C2D15766  10.337  15.545  27.015  0.1290  0.2648  0.1055
  657BOLB   C3D15767  10.495  15.967  26.979 -0.2135  0.1786 -0.0329
  657BOLB   C4D15768  10.579  16.252  27.197 -0.0810 -0.1512  0.0868
  658BOLB   NC115769   9.705  16.209  23.874 -0.1131 -0.1142  0.0864
  658BOLB   PO115770   9.452  15.801  23.945 -0.1763  0.0435 -0.0708
  658BOLB   GL115771   9.359  16.068  24.258 -0.0977 -0.0809  0.0856
  658BOLB   GL215772   9.006  16.131  24.105 -0.1321  0.0920 -0.0868
  658BOLB   C1A15773   9.333  15.973  24.710  0.1804 -0.4267  0.0190
  658BOLB   C2A15774   9.280  15.656  25.054  0.0036 -0.0431 -0.3723
  658BOLB   C3A15775   8.899  15.522  25.431  0.0312 -0.1561  0.2379
  658BOLB   C4A15776   8.516  15.718  25.694 -0.0724  0.1618  0.2930
  658BOLB   C1B15777   8.728  16.042  24.447  0.0856 -0.0515  0.0413
  658BOLB   C2B15778   8.398  16.159  24.701 -0.1628 -0.0256  0.0491
  658BOLB   C3B15779   8.285  16.070  25.095  0.0113  0.1711 -0.2380
  658BOLB   C4B15780   8.188  16.033  25.572 -0.0704 -0.1867  0.1906
  658BOLB   NC215781   6.766  16.214  27.142  0.3633 -0.1732 -0.0224
  658BOLB   PO215782   7.115  16.496  27.192  0.1482 -0.5532 -0.0874
  658BOLB   GL315783   7.210  16.138  26.946 -0.1204  0.0939  0.0292
  658BOLB   GL415784   7.060  16.232  26.756  0.3211  0.0877  0.0204
  658BOLB   C1C15785   7.389  15.902  26.937 -0.0987  0.3353  0.1386
  658BOLB   C2C15786   7.631  15.647  26.655 -0.0507  0.0886 -0.2538
  658BOLB   C3C15787   7.982  15.737  26.371 -0.0262 -0.0221  0.2506
  658BOLB   C4C15788   8.146  15.812  26.002  0.0348  0.1233 -0.1847
  658BOLB   C1D15789   7.076  16.362  26.390  0.0851 -0.0208 -0.0064
  658BOLB   C2D15790   7.377  16.510  26.139 -0.1038  0.0933  0.1786
  658BOLB   C3D15791   7.730  16.358  25.865  0.1232  0.0240 -0.1024
  658BOLB   C4D15792   7.738  16.288  25.469 -0.2678 -0.1152 -0.4536
  659BOLB   NC115793  14.113  10.327  23.280 -0.0756 -0.2401 -0.1414
  659BOLB   PO115794  14.511  10.169  23.153  0.2390  0.0713 -0.2010
  659BOLB   GL115795  14.722  10.000  23.554  0.1391  0.1583  0.0310
  659BOLB   GL215796  14.691   9.655  23.652  0.1033  0.0601 -0.0488
  659BOLB   C1A15797  14.856  10.035  23.996  0.2852  0.1477 -0.2405
  659BOLB   C2A15798  14.798   9.941  24.345 -0.0425  0.0854  0.1574
  659BOLB   C3A15799  15.007  10.138  24.689  0.1688 -0.2917  0.2434
  659BOLB   C4A15800  15.032  10.002  25.096 -0.3017 -0.1167  0.1161
  659BOLB   C1B15801  14.749   9.515  24.052 -0.2296  0.3008 -0.0858
  659BOLB   C2B15802  14.841   9.275  24.295 -0.0408  0.2478 -0.2047
  659BOLB   C3B15803  14.961   9.094  24.760 -0.0600 -0.0988  0.0698
  659BOLB   C4B15804  14.994   9.022  25.145 -0.0776  0.2050  0.1611
  659BOLB   NC215805  14.556   9.336  27.977 -0.3855  0.1626  0.1837
  659BOLB   PO215806  14.555   9.144  27.451 -0.0837 -0.1101  0.0469
  659BOLB   GL315807  14.442   9.373  27.083 -0.4744 -0.1340  0.1619
  659BOLB   GL415808  14.245   9.330  26.895  0.0090  0.2857  0.0951
  659BOLB   C1C15809  14.577   9.732  26.744  0.2697 -0.0500  0.0265
  659BOLB   C2C15810  14.768   9.861  26.421 -0.2750  0.1643 -0.0630
  659BOLB   C3C15811  14.744   9.903  25.978  0.0642 -0.2787  0.5284
  659BOLB   C4C15812  14.944   9.928  25.571  0.0983  0.1314  0.3623
  659BOLB   C1D15813  14.222   9.639  26.435 -0.0472 -0.0793 -0.0021
  659BOLB   C2D15814  14.342  10.052  26.271 -0.2586  0.1428 -0.0863
  659BOLB   C3D15815  14.219  10.275  25.925  0.2014  0.0477  0.0349
  659BOLB   C4D15816  13.966  10.566  25.959  0.0255  0.1099 -0.1197
  660BOLB   NC115817  22.024  15.012  21.990 -0.1413 -0.3260 -0.0855
  660BOLB   PO115818  21.967  15.403  22.137 -0.0123  0.4041 -0.1665
  660BOLB   GL115819  22.230  15.459  22.570  0.0665  0.0951  0.1626
  660BOLB   GL215820  22.411  15.145  22.641 -0.2544 -0.1073 -0.0692
  660BOLB   C1A15821  22.399  15.583  22.908 -0.2117  0.0326  0.2384
  660BOLB   C2A15822  22.559  15.503  23.293 -0.0523 -0.1481 -0.2201
  660BOLB   C3A15823  22.558  15.723  23.696  0.0097 -0.0327  0.1636
  660BOLB   C4A15824  22.702  15.639  24.070 -0.1889  0.1432 -0.1362
  660BOLB   C1B15825  22.656  14.921  22.713  0.2524  0.3224  0.3738
  660BOLB   C2B15826  22.757  14.674  22.979  0.3073 -0.0276 -0.2435
  660BOLB   C3B15827  22.563  14.550  23.144 -0.0964  0.0631 -0.0387
  660BOLB   C4B15828  22.632  14.218  23.476 -0.0171 -0.2220 -0.4697
  660BOLB   NC215829  23.927  16.190  26.128  0.0999  0.0526 -0.4300
  660BOLB   PO215830  24.056  16.194  25.699 -0.1069 -0.4493 -0.0059
  660BOLB   GL315831  23.844  16.193  25.340  0.0285 -0.1239  0.0356
  660BOLB   GL415832  23.829  16.510  25.327 -0.1836  0.0674 -0.1396
  660BOLB   C1C15833  23.463  16.422  25.102  0.3057  0.0658  0.0231
  660BOLB   C2C15834  23.084  16.333  24.820 -0.0569 -0.2112  0.3417
  660BOLB   C3C15835  22.749  16.240  24.609 -0.1108  0.1236  0.2290
  660BOLB   C4C15836  22.605  16.023  24.279 -0.2445  0.1836 -0.1115
  660BOLB   C1D15837  23.911  16.284  24.923  0.0136  0.0544  0.1593
  660BOLB   C2D15838  23.592  16.299  24.635 -0.2119  0.1904  0.2893
  660BOLB   C3D15839  23.459  16.263  24.341  0.2211 -0.1267  0.0112
  660BOLB   C4D15840  23.626  16.333  24.051 -0.0680  0.0095  0.2001
  661BOLB   NC115841  11.704   9.563  23.051  0.0795  0.0982 -0.1891
  661BOLB   PO115842  11.148   9.519  23.131  0.0362 -0.3725  0.1718
  661BOLB   GL115843  11.147   9.704  23.554 -0.3031  0.0932 -0.1254
  661BOLB   GL215844  11.284   9.961  23.685 -0.0024 -0.2259  0.1287
  661BOLB   C1A15845  10.782   9.761  23.833  0.2047  0.0559  0.2108
  661BOLB   C2A15846  10.545   9.835  24.215  0.0379  0.3595  0.0380
  661BOLB   C3A15847  10.226  10.211  24.444  0.0990 -0.1303  0.2101
  661BOLB   C4A15848  10.362  10.575  24.688  0.0117  0.0227  0.0468
  661BOLB   C1B15849  11.302   9.880  24.142 -0.2015 -0.0019  0.0585
  661BOLB   C2B15850  11.652   9.930  24.498  0.2482  0.2511  0.1951
  661BOLB   C3B15851  11.819  10.256  24.799  0.0702  0.0254 -0.1051
  661BOLB   C4B15852  11.768  10.568  25.106  0.0895  0.1447  0.0900
  661BOLB   NC215853  10.321  11.016  27.034 -0.1547  0.1496 -0.3199
  661BOLB   PO215854  10.004  10.849  26.748  0.1028 -0.0762 -0.4458
  661BOLB   GL315855  10.087  10.458  26.617 -0.2323  0.1882  0.1045
  661BOLB   GL415856  10.361  10.386  26.487 -0.4065  0.1417 -0.1070
  661BOLB   C1C15857   9.936  10.352  26.185 -0.2123 -0.1690 -0.0004
  661BOLB   C2C15858   9.940  10.531  25.777  0.4350  0.0141 -0.2585
  661BOLB   C3C15859  10.087  10.372  25.422  0.0352 -0.0047  0.1963
  661BOLB   C4C15860  10.224  10.649  25.033  0.0347  0.2092 -0.2152
  661BOLB   C1D15861  10.671  10.575  26.375  0.1714 -0.0168  0.0580
  661BOLB   C2D15862  10.882  10.924  26.327  0.1864 -0.0039 -0.1212
  661BOLB   C3D15863  11.183  11.242  26.170 -0.1237 -0.2356 -0.0745
  661BOLB   C4D15864  11.229  11.660  26.002 -0.4916  0.0024  0.2724
  662BOLB   NC115865  13.716  18.739  24.223 -0.0603  0.0078  0.2995
  662BOLB   PO115866  13.934  18.926  24.575 -0.0723 -0.0410 -0.1166
  662BOLB   GL115867  14.059  18.999  24.913  0.0311 -0.2606 -0.3849
  662BOLB   GL215868  13.785  18.949  25.089 -0.0469  0.3646  0.2181
  662BOLB   C1A15869  14.223  18.855  25.320  0.2935  0.1041 -0.0441
  662BOLB   C2A15870  14.186  18.653  25.671 -0.1727  0.2260  0.3475
  662BOLB   C3A15871  14.056  18.424  26.095  0.0103  0.0698 -0.1521
  662BOLB   C4A15872  13.788  18.230  26.541  0.1312  0.1626  0.0955
  662BOLB   C1B15873  13.768  19.056  25.458  0.1750  0.0747  0.0695
  662BOLB   C2B15874  13.778  18.894  25.881 -0.1217  0.2742 -0.0914
  662BOLB   C3B15875  13.706  18.884  26.256  0.1872 -0.1716 -0.3903
  662BOLB   C4B15876  13.364  18.985  26.653 -0.2789  0.4355  0.4291
  662BOLB   NC215877  14.685  17.508  28.568  0.0253 -0.0734 -0.3497
  662BOLB   PO215878  14.655  16.994  28.676  0.0833  0.0473  0.2806
  662BOLB   GL315879  14.702  17.085  28.254 -0.0830  0.0813  0.2999
  662BOLB   GL415880  14.935  17.037  28.062  0.3134 -0.1843  0.0945
  662BOLB   C1C15881  14.356  17.198  27.937 -0.1362  0.2824  0.2859
  662BOLB   C2C15882  14.124  17.427  27.579  0.0979 -0.1523 -0.0734
  662BOLB   C3C15883  14.024  17.767  27.340 -0.0193 -0.4235  0.3104
  662BOLB   C4C15884  13.897  18.054  26.959 -0.1601 -0.0113 -0.2357
  662BOLB   C1D15885  14.618  16.812  27.833 -0.3351  0.0462  0.1541
  662BOLB   C2D15886  14.517  16.517  27.414  0.1968 -0.2472  0.1980
  662BOLB   C3D15887  14.455  16.092  27.403 -0.2782 -0.1710 -0.2450
  662BOLB   C4D15888  14.258  15.657  27.410  0.0388 -0.1580  0.3397
  663BOLB   NC115889  21.879  12.994  21.257 -0.2005  0.1249  0.0441
  663BOLB   PO115890  22.288  13.055  21.339 -0.2345  0.0931  0.0104
  663BOLB   GL115891  22.421  12.934  21.742 -0.2450  0.0242 -0.0590
  663BOLB   GL215892  22.546  12.534  21.798  0.1868  0.1130 -0.0203
  663BOLB   C1A15893  22.622  13.158  22.155 -0.1083  0.0286 -0.2133
  663BOLB   C2A15894  22.953  13.131  22.489 -0.0942 -0.0862 -0.1155
  663BOLB   C3A15895  23.180  12.968  22.777 -0.0836  0.1905 -0.1022
  663BOLB   C4A15896  23.542  12.774  22.999 -0.1373  0.3777  0.0425
  663BOLB   C1B15897  22.805  12.305  21.887 -0.0684  0.2345 -0.1827
  663BOLB   C2B15898  23.060  12.106  22.188 -0.2265 -0.2952 -0.0380
  663BOLB   C3B15899  23.527  11.862  21.965  0.1642  0.1384  0.1754
  663BOLB   C4B15900  23.677  11.521  22.192 -0.1711 -0.3296 -0.0746
  663BOLB   NC215901  25.485  12.277  24.885  0.1546 -0.2454 -0.2600
  663BOLB   PO215902  25.201  12.420  24.520 -0.1866 -0.1570  0.2164
  663BOLB   GL315903  24.998  12.383  24.095 -0.0128  0.0387 -0.1846
  663BOLB   GL415904  25.037  12.147  23.906 -0.0096  0.2519  0.2709
  663BOLB   C1C15905  24.815  12.713  23.810  0.0643 -0.3211  0.0397
  663BOLB   C2C15906  24.668  12.991  23.483 -0.2468 -0.0322  0.3187
  663BOLB   C3C15907  24.474  12.731  23.242  0.0173  0.3547 -0.2818
  663BOLB   C4C15908  24.009  12.796  23.078 -0.1738 -0.4271 -0.2494
  663BOLB   C1D15909  24.952  11.958  23.405 -0.0180 -0.1428  0.2206
  663BOLB   C2D15910  25.048  11.809  22.996  0.1522 -0.2206 -0.2786
  663BOLB   C3D15911  25.066  12.006  22.548  0.0699 -0.4427 -0.0465
  663BOLB   C4D15912  24.972  12.164  22.168 -0.2394 -0.0681 -0.1679
  664BOLB   NC115913   9.260  18.276  23.612 -0.1163 -0.0587 -0.1595
  664BOLB   PO115914   9.151  17.758  23.579 -0.0963 -0.1112  0.4436
  664BOLB   GL115915   9.070  17.495  23.985 -0.1248  0.1036  0.0278
  664BOLB   GL215916   8.765  17.526  24.154  0.2936  0.2595 -0.1224
  664BOLB   C1A15917   9.181  17.352  24.524  0.1039 -0.2760  0.0117
  664BOLB   C2A15918   9.121  17.307  24.993 -0.4855 -0.0314  0.1994
  664BOLB   C3A15919   9.124  17.408  25.482 -0.0722  0.2712 -0.0608
  664BOLB   C4A15920   8.962  17.120  25.782  0.2289 -0.2915 -0.1057
  664BOLB   C1B15921   8.680  17.296  24.502 -0.3198 -0.1926 -0.4043
  664BOLB   C2B15922   8.390  16.968  24.721  0.0907  0.0822 -0.0612
  664BOLB   C3B15923   8.158  16.932  25.174  0.2218  0.0078  0.2509
  664BOLB   C4B15924   7.948  16.837  25.501  0.0391 -0.0593  0.3228
  664BOLB   NC215925   7.853  17.701  27.962 -0.2991  0.1561  0.0786
  664BOLB   PO215926   8.041  17.303  28.031 -0.0650 -0.2611  0.3417
  664BOLB   GL315927   7.943  17.325  27.517 -0.1559  0.1287 -0.3648
  664BOLB   GL415928   7.615  17.428  27.526 -0.1680  0.0371 -0.1956
  664BOLB   C1C15929   8.135  17.180  27.209  0.1083 -0.0717  0.0023
  664BOLB   C2C15930   8.410  17.316  26.863  0.1830 -0.1048  0.2270
  664BOLB   C3C15931   8.732  17.231  26.488 -0.0195  0.1098  0.0951
  664BOLB   C4C15932   8.871  16.999  26.182  0.2196 -0.0666 -0.1473
  664BOLB   C1D15933   7.847  17.541  27.090 -0.2361  0.0890  0.1991
  664BOLB   C2D15934   8.001  17.617  26.805 -0.2705  0.4314  0.2042
  664BOLB   C3D15935   8.308  17.835  26.500  0.3669  0.2159 -0.2543
  664BOLB   C4D15936   8.596  17.903  26.065 -0.2486  0.0480  0.0733
  665BOLB   NC115937  15.930  17.176  24.402 -0.1196 -0.2343 -0.1224
  665BOLB   PO115938  16.155  16.857  24.601  0.1753 -0.0040 -0.0365
  665BOLB   GL115939  16.419  17.069  24.913 -0.2738  0.2048  0.0580
  665BOLB   GL215940  16.432  16.802  25.082  0.5724  0.1497 -0.2715
  665BOLB   C1A15941  16.662  17.233  25.233 -0.0586 -0.2233  0.0105
  665BOLB   C2A15942  16.672  17.154  25.624 -0.0455 -0.0539  0.0409
  665BOLB   C3A15943  16.916  17.132  26.003 -0.2034  0.1008  0.1636
  665BOLB   C4A15944  16.879  16.919  26.375  0.0942  0.0666 -0.0624
  665BOLB   C1B15945  16.506  16.703  25.509  0.0811  0.0408  0.1313
  665BOLB   C2B15946  16.639  16.691  25.825  0.2160 -0.2897  0.0828
  665BOLB   C3B15947  16.589  16.550  26.270  0.2154 -0.1631  0.1199
  665BOLB   C4B15948  16.386  16.694  26.511  0.0750 -0.1370 -0.1387
  665BOLB   NC215949  16.992  16.450  28.718  0.0841 -0.3049  0.2141
  665BOLB   PO215950  17.255  16.060  28.683 -0.0775 -0.0338 -0.2022
  665BOLB   GL315951  17.457  15.951  28.268 -0.1129 -0.1625  0.1086
  665BOLB   GL415952  17.616  15.635  28.108  0.2144  0.4999 -0.1698
  665BOLB   C1C15953  17.364  16.274  27.893  0.1100 -0.1003  0.0938
  665BOLB   C2C15954  17.153  16.535  27.578  0.2754  0.1939 -0.2603
  665BOLB   C3C15955  17.053  16.693  27.237 -0.0461 -0.1479  0.2135
  665BOLB   C4C15956  16.977  16.651  26.814  0.2488 -0.3275 -0.0933
  665BOLB   C1D15957  17.448  15.613  27.671  0.0418  0.0218  0.1145
  665BOLB   C2D15958  17.082  15.499  27.503  0.0110 -0.1410 -0.1129
  665BOLB   C3D15959  16.733  15.737  27.209 -0.1025  0.0969 -0.0322
  665BOLB   C4D15960  16.531  15.767  26.879 -0.0478 -0.0475  0.1295
  666BOLB   NC115961  21.964  20.277  21.688 -0.0428 -0.0177 -0.0805
  666BOLB   PO115962  21.900  20.043  22.108 -0.3039  0.2748  0.0935
  666BOLB   GL115963  22.242  20.030  22.408 -0.1728 -0.2461 -0.0681
  666BOLB   GL215964  22.065  20.191  22.680  0.1309 -0.1777  0.0025
  666BOLB   C1A15965  22.599  20.223  22.571  0.1749  0.0917 -0.1914
  666BOLB   C2A15966  22.947  20.461  22.602  0.1545 -0.0920 -0.1720
  666BOLB   C3A15967  23.340  20.651  22.592  0.4010  0.0483 -0.0904
  666BOLB   C4A15968  23.720  20.556  22.786 -0.3859  0.0920  0.1068
  666BOLB   C1B15969  22.339  20.246  23.009 -0.0654  0.2110  0.3584
  666BOLB   C2B15970  22.478  20.540  23.379 -0.0261  0.0707  0.0028
  666BOLB   C3B15971  22.628  20.608  23.845  0.0795 -0.1593  0.0404
  666BOLB   C4B15972  22.626  20.636  24.269 -0.0318 -0.0134  0.4199
  666BOLB   NC215973  25.332  20.683  24.527  0.0343 -0.1107 -0.0234
  666BOLB   PO215974  25.214  20.413  24.279 -0.3122 -0.0015 -0.1982
  666BOLB   GL315975  25.067  20.481  23.903 -0.0403  0.3825 -0.0462
  666BOLB   GL415976  24.723  20.353  24.105  0.0908 -0.0656  0.0534
  666BOLB   C1C15977  24.844  20.786  23.614 -0.0173 -0.3937 -0.0504
  666BOLB   C2C15978  24.504  21.028  23.515 -0.2957 -0.0958 -0.0340
  666BOLB   C3C15979  24.090  20.894  23.400 -0.0707 -0.0190  0.0742
  666BOLB   C4C15980  23.917  20.544  23.173 -0.1587  0.0313 -0.0383
  666BOLB   C1D15981  24.746  20.306  23.569 -0.0263  0.1915 -0.3607
  666BOLB   C2D15982  24.548  20.584  23.283  0.0854  0.1213  0.0936
  666BOLB   C3D15983  24.478  20.921  23.038  0.1271  0.1305 -0.0133
  666BOLB   C4D15984  24.401  21.148  22.706  0.2521 -0.2698 -0.1486
  667BOLB   NC115985  10.813  22.550  23.623 -0.0654 -0.1621 -0.1578
  667BOLB   PO115986  10.791  23.008  23.691  0.1689  0.1236  0.0825
  667BOLB   GL115987  10.849  23.178  23.985 -0.1411 -0.0483 -0.2546
  667BOLB   GL215988  11.167  23.308  23.994 -0.0315 -0.0185 -0.4567
  667BOLB   C1A15989  10.729  23.098  24.378 -0.0305  0.0886  0.4213
  667BOLB   C2A15990  10.791  23.353  24.802  0.4431 -0.0294  0.0212
  667BOLB   C3A15991  10.823  23.533  25.184  0.1336  0.4755  0.1622
  667BOLB   C4A15992  10.730  23.361  25.581 -0.1669  0.1254 -0.2462
  667BOLB   C1B15993  11.092  23.497  24.404 -0.1170  0.1049  0.0236
  667BOLB   C2B15994  11.231  23.716  24.938 -0.2469 -0.1333  0.2708
  667BOLB   C3B15995  11.237  23.853  25.419 -0.1062 -0.0643  0.0106
  667BOLB   C4B15996  11.056  23.698  25.777  0.1978 -0.0787  0.2235
  667BOLB   NC215997   9.877  24.415  27.579  0.0828  0.1579 -0.0734
  667BOLB   PO215998   9.713  24.123  27.531  0.2046 -0.1560  0.0225
  667BOLB   GL315999  10.072  24.152  27.202  0.1774  0.1102 -0.3050
  667BOLB   GL416000  10.172  24.346  26.949  0.0584 -0.0103 -0.3815
  667BOLB   C1C16001  10.295  23.911  27.067  0.0134  0.0423  0.1118
  667BOLB   C2C16002  10.460  23.846  26.636  0.2540 -0.0657  0.2037
  667BOLB   C3C16003  10.675  23.604  26.244  0.0834  0.0473  0.1420
  667BOLB   C4C16004  10.649  23.386  25.924  0.0585 -0.0720 -0.0520
  667BOLB   C1D16005  10.416  24.474  26.558  0.2416  0.2086  0.0027
  667BOLB   C2D16006  10.692  24.396  26.289  0.1951  0.3483  0.3252
  667BOLB   C3D16007  11.025  24.388  25.996 -0.1066 -0.2319 -0.1848
  667BOLB   C4D16008  10.966  24.235  25.710 -0.2497  0.1632 -0.0178
  668BOLB   NC116009  16.203  18.300  24.137 -0.3354  0.2160  0.0208
  668BOLB   PO116010  15.936  18.043  24.266 -0.0264 -0.0410 -0.1837
  668BOLB   GL116011  16.086  17.850  24.573 -0.1231 -0.0356  0.0613
  668BOLB   GL216012  16.111  17.525  24.896  0.0664 -0.0253  0.4905
  668BOLB   C1A16013  16.033  17.959  25.076  0.2222  0.1165  0.1414
  668BOLB   C2A16014  15.991  17.926  25.540 -0.3740 -0.0387  0.1117
  668BOLB   C3A16015  15.866  17.846  25.957  0.0787  0.0768  0.1617
  668BOLB   C4A16016  15.818  17.701  26.452 -0.1073 -0.0668 -0.2624
  668BOLB   C1B16017  16.260  17.507  25.341 -0.1861  0.3613  0.1267
  668BOLB   C2B16018  16.301  17.543  25.776 -0.0933 -0.0022 -0.1244
  668BOLB   C3B16019  16.293  17.735  26.234 -0.1190 -0.0818 -0.1261
  668BOLB   C4B16020  16.492  17.993  26.388  0.1600 -0.0845 -0.1498
  668BOLB   NC216021  14.928  17.758  29.149 -0.0279 -0.1603 -0.0466
  668BOLB   PO216022  15.116  17.731  28.783 -0.0553  0.3273 -0.0186
  668BOLB   GL316023  15.103  17.874  28.368 -0.4882 -0.1920 -0.1924
  668BOLB   GL416024  14.860  17.715  28.109  0.2763  0.0680  0.2845
  668BOLB   C1C16025  15.282  17.939  27.967 -0.1476 -0.3691 -0.2375
  668BOLB   C2C16026  15.250  17.890  27.500  0.4171 -0.0865 -0.0552
  668BOLB   C3C16027  15.457  17.670  27.204 -0.0596  0.1643  0.2455
  668BOLB   C4C16028  15.723  17.527  26.851  0.1121 -0.3786 -0.2447
  668BOLB   C1D16029  14.800  17.399  27.790  0.0978 -0.2780  0.0121
  668BOLB   C2D16030  14.642  17.155  27.477 -0.0612 -0.0142 -0.0746
  668BOLB   C3D16031  14.175  16.914  27.406  0.0246  0.0791  0.0197
  668BOLB   C4D16032  13.770  16.977  27.468 -0.0043  0.2850 -0.0656
  669BOLB   NC116033  16.596  21.713  23.202 -0.1468 -0.4352 -0.1004
  669BOLB   PO116034  16.670  21.733  23.680  0.0743 -0.2137 -0.0592
  669BOLB   GL116035  16.710  21.656  24.095 -0.1989 -0.4144  0.0071
  669BOLB   GL216036  16.494  21.759  24.220 -0.0090  0.2291 -0.1072
  669BOLB   C1A16037  16.929  21.811  24.556  0.2174  0.1833 -0.0580
  669BOLB   C2A16038  17.057  21.845  24.892 -0.1272  0.1837  0.1691
  669BOLB   C3A16039  17.155  21.763  25.356 -0.0813  0.0932  0.3002
  669BOLB   C4A16040  17.024  21.688  25.815  0.0035 -0.0698  0.3392
  669BOLB   C1B16041  16.494  22.011  24.707 -0.1020  0.1604 -0.1398
  669BOLB   C2B16042  16.658  22.167  25.071  0.0070  0.2325 -0.0159
  669BOLB   C3B16043  16.761  22.038  25.501 -0.0960 -0.0510 -0.0889
  669BOLB   C4B16044  16.671  22.293  25.814  0.3764  0.0552 -0.4772
  669BOLB   NC216045  16.932  23.043  27.848  0.2515  0.1981  0.2667
  669BOLB   PO216046  17.122  22.669  27.979  0.0455  0.2840 -0.2048
  669BOLB   GL316047  17.329  22.513  27.583 -0.2054 -0.0874  0.1680
  669BOLB   GL416048  17.362  22.155  27.634 -0.1488 -0.0119  0.2629
  669BOLB   C1C16049  17.197  22.487  27.166  0.2250 -0.1670  0.0910
  669BOLB   C2C16050  16.959  22.322  26.744 -0.0900  0.1518 -0.3120
  669BOLB   C3C16051  16.798  22.230  26.399 -0.0381  0.0410 -0.2156
  669BOLB   C4C16052  16.851  21.968  26.098  0.3701 -0.1516  0.1473
  669BOLB   C1D16053  17.395  22.014  27.292  0.3275 -0.2718 -0.1293
  669BOLB   C2D16054  16.947  21.946  27.128  0.0489 -0.0994 -0.0596
  669BOLB   C3D16055  16.591  21.995  26.821  0.3332  0.0155 -0.0119
  669BOLB   C4D16056  16.288  22.280  26.619  0.3724  0.1249  0.1733
  670BOLB   NC116057  17.583  14.882  24.093 -0.1444 -0.1804  0.0075
  670BOLB   PO116058  17.589  14.381  23.940  0.0579  0.1153 -0.1460
  670BOLB   GL116059  17.591  14.391  24.387 -0.0974 -0.0052 -0.1213
  670BOLB   GL216060  17.457  14.088  24.507  0.1942 -0.0214 -0.3569
  670BOLB   C1A16061  17.448  14.568  24.841  0.2729  0.1857  0.2751
  670BOLB   C2A16062  17.480  14.570  25.334 -0.1627 -0.0315  0.1730
  670BOLB   C3A16063  17.315  14.602  25.771  0.0858 -0.3606  0.0227
  670BOLB   C4A16064  16.920  14.643  25.943 -0.1990 -0.1277  0.4060
  670BOLB   C1B16065  17.697  14.110  24.824 -0.0249  0.3128 -0.2132
  670BOLB   C2B16066  17.765  14.197  25.263 -0.2879  0.2536 -0.1167
  670BOLB   C3B16067  17.835  13.825  25.521 -0.1614  0.0199  0.1125
  670BOLB   C4B16068  18.189  13.824  25.891 -0.0218  0.0352 -0.0537
  670BOLB   NC216069  18.284  15.214  27.812  0.1744 -0.1776 -0.2420
  670BOLB   PO216070  18.109  15.434  28.197  0.3024  0.3362 -0.1149
  670BOLB   GL316071  17.809  15.261  27.870 -0.2581 -0.1148 -0.0767
  670BOLB   GL416072  17.509  14.995  27.941  0.3602  0.1845 -0.0525
  670BOLB   C1C16073  17.676  15.202  27.446 -0.0750  0.0513 -0.1901
  670BOLB   C2C16074  17.411  15.038  27.148  0.1403 -0.0544 -0.0841
  670BOLB   C3C16075  17.120  15.010  26.764  0.0137 -0.1222  0.1761
  670BOLB   C4C16076  16.851  14.787  26.418 -0.2305 -0.2873  0.0625
  670BOLB   C1D16077  17.498  14.677  27.597 -0.1055  0.1922  0.0798
  670BOLB   C2D16078  17.605  14.464  27.174  0.0920  0.2216 -0.2617
  670BOLB   C3D16079  17.274  14.527  26.925 -0.1782  0.1479 -0.0842
  670BOLB   C4D16080  16.946  14.302  26.715 -0.2010 -0.4620  0.2311
  671BOLB   NC116081  23.284  13.268  20.686 -0.0807  0.1997 -0.0791
  671BOLB   PO116082  22.903  13.333  20.806  0.1073 -0.1652  0.2654
  671BOLB   GL116083  23.168  13.331  21.186 -0.0324  0.2481 -0.0030
  671BOLB   GL216084  23.516  13.261  21.167  0.2337  0.3899 -0.1211
  671BOLB   C1A16085  23.315  13.305  21.672  0.0651 -0.0340  0.1276
  671BOLB   C2A16086  23.330  12.999  22.118  0.0438 -0.2181  0.0506
  671BOLB   C3A16087  23.527  12.849  22.434 -0.1950  0.1721 -0.2578
  671BOLB   C4A16088  23.788  12.457  22.726  0.0774 -0.0882  0.0449
  671BOLB   C1B16089  23.986  13.369  21.177 -0.3058  0.0318  0.1228
  671BOLB   C2B16090  24.341  13.342  21.458 -0.3385  0.3758  0.4380
  671BOLB   C3B16091  24.664  13.250  21.727 -0.0603 -0.1535 -0.1214
  671BOLB   C4B16092  25.070  12.924  21.841 -0.0522  0.0263  0.0091
  671BOLB   NC216093  24.669  12.502  24.750  0.2182 -0.0677  0.1887
  671BOLB   PO216094  24.274  12.477  24.888  0.0548 -0.0586  0.0087
  671BOLB   GL316095  24.270  12.497  24.451 -0.1461  0.0703  0.0343
  671BOLB   GL416096  24.128  12.793  24.372 -0.3687 -0.1542 -0.0279
  671BOLB   C1C16097  24.506  12.340  24.063 -0.2534  0.1478  0.0648
  671BOLB   C2C16098  24.574  12.244  23.607  0.0082 -0.2070 -0.1456
  671BOLB   C3C16099  24.434  12.152  23.155 -0.2250  0.2425 -0.3017
  671BOLB   C4C16100  24.159  12.279  22.885 -0.1804  0.1908 -0.3268
  671BOLB   C1D16101  24.353  12.848  23.949  0.0785  0.2995 -0.0889
  671BOLB   C2D16102  24.400  13.239  23.771  0.0561  0.0549 -0.2288
  671BOLB   C3D16103  24.340  13.705  23.810  0.1383  0.1158 -0.2482
  671BOLB   C4D16104  24.313  14.090  23.565 -0.3170 -0.2626 -0.1791
  672BOLB   NC116105  19.706  17.180  23.917  0.0985  0.0432 -0.1646
  672BOLB   PO116106  19.672  16.809  23.721 -0.0947 -0.0473 -0.1855
  672BOLB   GL116107  19.876  16.732  24.169  0.2932  0.0194  0.1030
  672BOLB   GL216108  19.739  16.743  24.505  0.3223 -0.2277 -0.0815
  672BOLB   C1A16109  20.203  16.883  24.497 -0.0084  0.1398 -0.2034
  672BOLB   C2A16110  20.509  16.684  24.767  0.0752  0.1760 -0.0211
  672BOLB   C3A16111  20.731  16.525  25.106 -0.2152 -0.0646 -0.0163
  672BOLB   C4A16112  20.835  16.323  25.535 -0.0380 -0.4493  0.2646
  672BOLB   C1B16113  19.761  17.076  24.802  0.0201  0.0620 -0.2386
  672BOLB   C2B16114  19.817  17.218  25.305 -0.1042 -0.0186  0.0135
  672BOLB   C3B16115  19.872  17.446  25.744  0.0587 -0.0289  0.2065
  672BOLB   C4B16116  19.586  17.711  25.998  0.1878  0.0418 -0.1754
  672BOLB   NC216117  22.749  17.419  27.128  0.2170 -0.3552  0.0180
  672BOLB   PO216118  22.366  17.172  27.040 -0.0216  0.3017  0.0435
  672BOLB   GL316119  22.187  17.115  26.620 -0.0295 -0.0353  0.1878
  672BOLB   GL416120  22.084  17.382  26.595 -0.0829 -0.0520 -0.1913
  672BOLB   C1C16121  22.051  16.944  26.137  0.0603  0.2579 -0.2845
  672BOLB   C2C16122  21.705  16.744  25.923 -0.3234  0.0755  0.0556
  672BOLB   C3C16123  21.613  16.380  25.804  0.0932 -0.0519 -0.0148
  672BOLB   C4C16124  21.188  16.255  25.722  0.1277 -0.2359 -0.1134
  672BOLB   C1D16125  21.640  17.291  26.498  0.2343  0.2082 -0.2523
  672BOLB   C2D16126  21.441  17.266  26.197 -0.1386  0.1874  0.1934
  672BOLB   C3D16127  21.306  17.176  25.796 -0.2924 -0.2761 -0.1503
  672BOLB   C4D16128  21.181  17.371  25.469 -0.3060  0.0553 -0.1898
  673BOLB   NC116129  20.242  17.990  22.677 -0.0536 -0.1048 -0.0416
  673BOLB   PO116130  20.433  17.942  23.044 -0.0012 -0.0392  0.2136
  673BOLB   GL116131  20.550  18.068  23.506  0.0549 -0.1336 -0.0295
  673BOLB   GL216132  20.862  17.952  23.593 -0.1272 -0.1070 -0.0732
  673BOLB   C1A16133  20.579  18.053  23.999  0.1085  0.0095  0.0078
  673BOLB   C2A16134  20.771  18.143  24.339  0.2781 -0.1732  0.0516
  673BOLB   C3A16135  20.923  18.139  24.687 -0.0952  0.6041 -0.0802
  673BOLB   C4A16136  21.068  18.298  25.148  0.2083  0.0662  0.3233
  673BOLB   C1B16137  21.347  18.068  23.863 -0.1025 -0.0706 -0.0117
  673BOLB   C2B16138  21.810  18.180  24.050 -0.2907 -0.0531  0.0501
  673BOLB   C3B16139  22.096  18.321  24.406 -0.1033 -0.2885 -0.1644
  673BOLB   C4B16140  22.265  18.179  24.829 -0.0243  0.1177 -0.0846
  673BOLB   NC216141  22.911  19.156  26.815 -0.3223  0.2666 -0.0523
  673BOLB   PO216142  23.072  18.903  26.525 -0.2202  0.0773  0.1818
  673BOLB   GL316143  22.763  18.883  26.216  0.2689 -0.0889 -0.0227
  673BOLB   GL416144  22.754  18.519  26.368  0.2496 -0.2273 -0.3260
  673BOLB   C1C16145  22.513  18.722  25.908  0.0006 -0.0417  0.1019
  673BOLB   C2C16146  22.205  18.296  25.839 -0.2145 -0.1256 -0.1424
  673BOLB   C3C16147  21.828  18.289  25.597  0.0335 -0.2278 -0.2570
  673BOLB   C4C16148  21.374  18.439  25.493 -0.0349  0.0266  0.1319
  673BOLB   C1D16149  22.290  18.426  26.376 -0.0193  0.0303  0.2779
  673BOLB   C2D16150  21.978  18.024  26.221  0.1534  0.0739  0.0496
  673BOLB   C3D16151  22.066  17.594  26.148 -0.2065  0.3096 -0.2564
  673BOLB   C4D16152  21.878  17.291  25.882 -0.2061 -0.2231  0.1675
  674BOLB   NC116153  17.439  20.521  24.034  0.0834 -0.1417  0.0022
  674BOLB   PO116154  17.360  20.431  24.485 -0.0579 -0.0499  0.0748
  674BOLB   GL116155  17.573  20.183  24.789  0.1191  0.3971  0.2345
  674BOLB   GL216156  17.619  19.891  24.780 -0.2728 -0.1074  0.0503
  674BOLB   C1A16157  17.701  20.152  25.156  0.1122 -0.0503 -0.0266
  674BOLB   C2A16158  17.798  19.940  25.613  0.1455  0.0132 -0.0259
  674BOLB   C3A16159  18.035  19.987  26.014 -0.0970 -0.0588 -0.3492
  674BOLB   C4A16160  17.973  20.235  26.394 -0.1833  0.0054  0.2268
  674BOLB   C1B16161  17.997  19.750  25.075 -0.1532  0.1858 -0.1675
  674BOLB   C2B16162  18.215  19.798  25.443 -0.2167  0.0573  0.3132
  674BOLB   C3B16163  18.469  20.060  25.706 -0.0311  0.2473 -0.0949
  674BOLB   C4B16164  18.789  20.119  25.988 -0.1183  0.2745  0.0377
  674BOLB   NC216165  17.162  21.270  27.979  0.2689  0.2209 -0.0987
  674BOLB   PO216166  17.531  21.391  28.132  0.0821 -0.0367 -0.3452
  674BOLB   GL316167  17.623  21.040  27.741 -0.0425  0.0604  0.2113
  674BOLB   GL416168  17.597  21.196  27.548  0.1710  0.0592 -0.1093
  674BOLB   C1C16169  17.602  20.620  27.575  0.3146  0.0268  0.0558
  674BOLB   C2C16170  17.707  20.198  27.574  0.1462 -0.2837 -0.2648
  674BOLB   C3C16171  17.857  20.038  27.247 -0.1981  0.1629 -0.0405
  674BOLB   C4C16172  17.749  20.177  26.812  0.3672 -0.1606  0.0008
  674BOLB   C1D16173  17.823  21.269  27.189 -0.0645 -0.0090 -0.0137
  674BOLB   C2D16174  17.864  21.099  26.934 -0.0499 -0.1844  0.0960
  674BOLB   C3D16175  18.105  21.149  26.548 -0.1931 -0.1382 -0.0215
  674BOLB   C4D16176  17.955  21.530  26.358  0.0947 -0.0622  0.0500
  675BOLB   NC116177  21.805  15.696  22.523 -0.0575  0.0707 -0.0426
  675BOLB   PO116178  22.038  16.023  22.345  0.0736 -0.1217 -0.4029
  675BOLB   GL116179  22.169  16.070  22.727  0.1837 -0.2256 -0.0555
  675BOLB   GL216180  22.067  16.376  22.853 -0.2663  0.1320  0.1709
  675BOLB   C1A16181  22.583  16.121  22.844 -0.2190  0.2014 -0.2337
  675BOLB   C2A16182  22.983  15.983  23.086 -0.0529 -0.1217  0.1189
  675BOLB   C3A16183  23.268  16.021  23.380  0.0228 -0.0311 -0.4728
  675BOLB   C4A16184  23.570  16.430  23.364  0.1615 -0.1590 -0.1324
  675BOLB   C1B16185  22.118  16.752  23.090  0.1909  0.0525 -0.0344
  675BOLB   C2B16186  22.136  16.941  23.517 -0.0994  0.0239  0.1675
  675BOLB   C3B16187  22.404  17.316  23.721  0.1582 -0.1640 -0.0634
  675BOLB   C4B16188  22.508  17.658  23.813  0.0029  0.1757  0.0910
  675BOLB   NC216189  24.767  16.333  24.924 -0.0013  0.1517  0.0120
  675BOLB   PO216190  24.739  16.848  25.021 -0.1323 -0.2180  0.2266
  675BOLB   GL316191  24.665  16.744  24.662  0.2444  0.3776  0.2015
  675BOLB   GL416192  24.374  16.439  24.603 -0.1128  0.3531 -0.1777
  675BOLB   C1C16193  24.756  16.774  24.279 -0.1206  0.1878  0.0705
  675BOLB   C2C16194  24.757  16.525  23.872 -0.0977 -0.4125 -0.2518
  675BOLB   C3C16195  24.360  16.385  23.542  0.3022  0.0396 -0.3706
  675BOLB   C4C16196  23.944  16.383  23.454 -0.1486 -0.2564  0.0615
  675BOLB   C1D16197  24.093  16.731  24.778 -0.4717  0.1831 -0.0380
  675BOLB   C2D16198  23.820  17.002  24.740 -0.3099  0.1446  0.1769
  675BOLB   C3D16199  23.450  17.300  24.673  0.1032 -0.0832  0.0269
  675BOLB   C4D16200  23.046  17.164  24.410  0.0201  0.1268 -0.1891
  676BOLB   NC116201  15.287  14.542  24.093  0.2596 -0.0251  0.3563
  676BOLB   PO116202  15.421  14.921  24.296  0.0343  0.2232  0.0877
  676BOLB   GL116203  15.223  14.900  24.603 -0.2974 -0.0991 -0.0926
  676BOLB   GL216204  14.882  14.851  24.607  0.0394  0.2235 -0.3249
  676BOLB   C1A16205  15.218  14.638  24.929 -0.0186 -0.0519 -0.0066
  676BOLB   C2A16206  15.225  14.298  25.090 -0.1604 -0.0634  0.0845
  676BOLB   C3A16207  15.266  14.140  25.446  0.0011 -0.1587 -0.2806
  676BOLB   C4A16208  15.243  13.851  25.850 -0.1207  0.3194  0.0164
  676BOLB   C1B16209  14.745  14.865  25.008  0.2022  0.2420 -0.1729
  676BOLB   C2B16210  14.946  14.676  25.349 -0.2888  0.0352  0.2322
  676BOLB   C3B16211  14.971  14.425  25.775 -0.2005  0.3378  0.2955
  676BOLB   C4B16212  15.243  14.347  26.045 -0.0749 -0.0938  0.4476
  676BOLB   NC216213  14.784  14.114  28.484 -0.1651  0.2896 -0.2882
  676BOLB   PO216214  14.929  14.423  28.188  0.1222 -0.1890 -0.1375
  676BOLB   GL316215  14.898  14.314  27.764  0.0298  0.0571  0.0155
  676BOLB   GL416216  15.058  14.491  27.592 -0.2383  0.3582  0.1383
  676BOLB   C1C16217  14.666  14.293  27.361 -0.1902  0.2149 -0.2274
  676BOLB   C2C16218  14.838  14.266  26.897 -0.1124 -0.5395  0.0204
  676BOLB   C3C16219  15.116  14.284  26.547 -0.2052  0.0074 -0.1092
  676BOLB   C4C16220  15.198  13.901  26.280  0.1264  0.1897 -0.2524
  676BOLB   C1D16221  15.068  14.693  27.147 -0.0379  0.1091  0.1726
  676BOLB   C2D16222  15.004  14.793  26.818 -0.0315 -0.2425 -0.2465
  676BOLB   C3D16223  14.749  14.722  26.461 -0.4492  0.3135  0.2617
  676BOLB   C4D16224  14.459  14.679  25.977  0.0645  0.1472 -0.3381
  677BOLB   NC116225  19.068  22.575  23.260  0.2612 -0.1390  0.2347
  677BOLB   PO116226  18.872  22.135  23.197 -0.2433  0.4469 -0.3452
  677BOLB   GL116227  19.162  22.072  23.591  0.0519  0.2369  0.1928
  677BOLB   GL216228  19.334  21.718  23.639 -0.1420  0.1201  0.0454
  677BOLB   C1A16229  19.487  22.056  23.957 -0.1423  0.0522 -0.0369
  677BOLB   C2A16230  19.500  22.298  24.404 -0.1430 -0.1519 -0.0258
  677BOLB   C3A16231  19.521  22.206  24.786  0.0665 -0.0501 -0.0544
  677BOLB   C4A16232  19.687  22.245  25.168  0.1877 -0.0605  0.0869
  677BOLB   C1B16233  19.832  21.740  23.803 -0.0169  0.2506  0.1647
  677BOLB   C2B16234  20.079  22.037  24.089  0.2482 -0.2175  0.0055
  677BOLB   C3B16235  19.983  22.364  24.475  0.0579 -0.0932  0.1435
  677BOLB   C4B16236  20.244  22.588  24.681  0.1032 -0.0493  0.1358
  677BOLB   NC216237  21.731  23.427  27.095 -0.0128 -0.0512  0.0317
  677BOLB   PO216238  21.245  23.333  26.749 -0.2563  0.0693 -0.1381
  677BOLB   GL316239  21.069  23.139  26.381 -0.4059 -0.1434 -0.0554
  677BOLB   GL416240  21.033  23.241  26.131 -0.2203  0.3980  0.0642
  677BOLB   C1C16241  20.591  23.071  26.253 -0.1210  0.0446 -0.0439
  677BOLB   C2C16242  20.304  22.849  26.078  0.0743 -0.0376 -0.0803
  677BOLB   C3C16243  20.055  22.662  25.820 -0.0896 -0.2534 -0.0878
  677BOLB   C4C16244  19.930  22.316  25.471 -0.1246  0.0932 -0.1949
  677BOLB   C1D16245  20.757  23.099  25.778  0.2001  0.1213 -0.0982
  677BOLB   C2D16246  20.385  23.041  25.508 -0.0613 -0.2343  0.0169
  677BOLB   C3D16247  20.249  23.344  25.167  0.3697  0.0177  0.5239
  677BOLB   C4D16248  20.499  23.341  24.830 -0.1750  0.0213 -0.1107
  678BOLB   NC116249  13.523  18.737  24.677  0.0240  0.0563 -0.0772
  678BOLB   PO116250  13.697  18.397  24.643  0.1725 -0.0894  0.0136
  678BOLB   GL116251  13.489  18.414  25.030 -0.1328  0.0356  0.1927
  678BOLB   GL216252  13.513  18.077  25.108  0.3052  0.0634  0.3669
  678BOLB   C1A16253  13.533  18.567  25.499 -0.1927  0.1993  0.4919
  678BOLB   C2A16254  13.467  18.420  25.978  0.1112 -0.2611 -0.1390
  678BOLB   C3A16255  13.374  18.462  26.390  0.2950 -0.1039 -0.1792
  678BOLB   C4A16256  13.420  18.324  26.824  0.0122  0.3368  0.3299
  678BOLB   C1B16257  13.451  17.951  25.589  0.0181 -0.0775 -0.3215
  678BOLB   C2B16258  13.298  17.744  25.891 -0.0898  0.3338  0.1113
  678BOLB   C3B16259  13.176  17.539  26.253  0.3409  0.0011  0.3057
  678BOLB   C4B16260  12.911  17.622  26.598  0.0019 -0.1898 -0.0743
  678BOLB   NC216261  12.749  18.723  29.059  0.0188  0.1794 -0.3122
  678BOLB   PO216262  12.419  18.774  28.652 -0.1217 -0.0281  0.1774
  678BOLB   GL316263  12.348  18.644  28.173 -0.0890 -0.1565  0.1777
  678BOLB   GL416264  12.386  19.009  27.994  0.1581 -0.1989 -0.2179
  678BOLB   C1C16265  12.350  18.299  27.860 -0.0049  0.1467 -0.2125
  678BOLB   C2C16266  12.406  18.155  27.508 -0.0860 -0.1967 -0.0701
  678BOLB   C3C16267  12.776  18.251  27.261  0.0529 -0.1014  0.0486
  678BOLB   C4C16268  13.041  18.181  26.988 -0.1979 -0.1336  0.0267
  678BOLB   C1D16269  12.486  19.258  27.672  0.1065 -0.0039  0.1233
  678BOLB   C2D16270  12.649  19.174  27.332 -0.0236  0.0235  0.2782
  678BOLB   C3D16271  12.643  18.811  27.054 -0.1355 -0.1193 -0.1140
  678BOLB   C4D16272  12.496  18.489  26.680  0.1742  0.1750 -0.0758
  679BOLB   NC116273  19.439  20.049  23.745 -0.0913  0.1132  0.0308
  679BOLB   PO116274  19.446  20.202  23.322 -0.0886  0.0770 -0.1054
  679BOLB   GL116275  19.579  20.493  23.763 -0.0890 -0.2041 -0.1122
  679BOLB   GL216276  19.842  20.331  24.039 -0.3545 -0.0564  0.0387
  679BOLB   C1A16277  19.471  20.776  24.092 -0.2465 -0.0859 -0.0611
  679BOLB   C2A16278  19.780  20.830  24.465  0.0448  0.0307  0.0447
  679BOLB   C3A16279  20.070  20.737  24.625  0.1404  0.1164 -0.2931
  679BOLB   C4A16280  20.345  20.689  25.027 -0.3366  0.2279 -0.1946
  679BOLB   C1B16281  19.878  20.306  24.478  0.2898 -0.0330 -0.3016
  679BOLB   C2B16282  19.998  20.307  24.851  0.0102 -0.1407 -0.3934
  679BOLB   C3B16283  20.108  20.267  25.230  0.4287 -0.0998  0.1361
  679BOLB   C4B16284  20.173  20.301  25.772  0.2074 -0.0038 -0.1198
  679BOLB   NC216285  21.394  20.000  27.465 -0.0224  0.1706  0.1034
  679BOLB   PO216286  21.140  20.344  27.354  0.1064 -0.2482 -0.2133
  679BOLB   GL316287  20.884  20.308  27.100  0.2153  0.2943  0.2019
  679BOLB   GL416288  20.586  20.228  27.016  0.0405 -0.0030 -0.1097
  679BOLB   C1C16289  20.924  20.154  26.602  0.0498  0.0025 -0.1683
  679BOLB   C2C16290  20.751  20.184  26.239 -0.0517 -0.1047  0.0824
  679BOLB   C3C16291  20.763  20.289  25.718  0.0331 -0.2807  0.1562
  679BOLB   C4C16292  20.577  20.527  25.370  0.0392 -0.1530  0.4059
  679BOLB   C1D16293  20.481  20.029  26.629  0.1130 -0.1895 -0.1244
  679BOLB   C2D16294  20.228  20.117  26.224 -0.0903 -0.1386  0.1830
  679BOLB   C3D16295  19.978  19.885  25.947 -0.0486  0.1002 -0.1592
  679BOLB   C4D16296  19.802  19.893  25.480 -0.3321  0.1970 -0.1279
  680BOLB   NC116297  18.514  21.986  23.628 -0.0626  0.0369 -0.3227
  680BOLB   PO116298  18.431  22.345  23.372 -0.0812 -0.1648  0.1038
  680BOLB   GL116299  18.741  22.409  23.639 -0.2136  0.0684  0.0561
  680BOLB   GL216300  18.718  22.804  23.596  0.1392  0.0286  0.0324
  680BOLB   C1A16301  19.099  22.573  23.904 -0.1629 -0.0757 -0.1251
  680BOLB   C2A16302  19.176  22.732  24.307  0.1353 -0.1159  0.1801
  680BOLB   C3A16303  19.161  22.511  24.699  0.1926  0.0687  0.0425
  680BOLB   C4A16304  19.201  22.439  25.106 -0.0438 -0.2161  0.0577
  680BOLB   C1B16305  18.681  22.849  24.081  0.4438  0.0860  0.3553
  680BOLB   C2B16306  18.754  22.821  24.553 -0.3081 -0.1677 -0.2279
  680BOLB   C3B16307  18.852  22.878  24.957 -0.1234 -0.2172  0.0659
  680BOLB   C4B16308  18.954  22.773  25.437 -0.0255  0.1467  0.3646
  680BOLB   NC216309  18.804  22.025  27.516  0.3086  0.1548  0.2932
  680BOLB   PO216310  19.221  22.245  27.663  0.0288  0.1647  0.4396
  680BOLB   GL316311  19.375  21.904  27.276 -0.1942  0.1509 -0.3076
  680BOLB   GL416312  19.139  21.658  27.269 -0.0722 -0.0024  0.4714
  680BOLB   C1C16313  19.345  22.088  26.844 -0.1027  0.1836  0.1049
  680BOLB   C2C16314  19.373  22.174  26.437  0.0803  0.0273  0.1883
  680BOLB   C3C16315  19.414  22.333  26.030 -0.1912 -0.3823 -0.1613
  680BOLB   C4C16316  19.402  22.446  25.626  0.3170  0.0709  0.3901
  680BOLB   C1D16317  19.418  21.582  26.878  0.2096 -0.0058  0.2064
  680BOLB   C2D16318  19.469  21.589  26.398 -0.0966  0.1169  0.0403
  680BOLB   C3D16319  19.417  21.877  26.082  0.1059  0.0485 -0.0508
  680BOLB   C4D16320  19.556  22.002  25.726  0.3435  0.3474  0.3193
  681BOLB   NC116321  10.968  17.056  24.102  0.1009  0.0823  0.0497
  681BOLB   PO116322  10.535  17.169  24.106 -0.3148 -0.1079  0.3066
  681BOLB   GL116323  10.709  16.984  24.533 -0.1991  0.1490  0.2046
  681BOLB   GL216324  10.473  16.777  24.781  0.0748  0.1305  0.0559
  681BOLB   C1A16325  10.722  17.094  25.049  0.3908 -0.0803  0.0904
  681BOLB   C2A16326  10.754  17.045  25.478 -0.0761 -0.2399  0.0995
  681BOLB   C3A16327  10.741  16.953  25.860 -0.3131 -0.2193 -0.3958
  681BOLB   C4A16328  10.704  16.866  26.307  0.1339 -0.1160 -0.3522
  681BOLB   C1B16329  10.370  16.777  25.145  0.4708 -0.1156  0.0933
  681BOLB   C2B16330  10.249  16.523  25.539  0.1620  0.2363  0.0121
  681BOLB   C3B16331  10.270  16.116  25.761  0.3749  0.5330 -0.1732
  681BOLB   C4B16332   9.850  15.956  26.005  0.2084 -0.1767  0.0245
  681BOLB   NC216333   9.064  17.601  28.272  0.0040 -0.0147 -0.2768
  681BOLB   PO216334   9.250  17.257  27.959  0.1521 -0.0394 -0.1074
  681BOLB   GL316335   9.552  17.307  27.674  0.1105  0.0937 -0.1201
  681BOLB   GL416336   9.384  17.328  27.409 -0.2645 -0.0174 -0.2574
  681BOLB   C1C16337   9.846  17.068  27.591 -0.2002 -0.0232  0.1597
  681BOLB   C2C16338  10.248  17.032  27.459  0.1448  0.2543  0.0935
  681BOLB   C3C16339  10.464  16.776  27.198 -0.0340 -0.1720  0.0461
  681BOLB   C4C16340  10.810  16.820  26.783  0.1930  0.0157 -0.1589
  681BOLB   C1D16341   9.616  17.167  27.123  0.0295 -0.1264  0.2788
  681BOLB   C2D16342   9.653  17.194  26.657 -0.0523  0.0397  0.1592
  681BOLB   C3D16343   9.655  17.134  26.347 -0.1564 -0.3037 -0.0807
  681BOLB   C4D16344   9.809  16.995  26.083  0.0381  0.1166 -0.1151
  682BOLB   NC116345  20.102  11.732  22.419  0.1283 -0.1423 -0.0631
  682BOLB   PO116346  20.386  11.491  22.107  0.1164 -0.2018 -0.1996
  682BOLB   GL116347  20.410  11.284  22.527  0.2730  0.1116  0.0077
  682BOLB   GL216348  20.554  11.014  22.508  0.1434  0.1377 -0.0748
  682BOLB   C1A16349  20.622  11.387  22.968  0.3062 -0.0313  0.0233
  682BOLB   C2A16350  20.667  11.606  23.384  0.4090 -0.2003  0.3421
  682BOLB   C3A16351  21.034  11.644  23.685 -0.3345 -0.0157 -0.1940
  682BOLB   C4A16352  21.357  11.709  23.882  0.1706 -0.3140 -0.1279
  682BOLB   C1B16353  20.367  10.952  22.963  0.1069  0.2193  0.2087
  682BOLB   C2B16354  20.560  11.039  23.478 -0.0271  0.0222  0.0600
  682BOLB   C3B16355  20.568  10.751  23.865 -0.3745  0.0323 -0.0547
  682BOLB   C4B16356  20.518  10.426  24.171 -0.2440 -0.0236 -0.2555
  682BOLB   NC216357  21.201  10.787  26.492 -0.0278 -0.0966 -0.1791
  682BOLB   PO216358  21.412  11.139  26.493 -0.1086  0.1741  0.0666
  682BOLB   GL316359  21.256  11.426  26.100  0.0843 -0.0013 -0.0266
  682BOLB   GL416360  20.981  11.611  25.982 -0.2503  0.1867  0.2161
  682BOLB   C1C16361  21.367  11.597  25.628 -0.1733 -0.0201 -0.1394
  682BOLB   C2C16362  21.260  11.824  25.217 -0.0505 -0.0926  0.0353
  682BOLB   C3C16363  21.408  11.894  24.834 -0.1709 -0.2365  0.0898
  682BOLB   C4C16364  21.333  11.795  24.368  0.2044 -0.1592  0.1431
  682BOLB   C1D16365  21.064  11.996  25.678 -0.0643  0.1587  0.0044
  682BOLB   C2D16366  20.899  12.285  25.472 -0.2486  0.3003 -0.0436
  682BOLB   C3D16367  20.888  12.722  25.554 -0.0002  0.0917  0.4337
  682BOLB   C4D16368  21.189  13.116  25.550  0.3451  0.1078  0.0961
  683BOLB   NC116369  16.530   9.354  22.855  0.2573 -0.2460  0.1282
  683BOLB   PO116370  16.878   9.274  22.636  0.1899 -0.0042 -0.2734
  683BOLB   GL116371  17.241   9.248  22.832 -0.0860 -0.1636  0.2012
  683BOLB   GL216372  17.163   9.317  23.171 -0.2061  0.2342 -0.0973
  683BOLB   C1A16373  17.649   9.144  22.922 -0.2799  0.0200 -0.0815
  683BOLB   C2A16374  17.915   8.956  23.235 -0.0258 -0.0909  0.4240
  683BOLB   C3A16375  18.147   8.559  23.269 -0.1109 -0.0381  0.3251
  683BOLB   C4A16376  18.389   8.352  23.653  0.1272 -0.1751 -0.0625
  683BOLB   C1B16377  17.331   8.945  23.365  0.4377 -0.1858 -0.0695
  683BOLB   C2B16378  17.244   8.570  23.456 -0.0748 -0.1925 -0.0719
  683BOLB   C3B16379  17.426   8.206  23.618 -0.2119 -0.1969  0.0093
  683BOLB   C4B16380  17.587   7.939  23.978 -0.0250  0.2060 -0.2844
  683BOLB   NC216381  18.602   7.945  26.129 -0.0345  0.1267 -0.0049
  683BOLB   PO216382  18.426   7.501  26.014  0.2283 -0.3221  0.0104
  683BOLB   GL316383  18.312   7.695  25.519  0.2195  0.1642  0.1722
  683BOLB   GL416384  18.072   7.540  25.319 -0.0394  0.0531  0.0476
  683BOLB   C1C16385  18.388   7.865  25.111 -0.3948 -0.0854 -0.1334
  683BOLB   C2C16386  18.545   7.902  24.650  0.0019 -0.0197  0.1839
  683BOLB   C3C16387  18.561   7.810  24.138 -0.2929 -0.1935  0.2290
  683BOLB   C4C16388  18.625   7.988  23.673  0.3174  0.0264 -0.2524
  683BOLB   C1D16389  18.016   7.234  24.938 -0.1541  0.0098  0.1139
  683BOLB   C2D16390  17.954   7.226  24.512  0.1087  0.1082  0.4498
  683BOLB   C3D16391  17.643   7.283  24.285  0.3975 -0.0441  0.0132
  683BOLB   C4D16392  17.798   7.407  23.941  0.2070  0.1710 -0.1800
  684BOLB   NC116393  22.903  10.534  18.792  0.1659 -0.1179  0.1094
  684BOLB   PO116394  22.905  10.307  19.164 -0.3121  0.1565 -0.0400
  684BOLB   GL116395  23.215   9.967  19.246  0.1305  0.0483  0.0236
  684BOLB   GL216396  23.224   9.678  19.105  0.1206  0.3676 -0.0879
  684BOLB   C1A16397  23.393   9.823  19.593  0.1435  0.1832 -0.1379
  684BOLB   C2A16398  23.564   9.550  19.906  0.3505  0.0870 -0.2989
  684BOLB   C3A16399  23.689   9.474  20.347  0.0164 -0.0082 -0.0859
  684BOLB   C4A16400  23.683   9.144  20.588  0.1433 -0.1897 -0.0367
  684BOLB   C1B16401  23.599   9.475  19.312  0.0726  0.1319 -0.2443
  684BOLB   C2B16402  23.954   9.277  19.111  0.2098  0.2066 -0.2738
  684BOLB   C3B16403  24.022   9.106  18.727 -0.0991  0.0322  0.1359
  684BOLB   C4B16404  24.203   8.953  18.454  0.0658  0.2033  0.1366
  684BOLB   NC216405  23.613   7.592  22.470 -0.0997 -0.0111 -0.0532
  684BOLB   PO216406  23.760   7.494  22.223 -0.0212 -0.0782  0.0389
  684BOLB   GL316407  23.608   7.694  21.791  0.0674  0.1083 -0.1784
  684BOLB   GL416408  23.269   7.631  21.685 -0.1711 -0.3217  0.0672
  684BOLB   C1C16409  23.649   7.815  21.411 -0.3522  0.3758  0.4335
  684BOLB   C2C16410  23.844   8.150  21.186 -0.1543 -0.4378 -0.2171
  684BOLB   C3C16411  23.816   8.573  21.071 -0.1871  0.2430  0.1925
  684BOLB   C4C16412  23.867   8.955  20.890 -0.1170  0.1753  0.2194
  684BOLB   C1D16413  23.229   8.044  21.603  0.0514 -0.0710 -0.2236
  684BOLB   C2D16414  22.977   8.367  21.520 -0.3385 -0.1079 -0.2328
  684BOLB   C3D16415  22.565   8.385  21.348 -0.1332  0.1973 -0.2623
  684BOLB   C4D16416  22.273   8.036  21.237 -0.1758 -0.2807  0.1957
  685BOLB   NC116417  16.200   8.306  22.008  0.2143  0.1183 -0.0260
  685BOLB   PO116418  15.827   8.319  22.117  0.0596 -0.1584 -0.0653
  685BOLB   GL116419  15.950   8.083  22.457  0.1150  0.0538 -0.1100
  685BOLB   GL216420  15.733   8.107  22.670  0.1482 -0.2435  0.1469
  685BOLB   C1A16421  16.269   7.865  22.701  0.1575  0.1263 -0.0545
  685BOLB   C2A16422  16.467   7.654  22.917  0.1521 -0.3527 -0.0289
  685BOLB   C3A16423  16.660   7.540  23.292 -0.1964  0.2337 -0.3036
  685BOLB   C4A16424  16.752   7.460  23.715 -0.0430  0.3860  0.0243
  685BOLB   C1B16425  15.932   8.286  22.998  0.3666  0.2202 -0.0642
  685BOLB   C2B16426  16.235   8.575  23.023  0.0240 -0.0863  0.3041
  685BOLB   C3B16427  16.515   8.692  23.201  0.2017 -0.1816  0.2638
  685BOLB   C4B16428  16.851   8.838  23.508  0.0429 -0.1402 -0.2081
  685BOLB   NC216429  17.558   6.804  25.738 -0.1358  0.0091  0.1052
  685BOLB   PO216430  17.682   6.516  25.460 -0.2069  0.0861 -0.2011
  685BOLB   GL316431  17.312   6.717  25.352 -0.2323 -0.0192  0.2635
  685BOLB   GL416432  17.193   6.968  25.512  0.1406 -0.1556 -0.0890
  685BOLB   C1C16433  16.984   6.786  24.903 -0.0944  0.1118 -0.1146
  685BOLB   C2C16434  16.875   6.827  24.537  0.1299 -0.1156 -0.1720
  685BOLB   C3C16435  16.663   6.905  24.165  0.4408 -0.2739 -0.2692
  685BOLB   C4C16436  16.659   7.093  23.835  0.1582 -0.1534  0.2336
  685BOLB   C1D16437  16.813   7.167  25.481 -0.0981  0.2115  0.4209
  685BOLB   C2D16438  16.711   7.511  25.243  0.0644 -0.2570  0.1028
  685BOLB   C3D16439  16.555   7.617  24.935 -0.0072  0.1100 -0.0416
  685BOLB   C4D16440  16.399   7.975  24.798  0.2397 -0.1576  0.2103
  686BOLB   NC116441  20.757  19.752  22.791  0.2871 -0.1391 -0.2504
  686BOLB   PO116442  20.798  20.082  23.063 -0.0369  0.0193 -0.1032
  686BOLB   GL116443  21.052  20.360  23.245  0.0048 -0.1351 -0.1046
  686BOLB   GL216444  21.016  20.351  23.652  0.1890  0.4429 -0.1578
  686BOLB   C1A16445  21.461  20.382  23.513  0.1841  0.1228  0.2025
  686BOLB   C2A16446  21.683  20.233  23.826 -0.0669 -0.1137  0.0039
  686BOLB   C3A16447  21.664  20.223  24.331  0.4552  0.0633 -0.0480
  686BOLB   C4A16448  21.559  20.167  24.765 -0.0663 -0.1667  0.1600
  686BOLB   C1B16449  21.209  20.529  23.903 -0.0305  0.0542  0.2565
  686BOLB   C2B16450  21.325  20.860  24.085 -0.1740  0.3491 -0.1813
  686BOLB   C3B16451  21.446  21.149  24.382  0.0417  0.1849  0.2215
  686BOLB   C4B16452  21.561  21.106  24.853 -0.3027 -0.0451  0.2869
  686BOLB   NC216453  22.209  19.802  27.294  0.2066 -0.0256  0.1712
  686BOLB   PO216454  21.989  19.757  26.842  0.0443 -0.3897  0.2444
  686BOLB   GL316455  21.707  19.917  26.560  0.2533  0.0078  0.2306
  686BOLB   GL416456  21.778  20.249  26.435  0.0674 -0.1319 -0.0655
  686BOLB   C1C16457  21.298  19.892  26.451 -0.2526  0.2615 -0.3682
  686BOLB   C2C16458  21.090  19.923  26.031 -0.0421  0.0509  0.1653
  686BOLB   C3C16459  21.199  19.907  25.634 -0.0035 -0.0018 -0.2022
  686BOLB   C4C16460  21.321  19.799  25.110  0.0051  0.0288 -0.1650
  686BOLB   C1D16461  22.037  19.976  26.180 -0.2260  0.0874 -0.0541
  686BOLB   C2D16462  22.099  19.638  25.838  0.1855 -0.0094 -0.2853
  686BOLB   C3D16463  22.089  19.475  25.445 -0.1684 -0.3042 -0.0922
  686BOLB   C4D16464  22.153  19.054  25.184  0.0615 -0.2682 -0.0249
  687BOLB   NC116465  17.175  14.880  23.867  0.3443 -0.1838 -0.0270
  687BOLB   PO116466  17.171  14.632  24.161  0.0918 -0.2758  0.1678
  687BOLB   GL116467  16.967  14.478  24.455  0.0220 -0.0494  0.2681
  687BOLB   GL216468  16.922  14.098  24.553 -0.0533 -0.0656  0.1019
  687BOLB   C1A16469  16.865  14.475  24.871  0.0246 -0.1138  0.0943
  687BOLB   C2A16470  16.930  14.661  25.362 -0.0357  0.0836  0.0256
  687BOLB   C3A16471  17.097  14.997  25.626  0.1169 -0.0301 -0.0997
  687BOLB   C4A16472  17.144  15.097  25.927 -0.1543  0.2269  0.0054
  687BOLB   C1B16473  17.156  14.093  24.998 -0.1502  0.1135 -0.1627
  687BOLB   C2B16474  17.365  13.974  25.379  0.0695 -0.1789  0.2136
  687BOLB   C3B16475  17.370  14.096  25.837 -0.1301 -0.2993  0.3363
  687BOLB   C4B16476  17.796  14.347  25.876 -0.1410  0.3291 -0.1701
  687BOLB   NC216477  17.980  14.831  28.182  0.0381  0.3135 -0.1144
  687BOLB   PO216478  18.495  14.800  28.233 -0.2266  0.3170 -0.1663
  687BOLB   GL316479  18.220  14.694  27.735 -0.1723 -0.0892  0.2278
  687BOLB   GL416480  17.995  14.439  27.868 -0.0520  0.2275  0.1836
  687BOLB   C1C16481  18.101  14.840  27.354  0.0275 -0.1939 -0.1891
  687BOLB   C2C16482  17.908  14.893  27.028 -0.1125 -0.1539 -0.0269
  687BOLB   C3C16483  17.577  14.821  26.673  0.1077 -0.3266 -0.0577
  687BOLB   C4C16484  17.360  15.059  26.354 -0.0835  0.1395 -0.0911
  687BOLB   C1D16485  17.966  14.300  27.471  0.2861 -0.1506 -0.2368
  687BOLB   C2D16486  18.116  14.416  27.138  0.0640  0.0689 -0.1298
  687BOLB   C3D16487  17.848  14.268  26.766 -0.1324  0.0828  0.0993
  687BOLB   C4D16488  17.729  14.377  26.459  0.1849 -0.0097 -0.1337
  688BOLB   NC116489  18.305  24.225  22.490 -0.2320 -0.0790 -0.0904
  688BOLB   PO116490  18.270  23.756  22.631 -0.1301 -0.0372  0.2326
  688BOLB   GL116491  18.467  23.958  23.065 -0.0058  0.0404  0.1202
  688BOLB   GL216492  18.486  24.267  23.132 -0.3504 -0.0370 -0.0238
  688BOLB   C1A16493  18.601  23.884  23.465 -0.2081 -0.1708 -0.0585
  688BOLB   C2A16494  18.962  24.037  23.720  0.2138  0.0606  0.1843
  688BOLB   C3A16495  19.287  24.419  23.712  0.2297 -0.2580 -0.0066
  688BOLB   C4A16496  19.436  24.664  24.011 -0.3534  0.3257 -0.0761
  688BOLB   C1B16497  18.731  24.405  23.433  0.0552 -0.2272  0.2541
  688BOLB   C2B16498  18.804  24.473  23.866 -0.1880 -0.0065  0.0371
  688BOLB   C3B16499  19.086  24.338  24.185 -0.1859  0.0352  0.0314
  688BOLB   C4B16500  19.325  24.028  24.048 -0.0680  0.0568  0.2265
  688BOLB   NC216501  21.477  24.505  25.594  0.1140 -0.1177 -0.1194
  688BOLB   PO216502  21.454  24.883  25.299 -0.1737 -0.3184  0.2144
  688BOLB   GL316503  21.148  24.835  25.021  0.0226  0.2943  0.1766
  688BOLB   GL416504  21.290  24.957  24.723 -0.0126 -0.1540  0.0030
  688BOLB   C1C16505  20.851  24.682  24.943 -0.1564  0.0932 -0.0554
  688BOLB   C2C16506  20.492  24.462  25.028  0.0713  0.0003  0.4036
  688BOLB   C3C16507  20.140  24.497  24.741 -0.0101  0.0240 -0.1247
  688BOLB   C4C16508  19.711  24.573  24.424 -0.1495 -0.1269  0.0479
  688BOLB   C1D16509  21.065  24.974  24.322  0.5460  0.1055 -0.0978
  688BOLB   C2D16510  21.203  25.135  23.931 -0.3586  0.2498  0.1565
  688BOLB   C3D16511  21.613  25.159  23.743  0.1017  0.5137 -0.2453
  688BOLB   C4D16512  22.009  25.308  23.652 -0.1474 -0.0850 -0.2480
  689BOLB   NC116513  18.913  11.283  22.351 -0.1909  0.0567  0.1591
  689BOLB   PO116514  18.827  11.333  22.747 -0.1282  0.0001  0.1483
  689BOLB   GL116515  18.849  11.156  23.195 -0.0859  0.3080 -0.2773
  689BOLB   GL216516  18.750  11.418  23.352 -0.1757 -0.4321 -0.0989
  689BOLB   C1A16517  18.968  11.009  23.657  0.0382 -0.1802  0.1637
  689BOLB   C2A16518  19.210  10.909  24.042 -0.1232 -0.3770  0.0248
  689BOLB   C3A16519  19.207  10.814  24.430  0.2014  0.3107 -0.1200
  689BOLB   C4A16520  19.471  10.897  24.750  0.0240 -0.1158  0.0479
  689BOLB   C1B16521  18.778  11.490  23.714 -0.5553  0.1128  0.3284
  689BOLB   C2B16522  18.874  11.416  24.126  0.0339 -0.1168  0.0667
  689BOLB   C3B16523  19.017  11.247  24.458  0.2227 -0.1689  0.3131
  689BOLB   C4B16524  19.115  11.094  24.967  0.3423 -0.3475 -0.0635
  689BOLB   NC216525  19.878  11.647  27.556 -0.0823  0.1911 -0.1373
  689BOLB   PO216526  19.857  11.353  27.180 -0.2214 -0.1937 -0.0285
  689BOLB   GL316527  19.708  11.297  26.797  0.0736  0.2624  0.0430
  689BOLB   GL416528  19.692  11.508  26.542 -0.3024  0.2304 -0.0264
  689BOLB   C1C16529  19.841  11.139  26.282  0.1266  0.0296  0.1596
  689BOLB   C2C16530  19.794  10.889  25.963 -0.0413  0.2685 -0.1286
  689BOLB   C3C16531  19.543  10.944  25.638 -0.1274 -0.0647  0.1596
  689BOLB   C4C16532  19.610  10.903  25.228 -0.2022 -0.1299  0.3319
  689BOLB   C1D16533  19.890  11.619  26.169  0.0716  0.1551 -0.1254
  689BOLB   C2D16534  19.606  11.833  25.845 -0.0373 -0.0946 -0.2333
  689BOLB   C3D16535  19.538  12.277  25.770 -0.2649 -0.1308 -0.0587
  689BOLB   C4D16536  19.318  12.720  26.004  0.1660  0.0632  0.2446
  690BOLB   NC116537  15.028  13.529  23.569  0.2204 -0.1285 -0.2639
  690BOLB   PO116538  15.206  13.585  23.959 -0.2018  0.2661 -0.2324
  690BOLB   GL116539  15.214  13.593  24.532  0.1220 -0.1061  0.3210
  690BOLB   GL216540  15.542  13.504  24.620  0.0536  0.0759  0.0573
  690BOLB   C1A16541  14.966  13.803  24.856  0.0460  0.1513  0.1564
  690BOLB   C2A16542  15.042  13.722  25.304  0.1401 -0.0480  0.1428
  690BOLB   C3A16543  14.812  13.895  25.699  0.0195  0.1705 -0.1861
  690BOLB   C4A16544  14.854  13.690  26.058  0.1747  0.1372 -0.0551
  690BOLB   C1B16545  15.368  13.435  25.007 -0.0321 -0.0779 -0.1632
  690BOLB   C2B16546  15.388  13.421  25.483 -0.4060 -0.2866  0.2732
  690BOLB   C3B16547  15.334  13.364  25.883  0.0656  0.0456  0.0895
  690BOLB   C4B16548  15.139  13.361  26.362 -0.0517  0.0605  0.0201
  690BOLB   NC216549  13.790  12.481  28.349 -0.2743 -0.1877  0.0675
  690BOLB   PO216550  13.481  12.786  28.123  0.4705  0.0385 -0.1724
  690BOLB   GL316551  13.855  12.870  27.831  0.0556 -0.2537 -0.0075
  690BOLB   GL416552  14.239  12.703  27.968  0.2275  0.2698 -0.3173
  690BOLB   C1C16553  13.994  13.126  27.376  0.1636 -0.0255  0.0687
  690BOLB   C2C16554  14.246  13.333  27.135 -0.2625  0.2380  0.1869
  690BOLB   C3C16555  14.452  13.405  26.794  0.0152  0.1082  0.1174
  690BOLB   C4C16556  14.567  13.414  26.380  0.0766  0.1040 -0.0519
  690BOLB   C1D16557  14.297  12.340  27.692  0.1190  0.0979  0.3016
  690BOLB   C2D16558  14.361  12.303  27.303  0.1170 -0.0636  0.0039
  690BOLB   C3D16559  14.436  11.987  26.894  0.1383 -0.0029 -0.1312
  690BOLB   C4D16560  14.304  11.695  26.688  0.2541  0.2859  0.1643
  691BOLB   NC116561  21.075  10.784  21.135 -0.1472 -0.0026  0.1830
  691BOLB   PO116562  21.216  10.604  20.761 -0.1129  0.0593 -0.2392
  691BOLB   GL116563  21.460  10.245  20.938 -0.2066 -0.4573  0.2070
  691BOLB   GL216564  21.256  10.088  20.988  0.1517  0.2254  0.0847
  691BOLB   C1A16565  21.606   9.872  21.224 -0.2124  0.0360 -0.3688
  691BOLB   C2A16566  21.887   9.626  21.507  0.0813  0.0084  0.2058
  691BOLB   C3A16567  22.251   9.472  21.668  0.0621  0.2369  0.1607
  691BOLB   C4A16568  22.498   9.457  22.031 -0.2088 -0.3091 -0.1080
  691BOLB   C1B16569  21.540   9.861  20.661  0.0961  0.2002  0.0187
  691BOLB   C2B16570  21.878   9.717  20.581  0.2730  0.1189  0.0130
  691BOLB   C3B16571  22.156   9.334  20.803 -0.5569  0.0775  0.0092
  691BOLB   C4B16572  21.913   8.932  20.706 -0.0655 -0.3378  0.0960
  691BOLB   NC216573  24.187   8.919  23.497  0.2600  0.0541  0.0804
  691BOLB   PO216574  24.446   9.373  23.636  0.0480 -0.1798 -0.1540
  691BOLB   GL316575  24.040   9.374  23.400  0.1013  0.0581  0.1611
  691BOLB   GL416576  24.153   9.376  23.152 -0.1618 -0.2265  0.1703
  691BOLB   C1C16577  23.682   9.204  23.136  0.5461  0.1016  0.2712
  691BOLB   C2C16578  23.337   9.343  22.745 -0.5484 -0.0223  0.0177
  691BOLB   C3C16579  23.072   9.232  22.443 -0.1582  0.2343  0.0800
  691BOLB   C4C16580  22.753   9.462  22.338  0.1558 -0.0209 -0.0406
  691BOLB   C1D16581  24.248   9.650  22.763  0.5727 -0.1998  0.0678
  691BOLB   C2D16582  24.081   9.850  22.447  0.2856  0.1620 -0.1791
  691BOLB   C3D16583  23.946  10.088  22.104 -0.0375  0.0697 -0.0124
  691BOLB   C4D16584  23.614  10.311  21.849  0.0709  0.0731  0.2063
  692BOLB   NC116585  13.800  15.263  24.415  0.2592 -0.0199 -0.1185
  692BOLB   PO116586  14.205  15.186  24.382  0.2829  0.2096 -0.0407
  692BOLB   GL116587  14.424  15.123  24.788  0.1062  0.2111  0.0735
  692BOLB   GL216588  14.623  15.340  24.826 -0.2136 -0.5895 -0.0103
  692BOLB   C1A16589  14.269  15.099  25.204 -0.1519  0.1711  0.4296
  692BOLB   C2A16590  14.573  14.984  25.490  0.5263  0.1348  0.1460
  692BOLB   C3A16591  14.812  15.041  25.725  0.2447  0.1263  0.0186
  692BOLB   C4A16592  14.898  15.053  26.098 -0.0779 -0.0713  0.2222
  692BOLB   C1B16593  14.658  15.532  25.209 -0.4637  0.0037 -0.0967
  692BOLB   C2B16594  14.963  15.646  25.363  0.0202  0.0230 -0.0154
  692BOLB   C3B16595  14.976  15.860  25.760  0.3313  0.1200  0.1131
  692BOLB   C4B16596  15.312  16.001  26.097 -0.0179 -0.0368 -0.0032
  692BOLB   NC216597  15.269  15.259  28.135 -0.4076  0.0237  0.3563
  692BOLB   PO216598  15.800  15.196  28.272  0.1985 -0.0347 -0.0903
  692BOLB   GL316599  15.771  15.109  27.861  0.0637  0.1947 -0.1000
  692BOLB   GL416600  16.122  15.079  27.913  0.0161 -0.0523  0.2992
  692BOLB   C1C16601  15.545  14.920  27.543 -0.0291 -0.0008  0.1582
  692BOLB   C2C16602  15.515  14.922  27.163  0.2357 -0.1641  0.2799
  692BOLB   C3C16603  15.465  14.817  26.656  0.0164  0.1363  0.1437
  692BOLB   C4C16604  15.225  15.109  26.463 -0.0079 -0.0476  0.1768
  692BOLB   C1D16605  16.484  15.300  27.651 -0.1075  0.1737  0.0972
  692BOLB   C2D16606  16.410  15.239  27.161  0.0388  0.0164 -0.1427
  692BOLB   C3D16607  16.181  15.416  26.827 -0.2547 -0.0261  0.0561
  692BOLB   C4D16608  15.968  15.699  26.653 -0.3558  0.0497 -0.0666
  693BOLB   NC116609  14.890  12.696  24.117 -0.1116 -0.1907 -0.0640
  693BOLB   PO116610  15.048  12.282  23.995  0.2359 -0.1389 -0.1725
  693BOLB   GL116611  14.957  11.952  24.235 -0.1826  0.0259  0.0845
  693BOLB   GL216612  15.162  11.902  24.396 -0.0463 -0.0458  0.1030
  693BOLB   C1A16613  14.742  11.906  24.692  0.0968 -0.1131 -0.4208
  693BOLB   C2A16614  14.976  11.915  25.028 -0.0109  0.2291  0.2275
  693BOLB   C3A16615  15.192  11.892  25.440 -0.2373 -0.0478 -0.1395
  693BOLB   C4A16616  15.340  11.775  25.806  0.7102 -0.0657 -0.3295
  693BOLB   C1B16617  15.043  11.501  24.613  0.1998 -0.1094  0.1847
  693BOLB   C2B16618  15.196  11.455  24.974 -0.0271 -0.2775 -0.1895
  693BOLB   C3B16619  15.225  11.364  25.443 -0.0048 -0.0282  0.0272
  693BOLB   C4B16620  15.385  11.289  25.870 -0.0363  0.0215 -0.3996
  693BOLB   NC216621  15.154  10.740  27.789  0.0534 -0.1544  0.0182
  693BOLB   PO216622  15.550  10.984  27.916  0.1499 -0.0979 -0.0953
  693BOLB   GL316623  15.354  11.333  27.804  0.1432  0.0059  0.2274
  693BOLB   GL416624  15.042  11.213  27.770 -0.1095 -0.2329 -0.2511
  693BOLB   C1C16625  15.339  11.307  27.398  0.0996  0.1762 -0.0103
  693BOLB   C2C16626  15.222  11.294  26.996 -0.0784  0.0823  0.2078
  693BOLB   C3C16627  15.131  11.466  26.571  0.2358  0.2871 -0.0200
  693BOLB   C4C16628  15.188  11.761  26.236  0.2424  0.2774 -0.0279
  693BOLB   C1D16629  14.877  11.425  27.311 -0.0310 -0.1521  0.2537
  693BOLB   C2D16630  14.827  11.618  26.937 -0.0393  0.4862  0.0233
  693BOLB   C3D16631  14.774  11.759  26.570  0.1282  0.2401 -0.0845
  693BOLB   C4D16632  14.619  11.992  26.267 -0.2413 -0.1710  0.5029
  694BOLB   NC116633  18.907  15.817  24.001  0.2572  0.1399 -0.4094
  694BOLB   PO116634  19.251  15.936  23.731 -0.0365 -0.0306 -0.2269
  694BOLB   GL116635  19.432  16.104  24.140 -0.0170 -0.1088 -0.2997
  694BOLB   GL216636  19.660  16.290  24.253  0.2001  0.1009 -0.0573
  694BOLB   C1A16637  19.634  15.826  24.445 -0.0314 -0.1274 -0.2639
  694BOLB   C2A16638  19.833  15.897  24.829 -0.0986  0.2330 -0.5810
  694BOLB   C3A16639  19.930  15.795  25.194  0.0042  0.0293  0.0236
  694BOLB   C4A16640  20.083  15.736  25.639 -0.0889 -0.2789 -0.2507
  694BOLB   C1B16641  19.547  16.366  24.677 -0.0693 -0.0487 -0.0194
  694BOLB   C2B16642  19.556  16.315  25.138 -0.1974 -0.0052 -0.2885
  694BOLB   C3B16643  19.804  16.171  25.481  0.1536  0.0148  0.4469
  694BOLB   C4B16644  20.313  16.149  25.701 -0.1939 -0.1349 -0.0174
  694BOLB   NC216645  19.838  15.959  27.733  0.0051  0.5025 -0.1932
  694BOLB   PO216646  19.428  16.177  27.834  0.0207  0.2899 -0.0035
  694BOLB   GL316647  19.458  16.169  27.399 -0.1711  0.1208  0.2022
  694BOLB   GL416648  19.362  16.458  27.349  0.1122  0.0697  0.1818
  694BOLB   C1C16649  19.414  15.893  26.996 -0.0042 -0.4353  0.1605
  694BOLB   C2C16650  19.549  15.800  26.647 -0.2128  0.1719 -0.0733
  694BOLB   C3C16651  19.916  15.743  26.344 -0.1107  0.1691 -0.1543
  694BOLB   C4C16652  20.137  15.654  25.953 -0.2060  0.3161 -0.2033
  694BOLB   C1D16653  19.072  16.650  27.503  0.2148  0.0780  0.2627
  694BOLB   C2D16654  18.876  17.120  27.327  0.0134  0.1901 -0.3830
  694BOLB   C3D16655  19.104  17.343  27.012  0.1725 -0.2639 -0.0902
  694BOLB   C4D16656  19.441  17.218  26.735  0.1589 -0.1473  0.0722
  695BOLB   NC116657  12.180  13.287  23.955 -0.0665 -0.0158 -0.2121
  695BOLB   PO116658  11.829  12.949  23.902  0.0302  0.0024 -0.0073
  695BOLB   GL116659  11.845  12.834  24.336 -0.0928 -0.0697 -0.0597
  695BOLB   GL216660  11.773  12.618  24.376 -0.1350 -0.0737 -0.1115
  695BOLB   C1A16661  12.011  12.770  24.831  0.0756 -0.1859  0.1080
  695BOLB   C2A16662  11.928  12.410  25.181 -0.1313 -0.2054  0.1573
  695BOLB   C3A16663  12.236  12.122  25.465 -0.2400  0.2976 -0.0505
  695BOLB   C4A16664  12.113  11.893  25.860  0.0810 -0.1506  0.1458
  695BOLB   C1B16665  11.830  12.346  24.636  0.1802  0.1405 -0.2562
  695BOLB   C2B16666  11.837  12.018  24.935 -0.3130 -0.2143  0.0108
  695BOLB   C3B16667  11.804  11.958  25.444  0.0025 -0.1495  0.2251
  695BOLB   C4B16668  11.424  12.088  25.705 -0.0315 -0.0182 -0.3897
  695BOLB   NC216669  10.938  10.831  27.852  0.0284  0.0366  0.2196
  695BOLB   PO216670  10.683  11.241  27.629  0.1400  0.4222  0.2128
  695BOLB   GL316671  10.847  11.609  27.336  0.1194 -0.3600 -0.0549
  695BOLB   GL416672  10.686  11.888  27.270 -0.0321 -0.1592  0.3098
  695BOLB   C1C16673  11.190  11.749  27.079  0.0745 -0.0127  0.0370
  695BOLB   C2C16674  11.481  11.905  26.907  0.1264  0.0807  0.0547
  695BOLB   C3C16675  11.611  11.893  26.516  0.0690 -0.0279  0.1251
  695BOLB   C4C16676  11.711  11.861  26.071  0.1556 -0.0577 -0.0613
  695BOLB   C1D16677  10.867  12.221  27.042  0.4415  0.2112 -0.0315
  695BOLB   C2D16678  11.189  12.293  26.900  0.0594 -0.0442 -0.0773
  695BOLB   C3D16679  11.595  12.357  26.685 -0.2376  0.1793 -0.0037
  695BOLB   C4D16680  11.910  12.691  26.613  0.2553  0.1238 -0.0263
  696BOLB   NC116681   9.218  18.319  24.107  0.0295  0.0092 -0.1748
  696BOLB   PO116682   9.270  17.957  24.021  0.0681  0.2181 -0.0174
  696BOLB   GL116683   9.077  17.889  24.375  0.3000 -0.1895 -0.0124
  696BOLB   GL216684   9.289  18.108  24.574 -0.2333 -0.0886  0.2282
  696BOLB   C1A16685   8.916  17.751  24.773  0.0360 -0.2217  0.2680
  696BOLB   C2A16686   9.019  17.894  25.175 -0.1193  0.2381 -0.1294
  696BOLB   C3A16687   8.979  17.824  25.676  0.0688  0.0485  0.1923
  696BOLB   C4A16688   9.002  17.567  26.113  0.0650  0.0549 -0.0545
  696BOLB   C1B16689   9.478  18.297  24.935  0.0638 -0.1118  0.2255
  696BOLB   C2B16690   9.432  18.252  25.342 -0.0827 -0.0435  0.2959
  696BOLB   C3B16691   9.253  18.195  25.868 -0.0729  0.0809  0.1363
  696BOLB   C4B16692   8.959  18.424  26.223  0.1389  0.0314 -0.1041
  696BOLB   NC216693   9.979  17.268  28.527 -0.1383 -0.4019 -0.0396
  696BOLB   PO216694   9.700  16.937  28.154  0.0937  0.0571  0.0593
  696BOLB   GL316695   9.535  16.675  27.793 -0.1438  0.0730  0.0430
  696BOLB   GL416696   9.245  16.879  27.649 -0.1514  0.0432 -0.0367
  696BOLB   C1C16697   9.573  16.625  27.354 -0.1297 -0.0877  0.0791
  696BOLB   C2C16698   9.478  16.608  26.905  0.1372 -0.1666 -0.1295
  696BOLB   C3C16699   9.224  16.873  26.575 -0.2596 -0.1187 -0.1948
  696BOLB   C4C16700   9.209  17.346  26.470  0.1545 -0.4096 -0.2419
  696BOLB   C1D16701   9.079  16.847  27.171  0.0486  0.0425 -0.4857
  696BOLB   C2D16702   9.130  17.236  26.939 -0.1975 -0.0059 -0.0885
  696BOLB   C3D16703   8.850  17.633  26.825  0.3915 -0.0957  0.0662
  696BOLB   C4D16704   8.810  17.858  26.488  0.0691  0.3569  0.0323
  697BOLB   NC116705  22.198  17.565  22.443  0.1570 -0.2323  0.0012
  697BOLB   PO116706  22.482  17.509  22.102 -0.1794  0.0497  0.0664
  697BOLB   GL116707  22.606  17.890  22.481  0.1006 -0.0167  0.1103
  697BOLB   GL216708  22.502  18.230  22.508 -0.1440  0.1268 -0.0660
  697BOLB   C1A16709  23.024  18.128  22.588 -0.3039  0.0445  0.1363
  697BOLB   C2A16710  23.337  18.224  22.996  0.0672  0.4376 -0.0559
  697BOLB   C3A16711  23.510  18.426  23.265  0.1351  0.1748 -0.0671
  697BOLB   C4A16712  23.711  18.491  23.596 -0.2273 -0.0215  0.3092
  697BOLB   C1B16713  22.672  18.430  22.885 -0.0868 -0.3884  0.2960
  697BOLB   C2B16714  22.934  18.583  23.147 -0.0387  0.0866  0.0691
  697BOLB   C3B16715  23.264  18.754  23.459  0.3737 -0.1931 -0.2218
  697BOLB   C4B16716  23.352  18.937  23.812  0.3101 -0.3191  0.0630
  697BOLB   NC216717  24.635  19.379  25.041  0.1390 -0.1387 -0.0684
  697BOLB   PO216718  24.693  19.026  25.315 -0.1842  0.1489 -0.1418
  697BOLB   GL316719  24.353  18.822  25.035  0.0977 -0.1920 -0.0375
  697BOLB   GL416720  24.427  18.497  24.896  0.1097 -0.2528 -0.0412
  697BOLB   C1C16721  24.071  18.974  24.781 -0.1078 -0.0882 -0.0017
  697BOLB   C2C16722  23.874  18.894  24.462 -0.0746 -0.3664 -0.2348
  697BOLB   C3C16723  23.788  18.911  24.114  0.0164 -0.1260  0.2503
  697BOLB   C4C16724  23.655  18.549  23.981 -0.2300  0.2051  0.0233
  697BOLB   C1D16725  24.502  18.178  24.603  0.1033 -0.1484 -0.0895
  697BOLB   C2D16726  24.303  18.060  24.233 -0.0458 -0.2179  0.1274
  697BOLB   C3D16727  23.932  17.850  24.066 -0.0254  0.3423 -0.1008
  697BOLB   C4D16728  23.486  17.776  23.932 -0.0745 -0.0662 -0.1826
  698BOLB   NC116729  12.638   8.093  22.861  0.1486  0.0593  0.0974
  698BOLB   PO116730  12.200   8.228  22.961  0.3314 -0.1809  0.2657
  698BOLB   GL116731  12.435   8.326  23.345 -0.1079 -0.5065  0.2134
  698BOLB   GL216732  12.457   8.557  23.386 -0.1479  0.1098 -0.1499
  698BOLB   C1A16733  12.583   8.291  23.834 -0.1602  0.0659 -0.0836
  698BOLB   C2A16734  12.506   8.322  24.232 -0.0854 -0.1744  0.1784
  698BOLB   C3A16735  12.535   8.208  24.706  0.1846  0.0490  0.2414
  698BOLB   C4A16736  12.613   8.216  25.182  0.1902 -0.2539  0.0002
  698BOLB   C1B16737  12.867   8.579  23.415  0.1532 -0.2509  0.0026
  698BOLB   C2B16738  13.347   8.580  23.670 -0.2346  0.0386  0.1058
  698BOLB   C3B16739  13.442   8.823  23.971 -0.2493  0.0786  0.1695
  698BOLB   C4B16740  13.528   9.123  24.215 -0.0717  0.3087  0.0306
  698BOLB   NC216741  14.132   7.501  27.172 -0.2205 -0.0723 -0.3222
  698BOLB   PO216742  13.827   7.505  26.845  0.3350 -0.3007 -0.0127
  698BOLB   GL316743  13.701   7.794  26.545 -0.2316  0.0811  0.2434
  698BOLB   GL416744  13.757   7.800  26.187  0.1511  0.1640 -0.1671
  698BOLB   C1C16745  13.312   7.844  26.520 -0.0870  0.3003  0.1533
  698BOLB   C2C16746  12.947   7.810  26.220  0.2958 -0.0149  0.0429
  698BOLB   C3C16747  12.675   7.980  25.930  0.2101  0.1645  0.0127
  698BOLB   C4C16748  12.588   8.262  25.596  0.0456 -0.1988  0.1014
  698BOLB   C1D16749  13.843   7.513  25.881 -0.1417 -0.1389  0.1089
  698BOLB   C2D16750  13.875   7.521  25.496 -0.0016  0.0284 -0.2552
  698BOLB   C3D16751  13.974   7.707  25.039  0.0071  0.2945 -0.1146
  698BOLB   C4D16752  13.868   7.947  24.792 -0.3486 -0.0235  0.2294
  699BOLB   NC116753  13.356  21.614  24.413 -0.0793 -0.3353  0.0482
  699BOLB   PO116754  13.475  22.041  24.441  0.0210 -0.3773 -0.0005
  699BOLB   GL116755  13.846  21.917  24.628  0.1071 -0.0564 -0.2022
  699BOLB   GL216756  13.679  21.670  24.849 -0.1241 -0.3625  0.2183
  699BOLB   C1A16757  14.237  21.756  24.957  0.1121 -0.1569  0.0975
  699BOLB   C2A16758  14.167  21.746  25.526 -0.0745  0.2192 -0.3402
  699BOLB   C3A16759  14.260  21.918  25.963 -0.0459  0.1938  0.0786
  699BOLB   C4A16760  14.414  22.010  26.393  0.2509  0.1905  0.1185
  699BOLB   C1B16761  13.658  22.038  25.131 -0.0430 -0.0325  0.0965
  699BOLB   C2B16762  13.646  22.269  25.427  0.0492  0.0635 -0.1181
  699BOLB   C3B16763  13.732  22.655  25.631  0.0336 -0.1398  0.0564
  699BOLB   C4B16764  13.590  22.879  25.944  0.0055  0.0531 -0.0697
  699BOLB   NC216765  14.462  22.545  28.338  0.0979 -0.2466 -0.0486
  699BOLB   PO216766  14.602  22.044  28.314  0.0198 -0.0121 -0.2403
  699BOLB   GL316767  14.550  22.102  27.971 -0.1776 -0.2332 -0.3010
  699BOLB   GL416768  14.611  21.757  27.771  0.0342 -0.1154 -0.1532
  699BOLB   C1C16769  14.406  22.328  27.732  0.0672 -0.0912  0.2752
  699BOLB   C2C16770  14.579  22.539  27.455 -0.0869 -0.2997  0.0300
  699BOLB   C3C16771  14.605  22.495  26.995 -0.1412  0.0134 -0.0827
  699BOLB   C4C16772  14.555  22.082  26.745  0.2272 -0.4988 -0.1725
  699BOLB   C1D16773  14.686  21.727  27.294  0.0911  0.4922  0.0763
  699BOLB   C2D16774  14.626  21.400  26.995 -0.3183 -0.0259  0.3021
  699BOLB   C3D16775  14.528  21.094  26.707 -0.1700 -0.2240 -0.1086
  699BOLB   C4D16776  14.267  20.989  26.484  0.1869 -0.1051 -0.0753
  700BOLB   NC116777  18.878  20.964  23.455  0.1770 -0.1210  0.3982
  700BOLB   PO116778  19.397  20.806  23.386  0.0294 -0.0227 -0.0293
  700BOLB   GL116779  19.705  20.948  23.602 -0.2606  0.2542  0.0234
  700BOLB   GL216780  20.051  20.983  23.418 -0.2935 -0.0308 -0.0581
  700BOLB   C1A16781  19.955  20.863  23.950  0.2766 -0.1359  0.0002
  700BOLB   C2A16782  20.401  20.989  24.198  0.3315 -0.2134  0.0481
  700BOLB   C3A16783  20.859  21.061  24.326  0.3419  0.1504  0.0854
  700BOLB   C4A16784  21.018  21.205  24.766 -0.1675  0.1762 -0.0745
  700BOLB   C1B16785  20.161  21.232  23.741  0.3946  0.0784 -0.0213
  700BOLB   C2B16786  20.167  21.418  24.205  0.3027  0.1371 -0.1659
  700BOLB   C3B16787  20.497  21.477  24.568  0.1412  0.2899  0.0804
  700BOLB   C4B16788  20.727  21.757  24.986  0.0082 -0.0016  0.1494
  700BOLB   NC216789  22.948  20.784  26.386 -0.2397 -0.2811 -0.1869
  700BOLB   PO216790  22.458  20.615  26.278  0.0694  0.3060  0.1374
  700BOLB   GL316791  22.336  20.411  26.077 -0.1170  0.0380  0.0786
  700BOLB   GL416792  22.492  20.123  26.066  0.0685  0.2101 -0.0345
  700BOLB   C1C16793  22.119  20.563  25.693  0.2905  0.1814  0.0017
  700BOLB   C2C16794  21.723  20.686  25.579 -0.5304  0.0196  0.0217
  700BOLB   C3C16795  21.419  20.896  25.332  0.0905  0.1494  0.0324
  700BOLB   C4C16796  21.153  21.084  25.115 -0.1454 -0.1608 -0.0508
  700BOLB   C1D16797  22.563  19.719  26.074  0.0681 -0.1176  0.2552
  700BOLB   C2D16798  22.488  19.340  26.045  0.0146 -0.1696  0.0092
  700BOLB   C3D16799  22.190  19.099  25.777 -0.0304  0.2638  0.4895
  700BOLB   C4D16800  22.212  18.686  25.491 -0.3083  0.1476 -0.0620
  701BOLB   NC116801  12.513  13.967  24.298 -0.1810  0.1134  0.2122
  701BOLB   PO116802  12.900  14.207  24.459 -0.0096  0.0924 -0.2230
  701BOLB   GL116803  12.708  14.133  24.765 -0.1366 -0.1140  0.6307
  701BOLB   GL216804  12.734  14.500  24.881  0.1254  0.0464  0.0795
  701BOLB   C1A16805  12.697  13.958  25.205 -0.3308 -0.2026  0.0555
  701BOLB   C2A16806  12.766  13.773  25.610  0.3362  0.1688 -0.1333
  701BOLB   C3A16807  12.680  13.567  25.945 -0.0299  0.1105 -0.0228
  701BOLB   C4A16808  12.438  13.636  26.291  0.0719  0.0337  0.0319
  701BOLB   C1B16809  12.541  14.622  25.303  0.1322 -0.0153  0.0280
  701BOLB   C2B16810  12.587  14.555  25.630  0.0459  0.0749 -0.2038
  701BOLB   C3B16811  12.609  14.491  26.003 -0.1672 -0.0443  0.0852
  701BOLB   C4B16812  12.789  14.464  26.454 -0.1200  0.1071  0.0477
  701BOLB   NC216813  11.187  14.083  28.611 -0.2390 -0.3089  0.2804
  701BOLB   PO216814  11.423  13.876  28.405 -0.0323 -0.3458 -0.1668
  701BOLB   GL316815  11.406  13.821  27.959  0.0458  0.3441 -0.0031
  701BOLB   GL416816  11.221  13.616  27.746 -0.1752  0.0343 -0.1068
  701BOLB   C1C16817  11.523  13.910  27.522 -0.2586  0.2039 -0.0229
  701BOLB   C2C16818  11.926  13.906  27.331  0.1497  0.0289  0.1727
  701BOLB   C3C16819  12.099  13.919  26.975 -0.2390 -0.0989  0.1553
  701BOLB   C4C16820  12.346  13.825  26.707 -0.0615  0.1818  0.1963
  701BOLB   C1D16821  11.039  13.978  27.533  0.0826 -0.0309 -0.0470
  701BOLB   C2D16822  11.090  14.314  27.279 -0.1444 -0.1031  0.0033
  701BOLB   C3D16823  11.116  14.470  26.796  0.0146 -0.0107 -0.1674
  701BOLB   C4D16824  11.359  14.581  26.392  0.2145 -0.2284  0.0678
  702BOLB   NC116825  21.525  12.534  22.027  0.3366 -0.3058  0.4041
  702BOLB   PO116826  21.687  12.919  22.011 -0.2866 -0.0446  0.1358
  702BOLB   GL116827  21.605  12.951  22.383  0.1711 -0.0551  0.1954
  702BOLB   GL216828  21.712  13.225  22.523  0.0176  0.3529 -0.4122
  702BOLB   C1A16829  21.684  12.830  22.795  0.1593  0.0481 -0.5511
  702BOLB   C2A16830  21.768  12.503  23.075 -0.0508  0.0594  0.0658
  702BOLB   C3A16831  22.021  12.186  23.104  0.2483 -0.0840  0.0421
  702BOLB   C4A16832  22.244  11.868  23.280  0.0451 -0.1440 -0.1947
  702BOLB   C1B16833  22.136  13.068  22.458 -0.0083  0.1697  0.0330
  702BOLB   C2B16834  22.514  13.222  22.608  0.3188  0.0121  0.1819
  702BOLB   C3B16835  22.614  13.138  23.107 -0.2098 -0.1811 -0.1157
  702BOLB   C4B16836  22.374  13.107  23.436  0.2174 -0.1189  0.2853
  702BOLB   NC216837  22.812  10.145  25.074 -0.0097  0.2921 -0.0612
  702BOLB   PO216838  23.237  10.210  24.900  0.1242  0.1825 -0.0317
  702BOLB   GL316839  23.091  10.605  24.775  0.0790  0.0383  0.0074
  702BOLB   GL416840  22.754  10.645  24.869 -0.1454 -0.0075  0.0493
  702BOLB   C1C16841  23.009  10.905  24.464 -0.2804  0.1774  0.1056
  702BOLB   C2C16842  22.751  11.135  24.111 -0.2678 -0.0225 -0.1710
  702BOLB   C3C16843  22.702  11.413  23.805 -0.4084  0.0961 -0.2347
  702BOLB   C4C16844  22.548  11.643  23.492  0.1286  0.1131 -0.1055
  702BOLB   C1D16845  22.261  10.697  24.614 -0.1663  0.0605  0.2552
  702BOLB   C2D16846  21.958  10.753  24.460 -0.1705  0.1181 -0.1628
  702BOLB   C3D16847  21.697  10.690  24.160 -0.1315 -0.0575  0.1735
  702BOLB   C4D16848  21.456  10.302  23.918  0.0842  0.2654  0.0792
  703BOLB   NC116849  13.106   9.513  23.155 -0.1233  0.0056  0.2164
  703BOLB   PO116850  12.629   9.537  23.155 -0.1744  0.0894  0.3216
  703BOLB   GL116851  12.485   9.464  23.573 -0.1460 -0.2692 -0.0480
  703BOLB   GL216852  12.900   9.431  23.639 -0.0616 -0.3529 -0.4251
  703BOLB   C1A16853  12.614   9.431  24.039  0.1518  0.1386  0.2782
  703BOLB   C2A16854  13.013   9.219  24.223 -0.0126  0.0144  0.1322
  703BOLB   C3A16855  13.156   8.890  24.535  0.1012 -0.0952 -0.0820
  703BOLB   C4A16856  13.210   8.861  25.020  0.1784 -0.1527 -0.2472
  703BOLB   C1B16857  13.358   9.431  23.863  0.1978  0.1278  0.2163
  703BOLB   C2B16858  13.735   9.622  24.230  0.1809  0.2268  0.2899
  703BOLB   C3B16859  13.975   9.563  24.544 -0.2588 -0.1530 -0.1809
  703BOLB   C4B16860  14.023   9.468  24.930  0.0564  0.3120 -0.0035
  703BOLB   NC216861  13.181   8.679  27.181  0.0129  0.2040  0.2336
  703BOLB   PO216862  13.566   9.018  27.323  0.0778  0.2368 -0.4490
  703BOLB   GL316863  13.410   9.082  26.882 -0.0325  0.0526 -0.1725
  703BOLB   GL416864  13.365   9.439  26.837 -0.0254 -0.1322 -0.0670
  703BOLB   C1C16865  13.517   9.019  26.448  0.2404 -0.3861  0.0998
  703BOLB   C2C16866  13.788   8.862  26.137  0.0609 -0.0281  0.2082
  703BOLB   C3C16867  13.660   8.810  25.771  0.2043  0.1124  0.1168
  703BOLB   C4C16868  13.480   8.795  25.385 -0.3148 -0.2592  0.0196
  703BOLB   C1D16869  13.357   9.620  26.422  0.0428  0.3922 -0.1579
  703BOLB   C2D16870  13.220   9.613  25.957 -0.3936  0.0148  0.0863
  703BOLB   C3D16871  12.790   9.398  25.701  0.1097 -0.1473 -0.3088
  703BOLB   C4D16872  12.713   9.046  25.912  0.0475  0.1336  0.1004
  704BOLB   NC116873  18.508  10.332  22.138  0.0239  0.0752 -0.0260
  704BOLB   PO116874  18.140  10.204  22.212 -0.1444  0.4860 -0.1937
  704BOLB   GL116875  18.385  10.062  22.527  0.1524  0.3166  0.1418
  704BOLB   GL216876  18.443   9.764  22.549 -0.3503 -0.1447  0.0923
  704BOLB   C1A16877  18.538   9.954  22.991  0.2064  0.1561 -0.4304
  704BOLB   C2A16878  18.673   9.747  23.397  0.1224  0.2987  0.1277
  704BOLB   C3A16879  18.507   9.686  23.769 -0.2221  0.1535 -0.0498
  704BOLB   C4A16880  18.380   9.706  24.233  0.1064  0.0913 -0.0191
  704BOLB   C1B16881  18.650   9.461  22.872 -0.1752  0.0841  0.0542
  704BOLB   C2B16882  18.785   9.231  23.193  0.1604 -0.3365 -0.1243
  704BOLB   C3B16883  18.842   9.021  23.530 -0.0174  0.0758  0.5613
  704BOLB   C4B16884  19.048   8.970  23.876 -0.1524  0.3159  0.1759
  704BOLB   NC216885  20.987   8.919  25.267 -0.1114 -0.0640 -0.2752
  704BOLB   PO216886  20.639   9.139  25.393  0.0738  0.0705 -0.0841
  704BOLB   GL316887  20.288   9.246  25.114  0.0013  0.1156  0.1857
  704BOLB   GL416888  19.952   9.302  25.264 -0.0413 -0.0540 -0.2562
  704BOLB   C1C16889  20.044   9.289  24.737 -0.1646  0.0999 -0.0346
  704BOLB   C2C16890  19.576   9.470  24.539 -0.2446 -0.0392  0.1792
  704BOLB   C3C16891  19.182   9.700  24.609  0.1407 -0.2292  0.1175
  704BOLB   C4C16892  18.807   9.837  24.527 -0.2027 -0.4238  0.0811
  704BOLB   C1D16893  19.522   9.280  25.217 -0.2114 -0.0453  0.0231
  704BOLB   C2D16894  19.339   9.291  24.917  0.0489  0.1790 -0.2025
  704BOLB   C3D16895  19.170   8.959  24.641 -0.0459  0.3578 -0.0472
  704BOLB   C4D16896  18.946   8.774  24.317 -0.0101 -0.5583 -0.0071
  705BOLB   NC116897  19.423   8.955  20.492  0.1237 -0.3035  0.0319
  705BOLB   PO116898  19.632   8.513  20.377  0.0335 -0.1471 -0.0539
  705BOLB   GL116899  19.793   8.205  20.613  0.1111 -0.1623 -0.1740
  705BOLB   GL216900  19.894   8.013  20.393  0.0625  0.0899  0.0835
  705BOLB   C1A16901  19.970   8.154  21.004 -0.1146  0.0489  0.0525
  705BOLB   C2A16902  20.278   8.005  21.351  0.2428  0.2432  0.0615
  705BOLB   C3A16903  20.563   7.881  21.562 -0.2586  0.0303 -0.1992
  705BOLB   C4A16904  20.781   7.597  21.908  0.3914 -0.0479 -0.2044
  705BOLB   C1B16905  20.057   7.705  20.659 -0.3323  0.0229 -0.1370
  705BOLB   C2B16906  20.343   7.387  20.851 -0.2049  0.0005  0.0864
  705BOLB   C3B16907  20.519   7.267  21.213  0.0944 -0.0006 -0.0447
  705BOLB   C4B16908  20.721   6.820  21.222 -0.1587 -0.1017 -0.0541
  705BOLB   NC216909  22.010   7.261  23.801  0.1436 -0.3661  0.1681
  705BOLB   PO216910  21.679   7.249  23.994 -0.0503  0.3573 -0.5160
  705BOLB   GL316911  21.699   7.614  23.698 -0.0072  0.0768 -0.1644
  705BOLB   GL416912  21.697   8.050  23.804  0.0357  0.0829 -0.2007
  705BOLB   C1C16913  21.554   7.771  23.425 -0.1319 -0.1941  0.0166
  705BOLB   C2C16914  21.204   7.926  23.193  0.0486 -0.2498 -0.2306
  705BOLB   C3C16915  21.078   7.762  22.711  0.1093  0.1000  0.1638
  705BOLB   C4C16916  20.915   7.816  22.344  0.1546 -0.3280 -0.1920
  705BOLB   C1D16917  21.264   8.202  23.631  0.1298 -0.0828  0.1864
  705BOLB   C2D16918  21.106   8.467  23.229  0.1000 -0.0324 -0.1971
  705BOLB   C3D16919  20.877   8.609  22.966 -0.3817 -0.0616 -0.1025
  705BOLB   C4D16920  20.751   8.912  22.609  0.1014  0.1953  0.0786
  706BOLB   NC116921  20.072  16.073  22.943  0.0953  0.1909  0.2472
  706BOLB   PO116922  20.552  15.934  22.993  0.1456  0.0087  0.0350
  706BOLB   GL116923  20.863  15.851  23.389  0.0851 -0.1658  0.0583
  706BOLB   GL216924  20.982  15.540  23.483 -0.0476  0.1013  0.1583
  706BOLB   C1A16925  20.956  15.963  23.845 -0.0047 -0.0853 -0.2019
  706BOLB   C2A16926  21.107  16.098  24.162  0.0228 -0.1764  0.1385
  706BOLB   C3A16927  21.413  16.318  24.307  0.0254 -0.1078 -0.2136
  706BOLB   C4A16928  21.838  16.593  24.417 -0.0408 -0.1115 -0.2814
  706BOLB   C1B16929  20.968  15.469  23.980  0.0766 -0.3118 -0.0467
  706BOLB   C2B16930  21.227  15.639  24.347  0.1486 -0.1577 -0.0397
  706BOLB   C3B16931  21.412  15.480  24.765 -0.2040 -0.1740  0.0027
  706BOLB   C4B16932  21.580  15.334  25.197  0.3034  0.3210  0.1745
  706BOLB   NC216933  23.463  15.590  26.342 -0.0109  0.1024 -0.0380
  706BOLB   PO216934  23.492  15.975  26.291  0.2079  0.1179 -0.0420
  706BOLB   GL316935  23.154  15.894  25.986  0.1249 -0.0472 -0.3023
  706BOLB   GL416936  23.005  15.599  26.106 -0.3393  0.0533 -0.0008
  706BOLB   C1C16937  22.912  15.836  25.645 -0.2121 -0.1067  0.0644
  706BOLB   C2C16938  22.733  16.132  25.379  0.1098  0.1949  0.2308
  706BOLB   C3C16939  22.458  16.324  25.016  0.2727  0.0138  0.1106
  706BOLB   C4C16940  22.159  16.519  24.703 -0.2890  0.1700 -0.1167
  706BOLB   C1D16941  22.834  15.321  25.707  0.0177 -0.1005 -0.2715
  706BOLB   C2D16942  22.952  15.033  25.510  0.3441 -0.4091  0.1172
  706BOLB   C3D16943  23.165  14.601  25.430 -0.2671  0.0319  0.1442
  706BOLB   C4D16944  23.413  14.176  25.727 -0.0173 -0.0066 -0.0413
  707BOLB   NC116945  20.572  10.532  21.518  0.0664 -0.1314 -0.0708
  707BOLB   PO116946  20.851  10.843  21.579  0.1987  0.4704  0.1033
  707BOLB   GL116947  21.010  10.499  21.860  0.4103  0.1574  0.1820
  707BOLB   GL216948  21.034  10.531  22.183 -0.0060  0.1899 -0.0252
  707BOLB   C1A16949  21.535  10.502  21.946 -0.1767 -0.0112 -0.1268
  707BOLB   C2A16950  21.765  10.238  22.202  0.2145  0.1883 -0.0199
  707BOLB   C3A16951  21.826   9.976  22.463  0.0189  0.1747  0.0764
  707BOLB   C4A16952  21.994   9.556  22.639  0.0772 -0.0476  0.1088
  707BOLB   C1B16953  21.318  10.237  22.343 -0.0965  0.1737 -0.3689
  707BOLB   C2B16954  21.395  10.039  22.766  0.2200 -0.0865  0.0396
  707BOLB   C3B16955  21.393   9.891  23.094  0.3745  0.0492  0.0522
  707BOLB   C4B16956  21.422   9.673  23.474 -0.0756 -0.2186  0.0152
  707BOLB   NC216957  23.545   8.060  23.596  0.0910  0.0760 -0.0260
  707BOLB   PO216958  23.193   8.111  23.721 -0.1429 -0.1555 -0.0500
  707BOLB   GL316959  22.946   8.385  23.460 -0.1665  0.1477 -0.0464
  707BOLB   GL416960  22.682   8.473  23.458 -0.0060  0.0671  0.0552
  707BOLB   C1C16961  22.984   8.434  23.017  0.4078 -0.0757 -0.1510
  707BOLB   C2C16962  22.646   8.605  22.702  0.0968  0.2122 -0.0234
  707BOLB   C3C16963  22.507   8.978  22.755 -0.0686  0.1857 -0.1088
  707BOLB   C4C16964  22.356   9.363  22.612  0.1554  0.3249 -0.0252
  707BOLB   C1D16965  22.352   8.354  23.144 -0.3587 -0.2702 -0.2611
  707BOLB   C2D16966  22.078   8.442  22.784 -0.0808 -0.1138  0.0651
  707BOLB   C3D16967  21.974   8.784  22.683  0.0681  0.3033  0.0831
  707BOLB   C4D16968  21.781   9.108  22.690  0.0962 -0.2630 -0.3707
  708BOLB   NC116969  15.418  13.230  24.250 -0.0424 -0.2511 -0.2469
  708BOLB   PO116970  14.957  13.178  24.298  0.0279 -0.3500  0.0970
  708BOLB   GL116971  15.179  12.797  24.518 -0.0254  0.3461 -0.1311
  708BOLB   GL216972  15.127  12.470  24.508  0.2046 -0.1491 -0.1241
  708BOLB   C1A16973  15.162  12.745  24.925 -0.1354 -0.0256 -0.0033
  708BOLB   C2A16974  15.146  12.735  25.375  0.0023  0.1014  0.3320
  708BOLB   C3A16975  15.338  12.439  25.629 -0.0485 -0.1038 -0.0872
  708BOLB   C4A16976  15.418  12.187  26.008  0.2075 -0.1674 -0.0129
  708BOLB   C1B16977  15.266  12.240  24.743 -0.0180 -0.1869 -0.0847
  708BOLB   C2B16978  15.322  12.318  25.157  0.2050 -0.2650 -0.2110
  708BOLB   C3B16979  14.877  12.327  25.433  0.1066  0.0150 -0.3552
  708BOLB   C4B16980  14.461  12.484  25.612  0.0532  0.3945  0.0887
  708BOLB   NC216981  14.766  11.524  28.559  0.0974 -0.3141 -0.1019
  708BOLB   PO216982  14.970  11.683  28.154  0.0266  0.0788  0.0066
  708BOLB   GL316983  14.676  11.614  27.744  0.0364 -0.0272  0.2600
  708BOLB   GL416984  14.391  11.755  27.737 -0.1292  0.0938  0.1284
  708BOLB   C1C16985  14.760  11.897  27.340 -0.2175 -0.4129 -0.0685
  708BOLB   C2C16986  14.894  12.145  26.955 -0.1502  0.0453  0.0420
  708BOLB   C3C16987  15.071  12.320  26.590 -0.1182 -0.2692 -0.1908
  708BOLB   C4C16988  15.360  12.276  26.324  0.1942  0.3384  0.1645
  708BOLB   C1D16989  14.393  11.644  27.321 -0.0951  0.1378  0.1730
  708BOLB   C2D16990  13.936  11.491  27.191  0.1095  0.1437  0.2036
  708BOLB   C3D16991  13.797  11.678  26.855 -0.0948  0.0827  0.0177
  708BOLB   C4D16992  13.787  11.905  26.415 -0.1136 -0.2145 -0.0875
  709BOLB   NC116993  21.893  10.864  19.641  0.1093 -0.4127 -0.3064
  709BOLB   PO116994  21.914  10.861  20.056  0.3628  0.2356 -0.1381
  709BOLB   GL116995  22.131  10.497  20.321  0.1726  0.1188  0.1348
  709BOLB   GL216996  22.499  10.629  20.490 -0.0855  0.1979  0.1014
  709BOLB   C1A16997  22.159  10.108  20.476  0.0589 -0.1227 -0.1419
  709BOLB   C2A16998  22.398   9.808  20.683  0.2134 -0.1800 -0.1368
  709BOLB   C3A16999  22.732   9.483  20.845  0.2105  0.0084  0.0588
  709BOLB   C4A17000  22.897   9.252  21.041 -0.1482 -0.2805  0.0875
  709BOLB   C1B17001  22.503  10.276  20.780 -0.2538 -0.1048  0.0098
  709BOLB   C2B17002  22.656  10.072  21.164  0.0508  0.2064  0.0140
  709BOLB   C3B17003  22.913  10.066  21.515  0.0279  0.2426 -0.1705
  709BOLB   C4B17004  23.137  10.096  21.881  0.0624 -0.1989 -0.0976
  709BOLB   NC217005  24.118   8.183  22.933  0.3414  0.0027  0.0086
  709BOLB   PO217006  23.685   8.078  23.150  0.0967 -0.2366  0.0275
  709BOLB   GL317007  23.463   8.249  22.850  0.0704  0.1177  0.2870
  709BOLB   GL417008  23.772   8.077  22.603  0.1010  0.0120 -0.2098
  709BOLB   C1C17009  23.275   8.412  22.477 -0.1847 -0.0044  0.2939
  709BOLB   C2C17010  23.135   8.752  22.315 -0.0757 -0.1838  0.3557
  709BOLB   C3C17011  22.964   9.011  21.905 -0.0968  0.2440  0.0567
  709BOLB   C4C17012  22.948   8.997  21.408  0.2473  0.3670 -0.0242
  709BOLB   C1D17013  23.558   8.173  22.231  0.0143 -0.0503  0.1069
  709BOLB   C2D17014  23.430   8.474  21.965  0.0817  0.1991  0.0233
  709BOLB   C3D17015  23.481   8.909  21.712 -0.0632  0.1715  0.2055
  709BOLB   C4D17016  23.554   9.269  21.661  0.0556  0.0977 -0.0626
  710BOLB   NC117017  16.515  26.834  22.745 -0.1371  0.1320  0.1572
  710BOLB   PO117018  16.523  26.351  22.706  0.1258 -0.2143 -0.2025
  710BOLB   GL117019  16.635  26.171  23.164  0.0760  0.1697 -0.0304
  710BOLB   GL217020  16.994  26.213  23.219 -0.0076 -0.1599 -0.2752
  710BOLB   C1A17021  16.277  26.083  23.476  0.0286 -0.0607  0.1336
  710BOLB   C2A17022  16.007  25.919  23.853 -0.3097  0.1359  0.0146
  710BOLB   C3A17023  16.061  26.021  24.379  0.0470  0.2790 -0.0992
  710BOLB   C4A17024  16.276  26.070  24.685  0.1755 -0.4227  0.1480
  710BOLB   C1B17025  17.233  26.399  23.559 -0.2348  0.4966 -0.2232
  710BOLB   C2B17026  17.414  26.253  23.890 -0.0529 -0.3982  0.0496
  710BOLB   C3B17027  17.470  25.771  24.109  0.1507 -0.0763 -0.3150
  710BOLB   C4B17028  17.607  25.344  24.154  0.0954  0.0861 -0.2026
  710BOLB   NC217029  15.959  27.410  26.436  0.0090 -0.1167 -0.1776
  710BOLB   PO217030  16.278  27.695  26.453  0.4015  0.2740  0.0871
  710BOLB   GL317031  16.339  27.436  26.073  0.0859 -0.0498 -0.1861
  710BOLB   GL417032  16.153  27.385  25.863 -0.2054 -0.0103 -0.1036
  710BOLB   C1C17033  16.531  27.088  25.950 -0.1399  0.0422 -0.1124
  710BOLB   C2C17034  16.410  26.694  25.838  0.2833  0.1990 -0.1024
  710BOLB   C3C17035  16.243  26.471  25.492 -0.2580 -0.0951 -0.0636
  710BOLB   C4C17036  16.191  26.316  25.108 -0.3477 -0.1875 -0.0244
  710BOLB   C1D17037  16.383  27.306  25.484 -0.0838 -0.4301 -0.1258
  710BOLB   C2D17038  16.504  26.923  25.408 -0.2673 -0.0139  0.3880
  710BOLB   C3D17039  16.745  26.637  25.129 -0.2068 -0.0909 -0.1524
  710BOLB   C4D17040  17.038  26.793  24.782 -0.1572  0.3798  0.1633
  711BOLB   NC117041  13.088  25.971  22.778 -0.2805  0.0185 -0.0405
  711BOLB   PO117042  12.630  25.881  22.703  0.0442  0.1355  0.1890
  711BOLB   GL117043  12.699  25.687  23.140  0.1457 -0.1954  0.1472
  711BOLB   GL217044  12.687  25.305  23.136 -0.0293 -0.1219 -0.1039
  711BOLB   C1A17045  12.663  25.745  23.498  0.1366 -0.3112 -0.1006
  711BOLB   C2A17046  12.336  25.747  23.839 -0.1966  0.1282 -0.3311
  711BOLB   C3A17047  11.899  25.861  23.867 -0.1349  0.0272  0.0486
  711BOLB   C4A17048  11.556  26.012  24.105 -0.0371  0.0770  0.1959
  711BOLB   C1B17049  12.283  25.475  23.338 -0.0200  0.1092  0.1320
  711BOLB   C2B17050  11.867  25.694  23.359 -0.1429  0.4959  0.6275
  711BOLB   C3B17051  11.402  25.568  23.463 -0.3897  0.1759 -0.0464
  711BOLB   C4B17052  11.077  25.572  23.288  0.2553  0.2541 -0.1030
  711BOLB   NC217053  10.660  26.893  26.337  0.0877 -0.1730 -0.1958
  711BOLB   PO217054  10.604  27.018  25.932  0.0063 -0.1979 -0.2760
  711BOLB   GL317055  10.414  26.628  25.668 -0.0701  0.1762  0.1560
  711BOLB   GL417056  10.169  26.609  25.398 -0.1214  0.3510 -0.0215
  711BOLB   C1C17057  10.602  26.373  25.454  0.0857 -0.0609  0.1781
  711BOLB   C2C17058  10.955  26.375  25.241  0.0355  0.0286 -0.0312
  711BOLB   C3C17059  11.142  26.106  25.023  0.0135 -0.3091  0.0813
  711BOLB   C4C17060  11.216  25.958  24.512 -0.0207  0.1340  0.1862
  711BOLB   C1D17061  10.520  26.563  24.985 -0.0051  0.3546 -0.0696
  711BOLB   C2D17062  10.948  26.765  24.886  0.0477 -0.0536  0.0086
  711BOLB   C3D17063  11.067  26.817  24.412  0.2940  0.1374 -0.2428
  711BOLB   C4D17064  11.392  26.489  24.268  0.3357 -0.3936  0.1172
  712BOLB   NC117065  13.463  28.435  23.853  0.0007  0.1920  0.2524
  712BOLB   PO117066  13.757  28.141  23.701  0.1455  0.0681 -0.0302
  712BOLB   GL117067  13.636  27.699  23.901  0.1997 -0.2255  0.0208
  712BOLB   GL217068  13.809  27.524  23.865  0.0133  0.1447 -0.1606
  712BOLB   C1A17069  13.311  27.485  23.730  0.3130  0.0367 -0.1198
  712BOLB   C2A17070  12.987  27.479  23.348  0.2534 -0.0199 -0.0165
  712BOLB   C3A17071  12.653  27.257  23.104  0.1475  0.0158 -0.1987
  712BOLB   C4A17072  12.299  26.882  23.177  0.1433  0.3000  0.1979
  712BOLB   C1B17073  13.641  27.305  24.174 -0.1331  0.3006 -0.4826
  712BOLB   C2B17074  13.435  27.030  24.519 -0.0602  0.4695 -0.1326
  712BOLB   C3B17075  13.394  26.749  24.970  0.0251 -0.4002 -0.2481
  712BOLB   C4B17076  13.589  26.439  25.218  0.0417  0.1590  0.1462
  712BOLB   NC217077  11.097  27.842  23.306  0.0586  0.0020 -0.0560
  712BOLB   PO217078  10.941  27.753  23.750 -0.1143 -0.0806  0.3133
  712BOLB   GL317079  10.891  27.292  23.889  0.2505  0.1164 -0.2337
  712BOLB   GL417080  10.730  27.102  23.739  0.1980 -0.0480  0.1248
  712BOLB   C1C17081  11.156  26.941  23.895  0.3381  0.1114 -0.1921
  712BOLB   C2C17082  11.309  26.663  23.753 -0.0753 -0.0679 -0.1846
  712BOLB   C3C17083  11.684  26.701  23.644 -0.0423  0.0586 -0.1484
  712BOLB   C4C17084  11.923  26.814  23.338  0.0416 -0.2537 -0.2802
  712BOLB   C1D17085  11.001  26.856  23.450  0.0909  0.0077 -0.0736
  712BOLB   C2D17086  11.368  26.894  23.312  0.0682 -0.0466 -0.0556
  712BOLB   C3D17087  11.648  27.227  23.186 -0.2616  0.3224  0.0428
  712BOLB   C4D17088  12.150  27.288  22.939 -0.2080  0.0462  0.4304
  713BOLB   NC117089  19.093  28.118  22.061  0.0757 -0.1137 -0.1240
  713BOLB   PO117090  18.953  28.026  22.499 -0.0480 -0.1026 -0.0815
  713BOLB   GL117091  19.139  27.723  22.453  0.0713  0.3253  0.0188
  713BOLB   GL217092  19.067  27.329  22.349 -0.0785  0.2327  0.0210
  713BOLB   C1A17093  19.456  27.520  22.664 -0.0962 -0.0369 -0.0431
  713BOLB   C2A17094  19.460  27.207  22.824 -0.1138 -0.0815  0.1486
  713BOLB   C3A17095  19.605  27.008  23.212  0.0384 -0.2301 -0.2081
  713BOLB   C4A17096  19.384  26.851  23.555 -0.2535 -0.2303 -0.2880
  713BOLB   C1B17097  18.830  27.197  22.677 -0.0509 -0.1090  0.0468
  713BOLB   C2B17098  18.499  27.333  23.158 -0.0118 -0.3428 -0.0193
  713BOLB   C3B17099  18.215  27.147  23.170 -0.0500 -0.0135 -0.2659
  713BOLB   C4B17100  17.882  27.103  23.505  0.1272 -0.1381  0.0650
  713BOLB   NC217101  19.754  26.829  25.996 -0.1976 -0.0086  0.0168
  713BOLB   PO217102  20.116  26.805  25.660 -0.3437  0.0157 -0.0798
  713BOLB   GL317103  19.921  26.640  25.309 -0.0894 -0.0137 -0.2179
  713BOLB   GL417104  20.102  26.931  25.163  0.2237 -0.1200 -0.1980
  713BOLB   C1C17105  19.563  26.857  24.997 -0.2573  0.0145  0.0481
  713BOLB   C2C17106  19.358  26.772  24.606  0.0790  0.3887  0.3447
  713BOLB   C3C17107  19.066  26.904  24.322 -0.2820 -0.0775  0.2244
  713BOLB   C4C17108  19.191  26.876  23.936  0.1056 -0.2250 -0.3490
  713BOLB   C1D17109  19.956  27.039  24.774  0.2268  0.0077 -0.0893
  713BOLB   C2D17110  19.682  27.190  24.593  0.3329 -0.2168  0.0027
  713BOLB   C3D17111  19.374  27.278  24.668  0.1360  0.1364 -0.2735
  713BOLB   C4D17112  19.062  27.589  24.679 -0.0096  0.1895 -0.1957
  714BOLB   NC117113  15.629  27.178  23.037  0.3872  0.1968  0.4102
  714BOLB   PO117114  15.732  26.658  23.115  0.0719 -0.0014  0.0375
  714BOLB   GL117115  15.437  26.710  23.455  0.2170 -0.1260  0.0192
  714BOLB   GL217116  15.400  27.050  23.490  0.0078 -0.1182  0.1757
  714BOLB   C1A17117  15.292  26.435  23.671 -0.0247 -0.2646 -0.1301
  714BOLB   C2A17118  15.101  26.193  24.123 -0.0241 -0.2556 -0.0508
  714BOLB   C3A17119  15.089  26.012  24.593  0.1783 -0.3330  0.1895
  714BOLB   C4A17120  15.379  25.946  25.019  0.1944 -0.0331 -0.2596
  714BOLB   C1B17121  15.163  26.895  23.896  0.0763  0.3569 -0.1895
  714BOLB   C2B17122  14.827  26.705  24.123  0.1180 -0.0146  0.1322
  714BOLB   C3B17123  14.828  26.599  24.628  0.0045  0.0029  0.4307
  714BOLB   C4B17124  14.847  26.335  25.001 -0.0985  0.1501 -0.3622
  714BOLB   NC217125  16.038  26.686  27.193  0.0887  0.0680 -0.2443
  714BOLB   PO217126  16.533  26.865  27.062  0.0220  0.1668 -0.0126
  714BOLB   GL317127  16.572  26.711  26.582 -0.1470 -0.1685  0.0490
  714BOLB   GL417128  16.667  26.359  26.415  0.0475 -0.0067 -0.0567
  714BOLB   C1C17129  16.215  26.494  26.370 -0.0369 -0.0931  0.0891
  714BOLB   C2C17130  15.971  26.309  25.954  0.0085 -0.0635 -0.0783
  714BOLB   C3C17131  15.787  26.296  25.579  0.0707  0.4545  0.0951
  714BOLB   C4C17132  15.706  26.270  25.121  0.0918  0.0255 -0.0758
  714BOLB   C1D17133  16.870  26.363  26.085 -0.1678  0.3488  0.1270
  714BOLB   C2D17134  17.200  26.190  25.749 -0.2303  0.0338  0.0359
  714BOLB   C3D17135  17.149  26.008  25.387  0.4312 -0.0027  0.3561
  714BOLB   C4D17136  16.953  25.486  25.266 -0.0680 -0.2369 -0.1928
  715BOLB   NC117137  14.877  27.958  22.993  0.1703 -0.3573  0.4074
  715BOLB   PO117138  15.247  27.928  23.219  0.4259  0.1518 -0.3640
  715BOLB   GL117139  15.212  27.595  23.586  0.1760 -0.1690 -0.3999
  715BOLB   GL217140  14.954  27.476  23.696 -0.1757  0.1221 -0.0171
  715BOLB   C1A17141  15.421  27.380  23.962  0.0194  0.1212  0.3679
  715BOLB   C2A17142  15.647  27.503  24.319  0.0929 -0.0353  0.2855
  715BOLB   C3A17143  16.127  27.349  24.500  0.2945 -0.0922 -0.3417
  715BOLB   C4A17144  16.127  27.004  24.886 -0.0264 -0.0774  0.0344
  715BOLB   C1B17145  14.869  27.228  24.058 -0.1860 -0.0635 -0.1342
  715BOLB   C2B17146  15.075  27.006  24.444  0.1091  0.1594 -0.2757
  715BOLB   C3B17147  15.049  26.968  24.966 -0.1138 -0.1046  0.0914
  715BOLB   C4B17148  15.055  27.059  25.401 -0.1974 -0.0211 -0.2050
  715BOLB   NC217149  15.692  27.008  27.380  0.0740 -0.0030  0.0307
  715BOLB   PO217150  15.536  26.740  27.075  0.0376 -0.0456  0.1196
  715BOLB   GL317151  15.652  26.545  26.753  0.0527  0.1230  0.0915
  715BOLB   GL417152  15.747  26.217  26.754  0.1925  0.2099 -0.1192
  715BOLB   C1C17153  15.719  26.608  26.438 -0.3930 -0.0985 -0.1052
  715BOLB   C2C17154  15.902  26.857  26.056 -0.2431  0.0746  0.3071
  715BOLB   C3C17155  16.018  26.924  25.605  0.2758 -0.1000 -0.1300
  715BOLB   C4C17156  15.975  26.786  25.183 -0.1023 -0.5096 -0.0475
  715BOLB   C1D17157  15.755  25.988  26.412  0.4047 -0.1547  0.0128
  715BOLB   C2D17158  15.504  26.079  26.130 -0.0271 -0.2947  0.1009
  715BOLB   C3D17159  15.344  25.960  25.815  0.3881 -0.1174 -0.1138
  715BOLB   C4D17160  15.609  25.775  25.423  0.0515  0.0049 -0.1532
  716BOLB   NC117161  19.174  25.298  20.718 -0.2014 -0.1317  0.1225
  716BOLB   PO117162  19.630  25.149  20.631 -0.1417 -0.2264  0.1477
  716BOLB   GL117163  20.010  25.278  20.490  0.1152 -0.0010  0.2338
  716BOLB   GL217164  20.100  25.437  20.662  0.0541  0.0659  0.0713
  716BOLB   C1A17165  20.315  25.181  20.269 -0.0465  0.0505 -0.0738
  716BOLB   C2A17166  20.751  25.250  20.284  0.0036  0.0332 -0.0044
  716BOLB   C3A17167  21.158  25.491  20.495  0.2806  0.1349 -0.2232
  716BOLB   C4A17168  21.698  25.516  20.466  0.3186 -0.1157 -0.1708
  716BOLB   C1B17169  20.475  25.589  20.583 -0.1806  0.0962  0.0316
  716BOLB   C2B17170  20.775  25.402  20.828  0.1319 -0.0681  0.0641
  716BOLB   C3B17171  21.126  25.482  21.137  0.0768  0.1699 -0.0371
  716BOLB   C4B17172  21.417  25.708  21.387  0.1468 -0.0153  0.2320
  716BOLB   NC217173  24.145  26.546  21.423 -0.1651  0.3321 -0.3554
  716BOLB   PO217174  24.077  26.482  21.112 -0.1062 -0.1006  0.0651
  716BOLB   GL317175  23.581  26.279  20.905 -0.1240 -0.2128 -0.2654
  716BOLB   GL417176  23.360  26.165  21.072  0.2085  0.1624  0.2087
  716BOLB   C1C17177  23.201  26.095  20.560 -0.3414 -0.3858  0.1974
  716BOLB   C2C17178  22.758  26.163  20.364 -0.3035 -0.2019  0.0976
  716BOLB   C3C17179  22.332  26.033  20.310 -0.0240  0.1267 -0.1029
  716BOLB   C4C17180  21.976  25.828  20.262 -0.0169 -0.0711 -0.1657
  716BOLB   C1D17181  23.232  25.670  20.904 -0.2523  0.0100  0.1361
  716BOLB   C2D17182  23.437  25.299  20.973  0.2170 -0.0356  0.3798
  716BOLB   C3D17183  23.240  24.930  20.996  0.1006  0.1921  0.0284
  716BOLB   C4D17184  23.238  24.492  21.277  0.3528 -0.4509 -0.0273
  717BOLB   NC117185  11.344  27.860  24.839 -0.1270 -0.1264 -0.3947
  717BOLB   PO117186  11.527  27.792  25.265 -0.1962  0.0714  0.3844
  717BOLB   GL117187  11.888  27.649  25.036  0.0747 -0.1379  0.0513
  717BOLB   GL217188  12.209  27.612  25.188 -0.1008 -0.0645 -0.1929
  717BOLB   C1A17189  12.092  27.263  24.778 -0.0735  0.0304 -0.0324
  717BOLB   C2A17190  12.261  26.904  24.514 -0.1557  0.2164 -0.0046
  717BOLB   C3A17191  12.654  26.647  24.506  0.2198 -0.0256  0.1522
  717BOLB   C4A17192  13.012  26.901  24.654  0.0228  0.2029 -0.1583
  717BOLB   C1B17193  12.515  27.296  25.262  0.2248  0.1180  0.4450
  717BOLB   C2B17194  12.646  26.890  25.024  0.1154 -0.2163 -0.1474
  717BOLB   C3B17195  12.365  26.524  24.917 -0.3114  0.0187  0.1677
  717BOLB   C4B17196  12.175  26.336  24.722  0.0616 -0.0876  0.1439
  717BOLB   NC217197  13.540  28.378  26.266 -0.1290 -0.1734 -0.1540
  717BOLB   PO217198  14.027  28.259  26.382  0.1229 -0.0809 -0.0173
  717BOLB   GL317199  14.043  28.112  25.902  0.1129 -0.0936 -0.1827
  717BOLB   GL417200  14.360  27.902  25.622  0.2084 -0.3972 -0.0159
  717BOLB   C1C17201  13.760  27.907  25.638  0.0228 -0.0954  0.2924
  717BOLB   C2C17202  13.384  27.624  25.507 -0.1828 -0.2661  0.0438
  717BOLB   C3C17203  13.227  27.468  25.127 -0.2593 -0.1785  0.0396
  717BOLB   C4C17204  13.040  27.283  24.806 -0.1090 -0.3403  0.2050
  717BOLB   C1D17205  14.618  27.541  25.610 -0.4871  0.1090 -0.2493
  717BOLB   C2D17206  14.680  27.271  25.147 -0.1023 -0.1634  0.1124
  717BOLB   C3D17207  14.640  27.139  24.760 -0.1157 -0.0144  0.2800
  717BOLB   C4D17208  14.518  27.034  24.454 -0.2995  0.2741  0.2938
  718BOLB   NC117209  15.125  24.577  22.586  0.0388 -0.0031  0.0848
  718BOLB   PO117210  14.647  24.739  22.777 -0.0546  0.0394 -0.2679
  718BOLB   GL117211  14.844  24.857  23.167 -0.0189  0.1836 -0.2051
  718BOLB   GL217212  15.127  24.834  23.242  0.0326  0.2841 -0.0155
  718BOLB   C1A17213  14.802  25.044  23.556 -0.2770 -0.0341  0.2852
  718BOLB   C2A17214  14.884  25.092  23.982  0.3517  0.2326 -0.2505
  718BOLB   C3A17215  14.864  25.164  24.485  0.0688  0.1774  0.2516
  718BOLB   C4A17216  14.743  25.230  24.946 -0.0461  0.0998  0.0465
  718BOLB   C1B17217  15.223  24.856  23.698 -0.0961 -0.2202  0.0440
  718BOLB   C2B17218  15.292  24.796  24.068  0.0383 -0.0026  0.1205
  718BOLB   C3B17219  15.347  24.827  24.541 -0.1029  0.2621 -0.1068
  718BOLB   C4B17220  15.144  24.979  24.887  0.1027  0.0093 -0.0400
  718BOLB   NC217221  13.752  26.155  27.403 -0.3079  0.1892 -0.0684
  718BOLB   PO217222  14.014  25.817  27.213 -0.1856 -0.2774 -0.0517
  718BOLB   GL317223  14.093  25.593  26.797  0.1296  0.2810 -0.1338
  718BOLB   GL417224  13.880  25.436  26.563 -0.0702 -0.1196  0.0087
  718BOLB   C1C17225  14.241  25.741  26.433  0.1663 -0.0247  0.0261
  718BOLB   C2C17226  14.462  25.673  26.172 -0.1152  0.0731  0.0609
  718BOLB   C3C17227  14.590  25.573  25.689  0.0467  0.2471  0.0666
  718BOLB   C4C17228  14.585  25.274  25.318 -0.0570 -0.0214  0.2762
  718BOLB   C1D17229  14.139  25.284  26.202  0.1997 -0.0485 -0.1305
  718BOLB   C2D17230  14.222  25.236  25.755  0.0102  0.1440  0.3179
  718BOLB   C3D17231  14.116  25.443  25.426 -0.0727 -0.0447 -0.0950
  718BOLB   C4D17232  13.891  25.583  25.114  0.2944  0.0376 -0.6435
  719BOLB   NC117233   7.560  26.155  20.102  0.3781 -0.0121 -0.0388
  719BOLB   PO117234   7.591  26.439  19.708 -0.1211  0.1161 -0.0120
  719BOLB   GL117235   7.946  26.199  19.755 -0.3018  0.0499 -0.3256
  719BOLB   GL217236   8.132  26.265  20.037 -0.0741 -0.1781  0.3843
  719BOLB   C1A17237   8.088  25.799  19.945 -0.1094  0.1818  0.4318
  719BOLB   C2A17238   8.378  25.454  19.994  0.1890 -0.0963 -0.2151
  719BOLB   C3A17239   8.762  25.254  19.783 -0.1440  0.0503 -0.2843
  719BOLB   C4A17240   9.053  25.462  19.843 -0.1037 -0.0528  0.0369
  719BOLB   C1B17241   8.511  26.429  20.195  0.5324 -0.1410  0.2122
  719BOLB   C2B17242   8.929  26.303  20.075  0.1149  0.6219 -0.1556
  719BOLB   C3B17243   9.222  26.089  20.181  0.1045  0.3025  0.0146
  719BOLB   C4B17244   9.229  25.785  20.404  0.0194  0.1209 -0.2590
  719BOLB   NC217245   8.942  27.421  19.970 -0.2785 -0.1106 -0.2988
  719BOLB   PO217246   9.277  27.583  19.667 -0.1175 -0.1215 -0.1000
  719BOLB   GL317247   9.216  27.146  19.540  0.0372 -0.0802  0.0751
  719BOLB   GL417248   8.940  27.024  19.255 -0.5001 -0.6337 -0.3478
  719BOLB   C1C17249   9.374  26.770  19.339 -0.0621  0.1060 -0.2395
  719BOLB   C2C17250   9.509  26.420  19.516 -0.0214 -0.1260 -0.0532
  719BOLB   C3C17251   9.346  26.040  19.715 -0.1526 -0.4830  0.1345
  719BOLB   C4C17252   9.316  25.692  19.823  0.3699 -0.2799 -0.0958
  719BOLB   C1D17253   8.960  26.817  18.922  0.1033 -0.1454 -0.1255
  719BOLB   C2D17254   9.224  26.722  18.805 -0.1814  0.0648  0.1536
  719BOLB   C3D17255   9.541  26.432  18.673 -0.0135 -0.1237 -0.0101
  719BOLB   C4D17256   9.513  26.275  18.215  0.4138  0.1208  0.0584
  720BOLB   NC117257  11.814  23.977  22.996  0.1594  0.0318  0.0973
  720BOLB   PO117258  11.851  24.481  22.987 -0.0779 -0.2016  0.1148
  720BOLB   GL117259  11.729  24.848  23.178  0.0980  0.0705 -0.0765
  720BOLB   GL217260  11.349  24.878  23.074 -0.0505 -0.3396 -0.3578
  720BOLB   C1A17261  11.868  25.197  23.470 -0.0597 -0.3585  0.0848
  720BOLB   C2A17262  11.626  25.322  23.863  0.0155  0.1704  0.0019
  720BOLB   C3A17263  11.561  25.508  24.201 -0.0765 -0.0656 -0.1841
  720BOLB   C4A17264  11.592  25.585  24.622  0.0707  0.1077  0.0309
  720BOLB   C1B17265  11.331  24.993  23.428  0.1143  0.1155  0.3944
  720BOLB   C2B17266  11.151  25.186  23.856 -0.2804  0.2855 -0.2670
  720BOLB   C3B17267  10.896  25.116  24.248 -0.1237 -0.3178  0.1491
  720BOLB   C4B17268  10.589  25.293  24.524  0.1626 -0.1783 -0.0792
  720BOLB   NC217269  11.874  27.139  26.101 -0.4389  0.0543 -0.2045
  720BOLB   PO217270  12.325  27.061  26.143 -0.2130  0.2056  0.0481
  720BOLB   GL317271  12.308  26.693  25.889  0.0420  0.0121  0.1258
  720BOLB   GL417272  12.306  26.475  26.102 -0.0380  0.3031  0.1163
  720BOLB   C1C17273  12.281  26.482  25.497 -0.1824 -0.0514 -0.0608
  720BOLB   C2C17274  11.933  26.416  25.227 -0.0651 -0.0637 -0.0106
  720BOLB   C3C17275  11.649  26.158  25.215  0.1087  0.0730  0.0926
  720BOLB   C4C17276  11.531  25.786  24.989 -0.1847 -0.4107  0.2520
  720BOLB   C1D17277  12.019  26.132  26.078  0.0815  0.0871 -0.2672
  720BOLB   C2D17278  11.922  25.759  25.872 -0.1224 -0.3060  0.2028
  720BOLB   C3D17279  11.493  25.789  26.027 -0.1493  0.2715 -0.0882
  720BOLB   C4D17280  10.993  25.779  26.065 -0.3649  0.1469  0.2421
  721BOLB   NC117281  12.223  27.920  20.361 -0.0270  0.1445 -0.2362
  721BOLB   PO117282  12.558  27.691  20.520 -0.0002  0.1076  0.0016
  721BOLB   GL117283  12.377  27.389  20.719  0.0027  0.1822  0.0399
  721BOLB   GL217284  12.460  27.073  20.699 -0.0460 -0.0414 -0.1906
  721BOLB   C1A17285  12.095  27.190  21.044 -0.1948  0.0412  0.0409
  721BOLB   C2A17286  11.853  26.878  21.218 -0.2501  0.2027 -0.0917
  721BOLB   C3A17287  11.523  26.658  21.508 -0.1091 -0.0428  0.2128
  721BOLB   C4A17288  11.337  26.312  21.697  0.1668 -0.0829  0.1378
  721BOLB   C1B17289  12.067  27.074  20.436  0.3765 -0.0552 -0.0750
  721BOLB   C2B17290  11.716  27.124  20.073  0.0865 -0.1480 -0.1207
  721BOLB   C3B17291  11.229  27.038  20.022 -0.2942 -0.0423 -0.0829
  721BOLB   C4B17292  10.949  26.722  19.996  0.0268 -0.1879  0.1585
  721BOLB   NC217293  11.049  27.744  20.887 -0.2495 -0.0150 -0.1079
  721BOLB   PO217294  10.601  27.734  20.953 -0.0991  0.0909 -0.2359
  721BOLB   GL317295  10.681  27.344  20.949  0.0786  0.0267  0.2788
  721BOLB   GL417296  11.043  27.282  20.879  0.1036 -0.1747  0.0030
  721BOLB   C1C17297  10.805  26.887  20.951 -0.1234  0.3259 -0.2429
  721BOLB   C2C17298  10.744  26.434  20.879  0.1882 -0.1673  0.0096
  721BOLB   C3C17299  10.692  26.223  21.280 -0.5196  0.3044  0.2979
  721BOLB   C4C17300  10.956  26.168  21.635 -0.2517  0.0041  0.0325
  721BOLB   C1D17301  11.051  26.934  20.501  0.1398 -0.0321  0.0767
  721BOLB   C2D17302  10.702  27.130  20.243  0.4135  0.4065 -0.0864
  721BOLB   C3D17303  10.266  27.076  20.186 -0.0782 -0.0174  0.1804
  721BOLB   C4D17304  10.047  26.787  20.202  0.4438 -0.4715 -0.0262
  722BOLB   NC117305  17.536  28.395  23.824  0.1483  0.3492 -0.2850
  722BOLB   PO117306  17.527  28.534  24.192 -0.1614 -0.1276  0.1043
  722BOLB   GL117307  17.516  28.004  24.074 -0.0357  0.1246  0.1144
  722BOLB   GL217308  17.801  27.918  23.962  0.2861  0.1164 -0.0379
  722BOLB   C1A17309  17.552  27.544  24.190 -0.4532  0.0459  0.0568
  722BOLB   C2A17310  17.946  27.320  24.384  0.1800  0.2522  0.0372
  722BOLB   C3A17311  18.202  26.972  24.498 -0.3046 -0.0458 -0.1121
  722BOLB   C4A17312  18.515  26.699  24.495 -0.1964  0.1436  0.1508
  722BOLB   C1B17313  18.148  27.796  24.210  0.1895  0.2580  0.3386
  722BOLB   C2B17314  18.438  27.403  24.237 -0.1189 -0.3282 -0.0159
  722BOLB   C3B17315  18.627  27.049  24.144 -0.1872  0.1583  0.0888
  722BOLB   C4B17316  18.753  26.707  23.862  0.1635 -0.2065 -0.0936
  722BOLB   NC217317  19.237  26.200  26.056 -0.3603  0.2076  0.1138
  722BOLB   PO217318  19.543  26.374  25.897 -0.1227  0.0801 -0.1412
  722BOLB   GL317319  19.605  26.245  25.552 -0.0992  0.1042 -0.2343
  722BOLB   GL417320  19.924  26.082  25.301  0.0121 -0.5356  0.0619
  722BOLB   C1C17321  19.461  26.306  25.254 -0.2182  0.0786 -0.0640
  722BOLB   C2C17322  19.344  26.305  24.853 -0.2172  0.0772 -0.4171
  722BOLB   C3C17323  19.102  26.242  24.563  0.2730  0.0995  0.2139
  722BOLB   C4C17324  18.783  26.510  24.392  0.1879 -0.1240  0.0774
  722BOLB   C1D17325  19.544  25.860  25.089  0.0986 -0.0743  0.2955
  722BOLB   C2D17326  19.225  25.790  24.830 -0.1868 -0.2953  0.0247
  722BOLB   C3D17327  18.799  25.817  24.668 -0.3115 -0.2002  0.2456
  722BOLB   C4D17328  18.686  25.873  24.260  0.2484 -0.3840  0.0729
  723BOLB   NC117329  19.354  27.787  20.436 -0.0353  0.1657  0.1756
  723BOLB   PO117330  19.511  27.396  20.408 -0.1668  0.4348 -0.1166
  723BOLB   GL117331  19.756  27.003  20.500 -0.1438 -0.0452 -0.2162
  723BOLB   GL217332  19.727  26.559  20.449 -0.2276 -0.0244 -0.1404
  723BOLB   C1A17333  20.186  26.906  20.414  0.4240 -0.1039 -0.1511
  723BOLB   C2A17334  20.594  26.846  20.468 -0.0413  0.1331 -0.2045
  723BOLB   C3A17335  20.923  26.717  20.497 -0.1708  0.0777  0.1513
  723BOLB   C4A17336  21.248  26.386  20.506  0.1318 -0.2353 -0.0763
  723BOLB   C1B17337  20.030  26.351  20.227 -0.2861  0.0259 -0.1413
  723BOLB   C2B17338  20.524  26.310  20.278 -0.1747 -0.0234  0.0754
  723BOLB   C3B17339  20.885  26.283  20.003  0.3663  0.0913 -0.2117
  723BOLB   C4B17340  21.301  26.209  19.905  0.2343 -0.0422  0.0050
  723BOLB   NC217341  23.922  27.260  20.625 -0.2383 -0.1097  0.1406
  723BOLB   PO217342  23.559  27.058  20.413  0.0053  0.0287 -0.2244
  723BOLB   GL317343  23.173  26.814  20.383 -0.0143 -0.0725 -0.0966
  723BOLB   GL417344  22.854  26.997  20.356  0.2763 -0.3023  0.2425
  723BOLB   C1C17345  22.865  26.831  20.831 -0.0330 -0.2354 -0.1118
  723BOLB   C2C17346  22.445  26.930  20.839 -0.2660  0.2442 -0.0754
  723BOLB   C3C17347  22.095  26.644  20.732  0.0611  0.1929  0.1747
  723BOLB   C4C17348  21.678  26.322  20.743 -0.0116 -0.0243 -0.0614
  723BOLB   C1D17349  22.576  26.663  20.452  0.2728  0.0368  0.3297
  723BOLB   C2D17350  22.197  26.513  20.202 -0.1625  0.0610  0.2021
  723BOLB   C3D17351  22.037  26.185  19.948 -0.0999  0.0471  0.1037
  723BOLB   C4D17352  21.749  25.968  19.769  0.1443 -0.3475 -0.2641
  724BOLB   NC117353  12.095  28.429  24.833  0.2883  0.2495 -0.0648
  724BOLB   PO117354  11.948  28.164  24.426  0.0308 -0.3763  0.1604
  724BOLB   GL117355  12.081  27.774  24.455  0.4320  0.0113 -0.1843
  724BOLB   GL217356  12.275  27.970  24.828  0.0804 -0.3105 -0.1389
  724BOLB   C1A17357  11.935  27.287  24.268  0.0540 -0.0221 -0.1263
  724BOLB   C2A17358  12.060  26.843  24.080 -0.0846 -0.0640  0.2318
  724BOLB   C3A17359  12.303  26.458  24.183 -0.0615 -0.0784  0.1075
  724BOLB   C4A17360  12.335  26.136  24.246 -0.2199  0.1165 -0.2722
  724BOLB   C1B17361  12.586  27.668  24.856  0.0375 -0.2165 -0.0342
  724BOLB   C2B17362  12.954  27.866  24.924 -0.0377  0.0994 -0.2063
  724BOLB   C3B17363  13.257  27.950  25.165 -0.3684  0.2298  0.2976
  724BOLB   C4B17364  13.651  27.883  25.160  0.3530  0.4268  0.0280
  724BOLB   NC217365  11.102  26.902  25.807  0.2808 -0.0315 -0.0358
  724BOLB   PO217366  11.338  27.251  26.021 -0.0740 -0.0019  0.1723
  724BOLB   GL317367  11.425  27.155  25.524  0.0823 -0.4591 -0.0442
  724BOLB   GL417368  11.313  27.317  25.224 -0.0503 -0.0614  0.1242
  724BOLB   C1C17369  11.439  26.782  25.230  0.0578  0.1487  0.0172
  724BOLB   C2C17370  11.388  26.534  24.844 -0.3315 -0.1232 -0.0312
  724BOLB   C3C17371  11.628  26.146  24.608  0.0270  0.0133 -0.1871
  724BOLB   C4C17372  12.007  26.008  24.352  0.0128 -0.2773  0.0590
  724BOLB   C1D17373  11.611  27.183  25.001 -0.0566  0.2838 -0.4864
  724BOLB   C2D17374  11.450  26.988  24.686  0.0411 -0.0343  0.0651
  724BOLB   C3D17375  11.597  26.952  24.165  0.0247 -0.1685 -0.1597
  724BOLB   C4D17376  11.705  27.263  23.791  0.2735 -0.2274  0.0546
  725BOLB   NC117377  19.476  27.224  20.931 -0.2096  0.0300  0.0680
  725BOLB   PO117378  19.545  26.786  20.875 -0.2445 -0.2115 -0.0616
  725BOLB   GL117379  19.712  26.726  21.201  0.0363 -0.2204 -0.0311
  725BOLB   GL217380  19.703  27.085  21.319 -0.0131  0.1352 -0.0321
  725BOLB   C1A17381  20.170  26.618  21.205  0.2528 -0.0371  0.3711
  725BOLB   C2A17382  20.425  26.608  21.445 -0.0311  0.2125  0.4610
  725BOLB   C3A17383  20.684  26.624  21.790  0.2298 -0.0900  0.1792
  725BOLB   C4A17384  20.913  26.530  22.054  0.0823 -0.3734  0.1223
  725BOLB   C1B17385  19.860  27.349  21.686  0.1803 -0.2679  0.1437
  725BOLB   C2B17386  20.177  27.295  22.080 -0.1819  0.1417 -0.1106
  725BOLB   C3B17387  20.605  27.314  22.325 -0.3736 -0.4248 -0.0305
  725BOLB   C4B17388  20.893  27.686  22.560 -0.2034 -0.1834  0.3541
  725BOLB   NC217389  22.359  27.320  22.669  0.0723 -0.1792 -0.1068
  725BOLB   PO217390  22.508  27.003  23.020  0.1175 -0.1019  0.0564
  725BOLB   GL317391  22.475  26.565  22.728 -0.0563 -0.0165  0.0198
  725BOLB   GL417392  22.711  26.254  22.787  0.2579 -0.1934 -0.0579
  725BOLB   C1C17393  22.206  26.247  22.508  0.1345  0.1067  0.2634
  725BOLB   C2C17394  21.931  25.937  22.316  0.1252 -0.1935  0.0450
  725BOLB   C3C17395  21.531  26.063  22.379 -0.3888  0.0962 -0.1387
  725BOLB   C4C17396  21.231  26.357  22.339  0.1122  0.1911 -0.1915
  725BOLB   C1D17397  22.632  26.117  22.360 -0.1558 -0.0113 -0.1874
  725BOLB   C2D17398  22.264  26.138  21.975  0.1860 -0.1091 -0.1538
  725BOLB   C3D17399  21.897  26.011  21.707 -0.1806  0.1733 -0.0719
  725BOLB   C4D17400  21.454  25.776  21.942  0.1843  0.0582 -0.3576
  726BOLB   NC117401  20.251  23.216  19.563 -0.3393 -0.2959 -0.0857
  726BOLB   PO117402  20.516  23.637  19.494 -0.1181 -0.0436  0.0398
  726BOLB   GL117403  20.358  23.988  19.444  0.0047 -0.0061 -0.0269
  726BOLB   GL217404  20.449  24.223  19.517 -0.0613 -0.0186 -0.2541
  726BOLB   C1A17405  20.117  24.310  19.173  0.0591  0.4403  0.0409
  726BOLB   C2A17406  20.322  24.737  19.015 -0.0228  0.0018  0.0422
  726BOLB   C3A17407  20.349  25.168  18.764 -0.1186 -0.0331 -0.0551
  726BOLB   C4A17408  20.644  25.504  18.755 -0.0685 -0.0942  0.2213
  726BOLB   C1B17409  20.520  24.641  19.449 -0.1732  0.1468  0.0590
  726BOLB   C2B17410  20.750  24.951  19.309 -0.1267 -0.1815 -0.0503
  726BOLB   C3B17411  20.901  25.205  19.099  0.1322  0.1031 -0.1627
  726BOLB   C4B17412  21.181  25.395  19.441 -0.1560  0.0805  0.1015
  726BOLB   NC217413  19.791  27.716  18.793  0.2057  0.0139  0.4734
  726BOLB   PO217414  20.044  27.791  19.266  0.0401  0.1890  0.0597
  726BOLB   GL317415  20.074  27.338  19.110  0.0262 -0.2743  0.2818
  726BOLB   GL417416  19.957  27.211  18.813 -0.2944 -0.2761  0.1064
  726BOLB   C1C17417  20.516  27.094  19.010  0.0524 -0.3608 -0.2805
  726BOLB   C2C17418  20.654  26.711  18.960 -0.0165 -0.2349  0.2437
  726BOLB   C3C17419  20.664  26.323  19.094 -0.1763  0.1877 -0.3281
  726BOLB   C4C17420  20.614  25.939  18.795  0.0796 -0.2155  0.0270
  726BOLB   C1D17421  20.096  26.781  18.942  0.2793 -0.2156 -0.0322
  726BOLB   C2D17422  20.117  26.582  19.224 -0.0677  0.1303 -0.2870
  726BOLB   C3D17423  20.195  26.179  19.273 -0.2528  0.0971 -0.4701
  726BOLB   C4D17424  20.407  25.863  19.617  0.0990 -0.0683 -0.0396
  727BOLB   NC117425  17.280  26.278  22.375 -0.0651  0.1092 -0.1355
  727BOLB   PO117426  17.188  26.446  22.796 -0.6744  0.0955 -0.1136
  727BOLB   GL117427  17.516  26.212  23.115 -0.5676 -0.1138  0.0660
  727BOLB   GL217428  17.747  25.976  23.063  0.1755 -0.0365 -0.0929
  727BOLB   C1A17429  17.754  26.187  23.514  0.4510 -0.0922  0.4613
  727BOLB   C2A17430  17.917  26.173  23.950  0.3509  0.2339 -0.1949
  727BOLB   C3A17431  17.839  26.049  24.359 -0.3306 -0.2426 -0.0236
  727BOLB   C4A17432  17.661  26.211  24.773 -0.0369 -0.1296  0.1792
  727BOLB   C1B17433  18.116  26.091  22.886 -0.0599  0.3673  0.2760
  727BOLB   C2B17434  18.523  26.122  22.713 -0.0881 -0.1682  0.0455
  727BOLB   C3B17435  18.719  25.708  22.608  0.0058 -0.3168  0.1972
  727BOLB   C4B17436  18.992  25.493  22.948  0.2263  0.2989 -0.0029
  727BOLB   NC217437  16.995  26.696  26.850  0.1458 -0.1440 -0.4420
  727BOLB   PO217438  16.888  26.224  26.786 -0.0547 -0.0157  0.3692
  727BOLB   GL317439  17.244  26.342  26.477 -0.0162 -0.0337  0.0204
  727BOLB   GL417440  17.536  26.245  26.603 -0.3067 -0.2627  0.1353
  727BOLB   C1C17441  17.386  26.619  26.141  0.1513  0.1675  0.0272
  727BOLB   C2C17442  17.604  26.420  25.829  0.1568 -0.1175  0.0916
  727BOLB   C3C17443  17.766  26.368  25.479 -0.0610 -0.0762 -0.0202
  727BOLB   C4C17444  17.639  26.137  25.187 -0.2121  0.2266  0.0752
  727BOLB   C1D17445  17.567  26.033  26.218  0.1130  0.1114 -0.1733
  727BOLB   C2D17446  17.561  25.867  25.758 -0.1651 -0.0836  0.1668
  727BOLB   C3D17447  17.384  25.433  25.660  0.1858  0.1060  0.0775
  727BOLB   C4D17448  17.075  24.999  25.502  0.1068  0.1969  0.2959
  728BOLB   NC117449  14.756  25.750  22.713 -0.3935 -0.2131  0.0072
  728BOLB   PO117450  14.359  25.624  22.946 -0.2607 -0.1182  0.1548
  728BOLB   GL117451  14.448  25.368  23.304 -0.1688  0.1037  0.2937
  728BOLB   GL217452  14.146  25.259  23.398  0.0021  0.0027  0.0269
  728BOLB   C1A17453  14.590  25.436  23.724 -0.2339 -0.1283  0.0688
  728BOLB   C2A17454  14.571  25.466  24.167  0.0955  0.0164  0.1872
  728BOLB   C3A17455  14.604  25.583  24.522 -0.1244 -0.0967 -0.0023
  728BOLB   C4A17456  14.830  25.735  24.960 -0.1058 -0.0118  0.3230
  728BOLB   C1B17457  14.046  25.285  23.760  0.2039 -0.3769 -0.2905
  728BOLB   C2B17458  14.098  25.379  24.143 -0.0470 -0.0109 -0.0596
  728BOLB   C3B17459  14.107  25.405  24.541 -0.0102 -0.0628 -0.0848
  728BOLB   C4B17460  14.293  25.488  24.873 -0.1654 -0.1120  0.1596
  728BOLB   NC217461  16.158  26.181  27.258 -0.3421  0.0532 -0.0306
  728BOLB   PO217462  15.672  26.330  27.339 -0.0886  0.0236  0.1485
  728BOLB   GL317463  15.426  25.973  27.061  0.2759  0.2456 -0.0142
  728BOLB   GL417464  15.556  25.631  27.089  0.0827 -0.0705 -0.0287
  728BOLB   C1C17465  15.304  26.144  26.585 -0.1692  0.1140  0.2837
  728BOLB   C2C17466  14.979  26.133  26.177 -0.2754 -0.1243 -0.2017
  728BOLB   C3C17467  14.769  26.032  25.872  0.2664 -0.1730 -0.1144
  728BOLB   C4C17468  14.882  25.872  25.403  0.1520 -0.1951 -0.0135
  728BOLB   C1D17469  15.967  25.614  26.835  0.2229 -0.4324 -0.0200
  728BOLB   C2D17470  16.185  25.876  26.643 -0.0712  0.2042  0.1492
  728BOLB   C3D17471  16.289  26.018  26.304  0.1882  0.1062  0.3756
  728BOLB   C4D17472  16.573  25.995  25.971  0.0068  0.4007 -0.0004
  729BOLB   NC117473  17.018  27.347  22.484  0.0359 -0.1816 -0.2528
  729BOLB   PO117474  16.960  26.955  22.651 -0.0907 -0.0779 -0.2156
  729BOLB   GL117475  17.327  26.874  22.950  0.0338 -0.4878  0.1054
  729BOLB   GL217476  17.744  26.865  22.892 -0.1687 -0.0142  0.4226
  729BOLB   C1A17477  17.591  26.709  23.369 -0.0195 -0.0112  0.3017
  729BOLB   C2A17478  17.754  26.706  23.839  0.0264  0.2334 -0.0696
  729BOLB   C3A17479  17.725  26.570  24.155 -0.0412 -0.3320  0.1966
  729BOLB   C4A17480  17.972  26.529  24.411  0.0193 -0.2454  0.1025
  729BOLB   C1B17481  17.600  27.291  23.101  0.2232  0.0339 -0.2392
  729BOLB   C2B17482  17.361  27.435  23.387 -0.0275 -0.1146 -0.1965
  729BOLB   C3B17483  17.419  27.335  23.795 -0.1636 -0.3429 -0.3907
  729BOLB   C4B17484  17.541  27.025  24.213  0.1820  0.2318  0.1079
  729BOLB   NC217485  18.776  28.790  25.317  0.2465 -0.2276  0.1597
  729BOLB   PO217486  18.798  28.388  25.486  0.0714 -0.2765 -0.0033
  729BOLB   GL317487  18.723  27.961  25.363  0.1266 -0.2224  0.0002
  729BOLB   GL417488  18.527  27.622  25.511  0.0425  0.0700 -0.4315
  729BOLB   C1C17489  18.874  27.481  25.152  0.2123  0.0748  0.0019
  729BOLB   C2C17490  18.703  27.011  25.185  0.1887 -0.1758 -0.2547
  729BOLB   C3C17491  18.391  26.840  24.944  0.0412  0.1300 -0.2010
  729BOLB   C4C17492  18.132  26.474  24.805 -0.2661 -0.5060 -0.1349
  729BOLB   C1D17493  18.253  27.323  25.113  0.3146  0.2620 -0.1155
  729BOLB   C2D17494  17.953  27.154  24.902 -0.3446 -0.0108 -0.1102
  729BOLB   C3D17495  17.705  26.937  24.671  0.2886  0.0136 -0.0926
  729BOLB   C4D17496  17.458  26.584  24.579 -0.2351 -0.0331  0.1727
  730BOLB   NC117497  16.979  28.527  23.769 -0.2847  0.2864 -0.1625
  730BOLB   PO117498  17.182  28.325  23.395 -0.2311  0.1661  0.1241
  730BOLB   GL117499  16.883  28.059  23.619  0.0275  0.0109  0.3504
  730BOLB   GL217500  16.574  28.079  23.723  0.0505  0.1783  0.2547
  730BOLB   C1A17501  17.030  27.747  23.911  0.0316 -0.1822 -0.1233
  730BOLB   C2A17502  17.142  27.686  24.347 -0.0657  0.0329 -0.0641
  730BOLB   C3A17503  17.076  27.849  24.738 -0.0533  0.0088  0.0844
  730BOLB   C4A17504  16.886  27.732  25.037  0.2447  0.0481 -0.0103
  730BOLB   C1B17505  16.514  27.922  24.165  0.1096  0.1257 -0.2363
  730BOLB   C2B17506  16.104  27.835  24.376 -0.0408 -0.1682  0.1144
  730BOLB   C3B17507  15.862  28.001  24.694 -0.0364 -0.0518  0.2628
  730BOLB   C4B17508  15.720  27.985  25.190 -0.0794 -0.2274 -0.3154
  730BOLB   NC217509  15.612  28.435  24.289 -0.1735 -0.1625  0.0126
  730BOLB   PO217510  15.237  28.326  24.179  0.0644  0.2814  0.0483
  730BOLB   GL317511  15.083  28.104  24.516  0.2520 -0.2817  0.0124
  730BOLB   GL417512  14.749  28.023  24.419 -0.0386 -0.0878  0.1004
  730BOLB   C1C17513  15.377  27.854  24.608 -0.1726  0.2188  0.2007
  730BOLB   C2C17514  15.716  27.489  24.872 -0.2238  0.1081 -0.1002
  730BOLB   C3C17515  16.130  27.563  24.934 -0.1531  0.0631 -0.0392
  730BOLB   C4C17516  16.585  27.548  25.077 -0.3692  0.2172 -0.1519
  730BOLB   C1D17517  14.655  27.733  24.851 -0.0671  0.1393  0.0690
  730BOLB   C2D17518  14.373  27.654  25.071 -0.1284  0.1293  0.1606
  730BOLB   C3D17519  14.055  27.613  25.362 -0.1518  0.3384  0.2321
  730BOLB   C4D17520  14.150  27.544  25.825 -0.2375 -0.0060 -0.0076
  731BOLB   NC117521  15.928  25.070  22.956  0.1710  0.3502  0.2544
  731BOLB   PO117522  15.548  25.256  23.175 -0.2483  0.0644 -0.0938
  731BOLB   GL117523  15.689  25.247  23.540  0.3472 -0.0554 -0.2310
  731BOLB   GL217524  15.916  25.087  23.477 -0.2328 -0.1852 -0.3348
  731BOLB   C1A17525  15.760  25.504  23.919 -0.0509 -0.0078  0.3132
  731BOLB   C2A17526  15.751  25.579  24.372  0.1059 -0.0901 -0.2135
  731BOLB   C3A17527  15.782  25.846  24.785 -0.0492 -0.0953 -0.1386
  731BOLB   C4A17528  16.015  25.807  25.183  0.0830 -0.1132  0.0724
  731BOLB   C1B17529  15.703  24.915  23.885  0.0015  0.2221  0.1027
  731BOLB   C2B17530  15.787  24.854  24.285  0.0485 -0.0314  0.2715
  731BOLB   C3B17531  15.820  24.608  24.630  0.0757  0.4121  0.1557
  731BOLB   C4B17532  15.870  24.340  24.993 -0.1234  0.0416 -0.1705
  731BOLB   NC217533  17.294  25.956  27.002  0.0472  0.0502  0.0924
  731BOLB   PO217534  17.613  25.760  26.822  0.0818  0.0143 -0.1551
  731BOLB   GL317535  17.545  25.483  26.512 -0.0074  0.0192  0.0260
  731BOLB   GL417536  17.710  25.275  26.331  0.0034 -0.1952 -0.1404
  731BOLB   C1C17537  17.353  25.612  26.153 -0.0676 -0.0779 -0.0360
  731BOLB   C2C17538  17.011  25.743  25.900 -0.1912 -0.0723  0.1164
  731BOLB   C3C17539  16.713  25.760  25.556 -0.0242  0.0021 -0.0485
  731BOLB   C4C17540  16.256  25.956  25.440 -0.0213  0.0046 -0.0846
  731BOLB   C1D17541  17.904  25.395  25.974  0.1214 -0.1661  0.0856
  731BOLB   C2D17542  18.070  25.321  25.574 -0.0304  0.0761  0.1660
  731BOLB   C3D17543  18.346  24.992  25.363  0.3043 -0.1798 -0.1741
  731BOLB   C4D17544  18.644  24.776  25.119 -0.2216 -0.1262  0.1293
  732BOLB   NC117545  18.942  25.947  21.199 -0.0775 -0.1545 -0.0527
  732BOLB   PO117546  19.142  25.569  21.108 -0.0258 -0.3686  0.0968
  732BOLB   GL117547  19.620  25.704  21.010 -0.3726  0.2355 -0.0376
  732BOLB   GL217548  19.862  25.481  21.093  0.1907  0.1941 -0.0644
  732BOLB   C1A17549  19.972  26.017  21.082 -0.0072 -0.4705 -0.3164
  732BOLB   C2A17550  20.449  26.174  21.219  0.0802 -0.2397 -0.0441
  732BOLB   C3A17551  20.738  26.200  21.549  0.1186  0.0126  0.0443
  732BOLB   C4A17552  21.185  26.155  21.663 -0.0920 -0.0160  0.0503
  732BOLB   C1B17553  20.265  25.641  21.178  0.2154  0.2495 -0.1778
  732BOLB   C2B17554  20.693  25.604  21.381 -0.3802 -0.0197  0.0934
  732BOLB   C3B17555  21.025  25.696  21.693  0.0973  0.2904  0.1794
  732BOLB   C4B17556  21.033  25.897  22.119 -0.2221 -0.1274  0.1667
  732BOLB   NC217557  22.527  28.044  21.979 -0.0716 -0.3159  0.0413
  732BOLB   PO217558  22.825  27.819  21.762 -0.0502 -0.1506 -0.0241
  732BOLB   GL317559  22.724  27.382  21.769  0.3670 -0.1368  0.0172
  732BOLB   GL417560  22.976  27.219  21.770 -0.1111 -0.2969  0.0489
  732BOLB   C1C17561  22.539  27.118  21.362  0.2678 -0.1233  0.0556
  732BOLB   C2C17562  22.098  26.814  21.290 -0.0692 -0.0315 -0.1173
  732BOLB   C3C17563  21.871  26.457  21.164 -0.3469  0.0081  0.1990
  732BOLB   C4C17564  21.571  26.183  21.381  0.0599 -0.3310  0.0722
  732BOLB   C1D17565  22.771  26.853  21.677  0.1050 -0.1141  0.3909
  732BOLB   C2D17566  22.361  26.629  21.668 -0.1646  0.0656  0.2497
  732BOLB   C3D17567  21.948  26.474  21.681  0.1995  0.1392 -0.0545
  732BOLB   C4D17568  21.573  26.327  21.939  0.2164 -0.0293 -0.0579
  733BOLB   NC117569  12.857  28.833  23.396 -0.0358 -0.0140 -0.2110
  733BOLB   PO117570  12.968  28.407  23.586 -0.0019  0.2994  0.1130
  733BOLB   GL117571  12.685  27.994  23.779  0.1814 -0.0878 -0.1332
  733BOLB   GL217572  12.451  27.967  23.586  0.0640 -0.2297 -0.1109
  733BOLB   C1A17573  12.830  27.613  23.972 -0.1808 -0.3401 -0.2691
  733BOLB   C2A17574  12.936  27.412  24.333 -0.3336  0.0109 -0.0652
  733BOLB   C3A17575  13.305  27.569  24.482  0.0088  0.1786  0.0954
  733BOLB   C4A17576  13.546  27.493  24.753 -0.0311 -0.2813  0.0359
  733BOLB   C1B17577  12.525  27.559  23.519  0.0510 -0.1265  0.4912
  733BOLB   C2B17578  12.771  27.192  23.765 -0.0900  0.1513  0.0974
  733BOLB   C3B17579  13.165  27.006  23.994 -0.0571  0.1894  0.1183
  733BOLB   C4B17580  13.195  26.681  24.269 -0.3149  0.0223  0.0071
  733BOLB   NC217581  12.478  27.718  26.300 -0.1810  0.0942 -0.1624
  733BOLB   PO217582  12.181  27.537  25.988  0.1822 -0.2238  0.4282
  733BOLB   GL317583  12.294  27.320  25.705  0.2208 -0.2290 -0.0614
  733BOLB   GL417584  12.144  27.102  25.567 -0.1036  0.1908  0.0588
  733BOLB   C1C17585  12.661  27.014  25.625  0.0551 -0.1488  0.1121
  733BOLB   C2C17586  13.015  27.075  25.375  0.2151 -0.0218 -0.0514
  733BOLB   C3C17587  13.410  27.103  25.432  0.0363 -0.2668 -0.3174
  733BOLB   C4C17588  13.707  27.312  25.232 -0.1931 -0.0638  0.0461
  733BOLB   C1D17589  12.150  26.912  25.175 -0.0538  0.0127 -0.1115
  733BOLB   C2D17590  11.876  26.717  24.839 -0.1796 -0.1728 -0.1994
  733BOLB   C3D17591  11.818  26.670  24.484  0.1022 -0.0285  0.1987
  733BOLB   C4D17592  11.838  26.399  24.059 -0.1266 -0.0760  0.3806
  734BOLB   NC117593  17.944  28.047  22.993  0.1376 -0.1123  0.0488
  734BOLB   PO117594  17.657  27.979  23.163 -0.0302 -0.1305  0.0927
  734BOLB   GL117595  17.820  27.583  23.421 -0.1232 -0.0851 -0.0125
  734BOLB   GL217596  18.178  27.601  23.401 -0.2335 -0.0362 -0.2488
  734BOLB   C1A17597  17.929  27.462  23.833 -0.2690  0.1168  0.0261
  734BOLB   C2A17598  18.053  27.061  23.960 -0.0030  0.2640 -0.3028
  734BOLB   C3A17599  18.286  26.614  23.970  0.2842 -0.1026 -0.4389
  734BOLB   C4A17600  18.318  26.223  24.234 -0.0102 -0.0720  0.1880
  734BOLB   C1B17601  18.428  27.350  23.700  0.3862 -0.2703  0.1064
  734BOLB   C2B17602  18.384  26.937  23.639 -0.0209 -0.1127  0.0048
  734BOLB   C3B17603  18.133  26.649  23.452 -0.1869 -0.0093  0.1311
  734BOLB   C4B17604  17.971  26.500  23.138  0.0918 -0.1217  0.0735
  734BOLB   NC217605  19.839  25.960  25.999  0.0756 -0.1687  0.0509
  734BOLB   PO217606  19.521  25.727  26.223 -0.1776 -0.0839  0.3164
  734BOLB   GL317607  19.435  25.643  25.798 -0.0750 -0.1923 -0.0946
  734BOLB   GL417608  19.585  25.733  25.576 -0.3130 -0.1509 -0.0990
  734BOLB   C1C17609  19.084  25.904  25.451 -0.0945  0.0848  0.0372
  734BOLB   C2C17610  18.967  26.149  25.126 -0.1524 -0.4564 -0.4575
  734BOLB   C3C17611  18.628  26.281  24.849 -0.0595 -0.3574  0.1066
  734BOLB   C4C17612  18.395  26.163  24.589  0.0725  0.1369 -0.1324
  734BOLB   C1D17613  19.285  25.482  25.259  0.0844 -0.0981 -0.4459
  734BOLB   C2D17614  18.924  25.483  25.108  0.0610  0.0281 -0.1373
  734BOLB   C3D17615  18.700  25.221  24.879 -0.0798  0.0263 -0.0076
  734BOLB   C4D17616  18.698  24.965  24.571 -0.0583 -0.0357 -0.2555
  735BOLB   NC117617  19.256  26.507  20.615 -0.2537  0.0078 -0.0112
  735BOLB   PO117618  19.308  26.049  20.785  0.2335  0.2581  0.0760
  735BOLB   GL117619  19.621  26.128  20.565  0.1730  0.0953  0.1121
  735BOLB   GL217620  19.697  26.328  20.859 -0.0135 -0.0932  0.0039
  735BOLB   C1A17621  20.086  25.953  20.543 -0.1110  0.1374 -0.0981
  735BOLB   C2A17622  20.373  25.992  20.771 -0.0085  0.1764  0.0216
  735BOLB   C3A17623  20.875  26.067  20.583 -0.1347  0.1004 -0.0673
  735BOLB   C4A17624  21.289  25.929  20.728 -0.3445  0.0294  0.2654
  735BOLB   C1B17625  20.157  26.415  20.705 -0.0006  0.1435 -0.1056
  735BOLB   C2B17626  20.626  26.460  20.756  0.0728  0.0922  0.1144
  735BOLB   C3B17627  20.909  26.391  21.044 -0.1530 -0.2614 -0.2690
  735BOLB   C4B17628  20.873  25.974  21.047  0.3174  0.1712  0.1238
  735BOLB   NC217629  23.701  26.823  22.154 -0.1604  0.4160  0.0195
  735BOLB   PO217630  23.464  26.433  22.232 -0.1445  0.0265  0.0354
  735BOLB   GL317631  23.107  26.151  22.202 -0.0273 -0.1777 -0.0900
  735BOLB   GL417632  23.245  25.902  22.476 -0.3055  0.1533 -0.0015
  735BOLB   C1C17633  22.748  25.874  21.914 -0.4808  0.2148  0.4458
  735BOLB   C2C17634  22.307  25.757  21.625  0.1601  0.3452 -0.1532
  735BOLB   C3C17635  22.028  25.804  21.246  0.2379  0.0386 -0.0250
  735BOLB   C4C17636  21.668  25.877  20.917 -0.0360 -0.1790 -0.2261
  735BOLB   C1D17637  23.024  25.522  22.354 -0.1224 -0.2886 -0.1098
  735BOLB   C2D17638  22.843  25.103  22.313  0.1361  0.1068 -0.0339
  735BOLB   C3D17639  22.814  24.903  21.940 -0.0939  0.1573  0.2303
  735BOLB   C4D17640  22.910  24.838  21.481  0.0643  0.0789  0.2021
  736BOLB   NC117641   7.543  25.314  22.081  0.2019  0.1674  0.3371
  736BOLB   PO117642   7.898  25.283  22.432  0.0904 -0.0178 -0.1230
  736BOLB   GL117643   8.163  25.139  22.215  0.1684  0.2676 -0.0237
  736BOLB   GL217644   8.192  25.098  21.893  0.2252 -0.3618  0.1680
  736BOLB   C1A17645   8.549  24.971  22.276 -0.1927  0.1725 -0.0298
  736BOLB   C2A17646   8.851  25.171  22.406 -0.2027  0.2513  0.1126
  736BOLB   C3A17647   9.174  25.467  22.672  0.3076 -0.2695  0.0901
  736BOLB   C4A17648   9.330  25.694  22.859 -0.1309  0.2243 -0.0997
  736BOLB   C1B17649   8.426  24.732  21.729  0.4244  0.1119 -0.1850
  736BOLB   C2B17650   8.867  24.499  21.747  0.0869 -0.0363 -0.0789
  736BOLB   C3B17651   9.311  24.371  21.820  0.0415  0.0973 -0.2598
  736BOLB   C4B17652   9.751  24.487  21.873  0.1791  0.3593  0.2002
  736BOLB   NC217653   9.540  27.083  24.369  0.3699 -0.4673 -0.1186
  736BOLB   PO217654   9.993  26.902  24.432  0.0181  0.3541 -0.0048
  736BOLB   GL317655  10.277  26.643  24.160 -0.0660 -0.1018  0.2353
  736BOLB   GL417656  10.593  26.767  24.108 -0.2277 -0.2014  0.2931
  736BOLB   C1C17657  10.123  26.244  23.994 -0.2156  0.3030 -0.2117
  736BOLB   C2C17658   9.986  26.181  23.618 -0.0682  0.2141 -0.0953
  736BOLB   C3C17659   9.680  26.043  23.379 -0.1670 -0.1420  0.1014
  736BOLB   C4C17660   9.629  25.749  23.175  0.1188 -0.1765  0.0545
  736BOLB   C1D17661  10.868  26.445  24.048 -0.0285 -0.2852  0.0290
  736BOLB   C2D17662  11.137  26.207  23.894 -0.2827  0.1181  0.1994
  736BOLB   C3D17663  11.179  25.753  23.921  0.0245 -0.0764  0.0189
  736BOLB   C4D17664  10.796  25.498  23.794 -0.2507 -0.1300  0.0838
  737BOLB   NC117665  16.261  27.403  23.140 -0.3438 -0.2390  0.0017
  737BOLB   PO117666  16.634  27.295  22.846 -0.2206 -0.1125 -0.1750
  737BOLB   GL117667  16.854  27.040  23.215 -0.1478 -0.0358  0.0826
  737BOLB   GL217668  16.806  26.718  23.181  0.1627 -0.0663 -0.0771
  737BOLB   C1A17669  17.121  26.995  23.481 -0.2753  0.3541  0.1416
  737BOLB   C2A17670  17.295  26.831  23.824 -0.2000 -0.1050  0.1562
  737BOLB   C3A17671  17.184  26.645  24.140 -0.1632  0.3866 -0.0336
  737BOLB   C4A17672  16.803  26.752  24.326 -0.0259 -0.1393  0.2614
  737BOLB   C1B17673  16.790  26.550  23.536  0.2697  0.1394 -0.2962
  737BOLB   C2B17674  16.870  26.308  23.891 -0.0884  0.3023 -0.0735
  737BOLB   C3B17675  17.030  26.173  24.243  0.0709 -0.3685 -0.0750
  737BOLB   C4B17676  17.283  26.055  24.474 -0.2259 -0.2079 -0.0055
  737BOLB   NC217677  16.766  27.621  26.803 -0.1330  0.0821  0.1395
  737BOLB   PO217678  17.109  27.877  26.569  0.2232 -0.2435  0.6850
  737BOLB   GL317679  16.805  27.549  26.248  0.1217 -0.0583  0.0920
  737BOLB   GL417680  16.835  27.257  26.412 -0.1654 -0.1397 -0.2729
  737BOLB   C1C17681  16.909  27.331  25.830  0.2915  0.0886 -0.2272
  737BOLB   C2C17682  16.959  27.317  25.383 -0.2142 -0.0402 -0.3357
  737BOLB   C3C17683  16.847  27.153  25.017  0.0218  0.1771  0.0854
  737BOLB   C4C17684  16.587  26.910  24.725  0.0732  0.3215  0.1319
  737BOLB   C1D17685  16.963  26.860  26.182  0.1551  0.0387  0.0387
  737BOLB   C2D17686  16.948  26.686  25.741  0.0141 -0.0150  0.0619
  737BOLB   C3D17687  16.817  26.381  25.537 -0.0593  0.1085 -0.1304
  737BOLB   C4D17688  16.722  26.153  25.176  0.2097  0.3003  0.4238
  738BOLB   NC117689  18.539  25.947  20.660 -0.0387  0.0802  0.1921
  738BOLB   PO117690  18.849  25.719  20.741 -0.1313  0.0753  0.0210
  738BOLB   GL117691  19.104  25.777  20.401  0.0955  0.0347  0.1531
  738BOLB   GL217692  19.018  26.108  20.324  0.0725  0.1095 -0.1409
  738BOLB   C1A17693  19.440  25.467  20.138 -0.1678 -0.3881 -0.3858
  738BOLB   C2A17694  19.809  25.331  20.030  0.0085  0.2457 -0.1284
  738BOLB   C3A17695  20.284  25.351  19.797 -0.0965  0.0314 -0.1203
  738BOLB   C4A17696  20.765  25.501  19.748 -0.1327 -0.0106  0.0010
  738BOLB   C1B17697  18.903  26.000  19.941  0.0013  0.2115 -0.2605
  738BOLB   C2B17698  18.504  26.070  19.843  0.1703  0.2231 -0.0064
  738BOLB   C3B17699  18.220  26.131  19.506 -0.0733 -0.1316 -0.1228
  738BOLB   C4B17700  17.808  26.107  19.569  0.0572  0.1641  0.0237
  738BOLB   NC217701  21.932  28.209  19.523 -0.0402  0.0859 -0.0805
  738BOLB   PO217702  21.582  27.947  19.286 -0.0283 -0.1733  0.1389
  738BOLB   GL317703  21.560  27.549  19.199 -0.0166 -0.0992 -0.1832
  738BOLB   GL417704  21.825  27.522  19.006  0.0324 -0.1120  0.1107
  738BOLB   C1C17705  21.228  27.227  19.231  0.0132  0.1625 -0.0614
  738BOLB   C2C17706  20.992  26.824  19.348 -0.3154 -0.0852 -0.3883
  738BOLB   C3C17707  20.988  26.404  19.553  0.0631 -0.2690  0.1496
  738BOLB   C4C17708  20.933  25.897  19.690 -0.2247 -0.0725  0.1811
  738BOLB   C1D17709  21.565  27.209  18.826  0.0669 -0.0276 -0.2301
  738BOLB   C2D17710  21.548  26.808  18.983 -0.0951  0.1278 -0.2060
  738BOLB   C3D17711  21.506  26.505  19.369 -0.0540  0.0918 -0.0831
  738BOLB   C4D17712  21.778  26.513  19.697 -0.1924  0.0533 -0.2009
  739BOLB   NC117713  18.672  25.564  21.384  0.2406  0.2369  0.1279
  739BOLB   PO117714  18.684  25.867  21.705  0.0459  0.0141 -0.2288
  739BOLB   GL117715  18.910  25.950  22.054 -0.2078 -0.0571  0.3004
  739BOLB   GL217716  19.094  26.113  21.969 -0.0118 -0.1291  0.1617
  739BOLB   C1A17717  18.939  26.209  22.418 -0.0731 -0.0041  0.2237
  739BOLB   C2A17718  19.056  26.018  22.873  0.0498  0.1001 -0.0317
  739BOLB   C3A17719  19.090  25.787  23.269  0.0041 -0.0123 -0.0925
  739BOLB   C4A17720  19.224  25.871  23.715 -0.1203  0.2853 -0.1737
  739BOLB   C1B17721  19.422  26.063  22.307 -0.2310  0.2042  0.1742
  739BOLB   C2B17722  19.679  26.064  22.490 -0.0527  0.2038  0.1211
  739BOLB   C3B17723  19.826  26.287  22.792  0.2243 -0.2020  0.1174
  739BOLB   C4B17724  20.158  26.290  22.978  0.0769 -0.4006  0.0359
  739BOLB   NC217725  21.446  26.764  24.882 -0.1788 -0.3933  0.1947
  739BOLB   PO217726  21.393  26.258  25.175 -0.1144  0.3749  0.0218
  739BOLB   GL317727  21.059  26.193  24.816 -0.0553  0.0592  0.1872
  739BOLB   GL417728  21.200  26.333  24.555  0.0383 -0.2698 -0.1954
  739BOLB   C1C17729  20.641  26.373  24.548 -0.0594  0.0835 -0.0519
  739BOLB   C2C17730  20.251  26.251  24.463  0.0590 -0.0056 -0.2182
  739BOLB   C3C17731  19.941  25.849  24.283  0.2645 -0.0883 -0.1117
  739BOLB   C4C17732  19.679  25.901  23.924 -0.0229  0.0489 -0.2146
  739BOLB   C1D17733  21.101  26.479  24.135 -0.0969 -0.1190 -0.0525
  739BOLB   C2D17734  21.207  26.378  23.691 -0.0984 -0.3926 -0.1593
  739BOLB   C3D17735  21.417  26.036  23.448 -0.1078 -0.1908 -0.1356
  739BOLB   C4D17736  21.460  25.778  23.109  0.0813 -0.1677 -0.0756
  740BOLB   NC117737  16.169  28.392  23.494  0.0085  0.0980 -0.1088
  740BOLB   PO117738  15.924  28.330  23.870  0.1253  0.0685 -0.0985
  740BOLB   GL117739  16.099  27.873  23.767 -0.1694  0.0476  0.0636
  740BOLB   GL217740  15.940  27.534  23.905 -0.2215  0.0536 -0.2044
  740BOLB   C1A17741  16.499  27.591  23.751 -0.1169  0.0208 -0.0657
  740BOLB   C2A17742  16.872  27.243  23.855 -0.1180  0.0227 -0.0697
  740BOLB   C3A17743  17.113  27.227  24.150 -0.0175  0.3696 -0.0983
  740BOLB   C4A17744  17.206  27.259  24.604  0.1341 -0.0744  0.0012
  740BOLB   C1B17745  16.205  27.246  23.953  0.2194  0.2530  0.1453
  740BOLB   C2B17746  16.304  26.803  24.279 -0.0361  0.0414  0.0241
  740BOLB   C3B17747  16.034  26.523  24.371  0.1778  0.0101  0.0842
  740BOLB   C4B17748  15.931  26.503  24.659  0.1809  0.0125 -0.1086
  740BOLB   NC217749  18.760  26.861  26.227  0.0915  0.2559  0.1175
  740BOLB   PO217750  18.467  26.671  26.443  0.0816 -0.1665 -0.0909
  740BOLB   GL317751  18.299  26.745  26.052  0.1001 -0.1119  0.1705
  740BOLB   GL417752  17.955  26.703  26.035 -0.1985  0.1017 -0.1110
  740BOLB   C1C17753  18.285  26.507  25.802  0.2130 -0.1725  0.2538
  740BOLB   C2C17754  18.153  26.698  25.395 -0.1780 -0.2017  0.0153
  740BOLB   C3C17755  17.713  26.781  25.236  0.0373  0.0601  0.2628
  740BOLB   C4C17756  17.419  27.099  25.018  0.1137  0.0491 -0.1533
  740BOLB   C1D17757  17.864  27.021  25.773  0.0478 -0.0529  0.2409
  740BOLB   C2D17758  17.802  27.320  25.427 -0.2251 -0.2891  0.0243
  740BOLB   C3D17759  17.961  27.729  25.163 -0.1166 -0.1450 -0.0744
  740BOLB   C4D17760  18.016  27.672  24.704  0.1453 -0.3227  0.1451
  741BOLB   NC117761  18.311  25.795  22.058  0.0366 -0.0702 -0.0320
  741BOLB   PO117762  17.963  25.456  22.225 -0.2844 -0.0319  0.0041
  741BOLB   GL117763  18.036  25.393  22.550 -0.0903  0.0382  0.1391
  741BOLB   GL217764  18.086  25.042  22.598  0.2030 -0.0197  0.0758
  741BOLB   C1A17765  18.274  25.628  22.817 -0.0197  0.0280 -0.0291
  741BOLB   C2A17766  18.570  25.778  23.161 -0.0396 -0.1287 -0.0990
  741BOLB   C3A17767  18.658  25.824  23.565  0.1992 -0.0454 -0.2578
  741BOLB   C4A17768  18.823  26.133  23.853 -0.2299  0.0634  0.2766
  741BOLB   C1B17769  18.389  25.146  22.796  0.4111  0.1431 -0.0879
  741BOLB   C2B17770  18.445  25.279  23.322 -0.1087 -0.2182  0.0515
  741BOLB   C3B17771  18.544  25.277  23.746  0.1330 -0.0096 -0.4494
  741BOLB   C4B17772  18.499  24.847  24.009  0.0303  0.0220 -0.0198
  741BOLB   NC217773  20.683  27.563  24.693 -0.0316  0.3596  0.0536
  741BOLB   PO217774  20.745  27.355  25.046 -0.1914 -0.3136  0.2124
  741BOLB   GL317775  20.486  27.043  24.837  0.2883 -0.3070 -0.0484
  741BOLB   GL417776  20.548  26.645  24.974 -0.1627 -0.3880  0.1269
  741BOLB   C1C17777  20.311  26.763  24.511 -0.3559 -0.0949 -0.2437
  741BOLB   C2C17778  19.836  26.597  24.518  0.0353 -0.0980 -0.1586
  741BOLB   C3C17779  19.487  26.415  24.257  0.0679  0.2314  0.3901
  741BOLB   C4C17780  19.119  26.361  24.046 -0.3038  0.1987  0.0383
  741BOLB   C1D17781  20.166  26.447  24.938  0.1801 -0.1781  0.2431
  741BOLB   C2D17782  19.809  26.237  24.821  0.2770  0.3675 -0.1056
  741BOLB   C3D17783  19.531  25.965  24.523 -0.1112 -0.0697 -0.0028
  741BOLB   C4D17784  19.197  25.861  24.227 -0.1863 -0.1814 -0.4813
  742BOLB   NC117785  18.769  26.818  21.250  0.1206 -0.0959  0.0029
  742BOLB   PO117786  19.235  26.899  21.295  0.4170 -0.3710  0.2846
  742BOLB   GL117787  19.352  26.926  21.688  0.2550  0.0065  0.0607
  742BOLB   GL217788  19.104  27.183  21.764  0.0562 -0.1073  0.1411
  742BOLB   C1A17789  19.773  26.840  21.792 -0.1029  0.0016 -0.2166
  742BOLB   C2A17790  20.175  26.600  21.848  0.1676 -0.2576 -0.1181
  742BOLB   C3A17791  20.411  26.252  21.979  0.1276  0.0403  0.0897
  742BOLB   C4A17792  20.622  26.175  22.332  0.0936  0.3535 -0.0424
  742BOLB   C1B17793  19.466  27.175  22.137  0.0137  0.1995 -0.4336
  742BOLB   C2B17794  19.721  26.907  22.357  0.4015  0.0127  0.3217
  742BOLB   C3B17795  19.801  26.798  22.748 -0.0362 -0.0781  0.1084
  742BOLB   C4B17796  20.088  26.771  23.055 -0.0363 -0.3761 -0.1964
  742BOLB   NC217797  21.852  27.550  23.811 -0.1731 -0.1309  0.3455
  742BOLB   PO217798  21.439  27.396  23.741 -0.5083  0.2332  0.0906
  742BOLB   GL317799  21.456  27.048  23.667 -0.0175  0.2115 -0.0222
  742BOLB   GL417800  21.288  26.951  23.879  0.1589 -0.3399 -0.0180
  742BOLB   C1C17801  21.188  26.774  23.361 -0.0849 -0.1599 -0.0611
  742BOLB   C2C17802  21.137  26.400  23.170 -0.3032 -0.0644  0.1004
  742BOLB   C3C17803  21.284  26.172  22.888 -0.1279  0.0366  0.4032
  742BOLB   C4C17804  20.936  26.083  22.643 -0.0303 -0.0957  0.2746
  742BOLB   C1D17805  20.895  26.914  23.766 -0.0755 -0.4222  0.0464
  742BOLB   C2D17806  20.458  27.061  23.854  0.0464  0.1644  0.0026
  742BOLB   C3D17807  20.093  26.951  24.140  0.1795  0.0844 -0.3053
  742BOLB   C4D17808  19.642  26.826  24.052 -0.1101 -0.0826  0.1014
  743BOLB   NC117809  14.364  26.907  22.757 -0.1650 -0.0556 -0.0240
  743BOLB   PO117810  14.281  26.495  22.637  0.0249 -0.2664 -0.0559
  743BOLB   GL117811  14.254  26.339  23.046 -0.0868  0.1369  0.2508
  743BOLB   GL217812  14.543  26.105  23.064  0.1261  0.1568 -0.4682
  743BOLB   C1A17813  14.040  26.303  23.359 -0.0875  0.3819 -0.1401
  743BOLB   C2A17814  13.799  26.306  23.714 -0.2223  0.2396  0.0081
  743BOLB   C3A17815  13.785  26.357  24.162 -0.0586  0.3368  0.0565
  743BOLB   C4A17816  13.850  26.362  24.630 -0.0587  0.0110  0.2417
  743BOLB   C1B17817  14.403  25.934  23.502 -0.5423 -0.0565 -0.0340
  743BOLB   C2B17818  14.302  25.872  23.882  0.2115 -0.0522 -0.1935
  743BOLB   C3B17819  14.054  25.909  24.329  0.2595  0.1810  0.1655
  743BOLB   C4B17820  13.860  25.840  24.741  0.0048  0.0065  0.1288
  743BOLB   NC217821  13.538  27.095  26.933 -0.2142 -0.0391  0.1085
  743BOLB   PO217822  13.281  27.199  26.537  0.1631  0.0233 -0.0757
  743BOLB   GL317823  13.436  26.916  26.261 -0.0919 -0.1395 -0.0474
  743BOLB   GL417824  13.207  26.784  26.031 -0.0154  0.2836  0.1692
  743BOLB   C1C17825  13.638  26.551  26.060  0.3559 -0.0824 -0.3118
  743BOLB   C2C17826  13.887  26.318  25.721  0.1738 -0.1259  0.0963
  743BOLB   C3C17827  13.983  26.129  25.324  0.4134  0.0105  0.1045
  743BOLB   C4C17828  14.010  26.238  24.975  0.0128 -0.2579  0.1119
  743BOLB   C1D17829  13.240  26.572  25.587 -0.2714  0.0918  0.3474
  743BOLB   C2D17830  13.112  26.063  25.326  0.3762 -0.1033 -0.1815
  743BOLB   C3D17831  12.940  25.653  25.397  0.0357 -0.0528  0.3067
  743BOLB   C4D17832  12.865  25.246  25.502 -0.2132  0.0660  0.0382
  744BOLB   NC117833  20.647  28.078  19.361  0.0865 -0.1748  0.1721
  744BOLB   PO117834  20.417  28.128  19.769 -0.0730 -0.1305 -0.1045
  744BOLB   GL117835  20.724  27.811  19.844  0.0821 -0.0835 -0.0116
  744BOLB   GL217836  20.924  27.641  20.136 -0.0673 -0.0159  0.2285
  744BOLB   C1A17837  21.083  27.616  19.662  0.2104  0.0217 -0.2930
  744BOLB   C2A17838  21.332  27.274  19.792  0.1242 -0.2807 -0.1849
  744BOLB   C3A17839  21.330  26.975  20.154  0.0950  0.2926  0.0545
  744BOLB   C4A17840  21.467  26.852  20.588  0.3065  0.2137  0.0334
  744BOLB   C1B17841  20.883  27.237  20.380 -0.2315  0.0627 -0.2928
  744BOLB   C2B17842  20.878  27.059  20.810  0.3227 -0.1123 -0.1175
  744BOLB   C3B17843  21.042  26.847  21.006  0.1899 -0.0165 -0.0874
  744BOLB   C4B17844  21.373  26.523  21.078 -0.0214  0.1310  0.3791
  744BOLB   NC217845  22.865  28.072  22.458  0.1609  0.2390 -0.0545
  744BOLB   PO217846  22.463  27.996  22.498 -0.2534  0.4479 -0.1281
  744BOLB   GL317847  22.099  27.868  22.257  0.0684 -0.0404 -0.5762
  744BOLB   GL417848  21.789  27.812  22.502  0.2100 -0.0226 -0.1379
  744BOLB   C1C17849  22.000  27.667  21.913 -0.1516 -0.5617 -0.3262
  744BOLB   C2C17850  21.859  27.503  21.593  0.0862  0.1329 -0.1213
  744BOLB   C3C17851  21.737  27.203  21.238 -0.1083  0.0087 -0.3426
  744BOLB   C4C17852  21.612  26.933  20.991 -0.0143  0.1523  0.2038
  744BOLB   C1D17853  21.894  27.347  22.286  0.3264  0.0565  0.1654
  744BOLB   C2D17854  21.938  26.876  22.151  0.0018 -0.0804 -0.1139
  744BOLB   C3D17855  21.859  26.489  22.310  0.3234 -0.2430 -0.0057
  744BOLB   C4D17856  21.640  26.553  22.754 -0.2092  0.2460 -0.0922
  745BOLB   NC117857  17.396  25.813  22.200 -0.0969  0.0212 -0.3813
  745BOLB   PO117858  17.454  25.912  22.661  0.0478 -0.0893 -0.0049
  745BOLB   GL117859  17.228  25.759  23.011 -0.0481  0.0839 -0.0214
  745BOLB   GL217860  17.311  25.501  23.072 -0.1266  0.2492  0.1884
  745BOLB   C1A17861  17.279  25.847  23.482 -0.3474 -0.2183  0.1504
  745BOLB   C2A17862  17.035  25.761  23.860 -0.1785  0.3753  0.0387
  745BOLB   C3A17863  17.085  25.620  24.315  0.1514  0.1760 -0.1598
  745BOLB   C4A17864  17.215  25.715  24.842 -0.0760  0.1222  0.1851
  745BOLB   C1B17865  17.709  25.491  23.123 -0.1080 -0.6171 -0.0223
  745BOLB   C2B17866  18.067  25.615  23.329 -0.0950 -0.2795 -0.0224
  745BOLB   C3B17867  18.220  26.022  23.457 -0.0700 -0.2535 -0.0207
  745BOLB   C4B17868  18.420  26.278  23.667  0.0269  0.0860  0.0455
  745BOLB   NC217869  17.844  26.746  27.026 -0.4243 -0.0543  0.4245
  745BOLB   PO217870  17.987  26.615  26.572 -0.1592  0.0099 -0.1572
  745BOLB   GL317871  17.991  26.259  26.313  0.0637  0.0221  0.0560
  745BOLB   GL417872  17.984  25.958  26.570  0.1029  0.2153  0.1337
  745BOLB   C1C17873  17.991  26.109  25.934 -0.0563 -0.0058  0.0760
  745BOLB   C2C17874  18.038  25.862  25.631  0.0701  0.2207  0.1795
  745BOLB   C3C17875  17.851  25.710  25.289 -0.1739 -0.3558 -0.0978
  745BOLB   C4C17876  17.421  25.678  25.118 -0.1053  0.1848 -0.4112
  745BOLB   C1D17877  18.134  25.764  26.244 -0.1614 -0.2656 -0.1124
  745BOLB   C2D17878  18.394  25.587  25.838  0.1129  0.1349  0.2208
  745BOLB   C3D17879  18.660  25.408  25.520  0.2399 -0.0757 -0.2036
  745BOLB   C4D17880  18.991  25.472  25.667  0.4169 -0.0987 -0.4415
  746BOLB   NC117881  12.665  24.258  23.330 -0.1895  0.1587 -0.3395
  746BOLB   PO117882  12.563  24.739  23.283 -0.2523  0.1508  0.2202
  746BOLB   GL117883  12.300  24.936  23.593 -0.1706  0.3387  0.1317
  746BOLB   GL217884  12.327  25.127  23.799  0.2385  0.2608  0.0384
  746BOLB   C1A17885  11.864  24.750  23.722  0.1189  0.0143  0.0979
  746BOLB   C2A17886  11.462  24.824  23.917 -0.1402  0.3345  0.2401
  746BOLB   C3A17887  11.426  25.030  24.310 -0.1005  0.0819 -0.0432
  746BOLB   C4A17888  11.260  25.230  24.521  0.0511  0.2336  0.1688
  746BOLB   C1B17889  12.003  25.079  24.065  0.0503 -0.1098 -0.0761
  746BOLB   C2B17890  11.865  25.127  24.494  0.1183  0.0615  0.2626
  746BOLB   C3B17891  11.619  25.056  24.813  0.1009 -0.2045  0.0516
  746BOLB   C4B17892  11.312  25.185  24.987 -0.2505  0.0837 -0.3828
  746BOLB   NC217893  10.105  27.065  25.859  0.2135 -0.1418 -0.3249
  746BOLB   PO217894  10.142  26.611  26.103 -0.0162 -0.3921  0.1360
  746BOLB   GL317895  10.348  26.232  26.038 -0.2923 -0.1031 -0.0487
  746BOLB   GL417896  10.186  26.181  25.752 -0.2080 -0.0917 -0.2389
  746BOLB   C1C17897  10.579  25.938  25.775 -0.1417 -0.1887 -0.1106
  746BOLB   C2C17898  10.857  25.725  25.559  0.0820 -0.2192 -0.2334
  746BOLB   C3C17899  11.072  25.631  25.230  0.0743 -0.0235 -0.1156
  746BOLB   C4C17900  11.079  25.590  24.834  0.0149  0.0622 -0.3238
  746BOLB   C1D17901  10.037  26.153  25.446  0.2358 -0.1649 -0.1110
  746BOLB   C2D17902  10.274  26.138  25.107  0.0551  0.0733  0.3453
  746BOLB   C3D17903  10.629  26.033  24.820 -0.1445  0.0002  0.0097
  746BOLB   C4D17904  10.888  26.284  24.573  0.2215  0.2533  0.0697
  747BOLB   NC117905  16.374  25.868  22.927  0.0960  0.1562  0.0735
  747BOLB   PO117906  16.756  25.620  22.896 -0.0362 -0.1053  0.0369
  747BOLB   GL117907  16.783  25.642  23.253  0.3184  0.1323  0.0702
  747BOLB   GL217908  16.577  25.313  23.290 -0.3111  0.1789  0.3533
  747BOLB   C1A17909  16.593  25.776  23.655 -0.1580  0.2279 -0.0528
  747BOLB   C2A17910  16.641  25.863  24.181 -0.1228  0.3105 -0.1366
  747BOLB   C3A17911  16.736  25.867  24.580 -0.0159 -0.1538  0.0189
  747BOLB   C4A17912  16.507  25.753  24.978  0.3380 -0.2993 -0.0247
  747BOLB   C1B17913  16.904  25.348  23.621  0.1862  0.0950  0.0279
  747BOLB   C2B17914  16.725  25.424  23.996 -0.2801 -0.0728 -0.1853
  747BOLB   C3B17915  16.616  25.330  24.379  0.3394 -0.0491 -0.0494
  747BOLB   C4B17916  16.756  25.399  24.812 -0.1686 -0.2471 -0.0365
  747BOLB   NC217917  17.275  24.855  27.229 -0.2438 -0.0846 -0.1057
  747BOLB   PO217918  16.930  25.037  27.267 -0.1311  0.0675 -0.2055
  747BOLB   GL317919  17.006  24.979  26.814 -0.0857 -0.1406  0.2331
  747BOLB   GL417920  17.341  24.839  26.696 -0.1834  0.0404  0.1806
  747BOLB   C1C17921  16.915  24.892  26.396  0.1701  0.3429  0.2030
  747BOLB   C2C17922  16.652  24.952  26.111 -0.3609 -0.1976 -0.2016
  747BOLB   C3C17923  16.596  25.147  25.713  0.0907  0.1788  0.0177
  747BOLB   C4C17924  16.437  25.471  25.323 -0.2286 -0.1927  0.2518
  747BOLB   C1D17925  17.021  24.481  26.664  0.1832  0.1792 -0.3494
  747BOLB   C2D17926  16.869  24.258  26.232  0.2058 -0.1558  0.0525
  747BOLB   C3D17927  16.957  24.110  25.818 -0.0426 -0.0307 -0.0177
  747BOLB   C4D17928  16.813  23.698  25.607  0.0330  0.1357  0.1278
  748BOLB   NC117929  11.407  27.753  21.269  0.0349 -0.3291  0.2646
  748BOLB   PO117930  11.510  27.889  20.811  0.1298  0.2757  0.0237
  748BOLB   GL117931  11.586  27.433  20.930 -0.2043 -0.0768 -0.0913
  748BOLB   GL217932  11.498  27.255  21.191  0.2829  0.1798 -0.0135
  748BOLB   C1A17933  11.664  26.953  20.758  0.1868 -0.1837  0.0449
  748BOLB   C2A17934  11.608  26.585  20.491  0.0471  0.0864 -0.0650
  748BOLB   C3A17935  11.274  26.417  20.234  0.1087 -0.4476 -0.0551
  748BOLB   C4A17936  10.888  26.384  20.384  0.2995  0.0521  0.0819
  748BOLB   C1B17937  11.342  26.879  21.078  0.0944  0.6549  0.0372
  748BOLB   C2B17938  11.055  26.562  21.231 -0.1403 -0.3655  0.3242
  748BOLB   C3B17939  11.250  26.115  21.195 -0.1128  0.0451 -0.1345
  748BOLB   C4B17940  11.665  25.902  21.075  0.2574 -0.2257 -0.1091
  748BOLB   NC217941   9.628  28.353  22.190 -0.0578 -0.0589  0.3144
  748BOLB   PO217942   9.867  27.901  22.043 -0.1993 -0.1576  0.4201
  748BOLB   GL317943   9.847  27.506  21.742  0.0248 -0.0386  0.1020
  748BOLB   GL417944   9.638  27.199  21.757  0.1898 -0.0002  0.0181
  748BOLB   C1C17945  10.097  27.249  21.489 -0.2022  0.0803 -0.1100
  748BOLB   C2C17946  10.317  27.114  21.129 -0.1900  0.1409 -0.2299
  748BOLB   C3C17947  10.399  27.104  20.692 -0.0635  0.4259 -0.0087
  748BOLB   C4C17948  10.591  26.691  20.505 -0.2021 -0.2042 -0.0289
  748BOLB   C1D17949   9.924  26.834  21.756  0.2643 -0.2551  0.2356
  748BOLB   C2D17950  10.143  26.420  21.494 -0.2599  0.0800 -0.3128
  748BOLB   C3D17951  10.427  25.988  21.669 -0.2811  0.1839  0.4013
  748BOLB   C4D17952  10.646  25.727  21.916 -0.2903 -0.1816  0.3914
  749BOLB   NC117953  15.603  27.872  23.563  0.1643  0.3180 -0.3119
  749BOLB   PO117954  15.728  27.508  23.392  0.0293  0.0878 -0.2816
  749BOLB   GL117955  15.894  27.070  23.428  0.2645 -0.0031 -0.4435
  749BOLB   GL217956  15.862  27.049  23.718 -0.0008 -0.1205  0.2747
  749BOLB   C1A17957  16.148  26.625  23.642 -0.0036  0.1345  0.0424
  749BOLB   C2A17958  16.281  26.312  23.978  0.2786  0.0022  0.1836
  749BOLB   C3A17959  16.491  26.321  24.267  0.1162  0.3343 -0.3029
  749BOLB   C4A17960  16.688  26.329  24.657  0.0010 -0.2791 -0.0231
  749BOLB   C1B17961  15.739  26.971  24.196  0.0753  0.3005 -0.1193
  749BOLB   C2B17962  15.594  26.919  24.651  0.0033  0.3957 -0.2753
  749BOLB   C3B17963  15.492  27.092  25.086  0.0820 -0.1117 -0.0370
  749BOLB   C4B17964  15.790  27.340  25.334 -0.1578  0.0027 -0.1279
  749BOLB   NC217965  17.576  27.706  26.919  0.1919 -0.2644  0.0089
  749BOLB   PO217966  17.321  27.449  26.819  0.2644  0.0025 -0.4472
  749BOLB   GL317967  17.347  27.392  26.343  0.0341 -0.0347 -0.0553
  749BOLB   GL417968  17.315  27.531  26.103 -0.1772 -0.1347  0.0234
  749BOLB   C1C17969  17.345  27.094  25.974 -0.0025  0.2445  0.2300
  749BOLB   C2C17970  17.388  26.840  25.635  0.0754 -0.2235 -0.1343
  749BOLB   C3C17971  17.279  26.535  25.308 -0.4538 -0.0132 -0.0207
  749BOLB   C4C17972  17.146  26.280  24.955 -0.4333  0.1072 -0.2501
  749BOLB   C1D17973  17.356  27.484  25.672 -0.0767 -0.0485 -0.0529
  749BOLB   C2D17974  17.403  27.578  25.214 -0.0965  0.0841  0.0786
  749BOLB   C3D17975  17.544  27.631  24.787 -0.1283  0.0185 -0.2711
  749BOLB   C4D17976  17.678  28.060  24.588  0.0591 -0.2058  0.0210
  750BOLB   NC117977  21.026  28.513  22.738 -0.0201  0.1630  0.1039
  750BOLB   PO117978  21.451  28.483  23.084  0.3776 -0.0188 -0.0980
  750BOLB   GL117979  21.298  28.158  22.905  0.3326  0.2626  0.0967
  750BOLB   GL217980  21.201  28.010  23.172 -0.0213  0.1055 -0.2045
  750BOLB   C1A17981  21.332  27.736  22.715  0.1788 -0.0711 -0.1530
  750BOLB   C2A17982  21.292  27.420  23.029  0.1186  0.1989  0.1124
  750BOLB   C3A17983  20.985  27.181  23.202  0.0756  0.1774  0.0344
  750BOLB   C4A17984  20.686  26.862  23.309 -0.2776  0.0288  0.1544
  750BOLB   C1B17985  20.861  27.787  23.312 -0.0039 -0.3475  0.1612
  750BOLB   C2B17986  20.738  27.586  23.026 -0.0501  0.0551  0.0698
  750BOLB   C3B17987  20.333  27.561  22.831  0.2183  0.5418  0.3052
  750BOLB   C4B17988  20.219  27.646  22.383  0.0452  0.4350 -0.1919
  750BOLB   NC217989  19.871  28.730  23.876  0.1526 -0.0965 -0.0978
  750BOLB   PO217990  20.025  28.489  23.550  0.0793  0.0360  0.2956
  750BOLB   GL317991  19.993  28.040  23.500  0.0986 -0.1008 -0.0979
  750BOLB   GL417992  19.834  27.973  23.194  0.0231 -0.1159 -0.2321
  750BOLB   C1C17993  19.779  27.811  23.761  0.2334  0.1587 -0.0984
  750BOLB   C2C17994  19.770  27.275  23.654  0.2083  0.1789 -0.0266
  750BOLB   C3C17995  19.878  26.830  23.607 -0.0923  0.1760  0.0231
  750BOLB   C4C17996  20.316  26.740  23.496 -0.0770 -0.0039  0.2609
  750BOLB   C1D17997  19.852  27.747  22.880  0.2387  0.1432 -0.2977
  750BOLB   C2D17998  19.975  27.347  23.070 -0.0667  0.0118  0.2759
  750BOLB   C3D17999  20.425  27.306  23.285 -0.1584  0.0713 -0.0232
  750BOLB   C4D18000  20.813  27.410  23.591 -0.0219 -0.2960  0.2112
  751BOLB   NC118001  20.259  23.887  19.908 -0.2021 -0.2856 -0.0659
  751BOLB   PO118002  20.759  23.945  19.875 -0.2474  0.2599  0.1259
  751BOLB   GL118003  20.909  24.272  19.774 -0.0729 -0.0169 -0.0898
  751BOLB   GL218004  21.220  24.173  19.888 -0.2767 -0.0012  0.0842
  751BOLB   C1A18005  21.004  24.628  19.529  0.3014  0.0796 -0.2500
  751BOLB   C2A18006  21.208  24.860  19.277  0.0870  0.0415 -0.2328
  751BOLB   C3A18007  21.588  25.018  19.397  0.2549 -0.2616 -0.1027
  751BOLB   C4A18008  21.996  25.291  19.456  0.0258  0.1092 -0.0348
  751BOLB   C1B18009  21.503  24.378  19.718 -0.0067  0.0413 -0.1315
  751BOLB   C2B18010  21.866  24.583  19.466 -0.2446 -0.1766 -0.0515
  751BOLB   C3B18011  22.198  24.808  19.438  0.0136  0.2947 -0.0118
  751BOLB   C4B18012  22.379  25.098  19.168  0.2231  0.0242 -0.4925
  751BOLB   NC218013  23.479  27.056  19.033  0.2307  0.0669  0.2786
  751BOLB   PO218014  23.812  26.894  19.117 -0.2172 -0.4574 -0.0454
  751BOLB   GL318015  23.625  26.412  19.203 -0.0479  0.2087  0.0187
  751BOLB   GL418016  23.813  26.299  18.969  0.1400  0.2318  0.2545
  751BOLB   C1C18017  23.303  26.204  19.386 -0.0084  0.2682  0.0258
  751BOLB   C2C18018  23.214  25.732  19.460 -0.1667  0.3007 -0.1928
  751BOLB   C3C18019  22.759  25.573  19.560  0.1149 -0.1720  0.2662
  751BOLB   C4C18020  22.323  25.576  19.393 -0.1726  0.0012  0.0941
  751BOLB   C1D18021  23.499  26.152  18.593  0.2176 -0.0098  0.0145
  751BOLB   C2D18022  23.155  25.953  18.413  0.5065  0.1889  0.0977
  751BOLB   C3D18023  22.716  25.888  18.542  0.0373  0.0815 -0.1453
  751BOLB   C4D18024  22.328  25.912  18.426 -0.0998  0.0546 -0.1995
  752BOLB   NC118025  14.020  25.962  22.788  0.2397 -0.3848 -0.0153
  752BOLB   PO118026  13.568  25.804  22.658  0.1536 -0.4325 -0.1688
  752BOLB   GL118027  13.480  25.799  23.023  0.1396  0.1906  0.2883
  752BOLB   GL218028  13.836  25.879  23.252  0.0595 -0.1755 -0.2446
  752BOLB   C1A18029  13.278  25.856  23.443  0.1422 -0.1128  0.0510
  752BOLB   C2A18030  13.134  25.792  23.820  0.1900  0.0535  0.0541
  752BOLB   C3A18031  12.774  25.897  24.038  0.2441  0.0415  0.2282
  752BOLB   C4A18032  12.655  25.792  24.419 -0.0950 -0.0914  0.0054
  752BOLB   C1B18033  13.795  25.766  23.657  0.3237 -0.1959 -0.0883
  752BOLB   C2B18034  13.562  25.914  24.049  0.0151 -0.1767  0.1671
  752BOLB   C3B18035  13.507  26.059  24.457 -0.0373 -0.1512 -0.1015
  752BOLB   C4B18036  13.528  25.979  25.050  0.3559  0.0128 -0.1470
  752BOLB   NC218037  11.113  26.740  26.785 -0.4773  0.3701 -0.2713
  752BOLB   PO218038  11.193  26.839  26.317  0.2778  0.1470  0.5006
  752BOLB   GL318039  11.366  26.429  25.960  0.0076  0.0167  0.4333
  752BOLB   GL418040  11.341  26.493  25.639  0.3423  0.0354 -0.1053
  752BOLB   C1C18041  11.736  26.235  25.680  0.0518 -0.2911 -0.1454
  752BOLB   C2C18042  12.115  25.966  25.466 -0.0362 -0.3770 -0.1809
  752BOLB   C3C18043  12.061  25.919  24.982  0.0511 -0.0253 -0.1922
  752BOLB   C4C18044  12.285  25.795  24.667 -0.0199 -0.3522  0.0727
  752BOLB   C1D18045  11.306  25.966  25.537  0.1861  0.0968  0.1231
  752BOLB   C2D18046  11.544  25.614  25.472 -0.0751 -0.2528  0.1819
  752BOLB   C3D18047  11.839  25.491  25.214  0.0188  0.1035  0.2413
  752BOLB   C4D18048  12.152  25.301  24.890  0.1404  0.2129 -0.1696
  753BOLB   NC118049  13.764  27.614  22.848 -0.0511 -0.0039  0.0306
  753BOLB   PO118050  13.911  27.233  22.728  0.1368 -0.2670 -0.0356
  753BOLB   GL118051  13.573  27.143  23.151 -0.0087  0.2104  0.0487
  753BOLB   GL218052  13.272  27.172  23.094 -0.1316 -0.1011 -0.0797
  753BOLB   C1A18053  13.600  27.041  23.589  0.0148 -0.0047  0.0086
  753BOLB   C2A18054  13.630  26.808  23.994  0.1991 -0.0746  0.0846
  753BOLB   C3A18055  13.903  26.911  24.444 -0.1727 -0.1513 -0.0349
  753BOLB   C4A18056  13.813  26.920  24.887  0.2219  0.0495 -0.0347
  753BOLB   C1B18057  13.110  27.001  23.455  0.0867 -0.0537  0.2680
  753BOLB   C2B18058  12.722  26.732  23.475 -0.3322 -0.1933  0.1427
  753BOLB   C3B18059  12.444  26.360  23.198 -0.1202 -0.2461 -0.1698
  753BOLB   C4B18060  12.263  25.958  23.223  0.2573  0.1465 -0.0296
  753BOLB   NC218061  14.462  27.886  27.274  0.0392 -0.3204 -0.0038
  753BOLB   PO218062  14.348  27.588  27.057  0.0987 -0.0922  0.4134
  753BOLB   GL318063  14.303  27.269  26.670 -0.2433  0.3285 -0.3228
  753BOLB   GL418064  14.520  26.964  26.659  0.1413  0.1535  0.1466
  753BOLB   C1C18065  14.218  27.181  26.197  0.0870 -0.0639 -0.1371
  753BOLB   C2C18066  13.828  27.152  26.009  0.0115  0.3546  0.2910
  753BOLB   C3C18067  13.735  26.808  25.629  0.0602  0.3975 -0.2601
  753BOLB   C4C18068  14.027  26.676  25.314  0.3514  0.2585 -0.1066
  753BOLB   C1D18069  14.359  26.611  26.472 -0.3795 -0.1009  0.1658
  753BOLB   C2D18070  14.413  26.211  26.117 -0.0472 -0.2978  0.0492
  753BOLB   C3D18071  14.288  25.936  25.752  0.0936  0.2974 -0.0162
  753BOLB   C4D18072  13.904  25.759  25.743  0.0777 -0.1955 -0.2603
  754BOLB   NC118073  18.216  27.579  19.511  0.0466 -0.0006  0.0665
  754BOLB   PO118074  17.770  27.621  19.447  0.1783 -0.0855 -0.3084
  754BOLB   GL118075  18.018  27.396  19.091  0.2304 -0.2284  0.3735
  754BOLB   GL218076  18.280  27.412  19.054  0.0089 -0.3358 -0.0340
  754BOLB   C1A18077  18.019  27.033  18.827 -0.1562 -0.1472 -0.1180
  754BOLB   C2A18078  18.197  26.560  18.997  0.0323 -0.0422 -0.2517
  754BOLB   C3A18079  18.496  26.270  19.087 -0.1286 -0.2614  0.1437
  754BOLB   C4A18080  18.721  26.021  18.881  0.1106  0.3104 -0.0637
  754BOLB   C1B18081  18.414  27.036  19.129  0.0650  0.0713 -0.0710
  754BOLB   C2B18082  18.747  26.753  19.079  0.1581  0.0801  0.1880
  754BOLB   C3B18083  19.124  26.986  18.939  0.2985  0.1435  0.3650
  754BOLB   C4B18084  19.594  26.909  18.997 -0.1675 -0.0963  0.1756
  754BOLB   NC218085  20.212  27.606  17.931 -0.3450  0.0026  0.2707
  754BOLB   PO218086  20.047  27.892  18.291 -0.1506  0.0638  0.1373
  754BOLB   GL318087  19.934  27.449  18.355  0.0400  0.1262 -0.2659
  754BOLB   GL418088  20.148  27.164  18.142 -0.3487  0.1674  0.5213
  754BOLB   C1C18089  19.816  26.975  18.418 -0.1381  0.2304  0.0115
  754BOLB   C2C18090  19.647  26.673  18.286 -0.0358  0.2604  0.1317
  754BOLB   C3C18091  19.493  26.258  18.219  0.2208 -0.3645  0.1009
  754BOLB   C4C18092  19.110  26.041  18.538  0.1048 -0.1444 -0.0112
  754BOLB   C1D18093  19.900  26.809  17.885  0.4064 -0.3077  0.1375
  754BOLB   C2D18094  19.828  26.391  17.919  0.5059  0.0122 -0.2818
  754BOLB   C3D18095  19.752  26.031  17.639  0.3447 -0.2448 -0.2242
  754BOLB   C4D18096  20.007  25.612  17.585 -0.1072  0.2246 -0.0948
  755BOLB   NC118097  14.139  28.219  24.358 -0.2941 -0.3264 -0.2187
  755BOLB   PO118098  13.763  27.997  24.293  0.0943 -0.1515 -0.0894
  755BOLB   GL118099  13.965  27.658  24.425 -0.5873  0.0669 -0.1579
  755BOLB   GL218100  14.315  27.722  24.477  0.0581  0.1725 -0.0091
  755BOLB   C1A18101  14.096  27.356  24.773  0.3227  0.2523 -0.0398
  755BOLB   C2A18102  14.227  27.115  25.177 -0.1153  0.2362  0.0175
  755BOLB   C3A18103  14.334  27.076  25.507 -0.1067 -0.0704  0.0762
  755BOLB   C4A18104  14.615  26.984  25.839  0.1200  0.2694  0.0139
  755BOLB   C1B18105  14.588  27.515  24.382  0.2221  0.0655 -0.0460
  755BOLB   C2B18106  15.044  27.551  24.435 -0.1042  0.1300 -0.1082
  755BOLB   C3B18107  15.196  27.441  24.828 -0.1491  0.1331 -0.2177
  755BOLB   C4B18108  15.136  27.546  25.334  0.0554 -0.1671  0.1953
  755BOLB   NC218109  16.789  28.186  25.934 -0.1769 -0.0833  0.0815
  755BOLB   PO218110  16.693  28.269  25.486  0.1312  0.3647 -0.0345
  755BOLB   GL318111  16.281  28.045  25.380  0.1184 -0.1344  0.0568
  755BOLB   GL418112  16.295  28.031  25.067 -0.1734  0.1683  0.0455
  755BOLB   C1C18113  16.070  27.748  25.523 -0.2093 -0.2474  0.1327
  755BOLB   C2C18114  15.589  27.698  25.574 -0.3258  0.1669 -0.2059
  755BOLB   C3C18115  15.160  27.372  25.827  0.1679  0.0925 -0.2350
  755BOLB   C4C18116  14.839  27.318  26.102  0.1762  0.3457  0.2593
  755BOLB   C1D18117  16.491  27.879  24.705 -0.0164 -0.1682 -0.0647
  755BOLB   C2D18118  16.715  27.523  24.542 -0.0979 -0.1632  0.3234
  755BOLB   C3D18119  16.552  27.250  24.268 -0.0846 -0.0584  0.1304
  755BOLB   C4D18120  16.610  26.821  23.901 -0.1786 -0.1031 -0.3553
  756BOLB   NC118121  18.696  27.087  22.039  0.2347  0.4181  0.0338
  756BOLB   PO118122  18.603  26.808  21.761 -0.0122  0.0651 -0.1070
  756BOLB   GL118123  19.001  26.632  21.817  0.0854 -0.3184  0.0414
  756BOLB   GL218124  19.260  26.425  21.600 -0.0904  0.2133 -0.1094
  756BOLB   C1A18125  19.267  26.559  22.190 -0.2098  0.1875  0.1555
  756BOLB   C2A18126  19.387  26.452  22.614 -0.0341 -0.1946 -0.0486
  756BOLB   C3A18127  19.367  26.502  22.953 -0.0609 -0.2524 -0.1630
  756BOLB   C4A18128  19.744  26.527  23.244 -0.0288  0.1897 -0.1188
  756BOLB   C1B18129  19.704  26.403  21.577 -0.0062 -0.0513 -0.1380
  756BOLB   C2B18130  20.025  26.180  21.540 -0.1771 -0.1302  0.5331
  756BOLB   C3B18131  20.332  25.847  21.634  0.1226 -0.0842  0.1227
  756BOLB   C4B18132  20.553  25.734  21.936  0.0153  0.0785  0.4192
  756BOLB   NC218133  20.495  25.573  25.899  0.2976  0.2599  0.3725
  756BOLB   PO218134  20.428  26.032  25.606  0.1797 -0.3263 -0.1048
  756BOLB   GL318135  20.369  26.021  25.047  0.0648 -0.1336  0.0323
  756BOLB   GL418136  20.142  25.714  25.011 -0.0350 -0.2257  0.2009
  756BOLB   C1C18137  20.495  25.787  24.647  0.2035 -0.2229 -0.1759
  756BOLB   C2C18138  20.434  25.788  24.196 -0.0468  0.1032  0.1573
  756BOLB   C3C18139  20.217  26.031  23.880 -0.1058  0.1940 -0.2158
  756BOLB   C4C18140  20.043  26.320  23.465 -0.0833 -0.1623 -0.3490
  756BOLB   C1D18141  19.860  25.609  24.715  0.2062  0.4929  0.0759
  756BOLB   C2D18142  19.409  25.463  24.470  0.3427 -0.1100  0.2465
  756BOLB   C3D18143  19.033  25.365  24.385  0.0561 -0.0659 -0.2847
  756BOLB   C4D18144  18.670  25.393  24.215 -0.0441  0.1172 -0.1247
  757BOLB   NC118145  19.972  27.939  19.817  0.2444  0.1546  0.1579
  757BOLB   PO118146  19.556  27.670  19.971  0.2049 -0.0952 -0.3852
  757BOLB   GL118147  19.971  27.476  20.128 -0.1709  0.0770  0.0509
  757BOLB   GL218148  20.075  27.257  20.050  0.3509 -0.0312  0.0661
  757BOLB   C1A18149  20.396  27.460  20.411  0.0362 -0.1108 -0.0176
  757BOLB   C2A18150  20.464  27.399  20.817  0.3397  0.5925  0.1875
  757BOLB   C3A18151  20.546  27.310  21.226  0.0504 -0.1691 -0.1470
  757BOLB   C4A18152  20.797  27.032  21.432 -0.0228  0.0604 -0.0207
  757BOLB   C1B18153  20.576  27.242  19.921 -0.3137 -0.0103 -0.2507
  757BOLB   C2B18154  20.822  27.209  19.643  0.1206  0.1075  0.3469
  757BOLB   C3B18155  20.718  27.359  19.383 -0.0786 -0.0561 -0.1479
  757BOLB   C4B18156  20.692  27.559  18.943  0.0725 -0.0792 -0.2781
  757BOLB   NC218157  23.302  27.323  22.567 -0.4134  0.0787  0.2340
  757BOLB   PO218158  23.216  27.067  22.208 -0.2557 -0.0192  0.0704
  757BOLB   GL318159  22.697  27.056  22.176  0.2309 -0.0653 -0.1144
  757BOLB   GL418160  22.448  26.968  22.346 -0.0463  0.2811  0.1642
  757BOLB   C1C18161  22.323  27.091  21.854  0.3002 -0.0904 -0.1086
  757BOLB   C2C18162  21.870  26.981  21.688  0.1727  0.2227 -0.0850
  757BOLB   C3C18163  21.513  26.757  21.489  0.1526  0.1907 -0.0790
  757BOLB   C4C18164  21.129  26.629  21.489 -0.0206 -0.0649 -0.3559
  757BOLB   C1D18165  22.454  26.586  22.159 -0.1661 -0.2951 -0.0438
  757BOLB   C2D18166  22.799  26.464  21.963 -0.0234  0.0730  0.2807
  757BOLB   C3D18167  22.776  26.318  21.648  0.2078  0.4357 -0.2374
  757BOLB   C4D18168  22.450  26.191  21.444 -0.1189  0.1862  0.1884
  758BOLB   NC118169  15.285  26.534  22.947  0.1039 -0.5176  0.1106
  758BOLB   PO118170  15.200  26.918  23.056  0.0072  0.3266 -0.3192
  758BOLB   GL118171  14.911  27.021  23.375  0.1113 -0.1386  0.0269
  758BOLB   GL218172  14.925  26.687  23.434 -0.1049 -0.0328 -0.1223
  758BOLB   C1A18173  14.598  26.959  23.782  0.1684 -0.2046  0.0989
  758BOLB   C2A18174  14.281  26.664  23.984 -0.0188  0.2068 -0.3518
  758BOLB   C3A18175  14.305  26.556  24.473 -0.3060  0.2337  0.2647
  758BOLB   C4A18176  14.293  26.647  24.863  0.2078  0.2407 -0.1266
  758BOLB   C1B18177  14.467  26.574  23.453 -0.2678  0.1205  0.0254
  758BOLB   C2B18178  14.095  26.818  23.600  0.1814  0.2207  0.0248
  758BOLB   C3B18179  14.040  27.075  23.866  0.0911  0.0672 -0.0452
  758BOLB   C4B18180  14.181  27.338  24.178 -0.0160  0.1661  0.0087
  758BOLB   NC218181  15.594  28.278  26.372 -0.1025 -0.0149 -0.1712
  758BOLB   PO218182  15.319  27.780  26.350 -0.2188  0.0192 -0.1729
  758BOLB   GL318183  15.302  27.367  26.277  0.0981  0.0670 -0.1920
  758BOLB   GL418184  15.529  27.247  26.171 -0.0880 -0.0042  0.1403
  758BOLB   C1C18185  15.173  26.876  26.066  0.2491 -0.2472 -0.2777
  758BOLB   C2C18186  14.807  26.530  25.938  0.2098 -0.1678  0.0309
  758BOLB   C3C18187  14.848  26.524  25.525 -0.0407  0.1743 -0.2639
  758BOLB   C4C18188  14.610  26.744  25.231 -0.1737 -0.2890 -0.2188
  758BOLB   C1D18189  15.694  27.278  25.836  0.0219 -0.0100  0.0729
  758BOLB   C2D18190  15.530  26.989  25.621 -0.1442  0.0558 -0.2308
  758BOLB   C3D18191  15.328  26.605  25.371 -0.3222 -0.0624 -0.1837
  758BOLB   C4D18192  15.247  26.219  25.361  0.3980  0.4541 -0.0706
  759BOLB   NC118193  18.377  26.697  20.538  0.0105 -0.0173  0.2019
  759BOLB   PO118194  18.294  26.877  20.113 -0.0496  0.1278  0.1780
  759BOLB   GL118195  18.426  26.529  19.773 -0.1403  0.0701  0.0836
  759BOLB   GL218196  18.346  26.668  19.510 -0.1920  0.1513  0.1202
  759BOLB   C1A18197  18.787  26.407  19.519  0.1032 -0.0679 -0.2536
  759BOLB   C2A18198  19.011  26.303  19.170 -0.2327  0.0374 -0.0797
  759BOLB   C3A18199  19.271  25.983  19.014  0.0252  0.0792 -0.0286
  759BOLB   C4A18200  19.614  25.906  18.589 -0.0710  0.1130  0.2023
  759BOLB   C1B18201  17.920  26.560  19.364 -0.3571 -0.0108 -0.0432
  759BOLB   C2B18202  17.900  26.206  19.028  0.0218 -0.2235  0.1466
  759BOLB   C3B18203  18.168  26.055  18.727  0.2366 -0.0609  0.2467
  759BOLB   C4B18204  18.331  25.599  18.703 -0.3086  0.0361  0.0140
  759BOLB   NC218205  21.441  27.837  18.844  0.0161  0.0750 -0.1757
  759BOLB   PO218206  21.163  27.924  18.558 -0.1950  0.4918  0.0065
  759BOLB   GL318207  20.978  27.591  18.485  0.0518 -0.3179 -0.0178
  759BOLB   GL418208  21.129  27.377  18.770 -0.3060 -0.0751 -0.4377
  759BOLB   C1C18209  20.705  27.256  18.564 -0.0512  0.3220  0.2208
  759BOLB   C2C18210  20.391  26.886  18.506  0.5139 -0.0299  0.0215
  759BOLB   C3C18211  20.188  26.524  18.260  0.1516 -0.1791  0.2908
  759BOLB   C4C18212  19.973  26.101  18.369 -0.3962  0.2692  0.1190
  759BOLB   C1D18213  21.173  26.978  18.784 -0.0086 -0.2708  0.2503
  759BOLB   C2D18214  21.175  26.492  18.970 -0.1487  0.1975  0.2419
  759BOLB   C3D18215  21.097  26.152  18.807 -0.0777 -0.3164  0.0240
  759BOLB   C4D18216  21.127  25.660  18.855 -0.1889 -0.1563  0.1699
  760BOLB   NC118217  19.434  27.032  16.171  0.2875 -0.0881 -0.1470
  760BOLB   PO118218  19.345  27.435  16.228  0.1632  0.4924  0.0340
  760BOLB   GL118219  19.041  27.127  16.466  0.0585 -0.2234 -0.1484
  760BOLB   GL218220  18.726  26.937  16.369 -0.0950  0.2404  0.2666
  760BOLB   C1A18221  19.233  26.819  16.801  0.0928  0.2522  0.1456
  760BOLB   C2A18222  19.023  26.389  17.076  0.0515 -0.1803 -0.0757
  760BOLB   C3A18223  18.822  26.297  17.451  0.4332  0.0752  0.3964
  760BOLB   C4A18224  18.538  26.273  17.807 -0.1671  0.1806  0.4048
  760BOLB   C1B18225  18.711  26.656  16.791  0.1987 -0.0209  0.1214
  760BOLB   C2B18226  18.548  26.277  16.896  0.0800  0.1040 -0.3310
  760BOLB   C3B18227  18.335  26.151  17.311  0.3727  0.0023 -0.0114
  760BOLB   C4B18228  18.264  25.719  17.487 -0.0446 -0.0304 -0.0058
  760BOLB   NC218229  17.952  28.626  17.690 -0.1355  0.1385  0.0223
  760BOLB   PO218230  18.262  28.350  17.722 -0.0255 -0.0260 -0.5079
  760BOLB   GL318231  18.150  27.995  17.704 -0.3665 -0.2991 -0.0532
  760BOLB   GL418232  18.508  27.850  17.707  0.2443  0.0792  0.0057
  760BOLB   C1C18233  18.111  27.580  17.908 -0.1293  0.0564  0.0667
  760BOLB   C2C18234  17.972  27.103  17.911  0.1088  0.1229 -0.2028
  760BOLB   C3C18235  17.926  26.696  17.913 -0.0637 -0.2826  0.1728
  760BOLB   C4C18236  18.208  26.424  18.058  0.0554  0.0237 -0.3386
  760BOLB   C1D18237  18.727  27.446  17.858 -0.0303  0.3101 -0.2014
  760BOLB   C2D18238  18.511  27.034  18.036 -0.0520 -0.1550 -0.2385
  760BOLB   C3D18239  18.686  26.636  18.157 -0.1338 -0.0674 -0.1025
  760BOLB   C4D18240  19.014  26.394  18.141 -0.3539 -0.0353 -0.2198
  761BOLB   NC118241  12.232  28.138  22.574  0.1202 -0.1047 -0.3605
  761BOLB   PO118242  12.394  27.755  22.529 -0.0594  0.0573 -0.2701
  761BOLB   GL118243  12.023  27.705  22.330  0.0956  0.0837  0.1692
  761BOLB   GL218244  11.796  27.882  22.580 -0.2005  0.1810 -0.0965
  761BOLB   C1A18245  11.811  27.375  22.122  0.2255 -0.1077 -0.2888
  761BOLB   C2A18246  11.455  27.093  22.167  0.2367  0.1117 -0.0067
  761BOLB   C3A18247  11.079  26.981  22.174  0.3101 -0.0904 -0.0520
  761BOLB   C4A18248  10.826  26.971  22.550  0.1957  0.1923  0.3542
  761BOLB   C1B18249  11.650  27.611  22.726  0.1659 -0.1431 -0.0117
  761BOLB   C2B18250  11.741  27.191  22.691  0.0963 -0.1025  0.0316
  761BOLB   C3B18251  11.826  26.812  22.409 -0.1994  0.1506  0.2191
  761BOLB   C4B18252  12.194  26.601  22.174  0.0509  0.1425  0.0526
  761BOLB   NC218253  10.345  27.598  21.980  0.1199 -0.0060  0.0045
  761BOLB   PO218254  10.770  27.603  21.800  0.1194 -0.0374  0.1797
  761BOLB   GL318255  10.790  27.218  21.821  0.0252  0.0435 -0.0466
  761BOLB   GL418256  10.597  26.997  21.573  0.0763 -0.2686 -0.0569
  761BOLB   C1C18257  10.575  26.919  22.081  0.0456 -0.1057  0.2023
  761BOLB   C2C18258  10.188  26.904  22.229  0.2330 -0.3041 -0.1549
  761BOLB   C3C18259  10.035  27.082  22.584 -0.1393 -0.0384  0.0629
  761BOLB   C4C18260  10.424  26.986  22.768 -0.2585 -0.0865 -0.1695
  761BOLB   C1D18261  10.547  26.679  21.371 -0.1845 -0.1063 -0.0645
  761BOLB   C2D18262  10.291  26.601  21.014 -0.0845 -0.3644  0.0832
  761BOLB   C3D18263  10.289  26.303  20.749 -0.2177  0.1641 -0.3928
  761BOLB   C4D18264  10.535  26.114  20.528  0.1380 -0.1951  0.1107
  762BOLB   NC118265  18.815  26.876  19.927 -0.3482 -0.1252 -0.0696
  762BOLB   PO118266  18.883  26.634  20.326 -0.1102 -0.0255  0.0320
  762BOLB   GL118267  19.251  26.495  20.075 -0.2409 -0.0763  0.2050
  762BOLB   GL218268  19.476  26.650  19.989 -0.0321  0.2103  0.0971
  762BOLB   C1A18269  19.535  26.100  20.052 -0.0761 -0.0634  0.1760
  762BOLB   C2A18270  19.820  25.826  20.158 -0.0196  0.1571 -0.0643
  762BOLB   C3A18271  20.166  25.702  20.137  0.0148  0.0116  0.1805
  762BOLB   C4A18272  20.561  25.782  20.084  0.2559 -0.3234  0.2153
  762BOLB   C1B18273  19.851  26.448  19.629 -0.2169 -0.0825 -0.2090
  762BOLB   C2B18274  19.772  26.044  19.575 -0.0262 -0.1422  0.0261
  762BOLB   C3B18275  19.916  25.698  19.472 -0.3061 -0.1773 -0.0975
  762BOLB   C4B18276  19.801  25.186  19.506 -0.2044 -0.2076  0.0367
  762BOLB   NC218277  22.119  27.988  19.979  0.0072  0.0043  0.0790
  762BOLB   PO218278  21.993  27.457  20.136  0.0714 -0.2344  0.1458
  762BOLB   GL318279  21.777  27.092  20.001 -0.1114 -0.0707  0.0492
  762BOLB   GL418280  21.705  26.992  19.684  0.3023  0.0572  0.2242
  762BOLB   C1C18281  21.716  26.661  20.164 -0.0810 -0.1339  0.1843
  762BOLB   C2C18282  21.682  26.214  20.252 -0.1178  0.0408 -0.0904
  762BOLB   C3C18283  21.336  25.867  20.233 -0.1944 -0.0278 -0.2132
  762BOLB   C4C18284  20.916  25.776  20.195 -0.1173 -0.0574 -0.3219
  762BOLB   C1D18285  21.308  26.723  19.723 -0.1789  0.1216 -0.1120
  762BOLB   C2D18286  20.897  26.801  19.907 -0.2132  0.1692 -0.1568
  762BOLB   C3D18287  20.395  26.757  20.029 -0.1385  0.3451  0.0575
  762BOLB   C4D18288  19.973  26.835  19.904  0.0556  0.3708 -0.2226
  763BOLB   NC118289  13.507  26.828  22.772 -0.0929 -0.3164 -0.0454
  763BOLB   PO118290  13.079  26.739  22.884  0.1945  0.0578  0.0778
  763BOLB   GL118291  13.358  26.656  23.215  0.2290  0.2024 -0.0559
  763BOLB   GL218292  13.348  26.261  23.137 -0.1503  0.2764 -0.2112
  763BOLB   C1A18293  13.325  26.577  23.668 -0.0670 -0.1170  0.2173
  763BOLB   C2A18294  13.171  26.253  23.915  0.1660  0.1173  0.1605
  763BOLB   C3A18295  13.013  26.199  24.313  0.0950 -0.1325 -0.1348
  763BOLB   C4A18296  12.709  26.188  24.693 -0.1696  0.3243  0.1837
  763BOLB   C1B18297  12.965  26.248  23.387 -0.1605 -0.0324 -0.1264
  763BOLB   C2B18298  12.607  26.227  23.684 -0.2185 -0.0320 -0.0538
  763BOLB   C3B18299  12.724  26.594  23.980 -0.1317  0.3881 -0.3577
  763BOLB   C4B18300  12.559  26.968  24.118 -0.1417 -0.2509  0.1991
  763BOLB   NC218301  12.449  26.950  26.628 -0.0558  0.3708 -0.1349
  763BOLB   PO218302  12.725  26.633  26.882 -0.1183 -0.1983 -0.2177
  763BOLB   GL318303  12.661  26.505  26.487  0.0013 -0.1414 -0.1035
  763BOLB   GL418304  12.744  26.657  26.255 -0.0985  0.2701  0.1798
  763BOLB   C1C18305  12.885  26.092  26.164  0.2459 -0.2289 -0.0001
  763BOLB   C2C18306  12.864  25.915  25.825 -0.2981  0.1313  0.0515
  763BOLB   C3C18307  12.671  26.049  25.558  0.3996 -0.1137 -0.1926
  763BOLB   C4C18308  12.583  26.022  25.051 -0.1380 -0.0313  0.2580
  763BOLB   C1D18309  12.798  26.470  25.810  0.0869  0.1418  0.1879
  763BOLB   C2D18310  12.785  26.585  25.377 -0.0737 -0.3878 -0.2427
  763BOLB   C3D18311  12.957  26.520  25.085 -0.2384  0.1423  0.1803
  763BOLB   C4D18312  13.253  26.323  24.761 -0.0132 -0.2719  0.0683
  764BOLB   NC118313  12.560  27.745  21.028  0.1262 -0.2340 -0.1957
  764BOLB   PO118314  12.743  27.391  21.200  0.0435  0.0153 -0.1163
  764BOLB   GL118315  12.431  27.332  21.520 -0.1867  0.0031 -0.0354
  764BOLB   GL218316  12.414  27.040  21.444  0.1742 -0.1455  0.0845
  764BOLB   C1A18317  12.015  27.331  21.570 -0.0109  0.0008 -0.0640
  764BOLB   C2A18318  11.597  27.175  21.680  0.2107 -0.0055 -0.1485
  764BOLB   C3A18319  11.221  27.095  21.638 -0.0116  0.3505 -0.1029
  764BOLB   C4A18320  10.991  26.693  21.756  0.3098  0.1336 -0.1288
  764BOLB   C1B18321  12.394  26.822  21.135 -0.0921 -0.0513  0.2675
  764BOLB   C2B18322  12.077  26.641  20.830 -0.1478 -0.2117 -0.2520
  764BOLB   C3B18323  11.951  26.233  20.740 -0.0299  0.1296 -0.2891
  764BOLB   C4B18324  11.495  26.013  20.596 -0.1176 -0.1185 -0.2068
  764BOLB   NC218325   8.781  27.064  22.286  0.1287  0.0872  0.2707
  764BOLB   PO218326   8.381  27.002  22.004 -0.2686  0.0776  0.2283
  764BOLB   GL318327   8.768  26.830  21.849 -0.0690  0.4480  0.4101
  764BOLB   GL418328   8.867  26.853  21.592  0.0559  0.0367  0.0225
  764BOLB   C1C18329   9.251  26.506  21.729  0.1153 -0.0039  0.0366
  764BOLB   C2C18330   9.596  26.428  21.824 -0.2305  0.1221 -0.2641
  764BOLB   C3C18331  10.124  26.425  21.986  0.1897  0.2886  0.2180
  764BOLB   C4C18332  10.552  26.443  21.815  0.0535 -0.0794  0.0799
  764BOLB   C1D18333   8.778  26.339  21.589 -0.3012 -0.0024 -0.1727
  764BOLB   C2D18334   8.718  25.917  21.594 -0.0045 -0.3439 -0.0302
  764BOLB   C3D18335   8.905  25.651  21.804 -0.0668  0.1036  0.0736
  764BOLB   C4D18336   9.205  25.345  22.069 -0.1232  0.1308 -0.0535
  765BOLB   NC118337  19.972  24.389  20.210  0.0058 -0.1147 -0.1125
  765BOLB   PO118338  20.377  24.260  20.086  0.3197 -0.1487 -0.2198
  765BOLB   GL118339  20.469  24.598  19.932 -0.0647 -0.1509  0.0912
  765BOLB   GL218340  20.209  24.781  20.017  0.2912 -0.0730  0.3504
  765BOLB   C1A18341  20.741  24.958  19.840  0.0633 -0.1877  0.0237
  765BOLB   C2A18342  21.184  25.215  19.940 -0.0399  0.2369  0.2611
  765BOLB   C3A18343  21.591  25.415  19.936 -0.1558 -0.2720  0.2780
  765BOLB   C4A18344  22.030  25.562  19.880 -0.1935  0.0045 -0.1172
  765BOLB   C1B18345  20.109  24.758  19.634  0.1297  0.0315 -0.2056
  765BOLB   C2B18346  20.294  25.073  19.371  0.0156  0.0696 -0.0242
  765BOLB   C3B18347  20.402  25.511  19.234  0.2055  0.0391  0.1586
  765BOLB   C4B18348  20.727  25.703  19.247  0.0914 -0.0944 -0.0297
  765BOLB   NC218349  24.009  26.950  19.563  0.0313 -0.1407  0.0702
  765BOLB   PO218350  24.261  26.725  19.849 -0.1543  0.0807  0.1190
  765BOLB   GL318351  23.957  26.376  19.824 -0.4302 -0.1479  0.0436
  765BOLB   GL418352  23.990  26.197  19.621 -0.1017  0.1160  0.1744
  765BOLB   C1C18353  23.536  26.310  19.790  0.1260  0.2707 -0.0820
  765BOLB   C2C18354  23.300  25.919  19.910  0.1787 -0.1974 -0.2118
  765BOLB   C3C18355  22.840  25.767  20.059  0.1428 -0.1893 -0.2065
  765BOLB   C4C18356  22.403  25.789  19.913 -0.1651 -0.2318 -0.0379
  765BOLB   C1D18357  23.701  25.935  19.468  0.0515 -0.3358 -0.0650
  765BOLB   C2D18358  23.545  25.915  19.056  0.4809  0.1108 -0.0491
  765BOLB   C3D18359  23.183  25.941  18.894 -0.2470 -0.1393  0.0796
  765BOLB   C4D18360  22.837  26.277  18.912  0.1516 -0.0480  0.2092
  766BOLB   NC118361  21.318  28.917  20.108 -0.2218  0.0736  0.2435
  766BOLB   PO118362  21.239  28.513  20.043 -0.0952  0.0370  0.2038
  766BOLB   GL118363  21.207  28.090  20.250 -0.0824  0.0368 -0.3106
  766BOLB   GL218364  20.904  28.086  20.352 -0.1104 -0.0934  0.1077
  766BOLB   C1A18365  21.329  27.843  20.621 -0.0347  0.0483  0.5011
  766BOLB   C2A18366  21.256  27.368  20.792 -0.0731 -0.0431 -0.1170
  766BOLB   C3A18367  21.254  27.247  21.291 -0.2749  0.1729  0.0497
  766BOLB   C4A18368  21.259  27.115  21.624  0.2221  0.1532  0.1572
  766BOLB   C1B18369  20.868  27.730  20.668 -0.2034  0.2992 -0.1060
  766BOLB   C2B18370  20.938  27.571  21.109 -0.0817 -0.1159 -0.0892
  766BOLB   C3B18371  20.834  27.508  21.581  0.2133  0.0499 -0.2184
  766BOLB   C4B18372  20.568  27.750  21.875  0.0090 -0.1424 -0.3080
  766BOLB   NC218373  22.040  27.858  22.995 -0.0705 -0.3252  0.1309
  766BOLB   PO218374  22.115  27.793  23.396 -0.3684  0.7898 -0.2079
  766BOLB   GL318375  21.993  27.428  23.127  0.1108 -0.2513  0.0852
  766BOLB   GL418376  21.814  27.119  23.269 -0.2936 -0.1003 -0.0194
  766BOLB   C1C18377  21.695  27.388  22.778  0.0116  0.1384  0.3074
  766BOLB   C2C18378  21.624  27.025  22.586 -0.1648 -0.0939 -0.1293
  766BOLB   C3C18379  21.481  26.821  22.297 -0.2897  0.0312  0.1020
  766BOLB   C4C18380  21.416  26.912  21.962 -0.0470  0.0013  0.0120
  766BOLB   C1D18381  21.476  26.933  23.047  0.0413  0.5168  0.0267
  766BOLB   C2D18382  21.130  26.703  22.774  0.0458 -0.3199  0.0997
  766BOLB   C3D18383  20.880  26.812  22.456  0.0654  0.0419 -0.0967
  766BOLB   C4D18384  20.512  26.817  22.234 -0.0482  0.2168 -0.2354
  767BOLB   NC118385  18.501  28.688  23.958 -0.2797  0.0577  0.0289
  767BOLB   PO118386  18.614  28.342  23.617  0.1735 -0.0410  0.0155
  767BOLB   GL118387  18.838  27.999  23.436  0.2108  0.1299  0.2971
  767BOLB   GL218388  18.859  28.082  23.066  0.3086  0.1664 -0.1172
  767BOLB   C1A18389  18.891  27.653  23.507  0.2177 -0.1426 -0.0313
  767BOLB   C2A18390  18.828  27.563  23.937 -0.2497 -0.1979 -0.1563
  767BOLB   C3A18391  18.984  27.765  24.243 -0.0522 -0.1917  0.0100
  767BOLB   C4A18392  19.414  27.797  24.356 -0.0374  0.0222 -0.0862
  767BOLB   C1B18393  18.927  27.629  22.992 -0.1262  0.3448  0.0948
  767BOLB   C2B18394  19.102  27.236  23.170  0.1538 -0.1392  0.1166
  767BOLB   C3B18395  19.114  26.876  23.163 -0.0366  0.4155  0.3454
  767BOLB   C4B18396  18.861  26.536  22.910 -0.2502  0.0344 -0.0711
  767BOLB   NC218397  18.787  27.929  25.828 -0.4317  0.1175 -0.3541
  767BOLB   PO218398  18.664  27.396  26.001  0.1949  0.0725  0.2385
  767BOLB   GL318399  18.785  27.071  25.701  0.0907  0.4294  0.1086
  767BOLB   GL418400  18.630  26.815  25.646 -0.2734  0.1665  0.1266
  767BOLB   C1C18401  19.100  27.094  25.487 -0.2304 -0.3343  0.0688
  767BOLB   C2C18402  19.393  27.300  25.226  0.2210 -0.3454 -0.3674
  767BOLB   C3C18403  19.749  27.434  25.093 -0.0596  0.1113 -0.0801
  767BOLB   C4C18404  19.706  27.756  24.685  0.0973  0.0226 -0.0979
  767BOLB   C1D18405  18.555  26.421  25.420 -0.0899 -0.0513  0.1099
  767BOLB   C2D18406  18.213  26.192  25.197 -0.0297  0.1562  0.0203
  767BOLB   C3D18407  18.035  25.887  24.823  0.2780 -0.0583 -0.0767
  767BOLB   C4D18408  17.639  25.690  24.658  0.0882  0.0182 -0.0939
  768BOLB   NC118409  12.805  26.184  22.311  0.1147 -0.1280 -0.1267
  768BOLB   PO118410  12.577  25.927  22.052 -0.0027 -0.0526  0.2588
  768BOLB   GL118411  12.123  25.885  21.762  0.0964 -0.0847 -0.0296
  768BOLB   GL218412  12.226  25.685  21.569  0.0374  0.1303  0.0540
  768BOLB   C1A18413  11.586  25.925  21.605  0.1357 -0.1032 -0.0218
  768BOLB   C2A18414  11.189  25.738  21.601  0.0265  0.0501 -0.1611
  768BOLB   C3A18415  10.874  25.754  21.265  0.0537 -0.1656  0.0794
  768BOLB   C4A18416  10.569  25.820  20.892  0.3161 -0.0708  0.3264
  768BOLB   C1B18417  12.075  25.397  21.240  0.1361 -0.0527 -0.0167
  768BOLB   C2B18418  11.664  25.442  20.863  0.2143 -0.0423 -0.0205
  768BOLB   C3B18419  11.446  25.399  20.467  0.2287  0.1824 -0.1396
  768BOLB   C4B18420  11.514  25.181  20.056  0.1835  0.1410  0.0532
  768BOLB   NC218421   9.858  27.563  20.628  0.1898  0.0939  0.3499
  768BOLB   PO218422   9.570  27.382  20.618  0.1113  0.0752 -0.0600
  768BOLB   GL318423   9.777  27.018  20.546 -0.1218 -0.1309 -0.2083
  768BOLB   GL418424   9.607  26.940  20.406  0.1965  0.2712  0.1252
  768BOLB   C1C18425   9.914  26.619  20.696  0.1439 -0.1601  0.0522
  768BOLB   C2C18426  10.099  26.295  20.315  0.0341  0.0114 -0.0265
  768BOLB   C3C18427  10.220  25.834  20.283  0.0960 -0.1171 -0.0516
  768BOLB   C4C18428  10.418  25.637  20.605 -0.0386  0.2459 -0.1774
  768BOLB   C1D18429   9.723  27.065  19.970 -0.1997  0.2900 -0.1841
  768BOLB   C2D18430  10.065  26.814  19.698 -0.0857  0.3738 -0.0566
  768BOLB   C3D18431  10.221  26.950  19.300 -0.2443 -0.0943 -0.2132
  768BOLB   C4D18432  10.392  26.837  18.933 -0.0489  0.3462 -0.1046
  769BOLB   NC118433  18.361  24.548  21.762  0.0448  0.1254 -0.2900
  769BOLB   PO118434  18.256  24.619  22.252 -0.1226 -0.0403  0.2266
  769BOLB   GL118435  18.556  24.673  22.601  0.0845  0.2346 -0.2201
  769BOLB   GL218436  18.790  24.926  22.582 -0.2508  0.1799 -0.3950
  769BOLB   C1A18437  18.956  24.556  22.967 -0.2089 -0.0242  0.0280
  769BOLB   C2A18438  19.262  24.774  23.303  0.2076  0.1798  0.1353
  769BOLB   C3A18439  19.540  24.990  23.560  0.0436  0.0346 -0.1140
  769BOLB   C4A18440  19.972  25.199  23.432  0.2180 -0.1427 -0.3636
  769BOLB   C1B18441  19.009  25.313  22.415  0.2462 -0.1282 -0.0642
  769BOLB   C2B18442  19.253  25.649  22.541  0.1799  0.0376  0.3329
  769BOLB   C3B18443  19.463  25.795  22.901 -0.2891 -0.0263  0.3787
  769BOLB   C4B18444  19.589  26.072  23.289 -0.1237  0.4399  0.0467
  769BOLB   NC218445  21.353  25.356  24.989 -0.3303  0.2337  0.1542
  769BOLB   PO218446  21.778  25.217  24.809 -0.1431  0.2846  0.0355
  769BOLB   GL318447  21.660  25.356  24.448  0.0793  0.1701  0.2586
  769BOLB   GL418448  21.848  25.160  24.240  0.0435 -0.2294 -0.0765
  769BOLB   C1C18449  21.244  25.464  24.302  0.4839 -0.0620 -0.1613
  769BOLB   C2C18450  20.839  25.620  23.950 -0.0197 -0.0915  0.1765
  769BOLB   C3C18451  20.537  25.693  23.665  0.0650 -0.0273  0.0457
  769BOLB   C4C18452  20.335  25.332  23.481  0.3239 -0.1406  0.3024
  769BOLB   C1D18453  22.007  24.899  23.948 -0.1062  0.2613  0.2331
  769BOLB   C2D18454  22.206  24.616  23.594  0.0288 -0.1110 -0.1259
  769BOLB   C3D18455  22.490  24.558  23.164  0.2105 -0.4214  0.1033
  769BOLB   C4D18456  22.885  24.684  22.791  0.1528 -0.0998  0.1341
  770BOLB   NC118457  21.012  23.506  19.564 -0.0326 -0.1553 -0.1161
  770BOLB   PO118458  21.211  23.597  19.100 -0.0333  0.3075  0.1999
  770BOLB   GL118459  21.244  24.029  18.938 -0.0842 -0.1583 -0.0433
  770BOLB   GL218460  21.046  24.056  18.699  0.1613  0.1538  0.3047
  770BOLB   C1A18461  21.323  24.482  18.907 -0.1214  0.1687 -0.1321
  770BOLB   C2A18462  21.613  24.652  19.020  0.0133 -0.1547 -0.3217
  770BOLB   C3A18463  21.893  24.819  18.976  0.1352  0.1614 -0.0185
  770BOLB   C4A18464  21.954  25.250  18.950  0.0963  0.0559 -0.3136
  770BOLB   C1B18465  20.822  24.350  18.352 -0.2634  0.0157 -0.1983
  770BOLB   C2B18466  20.866  24.578  17.984 -0.1482  0.0300 -0.1728
  770BOLB   C3B18467  21.256  24.657  17.860  0.2361  0.0495 -0.3012
  770BOLB   C4B18468  21.668  24.856  17.846 -0.3080 -0.0556  0.2802
  770BOLB   NC218469  22.323  27.696  18.866  0.0477 -0.0066  0.1275
  770BOLB   PO218470  22.652  27.679  18.621 -0.0505 -0.1495 -0.1539
  770BOLB   GL318471  22.528  27.244  18.711 -0.0112 -0.0484 -0.0642
  770BOLB   GL418472  22.253  27.220  18.994 -0.2104  0.2203  0.3068
  770BOLB   C1C18473  22.547  26.765  18.685 -0.0496  0.0533  0.0733
  770BOLB   C2C18474  22.391  26.359  18.675  0.1303  0.0766 -0.1894
  770BOLB   C3C18475  22.303  25.984  18.902  0.3860 -0.1144  0.1991
  770BOLB   C4C18476  22.033  25.666  18.874  0.1715  0.0003 -0.0130
  770BOLB   C1D18477  22.019  26.848  18.945  0.0754 -0.0157  0.1145
  770BOLB   C2D18478  21.876  26.401  19.000 -0.3188  0.1733 -0.3270
  770BOLB   C3D18479  21.552  26.048  18.975 -0.0226  0.2305  0.0797
  770BOLB   C4D18480  21.243  25.995  19.267 -0.2937 -0.3149 -0.0480
  771BOLB   NC118481  13.877  24.929  22.627 -0.1834 -0.0772 -0.0119
  771BOLB   PO118482  13.800  24.511  22.560  0.0800  0.1073 -0.1728
  771BOLB   GL118483  13.967  24.668  23.018  0.0679 -0.1099 -0.3768
  771BOLB   GL218484  14.306  24.651  23.104  0.2924 -0.1678 -0.1235
  771BOLB   C1A18485  13.883  24.724  23.439 -0.2301  0.0743  0.3820
  771BOLB   C2A18486  13.974  24.818  23.842 -0.3644 -0.1181  0.0515
  771BOLB   C3A18487  13.919  24.873  24.336 -0.2541  0.0821 -0.3756
  771BOLB   C4A18488  13.904  24.914  24.832  0.5101 -0.4070  0.0774
  771BOLB   C1B18489  14.469  24.678  23.420  0.1320  0.2899  0.1305
  771BOLB   C2B18490  14.421  24.918  23.856  0.1913  0.2973 -0.0202
  771BOLB   C3B18491  14.385  24.966  24.331  0.0560 -0.0551 -0.2567
  771BOLB   C4B18492  14.361  24.979  24.707  0.0393 -0.0683 -0.0400
  771BOLB   NC218493  14.612  25.540  27.048 -0.3470 -0.0101 -0.3196
  771BOLB   PO218494  15.065  25.358  27.098  0.1789  0.0151 -0.3965
  771BOLB   GL318495  14.811  25.115  26.787  0.2147  0.0248 -0.2354
  771BOLB   GL418496  14.582  24.836  26.851 -0.3521  0.0186 -0.1645
  771BOLB   C1C18497  14.664  25.183  26.353 -0.2109 -0.1351  0.2792
  771BOLB   C2C18498  14.551  24.926  25.901 -0.2083  0.0001 -0.0317
  771BOLB   C3C18499  14.438  24.826  25.545 -0.0523 -0.0105  0.2487
  771BOLB   C4C18500  14.084  25.003  25.242  0.2308 -0.2731  0.1799
  771BOLB   C1D18501  14.661  24.351  26.711 -0.2730 -0.0051 -0.2406
  771BOLB   C2D18502  14.544  23.919  26.930 -0.0270 -0.2856  0.0057
  771BOLB   C3D18503  14.455  23.494  26.980  0.1314  0.1437 -0.1500
  771BOLB   C4D18504  14.155  23.450  26.644  0.2320 -0.1397  0.2049
  772BOLB   NC118505  15.203  26.155  22.178  0.0511  0.0410 -0.1979
  772BOLB   PO118506  15.212  25.929  22.593  0.1660  0.0798  0.1916
  772BOLB   GL118507  15.074  26.097  23.032  0.1896  0.2678 -0.0381
  772BOLB   GL218508  15.358  26.185  23.227 -0.1241 -0.3061 -0.4558
  772BOLB   C1A18509  14.927  26.174  23.394  0.2021  0.0888 -0.2655
  772BOLB   C2A18510  14.678  26.315  23.845  0.0874 -0.0527 -0.0718
  772BOLB   C3A18511  14.591  26.081  24.293  0.0480 -0.0273  0.3055
  772BOLB   C4A18512  14.413  26.024  24.718 -0.0079 -0.3810  0.1460
  772BOLB   C1B18513  15.422  25.899  23.641  0.2180 -0.1163 -0.2618
  772BOLB   C2B18514  15.643  25.955  24.105 -0.0193 -0.0492 -0.0613
  772BOLB   C3B18515  15.508  26.259  24.563  0.1488  0.2558 -0.1972
  772BOLB   C4B18516  15.275  26.544  24.887  0.1989 -0.0328  0.1084
  772BOLB   NC218517  14.304  26.861  27.071  0.0307  0.3287 -0.1698
  772BOLB   PO218518  13.958  26.837  26.855 -0.2503 -0.0252 -0.1224
  772BOLB   GL318519  13.847  26.691  26.464 -0.2742 -0.0065 -0.1635
  772BOLB   GL418520  13.878  26.348  26.439 -0.2090  0.1138 -0.0545
  772BOLB   C1C18521  14.094  26.618  26.059  0.3472  0.1695  0.2355
  772BOLB   C2C18522  14.394  26.571  25.660  0.0294  0.3658 -0.1916
  772BOLB   C3C18523  14.469  26.241  25.437  0.2048 -0.1424  0.2100
  772BOLB   C4C18524  14.399  25.922  25.138 -0.4307 -0.0041  0.2440
  772BOLB   C1D18525  13.799  26.072  26.137  0.0002 -0.0900 -0.3450
  772BOLB   C2D18526  13.633  25.663  26.113  0.0149 -0.2636 -0.0011
  772BOLB   C3D18527  13.726  25.355  25.794  0.0399  0.2345  0.0781
  772BOLB   C4D18528  13.687  25.234  25.457 -0.1607 -0.2216  0.0394
  773BOLB   NC118529  19.723  28.227  21.216  0.1966 -0.0718  0.0128
  773BOLB   PO118530  19.876  28.257  21.640 -0.2172 -0.0686  0.1158
  773BOLB   GL118531  19.751  27.875  21.825  0.0114 -0.0755 -0.0451
  773BOLB   GL218532  20.121  27.830  21.897  0.1176  0.2327 -0.1533
  773BOLB   C1A18533  19.716  27.713  22.294  0.2126 -0.0785  0.3297
  773BOLB   C2A18534  19.919  27.308  22.555  0.0524  0.0087 -0.4553
  773BOLB   C3A18535  20.298  27.087  22.687  0.0324  0.4271 -0.0804
  773BOLB   C4A18536  20.736  27.149  22.825 -0.1523 -0.0489  0.1123
  773BOLB   C1B18537  20.277  27.655  21.514  0.2448 -0.0951  0.2055
  773BOLB   C2B18538  20.051  27.339  21.191 -0.2921 -0.0214 -0.0080
  773BOLB   C3B18539  20.124  27.036  20.942  0.1559  0.2001  0.3450
  773BOLB   C4B18540  20.521  26.872  21.023 -0.3635 -0.3316 -0.3226
  773BOLB   NC218541  21.404  28.535  22.001  0.1544 -0.2508 -0.1051
  773BOLB   PO218542  21.484  28.638  21.590  0.3606  0.1807 -0.3552
  773BOLB   GL318543  21.548  28.117  21.652  0.0259 -0.0881 -0.0122
  773BOLB   GL418544  21.579  27.951  22.013 -0.1456  0.3138  0.0403
  773BOLB   C1C18545  21.384  27.685  21.621 -0.1757  0.0392  0.1755
  773BOLB   C2C18546  21.492  27.394  21.920 -0.3059 -0.1275 -0.0997
  773BOLB   C3C18547  21.386  27.363  22.352  0.1343  0.0284 -0.1910
  773BOLB   C4C18548  21.094  27.256  22.582  0.0084  0.3757 -0.0823
  773BOLB   C1D18549  21.167  27.733  22.075 -0.2009  0.0138  0.0272
  773BOLB   C2D18550  21.032  27.387  21.992  0.2812 -0.1863  0.0674
  773BOLB   C3D18551  20.760  27.115  21.879  0.0147 -0.0560  0.1509
  773BOLB   C4D18552  20.334  27.068  21.604  0.0832  0.0917 -0.1965
  774BOLB   NC118553  20.494  27.539  15.331  0.3317 -0.0775 -0.1071
  774BOLB   PO118554  20.119  27.327  15.282 -0.2647 -0.2275  0.0330
  774BOLB   GL118555  20.309  26.992  15.451 -0.2788  0.0731  0.2150
  774BOLB   GL218556  20.697  27.102  15.337 -0.2234  0.2341 -0.1745
  774BOLB   C1A18557  20.247  26.806  15.935 -0.0610  0.2370  0.0043
  774BOLB   C2A18558  20.036  26.778  16.405  0.0010 -0.1641 -0.2111
  774BOLB   C3A18559  19.692  26.510  16.550 -0.1060  0.0250 -0.1864
  774BOLB   C4A18560  19.512  26.454  16.932  0.1866  0.1593  0.1185
  774BOLB   C1B18561  20.650  26.700  15.696 -0.1068 -0.1235  0.2158
  774BOLB   C2B18562  20.649  26.244  15.690 -0.0988  0.0605 -0.2382
  774BOLB   C3B18563  20.649  25.882  15.568  0.1145  0.2656 -0.1097
  774BOLB   C4B18564  20.841  25.703  15.190  0.0691 -0.1991  0.0561
  774BOLB   NC218565  18.916  27.601  18.865 -0.2891 -0.3877 -0.2271
  774BOLB   PO218566  19.373  27.831  18.951  0.1913 -0.0396  0.2736
  774BOLB   GL318567  19.425  27.411  18.957  0.1400  0.0918  0.0378
  774BOLB   GL418568  19.570  27.301  19.199  0.0069  0.0154  0.2399
  774BOLB   C1C18569  19.397  27.148  18.574 -0.1883  0.1628  0.1035
  774BOLB   C2C18570  19.213  26.861  18.263  0.0240 -0.1848  0.1023
  774BOLB   C3C18571  19.412  26.622  17.834 -0.1334 -0.2381  0.0201
  774BOLB   C4C18572  19.349  26.613  17.337  0.0970 -0.3079 -0.0472
  774BOLB   C1D18573  19.871  26.967  19.424 -0.0882  0.1899 -0.1779
  774BOLB   C2D18574  20.313  27.005  19.474  0.0161  0.0133  0.0520
  774BOLB   C3D18575  20.558  26.637  19.463  0.2073 -0.1266 -0.1545
  774BOLB   C4D18576  20.360  26.354  19.811  0.0730 -0.0128 -0.0043
  775BOLB   NC118577   5.949  24.973  17.971 -0.1867 -0.1651 -0.0908
  775BOLB   PO118578   6.305  25.199  17.823  0.2347 -0.0691  0.3035
  775BOLB   GL118579   6.730  25.395  17.809  0.0985  0.2473 -0.1369
  775BOLB   GL218580   6.739  25.649  18.173 -0.1832  0.0992 -0.1483
  775BOLB   C1A18581   7.152  25.340  17.887  0.6276 -0.1592 -0.0564
  775BOLB   C2A18582   7.489  25.487  17.742 -0.0010  0.0894 -0.0578
  775BOLB   C3A18583   7.927  25.447  17.943 -0.2646 -0.0572  0.1531
  775BOLB   C4A18584   8.195  25.622  18.298 -0.0720 -0.2711 -0.0820
  775BOLB   C1B18585   7.129  25.500  18.417  0.0054  0.0205  0.1601
  775BOLB   C2B18586   7.395  25.388  18.828 -0.0201  0.0243 -0.1686
  775BOLB   C3B18587   7.300  25.118  19.074  0.4071 -0.1203  0.0324
  775BOLB   C4B18588   7.090  24.811  19.062  0.0359  0.3974  0.1550
  775BOLB   NC218589   8.409  27.209  19.192  0.0992 -0.0680 -0.1298
  775BOLB   PO218590   8.616  27.240  19.623 -0.2413 -0.2823  0.3051
  775BOLB   GL318591   8.605  26.802  19.638 -0.3406 -0.2368  0.0117
  775BOLB   GL418592   8.818  26.787  19.857 -0.1073  0.0163  0.0584
  775BOLB   C1C18593   8.510  26.315  19.741  0.1654 -0.2642  0.3217
  775BOLB   C2C18594   8.408  26.042  19.412 -0.1259 -0.2436  0.1649
  775BOLB   C3C18595   8.316  25.759  19.002 -0.1209  0.3324 -0.0642
  775BOLB   C4C18596   8.424  25.702  18.586  0.3652 -0.3043 -0.2659
  775BOLB   C1D18597   9.256  26.693  19.893  0.0225 -0.1177 -0.0572
  775BOLB   C2D18598   9.577  26.458  20.154 -0.1839 -0.2094  0.1137
  775BOLB   C3D18599   9.759  26.105  19.993  0.2419  0.2110  0.1682
  775BOLB   C4D18600   9.843  25.760  19.748 -0.1729 -0.2272 -0.2835
  776BOLB   NC118601  17.140  25.156  22.759 -0.1579  0.1769 -0.2108
  776BOLB   PO118602  16.817  25.061  22.962 -0.0249  0.0600 -0.2224
  776BOLB   GL118603  17.184  25.044  23.297  0.2722  0.0682  0.1097
  776BOLB   GL218604  17.107  24.868  23.699 -0.1794 -0.0662  0.0623
  776BOLB   C1A18605  17.439  25.268  23.481 -0.3248 -0.1202  0.1801
  776BOLB   C2A18606  17.699  25.601  23.676 -0.1196  0.0395 -0.2820
  776BOLB   C3A18607  18.091  25.679  23.947 -0.1795  0.1015  0.0529
  776BOLB   C4A18608  18.164  25.643  24.369 -0.2214 -0.0093  0.1390
  776BOLB   C1B18609  17.441  24.917  23.867 -0.2932 -0.1119 -0.0291
  776BOLB   C2B18610  17.606  24.881  24.285 -0.1553  0.0732  0.1677
  776BOLB   C3B18611  17.749  25.054  24.670 -0.1187 -0.3446 -0.0117
  776BOLB   C4B18612  17.969  25.267  24.989 -0.1919 -0.1813 -0.2850
  776BOLB   NC218613  18.789  26.331  26.742 -0.2694 -0.2414  0.1093
  776BOLB   PO218614  18.977  26.469  26.353  0.2801 -0.2494  0.1385
  776BOLB   GL318615  18.826  26.412  25.919  0.3049 -0.0850 -0.0969
  776BOLB   GL418616  19.043  26.389  25.632  0.1048 -0.0592 -0.3708
  776BOLB   C1C18617  18.626  26.072  25.765 -0.1268 -0.0693 -0.0998
  776BOLB   C2C18618  18.520  25.929  25.440  0.2339 -0.0559 -0.1145
  776BOLB   C3C18619  18.354  25.574  25.142 -0.0864  0.2297 -0.1007
  776BOLB   C4C18620  18.394  25.526  24.651  0.1473  0.1913 -0.3204
  776BOLB   C1D18621  19.062  26.615  25.223  0.0724  0.2399  0.0770
  776BOLB   C2D18622  18.948  26.635  24.858  0.0462 -0.3795  0.0703
  776BOLB   C3D18623  18.841  27.035  24.712 -0.0421 -0.1494  0.0299
  776BOLB   C4D18624  18.608  27.423  24.698  0.2095 -0.0042  0.1565
  777BOLB   NC118625  11.864  28.537  23.056 -0.1482  0.0992  0.1652
  777BOLB   PO118626  11.989  28.213  23.074 -0.0983  0.0440  0.4217
  777BOLB   GL118627  11.947  27.895  23.425 -0.2201 -0.3666 -0.0069
  777BOLB   GL218628  11.834  27.964  23.783  0.0711 -0.2080 -0.2209
  777BOLB   C1A18629  12.046  27.458  23.482  0.3971  0.2617  0.1041
  777BOLB   C2A18630  12.197  27.096  23.611  0.0915 -0.3415 -0.1525
  777BOLB   C3A18631  12.302  26.634  23.651 -0.1142 -0.1874 -0.0670
  777BOLB   C4A18632  12.072  26.270  23.663 -0.1486 -0.0033  0.2807
  777BOLB   C1B18633  12.023  27.630  23.938  0.1392 -0.1803 -0.0861
  777BOLB   C2B18634  12.320  27.490  23.987 -0.0880  0.3245  0.1384
  777BOLB   C3B18635  12.469  27.429  24.406  0.2596 -0.0754  0.0241
  777BOLB   C4B18636  12.587  27.239  24.695 -0.1695  0.1429  0.0525
  777BOLB   NC218637  10.133  27.367  23.599  0.3576 -0.0696 -0.1199
  777BOLB   PO218638   9.899  27.105  23.959 -0.2090 -0.0041  0.0122
  777BOLB   GL318639  10.109  26.810  23.747  0.1417 -0.3008  0.0837
  777BOLB   GL418640  10.342  26.941  23.491  0.1707  0.1049  0.2379
  777BOLB   C1C18641  10.520  26.503  23.674 -0.3642 -0.0417  0.1797
  777BOLB   C2C18642  10.901  26.356  23.482 -0.0308 -0.1840  0.1721
  777BOLB   C3C18643  11.248  26.305  23.425  0.0876 -0.0879 -0.0891
  777BOLB   C4C18644  11.595  26.059  23.563  0.1424 -0.3292 -0.2023
  777BOLB   C1D18645  10.552  26.677  23.212 -0.2061  0.1612  0.2087
  777BOLB   C2D18646  10.603  26.265  23.123 -0.1216 -0.1971 -0.0289
  777BOLB   C3D18647  11.020  26.001  23.133  0.1478  0.1676  0.0205
  777BOLB   C4D18648  11.466  25.932  23.072  0.0613 -0.1803 -0.2144
  778BOLB   NC118649  10.147  28.312  18.902  0.0871 -0.4346  0.1267
  778BOLB   PO118650  10.169  27.898  19.088 -0.2933  0.0090  0.1089
  778BOLB   GL118651  10.278  27.467  18.971  0.2339  0.1025 -0.1111
  778BOLB   GL218652  10.535  27.378  18.985 -0.2478 -0.1028 -0.4885
  778BOLB   C1A18653   9.969  27.137  18.875 -0.2077 -0.1785 -0.2436
  778BOLB   C2A18654   9.943  26.865  18.557  0.1184  0.0612  0.1266
  778BOLB   C3A18655   9.598  26.847  18.295  0.1539 -0.0797 -0.2948
  778BOLB   C4A18656   9.144  26.696  18.307 -0.0215 -0.0742 -0.4201
  778BOLB   C1B18657  10.582  27.324  19.374 -0.0516  0.1277 -0.2807
  778BOLB   C2B18658  10.604  27.046  19.749 -0.2349  0.0300 -0.1580
  778BOLB   C3B18659  10.453  26.591  19.974 -0.0053  0.0751 -0.0886
  778BOLB   C4B18660  10.514  26.297  20.059  0.0050  0.1815  0.2762
  778BOLB   NC218661   7.663  26.418  16.161 -0.1131  0.1394  0.1247
  778BOLB   PO218662   7.554  26.504  16.787 -0.1509 -0.1034 -0.1120
  778BOLB   GL318663   7.887  26.421  17.053  0.1702 -0.5102  0.1863
  778BOLB   GL418664   8.200  26.609  17.172  0.0551  0.0123  0.0073
  778BOLB   C1C18665   8.283  26.161  17.226 -0.0164 -0.0810 -0.0129
  778BOLB   C2C18666   8.512  25.914  17.520 -0.0813  0.3303  0.1249
  778BOLB   C3C18667   8.935  26.024  17.817 -0.1918  0.1179  0.0279
  778BOLB   C4C18668   9.007  26.438  18.069  0.3862  0.2655 -0.1778
  778BOLB   C1D18669   8.587  26.788  17.205  0.0889 -0.3619 -0.2984
  778BOLB   C2D18670   9.029  26.746  17.244 -0.0993 -0.1708 -0.0584
  778BOLB   C3D18671   9.503  26.607  17.165 -0.2147  0.1193 -0.2051
  778BOLB   C4D18672   9.807  26.385  17.289 -0.5940  0.1385 -0.1624
  779BOLB   NC118673  15.632  25.801  22.908  0.0190  0.3596  0.1417
  779BOLB   PO118674  15.978  25.574  22.810  0.1557  0.0502  0.3797
  779BOLB   GL118675  16.155  25.575  23.237  0.0922 -0.2178 -0.0210
  779BOLB   GL218676  15.876  25.728  23.412 -0.1971  0.0315 -0.0047
  779BOLB   C1A18677  16.233  25.399  23.718  0.2519  0.0110  0.0898
  779BOLB   C2A18678  16.202  25.543  24.155  0.3938 -0.0428 -0.4696
  779BOLB   C3A18679  16.189  25.518  24.592 -0.2430 -0.2438  0.0109
  779BOLB   C4A18680  16.028  25.381  24.942  0.0468  0.3504  0.3316
  779BOLB   C1B18681  15.785  26.195  23.474  0.1456  0.2688 -0.0966
  779BOLB   C2B18682  15.750  26.432  23.852 -0.1178 -0.0457  0.0632
  779BOLB   C3B18683  15.537  26.489  24.140  0.2802 -0.2024  0.0011
  779BOLB   C4B18684  15.321  26.601  24.266  0.4087 -0.1820  0.3010
  779BOLB   NC218685  15.806  24.395  27.289 -0.2049 -0.0346  0.1763
  779BOLB   PO218686  15.832  24.823  27.326  0.2153 -0.1639 -0.0009
  779BOLB   GL318687  15.963  24.922  26.896  0.0771  0.5281 -0.1796
  779BOLB   GL418688  15.778  24.778  26.750 -0.1168  0.1598 -0.5155
  779BOLB   C1C18689  16.229  24.959  26.556 -0.0510 -0.1941 -0.2620
  779BOLB   C2C18690  16.133  25.055  26.091  0.0315 -0.0223 -0.0511
  779BOLB   C3C18691  15.987  25.149  25.663 -0.2692 -0.1799 -0.1150
  779BOLB   C4C18692  15.939  25.380  25.392 -0.1670  0.1843 -0.0477
  779BOLB   C1D18693  15.628  24.874  26.284  0.0503  0.0991 -0.3660
  779BOLB   C2D18694  15.536  24.869  25.812  0.1364  0.0198  0.0144
  779BOLB   C3D18695  15.388  24.969  25.388 -0.1734  0.2026 -0.1830
  779BOLB   C4D18696  15.079  25.401  25.228 -0.3699  0.2366  0.1221
  780BOLB   NC118697  20.892  23.929  19.356 -0.2017 -0.2893 -0.2900
  780BOLB   PO118698  20.725  23.786  19.006 -0.0255  0.2127 -0.0514
  780BOLB   GL118699  20.503  24.141  19.000 -0.3794 -0.0350 -0.0914
  780BOLB   GL218700  20.770  24.335  19.088  0.2448 -0.1715  0.2536
  780BOLB   C1A18701  20.302  24.361  18.655 -0.0598 -0.0337 -0.1534
  780BOLB   C2A18702  20.444  24.662  18.418 -0.1580  0.1944 -0.3071
  780BOLB   C3A18703  20.423  25.205  18.284  0.0240  0.0071 -0.0257
  780BOLB   C4A18704  20.848  25.497  18.291  0.2164 -0.2433  0.1403
  780BOLB   C1B18705  20.820  24.737  18.797  0.2567  0.1862  0.0421
  780BOLB   C2B18706  20.842  25.004  18.484 -0.0979 -0.1345 -0.2350
  780BOLB   C3B18707  20.859  25.114  18.015  0.2175  0.1606  0.0547
  780BOLB   C4B18708  20.857  24.777  17.568  0.0789  0.2271 -0.1849
  780BOLB   NC218709  21.233  27.760  18.093  0.4289 -0.3129  0.1279
  780BOLB   PO218710  21.497  27.638  17.853  0.0277 -0.0528  0.0875
  780BOLB   GL318711  21.330  27.247  17.925  0.2191  0.0645 -0.0685
  780BOLB   GL418712  21.528  27.204  18.190 -0.0689  0.0110  0.2839
  780BOLB   C1C18713  21.432  26.775  17.966  0.0553  0.0183  0.0209
  780BOLB   C2C18714  21.538  26.442  18.142  0.0143  0.1066  0.1794
  780BOLB   C3C18715  21.373  26.162  18.436 -0.1594  0.1741 -0.1751
  780BOLB   C4C18716  21.003  25.909  18.381 -0.0341  0.2332 -0.2387
  780BOLB   C1D18717  21.707  26.900  18.523  0.0007 -0.0714  0.2241
  780BOLB   C2D18718  21.806  26.521  18.546  0.2591 -0.0028  0.2125
  780BOLB   C3D18719  21.858  26.046  18.614 -0.1227  0.0161 -0.0354
  780BOLB   C4D18720  21.592  25.647  18.595  0.1766 -0.3008 -0.1822
  781BOLB   NC118721  14.741  25.304  22.886  0.1714  0.1478 -0.2573
  781BOLB   PO118722  15.175  25.540  22.916 -0.0527 -0.2337  0.2143
  781BOLB   GL118723  15.128  25.477  23.393 -0.0202  0.0808  0.1765
  781BOLB   GL218724  14.898  25.657  23.404 -0.2852 -0.1204 -0.1019
  781BOLB   C1A18725  15.247  25.337  23.779 -0.1828 -0.0139 -0.0339
  781BOLB   C2A18726  15.433  25.241  24.264  0.0483  0.2860 -0.0588
  781BOLB   C3A18727  15.691  25.145  24.676  0.1736  0.1740 -0.2116
  781BOLB   C4A18728  15.679  24.892  25.045  0.1856  0.0912 -0.1279
  781BOLB   C1B18729  14.902  25.779  23.852  0.2098 -0.1476 -0.2617
  781BOLB   C2B18730  15.067  25.619  24.243  0.0424 -0.0146 -0.1383
  781BOLB   C3B18731  15.317  25.524  24.699  0.0225  0.0127 -0.2347
  781BOLB   C4B18732  15.529  25.387  25.075  0.0880  0.0790 -0.1750
  781BOLB   NC218733  16.388  23.882  27.705 -0.3526 -0.2346  0.2051
  781BOLB   PO218734  16.233  24.233  27.460  0.0695 -0.4858 -0.0991
  781BOLB   GL318735  16.213  24.387  26.969 -0.1925 -0.0449 -0.1296
  781BOLB   GL418736  16.350  24.165  26.982  0.0500 -0.2658  0.2448
  781BOLB   C1C18737  16.114  24.400  26.620  0.1050  0.4742  0.1382
  781BOLB   C2C18738  15.999  24.525  26.235 -0.2213 -0.0757 -0.1079
  781BOLB   C3C18739  16.110  24.617  25.746  0.1608 -0.1641  0.1417
  781BOLB   C4C18740  15.868  24.729  25.434  0.0877  0.2062  0.0348
  781BOLB   C1D18741  16.645  24.158  26.667  0.2107  0.3490 -0.1184
  781BOLB   C2D18742  16.335  24.037  26.297  0.1674  0.4393  0.1888
  781BOLB   C3D18743  15.988  24.048  25.963 -0.1224 -0.0606  0.0716
  781BOLB   C4D18744  15.562  23.878  25.739 -0.0394 -0.4627 -0.0632
  782BOLB   NC118745  19.290  27.445  19.597 -0.0633 -0.1159 -0.1112
  782BOLB   PO118746  19.052  27.133  19.614  0.0787  0.2051 -0.0160
  782BOLB   GL118747  19.427  26.845  19.427  0.2248  0.0392 -0.1695
  782BOLB   GL218748  19.225  26.602  19.595 -0.0474  0.2654  0.0750
  782BOLB   C1A18749  19.565  26.496  19.194  0.0457  0.0790 -0.2153
  782BOLB   C2A18750  19.739  26.096  19.112 -0.2146 -0.0256  0.0297
  782BOLB   C3A18751  20.086  25.843  18.901 -0.2474 -0.2500 -0.1422
  782BOLB   C4A18752  20.069  25.615  18.445  0.1445 -0.0521 -0.0256
  782BOLB   C1B18753  19.223  26.183  19.671 -0.1140  0.1241 -0.1727
  782BOLB   C2B18754  19.283  25.684  19.659  0.0506 -0.0237 -0.0258
  782BOLB   C3B18755  19.463  25.451  19.250  0.2308  0.2931  0.0727
  782BOLB   C4B18756  19.247  25.530  18.886  0.3495  0.3706  0.3852
  782BOLB   NC218757  21.356  27.255  17.457 -0.0309 -0.1225  0.0306
  782BOLB   PO218758  20.924  27.328  17.259 -0.0527  0.0704  0.0809
  782BOLB   GL318759  20.826  26.947  17.366  0.1897 -0.0557 -0.2851
  782BOLB   GL418760  20.954  26.936  17.737  0.1378  0.0416 -0.0660
  782BOLB   C1C18761  20.663  26.589  17.569 -0.1382  0.0180  0.1567
  782BOLB   C2C18762  20.278  26.397  17.694  0.1656  0.0320 -0.1625
  782BOLB   C3C18763  20.178  25.999  17.905  0.2139  0.2418  0.0841
  782BOLB   C4C18764  20.034  25.671  18.056 -0.2657 -0.0225 -0.1621
  782BOLB   C1D18765  21.158  26.418  17.803 -0.1791  0.2092  0.0442
  782BOLB   C2D18766  21.387  26.012  17.907 -0.1856 -0.0552  0.0358
  782BOLB   C3D18767  21.492  25.569  18.081  0.0587 -0.2169  0.1334
  782BOLB   C4D18768  21.296  25.261  18.355 -0.1724 -0.1390  0.0654
  783BOLB   NC118769  12.188  24.896  23.027 -0.1812  0.1297 -0.4025
  783BOLB   PO118770  12.289  25.029  22.534  0.1207  0.0110 -0.1622
  783BOLB   GL118771  11.945  25.188  22.228  0.3116 -0.1930 -0.0356
  783BOLB   GL218772  11.943  25.555  22.126 -0.0718  0.0092  0.2815
  783BOLB   C1A18773  11.424  25.306  22.459 -0.0344 -0.0749 -0.0569
  783BOLB   C2A18774  11.003  25.130  22.272  0.0915 -0.1336 -0.1306
  783BOLB   C3A18775  11.053  25.429  21.933 -0.0902  0.0404  0.0989
  783BOLB   C4A18776  10.741  25.422  21.562 -0.1985  0.0915  0.0153
  783BOLB   C1B18777  11.532  25.600  22.029  0.1535  0.1424 -0.1545
  783BOLB   C2B18778  11.160  25.733  22.308 -0.2659 -0.3095  0.0348
  783BOLB   C3B18779  10.764  25.785  22.347  0.0991  0.0554  0.0548
  783BOLB   C4B18780  10.469  26.128  22.212  0.1385  0.0257  0.1475
  783BOLB   NC218781   8.842  26.996  21.025  0.2288  0.1414  0.1133
  783BOLB   PO218782   9.153  27.299  21.053 -0.0320 -0.0804 -0.1106
  783BOLB   GL318783   9.298  26.962  21.343 -0.2253  0.0905  0.1036
  783BOLB   GL418784   9.190  26.620  21.270 -0.0038 -0.2971  0.1482
  783BOLB   C1C18785   9.663  26.674  21.356 -0.0909  0.1963  0.1497
  783BOLB   C2C18786   9.806  26.334  21.102  0.1326 -0.3276  0.1463
  783BOLB   C3C18787  10.184  25.948  21.169 -0.0051 -0.1881  0.2988
  783BOLB   C4C18788  10.417  25.524  21.242  0.1538  0.0945 -0.0705
  783BOLB   C1D18789   9.398  26.178  21.377  0.1508  0.3059 -0.0987
  783BOLB   C2D18790   9.808  26.014  21.592  0.1492 -0.0990  0.1004
  783BOLB   C3D18791  10.070  25.636  21.532  0.1847  0.1447 -0.3042
  783BOLB   C4D18792   9.933  25.211  21.582  0.3356 -0.0953 -0.0954
  784BOLB   NC118793  12.714  27.758  22.074  0.3291 -0.1859 -0.0591
  784BOLB   PO118794  12.774  27.378  22.210 -0.2724  0.1022  0.1445
  784BOLB   GL118795  12.384  27.307  22.232 -0.3553 -0.2544  0.0352
  784BOLB   GL218796  12.403  27.261  22.522  0.2910  0.0401  0.3213
  784BOLB   C1A18797  12.170  27.057  21.943  0.3580 -0.2301 -0.1381
  784BOLB   C2A18798  11.827  26.787  21.825 -0.3170 -0.2625  0.0281
  784BOLB   C3A18799  11.422  26.638  22.026 -0.2958  0.0428  0.4368
  784BOLB   C4A18800  11.315  26.214  22.194 -0.0406 -0.2137  0.2164
  784BOLB   C1B18801  12.304  26.758  22.637 -0.1646  0.1713 -0.0740
  784BOLB   C2B18802  12.163  26.333  22.798  0.0938 -0.2296 -0.0651
  784BOLB   C3B18803  11.905  25.995  22.784  0.0808  0.1308 -0.1520
  784BOLB   C4B18804  11.579  25.835  22.531 -0.1708  0.0595 -0.0286
  784BOLB   NC218805  10.428  28.270  22.774  0.1173 -0.0496 -0.2668
  784BOLB   PO218806  10.647  27.804  22.782 -0.0970 -0.1515  0.0947
  784BOLB   GL318807  10.857  27.478  23.005 -0.1327 -0.2049  0.1500
  784BOLB   GL418808  11.194  27.437  22.962 -0.0226 -0.1416 -0.2807
  784BOLB   C1C18809  10.754  27.073  23.097  0.1833 -0.1372  0.3438
  784BOLB   C2C18810  11.028  26.753  22.946 -0.0075 -0.0298  0.0318
  784BOLB   C3C18811  10.941  26.429  22.750 -0.0824  0.0306 -0.1543
  784BOLB   C4C18812  11.170  26.114  22.604 -0.1270  0.4882  0.1211
  784BOLB   C1D18813  11.257  27.224  22.632  0.1977 -0.0160 -0.0343
  784BOLB   C2D18814  11.357  26.740  22.530 -0.2342  0.0012  0.0091
  784BOLB   C3D18815  11.461  26.452  22.876 -0.4206  0.1335  0.1421
  784BOLB   C4D18816  11.776  26.333  23.186 -0.2629  0.0096 -0.2716
  785BOLB   NC118817  17.978  26.768  22.426  0.1361 -0.1342 -0.0347
  785BOLB   PO118818  18.282  26.878  22.330 -0.3226 -0.2491 -0.0298
  785BOLB   GL118819  18.354  26.566  22.745  0.1759 -0.1160  0.1139
  785BOLB   GL218820  18.296  26.704  22.901  0.0895 -0.2094 -0.2401
  785BOLB   C1A18821  18.473  26.318  23.134  0.1653  0.0477 -0.3142
  785BOLB   C2A18822  18.762  26.433  23.421 -0.2067 -0.2018 -0.1508
  785BOLB   C3A18823  19.198  26.377  23.457  0.0434  0.0862 -0.1530
  785BOLB   C4A18824  19.540  26.317  23.728 -0.2193 -0.0998 -0.0329
  785BOLB   C1B18825  18.552  26.789  23.215 -0.1560  0.1857 -0.1422
  785BOLB   C2B18826  18.863  27.069  23.542  0.3158 -0.0592  0.3919
  785BOLB   C3B18827  19.221  27.304  23.655 -0.3863 -0.1380 -0.2521
  785BOLB   C4B18828  19.437  27.631  23.342 -0.0277 -0.2918  0.0950
  785BOLB   NC218829  20.794  28.052  24.607 -0.0459 -0.4593  0.2325
  785BOLB   PO218830  20.508  27.931  24.391 -0.2328 -0.1680 -0.0427
  785BOLB   GL318831  20.599  27.582  24.165 -0.0270  0.0791 -0.5015
  785BOLB   GL418832  20.649  27.734  23.942 -0.2170 -0.1700 -0.1407
  785BOLB   C1C18833  20.775  27.095  24.283  0.0221 -0.1448  0.0967
  785BOLB   C2C18834  20.701  26.708  24.223  0.2822 -0.0002 -0.2548
  785BOLB   C3C18835  20.373  26.540  24.005  0.2926  0.0599 -0.0125
  785BOLB   C4C18836  19.908  26.416  23.925  0.0151 -0.1564 -0.1383
  785BOLB   C1D18837  20.375  27.670  23.666  0.1297 -0.1190 -0.1312
  785BOLB   C2D18838  20.175  27.485  23.937 -0.1585  0.0449 -0.2135
  785BOLB   C3D18839  19.854  27.419  24.192 -0.3069 -0.0517  0.1507
  785BOLB   C4D18840  19.434  27.263  24.198  0.1451 -0.0800  0.2131
  786BOLB   NC118841  19.566  25.513  21.529  0.1963  0.4093  0.0536
  786BOLB   PO118842  19.197  25.732  21.668 -0.1076 -0.0649  0.1597
  786BOLB   GL118843  19.634  25.930  21.921  0.1656 -0.2856  0.0195
  786BOLB   GL218844  19.886  25.814  21.739 -0.4959  0.1216 -0.1854
  786BOLB   C1A18845  19.817  26.353  22.102 -0.2884  0.2191  0.1852
  786BOLB   C2A18846  20.095  26.579  22.347  0.1512  0.1186  0.0512
  786BOLB   C3A18847  20.402  26.594  22.667  0.3116 -0.1288 -0.1135
  786BOLB   C4A18848  20.673  26.420  22.991  0.0313 -0.0467 -0.5224
  786BOLB   C1B18849  20.066  25.875  22.165 -0.4710  0.0760  0.2890
  786BOLB   C2B18850  20.189  26.108  22.491 -0.2562  0.3872  0.3355
  786BOLB   C3B18851  20.511  26.001  22.810 -0.1708 -0.0744  0.0611
  786BOLB   C4B18852  20.395  25.758  23.174  0.0419  0.3330  0.0265
  786BOLB   NC218853  20.797  25.980  25.272 -0.0889 -0.0395  0.1144
  786BOLB   PO218854  21.200  25.742  25.192  0.2741 -0.1019 -0.1401
  786BOLB   GL318855  20.911  25.738  24.810  0.0138  0.1268  0.1174
  786BOLB   GL418856  20.932  25.363  24.677 -0.1511  0.0919  0.1959
  786BOLB   C1C18857  20.914  25.908  24.390  0.0218 -0.1092 -0.2537
  786BOLB   C2C18858  20.686  26.175  24.066  0.1274 -0.2716 -0.0630
  786BOLB   C3C18859  20.694  26.341  23.737 -0.5239  0.2329  0.0187
  786BOLB   C4C18860  20.567  26.232  23.376  0.2109  0.1061 -0.2821
  786BOLB   C1D18861  20.624  25.347  24.323 -0.2711  0.4830 -0.1089
  786BOLB   C2D18862  20.624  25.143  23.900  0.2938  0.1582 -0.0602
  786BOLB   C3D18863  20.744  24.684  23.824  0.0832  0.0648  0.1008
  786BOLB   C4D18864  21.094  24.439  24.005 -0.1677  0.1791 -0.0070
  787BOLB   NC118865  18.731  28.018  18.162  0.1918 -0.1991  0.5350
  787BOLB   PO118866  18.582  27.719  18.490  0.1873 -0.0110 -0.3264
  787BOLB   GL118867  18.410  27.307  18.517 -0.3076 -0.3299 -0.2545
  787BOLB   GL218868  18.150  27.320  18.360  0.1085  0.1879  0.2535
  787BOLB   C1A18869  18.677  26.918  18.604 -0.0998 -0.0248  0.0652
  787BOLB   C2A18870  18.977  26.569  18.654  0.1935 -0.0936  0.0527
  787BOLB   C3A18871  19.355  26.399  18.774  0.3188 -0.1070 -0.0169
  787BOLB   C4A18872  19.769  26.392  18.728 -0.1888  0.1675  0.1364
  787BOLB   C1B18873  18.147  26.798  18.407  0.3406  0.1566  0.1528
  787BOLB   C2B18874  18.441  26.460  18.583 -0.1881  0.0302 -0.2249
  787BOLB   C3B18875  18.472  26.108  18.358  0.2916  0.0277  0.0146
  787BOLB   C4B18876  18.717  25.999  18.200 -0.2761 -0.0555 -0.0850
  787BOLB   NC218877  20.722  27.989  18.305 -0.0303  0.1866 -0.0410
  787BOLB   PO218878  20.771  27.870  17.930 -0.3621  0.2158  0.1949
  787BOLB   GL318879  20.868  27.419  17.981 -0.0060 -0.4018 -0.1031
  787BOLB   GL418880  20.616  27.317  17.984 -0.1169  0.4024 -0.3181
  787BOLB   C1C18881  20.985  26.979  18.238  0.2592  0.0035 -0.0676
  787BOLB   C2C18882  21.003  26.608  18.437 -0.0195  0.0758 -0.0525
  787BOLB   C3C18883  20.599  26.343  18.556  0.2359 -0.0463 -0.1354
  787BOLB   C4C18884  20.216  26.314  18.741 -0.0111  0.1076  0.2815
  787BOLB   C1D18885  20.554  26.829  18.004 -0.2205  0.3136  0.2420
  787BOLB   C2D18886  20.756  26.397  18.084 -0.1059 -0.1103 -0.1634
  787BOLB   C3D18887  20.750  25.985  17.902  0.0729 -0.1924 -0.0055
  787BOLB   C4D18888  20.973  25.670  17.673  0.0027  0.2090  0.0207
  788BOLB   NC118889  25.302   7.489  17.859  0.1252 -0.0245  0.0938
  788BOLB   PO118890  25.150   7.281  18.276  0.0114  0.1615 -0.3719
  788BOLB   GL118891  24.705   7.613  18.537 -0.3451  0.1240  0.1393
  788BOLB   GL218892  24.693   7.972  18.576  0.0224  0.1108  0.0011
  788BOLB   C1A18893  24.249   7.505  18.682  0.1575  0.1950  0.0353
  788BOLB   C2A18894  23.886   7.651  18.886 -0.0640 -0.0774 -0.1967
  788BOLB   C3A18895  23.731   7.748  19.311 -0.2600  0.2267  0.2082
  788BOLB   C4A18896  24.018   7.815  19.651 -0.1247  0.2887  0.1093
  788BOLB   C1B18897  24.256   8.045  18.791  0.0639 -0.0864  0.0533
  788BOLB   C2B18898  23.981   8.243  19.102 -0.0488  0.1013 -0.1294
  788BOLB   C3B18899  24.016   8.337  19.566  0.1409 -0.2110  0.0949
  788BOLB   C4B18900  23.968   8.198  19.975  0.2598 -0.0043 -0.2059
  788BOLB   NC218901  26.947   8.991  20.258 -0.2197 -0.1653 -0.0370
  788BOLB   PO218902  26.535   8.828  20.077  0.0754 -0.2360 -0.2245
  788BOLB   GL318903  26.071   8.701  20.150 -0.2172  0.3197 -0.0097
  788BOLB   GL418904  25.876   8.843  20.397 -0.5578 -0.0551  0.1242
  788BOLB   C1C18905  25.519   8.523  20.192  0.0235  0.1717 -0.0186
  788BOLB   C2C18906  25.094   8.421  20.218  0.2121  0.0638  0.1224
  788BOLB   C3C18907  24.767   8.094  20.061  0.0713  0.5491 -0.2053
  788BOLB   C4C18908  24.409   7.956  19.825 -0.2616 -0.0140 -0.0444
  788BOLB   C1D18909  25.815   9.097  20.686 -0.2792 -0.4996  0.0258
  788BOLB   C2D18910  25.682   9.439  20.785  0.3980 -0.0258  0.1654
  788BOLB   C3D18911  25.326   9.774  20.563  0.2171  0.3412  0.4006
  788BOLB   C4D18912  25.032   9.806  20.757  0.0421  0.0066 -0.1828
  789BOLB   NC118913  23.172   9.976  18.237 -0.1447  0.3035 -0.1297
  789BOLB   PO118914  22.789   9.853  18.260 -0.1252 -0.0848 -0.2744
  789BOLB   GL118915  22.868   9.534  18.284 -0.1873  0.1158  0.0700
  789BOLB   GL218916  22.644   9.220  18.307  0.2270  0.2084 -0.3418
  789BOLB   C1A18917  23.059   9.194  18.483  0.0278  0.3295  0.2626
  789BOLB   C2A18918  23.008   8.791  18.466 -0.0439 -0.0156  0.1607
  789BOLB   C3A18919  22.975   8.328  18.340  0.0278  0.0657  0.0474
  789BOLB   C4A18920  23.047   7.882  18.185  0.0877 -0.0675  0.4401
  789BOLB   C1B18921  22.502   8.806  18.449  0.0409 -0.0053  0.1048
  789BOLB   C2B18922  22.483   8.480  18.142 -0.1683 -0.2107 -0.1726
  789BOLB   C3B18923  22.594   8.017  17.992 -0.0236 -0.0433 -0.1640
  789BOLB   C4B18924  22.484   7.586  17.884 -0.2397 -0.1340  0.0411
  789BOLB   NC218925  23.899   5.834  17.479  0.1332  0.2761 -0.2053
  789BOLB   PO218926  23.461   5.716  17.366  0.1564  0.0835  0.3069
  789BOLB   GL318927  23.411   6.142  17.496 -0.1027 -0.0345  0.2441
  789BOLB   GL418928  23.725   6.312  17.407 -0.2353  0.3216  0.3763
  789BOLB   C1C18929  23.152   6.432  17.530 -0.3458  0.2220  0.2368
  789BOLB   C2C18930  22.917   6.694  17.619 -0.0279 -0.0749 -0.0900
  789BOLB   C3C18931  23.044   7.073  17.682 -0.2463 -0.1399  0.0161
  789BOLB   C4C18932  23.031   7.508  17.808 -0.2108  0.2403 -0.3354
  789BOLB   C1D18933  23.377   6.517  17.124  0.0682 -0.0754 -0.1748
  789BOLB   C2D18934  22.906   6.606  17.017 -0.1385  0.1855 -0.1103
  789BOLB   C3D18935  22.564   6.325  16.836  0.1645  0.3201 -0.1084
  789BOLB   C4D18936  22.307   6.174  16.499  0.2992 -0.0384  0.1682
  790BOLB   NC118937  23.922  12.127  19.939 -0.0091 -0.0926 -0.2515
  790BOLB   PO118938  23.978  12.556  20.108  0.1248  0.1138  0.1724
  790BOLB   GL118939  24.285  12.430  20.277  0.0544 -0.1238 -0.1216
  790BOLB   GL218940  24.379  12.134  20.233 -0.3022  0.0901  0.0953
  790BOLB   C1A18941  24.541  12.202  20.670  0.2375  0.1689  0.1349
  790BOLB   C2A18942  24.712  12.319  21.112  0.0282 -0.2140  0.0757
  790BOLB   C3A18943  24.961  12.035  21.396  0.2864  0.4730  0.4030
  790BOLB   C4A18944  25.051  11.649  21.551 -0.2663  0.0262  0.0174
  790BOLB   C1B18945  24.279  11.779  20.440  0.2341  0.1463 -0.1094
  790BOLB   C2B18946  24.243  11.526  20.843  0.2055  0.0542  0.2552
  790BOLB   C3B18947  24.147  11.165  21.121 -0.0408  0.1235  0.2942
  790BOLB   C4B18948  24.190  10.698  21.271 -0.0655 -0.1757 -0.2696
  790BOLB   NC218949  26.033   9.967  22.767  0.1211  0.0535  0.2621
  790BOLB   PO218950  25.934  10.376  23.022 -0.2809  0.0665  0.3315
  790BOLB   GL318951  25.972  10.780  22.906 -0.1914  0.0627  0.0515
  790BOLB   GL418952  26.161  10.937  22.710  0.5399  0.0286 -0.1714
  790BOLB   C1C18953  25.623  11.040  22.847  0.0584 -0.0928 -0.1450
  790BOLB   C2C18954  25.284  10.979  22.434 -0.0957  0.3154 -0.2251
  790BOLB   C3C18955  25.076  11.063  21.977  0.1188 -0.1894  0.1142
  790BOLB   C4C18956  24.928  11.228  21.660 -0.0767 -0.0404  0.0991
  790BOLB   C1D18957  25.896  11.023  22.368 -0.5939  0.4458 -0.0504
  790BOLB   C2D18958  25.568  11.064  22.055  0.3900  0.1052 -0.1487
  790BOLB   C3D18959  25.473  11.376  21.758  0.3220  0.5000 -0.0497
  790BOLB   C4D18960  25.533  11.716  21.557  0.1404  0.1315  0.0821
  791BOLB   NC118961  28.321  12.841  18.182  0.1046 -0.2307  0.2099
  791BOLB   PO118962  28.386  13.078  17.827 -0.0108 -0.0786  0.1301
  791BOLB   GL118963  28.297  13.550  17.732  0.1085 -0.3572 -0.1560
  791BOLB   GL218964  27.936  13.667  17.724 -0.0950 -0.3834 -0.1146
  791BOLB   C1A18965  28.303  13.996  17.736  0.0699  0.0236 -0.1802
  791BOLB   C2A18966  28.298  14.460  17.806  0.2380 -0.2869 -0.1077
  791BOLB   C3A18967  27.943  14.682  17.642 -0.0688  0.1133  0.1805
  791BOLB   C4A18968  27.526  14.814  17.825 -0.2961 -0.0440  0.0693
  791BOLB   C1B18969  27.730  13.556  17.345 -0.2763 -0.0282 -0.0234
  791BOLB   C2B18970  27.609  13.744  16.973  0.1165  0.2853  0.2040
  791BOLB   C3B18971  27.913  13.726  16.563 -0.2468  0.3123 -0.0766
  791BOLB   C4B18972  28.237  13.983  16.422  0.2026  0.0627 -0.3353
  791BOLB   NC218973  28.769  15.454  18.826  0.2614  0.0483  0.2340
  791BOLB   PO218974  28.852  15.879  18.913  0.0096 -0.5403 -0.1405
  791BOLB   GL318975  28.433  15.900  18.849 -0.1189  0.1476 -0.2185
  791BOLB   GL418976  28.534  15.801  18.512  0.2309 -0.0194 -0.2556
  791BOLB   C1C18977  28.043  16.075  18.823 -0.0703 -0.2293  0.1471
  791BOLB   C2C18978  27.790  15.918  18.410 -0.2353  0.1249  0.0751
  791BOLB   C3C18979  27.630  15.602  18.121 -0.1359 -0.1679  0.1239
  791BOLB   C4C18980  27.569  15.179  18.131 -0.4893 -0.0181 -0.3109
  791BOLB   C1D18981  28.144  15.526  18.684  0.4156  0.0324 -0.1224
  791BOLB   C2D18982  27.785  15.363  18.560  0.3088  0.0148 -0.1021
  791BOLB   C3D18983  27.340  15.257  18.651 -0.1107  0.3391  0.1426
  791BOLB   C4D18984  27.096  14.920  18.825 -0.0765  0.1564  0.2491
  792BOLB   NC118985  26.268  12.961  17.400  0.2180  0.0308 -0.0371
  792BOLB   PO118986  26.446  12.830  17.701 -0.0523 -0.1934 -0.2864
  792BOLB   GL118987  26.705  13.248  17.856  0.0570 -0.4183 -0.1187
  792BOLB   GL218988  26.638  13.275  18.256  0.1972 -0.1215 -0.2095
  792BOLB   C1A18989  26.978  13.663  17.775  0.4392 -0.2223 -0.4339
  792BOLB   C2A18990  27.011  14.124  17.752 -0.1419  0.1226  0.4433
  792BOLB   C3A18991  26.879  14.570  17.768 -0.1147  0.2559 -0.1700
  792BOLB   C4A18992  27.048  14.984  17.753 -0.1805  0.0577 -0.2134
  792BOLB   C1B18993  26.580  13.597  18.657  0.2848  0.0690  0.2066
  792BOLB   C2B18994  26.802  13.910  18.751  0.2152 -0.1824  0.2466
  792BOLB   C3B18995  27.009  14.114  19.067 -0.3552  0.1467 -0.0367
  792BOLB   C4B18996  27.049  14.230  19.406  0.0946 -0.1125  0.2016
  792BOLB   NC218997  28.885  16.631  16.906 -0.2240 -0.1078 -0.2958
  792BOLB   PO218998  28.881  16.366  17.260 -0.0648 -0.3188  0.0580
  792BOLB   GL318999  28.447  16.467  17.164  0.1836 -0.2276  0.0727
  792BOLB   GL419000  28.329  16.706  17.057 -0.0538 -0.3104 -0.0564
  792BOLB   C1C19001  27.995  16.332  17.215 -0.1647 -0.1618  0.0271
  792BOLB   C2C19002  27.739  16.043  17.356  0.1374  0.1978  0.0722
  792BOLB   C3C19003  27.467  15.720  17.673  0.0252 -0.0279 -0.2256
  792BOLB   C4C19004  27.307  15.332  17.714 -0.0813 -0.0137  0.0931
  792BOLB   C1D19005  27.865  16.714  16.895  0.0213  0.1436  0.0976
  792BOLB   C2D19006  27.496  16.680  17.018 -0.2000 -0.0026 -0.2993
  792BOLB   C3D19007  27.058  16.540  17.253 -0.2062  0.0181  0.0217
  792BOLB   C4D19008  26.977  16.412  17.742 -0.1225 -0.0963 -0.0602
  793BOLB   NC119009  24.225  16.164  19.517 -0.2446 -0.1221 -0.2598
  793BOLB   PO119010  24.186  16.562  19.645 -0.3920  0.1921  0.0255
  793BOLB   GL119011  24.578  16.427  19.767 -0.0152  0.4592  0.0536
  793BOLB   GL219012  24.534  16.323  20.003  0.1047 -0.0600 -0.0543
  793BOLB   C1A19013  24.932  16.695  19.751 -0.3432 -0.2819  0.0916
  793BOLB   C2A19014  25.167  17.035  19.850 -0.0759 -0.1546  0.2745
  793BOLB   C3A19015  25.613  17.267  19.879  0.1353  0.2689 -0.0004
  793BOLB   C4A19016  26.017  17.420  20.003  0.0949  0.1392  0.1158
  793BOLB   C1B19017  24.874  16.421  20.252 -0.1786 -0.1380 -0.0039
  793BOLB   C2B19018  25.267  16.496  20.650 -0.2050  0.0170  0.0428
  793BOLB   C3B19019  25.433  16.904  20.659 -0.2599 -0.2725 -0.0377
  793BOLB   C4B19020  25.369  17.288  20.970 -0.1410  0.1196 -0.3952
  793BOLB   NC219021  27.503  18.354  20.966 -0.1182 -0.2177 -0.1240
  793BOLB   PO219022  27.931  18.052  20.918  0.2594 -0.0621  0.0462
  793BOLB   GL319023  27.716  17.844  20.681  0.1032  0.1491  0.4509
  793BOLB   GL419024  27.429  17.839  20.950 -0.0118  0.1839 -0.0276
  793BOLB   C1C19025  27.429  17.706  20.391  0.5390  0.0510 -0.2027
  793BOLB   C2C19026  27.223  17.359  20.224  0.2799 -0.2561  0.0028
  793BOLB   C3C19027  26.793  17.272  20.085  0.3531  0.0640  0.4298
  793BOLB   C4C19028  26.423  17.350  20.177  0.0544 -0.0938  0.0197
  793BOLB   C1D19029  27.007  17.759  20.787 -0.1191  0.1612  0.0670
  793BOLB   C2D19030  26.660  17.691  20.473  0.1482 -0.0690  0.0379
  793BOLB   C3D19031  26.258  17.867  20.382 -0.1736  0.3051  0.1831
  793BOLB   C4D19032  25.974  17.921  20.152 -0.1073 -0.0220  0.0455
  794BOLB   NC119033  22.692  21.298  17.460 -0.1753  0.3847  0.0029
  794BOLB   PO119034  22.986  21.483  17.777 -0.2657  0.1596  0.2473
  794BOLB   GL119035  23.363  21.418  17.790  0.2085 -0.2085  0.2678
  794BOLB   GL219036  23.410  21.783  17.891  0.1480 -0.0601 -0.1654
  794BOLB   C1A19037  23.791  21.598  17.737  0.0501  0.2344  0.1603
  794BOLB   C2A19038  24.179  21.868  17.536 -0.0958  0.1401  0.0591
  794BOLB   C3A19039  24.549  22.059  17.404  0.0234 -0.2985 -0.1152
  794BOLB   C4A19040  24.916  22.255  17.635 -0.1157 -0.1284  0.0981
  794BOLB   C1B19041  23.791  22.075  17.864 -0.1064  0.2888 -0.1206
  794BOLB   C2B19042  24.062  22.330  17.684 -0.2417  0.1216  0.1918
  794BOLB   C3B19043  24.415  22.424  17.783 -0.0709 -0.1788 -0.1376
  794BOLB   C4B19044  24.693  22.836  17.886 -0.1353  0.1547 -0.1256
  794BOLB   NC219045  25.921  24.151  19.165  0.0970  0.2078  0.1283
  794BOLB   PO219046  26.169  23.778  19.112  0.2784 -0.0240  0.2781
  794BOLB   GL319047  26.028  23.438  18.974 -0.2856  0.1582  0.0739
  794BOLB   GL419048  26.096  23.183  19.040 -0.0052  0.1505 -0.2010
  794BOLB   C1C19049  25.767  23.245  18.636 -0.0973  0.0543 -0.0919
  794BOLB   C2C19050  25.583  22.840  18.514  0.3479  0.1378 -0.1790
  794BOLB   C3C19051  25.186  22.734  18.190 -0.1459 -0.1943  0.2105
  794BOLB   C4C19052  25.023  22.499  17.858  0.1501  0.0364 -0.3085
  794BOLB   C1D19053  25.708  23.197  19.177  0.1529 -0.3941  0.1044
  794BOLB   C2D19054  25.333  23.034  19.094 -0.0281  0.2135 -0.6197
  794BOLB   C3D19055  24.959  22.842  19.220 -0.2570 -0.2170  0.0539
  794BOLB   C4D19056  24.602  22.630  19.395 -0.0332  0.1680 -0.0116
  795BOLB   NC119057  23.624  11.778  19.202  0.2204 -0.0445  0.0169
  795BOLB   PO119058  23.589  11.356  19.348 -0.4335  0.1508  0.0717
  795BOLB   GL119059  23.455  11.098  19.558  0.2092 -0.0687  0.1714
  795BOLB   GL219060  23.513  11.301  19.837 -0.1901  0.2204 -0.2343
  795BOLB   C1A19061  23.748  10.798  19.855  0.1586  0.0876 -0.0062
  795BOLB   C2A19062  23.764  10.716  20.281 -0.4027  0.1470 -0.0301
  795BOLB   C3A19063  24.028  10.661  20.609 -0.2913  0.1589 -0.3024
  795BOLB   C4A19064  24.338  10.318  20.949 -0.2394 -0.1950 -0.0516
  795BOLB   C1B19065  23.754  11.186  20.208 -0.2238 -0.1109  0.0318
  795BOLB   C2B19066  23.818  11.247  20.720  0.0006  0.2593  0.1177
  795BOLB   C3B19067  23.733  10.904  21.050  0.0256 -0.2699  0.1248
  795BOLB   C4B19068  23.658  10.530  21.210  0.0256 -0.1399 -0.1349
  795BOLB   NC219069  24.901   9.433  23.462  0.2765 -0.0531 -0.0565
  795BOLB   PO219070  24.878   9.514  23.029 -0.0146  0.0029  0.0399
  795BOLB   GL319071  24.881   9.815  22.723  0.3152 -0.0421  0.0751
  795BOLB   GL419072  24.983  10.137  22.683  0.0909  0.3209 -0.4042
  795BOLB   C1C19073  24.563   9.764  22.355 -0.0037  0.0434  0.0318
  795BOLB   C2C19074  24.472  10.008  21.991 -0.3121  0.0490 -0.1446
  795BOLB   C3C19075  24.619  10.180  21.660 -0.0340  0.0190  0.0606
  795BOLB   C4C19076  24.455  10.219  21.314 -0.1042 -0.0627 -0.3115
  795BOLB   C1D19077  24.627  10.323  22.440 -0.0330  0.2649 -0.2082
  795BOLB   C2D19078  24.317  10.283  22.371  0.1504  0.3552  0.3321
  795BOLB   C3D19079  24.232  10.467  21.929 -0.1658 -0.2166  0.0749
  795BOLB   C4D19080  24.040  10.352  21.554 -0.0397  0.1778 -0.0422
  796BOLB   NC119081  21.288  23.346  18.140  0.1424  0.1798 -0.0684
  796BOLB   PO119082  21.717  23.399  17.877  0.0099  0.1570 -0.0883
  796BOLB   GL119083  22.093  23.638  17.954 -0.0416  0.0085 -0.0745
  796BOLB   GL219084  22.372  23.455  17.810 -0.0286  0.0378 -0.2895
  796BOLB   C1A19085  22.288  24.057  17.934  0.0208  0.3543  0.2069
  796BOLB   C2A19086  22.485  24.403  17.794  0.0145 -0.1387 -0.2044
  796BOLB   C3A19087  22.899  24.706  17.910 -0.2767  0.2732  0.0460
  796BOLB   C4A19088  23.088  24.965  17.694  0.0060  0.0175 -0.0094
  796BOLB   C1B19089  22.733  23.714  17.895  0.1357 -0.0341  0.1780
  796BOLB   C2B19090  23.182  23.855  17.774  0.1785 -0.1033 -0.4130
  796BOLB   C3B19091  23.590  24.094  17.934  0.0072 -0.1430  0.1786
  796BOLB   C4B19092  23.884  24.292  18.069  0.1054  0.0463 -0.2803
  796BOLB   NC219093  24.879  26.260  17.906  0.1722 -0.2033  0.0312
  796BOLB   PO219094  24.830  26.041  18.394 -0.2454 -0.2631 -0.0632
  796BOLB   GL319095  24.637  25.679  18.547 -0.0363  0.0232 -0.1844
  796BOLB   GL419096  24.414  25.694  18.860  0.1613  0.1490  0.0935
  796BOLB   C1C19097  24.410  25.373  18.335 -0.1957 -0.1275 -0.1253
  796BOLB   C2C19098  24.134  25.279  17.891 -0.1926  0.0808 -0.1335
  796BOLB   C3C19099  23.743  25.401  17.821 -0.2830  0.4689  0.0927
  796BOLB   C4C19100  23.330  25.326  17.720  0.0080  0.2693  0.1076
  796BOLB   C1D19101  24.159  25.403  18.839  0.0765 -0.0953  0.2587
  796BOLB   C2D19102  23.866  25.150  18.652  0.1766 -0.1466  0.0453
  796BOLB   C3D19103  23.721  24.727  18.931 -0.4763  0.0196  0.1678
  796BOLB   C4D19104  23.386  24.513  18.975  0.0834  0.1210  0.0156
  797BOLB   NC119105  27.093  12.293  18.997  0.0485  0.2965 -0.0095
  797BOLB   PO119106  27.419  12.191  19.191  0.0429  0.0102 -0.0361
  797BOLB   GL119107  27.291  12.529  19.426 -0.0581 -0.3289  0.0945
  797BOLB   GL219108  26.935  12.440  19.391  0.1404 -0.1919  0.1715
  797BOLB   C1A19109  27.489  12.841  19.596 -0.2174 -0.2443  0.0129
  797BOLB   C2A19110  27.562  13.224  19.481  0.0895 -0.0884  0.0163
  797BOLB   C3A19111  27.797  13.426  19.168  0.0417  0.0360  0.2761
  797BOLB   C4A19112  27.564  13.684  18.921 -0.2054  0.1809  0.0904
  797BOLB   C1B19113  26.735  12.511  19.763  0.2924  0.2178 -0.0338
  797BOLB   C2B19114  26.922  12.562  20.203 -0.2748  0.1041 -0.0603
  797BOLB   C3B19115  26.924  12.327  20.674 -0.0534  0.1752  0.1357
  797BOLB   C4B19116  26.775  12.206  21.058  0.2294  0.1370  0.0905
  797BOLB   NC219117  29.510  14.601  18.717  0.0095 -0.0870  0.2756
  797BOLB   PO219118  29.140  14.616  18.401 -0.0843  0.1070  0.1596
  797BOLB   GL319119  28.801  14.646  18.333 -0.0004 -0.2081 -0.2828
  797BOLB   GL419120  28.582  14.516  18.187  0.0029  0.1805  0.0292
  797BOLB   C1C19121  28.424  14.666  18.707 -0.0072 -0.1938 -0.1430
  797BOLB   C2C19122  27.978  14.541  18.782 -0.1597 -0.1825 -0.0705
  797BOLB   C3C19123  27.555  14.326  18.601  0.1768 -0.0803  0.1915
  797BOLB   C4C19124  27.317  13.963  18.669 -0.3157  0.0714  0.2107
  797BOLB   C1D19125  28.528  14.914  17.997 -0.1061  0.2795 -0.0422
  797BOLB   C2D19126  28.702  15.345  18.034 -0.1378 -0.0741 -0.1890
  797BOLB   C3D19127  28.876  15.441  17.546  0.0313 -0.2205  0.0020
  797BOLB   C4D19128  28.870  15.201  17.128  0.0757  0.0122  0.0150
  798BOLB   NC119129  25.633  13.424  18.955  0.0187 -0.1010  0.0172
  798BOLB   PO119130  25.258  13.616  18.897  0.1456  0.4867 -0.1250
  798BOLB   GL119131  25.536  13.851  19.177 -0.1817 -0.1342 -0.0135
  798BOLB   GL219132  25.474  13.732  19.412 -0.0786  0.0588 -0.1318
  798BOLB   C1A19133  26.004  13.968  19.223 -0.1761 -0.0605  0.0183
  798BOLB   C2A19134  26.444  14.210  19.243 -0.0880 -0.1032  0.1384
  798BOLB   C3A19135  26.682  14.553  19.141  0.0128 -0.0745 -0.1800
  798BOLB   C4A19136  26.823  15.023  19.215 -0.2704 -0.1228 -0.0958
  798BOLB   C1B19137  25.618  14.107  19.670 -0.2841  0.0041  0.0438
  798BOLB   C2B19138  25.684  14.432  19.997  0.0641  0.0584 -0.0707
  798BOLB   C3B19139  25.426  14.532  20.336 -0.1178 -0.1136  0.3120
  798BOLB   C4B19140  25.135  14.287  20.564  0.0046  0.3298  0.1678
  798BOLB   NC219141  28.333  16.420  20.349  0.0613 -0.2263  0.0303
  798BOLB   PO219142  28.513  16.149  20.072  0.2223 -0.2396 -0.0220
  798BOLB   GL319143  28.065  16.024  20.107 -0.1498 -0.0763  0.1217
  798BOLB   GL419144  27.865  16.202  20.293 -0.2393  0.0241  0.0634
  798BOLB   C1C19145  27.583  16.045  19.910 -0.1195 -0.0822 -0.3249
  798BOLB   C2C19146  27.203  15.772  19.908  0.1288  0.1248 -0.0354
  798BOLB   C3C19147  26.949  15.421  19.920 -0.0831  0.2788  0.0987
  798BOLB   C4C19148  26.882  15.262  19.583  0.0349  0.2081  0.1583
  798BOLB   C1D19149  27.403  16.166  20.456 -0.1604 -0.0248  0.2012
  798BOLB   C2D19150  27.020  16.088  20.588  0.2495 -0.0962 -0.2153
  798BOLB   C3D19151  26.702  16.427  20.581  0.0883  0.0235  0.3611
  798BOLB   C4D19152  26.548  16.873  20.387  0.0173  0.2752 -0.0168
  799BOLB   NC119153  26.146   9.197  18.768  0.2238 -0.1172 -0.1784
  799BOLB   PO119154  25.928   9.488  18.919  0.1436 -0.0236  0.0956
  799BOLB   GL119155  25.587   9.646  19.046 -0.0450  0.1525  0.1994
  799BOLB   GL219156  25.600   9.778  19.241 -0.1056 -0.0650  0.1252
  799BOLB   C1A19157  25.240   9.975  18.989  0.0251  0.1443 -0.2553
  799BOLB   C2A19158  25.219  10.381  19.254 -0.0941 -0.1860  0.2302
  799BOLB   C3A19159  25.243  10.207  19.578  0.1112  0.0645 -0.2789
  799BOLB   C4A19160  25.237   9.894  19.967 -0.1569  0.0126  0.0093
  799BOLB   C1B19161  25.751  10.283  19.162  0.0683  0.0249 -0.4099
  799BOLB   C2B19162  25.560  10.728  19.472 -0.0935 -0.1562 -0.1511
  799BOLB   C3B19163  25.408  10.819  19.753 -0.1012  0.0388 -0.0451
  799BOLB   C4B19164  25.255  10.733  20.272 -0.0216  0.2464  0.0791
  799BOLB   NC219165  25.584   8.273  22.108  0.0952  0.1085 -0.2545
  799BOLB   PO219166  25.709   8.087  21.646 -0.2300 -0.3577 -0.0491
  799BOLB   GL319167  25.563   8.324  21.369 -0.3038 -0.0122  0.0050
  799BOLB   GL419168  25.318   8.464  21.619 -0.0227 -0.0330  0.4390
  799BOLB   C1C19169  25.578   8.710  21.159  0.0221  0.1355  0.2762
  799BOLB   C2C19170  25.326   9.030  20.946 -0.0623 -0.0100 -0.1404
  799BOLB   C3C19171  25.131   9.289  20.537 -0.1969 -0.1285 -0.0584
  799BOLB   C4C19172  25.115   9.531  20.133 -0.1601 -0.1203  0.6314
  799BOLB   C1D19173  25.083   8.866  21.382 -0.0439 -0.0122 -0.2635
  799BOLB   C2D19174  24.908   9.146  21.198  0.0861 -0.3477 -0.1921
  799BOLB   C3D19175  24.776   9.430  20.872  0.0616 -0.0342  0.0312
  799BOLB   C4D19176  24.638   9.356  20.434 -0.3618 -0.0356  0.0652
  800BOLB   NC119177  24.511  17.641  17.032  0.1460 -0.4158 -0.1446
  800BOLB   PO119178  24.540  18.045  17.173  0.1142 -0.1763  0.3127
  800BOLB   GL119179  24.862  18.108  17.265 -0.1532  0.0797  0.0988
  800BOLB   GL219180  24.974  18.165  16.928 -0.0954  0.0551 -0.2741
  800BOLB   C1A19181  25.306  18.245  17.361  0.1902  0.1540  0.1429
  800BOLB   C2A19182  25.582  18.515  17.595  0.0805  0.1942 -0.1448
  800BOLB   C3A19183  25.944  18.551  17.964  0.1677 -0.0104 -0.0405
  800BOLB   C4A19184  26.296  18.859  18.043  0.1770 -0.0209  0.0700
  800BOLB   C1B19185  25.437  18.408  16.888  0.0545  0.2309 -0.0165
  800BOLB   C2B19186  25.782  18.497  17.193 -0.1650 -0.0345  0.1380
  800BOLB   C3B19187  26.064  18.558  17.469  0.2506  0.0446  0.0217
  800BOLB   C4B19188  26.491  18.621  17.679  0.2305  0.2007 -0.3761
  800BOLB   NC219189  27.855  20.678  18.588 -0.1044  0.1148 -0.2090
  800BOLB   PO219190  28.032  20.369  18.450 -0.3653  0.2240  0.0636
  800BOLB   GL319191  27.725  20.191  18.448 -0.0093 -0.2140  0.2022
  800BOLB   GL419192  27.741  20.019  18.771 -0.1359 -0.1038 -0.2041
  800BOLB   C1C19193  27.637  19.794  18.241 -0.0390 -0.2570 -0.0313
  800BOLB   C2C19194  27.208  19.553  18.042 -0.0801 -0.1756 -0.2699
  800BOLB   C3C19195  26.929  19.354  17.762  0.2220  0.2700  0.0531
  800BOLB   C4C19196  26.460  19.168  17.772 -0.1216 -0.0573 -0.0506
  800BOLB   C1D19197  27.307  19.918  18.559 -0.1325  0.0674  0.0731
  800BOLB   C2D19198  27.058  19.497  18.644  0.0456  0.0107 -0.1913
  800BOLB   C3D19199  26.793  19.217  18.349 -0.1247  0.4047  0.1447
  800BOLB   C4D19200  26.843  18.827  18.043 -0.0124 -0.4413 -0.2573
  801BOLB   NC119201  22.284  22.696  18.273  0.2422 -0.1822  0.0325
  801BOLB   PO119202  22.071  22.822  18.628 -0.2024 -0.1173  0.1626
  801BOLB   GL119203  22.346  23.096  18.704 -0.2895  0.0594  0.2265
  801BOLB   GL219204  22.646  22.902  18.500  0.2191  0.2197  0.0310
  801BOLB   C1A19205  22.602  23.383  18.854  0.3079  0.1270 -0.1484
  801BOLB   C2A19206  22.913  23.721  18.815 -0.0663 -0.1095  0.1584
  801BOLB   C3A19207  23.307  23.938  18.817  0.0556 -0.3482  0.1789
  801BOLB   C4A19208  23.742  24.109  18.876  0.0156 -0.3146 -0.1667
  801BOLB   C1B19209  23.015  23.327  18.383 -0.0908  0.1933 -0.0547
  801BOLB   C2B19210  23.131  23.807  18.352  0.3240 -0.0776  0.0418
  801BOLB   C3B19211  23.307  24.293  18.482  0.0868 -0.0019 -0.0464
  801BOLB   C4B19212  23.726  24.409  18.545  0.0748 -0.4688  0.2133
  801BOLB   NC219213  26.416  24.853  19.721 -0.0290 -0.0745  0.0168
  801BOLB   PO219214  25.981  24.534  19.710 -0.1516  0.0891  0.1764
  801BOLB   GL319215  25.602  24.367  19.620 -0.1175 -0.1656 -0.1348
  801BOLB   GL419216  25.537  23.962  19.526  0.0800 -0.0634 -0.0221
  801BOLB   C1C19217  25.125  24.255  19.706 -0.1280  0.0390  0.0790
  801BOLB   C2C19218  24.716  24.117  19.602  0.2854  0.0913  0.0939
  801BOLB   C3C19219  24.379  24.335  19.299  0.4721 -0.1381 -0.0082
  801BOLB   C4C19220  24.102  24.378  18.900 -0.3276  0.0635  0.0121
  801BOLB   C1D19221  25.274  23.817  19.224  0.2019  0.2415  0.0349
  801BOLB   C2D19222  24.866  23.854  19.183 -0.1565  0.1751  0.0001
  801BOLB   C3D19223  24.522  23.955  18.895  0.3843 -0.1888  0.2371
  801BOLB   C4D19224  24.254  24.113  18.518  0.0089  0.0926 -0.4774
  802BOLB   NC119225  26.398   8.342  19.912  0.0474  0.0566 -0.0577
  802BOLB   PO119226  26.127   8.181  19.579 -0.0428 -0.1693  0.1110
  802BOLB   GL119227  25.781   8.509  19.626 -0.1443 -0.0863 -0.3165
  802BOLB   GL219228  25.867   8.615  19.425 -0.3001 -0.1887  0.1240
  802BOLB   C1A19229  25.605   8.852  19.809 -0.0170  0.0556 -0.1125
  802BOLB   C2A19230  25.603   9.208  20.134 -0.0668  0.2517  0.0372
  802BOLB   C3A19231  25.863   9.508  20.148 -0.0546  0.1134  0.1018
  802BOLB   C4A19232  26.073   9.723  20.442 -0.0927  0.4693  0.1565
  802BOLB   C1B19233  25.402   8.567  19.376 -0.1634 -0.2977  0.0827
  802BOLB   C2B19234  25.122   8.612  19.722  0.2029 -0.3405  0.1907
  802BOLB   C3B19235  24.730   8.578  19.905  0.2546  0.2726 -0.0433
  802BOLB   C4B19236  24.398   8.421  20.225  0.0912 -0.0528  0.1173
  802BOLB   NC219237  27.232  10.401  20.587  0.3275 -0.1975  0.1327
  802BOLB   PO219238  27.447  10.883  20.585  0.5771  0.1446  0.1849
  802BOLB   GL319239  27.160  11.052  20.333  0.1366  0.2760 -0.0130
  802BOLB   GL419240  27.090  11.389  20.271 -0.1060  0.1908  0.2083
  802BOLB   C1C19241  26.686  11.100  20.330 -0.1259  0.2814  0.0798
  802BOLB   C2C19242  26.405  10.946  20.622  0.1248  0.1117 -0.0010
  802BOLB   C3C19243  26.284  10.536  20.662  0.0565 -0.1724  0.0905
  802BOLB   C4C19244  26.278  10.070  20.608  0.1201  0.0597  0.4090
  802BOLB   C1D19245  26.819  11.465  19.993 -0.1416 -0.1379 -0.4150
  802BOLB   C2D19246  26.353  11.664  20.075 -0.2606  0.2042 -0.0986
  802BOLB   C3D19247  26.190  11.987  20.176 -0.0624 -0.2558 -0.1328
  802BOLB   C4D19248  26.090  11.987  20.634 -0.3600 -0.0660  0.0347
  803BOLB   NC119249  23.520  16.785  20.993  0.0404  0.0653  0.1562
  803BOLB   PO119250  23.629  16.423  21.180  0.0932 -0.1178  0.3014
  803BOLB   GL119251  24.030  16.707  21.195  0.1096  0.1398  0.2656
  803BOLB   GL219252  24.071  16.882  21.476  0.2803 -0.1645  0.0171
  803BOLB   C1A19253  24.538  16.665  21.265  0.0402 -0.1632  0.2314
  803BOLB   C2A19254  24.836  16.457  21.465 -0.1255 -0.1344 -0.0341
  803BOLB   C3A19255  24.945  16.663  21.865  0.1174  0.4896  0.1224
  803BOLB   C4A19256  25.301  16.842  22.037 -0.2893  0.1277  0.1495
  803BOLB   C1B19257  24.410  16.791  21.743 -0.2745 -0.1979  0.1231
  803BOLB   C2B19258  24.404  16.640  22.167 -0.0133 -0.3745 -0.5559
  803BOLB   C3B19259  24.264  16.671  22.563 -0.3450  0.0428  0.2376
  803BOLB   C4B19260  24.425  16.583  23.019 -0.1330  0.1861 -0.3464
  803BOLB   NC219261  26.664  17.330  23.539  0.3293  0.0528 -0.2060
  803BOLB   PO219262  26.819  16.990  23.278 -0.2741 -0.1651 -0.1248
  803BOLB   GL319263  26.495  17.205  23.075  0.0531 -0.3008  0.0617
  803BOLB   GL419264  26.531  17.201  22.771 -0.0684  0.1304 -0.0716
  803BOLB   C1C19265  26.006  17.363  23.062  0.0797 -0.0806  0.2381
  803BOLB   C2C19266  25.634  17.323  22.875 -0.0898  0.1616  0.0498
  803BOLB   C3C19267  25.338  17.075  22.754 -0.0901 -0.0594 -0.2454
  803BOLB   C4C19268  25.452  16.854  22.402  0.0241  0.0128  0.2053
  803BOLB   C1D19269  26.172  17.423  22.519 -0.0497 -0.0108  0.1758
  803BOLB   C2D19270  25.800  17.178  22.340 -0.2291  0.2847 -0.3532
  803BOLB   C3D19271  25.650  17.122  21.853  0.0274 -0.1825  0.0347
  803BOLB   C4D19272  25.782  17.047  21.421 -0.3052 -0.2034  0.0285
  804BOLB   NC119273  22.529  22.281  19.470 -0.2465 -0.1409 -0.1938
  804BOLB   PO119274  22.248  22.102  19.632 -0.0620  0.3705 -0.3005
  804BOLB   GL119275  22.637  22.090  19.920 -0.0547  0.1408 -0.1732
  804BOLB   GL219276  22.742  21.692  20.076  0.0956  0.0065 -0.0958
  804BOLB   C1A19277  23.015  22.233  20.056  0.3326  0.0635 -0.0500
  804BOLB   C2A19278  23.400  22.426  19.972 -0.1851  0.0375  0.2238
  804BOLB   C3A19279  23.909  22.491  20.029  0.0562 -0.2414  0.1032
  804BOLB   C4A19280  24.264  22.733  19.785  0.2070 -0.0807  0.0905
  804BOLB   C1B19281  22.951  21.679  20.192 -0.0511 -0.0023 -0.3124
  804BOLB   C2B19282  23.363  21.916  20.325 -0.0710  0.3261  0.0815
  804BOLB   C3B19283  23.848  21.935  20.140  0.1352 -0.2023  0.0445
  804BOLB   C4B19284  24.238  22.058  20.153  0.5887 -0.0213 -0.1488
  804BOLB   NC219285  26.513  23.842  19.477  0.0442  0.3058  0.2557
  804BOLB   PO219286  26.496  23.456  19.827  0.1700  0.1072 -0.2594
  804BOLB   GL319287  26.177  23.151  19.587 -0.0610  0.1314 -0.3300
  804BOLB   GL419288  25.981  23.448  19.516  0.2237 -0.3222  0.0067
  804BOLB   C1C19289  25.779  22.995  19.603 -0.0497  0.1915 -0.2360
  804BOLB   C2C19290  25.404  22.755  19.508  0.0790 -0.0568 -0.2805
  804BOLB   C3C19291  25.081  22.940  19.771 -0.0339 -0.1223 -0.0694
  804BOLB   C4C19292  24.617  22.880  19.837 -0.3456  0.0736 -0.1551
  804BOLB   C1D19293  25.439  23.372  19.566  0.2716 -0.3536 -0.3537
  804BOLB   C2D19294  25.019  23.332  19.370  0.0241 -0.2129 -0.2643
  804BOLB   C3D19295  24.844  23.370  18.977 -0.1702  0.1407  0.1959
  804BOLB   C4D19296  24.487  23.465  18.888 -0.0284 -0.1293 -0.1939
  805BOLB   NC119297  20.978  23.758  18.234  0.0268  0.0416 -0.1189
  805BOLB   PO119298  21.090  23.917  17.830  0.3061  0.2103 -0.0257
  805BOLB   GL119299  21.191  24.242  17.639 -0.0372  0.2649 -0.0096
  805BOLB   GL219300  21.048  24.358  17.440  0.1057  0.2372  0.0077
  805BOLB   C1A19301  21.600  24.402  17.574 -0.0181  0.2264  0.1516
  805BOLB   C2A19302  21.989  24.451  17.594 -0.2110  0.0502 -0.0349
  805BOLB   C3A19303  22.310  24.573  17.395 -0.1700  0.0699 -0.0387
  805BOLB   C4A19304  22.773  24.742  17.354 -0.2437 -0.1744  0.1818
  805BOLB   C1B19305  21.264  24.639  17.367 -0.0758 -0.0620  0.2692
  805BOLB   C2B19306  21.613  24.901  17.332 -0.0402  0.0467 -0.1663
  805BOLB   C3B19307  22.044  25.095  17.290 -0.2370 -0.0385 -0.0700
  805BOLB   C4B19308  22.451  25.191  17.286 -0.2516  0.0491 -0.2279
  805BOLB   NC219309  24.967  25.695  17.007  0.1421  0.2979  0.3513
  805BOLB   PO219310  24.630  25.981  17.056 -0.0872 -0.2797 -0.2323
  805BOLB   GL319311  24.502  25.639  17.207 -0.1237 -0.0439  0.0194
  805BOLB   GL419312  24.511  25.539  17.536  0.1724 -0.0005  0.4981
  805BOLB   C1C19313  24.093  25.363  17.320  0.2341  0.3527 -0.1690
  805BOLB   C2C19314  23.695  25.218  17.363 -0.0176 -0.2290  0.1131
  805BOLB   C3C19315  23.337  25.134  17.279  0.0410  0.3121  0.1603
  805BOLB   C4C19316  22.977  24.987  17.241 -0.1445 -0.1197 -0.1337
  805BOLB   C1D19317  24.590  25.184  17.388 -0.2150 -0.1766  0.1549
  805BOLB   C2D19318  24.400  25.079  16.950  0.1741  0.1376 -0.2975
  805BOLB   C3D19319  23.986  25.013  16.902 -0.2538 -0.3480  0.0448
  805BOLB   C4D19320  23.541  24.892  16.897  0.1691 -0.2623 -0.1469
  806BOLB   NC119321  28.972  13.216  16.114  0.1294  0.0267 -0.1135
  806BOLB   PO119322  28.545  13.105  16.098  0.1736 -0.1946  0.0814
  806BOLB   GL119323  28.175  13.397  16.117 -0.4080 -0.1864 -0.2149
  806BOLB   GL219324  27.997  13.172  16.217  0.0572 -0.0115  0.2361
  806BOLB   C1A19325  27.862  13.758  16.052  0.1528 -0.1144  0.1798
  806BOLB   C2A19326  27.598  14.131  15.946 -0.1082  0.0201 -0.1476
  806BOLB   C3A19327  27.345  14.450  16.083  0.3625  0.2104 -0.3352
  806BOLB   C4A19328  27.503  14.804  16.355 -0.1280  0.2196  0.2384
  806BOLB   C1B19329  27.585  13.325  16.229 -0.0385  0.0551  0.1070
  806BOLB   C2B19330  27.399  13.712  16.349  0.1614 -0.3108  0.1019
  806BOLB   C3B19331  27.562  14.097  16.524 -0.0100 -0.2477 -0.1783
  806BOLB   C4B19332  27.615  14.379  16.874  0.1771  0.1939 -0.1139
  806BOLB   NC219333  29.803  13.869  17.156  0.1329 -0.1109  0.1873
  806BOLB   PO219334  29.426  14.095  17.230  0.0860 -0.0420  0.2575
  806BOLB   GL319335  29.238  14.469  17.099 -0.2694 -0.1791  0.1762
  806BOLB   GL419336  29.069  14.384  17.407 -0.0239 -0.0582  0.1024
  806BOLB   C1C19337  28.922  14.739  17.029 -0.2474  0.1041 -0.1955
  806BOLB   C2C19338  28.499  14.907  17.052 -0.1356  0.1652 -0.0694
  806BOLB   C3C19339  28.213  14.978  16.715 -0.0036  0.2180 -0.1485
  806BOLB   C4C19340  27.863  14.920  16.477  0.0868 -0.4132 -0.0474
  806BOLB   C1D19341  28.682  14.581  17.462 -0.2875  0.0276  0.0052
  806BOLB   C2D19342  28.348  14.928  17.518 -0.3499  0.1479 -0.1770
  806BOLB   C3D19343  28.319  15.359  17.583  0.0520  0.0856 -0.1606
  806BOLB   C4D19344  27.921  15.544  17.569 -0.4682 -0.1624 -0.1450
  807BOLB   NC119345  23.757  11.019  18.508  0.0654  0.1042 -0.3359
  807BOLB   PO119346  23.553  10.972  18.950  0.1147  0.2688 -0.0804
  807BOLB   GL119347  23.629  10.688  19.342  0.2444 -0.0842  0.0360
  807BOLB   GL219348  23.991  10.717  19.423 -0.1055 -0.0930 -0.0614
  807BOLB   C1A19349  23.833  10.338  19.670 -0.0434  0.0141  0.2158
  807BOLB   C2A19350  24.110  10.294  19.997 -0.0886 -0.1678 -0.1841
  807BOLB   C3A19351  24.333  10.105  20.422  0.1744  0.1144  0.0655
  807BOLB   C4A19352  24.528   9.851  20.674  0.0643  0.0442 -0.2530
  807BOLB   C1B19353  24.471  10.608  19.364  0.0838  0.0737  0.0743
  807BOLB   C2B19354  24.755  10.337  19.304  0.0492  0.3582 -0.0817
  807BOLB   C3B19355  24.838   9.890  19.360  0.1299 -0.0376 -0.2025
  807BOLB   C4B19356  24.972   9.540  19.655  0.1804 -0.0112 -0.2127
  807BOLB   NC219357  24.803   7.709  22.453  0.0563 -0.0485  0.0097
  807BOLB   PO219358  24.590   8.115  22.342 -0.0380 -0.0588 -0.2586
  807BOLB   GL319359  24.500   8.293  21.990  0.0594  0.2225  0.1014
  807BOLB   GL419360  24.825   8.346  21.857 -0.0887  0.0964  0.2423
  807BOLB   C1C19361  24.440   8.654  21.690 -0.5519  0.0643 -0.3253
  807BOLB   C2C19362  24.431   9.036  21.453  0.1398 -0.1362 -0.2129
  807BOLB   C3C19363  24.443   9.373  21.247 -0.2414 -0.1877  0.0701
  807BOLB   C4C19364  24.419   9.736  21.027 -0.0066  0.3071  0.0005
  807BOLB   C1D19365  24.786   8.383  21.419 -0.2390  0.0996 -0.0982
  807BOLB   C2D19366  24.752   8.643  21.004 -0.1005 -0.1461 -0.0293
  807BOLB   C3D19367  24.809   8.955  20.741  0.0178  0.2113  0.3225
  807BOLB   C4D19368  24.835   8.770  20.414 -0.1190  0.1392 -0.2962
  808BOLB   NC119369  22.337  21.595  19.728 -0.4721  0.2785  0.3992
  808BOLB   PO119370  22.599  21.770  19.467  0.2626  0.0137  0.0724
  808BOLB   GL119371  22.951  21.864  19.597  0.0315  0.0925  0.2582
  808BOLB   GL219372  23.028  22.173  19.523  0.0496 -0.1221 -0.1263
  808BOLB   C1A19373  23.421  21.952  19.762  0.2576 -0.0321 -0.0705
  808BOLB   C2A19374  23.839  22.089  19.615 -0.0155  0.2165  0.2987
  808BOLB   C3A19375  24.244  22.275  19.447 -0.3873  0.1064 -0.2165
  808BOLB   C4A19376  24.594  22.281  19.701 -0.0133  0.0061 -0.1029
  808BOLB   C1B19377  23.087  22.654  19.684 -0.0895  0.1826 -0.0615
  808BOLB   C2B19378  23.324  23.090  19.618  0.1909 -0.0219  0.1133
  808BOLB   C3B19379  23.632  23.242  19.429 -0.0754  0.2006  0.0914
  808BOLB   C4B19380  23.789  22.922  19.475 -0.2512  0.1775  0.0179
  808BOLB   NC219381  26.910  21.843  20.192  0.0330 -0.1678  0.0469
  808BOLB   PO219382  26.905  22.105  19.909 -0.0910 -0.1824  0.0650
  808BOLB   GL319383  26.553  21.857  19.842 -0.0511  0.0353 -0.1210
  808BOLB   GL419384  26.713  21.496  19.926 -0.1464  0.0691  0.1950
  808BOLB   C1C19385  26.150  21.973  20.022  0.1989  0.1057  0.0332
  808BOLB   C2C19386  25.723  22.054  19.904 -0.2720 -0.2881 -0.0801
  808BOLB   C3C19387  25.419  22.270  19.678  0.1052  0.3789  0.2153
  808BOLB   C4C19388  24.962  22.436  19.714 -0.0470  0.0129 -0.0482
  808BOLB   C1D19389  26.330  21.400  20.012 -0.0076  0.1882 -0.1826
  808BOLB   C2D19390  26.133  21.060  19.822  0.0048  0.0723 -0.1762
  808BOLB   C3D19391  26.178  20.737  19.553  0.2146 -0.0717 -0.0519
  808BOLB   C4D19392  26.420  20.497  19.273  0.1182 -0.0119 -0.1602
  809BOLB   NC119393  23.129  11.947  20.619 -0.0125 -0.2448  0.2305
  809BOLB   PO119394  23.345  12.307  20.478  0.0396  0.1287 -0.1210
  809BOLB   GL119395  23.574  12.373  20.897  0.0112 -0.1967  0.2140
  809BOLB   GL219396  23.793  12.566  20.765  0.1430 -0.6079 -0.1349
  809BOLB   C1A19397  23.744  12.233  21.202 -0.1358  0.4510  0.0623
  809BOLB   C2A19398  23.867  12.068  21.586 -0.1566 -0.0414  0.0236
  809BOLB   C3A19399  24.123  11.790  21.806  0.0970 -0.1612  0.0790
  809BOLB   C4A19400  24.185  11.549  22.207 -0.2621  0.1325 -0.3113
  809BOLB   C1B19401  24.149  12.485  21.018 -0.1320 -0.0379 -0.2489
  809BOLB   C2B19402  24.212  12.400  21.406 -0.1068 -0.1382  0.0746
  809BOLB   C3B19403  24.538  12.174  21.642  0.0848 -0.1256  0.1161
  809BOLB   C4B19404  24.744  11.856  21.845  0.0227 -0.1236  0.1993
  809BOLB   NC219405  25.510  11.249  24.051 -0.3842  0.1243  0.1503
  809BOLB   PO219406  25.191  11.119  24.367 -0.1749 -0.1199  0.1149
  809BOLB   GL319407  25.000  10.970  23.965  0.0138 -0.2283 -0.1749
  809BOLB   GL419408  25.216  10.822  23.838  0.3507 -0.0737  0.0333
  809BOLB   C1C19409  24.688  11.080  23.682  0.1438 -0.1777  0.1870
  809BOLB   C2C19410  24.397  11.032  23.310  0.1238 -0.0317 -0.1193
  809BOLB   C3C19411  24.272  11.129  22.969 -0.0991 -0.2104 -0.0558
  809BOLB   C4C19412  24.292  11.381  22.506 -0.0106 -0.3219 -0.0633
  809BOLB   C1D19413  24.927  10.753  23.438 -0.1836 -0.0840  0.0070
  809BOLB   C2D19414  24.828  10.554  22.991 -0.0893  0.1556 -0.1935
  809BOLB   C3D19415  24.487  10.697  22.783  0.1575  0.1731  0.0162
  809BOLB   C4D19416  24.121  10.875  22.570 -0.2710  0.0748 -0.2737
  810BOLB   NC119417  29.024  13.826  17.170  0.1916  0.3549  0.1441
  810BOLB   PO119418  28.780  13.754  16.839  0.0123  0.0867  0.0626
  810BOLB   GL119419  28.536  13.788  17.268 -0.3637  0.1616  0.1122
  810BOLB   GL219420  28.669  14.073  17.395 -0.2264  0.0611 -0.1833
  810BOLB   C1A19421  28.172  13.834  17.245  0.1807  0.0753 -0.0979
  810BOLB   C2A19422  27.873  14.099  17.316  0.1025 -0.2386 -0.0057
  810BOLB   C3A19423  27.568  14.421  17.499 -0.0387  0.0299 -0.2279
  810BOLB   C4A19424  27.408  14.818  17.340 -0.2068  0.2684 -0.1346
  810BOLB   C1B19425  28.451  14.313  17.109 -0.0527  0.0539 -0.1309
  810BOLB   C2B19426  28.408  14.535  16.703 -0.3541 -0.0202 -0.2505
  810BOLB   C3B19427  28.006  14.460  16.564 -0.1701 -0.2314 -0.0232
  810BOLB   C4B19428  28.015  14.102  16.830  0.0764 -0.1097 -0.1228
  810BOLB   NC219429  28.951  14.152  18.426 -0.0850  0.2566  0.0028
  810BOLB   PO219430  28.816  13.657  18.315  0.1796  0.0685  0.0607
  810BOLB   GL319431  28.461  13.866  18.392 -0.0875 -0.0210 -0.0746
  810BOLB   GL419432  28.132  13.747  18.219  0.3833 -0.1414  0.0865
  810BOLB   C1C19433  28.180  14.272  18.376 -0.2979  0.0747 -0.1912
  810BOLB   C2C19434  28.074  14.692  18.168  0.3727  0.1850  0.0258
  810BOLB   C3C19435  27.998  15.085  17.905  0.0492 -0.1755  0.0287
  810BOLB   C4C19436  27.718  15.127  17.530  0.0317 -0.0483 -0.0481
  810BOLB   C1D19437  27.873  13.942  18.541  0.3526  0.0624 -0.0331
  810BOLB   C2D19438  27.811  14.107  18.974  0.0857  0.0565  0.1094
  810BOLB   C3D19439  27.489  13.971  19.291  0.1139 -0.1255  0.1677
  810BOLB   C4D19440  27.463  13.773  19.681 -0.3230 -0.3112  0.2216
  811BOLB   NC119441  24.458  16.401  19.184  0.0287 -0.1916 -0.6556
  811BOLB   PO119442  24.578  16.752  19.220  0.1318 -0.2343 -0.3888
  811BOLB   GL119443  24.975  16.651  19.117  0.0016  0.2812 -0.0304
  811BOLB   GL219444  24.973  16.382  19.000 -0.0245 -0.1954  0.0353
  811BOLB   C1A19445  25.251  16.842  19.328 -0.4146 -0.2409  0.1482
  811BOLB   C2A19446  25.691  17.089  19.366 -0.1133  0.2701  0.3830
  811BOLB   C3A19447  26.098  17.214  19.526 -0.1193 -0.0741 -0.3421
  811BOLB   C4A19448  26.437  17.455  19.687 -0.2773 -0.1425 -0.0276
  811BOLB   C1B19449  25.257  16.068  19.275  0.2464  0.0850  0.0110
  811BOLB   C2B19450  25.606  16.093  19.474 -0.0125 -0.1278  0.3161
  811BOLB   C3B19451  26.021  16.228  19.425  0.2686 -0.2975  0.3669
  811BOLB   C4B19452  26.449  16.426  19.442  0.0202  0.0403 -0.3229
  811BOLB   NC219453  28.366  19.047  20.972  0.0050  0.3537  0.0746
  811BOLB   PO219454  27.924  18.966  20.833 -0.1264  0.1293  0.4349
  811BOLB   GL319455  27.485  18.919  20.708  0.0209 -0.2424 -0.0907
  811BOLB   GL419456  27.261  18.956  20.913  0.2429 -0.1291 -0.1479
  811BOLB   C1C19457  27.244  18.647  20.439  0.1714 -0.2000  0.0189
  811BOLB   C2C19458  27.148  18.331  20.201  0.1462 -0.0653  0.0264
  811BOLB   C3C19459  27.008  17.939  20.132 -0.1358  0.4522  0.0553
  811BOLB   C4C19460  26.587  17.785  19.994 -0.2267  0.0472 -0.1740
  811BOLB   C1D19461  26.890  19.009  20.632 -0.0563  0.0529 -0.0053
  811BOLB   C2D19462  26.797  18.815  20.169 -0.1099  0.1370  0.1610
  811BOLB   C3D19463  27.016  18.875  19.851 -0.0042  0.0281 -0.2143
  811BOLB   C4D19464  27.322  19.126  19.626  0.1417  0.1060  0.2529
  812BOLB   NC119465  24.142  10.235  17.415  0.0047  0.0123 -0.0610
  812BOLB   PO119466  24.033   9.953  17.740  0.0292 -0.0704  0.1651
  812BOLB   GL119467  24.025   9.530  17.849 -0.0089 -0.0762  0.0344
  812BOLB   GL219468  24.337   9.451  18.067 -0.0578  0.2219 -0.0101
  812BOLB   C1A19469  23.861   9.256  18.150  0.3029  0.2054 -0.1061
  812BOLB   C2A19470  23.640   9.079  18.425  0.0467  0.0198  0.4668
  812BOLB   C3A19471  23.685   8.787  18.823  0.0279 -0.0754 -0.1862
  812BOLB   C4A19472  23.539   8.484  19.039  0.0273 -0.0482 -0.0137
  812BOLB   C1B19473  24.311   9.080  18.005  0.0504  0.1418  0.1314
  812BOLB   C2B19474  24.030   8.757  18.025 -0.0538 -0.2223  0.0518
  812BOLB   C3B19475  23.691   8.659  18.239 -0.1573 -0.1338  0.1930
  812BOLB   C4B19476  23.397   8.467  18.568 -0.1947  0.1061  0.0529
  812BOLB   NC219477  23.861   6.254  19.932 -0.0972  0.0377 -0.2348
  812BOLB   PO219478  24.001   6.699  20.087 -0.1874  0.3347  0.0767
  812BOLB   GL319479  23.592   6.871  20.093 -0.0361  0.0709  0.0774
  812BOLB   GL419480  23.305   6.781  19.923 -0.1569  0.3373  0.0283
  812BOLB   C1C19481  23.557   7.324  20.134 -0.2816 -0.1629  0.1897
  812BOLB   C2C19482  23.576   7.769  19.956  0.4058 -0.2066 -0.6533
  812BOLB   C3C19483  23.524   8.049  19.681 -0.3437 -0.2224  0.0980
  812BOLB   C4C19484  23.451   8.261  19.277  0.1186 -0.2175  0.0559
  812BOLB   C1D19485  23.226   7.217  19.808  0.1130  0.0364  0.0151
  812BOLB   C2D19486  23.228   7.502  19.463 -0.1086 -0.3770 -0.0332
  812BOLB   C3D19487  23.113   7.914  19.140  0.0089  0.2406  0.2864
  812BOLB   C4D19488  23.174   8.123  18.837 -0.2735  0.1318 -0.0863
  813BOLB   NC119489  28.505  13.111  19.076  0.3096  0.1157 -0.4077
  813BOLB   PO119490  28.216  13.096  18.615  0.5662 -0.0270 -0.1481
  813BOLB   GL119491  27.899  13.413  18.457  0.0223  0.0556  0.1015
  813BOLB   GL219492  27.638  13.323  18.549 -0.1829 -0.1518  0.0048
  813BOLB   C1A19493  27.626  13.682  18.206 -0.0077 -0.0505  0.0677
  813BOLB   C2A19494  27.321  13.939  18.127 -0.2868  0.0074 -0.0249
  813BOLB   C3A19495  27.120  14.289  18.246 -0.3195 -0.1017 -0.1464
  813BOLB   C4A19496  27.035  14.404  18.567 -0.2551  0.0707 -0.0209
  813BOLB   C1B19497  27.284  13.278  18.826  0.1517 -0.1901  0.0534
  813BOLB   C2B19498  27.216  13.083  19.148 -0.3722  0.3649  0.0119
  813BOLB   C3B19499  27.010  12.913  19.583 -0.1801  0.0311 -0.0035
  813BOLB   C4B19500  26.942  13.040  20.074 -0.1307  0.2221  0.3566
  813BOLB   NC219501  28.628  14.447  20.869 -0.0629 -0.1455 -0.2613
  813BOLB   PO219502  28.268  14.318  20.671 -0.4213 -0.1394  0.0478
  813BOLB   GL319503  27.911  14.342  20.485  0.1317  0.0232  0.4238
  813BOLB   GL419504  27.738  14.640  20.672  0.0012 -0.3114  0.0643
  813BOLB   C1C19505  27.713  14.472  20.115  0.2876 -0.0008 -0.0686
  813BOLB   C2C19506  27.562  14.343  19.708 -0.3701  0.3439  0.1180
  813BOLB   C3C19507  27.616  14.515  19.251 -0.2136  0.4759  0.0335
  813BOLB   C4C19508  27.320  14.486  19.002  0.0170  0.1589 -0.0354
  813BOLB   C1D19509  27.242  14.783  20.592 -0.0091  0.0879 -0.2113
  813BOLB   C2D19510  26.814  14.600  20.573  0.3417 -0.1692 -0.0260
  813BOLB   C3D19511  26.438  14.448  20.254 -0.0905 -0.2605 -0.0921
  813BOLB   C4D19512  26.091  14.153  20.154 -0.0937  0.0469  0.0370
  814BOLB   NC119513  24.089  13.992  19.729 -0.2094  0.1125  0.0738
  814BOLB   PO119514  24.075  14.427  19.871 -0.3084  0.2008  0.1155
  814BOLB   GL119515  24.323  14.568  20.355 -0.1650  0.0040 -0.1651
  814BOLB   GL219516  24.474  14.918  20.187  0.3332  0.0344 -0.1297
  814BOLB   C1A19517  24.650  14.523  20.651  0.0862  0.0913 -0.0887
  814BOLB   C2A19518  24.869  14.751  21.038  0.1392 -0.0369  0.2043
  814BOLB   C3A19519  25.210  14.914  21.213 -0.0327  0.1161  0.3382
  814BOLB   C4A19520  25.683  14.863  21.295 -0.1556  0.1679  0.1214
  814BOLB   C1B19521  24.832  14.667  20.235  0.0260 -0.0781 -0.2574
  814BOLB   C2B19522  25.127  14.255  20.050  0.2368 -0.0987  0.1855
  814BOLB   C3B19523  25.540  14.016  20.235 -0.1779 -0.1290  0.0581
  814BOLB   C4B19524  25.664  14.243  20.591 -0.0162 -0.0783  0.2325
  814BOLB   NC219525  28.162  16.285  22.122 -0.1859  0.1165 -0.1032
  814BOLB   PO219526  27.753  16.017  21.910 -0.0418 -0.2456  0.4210
  814BOLB   GL319527  27.438  15.859  21.650 -0.0642 -0.0679 -0.1467
  814BOLB   GL419528  27.592  15.874  21.314  0.1140  0.2366  0.0306
  814BOLB   C1C19529  27.096  15.822  21.432  0.3211 -0.2191  0.2189
  814BOLB   C2C19530  26.539  15.658  21.463 -0.2412 -0.2071  0.0654
  814BOLB   C3C19531  26.145  15.470  21.468  0.3258 -0.1173 -0.0923
  814BOLB   C4C19532  25.942  15.194  21.180  0.0218  0.2683  0.0827
  814BOLB   C1D19533  27.314  16.066  21.109 -0.2109 -0.0201  0.0433
  814BOLB   C2D19534  27.373  16.454  20.892  0.0530  0.1003  0.2492
  814BOLB   C3D19535  27.076  16.712  20.687 -0.2663 -0.1890 -0.2441
  814BOLB   C4D19536  27.074  16.866  20.294  0.0015  0.2286 -0.0581
  815BOLB   NC119537  23.065  17.202  21.515  0.2498 -0.0251 -0.0053
  815BOLB   PO119538  23.268  17.504  21.249 -0.0241 -0.0261  0.1419
  815BOLB   GL119539  23.636  17.593  21.473  0.0193 -0.0276 -0.2823
  815BOLB   GL219540  23.768  17.738  21.297  0.1724 -0.1626  0.0207
  815BOLB   C1A19541  23.620  17.639  21.949 -0.5277 -0.1739 -0.0181
  815BOLB   C2A19542  23.730  17.367  22.383  0.2574 -0.1467 -0.1712
  815BOLB   C3A19543  23.922  17.173  22.652  0.2981 -0.1834 -0.2522
  815BOLB   C4A19544  24.327  17.096  22.966  0.0415 -0.0972 -0.2785
  815BOLB   C1B19545  24.106  17.886  21.541  0.0229  0.1438 -0.1146
  815BOLB   C2B19546  24.291  17.758  21.925  0.0978  0.1365 -0.0264
  815BOLB   C3B19547  24.111  17.670  22.286  0.0286  0.3779 -0.1512
  815BOLB   C4B19548  23.948  17.658  22.708 -0.0651  0.0479 -0.5356
  815BOLB   NC219549  25.635  17.832  24.672  0.5201 -0.3024  0.1254
  815BOLB   PO219550  25.924  17.986  24.360 -0.1234 -0.0651 -0.0513
  815BOLB   GL319551  25.723  17.847  23.964  0.0514  0.1877 -0.0283
  815BOLB   GL419552  25.720  17.496  23.838  0.0395 -0.1230 -0.0074
  815BOLB   C1C19553  25.600  17.884  23.429 -0.2941 -0.1966 -0.2579
  815BOLB   C2C19554  25.275  17.665  23.250  0.1678 -0.1486 -0.3120
  815BOLB   C3C19555  24.997  17.386  23.037  0.1449 -0.2225 -0.0548
  815BOLB   C4C19556  24.681  17.251  23.065 -0.0498  0.0046 -0.1059
  815BOLB   C1D19557  25.597  17.296  23.447 -0.0233 -0.3271 -0.0393
  815BOLB   C2D19558  25.853  16.913  23.117  0.0781 -0.0437  0.0404
  815BOLB   C3D19559  25.995  16.959  22.757  0.0323 -0.3627 -0.0645
  815BOLB   C4D19560  26.028  16.648  22.473 -0.3398  0.0644 -0.0654
  816BOLB   NC119561  24.191  15.300  19.944 -0.1793  0.0317  0.1864
  816BOLB   PO119562  23.863  15.330  20.273  0.3336 -0.1986  0.0195
  816BOLB   GL119563  24.142  15.208  20.595 -0.0503 -0.1779  0.1195
  816BOLB   GL219564  23.970  15.090  20.903 -0.3202 -0.0739  0.0721
  816BOLB   C1A19565  24.481  14.989  20.713  0.0285  0.3605  0.3124
  816BOLB   C2A19566  24.887  15.034  20.550  0.0582 -0.1632  0.1174
  816BOLB   C3A19567  25.204  14.843  20.709  0.4742  0.0742  0.0255
  816BOLB   C4A19568  25.428  14.524  20.918  0.0916 -0.1337 -0.0051
  816BOLB   C1B19569  24.365  15.277  21.064  0.1123 -0.1293  0.0833
  816BOLB   C2B19570  24.696  15.397  21.356 -0.0895  0.0002  0.0398
  816BOLB   C3B19571  24.706  15.502  21.756 -0.2360  0.3393  0.1436
  816BOLB   C4B19572  24.684  15.590  22.243 -0.0080 -0.1401 -0.1041
  816BOLB   NC219573  27.934  13.872  21.912  0.3123  0.3041  0.0841
  816BOLB   PO219574  27.949  14.118  21.547 -0.0415  0.0188  0.1157
  816BOLB   GL319575  27.478  13.984  21.598  0.2414 -0.0289 -0.1113
  816BOLB   GL419576  27.234  14.103  21.868 -0.0815 -0.1727 -0.0501
  816BOLB   C1C19577  27.097  14.007  21.384 -0.0712  0.1659  0.1025
  816BOLB   C2C19578  26.656  13.955  21.289 -0.4487  0.0349 -0.1126
  816BOLB   C3C19579  26.269  14.189  21.186  0.3696 -0.0039  0.1699
  816BOLB   C4C19580  25.892  14.408  21.097 -0.0061 -0.3213  0.2302
  816BOLB   C1D19581  27.007  14.446  21.598 -0.1265 -0.0518  0.0932
  816BOLB   C2D19582  26.609  14.623  21.295  0.1401 -0.1449 -0.2378
  816BOLB   C3D19583  26.463  14.669  20.975  0.3177 -0.0085 -0.1162
  816BOLB   C4D19584  26.435  14.276  20.701 -0.1690 -0.1537 -0.2357
  817BOLB   NC119585  23.603  18.602  20.024  0.2196 -0.1262 -0.0510
  817BOLB   PO119586  23.777  18.813  20.381  0.1057 -0.1110 -0.3401
  817BOLB   GL119587  24.055  18.730  20.701 -0.2293 -0.0165  0.1637
  817BOLB   GL219588  24.029  18.553  20.894  0.0466 -0.1607 -0.1911
  817BOLB   C1A19589  24.441  18.430  20.745  0.2407 -0.1525  0.2274
  817BOLB   C2A19590  24.692  18.483  21.136 -0.1217 -0.0024  0.2693
  817BOLB   C3A19591  25.079  18.498  21.316  0.1049 -0.1803  0.1288
  817BOLB   C4A19592  25.313  18.381  21.722  0.0515  0.1487 -0.0875
  817BOLB   C1B19593  24.231  18.626  21.236  0.3132  0.3906 -0.4631
  817BOLB   C2B19594  24.542  18.643  21.564 -0.1888  0.0667  0.3901
  817BOLB   C3B19595  24.805  18.533  21.805 -0.0466 -0.1685 -0.0246
  817BOLB   C4B19596  24.914  18.630  22.204 -0.2877  0.3094 -0.0197
  817BOLB   NC219597  26.614  19.842  23.437 -0.2983 -0.0744  0.4437
  817BOLB   PO219598  26.373  19.519  23.329  0.0820 -0.2015  0.3034
  817BOLB   GL319599  26.108  19.180  23.306  0.3318 -0.0746  0.1606
  817BOLB   GL419600  26.134  19.150  23.036  0.0009 -0.0023  0.3306
  817BOLB   C1C19601  25.717  18.922  23.234 -0.1984 -0.2507 -0.3856
  817BOLB   C2C19602  25.522  18.682  22.869 -0.0800  0.1235 -0.0047
  817BOLB   C3C19603  25.292  18.496  22.590  0.1448 -0.3253  0.2999
  817BOLB   C4C19604  25.499  18.556  22.161  0.1117 -0.1696 -0.0303
  817BOLB   C1D19605  25.966  19.016  22.614  0.2944 -0.0771 -0.0048
  817BOLB   C2D19606  25.689  19.117  22.328 -0.2431  0.2786  0.0564
  817BOLB   C3D19607  25.214  19.197  22.262  0.1475 -0.0875 -0.0118
  817BOLB   C4D19608  24.945  19.486  22.413  0.0088  0.0430  0.0233
  818BOLB   NC119609  23.128  20.649  18.341 -0.1440 -0.4596 -0.0973
  818BOLB   PO119610  23.602  20.378  18.491  0.0152  0.2877 -0.1655
  818BOLB   GL119611  23.952  20.532  18.723  0.0749 -0.0076 -0.0397
  818BOLB   GL219612  24.182  20.369  18.815 -0.1861  0.1127 -0.1442
  818BOLB   C1A19613  24.108  20.899  19.057  0.0215  0.0717  0.1048
  818BOLB   C2A19614  24.514  21.080  19.164 -0.0948  0.2200 -0.0612
  818BOLB   C3A19615  24.943  21.189  19.155  0.3725  0.2816  0.0204
  818BOLB   C4A19616  25.358  21.272  19.404 -0.2487  0.0989 -0.1140
  818BOLB   C1B19617  24.572  20.553  18.755 -0.1351  0.0822 -0.3435
  818BOLB   C2B19618  25.095  20.649  18.773 -0.1366 -0.0002  0.1038
  818BOLB   C3B19619  25.507  20.478  18.939  0.2862 -0.1174 -0.0982
  818BOLB   C4B19620  25.845  20.518  19.235 -0.4252  0.0062 -0.1878
  818BOLB   NC219621  27.396  21.837  18.687  0.1749  0.0497 -0.0982
  818BOLB   PO219622  27.209  22.107  18.375  0.0874  0.0442  0.2183
  818BOLB   GL319623  26.882  21.973  18.425  0.0343 -0.2655 -0.3251
  818BOLB   GL419624  26.618  22.006  18.167  0.2629  0.0431 -0.2734
  818BOLB   C1C19625  26.611  21.638  18.524 -0.1427 -0.0235 -0.1839
  818BOLB   C2C19626  26.392  21.342  18.756 -0.2599 -0.4337 -0.1313
  818BOLB   C3C19627  26.222  21.490  19.147 -0.0631 -0.2697 -0.3430
  818BOLB   C4C19628  25.833  21.315  19.340 -0.4126  0.1445 -0.0018
  818BOLB   C1D19629  26.387  22.276  17.867  0.2939 -0.0897 -0.1758
  818BOLB   C2D19630  25.885  22.288  17.770 -0.2884  0.1779 -0.2090
  818BOLB   C3D19631  25.532  22.322  17.680  0.0626 -0.1636  0.0057
  818BOLB   C4D19632  25.291  22.567  17.359  0.2425 -0.1621  0.0506
  819BOLB   NC119633  21.275  23.199  18.710 -0.0435  0.1438 -0.2215
  819BOLB   PO119634  21.790  23.265  18.861  0.1036 -0.0510  0.2688
  819BOLB   GL119635  22.116  23.388  19.076  0.0733 -0.0469  0.0705
  819BOLB   GL219636  22.295  23.175  19.283 -0.0722 -0.0432  0.2457
  819BOLB   C1A19637  22.344  23.693  19.184  0.3159  0.0271 -0.0933
  819BOLB   C2A19638  22.715  23.917  19.258 -0.0828 -0.3199  0.1790
  819BOLB   C3A19639  23.069  24.043  19.259  0.0944  0.3212 -0.1173
  819BOLB   C4A19640  23.463  24.206  19.301  0.0976 -0.0893  0.0121
  819BOLB   C1B19641  22.599  23.394  19.406 -0.3284 -0.0914 -0.4881
  819BOLB   C2B19642  23.045  23.393  19.252  0.3114 -0.4090  0.0605
  819BOLB   C3B19643  23.346  23.633  19.301 -0.0233 -0.1893  0.0613
  819BOLB   C4B19644  23.719  23.756  19.464 -0.4291  0.0545 -0.1163
  819BOLB   NC219645  25.597  24.940  19.549  0.1266  0.1315 -0.3093
  819BOLB   PO219646  25.388  25.308  19.338 -0.0162  0.1663 -0.1641
  819BOLB   GL319647  25.120  25.003  19.170  0.1322  0.2165  0.1564
  819BOLB   GL419648  25.105  24.741  19.428  0.0469 -0.0665 -0.0638
  819BOLB   C1C19649  24.704  24.822  19.195 -0.1462 -0.4175  0.0830
  819BOLB   C2C19650  24.332  24.800  19.529 -0.1415  0.0543 -0.0399
  819BOLB   C3C19651  23.990  24.677  19.474  0.3474 -0.1610 -0.0284
  819BOLB   C4C19652  23.737  24.345  19.330  0.0400  0.0445 -0.2469
  819BOLB   C1D19653  24.906  24.402  19.262  0.5181 -0.0270  0.1483
  819BOLB   C2D19654  24.608  24.457  18.846  0.1473  0.0178 -0.2335
  819BOLB   C3D19655  24.668  24.302  18.338  0.2692  0.3250 -0.0804
  819BOLB   C4D19656  24.486  23.964  18.106 -0.0520 -0.0215  0.0214
  820BOLB   NC119657  22.848  21.046  18.081 -0.1316 -0.1843 -0.3254
  820BOLB   PO119658  23.188  20.972  17.933 -0.2062 -0.1110 -0.1849
  820BOLB   GL119659  23.423  21.076  18.215 -0.0025 -0.1775 -0.1508
  820BOLB   GL219660  23.563  20.849  18.425  0.0778  0.3815 -0.2897
  820BOLB   C1A19661  23.633  21.447  18.220  0.0626 -0.1653 -0.4239
  820BOLB   C2A19662  24.033  21.667  18.156  0.1774 -0.1096 -0.2508
  820BOLB   C3A19663  24.295  21.951  18.059 -0.2996 -0.0003 -0.0152
  820BOLB   C4A19664  24.674  22.087  17.999 -0.1915  0.0463  0.0750
  820BOLB   C1B19665  24.011  20.868  18.288  0.1636  0.4489  0.2339
  820BOLB   C2B19666  24.413  20.939  18.381  0.3161 -0.2949 -0.0145
  820BOLB   C3B19667  24.788  21.050  18.694 -0.1647 -0.0609  0.1379
  820BOLB   C4B19668  25.256  21.147  18.767  0.0772 -0.0510  0.0225
  820BOLB   NC219669  27.096  22.773  18.885 -0.2358 -0.0968  0.0245
  820BOLB   PO219670  27.195  22.603  18.563  0.1974  0.2492  0.2475
  820BOLB   GL319671  26.795  22.494  18.556  0.1186  0.0194 -0.0959
  820BOLB   GL419672  26.704  22.390  18.839 -0.2897  0.2423  0.0657
  820BOLB   C1C19673  26.410  22.542  18.404 -0.1259 -0.2712  0.0195
  820BOLB   C2C19674  25.915  22.654  18.136 -0.0447  0.1062 -0.2571
  820BOLB   C3C19675  25.521  22.334  18.176 -0.0857 -0.0958 -0.4239
  820BOLB   C4C19676  25.119  22.051  18.036  0.1771  0.0466 -0.2636
  820BOLB   C1D19677  26.340  22.391  19.004 -0.1780  0.2312 -0.3005
  820BOLB   C2D19678  26.106  21.969  19.017 -0.0551 -0.2681  0.0338
  820BOLB   C3D19679  25.772  21.759  19.251  0.0051  0.3392 -0.0113
  820BOLB   C4D19680  25.579  21.797  19.561  0.3087 -0.0986 -0.1513
  821BOLB   NC119681  24.092  16.555  20.184 -0.1326 -0.3138  0.5688
  821BOLB   PO119682  24.036  17.083  20.214 -0.0433 -0.3518 -0.1197
  821BOLB   GL119683  24.419  17.089  20.474  0.0277 -0.1611  0.1660
  821BOLB   GL219684  24.591  17.323  20.636 -0.0310 -0.1847 -0.2591
  821BOLB   C1A19685  24.780  16.892  20.620 -0.0001  0.2250  0.3073
  821BOLB   C2A19686  25.019  16.913  20.988  0.0405  0.2422  0.2014
  821BOLB   C3A19687  25.384  16.789  21.190 -0.1075 -0.2548  0.3786
  821BOLB   C4A19688  25.694  16.466  21.150  0.1305  0.0039  0.1482
  821BOLB   C1B19689  24.871  17.496  20.960  0.2556 -0.2842  0.3174
  821BOLB   C2B19690  24.965  17.879  21.231  0.3150  0.0402 -0.3679
  821BOLB   C3B19691  25.212  17.882  21.613 -0.2840 -0.2242  0.0461
  821BOLB   C4B19692  25.552  17.985  21.897  0.1479 -0.3523  0.0292
  821BOLB   NC219693  27.408  17.216  21.811  0.1549 -0.0437  0.1331
  821BOLB   PO219694  27.432  17.412  22.183 -0.0996 -0.1215  0.1399
  821BOLB   GL319695  27.013  17.259  22.158 -0.1194 -0.1040 -0.0938
  821BOLB   GL419696  26.881  17.033  22.407  0.0405  0.2676 -0.1017
  821BOLB   C1C19697  26.682  17.086  21.916 -0.0246  0.3683 -0.3099
  821BOLB   C2C19698  26.504  16.651  21.972 -0.1064  0.3883 -0.0113
  821BOLB   C3C19699  26.241  16.406  21.826 -0.0192  0.0053 -0.0903
  821BOLB   C4C19700  25.945  16.518  21.442  0.0833  0.3009  0.1349
  821BOLB   C1D19701  26.379  17.095  22.255  0.2248  0.1397  0.1397
  821BOLB   C2D19702  26.121  16.977  22.026  0.1886  0.5353  0.1063
  821BOLB   C3D19703  25.787  16.641  22.057  0.2084  0.0035  0.0104
  821BOLB   C4D19704  25.442  16.602  21.638 -0.3261  0.0006 -0.1514
  822BOLB   NC119705  23.772  19.792  17.619 -0.1095  0.2316 -0.3040
  822BOLB   PO119706  24.145  19.591  17.554 -0.1378 -0.1057 -0.1233
  822BOLB   GL119707  24.582  19.864  17.465 -0.3483 -0.1044 -0.1813
  822BOLB   GL219708  24.693  19.758  17.211 -0.0421 -0.1403  0.0495
  822BOLB   C1A19709  24.990  20.014  17.670 -0.0403  0.0726 -0.1258
  822BOLB   C2A19710  25.309  20.200  17.950 -0.1397  0.1814  0.1193
  822BOLB   C3A19711  25.721  20.136  18.095 -0.0011 -0.2645  0.0417
  822BOLB   C4A19712  25.964  20.307  18.378 -0.1165 -0.0444  0.0652
  822BOLB   C1B19713  25.019  20.129  17.211  0.1148  0.0758  0.2522
  822BOLB   C2B19714  25.463  20.290  17.167 -0.0475  0.1863 -0.0588
  822BOLB   C3B19715  25.806  20.496  16.998 -0.2375  0.1224  0.1974
  822BOLB   C4B19716  26.283  20.429  16.988 -0.1312  0.1963 -0.2402
  822BOLB   NC219717  27.974  21.765  18.859 -0.1895 -0.1808  0.0528
  822BOLB   PO219718  27.617  21.908  19.144 -0.1906 -0.0240  0.2748
  822BOLB   GL319719  27.190  21.673  19.193  0.1003  0.4259  0.0434
  822BOLB   GL419720  26.974  21.631  18.822 -0.0397 -0.1514 -0.0039
  822BOLB   C1C19721  27.035  21.244  19.181 -0.1182  0.1518 -0.0245
  822BOLB   C2C19722  26.564  21.060  19.271  0.0157 -0.1120  0.1325
  822BOLB   C3C19723  26.155  20.904  19.064 -0.0247  0.0295  0.4136
  822BOLB   C4C19724  26.005  20.613  18.734 -0.1116 -0.0537  0.2571
  822BOLB   C1D19725  26.634  21.891  18.946 -0.5630 -0.0677  0.0016
  822BOLB   C2D19726  26.355  22.078  18.609  0.0316 -0.0219 -0.0811
  822BOLB   C3D19727  26.089  22.125  18.263 -0.4105  0.1123 -0.3371
  822BOLB   C4D19728  25.687  21.844  18.161 -0.0718 -0.1811  0.0891
  823BOLB   NC119729  21.952  22.468  19.391 -0.0389 -0.2353 -0.1298
  823BOLB   PO119730  22.137  22.749  19.576  0.0648 -0.0807  0.1620
  823BOLB   GL119731  22.565  22.890  19.664 -0.1041  0.0413  0.2015
  823BOLB   GL219732  22.468  22.590  19.903 -0.5111 -0.1112  0.0151
  823BOLB   C1A19733  22.832  23.134  19.822 -0.1666 -0.1869 -0.2148
  823BOLB   C2A19734  22.987  23.617  19.735  0.1533 -0.0700  0.1081
  823BOLB   C3A19735  23.250  23.924  19.676  0.0895  0.2303 -0.2036
  823BOLB   C4A19736  23.665  24.013  19.838  0.0117 -0.1272 -0.3741
  823BOLB   C1B19737  22.862  22.751  20.144 -0.2916 -0.1521 -0.0741
  823BOLB   C2B19738  23.298  22.919  20.239 -0.0707  0.1400  0.1390
  823BOLB   C3B19739  23.635  23.101  20.173 -0.1026  0.0043 -0.0696
  823BOLB   C4B19740  24.096  23.157  19.949  0.1262 -0.0962  0.2190
  823BOLB   NC219741  25.551  24.892  20.490  0.5090  0.1458 -0.0441
  823BOLB   PO219742  25.407  24.688  20.105 -0.1225  0.2110  0.2115
  823BOLB   GL319743  25.191  24.463  20.293 -0.1005 -0.1063  0.0531
  823BOLB   GL419744  25.424  24.216  20.430  0.2692 -0.0923 -0.1660
  823BOLB   C1C19745  24.861  24.311  20.479  0.0010 -0.3120  0.0889
  823BOLB   C2C19746  24.466  24.561  20.489  0.1356  0.3511  0.1706
  823BOLB   C3C19747  24.010  24.445  20.514  0.1971  0.0088  0.2124
  823BOLB   C4C19748  23.814  24.045  20.280 -0.1743 -0.4237 -0.0382
  823BOLB   C1D19749  25.195  23.949  20.097 -0.2781 -0.2303 -0.1025
  823BOLB   C2D19750  25.074  23.748  19.679  0.0873  0.2787 -0.4590
  823BOLB   C3D19751  24.650  23.590  19.568  0.0647  0.0389 -0.0171
  823BOLB   C4D19752  24.126  23.461  19.521 -0.1042  0.0822 -0.1546
  824BOLB   NC119753  27.028  10.248  19.583  0.1864 -0.1051  0.1458
  824BOLB   PO119754  26.881  10.718  19.389  0.3545  0.5122  0.0896
  824BOLB   GL119755  26.524  10.355  19.542 -0.3885 -0.0633 -0.0271
  824BOLB   GL219756  26.595  10.183  19.800 -0.0166  0.1133 -0.1265
  824BOLB   C1A19757  26.070  10.525  19.701 -0.1514  0.0750 -0.1342
  824BOLB   C2A19758  25.693  10.391  19.866 -0.1687  0.2190 -0.1459
  824BOLB   C3A19759  25.399  10.281  20.223 -0.3540 -0.2631  0.0189
  824BOLB   C4A19760  25.311  10.258  20.683 -0.0236 -0.1575  0.1494
  824BOLB   C1B19761  26.465  10.322  20.170 -0.0132  0.3561 -0.0412
  824BOLB   C2B19762  25.971  10.485  20.237  0.1071 -0.0253 -0.3137
  824BOLB   C3B19763  25.776  10.661  20.556  0.0956  0.2304  0.1873
  824BOLB   C4B19764  25.762  10.477  20.979  0.0031 -0.1150 -0.1288
  824BOLB   NC219765  27.255  10.874  22.091  0.0614 -0.0575  0.0305
  824BOLB   PO219766  26.856  10.872  22.123 -0.0800  0.2553  0.1541
  824BOLB   GL319767  26.626  10.773  21.785  0.3639  0.0620  0.0796
  824BOLB   GL419768  26.529  11.012  21.609 -0.1291  0.1235 -0.0048
  824BOLB   C1C19769  26.321  10.565  21.576  0.0159  0.0076 -0.0066
  824BOLB   C2C19770  25.888  10.460  21.486 -0.1759 -0.3550 -0.2896
  824BOLB   C3C19771  25.568  10.150  21.318 -0.0347 -0.0743  0.0598
  824BOLB   C4C19772  25.352  10.038  21.081  0.0409  0.1505  0.0633
  824BOLB   C1D19773  26.416  11.433  21.596 -0.1775  0.1010 -0.1470
  824BOLB   C2D19774  26.478  11.664  21.291  0.1276  0.0592  0.3495
  824BOLB   C3D19775  26.309  12.042  21.082  0.4371  0.0291  0.0586
  824BOLB   C4D19776  26.362  12.575  21.090  0.0775 -0.0188  0.1885
  825BOLB   NC119777  25.603  12.422  19.263  0.0454 -0.1840  0.1233
  825BOLB   PO119778  25.634  12.681  18.887 -0.2789 -0.2056  0.0419
  825BOLB   GL119779  25.712  12.935  19.105  0.1687  0.1478 -0.3314
  825BOLB   GL219780  25.934  12.826  19.308  0.0792  0.5171  0.2464
  825BOLB   C1A19781  25.726  13.254  19.537  0.1079  0.1672  0.0949
  825BOLB   C2A19782  25.867  13.187  19.903 -0.2311 -0.3219  0.2612
  825BOLB   C3A19783  26.311  13.313  20.037 -0.0106 -0.3772 -0.2680
  825BOLB   C4A19784  26.577  13.255  20.399 -0.0840 -0.0035  0.0638
  825BOLB   C1B19785  26.140  12.663  19.754 -0.0846  0.2582 -0.2673
  825BOLB   C2B19786  26.172  12.509  20.173  0.1191 -0.0335 -0.0532
  825BOLB   C3B19787  26.558  12.311  20.199  0.1522  0.2109  0.1579
  825BOLB   C4B19788  26.885  12.055  20.129 -0.0833 -0.1632  0.1015
  825BOLB   NC219789  27.576  12.597  22.043 -0.2440  0.0942  0.0156
  825BOLB   PO219790  27.519  13.068  22.231  0.0090 -0.0992  0.1785
  825BOLB   GL319791  27.132  13.260  21.975  0.0940  0.1483 -0.1305
  825BOLB   GL419792  27.342  13.584  21.819 -0.0423  0.3642 -0.4383
  825BOLB   C1C19793  26.769  13.324  21.875  0.0161  0.0147 -0.0159
  825BOLB   C2C19794  26.644  13.318  21.465 -0.0204 -0.0991  0.1883
  825BOLB   C3C19795  26.681  13.446  21.056  0.4107  0.0287 -0.1938
  825BOLB   C4C19796  26.701  13.349  20.735 -0.1540 -0.3800  0.1992
  825BOLB   C1D19797  27.100  13.440  21.428  0.1258 -0.3314 -0.3097
  825BOLB   C2D19798  27.148  13.217  20.985 -0.0347  0.0656 -0.1139
  825BOLB   C3D19799  27.397  13.262  20.599  0.0820 -0.0639 -0.2641
  825BOLB   C4D19800  27.786  13.249  20.381 -0.1673 -0.1418 -0.3040
  826BOLB   NC119801  23.466  17.723  20.866 -0.0450  0.0206 -0.0358
  826BOLB   PO119802  23.786  17.820  20.498 -0.0713 -0.1860 -0.1687
  826BOLB   GL119803  24.131  17.802  20.788 -0.3076 -0.0060  0.0421
  826BOLB   GL219804  24.437  17.885  20.676  0.0008 -0.2356  0.1067
  826BOLB   C1A19805  24.366  17.680  21.122  0.0865 -0.0536 -0.1959
  826BOLB   C2A19806  24.579  17.592  21.538  0.0470 -0.0379  0.4146
  826BOLB   C3A19807  24.927  17.487  21.827 -0.1504 -0.0454  0.2603
  826BOLB   C4A19808  25.289  17.517  21.921 -0.3234 -0.1451 -0.0077
  826BOLB   C1B19809  24.791  18.016  20.750  0.1654  0.1668 -0.3257
  826BOLB   C2B19810  25.257  17.882  20.840 -0.3799  0.0621  0.2891
  826BOLB   C3B19811  25.601  17.722  21.061  0.0047 -0.0341  0.0676
  826BOLB   C4B19812  25.839  17.497  20.996 -0.1150 -0.1279  0.1129
  826BOLB   NC219813  27.266  18.661  22.545  0.0930 -0.2965 -0.0674
  826BOLB   PO219814  27.112  18.879  22.957  0.3272 -0.2113 -0.3520
  826BOLB   GL319815  26.738  18.662  22.775  0.0148  0.0424  0.1209
  826BOLB   GL419816  26.478  18.810  22.713  0.1419  0.0980 -0.0198
  826BOLB   C1C19817  26.501  18.287  22.764  0.0504  0.2058 -0.0535
  826BOLB   C2C19818  26.288  17.978  22.456 -0.3491  0.0029  0.0824
  826BOLB   C3C19819  25.920  17.816  22.292  0.0359 -0.1525 -0.0802
  826BOLB   C4C19820  25.549  17.593  22.238  0.0985 -0.0543 -0.1447
  826BOLB   C1D19821  26.232  18.495  22.413  0.1728  0.1775 -0.2380
  826BOLB   C2D19822  25.957  18.307  22.127  0.1450  0.0400  0.0313
  826BOLB   C3D19823  25.859  18.408  21.725  0.1099 -0.0127  0.0650
  826BOLB   C4D19824  25.908  18.693  21.458  0.1033 -0.0692  0.3825
  827BOLB   NC119825  22.742  15.987  21.663  0.0955  0.0309  0.0543
  827BOLB   PO119826  22.587  15.570  21.586  0.2199  0.0557  0.3024
  827BOLB   GL119827  22.929  15.552  21.876  0.2553 -0.0388 -0.1678
  827BOLB   GL219828  23.113  15.645  21.610  0.0770  0.2423  0.0608
  827BOLB   C1A19829  23.201  15.279  22.110  0.3475  0.1742  0.0112
  827BOLB   C2A19830  23.394  15.312  22.556  0.2677 -0.1639  0.1410
  827BOLB   C3A19831  23.583  15.012  22.826 -0.0815  0.0692  0.1223
  827BOLB   C4A19832  23.662  14.663  23.017 -0.1550 -0.0919 -0.2868
  827BOLB   C1B19833  23.412  15.690  21.866 -0.3130  0.0804  0.0634
  827BOLB   C2B19834  23.459  15.811  22.241 -0.0164 -0.2524  0.0707
  827BOLB   C3B19835  23.672  15.734  22.566  0.0774  0.0255 -0.1331
  827BOLB   C4B19836  24.068  15.665  22.752 -0.2474  0.0799 -0.2152
  827BOLB   NC219837  25.363  14.870  24.625  0.0149 -0.0154  0.0276
  827BOLB   PO219838  25.452  15.264  24.340 -0.0034  0.0752  0.0607
  827BOLB   GL319839  25.120  15.243  24.122 -0.0233  0.2796 -0.1159
  827BOLB   GL419840  24.886  15.245  24.246 -0.2808  0.0472  0.2248
  827BOLB   C1C19841  24.972  15.152  23.798 -0.3247  0.3536 -0.1056
  827BOLB   C2C19842  24.629  15.017  23.620  0.0541 -0.1408 -0.0694
  827BOLB   C3C19843  24.279  14.832  23.403  0.0030 -0.1403 -0.3871
  827BOLB   C4C19844  23.937  14.582  23.299 -0.2766 -0.1151  0.1551
  827BOLB   C1D19845  24.708  15.563  23.938 -0.3086  0.1438  0.0260
  827BOLB   C2D19846  24.421  15.831  23.790  0.0337 -0.4609 -0.0841
  827BOLB   C3D19847  24.093  16.035  23.930  0.2727  0.0192 -0.4237
  827BOLB   C4D19848  23.703  16.006  23.713  0.1556  0.1180  0.3300
  828BOLB   NC119849  24.617  18.583  18.670 -0.1460  0.1601  0.1514
  828BOLB   PO119850  24.392  18.488  19.038 -0.1508  0.0189 -0.0477
  828BOLB   GL119851  24.750  18.704  19.151  0.0179  0.2272 -0.1269
  828BOLB   GL219852  25.007  18.708  18.958 -0.1924  0.0948 -0.1640
  828BOLB   C1A19853  24.886  18.858  19.576  0.0048 -0.1974  0.0777
  828BOLB   C2A19854  25.188  19.037  19.750  0.0543 -0.0290 -0.0333
  828BOLB   C3A19855  25.538  19.300  19.894  0.0985  0.0394  0.0725
  828BOLB   C4A19856  25.668  19.371  19.589 -0.2001  0.1116 -0.0131
  828BOLB   C1B19857  25.264  18.894  19.260 -0.1523  0.1459  0.0192
  828BOLB   C2B19858  25.722  19.017  19.244 -0.0453  0.0769 -0.1016
  828BOLB   C3B19859  26.133  19.242  19.371  0.1374  0.0258  0.0695
  828BOLB   C4B19860  26.320  19.620  19.595  0.2692  0.2070 -0.2143
  828BOLB   NC219861  27.974  20.607  19.506 -0.1709 -0.1176 -0.1012
  828BOLB   PO219862  27.752  21.003  19.578 -0.0430  0.0618 -0.2016
  828BOLB   GL319863  27.357  20.883  19.462  0.0283  0.1233  0.1095
  828BOLB   GL419864  27.473  20.527  19.409 -0.1421  0.1935 -0.1690
  828BOLB   C1C19865  26.915  20.600  19.488  0.1608  0.0493  0.0044
  828BOLB   C2C19866  26.579  20.321  19.693 -0.0633 -0.3907 -0.1732
  828BOLB   C3C19867  26.191  20.093  19.481  0.1437 -0.0888  0.1040
  828BOLB   C4C19868  25.814  19.701  19.521 -0.3724 -0.2460 -0.0056
  828BOLB   C1D19869  27.411  20.392  18.909 -0.5663 -0.2161 -0.1488
  828BOLB   C2D19870  27.056  20.415  18.619 -0.2749 -0.0861  0.2040
  828BOLB   C3D19871  26.859  20.508  18.367 -0.1514  0.3144 -0.0896
  828BOLB   C4D19872  26.530  20.660  18.154  0.2473  0.4227 -0.1959
  829BOLB   NC119873  26.919  10.982  18.924 -0.2497 -0.0577 -0.2774
  829BOLB   PO119874  26.438  11.197  19.034 -0.2654  0.1738  0.0770
  829BOLB   GL119875  26.219  11.309  19.441  0.1370  0.0496 -0.3244
  829BOLB   GL219876  25.841  11.414  19.447 -0.2472 -0.2077  0.0519
  829BOLB   C1A19877  26.038  11.025  19.680  0.2029  0.0313  0.2893
  829BOLB   C2A19878  25.848  10.886  20.031 -0.0085  0.0582  0.1585
  829BOLB   C3A19879  25.593  11.096  20.343 -0.0048  0.2329 -0.0641
  829BOLB   C4A19880  25.857  11.116  20.717 -0.1264 -0.1943 -0.0689
  829BOLB   C1B19881  25.599  11.300  19.925 -0.1244  0.0757  0.0626
  829BOLB   C2B19882  25.133  11.197  20.109 -0.2029  0.1195  0.0316
  829BOLB   C3B19883  24.677  11.014  20.191 -0.0572  0.0876  0.1023
  829BOLB   C4B19884  24.497  10.671  20.428  0.0509  0.1254 -0.1318
  829BOLB   NC219885  26.631  10.373  22.108 -0.3648  0.2901 -0.0529
  829BOLB   PO219886  26.332  10.009  22.383  0.1125 -0.3044 -0.0007
  829BOLB   GL319887  26.013  10.304  22.299 -0.0935 -0.0212 -0.1418
  829BOLB   GL419888  25.863  10.445  22.544  0.2542 -0.5778 -0.0700
  829BOLB   C1C19889  25.948  10.616  21.969 -0.0240 -0.0130  0.2706
  829BOLB   C2C19890  26.009  10.923  21.756 -0.0948  0.2096 -0.1338
  829BOLB   C3C19891  26.034  10.898  21.330  0.0385  0.0060  0.0927
  829BOLB   C4C19892  26.002  10.893  20.965  0.0251 -0.1789  0.2643
  829BOLB   C1D19893  25.531  10.589  22.248  0.1439 -0.1685  0.1377
  829BOLB   C2D19894  25.486  10.621  21.757 -0.1984  0.0674 -0.2237
  829BOLB   C3D19895  25.413  10.957  21.512 -0.0617  0.0201 -0.1741
  829BOLB   C4D19896  25.138  11.163  21.184 -0.1025  0.1015 -0.0783
  830BOLB   NC119897  24.632  17.591  18.339  0.0974  0.2625  0.3019
  830BOLB   PO119898  24.525  17.157  18.418 -0.0983  0.0054 -0.1929
  830BOLB   GL119899  24.947  17.093  18.530 -0.3345 -0.0956  0.2148
  830BOLB   GL219900  25.116  17.054  18.772 -0.1851 -0.0284 -0.0543
  830BOLB   C1A19901  25.391  17.027  18.373  0.2696 -0.1298  0.0241
  830BOLB   C2A19902  25.732  16.893  18.137  0.1998 -0.2368  0.1367
  830BOLB   C3A19903  26.096  16.971  17.991  0.1729  0.4931  0.1755
  830BOLB   C4A19904  26.448  17.085  17.930 -0.0519 -0.0529  0.0586
  830BOLB   C1B19905  25.317  17.279  19.099  0.3342  0.2731  0.1684
  830BOLB   C2B19906  25.662  17.567  19.176 -0.2708  0.1764 -0.0131
  830BOLB   C3B19907  26.035  17.671  19.191 -0.3983  0.2717 -0.0955
  830BOLB   C4B19908  26.484  17.626  19.159  0.2654 -0.2138 -0.1895
  830BOLB   NC219909  28.691  17.595  17.352  0.2503  0.0818  0.0589
  830BOLB   PO219910  28.839  17.169  17.159 -0.3962  0.5496 -0.0956
  830BOLB   GL319911  28.376  17.190  17.299 -0.1992  0.0058 -0.1206
  830BOLB   GL419912  28.198  17.437  17.096  0.0740 -0.0870 -0.0589
  830BOLB   C1C19913  28.087  17.485  17.610 -0.0566 -0.0584  0.0440
  830BOLB   C2C19914  27.607  17.492  17.807  0.0937  0.1073 -0.0499
  830BOLB   C3C19915  27.203  17.529  17.862 -0.3614  0.0364 -0.1108
  830BOLB   C4C19916  26.713  17.418  17.893 -0.2433  0.4070 -0.2971
  830BOLB   C1D19917  27.926  17.053  17.207  0.0834 -0.3440 -0.1364
  830BOLB   C2D19918  27.479  17.109  17.382 -0.4649  0.2514 -0.0527
  830BOLB   C3D19919  27.050  17.095  17.570  0.3093 -0.0076  0.3568
  830BOLB   C4D19920  26.738  16.853  17.611 -0.0365  0.3778 -0.0937
  831BOLB   NC119921  23.155  19.674  19.564  0.0080  0.0064  0.1167
  831BOLB   PO119922  23.308  20.060  19.814  0.0302 -0.0906 -0.0382
  831BOLB   GL119923  23.564  20.251  20.052 -0.0667 -0.0466 -0.2036
  831BOLB   GL219924  23.553  20.394  20.288  0.1635  0.3352 -0.0233
  831BOLB   C1A19925  23.958  20.578  20.003  0.2995 -0.1900  0.0021
  831BOLB   C2A19926  24.226  20.807  20.212  0.0295  0.2469  0.2179
  831BOLB   C3A19927  24.490  21.042  20.208 -0.0746  0.1923 -0.1693
  831BOLB   C4A19928  24.978  21.043  20.243  0.1219  0.1065  0.0945
  831BOLB   C1B19929  23.900  20.676  20.600 -0.1886  0.0512 -0.0098
  831BOLB   C2B19930  24.227  20.810  20.781  0.0114  0.0463 -0.2711
  831BOLB   C3B19931  24.515  20.732  21.185 -0.0551 -0.3046 -0.3050
  831BOLB   C4B19932  24.682  20.667  21.555  0.0423 -0.2265  0.4152
  831BOLB   NC219933  28.167  20.560  20.242 -0.2960 -0.1629 -0.0288
  831BOLB   PO219934  27.741  20.532  20.405  0.2294 -0.4182 -0.1255
  831BOLB   GL319935  27.307  20.397  20.270  0.3686 -0.0112 -0.2941
  831BOLB   GL419936  27.156  20.300  20.561  0.1141 -0.3835 -0.3665
  831BOLB   C1C19937  26.854  20.510  20.068  0.3390  0.0373 -0.0095
  831BOLB   C2C19938  26.420  20.640  20.173  0.0517 -0.0006 -0.1223
  831BOLB   C3C19939  25.875  20.668  20.173  0.0075  0.0717  0.0644
  831BOLB   C4C19940  25.424  20.924  20.167  0.2952 -0.0480 -0.0817
  831BOLB   C1D19941  26.700  20.264  20.529  0.3259 -0.0289  0.0391
  831BOLB   C2D19942  26.295  20.233  20.530 -0.0298 -0.0456  0.0018
  831BOLB   C3D19943  25.904  20.055  20.472 -0.1898  0.1032 -0.0638
  831BOLB   C4D19944  25.567  19.895  20.293  0.0852 -0.0763 -0.0376
  832BOLB   NC119945  22.391  11.709  20.213  0.0530  0.2294  0.1614
  832BOLB   PO119946  22.805  11.720  20.125 -0.2828 -0.0055  0.2371
  832BOLB   GL119947  23.184  11.435  20.317  0.0564  0.0275  0.2879
  832BOLB   GL219948  23.228  11.451  20.660 -0.0828 -0.1180 -0.0855
  832BOLB   C1A19949  23.429  10.990  20.483  0.3083 -0.3209 -0.0840
  832BOLB   C2A19950  23.453  10.587  20.697 -0.3601 -0.3522  0.2356
  832BOLB   C3A19951  23.560  10.111  20.768  0.2474  0.1826  0.2600
  832BOLB   C4A19952  23.561   9.659  20.752 -0.0893  0.0159  0.1423
  832BOLB   C1B19953  23.480  11.328  21.092 -0.1095  0.3859 -0.1914
  832BOLB   C2B19954  23.741  11.326  21.371 -0.0961  0.2161 -0.0751
  832BOLB   C3B19955  23.974  11.328  21.783 -0.3771  0.0412  0.0874
  832BOLB   C4B19956  24.153  11.023  22.113 -0.0479 -0.2210  0.0042
  832BOLB   NC219957  24.717   7.818  21.956  0.0215  0.0470 -0.1320
  832BOLB   PO219958  24.411   7.618  22.181  0.1272  0.0786  0.5450
  832BOLB   GL319959  24.064   7.939  22.139 -0.0195 -0.0181  0.0636
  832BOLB   GL419960  24.091   8.291  22.306 -0.1605 -0.2174  0.2513
  832BOLB   C1C19961  23.800   8.180  21.787 -0.2218  0.3364  0.2578
  832BOLB   C2C19962  23.531   8.467  21.446  0.3883 -0.2270 -0.0662
  832BOLB   C3C19963  23.447   8.877  21.157 -0.2292 -0.1270  0.0654
  832BOLB   C4C19964  23.385   9.305  20.996  0.1164 -0.0560 -0.1870
  832BOLB   C1D19965  23.767   8.584  22.416 -0.2717 -0.3203 -0.0111
  832BOLB   C2D19966  23.604   8.929  22.176  0.1433 -0.3443 -0.1156
  832BOLB   C3D19967  23.354   9.336  22.062  0.0208  0.4340  0.0081
  832BOLB   C4D19968  23.021   9.553  21.918 -0.2047 -0.4482  0.2599
  833BOLB   NC119969  24.859  19.114  17.237  0.0461 -0.0006  0.1898
  833BOLB   PO119970  24.935  18.981  17.599  0.0606 -0.2637 -0.2522
  833BOLB   GL119971  25.454  19.039  17.460  0.0136  0.0720 -0.3904
  833BOLB   GL219972  25.446  19.235  17.205  0.0684  0.0721 -0.0890
  833BOLB   C1A19973  25.823  18.960  17.716  0.1918 -0.0567 -0.4798
  833BOLB   C2A19974  25.995  19.234  17.894  0.1307 -0.1263 -0.1430
  833BOLB   C3A19975  26.225  19.302  18.290  0.1884 -0.0823 -0.0203
  833BOLB   C4A19976  26.259  19.191  18.761  0.1644 -0.3458  0.1346
  833BOLB   C1B19977  25.725  19.451  17.452 -0.0759  0.0237 -0.2967
  833BOLB   C2B19978  26.149  19.481  17.335 -0.0577 -0.0258 -0.1599
  833BOLB   C3B19979  26.514  19.385  17.075 -0.1579 -0.0606 -0.0975
  833BOLB   C4B19980  26.889  19.167  16.815 -0.0543  0.2748  0.1198
  833BOLB   NC219981  28.511  19.273  19.550  0.1115 -0.3478  0.1107
  833BOLB   PO219982  28.421  19.457  19.140 -0.0378 -0.1817  0.1066
  833BOLB   GL319983  28.019  19.391  19.143  0.1630 -0.0880  0.0139
  833BOLB   GL419984  27.958  19.497  18.820 -0.1557 -0.3007 -0.1588
  833BOLB   C1C19985  27.634  19.193  19.188  0.0108 -0.1373  0.2893
  833BOLB   C2C19986  27.363  18.997  18.975 -0.0683  0.0654 -0.1156
  833BOLB   C3C19987  26.937  18.855  18.871  0.1321 -0.4489 -0.4447
  833BOLB   C4C19988  26.504  18.996  18.977  0.1052 -0.1340 -0.1520
  833BOLB   C1D19989  27.498  19.577  18.852  0.2020  0.1341 -0.2961
  833BOLB   C2D19990  27.210  19.486  19.203 -0.0651  0.3831  0.0321
  833BOLB   C3D19991  26.933  19.774  19.501 -0.0467 -0.0149 -0.2228
  833BOLB   C4D19992  27.152  20.182  19.467 -0.0246  0.2610 -0.2504
  834BOLB   NC119993  27.183  12.018  19.590  0.3388 -0.3031 -0.1579
  834BOLB   PO119994  26.818  11.941  19.260  0.1270  0.1053 -0.0623
  834BOLB   GL119995  26.487  12.200  19.419  0.1512  0.4164 -0.3112
  834BOLB   GL219996  26.319  12.517  19.255 -0.0088 -0.1606  0.0077
  834BOLB   C1A19997  26.206  12.127  19.719  0.3063  0.0606 -0.0800
  834BOLB   C2A19998  25.790  12.239  19.965  0.4378 -0.0492  0.1641
  834BOLB   C3A19999  25.693  12.021  20.275  0.1059  0.1187 -0.2284
  834BOLB   C4A20000  25.552  12.037  20.715  0.2265 -0.0495  0.0860
  834BOLB   C1B20001  26.439  12.937  19.437 -0.3537  0.1882 -0.0127
  834BOLB   C2B20002  26.617  13.347  19.675  0.0913 -0.0380  0.0522
  834BOLB   C3B20003  26.712  13.579  20.061  0.0394 -0.0749 -0.3528
  834BOLB   C4B20004  26.824  14.040  20.346  0.2272  0.0599 -0.1227
  834BOLB   NC220005  27.488  11.887  21.392 -0.0112  0.2166 -0.0830
  834BOLB   PO220006  27.471  12.236  21.703  0.2619  0.1710  0.1181
  834BOLB   GL320007  27.059  12.403  21.646 -0.0784 -0.2803 -0.0636
  834BOLB   GL420008  27.141  12.364  21.320  0.2009  0.0944  0.0889
  834BOLB   C1C20009  26.714  12.098  21.589 -0.1169  0.0271  0.3412
  834BOLB   C2C20010  26.299  11.968  21.652 -0.0388  0.4218  0.1850
  834BOLB   C3C20011  25.971  11.854  21.388 -0.0721 -0.0556 -0.1048
  834BOLB   C4C20012  25.597  11.889  21.083 -0.1401  0.0808 -0.1352
  834BOLB   C1D20013  27.068  12.747  21.134  0.0141  0.1551 -0.1809
  834BOLB   C2D20014  26.685  12.940  21.126  0.2471  0.2737  0.2916
  834BOLB   C3D20015  26.332  13.038  20.793 -0.1389 -0.0379 -0.1931
  834BOLB   C4D20016  25.983  12.847  20.812  0.1780  0.0056  0.3675
  835BOLB   NC120017  21.817  23.504  18.420 -0.0106  0.1040 -0.0228
  835BOLB   PO120018  21.403  23.638  18.558  0.1265 -0.1387  0.1053
  835BOLB   GL120019  21.595  24.049  18.547  0.1606 -0.0293  0.1621
  835BOLB   GL220020  21.898  23.990  18.535 -0.2266 -0.2773  0.0046
  835BOLB   C1A20021  21.750  24.494  18.594 -0.2964 -0.1561 -0.1845
  835BOLB   C2A20022  21.855  24.982  18.502  0.1932  0.0414 -0.0352
  835BOLB   C3A20023  22.025  25.389  18.433 -0.1380  0.4034  0.1625
  835BOLB   C4A20024  21.949  25.681  18.081  0.1533 -0.1508 -0.0057
  835BOLB   C1B20025  22.154  24.256  18.371  0.0744  0.1303  0.3225
  835BOLB   C2B20026  22.442  24.540  18.400  0.2580 -0.0828 -0.1226
  835BOLB   C3B20027  22.643  24.967  18.208 -0.0711  0.0532  0.1903
  835BOLB   C4B20028  23.022  25.150  18.144  0.2394 -0.1435  0.0332
  835BOLB   NC220029  24.020  26.439  18.519  0.2042  0.2618 -0.3349
  835BOLB   PO220030  23.884  26.879  18.623  0.2436  0.1750 -0.0249
  835BOLB   GL320031  23.469  26.602  18.780 -0.2633 -0.0806  0.0105
  835BOLB   GL420032  23.187  26.650  19.098 -0.0421 -0.3444  0.2271
  835BOLB   C1C20033  23.065  26.641  18.605  0.1747  0.1613  0.2138
  835BOLB   C2C20034  22.756  26.479  18.314 -0.1811  0.2349 -0.0122
  835BOLB   C3C20035  22.715  26.172  18.041 -0.1059 -0.0299  0.1154
  835BOLB   C4C20036  22.304  25.975  17.900  0.2028 -0.2315  0.1681
  835BOLB   C1D20037  22.724  26.547  19.290 -0.1836 -0.1974 -0.2604
  835BOLB   C2D20038  22.344  26.609  19.164 -0.2561  0.0222 -0.0606
  835BOLB   C3D20039  22.158  26.923  19.428 -0.1429  0.1574  0.1809
  835BOLB   C4D20040  21.967  27.359  19.437  0.1513 -0.2415  0.0393
  836BOLB   NC120041  23.486  15.375  19.900  0.0333  0.2972 -0.0177
  836BOLB   PO120042  23.861  15.661  19.928  0.0904 -0.1808 -0.1894
  836BOLB   GL120043  24.187  15.689  20.231 -0.1031 -0.0451 -0.1451
  836BOLB   GL220044  24.269  15.904  20.180 -0.1411 -0.0015 -0.0945
  836BOLB   C1A20045  24.492  15.571  20.461  0.1262 -0.4062 -0.0410
  836BOLB   C2A20046  24.735  15.470  20.753  0.1284  0.0119  0.1980
  836BOLB   C3A20047  25.025  15.331  20.981  0.1351 -0.0290  0.3079
  836BOLB   C4A20048  25.359  15.381  21.261 -0.1318  0.1606 -0.1815
  836BOLB   C1B20049  24.645  15.824  20.032 -0.1781  0.0482  0.1059
  836BOLB   C2B20050  25.137  15.663  20.037  0.1141 -0.0232 -0.2395
  836BOLB   C3B20051  25.653  15.497  20.140  0.3154  0.3094 -0.3056
  836BOLB   C4B20052  26.058  15.482  20.378 -0.3541  0.0693  0.1763
  836BOLB   NC220053  27.430  14.565  22.378  0.2797 -0.2281  0.0121
  836BOLB   PO220054  27.188  14.360  22.387 -0.2991 -0.1888 -0.1499
  836BOLB   GL320055  26.806  14.246  22.334 -0.0827 -0.2587  0.0426
  836BOLB   GL420056  26.723  14.179  21.965  0.2085  0.4117 -0.1661
  836BOLB   C1C20057  26.316  14.465  22.283  0.1070  0.0407 -0.1082
  836BOLB   C2C20058  26.114  14.766  22.008 -0.1031  0.0139 -0.0696
  836BOLB   C3C20059  25.902  15.090  21.727  0.1790  0.0565  0.2346
  836BOLB   C4C20060  25.557  15.302  21.669 -0.1962 -0.0635 -0.0861
  836BOLB   C1D20061  26.476  14.521  21.798 -0.0130 -0.1134 -0.0123
  836BOLB   C2D20062  26.079  14.562  21.577 -0.2446 -0.0830 -0.1540
  836BOLB   C3D20063  25.654  14.609  21.795  0.3023  0.0066 -0.0397
  836BOLB   C4D20064  25.220  14.724  21.723 -0.1113  0.0778  0.0554
  837BOLB   NC120065  25.208  13.628  18.315  0.0254 -0.2621  0.1342
  837BOLB   PO120066  25.593  13.501  18.454  0.2662  0.0697  0.0851
  837BOLB   GL120067  25.814  13.798  18.657 -0.1934 -0.0805  0.0319
  837BOLB   GL220068  26.057  13.645  18.893  0.0421  0.3103 -0.1019
  837BOLB   C1A20069  25.711  14.171  18.869 -0.1967  0.2055 -0.3612
  837BOLB   C2A20070  25.888  14.536  19.051 -0.0528  0.0213 -0.1582
  837BOLB   C3A20071  26.029  14.881  19.393 -0.0282 -0.3556 -0.0485
  837BOLB   C4A20072  26.034  15.382  19.711  0.1344  0.0799  0.0015
  837BOLB   C1B20073  26.498  13.735  19.117  0.0605  0.0615 -0.1276
  837BOLB   C2B20074  26.767  13.859  19.465  0.2285 -0.1716 -0.0534
  837BOLB   C3B20075  27.027  14.023  19.877 -0.2030 -0.0206 -0.0099
  837BOLB   C4B20076  27.336  13.965  20.108  0.0876  0.0233 -0.1158
  837BOLB   NC220077  27.992  15.522  21.150  0.2848  0.1858 -0.0373
  837BOLB   PO220078  28.007  15.926  20.992  0.0583  0.1526  0.1592
  837BOLB   GL320079  27.873  15.654  20.631  0.2173 -0.0330 -0.2037
  837BOLB   GL420080  27.863  15.219  20.733 -0.2123  0.1021 -0.1575
  837BOLB   C1C20081  27.442  15.455  20.674 -0.0450 -0.0948  0.0768
  837BOLB   C2C20082  27.083  15.279  20.481 -0.0264 -0.3670 -0.0462
  837BOLB   C3C20083  26.640  15.364  20.292 -0.1021 -0.0135 -0.1015
  837BOLB   C4C20084  26.398  15.505  19.921 -0.0124 -0.1708 -0.0441
  837BOLB   C1D20085  27.644  14.969  20.333 -0.0991 -0.0933  0.0762
  837BOLB   C2D20086  27.343  15.208  20.073 -0.0002  0.0358  0.2335
  837BOLB   C3D20087  27.368  15.317  19.652 -0.0047 -0.0532  0.0161
  837BOLB   C4D20088  27.370  15.196  19.186  0.0775 -0.1697 -0.1145
  838BOLB   NC120089  26.275  11.827  18.974  0.3063 -0.0404  0.2576
  838BOLB   PO120090  25.905  12.129  19.050  0.0414  0.3226  0.0583
  838BOLB   GL120091  25.885  11.935  19.443  0.0140  0.0576 -0.2150
  838BOLB   GL220092  25.596  12.014  19.573 -0.0398 -0.2349 -0.2507
  838BOLB   C1A20093  25.891  11.705  19.904 -0.0779  0.1567 -0.0056
  838BOLB   C2A20094  25.886  11.586  20.343  0.2329  0.0590  0.1170
  838BOLB   C3A20095  25.595  11.515  20.741 -0.1205 -0.0798  0.1223
  838BOLB   C4A20096  25.628  11.282  21.123  0.0432 -0.3050  0.0655
  838BOLB   C1B20097  25.356  11.811  19.891 -0.0472  0.1126 -0.0346
  838BOLB   C2B20098  25.269  11.652  20.329  0.3325 -0.0186 -0.4187
  838BOLB   C3B20099  25.127  11.210  20.650  0.0389 -0.0047  0.4197
  838BOLB   C4B20100  24.846  11.053  20.652 -0.0664 -0.0829  0.2940
  838BOLB   NC220101  26.264  11.144  23.663 -0.0102  0.1885 -0.3583
  838BOLB   PO220102  26.335  11.443  23.252  0.2001  0.1763 -0.2400
  838BOLB   GL320103  26.108  11.444  22.923 -0.2996  0.1417  0.0282
  838BOLB   GL420104  25.976  11.745  22.981  0.1942  0.2584  0.3301
  838BOLB   C1C20105  25.791  11.481  22.594 -0.2042 -0.1089  0.2938
  838BOLB   C2C20106  25.929  11.530  22.185  0.0520 -0.0617 -0.1020
  838BOLB   C3C20107  25.978  11.584  21.810  0.3543  0.2073  0.1531
  838BOLB   C4C20108  25.930  11.379  21.454  0.1564  0.0344  0.1568
  838BOLB   C1D20109  25.630  11.493  23.065  0.0896 -0.3089  0.1417
  838BOLB   C2D20110  25.261  11.402  22.760 -0.0604 -0.1465  0.1954
  838BOLB   C3D20111  25.319  11.529  22.426  0.1384  0.1932  0.0788
  838BOLB   C4D20112  25.201  11.705  22.080 -0.0632  0.2492 -0.1771
  839BOLB   NC120113  24.088  16.411  18.171 -0.3543 -0.2015 -0.0717
  839BOLB   PO120114  24.515  16.357  18.253 -0.0358  0.2013 -0.2641
  839BOLB   GL120115  24.945  16.490  18.492  0.0850  0.0936  0.0225
  839BOLB   GL220116  25.195  16.556  18.350  0.1089  0.0920  0.1943
  839BOLB   C1A20117  25.374  16.568  18.788 -0.0409 -0.0920  0.2904
  839BOLB   C2A20118  25.798  16.794  18.823 -0.0663 -0.1874 -0.2142
  839BOLB   C3A20119  26.093  16.770  19.209  0.1927  0.0779  0.2576
  839BOLB   C4A20120  26.080  16.672  19.649 -0.2311 -0.2197  0.0043
  839BOLB   C1B20121  25.606  16.425  18.382  0.0185  0.0197  0.1406
  839BOLB   C2B20122  26.015  16.489  18.510 -0.0273 -0.1312  0.2357
  839BOLB   C3B20123  26.209  16.908  18.434  0.1136  0.1277 -0.1995
  839BOLB   C4B20124  25.998  17.299  18.329  0.0382  0.0556  0.0495
  839BOLB   NC220125  27.687  17.203  21.426  0.0158 -0.0618  0.1745
  839BOLB   PO220126  27.306  17.485  21.367  0.1064  0.2109  0.0814
  839BOLB   GL320127  26.993  17.337  21.108 -0.0443  0.2431  0.2111
  839BOLB   GL420128  27.299  17.323  20.799  0.1589 -0.1157 -0.1286
  839BOLB   C1C20129  26.579  17.272  21.110  0.1347  0.1807  0.0916
  839BOLB   C2C20130  26.318  17.166  20.720  0.1411  0.0743  0.0347
  839BOLB   C3C20131  26.027  16.938  20.426  0.1239 -0.1322  0.2937
  839BOLB   C4C20132  25.981  16.918  20.034 -0.1928  0.2228 -0.3995
  839BOLB   C1D20133  26.863  17.188  20.648  0.0398 -0.1845  0.1931
  839BOLB   C2D20134  26.630  16.827  20.895 -0.0775  0.0982 -0.0434
  839BOLB   C3D20135  26.331  16.450  21.059  0.3662  0.0161 -0.5600
  839BOLB   C4D20136  26.036  16.115  20.897  0.1285 -0.1778 -0.2057
  840BOLB   NC120137  24.982  15.277  17.705 -0.1289 -0.0801 -0.2653
  840BOLB   PO120138  24.999  15.060  18.162 -0.1749  0.3960 -0.1879
  840BOLB   GL120139  25.369  15.250  18.139 -0.1142 -0.1689  0.0746
  840BOLB   GL220140  25.531  14.974  18.219 -0.2078  0.1620  0.2396
  840BOLB   C1A20141  25.659  15.532  18.155  0.0093  0.0175 -0.2083
  840BOLB   C2A20142  25.984  15.718  17.842 -0.1845 -0.2787 -0.2848
  840BOLB   C3A20143  26.376  15.680  17.645  0.0569  0.1645 -0.2352
  840BOLB   C4A20144  26.813  15.653  17.757  0.0486 -0.2143 -0.1120
  840BOLB   C1B20145  25.890  15.117  17.981  0.1345 -0.3180 -0.0548
  840BOLB   C2B20146  26.310  15.361  18.050  0.2100  0.2599 -0.4131
  840BOLB   C3B20147  26.769  15.273  18.031  0.0269  0.0653  0.1868
  840BOLB   C4B20148  27.157  15.447  18.213  0.1593  0.1103 -0.0781
  840BOLB   NC220149  29.010  16.633  17.698  0.3552  0.0657  0.4899
  840BOLB   PO220150  28.844  17.038  17.677 -0.1674  0.2296 -0.0666
  840BOLB   GL320151  28.573  16.849  17.510  0.1899  0.1062  0.0810
  840BOLB   GL420152  28.559  16.448  17.698 -0.1626  0.1240  0.1966
  840BOLB   C1C20153  28.126  16.647  17.554 -0.0981  0.3463 -0.0062
  840BOLB   C2C20154  27.822  16.327  17.793 -0.2607  0.2746  0.0873
  840BOLB   C3C20155  27.551  16.155  18.047 -0.3040 -0.0224 -0.1293
  840BOLB   C4C20156  27.179  15.926  18.036 -0.1603  0.1824  0.0146
  840BOLB   C1D20157  28.204  16.128  17.634  0.1019  0.0248 -0.2102
  840BOLB   C2D20158  28.000  15.854  17.913  0.2190  0.0177  0.0698
  840BOLB   C3D20159  28.147  15.484  18.206  0.0949 -0.0444  0.0560
  840BOLB   C4D20160  28.226  15.108  18.419  0.0539 -0.0799  0.1913
  841BOLB   NC120161  22.839  15.300  21.212  0.1367 -0.0013 -0.0344
  841BOLB   PO120162  23.137  15.049  20.993  0.0587 -0.2191 -0.1690
  841BOLB   GL120163  23.633  14.961  21.241 -0.1075  0.0966 -0.2743
  841BOLB   GL220164  23.612  14.748  21.527 -0.3396  0.2681  0.1589
  841BOLB   C1A20165  24.026  15.069  21.417 -0.0015  0.1752 -0.2471
  841BOLB   C2A20166  24.296  15.285  21.603 -0.1046 -0.0347  0.2007
  841BOLB   C3A20167  24.689  15.064  21.967  0.0691  0.1236  0.0786
  841BOLB   C4A20168  24.907  15.120  22.244 -0.2992  0.1204 -0.1241
  841BOLB   C1B20169  23.740  14.560  21.861 -0.0246 -0.1657  0.1256
  841BOLB   C2B20170  24.032  14.576  22.235  0.1330 -0.1403  0.1804
  841BOLB   C3B20171  24.381  14.393  22.534 -0.0206  0.0988 -0.2661
  841BOLB   C4B20172  24.767  14.280  22.747 -0.3128  0.1294  0.0958
  841BOLB   NC220173  25.590  14.366  23.981 -0.0781  0.1737  0.1007
  841BOLB   PO220174  25.252  14.474  24.324 -0.1359 -0.1656 -0.1324
  841BOLB   GL320175  25.097  14.711  24.023  0.2384 -0.0689 -0.1911
  841BOLB   GL420176  24.752  14.723  23.947 -0.0195 -0.0358 -0.0089
  841BOLB   C1C20177  25.091  14.742  23.528  0.0127  0.2255 -0.2157
  841BOLB   C2C20178  25.426  14.698  23.275  0.0090 -0.1783  0.3706
  841BOLB   C3C20179  25.447  14.872  22.901 -0.0667 -0.1638  0.0761
  841BOLB   C4C20180  25.261  14.980  22.479 -0.1294  0.0107  0.0616
  841BOLB   C1D20181  24.293  14.483  23.918  0.0304 -0.0394  0.3288
  841BOLB   C2D20182  23.980  14.148  23.937  0.0535 -0.1028 -0.0732
  841BOLB   C3D20183  23.752  13.754  23.787  0.3248  0.1171 -0.0169
  841BOLB   C4D20184  23.496  13.178  23.601 -0.1640 -0.2599 -0.3564
  842BOLB   NC120185  23.455  20.446  19.519 -0.4611 -0.0548  0.2833
  842BOLB   PO120186  23.555  20.853  19.347  0.2736 -0.2083 -0.0004
  842BOLB   GL120187  23.902  20.770  19.531 -0.1711 -0.1243  0.1371
  842BOLB   GL220188  24.027  21.089  19.576  0.2916  0.2144  0.2303
  842BOLB   C1A20189  24.417  20.684  19.776 -0.1588 -0.1118  0.0731
  842BOLB   C2A20190  24.706  20.630  19.943 -0.1890  0.0216 -0.1267
  842BOLB   C3A20191  24.900  20.324  20.182  0.1290  0.0044 -0.1805
  842BOLB   C4A20192  25.170  20.188  20.604 -0.2083  0.0700  0.3172
  842BOLB   C1B20193  24.356  21.191  19.756 -0.2496 -0.0198  0.1551
  842BOLB   C2B20194  24.761  21.001  19.598  0.2075 -0.1255  0.3027
  842BOLB   C3B20195  25.175  20.924  19.719 -0.1470  0.0756  0.0133
  842BOLB   C4B20196  25.607  20.666  19.672  0.0139  0.1822  0.0089
  842BOLB   NC220197  27.362  20.999  20.328 -0.0114 -0.0986 -0.2983
  842BOLB   PO220198  27.078  21.421  20.276 -0.0499 -0.2858 -0.2469
  842BOLB   GL320199  26.659  21.449  20.485 -0.2418  0.4034 -0.2939
  842BOLB   GL420200  26.366  21.722  20.360  0.2477 -0.3222 -0.0224
  842BOLB   C1C20201  26.377  21.071  20.391  0.2509 -0.0009 -0.0678
  842BOLB   C2C20202  26.189  20.723  20.649  0.0818  0.1299 -0.1871
  842BOLB   C3C20203  25.902  20.465  20.779  0.2438  0.2301  0.1718
  842BOLB   C4C20204  25.519  20.303  20.706 -0.1179  0.1853 -0.3122
  842BOLB   C1D20205  26.003  21.378  20.365 -0.0385  0.0868 -0.0982
  842BOLB   C2D20206  25.863  21.050  20.462 -0.0190  0.2375  0.1970
  842BOLB   C3D20207  25.625  20.810  20.596 -0.1443 -0.0537  0.1427
  842BOLB   C4D20208  25.230  20.734  20.584  0.3981 -0.2356  0.1479
  843BOLB   NC120209  24.347  17.088  17.850 -0.0576  0.0073  0.1600
  843BOLB   PO120210  24.727  17.186  17.960  0.0091  0.0716  0.0152
  843BOLB   GL120211  25.099  17.198  17.799  0.2892 -0.2979 -0.0466
  843BOLB   GL220212  25.170  16.940  17.894 -0.4937 -0.0769  0.2145
  843BOLB   C1A20213  25.538  17.308  17.978  0.2392  0.1777  0.0468
  843BOLB   C2A20214  25.854  17.506  17.883  0.0438  0.1382 -0.1310
  843BOLB   C3A20215  26.251  17.681  17.908  0.1559  0.0041  0.0207
  843BOLB   C4A20216  26.644  17.811  18.224 -0.0049 -0.1076 -0.2224
  843BOLB   C1B20217  25.521  16.878  17.572  0.1316 -0.0402  0.0933
  843BOLB   C2B20218  25.867  16.669  17.542 -0.2122 -0.4314  0.0354
  843BOLB   C3B20219  26.235  16.699  17.596 -0.1526  0.4093  0.0272
  843BOLB   C4B20220  26.528  16.471  17.426 -0.1345 -0.1650 -0.4325
  843BOLB   NC220221  28.738  17.914  18.227 -0.1025  0.0967 -0.1172
  843BOLB   PO220222  28.788  18.070  18.643 -0.3284 -0.2783 -0.1142
  843BOLB   GL320223  28.561  17.643  18.640  0.0689  0.0800 -0.2012
  843BOLB   GL420224  28.373  17.720  18.454  0.0561 -0.2731  0.1350
  843BOLB   C1C20225  28.145  17.514  18.806 -0.1169 -0.0294 -0.0253
  843BOLB   C2C20226  27.766  17.322  18.684 -0.0679  0.0363  0.3130
  843BOLB   C3C20227  27.453  17.489  18.343  0.3236 -0.2154 -0.0363
  843BOLB   C4C20228  26.993  17.632  18.393  0.2011  0.2173  0.2139
  843BOLB   C1D20229  27.944  17.898  18.491 -0.5592  0.2245 -0.1300
  843BOLB   C2D20230  27.556  17.924  18.112 -0.1371  0.0640 -0.1746
  843BOLB   C3D20231  27.169  18.032  17.927 -0.1480  0.2260 -0.1854
  843BOLB   C4D20232  26.909  17.855  17.556 -0.1247 -0.2072  0.3210
  844BOLB   NC120233  22.548  21.251  20.034  0.1408 -0.2295 -0.0413
  844BOLB   PO120234  22.310  21.277  20.380  0.1420  0.2247 -0.0142
  844BOLB   GL120235  22.589  21.423  20.589  0.0059  0.0805  0.0835
  844BOLB   GL220236  22.603  21.673  20.594 -0.1697 -0.0546 -0.2679
  844BOLB   C1A20237  23.057  21.338  20.622  0.2044  0.2687  0.2390
  844BOLB   C2A20238  23.467  21.392  20.862  0.0397 -0.1713 -0.1569
  844BOLB   C3A20239  23.557  21.580  21.278 -0.0931  0.2445 -0.2009
  844BOLB   C4A20240  23.920  21.735  21.517  0.1728 -0.2456 -0.0223
  844BOLB   C1B20241  22.977  21.806  20.699  0.4974  0.0027  0.2054
  844BOLB   C2B20242  23.392  21.942  20.896  0.0413 -0.0553  0.4139
  844BOLB   C3B20243  23.740  22.230  20.891  0.1204  0.0611  0.1597
  844BOLB   C4B20244  23.902  22.530  21.184 -0.3181 -0.0926  0.3333
  844BOLB   NC220245  26.003  23.120  20.945  0.2855 -0.2635  0.0793
  844BOLB   PO220246  25.766  23.285  21.370  0.1727 -0.1478  0.0348
  844BOLB   GL320247  25.429  22.970  21.234 -0.1647 -0.2057  0.0040
  844BOLB   GL420248  25.509  22.972  20.968  0.0705  0.0639  0.1782
  844BOLB   C1C20249  25.171  22.710  21.426 -0.0757  0.1356  0.3225
  844BOLB   C2C20250  25.109  22.265  21.471  0.0455  0.3510  0.3397
  844BOLB   C3C20251  24.767  22.009  21.485  0.2678 -0.0387 -0.0983
  844BOLB   C4C20252  24.310  21.935  21.536  0.0035 -0.1644  0.2144
  844BOLB   C1D20253  25.007  22.775  20.901 -0.2255  0.4330  0.3784
  844BOLB   C2D20254  24.750  22.554  21.157  0.3700  0.3541  0.0953
  844BOLB   C3D20255  24.336  22.197  21.067 -0.0995 -0.0042 -0.2403
  844BOLB   C4D20256  24.008  21.838  21.039  0.0750  0.0589  0.0704
  845BOLB   NC120257  23.065  12.353  20.986  0.2663  0.1603 -0.2555
  845BOLB   PO120258  22.693  12.524  21.273 -0.3579  0.0019 -0.2243
  845BOLB   GL120259  22.951  12.079  21.471 -0.2361  0.0602  0.1080
  845BOLB   GL220260  23.293  12.144  21.566  0.0967 -0.1172 -0.0202
  845BOLB   C1A20261  22.983  11.791  21.804 -0.1240 -0.0112 -0.1362
  845BOLB   C2A20262  23.102  11.585  22.206  0.4550  0.0008  0.2648
  845BOLB   C3A20263  23.341  11.410  22.578 -0.2553 -0.0147  0.0778
  845BOLB   C4A20264  23.321  11.182  22.908  0.1217  0.0839 -0.3610
  845BOLB   C1B20265  23.423  11.720  21.499 -0.1740 -0.1686 -0.1487
  845BOLB   C2B20266  23.486  11.321  21.787  0.1218 -0.0637 -0.1637
  845BOLB   C3B20267  23.618  10.922  22.035  0.1818 -0.1714 -0.0569
  845BOLB   C4B20268  23.832  10.535  22.255  0.2402 -0.1060  0.0441
  845BOLB   NC220269  24.415   9.615  24.061  0.3391 -0.2525 -0.0154
  845BOLB   PO220270  24.721   9.816  23.998  0.0595 -0.0009  0.0017
  845BOLB   GL320271  24.465  10.003  23.658  0.4969 -0.2462 -0.2061
  845BOLB   GL420272  24.629  10.325  23.572 -0.0920  0.1199 -0.2948
  845BOLB   C1C20273  24.090  10.279  23.648 -0.2325 -0.2561  0.1813
  845BOLB   C2C20274  23.700  10.328  23.778 -0.0340  0.0384 -0.1346
  845BOLB   C3C20275  23.470  10.535  23.546 -0.1228  0.1207  0.0592
  845BOLB   C4C20276  23.323  10.840  23.261  0.1469 -0.1193 -0.1797
  845BOLB   C1D20277  24.398  10.474  23.308  0.2480 -0.1120 -0.0980
  845BOLB   C2D20278  24.089  10.656  23.080  0.0682 -0.0233  0.1620
  845BOLB   C3D20279  23.775  10.929  22.893 -0.2281 -0.2666  0.2025
  845BOLB   C4D20280  23.847  11.390  22.782  0.1186 -0.0962 -0.3769
  846BOLB   NC120281  23.249  19.241  19.313  0.1419 -0.0742 -0.2126
  846BOLB   PO120282  23.581  19.435  19.582 -0.1139  0.2600 -0.1072
  846BOLB   GL120283  23.849  19.627  19.739 -0.1856 -0.0904 -0.1821
  846BOLB   GL220284  24.084  19.819  19.481 -0.1303 -0.2740  0.0790
  846BOLB   C1A20285  24.099  19.749  19.983 -0.0854  0.0105 -0.0083
  846BOLB   C2A20286  24.564  19.811  20.260 -0.2968  0.0683  0.1514
  846BOLB   C3A20287  25.053  19.868  20.203  0.0928  0.1488 -0.0364
  846BOLB   C4A20288  25.145  19.481  20.164  0.0031 -0.0134  0.1950
  846BOLB   C1B20289  24.542  19.925  19.451  0.1949 -0.0004 -0.1893
  846BOLB   C2B20290  24.767  20.214  19.641 -0.2014  0.1017 -0.0200
  846BOLB   C3B20291  25.194  20.421  19.831 -0.1521 -0.0541  0.2525
  846BOLB   C4B20292  25.395  20.368  20.164  0.2500  0.1627 -0.0439
  846BOLB   NC220293  27.491  20.033  21.291  0.3025  0.0143  0.2093
  846BOLB   PO220294  27.041  20.038  21.465 -0.0571  0.2549  0.3247
  846BOLB   GL320295  26.891  19.932  21.112  0.1940  0.0322  0.2359
  846BOLB   GL420296  27.093  19.933  20.866 -0.2287 -0.2409 -0.0099
  846BOLB   C1C20297  26.495  19.881  20.958 -0.2259 -0.3019 -0.0374
  846BOLB   C2C20298  26.299  19.742  20.552  0.1274 -0.3226  0.0891
  846BOLB   C3C20299  26.020  19.425  20.506 -0.0875  0.0833  0.2205
  846BOLB   C4C20300  25.599  19.397  20.363  0.0370  0.1882  0.1165
  846BOLB   C1D20301  26.818  19.799  20.594 -0.1151 -0.0482 -0.0332
  846BOLB   C2D20302  26.813  19.453  20.323 -0.2460 -0.1109 -0.0670
  846BOLB   C3D20303  27.181  19.155  20.334 -0.2902 -0.0125  0.1182
  846BOLB   C4D20304  27.464  18.944  20.089 -0.1133  0.2153  0.1902
  847BOLB   NC120305  24.020  12.762  19.617  0.5679  0.0447 -0.0217
  847BOLB   PO120306  24.284  13.063  19.477  0.1466  0.1195 -0.3365
  847BOLB   GL120307  24.551  13.130  19.869  0.0632 -0.0243  0.1121
  847BOLB   GL220308  24.412  12.813  19.983 -0.0835  0.1496 -0.2618
  847BOLB   C1A20309  24.848  13.308  20.203  0.0390  0.0876  0.0818
  847BOLB   C2A20310  24.962  13.217  20.601  0.0806 -0.0399 -0.1479
  847BOLB   C3A20311  25.356  13.148  20.822 -0.0201  0.3170  0.0914
  847BOLB   C4A20312  25.550  13.420  20.937 -0.0628  0.1640  0.2473
  847BOLB   C1B20313  24.531  12.912  20.411  0.1615 -0.4280 -0.2716
  847BOLB   C2B20314  24.425  12.803  20.793 -0.2171  0.3470 -0.1490
  847BOLB   C3B20315  24.531  12.807  21.238  0.0386  0.0947  0.0842
  847BOLB   C4B20316  24.505  12.796  21.607  0.1666  0.2300  0.1130
  847BOLB   NC220317  26.575  14.064  23.275 -0.1601 -0.2736 -0.0406
  847BOLB   PO220318  26.202  13.977  23.488 -0.2960  0.0998  0.0868
  847BOLB   GL320319  26.063  14.070  23.055 -0.0138 -0.0055  0.2042
  847BOLB   GL420320  25.882  13.747  23.072 -0.1561 -0.2683 -0.0986
  847BOLB   C1C20321  26.112  13.809  22.668 -0.3535 -0.2413 -0.1423
  847BOLB   C2C20322  25.811  13.640  22.365 -0.0259  0.4502 -0.2597
  847BOLB   C3C20323  25.755  13.686  21.858  0.0584 -0.3104  0.1502
  847BOLB   C4C20324  25.795  13.516  21.388 -0.0273 -0.1164  0.1868
  847BOLB   C1D20325  25.923  13.390  22.929 -0.0526 -0.1165  0.1225
  847BOLB   C2D20326  25.919  13.148  22.643 -0.2818 -0.1599  0.2294
  847BOLB   C3D20327  25.914  13.218  22.135  0.1277  0.5653 -0.1013
  847BOLB   C4D20328  25.670  13.205  21.724 -0.0021 -0.1334 -0.1680
  848BOLB   NC120329  24.883  15.257  18.624 -0.0517  0.2314  0.1610
  848BOLB   PO120330  24.995  15.190  19.002  0.0830  0.5713  0.2275
  848BOLB   GL120331  25.322  14.985  19.281  0.2606  0.1782 -0.1104
  848BOLB   GL220332  25.122  14.696  19.534  0.0619  0.0826  0.0565
  848BOLB   C1A20333  25.687  15.343  19.369 -0.1754  0.1979  0.0956
  848BOLB   C2A20334  26.042  15.374  19.015  0.3116  0.2667  0.1349
  848BOLB   C3A20335  26.381  15.437  18.936 -0.1387  0.2097  0.2838
  848BOLB   C4A20336  26.723  15.527  19.205  0.2024  0.3309 -0.3072
  848BOLB   C1B20337  25.270  14.670  19.875  0.2879 -0.1265  0.0210
  848BOLB   C2B20338  25.252  14.957  20.197 -0.0695  0.0112 -0.0722
  848BOLB   C3B20339  25.557  15.081  20.411 -0.0276 -0.0035 -0.0468
  848BOLB   C4B20340  25.754  15.021  20.707 -0.1447 -0.0242 -0.0459
  848BOLB   NC220341  29.095  16.948  19.856 -0.3716  0.0575 -0.2164
  848BOLB   PO220342  28.661  16.969  19.598 -0.4621  0.4233  0.1037
  848BOLB   GL320343  28.153  16.918  19.581 -0.0001 -0.4906 -0.1716
  848BOLB   GL420344  28.102  17.166  19.442 -0.2767  0.2624 -0.0373
  848BOLB   C1C20345  27.722  16.681  19.664  0.0182  0.1349 -0.0427
  848BOLB   C2C20346  27.413  16.348  19.508 -0.2749  0.0916 -0.2395
  848BOLB   C3C20347  27.306  15.935  19.401  0.0620  0.3254 -0.1344
  848BOLB   C4C20348  27.149  15.610  19.295 -0.0002  0.0576  0.1332
  848BOLB   C1D20349  27.737  17.344  19.235  0.2828  0.4604 -0.1822
  848BOLB   C2D20350  27.207  17.469  19.275  0.1482 -0.1192 -0.0249
  848BOLB   C3D20351  26.915  17.190  19.465  0.0621 -0.2744 -0.1628
  848BOLB   C4D20352  26.508  17.017  19.333 -0.2897  0.2571  0.0755
  849BOLB   NC120353  23.891  18.350  20.476 -0.0739 -0.0994 -0.0703
  849BOLB   PO120354  23.502  18.234  20.676  0.4570  0.1059  0.3857
  849BOLB   GL120355  23.809  18.118  21.039 -0.1644  0.1397  0.1396
  849BOLB   GL220356  23.727  18.297  21.280  0.1991 -0.0597 -0.1255
  849BOLB   C1A20357  24.255  18.158  21.172 -0.0721 -0.0572  0.2021
  849BOLB   C2A20358  24.480  18.148  21.498 -0.2189  0.0948  0.0306
  849BOLB   C3A20359  24.734  17.931  21.848 -0.0676 -0.4731  0.0832
  849BOLB   C4A20360  24.715  17.689  22.240  0.0074  0.4242  0.0303
  849BOLB   C1B20361  23.975  18.397  21.669 -0.1983  0.0510 -0.1126
  849BOLB   C2B20362  24.257  18.329  22.013 -0.1263  0.1148 -0.0031
  849BOLB   C3B20363  24.598  18.221  22.259  0.1097 -0.0712  0.0713
  849BOLB   C4B20364  24.789  18.352  22.642 -0.0927  0.3790 -0.3020
  849BOLB   NC220365  26.788  18.601  23.345  0.1547 -0.0458 -0.2539
  849BOLB   PO220366  26.621  18.495  23.773 -0.4044 -0.1396 -0.0173
  849BOLB   GL320367  26.230  18.534  23.438  0.3889 -0.0829  0.1218
  849BOLB   GL420368  26.314  18.730  23.209 -0.2227  0.1073  0.3388
  849BOLB   C1C20369  25.936  18.239  23.331 -0.0825  0.0470 -0.1567
  849BOLB   C2C20370  25.515  18.185  23.064 -0.0053  0.0146 -0.0966
  849BOLB   C3C20371  25.142  18.030  22.847  0.1805 -0.1138  0.1760
  849BOLB   C4C20372  24.780  17.877  22.633  0.2350  0.1877  0.0952
  849BOLB   C1D20373  26.021  18.581  22.880 -0.1104 -0.0513 -0.1502
  849BOLB   C2D20374  25.825  18.269  22.604 -0.1930 -0.0384  0.2776
  849BOLB   C3D20375  25.493  18.059  22.417 -0.0612  0.1005 -0.1399
  849BOLB   C4D20376  25.130  18.052  22.187  0.0336 -0.2402  0.2225
  850BOLB   NC120377  22.499  18.918  20.425 -0.1137  0.3886  0.1962
  850BOLB   PO120378  22.889  18.915  20.723 -0.1882 -0.0482 -0.0719
  850BOLB   GL120379  23.244  18.919  20.980  0.4518  0.1961  0.1039
  850BOLB   GL220380  23.610  18.802  20.910 -0.1789 -0.2353 -0.0020
  850BOLB   C1A20381  23.265  19.007  21.438 -0.3014 -0.2201 -0.0542
  850BOLB   C2A20382  23.588  19.180  21.821 -0.4463 -0.0485 -0.3227
  850BOLB   C3A20383  24.038  19.212  22.035  0.1008 -0.1177 -0.1701
  850BOLB   C4A20384  24.196  19.229  22.415 -0.0846 -0.1075  0.0589
  850BOLB   C1B20385  24.006  19.037  21.053  0.0040  0.0257  0.2206
  850BOLB   C2B20386  24.466  19.078  21.216  0.1885 -0.3404 -0.0182
  850BOLB   C3B20387  24.879  19.146  21.486  0.1825  0.3808 -0.0911
  850BOLB   C4B20388  24.870  19.334  21.927 -0.0601  0.2940  0.0525
  850BOLB   NC220389  25.618  20.103  24.340 -0.0564  0.0121 -0.0446
  850BOLB   PO220390  25.873  19.869  24.122  0.1495 -0.0277 -0.0462
  850BOLB   GL320391  25.526  19.622  23.976 -0.2385 -0.0103 -0.2574
  850BOLB   GL420392  25.197  19.629  24.121  0.1707  0.1682 -0.0161
  850BOLB   C1C20393  25.105  19.348  23.706 -0.0081 -0.0541 -0.3702
  850BOLB   C2C20394  24.833  19.310  23.387 -0.0781  0.0548  0.0359
  850BOLB   C3C20395  24.879  19.514  22.981  0.1820 -0.1629  0.2036
  850BOLB   C4C20396  24.546  19.306  22.683  0.1675 -0.0097  0.2782
  850BOLB   C1D20397  24.955  19.798  23.812  0.1331 -0.1245  0.2099
  850BOLB   C2D20398  24.633  19.773  23.477  0.2630  0.4105 -0.2201
  850BOLB   C3D20399  24.437  19.936  23.087 -0.2250 -0.0572  0.1646
  850BOLB   C4D20400  24.148  20.172  22.880  0.1401 -0.2885  0.3880
  851BOLB   NC120401  25.147  14.394  17.558 -0.0477  0.5253  0.0694
  851BOLB   PO120402  25.226  14.764  17.795  0.0666  0.1331 -0.1997
  851BOLB   GL120403  25.429  14.855  17.438 -0.0790  0.2364  0.0927
  851BOLB   GL220404  25.393  15.188  17.388 -0.1125  0.3443 -0.1197
  851BOLB   C1A20405  25.822  15.043  17.467  0.0787  0.0207 -0.1674
  851BOLB   C2A20406  26.155  15.288  17.379 -0.1268 -0.0869  0.1835
  851BOLB   C3A20407  26.381  15.513  17.018 -0.3645  0.0661 -0.0576
  851BOLB   C4A20408  26.671  15.760  16.861  0.0425 -0.0563  0.1355
  851BOLB   C1B20409  25.663  15.586  17.383 -0.2511  0.3250 -0.3012
  851BOLB   C2B20410  26.024  15.827  17.296  0.0238 -0.1436 -0.0647
  851BOLB   C3B20411  26.344  15.947  17.234 -0.1646  0.0607  0.0944
  851BOLB   C4B20412  26.803  16.025  17.395  0.0285 -0.0900 -0.0806
  851BOLB   NC220413  29.225  16.851  16.562 -0.1448  0.3732  0.0389
  851BOLB   PO220414  28.861  16.585  16.429  0.1320 -0.1932  0.1083
  851BOLB   GL320415  28.512  16.551  16.594 -0.0471  0.1762 -0.0832
  851BOLB   GL420416  28.364  16.447  16.349  0.1818  0.4390 -0.1759
  851BOLB   C1C20417  28.150  16.295  16.791  0.0638  0.0716 -0.0905
  851BOLB   C2C20418  27.762  16.213  16.754 -0.1881 -0.1487  0.2618
  851BOLB   C3C20419  27.423  16.163  16.979  0.0889  0.2064 -0.1956
  851BOLB   C4C20420  27.035  16.039  16.937 -0.0001  0.0721 -0.2620
  851BOLB   C1D20421  28.092  16.750  16.432 -0.1683  0.0113 -0.0660
  851BOLB   C2D20422  27.665  16.873  16.465 -0.0528  0.0414 -0.1356
  851BOLB   C3D20423  27.311  16.777  16.573  0.2464 -0.2156 -0.2602
  851BOLB   C4D20424  27.037  16.585  16.756  0.2135 -0.0649 -0.0239
  852BOLB   NC120425  24.708  14.398  19.492  0.2731 -0.0491 -0.0283
  852BOLB   PO120426  24.657  13.962  19.477 -0.2800 -0.0603  0.0609
  852BOLB   GL120427  24.826  13.824  19.896 -0.1108  0.1123  0.5325
  852BOLB   GL220428  24.959  13.534  19.812  0.1563  0.0091  0.2195
  852BOLB   C1A20429  25.025  13.795  20.358  0.3123 -0.1123  0.3217
  852BOLB   C2A20430  25.154  13.763  20.809  0.0276 -0.3081 -0.3604
  852BOLB   C3A20431  25.147  13.733  21.225 -0.1749  0.2361 -0.0356
  852BOLB   C4A20432  25.145  13.607  21.676 -0.4920  0.1240 -0.0676
  852BOLB   C1B20433  25.320  13.768  19.869  0.1012 -0.1628 -0.0980
  852BOLB   C2B20434  25.795  13.720  19.935 -0.2299 -0.0230  0.0709
  852BOLB   C3B20435  25.862  13.518  20.267  0.1209 -0.2458  0.1887
  852BOLB   C4B20436  26.057  13.375  20.549 -0.0491 -0.2055 -0.0196
  852BOLB   NC220437  26.897  12.379  22.985  0.0643  0.0846  0.0256
  852BOLB   PO220438  26.473  12.320  23.211  0.0959  0.2211 -0.1198
  852BOLB   GL320439  26.448  12.623  22.892  0.1328  0.0056 -0.0867
  852BOLB   GL420440  26.391  12.895  22.577  0.2756 -0.0901  0.0370
  852BOLB   C1C20441  25.977  12.724  22.781  0.3739 -0.2354 -0.0445
  852BOLB   C2C20442  25.645  12.779  22.429  0.0970  0.0264  0.1676
  852BOLB   C3C20443  25.455  13.063  22.159  0.0499  0.3582 -0.0579
  852BOLB   C4C20444  25.340  13.441  22.006  0.0133  0.1694  0.0571
  852BOLB   C1D20445  26.095  12.738  22.254  0.0230 -0.2517  0.0279
  852BOLB   C2D20446  25.845  12.719  21.977  0.0497 -0.2569 -0.1526
  852BOLB   C3D20447  25.916  12.819  21.428  0.1746 -0.2636 -0.1660
  852BOLB   C4D20448  26.182  13.142  21.257  0.1981 -0.0842  0.3848
  853BOLB   NC120449  24.759  16.780  18.145  0.2839 -0.2889  0.1763
  853BOLB   PO120450  24.943  16.400  17.909  0.0411 -0.0620  0.3151
  853BOLB   GL120451  25.307  16.264  17.707 -0.0930 -0.1426 -0.0768
  853BOLB   GL220452  25.465  16.492  17.938 -0.1313 -0.2490 -0.0371
  853BOLB   C1A20453  25.701  16.151  17.620  0.2149 -0.0044  0.1768
  853BOLB   C2A20454  26.109  16.176  17.658 -0.0248  0.0785 -0.3190
  853BOLB   C3A20455  26.589  16.118  17.947 -0.2090 -0.0402 -0.2717
  853BOLB   C4A20456  26.840  16.227  18.221 -0.1080  0.3209  0.3123
  853BOLB   C1B20457  25.954  16.467  18.037  0.1305  0.0091  0.2240
  853BOLB   C2B20458  26.336  16.558  18.089 -0.1796 -0.2492 -0.0028
  853BOLB   C3B20459  26.820  16.727  18.086  0.1673 -0.0115  0.3236
  853BOLB   C4B20460  27.332  16.651  18.003 -0.0164  0.2088  0.0666
  853BOLB   NC220461  28.612  16.493  19.512  0.0108 -0.0255  0.0395
  853BOLB   PO220462  28.636  16.335  19.072  0.0987  0.2495  0.0833
  853BOLB   GL320463  28.316  16.596  19.015  0.0282 -0.0365 -0.2890
  853BOLB   GL420464  28.185  16.567  19.239  0.0639 -0.1574 -0.1506
  853BOLB   C1C20465  27.979  16.557  18.791 -0.1689  0.0821  0.1056
  853BOLB   C2C20466  27.596  16.406  18.917  0.0571 -0.1269 -0.0023
  853BOLB   C3C20467  27.223  16.133  18.893  0.3217 -0.3054 -0.2110
  853BOLB   C4C20468  26.886  16.163  18.646 -0.1507  0.2936 -0.1650
  853BOLB   C1D20469  27.964  16.349  19.246  0.0567  0.2355 -0.1089
  853BOLB   C2D20470  27.795  15.999  19.345  0.2549  0.3056 -0.3061
  853BOLB   C3D20471  27.789  15.582  19.626  0.1892 -0.0999  0.2832
  853BOLB   C4D20472  27.643  15.612  20.107 -0.0249 -0.0323  0.2218
  854BOLB   NC120473  22.888  19.851  20.614  0.1154  0.0880 -0.2189
  854BOLB   PO120474  23.169  20.013  20.344 -0.0246  0.1530  0.2522
  854BOLB   GL120475  23.461  19.823  20.497 -0.0859 -0.2286 -0.0270
  854BOLB   GL220476  23.733  19.892  20.316 -0.1753  0.0059  0.0208
  854BOLB   C1A20477  23.750  19.668  20.791 -0.1511 -0.4007  0.2458
  854BOLB   C2A20478  24.131  19.530  20.997  0.1212 -0.0270  0.1789
  854BOLB   C3A20479  24.541  19.542  21.143 -0.1363 -0.0973  0.0488
  854BOLB   C4A20480  24.793  19.651  21.501 -0.5209 -0.0102 -0.2046
  854BOLB   C1B20481  23.904  20.196  20.655  0.3112 -0.0703  0.0348
  854BOLB   C2B20482  24.256  20.352  20.992  0.0869 -0.3273 -0.0193
  854BOLB   C3B20483  24.494  20.199  21.195 -0.1851 -0.1027  0.3169
  854BOLB   C4B20484  24.167  19.870  21.328  0.1666  0.0598  0.3313
  854BOLB   NC220485  26.056  21.945  21.673 -0.0750  0.0835  0.4684
  854BOLB   PO220486  26.328  21.739  21.457  0.3647  0.1869 -0.1562
  854BOLB   GL320487  26.008  21.383  21.431 -0.4368  0.3299 -0.1025
  854BOLB   GL420488  25.818  21.461  21.558  0.0583 -0.0902 -0.2468
  854BOLB   C1C20489  25.698  20.976  21.421  0.0287 -0.2707  0.2050
  854BOLB   C2C20490  25.646  20.616  21.214  0.0814  0.5436  0.2204
  854BOLB   C3C20491  25.488  20.177  21.220 -0.1451  0.0411 -0.2104
  854BOLB   C4C20492  25.201  19.938  21.476 -0.2114  0.1669  0.0337
  854BOLB   C1D20493  25.431  21.305  21.679  0.2177 -0.0056 -0.0101
  854BOLB   C2D20494  25.135  20.968  21.908  0.1352  0.1141  0.3958
  854BOLB   C3D20495  25.040  20.943  22.302 -0.0489 -0.3082  0.2502
  854BOLB   C4D20496  24.767  20.782  22.622 -0.2455 -0.2326 -0.0841
  855BOLB   NC120497  24.282  17.117  18.890 -0.3820 -0.0095  0.0351
  855BOLB   PO120498  24.464  17.536  18.777  0.0508 -0.3064  0.0249
  855BOLB   GL120499  24.952  17.600  18.715 -0.2845 -0.1342 -0.1359
  855BOLB   GL220500  25.006  17.877  18.574  0.2152  0.3211  0.0900
  855BOLB   C1A20501  25.334  17.463  18.545 -0.1084  0.0180 -0.4658
  855BOLB   C2A20502  25.762  17.305  18.722 -0.0782 -0.3491  0.0117
  855BOLB   C3A20503  26.170  17.224  18.941 -0.0268  0.3477  0.1068
  855BOLB   C4A20504  26.581  16.981  18.821  0.2641 -0.0323  0.1151
  855BOLB   C1B20505  25.531  17.850  18.775 -0.2570 -0.0277 -0.0537
  855BOLB   C2B20506  25.830  18.027  18.892  0.2125  0.1975 -0.0381
  855BOLB   C3B20507  26.221  18.114  18.981 -0.0483 -0.0270  0.0171
  855BOLB   C4B20508  26.426  18.233  19.337  0.2097  0.0358 -0.0916
  855BOLB   NC220509  29.133  17.098  18.448 -0.1294  0.0594 -0.3302
  855BOLB   PO220510  29.074  16.895  18.118  0.2159  0.3543 -0.2109
  855BOLB   GL320511  28.487  16.894  18.083 -0.3204  0.0622 -0.2937
  855BOLB   GL420512  28.422  17.232  17.908  0.0591  0.2654  0.4221
  855BOLB   C1C20513  28.215  16.590  18.037 -0.3880 -0.1759 -0.1515
  855BOLB   C2C20514  27.794  16.504  18.319 -0.0692  0.2832  0.0837
  855BOLB   C3C20515  27.360  16.388  18.464 -0.1564 -0.1549  0.0892
  855BOLB   C4C20516  26.992  16.714  18.615 -0.0535 -0.0003 -0.2745
  855BOLB   C1D20517  27.980  17.051  17.777 -0.1668  0.0153 -0.0611
  855BOLB   C2D20518  27.666  16.765  17.691  0.1893 -0.2227  0.0949
  855BOLB   C3D20519  27.484  16.481  17.458 -0.2020  0.0109  0.2777
  855BOLB   C4D20520  27.283  16.134  17.505 -0.1399  0.4781 -0.0893
  856BOLB   NC120521  24.463  16.625  17.187 -0.0446 -0.0283  0.3385
  856BOLB   PO120522  24.459  17.022  17.076  0.0798 -0.0939  0.0851
  856BOLB   GL120523  24.838  17.213  16.926  0.0150  0.1904 -0.0171
  856BOLB   GL220524  24.931  17.216  16.598 -0.3553 -0.2032  0.1456
  856BOLB   C1A20525  25.261  17.409  16.860  0.3043  0.0621  0.0269
  856BOLB   C2A20526  25.628  17.559  16.702  0.0432 -0.0244 -0.1190
  856BOLB   C3A20527  26.039  17.674  16.845  0.0254 -0.2133  0.0188
  856BOLB   C4A20528  26.405  17.820  16.852  0.1878 -0.1575 -0.0035
  856BOLB   C1B20529  25.305  17.299  16.385  0.1925  0.1759  0.1706
  856BOLB   C2B20530  25.611  17.465  16.195 -0.1718 -0.0926 -0.2085
  856BOLB   C3B20531  25.991  17.642  16.298  0.1226  0.1882  0.1742
  856BOLB   C4B20532  26.352  17.473  16.414 -0.0642 -0.1154 -0.1077
  856BOLB   NC220533  28.845  18.528  17.762 -0.0225 -0.1804  0.1551
  856BOLB   PO220534  28.522  18.218  17.925 -0.3393  0.0137 -0.0873
  856BOLB   GL320535  28.054  18.120  17.890  0.1431  0.0135 -0.0795
  856BOLB   GL420536  28.121  17.758  18.039  0.2277 -0.0968  0.0116
  856BOLB   C1C20537  27.744  17.948  17.677 -0.0198  0.3203 -0.1031
  856BOLB   C2C20538  27.480  18.021  17.358  0.0009 -0.0247 -0.2045
  856BOLB   C3C20539  27.140  18.234  17.200  0.4765 -0.0222 -0.3649
  856BOLB   C4C20540  26.711  18.116  17.012 -0.1686  0.2090  0.1031
  856BOLB   C1D20541  27.916  17.429  18.236 -0.2336 -0.0234 -0.0282
  856BOLB   C2D20542  27.625  17.041  18.112 -0.1638 -0.2248  0.0422
  856BOLB   C3D20543  27.149  17.086  18.220  0.3393 -0.2322 -0.4039
  856BOLB   C4D20544  26.803  17.217  18.307 -0.0248  0.4164  0.1197
  857BOLB   NC120545  23.532  13.630  20.291  0.1055  0.0468  0.0373
  857BOLB   PO120546  23.522  13.228  20.245 -0.0924  0.1071  0.2494
  857BOLB   GL120547  23.689  13.074  20.740 -0.4177 -0.0112  0.2947
  857BOLB   GL220548  23.813  13.334  20.718 -0.0124 -0.2362 -0.2080
  857BOLB   C1A20549  24.027  12.939  21.025  0.0056 -0.0236 -0.0559
  857BOLB   C2A20550  24.058  12.877  21.467  0.1771  0.0232 -0.0253
  857BOLB   C3A20551  24.218  13.164  21.945  0.0911  0.0090 -0.0693
  857BOLB   C4A20552  24.420  13.086  22.281  0.1309  0.0543 -0.0652
  857BOLB   C1B20553  24.271  13.270  20.731  0.1051 -0.0515 -0.2718
  857BOLB   C2B20554  24.566  13.243  20.948 -0.1123  0.1438 -0.4214
  857BOLB   C3B20555  24.870  13.261  21.159  0.0904 -0.2448 -0.3750
  857BOLB   C4B20556  25.310  13.251  21.378 -0.0326  0.2619  0.0620
  857BOLB   NC220557  26.409  14.375  24.002  0.3146 -0.0612  0.1411
  857BOLB   PO220558  25.986  14.353  23.726  0.1193  0.0018  0.3797
  857BOLB   GL320559  25.636  14.238  23.446 -0.1694  0.1854 -0.1650
  857BOLB   GL420560  25.278  14.296  23.578 -0.1630  0.2605 -0.0081
  857BOLB   C1C20561  25.385  13.926  23.249  0.3420 -0.0077  0.1800
  857BOLB   C2C20562  25.140  13.881  22.916  0.1104  0.1005  0.0144
  857BOLB   C3C20563  24.887  13.503  22.804  0.0125 -0.3138  0.0282
  857BOLB   C4C20564  24.571  13.358  22.628  0.3011  0.4912  0.3740
  857BOLB   C1D20565  24.992  14.307  23.241  0.1142  0.0159 -0.1003
  857BOLB   C2D20566  24.875  14.658  23.020  0.2695  0.0731 -0.2910
  857BOLB   C3D20567  24.651  14.842  22.693 -0.2384 -0.1207  0.1250
  857BOLB   C4D20568  24.382  14.913  22.387 -0.2017  0.0943  0.1991
  858BOLB   NC120569  24.577  13.453  19.504 -0.1469 -0.0114  0.0034
  858BOLB   PO120570  24.126  13.490  19.654  0.2534  0.0895 -0.3686
  858BOLB   GL120571  24.382  13.617  19.964  0.2526 -0.3180 -0.1116
  858BOLB   GL220572  24.390  13.891  20.108  0.1132 -0.1619  0.0999
  858BOLB   C1A20573  24.536  13.629  20.480 -0.1168  0.6515 -0.1396
  858BOLB   C2A20574  24.428  13.711  20.876 -0.0838  0.3478 -0.3773
  858BOLB   C3A20575  24.594  13.778  21.305 -0.4288  0.0875  0.0229
  858BOLB   C4A20576  24.644  13.900  21.667 -0.0918 -0.4861  0.0317
  858BOLB   C1B20577  24.574  14.106  20.356  0.0609 -0.0687  0.0364
  858BOLB   C2B20578  24.762  14.094  20.824 -0.0261  0.1472 -0.1218
  858BOLB   C3B20579  25.003  14.289  21.146  0.3700  0.0758 -0.2270
  858BOLB   C4B20580  25.419  14.322  21.392 -0.1216 -0.1406 -0.1390
  858BOLB   NC220581  26.891  14.488  22.797  0.1283  0.1355  0.1007
  858BOLB   PO220582  26.538  14.619  23.068  0.0431  0.0849 -0.0541
  858BOLB   GL320583  26.241  14.465  22.915  0.1164 -0.2314  0.1685
  858BOLB   GL420584  25.992  14.681  23.108 -0.1453 -0.0409 -0.0041
  858BOLB   C1C20585  26.007  14.248  22.591  0.4732 -0.0188 -0.3251
  858BOLB   C2C20586  25.798  14.095  22.238 -0.0440  0.3253  0.1006
  858BOLB   C3C20587  25.411  14.044  21.886  0.0900  0.3401  0.0728
  858BOLB   C4C20588  25.041  14.164  21.654  0.0578 -0.3076 -0.3307
  858BOLB   C1D20589  25.613  14.300  22.974  0.1195  0.1567 -0.1766
  858BOLB   C2D20590  25.585  13.939  22.708  0.0781  0.0552 -0.3217
  858BOLB   C3D20591  25.219  13.724  22.422 -0.0012 -0.0417  0.0300
  858BOLB   C4D20592  24.844  13.549  22.081 -0.1374 -0.0120 -0.0498
  859BOLB   NC120593  24.090  17.764  19.821 -0.1052 -0.1285  0.2646
  859BOLB   PO120594  24.216  18.007  20.155 -0.2681 -0.1080  0.0346
  859BOLB   GL120595  24.637  17.815  20.232 -0.0269 -0.1645  0.0026
  859BOLB   GL220596  24.888  18.011  20.204  0.6904 -0.0045  0.0368
  859BOLB   C1A20597  24.929  17.613  20.470  0.2007  0.0916 -0.0823
  859BOLB   C2A20598  25.201  17.317  20.484  0.1004 -0.3325 -0.3816
  859BOLB   C3A20599  25.668  17.306  20.494  0.0318  0.1459  0.0084
  859BOLB   C4A20600  25.998  17.442  20.520 -0.1848  0.0897 -0.0630
  859BOLB   C1B20601  25.228  18.207  20.382  0.0069 -0.0546  0.1457
  859BOLB   C2B20602  25.610  18.367  20.444 -0.1296 -0.3348 -0.1496
  859BOLB   C3B20603  25.983  18.325  20.633 -0.1079 -0.1776  0.3615
  859BOLB   C4B20604  26.403  18.215  20.672 -0.0196  0.3458  0.1588
  859BOLB   NC220605  27.650  17.817  22.236 -0.0371  0.1050 -0.4412
  859BOLB   PO220606  27.411  18.247  22.351  0.0595 -0.1242  0.1294
  859BOLB   GL320607  27.145  18.445  22.099  0.2166  0.1017  0.1288
  859BOLB   GL420608  26.884  18.570  22.137  0.2182  0.1019  0.1660
  859BOLB   C1C20609  26.930  18.237  21.712 -0.1539 -0.1222  0.1376
  859BOLB   C2C20610  26.716  18.234  21.350  0.2470  0.0694  0.0613
  859BOLB   C3C20611  26.575  17.824  21.035  0.1464 -0.2657 -0.3165
  859BOLB   C4C20612  26.278  17.624  20.873  0.0789  0.3833  0.0003
  859BOLB   C1D20613  26.519  18.687  21.919  0.2572 -0.2179 -0.1547
  859BOLB   C2D20614  26.125  18.786  21.895 -0.2576 -0.1427 -0.1625
  859BOLB   C3D20615  25.741  18.880  21.873  0.0945 -0.0026  0.2562
  859BOLB   C4D20616  25.294  18.870  21.862 -0.1213  0.0941 -0.2745
  860BOLB   NC120617  23.688  16.763  20.445 -0.0191  0.2099 -0.1761
  860BOLB   PO120618  23.969  16.821  20.693 -0.1549  0.1411  0.0672
  860BOLB   GL120619  24.384  16.604  20.605 -0.2612 -0.0236 -0.1485
  860BOLB   GL220620  24.355  16.282  20.558 -0.0024  0.0371  0.1293
  860BOLB   C1A20621  24.768  16.463  20.864  0.0585 -0.0629  0.2698
  860BOLB   C2A20622  24.997  16.261  21.011 -0.1611 -0.0093  0.1389
  860BOLB   C3A20623  25.249  16.264  21.271  0.1901  0.0116 -0.4408
  860BOLB   C4A20624  25.206  16.214  21.713  0.1282 -0.3057 -0.1377
  860BOLB   C1B20625  24.634  16.034  20.746  0.1490 -0.1061  0.0848
  860BOLB   C2B20626  24.983  15.987  20.557 -0.1945 -0.1331  0.6369
  860BOLB   C3B20627  25.457  15.927  20.423  0.1455  0.3106  0.2085
  860BOLB   C4B20628  25.806  15.982  20.382 -0.0486  0.2195 -0.1750
  860BOLB   NC220629  26.699  16.415  23.369 -0.2386  0.1989  0.0661
  860BOLB   PO220630  26.838  16.210  22.881  0.0222  0.0481 -0.1614
  860BOLB   GL320631  26.463  16.291  22.875 -0.2153  0.0425  0.3546
  860BOLB   GL420632  26.452  16.184  22.491  0.0076 -0.1440 -0.0445
  860BOLB   C1C20633  26.131  16.504  22.971 -0.1619 -0.2052 -0.2867
  860BOLB   C2C20634  25.667  16.521  22.782  0.3485 -0.2586  0.1181
  860BOLB   C3C20635  25.528  16.328  22.424  0.3280  0.2308 -0.5164
  860BOLB   C4C20636  25.279  16.341  22.083  0.2872 -0.2860 -0.1787
  860BOLB   C1D20637  26.321  15.763  22.437  0.1694  0.2359 -0.0884
  860BOLB   C2D20638  25.878  15.578  22.563  0.0893 -0.0084 -0.4048
  860BOLB   C3D20639  25.464  15.503  22.442  0.0357 -0.3263  0.0148
  860BOLB   C4D20640  25.011  15.483  22.610 -0.0224 -0.0679 -0.0682
  861BOLB   NC120641  24.077  19.861  18.886 -0.3399  0.0663  0.0304
  861BOLB   PO120642  24.217  19.467  19.054 -0.1225 -0.3869 -0.3038
  861BOLB   GL120643  24.621  19.672  18.943 -0.0440 -0.1795 -0.0219
  861BOLB   GL220644  24.909  19.708  18.631 -0.1937 -0.1468 -0.2946
  861BOLB   C1A20645  24.956  19.748  19.144  0.0213 -0.2053  0.0866
  861BOLB   C2A20646  25.185  20.066  19.370 -0.2975  0.0195 -0.1022
  861BOLB   C3A20647  25.600  20.159  19.567 -0.0239  0.1231  0.2520
  861BOLB   C4A20648  25.898  20.303  19.900  0.2056 -0.0502 -0.1781
  861BOLB   C1B20649  25.165  19.422  18.715  0.0436  0.0574 -0.1718
  861BOLB   C2B20650  25.459  19.157  18.744  0.0993 -0.1798  0.0061
  861BOLB   C3B20651  25.820  19.423  18.962  0.0211 -0.2650  0.0032
  861BOLB   C4B20652  26.112  19.744  19.159 -0.2080 -0.1808 -0.0762
  861BOLB   NC220653  28.174  19.900  19.027  0.2888 -0.0312  0.1186
  861BOLB   PO220654  28.049  20.111  19.376 -0.1073 -0.0557  0.0518
  861BOLB   GL320655  27.741  20.099  19.615 -0.2577  0.0939  0.2914
  861BOLB   GL420656  27.604  19.793  19.506 -0.1229 -0.1038 -0.1263
  861BOLB   C1C20657  27.507  20.027  19.929 -0.1153 -0.2419  0.1755
  861BOLB   C2C20658  27.034  20.042  19.918 -0.0789  0.1486  0.0887
  861BOLB   C3C20659  26.604  19.999  20.136  0.0869 -0.0773  0.2296
  861BOLB   C4C20660  26.258  20.105  20.114  0.1520  0.1559  0.1597
  861BOLB   C1D20661  27.471  19.959  19.138  0.3785 -0.1936 -0.0100
  861BOLB   C2D20662  27.076  19.913  18.961 -0.1420  0.0496  0.1215
  861BOLB   C3D20663  26.799  20.012  18.648 -0.0107  0.0774 -0.2421
  861BOLB   C4D20664  26.479  20.081  18.383  0.1071 -0.3053  0.0666
  862BOLB   NC120665  24.587  12.693  19.502 -0.3500 -0.1672  0.0207
  862BOLB   PO120666  24.936  12.453  19.529  0.3442 -0.4099 -0.0104
  862BOLB   GL120667  25.304  12.446  19.703 -0.1839  0.0370  0.2038
  862BOLB   GL220668  25.478  12.761  19.709  0.1000  0.2018  0.1408
  862BOLB   C1A20669  25.329  12.381  20.057 -0.2022  0.0249  0.0606
  862BOLB   C2A20670  25.344  12.416  20.486 -0.2360 -0.2688  0.0193
  862BOLB   C3A20671  25.390  12.688  20.782 -0.3767 -0.3842 -0.1717
  862BOLB   C4A20672  25.437  12.831  21.242  0.1851 -0.2449 -0.0510
  862BOLB   C1B20673  25.692  12.693  20.072  0.0736 -0.2965  0.0806
  862BOLB   C2B20674  25.844  12.478  20.525 -0.0630  0.0762  0.1978
  862BOLB   C3B20675  25.921  12.304  20.956  0.5094  0.3575 -0.0172
  862BOLB   C4B20676  26.035  12.349  21.346 -0.1483 -0.3097 -0.1490
  862BOLB   NC220677  26.660  11.721  23.504 -0.0051 -0.1662  0.1363
  862BOLB   PO220678  26.146  11.996  23.403 -0.0505  0.0807 -0.0347
  862BOLB   GL320679  25.957  12.292  23.046 -0.0152  0.1073 -0.1608
  862BOLB   GL420680  26.081  12.232  22.687 -0.0206  0.2335  0.1124
  862BOLB   C1C20681  25.570  12.458  22.863 -0.0450  0.3436  0.2039
  862BOLB   C2C20682  25.314  12.442  22.540  0.0884 -0.1851  0.2347
  862BOLB   C3C20683  25.337  12.561  22.127  0.0247  0.0163  0.0715
  862BOLB   C4C20684  25.430  12.645  21.678 -0.2424 -0.1918  0.3320
  862BOLB   C1D20685  26.370  12.369  22.319 -0.0615  0.0621 -0.2172
  862BOLB   C2D20686  26.338  12.440  21.824 -0.3627 -0.1226 -0.1180
  862BOLB   C3D20687  26.550  12.545  21.538 -0.0636  0.0899  0.1056
  862BOLB   C4D20688  26.923  12.910  21.572 -0.2741 -0.1877 -0.3273
  863BOLB   NC120689  23.235  21.123  19.076  0.1518 -0.0623  0.0409
  863BOLB   PO120690  23.127  21.138  18.635 -0.2040  0.0411  0.0764
  863BOLB   GL120691  23.513  21.344  18.726  0.3742 -0.0302 -0.1820
  863BOLB   GL220692  23.770  21.078  18.794 -0.2116  0.0363 -0.1531
  863BOLB   C1A20693  23.883  21.570  18.843  0.0316 -0.3485 -0.0891
  863BOLB   C2A20694  24.289  21.472  18.923 -0.1020 -0.0967 -0.0213
  863BOLB   C3A20695  24.656  21.457  18.878  0.4619 -0.1161  0.0436
  863BOLB   C4A20696  25.077  21.630  18.932  0.4426  0.3165  0.1342
  863BOLB   C1B20697  24.050  21.301  18.505 -0.4380 -0.0348 -0.1454
  863BOLB   C2B20698  24.481  21.454  18.407  0.1028  0.1308  0.0455
  863BOLB   C3B20699  24.936  21.516  18.418  0.3460  0.2476 -0.0099
  863BOLB   C4B20700  25.269  21.718  18.351  0.0460 -0.2475 -0.0237
  863BOLB   NC220701  26.912  22.896  18.251 -0.0730 -0.0895 -0.1708
  863BOLB   PO220702  26.717  23.312  18.467 -0.0349 -0.0690  0.0831
  863BOLB   GL320703  26.337  23.092  18.561  0.1365 -0.1250  0.0322
  863BOLB   GL420704  26.320  23.005  18.229 -0.2416  0.1412  0.2484
  863BOLB   C1C20705  26.037  22.817  18.676 -0.0476 -0.1821  0.1628
  863BOLB   C2C20706  25.814  22.431  18.707 -0.0609  0.3455  0.3864
  863BOLB   C3C20707  25.726  21.932  18.687 -0.0150  0.1013  0.2590
  863BOLB   C4C20708  25.532  21.549  18.823 -0.0594  0.0086 -0.0860
  863BOLB   C1D20709  25.930  23.194  18.042  0.0941  0.0768  0.0084
  863BOLB   C2D20710  25.469  23.198  18.158 -0.1627 -0.1854 -0.1650
  863BOLB   C3D20711  25.183  23.560  18.221  0.4011  0.0216 -0.0667
  863BOLB   C4D20712  25.367  23.897  18.508 -0.2411 -0.1617  0.3478
  864BOLB   NC120713  24.711  15.533  19.227  0.1933 -0.3477  0.0443
  864BOLB   PO120714  24.436  15.920  19.174  0.0971  0.0150  0.3827
  864BOLB   GL120715  24.778  15.972  19.507 -0.1633  0.1056 -0.0719
  864BOLB   GL220716  25.071  15.656  19.559 -0.0002 -0.2375 -0.2275
  864BOLB   C1A20717  25.002  16.151  19.846  0.1195  0.0550  0.2432
  864BOLB   C2A20718  25.316  16.344  20.001  0.0952  0.0639 -0.0025
  864BOLB   C3A20719  25.803  16.416  20.174 -0.0625  0.1479 -0.1566
  864BOLB   C4A20720  26.210  16.382  20.394  0.0353 -0.1667  0.3189
  864BOLB   C1B20721  25.530  15.682  19.721 -0.2151  0.1070 -0.1364
  864BOLB   C2B20722  25.920  15.852  19.801 -0.1659 -0.3303 -0.1880
  864BOLB   C3B20723  26.314  16.023  19.990  0.2066 -0.0987  0.1671
  864BOLB   C4B20724  26.752  15.914  20.223  0.1788 -0.1237 -0.0217
  864BOLB   NC220725  27.577  15.563  22.015  0.0591  0.0760 -0.0140
  864BOLB   PO220726  27.500  15.076  21.840 -0.1231  0.0463 -0.1424
  864BOLB   GL320727  27.182  15.362  21.615  0.0402  0.0283  0.1408
  864BOLB   GL420728  27.130  15.578  21.890  0.0692  0.2367 -0.0540
  864BOLB   C1C20729  26.906  15.315  21.338  0.3523  0.1651  0.0850
  864BOLB   C2C20730  26.935  15.487  20.935 -0.1230  0.2761  0.2228
  864BOLB   C3C20731  26.605  15.552  20.721  0.1271  0.0259 -0.1511
  864BOLB   C4C20732  26.359  15.912  20.547  0.1775 -0.0426  0.1617
  864BOLB   C1D20733  26.705  15.526  21.895 -0.0963 -0.1470  0.0777
  864BOLB   C2D20734  26.361  15.347  21.966 -0.2897 -0.2545 -0.0591
  864BOLB   C3D20735  25.963  15.317  22.160  0.5364  0.1511 -0.1669
  864BOLB   C4D20736  25.606  15.083  22.144 -0.0259 -0.2102  0.1441
  865BOLB   NC120737  24.716  18.532  17.463  0.2454  0.0511  0.0389
  865BOLB   PO120738  24.538  18.619  17.832 -0.1007 -0.0429 -0.3148
  865BOLB   GL120739  24.940  18.660  18.086 -0.1373  0.5053  0.2529
  865BOLB   GL220740  25.138  18.568  17.881 -0.0735 -0.1867 -0.1509
  865BOLB   C1A20741  25.128  18.326  18.301 -0.2205 -0.0217 -0.1511
  865BOLB   C2A20742  25.534  18.201  18.427 -0.2079  0.1605 -0.0403
  865BOLB   C3A20743  25.966  18.304  18.428 -0.0314 -0.1440 -0.0860
  865BOLB   C4A20744  26.470  18.238  18.482 -0.0398 -0.0442  0.1131
  865BOLB   C1B20745  25.496  18.659  18.107 -0.0085  0.2916 -0.0181
  865BOLB   C2B20746  25.689  19.051  18.230 -0.1422 -0.0403 -0.0426
  865BOLB   C3B20747  25.781  19.370  18.434  0.1119 -0.0162  0.1494
  865BOLB   C4B20748  26.017  19.802  18.433  0.0717 -0.1447  0.0990
  865BOLB   NC220749  28.779  17.732  19.054  0.1845 -0.1224  0.4135
  865BOLB   PO220750  28.614  17.848  19.388  0.1633  0.0802  0.1283
  865BOLB   GL320751  28.194  17.716  19.251 -0.2871  0.2954  0.1874
  865BOLB   GL420752  28.033  17.651  19.547  0.1060  0.0437 -0.0239
  865BOLB   C1C20753  27.897  17.859  19.093 -0.0532 -0.0172  0.0953
  865BOLB   C2C20754  27.474  17.666  18.828 -0.0420 -0.1401 -0.3081
  865BOLB   C3C20755  27.031  17.799  18.883  0.4925  0.0035 -0.0671
  865BOLB   C4C20756  26.661  17.893  18.710  0.1221 -0.3038 -0.1275
  865BOLB   C1D20757  27.550  17.711  19.548  0.0333  0.2142  0.0752
  865BOLB   C2D20758  27.054  17.620  19.760 -0.0606 -0.0371  0.3699
  865BOLB   C3D20759  26.766  17.841  19.528  0.1208  0.1408  0.0356
  865BOLB   C4D20760  26.902  18.162  19.266  0.2957 -0.3950 -0.0055
  866BOLB   NC120761  24.294  17.046  19.519  0.3093 -0.2447  0.0667
  866BOLB   PO120762  24.444  17.403  19.413  0.1951 -0.0206 -0.0947
  866BOLB   GL120763  24.923  17.550  19.363  0.1091  0.0448 -0.1532
  866BOLB   GL220764  25.124  17.793  19.166 -0.0275  0.2465 -0.0047
  866BOLB   C1A20765  25.361  17.506  19.515 -0.1797  0.3185  0.0820
  866BOLB   C2A20766  25.705  17.748  19.692  0.0568 -0.3163 -0.2818
  866BOLB   C3A20767  26.168  17.841  19.659  0.0138 -0.5311 -0.1792
  866BOLB   C4A20768  26.380  18.201  19.814 -0.2240  0.0293  0.2242
  866BOLB   C1B20769  25.485  18.009  19.317  0.1428 -0.2530  0.1843
  866BOLB   C2B20770  25.801  18.220  19.439 -0.2269 -0.1880 -0.0917
  866BOLB   C3B20771  26.044  18.613  19.455 -0.0115  0.2032  0.0008
  866BOLB   C4B20772  26.493  18.745  19.396  0.0145  0.0802 -0.0691
  866BOLB   NC220773  28.197  19.426  20.463  0.0050  0.2345 -0.0126
  866BOLB   PO220774  28.366  19.325  20.035  0.0939 -0.2996 -0.4950
  866BOLB   GL320775  28.069  19.106  19.759  0.0770 -0.5170 -0.0274
  866BOLB   GL420776  27.763  19.283  19.740 -0.3620 -0.5087 -0.0465
  866BOLB   C1C20777  27.871  18.717  19.621  0.0546 -0.1276  0.4984
  866BOLB   C2C20778  27.453  18.511  19.686  0.0241 -0.0143 -0.0777
  866BOLB   C3C20779  27.267  18.159  19.683  0.0279  0.0674 -0.0066
  866BOLB   C4C20780  26.826  18.389  19.661  0.0804  0.1436 -0.0412
  866BOLB   C1D20781  27.381  19.510  19.878  0.2036  0.1953  0.1394
  866BOLB   C2D20782  26.918  19.382  19.811 -0.1679 -0.0606 -0.1873
  866BOLB   C3D20783  26.631  19.119  19.737 -0.3568 -0.4945 -0.1553
  866BOLB   C4D20784  26.387  18.752  19.906 -0.1238 -0.0745 -0.1033
  867BOLB   NC120785  22.811  21.867  18.082 -0.3221  0.1298 -0.1264
  867BOLB   PO120786  22.907  22.013  18.466 -0.0961 -0.1610 -0.1566
  867BOLB   GL120787  23.304  22.144  18.433  0.1655 -0.1006  0.1439
  867BOLB   GL220788  23.346  22.242  18.123  0.2531  0.1288  0.2997
  867BOLB   C1A20789  23.826  22.171  18.387  0.1432 -0.2285  0.0615
  867BOLB   C2A20790  24.227  21.896  18.576  0.0901 -0.0866 -0.0715
  867BOLB   C3A20791  24.628  21.913  18.636 -0.3052 -0.1460  0.0727
  867BOLB   C4A20792  25.008  22.042  18.698 -0.1032 -0.3039  0.0853
  867BOLB   C1B20793  23.700  22.546  18.038  0.0322 -0.2002  0.1073
  867BOLB   C2B20794  24.158  22.857  18.074  0.2055 -0.2720  0.0142
  867BOLB   C3B20795  24.562  22.807  18.431  0.1668 -0.1530 -0.1393
  867BOLB   C4B20796  24.474  22.929  18.928 -0.0798  0.0222  0.2586
  867BOLB   NC220797  26.810  23.088  19.749  0.1210  0.0252  0.2304
  867BOLB   PO220798  26.918  22.929  19.368  0.1090  0.1352  0.1095
  867BOLB   GL320799  26.510  22.707  19.400 -0.1277  0.1170 -0.0701
  867BOLB   GL420800  26.352  22.723  19.695 -0.4895  0.2891  0.0200
  867BOLB   C1C20801  26.023  22.741  19.248 -0.0975 -0.5683 -0.3203
  867BOLB   C2C20802  25.717  22.694  19.115  0.0281  0.4024  0.2747
  867BOLB   C3C20803  25.358  22.575  18.870  0.3383 -0.1137  0.0783
  867BOLB   C4C20804  25.339  22.214  18.615 -0.4691 -0.2809  0.1187
  867BOLB   C1D20805  26.409  22.211  19.457 -0.0931 -0.0050  0.0468
  867BOLB   C2D20806  26.152  21.836  19.522  0.4087 -0.1567 -0.1255
  867BOLB   C3D20807  25.914  21.534  19.799 -0.0377 -0.1222 -0.0858
  867BOLB   C4D20808  25.591  21.348  19.891 -0.2003  0.0731 -0.1664
  868BOLB   NC120809  23.428  10.367  19.002 -0.0159  0.3723 -0.1457
  868BOLB   PO120810  23.166  10.102  18.743 -0.0417 -0.0380  0.2560
  868BOLB   GL120811  22.870   9.770  18.770 -0.2742 -0.0233 -0.1187
  868BOLB   GL220812  22.749   9.804  19.052  0.0159 -0.1398 -0.2333
  868BOLB   C1A20813  22.793   9.354  18.836  0.1635 -0.3276 -0.0051
  868BOLB   C2A20814  23.192   9.158  19.034  0.0963 -0.2080 -0.0607
  868BOLB   C3A20815  23.557   8.980  19.293  0.2453  0.0949  0.2618
  868BOLB   C4A20816  23.578   8.666  19.574 -0.0152 -0.2153  0.0806
  868BOLB   C1B20817  22.686   9.346  19.287  0.1346 -0.1836  0.0300
  868BOLB   C2B20818  22.680   8.984  19.535 -0.0011 -0.0835  0.0700
  868BOLB   C3B20819  22.822   8.675  19.844  0.0741 -0.0309  0.0362
  868BOLB   C4B20820  22.822   8.748  20.382 -0.1305 -0.1852 -0.0388
  868BOLB   NC220821  24.002   6.989  20.484  0.0827 -0.0617 -0.0810
  868BOLB   PO220822  24.442   7.161  20.597 -0.0235 -0.2767 -0.1123
  868BOLB   GL320823  24.069   7.497  20.682  0.2457 -0.0437 -0.4328
  868BOLB   GL420824  23.888   7.552  20.990 -0.0531 -0.1904  0.3222
  868BOLB   C1C20825  23.752   7.686  20.504 -0.3266 -0.0787  0.2301
  868BOLB   C2C20826  23.442   7.981  20.448 -0.1534 -0.0917 -0.1845
  868BOLB   C3C20827  23.320   8.243  20.171 -0.0709  0.0141 -0.1443
  868BOLB   C4C20828  23.301   8.573  19.855 -0.1480  0.0005  0.0299
  868BOLB   C1D20829  23.553   7.798  20.958 -0.1092  0.0724 -0.0979
  868BOLB   C2D20830  23.291   8.179  21.088  0.1063 -0.0595  0.2795
  868BOLB   C3D20831  23.161   8.438  20.758  0.0658  0.0900 -0.2918
  868BOLB   C4D20832  22.885   8.680  20.949  0.0096 -0.1826 -0.4026
  869BOLB   NC120833  23.010  20.796  19.524  0.1831 -0.0944 -0.2772
  869BOLB   PO120834  23.198  20.565  19.906  0.2259  0.2130  0.0929
  869BOLB   GL120835  23.548  20.903  19.934  0.1929 -0.3763  0.0212
  869BOLB   GL220836  23.542  21.209  19.694  0.0093 -0.1706 -0.2949
  869BOLB   C1A20837  23.957  21.179  20.074  0.0066 -0.1367  0.2719
  869BOLB   C2A20838  24.252  21.474  20.300  0.3906  0.2396 -0.0626
  869BOLB   C3A20839  24.670  21.674  20.297 -0.0151 -0.1410 -0.1987
  869BOLB   C4A20840  25.045  21.502  20.555 -0.0677  0.1758  0.0587
  869BOLB   C1B20841  23.790  21.531  19.760 -0.2641  0.2424  0.2015
  869BOLB   C2B20842  24.151  21.747  19.767  0.1569  0.2060 -0.0169
  869BOLB   C3B20843  24.641  21.669  19.803  0.3380  0.0378  0.1081
  869BOLB   C4B20844  24.973  21.418  19.819  0.1092 -0.5439  0.0905
  869BOLB   NC220845  27.167  20.287  21.889 -0.2995  0.3153  0.2478
  869BOLB   PO220846  26.913  20.547  21.535 -0.2437  0.1308  0.0910
  869BOLB   GL320847  26.504  20.624  21.373  0.1522 -0.2748  0.2298
  869BOLB   GL420848  26.543  20.406  21.172  0.4492 -0.4098 -0.0854
  869BOLB   C1C20849  26.202  20.868  21.134 -0.0815  0.1224 -0.3901
  869BOLB   C2C20850  26.162  21.263  20.842 -0.0599 -0.0013  0.0048
  869BOLB   C3C20851  25.666  21.343  20.846  0.2109  0.1362  0.2558
  869BOLB   C4C20852  25.393  21.282  20.567  0.0545  0.0411  0.1440
  869BOLB   C1D20853  26.269  20.275  21.080  0.1459 -0.2423  0.1837
  869BOLB   C2D20854  25.892  19.950  20.965  0.0203  0.3438 -0.1333
  869BOLB   C3D20855  25.617  19.696  20.787 -0.2177 -0.0544  0.2654
  869BOLB   C4D20856  25.193  19.654  20.664 -0.2243 -0.0540  0.1422
  870BOLB   NC120857  24.859  12.880  18.823 -0.3824 -0.0315 -0.3124
  870BOLB   PO120858  24.778  13.090  19.282 -0.1723  0.1082  0.2409
  870BOLB   GL120859  25.127  13.132  19.593 -0.2282 -0.1554 -0.1088
  870BOLB   GL220860  24.942  12.847  19.895  0.0442  0.0969  0.1349
  870BOLB   C1A20861  25.340  13.243  19.939 -0.1096  0.1115  0.2884
  870BOLB   C2A20862  25.364  13.448  20.422 -0.0589  0.1626  0.1444
  870BOLB   C3A20863  25.623  13.760  20.635 -0.0410 -0.2739  0.0903
  870BOLB   C4A20864  25.640  13.931  21.066 -0.0673 -0.0547 -0.0529
  870BOLB   C1B20865  25.255  12.865  20.276 -0.0852 -0.3952  0.2565
  870BOLB   C2B20866  25.684  12.989  20.412  0.0886 -0.4434  0.1070
  870BOLB   C3B20867  26.162  12.945  20.324  0.0674 -0.0183 -0.2553
  870BOLB   C4B20868  26.492  12.880  19.996 -0.0316  0.0541  0.1209
  870BOLB   NC220869  26.940  13.039  22.541 -0.1238  0.1072 -0.1257
  870BOLB   PO220870  26.893  13.318  22.877  0.2149 -0.0178  0.2038
  870BOLB   GL320871  26.647  13.523  22.535  0.2746  0.0484  0.1375
  870BOLB   GL420872  26.490  13.261  22.249 -0.1737  0.1726  0.0051
  870BOLB   C1C20873  26.461  13.771  22.292  0.0071  0.1121 -0.1444
  870BOLB   C2C20874  26.225  13.965  22.019 -0.2935 -0.2847  0.2547
  870BOLB   C3C20875  26.109  14.080  21.732 -0.0160 -0.0368  0.0470
  870BOLB   C4C20876  25.859  14.022  21.363  0.0517  0.0151 -0.0884
  870BOLB   C1D20877  26.240  13.510  21.907 -0.1261 -0.1160  0.0128
  870BOLB   C2D20878  26.252  13.628  21.482 -0.0195 -0.0225  0.0396
  870BOLB   C3D20879  26.219  13.615  21.046 -0.0939  0.1560  0.1788
  870BOLB   C4D20880  26.032  13.931  20.780 -0.0136  0.2150 -0.1375
  871BOLB   NC120881  23.069  21.617  18.758 -0.0617  0.1362 -0.1453
  871BOLB   PO120882  23.240  21.598  19.203  0.0598 -0.0851 -0.2926
  871BOLB   GL120883  23.524  21.910  19.238  0.1079  0.3183 -0.2605
  871BOLB   GL220884  23.489  22.107  18.985 -0.0050 -0.0135  0.0849
  871BOLB   C1A20885  23.918  21.712  19.309  0.0355 -0.1644 -0.3799
  871BOLB   C2A20886  24.382  21.554  19.397 -0.0438  0.1296 -0.2885
  871BOLB   C3A20887  24.719  21.649  19.292 -0.1631  0.1182 -0.0661
  871BOLB   C4A20888  25.098  21.785  19.404  0.0391 -0.0092 -0.0962
  871BOLB   C1B20889  23.985  22.166  18.903 -0.1059 -0.0974  0.1164
  871BOLB   C2B20890  24.366  21.987  19.093 -0.0785 -0.0290  0.0322
  871BOLB   C3B20891  24.809  22.126  19.182 -0.1722  0.0844  0.2091
  871BOLB   C4B20892  25.121  22.408  19.253  0.0221 -0.0974 -0.0167
  871BOLB   NC220893  26.225  22.304  20.769 -0.0867  0.1885 -0.0037
  871BOLB   PO220894  26.205  22.732  20.558 -0.0812  0.0703 -0.2420
  871BOLB   GL320895  26.072  22.551  20.233  0.2210  0.0916 -0.0823
  871BOLB   GL420896  25.899  22.299  20.407 -0.2166 -0.3055  0.0491
  871BOLB   C1C20897  25.903  22.595  19.803 -0.0100 -0.2095  0.1141
  871BOLB   C2C20898  25.908  22.260  19.483 -0.0461  0.0813 -0.1462
  871BOLB   C3C20899  25.624  22.210  19.167 -0.2375  0.1500 -0.5406
  871BOLB   C4C20900  25.346  21.991  19.154 -0.0706  0.1212 -0.0321
  871BOLB   C1D20901  25.634  22.153  20.707 -0.3359  0.1676 -0.1528
  871BOLB   C2D20902  25.416  21.748  20.842 -0.2209 -0.0729 -0.0739
  871BOLB   C3D20903  25.222  21.414  21.104 -0.2914  0.2560 -0.0822
  871BOLB   C4D20904  25.377  20.987  21.029 -0.1357  0.1811 -0.1494
  872BOLB   NC120905  21.764  22.450  20.411  0.1495  0.2640  0.0875
  872BOLB   PO120906  21.917  22.185  20.302  0.2703  0.0015  0.1462
  872BOLB   GL120907  22.294  22.299  20.276 -0.3184  0.1335  0.0340
  872BOLB   GL220908  22.230  22.389  20.621 -0.3132  0.3278  0.0689
  872BOLB   C1A20909  22.675  22.181  20.465  0.0751  0.1305  0.2940
  872BOLB   C2A20910  23.170  22.379  20.541  0.1068  0.0551 -0.4139
  872BOLB   C3A20911  23.623  22.323  20.423 -0.0420  0.0023  0.1267
  872BOLB   C4A20912  24.015  22.383  20.525  0.2730 -0.1403  0.2008
  872BOLB   C1B20913  22.562  22.672  20.603  0.0273  0.0549 -0.0086
  872BOLB   C2B20914  22.808  22.791  20.803 -0.0131  0.1005  0.0141
  872BOLB   C3B20915  23.114  22.971  20.758 -0.1722 -0.0795  0.2397
  872BOLB   C4B20916  23.395  23.229  20.644 -0.3199  0.0828 -0.0846
  872BOLB   NC220917  25.633  23.029  21.964 -0.2838  0.4224 -0.0009
  872BOLB   PO220918  25.665  23.037  22.316  0.1031 -0.0430  0.2099
  872BOLB   GL320919  25.167  23.091  22.156  0.0123 -0.1398 -0.1215
  872BOLB   GL420920  24.964  22.840  22.320  0.1284 -0.2400 -0.0581
  872BOLB   C1C20921  24.963  23.018  21.830  0.1104  0.0517 -0.0070
  872BOLB   C2C20922  24.852  23.046  21.380  0.0003  0.1183 -0.0241
  872BOLB   C3C20923  24.557  22.951  20.996 -0.1695 -0.4532  0.2292
  872BOLB   C4C20924  24.368  22.641  20.819 -0.1937 -0.1469 -0.1313
  872BOLB   C1D20925  24.626  22.552  22.171 -0.1230 -0.4031  0.1483
  872BOLB   C2D20926  24.546  22.183  22.020  0.2665  0.1863 -0.1337
  872BOLB   C3D20927  24.162  21.960  22.050 -0.0978 -0.4192 -0.0891
  872BOLB   C4D20928  23.769  21.935  21.987  0.1675  0.3474 -0.2928
  873BOLB   NC120929  24.594  17.851  19.133  0.2983  0.1078 -0.3755
  873BOLB   PO120930  24.274  18.065  19.300 -0.1691  0.0671  0.0074
  873BOLB   GL120931  24.577  17.883  19.654  0.1842 -0.2352 -0.2480
  873BOLB   GL220932  24.536  18.153  19.818 -0.2999 -0.1500  0.3143
  873BOLB   C1A20933  25.085  17.876  19.742 -0.1606  0.1641  0.1242
  873BOLB   C2A20934  25.388  18.058  19.861  0.2535 -0.0596  0.0723
  873BOLB   C3A20935  25.691  18.352  19.988 -0.1848 -0.1809  0.0357
  873BOLB   C4A20936  26.088  18.411  20.177  0.2543 -0.1158  0.1415
  873BOLB   C1B20937  24.835  18.389  19.864  0.2062 -0.1748 -0.0291
  873BOLB   C2B20938  25.142  18.632  20.040  0.0606  0.0455 -0.1499
  873BOLB   C3B20939  25.506  18.823  20.159  0.0633  0.2660  0.1144
  873BOLB   C4B20940  25.831  18.900  20.482  0.3876 -0.2059  0.0462
  873BOLB   NC220941  27.616  19.240  21.138 -0.1070  0.6251  0.0345
  873BOLB   PO220942  27.684  19.611  21.417  0.0156 -0.0027 -0.0257
  873BOLB   GL320943  27.288  19.564  21.296  0.0921 -0.3106  0.0827
  873BOLB   GL420944  27.003  19.575  21.552 -0.1991  0.0451 -0.0362
  873BOLB   C1C20945  27.005  19.448  20.973  0.3134 -0.1693 -0.0993
  873BOLB   C2C20946  26.555  19.416  20.750  0.0026  0.1665  0.0525
  873BOLB   C3C20947  26.349  19.085  20.389  0.2018 -0.1087 -0.3403
  873BOLB   C4C20948  26.363  18.667  20.437 -0.2003 -0.1343  0.3914
  873BOLB   C1D20949  26.967  19.223  21.377 -0.0622  0.0564 -0.3060
  873BOLB   C2D20950  26.623  19.026  21.124  0.3334 -0.1978 -0.1145
  873BOLB   C3D20951  26.225  18.804  20.959  0.1456  0.0407 -0.2125
  873BOLB   C4D20952  25.720  18.766  20.972  0.0854 -0.0299 -0.2671
  874BOLB   NC120953  23.541  19.877  18.584 -0.0815  0.1536 -0.2872
  874BOLB   PO120954  23.595  20.178  18.970 -0.1467 -0.1662 -0.0952
  874BOLB   GL120955  23.936  20.363  19.232  0.0299 -0.0223 -0.0914
  874BOLB   GL220956  23.911  20.286  19.630  0.1029  0.1155  0.1558
  874BOLB   C1A20957  24.411  20.542  19.261 -0.0690  0.0614 -0.2245
  874BOLB   C2A20958  24.904  20.584  19.358 -0.1218  0.1282  0.0894
  874BOLB   C3A20959  25.312  20.706  19.291  0.0646  0.2599 -0.0531
  874BOLB   C4A20960  25.619  20.974  19.083  0.0288  0.3162  0.1886
  874BOLB   C1B20961  24.240  20.209  19.864  0.0203 -0.1190 -0.2409
  874BOLB   C2B20962  24.377  20.325  20.264  0.0673  0.1948  0.3766
  874BOLB   C3B20963  24.652  20.697  20.511 -0.2189  0.3525  0.1847
  874BOLB   C4B20964  24.864  21.009  20.764 -0.1452  0.0480  0.0519
  874BOLB   NC220965  27.532  21.794  17.586  0.1211  0.2805 -0.2721
  874BOLB   PO220966  27.501  21.476  17.893 -0.1288 -0.2466  0.1737
  874BOLB   GL320967  27.330  21.093  17.851  0.0216  0.1055 -0.2418
  874BOLB   GL420968  27.457  20.898  17.893 -0.0255 -0.0766  0.0112
  874BOLB   C1C20969  26.970  21.004  18.160  0.2010 -0.2197  0.0748
  874BOLB   C2C20970  26.555  21.197  18.270  0.0921  0.0609 -0.2168
  874BOLB   C3C20971  26.158  21.094  18.416  0.2168 -0.2360  0.2606
  874BOLB   C4C20972  25.848  21.142  18.754  0.1539 -0.2698 -0.0676
  874BOLB   C1D20973  27.331  20.539  18.170  0.1007  0.2815 -0.0527
  874BOLB   C2D20974  27.049  20.100  18.123 -0.3815 -0.3448 -0.1185
  874BOLB   C3D20975  26.780  19.736  18.249  0.1230 -0.1229  0.1553
  874BOLB   C4D20976  26.492  19.598  18.623  0.1506 -0.2544  0.0520
  875BOLB   NC120977  22.913  14.586  20.823 -0.1798 -0.2830 -0.2310
  875BOLB   PO120978  23.486  14.599  20.622 -0.0602  0.0193 -0.0111
  875BOLB   GL120979  23.853  14.497  20.851 -0.0764 -0.0390 -0.0289
  875BOLB   GL220980  24.161  14.638  20.847  0.3617  0.1058  0.2060
  875BOLB   C1A20981  23.984  14.486  21.396  0.0681 -0.3350  0.0816
  875BOLB   C2A20982  24.191  14.223  21.813  0.1344  0.1244  0.0195
  875BOLB   C3A20983  24.411  14.203  22.105 -0.1765  0.0620  0.0798
  875BOLB   C4A20984  24.843  14.054  22.108 -0.0424 -0.3624  0.2156
  875BOLB   C1B20985  24.357  14.787  21.178  0.2271 -0.0001  0.1969
  875BOLB   C2B20986  24.747  14.940  21.483  0.4725 -0.0020 -0.0906
  875BOLB   C3B20987  25.094  15.222  21.673 -0.0918 -0.3011 -0.2431
  875BOLB   C4B20988  25.220  15.438  22.030  0.3047  0.1038  0.0135
  875BOLB   NC220989  27.031  15.778  22.854  0.0019 -0.0751  0.1038
  875BOLB   PO220990  27.066  15.395  22.626 -0.1495  0.1026 -0.1474
  875BOLB   GL320991  26.843  15.200  22.360  0.1300 -0.1488  0.0579
  875BOLB   GL420992  27.022  15.128  22.100  0.0330 -0.0088  0.0870
  875BOLB   C1C20993  26.370  15.004  22.415 -0.2726 -0.3008  0.0145
  875BOLB   C2C20994  25.935  14.809  22.461 -0.0965 -0.1728  0.1269
  875BOLB   C3C20995  25.563  14.558  22.270 -0.1739 -0.1420 -0.1282
  875BOLB   C4C20996  25.228  14.249  22.281 -0.2681  0.0432 -0.1301
  875BOLB   C1D20997  26.773  15.025  21.862 -0.0262 -0.2268  0.1391
  875BOLB   C2D20998  26.415  14.972  21.577  0.3026 -0.2821 -0.0625
  875BOLB   C3D20999  26.484  15.169  21.137 -0.2391 -0.0222  0.1446
  875BOLB   C4D21000  26.274  15.146  20.806 -0.1641  0.0452  0.1765
  876BOLB   NC121001  26.927  12.873  18.174 -0.0611 -0.0117  0.0096
  876BOLB   PO121002  27.280  12.704  17.926 -0.0723 -0.0645  0.2731
  876BOLB   GL121003  27.227  13.119  17.874  0.0531 -0.1120  0.0614
  876BOLB   GL221004  27.164  13.277  18.154 -0.0028  0.0658  0.2877
  876BOLB   C1A21005  27.482  13.438  17.725 -0.2550 -0.1171  0.0309
  876BOLB   C2A21006  27.483  13.874  17.649 -0.3263 -0.1486  0.5084
  876BOLB   C3A21007  27.786  14.146  17.921  0.0306  0.0036 -0.1503
  876BOLB   C4A21008  27.633  14.513  18.185  0.0371  0.0549 -0.1362
  876BOLB   C1B21009  27.016  13.546  18.523 -0.0802  0.3439  0.2459
  876BOLB   C2B21010  26.760  13.805  18.237  0.0279  0.4359 -0.1249
  876BOLB   C3B21011  26.588  14.175  18.379  0.3387  0.2831 -0.0911
  876BOLB   C4B21012  26.260  14.062  18.816  0.0298  0.0839  0.4492
  876BOLB   NC221013  29.107  15.699  19.336  0.1803 -0.0833  0.2059
  876BOLB   PO221014  29.074  15.230  19.282  0.4228  0.1175  0.0654
  876BOLB   GL321015  28.700  15.415  19.384  0.1548  0.1281 -0.2021
  876BOLB   GL421016  28.599  15.664  19.260  0.1269 -0.0651  0.2817
  876BOLB   C1C21017  28.220  15.265  19.482  0.1020 -0.0304  0.0808
  876BOLB   C2C21018  27.846  15.057  19.379  0.1745  0.1138  0.0809
  876BOLB   C3C21019  27.727  14.983  18.929 -0.0321  0.3828 -0.0499
  876BOLB   C4C21020  27.655  14.813  18.526 -0.3912  0.2028 -0.2266
  876BOLB   C1D21021  28.152  15.691  19.257 -0.0950 -0.1424  0.2000
  876BOLB   C2D21022  27.773  15.503  19.107  0.0314  0.0847  0.2765
  876BOLB   C3D21023  27.455  15.653  18.886  0.0977  0.0987  0.2534
  876BOLB   C4D21024  27.291  15.808  18.487 -0.1193 -0.2783  0.1334
  877BOLB   NC121025  24.022  17.440  17.252 -0.0532  0.0497 -0.0498
  877BOLB   PO121026  24.360  17.493  17.517 -0.0955  0.0892 -0.1154
  877BOLB   GL121027  24.840  17.600  17.538  0.2074 -0.0072 -0.1103
  877BOLB   GL221028  24.972  17.650  17.180 -0.5855 -0.1099  0.2210
  877BOLB   C1A21029  25.189  17.650  17.617 -0.2042  0.0543 -0.0577
  877BOLB   C2A21030  25.599  17.813  17.558  0.0073 -0.3679 -0.0959
  877BOLB   C3A21031  26.077  17.596  17.383 -0.2049 -0.0267 -0.0923
  877BOLB   C4A21032  26.567  17.693  17.278 -0.0778  0.3356  0.3368
  877BOLB   C1B21033  25.360  17.879  17.063  0.3129  0.2358  0.2067
  877BOLB   C2B21034  25.762  17.999  17.158 -0.2761 -0.2421  0.1265
  877BOLB   C3B21035  26.128  18.090  17.175  0.0525  0.2396 -0.0824
  877BOLB   C4B21036  26.521  18.186  17.482  0.1949 -0.0604 -0.0235
  877BOLB   NC221037  28.501  18.412  17.135  0.0911  0.3347 -0.1508
  877BOLB   PO221038  28.778  18.075  17.299 -0.2243  0.0996 -0.4940
  877BOLB   GL321039  28.342  18.061  17.451 -0.0735  0.0755 -0.0288
  877BOLB   GL421040  28.081  18.386  17.467  0.1759  0.3206  0.0829
  877BOLB   C1C21041  28.009  17.851  17.234  0.0520  0.0068 -0.1065
  877BOLB   C2C21042  27.718  17.509  17.321 -0.2530  0.4135  0.1374
  877BOLB   C3C21043  27.243  17.507  17.246 -0.0914 -0.3439 -0.1225
  877BOLB   C4C21044  26.909  17.566  17.172  0.2974  0.1127  0.2946
  877BOLB   C1D21045  27.824  18.312  17.121  0.0197  0.0940 -0.1023
  877BOLB   C2D21046  27.469  18.325  16.851 -0.0441 -0.2744  0.3331
  877BOLB   C3D21047  27.097  18.508  16.695  0.2725  0.3498  0.1966
  877BOLB   C4D21048  26.958  18.469  16.181  0.1839  0.1759 -0.3113
  878BOLB   NC121049  25.058  11.068  18.702 -0.2393 -0.2298  0.1512
  878BOLB   PO121050  24.664  11.170  18.722 -0.2282 -0.3271  0.2894
  878BOLB   GL121051  24.645  11.058  19.180  0.0433  0.0469  0.2992
  878BOLB   GL221052  24.554  11.182  19.473 -0.1763  0.1035  0.3156
  878BOLB   C1A21053  24.926  10.779  19.511 -0.0553  0.2730  0.1032
  878BOLB   C2A21054  24.959  10.694  19.874 -0.3932 -0.4721 -0.2656
  878BOLB   C3A21055  24.869  10.388  20.306 -0.0196 -0.0271 -0.0556
  878BOLB   C4A21056  24.787  10.316  20.671  0.2219 -0.2897 -0.1497
  878BOLB   C1B21057  24.759  11.366  19.851  0.0874  0.1421 -0.0435
  878BOLB   C2B21058  24.706  11.565  20.246 -0.2715 -0.0777 -0.1423
  878BOLB   C3B21059  24.810  11.601  20.638 -0.0387 -0.0293 -0.1726
  878BOLB   C4B21060  25.065  11.622  20.999 -0.3778 -0.2333  0.0385
  878BOLB   NC221061  26.482   8.397  21.615 -0.0977 -0.0766 -0.0321
  878BOLB   PO221062  26.246   8.721  21.471 -0.0592  0.3198  0.0476
  878BOLB   GL321063  25.877   9.029  21.388  0.0505 -0.3156 -0.1685
  878BOLB   GL421064  26.033   9.300  21.362 -0.0745 -0.1814 -0.1808
  878BOLB   C1C21065  25.493   9.193  21.412  0.1172 -0.1356 -0.0916
  878BOLB   C2C21066  25.284   9.433  21.267 -0.4560  0.0746 -0.0350
  878BOLB   C3C21067  24.892   9.757  21.274 -0.2818 -0.0755  0.0770
  878BOLB   C4C21068  24.868  10.203  21.027  0.0397  0.0157 -0.1579
  878BOLB   C1D21069  25.733   9.639  21.427 -0.1213  0.0321  0.0142
  878BOLB   C2D21070  25.818   9.963  21.722  0.2035 -0.2040 -0.1915
  878BOLB   C3D21071  25.668  10.127  22.004  0.1097  0.1285 -0.1956
  878BOLB   C4D21072  25.396  10.121  22.332  0.2698 -0.0990  0.0908
  879BOLB   NC121073  21.693  23.004  16.526 -0.0614  0.0359  0.1791
  879BOLB   PO121074  21.849  22.978  16.981  0.2609  0.1336 -0.3451
  879BOLB   GL121075  22.234  23.361  17.029 -0.2920  0.0309 -0.1536
  879BOLB   GL221076  22.238  23.589  16.906 -0.2403 -0.0716 -0.0912
  879BOLB   C1A21077  22.583  23.463  17.385 -0.0744 -0.2048 -0.3864
  879BOLB   C2A21078  22.944  23.475  17.510  0.3661  0.2518 -0.3198
  879BOLB   C3A21079  23.353  23.585  17.448  0.0759 -0.0109  0.0789
  879BOLB   C4A21080  23.776  23.542  17.407 -0.1195  0.0836 -0.0820
  879BOLB   C1B21081  22.639  23.866  16.928 -0.3113 -0.2060 -0.1596
  879BOLB   C2B21082  22.957  24.100  16.908 -0.1235  0.1611  0.1343
  879BOLB   C3B21083  23.322  23.988  17.130 -0.1928  0.0357  0.2309
  879BOLB   C4B21084  23.491  24.104  17.488  0.1403  0.0184  0.2690
  879BOLB   NC221085  25.779  24.976  17.989 -0.0246 -0.0102 -0.0149
  879BOLB   PO221086  25.354  24.912  17.879  0.0140  0.1890 -0.2068
  879BOLB   GL321087  25.038  24.737  17.887  0.0004  0.3773  0.3279
  879BOLB   GL421088  24.893  24.737  18.132 -0.0550 -0.0269 -0.0059
  879BOLB   C1C21089  24.767  24.367  17.846 -0.4741  0.1311 -0.0798
  879BOLB   C2C21090  24.466  24.260  17.544 -0.3844  0.0220 -0.2856
  879BOLB   C3C21091  24.384  23.916  17.288  0.0043 -0.0638  0.1179
  879BOLB   C4C21092  24.183  23.552  17.341 -0.0079  0.1356  0.1437
  879BOLB   C1D21093  24.471  24.905  17.830 -0.3241  0.0252 -0.2988
  879BOLB   C2D21094  24.174  24.634  17.730 -0.2820 -0.1203 -0.0184
  879BOLB   C3D21095  23.939  24.323  17.511 -0.2592 -0.2224 -0.1657
  879BOLB   C4D21096  24.037  23.931  17.725  0.0426  0.4392  0.2269
  880BOLB   NC121097  24.924  15.939  17.785  0.1072  0.0075 -0.1442
  880BOLB   PO121098  25.000  15.520  18.162  0.1046  0.1672  0.2892
  880BOLB   GL121099  25.287  15.750  18.302 -0.0072  0.0605  0.2272
  880BOLB   GL221100  25.231  16.064  18.191  0.0924 -0.1718  0.0198
  880BOLB   C1A21101  25.700  15.787  18.559  0.2418 -0.0247 -0.0698
  880BOLB   C2A21102  26.023  15.791  18.713 -0.2424 -0.4408  0.1708
  880BOLB   C3A21103  26.435  15.910  18.941  0.1035 -0.1118 -0.1150
  880BOLB   C4A21104  26.823  16.113  19.227 -0.3539 -0.0052  0.1219
  880BOLB   C1B21105  25.613  16.045  18.089 -0.2538  0.0682  0.1009
  880BOLB   C2B21106  26.037  16.033  18.235 -0.0925 -0.0017  0.1528
  880BOLB   C3B21107  26.359  16.144  18.478 -0.3051 -0.0729 -0.2592
  880BOLB   C4B21108  26.547  16.526  18.479 -0.2386  0.1769  0.0481
  880BOLB   NC221109  28.143  17.644  20.805 -0.0008  0.1885 -0.0610
  880BOLB   PO221110  27.838  17.260  20.713  0.0864 -0.0690  0.1441
  880BOLB   GL321111  27.742  17.289  20.325  0.2088 -0.4294 -0.0746
  880BOLB   GL421112  27.757  16.966  20.186  0.0395 -0.1234  0.0796
  880BOLB   C1C21113  27.570  17.384  19.917  0.2473 -0.3499  0.0189
  880BOLB   C2C21114  27.391  17.098  19.661 -0.0373 -0.0417  0.3303
  880BOLB   C3C21115  27.097  16.738  19.795  0.0399 -0.7651  0.0265
  880BOLB   C4C21116  26.934  16.384  19.598  0.2820  0.2515  0.1121
  880BOLB   C1D21117  27.448  16.591  20.106  0.1024  0.0012  0.0175
  880BOLB   C2D21118  27.080  16.308  20.128 -0.0124  0.0040  0.1127
  880BOLB   C3D21119  26.589  16.481  20.033 -0.1125 -0.1218 -0.0674
  880BOLB   C4D21120  26.513  16.941  19.881  0.0634 -0.1398  0.2669
  881BOLB   NC121121  21.958  22.942  17.871  0.1582  0.2746 -0.2231
  881BOLB   PO121122  22.203  23.188  18.241 -0.1581  0.1159 -0.1918
  881BOLB   GL121123  22.321  23.592  18.451  0.0828  0.3444  0.0296
  881BOLB   GL221124  22.236  23.586  18.663  0.3531 -0.0525 -0.0774
  881BOLB   C1A21125  22.604  23.819  18.418  0.2236  0.0583 -0.2438
  881BOLB   C2A21126  22.731  24.216  18.238 -0.1810  0.1159  0.0612
  881BOLB   C3A21127  23.090  24.281  18.039  0.0425  0.0132 -0.0828
  881BOLB   C4A21128  23.480  24.595  18.097  0.0361 -0.2377  0.2820
  881BOLB   C1B21129  22.418  24.006  18.785  0.0326 -0.0767  0.1434
  881BOLB   C2B21130  22.807  24.227  18.750  0.2352  0.0918 -0.1702
  881BOLB   C3B21131  22.926  24.628  18.472 -0.1283  0.1845 -0.2339
  881BOLB   C4B21132  23.367  24.819  18.541  0.0092 -0.0393  0.0553
  881BOLB   NC221133  25.783  25.242  17.197 -0.1839 -0.4462 -0.3810
  881BOLB   PO221134  25.603  24.912  17.390  0.2516 -0.2408  0.1914
  881BOLB   GL321135  25.199  24.587  17.424 -0.0295 -0.2300 -0.2264
  881BOLB   GL421136  25.200  24.364  17.638 -0.0672 -0.1310 -0.0634
  881BOLB   C1C21137  24.753  24.658  17.411  0.1850  0.2211 -0.0181
  881BOLB   C2C21138  24.340  24.637  17.242  0.0275 -0.0763 -0.3196
  881BOLB   C3C21139  23.975  24.855  17.359  0.1240  0.1335  0.0051
  881BOLB   C4C21140  23.700  24.752  17.775  0.1940  0.0552 -0.0063
  881BOLB   C1D21141  24.937  24.161  17.405 -0.1821 -0.1634 -0.0587
  881BOLB   C2D21142  24.705  24.297  17.093 -0.1420  0.1650 -0.1767
  881BOLB   C3D21143  24.625  24.054  16.867  0.1114 -0.3401  0.0766
  881BOLB   C4D21144  24.204  24.051  16.666  0.1527  0.4475 -0.2970
  882BOLB   NC121145  23.819  18.992  19.743 -0.0165  0.0042  0.2138
  882BOLB   PO121146  23.963  18.699  19.490  0.1681  0.4790  0.2182
  882BOLB   GL121147  24.313  18.993  19.732  0.1679 -0.3306 -0.1917
  882BOLB   GL221148  24.231  19.289  19.567  0.1065  0.3703  0.0725
  882BOLB   C1A21149  24.695  18.922  20.019  0.0036  0.1680  0.0455
  882BOLB   C2A21150  25.052  18.973  20.378  0.0313 -0.0296  0.0600
  882BOLB   C3A21151  25.322  18.786  20.589  0.1478 -0.1704  0.0732
  882BOLB   C4A21152  25.461  19.172  20.795  0.0138  0.0760  0.0564
  882BOLB   C1B21153  24.572  19.475  19.649 -0.1338  0.0120  0.1695
  882BOLB   C2B21154  24.957  19.718  19.742 -0.3191  0.0437 -0.1832
  882BOLB   C3B21155  25.408  19.823  19.839 -0.0349  0.1030 -0.2370
  882BOLB   C4B21156  25.887  19.684  19.979 -0.2099 -0.3397 -0.0160
  882BOLB   NC221157  27.439  19.554  22.251  0.0770  0.0877 -0.0954
  882BOLB   PO221158  27.050  19.502  22.064  0.2892 -0.3328 -0.1888
  882BOLB   GL321159  26.885  19.134  21.841  0.2843  0.0035  0.0461
  882BOLB   GL421160  26.978  18.867  21.755  0.3237 -0.1755  0.0300
  882BOLB   C1C21161  26.506  19.099  21.613  0.1924 -0.3228 -0.1208
  882BOLB   C2C21162  26.456  19.469  21.327 -0.1929  0.0596  0.0257
  882BOLB   C3C21163  26.157  19.494  21.001 -0.2147 -0.0376 -0.2456
  882BOLB   C4C21164  25.849  19.277  20.943 -0.0462  0.2138 -0.0319
  882BOLB   C1D21165  26.982  18.668  21.335 -0.2079 -0.1868 -0.0925
  882BOLB   C2D21166  26.778  18.540  20.893  0.0654  0.2541  0.0677
  882BOLB   C3D21167  26.869  18.223  20.590 -0.1415 -0.4747 -0.0281
  882BOLB   C4D21168  26.631  18.238  20.240  0.1208  0.6188  0.0705
  883BOLB   NC121169  24.964   9.806  18.219  0.0412 -0.1529 -0.2426
  883BOLB   PO121170  24.811   9.348  18.380 -0.0208  0.0835  0.3198
  883BOLB   GL121171  24.512   9.322  18.733 -0.1148  0.2895  0.3941
  883BOLB   GL221172  24.447   9.533  18.762  0.2627  0.3290 -0.0646
  883BOLB   C1A21173  24.396   9.031  19.070 -0.3008  0.0831 -0.0447
  883BOLB   C2A21174  24.434   9.023  19.561 -0.0575  0.1501 -0.1708
  883BOLB   C3A21175  24.284   8.842  19.891 -0.1966 -0.1152  0.1765
  883BOLB   C4A21176  24.413   8.946  20.247  0.0774  0.1108  0.1502
  883BOLB   C1B21177  24.400   9.493  19.263 -0.1350  0.2778 -0.0391
  883BOLB   C2B21178  24.165   9.419  19.561 -0.1162 -0.2443  0.2376
  883BOLB   C3B21179  23.985   9.263  19.776 -0.0470  0.1797 -0.0030
  883BOLB   C4B21180  23.988   9.150  20.179 -0.1381  0.2440 -0.1300
  883BOLB   NC221181  25.205   7.129  21.747  0.1876 -0.3521 -0.3088
  883BOLB   PO221182  25.053   7.582  21.664  0.0730  0.1807  0.0905
  883BOLB   GL321183  24.772   7.914  21.503 -0.0058 -0.0026  0.1316
  883BOLB   GL421184  24.478   7.868  21.135 -0.0846  0.0151 -0.2821
  883BOLB   C1C21185  24.362   8.158  21.509  0.1877 -0.1803  0.4676
  883BOLB   C2C21186  24.296   8.448  21.202 -0.0009  0.0861 -0.0042
  883BOLB   C3C21187  24.327   8.951  21.003  0.1857 -0.1722 -0.5202
  883BOLB   C4C21188  24.269   9.056  20.641 -0.0475  0.0316  0.0383
  883BOLB   C1D21189  24.239   7.996  20.867  0.6766  0.1602 -0.0740
  883BOLB   C2D21190  23.951   8.234  20.701 -0.1147  0.2521 -0.0735
  883BOLB   C3D21191  23.631   8.416  20.656  0.3633 -0.1492  0.1010
  883BOLB   C4D21192  23.363   8.688  20.371 -0.1128 -0.1824  0.0578
  884BOLB   NC121193  26.078  12.555  18.844  0.2940 -0.0140 -0.3019
  884BOLB   PO121194  26.533  12.665  18.576 -0.1833  0.1957  0.1247
  884BOLB   GL121195  26.418  13.000  18.665 -0.0251 -0.3000  0.1834
  884BOLB   GL221196  26.233  13.035  18.934 -0.3026  0.1357 -0.1718
  884BOLB   C1A21197  26.660  13.261  19.037 -0.1406  0.1077 -0.0375
  884BOLB   C2A21198  27.014  13.588  19.090  0.4821 -0.0163  0.2718
  884BOLB   C3A21199  27.259  13.557  19.302  0.2834  0.3071  0.3091
  884BOLB   C4A21200  27.115  13.430  19.721 -0.1424  0.2128 -0.0432
  884BOLB   C1B21201  26.143  13.410  19.293 -0.2375  0.2006  0.1956
  884BOLB   C2B21202  26.129  13.579  19.611 -0.1423 -0.0310  0.1614
  884BOLB   C3B21203  26.315  13.834  19.855 -0.2866 -0.2823  0.1838
  884BOLB   C4B21204  26.571  14.223  19.872  0.3284  0.3239  0.1938
  884BOLB   NC221205  28.110  13.280  21.016  0.0519 -0.1545  0.0555
  884BOLB   PO221206  28.316  13.554  20.990  0.6351  0.3451 -0.0614
  884BOLB   GL321207  27.961  13.765  21.135  0.1072  0.1247  0.1869
  884BOLB   GL421208  27.756  14.032  20.993 -0.0932  0.1172  0.0059
  884BOLB   C1C21209  27.504  13.615  21.226 -0.0911  0.0961  0.0034
  884BOLB   C2C21210  27.224  13.737  20.926  0.3760 -0.4522 -0.1005
  884BOLB   C3C21211  27.090  13.627  20.497  0.0345  0.0515  0.0659
  884BOLB   C4C21212  27.203  13.434  20.176 -0.0859  0.1918  0.2527
  884BOLB   C1D21213  27.498  14.316  20.866 -0.0266  0.2507  0.0102
  884BOLB   C2D21214  27.276  14.284  20.482  0.0117  0.2078  0.0678
  884BOLB   C3D21215  27.249  14.554  20.132  0.3053  0.3176 -0.2139
  884BOLB   C4D21216  26.907  14.889  20.010  0.2676  0.0004 -0.0076
  885BOLB   NC121217  24.278  18.931  19.162  0.0176 -0.1603 -0.1407
  885BOLB   PO121218  24.213  18.921  18.726 -0.1001  0.0309  0.2836
  885BOLB   GL121219  24.578  19.184  18.800  0.0129 -0.0381  0.3146
  885BOLB   GL221220  24.882  19.056  18.615  0.0945 -0.2443  0.0267
  885BOLB   C1A21221  24.883  19.238  19.134 -0.0810 -0.2204 -0.0824
  885BOLB   C2A21222  25.266  19.415  19.316  0.1006  0.0893 -0.1697
  885BOLB   C3A21223  25.456  19.706  19.208  0.1310  0.0772 -0.0073
  885BOLB   C4A21224  25.754  20.001  19.043  0.0845  0.1133  0.1532
  885BOLB   C1B21225  25.235  18.782  18.503 -0.1222 -0.0216  0.1316
  885BOLB   C2B21226  25.717  18.677  18.554 -0.2212 -0.0897  0.2778
  885BOLB   C3B21227  26.105  18.814  18.500 -0.1204  0.2586  0.0055
  885BOLB   C4B21228  26.531  18.765  18.524  0.0651 -0.2008  0.1616
  885BOLB   NC221229  28.038  21.342  17.854  0.2593  0.1501 -0.0606
  885BOLB   PO221230  27.737  21.191  18.199 -0.1208 -0.0147  0.2167
  885BOLB   GL321231  27.444  20.934  18.393  0.1057 -0.0668  0.2697
  885BOLB   GL421232  27.350  20.879  18.674  0.3799  0.2070 -0.1300
  885BOLB   C1C21233  26.900  21.131  18.624  0.2017 -0.0444 -0.3202
  885BOLB   C2C21234  26.541  20.892  18.693 -0.0541  0.4749 -0.0097
  885BOLB   C3C21235  26.534  20.484  18.730  0.1250 -0.3824  0.3675
  885BOLB   C4C21236  26.214  20.173  18.869  0.1672  0.3572 -0.1474
  885BOLB   C1D21237  26.977  20.772  19.032  0.2745  0.0383  0.0184
  885BOLB   C2D21238  26.861  20.351  19.098  0.1463  0.1020  0.0181
  885BOLB   C3D21239  26.585  19.904  19.180 -0.1464 -0.2002 -0.0819
  885BOLB   C4D21240  26.704  19.519  19.101 -0.0408  0.0594  0.2339
  886BOLB   NC121241  24.714  15.888  18.328  0.2472 -0.0534  0.1437
  886BOLB   PO121242  24.575  15.630  18.746 -0.0809  0.0953  0.0456
  886BOLB   GL121243  24.977  15.762  18.690  0.1021 -0.2435  0.0748
  886BOLB   GL221244  25.131  15.643  18.994 -0.0919  0.2812  0.3206
  886BOLB   C1A21245  25.310  16.073  18.703 -0.0486 -0.3287 -0.2246
  886BOLB   C2A21246  25.750  16.218  18.933  0.3405 -0.3226  0.0869
  886BOLB   C3A21247  26.161  16.306  18.938  0.0541 -0.1741  0.0244
  886BOLB   C4A21248  26.502  16.510  19.004 -0.2980 -0.2349 -0.2680
  886BOLB   C1B21249  25.549  15.756  19.054  0.1333  0.5110 -0.0803
  886BOLB   C2B21250  26.016  15.772  19.279  0.1436 -0.2904  0.0866
  886BOLB   C3B21251  26.337  15.748  19.491  0.1314 -0.2605 -0.1711
  886BOLB   C4B21252  26.744  15.903  19.737 -0.1915 -0.0111 -0.1718
  886BOLB   NC221253  29.055  17.329  19.111  0.0582 -0.2492 -0.1069
  886BOLB   PO221254  28.832  17.227  18.790  0.0250 -0.1206 -0.0287
  886BOLB   GL321255  28.451  17.164  18.745 -0.0911 -0.1075  0.0041
  886BOLB   GL421256  28.323  17.232  18.396 -0.1708  0.1762 -0.0706
  886BOLB   C1C21257  28.084  17.062  18.966  0.1388 -0.1826  0.0426
  886BOLB   C2C21258  27.731  16.882  19.063  0.0159  0.0678 -0.0502
  886BOLB   C3C21259  27.299  16.875  19.181  0.0277 -0.0910 -0.3200
  886BOLB   C4C21260  26.942  16.781  19.108  0.1631 -0.1140 -0.1017
  886BOLB   C1D21261  28.043  16.920  18.442 -0.1239 -0.3982  0.2085
  886BOLB   C2D21262  27.489  16.899  18.589 -0.2276 -0.1109 -0.0299
  886BOLB   C3D21263  27.165  17.164  18.729  0.2896 -0.1945  0.2027
  886BOLB   C4D21264  26.813  17.375  18.946 -0.0388 -0.2219 -0.2141
  887BOLB   NC121265  21.793  22.467  17.828 -0.2503 -0.2319 -0.1334
  887BOLB   PO121266  22.155  22.253  18.058 -0.0754  0.1260  0.1200
  887BOLB   GL121267  22.612  22.366  18.061  0.0360  0.1177 -0.2263
  887BOLB   GL221268  22.691  22.452  18.351  0.0879  0.0373  0.1079
  887BOLB   C1A21269  22.974  22.493  17.843 -0.0137 -0.0256 -0.2290
  887BOLB   C2A21270  23.313  22.769  17.842 -0.0438 -0.3050  0.0182
  887BOLB   C3A21271  23.675  23.057  17.760 -0.0888 -0.0914 -0.0512
  887BOLB   C4A21272  24.049  23.267  17.809  0.4847  0.1184 -0.4410
  887BOLB   C1B21273  23.077  22.664  18.288  0.0592 -0.0905  0.3111
  887BOLB   C2B21274  23.391  23.002  18.264 -0.2528  0.1166  0.1261
  887BOLB   C3B21275  23.722  23.157  18.407  0.2985  0.1112  0.1658
  887BOLB   C4B21276  24.206  23.207  18.372  0.2748  0.2441 -0.1359
  887BOLB   NC221277  25.100  25.158  18.305 -0.3341 -0.0939  0.0302
  887BOLB   PO221278  25.424  24.968  18.387 -0.0451  0.0236 -0.1808
  887BOLB   GL321279  25.215  24.606  18.546 -0.0447  0.1067 -0.0781
  887BOLB   GL421280  25.140  24.595  18.846 -0.0141 -0.1338  0.1882
  887BOLB   C1C21281  25.188  24.365  18.166 -0.1079 -0.0112  0.2461
  887BOLB   C2C21282  25.033  23.973  17.996  0.0566  0.0538  0.1317
  887BOLB   C3C21283  24.700  23.805  17.744 -0.0656  0.1992 -0.1261
  887BOLB   C4C21284  24.420  23.373  17.823 -0.1843 -0.1721  0.1323
  887BOLB   C1D21285  25.044  24.107  18.780  0.0066 -0.0145 -0.1019
  887BOLB   C2D21286  24.855  23.785  18.600 -0.2644 -0.0373  0.0750
  887BOLB   C3D21287  24.623  23.606  18.393 -0.1283 -0.0660 -0.0205
  887BOLB   C4D21288  24.808  23.181  18.177 -0.0664  0.1477 -0.3692
  888BOLB   NC121289  22.102  21.030  19.861  0.1212 -0.0473  0.2175
  888BOLB   PO121290  22.505  20.790  19.894 -0.4226  0.0840 -0.0164
  888BOLB   GL121291  22.947  20.964  20.112  0.1191  0.2188  0.2515
  888BOLB   GL221292  23.154  20.807  20.321  0.2608  0.0540 -0.1144
  888BOLB   C1A21293  23.249  21.243  20.178  0.1600 -0.4021  0.1268
  888BOLB   C2A21294  23.640  21.467  20.266  0.1546  0.2166 -0.1100
  888BOLB   C3A21295  23.768  21.679  20.567 -0.3467  0.1119 -0.0225
  888BOLB   C4A21296  24.222  21.800  20.651  0.1573  0.0689  0.1639
  888BOLB   C1B21297  23.455  20.982  20.539 -0.3662  0.2068 -0.1233
  888BOLB   C2B21298  23.844  21.130  20.738  0.0811  0.3756  0.2238
  888BOLB   C3B21299  24.036  21.353  20.997 -0.1195 -0.1846  0.2229
  888BOLB   C4B21300  24.283  21.470  21.309 -0.0554 -0.2121 -0.2112
  888BOLB   NC221301  26.730  22.078  21.200  0.1253  0.1859 -0.0797
  888BOLB   PO221302  26.399  22.246  21.239  0.0681  0.0152 -0.2743
  888BOLB   GL321303  25.992  22.129  21.180  0.1410 -0.0595  0.4244
  888BOLB   GL421304  25.852  21.811  21.146  0.0203 -0.0967  0.0649
  888BOLB   C1C21305  25.540  22.233  21.219  0.2868 -0.3425  0.0977
  888BOLB   C2C21306  25.201  22.265  20.927  0.1158 -0.2544  0.0001
  888BOLB   C3C21307  24.827  22.315  20.713 -0.0305 -0.1275 -0.2340
  888BOLB   C4C21308  24.504  22.064  20.581 -0.0119 -0.0149  0.2291
  888BOLB   C1D21309  25.911  21.727  20.706  0.0410 -0.0072  0.0421
  888BOLB   C2D21310  25.713  21.747  20.360  0.0023 -0.0400  0.0918
  888BOLB   C3D21311  25.370  21.736  20.029  0.0365  0.2269 -0.0224
  888BOLB   C4D21312  25.030  22.005  19.966  0.0575 -0.2160  0.3081
  889BOLB   NC121313  21.970  22.859  19.083  0.2997 -0.3296 -0.3657
  889BOLB   PO121314  22.324  22.631  19.139  0.0109 -0.0323  0.0150
  889BOLB   GL121315  22.647  22.864  19.080 -0.3384 -0.0945  0.0883
  889BOLB   GL221316  22.938  22.916  19.243 -0.1912  0.1141 -0.1138
  889BOLB   C1A21317  22.996  23.045  18.779 -0.1263  0.2579 -0.0221
  889BOLB   C2A21318  23.351  23.365  18.776 -0.2012 -0.1352 -0.2853
  889BOLB   C3A21319  23.739  23.581  18.948 -0.4712 -0.0203 -0.1888
  889BOLB   C4A21320  24.088  23.916  19.125  0.0488  0.1970  0.1696
  889BOLB   C1B21321  23.345  22.879  19.100  0.0280  0.2815  0.0683
  889BOLB   C2B21322  23.721  22.955  18.966 -0.1006 -0.0283 -0.0395
  889BOLB   C3B21323  24.083  23.162  19.125 -0.0403  0.0421  0.0938
  889BOLB   C4B21324  24.498  23.163  19.326 -0.0242 -0.3013  0.1078
  889BOLB   NC221325  24.604  25.773  20.250 -0.2773 -0.0394  0.0278
  889BOLB   PO221326  24.686  25.679  19.824 -0.0858 -0.1192  0.0735
  889BOLB   GL321327  24.562  25.357  19.989 -0.0740  0.0294  0.0956
  889BOLB   GL421328  24.665  25.120  19.653  0.2349  0.0805  0.1130
  889BOLB   C1C21329  24.395  24.980  20.062  0.1741  0.1502  0.0561
  889BOLB   C2C21330  24.219  24.678  20.022  0.1263  0.1604  0.0221
  889BOLB   C3C21331  24.107  24.333  19.863  0.0402  0.0239 -0.2486
  889BOLB   C4C21332  24.208  23.931  19.624 -0.1509 -0.0492 -0.0300
  889BOLB   C1D21333  24.716  24.673  19.823 -0.0016  0.0161 -0.1936
  889BOLB   C2D21334  24.588  24.297  20.030 -0.0299  0.0830 -0.0865
  889BOLB   C3D21335  24.724  23.813  20.079  0.3674 -0.0588  0.0284
  889BOLB   C4D21336  24.549  23.333  20.024 -0.1068 -0.4874 -0.0882
  890BOLB   NC121337  24.053  18.231  19.698  0.3169 -0.2032  0.0048
  890BOLB   PO121338  24.119  18.567  20.014 -0.1987  0.0399  0.3376
  890BOLB   GL121339  24.292  18.698  20.298  0.0052 -0.0573  0.3358
  890BOLB   GL221340  24.531  18.408  20.257 -0.2589  0.0444  0.2301
  890BOLB   C1A21341  24.531  18.971  20.670  0.1671 -0.1716 -0.2894
  890BOLB   C2A21342  24.912  18.900  20.910 -0.3164  0.2930  0.1656
  890BOLB   C3A21343  25.300  18.930  21.254  0.2406  0.2615 -0.2011
  890BOLB   C4A21344  25.621  19.190  21.372 -0.2478  0.0530 -0.1787
  890BOLB   C1B21345  24.879  18.543  20.573  0.0768  0.0048 -0.2480
  890BOLB   C2B21346  25.255  18.389  20.878  0.1268  0.1199 -0.0115
  890BOLB   C3B21347  25.526  18.289  21.223  0.0103  0.2743  0.0871
  890BOLB   C4B21348  25.655  18.012  21.441  0.0131  0.2806  0.0191
  890BOLB   NC221349  25.771  20.643  23.758 -0.0402  0.3940  0.4295
  890BOLB   PO221350  25.977  20.469  23.272 -0.2951  0.3026 -0.2751
  890BOLB   GL321351  25.891  20.098  22.980  0.0776 -0.0978  0.1064
  890BOLB   GL421352  26.065  19.894  23.069  0.1074  0.1998  0.1123
  890BOLB   C1C21353  25.581  20.001  22.781  0.3809 -0.2264  0.1445
  890BOLB   C2C21354  25.395  19.700  22.572 -0.0170 -0.0204  0.3231
  890BOLB   C3C21355  25.387  19.623  22.148  0.1952  0.0529 -0.1375
  890BOLB   C4C21356  25.495  19.344  21.813  0.0566 -0.2285  0.3916
  890BOLB   C1D21357  25.881  19.565  22.963  0.0685  0.0086 -0.1458
  890BOLB   C2D21358  25.567  19.261  22.810  0.1137  0.2307 -0.1473
  890BOLB   C3D21359  25.257  19.142  22.935 -0.0511 -0.2243  0.1462
  890BOLB   C4D21360  25.210  18.971  23.332  0.0121  0.1115  0.0439
  891BOLB   NC121361  22.848  20.316  20.170  0.0631 -0.1565  0.1564
  891BOLB   PO121362  22.697  20.481  20.434 -0.1073  0.1162 -0.1006
  891BOLB   GL121363  23.028  20.451  20.601 -0.1752  0.1002 -0.3066
  891BOLB   GL221364  23.052  20.283  20.856  0.0145  0.1056 -0.3975
  891BOLB   C1A21365  23.442  20.580  20.772 -0.0399  0.1596  0.0537
  891BOLB   C2A21366  23.857  20.521  21.118  0.0125  0.1386  0.0016
  891BOLB   C3A21367  24.183  20.565  21.512 -0.3613 -0.1959 -0.0989
  891BOLB   C4A21368  24.417  20.599  21.954 -0.2882  0.1841 -0.0993
  891BOLB   C1B21369  23.352  20.151  20.962 -0.2458 -0.0386 -0.0948
  891BOLB   C2B21370  23.691  20.028  21.179  0.3010  0.1960 -0.1753
  891BOLB   C3B21371  23.766  20.173  21.551 -0.0034  0.0951  0.0466
  891BOLB   C4B21372  23.978  20.194  21.873 -0.0290  0.3084 -0.0262
  891BOLB   NC221373  26.736  21.014  21.632 -0.1590  0.0714  0.1138
  891BOLB   PO221374  26.344  21.122  21.691 -0.0451  0.0427 -0.2752
  891BOLB   GL321375  26.117  20.654  21.663  0.1581 -0.4560 -0.3298
  891BOLB   GL421376  25.915  20.773  21.975 -0.0663 -0.1026 -0.0207
  891BOLB   C1C21377  25.874  20.251  21.492  0.2762 -0.1977  0.3804
  891BOLB   C2C21378  25.512  20.194  21.739 -0.0146  0.0707 -0.1525
  891BOLB   C3C21379  25.228  20.475  22.029 -0.0813  0.1556 -0.0119
  891BOLB   C4C21380  24.860  20.597  22.011  0.2122 -0.0690  0.0061
  891BOLB   C1D21381  25.570  20.708  21.785  0.0616 -0.0498 -0.1502
  891BOLB   C2D21382  25.193  20.634  21.533 -0.1096 -0.0868  0.0384
  891BOLB   C3D21383  25.037  20.514  21.181  0.0677 -0.3157  0.1503
  891BOLB   C4D21384  24.846  20.457  20.884  0.0312  0.2335  0.2177
  892BOLB   NC121385  28.273  12.755  19.580  0.0186 -0.0051 -0.0783
  892BOLB   PO121386  28.410  13.139  19.555 -0.0800  0.2515  0.0801
  892BOLB   GL121387  28.093  13.340  19.771 -0.1358  0.2339 -0.1008
  892BOLB   GL221388  28.133  13.551  20.024 -0.2151  0.2295 -0.0197
  892BOLB   C1A21389  27.666  13.407  19.956 -0.0163 -0.1443  0.1072
  892BOLB   C2A21390  27.533  13.152  19.984 -0.1451  0.3602  0.2371
  892BOLB   C3A21391  27.331  12.896  20.284  0.2064 -0.2547  0.0209
  892BOLB   C4A21392  27.018  12.970  20.592 -0.0202 -0.1616 -0.0733
  892BOLB   C1B21393  27.932  13.804  19.573 -0.1081 -0.2436 -0.2287
  892BOLB   C2B21394  28.148  14.258  19.268  0.0416  0.3153 -0.0025
  892BOLB   C3B21395  28.241  14.687  19.172 -0.1658 -0.2803  0.2939
  892BOLB   C4B21396  28.203  15.095  18.984  0.1225 -0.0406  0.1643
  892BOLB   NC221397  27.293  10.945  21.090  0.3321 -0.0613  0.0779
  892BOLB   PO221398  27.395  11.405  21.270  0.0847  0.2062 -0.0533
  892BOLB   GL321399  27.265  11.623  20.964  0.2938 -0.3273  0.3603
  892BOLB   GL421400  27.101  11.330  20.809  0.0644  0.1972 -0.1436
  892BOLB   C1C21401  26.996  11.889  20.821 -0.0711 -0.0057  0.0383
  892BOLB   C2C21402  26.595  11.972  20.570 -0.1471 -0.2103 -0.2523
  892BOLB   C3C21403  26.374  12.431  20.633 -0.0121 -0.1148 -0.4828
  892BOLB   C4C21404  26.650  12.788  20.503 -0.2546 -0.2368  0.4444
  892BOLB   C1D21405  26.692  11.458  20.752 -0.0999  0.1584 -0.4580
  892BOLB   C2D21406  26.309  11.419  20.594 -0.0027 -0.0139  0.2405
  892BOLB   C3D21407  26.170  11.254  20.199  0.2857  0.1813  0.4517
  892BOLB   C4D21408  26.339  10.800  20.136  0.5714 -0.0124  0.1987
  893BOLB   NC121409  25.134   8.219  18.679 -0.1378 -0.1183  0.1046
  893BOLB   PO121410  25.111   7.726  18.783  0.1430  0.1985 -0.3444
  893BOLB   GL121411  24.785   8.020  19.058  0.4479  0.2738 -0.1356
  893BOLB   GL221412  24.637   8.345  18.876  0.0092  0.1232  0.1755
  893BOLB   C1A21413  24.907   8.387  19.292  0.0560  0.1288 -0.1213
  893BOLB   C2A21414  24.901   8.920  19.358  0.1982  0.2358 -0.2431
  893BOLB   C3A21415  25.210   9.093  19.595 -0.0460  0.0208  0.4561
  893BOLB   C4A21416  25.505   9.463  19.714  0.0616 -0.0758  0.1276
  893BOLB   C1B21417  24.263   8.537  18.783 -0.0325 -0.0107 -0.1482
  893BOLB   C2B21418  23.910   8.396  18.617 -0.0337 -0.3202  0.1525
  893BOLB   C3B21419  23.652   8.089  18.804  0.1135  0.1123 -0.0816
  893BOLB   C4B21420  23.482   7.752  18.588  0.1485  0.1260  0.1749
  893BOLB   NC221421  26.372   9.081  21.133 -0.0211  0.2867  0.0391
  893BOLB   PO221422  26.611   9.673  20.973  0.3685  0.2558  0.0393
  893BOLB   GL321423  26.156   9.816  21.031 -0.1085 -0.1160  0.1028
  893BOLB   GL421424  26.214   9.939  21.346 -0.0539 -0.0537 -0.2497
  893BOLB   C1C21425  25.840   9.923  20.886  0.1229  0.0025 -0.4201
  893BOLB   C2C21426  25.806  10.155  20.559 -0.0299  0.2452  0.1761
  893BOLB   C3C21427  25.855   9.999  20.042 -0.0324 -0.3940 -0.1362
  893BOLB   C4C21428  25.600   9.872  19.706  0.0181  0.2289  0.0639
  893BOLB   C1D21429  26.257  10.299  21.141  0.4481  0.1194 -0.1918
  893BOLB   C2D21430  26.440  10.764  21.154 -0.2282  0.3400  0.1759
  893BOLB   C3D21431  26.321  11.266  21.056  0.4180 -0.0779  0.2415
  893BOLB   C4D21432  26.032  11.608  20.929  0.3683 -0.0635  0.1743
  894BOLB   NC121433  23.032  12.838  20.627 -0.0272  0.1275  0.4134
  894BOLB   PO121434  23.305  12.813  20.960 -0.1143 -0.1175 -0.2363
  894BOLB   GL121435  23.410  12.632  21.307 -0.3977 -0.2902  0.0232
  894BOLB   GL221436  23.687  12.656  21.265  0.1036  0.1382  0.0774
  894BOLB   C1A21437  23.319  12.618  21.770  0.1253  0.1824 -0.4277
  894BOLB   C2A21438  23.545  12.401  22.190 -0.0238  0.0229  0.0201
  894BOLB   C3A21439  23.894  12.126  22.174  0.1058  0.0607 -0.0687
  894BOLB   C4A21440  23.963  11.910  22.528 -0.1625  0.0649 -0.1541
  894BOLB   C1B21441  23.776  12.520  21.710 -0.2064  0.0526  0.0825
  894BOLB   C2B21442  24.257  12.515  21.880 -0.1948  0.2357 -0.0179
  894BOLB   C3B21443  24.567  12.632  22.122  0.1831  0.0697 -0.1638
  894BOLB   C4B21444  24.895  12.682  22.306  0.2734  0.0024  0.0646
  894BOLB   NC221445  25.502  12.160  24.022 -0.3302 -0.2659  0.0083
  894BOLB   PO221446  25.707  11.737  24.053 -0.0474  0.0983 -0.1080
  894BOLB   GL321447  25.421  11.706  23.815  0.1961 -0.1611  0.3895
  894BOLB   GL421448  25.134  11.533  23.915  0.0979 -0.1423 -0.2164
  894BOLB   C1C21449  25.274  11.588  23.419  0.1302 -0.1172 -0.0790
  894BOLB   C2C21450  24.879  11.337  23.222  0.2396 -0.1472 -0.1314
  894BOLB   C3C21451  24.623  11.524  22.954  0.0830  0.3175  0.0384
  894BOLB   C4C21452  24.386  11.878  22.781  0.2704  0.0785 -0.2552
  894BOLB   C1D21453  24.767  11.597  23.686 -0.0854  0.1334 -0.0432
  894BOLB   C2D21454  24.366  11.694  23.388 -0.0167 -0.0424 -0.1742
  894BOLB   C3D21455  24.073  11.736  23.174  0.3341 -0.1296  0.2367
  894BOLB   C4D21456  23.689  12.029  22.969 -0.0132  0.2600  0.1341
  895BOLB   NC121457  24.101  17.860  18.880  0.1269  0.0660  0.0677
  895BOLB   PO121458  24.538  18.056  18.686  0.2260 -0.0547  0.1194
  895BOLB   GL121459  24.862  18.204  18.913 -0.0050 -0.2129  0.1662
  895BOLB   GL221460  24.880  18.217  19.284 -0.0843 -0.0364  0.3076
  895BOLB   C1A21461  25.325  18.310  18.859 -0.0324 -0.1033 -0.0433
  895BOLB   C2A21462  25.745  18.525  19.037 -0.0512 -0.0023 -0.2099
  895BOLB   C3A21463  26.192  18.624  18.927 -0.1209 -0.0739 -0.3005
  895BOLB   C4A21464  26.603  18.465  18.902 -0.2912 -0.1797  0.1151
  895BOLB   C1B21465  25.167  18.391  19.384 -0.0011 -0.1193  0.0364
  895BOLB   C2B21466  25.479  18.665  19.614 -0.3525 -0.1306  0.1505
  895BOLB   C3B21467  25.859  18.928  19.817 -0.0796  0.1255 -0.0798
  895BOLB   C4B21468  26.135  19.223  19.909  0.3207 -0.1444 -0.1237
  895BOLB   NC221469  28.677  18.263  19.639  0.1011  0.0979  0.0479
  895BOLB   PO221470  28.759  18.607  19.455 -0.0480  0.0666 -0.2061
  895BOLB   GL321471  28.348  18.667  19.435 -0.0373  0.0585  0.1140
  895BOLB   GL421472  28.232  18.195  19.401 -0.0829 -0.0382 -0.1841
  895BOLB   C1C21473  28.022  18.882  19.188  0.1244  0.0786  0.0786
  895BOLB   C2C21474  27.780  18.835  18.779 -0.3637 -0.2970  0.1213
  895BOLB   C3C21475  27.563  18.634  18.638  0.0160 -0.1945 -0.3461
  895BOLB   C4C21476  27.060  18.403  18.840 -0.0881 -0.0680  0.1983
  895BOLB   C1D21477  27.938  18.353  19.010  0.3327  0.0336  0.1681
  895BOLB   C2D21478  27.546  18.538  19.147  0.3164  0.0292  0.2538
  895BOLB   C3D21479  27.099  18.640  19.290  0.0093 -0.1544 -0.1783
  895BOLB   C4D21480  26.859  19.096  19.321  0.2377  0.1711 -0.2408
  896BOLB   NC121481  22.918  19.001  20.244  0.3103 -0.0757  0.1149
  896BOLB   PO121482  23.382  19.064  20.015 -0.0659  0.0123 -0.0562
  896BOLB   GL121483  23.774  19.228  20.150 -0.0543 -0.3714 -0.1884
  896BOLB   GL221484  23.920  19.231  20.601  0.1161 -0.0904  0.0738
  896BOLB   C1A21485  24.183  19.265  20.158  0.1314  0.0014 -0.0996
  896BOLB   C2A21486  24.573  19.346  20.243  0.0142  0.0225  0.1567
  896BOLB   C3A21487  24.695  19.450  20.680  0.1301 -0.0394  0.0180
  896BOLB   C4A21488  25.035  19.350  21.013 -0.1901 -0.0877  0.1418
  896BOLB   C1B21489  24.204  19.614  20.541 -0.0213  0.0346  0.1415
  896BOLB   C2B21490  24.300  19.920  20.755  0.0505 -0.2985 -0.2592
  896BOLB   C3B21491  24.710  19.968  20.727 -0.0986 -0.1681  0.0096
  896BOLB   C4B21492  25.015  19.918  21.033  0.3594  0.2438  0.4305
  896BOLB   NC221493  26.907  20.924  22.518 -0.0992 -0.3310  0.1893
  896BOLB   PO221494  26.956  20.721  22.081  0.1745  0.0416  0.0624
  896BOLB   GL321495  26.610  20.473  21.926 -0.0058 -0.0722  0.1910
  896BOLB   GL421496  26.258  20.392  22.053 -0.1903  0.2863 -0.0120
  896BOLB   C1C21497  26.415  20.129  21.634  0.0980  0.0122 -0.1005
  896BOLB   C2C21498  26.122  19.804  21.454  0.0107 -0.0526 -0.2323
  896BOLB   C3C21499  25.781  19.678  21.373 -0.4939 -0.0609 -0.3592
  896BOLB   C4C21500  25.343  19.569  21.208  0.0835 -0.1932  0.2388
  896BOLB   C1D21501  25.976  20.058  22.004 -0.2132 -0.0098 -0.0722
  896BOLB   C2D21502  25.850  19.706  21.854  0.0216  0.0199 -0.0536
  896BOLB   C3D21503  26.022  19.288  21.699  0.1374  0.0735 -0.2627
  896BOLB   C4D21504  26.129  19.133  21.374  0.0453 -0.1419  0.0361
  897BOLB   NC121505  24.420  14.645  19.002 -0.0058 -0.0648  0.1647
  897BOLB   PO121506  24.781  14.781  18.625 -0.0914 -0.1182 -0.2485
  897BOLB   GL121507  25.198  14.789  18.750 -0.4469  0.1288  0.0328
  897BOLB   GL221508  25.492  14.653  18.660 -0.3500  0.1356 -0.2236
  897BOLB   C1A21509  25.368  14.425  19.147 -0.0164 -0.2973  0.3787
  897BOLB   C2A21510  25.720  14.579  19.549  0.4007 -0.1352  0.1802
  897BOLB   C3A21511  26.152  14.433  19.656  0.0755 -0.1161 -0.0102
  897BOLB   C4A21512  26.478  14.665  19.549 -0.0499 -0.2082 -0.0059
  897BOLB   C1B21513  25.902  14.965  18.685  0.0353  0.0502 -0.1502
  897BOLB   C2B21514  26.078  15.325  18.503  0.1084  0.1032  0.2372
  897BOLB   C3B21515  26.424  15.662  18.422 -0.0122 -0.2872 -0.5070
  897BOLB   C4B21516  26.806  15.748  18.278  0.0580 -0.0856 -0.1291
  897BOLB   NC221517  29.209  15.380  20.210 -0.1465  0.1425 -0.4567
  897BOLB   PO221518  28.797  15.074  20.204 -0.1825 -0.0000  0.3430
  897BOLB   GL321519  28.501  15.164  19.976 -0.0480  0.1572  0.0557
  897BOLB   GL421520  28.446  14.949  19.744 -0.0110  0.0394 -0.3284
  897BOLB   C1C21521  28.008  15.091  19.937  0.1582  0.1046  0.0493
  897BOLB   C2C21522  27.687  14.819  19.766  0.0633  0.1233  0.1397
  897BOLB   C3C21523  27.268  14.728  19.550  0.0532  0.0187  0.1464
  897BOLB   C4C21524  26.892  14.636  19.634 -0.0627 -0.1112 -0.1356
  897BOLB   C1D21525  28.156  14.626  19.727  0.3218  0.4345  0.2385
  897BOLB   C2D21526  28.093  14.261  19.908 -0.1760 -0.0537  0.0825
  897BOLB   C3D21527  27.823  13.925  20.134 -0.1313  0.1689 -0.0762
  897BOLB   C4D21528  27.561  13.790  20.524  0.2298  0.2255 -0.1589
  898BOLB   NC121529  23.423  19.127  20.551 -0.0771  0.0544  0.2764
  898BOLB   PO121530  23.122  19.442  20.443 -0.2673  0.1572  0.0283
  898BOLB   GL121531  23.340  19.450  20.953 -0.0857 -0.3247  0.3798
  898BOLB   GL221532  23.230  19.645  21.263 -0.1118 -0.1453  0.2124
  898BOLB   C1A21533  23.652  19.384  21.209 -0.1851 -0.1438 -0.1025
  898BOLB   C2A21534  23.927  19.332  21.466 -0.0851  0.0853 -0.0631
  898BOLB   C3A21535  24.366  19.411  21.631 -0.1210  0.2253 -0.2251
  898BOLB   C4A21536  24.440  19.546  22.075 -0.0592  0.2520  0.3439
  898BOLB   C1B21537  23.522  19.705  21.630  0.1665  0.0040 -0.0810
  898BOLB   C2B21538  23.970  19.717  21.791  0.5415  0.3352  0.0458
  898BOLB   C3B21539  24.437  19.946  21.739  0.0862 -0.0489  0.0198
  898BOLB   C4B21540  24.811  20.200  21.546 -0.1303  0.0386 -0.1966
  898BOLB   NC221541  26.141  20.800  22.986 -0.1196 -0.3640  0.3152
  898BOLB   PO221542  26.387  20.739  22.626  0.0154  0.0448  0.0306
  898BOLB   GL321543  25.941  20.785  22.490  0.2652 -0.0303 -0.2723
  898BOLB   GL421544  25.776  20.560  22.715 -0.3220  0.0237  0.0784
  898BOLB   C1C21545  25.681  20.450  22.238  0.0993  0.4533 -0.0179
  898BOLB   C2C21546  25.561  20.054  22.215 -0.2310  0.0720  0.0491
  898BOLB   C3C21547  25.087  20.013  22.025  0.0181 -0.1964 -0.0060
  898BOLB   C4C21548  24.802  19.832  22.049 -0.1321 -0.0163 -0.1055
  898BOLB   C1D21549  25.969  20.155  22.487 -0.2111  0.2863  0.0236
  898BOLB   C2D21550  25.893  19.676  22.411  0.0360  0.3052  0.0471
  898BOLB   C3D21551  26.215  19.508  22.164 -0.0622 -0.1098  0.1488
  898BOLB   C4D21552  26.449  19.109  22.151  0.1980 -0.0201  0.3201
  899BOLB   NC121553  23.640  15.837  20.399  0.0786 -0.0641 -0.1952
  899BOLB   PO121554  23.629  16.247  20.331 -0.1950  0.2321 -0.1108
  899BOLB   GL121555  23.883  16.232  20.660 -0.3340  0.2981 -0.0883
  899BOLB   GL221556  24.153  15.853  20.698  0.0232  0.1887  0.3033
  899BOLB   C1A21557  24.201  16.259  21.092  0.0201 -0.0348  0.0447
  899BOLB   C2A21558  24.570  16.144  21.285  0.2593  0.0821  0.0084
  899BOLB   C3A21559  24.754  15.968  21.586 -0.4125 -0.1691 -0.0176
  899BOLB   C4A21560  25.144  15.753  21.593 -0.1897 -0.2634 -0.1585
  899BOLB   C1B21561  24.394  15.761  21.097 -0.1817  0.1440 -0.2417
  899BOLB   C2B21562  24.838  15.760  21.133 -0.0830 -0.0023  0.1380
  899BOLB   C3B21563  25.239  15.814  21.001  0.0387  0.0896  0.1112
  899BOLB   C4B21564  25.526  16.093  20.882 -0.0494 -0.0171  0.0113
  899BOLB   NC221565  27.280  16.690  22.438  0.0561 -0.2620  0.0641
  899BOLB   PO221566  27.232  16.754  21.993  0.2993 -0.0553  0.0241
  899BOLB   GL321567  26.887  16.521  21.745 -0.1213 -0.0527  0.0334
  899BOLB   GL421568  27.013  16.160  21.853  0.0387  0.0042 -0.1516
  899BOLB   C1C21569  26.633  16.327  21.527  0.3171 -0.2508  0.0350
  899BOLB   C2C21570  26.315  16.091  21.401 -0.2991  0.1957  0.0399
  899BOLB   C3C21571  25.887  15.992  21.350  0.2323  0.0907 -0.2129
  899BOLB   C4C21572  25.527  15.847  21.369 -0.2326 -0.1226 -0.2032
  899BOLB   C1D21573  26.523  16.011  21.915  0.0785  0.0534 -0.3557
  899BOLB   C2D21574  26.220  15.846  21.886 -0.0639 -0.3776 -0.0560
  899BOLB   C3D21575  25.789  15.758  21.822  0.2624 -0.3709  0.1452
  899BOLB   C4D21576  25.477  15.849  22.041  0.0505 -0.2306  0.3074
  900BOLB   NC121577  24.171  15.531  19.076  0.0529 -0.0845  0.0630
  900BOLB   PO121578  24.377  15.224  19.410  0.0408  0.0600  0.1677
  900BOLB   GL121579  24.667  15.336  19.736 -0.4390 -0.0372 -0.0046
  900BOLB   GL221580  24.852  15.151  19.506 -0.1082  0.3833 -0.0178
  900BOLB   C1A21581  24.849  15.301  20.114 -0.0780 -0.0069 -0.0830
  900BOLB   C2A21582  25.125  15.470  20.477 -0.1891 -0.2060 -0.0585
  900BOLB   C3A21583  25.440  15.429  20.723 -0.0347 -0.2917  0.1083
  900BOLB   C4A21584  25.828  15.656  20.874 -0.0084 -0.2107 -0.1000
  900BOLB   C1B21585  25.170  15.187  19.722 -0.0708 -0.1296 -0.2199
  900BOLB   C2B21586  25.639  15.084  19.822  0.0967 -0.0304 -0.0595
  900BOLB   C3B21587  25.990  15.049  20.117  0.1631  0.2295  0.1891
  900BOLB   C4B21588  25.990  14.645  20.391  0.3278  0.1277  0.0954
  900BOLB   NC221589  27.449  16.344  21.697  0.1671  0.0491 -0.1122
  900BOLB   PO221590  27.616  16.759  21.588  0.1050  0.0192  0.1520
  900BOLB   GL321591  27.203  16.894  21.495  0.1247 -0.0521  0.0457
  900BOLB   GL421592  26.963  17.072  21.571 -0.2517 -0.0838 -0.0157
  900BOLB   C1C21593  26.935  16.670  21.230 -0.1689  0.1524 -0.3434
  900BOLB   C2C21594  26.884  16.307  21.017  0.1155  0.0542  0.3201
  900BOLB   C3C21595  26.692  15.918  21.050  0.2069  0.0804  0.1806
  900BOLB   C4C21596  26.257  15.707  21.013  0.1955  0.1749 -0.0584
  900BOLB   C1D21597  26.523  16.901  21.464 -0.0338 -0.0594  0.0125
  900BOLB   C2D21598  26.185  17.014  21.173  0.2552 -0.2223  0.0392
  900BOLB   C3D21599  25.839  17.017  20.934 -0.1628 -0.0708  0.4574
  900BOLB   C4D21600  25.816  16.566  20.689  0.0534 -0.1815 -0.4631
  901BOLB   NC121601  23.547  15.110  20.679  0.1958 -0.1235 -0.0037
  901BOLB   PO121602  23.755  15.541  20.829  0.4005  0.1970  0.1266
  901BOLB   GL121603  23.950  15.570  21.203  0.0714  0.1951 -0.1661
  901BOLB   GL221604  23.910  15.971  21.270  0.1633  0.2186 -0.2419
  901BOLB   C1A21605  23.882  15.558  21.727  0.2264  0.1375 -0.0465
  901BOLB   C2A21606  23.841  15.521  22.133  0.0460 -0.2050 -0.4906
  901BOLB   C3A21607  24.171  15.379  22.285 -0.0945  0.1987 -0.3940
  901BOLB   C4A21608  24.488  15.317  22.700  0.1089  0.1432  0.1338
  901BOLB   C1B21609  24.251  15.817  21.546  0.3515  0.2703  0.0623
  901BOLB   C2B21610  24.409  15.808  21.965 -0.1226  0.1818 -0.1572
  901BOLB   C3B21611  24.343  16.015  22.408  0.1154 -0.0549 -0.0078
  901BOLB   C4B21612  24.583  16.306  22.649  0.0032 -0.2129 -0.1594
  901BOLB   NC221613  26.034  15.363  23.973  0.0319 -0.2416  0.5633
  901BOLB   PO221614  26.234  15.769  23.941 -0.3530 -0.1300 -0.2223
  901BOLB   GL321615  26.065  15.787  23.573  0.1865 -0.3749  0.1670
  901BOLB   GL421616  26.240  15.627  23.410  0.0214  0.3566 -0.0739
  901BOLB   C1C21617  25.538  15.749  23.427 -0.0063 -0.3019  0.2226
  901BOLB   C2C21618  25.111  15.761  23.313  0.0870 -0.2018 -0.2175
  901BOLB   C3C21619  24.984  15.802  23.003 -0.0767  0.1032  0.2856
  901BOLB   C4C21620  24.603  15.709  22.835  0.1905  0.0125  0.2089
  901BOLB   C1D21621  26.079  15.865  22.986 -0.0186  0.2721 -0.0211
  901BOLB   C2D21622  26.013  16.102  22.614 -0.0012  0.0807  0.2485
  901BOLB   C3D21623  25.872  16.101  22.197  0.0476 -0.0594  0.0879
  901BOLB   C4D21624  25.719  16.229  21.794 -0.0917 -0.0088  0.1658
  902BOLB   NC121625  24.406   9.942  18.506 -0.0500 -0.3431  0.0128
  902BOLB   PO121626  24.078  10.191  18.345 -0.1404 -0.2339 -0.0538
  902BOLB   GL121627  24.010  10.050  18.786  0.0494  0.6111 -0.1837
  902BOLB   GL221628  23.729   9.947  18.935 -0.0531 -0.0040 -0.0765
  902BOLB   C1A21629  24.091  10.309  19.192 -0.1056  0.0163  0.2239
  902BOLB   C2A21630  24.356  10.045  19.539 -0.0019 -0.1991  0.0399
  902BOLB   C3A21631  24.496   9.708  19.757  0.1171  0.0178 -0.1825
  902BOLB   C4A21632  24.530   9.369  19.938 -0.1171  0.0805 -0.2938
  902BOLB   C1B21633  23.906   9.883  19.390  0.0190  0.1186  0.1433
  902BOLB   C2B21634  23.977   9.850  19.803 -0.1445 -0.0083 -0.1033
  902BOLB   C3B21635  24.147   9.603  20.070 -0.0284 -0.1276  0.0182
  902BOLB   C4B21636  24.168   9.533  20.466  0.1402  0.1640  0.1602
  902BOLB   NC221637  26.035   7.766  20.599  0.2292  0.1491  0.1629
  902BOLB   PO221638  25.599   7.853  20.515 -0.6948  0.1214 -0.2135
  902BOLB   GL321639  25.351   8.149  20.637  0.0484  0.1913 -0.3071
  902BOLB   GL421640  24.997   8.061  20.586 -0.0889 -0.0128  0.0462
  902BOLB   C1C21641  25.183   8.568  20.717 -0.1023  0.2804 -0.1394
  902BOLB   C2C21642  25.392   8.905  20.474  0.0693 -0.2978 -0.0854
  902BOLB   C3C21643  25.204   8.905  20.109  0.2385  0.2225 -0.0856
  902BOLB   C4C21644  24.836   9.018  19.948  0.0503  0.2603  0.1432
  902BOLB   C1D21645  24.606   8.246  20.596 -0.1155  0.0409 -0.0565
  902BOLB   C2D21646  24.343   8.532  20.715  0.1068  0.2179  0.0411
  902BOLB   C3D21647  23.985   8.626  20.445  0.0854  0.1734 -0.2076
  902BOLB   C4D21648  23.774   8.674  20.013  0.0248 -0.2330  0.2966
  903BOLB   NC121649  22.685  18.005  21.991  0.1597  0.1016 -0.4631
  903BOLB   PO121650  22.743  18.234  21.680  0.0097 -0.1982  0.0380
  903BOLB   GL121651  23.154  18.126  21.740 -0.0605  0.0354 -0.0652
  903BOLB   GL221652  23.182  17.767  21.757 -0.2529  0.0662  0.1422
  903BOLB   C1A21653  23.616  18.080  21.738  0.1602 -0.2614 -0.0103
  903BOLB   C2A21654  23.804  18.096  22.077  0.0468 -0.0913  0.0454
  903BOLB   C3A21655  23.909  18.176  22.428  0.2602  0.2094  0.0185
  903BOLB   C4A21656  24.347  18.142  22.709 -0.1541  0.1592 -0.1036
  903BOLB   C1B21657  23.330  17.977  22.204 -0.3299  0.0205 -0.0690
  903BOLB   C2B21658  23.521  17.922  22.658  0.1423  0.0240 -0.2689
  903BOLB   C3B21659  23.919  18.032  22.999 -0.0595 -0.0738  0.2164
  903BOLB   C4B21660  24.184  17.982  23.382  0.0232 -0.0343 -0.4961
  903BOLB   NC221661  25.128  18.081  25.456 -0.0851 -0.1013 -0.0115
  903BOLB   PO221662  25.222  17.883  24.965  0.0363 -0.4039  0.0445
  903BOLB   GL321663  25.145  17.875  24.511  0.1476 -0.1230 -0.2684
  903BOLB   GL421664  25.331  18.065  24.330 -0.2075 -0.0704  0.1960
  903BOLB   C1C21665  24.885  18.082  24.220  0.0991 -0.0420  0.1057
  903BOLB   C2C21666  24.582  17.946  23.819 -0.2404  0.1091 -0.2156
  903BOLB   C3C21667  24.641  17.755  23.382  0.1101 -0.0377 -0.1228
  903BOLB   C4C21668  24.467  17.864  23.020  0.0862  0.0925 -0.2765
  903BOLB   C1D21669  25.132  17.674  24.052 -0.0255 -0.0202 -0.0649
  903BOLB   C2D21670  25.213  17.348  23.743  0.3779 -0.0770  0.0619
  903BOLB   C3D21671  25.084  16.984  23.478 -0.1134  0.2341 -0.0133
  903BOLB   C4D21672  25.002  16.602  23.445 -0.4246 -0.0319  0.0696
  904BOLB   NC121673  22.269  22.270  18.610  0.1449 -0.1852  0.2142
  904BOLB   PO121674  22.628  22.344  18.864 -0.3442 -0.0076  0.0100
  904BOLB   GL121675  23.080  22.390  19.063  0.0833  0.0160  0.2585
  904BOLB   GL221676  23.095  22.472  18.714  0.1692 -0.3082 -0.3251
  904BOLB   C1A21677  23.422  22.440  19.356  0.1256  0.2293 -0.0652
  904BOLB   C2A21678  23.690  22.523  19.190  0.0056 -0.3474  0.1287
  904BOLB   C3A21679  24.105  22.604  19.102 -0.0336 -0.1864  0.0232
  904BOLB   C4A21680  24.413  22.466  18.861  0.0079 -0.1243  0.1738
  904BOLB   C1B21681  23.575  22.627  18.536 -0.1202  0.1148  0.0692
  904BOLB   C2B21682  24.060  22.612  18.477  0.0940  0.1029  0.0213
  904BOLB   C3B21683  24.304  22.381  18.251 -0.0678 -0.2821 -0.4444
  904BOLB   C4B21684  24.753  22.332  18.419 -0.1989  0.1470 -0.0815
  904BOLB   NC221685  25.799  24.765  18.677 -0.3339  0.0761 -0.0719
  904BOLB   PO221686  25.706  24.364  18.749  0.0096  0.0706 -0.3326
  904BOLB   GL321687  25.675  23.850  18.850 -0.0559 -0.2007 -0.1045
  904BOLB   GL421688  25.879  23.695  18.588  0.0047 -0.3667  0.0671
  904BOLB   C1C21689  25.402  23.452  18.879 -0.0939 -0.0687  0.0745
  904BOLB   C2C21690  25.147  23.165  18.646 -0.2369 -0.2274  0.1296
  904BOLB   C3C21691  24.933  22.885  18.740  0.0225 -0.0478  0.1040
  904BOLB   C4C21692  24.781  22.511  18.880 -0.1029 -0.4237  0.1038
  904BOLB   C1D21693  25.696  23.652  18.131 -0.0896  0.0752 -0.0911
  904BOLB   C2D21694  25.399  23.545  17.800  0.4195 -0.2510 -0.0532
  904BOLB   C3D21695  25.216  23.740  17.517  0.3083  0.0670 -0.0333
  904BOLB   C4D21696  24.802  23.621  17.296  0.3283 -0.3253 -0.1571
  905BOLB   NC121697  24.468  17.813  17.908  0.2484 -0.1830  0.0557
  905BOLB   PO121698  24.532  18.088  17.653 -0.0679  0.0154  0.0335
  905BOLB   GL121699  24.956  18.061  17.860  0.1921  0.0206  0.0180
  905BOLB   GL221700  24.926  17.907  18.081  0.2075  0.0503 -0.1514
  905BOLB   C1A21701  25.357  18.137  17.840  0.2040  0.0073  0.0854
  905BOLB   C2A21702  25.830  18.051  17.964  0.1725  0.2529  0.0323
  905BOLB   C3A21703  26.305  18.213  17.997 -0.0268 -0.0532  0.2346
  905BOLB   C4A21704  26.727  18.295  17.960 -0.1210  0.6207 -0.1141
  905BOLB   C1B21705  25.233  17.700  18.103 -0.3411 -0.0159 -0.1811
  905BOLB   C2B21706  25.722  17.734  18.303 -0.0682 -0.1338 -0.1210
  905BOLB   C3B21707  26.135  17.850  18.536  0.0606  0.1394  0.3765
  905BOLB   C4B21708  26.432  17.453  18.612 -0.2370  0.0097 -0.1698
  905BOLB   NC221709  28.462  19.239  18.204 -0.1058  0.2107  0.2485
  905BOLB   PO221710  28.330  19.591  17.933 -0.1454 -0.1414 -0.1760
  905BOLB   GL321711  27.896  19.511  17.893  0.1215  0.0406  0.0940
  905BOLB   GL421712  27.928  19.413  18.189  0.0921  0.0275 -0.1598
  905BOLB   C1C21713  27.598  19.288  17.877  0.1288  0.1029  0.1858
  905BOLB   C2C21714  27.291  18.997  17.920  0.2281  0.1825  0.1088
  905BOLB   C3C21715  27.130  18.740  17.648  0.0586 -0.2547  0.1579
  905BOLB   C4C21716  26.977  18.451  17.646  0.0808 -0.0983 -0.1403
  905BOLB   C1D21717  27.670  19.282  18.448 -0.0101  0.0833  0.0255
  905BOLB   C2D21718  27.387  19.042  18.442 -0.2309  0.1956 -0.4739
  905BOLB   C3D21719  27.105  18.589  18.398  0.5053  0.1146  0.0829
  905BOLB   C4D21720  26.999  18.139  18.417  0.2588  0.3406  0.0153
  906BOLB   NC121721  24.245  17.562  20.372  0.0089 -0.1159  0.0101
  906BOLB   PO121722  24.349  17.395  19.992 -0.2748 -0.1294 -0.0690
  906BOLB   GL121723  24.812  17.463  19.938 -0.0728 -0.0796  0.0020
  906BOLB   GL221724  24.838  17.193  20.162  0.0652  0.0140  0.0366
  906BOLB   C1A21725  25.198  17.518  20.029 -0.1218 -0.1877  0.4004
  906BOLB   C2A21726  25.457  17.754  20.315  0.1297  0.2208  0.3086
  906BOLB   C3A21727  25.675  17.883  20.613 -0.2394 -0.2233  0.2834
  906BOLB   C4A21728  25.981  17.990  20.995  0.3705  0.1280  0.0548
  906BOLB   C1B21729  25.134  16.886  20.289 -0.0527 -0.3249  0.3183
  906BOLB   C2B21730  25.503  16.783  20.182  0.3230 -0.1359 -0.0099
  906BOLB   C3B21731  25.516  16.656  19.708 -0.1595 -0.5106 -0.1324
  906BOLB   C4B21732  25.594  16.553  19.246  0.2897  0.0855 -0.2943
  906BOLB   NC221733  27.869  18.431  21.676 -0.2520 -0.0521 -0.5056
  906BOLB   PO221734  27.500  18.083  21.867 -0.0416 -0.0451  0.0027
  906BOLB   GL321735  27.104  17.902  22.047 -0.3328  0.1287 -0.0868
  906BOLB   GL421736  27.129  17.657  21.831 -0.2550  0.2916  0.0122
  906BOLB   C1C21737  26.713  17.984  22.204  0.1011  0.0275  0.1089
  906BOLB   C2C21738  26.451  18.178  21.987 -0.1851 -0.1031 -0.2425
  906BOLB   C3C21739  26.318  18.395  21.614  0.2469  0.1859  0.2683
  906BOLB   C4C21740  26.174  18.253  21.210  0.5767  0.2417  0.0770
  906BOLB   C1D21741  26.753  17.663  21.604  0.3433 -0.1023 -0.0847
  906BOLB   C2D21742  26.378  17.881  21.563 -0.1058  0.0629  0.0180
  906BOLB   C3D21743  26.041  17.969  21.802 -0.2277 -0.1350  0.0618
  906BOLB   C4D21744  25.941  17.543  21.914 -0.0824  0.0818 -0.1820
  907BOLB   NC121745  24.611  12.129  19.367  0.1563 -0.0548 -0.4692
  907BOLB   PO121746  24.284  12.356  19.711  0.0323 -0.0906  0.2791
  907BOLB   GL121747  24.685  12.353  19.913 -0.0538 -0.0362 -0.0573
  907BOLB   GL221748  24.905  12.039  19.785 -0.0594  0.3405 -0.1986
  907BOLB   C1A21749  24.782  12.535  20.218  0.0293 -0.2101  0.0455
  907BOLB   C2A21750  24.883  12.655  20.608  0.0060 -0.0460  0.0160
  907BOLB   C3A21751  24.994  12.814  21.027 -0.0406  0.0095 -0.1097
  907BOLB   C4A21752  25.026  12.547  21.423 -0.1465  0.0356  0.1676
  907BOLB   C1B21753  24.887  12.045  20.314  0.2785  0.1354  0.0550
  907BOLB   C2B21754  25.032  12.091  20.650 -0.4023 -0.0786 -0.1195
  907BOLB   C3B21755  25.189  12.309  21.007 -0.3226  0.2301 -0.3004
  907BOLB   C4B21756  25.560  12.294  21.379 -0.3045 -0.0038  0.1231
  907BOLB   NC221757  26.553  11.329  22.582  0.0631 -0.1998 -0.3404
  907BOLB   PO221758  26.830  11.629  22.584  0.0430 -0.5080  0.1276
  907BOLB   GL321759  26.297  11.782  22.484  0.0972 -0.2479 -0.0262
  907BOLB   GL421760  26.423  11.666  22.125 -0.3618 -0.0830 -0.3178
  907BOLB   C1C21761  26.031  12.005  22.144  0.2935 -0.2158  0.0545
  907BOLB   C2C21762  25.710  12.038  21.839 -0.1441  0.0928  0.1154
  907BOLB   C3C21763  25.277  12.160  21.786  0.0926  0.0334  0.0251
  907BOLB   C4C21764  24.986  12.442  21.778 -0.4432 -0.1451 -0.1163
  907BOLB   C1D21765  26.608  12.060  22.054  0.4548 -0.4097 -0.1313
  907BOLB   C2D21766  26.771  12.503  22.041 -0.0812 -0.0268  0.4421
  907BOLB   C3D21767  26.487  12.852  21.950 -0.2353 -0.1426 -0.1662
  907BOLB   C4D21768  26.294  12.988  21.755  0.1365  0.1106 -0.0302
  908BOLB   NC121769  23.750  17.320  20.514  0.1459  0.0313  0.3139
  908BOLB   PO121770  23.633  17.286  20.916  0.2232  0.1193 -0.1984
  908BOLB   GL121771  23.978  17.330  21.101 -0.3965 -0.0764 -0.1200
  908BOLB   GL221772  24.206  17.205  20.931  0.0652 -0.3746  0.3519
  908BOLB   C1A21773  24.048  17.393  21.527 -0.1445 -0.1795  0.0304
  908BOLB   C2A21774  24.348  17.281  21.833 -0.0294 -0.1948 -0.2441
  908BOLB   C3A21775  24.706  17.080  22.055  0.2649  0.0829  0.3455
  908BOLB   C4A21776  25.074  17.199  22.339 -0.0238 -0.1758  0.1308
  908BOLB   C1B21777  24.480  17.193  21.301 -0.1945  0.0945 -0.0253
  908BOLB   C2B21778  24.892  17.083  21.513 -0.0922  0.2975  0.0025
  908BOLB   C3B21779  25.301  17.219  21.476  0.1629 -0.0782  0.2153
  908BOLB   C4B21780  25.665  17.537  21.524  0.0810 -0.1209  0.1858
  908BOLB   NC221781  27.260  17.742  23.267 -0.1328  0.1070 -0.0287
  908BOLB   PO221782  27.078  17.559  23.568 -0.2653  0.1293 -0.3191
  908BOLB   GL321783  26.820  17.626  23.121  0.0509 -0.0758  0.1657
  908BOLB   GL421784  26.939  17.504  22.804 -0.1404  0.2058 -0.1282
  908BOLB   C1C21785  26.340  17.700  22.925 -0.0117 -0.1368  0.1213
  908BOLB   C2C21786  26.025  17.982  22.920 -0.3078  0.1403 -0.1962
  908BOLB   C3C21787  25.631  17.794  22.806 -0.3246 -0.2760  0.0997
  908BOLB   C4C21788  25.245  17.579  22.607 -0.0077 -0.4211  0.0276
  908BOLB   C1D21789  26.626  17.578  22.436 -0.0957 -0.1905  0.2680
  908BOLB   C2D21790  26.408  17.581  22.043  0.0464  0.1019  0.0061
  908BOLB   C3D21791  26.304  17.326  21.686 -0.0499 -0.1063 -0.1384
  908BOLB   C4D21792  26.179  17.511  21.349  0.0547  0.0789  0.0631
  909BOLB   NC121793  25.109  14.565  18.255 -0.0826 -0.4584 -0.0471
  909BOLB   PO121794  25.342  14.236  18.061  0.3532 -0.1291 -0.0820
  909BOLB   GL121795  25.642  14.448  18.133  0.0962  0.1323  0.1130
  909BOLB   GL221796  25.893  14.608  18.116  0.1403 -0.0720  0.0740
  909BOLB   C1A21797  26.047  14.370  18.486 -0.0390 -0.2045  0.4865
  909BOLB   C2A21798  26.273  14.620  18.777 -0.0509  0.0199  0.0576
  909BOLB   C3A21799  26.382  14.951  18.954  0.0814 -0.2935 -0.2440
  909BOLB   C4A21800  26.376  15.195  19.387 -0.1246 -0.1949 -0.4022
  909BOLB   C1B21801  26.243  14.901  18.300 -0.2627 -0.1295  0.2366
  909BOLB   C2B21802  26.582  15.076  18.537 -0.3666  0.0198 -0.0733
  909BOLB   C3B21803  26.856  15.351  18.563  0.1671  0.3204  0.0968
  909BOLB   C4B21804  26.903  15.723  18.805  0.2675 -0.1648 -0.0344
  909BOLB   NC221805  28.119  14.905  21.425 -0.1330  0.4525 -0.1029
  909BOLB   PO221806  27.852  15.054  21.197  0.1660 -0.1231  0.0133
  909BOLB   GL321807  27.431  14.850  21.104  0.4484  0.1030 -0.0961
  909BOLB   GL421808  27.207  14.895  21.470  0.0201 -0.0386  0.0669
  909BOLB   C1C21809  26.987  14.905  20.989 -0.2968 -0.2283 -0.0181
  909BOLB   C2C21810  26.739  15.064  20.726 -0.2925  0.3016 -0.1551
  909BOLB   C3C21811  26.415  14.970  20.381  0.2342 -0.0940 -0.0118
  909BOLB   C4C21812  26.412  14.982  19.898  0.0515 -0.2800 -0.0314
  909BOLB   C1D21813  27.142  14.491  21.157  0.0132  0.0674 -0.1785
  909BOLB   C2D21814  26.936  14.298  21.004  0.1703 -0.0169  0.0529
  909BOLB   C3D21815  26.754  13.882  20.830  0.0382 -0.0665  0.6155
  909BOLB   C4D21816  26.481  13.749  20.524  0.0857 -0.1677 -0.1512
  910BOLB   NC121817  21.636  23.814  17.709 -0.0970 -0.0225  0.1128
  910BOLB   PO121818  21.544  23.814  18.097  0.4354  0.1441  0.1318
  910BOLB   GL121819  21.327  24.250  18.184 -0.0808  0.0369 -0.0942
  910BOLB   GL221820  21.656  24.362  18.159 -0.1142 -0.0134 -0.4343
  910BOLB   C1A21821  21.252  24.696  18.460  0.0264  0.0533 -0.0107
  910BOLB   C2A21822  21.358  25.043  18.832 -0.0090 -0.2300  0.1134
  910BOLB   C3A21823  21.545  25.400  19.027  0.2175 -0.1409  0.0614
  910BOLB   C4A21824  21.721  25.722  19.296 -0.2248  0.1132 -0.2172
  910BOLB   C1B21825  22.082  24.625  18.067 -0.1431 -0.4043 -0.1268
  910BOLB   C2B21826  22.398  24.937  17.806 -0.2883 -0.1443 -0.4436
  910BOLB   C3B21827  22.670  25.212  17.741 -0.0866  0.2229  0.0545
  910BOLB   C4B21828  22.941  25.536  17.464  0.0593 -0.1340 -0.1423
  910BOLB   NC221829  23.668  27.408  20.044 -0.1080  0.3571  0.0387
  910BOLB   PO221830  23.379  27.039  19.929  0.1308  0.0826 -0.0121
  910BOLB   GL321831  23.068  26.760  19.851 -0.0401  0.0775 -0.2463
  910BOLB   GL421832  23.026  26.370  19.925 -0.0644  0.1413  0.1076
  910BOLB   C1C21833  22.659  26.721  19.895  0.0113  0.0435  0.0371
  910BOLB   C2C21834  22.377  26.494  19.707 -0.2280  0.0444 -0.1663
  910BOLB   C3C21835  22.393  26.133  19.488  0.0444  0.2720 -0.1481
  910BOLB   C4C21836  22.029  25.979  19.348 -0.1126  0.0752 -0.0917
  910BOLB   C1D21837  22.876  26.106  19.561 -0.2011  0.1066 -0.1542
  910BOLB   C2D21838  22.776  25.902  19.173 -0.0230 -0.0474  0.1693
  910BOLB   C3D21839  22.672  25.529  19.041  0.0487 -0.0377 -0.0082
  910BOLB   C4D21840  22.539  25.369  18.611 -0.1499  0.2133 -0.0505
  911BOLB   NC121841  21.299  24.064  15.980  0.0011 -0.3729  0.0175
  911BOLB   PO121842  21.109  23.890  16.374 -0.2460  0.3685  0.0175
  911BOLB   GL121843  20.973  24.293  16.518 -0.2371 -0.0233 -0.2911
  911BOLB   GL221844  21.239  24.521  16.261  0.0193 -0.4149  0.0685
  911BOLB   C1A21845  21.104  24.500  16.904 -0.0592  0.0658  0.1251
  911BOLB   C2A21846  21.575  24.442  17.012 -0.0020 -0.0596 -0.0519
  911BOLB   C3A21847  21.953  24.597  17.029  0.1047  0.3938 -0.1667
  911BOLB   C4A21848  22.248  24.937  16.875  0.2407 -0.4450 -0.0335
  911BOLB   C1B21849  21.401  25.000  16.317  0.0190 -0.1926 -0.0867
  911BOLB   C2B21850  21.523  25.477  16.446 -0.0862  0.1205  0.2328
  911BOLB   C3B21851  21.393  25.770  16.212 -0.1500 -0.0379  0.7116
  911BOLB   C4B21852  21.146  26.026  15.849  0.1356 -0.2659  0.0031
  911BOLB   NC221853  23.474  26.786  17.834  0.0379  0.0232 -0.1385
  911BOLB   PO221854  23.880  26.640  17.865 -0.0316  0.0262 -0.0349
  911BOLB   GL321855  23.709  26.233  17.754  0.0818 -0.1251  0.4379
  911BOLB   GL421856  23.371  26.407  17.500 -0.3409 -0.0347 -0.0888
  911BOLB   C1C21857  23.475  25.809  17.720  0.0650 -0.1378  0.2475
  911BOLB   C2C21858  23.399  25.659  17.284 -0.0237  0.1668 -0.0328
  911BOLB   C3C21859  23.133  25.445  16.991  0.1576 -0.1912  0.2430
  911BOLB   C4C21860  22.741  25.115  16.822 -0.2014  0.0130 -0.2189
  911BOLB   C1D21861  23.270  26.189  17.095 -0.0460 -0.3789 -0.1604
  911BOLB   C2D21862  23.235  25.876  16.728 -0.0204  0.1710  0.0887
  911BOLB   C3D21863  22.901  25.606  16.544  0.0246  0.2204 -0.0582
  911BOLB   C4D21864  22.366  25.728  16.536  0.0458 -0.0702 -0.0493
  912BOLB   NC121865   9.188  27.166  15.031  0.1297  0.0083  0.4406
  912BOLB   PO121866   8.797  26.966  14.759  0.0654  0.0086 -0.2205
  912BOLB   GL121867   8.975  26.641  14.955  0.0065 -0.0821 -0.0600
  912BOLB   GL221868   9.206  26.740  15.305 -0.1027 -0.1994  0.2064
  912BOLB   C1A21869   9.020  26.212  15.201  0.0527  0.2964  0.0406
  912BOLB   C2A21870   8.881  25.761  15.314 -0.2886  0.0066 -0.2230
  912BOLB   C3A21871   8.767  25.593  15.684  0.0415  0.2011 -0.0912
  912BOLB   C4A21872   8.999  25.797  16.015 -0.0735 -0.4327 -0.1081
  912BOLB   C1B21873   9.231  26.432  15.628  0.1242 -0.1989 -0.2533
  912BOLB   C2B21874   9.294  26.074  15.682 -0.0835 -0.1614 -0.1205
  912BOLB   C3B21875   9.355  25.694  15.588  0.0023 -0.0612  0.1126
  912BOLB   C4B21876   9.241  25.304  15.283  0.1221  0.0519 -0.1646
  912BOLB   NC221877  10.269  27.995  16.264 -0.1498  0.3793  0.1508
  912BOLB   PO221878  10.212  27.563  16.259 -0.1409  0.0696 -0.1186
  912BOLB   GL321879  10.077  27.219  16.436  0.2861  0.0374 -0.0330
  912BOLB   GL421880  10.221  26.907  16.674  0.0285 -0.1212  0.0757
  912BOLB   C1C21881   9.751  27.013  16.612 -0.2728  0.4630  0.2951
  912BOLB   C2C21882   9.636  26.630  16.656  0.0448 -0.2228  0.0195
  912BOLB   C3C21883   9.433  26.263  16.430 -0.1199 -0.2589 -0.0686
  912BOLB   C4C21884   9.313  25.910  16.149 -0.3027  0.0878 -0.2987
  912BOLB   C1D21885  10.133  26.676  16.998 -0.0357  0.1623  0.0674
  912BOLB   C2D21886  10.333  26.490  17.405 -0.3228 -0.3311  0.0551
  912BOLB   C3D21887  10.774  26.344  17.380  0.0693  0.0420  0.1072
  912BOLB   C4D21888  11.052  26.134  17.069  0.0156  0.0301  0.2262
  913BOLB   NC121889   9.171  11.788  12.396  0.1140  0.0041  0.1395
  913BOLB   PO121890   9.270  12.030  12.086  0.2625  0.1595 -0.1702
  913BOLB   GL121891   8.912  11.972  11.853 -0.0129  0.0043  0.0668
  913BOLB   GL221892   8.884  12.242  11.580  0.1622 -0.0840 -0.0053
  913BOLB   C1A21893   8.599  11.771  11.498  0.0191 -0.1459 -0.4034
  913BOLB   C2A21894   8.324  11.910  11.211 -0.1390  0.1441 -0.1408
  913BOLB   C3A21895   8.168  12.145  10.754  0.0528  0.0820  0.4665
  913BOLB   C4A21896   7.984  12.226  10.377 -0.0084 -0.0691 -0.0130
  913BOLB   C1B21897   8.783  12.086  11.128  0.0610 -0.4129 -0.3727
  913BOLB   C2B21898   8.611  11.923  10.792 -0.2102 -0.1219  0.1273
  913BOLB   C3B21899   8.454  11.954  10.361  0.0808  0.1079  0.0730
  913BOLB   C4B21900   8.354  12.174   9.989  0.0822 -0.0420 -0.1796
  913BOLB   NC221901   7.330  13.119   8.321 -0.1889 -0.1691 -0.1228
  913BOLB   PO221902   7.838  13.310   8.269 -0.0307  0.2578 -0.0427
  913BOLB   GL321903   8.130  13.053   8.495 -0.1304 -0.1800  0.1277
  913BOLB   GL421904   8.537  13.154   8.598  0.1344  0.3214  0.1826
  913BOLB   C1C21905   8.226  12.800   8.941 -0.1757  0.0076  0.1576
  913BOLB   C2C21906   8.234  12.688   9.306  0.3202  0.2165  0.2270
  913BOLB   C3C21907   8.062  12.461   9.611 -0.1658  0.1117 -0.3839
  913BOLB   C4C21908   7.909  12.375  10.000  0.1123 -0.0675  0.2149
  913BOLB   C1D21909   8.917  13.276   8.663 -0.1653 -0.2285  0.2751
  913BOLB   C2D21910   9.241  13.030   8.814  0.1418 -0.0074 -0.0031
  913BOLB   C3D21911   9.525  12.806   9.132  0.0758  0.1746 -0.3182
  913BOLB   C4D21912   9.851  12.939   9.392  0.0852  0.2168  0.1779
  914BOLB   NC121913   8.263   8.866  12.089  0.0790 -0.0857 -0.1577
  914BOLB   PO121914   8.491   8.763  11.754  0.0896 -0.0808  0.0993
  914BOLB   GL121915   8.637   8.730  11.346  0.1030 -0.0447 -0.1318
  914BOLB   GL221916   8.578   8.572  11.013 -0.1821  0.0163  0.1226
  914BOLB   C1A21917   8.906   8.883  10.895 -0.0128 -0.0348 -0.0864
  914BOLB   C2A21918   9.273   9.072  10.796 -0.0042 -0.1091 -0.0726
  914BOLB   C3A21919   9.286   9.142  10.389 -0.1654 -0.1127 -0.1140
  914BOLB   C4A21920   9.536   9.363  10.040 -0.0717 -0.2116  0.2650
  914BOLB   C1B21921   8.447   8.938  10.740 -0.4299  0.1998  0.1667
  914BOLB   C2B21922   8.417   9.381  10.658  0.0845  0.0147  0.1196
  914BOLB   C3B21923   8.378   9.779  10.792 -0.0506  0.1750  0.4029
  914BOLB   C4B21924   8.643  10.128  10.987 -0.2286  0.1438  0.4195
  914BOLB   NC221925   9.790   9.487   7.738 -0.2411  0.1025  0.2160
  914BOLB   PO221926   9.789   8.970   7.869 -0.1290  0.0840  0.2983
  914BOLB   GL321927   9.860   9.087   8.346 -0.1819 -0.0511  0.0534
  914BOLB   GL421928   9.754   9.437   8.310  0.3937 -0.1626  0.3667
  914BOLB   C1C21929  10.051   9.166   8.778 -0.2966  0.0362  0.0855
  914BOLB   C2C21930  10.029   9.272   9.209 -0.1781 -0.2036  0.0210
  914BOLB   C3C21931   9.731   9.438   9.383  0.1853  0.2265 -0.0235
  914BOLB   C4C21932   9.583   9.634   9.703 -0.3538  0.0634 -0.0348
  914BOLB   C1D21933   9.316   9.340   8.414  0.0566  0.1706 -0.0733
  914BOLB   C2D21934   8.854   9.449   8.635  0.1547 -0.0086  0.2146
  914BOLB   C3D21935   8.558   9.687   8.821 -0.1669 -0.0955 -0.1312
  914BOLB   C4D21936   8.123   9.780   8.605  0.1918  0.3629  0.0418
  915BOLB   NC121937   6.945  11.536  13.504  0.2275 -0.0424 -0.3308
  915BOLB   PO121938   7.117  12.036  13.493 -0.1331 -0.0269 -0.3961
  915BOLB   GL121939   6.919  12.313  13.225 -0.0389 -0.1698  0.0012
  915BOLB   GL221940   7.003  12.151  12.841 -0.1050 -0.0787  0.0096
  915BOLB   C1A21941   6.650  12.536  12.982 -0.0010  0.1573  0.0301
  915BOLB   C2A21942   6.358  12.781  12.717 -0.1404 -0.1121 -0.3178
  915BOLB   C3A21943   6.106  13.200  12.468  0.1321 -0.1136  0.0514
  915BOLB   C4A21944   5.814  13.413  12.281  0.1043  0.2184 -0.1856
  915BOLB   C1B21945   6.740  12.348  12.528  0.2422  0.1166  0.3428
  915BOLB   C2B21946   6.603  12.409  12.166  0.0252 -0.3731 -0.2404
  915BOLB   C3B21947   6.428  12.548  11.807  0.0762  0.2694 -0.0851
  915BOLB   C4B21948   6.504  12.768  11.462 -0.1587 -0.2361  0.1031
  915BOLB   NC221949   3.204  14.305  11.711 -0.0512  0.2062  0.0421
  915BOLB   PO221950   3.380  13.969  11.916 -0.1711 -0.1462  0.3385
  915BOLB   GL321951   3.885  14.075  11.977  0.0421 -0.2293  0.0066
  915BOLB   GL421952   3.966  14.315  12.314 -0.1791  0.0665  0.0634
  915BOLB   C1C21953   4.312  14.019  11.960  0.3564  0.0178 -0.1681
  915BOLB   C2C21954   4.632  13.860  12.170  0.0998  0.1759 -0.1083
  915BOLB   C3C21955   5.018  13.653  12.321 -0.0747 -0.1184 -0.0007
  915BOLB   C4C21956   5.413  13.401  12.164  0.2374  0.2313  0.2100
  915BOLB   C1D21957   4.229  13.978  12.483 -0.0778  0.0112 -0.0578
  915BOLB   C2D21958   4.458  13.566  12.711 -0.0806 -0.1717  0.2586
  915BOLB   C3D21959   4.607  13.229  12.961  0.3414  0.0953  0.0592
  915BOLB   C4D21960   5.129  13.034  12.983 -0.2953 -0.2043 -0.1413
  916BOLB   NC121961   6.269  11.058  12.714  0.1459 -0.1031  0.1062
  916BOLB   PO121962   6.577  11.008  12.338  0.0182 -0.0997  0.1691
  916BOLB   GL121963   6.854  11.055  11.989 -0.0305  0.3517  0.0824
  916BOLB   GL221964   7.261  10.937  11.970  0.0040  0.1516  0.0707
  916BOLB   C1A21965   7.093  11.176  11.522 -0.1091 -0.1105  0.0634
  916BOLB   C2A21966   7.404  11.470  11.244 -0.2139 -0.0225  0.1980
  916BOLB   C3A21967   7.595  11.430  10.860  0.2081  0.1707 -0.0746
  916BOLB   C4A21968   7.586  11.363  10.465  0.1685 -0.0629  0.3804
  916BOLB   C1B21969   7.638  11.034  11.625  0.0725 -0.2430 -0.3446
  916BOLB   C2B21970   7.752  10.982  11.150  0.0772  0.0928 -0.1879
  916BOLB   C3B21971   7.559  10.890  10.829  0.0845  0.1741 -0.1153
  916BOLB   C4B21972   7.289  10.969  10.486 -0.1898  0.0331 -0.1458
  916BOLB   NC221973   7.350  11.246   8.110 -0.1486  0.2076  0.0303
  916BOLB   PO221974   7.095  11.610   8.104  0.1196  0.4160 -0.2377
  916BOLB   GL321975   7.032  11.776   8.597  0.0102  0.1168  0.1584
  916BOLB   GL421976   6.708  11.687   8.676 -0.0159 -0.1517 -0.0051
  916BOLB   C1C21977   7.157  11.540   8.998  0.2181  0.1473  0.1802
  916BOLB   C2C21978   7.052  11.649   9.446  0.0883  0.2785  0.1909
  916BOLB   C3C21979   7.376  11.592   9.753  0.1471 -0.0726  0.0373
  916BOLB   C4C21980   7.632  11.419  10.050  0.1531  0.2112  0.0466
  916BOLB   C1D21981   6.810  11.919   8.984  0.1377 -0.1201  0.1127
  916BOLB   C2D21982   6.666  12.077   9.340 -0.3379 -0.0072 -0.1848
  916BOLB   C3D21983   6.641  12.592   9.459  0.1645 -0.0976  0.2118
  916BOLB   C4D21984   6.744  12.928   9.629 -0.0768 -0.0991  0.1533
  917BOLB   NC121985   8.072  13.649  12.733 -0.0895  0.0518  0.2376
  917BOLB   PO121986   7.738  13.649  13.169  0.0431 -0.4206  0.2165
  917BOLB   GL121987   7.424  13.440  12.928 -0.1911 -0.0163  0.1163
  917BOLB   GL221988   7.609  13.438  12.650 -0.1362 -0.1297 -0.1559
  917BOLB   C1A21989   7.014  13.329  12.782  0.1996  0.2994  0.0387
  917BOLB   C2A21990   6.641  13.285  12.549 -0.2421 -0.0325  0.3757
  917BOLB   C3A21991   6.589  13.441  12.118  0.2532 -0.3903  0.2929
  917BOLB   C4A21992   6.216  13.706  11.819  0.0243 -0.1550 -0.0578
  917BOLB   C1B21993   7.272  13.582  12.482  0.0218  0.3302 -0.0426
  917BOLB   C2B21994   6.891  13.770  12.349  0.3868 -0.0114  0.0182
  917BOLB   C3B21995   6.452  13.837  12.458 -0.1452 -0.4833  0.2531
  917BOLB   C4B21996   6.239  13.764  12.253  0.2432  0.0607 -0.2142
  917BOLB   NC221997   4.105  13.500  11.045 -0.0405  0.0545 -0.1369
  917BOLB   PO221998   3.963  13.840  11.136  0.0045 -0.1848 -0.1593
  917BOLB   GL321999   4.372  13.933  11.199  0.3929  0.4130 -0.2166
  917BOLB   GL422000   4.576  13.720  11.059  0.0025 -0.1557 -0.0447
  917BOLB   C1C22001   4.653  13.811  11.588 -0.1680 -0.3209  0.1660
  917BOLB   C2C22002   5.059  13.937  11.731  0.1806 -0.3615 -0.1811
  917BOLB   C3C22003   5.376  13.833  11.817 -0.0146  0.3132  0.1359
  917BOLB   C4C22004   5.794  13.831  11.740  0.1199 -0.1900 -0.0434
  917BOLB   C1D22005   4.972  13.561  10.958  0.1524  0.0834 -0.1217
  917BOLB   C2D22006   5.409  13.626  10.766 -0.4551  0.0231 -0.0346
  917BOLB   C3D22007   5.823  13.848  10.689 -0.2551  0.2288 -0.2685
  917BOLB   C4D22008   5.982  14.290  10.792 -0.2731  0.1648 -0.1585
  918BOLB   NC122009   8.175  16.886  12.675  0.0065  0.1462 -0.0558
  918BOLB   PO122010   7.972  16.486  12.916 -0.0965 -0.3205  0.2199
  918BOLB   GL122011   7.979  16.148  12.558  0.1012 -0.1339  0.1114
  918BOLB   GL222012   8.302  16.034  12.338  0.0098  0.1821 -0.0529
  918BOLB   C1A22013   7.642  16.082  12.139  0.2274  0.1142 -0.1401
  918BOLB   C2A22014   7.282  16.237  11.871  0.2487 -0.1418  0.0706
  918BOLB   C3A22015   7.121  16.168  11.502  0.1367 -0.2569  0.0021
  918BOLB   C4A22016   7.182  15.968  11.127 -0.1468 -0.1759  0.1976
  918BOLB   C1B22017   7.996  15.770  12.008 -0.2080 -0.3161 -0.0087
  918BOLB   C2B22018   7.805  15.649  11.559 -0.2330  0.1074  0.0237
  918BOLB   C3B22019   7.590  15.547  11.166 -0.3492  0.1621 -0.0597
  918BOLB   C4B22020   7.223  15.493  11.175  0.2041 -0.3082 -0.0321
  918BOLB   NC222021   6.014  15.524   8.718 -0.1178  0.0049  0.1615
  918BOLB   PO222022   6.166  15.440   9.087  0.2096 -0.1544  0.0891
  918BOLB   GL322023   6.372  15.465   9.431  0.1486  0.0636 -0.0173
  918BOLB   GL422024   6.098  15.437   9.598 -0.2897  0.3294  0.1955
  918BOLB   C1C22025   6.654  15.335   9.781 -0.1322 -0.1508 -0.0032
  918BOLB   C2C22026   6.832  15.454  10.200  0.2667 -0.0919 -0.1963
  918BOLB   C3C22027   7.026  15.704  10.434  0.0501  0.0095  0.0026
  918BOLB   C4C22028   7.009  15.785  10.847 -0.0611 -0.0265 -0.0115
  918BOLB   C1D22029   6.243  15.683   9.860  0.1056  0.0698  0.4376
  918BOLB   C2D22030   6.472  15.803  10.234 -0.0810 -0.0869  0.3007
  918BOLB   C3D22031   6.637  16.061  10.430  0.1017 -0.0683 -0.3184
  918BOLB   C4D22032   6.778  16.369  10.775  0.3271  0.1449  0.0835
  919BOLB   NC122033   4.433  20.060  14.444 -0.3500  0.0893  0.1036
  919BOLB   PO122034   4.603  20.158  13.968 -0.0653  0.0570 -0.3358
  919BOLB   GL122035   4.680  19.623  14.000 -0.0735  0.0468 -0.0354
  919BOLB   GL222036   4.969  19.567  14.296  0.3377 -0.0688 -0.0452
  919BOLB   C1A22037   4.827  19.143  14.032  0.1289  0.0667 -0.0681
  919BOLB   C2A22038   4.750  18.718  14.178 -0.0665 -0.0047 -0.1482
  919BOLB   C3A22039   4.774  18.380  14.010 -0.0779  0.1029  0.1538
  919BOLB   C4A22040   4.748  17.875  13.966 -0.1383  0.0540 -0.2860
  919BOLB   C1B22041   4.801  19.170  14.522  0.2445 -0.0297  0.0100
  919BOLB   C2B22042   4.896  18.848  14.856  0.3359  0.3012  0.0268
  919BOLB   C3B22043   5.088  18.588  15.202 -0.0371 -0.0011  0.0366
  919BOLB   C4B22044   5.493  18.335  15.185  0.3461  0.0271  0.1394
  919BOLB   NC222045   2.918  18.038  12.684 -0.1258  0.0516  0.5374
  919BOLB   PO222046   3.220  18.112  13.154  0.3187 -0.1362 -0.1318
  919BOLB   GL322047   3.621  17.844  13.259 -0.1961 -0.0887 -0.0980
  919BOLB   GL422048   3.586  17.421  13.207 -0.1703 -0.1385  0.1197
  919BOLB   C1C22049   3.873  17.678  12.970 -0.2675  0.1215  0.0141
  919BOLB   C2C22050   4.358  17.579  12.903  0.0210  0.2285 -0.1674
  919BOLB   C3C22051   4.676  17.467  13.229  0.2155 -0.0190 -0.0022
  919BOLB   C4C22052   4.809  17.694  13.546  0.3060 -0.1412 -0.4218
  919BOLB   C1D22053   3.769  17.386  13.626 -0.1031 -0.1638 -0.0264
  919BOLB   C2D22054   3.807  17.320  14.112 -0.2821 -0.1945  0.1472
  919BOLB   C3D22055   4.070  17.285  14.412  0.0653  0.0839 -0.0217
  919BOLB   C4D22056   4.152  17.564  14.713  0.3288 -0.1469  0.0010
  920BOLB   NC122057   8.009  22.881  12.671 -0.1360 -0.3781  0.3008
  920BOLB   PO122058   8.420  22.796  12.517  0.1442  0.0680 -0.0160
  920BOLB   GL122059   8.596  22.805  12.081  0.1894 -0.0529 -0.0511
  920BOLB   GL222060   8.920  22.721  12.133  0.0875 -0.2934  0.0076
  920BOLB   C1A22061   8.620  22.644  11.705 -0.2011 -0.0784 -0.0489
  920BOLB   C2A22062   8.532  22.546  11.257  0.1652 -0.0236  0.3128
  920BOLB   C3A22063   8.489  22.337  10.795 -0.1162 -0.1997  0.0228
  920BOLB   C4A22064   8.508  22.479  10.425 -0.2660 -0.2008  0.0971
  920BOLB   C1B22065   9.188  22.648  11.672  0.1887  0.1432 -0.1727
  920BOLB   C2B22066   9.322  22.441  11.323  0.1920 -0.0545 -0.0920
  920BOLB   C3B22067   9.100  22.462  10.926  0.1955  0.0299 -0.1229
  920BOLB   C4B22068   8.942  22.271  10.601 -0.0070 -0.0491  0.2291
  920BOLB   NC222069   8.236  22.288   8.107 -0.1806 -0.1735  0.0801
  920BOLB   PO222070   8.731  22.552   8.130  0.1109  0.1793  0.0260
  920BOLB   GL322071   8.707  22.233   8.543 -0.1115  0.2359  0.2720
  920BOLB   GL422072   8.433  22.066   8.634  0.0184 -0.1146 -0.0533
  920BOLB   C1C22073   8.728  22.461   8.920  0.2395  0.2084  0.3029
  920BOLB   C2C22074   8.798  22.625   9.254 -0.0781 -0.0281  0.1304
  920BOLB   C3C22075   8.746  22.653   9.705 -0.0203 -0.3164 -0.0360
  920BOLB   C4C22076   8.636  22.656  10.147 -0.0059  0.0645 -0.0059
  920BOLB   C1D22077   8.476  21.978   8.996  0.2375 -0.0753  0.1131
  920BOLB   C2D22078   8.276  21.696   9.148  0.2302 -0.0874 -0.0878
  920BOLB   C3D22079   7.812  21.576   9.203 -0.2321 -0.2245  0.3760
  920BOLB   C4D22080   7.618  21.811   9.551 -0.1886 -0.2051 -0.1184
  921BOLB   NC122081   9.393  17.158  12.061  0.1502 -0.1043 -0.1240
  921BOLB   PO122082   9.036  17.026  12.258 -0.1932  0.1570 -0.2584
  921BOLB   GL122083   8.784  16.890  12.010 -0.1120 -0.1252  0.3823
  921BOLB   GL222084   8.460  16.953  11.989 -0.0868 -0.3224 -0.0056
  921BOLB   C1A22085   8.602  16.677  11.554 -0.4781  0.2574 -0.4017
  921BOLB   C2A22086   8.587  16.422  11.345 -0.1056  0.2488  0.0773
  921BOLB   C3A22087   8.664  16.349  10.911 -0.0701  0.0377 -0.2149
  921BOLB   C4A22088   8.571  16.070  10.494  0.1137 -0.0993  0.2403
  921BOLB   C1B22089   8.203  16.849  11.768  0.0833 -0.0169  0.0455
  921BOLB   C2B22090   8.125  16.558  11.468 -0.1558  0.2372 -0.1286
  921BOLB   C3B22091   8.047  16.232  11.139  0.3403 -0.1339 -0.1915
  921BOLB   C4B22092   8.167  16.161  10.787  0.2596  0.1062 -0.1111
  921BOLB   NC222093   7.525  16.558   8.327  0.0786  0.1614  0.1756
  921BOLB   PO222094   7.786  16.968   8.378  0.1927  0.3992  0.1892
  921BOLB   GL322095   7.780  16.728   8.733 -0.2233  0.2418 -0.0779
  921BOLB   GL422096   7.706  16.979   8.873 -0.0020  0.1027 -0.0709
  921BOLB   C1C22097   7.974  16.629   9.141 -0.3328 -0.2861  0.0109
  921BOLB   C2C22098   7.859  16.226   9.488  0.0778  0.1224 -0.1105
  921BOLB   C3C22099   8.045  15.937   9.787 -0.1153  0.3874 -0.0185
  921BOLB   C4C22100   8.272  16.041  10.229  0.1961 -0.2801  0.3128
  921BOLB   C1D22101   8.003  17.074   9.342  0.0477 -0.2773  0.3380
  921BOLB   C2D22102   8.390  16.996   9.592 -0.1765  0.2001 -0.0931
  921BOLB   C3D22103   8.418  17.031  10.137  0.0092 -0.0378  0.2568
  921BOLB   C4D22104   8.334  17.226  10.509  0.0126  0.0154  0.3190
  922BOLB   NC122105   5.404  20.069  13.122 -0.0391 -0.0475  0.1888
  922BOLB   PO122106   5.728  19.835  12.996  0.0932 -0.1038 -0.1703
  922BOLB   GL122107   5.645  19.491  12.835 -0.1070 -0.2714  0.1389
  922BOLB   GL222108   5.915  19.569  12.585  0.1046 -0.1197  0.2951
  922BOLB   C1A22109   5.462  19.316  12.511  0.0949  0.1000  0.6652
  922BOLB   C2A22110   5.570  18.934  12.273 -0.1608 -0.0196 -0.1072
  922BOLB   C3A22111   5.563  18.685  11.928 -0.0697  0.2020  0.1206
  922BOLB   C4A22112   5.590  18.700  11.354  0.0508 -0.1839  0.0241
  922BOLB   C1B22113   6.081  19.211  12.533  0.1016 -0.3890  0.2284
  922BOLB   C2B22114   6.216  18.884  12.162  0.0190 -0.0260 -0.2262
  922BOLB   C3B22115   6.274  18.589  11.935 -0.0886 -0.0869  0.3582
  922BOLB   C4B22116   6.539  18.204  11.957 -0.0670 -0.0445 -0.0121
  922BOLB   NC222117   4.357  17.732  10.046  0.1208  0.2554  0.2654
  922BOLB   PO222118   4.348  17.233  10.172  0.0547  0.2125  0.1019
  922BOLB   GL322119   4.504  17.543  10.509  0.0563  0.1907  0.1531
  922BOLB   GL422120   4.242  17.787  10.524 -0.2906 -0.0344  0.2233
  922BOLB   C1C22121   4.917  17.530  10.613  0.1161 -0.1409  0.0572
  922BOLB   C2C22122   5.128  17.951  10.785 -0.2925 -0.3487 -0.4615
  922BOLB   C3C22123   5.446  18.232  10.857 -0.0693  0.0194 -0.0641
  922BOLB   C4C22124   5.464  18.497  11.083  0.0898 -0.1958 -0.0948
  922BOLB   C1D22125   4.450  17.854  10.889 -0.1219  0.1520 -0.1471
  922BOLB   C2D22126   4.700  18.067  11.208  0.0799 -0.0981  0.0438
  922BOLB   C3D22127   5.139  18.194  11.307 -0.0018 -0.0320 -0.0711
  922BOLB   C4D22128   5.325  18.169  11.685 -0.0940  0.2567 -0.1368
  923BOLB   NC122129   4.863  20.803  12.910 -0.1524 -0.0726 -0.1023
  923BOLB   PO122130   4.929  20.359  12.895  0.3072 -0.0622 -0.2025
  923BOLB   GL122131   5.086  19.957  12.747  0.0746  0.0575 -0.0047
  923BOLB   GL222132   5.363  19.865  12.547 -0.0616 -0.0252 -0.2923
  923BOLB   C1A22133   5.094  19.448  12.896  0.3557 -0.2527  0.0796
  923BOLB   C2A22134   5.019  19.139  12.550  0.2373  0.0745  0.1569
  923BOLB   C3A22135   5.079  18.838  12.126  0.2993 -0.0921  0.2888
  923BOLB   C4A22136   5.040  18.509  11.920 -0.0145  0.1305  0.0463
  923BOLB   C1B22137   5.214  19.536  12.165  0.0318 -0.1445 -0.2130
  923BOLB   C2B22138   5.346  19.252  11.986  0.0552 -0.5654  0.2005
  923BOLB   C3B22139   5.180  18.960  11.675 -0.1559 -0.0276 -0.4344
  923BOLB   C4B22140   5.140  18.675  11.385 -0.0550 -0.1704 -0.2181
  923BOLB   NC222141   3.486  17.248  10.582 -0.0536 -0.1021  0.0596
  923BOLB   PO222142   3.594  17.085  11.031 -0.0353 -0.0333  0.3219
  923BOLB   GL322143   3.635  17.492  11.127 -0.4071 -0.4674  0.0558
  923BOLB   GL422144   3.755  17.569  11.402  0.1961  0.1706  0.0461
  923BOLB   C1C22145   3.938  17.873  11.046 -0.1540 -0.2752  0.2553
  923BOLB   C2C22146   4.191  18.151  11.258 -0.1309  0.0586 -0.0123
  923BOLB   C3C22147   4.293  18.303  11.596 -0.0412  0.0374 -0.0376
  923BOLB   C4C22148   4.804  18.334  11.661  0.3993  0.0379 -0.2957
  923BOLB   C1D22149   4.079  17.775  11.683 -0.0539 -0.1767 -0.0455
  923BOLB   C2D22150   4.543  17.778  11.725 -0.1869  0.0365  0.2102
  923BOLB   C3D22151   4.958  17.734  11.523  0.1878  0.1768  0.2181
  923BOLB   C4D22152   4.921  17.521  11.081  0.0278  0.1969  0.2668
  924BOLB   NC122153   6.998  18.478  13.370 -0.2674  0.2146 -0.2401
  924BOLB   PO122154   6.757  18.097  13.291 -0.2156 -0.1010 -0.0126
  924BOLB   GL122155   6.287  18.013  13.205 -0.0239  0.0609  0.0763
  924BOLB   GL222156   6.255  17.660  13.024  0.1266  0.3490  0.3296
  924BOLB   C1A22157   6.017  18.087  12.848 -0.1006 -0.0409 -0.3786
  924BOLB   C2A22158   5.857  17.909  12.529 -0.0034 -0.0829  0.2620
  924BOLB   C3A22159   5.656  17.795  12.047  0.0557  0.0169 -0.1412
  924BOLB   C4A22160   5.668  17.836  11.561 -0.3277  0.4092 -0.1704
  924BOLB   C1B22161   6.228  17.618  12.642  0.4218 -0.1663 -0.0178
  924BOLB   C2B22162   6.117  17.806  12.155  0.1890 -0.3134 -0.3599
  924BOLB   C3B22163   5.980  17.448  11.859 -0.0007  0.1283  0.1112
  924BOLB   C4B22164   6.260  17.276  11.553  0.0066  0.2212 -0.1628
  924BOLB   NC222165   4.942  16.799   9.408  0.1605  0.0607  0.0125
  924BOLB   PO222166   5.150  17.201   9.506 -0.1178 -0.3252  0.2441
  924BOLB   GL322167   5.571  17.470   9.656  0.2587  0.1441 -0.0601
  924BOLB   GL422168   5.852  17.538   9.551 -0.1160 -0.0811  0.2357
  924BOLB   C1C22169   5.584  17.583   9.983 -0.1196 -0.2092  0.2020
  924BOLB   C2C22170   5.423  17.627  10.401 -0.0643  0.0157  0.0631
  924BOLB   C3C22171   5.500  17.607  10.885  0.0380 -0.1986 -0.3447
  924BOLB   C4C22172   5.492  17.876  11.181  0.0235  0.0553  0.1206
  924BOLB   C1D22173   6.116  17.348   9.673 -0.1822  0.0064  0.3118
  924BOLB   C2D22174   6.290  16.917   9.719 -0.4573 -0.0426 -0.1436
  924BOLB   C3D22175   6.587  16.565   9.791 -0.1730  0.1017 -0.0291
  924BOLB   C4D22176   6.469  16.216   9.992 -0.1639  0.1506 -0.0795
  925BOLB   NC122177   6.630  23.756  10.326  0.1067 -0.0340  0.2142
  925BOLB   PO122178   6.871  23.474  10.214 -0.2754  0.3783  0.1505
  925BOLB   GL122179   7.183  23.195  10.124 -0.0194 -0.0760 -0.2996
  925BOLB   GL222180   7.332  23.179   9.767  0.1165 -0.0796 -0.1597
  925BOLB   C1A22181   7.553  23.244  10.378 -0.4027  0.3520  0.1164
  925BOLB   C2A22182   7.980  23.260  10.600  0.0751  0.1546  0.2213
  925BOLB   C3A22183   8.187  23.618  10.918  0.1461 -0.0860 -0.2612
  925BOLB   C4A22184   8.542  23.907  10.926 -0.3226  0.1565 -0.0333
  925BOLB   C1B22185   7.106  22.878   9.512 -0.2438  0.2617 -0.1500
  925BOLB   C2B22186   7.329  22.606   9.160 -0.1097 -0.2332 -0.2566
  925BOLB   C3B22187   7.483  22.170   9.005  0.1543  0.1248  0.0011
  925BOLB   C4B22188   7.876  21.948   8.869 -0.0251 -0.0441 -0.1760
  925BOLB   NC222189   7.739  24.051  10.156 -0.3909  0.0200  0.1382
  925BOLB   PO222190   8.108  23.970   9.947 -0.1769  0.1711  0.0967
  925BOLB   GL322191   8.462  23.827   9.996  0.1861  0.0407  0.0990
  925BOLB   GL422192   8.463  23.571   9.795 -0.0733 -0.1001 -0.0168
  925BOLB   C1C22193   8.869  23.937  10.057 -0.1605  0.1685  0.2531
  925BOLB   C2C22194   9.213  24.040  10.349 -0.1604  0.1091 -0.1102
  925BOLB   C3C22195   9.211  24.115  10.768 -0.1623  0.5097 -0.0315
  925BOLB   C4C22196   8.856  24.056  10.966  0.1172 -0.4178 -0.2085
  925BOLB   C1D22197   8.859  23.608   9.619 -0.1189  0.1609  0.1542
  925BOLB   C2D22198   9.258  23.699   9.879 -0.1076 -0.0819  0.3267
  925BOLB   C3D22199   9.508  23.633  10.262 -0.1497 -0.3962  0.0983
  925BOLB   C4D22200   9.614  23.763  10.658 -0.2023 -0.3055 -0.0509
  926BOLB   NC122201   8.014  19.330  12.207  0.0271 -0.0860  0.1405
  926BOLB   PO122202   8.017  18.981  12.500  0.2400  0.3139 -0.0592
  926BOLB   GL122203   7.799  18.931  12.053 -0.0976  0.0139  0.0180
  926BOLB   GL222204   7.609  19.312  11.921 -0.2168 -0.0548  0.2563
  926BOLB   C1A22205   7.860  18.941  11.574  0.0865 -0.2513 -0.3780
  926BOLB   C2A22206   7.715  18.996  11.180 -0.0640 -0.3469 -0.1244
  926BOLB   C3A22207   7.544  18.996  10.837 -0.2574  0.0252 -0.1048
  926BOLB   C4A22208   7.340  18.864  10.596 -0.0512 -0.0201  0.0816
  926BOLB   C1B22209   7.487  19.305  11.490  0.1795  0.0915 -0.2167
  926BOLB   C2B22210   7.341  19.431  11.080 -0.1540  0.0070  0.1122
  926BOLB   C3B22211   7.274  19.415  10.673  0.0211 -0.1929  0.2068
  926BOLB   C4B22212   6.964  19.671  10.530 -0.1103  0.1396  0.3576
  926BOLB   NC222213   7.579  18.213   7.848 -0.0270  0.1282  0.0211
  926BOLB   PO222214   7.787  18.711   8.076  0.0555 -0.0570 -0.2124
  926BOLB   GL322215   7.646  18.482   8.372  0.0833  0.2007 -0.1963
  926BOLB   GL422216   7.732  18.187   8.423 -0.3674  0.0106  0.1436
  926BOLB   C1C22217   7.484  18.392   8.864 -0.2064 -0.0024  0.1029
  926BOLB   C2C22218   7.493  18.339   9.292 -0.1360  0.0117 -0.1818
  926BOLB   C3C22219   7.449  18.322   9.787  0.2105 -0.1439  0.1176
  926BOLB   C4C22220   7.426  18.691  10.087 -0.0098 -0.0019  0.3562
  926BOLB   C1D22221   7.950  18.104   8.735  0.0729  0.2793  0.5030
  926BOLB   C2D22222   7.919  18.053   9.087 -0.1628 -0.0587 -0.1738
  926BOLB   C3D22223   7.951  18.221   9.456 -0.0416 -0.1953 -0.1455
  926BOLB   C4D22224   8.143  17.878   9.826  0.4026 -0.4150  0.1073
  927BOLB   NC122225   5.288  22.654   9.671  0.0424 -0.1467  0.0249
  927BOLB   PO122226   5.551  22.522   9.384  0.0712 -0.2537 -0.1958
  927BOLB   GL122227   5.950  22.426   9.607 -0.1298  0.0706 -0.2634
  927BOLB   GL222228   6.243  22.254   9.540  0.1329 -0.0724 -0.2470
  927BOLB   C1A22229   6.202  22.527  10.003  0.0827  0.2921 -0.0514
  927BOLB   C2A22230   6.479  22.314  10.329 -0.2828  0.1978 -0.0728
  927BOLB   C3A22231   6.633  21.898  10.303  0.0918  0.2203  0.0572
  927BOLB   C4A22232   6.688  21.641   9.970 -0.0408 -0.1884  0.0785
  927BOLB   C1B22233   6.491  22.092   9.855 -0.0714  0.0282  0.0876
  927BOLB   C2B22234   6.880  22.319   9.984  0.1428 -0.0064  0.3500
  927BOLB   C3B22235   7.170  22.482   9.862 -0.0807 -0.0268 -0.0459
  927BOLB   C4B22236   7.266  22.231   9.464 -0.1186  0.0867  0.0128
  927BOLB   NC222237   7.076  23.746   8.840  0.1713 -0.0193  0.1256
  927BOLB   PO222238   7.297  23.439   9.090 -0.1169  0.0224 -0.1372
  927BOLB   GL322239   7.538  23.216   9.338 -0.0569  0.1010 -0.3535
  927BOLB   GL422240   7.882  23.245   9.269 -0.3041 -0.1856 -0.0224
  927BOLB   C1C22241   7.707  22.776   9.585  0.0068  0.0316 -0.1668
  927BOLB   C2C22242   7.651  22.288   9.809 -0.0277  0.0194  0.0538
  927BOLB   C3C22243   7.383  22.074  10.014  0.0019  0.1595  0.0518
  927BOLB   C4C22244   7.143  21.860   9.810 -0.0406  0.3219  0.1698
  927BOLB   C1D22245   8.181  23.200   9.633 -0.3378 -0.0306  0.2730
  927BOLB   C2D22246   8.229  23.017  10.046  0.0719 -0.1549  0.1151
  927BOLB   C3D22247   8.058  22.791  10.293 -0.2121  0.2894 -0.1229
  927BOLB   C4D22248   7.654  22.774  10.613 -0.5483 -0.0340  0.2672
  928BOLB   NC122249   7.472  16.590  13.811 -0.3772 -0.1603 -0.0466
  928BOLB   PO122250   7.079  16.746  13.677 -0.1604 -0.3628  0.0285
  928BOLB   GL122251   6.679  16.691  13.899 -0.0733 -0.0447 -0.0824
  928BOLB   GL222252   6.684  16.373  14.075 -0.2957 -0.2178  0.0177
  928BOLB   C1A22253   6.335  16.382  13.682 -0.1713  0.1465  0.2048
  928BOLB   C2A22254   5.921  16.429  13.422 -0.1453 -0.0698 -0.0270
  928BOLB   C3A22255   5.491  16.375  13.301 -0.0170 -0.1123  0.1326
  928BOLB   C4A22256   5.133  16.677  13.333  0.0366 -0.0322  0.1804
  928BOLB   C1B22257   6.423  16.006  14.057  0.0027  0.4760 -0.1412
  928BOLB   C2B22258   6.074  15.938  13.912 -0.0075  0.2688 -0.0901
  928BOLB   C3B22259   5.752  16.073  13.727  0.0330  0.0392 -0.0533
  928BOLB   C4B22260   5.492  16.447  13.838  0.3501 -0.0713  0.0964
  928BOLB   NC222261   3.359  16.805  12.035 -0.1375 -0.0755 -0.0186
  928BOLB   PO222262   3.271  17.250  11.952  0.2365  0.1528 -0.1125
  928BOLB   GL322263   3.697  17.261  12.111 -0.1257  0.3229  0.3003
  928BOLB   GL422264   3.853  17.348  11.843 -0.1672  0.2379  0.1547
  928BOLB   C1C22265   3.979  16.949  12.161  0.0934  0.0142 -0.2073
  928BOLB   C2C22266   4.173  16.815  12.598  0.0486  0.3195 -0.0136
  928BOLB   C3C22267   4.417  16.867  12.912  0.0513 -0.2726 -0.2878
  928BOLB   C4C22268   4.709  16.771  13.263 -0.1354  0.1103 -0.0443
  928BOLB   C1D22269   4.265  17.333  12.042 -0.0107 -0.0768 -0.1221
  928BOLB   C2D22270   4.619  17.520  12.157 -0.0749  0.0388 -0.0441
  928BOLB   C3D22271   5.008  17.918  12.060  0.4567 -0.3424  0.1353
  928BOLB   C4D22272   5.430  18.144  12.215 -0.1400 -0.3124  0.1294
  929BOLB   NC122273   2.486  14.827  17.847 -0.1184  0.2225  0.3934
  929BOLB   PO122274   2.725  14.993  17.573  0.1371 -0.1007  0.3225
  929BOLB   GL122275   3.054  14.987  17.756  0.0186  0.2342 -0.1548
  929BOLB   GL222276   3.125  14.622  17.843 -0.2124  0.1617 -0.1722
  929BOLB   C1A22277   3.345  15.115  17.511 -0.3545 -0.1378  0.1527
  929BOLB   C2A22278   3.796  15.012  17.347  0.3010  0.1304  0.1307
  929BOLB   C3A22279   4.075  14.692  17.175  0.0495  0.0277 -0.0905
  929BOLB   C4A22280   4.194  14.629  16.717  0.2029 -0.1926 -0.1370
  929BOLB   C1B22281   3.484  14.334  18.004 -0.0613  0.1376 -0.3851
  929BOLB   C2B22282   3.804  14.117  17.937  0.1736  0.1332 -0.0669
  929BOLB   C3B22283   4.296  14.105  18.008 -0.3021 -0.1558 -0.1690
  929BOLB   C4B22284   4.638  14.424  18.147 -0.0450 -0.0483 -0.0662
  929BOLB   NC222285   3.459  13.993  15.079 -0.0163 -0.0695  0.1607
  929BOLB   PO222286   3.887  14.001  15.143 -0.3473 -0.1102 -0.2210
  929BOLB   GL322287   4.107  13.958  15.431  0.0053  0.2077 -0.5822
  929BOLB   GL422288   4.055  13.797  15.664  0.0630 -0.0390  0.3098
  929BOLB   C1C22289   4.536  14.127  15.592  0.1740  0.0975  0.1348
  929BOLB   C2C22290   4.735  14.325  15.904  0.1587 -0.0629  0.0892
  929BOLB   C3C22291   4.715  14.576  16.193 -0.1763 -0.0387  0.0296
  929BOLB   C4C22292   4.356  14.677  16.374  0.2391 -0.0655  0.0980
  929BOLB   C1D22293   4.287  13.773  15.943 -0.1986 -0.0786 -0.0032
  929BOLB   C2D22294   4.472  13.456  16.220 -0.1536  0.2720 -0.0268
  929BOLB   C3D22295   4.734  13.166  16.506  0.2073  0.1630  0.1474
  929BOLB   C4D22296   4.743  12.685  16.370  0.2840  0.0854  0.1089
  930BOLB   NC122297   7.594  17.938  12.767 -0.1638 -0.0641  0.3402
  930BOLB   PO122298   7.929  18.187  12.620 -0.1568 -0.0372 -0.3931
  930BOLB   GL122299   7.587  18.226  12.276  0.1841 -0.1084 -0.0437
  930BOLB   GL222300   7.474  18.502  12.237  0.1491  0.4845 -0.1124
  930BOLB   C1A22301   7.639  18.534  11.767 -0.0049  0.0431 -0.0962
  930BOLB   C2A22302   7.566  18.531  11.298 -0.2119  0.2102 -0.1695
  930BOLB   C3A22303   7.505  18.489  10.929  0.1335 -0.1613  0.0344
  930BOLB   C4A22304   7.468  18.341  10.557  0.0459 -0.1954  0.0300
  930BOLB   C1B22305   7.229  18.208  11.972 -0.1327 -0.0306 -0.0355
  930BOLB   C2B22306   7.073  18.264  11.535 -0.1276  0.0877 -0.1577
  930BOLB   C3B22307   6.998  18.319  11.133 -0.3053  0.1145  0.1256
  930BOLB   C4B22308   6.949  18.381  10.742 -0.0168 -0.1216 -0.0506
  930BOLB   NC222309   6.211  17.725   8.140 -0.1716  0.0885  0.0781
  930BOLB   PO222310   6.503  17.572   8.479 -0.1661  0.0083  0.0255
  930BOLB   GL322311   6.689  17.667   8.852  0.0885 -0.2863 -0.1503
  930BOLB   GL422312   7.049  17.637   8.769  0.1159 -0.0399  0.2405
  930BOLB   C1C22313   6.867  17.913   9.197 -0.0272  0.0347  0.0384
  930BOLB   C2C22314   7.109  18.025   9.504 -0.3873 -0.1161 -0.0212
  930BOLB   C3C22315   7.175  18.039  10.053  0.1278 -0.0762  0.2861
  930BOLB   C4C22316   7.509  18.143  10.294 -0.0966 -0.1411  0.2508
  930BOLB   C1D22317   7.313  17.361   8.986  0.0300 -0.0949  0.0269
  930BOLB   C2D22318   7.525  17.298   9.266  0.3464 -0.0877  0.3852
  930BOLB   C3D22319   7.661  17.169   9.680 -0.0736 -0.1105 -0.1511
  930BOLB   C4D22320   7.672  16.996  10.024 -0.0069 -0.0437  0.1302
  931BOLB   NC122321   7.560  17.261  13.077  0.0535  0.2515  0.0781
  931BOLB   PO122322   7.837  16.956  13.013 -0.1816 -0.2931 -0.0403
  931BOLB   GL122323   7.562  16.713  12.898 -0.1594 -0.0383 -0.0088
  931BOLB   GL222324   7.657  16.515  12.547 -0.7103  0.0783  0.2879
  931BOLB   C1A22325   7.124  16.611  12.911  0.0141  0.0525  0.2358
  931BOLB   C2A22326   6.752  16.502  12.696  0.1097 -0.2301  0.0345
  931BOLB   C3A22327   6.313  16.373  12.747  0.1544  0.1386  0.4342
  931BOLB   C4A22328   6.119  15.973  12.536  0.0275  0.2745 -0.4102
  931BOLB   C1B22329   7.337  16.367  12.557  0.3461  0.1340  0.0378
  931BOLB   C2B22330   6.999  16.500  12.257 -0.2505  0.1577  0.0716
  931BOLB   C3B22331   6.553  16.488  12.234  0.1091 -0.2528 -0.3236
  931BOLB   C4B22332   6.309  16.805  12.454  0.1994  0.1997  0.2632
  931BOLB   NC222333   4.242  15.469  10.751  0.2657  0.0806 -0.0754
  931BOLB   PO222334   4.294  15.861  11.029 -0.0091  0.0413  0.0316
  931BOLB   GL322335   4.711  16.071  11.189 -0.1219 -0.2516 -0.2235
  931BOLB   GL422336   5.012  16.114  10.926 -0.2211  0.0789 -0.3459
  931BOLB   C1C22337   5.045  15.940  11.407 -0.3227 -0.0463 -0.0851
  931BOLB   C2C22338   5.238  15.746  11.665  0.4557 -0.1228  0.0896
  931BOLB   C3C22339   5.532  15.586  11.871 -0.2954 -0.2028 -0.2047
  931BOLB   C4C22340   5.872  15.706  12.278  0.2862  0.1852  0.1043
  931BOLB   C1D22341   5.478  16.103  11.147 -0.0595 -0.0128 -0.0744
  931BOLB   C2D22342   5.628  16.085  11.520  0.0526 -0.0570  0.3189
  931BOLB   C3D22343   5.726  16.406  11.739  0.0500  0.1717  0.2043
  931BOLB   C4D22344   6.055  16.448  11.947  0.2493 -0.0460  0.2336
  932BOLB   NC122345   8.556  12.910  12.595 -0.0846 -0.0346  0.1151
  932BOLB   PO122346   8.284  13.172  12.840  0.0511 -0.3873 -0.1066
  932BOLB   GL122347   7.860  13.033  12.576 -0.0477 -0.0266  0.1303
  932BOLB   GL222348   8.036  12.817  12.333  0.1042  0.1923 -0.3376
  932BOLB   C1A22349   7.661  13.257  12.155  0.2776 -0.1861  0.1211
  932BOLB   C2A22350   7.596  13.458  11.707 -0.0863  0.0710 -0.1252
  932BOLB   C3A22351   7.490  13.879  11.458  0.1453 -0.3198  0.0902
  932BOLB   C4A22352   7.200  14.085  11.087  0.0450  0.0223 -0.0913
  932BOLB   C1B22353   7.652  12.760  12.198  0.2311 -0.1374  0.1637
  932BOLB   C2B22354   7.375  12.954  11.824 -0.1543  0.1893 -0.2318
  932BOLB   C3B22355   7.069  13.138  11.558 -0.0075 -0.2457  0.3340
  932BOLB   C4B22356   6.915  13.288  11.168  0.0687 -0.2514 -0.0793
  932BOLB   NC222357   5.242  15.347   9.796 -0.0908  0.0593 -0.2824
  932BOLB   PO222358   5.585  15.658   9.687  0.3138  0.1269  0.0001
  932BOLB   GL322359   5.756  15.246   9.915  0.0191 -0.0366 -0.1477
  932BOLB   GL422360   5.649  15.003  10.134  0.4610  0.1723  0.2659
  932BOLB   C1C22361   6.222  15.264  10.134 -0.0737  0.1164 -0.1647
  932BOLB   C2C22362   6.604  15.005  10.232 -0.3742  0.0160  0.0429
  932BOLB   C3C22363   6.769  14.531  10.335  0.0114 -0.0220 -0.0672
  932BOLB   C4C22364   6.943  14.325  10.712  0.2974 -0.2379  0.0660
  932BOLB   C1D22365   5.858  15.108  10.424 -0.2343 -0.0147  0.0383
  932BOLB   C2D22366   6.297  15.073  10.597  0.1705 -0.1165 -0.2183
  932BOLB   C3D22367   6.710  14.817  10.733 -0.1744  0.2247  0.0448
  932BOLB   C4D22368   7.013  15.286  10.659 -0.0359  0.2635  0.1032
  933BOLB   NC122369   6.459  22.379  11.907 -0.0995 -0.2730  0.0751
  933BOLB   PO122370   6.523  21.926  12.142  0.4112 -0.0637 -0.1331
  933BOLB   GL122371   6.686  21.543  11.899  0.4191  0.6058 -0.1312
  933BOLB   GL222372   6.601  21.488  11.549  0.2604 -0.1310  0.0346
  933BOLB   C1A22373   6.950  21.253  11.782 -0.2457  0.0423  0.1092
  933BOLB   C2A22374   6.968  21.071  11.364  0.1603  0.1553 -0.1072
  933BOLB   C3A22375   7.111  20.888  10.937  0.0283  0.3430 -0.1054
  933BOLB   C4A22376   6.877  20.735  10.575  0.1582 -0.0608 -0.0398
  933BOLB   C1B22377   7.137  21.640  11.396 -0.2495 -0.0785  0.1795
  933BOLB   C2B22378   7.161  21.378  11.005 -0.1867  0.2352  0.0120
  933BOLB   C3B22379   7.145  21.190  10.549 -0.0454 -0.2237  0.4434
  933BOLB   C4B22380   6.964  21.180  10.106 -0.0743 -0.2723  0.1911
  933BOLB   NC222381   5.058  21.182   8.569 -0.1345  0.1276  0.2885
  933BOLB   PO222382   5.366  21.196   8.910  0.0461  0.3085 -0.2224
  933BOLB   GL322383   5.617  20.896   9.263  0.1148 -0.3060  0.0048
  933BOLB   GL422384   5.797  21.249   9.349 -0.1144 -0.1872 -0.0796
  933BOLB   C1C22385   5.751  20.619   9.517  0.2199  0.1891 -0.3725
  933BOLB   C2C22386   6.026  20.502   9.698 -0.0576 -0.2062 -0.1608
  933BOLB   C3C22387   6.365  20.714   9.981 -0.1777 -0.0753  0.1515
  933BOLB   C4C22388   6.624  20.813  10.263  0.0885 -0.1066  0.0769
  933BOLB   C1D22389   5.946  21.489   9.643 -0.2484  0.0033  0.1097
  933BOLB   C2D22390   5.946  21.894   9.807  0.1736  0.1172  0.0989
  933BOLB   C3D22391   6.000  22.091  10.173  0.0415  0.1007  0.0062
  933BOLB   C4D22392   5.864  22.035  10.653  0.1384  0.2153 -0.2028
  934BOLB   NC122393   6.884  23.013  11.479 -0.1527 -0.0111  0.1145
  934BOLB   PO122394   6.617  22.890  11.175  0.0401 -0.0280  0.0618
  934BOLB   GL122395   6.894  22.714  11.035  0.1063 -0.1171  0.2204
  934BOLB   GL222396   7.167  22.613  11.163  0.0874  0.0788 -0.1275
  934BOLB   C1A22397   7.282  22.967  10.847 -0.3754  0.0478 -0.2193
  934BOLB   C2A22398   7.545  23.167  11.028 -0.1250 -0.3829 -0.0010
  934BOLB   C3A22399   7.868  23.347  11.090 -0.0132  0.1419 -0.0962
  934BOLB   C4A22400   8.345  23.111  11.166 -0.0653 -0.0975 -0.0936
  934BOLB   C1B22401   7.561  22.319  10.906 -0.0391  0.3097 -0.1658
  934BOLB   C2B22402   7.844  21.937  10.779 -0.3641 -0.2560  0.2457
  934BOLB   C3B22403   7.523  21.759  10.525  0.2406 -0.2828  0.0662
  934BOLB   C4B22404   7.157  21.711  10.280 -0.1674 -0.3862 -0.0927
  934BOLB   NC222405   8.531  25.178  11.124 -0.2042 -0.2423  0.0851
  934BOLB   PO222406   8.836  25.441  10.844 -0.0397 -0.1475 -0.1899
  934BOLB   GL322407   8.881  24.999  10.777  0.1965 -0.2225 -0.1513
  934BOLB   GL422408   9.222  24.985  10.880 -0.2338  0.2441  0.1367
  934BOLB   C1C22409   8.857  24.560  10.852 -0.0968 -0.1034 -0.0788
  934BOLB   C2C22410   8.765  24.101  10.534  0.1125 -0.1528  0.1113
  934BOLB   C3C22411   8.849  23.669  10.601  0.0674  0.1880  0.2097
  934BOLB   C4C22412   8.697  23.297  10.939 -0.0491  0.1590  0.0700
  934BOLB   C1D22413   9.256  24.585  11.197  0.0324  0.0436  0.3666
  934BOLB   C2D22414   9.426  24.102  11.201 -0.0049  0.1021 -0.0401
  934BOLB   C3D22415   9.326  23.804  11.320 -0.0433  0.0978  0.0941
  934BOLB   C4D22416   9.489  23.541  11.220  0.0558  0.0355  0.2587
  935BOLB   NC122417   6.402  20.728  13.360  0.0233  0.4040  0.0919
  935BOLB   PO122418   6.582  20.732  13.049 -0.1162 -0.0191  0.2506
  935BOLB   GL122419   6.500  20.737  12.585  0.0964 -0.1965 -0.2216
  935BOLB   GL222420   6.185  20.649  12.571  0.1361  0.0996  0.3826
  935BOLB   C1A22421   6.493  20.522  12.198  0.0635 -0.3344 -0.4471
  935BOLB   C2A22422   6.235  20.108  12.058 -0.2336  0.1330  0.0898
  935BOLB   C3A22423   6.171  19.759  11.882 -0.2116  0.0219 -0.1808
  935BOLB   C4A22424   6.116  19.572  11.531 -0.0159 -0.0559  0.0128
  935BOLB   C1B22425   5.931  20.469  12.334  0.2448 -0.0075  0.1376
  935BOLB   C2B22426   5.615  20.553  11.986 -0.4776 -0.2839  0.1367
  935BOLB   C3B22427   5.419  20.249  11.617  0.1537 -0.3234  0.1883
  935BOLB   C4B22428   5.163  20.025  11.357 -0.0769 -0.1169  0.0235
  935BOLB   NC222429   4.175  19.805   9.876  0.2335  0.3054 -0.0337
  935BOLB   PO222430   4.465  19.644   9.501  0.1424 -0.1907  0.0181
  935BOLB   GL322431   4.876  19.398   9.695  0.0937 -0.0208  0.3886
  935BOLB   GL422432   5.172  19.163   9.656  0.1224 -0.0992 -0.0523
  935BOLB   C1C22433   5.208  19.458  10.028  0.1451  0.3389 -0.4115
  935BOLB   C2C22434   5.541  19.378  10.357 -0.0266 -0.0432 -0.1077
  935BOLB   C3C22435   5.756  19.229  10.789 -0.3149  0.0416 -0.1731
  935BOLB   C4C22436   5.839  19.297  11.173  0.0788 -0.2032 -0.0470
  935BOLB   C1D22437   5.494  18.998   9.962  0.2899  0.0076 -0.0651
  935BOLB   C2D22438   5.420  18.560  10.155 -0.3053  0.0972 -0.0141
  935BOLB   C3D22439   5.418  18.089  10.186 -0.0158 -0.0732  0.0881
  935BOLB   C4D22440   5.825  17.895  10.394 -0.0746  0.2845 -0.2210
  936BOLB   NC122441   6.492  20.241  12.991  0.2564 -0.0353 -0.1346
  936BOLB   PO122442   6.709  19.845  13.105  0.1045  0.2831  0.2361
  936BOLB   GL122443   6.890  19.711  12.622 -0.0515  0.4090 -0.0561
  936BOLB   GL222444   7.211  19.597  12.657  0.0066 -0.0377 -0.1722
  936BOLB   C1A22445   6.785  19.722  12.142 -0.1265 -0.0920  0.0937
  936BOLB   C2A22446   6.644  19.632  11.718  0.1219 -0.0464  0.4769
  936BOLB   C3A22447   6.598  19.488  11.372  0.2044 -0.1636 -0.2461
  936BOLB   C4A22448   6.331  19.241  11.182  0.1728 -0.0092  0.0016
  936BOLB   C1B22449   7.140  19.386  12.288  0.1209 -0.0629  0.1526
  936BOLB   C2B22450   7.301  18.961  12.079 -0.2541  0.1826  0.0399
  936BOLB   C3B22451   7.191  18.795  11.628  0.1706 -0.2028  0.0674
  936BOLB   C4B22452   7.182  18.811  11.174  0.3742  0.3400  0.2111
  936BOLB   NC222453   6.260  19.426   8.597  0.1232 -0.1513  0.1629
  936BOLB   PO222454   6.196  19.066   8.792  0.0051 -0.2753 -0.0166
  936BOLB   GL322455   6.296  19.217   9.170 -0.0676 -0.4264 -0.0240
  936BOLB   GL422456   6.321  19.551   9.190  0.1989  0.0983  0.0471
  936BOLB   C1C22457   6.355  19.351   9.672 -0.0722  0.1659  0.0815
  936BOLB   C2C22458   6.527  19.243  10.047  0.3564 -0.0548  0.0384
  936BOLB   C3C22459   6.337  19.184  10.435 -0.0570 -0.1260 -0.0078
  936BOLB   C4C22460   6.257  19.144  10.821 -0.1202  0.1628 -0.0529
  936BOLB   C1D22461   6.581  19.973   9.165 -0.4017  0.0424 -0.0886
  936BOLB   C2D22462   6.989  19.952   9.346  0.2561  0.0330  0.1889
  936BOLB   C3D22463   7.214  19.723   9.054 -0.2376 -0.1905  0.0150
  936BOLB   C4D22464   7.131  19.362   8.769  0.0552 -0.0465 -0.0153
  937BOLB   NC122465   5.205  20.576  14.353 -0.1713 -0.2274 -0.0645
  937BOLB   PO122466   5.551  20.207  14.427  0.0365 -0.0491 -0.0919
  937BOLB   GL122467   5.393  19.720  14.455  0.2657 -0.2590 -0.2177
  937BOLB   GL222468   5.159  19.688  14.735 -0.0831 -0.1497 -0.2329
  937BOLB   C1A22469   5.323  19.221  14.461  0.0403  0.1319 -0.1709
  937BOLB   C2A22470   5.177  18.844  14.414  0.0541 -0.1538  0.0297
  937BOLB   C3A22471   5.240  18.497  14.630 -0.0201  0.0353 -0.1880
  937BOLB   C4A22472   5.312  18.004  14.734  0.1496  0.0286  0.1414
  937BOLB   C1B22473   5.558  19.568  14.935  0.1812 -0.2437 -0.0723
  937BOLB   C2B22474   5.780  19.220  15.147  0.0431  0.1663  0.1856
  937BOLB   C3B22475   5.444  19.035  15.392  0.2418  0.0492  0.0255
  937BOLB   C4B22476   5.395  19.543  15.404 -0.1486 -0.0320 -0.4095
  937BOLB   NC222477   3.305  16.324  15.135  0.1812  0.0229 -0.2975
  937BOLB   PO222478   3.292  16.672  14.876  0.0445 -0.1339  0.2710
  937BOLB   GL322479   3.711  16.782  14.733 -0.1527  0.0452  0.1118
  937BOLB   GL422480   3.691  16.900  14.395 -0.3198 -0.1046  0.2900
  937BOLB   C1C22481   4.158  16.971  14.766  0.1608  0.1015  0.1002
  937BOLB   C2C22482   4.527  17.107  14.719  0.1120  0.2777  0.3940
  937BOLB   C3C22483   4.948  17.288  14.519  0.0215  0.2566  0.3378
  937BOLB   C4C22484   5.209  17.605  14.623  0.2159  0.1525  0.0027
  937BOLB   C1D22485   4.134  16.824  14.196  0.1424 -0.3640 -0.1485
  937BOLB   C2D22486   4.580  17.011  14.097  0.0525  0.1170 -0.2528
  937BOLB   C3D22487   4.813  17.310  13.944 -0.3950  0.1678 -0.2338
  937BOLB   C4D22488   5.172  17.570  14.029  0.1966 -0.2260  0.2847
  938BOLB   NC122489   4.611  19.969  13.084 -0.0370 -0.1939  0.1165
  938BOLB   PO122490   4.192  20.194  13.068 -0.3908  0.0469 -0.1168
  938BOLB   GL122491   4.129  19.729  13.034  0.2432 -0.1189 -0.4065
  938BOLB   GL222492   4.034  19.318  13.190 -0.2123  0.0573  0.1163
  938BOLB   C1A22493   4.074  19.357  12.710 -0.2890  0.1398 -0.1696
  938BOLB   C2A22494   4.363  19.243  12.371 -0.0551 -0.1625 -0.1610
  938BOLB   C3A22495   4.747  19.272  12.094 -0.0292  0.0353 -0.0064
  938BOLB   C4A22496   4.977  19.441  11.653  0.3110  0.0178  0.2028
  938BOLB   C1B22497   4.185  18.955  13.546  0.1563  0.1980  0.1324
  938BOLB   C2B22498   4.582  18.779  13.674  0.0077 -0.1856  0.1471
  938BOLB   C3B22499   5.085  18.779  13.834 -0.0924 -0.3536 -0.0696
  938BOLB   C4B22500   5.401  18.901  13.953  0.0088  0.2317  0.3042
  938BOLB   NC222501   4.531  20.946  11.462 -0.0896  0.0701  0.0625
  938BOLB   PO222502   4.428  21.158  11.099  0.0004 -0.1374  0.1006
  938BOLB   GL322503   4.629  20.804  11.004  0.0801 -0.1106 -0.2259
  938BOLB   GL422504   4.918  20.826  11.109 -0.1541 -0.1770  0.1130
  938BOLB   C1C22505   4.562  20.445  10.675 -0.0028  0.3967  0.3952
  938BOLB   C2C22506   4.732  20.051  10.582 -0.1405 -0.1140 -0.1191
  938BOLB   C3C22507   4.896  19.697  10.841 -0.1387  0.0461 -0.2364
  938BOLB   C4C22508   5.156  19.549  11.219  0.0732 -0.1499  0.2907
  938BOLB   C1D22509   4.929  20.348  11.022 -0.0894  0.1752 -0.0903
  938BOLB   C2D22510   4.694  20.048  11.163 -0.0957 -0.0134 -0.0541
  938BOLB   C3D22511   4.536  19.578  11.171 -0.1979  0.1430 -0.0315
  938BOLB   C4D22512   4.741  19.142  11.233 -0.1899  0.0849 -0.0130
  939BOLB   NC122513   6.486  22.836  10.700  0.0978  0.0630  0.0857
  939BOLB   PO122514   6.149  22.795  10.988 -0.0030 -0.3941  0.1344
  939BOLB   GL122515   6.363  22.491  10.985 -0.2075  0.0476  0.0908
  939BOLB   GL222516   6.366  22.198  11.153  0.0128 -0.1251  0.0118
  939BOLB   C1A22517   6.835  22.259  10.830  0.3238 -0.3469 -0.1977
  939BOLB   C2A22518   7.143  22.284  10.501  0.0313 -0.2634  0.2551
  939BOLB   C3A22519   7.551  22.323  10.380 -0.0293 -0.0242  0.2556
  939BOLB   C4A22520   7.805  22.044  10.178  0.2298  0.1403 -0.3348
  939BOLB   C1B22521   6.408  21.968  10.788 -0.0018  0.2540  0.1868
  939BOLB   C2B22522   6.274  21.646  10.685  0.1166  0.0220  0.2051
  939BOLB   C3B22523   5.984  21.402  10.413  0.0813  0.1394 -0.2599
  939BOLB   C4B22524   5.763  21.524  10.125 -0.2679  0.0843 -0.1589
  939BOLB   NC222525   6.520  21.607   8.471  0.0458  0.3127  0.1086
  939BOLB   PO222526   6.230  21.920   8.755 -0.2393  0.1215 -0.0218
  939BOLB   GL322527   6.535  21.756   9.015  0.1294 -0.0609  0.1487
  939BOLB   GL422528   6.840  22.033   9.025 -0.3542 -0.0614 -0.0511
  939BOLB   C1C22529   6.829  21.473   9.164  0.1807 -0.1404 -0.2111
  939BOLB   C2C22530   6.963  21.387   9.646  0.0580 -0.3526  0.0149
  939BOLB   C3C22531   7.298  21.382   9.867  0.0494 -0.1457  0.0371
  939BOLB   C4C22532   7.604  21.586  10.065  0.1094  0.1727  0.2044
  939BOLB   C1D22533   7.153  21.796   9.237 -0.0481 -0.0709  0.0772
  939BOLB   C2D22534   7.298  21.322   9.309  0.0141  0.0069  0.2582
  939BOLB   C3D22535   7.702  21.310   9.607  0.0396  0.0421 -0.2220
  939BOLB   C4D22536   8.157  21.379   9.606 -0.2416 -0.0447 -0.2422
  940BOLB   NC122537   8.293  11.894  12.547  0.2753  0.0724  0.1018
  940BOLB   PO122538   8.653  11.602  12.462 -0.1005  0.2112  0.3552
  940BOLB   GL122539   8.460  11.706  12.051  0.0703 -0.2568 -0.1403
  940BOLB   GL222540   8.181  11.569  12.083 -0.2340  0.0614  0.0360
  940BOLB   C1A22541   8.231  12.017  11.812  0.1101  0.1254  0.1843
  940BOLB   C2A22542   7.950  12.078  11.554  0.1792  0.0064 -0.1095
  940BOLB   C3A22543   7.824  12.435  11.279  0.0009  0.0418 -0.0958
  940BOLB   C4A22544   7.804  12.537  10.816 -0.0644  0.0558 -0.1933
  940BOLB   C1B22545   7.965  11.554  11.668  0.2381  0.0365  0.0936
  940BOLB   C2B22546   7.841  11.654  11.248 -0.1990 -0.0013  0.1742
  940BOLB   C3B22547   7.722  11.982  11.030 -0.1851  0.0336  0.4779
  940BOLB   C4B22548   7.571  12.144  10.670 -0.0205  0.0884  0.2845
  940BOLB   NC222549   6.412  12.976   8.376 -0.3047  0.1350  0.2554
  940BOLB   PO222550   6.902  12.924   8.492 -0.0216 -0.0191 -0.2339
  940BOLB   GL322551   7.241  12.874   8.850  0.1270 -0.4763  0.1253
  940BOLB   GL422552   7.316  12.591   8.717 -0.2088 -0.2659  0.2829
  940BOLB   C1C22553   7.372  13.115   9.283  0.0589  0.1312  0.1638
  940BOLB   C2C22554   7.534  13.094   9.688  0.0374 -0.3264  0.0383
  940BOLB   C3C22555   7.741  12.845   9.896  0.0876 -0.0908 -0.0652
  940BOLB   C4C22556   7.953  12.713  10.380 -0.1610 -0.1613 -0.2020
  940BOLB   C1D22557   7.118  12.553   9.187 -0.0807 -0.1837 -0.2787
  940BOLB   C2D22558   7.207  12.758   9.643  0.0054 -0.1163 -0.0457
  940BOLB   C3D22559   7.298  12.634   9.961 -0.2458 -0.1373 -0.1894
  940BOLB   C4D22560   7.506  12.478  10.246 -0.1316  0.1776  0.2591
  941BOLB   NC122561   7.685  13.939  14.114  0.2382  0.0789 -0.2624
  941BOLB   PO122562   7.587  14.249  13.931 -0.0895 -0.3740  0.3303
  941BOLB   GL122563   7.247  14.451  13.694 -0.1509  0.1074  0.0985
  941BOLB   GL222564   6.888  14.302  13.784  0.1762 -0.1127 -0.2435
  941BOLB   C1A22565   6.998  14.318  13.250 -0.4218 -0.1119 -0.1720
  941BOLB   C2A22566   6.542  14.278  12.962  0.3736  0.0344  0.2327
  941BOLB   C3A22567   6.196  14.132  12.937 -0.0778  0.0174  0.1445
  941BOLB   C4A22568   5.851  14.228  12.671  0.0623  0.1143  0.1101
  941BOLB   C1B22569   6.454  14.533  13.855 -0.0927 -0.1486  0.1520
  941BOLB   C2B22570   6.183  14.899  13.979  0.0337 -0.0352  0.1979
  941BOLB   C3B22571   5.721  14.937  13.894 -0.0614 -0.4566  0.1701
  941BOLB   C4B22572   5.381  15.186  13.696 -0.1485 -0.2007 -0.2505
  941BOLB   NC222573   3.647  13.665  12.955 -0.1097 -0.1466 -0.3392
  941BOLB   PO222574   3.604  14.205  12.808 -0.0651 -0.0210  0.1986
  941BOLB   GL322575   3.935  14.471  12.772 -0.2041  0.0661 -0.0211
  941BOLB   GL422576   4.067  14.267  13.045  0.0701  0.0541 -0.0676
  941BOLB   C1C22577   4.279  14.550  12.654 -0.0340  0.1426 -0.1503
  941BOLB   C2C22578   4.666  14.719  12.648  0.2290  0.3968  0.1156
  941BOLB   C3C22579   5.105  14.647  12.617 -0.2202 -0.0305  0.0978
  941BOLB   C4C22580   5.447  14.376  12.567  0.0862 -0.0771 -0.0289
  941BOLB   C1D22581   4.407  13.881  13.062 -0.0374  0.0131  0.1285
  941BOLB   C2D22582   4.774  13.696  13.113  0.0710  0.1403  0.2322
  941BOLB   C3D22583   5.111  13.560  13.079  0.0355 -0.2619 -0.1111
  941BOLB   C4D22584   5.515  13.403  13.241 -0.1236 -0.1356  0.1134
  942BOLB   NC122585   8.289  21.985  12.272  0.2128  0.0203  0.0803
  942BOLB   PO122586   8.736  21.836  12.311  0.1615  0.3377  0.1396
  942BOLB   GL122587   8.924  21.890  11.990  0.0055  0.0917  0.0730
  942BOLB   GL222588   8.821  22.174  11.809 -0.0996  0.2108  0.2480
  942BOLB   C1A22589   8.886  21.718  11.643  0.1316 -0.2165 -0.2638
  942BOLB   C2A22590   8.983  21.519  11.267 -0.2042 -0.1404 -0.3255
  942BOLB   C3A22591   9.133  21.439  10.859 -0.0493 -0.0521  0.1844
  942BOLB   C4A22592   9.427  21.315  10.490  0.2699  0.1569 -0.3088
  942BOLB   C1B22593   8.839  22.112  11.374  0.0150 -0.0826  0.3620
  942BOLB   C2B22594   8.961  21.910  11.006 -0.1635 -0.3800  0.0522
  942BOLB   C3B22595   8.807  21.800  10.732  0.2458  0.3400 -0.0790
  942BOLB   C4B22596   8.508  21.455  10.518  0.1579 -0.0772 -0.1873
  942BOLB   NC222597   8.928  21.041   7.903  0.0970 -0.2747 -0.0088
  942BOLB   PO222598   8.842  21.270   8.284 -0.4874  0.1394  0.0928
  942BOLB   GL322599   9.197  21.381   8.638  0.0948 -0.5689 -0.0592
  942BOLB   GL422600   9.576  21.505   8.509  0.1481  0.2590  0.5494
  942BOLB   C1C22601   9.240  21.528   9.056  0.1363 -0.1914 -0.1577
  942BOLB   C2C22602   9.481  21.388   9.324  0.0144 -0.0842 -0.2172
  942BOLB   C3C22603   9.475  21.182   9.694 -0.0786  0.2066 -0.2406
  942BOLB   C4C22604   9.367  21.165  10.096 -0.0001 -0.3672 -0.0947
  942BOLB   C1D22605   9.709  21.216   8.936  0.0778 -0.0791 -0.0542
  942BOLB   C2D22606   9.338  20.965   9.164 -0.1750 -0.1687  0.1671
  942BOLB   C3D22607   9.127  20.808   9.549 -0.0493 -0.0016 -0.2452
  942BOLB   C4D22608   9.391  20.707   9.828  0.4645  0.1825  0.0810
  943BOLB   NC122609   6.276  21.631  12.432 -0.2658  0.0423 -0.2151
  943BOLB   PO122610   5.836  21.572  12.594  0.1929 -0.0992 -0.3991
  943BOLB   GL122611   5.878  21.610  12.105  0.0817  0.3743  0.1323
  943BOLB   GL222612   6.195  21.546  11.941 -0.0800 -0.2476  0.2414
  943BOLB   C1A22613   5.761  21.204  11.876 -0.2351  0.1085 -0.2188
  943BOLB   C2A22614   5.431  20.980  11.642  0.0563  0.1498  0.0925
  943BOLB   C3A22615   5.223  20.680  11.471  0.1754 -0.0091  0.0706
  943BOLB   C4A22616   4.866  20.368  11.530  0.0874  0.0061 -0.1288
  943BOLB   C1B22617   6.279  21.166  11.762 -0.2054  0.0203  0.0715
  943BOLB   C2B22618   6.504  21.015  11.356 -0.1627  0.2025 -0.0010
  943BOLB   C3B22619   6.558  20.769  10.980 -0.1442 -0.0343 -0.0902
  943BOLB   C4B22620   6.415  20.533  10.586 -0.1160  0.1933  0.1330
  943BOLB   NC222621   3.274  18.944  12.754 -0.0722 -0.1133  0.1017
  943BOLB   PO222622   3.334  19.337  12.536 -0.0367 -0.1236 -0.2239
  943BOLB   GL322623   3.678  19.126  12.397 -0.2479  0.0008  0.1572
  943BOLB   GL422624   3.739  18.930  12.697  0.3758 -0.0673 -0.1585
  943BOLB   C1C22625   3.946  19.194  12.024 -0.1863  0.0608 -0.0175
  943BOLB   C2C22626   4.284  19.228  11.815 -0.2282  0.0863  0.1527
  943BOLB   C3C22627   4.421  19.551  11.650  0.1096  0.1881  0.2187
  943BOLB   C4C22628   4.634  19.992  11.663 -0.0389 -0.1336  0.0378
  943BOLB   C1D22629   3.705  18.443  12.845 -0.2320  0.2354 -0.2892
  943BOLB   C2D22630   4.039  18.267  12.972  0.1562  0.1524 -0.2179
  943BOLB   C3D22631   4.288  17.997  13.157 -0.0077  0.2342  0.1259
  943BOLB   C4D22632   4.435  17.990  13.584 -0.2085 -0.0263  0.0101
  944BOLB   NC122633   4.229  20.301  13.712  0.0620  0.2096  0.0055
  944BOLB   PO122634   4.447  19.918  13.531  0.1568  0.1872  0.1632
  944BOLB   GL122635   4.663  19.552  13.342  0.3458  0.3297  0.0782
  944BOLB   GL222636   4.858  19.345  13.598 -0.4829 -0.3763 -0.1925
  944BOLB   C1A22637   4.523  19.091  13.151  0.0203 -0.0765 -0.1515
  944BOLB   C2A22638   4.835  18.872  12.968 -0.1929 -0.0870  0.0241
  944BOLB   C3A22639   4.988  18.667  12.566  0.1970  0.1082 -0.2556
  944BOLB   C4A22640   4.725  18.282  12.272 -0.1420  0.2755 -0.5608
  944BOLB   C1B22641   5.067  19.126  13.408 -0.2501 -0.0357  0.0496
  944BOLB   C2B22642   5.316  19.018  13.089  0.3281 -0.2161  0.0171
  944BOLB   C3B22643   5.448  18.859  12.775 -0.2379  0.0841  0.0782
  944BOLB   C4B22644   5.446  18.474  12.618  0.0794 -0.2134 -0.0538
  944BOLB   NC222645   2.628  17.817  12.115  0.1694 -0.3735  0.3713
  944BOLB   PO222646   2.727  17.508  11.789 -0.1625 -0.1656  0.1752
  944BOLB   GL322647   3.137  17.845  11.551  0.2133  0.0177 -0.3778
  944BOLB   GL422648   3.311  17.639  11.619  0.1034 -0.2684 -0.0404
  944BOLB   C1C22649   3.484  18.031  11.348 -0.2668  0.1493  0.1687
  944BOLB   C2C22650   3.803  18.169  11.565  0.1369  0.0175 -0.2187
  944BOLB   C3C22651   3.976  18.214  11.997 -0.0226 -0.2594 -0.1489
  944BOLB   C4C22652   4.343  18.079  12.135 -0.0463 -0.0786  0.1825
  944BOLB   C1D22653   3.610  17.834  11.872 -0.3028 -0.0282 -0.2248
  944BOLB   C2D22654   3.853  17.739  12.162 -0.1287  0.3693 -0.1081
  944BOLB   C3D22655   4.203  17.706  12.457 -0.0668 -0.1512 -0.1521
  944BOLB   C4D22656   4.615  17.868  12.477  0.0582 -0.1006  0.1866
  945BOLB   NC122657   7.327   8.892  11.116  0.1409  0.1662 -0.1579
  945BOLB   PO122658   7.026   9.198  11.046  0.2286  0.0177 -0.0608
  945BOLB   GL122659   7.270   9.460  10.823  0.3174 -0.3146  0.1266
  945BOLB   GL222660   7.568   9.352  10.947  0.1492  0.4579 -0.3747
  945BOLB   C1A22661   7.326  10.027  10.783 -0.2166 -0.0061  0.0502
  945BOLB   C2A22662   7.102  10.437  10.825  0.1208  0.2347  0.4000
  945BOLB   C3A22663   6.878  10.750  10.691  0.2028  0.0868  0.1448
  945BOLB   C4A22664   6.847  11.235  10.554 -0.0909 -0.2109 -0.1732
  945BOLB   C1B22665   8.015   9.428  10.990  0.0926  0.1116 -0.1162
  945BOLB   C2B22666   8.483   9.211  11.103 -0.1258 -0.1962  0.0998
  945BOLB   C3B22667   8.904   9.263  11.332 -0.0054 -0.0868  0.2481
  945BOLB   C4B22668   9.238   9.200  11.388  0.1653 -0.0987  0.1393
  945BOLB   NC222669   5.190  12.566   9.499 -0.1374 -0.0910 -0.3910
  945BOLB   PO222670   5.522  12.745   9.365 -0.0148 -0.2407  0.0597
  945BOLB   GL322671   6.001  12.696   9.525  0.2502 -0.0100  0.0596
  945BOLB   GL422672   6.196  12.911   9.674 -0.1701 -0.0369 -0.0260
  945BOLB   C1C22673   6.249  12.263   9.629  0.0452 -0.2055 -0.2119
  945BOLB   C2C22674   6.640  11.970   9.841  0.0092  0.0713 -0.0277
  945BOLB   C3C22675   6.981  11.753  10.019  0.2996 -0.2099 -0.3500
  945BOLB   C4C22676   7.041  11.578  10.459 -0.0946  0.0074  0.0433
  945BOLB   C1D22677   6.439  12.689   9.959 -0.0931  0.0351 -0.1065
  945BOLB   C2D22678   6.862  12.433   9.864  0.1060 -0.1137 -0.1291
  945BOLB   C3D22679   7.136  12.173   9.846  0.0357 -0.2126 -0.0477
  945BOLB   C4D22680   7.269  12.069   9.365  0.2581  0.5577  0.0569
  946BOLB   NC122681   6.907  10.581  12.157 -0.1136 -0.2283 -0.0062
  946BOLB   PO122682   7.302  10.373  11.875  0.2674 -0.1585 -0.3693
  946BOLB   GL122683   7.628  10.449  11.631  0.1188  0.2665 -0.3398
  946BOLB   GL222684   7.751  10.569  11.917 -0.0422 -0.2272  0.1735
  946BOLB   C1A22685   7.714  10.397  11.246  0.1937  0.2388  0.1192
  946BOLB   C2A22686   7.694  10.413  10.930 -0.3255  0.0603 -0.2529
  946BOLB   C3A22687   7.745  10.479  10.534 -0.4490  0.0828  0.2892
  946BOLB   C4A22688   7.725  10.863  10.240  0.0069  0.0765  0.0007
  946BOLB   C1B22689   8.030  10.649  11.548  0.0801  0.1851  0.0917
  946BOLB   C2B22690   8.167  10.525  11.117  0.4332 -0.2038  0.0511
  946BOLB   C3B22691   8.082  10.756  10.846 -0.0808 -0.2086 -0.2695
  946BOLB   C4B22692   8.046  11.095  10.521 -0.0581  0.3322  0.0276
  946BOLB   NC222693   8.277  11.475   7.895 -0.2539  0.2676  0.0868
  946BOLB   PO222694   8.347  11.128   8.236 -0.0735 -0.0123 -0.3906
  946BOLB   GL322695   8.203  10.919   8.549 -0.1867 -0.1550 -0.3737
  946BOLB   GL422696   7.891  10.913   8.565  0.3021  0.3841  0.1235
  946BOLB   C1C22697   8.474  11.068   8.919 -0.1255 -0.0676  0.2542
  946BOLB   C2C22698   8.496  11.218   9.273 -0.4591  0.4770  0.3762
  946BOLB   C3C22699   8.346  11.213   9.785 -0.0446 -0.1638 -0.1826
  946BOLB   C4C22700   8.004  11.057   9.985 -0.0521  0.1470  0.2369
  946BOLB   C1D22701   8.028  10.973   9.042  0.2045 -0.1007  0.1314
  946BOLB   C2D22702   7.941  11.225   9.440 -0.1039  0.1699  0.2117
  946BOLB   C3D22703   7.893  11.622   9.666 -0.0866 -0.0106  0.2094
  946BOLB   C4D22704   8.093  11.699   9.984 -0.1284 -0.2519 -0.0076
  947BOLB   NC122705   8.210  14.548  13.050 -0.0261 -0.1003 -0.1442
  947BOLB   PO122706   7.719  14.534  13.129  0.0957  0.0170 -0.1891
  947BOLB   GL122707   7.542  14.462  12.866  0.2375  0.1400 -0.0503
  947BOLB   GL222708   7.409  14.101  12.920  0.0377  0.3491  0.2790
  947BOLB   C1A22709   7.372  14.572  12.483  0.0327 -0.0675  0.1261
  947BOLB   C2A22710   7.072  14.655  12.240 -0.0525 -0.0813 -0.1409
  947BOLB   C3A22711   6.752  14.536  12.031 -0.1826  0.4531 -0.1247
  947BOLB   C4A22712   6.332  14.543  11.959 -0.0512 -0.1034  0.1758
  947BOLB   C1B22713   7.026  13.886  12.837  0.1995 -0.0822  0.0553
  947BOLB   C2B22714   6.594  13.810  13.052 -0.1261 -0.2034 -0.2360
  947BOLB   C3B22715   6.350  13.529  13.413  0.0926  0.1383  0.1916
  947BOLB   C4B22716   6.375  13.153  13.603  0.2942  0.3479  0.0195
  947BOLB   NC222717   4.456  15.259   9.985  0.0554  0.4446  0.2870
  947BOLB   PO222718   4.469  15.263  10.422 -0.1059 -0.1558  0.2288
  947BOLB   GL322719   4.710  15.108  10.750  0.1228  0.0418  0.0503
  947BOLB   GL422720   4.590  15.077  11.040  0.2132  0.0302  0.3479
  947BOLB   C1C22721   5.082  15.000  10.943  0.0835 -0.1745  0.1004
  947BOLB   C2C22722   5.419  15.008  11.217 -0.1597 -0.0759 -0.1196
  947BOLB   C3C22723   5.704  14.717  11.415  0.0245 -0.2021 -0.0029
  947BOLB   C4C22724   5.932  14.541  11.746 -0.4425  0.1026 -0.0692
  947BOLB   C1D22725   4.927  15.170  11.336  0.0835 -0.1667 -0.0483
  947BOLB   C2D22726   5.157  15.261  11.597 -0.2912 -0.1586 -0.0667
  947BOLB   C3D22727   5.182  15.215  11.957 -0.0301 -0.3268  0.1570
  947BOLB   C4D22728   4.861  14.944  12.144 -0.0742 -0.0809 -0.2653
  948BOLB   NC122729   7.179   9.224   9.153  0.0094 -0.2073 -0.1677
  948BOLB   PO122730   6.848   9.261   9.434 -0.0967  0.0405 -0.0286
  948BOLB   GL122731   7.120   9.359   9.740 -0.1113  0.2014  0.0869
  948BOLB   GL222732   7.385   9.484   9.554 -0.0096  0.1417  0.1150
  948BOLB   C1A22733   7.101   9.747   9.974 -0.1108 -0.0196  0.1150
  948BOLB   C2A22734   6.896  10.191  10.048  0.1151 -0.0981 -0.1306
  948BOLB   C3A22735   6.826  10.635  10.183  0.0055  0.0001 -0.2624
  948BOLB   C4A22736   6.652  10.891  10.214 -0.1896 -0.2825 -0.0636
  948BOLB   C1B22737   7.472   9.866   9.397  0.4364  0.3130 -0.0156
  948BOLB   C2B22738   7.894  10.051   9.441  0.0578  0.3100  0.1394
  948BOLB   C3B22739   8.171  10.280   9.687  0.3964  0.2105  0.1456
  948BOLB   C4B22740   8.336  10.713   9.948  0.0428 -0.0967 -0.2143
  948BOLB   NC222741   6.181  10.777   8.399  0.3045  0.1544 -0.1385
  948BOLB   PO222742   6.188  11.254   8.340 -0.1499 -0.0265  0.2565
  948BOLB   GL322743   6.427  11.183   8.655 -0.2031 -0.1269  0.0246
  948BOLB   GL422744   6.540  10.997   8.744 -0.1509 -0.1266 -0.2182
  948BOLB   C1C22745   6.634  11.370   9.015 -0.4721  0.0615  0.1385
  948BOLB   C2C22746   6.565  11.523   9.321 -0.4659 -0.1489 -0.1726
  948BOLB   C3C22747   6.700  11.464   9.694 -0.0855  0.2229  0.2745
  948BOLB   C4C22748   6.635  11.320  10.116 -0.2169 -0.2851 -0.1156
  948BOLB   C1D22749   6.936  11.012   8.892  0.1304 -0.1191 -0.0746
  948BOLB   C2D22750   7.001  11.171   9.294  0.3531 -0.1734  0.4522
  948BOLB   C3D22751   7.113  11.117   9.607  0.0445 -0.2237 -0.4883
  948BOLB   C4D22752   7.157  11.281  10.086 -0.2633  0.1154 -0.1858
  949BOLB   NC122753   6.964  17.774  13.593  0.0375 -0.3860 -0.3487
  949BOLB   PO122754   7.243  17.369  13.494 -0.3534  0.3368  0.0458
  949BOLB   GL122755   7.010  17.139  13.126 -0.2468 -0.1543  0.0573
  949BOLB   GL222756   6.824  16.875  13.288 -0.0656  0.4073 -0.1827
  949BOLB   C1A22757   6.966  16.944  12.624  0.0971  0.3125  0.3047
  949BOLB   C2A22758   6.779  16.940  12.196 -0.6627  0.1665  0.2560
  949BOLB   C3A22759   6.456  16.881  11.906  0.0239 -0.3595  0.3037
  949BOLB   C4A22760   5.989  16.902  11.921  0.2205  0.0749  0.1088
  949BOLB   C1B22761   6.535  16.934  12.916  0.1187 -0.1809  0.0589
  949BOLB   C2B22762   6.069  17.155  12.793  0.0164 -0.0302  0.1347
  949BOLB   C3B22763   5.834  16.900  12.564  0.0280 -0.3406 -0.0301
  949BOLB   C4B22764   5.862  16.377  12.412 -0.0857 -0.3107 -0.1263
  949BOLB   NC222765   3.563  16.436  11.401 -0.1007  0.1361  0.0789
  949BOLB   PO222766   3.418  16.352  11.837 -0.1465 -0.0923 -0.2147
  949BOLB   GL322767   3.865  16.484  11.864  0.1554 -0.1207  0.0453
  949BOLB   GL422768   3.875  16.393  12.203  0.2262  0.0103 -0.0110
  949BOLB   C1C22769   4.377  16.440  11.927  0.1552 -0.1097  0.2587
  949BOLB   C2C22770   4.830  16.490  12.158 -0.0621 -0.1683 -0.0438
  949BOLB   C3C22771   5.251  16.620  12.288  0.2677  0.1902 -0.1822
  949BOLB   C4C22772   5.600  16.755  12.072 -0.1534  0.1260  0.2433
  949BOLB   C1D22773   4.335  16.334  12.406  0.0598  0.0604 -0.0906
  949BOLB   C2D22774   4.641  16.342  12.769  0.1243 -0.0516  0.2933
  949BOLB   C3D22775   5.058  16.477  12.890 -0.0801  0.0265 -0.0521
  949BOLB   C4D22776   5.437  16.750  12.920  0.2358  0.2118 -0.0514
  950BOLB   NC122777   8.383  11.140  12.368  0.0729 -0.0939 -0.1426
  950BOLB   PO122778   8.037  10.922  12.504 -0.3723  0.2146 -0.2026
  950BOLB   GL122779   7.916  11.094  12.031 -0.1146 -0.4162  0.2347
  950BOLB   GL222780   8.078  11.047  11.915 -0.0674 -0.0698  0.0692
  950BOLB   C1A22781   7.621  11.401  12.008 -0.0141  0.2231  0.0316
  950BOLB   C2A22782   7.220  11.429  11.960 -0.4462 -0.0660 -0.2822
  950BOLB   C3A22783   7.063  11.647  11.619 -0.3770 -0.6591 -0.2685
  950BOLB   C4A22784   6.878  11.875  11.193 -0.1449  0.1929 -0.0404
  950BOLB   C1B22785   8.104  11.152  11.470 -0.0275  0.0597 -0.2304
  950BOLB   C2B22786   8.204  11.269  11.067 -0.1303 -0.2708  0.1058
  950BOLB   C3B22787   8.113  11.501  10.802  0.1826 -0.0106  0.0069
  950BOLB   C4B22788   7.924  11.732  10.537  0.2125  0.1521 -0.2323
  950BOLB   NC222789   4.743  11.128   9.816  0.2249 -0.5564 -0.2380
  950BOLB   PO222790   5.132  11.383   9.662 -0.1030 -0.1268 -0.1714
  950BOLB   GL322791   5.392  11.607  10.023  0.0254 -0.0960 -0.1066
  950BOLB   GL422792   5.413  11.959  10.099  0.2501 -0.1850  0.2529
  950BOLB   C1C22793   5.819  11.545  10.003  0.0097  0.3628 -0.2849
  950BOLB   C2C22794   6.259  11.690  10.113  0.2506  0.1204 -0.1746
  950BOLB   C3C22795   6.509  11.821  10.319 -0.1512  0.2182  0.0869
  950BOLB   C4C22796   6.762  11.944  10.777 -0.0326 -0.2645  0.1377
  950BOLB   C1D22797   5.874  12.024  10.066 -0.0585 -0.0682  0.1005
  950BOLB   C2D22798   6.303  12.254  10.132 -0.1496  0.2811 -0.1618
  950BOLB   C3D22799   6.678  12.275  10.247 -0.1064 -0.2022 -0.0824
  950BOLB   C4D22800   7.025  12.125  10.416 -0.0437  0.1069 -0.4485
  951BOLB   NC122801   7.338  15.601  13.626 -0.0723  0.1005  0.1609
  951BOLB   PO122802   7.306  15.819  13.398  0.0724  0.5763  0.0816
  951BOLB   GL122803   6.858  15.866  13.328  0.3245  0.2348 -0.1912
  951BOLB   GL222804   6.755  16.125  13.601  0.2171  0.1555 -0.1029
  951BOLB   C1A22805   6.493  15.976  12.967  0.1851  0.0880 -0.1413
  951BOLB   C2A22806   6.106  15.983  13.028  0.0147 -0.0758 -0.1074
  951BOLB   C3A22807   5.867  16.220  12.902  0.2732  0.1261  0.1794
  951BOLB   C4A22808   5.501  16.282  12.682 -0.1310  0.1417  0.2150
  951BOLB   C1B22809   6.470  15.685  13.608  0.0064  0.2404  0.0487
  951BOLB   C2B22810   5.990  15.691  13.479 -0.1646  0.1485  0.0615
  951BOLB   C3B22811   5.569  15.627  13.605 -0.0641  0.0838  0.2145
  951BOLB   C4B22812   5.124  15.578  13.538  0.0186  0.0319 -0.0514
  951BOLB   NC222813   3.689  15.864  12.013 -0.0874 -0.2529 -0.2088
  951BOLB   PO222814   3.790  15.438  11.856 -0.0222 -0.3246 -0.0703
  951BOLB   GL322815   4.172  15.719  11.794  0.1516  0.0933 -0.0770
  951BOLB   GL422816   4.193  15.873  12.092 -0.0043  0.2292  0.0962
  951BOLB   C1C22817   4.455  15.988  11.661 -0.1729 -0.3158  0.2820
  951BOLB   C2C22818   4.800  16.191  11.746  0.1965  0.0655  0.0088
  951BOLB   C3C22819   5.178  16.307  11.811 -0.4058 -0.2018 -0.2929
  951BOLB   C4C22820   5.455  16.185  12.204 -0.0462  0.0179 -0.0349
  951BOLB   C1D22821   4.613  15.965  12.208  0.2359 -0.1183  0.1166
  951BOLB   C2D22822   4.930  16.002  12.195 -0.0823  0.2217 -0.4244
  951BOLB   C3D22823   5.143  15.762  12.121 -0.0254 -0.1947 -0.0686
  951BOLB   C4D22824   5.362  15.416  12.400 -0.0832 -0.0599 -0.0361
  952BOLB   NC122825   7.192  16.243  13.812 -0.0578 -0.1238 -0.0853
  952BOLB   PO122826   7.309  15.859  14.016 -0.0782  0.2002  0.0919
  952BOLB   GL122827   6.895  15.731  13.872  0.2407 -0.1137 -0.1496
  952BOLB   GL222828   6.786  15.330  13.785 -0.1977  0.1235 -0.3784
  952BOLB   C1A22829   6.438  15.475  14.048  0.1665  0.0084  0.2520
  952BOLB   C2A22830   6.009  15.399  14.053 -0.2053 -0.1325  0.0842
  952BOLB   C3A22831   5.608  15.431  14.057 -0.2614 -0.0581 -0.1855
  952BOLB   C4A22832   5.250  15.623  14.097  0.0902  0.0075 -0.0494
  952BOLB   C1B22833   6.525  15.054  13.674 -0.0473  0.1209 -0.1051
  952BOLB   C2B22834   6.177  14.936  13.472  0.0344 -0.0375 -0.2632
  952BOLB   C3B22835   5.797  14.612  13.566 -0.2933 -0.0929 -0.1213
  952BOLB   C4B22836   5.444  14.434  13.595 -0.1958  0.2075 -0.0319
  952BOLB   NC222837   3.679  16.258  13.162  0.1904  0.4339  0.0394
  952BOLB   PO222838   3.551  15.928  12.909  0.2791 -0.0034  0.0322
  952BOLB   GL322839   3.871  15.948  12.724  0.1549 -0.2475 -0.1824
  952BOLB   GL422840   3.911  15.981  12.464  0.0143 -0.0687 -0.1115
  952BOLB   C1C22841   4.287  16.045  12.830  0.1596 -0.2773  0.0538
  952BOLB   C2C22842   4.444  15.862  13.178  0.0981  0.3518  0.0340
  952BOLB   C3C22843   4.678  15.886  13.571  0.1134 -0.0972 -0.1522
  952BOLB   C4C22844   4.819  15.781  13.870  0.1080  0.1411  0.4031
  952BOLB   C1D22845   4.374  15.675  12.539 -0.0812 -0.1841  0.2009
  952BOLB   C2D22846   4.835  15.916  12.664  0.1811 -0.0092 -0.0212
  952BOLB   C3D22847   5.285  15.819  12.659 -0.2002  0.2274 -0.0880
  952BOLB   C4D22848   5.669  15.651  12.720  0.1440 -0.0732 -0.0605
  953BOLB   NC122849   9.495  15.798  12.327 -0.0362 -0.4593 -0.0580
  953BOLB   PO122850   9.113  15.562  12.211 -0.1327 -0.0530 -0.2443
  953BOLB   GL122851   9.109  15.399  11.791  0.1287 -0.1753  0.1175
  953BOLB   GL222852   9.367  15.278  11.704 -0.0327  0.0942  0.1386
  953BOLB   C1A22853   9.017  15.430  11.288  0.2469 -0.1246 -0.1339
  953BOLB   C2A22854   9.011  15.419  10.820  0.0923 -0.2435 -0.1837
  953BOLB   C3A22855   8.935  15.271  10.421  0.1861 -0.1482  0.1709
  953BOLB   C4A22856   8.856  15.211   9.953 -0.4332  0.3141 -0.1400
  953BOLB   C1B22857   9.467  15.110  11.363  0.2293 -0.1805 -0.0274
  953BOLB   C2B22858   9.288  14.954  10.899  0.0676  0.1084 -0.3595
  953BOLB   C3B22859   8.812  14.886  10.833 -0.1882 -0.1020  0.4124
  953BOLB   C4B22860   8.465  14.696  10.688 -0.0574  0.0508  0.1169
  953BOLB   NC222861   6.997  13.969   7.927 -0.1260 -0.3312  0.3088
  953BOLB   PO222862   7.222  14.369   8.078  0.0869 -0.2863  0.0659
  953BOLB   GL322863   7.346  14.440   8.577  0.3857 -0.1580  0.2745
  953BOLB   GL422864   7.454  14.134   8.834 -0.1837 -0.1275 -0.0553
  953BOLB   C1C22865   7.598  14.648   8.950 -0.1468  0.3969  0.0669
  953BOLB   C2C22866   7.790  14.852   9.372  0.0128 -0.0011  0.2933
  953BOLB   C3C22867   8.204  15.073   9.443  0.1114 -0.1562 -0.0992
  953BOLB   C4C22868   8.645  15.182   9.553  0.1796  0.4587  0.4725
  953BOLB   C1D22869   7.669  13.915   9.055  0.0617 -0.1898 -0.1363
  953BOLB   C2D22870   7.844  14.006   9.515 -0.0426  0.2037 -0.1155
  953BOLB   C3D22871   7.778  14.079   9.986 -0.0541 -0.0350 -0.2441
  953BOLB   C4D22872   7.705  14.338  10.331 -0.2693 -0.1372  0.2744
  954BOLB   NC122873   2.896  19.274  17.196 -0.2478  0.0633  0.1342
  954BOLB   PO122874   2.689  19.070  16.977  0.0874  0.0354  0.0636
  954BOLB   GL122875   3.208  19.163  16.776  0.2849  0.5281 -0.3994
  954BOLB   GL222876   3.080  18.995  16.498  0.3146 -0.1828  0.3169
  954BOLB   C1A22877   3.580  19.203  16.505  0.2432  0.2409  0.1017
  954BOLB   C2A22878   3.760  18.971  16.207  0.2035  0.3083 -0.2042
  954BOLB   C3A22879   3.940  18.757  15.843 -0.0169 -0.0801 -0.0695
  954BOLB   C4A22880   4.201  18.677  15.577  0.0540  0.0426  0.0655
  954BOLB   C1B22881   3.292  18.667  16.764 -0.0541  0.3010 -0.2771
  954BOLB   C2B22882   3.255  18.233  16.921 -0.2718  0.1349  0.4462
  954BOLB   C3B22883   3.519  18.054  17.120  0.0786  0.0467  0.1336
  954BOLB   C4B22884   4.021  18.063  17.227  0.0781  0.0499 -0.1266
  954BOLB   NC222885   2.552  17.601  14.084 -0.1717 -0.0472  0.4860
  954BOLB   PO222886   2.946  17.838  13.988 -0.0920  0.0709  0.1941
  954BOLB   GL322887   3.323  17.844  14.434 -0.1607  0.0273  0.0449
  954BOLB   GL422888   3.668  17.730  14.336  0.0379 -0.1098 -0.2599
  954BOLB   C1C22889   3.603  17.579  14.804  0.4040 -0.0963 -0.3344
  954BOLB   C2C22890   3.752  17.552  15.233 -0.0519 -0.0268 -0.2516
  954BOLB   C3C22891   3.955  17.872  15.519 -0.3419  0.2048  0.1513
  954BOLB   C4C22892   4.202  18.231  15.349  0.1056  0.2044 -0.0062
  954BOLB   C1D22893   3.904  17.801  13.895 -0.1307 -0.0971 -0.0258
  954BOLB   C2D22894   3.800  18.164  13.672 -0.1576 -0.4015 -0.2749
  954BOLB   C3D22895   4.057  18.439  13.480 -0.2366 -0.3649  0.2293
  954BOLB   C4D22896   4.475  18.542  13.252 -0.0644  0.1176  0.2633
  955BOLB   NC122897   7.218  10.862  13.000 -0.1156 -0.2158 -0.1970
  955BOLB   PO122898   7.098  11.311  13.086  0.1865 -0.0289  0.0568
  955BOLB   GL122899   7.154  11.534  12.651  0.1549 -0.0321 -0.1716
  955BOLB   GL222900   7.381  11.522  12.454  0.1867 -0.0572  0.1837
  955BOLB   C1A22901   6.711  11.838  12.564  0.3054  0.0371  0.0861
  955BOLB   C2A22902   6.343  12.116  12.720  0.1165 -0.0189  0.1993
  955BOLB   C3A22903   6.354  12.157  13.079  0.3428 -0.2841 -0.0435
  955BOLB   C4A22904   6.005  12.284  13.307  0.1992 -0.0355 -0.1468
  955BOLB   C1B22905   7.172  11.814  12.244 -0.2535 -0.1140  0.0263
  955BOLB   C2B22906   7.036  12.092  11.888  0.0183  0.1411 -0.1414
  955BOLB   C3B22907   6.683  12.106  11.612  0.0939 -0.2307 -0.1170
  955BOLB   C4B22908   6.238  12.116  11.658 -0.1191 -0.2426 -0.0853
  955BOLB   NC222909   3.873  12.928  12.269  0.3692 -0.0804  0.1685
  955BOLB   PO222910   3.891  13.057  11.863 -0.3342  0.1599 -0.2326
  955BOLB   GL322911   4.308  13.030  12.041 -0.0273  0.0402  0.3197
  955BOLB   GL422912   4.348  13.168  12.376 -0.1224  0.0433  0.0375
  955BOLB   C1C22913   4.619  12.755  12.381 -0.1564 -0.1432  0.3849
  955BOLB   C2C22914   4.787  12.763  12.836  0.4419 -0.1823  0.0979
  955BOLB   C3C22915   5.047  12.530  13.195 -0.2338 -0.0722  0.1292
  955BOLB   C4C22916   5.462  12.366  13.230  0.4410 -0.0140  0.1527
  955BOLB   C1D22917   4.802  13.194  12.245  0.1244  0.2640 -0.0189
  955BOLB   C2D22918   5.061  13.242  12.540 -0.4360  0.0307 -0.0570
  955BOLB   C3D22919   5.417  13.532  12.707 -0.1953  0.1068 -0.1360
  955BOLB   C4D22920   5.880  13.742  12.640  0.2591  0.0082  0.3728
  956BOLB   NC122921   6.865  19.280  13.009  0.1619  0.0259 -0.2034
  956BOLB   PO122922   7.289  19.110  12.921  0.2210  0.0047  0.3946
  956BOLB   GL122923   7.006  18.950  12.567  0.2319 -0.1598  0.0022
  956BOLB   GL222924   7.051  18.676  12.503 -0.0264  0.3737  0.0312
  956BOLB   C1A22925   6.825  19.036  12.088 -0.1504 -0.1871  0.1075
  956BOLB   C2A22926   6.958  19.246  11.713  0.1273 -0.0454  0.0758
  956BOLB   C3A22927   7.003  19.281  11.369  0.2858  0.0041 -0.1485
  956BOLB   C4A22928   6.779  19.109  10.971  0.0790 -0.2057 -0.4641
  956BOLB   C1B22929   6.677  18.618  12.287 -0.0247  0.0913  0.0909
  956BOLB   C2B22930   6.811  18.599  11.882 -0.0069  0.1609 -0.2019
  956BOLB   C3B22931   6.512  18.386  11.494  0.1648 -0.0177 -0.5083
  956BOLB   C4B22932   6.488  18.306  11.035 -0.0519  0.1154  0.3484
  956BOLB   NC222933   6.213  18.577   8.986 -0.2373  0.1298  0.1225
  956BOLB   PO222934   6.500  18.408   8.740 -0.0714 -0.1334 -0.4283
  956BOLB   GL322935   6.635  18.448   9.179 -0.1254  0.4098 -0.0589
  956BOLB   GL422936   6.603  18.789   9.140  0.1697 -0.1755  0.3475
  956BOLB   C1C22937   6.831  18.413   9.690 -0.2148  0.1508  0.1968
  956BOLB   C2C22938   6.912  18.785   9.943 -0.0132  0.2591  0.3082
  956BOLB   C3C22939   7.075  19.094  10.272 -0.0508 -0.1963 -0.2478
  956BOLB   C4C22940   6.807  19.221  10.573 -0.0589  0.1583  0.0169
  956BOLB   C1D22941   6.801  18.901   9.453 -0.4525 -0.0702 -0.2726
  956BOLB   C2D22942   7.066  19.190   9.593  0.1354  0.1886  0.0128
  956BOLB   C3D22943   7.079  19.490   9.982 -0.1717  0.1015 -0.1389
  956BOLB   C4D22944   7.102  20.036  10.024 -0.0201  0.1318 -0.1651
  957BOLB   NC122945   5.513  11.492  14.794  0.3807 -0.0712  0.3093
  957BOLB   PO122946   5.922  11.779  14.497 -0.0930 -0.6324 -0.1023
  957BOLB   GL122947   6.073  12.099  14.543  0.0794 -0.3105 -0.1359
  957BOLB   GL222948   5.775  12.189  14.849 -0.1937 -0.0781  0.2602
  957BOLB   C1A22949   6.197  12.540  14.609  0.0154  0.0948  0.3767
  957BOLB   C2A22950   6.087  12.999  14.673 -0.4056 -0.0607 -0.0155
  957BOLB   C3A22951   5.870  13.339  14.432  0.1923 -0.0093  0.2440
  957BOLB   C4A22952   5.803  13.755  14.332 -0.0898 -0.1478  0.2043
  957BOLB   C1B22953   5.713  12.264  15.290  0.1748 -0.1751 -0.1785
  957BOLB   C2B22954   5.822  12.430  15.605 -0.2681 -0.2650 -0.0174
  957BOLB   C3B22955   5.770  12.833  15.858  0.2681  0.1137 -0.1505
  957BOLB   C4B22956   5.983  13.200  15.933  0.1799  0.1726 -0.1423
  957BOLB   NC222957   3.646  14.381  13.237 -0.0726  0.4078 -0.0115
  957BOLB   PO222958   3.768  14.061  13.615  0.2781  0.1700  0.1443
  957BOLB   GL322959   4.136  14.025  13.867  0.1397 -0.4613 -0.2594
  957BOLB   GL422960   4.014  14.097  14.169  0.0262  0.0533  0.0741
  957BOLB   C1C22961   4.492  13.954  13.637 -0.4418  0.0102  0.1242
  957BOLB   C2C22962   4.890  14.067  13.721 -0.3486  0.0531  0.1103
  957BOLB   C3C22963   5.251  14.071  13.883  0.0165  0.2063 -0.0446
  957BOLB   C4C22964   5.690  14.051  13.957 -0.1184 -0.0529 -0.2848
  957BOLB   C1D22965   4.527  14.268  14.064  0.0616  0.0123 -0.0733
  957BOLB   C2D22966   4.920  14.331  14.159 -0.0406  0.2022  0.0810
  957BOLB   C3D22967   5.335  14.261  14.490  0.2646  0.2074 -0.4132
  957BOLB   C4D22968   5.512  13.860  14.766 -0.0187  0.0222 -0.2794
  958BOLB   NC122969   9.017  20.482  12.209  0.1506 -0.0980 -0.0663
  958BOLB   PO122970   9.270  20.486  11.788  0.1466  0.0564  0.3470
  958BOLB   GL122971   9.249  20.485  11.457 -0.0261  0.0142  0.1774
  958BOLB   GL222972   9.473  20.642  11.301 -0.1925 -0.2940  0.3633
  958BOLB   C1A22973   8.973  20.575  11.171 -0.3341  0.1823 -0.0236
  958BOLB   C2A22974   8.743  20.632  10.761  0.2777 -0.0427 -0.1175
  958BOLB   C3A22975   8.571  20.677  10.364  0.0623 -0.3124 -0.2003
  958BOLB   C4A22976   8.383  20.973  10.015  0.3027 -0.2765 -0.1411
  958BOLB   C1B22977   9.339  20.373  10.912 -0.2757  0.2549 -0.2005
  958BOLB   C2B22978   9.500  20.274  10.524 -0.0749  0.1960 -0.0350
  958BOLB   C3B22979   9.550  20.135  10.131 -0.0374 -0.0894  0.0095
  958BOLB   C4B22980   9.695  20.002   9.789  0.2814  0.0478  0.1228
  958BOLB   NC222981   8.456  21.611   7.875  0.2599  0.2281  0.0275
  958BOLB   PO222982   8.617  21.939   8.110  0.1440 -0.0016 -0.2171
  958BOLB   GL322983   8.847  21.729   8.505  0.3763  0.0647 -0.2149
  958BOLB   GL422984   9.063  21.863   8.479  0.2063 -0.3132 -0.1002
  958BOLB   C1C22985   8.693  21.499   8.945 -0.2004  0.0909  0.0594
  958BOLB   C2C22986   8.694  21.709   9.353  0.2820  0.5261  0.2845
  958BOLB   C3C22987   8.585  21.588   9.693  0.0017 -0.0534  0.2253
  958BOLB   C4C22988   8.449  21.386  10.017  0.3240  0.2246 -0.0772
  958BOLB   C1D22989   9.015  21.972   8.922 -0.1189 -0.1413 -0.2257
  958BOLB   C2D22990   9.018  22.049   9.356 -0.3210  0.0878  0.0255
  958BOLB   C3D22991   9.002  21.812   9.875  0.2859 -0.1815  0.0876
  958BOLB   C4D22992   9.019  21.671  10.314  0.0617  0.1223  0.1638
  959BOLB   NC122993   6.831  12.182  13.868  0.3156 -0.0954 -0.1970
  959BOLB   PO122994   6.673  12.488  13.651  0.0405  0.0987  0.0721
  959BOLB   GL122995   6.624  12.796  13.407  0.0560  0.1594 -0.0005
  959BOLB   GL222996   6.287  12.792  13.249 -0.1615  0.4543 -0.2121
  959BOLB   C1A22997   6.597  13.117  13.028  0.2080  0.0503 -0.3255
  959BOLB   C2A22998   6.297  13.464  12.918 -0.0029  0.3958  0.1601
  959BOLB   C3A22999   5.950  13.702  13.115  0.3887 -0.3861 -0.2954
  959BOLB   C4A23000   5.616  13.952  13.015  0.4013 -0.1704  0.0754
  959BOLB   C1B23001   6.029  13.129  13.183  0.0787  0.0900 -0.1593
  959BOLB   C2B23002   5.799  13.250  12.855  0.2032 -0.3454 -0.1590
  959BOLB   C3B23003   5.504  13.070  12.568 -0.0788  0.5854  0.0167
  959BOLB   C4B23004   5.263  12.744  12.609 -0.1176  0.0807 -0.2510
  959BOLB   NC223005   3.572  14.609  12.477 -0.0711  0.0601  0.0511
  959BOLB   PO223006   3.739  14.584  11.978  0.1551 -0.3163  0.0624
  959BOLB   GL323007   4.093  14.531  11.871  0.0814 -0.2612 -0.0995
  959BOLB   GL423008   4.091  14.369  11.461 -0.0303  0.1227  0.1190
  959BOLB   C1C23009   4.443  14.530  12.125 -0.3822  0.0470 -0.0929
  959BOLB   C2C23010   4.605  14.286  12.427 -0.1289  0.0440 -0.0598
  959BOLB   C3C23011   4.759  13.972  12.700 -0.1057  0.0222  0.3351
  959BOLB   C4C23012   5.154  13.989  12.866 -0.1734  0.1329  0.0485
  959BOLB   C1D23013   4.597  14.429  11.557  0.3548 -0.0198 -0.1102
  959BOLB   C2D23014   4.947  14.389  11.912 -0.4526 -0.0662 -0.2254
  959BOLB   C3D23015   5.165  14.136  12.239 -0.0910  0.2918  0.2470
  959BOLB   C4D23016   5.476  13.856  12.309 -0.2490 -0.0908  0.1589
  960BOLB   NC123017   7.364  13.786  13.720  0.0669 -0.4010  0.1789
  960BOLB   PO123018   7.195  14.084  14.149  0.3161 -0.1297  0.0143
  960BOLB   GL123019   6.814  14.262  14.499 -0.1876 -0.1840  0.1717
  960BOLB   GL223020   6.567  14.378  14.419  0.0878 -0.2273  0.2597
  960BOLB   C1A23021   6.605  14.303  14.894 -0.4209  0.0945 -0.0403
  960BOLB   C2A23022   6.233  14.365  14.967  0.1957  0.1070  0.2893
  960BOLB   C3A23023   5.847  14.658  15.187 -0.1799 -0.0889 -0.2048
  960BOLB   C4A23024   5.605  14.966  15.311  0.5990 -0.0003  0.2370
  960BOLB   C1B23025   6.210  14.648  14.482  0.0144 -0.0904 -0.2959
  960BOLB   C2B23026   5.889  15.040  14.325  0.0417 -0.2989 -0.1018
  960BOLB   C3B23027   5.441  15.037  14.330 -0.0598 -0.1593  0.0051
  960BOLB   C4B23028   5.040  15.221  14.218  0.2450  0.2594 -0.2670
  960BOLB   NC223029   3.311  15.510  16.579  0.1995  0.3952  0.1576
  960BOLB   PO223030   3.441  15.435  16.243  0.3861  0.0889 -0.1150
  960BOLB   GL323031   3.822  15.537  16.165 -0.0542 -0.1341  0.4903
  960BOLB   GL423032   3.767  15.807  15.920  0.1256  0.1381 -0.0153
  960BOLB   C1C23033   4.292  15.417  16.025  0.2664  0.1847  0.2842
  960BOLB   C2C23034   4.735  15.351  15.995 -0.1577  0.2093  0.0798
  960BOLB   C3C23035   5.070  15.406  15.757  0.1846  0.2324  0.3234
  960BOLB   C4C23036   5.368  15.115  15.571 -0.2823  0.3694 -0.1022
  960BOLB   C1D23037   4.176  16.072  15.807  0.3528  0.0654  0.2624
  960BOLB   C2D23038   4.560  15.882  15.806 -0.1577  0.0241 -0.2012
  960BOLB   C3D23039   4.980  15.752  16.103 -0.2318 -0.0004  0.2919
  960BOLB   C4D23040   5.295  15.656  16.404  0.2560  0.2121  0.2434
  961BOLB   NC123041   8.186   7.941  11.091 -0.2772 -0.5225  0.1784
  961BOLB   PO123042   7.999   8.276  11.020 -0.2971 -0.0910 -0.1818
  961BOLB   GL123043   8.112   8.506  10.729  0.2651 -0.1262  0.0343
  961BOLB   GL223044   8.366   8.344  10.597 -0.0912 -0.3302 -0.0066
  961BOLB   C1A23045   8.043   8.856  10.434  0.0971  0.1413 -0.1429
  961BOLB   C2A23046   7.995   9.271  10.506  0.1814  0.0355 -0.2827
  961BOLB   C3A23047   7.856   9.506  10.183  0.2024 -0.3798  0.3007
  961BOLB   C4A23048   7.646   9.785   9.929 -0.1297  0.0491  0.2801
  961BOLB   C1B23049   8.601   8.631  10.338 -0.2626  0.0599 -0.2770
  961BOLB   C2B23050   8.584   8.709   9.950 -0.0793  0.1231 -0.0637
  961BOLB   C3B23051   8.813   8.918   9.658 -0.2238 -0.3215 -0.2243
  961BOLB   C4B23052   8.926   8.889   9.267  0.0145 -0.0024 -0.1435
  961BOLB   NC223053   5.915  10.651   9.130 -0.0162 -0.1265  0.0989
  961BOLB   PO223054   5.975  10.989   8.802  0.1496  0.0566 -0.0457
  961BOLB   GL323055   6.363  11.040   9.167  0.0484  0.2201 -0.4825
  961BOLB   GL423056   6.358  10.637   9.237 -0.0696 -0.1794  0.0614
  961BOLB   C1C23057   6.613  10.967   9.562 -0.0883  0.1764  0.2414
  961BOLB   C2C23058   6.936  10.607   9.711 -0.1743 -0.0423  0.1772
  961BOLB   C3C23059   7.225  10.383   9.737  0.2512  0.1991 -0.2341
  961BOLB   C4C23060   7.502  10.119   9.849  0.0173  0.1022  0.0025
  961BOLB   C1D23061   6.789  10.670   9.242  0.0501 -0.1743  0.0683
  961BOLB   C2D23062   7.192  10.666   9.186  0.4530  0.6449  0.1248
  961BOLB   C3D23063   7.545  10.697   8.882  0.1528 -0.2220 -0.0943
  961BOLB   C4D23064   7.915  10.425   8.679  0.0116 -0.3727 -0.2193
  962BOLB   NC123065   6.157  21.565  12.966  0.0595 -0.1587 -0.1828
  962BOLB   PO123066   6.297  21.176  12.854  0.2929 -0.0595 -0.0523
  962BOLB   GL123067   6.273  21.118  12.385 -0.2452 -0.1244 -0.1019
  962BOLB   GL223068   6.527  21.239  12.275 -0.1854  0.0537 -0.2929
  962BOLB   C1A23069   6.171  20.855  12.077 -0.3079 -0.1732  0.2800
  962BOLB   C2A23070   6.145  20.494  11.753 -0.1366  0.4231 -0.1322
  962BOLB   C3A23071   6.070  20.084  11.501  0.2262 -0.1072 -0.1267
  962BOLB   C4A23072   5.742  19.809  11.403  0.3076  0.1834 -0.2345
  962BOLB   C1B23073   6.834  21.040  12.257 -0.1351  0.2408  0.2963
  962BOLB   C2B23074   6.636  20.766  11.787 -0.3488  0.2850 -0.2159
  962BOLB   C3B23075   6.488  20.488  11.426  0.0613 -0.0258  0.0871
  962BOLB   C4B23076   6.118  20.435  11.128  0.1467 -0.0910 -0.2208
  962BOLB   NC223077   4.493  19.225   9.240  0.0466  0.3571  0.2115
  962BOLB   PO223078   4.418  19.050   9.620 -0.4735 -0.1852  0.2891
  962BOLB   GL323079   4.675  18.880   9.851  0.2425  0.0668 -0.0646
  962BOLB   GL423080   4.966  18.627   9.706  0.0135  0.0464 -0.0696
  962BOLB   C1C23081   5.017  18.905  10.094 -0.0396  0.0509  0.1024
  962BOLB   C2C23082   5.116  19.174  10.473 -0.0435 -0.2726 -0.2110
  962BOLB   C3C23083   5.276  19.389  10.791  0.0306 -0.0571  0.1207
  962BOLB   C4C23084   5.583  19.707  10.953 -0.2791 -0.0126 -0.2655
  962BOLB   C1D23085   4.821  18.414  10.113  0.3259  0.2732  0.2409
  962BOLB   C2D23086   5.089  18.394  10.475 -0.0399 -0.0240  0.2409
  962BOLB   C3D23087   4.948  18.427  10.894  0.1196  0.0386  0.3608
  962BOLB   C4D23088   4.663  18.634  11.221 -0.1517  0.2049 -0.1466
  963BOLB   NC123089   7.420  12.444  13.091 -0.0404  0.1083  0.1574
  963BOLB   PO123090   7.669  12.652  12.873  0.1111  0.1421  0.0157
  963BOLB   GL123091   7.438  12.705  12.619 -0.1117  0.1171 -0.0960
  963BOLB   GL223092   7.351  13.048  12.639  0.2016  0.1577 -0.1211
  963BOLB   C1A23093   7.228  12.485  12.214  0.3356 -0.1915 -0.0170
  963BOLB   C2A23094   6.970  12.638  11.852 -0.1522  0.0508  0.2035
  963BOLB   C3A23095   6.992  12.648  11.450  0.0865 -0.0717 -0.0838
  963BOLB   C4A23096   7.014  12.859  10.957 -0.1534  0.0777 -0.1895
  963BOLB   C1B23097   7.156  12.981  12.277 -0.2184  0.0741 -0.1551
  963BOLB   C2B23098   7.064  13.344  12.082 -0.2236 -0.0049 -0.1334
  963BOLB   C3B23099   6.974  13.678  11.806  0.1759  0.0746  0.4785
  963BOLB   C4B23100   6.682  13.862  11.444 -0.0620 -0.2709  0.2813
  963BOLB   NC223101   6.197  14.283   8.652 -0.0976  0.0674  0.3397
  963BOLB   PO223102   6.364  14.235   9.066 -0.2161  0.2338  0.2997
  963BOLB   GL323103   6.649  13.989   9.407 -0.0402  0.1974  0.1157
  963BOLB   GL423104   6.481  14.067   9.731 -0.1669  0.2657  0.3229
  963BOLB   C1C23105   6.910  13.777   9.675  0.0246 -0.0545 -0.0348
  963BOLB   C2C23106   6.785  13.659  10.082 -0.0398 -0.4578  0.3255
  963BOLB   C3C23107   6.798  13.399  10.387 -0.2198  0.1102  0.1535
  963BOLB   C4C23108   7.065  13.155  10.655  0.4082  0.0193 -0.0158
  963BOLB   C1D23109   6.709  14.129  10.007 -0.1085 -0.0376  0.1768
  963BOLB   C2D23110   6.667  13.972  10.429 -0.2100 -0.0546 -0.0748
  963BOLB   C3D23111   6.764  13.712  10.782  0.0426  0.4456 -0.0768
  963BOLB   C4D23112   7.082  13.624  10.791  0.2211 -0.1100  0.1841
  964BOLB   NC123113   3.595  19.420  14.564  0.2601 -0.3284 -0.3285
  964BOLB   PO123114   3.833  19.849  14.414 -0.0876 -0.1940  0.0311
  964BOLB   GL123115   4.184  19.605  14.520 -0.0424 -0.0612 -0.1695
  964BOLB   GL223116   4.384  19.470  14.375 -0.0514 -0.0466 -0.2290
  964BOLB   C1A23117   4.265  19.204  14.801  0.2358 -0.0251 -0.1071
  964BOLB   C2A23118   4.603  19.175  15.126 -0.0640  0.3663 -0.1250
  964BOLB   C3A23119   4.696  18.845  15.340  0.0950 -0.3816  0.1139
  964BOLB   C4A23120   4.637  18.443  15.422 -0.1285 -0.2699  0.0225
  964BOLB   C1B23121   4.353  19.083  14.221  0.0908 -0.2515  0.2431
  964BOLB   C2B23122   4.234  18.666  14.115  0.2139  0.0814  0.1168
  964BOLB   C3B23123   3.984  18.242  14.241  0.1264  0.1267  0.0619
  964BOLB   C4B23124   3.512  18.148  14.059  0.5596  0.1323 -0.5198
  964BOLB   NC223125   3.049  16.918  15.391  0.3031  0.1386 -0.2218
  964BOLB   PO223126   3.170  16.451  15.611  0.0917  0.2262 -0.0672
  964BOLB   GL323127   3.480  16.741  15.471 -0.0835 -0.1396 -0.1264
  964BOLB   GL423128   3.504  16.945  15.627 -0.0496 -0.1984  0.2658
  964BOLB   C1C23129   3.817  16.859  15.174 -0.0852  0.2432  0.0411
  964BOLB   C2C23130   4.069  17.192  15.228 -0.1414 -0.0460  0.1246
  964BOLB   C3C23131   4.318  17.558  15.272 -0.2820 -0.4778 -0.0997
  964BOLB   C4C23132   4.560  17.931  15.490 -0.0789 -0.2535  0.0168
  964BOLB   C1D23133   3.766  17.280  15.674 -0.0491 -0.2031 -0.2276
  964BOLB   C2D23134   4.183  17.509  15.793  0.2794 -0.2244  0.5765
  964BOLB   C3D23135   4.594  17.657  15.971 -0.0990 -0.0096 -0.2929
  964BOLB   C4D23136   5.073  17.572  16.148 -0.2904  0.1031  0.1078
  965BOLB   NC123137   7.816  17.733  12.303  0.0136 -0.1593  0.2344
  965BOLB   PO123138   8.129  17.602  12.080 -0.0549 -0.2016 -0.1478
  965BOLB   GL123139   7.974  17.682  11.681  0.2942  0.0810  0.0098
  965BOLB   GL223140   8.164  17.414  11.570  0.2827 -0.0808 -0.1907
  965BOLB   C1A23141   7.809  17.616  11.342  0.0756  0.0814 -0.1774
  965BOLB   C2A23142   7.489  17.448  11.028  0.6778  0.2967 -0.0527
  965BOLB   C3A23143   7.216  17.420  10.737  0.0111  0.5590  0.0930
  965BOLB   C4A23144   6.822  17.446  10.615 -0.0291  0.1548 -0.2263
  965BOLB   C1B23145   7.990  17.143  11.204  0.1982  0.2613  0.4061
  965BOLB   C2B23146   7.634  16.929  11.095 -0.1254 -0.1825  0.0956
  965BOLB   C3B23147   7.177  16.814  10.923  0.0003  0.0561 -0.1538
  965BOLB   C4B23148   6.810  16.960  10.762 -0.1559 -0.0936 -0.1051
  965BOLB   NC223149   5.115  16.867   9.901 -0.2550 -0.3112  0.3721
  965BOLB   PO223150   4.819  16.704  10.155  0.1483  0.3324  0.2160
  965BOLB   GL323151   5.324  16.650  10.346  0.1167  0.0739 -0.2564
  965BOLB   GL423152   5.447  16.279  10.378 -0.0465 -0.0531 -0.3216
  965BOLB   C1C23153   5.682  16.728  10.491 -0.2263 -0.1914  0.1880
  965BOLB   C2C23154   6.067  16.932  10.562 -0.0827  0.0414 -0.0252
  965BOLB   C3C23155   6.433  17.129  10.227  0.0491  0.0102 -0.1624
  965BOLB   C4C23156   6.664  17.254  10.358 -0.1031 -0.1819  0.1592
  965BOLB   C1D23157   5.682  16.129  10.687  0.3579 -0.2248  0.1160
  965BOLB   C2D23158   5.793  15.858  10.935 -0.1073 -0.0545 -0.0661
  965BOLB   C3D23159   6.069  15.902  11.351  0.2967 -0.3358 -0.0945
  965BOLB   C4D23160   6.442  15.935  11.534 -0.0788 -0.0154 -0.1994
  966BOLB   NC123161   6.973  22.017  11.966 -0.0187  0.4023 -0.0952
  966BOLB   PO123162   7.336  22.126  12.139 -0.1443 -0.1926 -0.1961
  966BOLB   GL123163   7.581  22.007  11.912 -0.1774 -0.0671  0.1171
  966BOLB   GL223164   7.911  22.075  11.862 -0.0577 -0.3576  0.0527
  966BOLB   C1A23165   7.549  21.590  11.598  0.0211  0.1386 -0.0454
  966BOLB   C2A23166   7.547  21.349  11.297  0.0713  0.0228  0.1888
  966BOLB   C3A23167   7.657  21.368  10.872 -0.0938  0.1024  0.0783
  966BOLB   C4A23168   7.611  21.188  10.441 -0.0206  0.0721  0.1537
  966BOLB   C1B23169   7.832  21.980  11.441 -0.2447 -0.0761  0.1531
  966BOLB   C2B23170   7.551  21.892  11.157  0.1629  0.1649 -0.3809
  966BOLB   C3B23171   7.237  21.911  10.955 -0.4484  0.0692  0.0152
  966BOLB   C4B23172   6.912  21.718  10.702  0.1069 -0.1511 -0.1135
  966BOLB   NC223173   7.163  21.010   8.181  0.2573  0.0001 -0.2300
  966BOLB   PO223174   6.890  21.404   8.149 -0.2586  0.0926 -0.1462
  966BOLB   GL323175   6.961  21.202   8.583 -0.0180  0.0117  0.1033
  966BOLB   GL423176   6.615  21.239   8.739  0.0554  0.0964 -0.2055
  966BOLB   C1C23177   7.232  20.986   8.928  0.1156  0.0395  0.0323
  966BOLB   C2C23178   7.547  20.854   9.357 -0.0208  0.0929 -0.1662
  966BOLB   C3C23179   7.398  20.825   9.791 -0.1844 -0.0027 -0.1641
  966BOLB   C4C23180   7.449  21.004  10.138  0.0540  0.1430 -0.1266
  966BOLB   C1D23181   6.772  20.943   9.075  0.3065  0.1145 -0.1030
  966BOLB   C2D23182   7.037  20.836   9.391 -0.0680 -0.0542  0.1467
  966BOLB   C3D23183   7.235  20.383   9.554  0.0998  0.0548 -0.0983
  966BOLB   C4D23184   7.488  19.987   9.384  0.1417 -0.2161  0.0440
  967BOLB   NC123185   7.369  15.393  14.098  0.3575  0.1385 -0.1860
  967BOLB   PO123186   7.203  15.015  13.937 -0.1438 -0.0333  0.0951
  967BOLB   GL123187   6.959  14.890  13.584 -0.1597 -0.0533  0.0636
  967BOLB   GL223188   7.101  14.774  13.277 -0.0332  0.0117  0.0286
  967BOLB   C1A23189   6.568  14.676  13.346 -0.0205 -0.0903 -0.0580
  967BOLB   C2A23190   6.135  14.543  13.150  0.2269 -0.1249 -0.1586
  967BOLB   C3A23191   5.926  14.707  12.753  0.1162 -0.2654  0.2441
  967BOLB   C4A23192   5.756  14.772  12.310 -0.3020 -0.0401 -0.6417
  967BOLB   C1B23193   7.066  14.619  12.877 -0.1317  0.1250  0.2386
  967BOLB   C2B23194   6.620  14.694  12.701 -0.1994  0.0792  0.1464
  967BOLB   C3B23195   6.340  14.956  12.614 -0.0307 -0.2651  0.4406
  967BOLB   C4B23196   6.299  15.004  12.245  0.2408  0.1146  0.0304
  967BOLB   NC223197   3.848  14.938  11.632 -0.2825 -0.1403  0.1569
  967BOLB   PO223198   4.074  15.246  11.328 -0.0097 -0.1199 -0.0655
  967BOLB   GL323199   4.480  15.426  11.481  0.0578  0.1604 -0.4486
  967BOLB   GL423200   4.707  15.580  11.244  0.1137 -0.1660  0.0755
  967BOLB   C1C23201   4.746  15.566  11.894  0.3021 -0.3575  0.1639
  967BOLB   C2C23202   4.751  15.445  12.291  0.0062  0.2169 -0.0434
  967BOLB   C3C23203   4.933  15.194  12.550 -0.1662 -0.1699 -0.0685
  967BOLB   C4C23204   5.359  14.911  12.313  0.0280 -0.0449  0.0559
  967BOLB   C1D23205   4.946  15.591  11.001 -0.2352 -0.3201  0.0192
  967BOLB   C2D23206   5.347  15.621  11.070  0.0574  0.3948  0.0731
  967BOLB   C3D23207   5.684  15.624  11.366  0.2118  0.1855 -0.4807
  967BOLB   C4D23208   5.707  15.251  11.576  0.3333  0.0396 -0.1482
  968BOLB   NC123209   4.856  12.054  13.780 -0.0220 -0.0356  0.2206
  968BOLB   PO123210   5.059  11.877  14.140  0.2578  0.1656 -0.0144
  968BOLB   GL123211   5.098  12.186  14.503 -0.0180 -0.1544  0.2892
  968BOLB   GL223212   5.195  12.182  14.810 -0.1018 -0.5102 -0.0263
  968BOLB   C1A23213   5.473  12.470  14.530  0.0499  0.2058 -0.1842
  968BOLB   C2A23214   5.676  12.902  14.520 -0.2073  0.1712  0.2136
  968BOLB   C3A23215   5.489  13.194  14.198 -0.1512  0.0835 -0.1883
  968BOLB   C4A23216   5.408  13.507  14.022  0.0771 -0.2271 -0.0945
  968BOLB   C1B23217   5.118  12.358  15.170  0.0165  0.4431 -0.0624
  968BOLB   C2B23218   4.991  12.692  15.339 -0.2395 -0.1781 -0.2439
  968BOLB   C3B23219   5.214  13.128  15.381  0.0879 -0.0873  0.1611
  968BOLB   C4B23220   5.524  13.421  15.425 -0.0328  0.2442 -0.0055
  968BOLB   NC223221   4.231  12.435  14.236  0.2055  0.2214  0.0139
  968BOLB   PO223222   4.102  12.624  14.641  0.4666  0.0103  0.0661
  968BOLB   GL323223   4.405  12.908  14.546  0.1152  0.1922 -0.0831
  968BOLB   GL423224   4.736  12.912  14.345 -0.2030 -0.0040 -0.0365
  968BOLB   C1C23225   4.432  13.293  14.456  0.3797 -0.3897  0.1316
  968BOLB   C2C23226   4.674  13.613  14.633 -0.1929  0.1506  0.0149
  968BOLB   C3C23227   4.923  13.854  14.430  0.1662 -0.4976  0.2900
  968BOLB   C4C23228   5.243  13.826  14.283  0.2282  0.4722  0.0981
  968BOLB   C1D23229   5.108  13.148  14.514  0.0001  0.3741  0.1013
  968BOLB   C2D23230   5.335  13.418  14.611 -0.3537 -0.0262  0.0401
  968BOLB   C3D23231   5.703  13.399  14.909 -0.0752  0.2450 -0.0323
  968BOLB   C4D23232   5.953  13.311  15.164 -0.0357 -0.0300  0.3294
  969BOLB   NC123233   6.133  11.655  14.111 -0.0555  0.2913  0.0094
  969BOLB   PO123234   6.268  11.855  13.868  0.0229 -0.2111  0.0260
  969BOLB   GL123235   5.816  12.072  13.827  0.4419 -0.0441  0.1564
  969BOLB   GL223236   5.709  12.161  14.139 -0.0883  0.1800  0.1712
  969BOLB   C1A23237   5.680  12.530  13.703  0.0201  0.2887  0.0951
  969BOLB   C2A23238   5.544  12.780  13.961  0.1715 -0.1066  0.0486
  969BOLB   C3A23239   5.120  12.874  14.075 -0.1891 -0.1008  0.0580
  969BOLB   C4A23240   4.955  13.278  13.966  0.0613  0.1587  0.3080
  969BOLB   C1B23241   5.862  12.531  14.219 -0.0194  0.2128 -0.0670
  969BOLB   C2B23242   6.006  12.954  14.107 -0.2307  0.0824 -0.3956
  969BOLB   C3B23243   5.903  13.362  13.925  0.1309  0.0692  0.0896
  969BOLB   C4B23244   5.915  13.645  13.579  0.0816 -0.1677 -0.0707
  969BOLB   NC223245   3.032  14.273  14.075 -0.0311  0.2542 -0.2095
  969BOLB   PO223246   3.402  14.442  14.260  0.1031  0.2928 -0.1621
  969BOLB   GL323247   3.766  14.668  14.513  0.4599 -0.2142  0.0792
  969BOLB   GL423248   3.822  14.771  14.244  0.2689 -0.4663 -0.2696
  969BOLB   C1C23249   4.167  14.498  14.539 -0.0159 -0.2826  0.0497
  969BOLB   C2C23250   4.496  14.163  14.539 -0.0223  0.0144  0.0102
  969BOLB   C3C23251   4.458  13.822  14.224  0.1086 -0.4740  0.1987
  969BOLB   C4C23252   4.805  13.648  14.006 -0.0594  0.0562 -0.0324
  969BOLB   C1D23253   4.258  14.675  14.067 -0.0459  0.1366 -0.0810
  969BOLB   C2D23254   4.648  14.587  13.767  0.2104 -0.2611  0.2485
  969BOLB   C3D23255   4.992  14.575  13.479  0.1574  0.1761 -0.2050
  969BOLB   C4D23256   5.308  14.849  13.350  0.2720 -0.0788 -0.1447
  970BOLB   NC123257   5.174  11.290  11.093 -0.1437 -0.0333  0.0776
  970BOLB   PO123258   4.982  11.297  11.444 -0.1345  0.2386  0.0907
  970BOLB   GL123259   5.433  11.307  11.523 -0.4914  0.1001  0.0678
  970BOLB   GL223260   5.762  11.016  11.523 -0.0212 -0.1640 -0.2445
  970BOLB   C1A23261   5.562  11.717  11.576  0.0812 -0.1083  0.0741
  970BOLB   C2A23262   5.764  12.084  11.887  0.1351 -0.0922  0.0323
  970BOLB   C3A23263   5.849  12.438  11.895 -0.1949 -0.1891  0.0844
  970BOLB   C4A23264   6.006  12.740  11.625  0.0489  0.2817  0.1210
  970BOLB   C1B23265   6.088  11.193  11.354  0.0747  0.1395  0.4505
  970BOLB   C2B23266   6.587  11.258  11.445  0.3051  0.0640 -0.0930
  970BOLB   C3B23267   6.608  11.547  11.840 -0.3445  0.1527  0.0882
  970BOLB   C4B23268   6.468  11.921  12.092  0.1316 -0.0783  0.0864
  970BOLB   NC223269   5.024  11.835   9.779 -0.1982 -0.3194 -0.2122
  970BOLB   PO223270   5.361  12.135   9.654 -0.1101  0.1661 -0.4047
  970BOLB   GL323271   5.692  12.414   9.695  0.3473 -0.1431 -0.0310
  970BOLB   GL423272   5.454  12.519   9.954 -0.0497 -0.1846 -0.0284
  970BOLB   C1C23273   5.940  12.623  10.018  0.0531 -0.0294 -0.0640
  970BOLB   C2C23274   6.041  12.706  10.466 -0.1500  0.3013 -0.1365
  970BOLB   C3C23275   6.119  12.880  10.791 -0.2057 -0.3659 -0.2422
  970BOLB   C4C23276   5.977  12.893  11.210  0.0055 -0.0685  0.0951
  970BOLB   C1D23277   5.674  12.334  10.384 -0.2606 -0.3149  0.2483
  970BOLB   C2D23278   5.960  12.188  10.623 -0.1286 -0.3127  0.1703
  970BOLB   C3D23279   6.348  12.267  10.746 -0.2473  0.1870  0.4162
  970BOLB   C4D23280   6.546  12.640  10.510 -0.2311 -0.0848  0.1180
  971BOLB   NC123281   8.057  24.129  12.134  0.1561  0.3241  0.1028
  971BOLB   PO123282   8.274  23.740  12.426 -0.0039 -0.0168 -0.0023
  971BOLB   GL123283   8.538  23.654  12.151  0.0399  0.4902  0.3447
  971BOLB   GL223284   8.414  23.756  11.888 -0.2946 -0.0002  0.3615
  971BOLB   C1A23285   8.717  23.276  11.919 -0.1508 -0.1223 -0.3262
  971BOLB   C2A23286   8.688  23.132  11.514 -0.1957 -0.4531  0.2397
  971BOLB   C3A23287   8.879  22.902  11.325  0.1245  0.2722  0.3416
  971BOLB   C4A23288   8.726  22.817  10.895 -0.3775 -0.2792 -0.0326
  971BOLB   C1B23289   8.783  24.032  11.895  0.1134  0.1854  0.0445
  971BOLB   C2B23290   9.193  24.013  11.771  0.0301 -0.1121 -0.0440
  971BOLB   C3B23291   9.523  24.238  11.649 -0.2604  0.1626 -0.3110
  971BOLB   C4B23292   9.734  24.579  11.448 -0.2925  0.1095  0.0736
  971BOLB   NC223293   9.887  24.126   8.640 -0.1763  0.0216  0.0801
  971BOLB   PO223294   9.638  23.802   8.766 -0.3032 -0.2560 -0.1075
  971BOLB   GL323295   9.508  23.450   8.927  0.2044 -0.4436 -0.1211
  971BOLB   GL423296   9.431  23.115   8.778 -0.1419 -0.0654  0.2904
  971BOLB   C1C23297   9.327  23.121   9.259 -0.1895  0.1132 -0.2309
  971BOLB   C2C23298   9.140  23.075   9.686 -0.4871  0.1481  0.2466
  971BOLB   C3C23299   9.081  22.800  10.073 -0.1018  0.2989 -0.0751
  971BOLB   C4C23300   8.966  22.766  10.491  0.0848 -0.1879 -0.1089
  971BOLB   C1D23301   9.782  22.817   8.927 -0.0976  0.2589 -0.1333
  971BOLB   C2D23302   9.771  22.388   9.018  0.2324 -0.1957  0.1663
  971BOLB   C3D23303   9.777  22.283   9.466 -0.5090 -0.2214 -0.1771
  971BOLB   C4D23304   9.644  22.156   9.924 -0.4222 -0.0698  0.2041
  972BOLB   NC123305   3.246  13.730  17.347 -0.5917 -0.0092  0.2829
  972BOLB   PO123306   3.436  13.852  16.978 -0.0282 -0.0903  0.0470
  972BOLB   GL123307   3.668  14.220  17.057  0.0789  0.1571  0.0684
  972BOLB   GL223308   3.767  14.413  16.825 -0.0127  0.1144 -0.0753
  972BOLB   C1A23309   3.669  14.409  17.427 -0.0300 -0.2145 -0.2563
  972BOLB   C2A23310   3.768  14.662  17.747  0.2875 -0.1690  0.0147
  972BOLB   C3A23311   3.693  15.101  17.859 -0.0162  0.2754  0.2198
  972BOLB   C4A23312   3.729  15.526  17.677 -0.2549 -0.2310 -0.1737
  972BOLB   C1B23313   3.980  14.312  16.446  0.0982  0.0824  0.0318
  972BOLB   C2B23314   4.243  14.003  16.476  0.3059 -0.1876 -0.2117
  972BOLB   C3B23315   4.617  13.985  16.323  0.1565  0.0429  0.1137
  972BOLB   C4B23316   4.828  13.802  15.999  0.0829  0.2611 -0.0770
  972BOLB   NC223317   2.375  16.165  17.462  0.1060 -0.2718 -0.0542
  972BOLB   PO223318   2.609  16.269  17.761 -0.1929 -0.0767  0.0122
  972BOLB   GL323319   2.959  16.459  17.564  0.1518  0.0659  0.0010
  972BOLB   GL423320   3.118  16.216  17.793  0.1556  0.2255 -0.1573
  972BOLB   C1C23321   3.328  16.716  17.408  0.0763  0.2820  0.0459
  972BOLB   C2C23322   3.719  16.845  17.551  0.1828 -0.3746  0.0275
  972BOLB   C3C23323   3.960  16.484  17.598  0.0043 -0.0709 -0.1539
  972BOLB   C4C23324   3.782  16.036  17.692 -0.0908  0.0714  0.1948
  972BOLB   C1D23325   3.442  16.091  18.102 -0.0215 -0.2388 -0.1664
  972BOLB   C2D23326   3.890  16.057  18.268  0.2038  0.0387  0.0323
  972BOLB   C3D23327   4.275  15.827  18.442  0.0817 -0.1529  0.2219
  972BOLB   C4D23328   4.710  15.774  18.349  0.0574  0.5759 -0.2588
  973BOLB   NC123329   3.760  12.444  15.862 -0.1911 -0.1432  0.0827
  973BOLB   PO123330   3.872  12.728  15.478 -0.0900 -0.1079  0.1113
  973BOLB   GL123331   4.271  12.996  15.397  0.1046  0.0908 -0.2147
  973BOLB   GL223332   4.246  12.945  15.019  0.0307 -0.1950 -0.3417
  973BOLB   C1A23333   4.687  13.075  15.417  0.0463 -0.0479  0.3503
  973BOLB   C2A23334   4.853  13.146  15.759 -0.0407 -0.1449 -0.0872
  973BOLB   C3A23335   5.064  13.436  15.819  0.0283 -0.1529 -0.3606
  973BOLB   C4A23336   5.228  13.818  15.716  0.0747  0.0239  0.1245
  973BOLB   C1B23337   4.450  13.436  15.035  0.1316  0.0447  0.0165
  973BOLB   C2B23338   4.506  13.907  15.008 -0.0591  0.2420 -0.0664
  973BOLB   C3B23339   4.541  14.274  15.130  0.3021  0.0636 -0.2964
  973BOLB   C4B23340   4.690  14.571  15.421  0.3822  0.0555 -0.2721
  973BOLB   NC223341   4.298  12.068  15.201  0.0134 -0.0301 -0.1476
  973BOLB   PO223342   4.676  11.993  14.972  0.1272  0.0736 -0.2513
  973BOLB   GL323343   4.604  12.468  14.959  0.0986 -0.0342  0.0134
  973BOLB   GL423344   4.669  12.509  14.645  0.1559 -0.2022 -0.2074
  973BOLB   C1C23345   4.773  12.952  14.905 -0.3131 -0.0505 -0.1519
  973BOLB   C2C23346   4.917  13.270  14.989 -0.0204 -0.0785  0.2558
  973BOLB   C3C23347   5.264  13.573  15.059  0.0696  0.0081 -0.2580
  973BOLB   C4C23348   5.439  13.944  15.307 -0.2758  0.1725 -0.1704
  973BOLB   C1D23349   5.136  12.687  14.739 -0.1698  0.0467 -0.2116
  973BOLB   C2D23350   5.423  12.929  14.920 -0.2306  0.0182 -0.0813
  973BOLB   C3D23351   5.811  12.714  14.946 -0.0658 -0.2964 -0.0205
  973BOLB   C4D23352   6.092  12.578  15.144  0.2096 -0.0795  0.0340
  974BOLB   NC123353   4.606  22.026   9.038 -0.1407  0.0522  0.0366
  974BOLB   PO123354   4.874  21.786   9.359  0.0525  0.1109 -0.0059
  974BOLB   GL123355   5.007  21.654   9.790 -0.3565 -0.2992  0.1427
  974BOLB   GL223356   5.239  21.430   9.874 -0.0683 -0.1302  0.1891
  974BOLB   C1A23357   5.341  21.841  10.109 -0.1022 -0.1170  0.3364
  974BOLB   C2A23358   5.443  21.903  10.530 -0.0232 -0.0499  0.0886
  974BOLB   C3A23359   5.663  21.594  10.816 -0.2686  0.2255 -0.1199
  974BOLB   C4A23360   5.912  21.409  10.979 -0.3625  0.1415  0.2590
  974BOLB   C1B23361   5.563  21.084   9.771 -0.1782  0.1527 -0.4462
  974BOLB   C2B23362   5.997  20.998   9.752 -0.1144  0.0781 -0.2626
  974BOLB   C3B23363   6.316  21.246   9.961  0.1742  0.1453 -0.1270
  974BOLB   C4B23364   6.506  21.373  10.306 -0.1179  0.2392 -0.1335
  974BOLB   NC223365   4.427  21.941  10.475 -0.0126 -0.0526  0.2087
  974BOLB   PO223366   4.462  21.560  10.771 -0.3330 -0.0423 -0.1101
  974BOLB   GL323367   4.759  21.332  10.483  0.0034  0.1586  0.1370
  974BOLB   GL423368   4.948  21.609  10.326  0.0180 -0.1363 -0.0434
  974BOLB   C1C23369   5.215  20.953  10.196 -0.0565 -0.4333  0.0814
  974BOLB   C2C23370   5.661  20.740  10.200  0.0093 -0.1171  0.0754
  974BOLB   C3C23371   6.030  20.932  10.380  0.1414  0.0264  0.0324
  974BOLB   C4C23372   6.165  21.125  10.787  0.0264  0.1612 -0.1927
  974BOLB   C1D23373   5.304  21.427  10.475 -0.0007  0.1475  0.0281
  974BOLB   C2D23374   5.611  21.044  10.608  0.0642 -0.2933  0.0195
  974BOLB   C3D23375   5.867  20.564  10.697 -0.1603  0.0340 -0.0355
  974BOLB   C4D23376   6.047  20.102  10.681 -0.1291 -0.2429 -0.0829
  975BOLB   NC123377   7.669  14.743  13.596  0.1859 -0.4743  0.0855
  975BOLB   PO123378   7.602  15.092  13.534 -0.2777 -0.2079 -0.4352
  975BOLB   GL123379   7.206  15.269  13.296 -0.0135  0.1410  0.0160
  975BOLB   GL223380   7.193  15.499  13.044  0.0714 -0.2629  0.1345
  975BOLB   C1A23381   6.767  15.372  13.278 -0.0381 -0.2431  0.1432
  975BOLB   C2A23382   6.336  15.561  13.145 -0.1047 -0.0381 -0.1020
  975BOLB   C3A23383   6.126  15.519  12.841 -0.1216 -0.1507  0.4649
  975BOLB   C4A23384   5.936  15.232  12.503  0.2303 -0.2831  0.1896
  975BOLB   C1B23385   6.767  15.531  12.763  0.0133  0.0503 -0.3378
  975BOLB   C2B23386   6.489  15.473  12.524 -0.0671  0.0296 -0.0002
  975BOLB   C3B23387   6.248  15.450  12.119 -0.4390  0.1278  0.3579
  975BOLB   C4B23388   6.147  15.476  11.670 -0.2239 -0.1850 -0.1566
  975BOLB   NC223389   4.638  14.323  10.227 -0.0578 -0.0597  0.0550
  975BOLB   PO223390   4.403  14.413  10.419  0.0841 -0.1505 -0.1383
  975BOLB   GL323391   4.725  14.549  10.720 -0.3037 -0.3117  0.0503
  975BOLB   GL423392   5.097  14.671  10.635 -0.0935 -0.2104  0.2703
  975BOLB   C1C23393   4.808  14.683  11.161  0.1891  0.1623 -0.0867
  975BOLB   C2C23394   5.085  14.692  11.499 -0.5016 -0.0361 -0.0454
  975BOLB   C3C23395   5.469  14.831  11.824 -0.0559 -0.0815 -0.1354
  975BOLB   C4C23396   5.809  15.195  12.081  0.0807 -0.1323 -0.2047
  975BOLB   C1D23397   5.468  14.931  10.628  0.2180  0.0331 -0.2117
  975BOLB   C2D23398   5.874  14.842  10.894  0.0825 -0.2064 -0.1062
  975BOLB   C3D23399   6.204  14.623  11.236 -0.1004 -0.0247  0.0537
  975BOLB   C4D23400   6.641  14.764  11.229 -0.1633 -0.0677  0.2264
  976BOLB   NC123401   9.373  12.454  11.884  0.0337 -0.1792  0.2358
  976BOLB   PO123402   8.966  12.774  11.794 -0.0037 -0.1647  0.0719
  976BOLB   GL123403   8.776  12.783  11.407 -0.0989 -0.0749  0.2422
  976BOLB   GL223404   8.719  13.078  11.434  0.1221  0.1907 -0.1283
  976BOLB   C1A23405   8.712  12.840  10.966 -0.2075 -0.2243  0.1621
  976BOLB   C2A23406   8.802  13.175  10.774 -0.1385  0.1373 -0.1923
  976BOLB   C3A23407   8.818  13.373  10.321 -0.0437  0.3796  0.1721
  976BOLB   C4A23408   8.771  13.573   9.950 -0.0439 -0.0969 -0.0132
  976BOLB   C1B23409   9.155  13.057  11.131 -0.2902  0.1271  0.2235
  976BOLB   C2B23410   9.266  12.842  10.845  0.1255 -0.0285 -0.1511
  976BOLB   C3B23411   9.085  12.714  10.398 -0.2648 -0.1965  0.0855
  976BOLB   C4B23412   9.038  12.621   9.986 -0.1745 -0.0509  0.1769
  976BOLB   NC223413   9.967  13.232   7.874  0.4543 -0.0749  0.1957
  976BOLB   PO223414   9.859  13.633   7.940  0.0800  0.0879 -0.1315
  976BOLB   GL323415   9.896  13.614   8.314 -0.3770 -0.0390 -0.1529
  976BOLB   GL423416  10.202  13.564   8.342 -0.1675  0.1611  0.0394
  976BOLB   C1C23417   9.683  13.723   8.747 -0.0200  0.0308 -0.0644
  976BOLB   C2C23418   9.265  13.674   8.808 -0.3261 -0.2227 -0.3732
  976BOLB   C3C23419   8.992  13.372   9.194  0.1478 -0.1291  0.0840
  976BOLB   C4C23420   8.618  13.386   9.517  0.2308  0.0665  0.3220
  976BOLB   C1D23421  10.253  13.599   8.805 -0.0078 -0.1423 -0.2882
  976BOLB   C2D23422  10.057  13.216   8.973 -0.0579 -0.2135  0.4820
  976BOLB   C3D23423   9.976  12.864   8.900 -0.0719 -0.0407 -0.3013
  976BOLB   C4D23424  10.034  12.600   8.514  0.0802  0.1884  0.0620
  977BOLB   NC123425   4.204  20.552   8.865  0.1009  0.0048 -0.0446
  977BOLB   PO123426   4.482  20.350   9.102 -0.1360 -0.4116  0.0210
  977BOLB   GL123427   4.919  20.367   9.374  0.0175  0.2616 -0.0095
  977BOLB   GL223428   5.053  19.943   9.392  0.2872  0.1223 -0.1669
  977BOLB   C1A23429   5.224  20.352   9.708  0.2279  0.2424 -0.0011
  977BOLB   C2A23430   5.437  20.295  10.056  0.1000  0.0332  0.2716
  977BOLB   C3A23431   5.870  20.238  10.194  0.1129 -0.5675  0.0410
  977BOLB   C4A23432   6.321  20.262  10.211  0.3851  0.0167  0.1951
  977BOLB   C1B23433   5.048  19.869   9.833 -0.0911 -0.3127  0.1224
  977BOLB   C2B23434   4.968  20.119  10.159  0.0025  0.1019  0.2445
  977BOLB   C3B23435   5.039  20.430  10.428 -0.1665  0.1533  0.4766
  977BOLB   C4B23436   4.959  20.758  10.645  0.1669  0.3766 -0.2133
  977BOLB   NC223437   5.197  20.678   8.930 -0.1435  0.0233  0.0871
  977BOLB   PO223438   5.565  20.884   8.588  0.0493 -0.1946 -0.2502
  977BOLB   GL323439   5.958  20.988   8.822 -0.1261 -0.1090 -0.2256
  977BOLB   GL423440   6.237  20.770   8.786 -0.2541  0.0674  0.1417
  977BOLB   C1C23441   6.109  20.793   9.235 -0.1636 -0.1996  0.0024
  977BOLB   C2C23442   6.466  20.562   9.422 -0.3479 -0.2116 -0.2262
  977BOLB   C3C23443   6.696  20.300   9.578 -0.0916 -0.0771 -0.1014
  977BOLB   C4C23444   6.630  20.214  10.032 -0.1501  0.1298 -0.0622
  977BOLB   C1D23445   6.495  20.524   8.968 -0.5411  0.0370  0.1778
  977BOLB   C2D23446   6.936  20.390   9.170  0.1729  0.2390 -0.2097
  977BOLB   C3D23447   7.222  20.364   8.916 -0.2023  0.0816 -0.0293
  977BOLB   C4D23448   7.565  20.632   8.781  0.0215  0.1027  0.1600
  978BOLB   NC123449   5.299  11.254  12.273 -0.1051 -0.1211  0.0456
  978BOLB   PO123450   5.782  11.279  12.538  0.0956 -0.0238 -0.1452
  978BOLB   GL123451   5.701  11.658  12.393 -0.2892 -0.1652  0.1119
  978BOLB   GL223452   5.562  11.657  12.122  0.0326 -0.2490  0.0152
  978BOLB   C1A23453   6.018  11.930  12.372  0.0895  0.0757 -0.0387
  978BOLB   C2A23454   6.126  12.364  12.421  0.0727  0.0883 -0.1680
  978BOLB   C3A23455   6.166  12.780  12.237 -0.0533  0.0779  0.0549
  978BOLB   C4A23456   6.058  13.079  11.979  0.3083  0.1564  0.1966
  978BOLB   C1B23457   5.977  11.639  11.880  0.2377 -0.1537 -0.0536
  978BOLB   C2B23458   6.145  11.687  11.500  0.1357 -0.3090 -0.0704
  978BOLB   C3B23459   6.376  11.948  11.202 -0.1298  0.1274  0.2245
  978BOLB   C4B23460   6.696  12.350  11.179  0.2171 -0.1258  0.0124
  978BOLB   NC223461   5.503  12.991   9.782 -0.2658  0.0139 -0.4198
  978BOLB   PO223462   5.829  13.357   9.711  0.1276 -0.1432 -0.1869
  978BOLB   GL323463   5.954  13.177  10.077  0.0461  0.4170  0.3221
  978BOLB   GL423464   5.679  13.240  10.231 -0.0009  0.2609  0.2003
  978BOLB   C1C23465   6.354  13.113  10.383 -0.2268 -0.1731  0.0939
  978BOLB   C2C23466   6.558  13.212  10.785 -0.1628 -0.0893 -0.1621
  978BOLB   C3C23467   6.348  13.303  11.078  0.4520  0.1876  0.1657
  978BOLB   C4C23468   6.098  13.244  11.509 -0.0378  0.0924  0.0685
  978BOLB   C1D23469   5.842  13.391  10.618 -0.0543  0.0304 -0.2793
  978BOLB   C2D23470   5.868  13.450  11.072 -0.0465 -0.0149  0.1550
  978BOLB   C3D23471   5.513  13.595  11.335 -0.1528 -0.0057  0.0501
  978BOLB   C4D23472   5.124  13.596  11.404  0.4847 -0.3981 -0.0285
  979BOLB   NC123473   4.474  21.399  15.410 -0.0015  0.2168 -0.2768
  979BOLB   PO123474   4.250  20.953  15.325 -0.3258  0.0074  0.0205
  979BOLB   GL123475   4.241  20.484  15.200 -0.3234  0.2327  0.1937
  979BOLB   GL223476   4.359  20.230  15.143  0.1530 -0.2761  0.0180
  979BOLB   C1A23477   4.289  20.211  15.641 -0.1588 -0.3396  0.0263
  979BOLB   C2A23478   4.392  19.807  15.906 -0.0738 -0.0189  0.1784
  979BOLB   C3A23479   4.724  19.458  16.024 -0.1356  0.0601 -0.0932
  979BOLB   C4A23480   4.664  19.025  15.927  0.3311 -0.1222 -0.4676
  979BOLB   C1B23481   4.384  19.771  15.317 -0.1706 -0.1495 -0.1859
  979BOLB   C2B23482   4.498  19.333  15.573 -0.0064 -0.5390 -0.0504
  979BOLB   C3B23483   5.055  19.254  15.636  0.0157  0.0328  0.2378
  979BOLB   C4B23484   5.263  19.050  15.981 -0.0072  0.1905  0.1143
  979BOLB   NC223485   2.594  18.342  14.607 -0.3649  0.2570  0.1864
  979BOLB   PO223486   2.943  18.222  14.887  0.0796 -0.0317  0.0426
  979BOLB   GL323487   3.217  18.331  15.153  0.2554  0.1177 -0.1108
  979BOLB   GL423488   3.272  18.658  15.002  0.0435  0.4557  0.0516
  979BOLB   C1C23489   3.495  18.339  15.613 -0.1770  0.1130  0.1835
  979BOLB   C2C23490   3.673  18.219  16.137  0.0376 -0.0205  0.1456
  979BOLB   C3C23491   4.089  18.406  16.286  0.1776 -0.2022 -0.0202
  979BOLB   C4C23492   4.437  18.622  16.042  0.0301 -0.3445 -0.1323
  979BOLB   C1D23493   3.620  18.433  14.966 -0.0439 -0.0305 -0.0429
  979BOLB   C2D23494   3.650  18.124  15.227 -0.0628 -0.1824 -0.2498
  979BOLB   C3D23495   3.356  17.874  15.310 -0.0589  0.0851  0.0581
  979BOLB   C4D23496   3.325  17.526  15.552 -0.0872  0.1065 -0.0252
  980BOLB   NC123497   7.747  16.017  13.015 -0.1113 -0.2357  0.0960
  980BOLB   PO123498   7.896  15.741  12.806 -0.1905 -0.0743 -0.4741
  980BOLB   GL123499   7.679  15.726  12.534 -0.0601 -0.0727  0.5606
  980BOLB   GL223500   7.686  15.412  12.420  0.0749  0.1388  0.1289
  980BOLB   C1A23501   7.231  15.637  12.485 -0.1561 -0.0120 -0.2202
  980BOLB   C2A23502   7.084  16.001  12.234 -0.2383  0.1319  0.0737
  980BOLB   C3A23503   6.803  16.094  11.879 -0.1870  0.1003  0.1396
  980BOLB   C4A23504   6.653  16.323  11.752  0.1010 -0.2527 -0.1640
  980BOLB   C1B23505   7.518  15.637  12.012 -0.0867 -0.2340 -0.1250
  980BOLB   C2B23506   7.237  15.702  11.634 -0.0326  0.2946  0.1169
  980BOLB   C3B23507   6.881  15.683  11.570  0.2024 -0.1573  0.0149
  980BOLB   C4B23508   6.663  15.705  11.153  0.2638  0.0811  0.2096
  980BOLB   NC223509   4.457  16.868  10.664 -0.1925 -0.1113  0.2728
  980BOLB   PO223510   4.267  16.860  11.033  0.1032 -0.2190 -0.0071
  980BOLB   GL323511   4.698  16.671  11.166 -0.0595  0.3007 -0.2029
  980BOLB   GL423512   4.572  16.580  11.438  0.0598 -0.2089 -0.0116
  980BOLB   C1C23513   5.077  16.445  11.254  0.2305 -0.0297 -0.1287
  980BOLB   C2C23514   5.448  16.645  11.335 -0.2489 -0.1044  0.1085
  980BOLB   C3C23515   5.925  16.707  11.416  0.1963  0.0614 -0.0211
  980BOLB   C4C23516   6.325  16.515  11.464 -0.4797 -0.0230  0.3134
  980BOLB   C1D23517   4.921  16.825  11.658  0.0509  0.2465  0.0654
  980BOLB   C2D23518   5.316  17.006  11.777  0.3367 -0.1658 -0.2102
  980BOLB   C3D23519   5.628  17.162  11.708 -0.1462  0.1506 -0.1853
  980BOLB   C4D23520   5.819  17.386  11.398  0.3177 -0.1633  0.1663
  981BOLB   NC123521   6.698   9.560  11.463 -0.3672  0.0500 -0.0984
  981BOLB   PO123522   6.659   9.992  11.205 -0.3318 -0.0947 -0.1537
  981BOLB   GL123523   6.903  10.265  11.224 -0.1410 -0.0736 -0.0793
  981BOLB   GL223524   7.236  10.228  11.396  0.1990  0.2642 -0.0225
  981BOLB   C1A23525   6.714  10.688  11.189  0.1277  0.0628 -0.1843
  981BOLB   C2A23526   6.609  11.080  10.990 -0.0176 -0.0311  0.2647
  981BOLB   C3A23527   6.450  11.538  11.030  0.1349 -0.3969 -0.3626
  981BOLB   C4A23528   6.200  11.756  10.685  0.2241  0.1443 -0.0794
  981BOLB   C1B23529   7.263  10.701  11.307  0.0162  0.0091 -0.0851
  981BOLB   C2B23530   7.123  11.026  11.023 -0.0181  0.4543 -0.0544
  981BOLB   C3B23531   6.991  11.479  10.964  0.0835  0.0549  0.1151
  981BOLB   C4B23532   7.289  11.814  10.870  0.1046 -0.4354 -0.1710
  981BOLB   NC223533   4.397  12.657  11.356 -0.2360 -0.3080 -0.0484
  981BOLB   PO223534   4.169  12.810  10.985 -0.0485 -0.1679  0.0812
  981BOLB   GL323535   4.650  12.794  11.008  0.0894 -0.1194  0.0446
  981BOLB   GL423536   4.821  12.567  10.758  0.1538 -0.5862  0.3182
  981BOLB   C1C23537   5.000  12.452  11.202 -0.0466 -0.2179  0.1655
  981BOLB   C2C23538   5.347  12.164  11.097  0.0387 -0.2064  0.0298
  981BOLB   C3C23539   5.477  12.021  10.749  0.0105 -0.0950  0.2933
  981BOLB   C4C23540   5.739  11.694  10.476  0.1910  0.1511  0.2817
  981BOLB   C1D23541   5.333  12.583  10.768  0.2548 -0.2877 -0.1343
  981BOLB   C2D23542   5.764  12.536  10.906 -0.0297 -0.0494 -0.4845
  981BOLB   C3D23543   6.223  12.469  11.147  0.1217  0.2242 -0.1465
  981BOLB   C4D23544   6.514  12.771  10.977 -0.3660  0.1348  0.2807
  982BOLB   NC123545   6.958   9.184  10.477 -0.2892 -0.1774 -0.1638
  982BOLB   PO123546   7.060   8.828  10.177  0.1027 -0.0992 -0.0309
  982BOLB   GL123547   7.368   9.073  10.025  0.1194 -0.0302  0.5330
  982BOLB   GL223548   7.370   9.402  10.165  0.1661  0.0765  0.1457
  982BOLB   C1A23549   7.788   9.152   9.874  0.0207 -0.1169  0.0773
  982BOLB   C2A23550   8.243   9.185   9.961  0.0737  0.0136 -0.4409
  982BOLB   C3A23551   8.478   9.445  10.159  0.0268 -0.0377 -0.0603
  982BOLB   C4A23552   8.855   9.648  10.194  0.0431 -0.0188  0.1379
  982BOLB   C1B23553   7.415   9.704  10.384  0.2488  0.2012 -0.0050
  982BOLB   C2B23554   7.371  10.091  10.321 -0.1917  0.0297 -0.0374
  982BOLB   C3B23555   7.337  10.554  10.288 -0.1017  0.2623 -0.0321
  982BOLB   C4B23556   7.298  10.844   9.978 -0.0880  0.2525 -0.1415
  982BOLB   NC223557   7.810   8.877   7.858 -0.0352  0.1288  0.0467
  982BOLB   PO223558   8.190   8.918   8.219  0.1124  0.2533  0.0060
  982BOLB   GL323559   8.532   8.950   8.414  0.1374  0.0617  0.3111
  982BOLB   GL423560   8.913   8.951   8.344 -0.3306  0.0401 -0.0205
  982BOLB   C1C23561   8.606   9.090   8.858  0.1343 -0.2744  0.2262
  982BOLB   C2C23562   8.754   9.388   9.204  0.0023 -0.1063 -0.2154
  982BOLB   C3C23563   9.047   9.654   9.412  0.1166  0.1963 -0.1947
  982BOLB   C4C23564   9.083   9.566   9.870  0.1363 -0.2373  0.2056
  982BOLB   C1D23565   9.080   8.941   8.753 -0.0640 -0.1333  0.2599
  982BOLB   C2D23566   9.269   8.648   8.969  0.0908 -0.0427 -0.2125
  982BOLB   C3D23567   9.655   8.428   9.187  0.1959  0.0351 -0.2437
  982BOLB   C4D23568   9.969   8.457   9.333  0.1472  0.4299 -0.2919
  983BOLB   NC123569   6.486  17.763  13.581  0.2315 -0.0320  0.1818
  983BOLB   PO123570   6.614  17.566  13.938 -0.1139  0.1209  0.5187
  983BOLB   GL123571   6.415  17.174  13.997 -0.1559 -0.2388 -0.1362
  983BOLB   GL223572   6.115  17.100  13.743  0.0629  0.3382 -0.3846
  983BOLB   C1A23573   6.363  16.731  14.326 -0.0795  0.2903  0.2494
  983BOLB   C2A23574   6.292  16.239  14.439  0.4389  0.2128  0.2476
  983BOLB   C3A23575   6.317  15.790  14.583 -0.1132 -0.0318  0.3248
  983BOLB   C4A23576   5.968  15.574  14.508  0.2559 -0.3346  0.0095
  983BOLB   C1B23577   5.974  16.669  13.957  0.1580 -0.2776 -0.0981
  983BOLB   C2B23578   5.814  16.343  14.347  0.2323 -0.1223  0.3143
  983BOLB   C3B23579   5.810  16.028  14.575 -0.3709 -0.0744  0.1462
  983BOLB   C4B23580   5.829  15.644  15.004  0.0407 -0.0332 -0.1331
  983BOLB   NC223581   3.640  14.915  14.921  0.1451 -0.1703  0.0614
  983BOLB   PO223582   3.639  15.100  15.267  0.0506  0.3289 -0.0720
  983BOLB   GL323583   4.053  14.941  15.197 -0.1367 -0.6429 -0.1946
  983BOLB   GL423584   4.147  14.967  14.782  0.0861  0.3967  0.0297
  983BOLB   C1C23585   4.560  14.864  15.047 -0.1393 -0.0839 -0.1394
  983BOLB   C2C23586   4.848  15.048  14.724  0.3465  0.1379 -0.3915
  983BOLB   C3C23587   5.068  15.494  14.670 -0.0827  0.0361  0.2020
  983BOLB   C4C23588   5.494  15.565  14.551  0.2775  0.1457  0.0107
  983BOLB   C1D23589   4.327  15.149  14.450  0.0162  0.0616 -0.1125
  983BOLB   C2D23590   4.599  15.496  14.359  0.0128  0.3266 -0.1951
  983BOLB   C3D23591   4.758  15.927  14.467 -0.1515  0.2149 -0.1191
  983BOLB   C4D23592   5.148  16.086  14.589 -0.1691 -0.1330  0.1305
  984BOLB   NC123593   7.119  13.082  14.188  0.5189  0.1690  0.1473
  984BOLB   PO123594   7.292  13.528  14.145 -0.0105  0.1189  0.0673
  984BOLB   GL123595   6.911  13.491  14.351 -0.4795 -0.1177 -0.0113
  984BOLB   GL223596   6.866  13.769  14.469  0.2382 -0.0219 -0.1458
  984BOLB   C1A23597   6.542  13.344  14.611  0.0637  0.0372 -0.1570
  984BOLB   C2A23598   6.333  13.471  14.936  0.0259 -0.1905  0.2293
  984BOLB   C3A23599   6.022  13.813  14.957  0.0537 -0.1992  0.0066
  984BOLB   C4A23600   5.849  14.084  15.110 -0.0243 -0.0044  0.2604
  984BOLB   C1B23601   6.389  13.912  14.505 -0.1045 -0.3478 -0.1214
  984BOLB   C2B23602   5.870  14.187  14.627  0.0128  0.0698 -0.2286
  984BOLB   C3B23603   5.699  14.602  14.693 -0.3007  0.1518 -0.1138
  984BOLB   C4B23604   5.300  14.882  14.787  0.2766  0.3785 -0.1336
  984BOLB   NC223605   3.691  15.643  15.424  0.0980 -0.2477  0.0466
  984BOLB   PO223606   3.770  15.523  14.962  0.0019  0.1594 -0.1215
  984BOLB   GL323607   4.128  15.463  14.844  0.1725 -0.0559 -0.1579
  984BOLB   GL423608   4.202  15.603  14.566 -0.0557 -0.3346 -0.1299
  984BOLB   C1C23609   4.585  15.465  14.945  0.0522  0.1153 -0.0481
  984BOLB   C2C23610   5.002  15.233  15.185 -0.0604  0.2152 -0.0428
  984BOLB   C3C23611   5.163  14.745  15.367  0.0691 -0.4449  0.1971
  984BOLB   C4C23612   5.440  14.402  15.090  0.1293  0.1550  0.1596
  984BOLB   C1D23613   4.304  16.093  14.578 -0.0782  0.0701  0.2101
  984BOLB   C2D23614   4.478  16.491  14.561  0.1235 -0.0205  0.0047
  984BOLB   C3D23615   4.879  16.788  14.402 -0.0579 -0.1861 -0.0809
  984BOLB   C4D23616   5.337  16.959  14.270 -0.0261 -0.0977  0.0910
  985BOLB   NC123617   6.870  17.186  13.782  0.2099 -0.1581  0.3010
  985BOLB   PO123618   6.560  17.261  13.517  0.0223 -0.0911  0.0175
  985BOLB   GL123619   6.112  17.331  13.329 -0.1828  0.3438  0.1924
  985BOLB   GL223620   5.893  17.506  13.610  0.4035 -0.2955  0.0755
  985BOLB   C1A23621   5.705  17.389  13.135  0.1762 -0.0412  0.0801
  985BOLB   C2A23622   5.599  17.679  12.925  0.0798 -0.0151  0.2101
  985BOLB   C3A23623   5.405  17.996  12.750  0.2827  0.1928  0.1233
  985BOLB   C4A23624   5.040  18.189  12.705  0.2295  0.1477 -0.0889
  985BOLB   C1B23625   5.918  17.422  14.067 -0.0131 -0.0495 -0.0501
  985BOLB   C2B23626   5.927  17.031  14.319  0.1873  0.0093  0.6359
  985BOLB   C3B23627   5.668  16.887  14.684 -0.1190  0.2045 -0.0622
  985BOLB   C4B23628   5.262  16.650  14.702  0.0323  0.1538 -0.2759
  985BOLB   NC223629   3.152  17.741  13.470 -0.0857 -0.1634  0.0515
  985BOLB   PO223630   2.961  17.469  13.092 -0.2215  0.1385  0.0760
  985BOLB   GL323631   3.344  17.695  12.832 -0.1453 -0.1225 -0.1223
  985BOLB   GL423632   3.570  17.491  12.578 -0.0518 -0.1052 -0.1684
  985BOLB   C1C23633   3.543  18.023  12.496  0.0484  0.0048  0.0685
  985BOLB   C2C23634   3.936  18.115  12.486  0.0563 -0.1787  0.1359
  985BOLB   C3C23635   4.326  18.354  12.582 -0.1903 -0.0864  0.1171
  985BOLB   C4C23636   4.658  18.341  12.773 -0.1626 -0.1975 -0.3754
  985BOLB   C1D23637   4.006  17.307  12.587 -0.1006 -0.1532 -0.1830
  985BOLB   C2D23638   4.403  17.250  12.564  0.1462 -0.0729 -0.1237
  985BOLB   C3D23639   4.879  17.293  12.546 -0.2191  0.1459 -0.2037
  985BOLB   C4D23640   5.080  17.577  12.887 -0.0969 -0.4653 -0.0801
  986BOLB   NC123641   7.432  17.937  13.701 -0.0658 -0.3615  0.0167
  986BOLB   PO123642   7.184  18.102  13.996  0.2644  0.1097  0.2103
  986BOLB   GL123643   6.790  17.973  14.239  0.1915 -0.0601  0.0228
  986BOLB   GL223644   6.797  17.654  14.407  0.0420 -0.0979  0.0003
  986BOLB   C1A23645   6.376  17.956  14.343  0.1287 -0.1478  0.1406
  986BOLB   C2A23646   6.079  17.769  14.553  0.2956 -0.0206 -0.2717
  986BOLB   C3A23647   5.770  17.726  14.915 -0.0766  0.2456  0.0830
  986BOLB   C4A23648   5.319  17.703  15.135  0.0836 -0.2675 -0.0429
  986BOLB   C1B23649   6.431  17.457  14.602 -0.2419  0.2796 -0.4186
  986BOLB   C2B23650   6.069  17.257  14.765 -0.2952 -0.0443 -0.1699
  986BOLB   C3B23651   5.694  17.288  15.099  0.1495  0.0726 -0.0288
  986BOLB   C4B23652   5.281  17.249  14.951 -0.0338  0.1080 -0.1612
  986BOLB   NC223653   2.811  16.437  16.101  0.4067 -0.0418  0.1833
  986BOLB   PO223654   3.193  16.454  16.372 -0.0077 -0.1452 -0.0512
  986BOLB   GL323655   3.446  16.847  16.337 -0.1031 -0.0507 -0.1315
  986BOLB   GL423656   3.303  17.167  16.222 -0.4459 -0.0639 -0.0113
  986BOLB   C1C23657   3.790  16.797  16.070 -0.0272 -0.3941  0.0373
  986BOLB   C2C23658   4.184  16.974  15.771  0.0130 -0.2911  0.0581
  986BOLB   C3C23659   4.607  17.248  15.727 -0.1691 -0.0566 -0.2055
  986BOLB   C4C23660   5.032  17.473  15.520 -0.1470 -0.3111  0.0021
  986BOLB   C1D23661   3.802  17.279  16.339  0.5073 -0.1412 -0.3506
  986BOLB   C2D23662   4.255  17.313  16.291  0.2016 -0.1245 -0.0869
  986BOLB   C3D23663   4.635  17.319  16.371  0.2466 -0.0041  0.2201
  986BOLB   C4D23664   4.990  17.227  16.496 -0.2729 -0.1285  0.0518
  987BOLB   NC123665   7.952  14.150  12.933 -0.2621 -0.1432  0.1255
  987BOLB   PO123666   8.371  14.163  12.732 -0.2517 -0.1814  0.1377
  987BOLB   GL123667   8.041  14.404  12.488 -0.1449  0.0222  0.1108
  987BOLB   GL223668   7.938  14.677  12.630  0.0950  0.0069 -0.0429
  987BOLB   C1A23669   7.737  14.239  12.180 -0.1672 -0.0335 -0.0172
  987BOLB   C2A23670   7.525  14.477  12.020 -0.0609  0.2360 -0.0364
  987BOLB   C3A23671   7.241  14.677  11.777  0.1794 -0.0448 -0.2734
  987BOLB   C4A23672   7.006  14.436  11.574  0.2999 -0.0489 -0.1826
  987BOLB   C1B23673   7.785  14.907  12.317 -0.0642 -0.1033  0.1157
  987BOLB   C2B23674   7.404  15.043  12.112 -0.2103 -0.0864  0.0012
  987BOLB   C3B23675   7.113  15.325  12.004 -0.0070 -0.2161  0.0417
  987BOLB   C4B23676   6.775  15.596  12.073  0.1662  0.1354  0.0780
  987BOLB   NC223677   6.113  14.382   9.493 -0.1319  0.0434  0.0208
  987BOLB   PO223678   5.632  14.280   9.503 -0.0552 -0.0981 -0.2952
  987BOLB   GL323679   5.968  14.180   9.895 -0.0107 -0.0272  0.0324
  987BOLB   GL423680   5.930  13.831   9.936  0.0722  0.1160 -0.1114
  987BOLB   C1C23681   6.199  14.160  10.271 -0.1420  0.1147 -0.0716
  987BOLB   C2C23682   6.352  14.468  10.578 -0.1652  0.1690 -0.3511
  987BOLB   C3C23683   6.452  14.406  10.945 -0.1781 -0.0573  0.0278
  987BOLB   C4C23684   6.728  14.314  11.276 -0.0809  0.2444  0.1034
  987BOLB   C1D23685   6.276  13.636  10.106 -0.1224  0.0983 -0.1727
  987BOLB   C2D23686   6.328  13.646  10.550 -0.3910 -0.0625 -0.2652
  987BOLB   C3D23687   6.218  13.877  10.983 -0.2177  0.2446  0.0702
  987BOLB   C4D23688   6.091  13.770  11.367  0.2898 -0.0207 -0.0137
  988BOLB   NC123689   8.860  16.514  12.491  0.1893 -0.3194  0.2736
  988BOLB   PO123690   8.644  16.839  12.460 -0.3068  0.0917  0.1193
  988BOLB   GL123691   8.394  16.539  12.368 -0.0705 -0.0955 -0.4277
  988BOLB   GL223692   8.597  16.385  12.089  0.1353 -0.1744 -0.0624
  988BOLB   C1A23693   8.090  16.377  12.017 -0.1109  0.1115  0.0729
  988BOLB   C2A23694   7.853  16.147  11.678 -0.1934 -0.1052  0.0454
  988BOLB   C3A23695   7.615  16.050  11.404  0.0456  0.4241 -0.0317
  988BOLB   C4A23696   7.687  16.039  10.916  0.3352 -0.0441 -0.0413
  988BOLB   C1B23697   8.406  16.111  11.733  0.0716 -0.0215 -0.1256
  988BOLB   C2B23698   8.246  15.924  11.582 -0.0410 -0.0218  0.1127
  988BOLB   C3B23699   8.121  15.746  11.123  0.1614  0.1394  0.3052
  988BOLB   C4B23700   7.992  15.696  10.641  0.2133  0.0517 -0.0958
  988BOLB   NC223701   6.831  16.115   8.265  0.1296  0.1488 -0.1486
  988BOLB   PO223702   7.030  15.916   8.634  0.1613  0.2100  0.0688
  988BOLB   GL323703   7.072  15.972   8.975 -0.0830  0.2813  0.2103
  988BOLB   GL423704   6.986  15.581   9.101  0.1108 -0.0339 -0.2700
  988BOLB   C1C23705   7.234  15.996   9.402  0.2542 -0.2989  0.0084
  988BOLB   C2C23706   7.449  16.152   9.817 -0.2921  0.1006  0.2004
  988BOLB   C3C23707   7.664  15.960  10.190  0.2127  0.0913 -0.1486
  988BOLB   C4C23708   7.534  16.092  10.541  0.1192  0.0494  0.0836
  988BOLB   C1D23709   7.118  15.529   9.537  0.2116 -0.4047  0.1736
  988BOLB   C2D23710   7.292  15.278   9.893  0.1747  0.0926  0.1675
  988BOLB   C3D23711   7.471  15.345  10.331  0.1212 -0.1774  0.1917
  988BOLB   C4D23712   7.442  15.555  10.650  0.0281  0.0072 -0.0494
  989BOLB   NC123713   5.371  21.252  12.730 -0.0394 -0.0514  0.2611
  989BOLB   PO123714   4.966  21.105  12.531  0.2316  0.1449 -0.0113
  989BOLB   GL123715   5.288  20.950  12.344  0.0797 -0.3150  0.0076
  989BOLB   GL223716   5.161  20.805  12.024 -0.1179  0.0341  0.1059
  989BOLB   C1A23717   5.384  20.461  12.390  0.0256 -0.0888 -0.1309
  989BOLB   C2A23718   5.430  20.098  12.096  0.0030  0.0106  0.0596
  989BOLB   C3A23719   5.374  19.762  11.749 -0.0604 -0.2382 -0.1591
  989BOLB   C4A23720   5.538  19.380  11.551 -0.0186 -0.0868 -0.0918
  989BOLB   C1B23721   4.838  20.470  11.980  0.0229  0.1444 -0.0773
  989BOLB   C2B23722   4.958  19.997  12.236 -0.2293  0.3119 -0.2036
  989BOLB   C3B23723   4.794  19.639  12.486 -0.1125 -0.0800 -0.0051
  989BOLB   C4B23724   4.611  19.433  12.786  0.0225  0.0212 -0.3465
  989BOLB   NC223725   4.242  18.590   9.773 -0.0141 -0.0408  0.1154
  989BOLB   PO223726   3.834  18.634  10.104 -0.1177 -0.1081  0.0961
  989BOLB   GL323727   4.041  18.550  10.479  0.4951 -0.0324  0.2689
  989BOLB   GL423728   3.841  18.313  10.525  0.1413 -0.0212  0.2445
  989BOLB   C1C23729   4.489  18.707  10.500  0.2710 -0.1308 -0.0897
  989BOLB   C2C23730   4.799  18.860  10.769  0.2219 -0.2715 -0.2649
  989BOLB   C3C23731   5.162  18.915  10.951 -0.0121  0.1447  0.0797
  989BOLB   C4C23732   5.331  19.144  11.237  0.0219  0.0217 -0.3092
  989BOLB   C1D23733   3.816  18.348  11.007 -0.1681 -0.0832  0.1064
  989BOLB   C2D23734   3.922  18.646  11.299  0.1130 -0.1100 -0.1276
  989BOLB   C3D23735   4.321  18.853  11.462  0.1475  0.0977 -0.1823
  989BOLB   C4D23736   4.691  18.852  11.744  0.0816  0.0512  0.3597
  990BOLB   NC123737   9.188  15.271  12.567  0.0206 -0.0527 -0.2861
  990BOLB   PO123738   9.181  14.898  12.372 -0.2319 -0.0395 -0.3996
  990BOLB   GL123739   8.771  14.856  12.298 -0.1428  0.1443 -0.0670
  990BOLB   GL223740   8.807  15.179  12.152 -0.1946 -0.2108 -0.2194
  990BOLB   C1A23741   8.624  14.786  11.928  0.2006 -0.2300  0.1944
  990BOLB   C2A23742   8.346  14.875  11.564 -0.0841 -0.2487 -0.0841
  990BOLB   C3A23743   8.147  14.791  11.157  0.2526  0.0197 -0.0832
  990BOLB   C4A23744   7.938  14.699  10.747 -0.1937 -0.2290 -0.1614
  990BOLB   C1B23745   8.692  15.194  11.683 -0.1785 -0.0504 -0.1847
  990BOLB   C2B23746   8.525  15.197  11.202 -0.1295 -0.0876 -0.2753
  990BOLB   C3B23747   8.364  15.191  10.783 -0.1473  0.1258 -0.1639
  990BOLB   C4B23748   8.431  15.035  10.311 -0.0602 -0.1336  0.3021
  990BOLB   NC223749   6.597  15.239   9.050 -0.1317  0.0744  0.0040
  990BOLB   PO223750   6.880  14.975   8.856  0.2108  0.2953 -0.2630
  990BOLB   GL323751   7.148  14.706   9.176  0.2681  0.2730 -0.2567
  990BOLB   GL423752   7.255  14.912   9.350  0.0903  0.1598  0.3232
  990BOLB   C1C23753   7.519  14.370   9.350 -0.1375  0.1370  0.0017
  990BOLB   C2C23754   7.742  14.432   9.671  0.3203 -0.0441 -0.0311
  990BOLB   C3C23755   8.044  14.599  10.001  0.0950  0.1495  0.0614
  990BOLB   C4C23756   8.063  14.701  10.406  0.0138 -0.0648 -0.0843
  990BOLB   C1D23757   7.379  14.831   9.681 -0.2942 -0.3824 -0.0589
  990BOLB   C2D23758   7.350  14.492  10.004  0.0899 -0.1958 -0.2810
  990BOLB   C3D23759   7.149  14.196  10.281  0.0884 -0.2685 -0.0081
  990BOLB   C4D23760   7.371  14.011  10.553 -0.1333 -0.1347  0.2980
  991BOLB   NC123761   6.901  18.374  12.897  0.2559  0.2130  0.3478
  991BOLB   PO123762   6.746  18.776  13.115  0.0177 -0.0101  0.3825
  991BOLB   GL123763   6.346  18.734  12.842  0.0212 -0.2910 -0.2739
  991BOLB   GL223764   6.410  18.426  12.802 -0.0933  0.0202  0.4468
  991BOLB   C1A23765   5.948  18.571  12.641 -0.0607 -0.0663  0.0175
  991BOLB   C2A23766   5.872  18.426  12.208 -0.0658  0.3220 -0.0995
  991BOLB   C3A23767   5.910  18.217  11.825 -0.3311 -0.0511 -0.3186
  991BOLB   C4A23768   6.227  17.926  11.580 -0.1935 -0.2019 -0.0955
  991BOLB   C1B23769   6.334  18.238  12.418  0.1677  0.1497 -0.1364
  991BOLB   C2B23770   6.577  17.798  12.321 -0.1792  0.1668 -0.1681
  991BOLB   C3B23771   6.635  17.512  12.051  0.1953  0.0135 -0.4399
  991BOLB   C4B23772   6.852  17.292  11.740 -0.3753 -0.3111  0.4688
  991BOLB   NC223773   5.599  17.037   9.349 -0.0564  0.2749  0.2981
  991BOLB   PO223774   5.437  16.703   9.513  0.0660  0.0374 -0.0282
  991BOLB   GL323775   5.605  17.013   9.834 -0.0408  0.1323  0.1413
  991BOLB   GL423776   5.567  17.058  10.140  0.0471  0.2917  0.2132
  991BOLB   C1C23777   5.951  17.327  10.112 -0.2689  0.2275 -0.0877
  991BOLB   C2C23778   5.894  17.411  10.602 -0.3506  0.2655 -0.0391
  991BOLB   C3C23779   6.086  17.736  10.948 -0.3410 -0.0695 -0.0050
  991BOLB   C4C23780   6.146  17.722  11.273  0.0456 -0.1068 -0.0452
  991BOLB   C1D23781   5.386  17.112  10.589  0.0536  0.0790 -0.0545
  991BOLB   C2D23782   5.659  17.064  10.995  0.0372  0.5382  0.2065
  991BOLB   C3D23783   6.103  17.166  11.061 -0.1759  0.3969 -0.2708
  991BOLB   C4D23784   6.500  17.312  10.961  0.2244 -0.0754 -0.1457
  992BOLB   NC123785   8.554  13.574  12.854  0.4194  0.1073  0.1101
  992BOLB   PO123786   8.512  13.770  12.445  0.0795  0.3625 -0.2942
  992BOLB   GL123787   8.085  13.962  12.299  0.2151  0.2328  0.1377
  992BOLB   GL223788   7.745  13.936  12.569 -0.3561  0.2543  0.4081
  992BOLB   C1A23789   7.803  13.735  12.125 -0.0548  0.0303  0.4134
  992BOLB   C2A23790   7.437  13.842  12.054 -0.0507  0.0251 -0.0346
  992BOLB   C3A23791   7.107  14.082  12.019 -0.0041  0.2188 -0.0508
  992BOLB   C4A23792   6.618  14.053  11.961  0.0286 -0.2561  0.0802
  992BOLB   C1B23793   7.321  14.124  12.425  0.1796  0.3402 -0.1494
  992BOLB   C2B23794   6.880  14.237  12.463  0.1943  0.2334 -0.3262
  992BOLB   C3B23795   6.376  14.327  12.495  0.1197  0.2557  0.2289
  992BOLB   C4B23796   6.084  14.173  12.120  0.3450  0.2511 -0.0582
  992BOLB   NC223797   5.463  14.009   9.846  0.0044 -0.3846  0.0077
  992BOLB   PO223798   5.116  14.262  10.077 -0.0298 -0.0880 -0.3035
  992BOLB   GL323799   5.135  14.061  10.559  0.2546  0.1479 -0.5014
  992BOLB   GL423800   4.811  13.991  10.557  0.1764  0.0096  0.1720
  992BOLB   C1C23801   5.297  14.063  10.908 -0.0856 -0.3428  0.0050
  992BOLB   C2C23802   5.626  14.053  11.132  0.0402 -0.0610 -0.2551
  992BOLB   C3C23803   5.941  14.200  11.393 -0.1319 -0.1239  0.1941
  992BOLB   C4C23804   6.339  14.233  11.623  0.2098  0.1656 -0.1045
  992BOLB   C1D23805   4.851  14.164  11.041  0.1102 -0.1209 -0.0223
  992BOLB   C2D23806   5.133  14.228  11.332 -0.1516  0.2667 -0.1419
  992BOLB   C3D23807   5.405  14.360  11.603 -0.1101 -0.2945  0.0974
  992BOLB   C4D23808   5.565  14.283  12.050 -0.1886  0.1094  0.1020
  993BOLB   NC123809   7.931  16.734  13.442  0.0624 -0.2735 -0.0157
  993BOLB   PO123810   7.671  16.413  13.405 -0.0413 -0.0689 -0.1942
  993BOLB   GL123811   7.247  16.310  13.343 -0.4679 -0.3639 -0.0826
  993BOLB   GL223812   7.190  16.157  13.035  0.1178  0.0620  0.0623
  993BOLB   C1A23813   6.774  16.393  13.188 -0.1395 -0.2935  0.0289
  993BOLB   C2A23814   6.405  16.563  13.263 -0.0669 -0.1798  0.2342
  993BOLB   C3A23815   6.071  16.853  13.188 -0.2529 -0.0739  0.1325
  993BOLB   C4A23816   5.703  16.935  13.423  0.1373  0.2871  0.2275
  993BOLB   C1B23817   7.015  15.977  12.737  0.0804 -0.1775  0.0435
  993BOLB   C2B23818   6.642  15.975  12.463 -0.1140  0.2335 -0.1885
  993BOLB   C3B23819   6.346  15.972  12.111 -0.3043 -0.0659  0.4321
  993BOLB   C4B23820   5.958  15.995  11.849  0.1648  0.0894 -0.0489
  993BOLB   NC223821   3.055  17.334  14.077 -0.1285 -0.2467 -0.3838
  993BOLB   PO223822   3.341  16.980  13.974 -0.1664  0.1621 -0.3065
  993BOLB   GL323823   3.776  16.865  13.862  0.0813 -0.1414 -0.2013
  993BOLB   GL423824   4.000  16.503  13.755  0.0394  0.2295 -0.0618
  993BOLB   C1C23825   4.150  17.046  13.669  0.1362  0.0810  0.0362
  993BOLB   C2C23826   4.530  17.077  13.559  0.2062  0.1271  0.2209
  993BOLB   C3C23827   4.927  16.825  13.780  0.0340  0.3318 -0.2459
  993BOLB   C4C23828   5.275  16.947  13.724 -0.0616  0.0285 -0.0468
  993BOLB   C1D23829   4.371  16.655  13.827 -0.2945 -0.2407 -0.0720
  993BOLB   C2D23830   4.637  16.397  13.655 -0.1244  0.2452  0.0378
  993BOLB   C3D23831   5.018  16.312  13.644  0.0428 -0.1066  0.2348
  993BOLB   C4D23832   5.283  16.012  13.674 -0.0880  0.1028  0.1006
  994BOLB   NC123833   3.424  19.248  15.176  0.3617 -0.0056  0.2101
  994BOLB   PO123834   3.273  19.072  14.722 -0.1190 -0.1577 -0.0277
  994BOLB   GL123835   3.497  18.768  14.497 -0.3466  0.0713 -0.2204
  994BOLB   GL223836   3.502  18.339  14.512  0.0644 -0.2598 -0.4240
  994BOLB   C1A23837   3.692  18.648  14.115  0.3555 -0.0433 -0.4575
  994BOLB   C2A23838   3.759  18.700  13.662 -0.3689  0.2243 -0.1890
  994BOLB   C3A23839   3.821  18.825  13.273  0.1635 -0.0961  0.0001
  994BOLB   C4A23840   4.093  18.731  13.067  0.2741 -0.1271 -0.0253
  994BOLB   C1B23841   3.763  18.031  14.701  0.0582 -0.0170  0.0519
  994BOLB   C2B23842   4.026  17.937  14.982  0.1528 -0.1462  0.1164
  994BOLB   C3B23843   4.492  17.941  15.018  0.1665 -0.2753  0.0632
  994BOLB   C4B23844   4.932  18.136  15.016  0.5819 -0.1593  0.0008
  994BOLB   NC223845   2.472  17.999  11.633 -0.0031 -0.1434  0.1344
  994BOLB   PO223846   2.660  18.311  11.812  0.2623  0.0109 -0.1577
  994BOLB   GL323847   3.063  18.464  11.786  0.1528 -0.0605  0.1377
  994BOLB   GL423848   3.236  18.330  11.634 -0.0233  0.1234 -0.1059
  994BOLB   C1C23849   3.474  18.318  12.109  0.1245 -0.1092  0.1094
  994BOLB   C2C23850   3.747  18.581  12.354 -0.2526 -0.0822  0.0183
  994BOLB   C3C23851   4.130  18.784  12.427 -0.1411 -0.2016  0.0230
  994BOLB   C4C23852   4.381  18.835  12.768  0.0453 -0.0133 -0.1518
  994BOLB   C1D23853   3.640  18.602  11.739  0.0831  0.3051  0.2064
  994BOLB   C2D23854   4.043  18.707  11.924 -0.1451 -0.0201 -0.1128
  994BOLB   C3D23855   4.380  18.558  12.005  0.0518  0.0416 -0.2746
  994BOLB   C4D23856   4.598  18.838  12.295  0.2526  0.3726  0.0424
  995BOLB   NC123857   7.699  15.375  13.158 -0.3710  0.2453  0.1330
  995BOLB   PO123858   7.914  14.945  13.155  0.2448 -0.4080  0.0075
  995BOLB   GL123859   7.433  15.008  12.965  0.3023 -0.2636  0.1192
  995BOLB   GL223860   7.529  15.053  12.681  0.0031  0.0240  0.0131
  995BOLB   C1A23861   6.878  15.085  12.899  0.1434  0.1397 -0.0751
  995BOLB   C2A23862   6.420  15.113  13.035 -0.0224  0.0833  0.1981
  995BOLB   C3A23863   5.962  15.066  13.048  0.0155  0.1957 -0.2881
  995BOLB   C4A23864   5.671  15.211  13.311  0.2820 -0.1701  0.1982
  995BOLB   C1B23865   7.141  15.135  12.521 -0.0671 -0.2564  0.5727
  995BOLB   C2B23866   6.791  15.099  12.326  0.2573  0.0926  0.0391
  995BOLB   C3B23867   6.622  15.145  11.936  0.1864  0.0807 -0.0033
  995BOLB   C4B23868   6.342  14.954  11.727  0.1448 -0.0353 -0.0082
  995BOLB   NC223869   3.732  15.452  12.732  0.0727  0.0834 -0.0883
  995BOLB   PO223870   3.747  15.067  12.575 -0.0591 -0.0846  0.0354
  995BOLB   GL323871   4.083  15.042  12.854 -0.0494  0.0905  0.1205
  995BOLB   GL423872   3.881  14.806  13.105 -0.3280  0.0559 -0.1312
  995BOLB   C1C23873   4.375  15.253  13.021  0.3374  0.1942 -0.1385
  995BOLB   C2C23874   4.714  15.477  12.879  0.1887 -0.2126  0.3473
  995BOLB   C3C23875   5.073  15.506  13.067  0.0244 -0.3840 -0.1343
  995BOLB   C4C23876   5.369  15.396  13.162 -0.3210  0.0785 -0.2552
  995BOLB   C1D23877   4.312  14.725  13.118 -0.0574 -0.0447 -0.1518
  995BOLB   C2D23878   4.718  14.885  13.080 -0.5652  0.2316  0.0874
  995BOLB   C3D23879   5.003  14.998  13.032 -0.1739 -0.0667  0.4135
  995BOLB   C4D23880   5.434  14.959  12.849  0.5850  0.0263  0.4000
  996BOLB   NC123881   5.348  22.671  10.954  0.4247 -0.2337 -0.4448
  996BOLB   PO123882   5.297  22.251  11.067 -0.2375 -0.1750  0.1082
  996BOLB   GL123883   5.547  21.936  11.342 -0.3458 -0.1240 -0.1357
  996BOLB   GL223884   5.979  21.918  11.348 -0.2103  0.0647  0.0826
  996BOLB   C1A23885   5.585  21.473  11.332 -0.2357 -0.1292 -0.2391
  996BOLB   C2A23886   5.509  21.047  11.102  0.3996 -0.3049 -0.0753
  996BOLB   C3A23887   5.401  20.584  10.911 -0.0224  0.0429  0.1004
  996BOLB   C4A23888   5.392  20.099  10.772  0.2687  0.1590 -0.2742
  996BOLB   C1B23889   6.065  21.475  11.415 -0.1503 -0.1043 -0.0683
  996BOLB   C2B23890   5.990  21.009  11.324  0.2487 -0.0662  0.0583
  996BOLB   C3B23891   5.783  20.632  11.457  0.0376  0.0394 -0.0319
  996BOLB   C4B23892   5.688  20.260  11.170  0.3228  0.0371  0.3558
  996BOLB   NC223893   3.602  19.456  10.816  0.2309  0.0865  0.0448
  996BOLB   PO223894   3.842  19.804  10.770  0.1206 -0.0500  0.0391
  996BOLB   GL323895   4.153  19.429  10.897 -0.1906 -0.0799 -0.0614
  996BOLB   GL423896   4.029  19.176  11.067  0.2067 -0.2408  0.1557
  996BOLB   C1C23897   4.442  19.200  10.672  0.0423  0.0540 -0.1786
  996BOLB   C2C23898   4.671  19.393  10.448  0.1067 -0.0433 -0.3279
  996BOLB   C3C23899   4.851  19.654  10.332  0.3229 -0.3966  0.1183
  996BOLB   C4C23900   5.336  19.796  10.489  0.1378 -0.1543 -0.1608
  996BOLB   C1D23901   4.151  18.755  10.900  0.1205 -0.1141  0.0037
  996BOLB   C2D23902   4.418  18.341  10.800  0.3646 -0.0545  0.0740
  996BOLB   C3D23903   4.614  18.149  10.565 -0.2766  0.1093  0.0591
  996BOLB   C4D23904   4.943  17.903  10.261  0.2010 -0.0895 -0.0667
  997BOLB   NC123905   6.192  19.566  13.588 -0.1568  0.0766  0.0489
  997BOLB   PO123906   6.286  19.824  13.314  0.3504 -0.0043 -0.1448
  997BOLB   GL123907   6.240  19.843  12.901 -0.0667  0.1115  0.0702
  997BOLB   GL223908   6.149  20.110  12.665 -0.1088  0.0425  0.1810
  997BOLB   C1A23909   6.342  19.708  12.452  0.5569 -0.1345  0.0996
  997BOLB   C2A23910   6.391  19.353  12.148 -0.3185 -0.2302 -0.2867
  997BOLB   C3A23911   6.331  19.142  11.772 -0.0097 -0.2301 -0.0382
  997BOLB   C4A23912   6.558  18.944  11.605 -0.0750 -0.0378 -0.2654
  997BOLB   C1B23913   5.838  20.032  12.349 -0.0258  0.4134 -0.2055
  997BOLB   C2B23914   5.760  19.693  12.110  0.2145 -0.0657  0.2707
  997BOLB   C3B23915   5.859  19.250  11.948 -0.1017 -0.2283  0.0938
  997BOLB   C4B23916   5.842  19.030  11.649  0.2736  0.4713 -0.1229
  997BOLB   NC223917   5.836  19.351   9.039  0.2677 -0.1479 -0.0924
  997BOLB   PO223918   5.874  18.866   9.168  0.1682 -0.0593 -0.0209
  997BOLB   GL323919   6.166  18.737   9.413 -0.1538  0.1209 -0.0916
  997BOLB   GL423920   6.291  18.355   9.528  0.3213 -0.0174  0.2974
  997BOLB   C1C23921   6.436  18.751   9.791 -0.1958  0.3245 -0.0075
  997BOLB   C2C23922   6.380  18.743  10.223  0.2516 -0.0256  0.2916
  997BOLB   C3C23923   6.415  18.662  10.717  0.2638  0.0073 -0.2718
  997BOLB   C4C23924   6.562  18.732  11.163 -0.1218 -0.0354 -0.1492
  997BOLB   C1D23925   6.380  18.252   9.978  0.0120 -0.1089  0.1790
  997BOLB   C2D23926   6.272  18.172  10.407  0.2338  0.0696 -0.0806
  997BOLB   C3D23927   6.030  18.234  10.843 -0.0778  0.0788  0.0959
  997BOLB   C4D23928   5.957  18.321  11.326  0.0479  0.0034 -0.1087
  998BOLB   NC123929   2.649  19.288  15.694 -0.1649 -0.0732 -0.3348
  998BOLB   PO123930   2.987  19.117  15.481 -0.2264  0.0018 -0.0628
  998BOLB   GL123931   3.330  18.948  15.635 -0.1731  0.2045 -0.2980
  998BOLB   GL223932   3.372  18.865  15.950 -0.2425  0.0822  0.0193
  998BOLB   C1A23933   3.766  18.699  15.418  0.2943  0.3340  0.3965
  998BOLB   C2A23934   4.188  18.668  15.073 -0.1223  0.1333  0.1468
  998BOLB   C3A23935   4.282  18.370  14.875  0.1012  0.0580 -0.0247
  998BOLB   C4A23936   4.361  18.067  14.504 -0.0298  0.1393  0.0471
  998BOLB   C1B23937   3.286  18.549  16.229 -0.0723 -0.4339  0.1078
  998BOLB   C2B23938   3.293  18.133  16.456 -0.2885  0.0897  0.0145
  998BOLB   C3B23939   3.275  17.747  16.803  0.3531 -0.1904  0.0832
  998BOLB   C4B23940   3.479  17.399  16.753 -0.0034  0.0260  0.2999
  998BOLB   NC223941   3.217  17.003  12.968  0.2013  0.0278  0.0995
  998BOLB   PO223942   3.374  16.637  12.993  0.0053 -0.0679 -0.0123
  998BOLB   GL323943   3.737  16.926  12.930 -0.1636  0.1044 -0.0079
  998BOLB   GL423944   4.000  16.710  13.058  0.2883  0.0067  0.0485
  998BOLB   C1C23945   4.056  17.209  13.155  0.0742 -0.0200 -0.3262
  998BOLB   C2C23946   4.213  17.510  13.467  0.1044 -0.1823 -0.1057
  998BOLB   C3C23947   4.371  17.501  13.890 -0.3562 -0.0195  0.0744
  998BOLB   C4C23948   4.288  17.778  14.299  0.1484 -0.1618 -0.0005
  998BOLB   C1D23949   4.317  16.351  13.270 -0.0346  0.2295 -0.0425
  998BOLB   C2D23950   4.808  16.206  13.203  0.1451 -0.0480  0.3979
  998BOLB   C3D23951   5.217  16.006  13.155  0.1518  0.0635 -0.0081
  998BOLB   C4D23952   5.543  15.894  13.137 -0.2820  0.4322 -0.2423
  999BOLB   NC123953   7.631  19.456  12.930  0.1786 -0.0995 -0.1161
  999BOLB   PO123954   7.738  19.691  12.441  0.0566 -0.2122  0.2480
  999BOLB   GL123955   7.782  19.785  12.002 -0.4813  0.2408  0.1779
  999BOLB   GL223956   7.829  20.183  11.982  0.2055  0.0888 -0.2165
  999BOLB   C1A23957   7.639  19.774  11.601  0.0501 -0.1427 -0.1258
  999BOLB   C2A23958   7.535  19.901  11.094 -0.1105  0.1593  0.0622
  999BOLB   C3A23959   7.401  19.869  10.758  0.1953 -0.1263  0.3197
  999BOLB   C4A23960   7.388  19.690  10.292 -0.0578 -0.0261  0.1257
  999BOLB   C1B23961   7.478  20.188  11.688 -0.1216 -0.4449 -0.0633
  999BOLB   C2B23962   7.405  20.307  11.333  0.1802 -0.1817 -0.1009
  999BOLB   C3B23963   7.283  20.313  10.952 -0.0904  0.0282  0.1392
  999BOLB   C4B23964   7.099  20.250  10.543  0.1513  0.0819  0.0252
  999BOLB   NC223965   7.345  18.987   7.955  0.0946  0.3820  0.2015
  999BOLB   PO223966   7.178  18.631   7.972 -0.2754 -0.3161  0.2303
  999BOLB   GL323967   7.247  18.807   8.454  0.0126  0.1702  0.2491
  999BOLB   GL423968   6.932  18.690   8.662  0.2452  0.2624  0.0355
  999BOLB   C1C23969   7.589  18.944   8.864 -0.1029 -0.0212 -0.1800
  999BOLB   C2C23970   7.599  19.135   9.309 -0.0364 -0.1377 -0.1646
  999BOLB   C3C23971   7.478  19.527   9.565  0.1892  0.1635 -0.0804
  999BOLB   C4C23972   7.556  19.707   9.936  0.2372 -0.2842 -0.1463
  999BOLB   C1D23973   7.100  18.667   9.113 -0.0927  0.0831 -0.3283
  999BOLB   C2D23974   7.276  18.762   9.541 -0.0503 -0.2191  0.0422
  999BOLB   C3D23975   7.493  19.116   9.861 -0.0944  0.1296 -0.0969
  999BOLB   C4D23976   7.576  19.196  10.264 -0.0747 -0.2723  0.3496
 1000BOLB   NC123977   7.528  17.778  14.218 -0.2359 -0.1178 -0.2520
 1000BOLB   PO123978   7.648  17.282  14.270  0.1157 -0.1593  0.3973
 1000BOLB   GL123979   7.446  17.436  14.697  0.1195  0.1918 -0.2167
 1000BOLB   GL223980   7.515  17.697  14.698  0.1321  0.3285 -0.1324
 1000BOLB   C1A23981   6.904  17.269  14.806 -0.3503  0.1584 -0.3519
 1000BOLB   C2A23982   6.590  17.255  15.029 -0.0727 -0.1224 -0.0110
 1000BOLB   C3A23983   6.201  16.947  15.145 -0.1455  0.0531 -0.0908
 1000BOLB   C4A23984   5.766  16.830  15.388  0.0287 -0.1491  0.0480
 1000BOLB   C1B23985   7.056  17.742  14.844 -0.1331  0.2411 -0.2010
 1000BOLB   C2B23986   6.560  17.797  14.957  0.3278  0.0132 -0.1595
 1000BOLB   C3B23987   6.159  18.011  14.983  0.2075  0.0713 -0.1623
 1000BOLB   C4B23988   5.825  18.150  14.695  0.1540 -0.0312 -0.1813
 1000BOLB   NC223989   3.323  15.500  15.792  0.1286  0.0855 -0.0083
 1000BOLB   PO223990   3.244  15.935  15.556  0.0085 -0.1370  0.0073
 1000BOLB   GL323991   3.596  16.228  15.667  0.1872  0.2231 -0.0474
 1000BOLB   GL423992   3.501  16.381  16.009  0.1259  0.0639  0.2177
 1000BOLB   C1C23993   4.015  16.552  15.632 -0.2447  0.1253 -0.2692
 1000BOLB   C2C23994   4.581  16.665  15.599  0.0486 -0.0873 -0.2950
 1000BOLB   C3C23995   4.912  16.968  15.463  0.1565  0.1616  0.0545
 1000BOLB   C4C23996   5.263  16.771  15.293  0.0466 -0.1654  0.0679
 1000BOLB   C1D23997   3.963  16.304  16.213 -0.0382 -0.1057 -0.1491
 1000BOLB   C2D23998   4.186  15.886  16.231 -0.1648  0.3142  0.1732
 1000BOLB   C3D23999   4.541  15.647  16.373  0.1119 -0.1876 -0.0603
 1000BOLB   C4D24000   4.906  15.368  16.512  0.0400  0.0711  0.0116
 1001BOLB   NC124001   7.650  21.724  12.314  0.0458 -0.1418  0.0744
 1001BOLB   PO124002   8.012  21.598  12.098  0.4030  0.3427 -0.2285
 1001BOLB   GL124003   7.991  21.449  11.676  0.0754 -0.4758  0.1839
 1001BOLB   GL224004   7.862  21.143  11.650 -0.4859 -0.3368  0.2250
 1001BOLB   C1A24005   8.041  21.579  11.253  0.0245  0.1818  0.0723
 1001BOLB   C2A24006   8.466  21.521  11.067 -0.2166  0.0479  0.2558
 1001BOLB   C3A24007   8.693  21.130  10.969 -0.2420  0.0661  0.4018
 1001BOLB   C4A24008   8.882  21.128  10.565  0.0915 -0.0239 -0.1194
 1001BOLB   C1B24009   7.935  21.093  11.224 -0.3112  0.0144 -0.1312
 1001BOLB   C2B24010   8.138  21.253  10.849  0.0017  0.2644  0.1467
 1001BOLB   C3B24011   8.183  21.046  10.450 -0.1533  0.3250  0.0931
 1001BOLB   C4B24012   7.916  21.253  10.053 -0.1127 -0.2441 -0.2273
 1001BOLB   NC224013   8.021  20.992   8.058  0.0882  0.1736 -0.0060
 1001BOLB   PO224014   8.517  20.849   8.207 -0.1488  0.1662 -0.0118
 1001BOLB   GL324015   8.635  20.972   8.608 -0.3708  0.0071 -0.1594
 1001BOLB   GL424016   8.499  20.669   8.685 -0.0315 -0.1219  0.0526
 1001BOLB   C1C24017   8.849  20.979   9.001 -0.3608  0.0969 -0.1682
 1001BOLB   C2C24018   8.950  21.270   9.406  0.2639 -0.2395  0.3308
 1001BOLB   C3C24019   8.946  21.180   9.804 -0.0456  0.3239  0.0415
 1001BOLB   C4C24020   8.861  21.172  10.212 -0.1108 -0.1841 -0.0161
 1001BOLB   C1D24021   8.510  20.313   8.927 -0.1931  0.2409  0.2727
 1001BOLB   C2D24022   8.709  20.079   9.226 -0.3411 -0.0129 -0.4770
 1001BOLB   C3D24023   8.746  19.716   9.555  0.2606 -0.1713 -0.0641
 1001BOLB   C4D24024   8.401  19.419   9.663  0.1387 -0.0841  0.2883
 1002BOLB   NC124025   7.758  13.098  13.061  0.1426  0.2376 -0.2450
 1002BOLB   PO124026   7.535  12.843  13.390  0.0533  0.2626 -0.2644
 1002BOLB   GL124027   7.167  13.127  13.262  0.2179  0.2873  0.2411
 1002BOLB   GL224028   7.128  12.853  13.051 -0.0987  0.4033 -0.3038
 1002BOLB   C1A24029   6.853  13.374  13.353 -0.0596  0.2763 -0.3266
 1002BOLB   C2A24030   6.654  13.893  13.532 -0.1437  0.1404  0.1453
 1002BOLB   C3A24031   6.334  14.099  13.470  0.2242 -0.3543  0.1762
 1002BOLB   C4A24032   5.932  14.174  13.422 -0.0978 -0.1098 -0.3015
 1002BOLB   C1B24033   6.907  12.777  12.694  0.4122 -0.1985  0.0352
 1002BOLB   C2B24034   6.671  12.895  12.289 -0.0805  0.2322  0.2343
 1002BOLB   C3B24035   6.569  13.022  11.887  0.0779 -0.0752 -0.0810
 1002BOLB   C4B24036   6.531  13.325  11.613 -0.1858  0.0732 -0.4256
 1002BOLB   NC224037   3.677  12.937  13.010  0.2127  0.1804  0.0401
 1002BOLB   PO224038   3.973  13.153  12.779  0.0300  0.1264 -0.1713
 1002BOLB   GL324039   4.165  13.291  13.176  0.2451  0.1735 -0.0941
 1002BOLB   GL424040   4.183  13.068  13.495  0.0737 -0.0683  0.1474
 1002BOLB   C1C24041   4.446  13.479  13.463  0.0303  0.0412 -0.2589
 1002BOLB   C2C24042   4.794  13.478  13.543  0.0370  0.1796 -0.0717
 1002BOLB   C3C24043   5.161  13.636  13.593 -0.0117 -0.1058  0.2240
 1002BOLB   C4C24044   5.532  13.925  13.499 -0.1773 -0.2121 -0.0785
 1002BOLB   C1D24045   4.652  12.936  13.436  0.0663  0.0660 -0.0402
 1002BOLB   C2D24046   5.041  12.984  13.560  0.2846  0.0171  0.0127
 1002BOLB   C3D24047   5.376  13.167  13.682 -0.0551  0.1160 -0.2131
 1002BOLB   C4D24048   5.884  13.022  13.621  0.4766 -0.0865 -0.1783
 1003BOLB   NC124049   8.536  24.907  13.002  0.1363  0.2505  0.1662
 1003BOLB   PO124050   8.793  24.674  13.295 -0.2275  0.0768 -0.2409
 1003BOLB   GL124051   9.104  24.961  13.096 -0.1749  0.3103  0.0645
 1003BOLB   GL224052   9.110  25.010  12.770  0.1828  0.3628  0.0905
 1003BOLB   C1A24053   9.455  25.318  12.879 -0.2111 -0.1752 -0.1429
 1003BOLB   C2A24054   9.771  25.649  12.915  0.0634  0.1837 -0.1549
 1003BOLB   C3A24055   9.810  25.993  13.264  0.0956 -0.1831 -0.1306
 1003BOLB   C4A24056   9.893  26.183  13.591  0.0304  0.1391 -0.1852
 1003BOLB   C1B24057   9.562  24.911  12.610 -0.2346 -0.0329  0.0416
 1003BOLB   C2B24058  10.019  25.151  12.786 -0.0961  0.2400  0.2926
 1003BOLB   C3B24059  10.246  25.481  12.720 -0.0679 -0.1023  0.2318
 1003BOLB   C4B24060  10.688  25.595  12.964 -0.0831 -0.2333  0.0950
 1003BOLB   NC224061   8.511  26.542  14.783  0.0630 -0.0258 -0.0540
 1003BOLB   PO224062   8.350  26.170  14.709  0.1270 -0.1198 -0.1794
 1003BOLB   GL324063   8.738  26.110  14.669  0.2859 -0.1445 -0.0885
 1003BOLB   GL424064   8.818  25.845  14.737 -0.0981 -0.0231  0.3499
 1003BOLB   C1C24065   9.258  26.307  14.766 -0.0209  0.2446 -0.0800
 1003BOLB   C2C24066   9.632  26.408  14.720  0.2958  0.1999 -0.0345
 1003BOLB   C3C24067   9.876  26.290  14.509 -0.1682  0.3026  0.1608
 1003BOLB   C4C24068   9.777  26.344  13.991  0.1471 -0.0300  0.1078
 1003BOLB   C1D24069   9.166  25.675  14.897 -0.2860 -0.1533 -0.1364
 1003BOLB   C2D24070   9.394  25.924  15.152 -0.0131  0.0524  0.1719
 1003BOLB   C3D24071   9.646  26.201  15.384  0.1229  0.3267 -0.4837
 1003BOLB   C4D24072  10.002  26.517  15.330 -0.6196 -0.1683  0.1603
 1004BOLB   NC124073   7.703  18.599  12.661 -0.0071  0.0116  0.0537
 1004BOLB   PO124074   7.337  18.344  12.697  0.0784 -0.1706  0.0820
 1004BOLB   GL124075   7.041  18.054  12.427 -0.2095 -0.3174  0.2336
 1004BOLB   GL224076   7.159  17.795  12.476  0.1077  0.1973 -0.1511
 1004BOLB   C1A24077   7.027  17.779  11.970  0.0276 -0.0769 -0.2355
 1004BOLB   C2A24078   6.744  17.898  11.627  0.3276  0.1503  0.0572
 1004BOLB   C3A24079   6.722  17.928  11.267  0.1223 -0.1385 -0.0598
 1004BOLB   C4A24080   6.693  17.868  10.850  0.1092 -0.2453 -0.0040
 1004BOLB   C1B24081   6.894  17.439  12.539  0.2196 -0.1614  0.2422
 1004BOLB   C2B24082   6.486  17.248  12.531  0.1497  0.3358 -0.0882
 1004BOLB   C3B24083   6.125  17.276  12.281  0.0331  0.4310  0.1360
 1004BOLB   C4B24084   5.747  17.393  12.359  0.1578 -0.1930 -0.0334
 1004BOLB   NC224085   4.948  18.107   9.348 -0.0062 -0.0079  0.2271
 1004BOLB   PO224086   5.288  18.421   9.385 -0.0867  0.3001  0.2557
 1004BOLB   GL324087   5.478  18.391   9.727 -0.0697 -0.1744 -0.1264
 1004BOLB   GL424088   5.646  18.686   9.626 -0.4231 -0.1189  0.3238
 1004BOLB   C1C24089   5.745  18.004   9.760 -0.0941 -0.0310  0.0959
 1004BOLB   C2C24090   6.084  17.893   9.888 -0.0298 -0.0102  0.0660
 1004BOLB   C3C24091   6.319  17.757  10.201 -0.2640 -0.0330  0.4372
 1004BOLB   C4C24092   6.390  17.743  10.573  0.1517 -0.0095 -0.1519
 1004BOLB   C1D24093   5.940  18.522   9.858 -0.3670 -0.2909 -0.0243
 1004BOLB   C2D24094   5.902  18.363  10.185 -0.0531 -0.0356  0.1366
 1004BOLB   C3D24095   5.753  18.489  10.524 -0.1848  0.0953  0.0747
 1004BOLB   C4D24096   5.429  18.815  10.587 -0.2032  0.0336  0.2252
 1005BOLB   NC124097   8.302  16.011  13.008  0.2519  0.1669 -0.1721
 1005BOLB   PO124098   8.709  16.045  12.594  0.0457 -0.0777  0.0901
 1005BOLB   GL124099   8.678  15.776  12.148  0.0895 -0.1578  0.0810
 1005BOLB   GL224100   8.422  15.541  12.042  0.1931  0.4890  0.0944
 1005BOLB   C1A24101   8.710  15.690  11.695  0.1517 -0.1293 -0.4457
 1005BOLB   C2A24102   8.622  15.835  11.282  0.0395  0.2577  0.1604
 1005BOLB   C3A24103   8.539  15.721  10.840 -0.1191 -0.0359 -0.0501
 1005BOLB   C4A24104   8.403  15.514  10.418  0.2653 -0.0241  0.3752
 1005BOLB   C1B24105   8.269  15.426  11.648 -0.1587  0.2533 -0.0809
 1005BOLB   C2B24106   8.009  15.267  11.321  0.0273 -0.1474 -0.0408
 1005BOLB   C3B24107   7.821  15.186  10.953 -0.0431 -0.1396 -0.2897
 1005BOLB   C4B24108   7.498  15.088  10.750  0.1921 -0.3900 -0.0858
 1005BOLB   NC224109   7.348  16.467   7.824 -0.3876 -0.0677 -0.3520
 1005BOLB   PO224110   7.323  16.075   8.155  0.1578 -0.2044  0.3442
 1005BOLB   GL324111   7.630  16.040   8.561 -0.0456  0.0295  0.0759
 1005BOLB   GL424112   7.503  16.107   8.803  0.1812  0.1584  0.1906
 1005BOLB   C1C24113   7.980  16.187   8.959  0.3017 -0.1210  0.0315
 1005BOLB   C2C24114   8.154  15.892   9.284 -0.0147  0.0123 -0.1251
 1005BOLB   C3C24115   8.130  15.537   9.545  0.2005 -0.2099 -0.0181
 1005BOLB   C4C24116   8.251  15.283   9.942  0.2203  0.0048 -0.0079
 1005BOLB   C1D24117   7.593  15.879   9.125  0.0896  0.1084  0.1231
 1005BOLB   C2D24118   7.642  15.706   9.578  0.0799 -0.1990 -0.1180
 1005BOLB   C3D24119   7.800  15.544   9.972  0.4310  0.2270 -0.1633
 1005BOLB   C4D24120   7.934  15.200  10.410  0.0414 -0.1334 -0.0878
 1006BOLB   NC124121   6.478  18.488  13.369 -0.0037 -0.1151 -0.1584
 1006BOLB   PO124122   6.652  18.739  13.672  0.0728  0.1658  0.2147
 1006BOLB   GL124123   6.207  18.540  13.765  0.0519  0.4117  0.0278
 1006BOLB   GL224124   6.258  18.194  13.818 -0.0414  0.1148 -0.2546
 1006BOLB   C1A24125   5.818  18.639  13.974  0.1445  0.2253  0.0846
 1006BOLB   C2A24126   5.393  18.431  14.167 -0.2417  0.0391 -0.1012
 1006BOLB   C3A24127   5.158  18.138  14.232 -0.2757  0.1917  0.1173
 1006BOLB   C4A24128   4.809  17.833  14.530  0.0907 -0.4349 -0.0815
 1006BOLB   C1B24129   5.797  18.166  13.701 -0.2766 -0.1525  0.1526
 1006BOLB   C2B24130   5.681  17.936  13.381 -0.0946 -0.1390  0.0646
 1006BOLB   C3B24131   5.169  17.974  13.166  0.0358  0.1159  0.0291
 1006BOLB   C4B24132   4.731  17.900  12.994  0.0036  0.1529  0.1814
 1006BOLB   NC224133   3.350  16.566  14.366  0.0205 -0.2612 -0.0392
 1006BOLB   PO224134   3.373  16.187  14.656 -0.1479 -0.1837 -0.1856
 1006BOLB   GL324135   3.819  16.306  14.958  0.2035 -0.2902  0.0970
 1006BOLB   GL424136   3.938  16.121  15.262 -0.1940 -0.0915  0.1984
 1006BOLB   C1C24137   4.173  16.497  14.921 -0.0238  0.0093  0.0030
 1006BOLB   C2C24138   4.423  16.781  15.116  0.2474  0.1026 -0.3753
 1006BOLB   C3C24139   4.607  17.218  15.190  0.4474  0.0116  0.0076
 1006BOLB   C4C24140   4.844  17.610  14.979 -0.2042  0.0492  0.2970
 1006BOLB   C1D24141   4.375  16.261  15.368 -0.3266  0.2874  0.3049
 1006BOLB   C2D24142   4.759  16.205  15.466 -0.2183  0.0985 -0.1511
 1006BOLB   C3D24143   5.005  16.460  15.722 -0.3293  0.1721 -0.0420
 1006BOLB   C4D24144   5.444  16.603  15.772  0.1907 -0.2070 -0.2825
 1007BOLB   NC124145   4.865  11.163  13.222  0.1716  0.3161 -0.2181
 1007BOLB   PO124146   5.005  11.450  13.397 -0.1895  0.2345  0.6609
 1007BOLB   GL124147   5.228  11.847  13.192 -0.2138 -0.1220  0.0051
 1007BOLB   GL224148   5.610  11.863  13.215  0.3784  0.1777  0.0800
 1007BOLB   C1A24149   5.258  12.139  12.797  0.5350 -0.5095 -0.0084
 1007BOLB   C2A24150   5.013  12.243  12.535  0.1137  0.3244 -0.3250
 1007BOLB   C3A24151   4.867  12.417  12.067  0.2298 -0.0509 -0.0208
 1007BOLB   C4A24152   5.077  12.611  11.648 -0.1025 -0.1513 -0.2547
 1007BOLB   C1B24153   5.886  11.915  12.964  0.1888 -0.3111 -0.1205
 1007BOLB   C2B24154   5.823  12.344  12.846  0.0621  0.0324 -0.0305
 1007BOLB   C3B24155   5.625  12.796  12.937 -0.0538  0.0749  0.1755
 1007BOLB   C4B24156   5.532  12.862  13.327 -0.2104 -0.1669  0.1225
 1007BOLB   NC224157   5.787  10.600  10.678 -0.0776  0.2138 -0.0764
 1007BOLB   PO224158   5.401  10.732  10.957  0.1071  0.1904 -0.3265
 1007BOLB   GL324159   5.640  11.153  10.960  0.0168  0.0477  0.0149
 1007BOLB   GL424160   6.010  11.045  10.888  0.0366 -0.0548  0.0281
 1007BOLB   C1C24161   5.828  11.553  11.058  0.0954  0.0231  0.0351
 1007BOLB   C2C24162   5.882  11.950  11.078  0.0308  0.0691  0.0555
 1007BOLB   C3C24163   5.776  12.258  11.364  0.0083  0.0904 -0.4807
 1007BOLB   C4C24164   5.475  12.662  11.416  0.0449 -0.0143 -0.1675
 1007BOLB   C1D24165   6.305  11.256  10.602  0.1551 -0.0242 -0.0910
 1007BOLB   C2D24166   6.167  11.166  10.134  0.1312 -0.0903  0.1258
 1007BOLB   C3D24167   6.271  11.255   9.776 -0.0218 -0.3816  0.1408
 1007BOLB   C4D24168   6.145  11.760   9.580 -0.0162  0.4168  0.0489
 1008BOLB   NC124169   7.175  21.596  12.841  0.3610  0.2444 -0.0316
 1008BOLB   PO124170   7.244  21.352  12.591  0.3710  0.1948  0.1036
 1008BOLB   GL124171   7.314  21.134  12.339 -0.1146  0.0812  0.2106
 1008BOLB   GL224172   7.624  21.245  12.115  0.1038 -0.0385  0.1245
 1008BOLB   C1A24173   7.186  20.750  12.010 -0.1069 -0.1267 -0.2700
 1008BOLB   C2A24174   7.092  20.603  11.597  0.1745  0.0464  0.0818
 1008BOLB   C3A24175   6.883  20.550  11.231 -0.2686  0.2983 -0.0654
 1008BOLB   C4A24176   6.712  20.309  10.893  0.1107  0.0290 -0.0141
 1008BOLB   C1B24177   7.399  21.077  11.750  0.3902 -0.1369  0.2991
 1008BOLB   C2B24178   7.416  20.829  11.389  0.0221 -0.1310 -0.0057
 1008BOLB   C3B24179   7.626  20.834  10.900  0.3826  0.1881 -0.1243
 1008BOLB   C4B24180   7.372  20.696  10.571  0.1745  0.0784 -0.1713
 1008BOLB   NC224181   5.394  18.784   9.106  0.1426  0.1678  0.2460
 1008BOLB   PO224182   5.486  19.133   9.291 -0.5459 -0.1653  0.0493
 1008BOLB   GL324183   5.749  19.292   9.595  0.2159  0.4221 -0.0534
 1008BOLB   GL424184   5.937  19.137   9.623 -0.0648  0.0675  0.2131
 1008BOLB   C1C24185   5.964  19.654   9.705 -0.1483  0.0212  0.0686
 1008BOLB   C2C24186   6.294  19.702  10.017  0.2036  0.1776  0.0929
 1008BOLB   C3C24187   6.494  19.765  10.323 -0.1538  0.3464 -0.0198
 1008BOLB   C4C24188   6.573  20.059  10.635 -0.0938  0.1795  0.3305
 1008BOLB   C1D24189   6.055  19.049  10.069  0.3992 -0.0778  0.3757
 1008BOLB   C2D24190   5.908  18.941  10.414 -0.1825 -0.2323  0.4472
 1008BOLB   C3D24191   5.902  18.732  10.929 -0.0381 -0.1713  0.0499
 1008BOLB   C4D24192   6.098  18.764  11.333  0.0124 -0.3177 -0.1141
 1009BOLB   NC124193   7.647   7.840   8.935  0.0668 -0.3464  0.0460
 1009BOLB   PO124194   7.638   8.152   9.197  0.0867  0.0571 -0.4580
 1009BOLB   GL124195   7.716   8.531   9.438  0.2299 -0.2579 -0.0742
 1009BOLB   GL224196   7.747   8.637   9.732 -0.2147  0.1204 -0.1385
 1009BOLB   C1A24197   8.084   8.938   9.518  0.2010  0.0206  0.1167
 1009BOLB   C2A24198   8.387   9.188   9.480  0.2683 -0.1573  0.1777
 1009BOLB   C3A24199   8.590   9.548   9.695 -0.1941  0.2162 -0.0128
 1009BOLB   C4A24200   8.639   9.974   9.771  0.1958 -0.3620  0.0442
 1009BOLB   C1B24201   8.112   8.612   9.899  0.1725  0.2737 -0.0313
 1009BOLB   C2B24202   8.410   8.378   9.649 -0.3316  0.1002 -0.0267
 1009BOLB   C3B24203   8.546   8.235   9.228  0.0116 -0.0626 -0.2523
 1009BOLB   C4B24204   9.057   8.174   9.061  0.0162  0.1123 -0.2560
 1009BOLB   NC224205   7.104  10.265   8.203 -0.0519  0.4287 -0.0752
 1009BOLB   PO224206   7.432   9.743   8.160 -0.1343 -0.2056  0.0767
 1009BOLB   GL324207   7.568   9.918   8.572  0.2166  0.0075  0.2455
 1009BOLB   GL424208   7.476  10.195   8.558 -0.1138  0.2625  0.0991
 1009BOLB   C1C24209   7.792  10.007   8.972  0.1388 -0.0386  0.0902
 1009BOLB   C2C24210   8.216  10.182   9.007 -0.0169  0.1066  0.0621
 1009BOLB   C3C24211   8.514  10.566   9.190 -0.4695 -0.1588  0.0651
 1009BOLB   C4C24212   8.713  10.468   9.582 -0.0265  0.2406 -0.0411
 1009BOLB   C1D24213   7.290  10.205   8.965 -0.0405 -0.1379 -0.0084
 1009BOLB   C2D24214   7.534  10.362   9.336 -0.0403  0.1245 -0.1188
 1009BOLB   C3D24215   7.865  10.528   9.229  0.0376 -0.0385 -0.2014
 1009BOLB   C4D24216   8.176  10.816   9.451 -0.0132  0.0779 -0.0002
 1010BOLB   NC124217   4.495  11.031  12.200 -0.0025 -0.0185 -0.0724
 1010BOLB   PO124218   4.820  11.362  12.416  0.3025  0.0874 -0.0238
 1010BOLB   GL124219   5.051  11.614  12.001  0.3731  0.3605 -0.0151
 1010BOLB   GL224220   5.065  11.758  11.697  0.0593  0.1146  0.0967
 1010BOLB   C1A24221   5.204  12.012  12.119 -0.0492 -0.0332 -0.0666
 1010BOLB   C2A24222   5.551  12.098  12.388  0.1172 -0.1041  0.0005
 1010BOLB   C3A24223   5.644  12.510  12.423 -0.0512  0.0705  0.0952
 1010BOLB   C4A24224   5.684  12.877  12.189 -0.3719  0.0173  0.2593
 1010BOLB   C1B24225   5.311  12.173  11.693  0.0518 -0.1873 -0.2286
 1010BOLB   C2B24226   5.386  12.551  12.005 -0.0273  0.3339 -0.0444
 1010BOLB   C3B24227   5.163  12.945  11.988 -0.0105 -0.3315  0.1288
 1010BOLB   C4B24228   5.043  13.448  11.867  0.2474  0.0346  0.0046
 1010BOLB   NC224229   4.555  12.961  10.010 -0.3890 -0.1512  0.0292
 1010BOLB   PO224230   4.911  12.812   9.811 -0.2070  0.1079  0.2807
 1010BOLB   GL324231   5.137  12.833  10.189 -0.0577  0.1676 -0.0492
 1010BOLB   GL424232   5.203  13.216  10.178  0.1759 -0.4015  0.2061
 1010BOLB   C1C24233   5.569  12.812  10.426  0.2291 -0.0148 -0.0916
 1010BOLB   C2C24234   5.617  12.985  10.908  0.0194 -0.2343  0.0617
 1010BOLB   C3C24235   5.411  13.134  11.364 -0.0730 -0.0309 -0.2276
 1010BOLB   C4C24236   5.630  12.982  11.741 -0.0611  0.1799 -0.1992
 1010BOLB   C1D24237   5.235  13.191  10.638 -0.2138 -0.3236 -0.0633
 1010BOLB   C2D24238   5.085  13.097  11.036 -0.1125 -0.0358  0.1806
 1010BOLB   C3D24239   4.875  13.158  11.450  0.0639  0.1230 -0.1834
 1010BOLB   C4D24240   4.601  13.299  11.767  0.1946 -0.2216 -0.1788
 1011BOLB   NC124241   8.532  17.401  12.240 -0.1772 -0.1073 -0.0871
 1011BOLB   PO124242   8.369  17.323  12.651 -0.4041 -0.0567 -0.2092
 1011BOLB   GL124243   8.119  17.144  12.244 -0.2269 -0.1745 -0.1591
 1011BOLB   GL224244   8.020  16.811  12.199 -0.1409 -0.0219 -0.1274
 1011BOLB   C1A24245   7.755  17.109  11.885 -0.2692  0.0917 -0.2951
 1011BOLB   C2A24246   7.589  17.127  11.551  0.2037  0.2619  0.2094
 1011BOLB   C3A24247   7.153  17.121  11.365  0.1018 -0.0411 -0.1326
 1011BOLB   C4A24248   6.626  16.956  11.319  0.1253 -0.0453  0.0166
 1011BOLB   C1B24249   7.651  16.570  11.862 -0.2600  0.0355  0.3951
 1011BOLB   C2B24250   7.615  16.545  11.468  0.0406 -0.2447 -0.1379
 1011BOLB   C3B24251   7.571  16.455  11.149 -0.0538 -0.0213 -0.1145
 1011BOLB   C4B24252   7.272  16.371  10.845 -0.0488 -0.2598  0.2247
 1011BOLB   NC224253   4.254  16.364  11.172 -0.0893 -0.2541  0.2581
 1011BOLB   PO224254   4.584  16.371  10.772  0.2034  0.1532 -0.2152
 1011BOLB   GL324255   4.880  16.628  10.640  0.2570 -0.1158 -0.3161
 1011BOLB   GL424256   4.955  16.896  10.828  0.0708 -0.4253 -0.2267
 1011BOLB   C1C24257   5.338  16.529  10.833  0.1311 -0.1178  0.0058
 1011BOLB   C2C24258   5.737  16.474  10.985  0.1976 -0.2166 -0.1341
 1011BOLB   C3C24259   6.098  16.560  10.999  0.1045  0.2288 -0.1256
 1011BOLB   C4C24260   6.418  16.736  10.938 -0.0087  0.1885 -0.0597
 1011BOLB   C1D24261   5.171  17.050  11.237  0.2536 -0.2614 -0.0273
 1011BOLB   C2D24262   5.325  17.450  11.447 -0.0086 -0.2187 -0.0017
 1011BOLB   C3D24263   5.231  17.510  11.899 -0.1521 -0.0855 -0.3122
 1011BOLB   C4D24264   5.192  17.647  12.435 -0.0555 -0.0327  0.1607
 1012BOLB   NC124265   7.743  20.844  12.322 -0.0742  0.0048  0.1831
 1012BOLB   PO124266   8.069  20.540  12.197 -0.0831 -0.0837 -0.3391
 1012BOLB   GL124267   8.170  20.476  11.808 -0.0506 -0.0374 -0.0603
 1012BOLB   GL224268   8.159  20.779  11.631  0.0800  0.2761  0.1395
 1012BOLB   C1A24269   8.108  20.141  11.622 -0.1981 -0.0528  0.0632
 1012BOLB   C2A24270   8.002  19.947  11.242  0.0802  0.2140 -0.2796
 1012BOLB   C3A24271   8.020  19.899  10.839  0.0548  0.1176  0.2005
 1012BOLB   C4A24272   8.139  19.784  10.490  0.0407  0.3136  0.0394
 1012BOLB   C1B24273   7.839  20.528  11.417 -0.2790  0.0140 -0.0682
 1012BOLB   C2B24274   7.795  20.335  11.030  0.0188  0.0510 -0.4313
 1012BOLB   C3B24275   7.746  20.256  10.573  0.4161 -0.1834  0.1979
 1012BOLB   C4B24276   7.499  20.356  10.190 -0.0561 -0.1194 -0.1100
 1012BOLB   NC224277   6.805  19.476   7.776  0.1989  0.1663  0.0351
 1012BOLB   PO224278   7.188  19.527   7.975  0.3504  0.1392  0.0783
 1012BOLB   GL324279   7.465  19.333   8.351  0.1101 -0.1546 -0.0208
 1012BOLB   GL424280   7.692  19.113   8.327 -0.0961 -0.0298 -0.0572
 1012BOLB   C1C24281   7.610  19.424   8.818 -0.0957  0.0354  0.1379
 1012BOLB   C2C24282   7.809  19.747   9.088 -0.1204  0.1082  0.0372
 1012BOLB   C3C24283   7.916  19.739   9.515 -0.2729 -0.2329 -0.1135
 1012BOLB   C4C24284   8.045  19.668   9.991 -0.1235  0.1018 -0.0476
 1012BOLB   C1D24285   7.986  19.188   8.616  0.0966  0.2375 -0.2124
 1012BOLB   C2D24286   8.022  19.287   8.982  0.2760  0.1590  0.0577
 1012BOLB   C3D24287   8.043  19.257   9.443  0.1876 -0.0560  0.2612
 1012BOLB   C4D24288   8.023  19.159   9.824  0.0103 -0.2327  0.0541
 1013BOLB   NC124289   7.867  12.281  12.610 -0.2215  0.2127 -0.0661
 1013BOLB   PO124290   7.849  11.903  12.715  0.0095 -0.0353  0.0462
 1013BOLB   GL124291   7.700  11.822  12.302  0.0495  0.2346 -0.0017
 1013BOLB   GL224292   7.926  12.012  12.137 -0.0532  0.2110  0.0578
 1013BOLB   C1A24293   7.479  11.839  11.837  0.0516 -0.0405  0.5825
 1013BOLB   C2A24294   7.300  12.017  11.392  0.0222  0.1296  0.0675
 1013BOLB   C3A24295   7.279  12.335  11.099 -0.1028  0.0496  0.0187
 1013BOLB   C4A24296   7.336  12.587  10.751 -0.3233  0.0027  0.0676
 1013BOLB   C1B24297   7.666  12.291  12.023  0.1454  0.1009  0.2916
 1013BOLB   C2B24298   7.441  12.440  11.680  0.0084  0.1701  0.1251
 1013BOLB   C3B24299   7.477  12.748  11.308 -0.1120  0.1416 -0.2964
 1013BOLB   C4B24300   7.390  13.124  11.137 -0.0117  0.1768 -0.0786
 1013BOLB   NC224301   5.805  13.282   8.733  0.0005  0.0684  0.0680
 1013BOLB   PO224302   6.197  13.262   8.761 -0.0882 -0.0590  0.0730
 1013BOLB   GL324303   6.464  13.156   9.130 -0.4011  0.0627  0.2602
 1013BOLB   GL424304   6.841  13.168   8.995  0.1412 -0.1337  0.1485
 1013BOLB   C1C24305   6.454  13.309   9.475  0.1205  0.2579  0.0557
 1013BOLB   C2C24306   6.519  13.232   9.938  0.1657  0.1522  0.1433
 1013BOLB   C3C24307   6.865  12.932  10.151 -0.1404 -0.0692  0.5018
 1013BOLB   C4C24308   7.074  12.714  10.416 -0.0711  0.1041 -0.3797
 1013BOLB   C1D24309   6.953  13.390   9.400 -0.0061  0.2649  0.0582
 1013BOLB   C2D24310   7.088  13.316   9.826 -0.0552 -0.0828  0.1976
 1013BOLB   C3D24311   7.320  13.115  10.073 -0.4149 -0.1163 -0.0434
 1013BOLB   C4D24312   7.523  12.969  10.434 -0.1879  0.2680  0.2709
 1014BOLB   NC124313   8.389  20.298  12.509 -0.1399  0.1121  0.0917
 1014BOLB   PO124314   8.801  20.126  12.480 -0.0336  0.1906 -0.3017
 1014BOLB   GL124315   8.773  19.898  12.128  0.1011  0.2973  0.1713
 1014BOLB   GL224316   8.629  20.245  11.992 -0.0919 -0.0049 -0.1112
 1014BOLB   C1A24317   8.649  19.831  11.696 -0.1343  0.0572  0.0881
 1014BOLB   C2A24318   8.494  19.762  11.287 -0.1586 -0.4126  0.2521
 1014BOLB   C3A24319   8.570  19.805  10.773  0.0929 -0.0971 -0.1655
 1014BOLB   C4A24320   8.754  19.698  10.404 -0.2115 -0.2973 -0.1052
 1014BOLB   C1B24321   8.664  20.374  11.568  0.1311  0.0994  0.0112
 1014BOLB   C2B24322   8.483  20.320  11.101 -0.1259  0.0932 -0.2592
 1014BOLB   C3B24323   8.291  20.237  10.669  0.2375 -0.1725 -0.1293
 1014BOLB   C4B24324   8.170  20.342  10.370 -0.2067 -0.1417 -0.1264
 1014BOLB   NC224325   7.629  19.646   7.972  0.0747 -0.5050 -0.3539
 1014BOLB   PO224326   8.011  19.556   7.987  0.2199  0.1534  0.0190
 1014BOLB   GL324327   7.990  19.742   8.339 -0.1833 -0.0228 -0.0001
 1014BOLB   GL424328   7.702  19.794   8.503  0.1662 -0.0709 -0.0783
 1014BOLB   C1C24329   8.197  19.714   8.729  0.1412  0.1047 -0.0405
 1014BOLB   C2C24330   8.355  19.693   9.210  0.1015 -0.0660 -0.3114
 1014BOLB   C3C24331   8.352  19.915   9.654  0.0705  0.1878 -0.0949
 1014BOLB   C4C24332   8.547  19.748  10.024 -0.2362  0.2136  0.3861
 1014BOLB   C1D24333   7.551  20.058   8.799  0.0555  0.0798 -0.0260
 1014BOLB   C2D24334   7.699  20.362   9.145  0.0649 -0.0228 -0.1534
 1014BOLB   C3D24335   7.825  20.479   9.564  0.0004  0.1510 -0.0620
 1014BOLB   C4D24336   7.893  20.187   9.932  0.1610 -0.2082  0.1732
 1015BOLB   NC124337   3.307  20.085  15.284  0.0034  0.0478 -0.1369
 1015BOLB   PO124338   3.627  19.765  15.212 -0.0069  0.2773 -0.3259
 1015BOLB   GL124339   3.685  19.400  15.547  0.3097 -0.1820  0.2202
 1015BOLB   GL224340   3.937  19.239  15.256 -0.3599  0.1941  0.1156
 1015BOLB   C1A24341   4.025  19.313  15.832 -0.0099  0.0834  0.0051
 1015BOLB   C2A24342   4.283  19.249  16.159  0.1443 -0.2511 -0.0060
 1015BOLB   C3A24343   4.467  18.985  16.384  0.0658  0.2286 -0.0112
 1015BOLB   C4A24344   4.530  18.489  16.571 -0.1681  0.1717 -0.0991
 1015BOLB   C1B24345   3.821  18.918  14.819 -0.0487 -0.0942  0.3817
 1015BOLB   C2B24346   3.984  18.680  14.575  0.0262 -0.1902  0.0568
 1015BOLB   C3B24347   4.457  18.722  14.620  0.4741  0.1350 -0.1682
 1015BOLB   C4B24348   4.723  18.366  14.623 -0.2584 -0.3470 -0.2098
 1015BOLB   NC224349   2.619  17.902  16.181 -0.0095  0.1088  0.4321
 1015BOLB   PO224350   2.803  18.230  15.856 -0.0256  0.1777 -0.0894
 1015BOLB   GL324351   3.146  18.028  15.994  0.3651 -0.0019  0.1116
 1015BOLB   GL424352   3.098  17.656  15.961  0.2095 -0.0206  0.1724
 1015BOLB   C1C24353   3.528  17.873  15.809  0.0863 -0.0490 -0.0063
 1015BOLB   C2C24354   3.841  17.768  16.102 -0.2054 -0.0709  0.2657
 1015BOLB   C3C24355   4.264  17.829  16.299 -0.0055  0.0904  0.4638
 1015BOLB   C4C24356   4.581  18.100  16.341  0.1824  0.0823 -0.1756
 1015BOLB   C1D24357   3.394  17.678  16.329 -0.1653 -0.0505 -0.3197
 1015BOLB   C2D24358   3.730  17.847  16.603  0.0980 -0.3202  0.0419
 1015BOLB   C3D24359   4.023  17.701  16.882 -0.1658 -0.0439  0.0858
 1015BOLB   C4D24360   4.269  17.601  17.204  0.1206  0.1901 -0.3562
 1016BOLB   NC124361   7.358  17.069  13.890 -0.0973  0.0246  0.1357
 1016BOLB   PO124362   7.150  17.544  13.982 -0.0868  0.0541 -0.0828
 1016BOLB   GL124363   7.080  17.231  14.306 -0.1798 -0.3113 -0.0629
 1016BOLB   GL224364   7.273  17.053  14.476 -0.0870  0.0431 -0.2014
 1016BOLB   C1A24365   6.788  16.970  14.408  0.2074 -0.0147 -0.2750
 1016BOLB   C2A24366   6.485  16.870  14.755  0.2232 -0.0493 -0.0438
 1016BOLB   C3A24367   6.065  16.638  14.722 -0.0062 -0.1109 -0.1118
 1016BOLB   C4A24368   5.657  16.417  14.940 -0.1230 -0.0399  0.1180
 1016BOLB   C1B24369   7.153  16.654  14.637 -0.0593  0.1234  0.0315
 1016BOLB   C2B24370   6.785  16.479  14.625  0.0224  0.0578 -0.0615
 1016BOLB   C3B24371   6.429  16.384  14.881  0.1739  0.3599  0.1446
 1016BOLB   C4B24372   6.133  16.479  15.274 -0.0628  0.0853  0.2163
 1016BOLB   NC224373   3.786  14.954  16.108  0.2966  0.2483 -0.1920
 1016BOLB   PO224374   3.703  15.227  15.764 -0.0792 -0.1149 -0.0754
 1016BOLB   GL324375   4.017  15.306  15.544 -0.1746  0.1674 -0.0879
 1016BOLB   GL424376   4.180  15.615  15.561 -0.0413 -0.3001 -0.0523
 1016BOLB   C1C24377   4.427  15.235  15.408 -0.2246 -0.0627  0.0343
 1016BOLB   C2C24378   4.746  15.632  15.393 -0.1147  0.0063 -0.1028
 1016BOLB   C3C24379   5.125  15.791  15.150  0.0302 -0.3281  0.3225
 1016BOLB   C4C24380   5.567  16.020  15.064  0.1582 -0.1334  0.0079
 1016BOLB   C1D24381   4.330  15.781  15.220  0.2524  0.0284 -0.2028
 1016BOLB   C2D24382   4.568  15.998  14.975 -0.1852 -0.1516 -0.2668
 1016BOLB   C3D24383   4.818  16.425  14.955 -0.2687 -0.2000  0.1973
 1016BOLB   C4D24384   4.879  16.883  14.945 -0.1623 -0.0403 -0.0946
 1017BOLB   NC124385   8.116  17.398  13.083 -0.1857 -0.0274 -0.0545
 1017BOLB   PO124386   7.874  17.495  12.774 -0.1295 -0.0451 -0.4298
 1017BOLB   GL124387   7.657  17.120  12.548 -0.0631  0.0107  0.2337
 1017BOLB   GL224388   7.426  17.323  12.601 -0.1101  0.1008  0.0636
 1017BOLB   C1A24389   7.391  16.854  12.334  0.3225 -0.0277  0.0960
 1017BOLB   C2A24390   7.265  16.882  11.837  0.0826  0.1580  0.3743
 1017BOLB   C3A24391   6.967  16.671  11.610 -0.2449  0.1651  0.1020
 1017BOLB   C4A24392   6.825  16.515  11.266 -0.0904 -0.4083  0.0812
 1017BOLB   C1B24393   7.161  17.238  12.131 -0.1538 -0.2771 -0.4025
 1017BOLB   C2B24394   7.419  17.490  11.833  0.1835 -0.0558  0.1311
 1017BOLB   C3B24395   7.172  17.602  11.475 -0.3207 -0.2274  0.1757
 1017BOLB   C4B24396   6.937  17.491  11.161 -0.0213  0.1309 -0.2403
 1017BOLB   NC224397   5.749  16.285   9.047  0.1811  0.0297  0.0226
 1017BOLB   PO224398   5.920  16.550   9.351  0.3196  0.4667  0.0426
 1017BOLB   GL324399   5.869  16.276   9.788 -0.0439 -0.4045  0.1942
 1017BOLB   GL424400   5.726  16.468  10.018  0.1058 -0.3737 -0.2481
 1017BOLB   C1C24401   6.050  16.120  10.203  0.0484 -0.2126 -0.0440
 1017BOLB   C2C24402   6.133  16.265  10.574 -0.2609  0.0464 -0.0262
 1017BOLB   C3C24403   6.330  16.092  10.974  0.0109  0.2515  0.1004
 1017BOLB   C4C24404   6.663  16.180  11.210 -0.0373 -0.1218 -0.0770
 1017BOLB   C1D24405   6.155  16.605  10.132  0.0245 -0.1409 -0.2093
 1017BOLB   C2D24406   6.559  16.640  10.354 -0.1800  0.4151  0.0653
 1017BOLB   C3D24407   6.952  16.502  10.365  0.2845 -0.0262 -0.2957
 1017BOLB   C4D24408   7.167  16.163  10.247  0.0026  0.3225 -0.3584
 1018BOLB   NC124409   4.598  11.679  17.764 -0.1299  0.0176  0.2165
 1018BOLB   PO124410   4.278  11.972  17.910 -0.0446 -0.2956 -0.1004
 1018BOLB   GL124411   4.383  12.194  17.622  0.1174 -0.1857  0.0467
 1018BOLB   GL224412   4.293  12.064  17.297 -0.0148 -0.0568 -0.2323
 1018BOLB   C1A24413   4.221  12.621  17.524  0.1059 -0.1065  0.2530
 1018BOLB   C2A24414   4.391  12.934  17.246 -0.1374 -0.1188  0.0035
 1018BOLB   C3A24415   4.566  13.329  17.059  0.1900 -0.0424  0.4583
 1018BOLB   C4A24416   4.550  13.766  16.747  0.0411  0.3473 -0.3188
 1018BOLB   C1B24417   4.534  12.413  17.239 -0.2820  0.0658  0.0517
 1018BOLB   C2B24418   4.665  12.666  16.938  0.0495 -0.0337  0.4058
 1018BOLB   C3B24419   5.023  13.004  16.867 -0.1353  0.1546 -0.3649
 1018BOLB   C4B24420   5.275  13.323  16.832 -0.2142  0.1899 -0.2086
 1018BOLB   NC224421   3.292  14.613  16.829 -0.0931 -0.2287  0.2520
 1018BOLB   PO224422   3.502  14.846  16.525 -0.2409  0.3248 -0.0444
 1018BOLB   GL324423   3.786  15.024  16.568 -0.2751 -0.1557 -0.0028
 1018BOLB   GL424424   3.843  15.280  16.696  0.1983  0.5056 -0.0727
 1018BOLB   C1C24425   4.309  15.153  16.550  0.0325  0.1102  0.2104
 1018BOLB   C2C24426   4.712  14.947  16.615 -0.0819 -0.1953  0.1662
 1018BOLB   C3C24427   4.805  14.570  16.718  0.3571 -0.3794  0.3912
 1018BOLB   C4C24428   4.831  14.139  16.720 -0.0999 -0.1455 -0.0880
 1018BOLB   C1D24429   4.062  15.657  16.687  0.3941  0.0781 -0.1512
 1018BOLB   C2D24430   4.350  15.984  16.733  0.1287 -0.2978  0.1644
 1018BOLB   C3D24431   4.287  16.333  16.584 -0.1939  0.1938 -0.0722
 1018BOLB   C4D24432   4.346  16.805  16.272 -0.1627 -0.0058 -0.1512
 1019BOLB   NC124433   8.195  23.201  12.312  0.0512 -0.2127  0.0901
 1019BOLB   PO124434   7.974  22.890  12.183  0.1642  0.2051  0.0673
 1019BOLB   GL124435   8.241  23.054  11.818 -0.5639  0.0271  0.1720
 1019BOLB   GL224436   8.091  22.925  11.542 -0.2796 -0.1163 -0.0552
 1019BOLB   C1A24437   8.220  23.384  11.603  0.0417 -0.1005  0.1868
 1019BOLB   C2A24438   8.540  23.563  11.354 -0.0929  0.1037 -0.0774
 1019BOLB   C3A24439   8.681  23.917  11.420  0.0454 -0.0311 -0.2346
 1019BOLB   C4A24440   8.956  24.253  11.407  0.0894  0.1324 -0.2387
 1019BOLB   C1B24441   8.108  22.549  11.647  0.0674  0.1609 -0.0270
 1019BOLB   C2B24442   8.355  22.180  11.620 -0.1602  0.0980  0.6272
 1019BOLB   C3B24443   8.443  21.782  11.636  0.1999  0.2378  0.0201
 1019BOLB   C4B24444   8.573  21.380  11.664  0.4191  0.0563  0.2633
 1019BOLB   NC224445   9.903  25.576  10.149 -0.2415  0.0402  0.0996
 1019BOLB   PO224446   9.692  25.587  10.468 -0.1145  0.0102  0.1968
 1019BOLB   GL324447   9.724  25.169  10.603  0.1514  0.0807 -0.0320
 1019BOLB   GL424448   9.988  25.074  10.357  0.1351  0.0871  0.2753
 1019BOLB   C1C24449   9.720  24.911  10.950 -0.0274 -0.0190  0.3253
 1019BOLB   C2C24450   9.599  25.073  11.390  0.2543  0.0275  0.0726
 1019BOLB   C3C24451   9.399  24.886  11.674 -0.2519 -0.2919  0.3052
 1019BOLB   C4C24452   9.128  24.568  11.721 -0.1922  0.2947  0.1841
 1019BOLB   C1D24453   9.717  24.625  10.585  0.2163  0.0918  0.1292
 1019BOLB   C2D24454   9.692  24.401  10.906 -0.2124  0.0952 -0.1638
 1019BOLB   C3D24455   9.930  24.197  11.248  0.4764 -0.1454  0.1487
 1019BOLB   C4D24456  10.217  24.008  11.503 -0.1493 -0.2697  0.0659
 1020BOLB   NC124457   7.180  12.584  13.565 -0.1718 -0.0469  0.0892
 1020BOLB   PO124458   6.989  12.904  13.736 -0.2224 -0.2430  0.0273
 1020BOLB   GL124459   6.639  12.983  14.046 -0.1836 -0.1843  0.0535
 1020BOLB   GL224460   6.441  12.825  14.271  0.0003 -0.2638  0.0344
 1020BOLB   C1A24461   6.411  13.355  14.088  0.0923 -0.2180  0.0735
 1020BOLB   C2A24462   6.229  13.850  14.013  0.1550 -0.0448 -0.0419
 1020BOLB   C3A24463   6.173  14.221  14.192  0.2851 -0.0112  0.0027
 1020BOLB   C4A24464   5.892  14.521  14.155  0.0785 -0.0026 -0.0759
 1020BOLB   C1B24465   6.759  12.746  14.603  0.2876 -0.1302  0.0650
 1020BOLB   C2B24466   6.861  12.649  15.078 -0.3075  0.3684  0.0301
 1020BOLB   C3B24467   7.129  12.594  15.415 -0.0797  0.0150 -0.5181
 1020BOLB   C4B24468   7.381  12.993  15.545  0.1278  0.0644 -0.1596
 1020BOLB   NC224469   3.755  15.601  14.116  0.1161  0.1840  0.0226
 1020BOLB   PO224470   3.852  15.611  13.738  0.1522  0.2913 -0.1778
 1020BOLB   GL324471   4.271  15.638  13.616  0.1137 -0.1889  0.2637
 1020BOLB   GL424472   4.334  15.654  13.952 -0.0338 -0.1766 -0.3348
 1020BOLB   C1C24473   4.714  15.353  13.418  0.1233 -0.0802  0.3511
 1020BOLB   C2C24474   4.877  15.017  13.549  0.2189 -0.4244 -0.1131
 1020BOLB   C3C24475   5.124  14.803  13.939  0.1795 -0.0271 -0.2148
 1020BOLB   C4C24476   5.437  14.563  14.102 -0.5207 -0.1062 -0.0358
 1020BOLB   C1D24477   4.378  16.119  14.024  0.0548 -0.0218  0.1016
 1020BOLB   C2D24478   4.664  16.421  14.121 -0.0611 -0.1379 -0.2376
 1020BOLB   C3D24479   5.086  16.356  14.164 -0.2118  0.0031  0.0672
 1020BOLB   C4D24480   5.508  16.037  14.131  0.1129 -0.0354 -0.0172
 1021BOLB   NC124481   5.309  21.542   9.363  0.1329  0.0961 -0.1678
 1021BOLB   PO124482   5.632  21.673   9.058  0.1794  0.0507 -0.0390
 1021BOLB   GL124483   6.065  21.692   9.156  0.2720 -0.0675  0.3222
 1021BOLB   GL224484   6.208  21.398   8.970  0.0279 -0.0473 -0.4869
 1021BOLB   C1A24485   6.356  21.746   9.460 -0.2129  0.3809 -0.2533
 1021BOLB   C2A24486   6.721  21.833   9.482 -0.0610 -0.1079 -0.0790
 1021BOLB   C3A24487   6.745  22.366   9.411 -0.0185 -0.0414  0.0322
 1021BOLB   C4A24488   6.619  22.738   9.731  0.1482 -0.0309  0.2359
 1021BOLB   C1B24489   6.285  21.227   9.361 -0.0636 -0.0050 -0.6696
 1021BOLB   C2B24490   6.624  21.012   9.610 -0.0891  0.3609 -0.4211
 1021BOLB   C3B24491   6.840  20.726   9.820 -0.0503  0.2926  0.2306
 1021BOLB   C4B24492   7.026  20.512  10.126 -0.1463  0.3888 -0.2223
 1021BOLB   NC224493   8.101  24.032   9.350 -0.0800 -0.0778 -0.0953
 1021BOLB   PO224494   7.863  23.751   9.578  0.0606  0.0742  0.0567
 1021BOLB   GL324495   7.873  23.507   9.860  0.0578  0.0314  0.0410
 1021BOLB   GL424496   7.955  23.560  10.182 -0.0688  0.4971  0.3570
 1021BOLB   C1C24497   7.760  23.125   9.910  0.0982  0.4174  0.1452
 1021BOLB   C2C24498   7.619  22.859  10.064  0.0780  0.1431 -0.0057
 1021BOLB   C3C24499   7.147  22.744  10.285  0.1987 -0.2731 -0.1387
 1021BOLB   C4C24500   6.777  22.795  10.131  0.1064  0.0925 -0.1234
 1021BOLB   C1D24501   8.409  23.431  10.315  0.0668 -0.1089 -0.2104
 1021BOLB   C2D24502   8.474  23.059  10.516 -0.4767 -0.3315  0.1032
 1021BOLB   C3D24503   8.235  22.765  10.768  0.0309  0.0530  0.0455
 1021BOLB   C4D24504   7.962  22.828  11.040 -0.0113  0.2254 -0.1112
 1022BOLB   NC124505   8.752  15.542  12.582  0.2201  0.2007 -0.2980
 1022BOLB   PO124506   8.476  15.200  12.563 -0.0493  0.1184 -0.0421
 1022BOLB   GL124507   8.265  15.051  12.344  0.0425 -0.4423  0.3257
 1022BOLB   GL224508   8.232  14.818  12.221  0.1310  0.2882  0.0365
 1022BOLB   C1A24509   8.007  15.232  12.056 -0.3347 -0.1896 -0.0047
 1022BOLB   C2A24510   7.716  15.059  11.749 -0.1276  0.0728  0.1001
 1022BOLB   C3A24511   7.394  15.162  11.593 -0.1788  0.1909  0.0234
 1022BOLB   C4A24512   6.966  15.084  11.561 -0.0425 -0.0221 -0.0124
 1022BOLB   C1B24513   8.044  14.573  11.969 -0.0588 -0.2435  0.3792
 1022BOLB   C2B24514   7.860  14.565  11.555 -0.2195 -0.3176 -0.2000
 1022BOLB   C3B24515   7.588  14.826  11.256 -0.3153  0.0299 -0.1556
 1022BOLB   C4B24516   7.193  14.799  11.221 -0.0406  0.0732 -0.0669
 1022BOLB   NC224517   5.130  14.747  10.169 -0.2117 -0.1089 -0.1878
 1022BOLB   PO224518   4.987  15.137  10.177 -0.1625 -0.3089  0.0699
 1022BOLB   GL324519   5.170  15.333  10.477  0.1060  0.0902  0.1518
 1022BOLB   GL424520   5.437  15.502  10.198 -0.1658 -0.1104  0.0413
 1022BOLB   C1C24521   5.549  15.441  10.636  0.3823  0.2278  0.0606
 1022BOLB   C2C24522   5.958  15.359  10.901 -0.2743  0.1334 -0.2762
 1022BOLB   C3C24523   6.213  15.200  11.264 -0.0500  0.0730  0.2469
 1022BOLB   C4C24524   6.607  15.286  11.449  0.0594 -0.1679  0.0017
 1022BOLB   C1D24525   5.898  15.626  10.301 -0.3585  0.0514  0.2489
 1022BOLB   C2D24526   6.090  15.678  10.571 -0.0406  0.1612  0.1537
 1022BOLB   C3D24527   6.508  15.511  10.635  0.1122 -0.1435  0.1062
 1022BOLB   C4D24528   6.633  15.268  10.960 -0.0465 -0.0777 -0.1260
 1023BOLB   NC124529   3.466  12.834  15.725  0.0433 -0.0089 -0.0943
 1023BOLB   PO124530   3.519  12.725  16.180 -0.0250  0.0249  0.0633
 1023BOLB   GL124531   3.995  12.899  15.967  0.2198  0.1265 -0.1911
 1023BOLB   GL224532   3.802  13.163  16.075 -0.1521  0.0994  0.0405
 1023BOLB   C1A24533   4.237  13.287  15.797  0.1380 -0.1796  0.0716
 1023BOLB   C2A24534   4.574  13.590  15.568  0.0991  0.4120  0.2890
 1023BOLB   C3A24535   4.893  13.912  15.270  0.1248 -0.1347  0.1123
 1023BOLB   C4A24536   5.007  14.142  14.917 -0.3090 -0.0394  0.1191
 1023BOLB   C1B24537   3.808  13.629  16.079  0.1392 -0.1746  0.1520
 1023BOLB   C2B24538   3.890  14.094  15.999  0.0179  0.1765  0.2665
 1023BOLB   C3B24539   4.192  14.387  15.989 -0.1337  0.2062 -0.0357
 1023BOLB   C4B24540   4.401  14.767  15.857  0.0535 -0.0497 -0.1780
 1023BOLB   NC224541   3.487  15.199  13.696 -0.1812 -0.1074 -0.0601
 1023BOLB   PO224542   3.500  14.765  13.482  0.3152 -0.1218 -0.1900
 1023BOLB   GL324543   3.891  14.832  13.589  0.0467  0.2220 -0.2316
 1023BOLB   GL424544   4.140  14.489  13.573 -0.0432 -0.0440  0.0258
 1023BOLB   C1C24545   4.326  15.025  13.659 -0.4324  0.1970  0.0218
 1023BOLB   C2C24546   4.544  15.101  14.039  0.3355 -0.0439 -0.0316
 1023BOLB   C3C24547   4.804  14.813  14.283  0.0275  0.2209 -0.1621
 1023BOLB   C4C24548   4.916  14.511  14.643  0.1488  0.0389 -0.2420
 1023BOLB   C1D24549   4.482  14.314  13.329  0.0462  0.1209 -0.0108
 1023BOLB   C2D24550   4.729  14.363  13.075 -0.2272 -0.0287  0.0995
 1023BOLB   C3D24551   5.191  14.399  13.111 -0.1461 -0.0016  0.0523
 1023BOLB   C4D24552   5.617  14.454  13.122  0.1281  0.2733 -0.0896
 1024BOLB   NC124553   7.129  20.831  12.853 -0.1441 -0.4552  0.0213
 1024BOLB   PO124554   7.448  20.520  12.599 -0.0200  0.3213  0.2690
 1024BOLB   GL124555   7.360  20.276  12.239 -0.1260  0.1872  0.1383
 1024BOLB   GL224556   7.288  19.864  12.176  0.1286 -0.2383 -0.1221
 1024BOLB   C1A24557   7.010  20.239  11.969 -0.0712 -0.0562 -0.0020
 1024BOLB   C2A24558   6.605  20.105  11.716 -0.3235 -0.0093 -0.2760
 1024BOLB   C3A24559   6.482  20.017  11.222 -0.3281 -0.0138 -0.2111
 1024BOLB   C4A24560   6.172  19.773  11.067  0.0618  0.3625 -0.1893
 1024BOLB   C1B24561   7.138  19.760  11.736 -0.1998 -0.1527  0.1221
 1024BOLB   C2B24562   6.989  20.009  11.419  0.0513 -0.1151  0.0519
 1024BOLB   C3B24563   6.922  19.842  11.009  0.0015 -0.0545  0.1581
 1024BOLB   C4B24564   6.611  19.564  10.861 -0.0319  0.0154  0.0468
 1024BOLB   NC224565   5.586  19.948   8.757  0.3200 -0.0670 -0.0444
 1024BOLB   PO224566   5.952  19.785   8.917 -0.3338  0.1041 -0.2425
 1024BOLB   GL324567   5.866  20.122   9.227  0.2729  0.2966 -0.0970
 1024BOLB   GL424568   6.119  20.240   9.150 -0.0947 -0.2015 -0.0621
 1024BOLB   C1C24569   5.646  20.022   9.673  0.1055 -0.0930 -0.0342
 1024BOLB   C2C24570   5.612  19.749  10.009  0.0405  0.2140 -0.0927
 1024BOLB   C3C24571   5.916  19.755  10.307 -0.3085  0.0044 -0.2362
 1024BOLB   C4C24572   6.069  19.622  10.655  0.4149 -0.0452 -0.1912
 1024BOLB   C1D24573   6.279  20.110   9.677 -0.0096  0.1027  0.4561
 1024BOLB   C2D24574   6.583  19.817   9.609 -0.0484 -0.1368 -0.1613
 1024BOLB   C3D24575   6.754  19.514   9.510  0.0167  0.1431 -0.0873
 1024BOLB   C4D24576   6.812  19.284   9.171  0.0333  0.1233 -0.0726
 1025BOLB   NC124577   5.943  19.440  13.231 -0.2735 -0.3721 -0.3627
 1025BOLB   PO124578   6.273  18.973  13.318 -0.1482 -0.1182 -0.0923
 1025BOLB   GL124579   5.952  18.733  13.375 -0.0198 -0.2381 -0.0844
 1025BOLB   GL224580   5.989  18.436  13.181 -0.0271  0.0909  0.0158
 1025BOLB   C1A24581   5.554  18.680  13.482  0.1046  0.2389 -0.2963
 1025BOLB   C2A24582   5.247  18.368  13.716  0.2098  0.1169 -0.0479
 1025BOLB   C3A24583   5.308  17.868  13.693  0.3200 -0.2073 -0.0494
 1025BOLB   C4A24584   5.272  17.433  13.508 -0.0792  0.0302 -0.2340
 1025BOLB   C1B24585   5.652  18.324  13.052 -0.5141 -0.2898  0.1406
 1025BOLB   C2B24586   5.305  18.458  13.122  0.1904  0.0690  0.0654
 1025BOLB   C3B24587   4.960  18.510  13.223 -0.3059 -0.2093  0.1763
 1025BOLB   C4B24588   4.865  18.288  13.451  0.2469  0.3443 -0.1310
 1025BOLB   NC224589   4.045  17.186  11.360 -0.4952 -0.1108 -0.2566
 1025BOLB   PO224590   4.010  16.709  11.454  0.2055  0.3063  0.1327
 1025BOLB   GL324591   4.347  16.957  11.715 -0.0056  0.4024 -0.0659
 1025BOLB   GL424592   4.574  17.108  11.395 -0.0259  0.1008 -0.1794
 1025BOLB   C1C24593   4.512  16.861  12.123  0.0199 -0.1013 -0.0340
 1025BOLB   C2C24594   4.771  16.787  12.553 -0.1397 -0.3114  0.1121
 1025BOLB   C3C24595   4.997  16.978  12.895  0.2586 -0.0044 -0.2667
 1025BOLB   C4C24596   5.229  17.127  13.217  0.2255  0.1207  0.1477
 1025BOLB   C1D24597   4.743  17.291  11.742 -0.0392 -0.0686 -0.0539
 1025BOLB   C2D24598   4.960  17.037  12.109 -0.2397 -0.2357  0.0440
 1025BOLB   C3D24599   5.296  17.119  12.338  0.2277  0.0034 -0.2098
 1025BOLB   C4D24600   5.403  17.225  12.721  0.1581  0.1927  0.0051
 1026BOLB   NC124601   7.224  22.763  12.199  0.0471 -0.0019  0.1647
 1026BOLB   PO124602   6.925  22.663  11.904 -0.3180 -0.4134 -0.1868
 1026BOLB   GL124603   7.217  22.408  11.679 -0.2191  0.1170  0.1795
 1026BOLB   GL224604   7.279  22.094  11.547 -0.0433 -0.0214  0.0525
 1026BOLB   C1A24605   7.559  22.450  11.398 -0.0318  0.2352 -0.2792
 1026BOLB   C2A24606   8.017  22.377  11.189  0.1256 -0.0804  0.3222
 1026BOLB   C3A24607   8.249  22.059  11.137  0.3848  0.1393  0.0230
 1026BOLB   C4A24608   8.316  21.869  10.754 -0.1579  0.2237  0.1939
 1026BOLB   C1B24609   6.968  22.135  11.294 -0.1998  0.1252 -0.0277
 1026BOLB   C2B24610   6.717  21.822  11.197 -0.0082 -0.0755  0.0348
 1026BOLB   C3B24611   6.548  21.453  11.054 -0.3178  0.3611 -0.1139
 1026BOLB   C4B24612   6.719  21.211  10.792 -0.0583  0.1557 -0.0616
 1026BOLB   NC224613   7.659  23.089   8.371  0.1088  0.1509  0.0840
 1026BOLB   PO224614   7.812  22.793   8.542 -0.2664  0.0684  0.0772
 1026BOLB   GL324615   8.001  22.525   8.842 -0.0316  0.2245 -0.3166
 1026BOLB   GL424616   7.849  22.579   8.991 -0.3148 -0.2014  0.2981
 1026BOLB   C1C24617   8.294  22.350   9.250  0.0010 -0.1153 -0.1613
 1026BOLB   C2C24618   8.549  22.172   9.599 -0.3066  0.1240  0.0777
 1026BOLB   C3C24619   8.648  22.147  10.004 -0.3178 -0.0721 -0.0784
 1026BOLB   C4C24620   8.598  21.962  10.322 -0.0005 -0.0041  0.1945
 1026BOLB   C1D24621   7.852  22.262   9.315 -0.3019  0.0641  0.1257
 1026BOLB   C2D24622   8.053  22.009   9.553 -0.4496  0.0035  0.0659
 1026BOLB   C3D24623   8.252  21.833   9.962  0.0306  0.1676  0.0138
 1026BOLB   C4D24624   8.048  21.570  10.363 -0.3698 -0.1137 -0.0077
 1027BOLB   NC124625   8.216   7.013  10.046 -0.2118 -0.1299 -0.1744
 1027BOLB   PO124626   8.227   7.371  10.238  0.4048 -0.1441  0.3619
 1027BOLB   GL124627   8.414   7.690  10.037  0.1405 -0.0215 -0.0871
 1027BOLB   GL224628   8.524   7.961  10.242  0.1452 -0.1231 -0.1532
 1027BOLB   C1A24629   8.618   7.782   9.724  0.2005 -0.3125  0.0864
 1027BOLB   C2A24630   8.934   8.050   9.586  0.0060 -0.0633 -0.0459
 1027BOLB   C3A24631   9.103   8.477   9.504  0.6210 -0.0201  0.0888
 1027BOLB   C4A24632   9.394   8.755   9.451  0.1044  0.3424  0.2282
 1027BOLB   C1B24633   8.749   8.226  10.079 -0.1338  0.1264 -0.2200
 1027BOLB   C2B24634   9.245   8.117   9.945  0.1333  0.1590  0.1308
 1027BOLB   C3B24635   9.476   7.705  10.098 -0.4641 -0.0036 -0.1546
 1027BOLB   C4B24636   9.518   7.431   9.855  0.0652 -0.0143 -0.0258
 1027BOLB   NC224637   8.919   7.656   7.799  0.1414  0.1829  0.0269
 1027BOLB   PO224638   8.927   7.591   8.323 -0.1060  0.0540  0.1394
 1027BOLB   GL324639   9.101   7.849   8.411  0.2338 -0.2113 -0.1811
 1027BOLB   GL424640   9.175   8.003   8.075 -0.1895 -0.1158  0.1002
 1027BOLB   C1C24641   9.294   8.148   8.534 -0.0542  0.1166  0.0740
 1027BOLB   C2C24642   9.370   8.574   8.508 -0.4821 -0.0667  0.2385
 1027BOLB   C3C24643   9.610   8.928   8.732 -0.1104  0.3288 -0.0671
 1027BOLB   C4C24644   9.652   8.970   9.198  0.4230  0.1029  0.0904
 1027BOLB   C1D24645   9.105   8.325   8.163 -0.2475 -0.2576  0.1178
 1027BOLB   C2D24646   8.880   8.493   8.482 -0.0465  0.0084 -0.0568
 1027BOLB   C3D24647   8.746   8.618   8.896 -0.2550  0.0286  0.3132
 1027BOLB   C4D24648   8.468   8.748   9.297 -0.0573  0.2202  0.1388
 1028BOLB   NC124649  20.107  25.160  15.502  0.2848 -0.2989 -0.4183
 1028BOLB   PO124650  20.451  24.840  15.464 -0.1986  0.0651 -0.4175
 1028BOLB   GL124651  20.611  24.952  15.797  0.3507  0.1085 -0.0376
 1028BOLB   GL224652  20.306  24.944  15.954  0.1426 -0.0184  0.0823
 1028BOLB   C1A24653  20.792  25.195  16.206  0.0246 -0.0984 -0.0610
 1028BOLB   C2A24654  21.082  25.255  16.675  0.1154  0.0742 -0.0493
 1028BOLB   C3A24655  21.318  25.337  16.957 -0.2677 -0.0126  0.0153
 1028BOLB   C4A24656  21.658  25.437  17.187  0.0389  0.1436  0.0572
 1028BOLB   C1B24657  20.296  24.986  16.380  0.2862 -0.2075  0.3598
 1028BOLB   C2B24658  20.232  24.915  16.875  0.0856  0.2750  0.0571
 1028BOLB   C3B24659  20.443  24.913  17.357  0.2690  0.0395  0.1496
 1028BOLB   C4B24660  20.739  25.287  17.486 -0.0947 -0.0174 -0.0251
 1028BOLB   NC224661  22.648  26.971  17.791 -0.3541  0.0460 -0.2809
 1028BOLB   PO224662  22.695  27.248  17.311 -0.1278 -0.0047  0.0207
 1028BOLB   GL324663  22.748  26.792  17.332 -0.3052  0.0520  0.1904
 1028BOLB   GL424664  22.769  26.802  17.028 -0.1347  0.1243  0.0977
 1028BOLB   C1C24665  22.845  26.374  17.265 -0.0594 -0.1160  0.1954
 1028BOLB   C2C24666  22.846  25.887  17.069 -0.1805  0.2751  0.2350
 1028BOLB   C3C24667  22.445  25.642  17.065 -0.5526  0.2993  0.0506
 1028BOLB   C4C24668  22.096  25.626  17.207  0.0715  0.1391 -0.2613
 1028BOLB   C1D24669  22.397  26.537  16.974 -0.1603  0.0953  0.2201
 1028BOLB   C2D24670  21.993  26.654  16.880  0.0129  0.1912 -0.0817
 1028BOLB   C3D24671  21.572  26.461  16.992  0.0600  0.1885 -0.0086
 1028BOLB   C4D24672  21.350  26.268  16.736 -0.0063  0.2452  0.0034
 1029BOLB   NC124673   8.409  25.563  14.607 -0.0600 -0.1613 -0.2417
 1029BOLB   PO124674   8.480  25.134  14.416  0.1670 -0.3428 -0.2109
 1029BOLB   GL124675   8.753  24.812  14.483  0.1455 -0.1591 -0.1069
 1029BOLB   GL224676   9.109  24.705  14.393  0.0667  0.1456  0.3814
 1029BOLB   C1A24677   9.005  24.543  14.835  0.0298 -0.0944 -0.1665
 1029BOLB   C2A24678   9.329  24.616  15.154 -0.1021 -0.1018  0.0139
 1029BOLB   C3A24679   9.602  24.869  15.132  0.2577  0.2926 -0.2598
 1029BOLB   C4A24680   9.868  25.022  15.340 -0.1262  0.3102 -0.0181
 1029BOLB   C1B24681   9.610  24.489  14.259 -0.0997 -0.1364 -0.4523
 1029BOLB   C2B24682   9.949  24.417  14.057 -0.1352 -0.0171 -0.1194
 1029BOLB   C3B24683  10.129  24.736  13.893 -0.1907 -0.2756 -0.1262
 1029BOLB   C4B24684  10.268  25.092  13.769  0.4042 -0.1248 -0.1708
 1029BOLB   NC224685  10.725  27.997  15.416 -0.0906 -0.1263  0.2623
 1029BOLB   PO224686  10.861  27.522  15.369  0.2279 -0.1438  0.0803
 1029BOLB   GL324687  10.855  27.020  15.139 -0.1047 -0.1933 -0.1811
 1029BOLB   GL424688  11.209  27.056  15.151 -0.5110  0.2686  0.0315
 1029BOLB   C1C24689  10.663  26.602  15.145 -0.4541  0.0340  0.0761
 1029BOLB   C2C24690  10.738  26.207  14.931 -0.1503 -0.1294  0.0079
 1029BOLB   C3C24691  10.431  25.774  15.036  0.0229 -0.0114 -0.1432
 1029BOLB   C4C24692  10.175  25.376  15.167 -0.0211 -0.2844  0.0931
 1029BOLB   C1D24693  11.164  26.600  15.009 -0.1094  0.2477  0.3200
 1029BOLB   C2D24694  11.348  26.293  15.130 -0.0312 -0.0690 -0.0997
 1029BOLB   C3D24695  11.364  25.819  15.049 -0.1198 -0.2944  0.3684
 1029BOLB   C4D24696  11.415  25.347  14.982 -0.0245 -0.2235 -0.2034
 1030BOLB   NC124697  20.243  23.806  14.133  0.0737 -0.0638  0.0964
 1030BOLB   PO124698  20.441  23.895  14.435 -0.1988  0.0573  0.2039
 1030BOLB   GL124699  20.771  23.864  14.163 -0.1140  0.1229  0.1448
 1030BOLB   GL224700  21.029  23.900  14.329  0.2163 -0.1643  0.1138
 1030BOLB   C1A24701  20.995  23.982  13.873 -0.3184  0.2599 -0.0654
 1030BOLB   C2A24702  21.244  24.208  13.816 -0.1103 -0.0853 -0.1189
 1030BOLB   C3A24703  21.681  24.381  13.897  0.0677 -0.1061  0.0907
 1030BOLB   C4A24704  21.888  24.716  13.682  0.0746  0.0710 -0.2574
 1030BOLB   C1B24705  21.394  24.128  14.301  0.1939  0.2373  0.1305
 1030BOLB   C2B24706  21.720  24.388  14.507 -0.2625 -0.0203  0.2539
 1030BOLB   C3B24707  22.027  24.547  14.730  0.0520 -0.1252  0.0825
 1030BOLB   C4B24708  22.375  24.814  14.548  0.1616 -0.0422 -0.1893
 1030BOLB   NC224709  23.335  26.627  12.237  0.0301 -0.0876  0.2817
 1030BOLB   PO224710  23.197  26.233  12.617 -0.0716  0.2827 -0.1531
 1030BOLB   GL324711  23.157  25.991  12.981 -0.3763  0.1815 -0.2391
 1030BOLB   GL424712  22.928  26.132  13.027 -0.2831  0.0723 -0.0576
 1030BOLB   C1C24713  22.928  25.617  12.957 -0.0047  0.1452 -0.1272
 1030BOLB   C2C24714  22.601  25.384  13.237  0.1921  0.1099 -0.1114
 1030BOLB   C3C24715  22.137  25.315  13.413  0.0462 -0.1920 -0.0262
 1030BOLB   C4C24716  21.844  25.078  13.514  0.1004  0.1586  0.1186
 1030BOLB   C1D24717  22.708  25.945  13.366  0.0266  0.0705  0.1077
 1030BOLB   C2D24718  22.290  25.734  13.458 -0.1002 -0.2876 -0.3562
 1030BOLB   C3D24719  21.841  25.864  13.487  0.0474 -0.3165 -0.0442
 1030BOLB   C4D24720  21.674  26.216  13.246 -0.2320 -0.1855 -0.0373
 1031BOLB   NC124721  16.341  26.936  13.409 -0.1177 -0.2505 -0.0346
 1031BOLB   PO124722  15.933  27.196  13.415 -0.4408  0.1805 -0.1635
 1031BOLB   GL124723  15.828  27.025  13.090 -0.2132 -0.0097 -0.0626
 1031BOLB   GL224724  15.607  27.207  12.990 -0.0023  0.0371 -0.1031
 1031BOLB   C1A24725  15.655  26.716  12.771  0.1112  0.0007  0.0619
 1031BOLB   C2A24726  15.350  26.608  12.642 -0.0393 -0.2625  0.0653
 1031BOLB   C3A24727  15.055  26.575  12.322 -0.0166 -0.0204  0.0220
 1031BOLB   C4A24728  14.788  26.513  11.995 -0.2980 -0.1323 -0.1928
 1031BOLB   C1B24729  15.172  27.300  12.869  0.1058  0.2506  0.0025
 1031BOLB   C2B24730  14.943  27.056  12.488 -0.1622 -0.0439 -0.2251
 1031BOLB   C3B24731  14.550  26.843  12.309  0.0397 -0.2140  0.3937
 1031BOLB   C4B24732  14.191  26.691  12.262  0.0180 -0.2558 -0.2023
 1031BOLB   NC224733  13.131  27.962  10.499 -0.1235  0.1795  0.0190
 1031BOLB   PO224734  13.276  27.627  10.868 -0.1237 -0.0899 -0.2412
 1031BOLB   GL324735  13.303  27.361  11.174  0.2122  0.0614  0.0460
 1031BOLB   GL424736  13.016  27.080  11.121 -0.1053 -0.3179 -0.2178
 1031BOLB   C1C24737  13.476  27.030  11.235  0.0533  0.0555 -0.0190
 1031BOLB   C2C24738  13.806  26.911  11.336 -0.0302  0.2825 -0.3554
 1031BOLB   C3C24739  14.105  26.817  11.689  0.0333 -0.0162 -0.0089
 1031BOLB   C4C24740  14.527  26.523  11.762 -0.1094  0.0031 -0.1809
 1031BOLB   C1D24741  13.023  26.978  11.522  0.3375  0.1591 -0.4779
 1031BOLB   C2D24742  12.864  27.119  11.901  0.0211 -0.1343 -0.0288
 1031BOLB   C3D24743  12.891  26.869  12.299  0.1666 -0.0059 -0.1074
 1031BOLB   C4D24744  13.082  26.596  12.520  0.2799  0.1082  0.0230
 1032BOLB   NC124745  17.164  27.027  13.039  0.2794  0.1240  0.0665
 1032BOLB   PO124746  16.813  26.798  13.168  0.5885 -0.1525 -0.0318
 1032BOLB   GL124747  16.927  26.707  12.728 -0.1438 -0.1808  0.0007
 1032BOLB   GL224748  17.184  26.658  12.626  0.0089 -0.1824 -0.0107
 1032BOLB   C1A24749  16.546  26.831  12.497  0.2113  0.0111  0.2508
 1032BOLB   C2A24750  16.462  27.031  12.063  0.2574 -0.0438  0.1084
 1032BOLB   C3A24751  16.317  26.960  11.599  0.0748 -0.2945 -0.1613
 1032BOLB   C4A24752  16.250  26.587  11.224 -0.0844  0.2060 -0.2803
 1032BOLB   C1B24753  17.300  26.544  12.211 -0.0736 -0.2692 -0.2815
 1032BOLB   C2B24754  17.605  26.314  12.162  0.2004  0.2865 -0.3211
 1032BOLB   C3B24755  17.846  26.040  12.378  0.1748 -0.0914 -0.0877
 1032BOLB   C4B24756  18.163  25.802  12.137  0.0553  0.0642  0.2692
 1032BOLB   NC224757  15.910  26.887   8.880 -0.0234  0.0839 -0.1536
 1032BOLB   PO224758  16.312  26.754   9.141  0.2690 -0.0836  0.0042
 1032BOLB   GL324759  15.865  26.558   9.400  0.0992  0.3584  0.3194
 1032BOLB   GL424760  15.738  26.370   9.148  0.1590 -0.1146 -0.0602
 1032BOLB   C1C24761  15.677  26.327   9.675 -0.2080  0.3351  0.0494
 1032BOLB   C2C24762  15.755  26.364  10.137 -0.4459 -0.2033  0.0307
 1032BOLB   C3C24763  15.756  26.388  10.651  0.0376 -0.3182 -0.2103
 1032BOLB   C4C24764  16.158  26.415  10.951 -0.0671  0.0926 -0.0874
 1032BOLB   C1D24765  15.977  26.045   9.299  0.2183 -0.1672 -0.2542
 1032BOLB   C2D24766  16.429  25.904   9.286  0.2672  0.0131  0.0584
 1032BOLB   C3D24767  16.672  25.749   9.443 -0.2386 -0.0403 -0.2311
 1032BOLB   C4D24768  16.850  25.661   9.789 -0.1091 -0.0207  0.2957
 1033BOLB   NC124769  12.588  23.936  13.124  0.0894  0.1447  0.0647
 1033BOLB   PO124770  12.563  24.144  13.575 -0.2901  0.1924 -0.1451
 1033BOLB   GL124771  12.220  24.325  13.403  0.0814 -0.2656 -0.1275
 1033BOLB   GL224772  12.234  24.422  13.101  0.0842  0.0085 -0.0217
 1033BOLB   C1A24773  11.982  24.739  13.451 -0.2520  0.3138 -0.1037
 1033BOLB   C2A24774  11.809  24.860  13.914 -0.1353 -0.1831  0.1393
 1033BOLB   C3A24775  11.934  25.242  14.015 -0.2251 -0.1858 -0.0260
 1033BOLB   C4A24776  11.900  25.609  14.164  0.0244  0.1922  0.0396
 1033BOLB   C1B24777  12.115  24.710  12.796  0.5784  0.1528 -0.0421
 1033BOLB   C2B24778  12.123  24.890  12.364  0.1660 -0.0909 -0.0779
 1033BOLB   C3B24779  11.998  25.304  12.154  0.2415  0.1334  0.2010
 1033BOLB   C4B24780  12.008  25.613  11.777  0.0960 -0.0716 -0.5435
 1033BOLB   NC224781  11.627  27.822  15.053 -0.2073  0.0131 -0.0307
 1033BOLB   PO224782  11.939  27.661  15.200 -0.3770  0.1832  0.0266
 1033BOLB   GL324783  11.843  27.276  15.311  0.5459  0.1461  0.2739
 1033BOLB   GL424784  11.543  27.177  15.496  0.0216 -0.1151  0.2872
 1033BOLB   C1C24785  11.687  26.844  15.203  0.1734  0.0048 -0.0494
 1033BOLB   C2C24786  11.763  26.649  14.899 -0.2442  0.2259  0.4052
 1033BOLB   C3C24787  11.766  26.337  14.595 -0.0221  0.0286 -0.2744
 1033BOLB   C4C24788  11.614  25.985  14.381  0.0147 -0.0203  0.0832
 1033BOLB   C1D24789  11.411  26.681  15.608 -0.0536  0.2674  0.2353
 1033BOLB   C2D24790  11.741  26.379  15.430  0.1306  0.2835  0.1378
 1033BOLB   C3D24791  11.793  26.030  15.278 -0.0246  0.0112 -0.0487
 1033BOLB   C4D24792  11.806  25.555  15.329  0.2690 -0.1518  0.2602
 1034BOLB   NC124793  13.471  23.793  14.066  0.1558 -0.1365  0.0238
 1034BOLB   PO124794  13.368  24.206  14.015 -0.1340  0.0240  0.1369
 1034BOLB   GL124795  13.068  24.434  14.211  0.2954  0.0901 -0.1871
 1034BOLB   GL224796  12.702  24.430  14.319 -0.3795 -0.0941 -0.0145
 1034BOLB   C1A24797  13.171  24.919  14.378 -0.4468 -0.4056 -0.2592
 1034BOLB   C2A24798  12.910  25.270  14.291 -0.3147  0.1998  0.2921
 1034BOLB   C3A24799  12.828  25.658  14.321  0.1066  0.1270  0.2267
 1034BOLB   C4A24800  12.560  26.082  14.560 -0.2377  0.3542 -0.0621
 1034BOLB   C1B24801  12.698  24.783  14.481 -0.0587 -0.1559  0.2311
 1034BOLB   C2B24802  12.681  25.122  14.678  0.2504 -0.1629  0.0011
 1034BOLB   C3B24803  12.619  25.550  14.725 -0.0770  0.1144 -0.1003
 1034BOLB   C4B24804  12.493  25.776  15.056  0.2514 -0.2852  0.1842
 1034BOLB   NC224805  13.422  28.032  14.838 -0.3835 -0.1412  0.0738
 1034BOLB   PO224806  13.291  28.275  14.472 -0.0690  0.1342  0.3218
 1034BOLB   GL324807  13.063  28.024  14.278  0.0021 -0.0247 -0.2308
 1034BOLB   GL424808  13.322  27.784  13.978  0.3687  0.1080  0.0362
 1034BOLB   C1C24809  12.933  27.589  14.267  0.4122  0.2394  0.0428
 1034BOLB   C2C24810  12.798  27.245  14.156  0.1992 -0.0675  0.0683
 1034BOLB   C3C24811  12.728  26.859  14.208 -0.1290 -0.0208 -0.2000
 1034BOLB   C4C24812  12.534  26.471  14.398 -0.0765  0.1736 -0.3954
 1034BOLB   C1D24813  13.001  27.744  13.804 -0.1848  0.1268  0.3546
 1034BOLB   C2D24814  12.928  27.395  13.566  0.0271 -0.3677 -0.1724
 1034BOLB   C3D24815  12.603  27.194  13.256  0.1959 -0.2019 -0.2830
 1034BOLB   C4D24816  12.353  27.038  13.155  0.5484  0.0680  0.0338
 1035BOLB   NC124817  18.993  27.941  12.956 -0.4234  0.1934  0.1240
 1035BOLB   PO124818  19.078  27.519  12.730 -0.3714  0.1552 -0.3506
 1035BOLB   GL124819  19.005  26.991  12.656 -0.0546  0.4168  0.1118
 1035BOLB   GL224820  18.852  26.958  12.389 -0.2060  0.1111  0.4912
 1035BOLB   C1A24821  19.054  26.525  12.493 -0.0130 -0.1067 -0.0734
 1035BOLB   C2A24822  19.140  26.106  12.336  0.1403 -0.0407  0.0614
 1035BOLB   C3A24823  19.292  25.994  11.948 -0.4456  0.2155  0.0772
 1035BOLB   C4A24824  19.451  25.780  11.708  0.1067 -0.1776  0.1016
 1035BOLB   C1B24825  18.856  27.038  11.946  0.1471  0.2068 -0.1392
 1035BOLB   C2B24826  18.857  26.825  11.578  0.1855 -0.0843  0.3220
 1035BOLB   C3B24827  18.554  26.678  11.274  0.0615 -0.1064 -0.3186
 1035BOLB   C4B24828  18.180  26.471  11.319  0.1042  0.0859 -0.0329
 1035BOLB   NC224829  19.945  26.924   9.737 -0.1596 -0.2889 -0.1971
 1035BOLB   PO224830  19.790  26.597   9.576 -0.0663 -0.1029 -0.0078
 1035BOLB   GL324831  19.606  26.364   9.854  0.1889  0.1903 -0.0575
 1035BOLB   GL424832  19.713  26.071   9.822  0.1104 -0.2010  0.0473
 1035BOLB   C1C24833  19.662  26.364  10.274 -0.2168  0.2491 -0.1796
 1035BOLB   C2C24834  19.663  26.176  10.590  0.2344  0.3396 -0.0516
 1035BOLB   C3C24835  19.721  25.811  10.914 -0.0330  0.0374 -0.0175
 1035BOLB   C4C24836  19.650  25.619  11.285 -0.2292 -0.1463 -0.3065
 1035BOLB   C1D24837  19.504  25.910  10.145 -0.1109  0.2114 -0.1172
 1035BOLB   C2D24838  19.300  25.750  10.556  0.0305  0.2205  0.0329
 1035BOLB   C3D24839  19.435  25.395  10.803  0.1305  0.3512  0.0986
 1035BOLB   C4D24840  19.587  25.095  11.068  0.1142 -0.1027  0.1100
 1036BOLB   NC124841   8.816  25.957  13.742  0.1694 -0.1187 -0.0918
 1036BOLB   PO124842   8.636  25.799  14.200 -0.1221 -0.3149 -0.3845
 1036BOLB   GL124843   8.924  25.584  14.314 -0.1373  0.1494 -0.0939
 1036BOLB   GL224844   8.913  25.325  14.590  0.1045 -0.1173  0.0392
 1036BOLB   C1A24845   9.413  25.432  14.504 -0.0742 -0.2391  0.1186
 1036BOLB   C2A24846   9.760  25.164  14.771  0.0470 -0.4018 -0.0921
 1036BOLB   C3A24847  10.217  25.027  14.806 -0.0174  0.1109  0.0116
 1036BOLB   C4A24848  10.552  25.412  14.720 -0.0228  0.1644 -0.1318
 1036BOLB   C1B24849   9.128  25.038  14.802  0.0816 -0.1014 -0.0102
 1036BOLB   C2B24850   9.443  24.717  14.667 -0.2295 -0.0766 -0.0349
 1036BOLB   C3B24851   9.867  24.602  14.660  0.3997 -0.2944 -0.1686
 1036BOLB   C4B24852  10.233  24.371  14.566 -0.0776 -0.1932  0.0430
 1036BOLB   NC224853   9.486  26.550  12.345 -0.0231 -0.1848  0.1897
 1036BOLB   PO224854   9.763  26.620  12.691  0.1941  0.0972 -0.1855
 1036BOLB   GL324855   9.984  26.421  13.085 -0.2337  0.0660 -0.2189
 1036BOLB   GL424856  10.378  26.528  12.925 -0.2240 -0.2022 -0.0687
 1036BOLB   C1C24857  10.325  26.340  13.369  0.0651  0.0010  0.1433
 1036BOLB   C2C24858  10.475  26.186  13.753 -0.2037  0.0867 -0.2957
 1036BOLB   C3C24859  10.580  25.902  14.113 -0.0179  0.0940  0.1725
 1036BOLB   C4C24860  10.740  25.691  14.484  0.2501 -0.2123  0.0397
 1036BOLB   C1D24861  10.822  26.503  13.006 -0.4150  0.0552  0.3070
 1036BOLB   C2D24862  11.105  26.256  13.315 -0.0249 -0.1411 -0.5455
 1036BOLB   C3D24863  11.208  25.922  13.292  0.3195  0.1818  0.2002
 1036BOLB   C4D24864  11.042  25.546  13.500 -0.0517  0.4385  0.0177
 1037BOLB   NC124865  17.440  28.362  12.044  0.2568  0.0130  0.0181
 1037BOLB   PO124866  17.732  28.009  12.076 -0.3722 -0.3815  0.2104
 1037BOLB   GL124867  18.155  27.816  11.957 -0.0052 -0.3533  0.2530
 1037BOLB   GL224868  18.308  27.550  12.101  0.0433 -0.1711 -0.0134
 1037BOLB   C1A24869  18.394  27.744  11.634  0.0087  0.0298  0.0139
 1037BOLB   C2A24870  18.371  27.548  11.269  0.0813 -0.2612  0.0099
 1037BOLB   C3A24871  18.494  27.167  11.095 -0.0494  0.0044 -0.0870
 1037BOLB   C4A24872  18.282  26.702  10.893 -0.0796 -0.1091 -0.1691
 1037BOLB   C1B24873  18.325  27.183  12.180  0.0616 -0.3725  0.0124
 1037BOLB   C2B24874  18.378  26.873  12.038  0.0204 -0.0247 -0.0037
 1037BOLB   C3B24875  18.450  26.550  11.843 -0.0475  0.2338  0.3617
 1037BOLB   C4B24876  18.637  26.260  11.538 -0.0387 -0.0848  0.0321
 1037BOLB   NC224877  17.327  26.449   8.907  0.0116 -0.0354 -0.1723
 1037BOLB   PO224878  17.506  26.820   8.901 -0.1567  0.1212 -0.1288
 1037BOLB   GL324879  17.324  26.833   9.307 -0.2096  0.1041 -0.0370
 1037BOLB   GL424880  17.114  27.064   9.402 -0.0179  0.1223  0.0097
 1037BOLB   C1C24881  17.381  26.575   9.601 -0.0696 -0.1062  0.0137
 1037BOLB   C2C24882  17.561  26.624  10.016  0.0660 -0.0043 -0.0399
 1037BOLB   C3C24883  17.775  26.520  10.381 -0.1163 -0.4091 -0.0238
 1037BOLB   C4C24884  18.096  26.468  10.619  0.1238 -0.0965  0.2311
 1037BOLB   C1D24885  17.389  27.033   9.748 -0.1239  0.2216  0.0822
 1037BOLB   C2D24886  17.688  27.095  10.152  0.2423 -0.0303 -0.1480
 1037BOLB   C3D24887  17.863  26.983  10.548 -0.1613  0.2474 -0.0091
 1037BOLB   C4D24888  17.910  27.093  11.079  0.2064 -0.2273 -0.0350
 1038BOLB   NC124889  18.568  23.843  12.910  0.1214  0.1255 -0.1277
 1038BOLB   PO124890  18.816  23.841  13.258  0.2136  0.0160 -0.3256
 1038BOLB   GL124891  19.017  24.033  12.911 -0.3037  0.5650  0.0606
 1038BOLB   GL224892  19.218  24.238  12.869 -0.1360  0.1226  0.1615
 1038BOLB   C1A24893  19.114  24.098  12.428 -0.2305 -0.0819 -0.0043
 1038BOLB   C2A24894  19.220  24.158  12.006  0.0627  0.0647 -0.4851
 1038BOLB   C3A24895  19.174  24.177  11.519 -0.2758 -0.0342  0.0976
 1038BOLB   C4A24896  19.283  24.336  11.066  0.1176  0.2104 -0.0540
 1038BOLB   C1B24897  19.510  24.288  12.583  0.0961  0.1582  0.1331
 1038BOLB   C2B24898  19.608  24.561  12.230 -0.1364  0.1244 -0.0279
 1038BOLB   C3B24899  19.655  24.351  11.767 -0.2211 -0.2609  0.0376
 1038BOLB   C4B24900  19.727  24.216  11.449 -0.0830 -0.1306 -0.0613
 1038BOLB   NC224901  19.935  26.155   9.355  0.2608 -0.0979  0.3515
 1038BOLB   PO224902  20.225  25.820   9.175  0.0866 -0.0271 -0.2755
 1038BOLB   GL324903  20.036  25.704   9.581  0.0859  0.3411  0.0861
 1038BOLB   GL424904  20.194  25.518   9.838 -0.0667 -0.1143 -0.2790
 1038BOLB   C1C24905  19.688  25.551   9.812 -0.0783  0.3870 -0.0438
 1038BOLB   C2C24906  19.444  25.366  10.307 -0.0266  0.0570  0.0230
 1038BOLB   C3C24907  19.512  24.966  10.570 -0.0726 -0.2739  0.2296
 1038BOLB   C4C24908  19.238  24.731  10.863  0.0145  0.0095  0.1114
 1038BOLB   C1D24909  20.343  25.204  10.191  0.1611 -0.2523  0.0973
 1038BOLB   C2D24910  20.420  25.591  10.385 -0.2958  0.0653  0.2634
 1038BOLB   C3D24911  20.671  25.811  10.694 -0.0097  0.2118 -0.0187
 1038BOLB   C4D24912  20.704  25.797  11.091 -0.1090  0.1312 -0.0745
 1039BOLB   NC124913  15.492  26.831  13.375  0.2181 -0.1214  0.2386
 1039BOLB   PO124914  15.401  26.294  13.291  0.1306  0.4298  0.1389
 1039BOLB   GL124915  15.218  26.046  13.022 -0.0308 -0.1569  0.2201
 1039BOLB   GL224916  14.885  26.216  12.939 -0.0389  0.0155  0.0526
 1039BOLB   C1A24917  15.136  26.028  12.605 -0.0516 -0.0517 -0.2112
 1039BOLB   C2A24918  14.843  26.096  12.282  0.0189 -0.2134  0.0137
 1039BOLB   C3A24919  14.487  26.189  12.138  0.1405 -0.1833  0.1964
 1039BOLB   C4A24920  14.118  26.286  11.948  0.0707  0.0079 -0.1305
 1039BOLB   C1B24921  14.621  25.827  12.667  0.0981 -0.0229 -0.1408
 1039BOLB   C2B24922  14.238  25.783  12.556 -0.2894 -0.4697  0.0811
 1039BOLB   C3B24923  14.028  25.885  12.332  0.3105  0.0270  0.1584
 1039BOLB   C4B24924  13.731  26.134  12.304  0.1008 -0.0028 -0.2356
 1039BOLB   NC224925  12.189  27.903  11.633 -0.2384  0.0152  0.1089
 1039BOLB   PO224926  12.300  27.646  11.367  0.2627 -0.1076  0.1614
 1039BOLB   GL324927  12.624  27.701  11.613 -0.1341  0.0406 -0.3865
 1039BOLB   GL424928  12.560  27.699  12.010  0.0195 -0.0767  0.0059
 1039BOLB   C1C24929  13.017  27.530  11.586  0.1600  0.0764 -0.0349
 1039BOLB   C2C24930  13.342  27.192  11.792 -0.0819 -0.0034  0.3949
 1039BOLB   C3C24931  13.603  26.901  11.795 -0.5449 -0.2564  0.1629
 1039BOLB   C4C24932  13.770  26.546  11.994  0.0712  0.1136 -0.1066
 1039BOLB   C1D24933  12.766  27.462  12.242  0.1634 -0.2392 -0.2479
 1039BOLB   C2D24934  12.997  27.592  12.596  0.0142 -0.0146 -0.0346
 1039BOLB   C3D24935  13.036  27.491  13.016  0.3413 -0.0844 -0.1147
 1039BOLB   C4D24936  13.393  27.465  13.332  0.1480 -0.0440  0.0272
 1040BOLB   NC124937  20.258  27.953  12.775 -0.0590 -0.0638 -0.2608
 1040BOLB   PO124938  20.385  27.946  13.217  0.2788  0.2081 -0.1762
 1040BOLB   GL124939  20.360  27.555  13.038 -0.0474 -0.1618  0.2139
 1040BOLB   GL224940  20.609  27.491  12.886  0.1711  0.1715 -0.2319
 1040BOLB   C1A24941  20.163  27.159  12.955 -0.1733 -0.1292 -0.2304
 1040BOLB   C2A24942  19.989  27.019  12.601 -0.0069 -0.0089  0.2107
 1040BOLB   C3A24943  19.948  26.696  12.495  0.0811 -0.0517  0.3489
 1040BOLB   C4A24944  20.040  26.447  12.267 -0.2236  0.1425 -0.0997
 1040BOLB   C1B24945  20.971  27.334  13.116 -0.0651  0.3463  0.3524
 1040BOLB   C2B24946  21.122  26.997  13.145 -0.0839 -0.3330  0.2593
 1040BOLB   C3B24947  21.400  26.659  13.094  0.1424 -0.1223 -0.1465
 1040BOLB   C4B24948  21.212  26.179  12.940  0.0262  0.1563 -0.0777
 1040BOLB   NC224949  20.600  27.423   9.664  0.1915  0.2000 -0.0134
 1040BOLB   PO224950  20.448  27.077   9.906  0.0966 -0.3501 -0.1497
 1040BOLB   GL324951  20.175  26.837  10.166  0.2581  0.2040 -0.2743
 1040BOLB   GL424952  20.100  26.507  10.024  0.2001 -0.1497 -0.0799
 1040BOLB   C1C24953  19.957  26.580  10.573 -0.1848 -0.1770 -0.2130
 1040BOLB   C2C24954  20.054  26.372  10.931  0.0328 -0.5673  0.1758
 1040BOLB   C3C24955  20.155  26.475  11.401 -0.2118  0.0113 -0.0540
 1040BOLB   C4C24956  20.138  26.531  11.863 -0.2095 -0.1081  0.0591
 1040BOLB   C1D24957  20.066  26.030  10.150 -0.0031  0.3886 -0.5715
 1040BOLB   C2D24958  19.879  25.722  10.353 -0.2668 -0.3809  0.4755
 1040BOLB   C3D24959  19.914  25.385  10.593  0.0679  0.2542 -0.1766
 1040BOLB   C4D24960  20.054  25.016  10.516 -0.0474 -0.2230  0.2486
 1041BOLB   NC124961  14.971  24.547  12.701 -0.0244 -0.2204 -0.6173
 1041BOLB   PO124962  15.010  24.158  12.449  0.1424 -0.1569 -0.2864
 1041BOLB   GL124963  14.711  24.180  12.057  0.1417  0.1120 -0.3257
 1041BOLB   GL224964  14.338  24.102  11.977 -0.0028  0.0576  0.0463
 1041BOLB   C1A24965  14.579  24.267  11.603 -0.1211  0.2451 -0.0819
 1041BOLB   C2A24966  14.686  24.344  11.207 -0.0714  0.3603  0.1437
 1041BOLB   C3A24967  15.121  24.571  11.057 -0.0785  0.1589 -0.0819
 1041BOLB   C4A24968  15.298  24.764  10.667 -0.0920  0.3779 -0.3656
 1041BOLB   C1B24969  14.147  24.441  11.807 -0.0643  0.0613  0.2661
 1041BOLB   C2B24970  13.775  24.755  11.598  0.1695 -0.0944 -0.0249
 1041BOLB   C3B24971  13.548  24.858  11.209 -0.3597 -0.0134  0.1361
 1041BOLB   C4B24972  13.304  25.042  10.853  0.1554 -0.1003  0.0339
 1041BOLB   NC224973  14.861  24.050   8.485 -0.1227 -0.2096  0.2472
 1041BOLB   PO224974  15.034  24.469   8.528 -0.3775 -0.1503  0.0812
 1041BOLB   GL324975  15.013  24.232   8.935 -0.2533  0.1762  0.0495
 1041BOLB   GL424976  15.120  23.900   8.978  0.3063  0.0600 -0.2851
 1041BOLB   C1C24977  15.060  24.455   9.357  0.3724  0.0066 -0.0842
 1041BOLB   C2C24978  14.890  24.723   9.713  0.0908 -0.0966 -0.0264
 1041BOLB   C3C24979  14.977  24.904  10.030 -0.2039 -0.1890  0.3118
 1041BOLB   C4C24980  15.220  24.990  10.409 -0.0879 -0.1443 -0.0034
 1041BOLB   C1D24981  15.077  23.869   9.390 -0.2764 -0.0060 -0.1196
 1041BOLB   C2D24982  14.637  24.118   9.580 -0.0631  0.0614 -0.1144
 1041BOLB   C3D24983  14.213  24.067   9.821  0.3571 -0.4512  0.1445
 1041BOLB   C4D24984  13.936  24.234  10.165 -0.0092  0.0296 -0.0246
 1042BOLB   NC124985  16.706  28.465  12.476  0.1023 -0.2281  0.1010
 1042BOLB   PO124986  16.816  28.094  12.689  0.0009  0.0059  0.2085
 1042BOLB   GL124987  16.655  27.772  12.451 -0.0208  0.0251 -0.0286
 1042BOLB   GL224988  16.400  27.641  12.612 -0.3635  0.1522  0.1192
 1042BOLB   C1A24989  16.772  27.388  12.201 -0.0203  0.1816 -0.1948
 1042BOLB   C2A24990  16.871  27.190  11.809 -0.1439  0.1777  0.0244
 1042BOLB   C3A24991  17.120  26.991  11.475  0.0914  0.1862 -0.2450
 1042BOLB   C4A24992  17.425  26.951  11.095  0.1327  0.1935  0.0726
 1042BOLB   C1B24993  16.237  27.707  12.181  0.0077 -0.1065  0.0285
 1042BOLB   C2B24994  16.034  27.478  11.889  0.1530 -0.2367 -0.1212
 1042BOLB   C3B24995  15.966  27.327  11.464 -0.1609 -0.2104  0.0703
 1042BOLB   C4B24996  15.916  26.917  11.347 -0.1358  0.1753  0.0598
 1042BOLB   NC224997  16.418  27.768   9.138  0.4849  0.1627 -0.2494
 1042BOLB   PO224998  16.162  28.025   9.475 -0.2013  0.1676 -0.0802
 1042BOLB   GL324999  16.323  27.758   9.678  0.0673  0.1136 -0.2562
 1042BOLB   GL425000  16.226  27.457   9.562  0.2201  0.3137 -0.0336
 1042BOLB   C1C25001  16.715  27.767   9.902  0.2337  0.2761  0.0277
 1042BOLB   C2C25002  17.049  27.671  10.196 -0.1484 -0.0577  0.0026
 1042BOLB   C3C25003  17.307  27.443  10.386 -0.1152 -0.0561  0.1013
 1042BOLB   C4C25004  17.417  27.126  10.798 -0.0447  0.4188  0.1623
 1042BOLB   C1D25005  16.275  27.253   9.942  0.3428  0.2534 -0.0288
 1042BOLB   C2D25006  16.560  26.965  10.202  0.0184 -0.3567  0.1495
 1042BOLB   C3D25007  16.780  26.648  10.473  0.2171 -0.1496  0.1244
 1042BOLB   C4D25008  16.641  26.544  10.841  0.0591  0.0003 -0.0842
 1043BOLB   NC125009  18.714  26.441  13.324 -0.2661 -0.2324 -0.0103
 1043BOLB   PO125010  18.887  26.016  13.191 -0.0365  0.0301 -0.2337
 1043BOLB   GL125011  19.256  25.852  13.077 -0.0915  0.0382 -0.0246
 1043BOLB   GL225012  19.133  25.518  12.878 -0.1166  0.1291  0.2376
 1043BOLB   C1A25013  19.403  25.741  12.532 -0.1767  0.0553  0.3480
 1043BOLB   C2A25014  19.408  25.569  12.142  0.2473 -0.3848  0.0171
 1043BOLB   C3A25015  19.231  25.322  11.739 -0.2293 -0.0105 -0.2065
 1043BOLB   C4A25016  19.143  25.444  11.283  0.2274 -0.3938  0.2175
 1043BOLB   C1B25017  19.282  25.223  12.589  0.2536  0.0168  0.1907
 1043BOLB   C2B25018  19.471  25.089  12.230  0.0907 -0.2184  0.3413
 1043BOLB   C3B25019  19.613  24.988  11.815 -0.1744  0.1528  0.0126
 1043BOLB   C4B25020  19.933  24.703  11.516 -0.0349  0.2133  0.0094
 1043BOLB   NC225021  18.812  26.124   8.670 -0.1669  0.3271  0.0635
 1043BOLB   PO225022  19.015  26.234   9.007 -0.0788  0.1776 -0.2842
 1043BOLB   GL325023  19.010  25.779   9.151  0.1173 -0.1247  0.4031
 1043BOLB   GL425024  18.800  25.605   9.108  0.0483  0.1882  0.0244
 1043BOLB   C1C25025  19.136  25.443   9.479 -0.3611 -0.1704  0.1685
 1043BOLB   C2C25026  19.044  25.362   9.974 -0.1398 -0.1945  0.0644
 1043BOLB   C3C25027  18.983  25.188  10.465 -0.2469 -0.1698  0.1434
 1043BOLB   C4C25028  18.930  25.269  10.956 -0.0008  0.0708 -0.0786
 1043BOLB   C1D25029  18.486  25.609   9.324 -0.2681  0.0915 -0.2485
 1043BOLB   C2D25030  18.206  25.456   9.595  0.2061  0.2902 -0.0443
 1043BOLB   C3D25031  17.838  25.318   9.904 -0.4057 -0.0799 -0.1753
 1043BOLB   C4D25032  17.640  25.123  10.265  0.4054 -0.4755  0.1050
 1044BOLB   NC125033  16.454  25.668  12.697  0.1425  0.0191  0.0916
 1044BOLB   PO125034  16.824  25.855  12.639  0.0734 -0.1192  0.0030
 1044BOLB   GL125035  16.721  25.867  12.281 -0.0551  0.2014 -0.0192
 1044BOLB   GL225036  16.418  25.785  12.204 -0.0065 -0.0672 -0.1582
 1044BOLB   C1A25037  16.742  25.676  11.889 -0.1431 -0.1291  0.2124
 1044BOLB   C2A25038  16.851  25.730  11.475 -0.1829 -0.2518  0.3515
 1044BOLB   C3A25039  16.855  25.714  11.060 -0.1113 -0.2032  0.1109
 1044BOLB   C4A25040  17.067  26.075  10.842 -0.4981  0.1866 -0.2468
 1044BOLB   C1B25041  16.330  26.024  11.833  0.2222 -0.0621 -0.4463
 1044BOLB   C2B25042  16.128  26.138  11.404  0.0059  0.1680  0.0387
 1044BOLB   C3B25043  15.749  25.981  11.056  0.1768  0.3638 -0.3923
 1044BOLB   C4B25044  15.362  26.113  10.917  0.1303 -0.4621 -0.2495
 1044BOLB   NC225045  17.966  26.025   8.384  0.2042  0.0880 -0.0566
 1044BOLB   PO225046  17.622  26.047   8.742  0.2122 -0.1434  0.0269
 1044BOLB   GL325047  17.699  25.935   9.167 -0.4788 -0.0971 -0.2925
 1044BOLB   GL425048  17.437  26.107   9.356 -0.0186 -0.0006  0.1326
 1044BOLB   C1C25049  17.747  25.755   9.570  0.0978 -0.0333  0.1985
 1044BOLB   C2C25050  17.752  25.883  10.026  0.1105 -0.0820 -0.1883
 1044BOLB   C3C25051  17.486  26.121  10.192 -0.0455 -0.0614 -0.3319
 1044BOLB   C4C25052  17.339  26.033  10.528  0.0327 -0.0855 -0.0088
 1044BOLB   C1D25053  17.290  25.976   9.758 -0.2485  0.2109  0.2551
 1044BOLB   C2D25054  17.272  25.606  10.106 -0.1848  0.2408  0.0047
 1044BOLB   C3D25055  17.579  25.582  10.417 -0.0057  0.0988  0.1532
 1044BOLB   C4D25056  17.999  25.435  10.436 -0.2985 -0.5216  0.0069
 1045BOLB   NC125057  15.725  27.605  13.274  0.2124  0.1959 -0.4394
 1045BOLB   PO125058  15.941  27.936  13.103 -0.0287  0.1026  0.2673
 1045BOLB   GL125059  15.992  27.837  12.795  0.2840 -0.3093  0.0844
 1045BOLB   GL225060  15.883  28.058  12.572 -0.0472  0.1249  0.2227
 1045BOLB   C1A25061  15.936  27.450  12.586 -0.1154  0.0673  0.0337
 1045BOLB   C2A25062  15.886  27.078  12.236  0.2844 -0.1089 -0.2779
 1045BOLB   C3A25063  15.712  27.065  11.806  0.2006  0.1090 -0.0270
 1045BOLB   C4A25064  15.377  27.113  11.647 -0.1196 -0.0784  0.0219
 1045BOLB   C1B25065  15.735  27.781  12.215 -0.2011  0.2471  0.0895
 1045BOLB   C2B25066  15.534  27.461  11.997 -0.0098  0.0724  0.1149
 1045BOLB   C3B25067  15.187  27.520  12.031 -0.0308  0.0289  0.0987
 1045BOLB   C4B25068  15.040  27.580  12.434 -0.2392 -0.2363  0.2587
 1045BOLB   NC225069  14.526  27.969   9.519  0.1309 -0.1880  0.2453
 1045BOLB   PO225070  14.499  28.144  10.051  0.1185 -0.1818  0.0725
 1045BOLB   GL325071  14.445  27.640  10.016 -0.0792 -0.1733 -0.0548
 1045BOLB   GL425072  14.672  27.587   9.794 -0.1353  0.0267  0.0368
 1045BOLB   C1C25073  14.546  27.342  10.372  0.0667  0.3456  0.3150
 1045BOLB   C2C25074  14.723  27.196  10.790  0.2760  0.0931 -0.1977
 1045BOLB   C3C25075  14.789  27.354  11.239 -0.1207 -0.0215  0.5463
 1045BOLB   C4C25076  15.035  27.262  11.584  0.0092 -0.1162  0.1391
 1045BOLB   C1D25077  14.808  27.175   9.895 -0.0512  0.0248 -0.1340
 1045BOLB   C2D25078  14.844  26.771   9.823 -0.0497 -0.0996  0.2335
 1045BOLB   C3D25079  14.629  26.436   9.809  0.1467  0.2158 -0.1996
 1045BOLB   C4D25080  14.429  25.948   9.887  0.0982 -0.1497  0.1541
 1046BOLB   NC125081  22.428  27.629  15.859 -0.4479  0.0232 -0.1271
 1046BOLB   PO125082  22.198  27.394  15.603  0.2392  0.1341  0.1092
 1046BOLB   GL125083  22.070  27.026  15.735  0.0682 -0.0830  0.2177
 1046BOLB   GL225084  22.202  26.885  15.991 -0.3116 -0.2444 -0.4215
 1046BOLB   C1A25085  21.814  26.623  15.784 -0.2750  0.2126 -0.0916
 1046BOLB   C2A25086  21.466  26.346  16.032 -0.2410 -0.1743 -0.0288
 1046BOLB   C3A25087  21.128  26.256  16.311  0.1536 -0.0789 -0.0585
 1046BOLB   C4A25088  20.824  26.475  16.666  0.0977  0.1535  0.1121
 1046BOLB   C1B25089  22.463  26.596  15.783 -0.0350 -0.0135  0.0089
 1046BOLB   C2B25090  22.428  26.636  15.312  0.1888 -0.0589  0.2962
 1046BOLB   C3B25091  22.320  26.356  14.876 -0.3142 -0.1213  0.1278
 1046BOLB   C4B25092  22.260  25.974  14.748  0.0853  0.1107  0.2908
 1046BOLB   NC225093  18.943  27.948  16.652 -0.2507 -0.0795 -0.1477
 1046BOLB   PO225094  19.185  28.023  17.122 -0.1189 -0.1798 -0.2159
 1046BOLB   GL325095  19.243  27.632  17.015 -0.0210  0.4014  0.0111
 1046BOLB   GL425096  19.170  27.527  16.777 -0.2495  0.0872 -0.0193
 1046BOLB   C1C25097  19.331  27.181  17.128 -0.0954 -0.0280  0.4315
 1046BOLB   C2C25098  19.710  26.970  16.821  0.0187  0.1849 -0.1292
 1046BOLB   C3C25099  20.042  26.751  16.937 -0.0858  0.1007 -0.0867
 1046BOLB   C4C25100  20.551  26.754  16.819 -0.2037  0.2070 -0.1080
 1046BOLB   C1D25101  18.867  27.234  16.943  0.0134  0.1605  0.0723
 1046BOLB   C2D25102  18.867  26.926  17.195 -0.2434  0.1579 -0.0042
 1046BOLB   C3D25103  18.569  26.701  17.257 -0.0589  0.0563  0.1907
 1046BOLB   C4D25104  18.236  26.620  17.569 -0.0190 -0.3855  0.0420
 1047BOLB   NC125105  19.678  24.159  13.568 -0.1316  0.2310  0.0490
 1047BOLB   PO125106  19.507  24.429  13.289 -0.1935 -0.1073  0.1308
 1047BOLB   GL125107  19.929  24.383  13.216 -0.1423 -0.0907 -0.1723
 1047BOLB   GL225108  19.978  24.662  13.353  0.0448 -0.2161 -0.1720
 1047BOLB   C1A25109  20.063  24.313  12.792  0.0106 -0.0189 -0.2090
 1047BOLB   C2A25110  20.264  24.177  12.410 -0.2869 -0.1553  0.0436
 1047BOLB   C3A25111  20.718  24.030  12.282 -0.0192  0.1326 -0.1517
 1047BOLB   C4A25112  20.993  23.954  12.141  0.1373 -0.2415 -0.4810
 1047BOLB   C1B25113  20.330  24.659  13.036  0.0137  0.1146 -0.3243
 1047BOLB   C2B25114  20.567  24.543  12.681 -0.2693 -0.1674 -0.0793
 1047BOLB   C3B25115  20.952  24.483  12.411  0.0678 -0.3405 -0.0165
 1047BOLB   C4B25116  21.094  24.433  11.950  0.1648  0.3860 -0.1285
 1047BOLB   NC225117  22.163  25.131  10.237 -0.1034 -0.1120 -0.2258
 1047BOLB   PO225118  22.447  25.272  10.686  0.0470 -0.1145  0.1826
 1047BOLB   GL325119  22.354  24.918  11.002 -0.1668 -0.1205  0.1421
 1047BOLB   GL425120  22.403  25.090  11.296  0.2203 -0.1266 -0.1934
 1047BOLB   C1C25121  22.130  24.487  11.192 -0.2353 -0.2746 -0.0208
 1047BOLB   C2C25122  21.804  24.546  11.336  0.3710  0.1079  0.2830
 1047BOLB   C3C25123  21.409  24.306  11.572 -0.2734  0.1880  0.0758
 1047BOLB   C4C25124  21.210  23.916  11.737 -0.2917  0.1481 -0.0864
 1047BOLB   C1D25125  22.231  24.732  11.600  0.0654 -0.1572  0.2389
 1047BOLB   C2D25126  22.186  24.631  12.044  0.0999 -0.3363  0.4102
 1047BOLB   C3D25127  21.868  24.706  12.277  0.1117  0.0031 -0.0820
 1047BOLB   C4D25128  21.400  24.828  12.276  0.0916  0.1559  0.1450
 1048BOLB   NC125129  19.936  27.536  14.902  0.2195  0.1074 -0.1714
 1048BOLB   PO125130  20.324  27.676  14.901 -0.1349 -0.1631 -0.0565
 1048BOLB   GL125131  20.431  27.254  14.862  0.1793 -0.1286 -0.2336
 1048BOLB   GL225132  20.209  27.040  14.895 -0.2899 -0.2547 -0.0860
 1048BOLB   C1A25133  20.716  26.788  14.882 -0.0399  0.2694  0.3055
 1048BOLB   C2A25134  21.092  26.513  14.723  0.2412 -0.3361  0.0945
 1048BOLB   C3A25135  21.416  26.572  14.947 -0.2209 -0.4628 -0.2585
 1048BOLB   C4A25136  21.713  26.542  15.244 -0.0836 -0.1979  0.2419
 1048BOLB   C1B25137  20.330  26.816  14.548 -0.1655  0.2322  0.1649
 1048BOLB   C2B25138  20.555  26.824  14.184  0.3622 -0.1560  0.0129
 1048BOLB   C3B25139  20.801  26.942  13.780  0.1527  0.1261 -0.2834
 1048BOLB   C4B25140  21.104  27.234  13.626  0.4160 -0.1329 -0.1744
 1048BOLB   NC225141  24.165  26.834  15.380 -0.0323 -0.0776  0.2809
 1048BOLB   PO225142  23.934  26.605  15.754 -0.4817  0.2304  0.2350
 1048BOLB   GL325143  23.586  26.358  15.712 -0.1192 -0.2348 -0.0923
 1048BOLB   GL425144  23.435  26.309  15.368  0.2808  0.1808 -0.0044
 1048BOLB   C1C25145  23.155  26.253  15.749 -0.1572  0.0727 -0.3942
 1048BOLB   C2C25146  22.739  26.186  15.817 -0.1735  0.0966  0.2669
 1048BOLB   C3C25147  22.290  26.177  15.606  0.0593  0.1647 -0.2107
 1048BOLB   C4C25148  22.048  26.220  15.375 -0.0231 -0.2223  0.1920
 1048BOLB   C1D25149  23.130  25.963  15.379  0.0789  0.0294  0.2588
 1048BOLB   C2D25150  22.807  25.604  15.283  0.2192 -0.4639 -0.2133
 1048BOLB   C3D25151  22.605  25.248  15.195  0.2481 -0.1629 -0.2214
 1048BOLB   C4D25152  22.276  25.360  14.988 -0.1026  0.1847 -0.0291
 1049BOLB   NC125153  18.115  25.367  13.029 -0.0914 -0.4565  0.0862
 1049BOLB   PO125154  17.942  25.711  13.246 -0.1119  0.0482 -0.0107
 1049BOLB   GL125155  18.241  25.833  12.886 -0.0336  0.1037  0.1608
 1049BOLB   GL225156  18.224  25.670  12.642  0.1031 -0.2421 -0.2086
 1049BOLB   C1A25157  18.366  26.184  12.559  0.1188  0.3803 -0.2529
 1049BOLB   C2A25158  18.690  26.361  12.231  0.5501 -0.1705  0.0002
 1049BOLB   C3A25159  18.981  26.448  11.922  0.0397  0.3174  0.1679
 1049BOLB   C4A25160  19.414  26.557  11.708 -0.1795  0.2065  0.1358
 1049BOLB   C1B25161  18.370  25.351  12.345  0.0293 -0.0071 -0.1006
 1049BOLB   C2B25162  18.524  25.434  11.914 -0.0808 -0.1231 -0.0706
 1049BOLB   C3B25163  18.388  25.851  11.659  0.1342  0.0520 -0.1625
 1049BOLB   C4B25164  18.118  26.174  11.851  0.0951 -0.0091  0.1565
 1049BOLB   NC225165  19.810  27.573  10.091 -0.0868 -0.1365  0.1712
 1049BOLB   PO225166  20.173  27.377  10.150 -0.0711 -0.1809 -0.1412
 1049BOLB   GL325167  19.774  27.090  10.211 -0.2447  0.0330  0.1302
 1049BOLB   GL425168  19.633  26.864  10.101 -0.2056  0.2136  0.5507
 1049BOLB   C1C25169  19.647  27.010  10.644  0.1010  0.0405  0.0072
 1049BOLB   C2C25170  19.520  26.672  10.742 -0.0902  0.1287 -0.0996
 1049BOLB   C3C25171  19.526  26.348  11.021 -0.2247  0.0263 -0.1716
 1049BOLB   C4C25172  19.625  26.452  11.387  0.1679 -0.0013 -0.1331
 1049BOLB   C1D25173  19.277  26.863  10.373  0.0066 -0.1057  0.0085
 1049BOLB   C2D25174  19.004  26.719  10.710  0.0681  0.3995  0.3274
 1049BOLB   C3D25175  18.901  26.451  11.070  0.2863  0.0293  0.0644
 1049BOLB   C4D25176  19.144  26.262  11.462  0.2315  0.3015  0.2392
 1050BOLB   NC125177  17.603  24.227  12.619 -0.0101  0.0229 -0.0658
 1050BOLB   PO125178  17.359  24.062  12.426 -0.2111 -0.2090 -0.0012
 1050BOLB   GL125179  17.377  24.406  12.186  0.2725 -0.0087 -0.1942
 1050BOLB   GL225180  17.502  24.588  12.244  0.0823 -0.0894  0.2449
 1050BOLB   C1A25181  17.402  24.357  11.683 -0.1706  0.0366  0.3027
 1050BOLB   C2A25182  17.305  24.462  11.327 -0.1113  0.0562 -0.0865
 1050BOLB   C3A25183  17.414  24.293  10.887  0.1034 -0.0750 -0.1601
 1050BOLB   C4A25184  17.251  24.289  10.526  0.2193  0.2244  0.1388
 1050BOLB   C1B25185  17.579  24.915  11.963 -0.1842 -0.1497  0.3157
 1050BOLB   C2B25186  17.624  25.235  11.612 -0.2082  0.0049  0.1092
 1050BOLB   C3B25187  17.686  25.663  11.419 -0.1782 -0.1457  0.1348
 1050BOLB   C4B25188  17.905  26.062  11.336 -0.3113  0.1116  0.0539
 1050BOLB   NC225189  17.760  25.024   8.370 -0.0134 -0.0975 -0.4048
 1050BOLB   PO225190  17.517  25.123   8.642  0.2776  0.0525 -0.0149
 1050BOLB   GL325191  17.624  24.960   8.943  0.1456 -0.0239  0.2543
 1050BOLB   GL425192  17.909  24.844   9.151 -0.0190 -0.0468  0.0072
 1050BOLB   C1C25193  17.351  25.046   9.371  0.1813 -0.1969 -0.2500
 1050BOLB   C2C25194  17.217  24.830   9.587 -0.0146  0.1184  0.3112
 1050BOLB   C3C25195  17.196  24.446   9.735  0.2828 -0.0027  0.0876
 1050BOLB   C4C25196  17.035  24.294  10.113  0.0296 -0.1993  0.0118
 1050BOLB   C1D25197  17.599  24.556   9.421 -0.1146 -0.1219 -0.1426
 1050BOLB   C2D25198  17.503  24.118   9.547 -0.1344  0.4519  0.2219
 1050BOLB   C3D25199  17.603  23.752   9.857 -0.3151 -0.0282  0.2391
 1050BOLB   C4D25200  17.444  23.631  10.175  0.0754  0.0803 -0.2553
 1051BOLB   NC125201   9.897  23.803  13.413  0.3126  0.0626 -0.2175
 1051BOLB   PO125202  10.154  24.017  13.556  0.1547 -0.1657 -0.0186
 1051BOLB   GL125203  10.421  24.401  13.637 -0.3426 -0.0141 -0.2597
 1051BOLB   GL225204  10.751  24.332  13.443  0.0502 -0.1604  0.2606
 1051BOLB   C1A25205  10.651  24.787  13.731 -0.3742 -0.2091 -0.1485
 1051BOLB   C2A25206  11.059  25.088  13.739  0.0906 -0.0840  0.1147
 1051BOLB   C3A25207  11.433  25.192  13.936  0.1238 -0.4081  0.0879
 1051BOLB   C4A25208  11.476  25.271  14.292  0.0859  0.4810  0.0885
 1051BOLB   C1B25209  11.058  24.544  13.634 -0.0082  0.0553  0.0883
 1051BOLB   C2B25210  11.059  24.672  14.030  0.3155 -0.1329 -0.3301
 1051BOLB   C3B25211  11.110  24.544  14.437 -0.0111 -0.1234 -0.3656
 1051BOLB   C4B25212  11.286  24.832  14.711  0.0019  0.0619 -0.0698
 1051BOLB   NC225213  10.173  27.208  14.453 -0.0549  0.0451 -0.0521
 1051BOLB   PO225214  10.432  27.385  14.230  0.1981  0.1008  0.0698
 1051BOLB   GL325215  10.432  26.922  14.160  0.2372 -0.0559 -0.3137
 1051BOLB   GL425216  10.326  26.639  13.917  0.0135  0.1131 -0.0144
 1051BOLB   C1C25217  10.774  26.613  14.244  0.0009  0.1770  0.1344
 1051BOLB   C2C25218  10.853  26.196  14.434  0.4055 -0.1804 -0.0680
 1051BOLB   C3C25219  11.137  26.038  14.582 -0.0549 -0.1064 -0.0410
 1051BOLB   C4C25220  11.287  25.636  14.488  0.0856  0.1846 -0.2307
 1051BOLB   C1D25221  10.360  26.317  14.293 -0.1565 -0.0886  0.2628
 1051BOLB   C2D25222  10.276  25.885  14.515 -0.0590  0.1150 -0.1887
 1051BOLB   C3D25223  10.032  25.508  14.525  0.1891  0.1124  0.1700
 1051BOLB   C4D25224   9.875  25.408  14.106  0.2213  0.0880 -0.0792
 1052BOLB   NC125225  20.567  28.222  14.431  0.2304 -0.2237  0.0353
 1052BOLB   PO125226  20.939  28.145  14.314  0.2063 -0.0982  0.1158
 1052BOLB   GL125227  20.807  27.765  14.517 -0.2029 -0.4992 -0.2044
 1052BOLB   GL225228  20.720  27.586  14.200  0.1458  0.0789  0.0121
 1052BOLB   C1A25229  20.905  27.292  14.619 -0.0624 -0.1128 -0.0411
 1052BOLB   C2A25230  21.121  27.048  14.872  0.0690  0.0008  0.0925
 1052BOLB   C3A25231  21.058  26.797  15.227 -0.1428  0.2871  0.0606
 1052BOLB   C4A25232  21.301  26.548  15.512  0.4585  0.0546  0.2124
 1052BOLB   C1B25233  20.401  27.318  13.918  0.2734  0.1427  0.1590
 1052BOLB   C2B25234  20.268  26.833  13.755 -0.1354 -0.2090  0.3588
 1052BOLB   C3B25235  20.271  26.388  14.121  0.0968 -0.1309 -0.0201
 1052BOLB   C4B25236  20.530  26.186  14.085 -0.0584  0.1095  0.0331
 1052BOLB   NC225237  22.488  27.247  16.873 -0.1113 -0.0092  0.1496
 1052BOLB   PO225238  22.243  27.392  16.556  0.3517 -0.3048 -0.3292
 1052BOLB   GL325239  22.229  26.989  16.556  0.2471  0.0791  0.2603
 1052BOLB   GL425240  22.589  26.851  16.561  0.1544  0.0151 -0.0973
 1052BOLB   C1C25241  22.166  26.514  16.377  0.1548  0.3970  0.2493
 1052BOLB   C2C25242  22.107  26.285  16.074  0.0752  0.0930 -0.0685
 1052BOLB   C3C25243  21.885  26.018  15.833 -0.1738  0.1965 -0.1031
 1052BOLB   C4C25244  21.564  26.185  15.592 -0.1826  0.4358  0.4027
 1052BOLB   C1D25245  22.633  26.482  16.264  0.2111 -0.2043  0.0997
 1052BOLB   C2D25246  22.863  26.144  16.265  0.1259 -0.0760  0.0559
 1052BOLB   C3D25247  23.072  25.855  16.085 -0.2549 -0.1066  0.0647
 1052BOLB   C4D25248  22.960  25.585  15.716  0.1886  0.1723  0.0400
 1053BOLB   NC125249  19.802  26.910  15.162 -0.1481 -0.0561 -0.0382
 1053BOLB   PO125250  19.589  26.531  15.206 -0.2550 -0.2588  0.1465
 1053BOLB   GL125251  20.041  26.578  15.406  0.1507 -0.0850  0.1976
 1053BOLB   GL225252  20.309  26.627  15.147 -0.0733  0.0811 -0.1525
 1053BOLB   C1A25253  20.129  26.374  15.707  0.1271 -0.3081  0.2166
 1053BOLB   C2A25254  19.883  26.345  16.109  0.0417  0.0952  0.2674
 1053BOLB   C3A25255  20.018  25.975  16.383 -0.2527 -0.2541  0.1071
 1053BOLB   C4A25256  20.008  25.766  16.762 -0.3276  0.1881 -0.2403
 1053BOLB   C1B25257  20.702  26.429  15.273  0.3390  0.0986  0.1457
 1053BOLB   C2B25258  21.085  26.143  15.346  0.0435 -0.1962 -0.0194
 1053BOLB   C3B25259  21.212  26.110  14.917 -0.0615 -0.1027  0.0729
 1053BOLB   C4B25260  21.395  26.202  14.453 -0.1749  0.0578  0.0935
 1053BOLB   NC225261  21.833  27.346  16.836 -0.0219 -0.1616 -0.0608
 1053BOLB   PO225262  21.680  27.095  17.177  0.2319  0.3211  0.0156
 1053BOLB   GL325263  21.344  26.814  17.265  0.1068 -0.0378 -0.0987
 1053BOLB   GL425264  21.180  26.826  16.997  0.4297  0.0686  0.1554
 1053BOLB   C1C25265  21.089  26.382  17.204  0.0835 -0.1673  0.0917
 1053BOLB   C2C25266  20.857  26.120  17.394  0.1277  0.0877 -0.0758
 1053BOLB   C3C25267  20.528  25.992  17.445  0.0117  0.5252 -0.2698
 1053BOLB   C4C25268  20.222  25.877  17.170 -0.1847 -0.0240 -0.0823
 1053BOLB   C1D25269  21.240  26.796  16.619 -0.2085  0.2205 -0.1173
 1053BOLB   C2D25270  21.529  26.610  16.417 -0.1847  0.1712 -0.2230
 1053BOLB   C3D25271  21.728  26.218  16.410  0.3430 -0.0897  0.2257
 1053BOLB   C4D25272  21.958  25.834  16.324 -0.0021  0.1365 -0.1114
 1054BOLB   NC125273   9.104  26.805  13.522 -0.1420 -0.3016 -0.1038
 1054BOLB   PO125274   9.059  26.418  13.900  0.4620 -0.0525 -0.3505
 1054BOLB   GL125275   9.275  26.078  13.855  0.1476 -0.2580 -0.0837
 1054BOLB   GL225276   9.484  25.875  13.614 -0.2314 -0.1840  0.2114
 1054BOLB   C1A25277   9.435  25.872  14.119  0.2223  0.1322 -0.1121
 1054BOLB   C2A25278   9.469  25.933  14.498  0.2059 -0.1341  0.0241
 1054BOLB   C3A25279   9.737  25.759  14.812 -0.1484 -0.0646 -0.0850
 1054BOLB   C4A25280   9.919  26.074  14.928 -0.0767  0.0725 -0.2374
 1054BOLB   C1B25281   9.567  25.450  13.377  0.0324 -0.1424 -0.3679
 1054BOLB   C2B25282   9.742  25.123  13.202 -0.1070  0.0196 -0.0200
 1054BOLB   C3B25283   9.672  24.700  13.026  0.0120 -0.1905 -0.0513
 1054BOLB   C4B25284   9.298  24.516  12.804 -0.2585  0.0405  0.2648
 1054BOLB   NC225285  11.068  28.336  14.482  0.1160  0.0335 -0.0068
 1054BOLB   PO225286  11.340  27.968  14.670 -0.1640 -0.0056 -0.1854
 1054BOLB   GL325287  11.286  27.602  14.501  0.0733  0.1119 -0.0872
 1054BOLB   GL425288  11.437  27.402  14.827 -0.0094 -0.0995  0.3258
 1054BOLB   C1C25289  11.054  27.236  14.398 -0.3182  0.1265  0.1735
 1054BOLB   C2C25290  10.872  26.926  14.627 -0.2010  0.0913 -0.3177
 1054BOLB   C3C25291  10.524  26.672  14.688  0.0520 -0.1316  0.0379
 1054BOLB   C4C25292  10.299  26.318  14.833 -0.3702  0.0996  0.1659
 1054BOLB   C1D25293  11.437  26.976  14.763 -0.1491  0.0734  0.0636
 1054BOLB   C2D25294  11.273  26.595  14.546  0.0872  0.1378  0.1298
 1054BOLB   C3D25295  11.328  26.347  14.200 -0.1665 -0.1081 -0.0783
 1054BOLB   C4D25296  11.514  26.282  13.712 -0.1335 -0.2238  0.1738
 1055BOLB   NC125297  19.457  28.279  13.034  0.2244 -0.0409  0.0123
 1055BOLB   PO125298  19.494  27.932  13.374  0.0703 -0.0207 -0.0190
 1055BOLB   GL125299  19.645  27.516  13.307  0.3849  0.0610 -0.0920
 1055BOLB   GL225300  19.952  27.568  13.429 -0.2148  0.1449 -0.3187
 1055BOLB   C1A25301  19.783  27.072  13.264 -0.0718  0.0238 -0.0448
 1055BOLB   C2A25302  20.233  26.753  13.234  0.0537 -0.1060 -0.2290
 1055BOLB   C3A25303  20.431  26.538  12.986  0.0692 -0.1100  0.1101
 1055BOLB   C4A25304  20.528  26.617  12.553 -0.0214  0.2577  0.3743
 1055BOLB   C1B25305  20.183  27.307  13.433  0.1075  0.1260 -0.1864
 1055BOLB   C2B25306  20.626  27.074  13.331 -0.1772 -0.1720 -0.2013
 1055BOLB   C3B25307  20.793  26.607  13.294  0.1133  0.3124  0.4136
 1055BOLB   C4B25308  20.809  26.200  13.274  0.0136 -0.1462 -0.1600
 1055BOLB   NC225309  22.081  26.387  11.418  0.0831 -0.1651 -0.0497
 1055BOLB   PO225310  22.013  26.619  11.720 -0.1253  0.4412 -0.1230
 1055BOLB   GL325311  21.639  26.404  11.677 -0.0724  0.1879  0.3736
 1055BOLB   GL425312  21.752  26.039  11.587  0.2441 -0.0634 -0.1391
 1055BOLB   C1C25313  21.291  26.193  11.606  0.1627 -0.0213  0.1228
 1055BOLB   C2C25314  20.810  26.120  11.555  0.2812 -0.1152  0.1989
 1055BOLB   C3C25315  20.375  26.121  11.879 -0.1717 -0.4385  0.1110
 1055BOLB   C4C25316  20.494  26.426  12.189  0.1639 -0.3158 -0.2108
 1055BOLB   C1D25317  21.503  25.788  11.872 -0.1189 -0.3404  0.0634
 1055BOLB   C2D25318  21.031  25.886  12.000  0.2042 -0.0621  0.2325
 1055BOLB   C3D25319  20.686  25.974  12.229 -0.1049 -0.1508 -0.1556
 1055BOLB   C4D25320  20.335  26.082  12.476 -0.1776 -0.0160 -0.0778
 1056BOLB   NC125321   9.342  23.693  12.912 -0.3657  0.0399  0.2694
 1056BOLB   PO125322   9.742  23.622  12.964  0.1766  0.1982 -0.2508
 1056BOLB   GL125323  10.115  23.741  12.861 -0.0261  0.1194 -0.0577
 1056BOLB   GL225324  10.281  23.804  13.120  0.0912  0.3837 -0.1254
 1056BOLB   C1A25325  10.364  23.893  12.602 -0.2042 -0.3705 -0.0155
 1056BOLB   C2A25326  10.497  24.257  12.604  0.1931  0.0157  0.2422
 1056BOLB   C3A25327  10.728  24.571  12.354 -0.1420  0.1611 -0.1283
 1056BOLB   C4A25328  11.109  24.854  12.259  0.0459  0.1533 -0.0567
 1056BOLB   C1B25329  10.551  24.087  13.079  0.0074  0.0060  0.0722
 1056BOLB   C2B25330  10.734  24.432  12.991 -0.1330 -0.1253  0.2290
 1056BOLB   C3B25331  10.756  24.794  13.208  0.1786  0.0174 -0.4013
 1056BOLB   C4B25332  10.868  25.201  13.188 -0.3720 -0.0372  0.3749
 1056BOLB   NC225333  11.487  26.590  10.515 -0.1442 -0.0332 -0.1349
 1056BOLB   PO225334  11.708  26.904  10.788 -0.1126  0.1165 -0.0639
 1056BOLB   GL325335  11.582  26.496  11.076 -0.0866  0.0310  0.0498
 1056BOLB   GL425336  11.363  26.223  10.837  0.1800  0.2077  0.0284
 1056BOLB   C1C25337  11.234  26.304  11.341  0.2916  0.0279  0.1221
 1056BOLB   C2C25338  11.174  25.916  11.584 -0.3729 -0.0458 -0.2076
 1056BOLB   C3C25339  11.014  25.635  11.937  0.1200  0.0394 -0.2345
 1056BOLB   C4C25340  11.056  25.273  12.111  0.1222 -0.3355  0.1058
 1056BOLB   C1D25341  11.440  25.869  11.157 -0.0066 -0.1514  0.1127
 1056BOLB   C2D25342  11.539  25.567  11.362 -0.0168 -0.1873  0.3277
 1056BOLB   C3D25343  11.652  25.091  11.409 -0.2065  0.0652 -0.0627
 1056BOLB   C4D25344  11.654  24.688  11.481  0.2255 -0.0280  0.0802
 1057BOLB   NC125345  19.124  25.174  14.106 -0.0627  0.0643 -0.0816
 1057BOLB   PO125346  19.445  24.839  14.214 -0.2981 -0.0593  0.0951
 1057BOLB   GL125347  19.952  25.046  14.235  0.3213 -0.1378  0.0827
 1057BOLB   GL225348  20.203  24.855  14.425 -0.2840  0.1525 -0.2527
 1057BOLB   C1A25349  20.321  25.279  14.110  0.0853 -0.0387  0.1788
 1057BOLB   C2A25350  20.493  25.252  13.686 -0.0054  0.0702 -0.0537
 1057BOLB   C3A25351  20.848  25.152  13.475  0.2840 -0.0994 -0.0642
 1057BOLB   C4A25352  21.073  25.150  13.180  0.1170 -0.0715 -0.2880
 1057BOLB   C1B25353  20.488  24.852  14.108 -0.0695  0.1582  0.0807
 1057BOLB   C2B25354  20.904  24.930  13.921 -0.2773 -0.1224 -0.0825
 1057BOLB   C3B25355  21.268  24.683  13.693 -0.3596 -0.0646 -0.2615
 1057BOLB   C4B25356  21.530  24.775  13.316  0.1057 -0.0550  0.0380
 1057BOLB   NC225357  23.352  25.120  11.851 -0.1669 -0.0592  0.1789
 1057BOLB   PO225358  23.411  25.009  12.275  0.2324 -0.3733 -0.3357
 1057BOLB   GL325359  23.044  24.860  12.171 -0.0226  0.2695 -0.0137
 1057BOLB   GL425360  22.981  24.509  12.064 -0.2407  0.1198 -0.0080
 1057BOLB   C1C25361  22.598  24.969  12.302  0.0027 -0.0837  0.4299
 1057BOLB   C2C25362  22.176  25.098  12.426 -0.0621 -0.1122 -0.0293
 1057BOLB   C3C25363  21.714  25.106  12.525  0.0141 -0.0423 -0.1345
 1057BOLB   C4C25364  21.332  25.190  12.775 -0.1235 -0.3257  0.0010
 1057BOLB   C1D25365  22.688  24.441  12.293 -0.1457 -0.1789 -0.0976
 1057BOLB   C2D25366  22.345  24.340  12.394 -0.0756 -0.1022 -0.3276
 1057BOLB   C3D25367  22.224  24.219  12.891 -0.1830  0.2274  0.2368
 1057BOLB   C4D25368  21.992  24.208  13.140  0.2159  0.3506 -0.1741
 1058BOLB   NC125369  16.633  26.371  13.404  0.2272  0.0400 -0.0177
 1058BOLB   PO125370  16.369  26.628  13.024 -0.0756  0.1185  0.2696
 1058BOLB   GL125371  16.263  26.481  12.659 -0.0240  0.2694  0.1305
 1058BOLB   GL225372  16.412  26.240  12.592  0.0492  0.1015 -0.1784
 1058BOLB   C1A25373  15.941  26.532  12.330  0.0235 -0.2104  0.0717
 1058BOLB   C2A25374  15.635  26.635  12.091 -0.0964 -0.2203 -0.3066
 1058BOLB   C3A25375  15.458  26.633  11.694 -0.1870 -0.1888  0.1230
 1058BOLB   C4A25376  15.079  26.810  11.442  0.0379  0.0457  0.0884
 1058BOLB   C1B25377  16.418  26.386  12.184  0.0387 -0.0552 -0.0810
 1058BOLB   C2B25378  16.281  26.489  11.745  0.1517 -0.2033 -0.0631
 1058BOLB   C3B25379  15.941  26.509  11.642  0.1565 -0.1031  0.2657
 1058BOLB   C4B25380  15.632  26.516  11.223  0.0589  0.1431 -0.0888
 1058BOLB   NC225381  14.130  27.230   9.312  0.1984 -0.2850 -0.3110
 1058BOLB   PO225382  14.225  27.565   9.534 -0.2357 -0.0593  0.1712
 1058BOLB   GL325383  14.128  27.239   9.855  0.4764 -0.1892 -0.1990
 1058BOLB   GL425384  13.880  27.496  10.087  0.0460  0.1335  0.1279
 1058BOLB   C1C25385  14.278  26.816  10.107 -0.1499  0.0392 -0.0922
 1058BOLB   C2C25386  14.479  26.763  10.457  0.1919  0.3155 -0.1909
 1058BOLB   C3C25387  14.690  26.711  10.713 -0.0874  0.2011 -0.1301
 1058BOLB   C4C25388  14.790  26.894  11.164  0.2201  0.1997 -0.1397
 1058BOLB   C1D25389  13.999  27.184  10.447 -0.0732 -0.0957  0.0305
 1058BOLB   C2D25390  14.226  27.032  10.738  0.2368 -0.3172  0.2154
 1058BOLB   C3D25391  14.194  26.831  11.090  0.0290 -0.0784  0.0373
 1058BOLB   C4D25392  14.078  26.416  11.387 -0.1249 -0.0812 -0.1213
 1059BOLB   NC125393  20.949  27.524  16.106  0.1005 -0.0065 -0.0554
 1059BOLB   PO125394  21.348  27.671  16.137  0.1146  0.0488 -0.0026
 1059BOLB   GL125395  21.528  27.344  15.956  0.2485 -0.1336  0.0575
 1059BOLB   GL225396  21.498  27.350  15.701  0.0770  0.3595  0.0518
 1059BOLB   C1A25397  21.409  26.879  15.970  0.1929 -0.0737  0.0435
 1059BOLB   C2A25398  21.024  26.681  16.159  0.4035 -0.1178  0.3566
 1059BOLB   C3A25399  20.634  26.496  16.198  0.1544 -0.0237  0.0155
 1059BOLB   C4A25400  20.334  26.383  16.573  0.4951 -0.0275 -0.0640
 1059BOLB   C1B25401  21.501  27.069  15.268 -0.2672 -0.0676 -0.2960
 1059BOLB   C2B25402  21.675  27.101  14.800  0.0238 -0.1337 -0.0832
 1059BOLB   C3B25403  21.450  26.807  14.506 -0.0379  0.1657  0.0578
 1059BOLB   C4B25404  21.150  26.958  14.151 -0.0270  0.2724 -0.3186
 1059BOLB   NC225405  19.729  27.806  17.170  0.0473  0.1819  0.0282
 1059BOLB   PO225406  20.015  27.678  17.469  0.2132  0.2484 -0.1459
 1059BOLB   GL325407  19.940  27.257  17.618  0.2022 -0.1802  0.0076
 1059BOLB   GL425408  20.278  27.094  17.659 -0.0913 -0.1600  0.0622
 1059BOLB   C1C25409  19.775  26.933  17.393 -0.5504  0.3418 -0.3441
 1059BOLB   C2C25410  19.865  26.484  17.379 -0.1431  0.1314  0.4258
 1059BOLB   C3C25411  19.810  26.232  17.210 -0.1936 -0.0556 -0.1683
 1059BOLB   C4C25412  20.002  26.243  16.829 -0.4164 -0.0427 -0.2493
 1059BOLB   C1D25413  20.303  26.838  17.429  0.2718  0.0268  0.2386
 1059BOLB   C2D25414  20.379  26.420  17.213  0.0682  0.1474  0.2743
 1059BOLB   C3D25415  20.557  26.176  16.949 -0.0451 -0.1354 -0.2034
 1059BOLB   C4D25416  20.525  25.970  16.623  0.2296 -0.4439  0.0208
 1060BOLB   NC125417  15.826  25.322  13.300  0.0480  0.0825  0.0121
 1060BOLB   PO125418  15.600  25.722  13.159 -0.0327 -0.1137  0.0439
 1060BOLB   GL125419  15.486  25.683  12.661  0.3116  0.0669  0.1135
 1060BOLB   GL225420  15.114  25.532  12.535 -0.3512 -0.0232  0.3260
 1060BOLB   C1A25421  15.375  25.756  12.216 -0.0920  0.2212  0.2114
 1060BOLB   C2A25422  15.379  25.760  11.804  0.2141 -0.0081 -0.1988
 1060BOLB   C3A25423  15.409  25.711  11.366  0.0360 -0.0062  0.0246
 1060BOLB   C4A25424  15.214  25.678  11.033 -0.2770  0.2238  0.2001
 1060BOLB   C1B25425  14.926  25.648  12.077  0.3255  0.1251 -0.0805
 1060BOLB   C2B25426  14.794  25.547  11.710 -0.2925  0.0019  0.0218
 1060BOLB   C3B25427  14.915  25.645  11.424  0.0236 -0.0913  0.0457
 1060BOLB   C4B25428  14.727  25.883  11.126  0.2148  0.0216  0.4270
 1060BOLB   NC225429  15.147  25.809   8.228  0.3194 -0.2314 -0.1525
 1060BOLB   PO225430  15.173  26.185   8.622  0.1235 -0.1183  0.1186
 1060BOLB   GL325431  15.192  26.073   9.074 -0.1057  0.4444  0.3857
 1060BOLB   GL425432  15.490  25.941   9.099 -0.0172  0.0834  0.2728
 1060BOLB   C1C25433  15.168  26.030   9.503 -0.0232 -0.1071  0.0463
 1060BOLB   C2C25434  15.365  25.981   9.959  0.3159  0.0822  0.0749
 1060BOLB   C3C25435  15.122  25.723  10.276  0.1558 -0.1022  0.2630
 1060BOLB   C4C25436  14.973  25.795  10.669  0.1693 -0.0515  0.0474
 1060BOLB   C1D25437  15.677  25.693   9.406 -0.0749  0.0932 -0.0125
 1060BOLB   C2D25438  15.656  25.421   9.667  0.0028  0.0111  0.1083
 1060BOLB   C3D25439  15.528  24.938   9.901 -0.0797  0.1773  0.0849
 1060BOLB   C4D25440  15.333  24.523   9.991 -0.3123  0.0458 -0.0649
 1061BOLB   NC125441  14.483  27.195  14.792  0.1829  0.2011 -0.3675
 1061BOLB   PO125442  14.429  27.260  14.395 -0.0847  0.1148 -0.1668
 1061BOLB   GL125443  14.243  26.842  14.483  0.0092  0.2868 -0.0216
 1061BOLB   GL225444  14.016  26.937  14.697 -0.3094  0.2208  0.0055
 1061BOLB   C1A25445  14.175  26.454  14.683  0.0869  0.1233  0.0362
 1061BOLB   C2A25446  13.838  26.131  14.751 -0.2627 -0.2208 -0.1467
 1061BOLB   C3A25447  13.392  26.035  14.555 -0.2021 -0.1183  0.2552
 1061BOLB   C4A25448  13.081  26.282  14.406  0.2107  0.2093  0.2345
 1061BOLB   C1B25449  13.714  27.004  14.386 -0.0205 -0.0326 -0.1200
 1061BOLB   C2B25450  13.626  26.936  13.990 -0.0689 -0.0164 -0.2016
 1061BOLB   C3B25451  13.658  26.633  13.742 -0.1121  0.0298  0.1836
 1061BOLB   C4B25452  13.324  26.519  13.530 -0.1922  0.5031  0.2083
 1061BOLB   NC225453  11.866  28.068  13.766  0.1576 -0.2290  0.0228
 1061BOLB   PO225454  11.791  28.008  13.338 -0.1119  0.1076  0.0434
 1061BOLB   GL325455  11.670  27.563  13.321 -0.1689  0.1543 -0.2280
 1061BOLB   GL425456  11.364  27.437  13.445 -0.1891 -0.0946  0.1036
 1061BOLB   C1C25457  11.908  27.105  13.406 -0.0857  0.0173  0.0688
 1061BOLB   C2C25458  12.172  26.829  13.548  0.2055  0.1839 -0.0646
 1061BOLB   C3C25459  12.456  26.604  13.916  0.5608 -0.0280  0.1069
 1061BOLB   C4C25460  12.762  26.312  14.018 -0.0254  0.0587  0.0261
 1061BOLB   C1D25461  11.268  27.205  13.737 -0.0711  0.1293 -0.1429
 1061BOLB   C2D25462  11.495  27.268  14.220 -0.0924 -0.1994  0.1431
 1061BOLB   C3D25463  11.806  27.191  14.529  0.0118  0.0456  0.1217
 1061BOLB   C4D25464  12.072  26.876  14.644  0.0152  0.2803 -0.0767
 1062BOLB   NC125465  12.627  23.904  14.026  0.1171 -0.2648 -0.3032
 1062BOLB   PO125466  12.936  24.088  13.876  0.0377  0.0763  0.2601
 1062BOLB   GL125467  12.754  24.532  13.796 -0.0707 -0.0893 -0.0314
 1062BOLB   GL225468  12.351  24.545  13.879 -0.0672  0.1047  0.0628
 1062BOLB   C1A25469  12.649  24.991  13.983 -0.0058  0.1271 -0.0837
 1062BOLB   C2A25470  12.512  25.462  13.967 -0.0521  0.2202 -0.2410
 1062BOLB   C3A25471  12.340  25.740  14.281  0.0279  0.0772 -0.0065
 1062BOLB   C4A25472  12.128  26.143  14.236  0.0108 -0.1690 -0.1698
 1062BOLB   C1B25473  12.246  24.861  14.186  0.1035  0.4282 -0.0198
 1062BOLB   C2B25474  12.235  25.257  14.453  0.0887  0.0522  0.0524
 1062BOLB   C3B25475  12.283  25.291  14.955  0.0886 -0.0525 -0.0994
 1062BOLB   C4B25476  12.233  25.315  15.412  0.0801 -0.1496 -0.3953
 1062BOLB   NC225477  10.117  27.589  13.932  0.1099  0.1683  0.0198
 1062BOLB   PO225478  10.020  27.186  13.997  0.2305  0.3493  0.0091
 1062BOLB   GL325479  10.328  27.203  13.692 -0.2217 -0.4670  0.0596
 1062BOLB   GL425480  10.441  26.950  13.519  0.2390 -0.0579  0.2585
 1062BOLB   C1C25481  10.787  27.010  13.863 -0.2264 -0.0060 -0.0073
 1062BOLB   C2C25482  11.219  26.779  13.990 -0.0636  0.3174 -0.2433
 1062BOLB   C3C25483  11.611  26.823  14.162 -0.0332  0.3107 -0.0643
 1062BOLB   C4C25484  11.880  26.537  14.177 -0.3362  0.0315 -0.0802
 1062BOLB   C1D25485  10.744  26.590  13.567  0.0710 -0.1756  0.3836
 1062BOLB   C2D25486  10.915  26.366  13.802 -0.0639 -0.0349 -0.2134
 1062BOLB   C3D25487  11.099  26.044  13.902 -0.0830 -0.1141  0.1443
 1062BOLB   C4D25488  11.434  25.733  13.993 -0.0424  0.3277 -0.2142
 1063BOLB   NC125489  16.955  24.523  12.568  0.2196  0.0618  0.0808
 1063BOLB   PO125490  16.701  24.834  12.629 -0.1161 -0.0244  0.2121
 1063BOLB   GL125491  16.557  24.812  12.109 -0.1561  0.2421  0.1600
 1063BOLB   GL225492  16.673  24.503  12.121  0.0272  0.0957  0.0113
 1063BOLB   C1A25493  16.467  24.919  11.737 -0.3486  0.0683 -0.1439
 1063BOLB   C2A25494  16.167  25.103  11.490 -0.2315 -0.1331 -0.0475
 1063BOLB   C3A25495  16.079  25.123  11.026  0.1569  0.4445 -0.1492
 1063BOLB   C4A25496  16.077  25.254  10.676 -0.3309 -0.0214  0.1269
 1063BOLB   C1B25497  17.062  24.672  11.877  0.1167 -0.3258 -0.1561
 1063BOLB   C2B25498  17.212  24.943  11.563  0.1082  0.0116 -0.0932
 1063BOLB   C3B25499  17.391  24.909  11.134  0.2033 -0.0321 -0.0989
 1063BOLB   C4B25500  17.496  25.167  10.750  0.2420 -0.0422 -0.1421
 1063BOLB   NC225501  15.368  25.742   8.658 -0.1071  0.2926  0.0476
 1063BOLB   PO225502  15.450  25.362   8.363  0.0562 -0.3746 -0.0996
 1063BOLB   GL325503  15.628  25.217   8.746  0.1708 -0.0433  0.3452
 1063BOLB   GL425504  15.696  25.489   8.946 -0.1253 -0.0267  0.1882
 1063BOLB   C1C25505  15.626  25.142   9.266  0.4098 -0.2573  0.1952
 1063BOLB   C2C25506  15.942  25.021   9.592 -0.2099  0.3766 -0.1061
 1063BOLB   C3C25507  16.035  25.145   9.934 -0.0629 -0.1175  0.2394
 1063BOLB   C4C25508  16.053  25.404  10.312 -0.4096 -0.0750 -0.0018
 1063BOLB   C1D25509  16.041  25.447   9.190 -0.0945 -0.0748  0.3001
 1063BOLB   C2D25510  16.218  25.612   9.631  0.1675  0.0214  0.0465
 1063BOLB   C3D25511  16.425  25.408   9.962 -0.3287 -0.2473  0.2596
 1063BOLB   C4D25512  16.477  25.831  10.071  0.0852  0.0370  0.0322
 1064BOLB   NC125513  15.919  29.220  11.663  0.1183  0.2201  0.4737
 1064BOLB   PO125514  15.963  28.936  11.983 -0.1509 -0.2237 -0.3658
 1064BOLB   GL125515  15.803  28.509  11.732 -0.3780  0.0959 -0.0408
 1064BOLB   GL225516  15.643  28.289  12.001  0.1585  0.0915 -0.1092
 1064BOLB   C1A25517  15.984  28.036  11.809 -0.1400  0.0817  0.0906
 1064BOLB   C2A25518  16.131  27.826  11.458 -0.0108 -0.0701  0.0340
 1064BOLB   C3A25519  16.128  27.642  11.103  0.4507 -0.1103 -0.2251
 1064BOLB   C4A25520  15.810  27.303  10.994 -0.1129 -0.1270  0.1477
 1064BOLB   C1B25521  15.442  27.921  11.830  0.2702 -0.0648 -0.1465
 1064BOLB   C2B25522  15.550  27.598  11.520 -0.1433 -0.1240 -0.2701
 1064BOLB   C3B25523  15.385  27.249  11.216 -0.2201  0.1832  0.1120
 1064BOLB   C4B25524  15.209  27.034  10.882  0.2187  0.0590 -0.2464
 1064BOLB   NC225525  14.750  26.335   8.887  0.0198 -0.0228  0.3875
 1064BOLB   PO225526  14.681  26.687   9.207  0.0745  0.1217 -0.0747
 1064BOLB   GL325527  14.985  26.545   9.419 -0.2681 -0.2253  0.1053
 1064BOLB   GL425528  15.290  26.529   9.359 -0.2228  0.0447  0.2662
 1064BOLB   C1C25529  15.270  26.925   9.698  0.0122  0.4080  0.1753
 1064BOLB   C2C25530  15.433  26.768  10.244 -0.0205  0.0569  0.0434
 1064BOLB   C3C25531  15.587  26.965  10.548  0.1097  0.0498  0.1401
 1064BOLB   C4C25532  15.709  26.907  10.861 -0.0788  0.0964  0.3320
 1064BOLB   C1D25533  15.189  26.441   9.909  0.0055  0.2676  0.0525
 1064BOLB   C2D25534  15.346  26.265  10.348 -0.0919 -0.2006 -0.0457
 1064BOLB   C3D25535  15.211  26.590  10.687  0.3044  0.0791 -0.1416
 1064BOLB   C4D25536  15.083  26.518  11.006  0.1661  0.1548  0.3377
 1065BOLB   NC125537  21.849  28.151  12.952  0.2950 -0.0978 -0.1219
 1065BOLB   PO125538  21.582  27.721  12.893 -0.1295  0.0446 -0.5083
 1065BOLB   GL125539  21.713  27.320  13.150 -0.1337 -0.2388  0.0416
 1065BOLB   GL225540  21.874  27.438  13.510  0.3500 -0.0224  0.0261
 1065BOLB   C1A25541  21.589  26.999  13.486 -0.5052  0.1800 -0.0697
 1065BOLB   C2A25542  21.245  26.797  13.620 -0.0115 -0.1605 -0.3887
 1065BOLB   C3A25543  21.218  26.385  13.525 -0.0982  0.2114  0.3258
 1065BOLB   C4A25544  21.267  25.975  13.366 -0.1288 -0.2902  0.1318
 1065BOLB   C1B25545  22.106  27.033  13.484 -0.1557  0.1198  0.0713
 1065BOLB   C2B25546  21.974  26.684  13.485 -0.0339 -0.1002  0.0757
 1065BOLB   C3B25547  22.161  26.214  13.315  0.1387  0.0216  0.0320
 1065BOLB   C4B25548  22.420  26.237  12.926 -0.0236  0.3377  0.0974
 1065BOLB   NC225549  23.225  25.757  12.374 -0.2752  0.2366  0.0494
 1065BOLB   PO225550  23.090  25.523  12.064  0.1543  0.2081 -0.0668
 1065BOLB   GL325551  22.912  25.309  12.488 -0.3728  0.0709 -0.1261
 1065BOLB   GL425552  22.989  25.028  12.696  0.1812  0.2347 -0.2283
 1065BOLB   C1C25553  22.564  25.281  12.740  0.0770 -0.1538  0.0268
 1065BOLB   C2C25554  22.199  25.205  12.905 -0.0803  0.0783  0.2147
 1065BOLB   C3C25555  21.806  25.269  13.019  0.0406  0.1482  0.1250
 1065BOLB   C4C25556  21.522  25.484  13.286 -0.3498  0.1786 -0.1539
 1065BOLB   C1D25557  22.851  24.614  12.737  0.3218 -0.2554 -0.2891
 1065BOLB   C2D25558  22.674  24.179  12.710  0.0632  0.2090  0.1457
 1065BOLB   C3D25559  22.571  23.784  12.946  0.1462 -0.1307  0.0344
 1065BOLB   C4D25560  22.521  23.316  12.983 -0.0066  0.1426 -0.0130
 1066BOLB   NC125561  17.363  29.241  11.685  0.0393 -0.1483  0.2476
 1066BOLB   PO125562  17.565  28.830  11.806 -0.4133  0.2120  0.4936
 1066BOLB   GL125563  17.276  28.518  11.629 -0.1225 -0.1405  0.3828
 1066BOLB   GL225564  17.441  28.242  11.537 -0.2730  0.0128  0.1425
 1066BOLB   C1A25565  16.966  28.178  11.491  0.0013 -0.0956 -0.0324
 1066BOLB   C2A25566  16.642  27.940  11.374 -0.2630 -0.3558  0.0513
 1066BOLB   C3A25567  16.679  27.614  10.957  0.0250 -0.3370  0.2755
 1066BOLB   C4A25568  16.364  27.470  10.700 -0.0507  0.2558 -0.0197
 1066BOLB   C1B25569  17.292  27.896  11.164  0.1705 -0.1467  0.2252
 1066BOLB   C2B25570  17.157  27.568  10.889  0.0044  0.1525 -0.0898
 1066BOLB   C3B25571  16.876  27.419  10.565  0.1292 -0.1206 -0.2812
 1066BOLB   C4B25572  16.634  27.440  10.270 -0.0203 -0.2572  0.4655
 1066BOLB   NC225573  15.378  27.967   9.274  0.1044  0.0689  0.1456
 1066BOLB   PO225574  15.014  28.072   9.341 -0.0116  0.1797  0.0984
 1066BOLB   GL325575  15.093  27.831   9.667 -0.0059  0.2750 -0.1463
 1066BOLB   GL425576  15.041  27.910  10.004 -0.2806  0.3322  0.1872
 1066BOLB   C1C25577  15.240  27.476   9.759 -0.0185  0.1929  0.0102
 1066BOLB   C2C25578  15.407  27.240  10.089  0.1508 -0.0102  0.1384
 1066BOLB   C3C25579  15.744  27.407  10.236  0.1892  0.1233  0.2882
 1066BOLB   C4C25580  16.170  27.262  10.390 -0.0643  0.0519 -0.2629
 1066BOLB   C1D25581  15.055  27.537  10.226 -0.1091 -0.0660 -0.6170
 1066BOLB   C2D25582  15.059  27.104  10.398 -0.0819  0.2167  0.1308
 1066BOLB   C3D25583  14.936  26.674  10.279 -0.0432  0.2675  0.0960
 1066BOLB   C4D25584  14.856  26.160  10.181 -0.2928  0.3635  0.3309
 1067BOLB   NC125585  19.412  24.688  15.051 -0.2205 -0.0517  0.0210
 1067BOLB   PO125586  19.643  25.059  15.266 -0.1841  0.0469  0.1856
 1067BOLB   GL125587  19.677  25.245  15.725  0.2164  0.1369 -0.4956
 1067BOLB   GL225588  19.471  25.516  15.893 -0.3163  0.0786  0.2903
 1067BOLB   C1A25589  19.962  25.339  16.074  0.2678 -0.0292  0.2965
 1067BOLB   C2A25590  20.198  25.488  16.379 -0.0733 -0.0010 -0.0277
 1067BOLB   C3A25591  20.484  25.404  16.622  0.1005 -0.0269 -0.0465
 1067BOLB   C4A25592  20.765  25.684  16.959  0.0411  0.0874 -0.0685
 1067BOLB   C1B25593  19.473  25.170  16.260  0.0936 -0.0225 -0.2772
 1067BOLB   C2B25594  19.876  25.209  16.642 -0.0742 -0.3612 -0.1838
 1067BOLB   C3B25595  19.934  25.336  17.011 -0.0468 -0.1606 -0.1655
 1067BOLB   C4B25596  20.398  25.431  17.180 -0.0259  0.0895  0.1669
 1067BOLB   NC225597  21.986  27.823  17.617 -0.0555  0.2030 -0.1270
 1067BOLB   PO225598  22.054  27.527  18.042  0.6011  0.1754 -0.0233
 1067BOLB   GL325599  21.989  27.092  18.060 -0.0892  0.0848  0.0908
 1067BOLB   GL425600  22.144  26.881  18.373 -0.1655  0.1171  0.0432
 1067BOLB   C1C25601  21.901  26.701  17.760 -0.1036  0.0894 -0.4025
 1067BOLB   C2C25602  21.641  26.483  17.505 -0.2091  0.0698  0.0806
 1067BOLB   C3C25603  21.396  26.041  17.344 -0.2178  0.2468 -0.0339
 1067BOLB   C4C25604  21.155  25.783  17.155  0.3567  0.1042 -0.3790
 1067BOLB   C1D25605  22.265  26.491  18.140  0.3458 -0.0115 -0.2064
 1067BOLB   C2D25606  21.989  26.227  18.170 -0.0285 -0.2114 -0.0938
 1067BOLB   C3D25607  21.859  26.173  17.802  0.1374  0.1786  0.2503
 1067BOLB   C4D25608  21.753  25.750  17.598  0.1708 -0.1365  0.1519
 1068BOLB   NC125609  13.872  28.766  12.536  0.2892 -0.0429 -0.0217
 1068BOLB   PO125610  14.199  28.479  12.653 -0.2453 -0.0404 -0.1064
 1068BOLB   GL125611  14.516  28.217  12.309 -0.2340 -0.0111 -0.3090
 1068BOLB   GL225612  14.384  28.185  11.898  0.1588  0.0683 -0.0945
 1068BOLB   C1A25613  14.851  27.949  12.102 -0.0633  0.1491  0.0225
 1068BOLB   C2A25614  14.953  27.807  11.706  0.0644  0.4967  0.0733
 1068BOLB   C3A25615  15.114  27.781  11.281  0.0947  0.2851  0.0877
 1068BOLB   C4A25616  15.507  27.809  11.044  0.0294  0.1883  0.0053
 1068BOLB   C1B25617  14.623  28.104  11.499  0.0081  0.1483  0.1127
 1068BOLB   C2B25618  14.492  27.945  11.179 -0.1022  0.1004  0.0501
 1068BOLB   C3B25619  14.269  27.830  10.859  0.1434 -0.0169  0.1491
 1068BOLB   C4B25620  14.230  27.662  10.502  0.0159  0.1148  0.0873
 1068BOLB   NC225621  17.702  29.144  10.504 -0.1611  0.1403  0.3608
 1068BOLB   PO225622  17.701  28.870  10.883  0.1377 -0.0965  0.2299
 1068BOLB   GL325623  17.286  28.728  10.719 -0.1209 -0.2085  0.2933
 1068BOLB   GL425624  17.263  28.477  10.947 -0.0411  0.2307  0.3135
 1068BOLB   C1C25625  16.898  28.493  10.519 -0.0440  0.2704 -0.0403
 1068BOLB   C2C25626  16.511  28.353  10.578  0.1400 -0.0092  0.1703
 1068BOLB   C3C25627  16.251  28.045  10.755 -0.0889 -0.0090 -0.0040
 1068BOLB   C4C25628  15.899  28.037  11.002  0.2388 -0.1780 -0.0342
 1068BOLB   C1D25629  16.909  28.288  11.002 -0.0920 -0.0919  0.0976
 1068BOLB   C2D25630  16.494  28.408  11.267 -0.0581 -0.0598  0.1012
 1068BOLB   C3D25631  16.089  28.349  11.389  0.0014 -0.2149  0.0900
 1068BOLB   C4D25632  15.660  28.150  11.418  0.1362 -0.1208  0.0291
 1069BOLB   NC125633  11.482  23.674  13.079  0.0589  0.0244  0.3852
 1069BOLB   PO125634  11.640  23.794  13.450  0.0134 -0.0425  0.0748
 1069BOLB   GL125635  11.806  24.116  13.745 -0.1306  0.1454 -0.1448
 1069BOLB   GL225636  12.165  24.003  14.027  0.1573 -0.0370 -0.0694
 1069BOLB   C1A25637  11.918  24.406  14.142 -0.0152  0.2387 -0.0284
 1069BOLB   C2A25638  11.741  24.733  14.361 -0.0268 -0.2876  0.2137
 1069BOLB   C3A25639  11.797  25.014  14.699 -0.5509  0.1463 -0.0350
 1069BOLB   C4A25640  11.782  25.521  14.681 -0.0188 -0.2105 -0.1454
 1069BOLB   C1B25641  11.814  23.851  14.208 -0.0618  0.0134 -0.0546
 1069BOLB   C2B25642  11.550  24.044  14.470  0.1199 -0.2340 -0.1184
 1069BOLB   C3B25643  11.545  24.357  14.756 -0.0171  0.3348 -0.0970
 1069BOLB   C4B25644  11.668  24.513  15.078  0.1200 -0.2004 -0.3460
 1069BOLB   NC225645  12.407  27.856  15.046 -0.0803 -0.0423  0.1906
 1069BOLB   PO225646  12.361  27.625  15.432  0.0391 -0.0039 -0.0391
 1069BOLB   GL325647  12.599  27.345  15.332  0.0480 -0.1286  0.1725
 1069BOLB   GL425648  12.863  27.298  15.022 -0.0891  0.0634  0.1861
 1069BOLB   C1C25649  12.608  26.845  15.198  0.0395 -0.0226  0.0272
 1069BOLB   C2C25650  12.349  26.595  14.919 -0.4387  0.4962 -0.2438
 1069BOLB   C3C25651  12.187  26.130  14.921 -0.0985 -0.1546  0.0358
 1069BOLB   C4C25652  12.045  25.826  14.712 -0.2276 -0.1264 -0.3888
 1069BOLB   C1D25653  13.042  27.333  14.661 -0.2591  0.4321  0.0667
 1069BOLB   C2D25654  13.219  26.987  14.387 -0.0002 -0.0900 -0.0046
 1069BOLB   C3D25655  13.187  26.677  14.114 -0.0308  0.0337  0.3423
 1069BOLB   C4D25656  13.353  26.294  13.997 -0.3251  0.1429 -0.0847
 1070BOLB   NC125657  17.621  25.279  12.708  0.2552  0.1662 -0.2360
 1070BOLB   PO125658  17.674  24.940  12.622 -0.0477 -0.1097  0.3076
 1070BOLB   GL125659  17.853  25.220  12.299  0.1071  0.2980  0.2926
 1070BOLB   GL225660  17.725  25.560  12.265 -0.2410  0.0297  0.0660
 1070BOLB   C1A25661  18.033  25.414  11.876  0.4182 -0.0296 -0.1763
 1070BOLB   C2A25662  18.176  25.470  11.444  0.0619  0.0081 -0.1222
 1070BOLB   C3A25663  18.383  25.439  10.957  0.0364 -0.1034 -0.1196
 1070BOLB   C4A25664  18.499  25.438  10.498  0.1528 -0.0152 -0.0625
 1070BOLB   C1B25665  17.675  25.932  11.855  0.1789 -0.0422  0.0682
 1070BOLB   C2B25666  17.691  26.360  11.703 -0.1967  0.3127  0.1158
 1070BOLB   C3B25667  17.650  26.543  11.338  0.0166 -0.2115 -0.1470
 1070BOLB   C4B25668  17.710  26.558  10.964  0.0692 -0.1851  0.0660
 1070BOLB   NC225669  19.320  26.686   9.146  0.0359  0.0702 -0.3351
 1070BOLB   PO225670  19.095  27.060   9.259 -0.1021 -0.1940 -0.0694
 1070BOLB   GL325671  18.866  26.773   9.319  0.2082 -0.0418  0.0184
 1070BOLB   GL425672  18.639  26.905   9.599 -0.0915  0.0569 -0.2803
 1070BOLB   C1C25673  18.682  26.365   9.527 -0.1244 -0.3045 -0.1232
 1070BOLB   C2C25674  18.773  25.957   9.597  0.1763 -0.0336 -0.0833
 1070BOLB   C3C25675  18.670  25.589   9.765  0.1888 -0.3167  0.2297
 1070BOLB   C4C25676  18.540  25.551  10.105  0.0945 -0.1201 -0.0033
 1070BOLB   C1D25677  18.795  26.769  10.074 -0.3785 -0.0816  0.0864
 1070BOLB   C2D25678  18.574  26.621  10.490 -0.0080  0.0074  0.0041
 1070BOLB   C3D25679  18.520  26.207  10.753  0.1998 -0.0659 -0.1545
 1070BOLB   C4D25680  18.326  25.920  11.035 -0.0272 -0.3283 -0.0060
 1071BOLB   NC125681  19.993  25.882  14.865 -0.0486  0.0319 -0.4094
 1071BOLB   PO125682  19.895  26.322  14.812 -0.0098 -0.0659 -0.2292
 1071BOLB   GL125683  20.289  26.254  14.623  0.2142  0.1195 -0.1058
 1071BOLB   GL225684  20.486  26.038  14.706 -0.1636 -0.1561 -0.1655
 1071BOLB   C1A25685  20.684  26.448  14.475  0.1528  0.4526 -0.3284
 1071BOLB   C2A25686  21.002  26.472  14.196  0.2210  0.1907  0.1122
 1071BOLB   C3A25687  21.308  26.432  14.028 -0.0331 -0.0564  0.3520
 1071BOLB   C4A25688  21.579  26.168  13.840  0.1758  0.0617 -0.2001
 1071BOLB   C1B25689  20.873  25.951  14.510  0.0302  0.4390 -0.0349
 1071BOLB   C2B25690  21.109  25.945  14.128 -0.0385  0.0730 -0.0125
 1071BOLB   C3B25691  20.904  26.087  13.789 -0.0391 -0.2087 -0.1469
 1071BOLB   C4B25692  20.679  26.469  13.749 -0.6086  0.0996 -0.1270
 1071BOLB   NC225693  23.433  27.017  14.692  0.2919 -0.1064 -0.1237
 1071BOLB   PO225694  23.346  26.648  14.894  0.0023  0.1691 -0.0380
 1071BOLB   GL325695  23.099  26.288  14.830  0.1571 -0.0814 -0.0622
 1071BOLB   GL425696  23.343  25.946  14.907 -0.2657  0.1436 -0.0692
 1071BOLB   C1C25697  22.934  26.241  14.486 -0.0160  0.0276  0.1328
 1071BOLB   C2C25698  22.536  26.057  14.374 -0.0954  0.2724 -0.0213
 1071BOLB   C3C25699  22.104  25.955  14.241 -0.1657 -0.1018 -0.2411
 1071BOLB   C4C25700  21.727  25.970  14.138 -0.0576  0.2663 -0.0580
 1071BOLB   C1D25701  23.168  25.496  14.937  0.0188 -0.0129  0.0884
 1071BOLB   C2D25702  23.040  25.010  14.974 -0.0267 -0.1828  0.1392
 1071BOLB   C3D25703  23.067  24.531  15.050 -0.0164 -0.0895  0.3047
 1071BOLB   C4D25704  23.186  24.180  15.069  0.1173  0.2082 -0.1792
 1072BOLB   NC125705  15.053  27.183  13.901 -0.0416 -0.0544 -0.3603
 1072BOLB   PO125706  15.142  26.797  13.726  0.2119 -0.3297 -0.0153
 1072BOLB   GL125707  15.021  26.647  13.328 -0.1256  0.0185  0.3524
 1072BOLB   GL225708  14.912  26.380  13.423  0.3861 -0.0357  0.2437
 1072BOLB   C1A25709  14.873  26.684  12.820 -0.0775 -0.0936 -0.0478
 1072BOLB   C2A25710  14.509  26.415  12.629 -0.3814  0.0246 -0.0282
 1072BOLB   C3A25711  14.011  26.452  12.614 -0.1427 -0.0400 -0.1766
 1072BOLB   C4A25712  13.647  26.571  12.519 -0.3327 -0.3085  0.0159
 1072BOLB   C1B25713  14.533  26.545  13.170 -0.2500  0.4242 -0.0722
 1072BOLB   C2B25714  14.214  26.791  12.944  0.0801  0.2050 -0.0746
 1072BOLB   C3B25715  13.960  26.966  12.639  0.2185 -0.2383 -0.0338
 1072BOLB   C4B25716  13.812  27.221  12.217 -0.0673 -0.2749  0.1430
 1072BOLB   NC225717  12.369  27.788  10.931 -0.0173 -0.0369  0.2119
 1072BOLB   PO225718  12.391  27.260  10.936 -0.0459 -0.2863  0.0113
 1072BOLB   GL325719  12.463  26.942  11.240 -0.0137 -0.0337 -0.1713
 1072BOLB   GL425720  12.529  27.217  11.452 -0.1202 -0.1837 -0.1610
 1072BOLB   C1C25721  12.488  26.655  11.693 -0.0200  0.0310  0.0306
 1072BOLB   C2C25722  12.908  26.426  11.663 -0.4077 -0.0964 -0.2099
 1072BOLB   C3C25723  13.237  26.624  11.877 -0.0546 -0.0860  0.1810
 1072BOLB   C4C25724  13.460  26.825  12.260  0.2698 -0.3960  0.2033
 1072BOLB   C1D25725  12.367  27.091  11.888 -0.1235 -0.1254 -0.2573
 1072BOLB   C2D25726  12.426  26.696  12.151  0.1204 -0.0951 -0.3477
 1072BOLB   C3D25727  12.741  26.334  12.159 -0.2126  0.1049 -0.2172
 1072BOLB   C4D25728  13.129  26.172  12.262 -0.1234 -0.2363  0.1229
 1073BOLB   NC125729  17.280  24.992  13.232  0.1029 -0.0268 -0.1950
 1073BOLB   PO125730  17.210  25.056  12.878  0.2604 -0.1419 -0.0135
 1073BOLB   GL125731  17.216  25.118  12.441 -0.0913 -0.2372  0.1351
 1073BOLB   GL225732  17.111  24.899  12.278 -0.0146  0.0172  0.0962
 1073BOLB   C1A25733  17.334  25.321  12.058  0.4038  0.1925  0.2699
 1073BOLB   C2A25734  17.211  25.457  11.631  0.0269 -0.1191  0.1440
 1073BOLB   C3A25735  17.316  25.389  11.219 -0.2388  0.2994  0.0865
 1073BOLB   C4A25736  17.364  25.662  10.938  0.1230  0.0094 -0.4282
 1073BOLB   C1B25737  16.909  25.137  11.885 -0.2930 -0.1406  0.2236
 1073BOLB   C2B25738  16.736  25.198  11.436 -0.1861 -0.2096 -0.0868
 1073BOLB   C3B25739  16.904  25.144  10.985 -0.0712  0.0336 -0.0130
 1073BOLB   C4B25740  16.601  25.391  10.717  0.3665  0.2068  0.1722
 1073BOLB   NC225741  17.285  25.603   8.522 -0.0257  0.2018  0.1171
 1073BOLB   PO225742  16.918  25.352   8.502 -0.0264 -0.1052  0.1271
 1073BOLB   GL325743  17.007  25.346   8.922  0.0243 -0.1441  0.0105
 1073BOLB   GL425744  17.152  25.133   8.987  0.2105  0.0093  0.1043
 1073BOLB   C1C25745  16.945  25.278   9.421 -0.2068 -0.3118 -0.3286
 1073BOLB   C2C25746  16.815  25.194   9.819 -0.1858  0.2623  0.0042
 1073BOLB   C3C25747  16.820  25.480  10.267  0.1114  0.0387 -0.3866
 1073BOLB   C4C25748  17.037  25.582  10.593 -0.0142 -0.1430 -0.1517
 1073BOLB   C1D25749  17.236  24.692   9.002 -0.1735  0.2985  0.1593
 1073BOLB   C2D25750  17.547  24.432   8.961  0.1431  0.3429 -0.1725
 1073BOLB   C3D25751  17.883  24.116   9.109  0.0358 -0.1467 -0.2127
 1073BOLB   C4D25752  17.939  23.959   9.383  0.2051  0.0755 -0.2413
 1074BOLB   NC125753  19.460  25.370  14.393  0.0416 -0.1874 -0.3188
 1074BOLB   PO125754  19.568  25.739  14.555  0.0165  0.0713 -0.2420
 1074BOLB   GL125755  20.049  25.581  14.404 -0.0722 -0.0517 -0.2340
 1074BOLB   GL225756  20.278  25.335  14.661  0.2996 -0.3602 -0.1348
 1074BOLB   C1A25757  20.380  25.775  14.348 -0.3286  0.2761 -0.2710
 1074BOLB   C2A25758  20.688  25.681  14.054 -0.1712 -0.3110  0.0648
 1074BOLB   C3A25759  20.967  25.575  13.670  0.4181  0.0550  0.0252
 1074BOLB   C4A25760  21.297  25.666  13.746  0.0720 -0.0077  0.1628
 1074BOLB   C1B25761  20.702  25.505  14.760  0.2986  0.1764 -0.1785
 1074BOLB   C2B25762  21.136  25.642  14.795  0.0611  0.3703  0.1125
 1074BOLB   C3B25763  21.526  25.761  15.125  0.1923 -0.2057  0.1302
 1074BOLB   C4B25764  21.910  25.611  15.125  0.2024 -0.1570  0.0348
 1074BOLB   NC225765  23.622  26.152  12.947 -0.2141 -0.0465  0.0985
 1074BOLB   PO225766  23.692  25.745  13.025 -0.1337  0.3213 -0.1924
 1074BOLB   GL325767  23.334  25.574  13.253  0.0236  0.0807  0.1463
 1074BOLB   GL425768  23.453  25.321  13.502  0.1904 -0.1408 -0.2004
 1074BOLB   C1C25769  23.031  25.648  13.594  0.3670  0.1608 -0.2308
 1074BOLB   C2C25770  22.607  25.455  13.756 -0.2549  0.1757  0.1879
 1074BOLB   C3C25771  22.090  25.534  13.847  0.4520  0.0815 -0.1978
 1074BOLB   C4C25772  21.693  25.476  13.789 -0.1526 -0.2641  0.1373
 1074BOLB   C1D25773  23.080  25.175  13.517  0.0010  0.1417 -0.1383
 1074BOLB   C2D25774  22.699  24.965  13.584 -0.0950  0.1635  0.0442
 1074BOLB   C3D25775  22.294  25.001  13.839  0.1353 -0.1148  0.3156
 1074BOLB   C4D25776  21.936  25.126  14.066 -0.3396 -0.0565  0.2484
 1075BOLB   NC125777  17.995  24.534  12.755  0.2504  0.0738 -0.2255
 1075BOLB   PO125778  18.230  24.870  12.969  0.0641  0.0484  0.0799
 1075BOLB   GL125779  18.394  24.920  12.653 -0.0406  0.0975 -0.3410
 1075BOLB   GL225780  18.186  24.883  12.494  0.0411 -0.3682  0.0973
 1075BOLB   C1A25781  18.650  24.840  12.315  0.1449 -0.0777 -0.1298
 1075BOLB   C2A25782  18.926  24.590  12.079  0.0639  0.1992  0.1353
 1075BOLB   C3A25783  19.241  24.679  11.746 -0.1476  0.1660  0.0704
 1075BOLB   C4A25784  19.469  24.744  11.350 -0.1243 -0.2200  0.2166
 1075BOLB   C1B25785  18.162  24.987  11.971  0.1599 -0.1327  0.0768
 1075BOLB   C2B25786  18.118  25.014  11.577  0.2765 -0.0129  0.2005
 1075BOLB   C3B25787  17.838  25.153  11.100  0.1695 -0.2852  0.1870
 1075BOLB   C4B25788  17.951  25.599  10.904 -0.0710 -0.2437 -0.0184
 1075BOLB   NC225789  20.899  24.846   9.592 -0.0643  0.0042 -0.2705
 1075BOLB   PO225790  20.738  24.553   9.329 -0.1601  0.2247 -0.2047
 1075BOLB   GL325791  20.546  24.469   9.784  0.3827  0.0462  0.1156
 1075BOLB   GL425792  20.384  24.150   9.881 -0.2655  0.1439  0.1127
 1075BOLB   C1C25793  20.512  24.784  10.118 -0.1594 -0.0369 -0.0742
 1075BOLB   C2C25794  20.419  24.682  10.552 -0.0244 -0.1124 -0.3103
 1075BOLB   C3C25795  20.194  24.599  10.892  0.1424  0.3385 -0.1448
 1075BOLB   C4C25796  19.827  24.692  11.021 -0.0242 -0.2205  0.1006
 1075BOLB   C1D25797  19.953  24.277   9.699 -0.0284 -0.0504  0.0270
 1075BOLB   C2D25798  19.658  24.505   9.555 -0.0915 -0.0629  0.0369
 1075BOLB   C3D25799  19.197  24.503   9.725 -0.2222 -0.0177  0.1458
 1075BOLB   C4D25800  18.851  24.500   9.964  0.2149  0.2990 -0.1157
 1076BOLB   NC125801  18.290  26.056  13.381 -0.1581  0.2640 -0.1791
 1076BOLB   PO125802  18.496  25.640  13.465 -0.1497 -0.1307 -0.0748
 1076BOLB   GL125803  18.574  25.559  13.146 -0.2112  0.0306  0.4556
 1076BOLB   GL225804  18.605  25.296  13.002  0.2385 -0.1285  0.3033
 1076BOLB   C1A25805  18.705  25.669  12.632  0.0334  0.4054  0.0214
 1076BOLB   C2A25806  18.612  25.830  12.174 -0.1209  0.0122 -0.1188
 1076BOLB   C3A25807  18.844  25.848  11.762  0.2305 -0.0739 -0.3153
 1076BOLB   C4A25808  18.828  25.804  11.331 -0.3607 -0.2651 -0.0041
 1076BOLB   C1B25809  18.784  25.200  12.633 -0.2591 -0.1194  0.0101
 1076BOLB   C2B25810  18.961  25.228  12.181 -0.1119  0.0852  0.0323
 1076BOLB   C3B25811  18.870  25.024  11.831 -0.0297 -0.1614 -0.0778
 1076BOLB   C4B25812  19.064  24.941  11.351 -0.0020  0.0693 -0.2894
 1076BOLB   NC225813  19.946  25.469   8.963  0.2251  0.1111  0.0874
 1076BOLB   PO225814  19.684  25.797   9.107 -0.3567 -0.2134  0.1814
 1076BOLB   GL325815  19.513  25.852   9.382  0.0720 -0.0979  0.2033
 1076BOLB   GL425816  19.274  26.261   9.419 -0.1189 -0.0887  0.1563
 1076BOLB   C1C25817  19.248  25.824   9.745  0.0925  0.2537 -0.1645
 1076BOLB   C2C25818  18.981  25.897  10.105 -0.1097  0.3093 -0.3587
 1076BOLB   C3C25819  18.691  25.925  10.430  0.1479 -0.0107  0.0875
 1076BOLB   C4C25820  18.756  25.733  10.855  0.1254  0.0222 -0.2865
 1076BOLB   C1D25821  19.090  26.386   9.770 -0.1820 -0.0601 -0.0016
 1076BOLB   C2D25822  19.150  26.362  10.251  0.0948  0.0899 -0.0963
 1076BOLB   C3D25823  19.099  26.137  10.733 -0.4208  0.0711 -0.0642
 1076BOLB   C4D25824  19.233  25.899  11.082 -0.0630 -0.0570 -0.1340
 1077BOLB   NC125825  15.017  25.083  12.834  0.3481 -0.1846 -0.0207
 1077BOLB   PO125826  14.717  24.905  13.077  0.1655  0.0160 -0.3111
 1077BOLB   GL125827  14.607  24.853  12.584  0.2305 -0.2289 -0.0724
 1077BOLB   GL225828  14.706  24.592  12.285 -0.3208  0.1849 -0.2605
 1077BOLB   C1A25829  14.370  25.033  12.354  0.2141 -0.0477  0.4356
 1077BOLB   C2A25830  14.007  25.280  12.341 -0.2087 -0.1231  0.1968
 1077BOLB   C3A25831  13.581  25.410  12.168 -0.2615 -0.2550 -0.2316
 1077BOLB   C4A25832  13.322  25.747  11.952  0.0755 -0.2532 -0.2213
 1077BOLB   C1B25833  14.580  24.680  11.900  0.1910 -0.0091 -0.3494
 1077BOLB   C2B25834  14.358  24.726  11.478 -0.0257 -0.2445  0.2925
 1077BOLB   C3B25835  14.192  25.134  11.324 -0.2665 -0.3473 -0.2344
 1077BOLB   C4B25836  14.328  25.548  11.446 -0.1885  0.1511 -0.2497
 1077BOLB   NC225837  13.481  26.456   9.577 -0.0793  0.0614 -0.2582
 1077BOLB   PO225838  13.179  26.697   9.785  0.0419  0.1011  0.0196
 1077BOLB   GL325839  13.257  26.282   9.953 -0.1158 -0.0728 -0.3053
 1077BOLB   GL425840  13.519  26.117   9.917  0.2292 -0.1802  0.3410
 1077BOLB   C1C25841  13.122  26.171  10.345 -0.3980 -0.0462 -0.0567
 1077BOLB   C2C25842  13.157  26.292  10.789  0.1153  0.2766  0.1429
 1077BOLB   C3C25843  13.023  26.136  11.083  0.3346  0.1053  0.0495
 1077BOLB   C4C25844  13.232  26.042  11.574 -0.0536  0.4178 -0.2064
 1077BOLB   C1D25845  13.452  25.690  10.077  0.2910 -0.1763  0.2601
 1077BOLB   C2D25846  13.489  25.348  10.260  0.0093  0.0163  0.1908
 1077BOLB   C3D25847  13.746  25.137  10.527 -0.2392  0.0228  0.1674
 1077BOLB   C4D25848  13.846  25.248  10.949 -0.0509 -0.1002 -0.0362
 1078BOLB   NC125849  19.140  26.271  14.011  0.1013  0.0415 -0.1120
 1078BOLB   PO125850  19.578  26.250  13.912  0.1268 -0.0701  0.1654
 1078BOLB   GL125851  20.021  26.115  13.801  0.0306  0.0963  0.1148
 1078BOLB   GL225852  20.239  25.859  13.847 -0.0904 -0.1604 -0.1751
 1078BOLB   C1A25853  20.260  26.221  13.385  0.2306  0.5911  0.1061
 1078BOLB   C2A25854  20.488  26.002  12.972  0.2946  0.1003 -0.0987
 1078BOLB   C3A25855  20.735  25.824  12.799 -0.0601 -0.1429  0.2286
 1078BOLB   C4A25856  20.980  25.556  12.547  0.1005  0.1791  0.1254
 1078BOLB   C1B25857  20.555  25.826  13.543 -0.1825 -0.1154 -0.2211
 1078BOLB   C2B25858  20.801  25.586  13.213 -0.0061 -0.1878  0.2043
 1078BOLB   C3B25859  21.121  25.593  13.040  0.3926 -0.1611 -0.1257
 1078BOLB   C4B25860  21.433  25.720  12.799  0.1363  0.1221 -0.0026
 1078BOLB   NC225861  21.802  25.944  10.555 -0.1032  0.0440 -0.0608
 1078BOLB   PO225862  21.942  25.515  10.392  0.1514  0.1659 -0.0558
 1078BOLB   GL325863  21.895  25.141  10.681 -0.1441  0.0655  0.1255
 1078BOLB   GL425864  21.982  24.872  10.616  0.1170 -0.0458  0.3392
 1078BOLB   C1C25865  21.828  24.989  11.212  0.0524  0.0247 -0.2335
 1078BOLB   C2C25866  21.464  24.858  11.554  0.1411  0.0269 -0.2715
 1078BOLB   C3C25867  21.353  25.171  11.903 -0.5116 -0.0718 -0.1515
 1078BOLB   C4C25868  21.333  25.447  12.187  0.0621 -0.1362 -0.0514
 1078BOLB   C1D25869  21.733  24.621  10.846 -0.0754 -0.1140  0.1547
 1078BOLB   C2D25870  21.297  24.512  11.055  0.0387 -0.0829 -0.0139
 1078BOLB   C3D25871  20.965  24.276  11.290  0.4003  0.0846  0.2360
 1078BOLB   C4D25872  20.728  24.166  11.609 -0.4236  0.0723 -0.0771
 1079BOLB   NC125873  15.143  25.564  13.022 -0.1940 -0.0496 -0.0964
 1079BOLB   PO125874  14.845  25.306  13.334 -0.1046  0.3491  0.2796
 1079BOLB   GL125875  14.573  25.376  12.896 -0.0758 -0.1343  0.0151
 1079BOLB   GL225876  14.270  25.364  12.839  0.1827  0.0850  0.2074
 1079BOLB   C1A25877  14.644  25.430  12.417  0.0246  0.3307 -0.0452
 1079BOLB   C2A25878  14.392  25.615  12.039 -0.0559  0.3116 -0.0253
 1079BOLB   C3A25879  13.941  25.657  11.860  0.1379 -0.1281  0.2246
 1079BOLB   C4A25880  13.603  25.703  11.553  0.2900  0.3464  0.1232
 1079BOLB   C1B25881  13.862  25.515  12.787 -0.1013  0.1779  0.0916
 1079BOLB   C2B25882  13.556  25.729  12.542  0.0604 -0.0624  0.1674
 1079BOLB   C3B25883  13.070  25.818  12.663  0.0432 -0.0784  0.1438
 1079BOLB   C4B25884  12.689  25.897  12.496  0.0112  0.3688  0.1500
 1079BOLB   NC225885  13.355  27.677   9.887 -0.1622 -0.0553  0.3046
 1079BOLB   PO225886  13.378  27.474  10.260  0.0382  0.2815 -0.0190
 1079BOLB   GL325887  13.511  27.215  10.491  0.0649 -0.0808 -0.0951
 1079BOLB   GL425888  13.250  27.060  10.686 -0.0969  0.1626 -0.1799
 1079BOLB   C1C25889  13.743  26.959  10.817  0.2396  0.0192 -0.0157
 1079BOLB   C2C25890  13.673  26.538  10.977 -0.2003 -0.1696 -0.1477
 1079BOLB   C3C25891  13.782  26.215  10.972 -0.2180 -0.2882 -0.0422
 1079BOLB   C4C25892  13.504  25.937  11.136  0.2341 -0.2245 -0.3846
 1079BOLB   C1D25893  13.328  26.700  10.464 -0.0359  0.1743  0.2371
 1079BOLB   C2D25894  13.546  26.350  10.407  0.0266  0.0213  0.0652
 1079BOLB   C3D25895  13.502  25.947  10.590 -0.1009 -0.0489 -0.0132
 1079BOLB   C4D25896  13.486  25.567  10.717 -0.0282 -0.0509  0.3106
 1080BOLB   NC125897  18.575  27.082   9.114 -0.0994 -0.0072  0.0925
 1080BOLB   PO125898  18.314  27.326   8.945 -0.3115 -0.1316  0.0694
 1080BOLB   GL125899  18.080  27.195   9.297 -0.0043 -0.0126 -0.2368
 1080BOLB   GL225900  17.650  27.316   9.372  0.3766 -0.0342 -0.0931
 1080BOLB   C1A25901  17.922  27.251   9.739 -0.2312 -0.1637 -0.0114
 1080BOLB   C2A25902  17.580  27.515   9.860  0.1796 -0.0015 -0.2103
 1080BOLB   C3A25903  17.479  27.928  10.115 -0.2508 -0.0359 -0.3478
 1080BOLB   C4A25904  17.218  28.329  10.146  0.2345  0.0070  0.3335
 1080BOLB   C1B25905  17.836  26.835   9.493  0.2494  0.0616 -0.0041
 1080BOLB   C2B25906  18.043  26.788   9.824 -0.0107 -0.2851  0.2023
 1080BOLB   C3B25907  18.217  26.873  10.217  0.0722 -0.2183 -0.0548
 1080BOLB   C4B25908  18.337  27.083  10.591 -0.2617 -0.0785  0.0089
 1080BOLB   NC225909  16.794  29.402  10.778 -0.1415  0.0814  0.0994
 1080BOLB   PO225910  16.385  29.209  10.822 -0.2317 -0.1447  0.1813
 1080BOLB   GL325911  16.246  28.852  11.071  0.1475 -0.0597 -0.2710
 1080BOLB   GL425912  16.066  28.865  11.314 -0.0714 -0.0096 -0.0705
 1080BOLB   C1C25913  16.030  28.524  10.812  0.2406 -0.5484  0.1588
 1080BOLB   C2C25914  16.074  28.360  10.397 -0.0488  0.0663 -0.0845
 1080BOLB   C3C25915  16.319  28.207  10.094 -0.0737 -0.2846 -0.2198
 1080BOLB   C4C25916  16.866  28.236  10.054  0.0784 -0.0538  0.0098
 1080BOLB   C1D25917  15.659  28.609  11.156 -0.0931  0.3148 -0.1633
 1080BOLB   C2D25918  15.474  28.413  10.886 -0.0515  0.1766 -0.1255
 1080BOLB   C3D25919  15.677  28.072  10.578  0.1586  0.2411  0.1441
 1080BOLB   C4D25920  15.921  27.641  10.653  0.1574  0.3018  0.2288
 1081BOLB   NC125921  20.400  24.489  15.064 -0.2298 -0.1318 -0.0677
 1081BOLB   PO125922  20.681  24.119  14.853  0.1354  0.3218 -0.4887
 1081BOLB   GL125923  20.923  24.300  15.134 -0.1032  0.2262 -0.2385
 1081BOLB   GL225924  20.943  24.594  15.151  0.0751 -0.0539 -0.0532
 1081BOLB   C1A25925  21.306  24.246  15.330  0.2971 -0.2525  0.1666
 1081BOLB   C2A25926  21.697  24.500  15.357 -0.0293  0.0381  0.1512
 1081BOLB   C3A25927  22.040  24.389  15.289 -0.0995  0.0543 -0.1332
 1081BOLB   C4A25928  22.530  24.200  15.338  0.2722 -0.0492  0.1963
 1081BOLB   C1B25929  21.293  24.764  15.305 -0.1846  0.0103 -0.0934
 1081BOLB   C2B25930  21.666  25.134  15.329 -0.0689 -0.0839 -0.1452
 1081BOLB   C3B25931  22.113  25.309  15.513 -0.5164  0.1017 -0.0173
 1081BOLB   C4B25932  22.351  25.720  15.502  0.2414 -0.0465  0.1330
 1081BOLB   NC225933  24.418  26.245  14.386  0.2353  0.0839 -0.4747
 1081BOLB   PO225934  23.991  26.188  14.473  0.0573  0.3137 -0.0371
 1081BOLB   GL325935  23.846  25.783  14.706 -0.0270 -0.1856 -0.4837
 1081BOLB   GL425936  24.125  25.516  14.815  0.0277 -0.0799  0.2642
 1081BOLB   C1C25937  23.637  25.373  14.955 -0.3191  0.3475 -0.1858
 1081BOLB   C2C25938  23.562  25.042  15.224 -0.1175  0.0118  0.3402
 1081BOLB   C3C25939  23.316  24.604  15.442  0.1906  0.1445 -0.0591
 1081BOLB   C4C25940  22.922  24.287  15.554  0.4227 -0.1739 -0.0007
 1081BOLB   C1D25941  24.078  25.615  15.257  0.1358 -0.0286 -0.0460
 1081BOLB   C2D25942  23.791  25.411  15.553 -0.1241 -0.0324  0.3939
 1081BOLB   C3D25943  23.613  25.011  15.710 -0.1538  0.0467 -0.1775
 1081BOLB   C4D25944  23.387  24.678  15.956 -0.0158  0.0601  0.5209
 1082BOLB   NC125945  20.456  27.893  11.924 -0.2130 -0.0246 -0.2259
 1082BOLB   PO125946  20.204  27.736  11.851  0.1970 -0.1892 -0.0051
 1082BOLB   GL125947  20.499  27.349  11.997  0.2126 -0.1622 -0.1769
 1082BOLB   GL225948  20.569  27.246  11.739 -0.1848  0.1814 -0.2071
 1082BOLB   C1A25949  20.960  27.291  12.249  0.2319  0.2906  0.0092
 1082BOLB   C2A25950  21.166  27.236  12.652 -0.0202  0.2703  0.3297
 1082BOLB   C3A25951  21.531  27.028  12.796  0.0288 -0.1852  0.2607
 1082BOLB   C4A25952  21.921  26.868  13.014 -0.0109  0.4273  0.1095
 1082BOLB   C1B25953  20.150  27.131  11.591 -0.1596 -0.2441 -0.2513
 1082BOLB   C2B25954  19.848  26.913  11.710  0.0497  0.0184  0.2397
 1082BOLB   C3B25955  19.695  26.785  11.998 -0.0417  0.1216 -0.1339
 1082BOLB   C4B25956  19.485  26.453  12.202  0.1290  0.1197 -0.0116
 1082BOLB   NC225957  22.276  27.621  15.003 -0.0179  0.2982  0.4036
 1082BOLB   PO225958  22.132  27.742  14.474  0.0049  0.3253  0.1316
 1082BOLB   GL325959  22.154  27.243  14.489  0.1621 -0.3962 -0.1364
 1082BOLB   GL425960  22.498  27.176  14.428  0.0710  0.2931  0.1789
 1082BOLB   C1C25961  21.965  26.923  14.281 -0.0930  0.0152  0.0011
 1082BOLB   C2C25962  22.360  26.757  13.972 -0.2882  0.3882 -0.0788
 1082BOLB   C3C25963  22.492  26.543  13.499 -0.3396 -0.2106  0.0812
 1082BOLB   C4C25964  22.349  26.726  13.060  0.2024  0.4628 -0.3864
 1082BOLB   C1D25965  22.542  26.690  14.528  0.0933 -0.0048 -0.0883
 1082BOLB   C2D25966  22.206  26.424  14.357  0.1723 -0.1366  0.0438
 1082BOLB   C3D25967  21.805  26.470  14.284  0.0789  0.2475  0.1211
 1082BOLB   C4D25968  21.751  26.629  13.874  0.0166 -0.1962 -0.1363
 1083BOLB   NC125969  15.741  28.600  12.397  0.0134 -0.1655 -0.1075
 1083BOLB   PO125970  15.385  28.686  12.603 -0.1072 -0.3004 -0.3117
 1083BOLB   GL125971  15.434  28.160  12.469  0.2136  0.0462  0.1738
 1083BOLB   GL225972  14.980  28.174  12.573 -0.0547 -0.4092 -0.1790
 1083BOLB   C1A25973  15.485  27.716  12.653  0.1151 -0.2286  0.2300
 1083BOLB   C2A25974  15.462  27.265  12.474  0.0622 -0.1332  0.3251
 1083BOLB   C3A25975  15.334  26.993  12.163 -0.2057  0.3228  0.2012
 1083BOLB   C4A25976  15.008  26.951  11.938 -0.3055  0.0660 -0.1475
 1083BOLB   C1B25977  14.746  27.955  12.726  0.0780  0.0248 -0.0781
 1083BOLB   C2B25978  14.497  27.697  12.452  0.3551 -0.2904  0.0491
 1083BOLB   C3B25979  14.237  27.719  12.048  0.0081 -0.0064 -0.3095
 1083BOLB   C4B25980  13.947  27.930  11.827  0.0620 -0.0687 -0.3212
 1083BOLB   NC225981  13.889  28.060  10.168 -0.1503 -0.0561 -0.2357
 1083BOLB   PO225982  13.456  28.098  10.154 -0.1280  0.4005 -0.2320
 1083BOLB   GL325983  13.597  27.847  10.586  0.1261  0.0616  0.0950
 1083BOLB   GL425984  13.713  28.077  10.875 -0.1903 -0.1938 -0.1052
 1083BOLB   C1C25985  13.878  27.489  10.791 -0.2377 -0.2014 -0.2258
 1083BOLB   C2C25986  14.169  27.407  11.097 -0.2023 -0.0949  0.1136
 1083BOLB   C3C25987  14.347  27.195  11.379 -0.2379  0.0552  0.0194
 1083BOLB   C4C25988  14.604  27.059  11.666 -0.0362  0.4627 -0.2350
 1083BOLB   C1D25989  13.993  28.038  11.309  0.2320 -0.2264  0.1210
 1083BOLB   C2D25990  14.252  27.691  11.508  0.1494 -0.1689  0.1945
 1083BOLB   C3D25991  14.511  27.568  11.668 -0.0242  0.3560  0.0272
 1083BOLB   C4D25992  14.741  27.336  12.097 -0.1496  0.1153 -0.0444
 1084BOLB   NC125993   8.774  27.629  18.290  0.1061 -0.0730  0.0395
 1084BOLB   PO125994   9.191  27.792  18.103 -0.1400  0.0972 -0.3050
 1084BOLB   GL125995   9.381  27.447  17.796  0.1305  0.3689  0.1122
 1084BOLB   GL225996   9.201  27.315  18.136 -0.0166 -0.1847 -0.1598
 1084BOLB   C1A25997   9.712  27.205  17.722  0.0790 -0.2033 -0.2691
 1084BOLB   C2A25998  10.088  27.337  17.518  0.0028 -0.1063  0.0336
 1084BOLB   C3A25999  10.460  27.059  17.431  0.0981  0.1965  0.0968
 1084BOLB   C4A26000  10.676  26.907  16.956 -0.2760 -0.1343  0.2193
 1084BOLB   C1B26001   9.411  27.186  18.619 -0.1370  0.0871  0.2277
 1084BOLB   C2B26002   9.509  27.157  19.045  0.0675  0.0217  0.2255
 1084BOLB   C3B26003   9.764  27.074  19.418  0.3646  0.1762 -0.2434
 1084BOLB   C4B26004  10.121  27.286  19.664  0.2206 -0.0357 -0.1687
 1084BOLB   NC226005  12.398  28.371  16.201 -0.0165  0.0322 -0.0042
 1084BOLB   PO226006  12.341  27.993  16.313 -0.2932  0.3031 -0.0536
 1084BOLB   GL326007  12.137  27.594  16.149  0.2194 -0.3201 -0.4605
 1084BOLB   GL426008  12.257  27.460  15.927 -0.0323  0.1319 -0.0661
 1084BOLB   C1C26009  12.003  27.242  16.325  0.0294  0.3710 -0.3484
 1084BOLB   C2C26010  11.754  27.064  16.413  0.1194 -0.2418  0.0997
 1084BOLB   C3C26011  11.312  26.877  16.520 -0.4792 -0.2407  0.0755
 1084BOLB   C4C26012  10.777  26.910  16.477 -0.0150  0.2292  0.0891
 1084BOLB   C1D26013  11.885  27.077  15.851 -0.1631  0.0790  0.0592
 1084BOLB   C2D26014  12.182  26.863  15.473  0.0738  0.0425  0.1143
 1084BOLB   C3D26015  12.235  26.457  15.461 -0.0399 -0.0620 -0.0435
 1084BOLB   C4D26016  12.526  26.228  15.344 -0.0648 -0.1161  0.0278
 1085BOLB   NC126017  14.141  24.969  13.169 -0.1264  0.2228  0.3337
 1085BOLB   PO126018  13.945  24.785  13.619 -0.1461  0.0395 -0.1937
 1085BOLB   GL126019  13.865  25.197  13.543  0.0215  0.3176 -0.2432
 1085BOLB   GL226020  13.706  25.269  13.300 -0.0157  0.4199 -0.0609
 1085BOLB   C1A26021  13.629  25.590  13.698  0.2978 -0.1030 -0.0528
 1085BOLB   C2A26022  13.203  25.875  13.666 -0.0585  0.1138 -0.2917
 1085BOLB   C3A26023  12.834  25.891  13.735  0.2189 -0.2629 -0.0329
 1085BOLB   C4A26024  12.341  26.049  13.799  0.4399  0.1858 -0.0680
 1085BOLB   C1B26025  13.276  25.332  13.503  0.1369  0.0103 -0.0850
 1085BOLB   C2B26026  13.087  25.422  13.874 -0.0072 -0.3031 -0.0284
 1085BOLB   C3B26027  13.345  25.698  14.109 -0.0106 -0.2037 -0.1321
 1085BOLB   C4B26028  13.764  25.928  14.240  0.0127 -0.0425 -0.0808
 1085BOLB   NC226029  10.747  27.442  12.682  0.3739 -0.0651  0.2099
 1085BOLB   PO226030  10.402  26.993  12.676  0.2318 -0.1322 -0.3749
 1085BOLB   GL326031  10.797  26.927  12.876 -0.1482  0.0098  0.2840
 1085BOLB   GL426032  10.798  26.949  13.214 -0.2345 -0.0589  0.0965
 1085BOLB   C1C26033  11.232  26.779  12.917 -0.0582  0.0382 -0.0617
 1085BOLB   C2C26034  11.450  26.582  13.164  0.2144 -0.3968  0.0623
 1085BOLB   C3C26035  11.822  26.475  13.369 -0.2279 -0.2732  0.2521
 1085BOLB   C4C26036  12.062  26.368  13.629 -0.1711  0.1977  0.2558
 1085BOLB   C1D26037  11.138  26.867  13.438 -0.1102  0.3218 -0.3286
 1085BOLB   C2D26038  11.541  26.796  13.610  0.2837 -0.1440 -0.1250
 1085BOLB   C3D26039  11.806  27.179  13.872  0.2240 -0.1454  0.0383
 1085BOLB   C4D26040  12.126  27.073  14.135  0.0383  0.1450 -0.4691
 1086BOLB   NC126041  16.784  26.266  12.918  0.1192  0.1934 -0.3042
 1086BOLB   PO126042  16.421  25.978  13.082  0.2957 -0.0207  0.1452
 1086BOLB   GL126043  16.019  26.020  12.783 -0.1156 -0.4176 -0.1292
 1086BOLB   GL226044  15.657  26.178  12.717 -0.0335  0.0911  0.2100
 1086BOLB   C1A26045  15.983  25.985  12.308  0.0408 -0.0247  0.0399
 1086BOLB   C2A26046  15.847  26.144  11.909 -0.0573 -0.1612 -0.1495
 1086BOLB   C3A26047  15.623  26.125  11.551  0.1140  0.0889 -0.0188
 1086BOLB   C4A26048  15.260  26.206  11.397  0.0135 -0.1334  0.1273
 1086BOLB   C1B26049  15.554  26.262  12.346  0.0548  0.0388  0.0989
 1086BOLB   C2B26050  15.271  26.249  11.918 -0.5286  0.1324 -0.0401
 1086BOLB   C3B26051  14.905  26.059  11.800  0.0751 -0.1080 -0.0611
 1086BOLB   C4B26052  14.450  25.964  11.663  0.0761 -0.0730  0.4654
 1086BOLB   NC226053  13.620  27.010   9.999  0.3700  0.2674  0.0454
 1086BOLB   PO226054  13.724  26.843   9.589  0.2095 -0.3014 -0.0335
 1086BOLB   GL326055  13.804  26.559   9.972 -0.0390 -0.1852 -0.2677
 1086BOLB   GL426056  14.044  26.363  10.048 -0.0948 -0.0034  0.0621
 1086BOLB   C1C26057  13.922  26.643  10.428  0.0468 -0.0938 -0.1433
 1086BOLB   C2C26058  14.124  26.506  10.734  0.1470 -0.2903  0.1249
 1086BOLB   C3C26059  14.487  26.427  11.109  0.1085  0.3375  0.1854
 1086BOLB   C4C26060  14.782  26.356  11.412 -0.0757  0.0068 -0.0246
 1086BOLB   C1D26061  14.429  26.257  10.287  0.3367 -0.0122 -0.0343
 1086BOLB   C2D26062  14.564  25.851  10.389  0.0534  0.1106 -0.1287
 1086BOLB   C3D26063  14.504  25.518  10.840  0.3427 -0.0078 -0.2509
 1086BOLB   C4D26064  14.649  25.270  11.238 -0.2912  0.2253  0.0486
 1087BOLB   NC126065  18.056  28.552  10.779 -0.3695 -0.3002  0.1225
 1087BOLB   PO126066  17.858  28.636  10.398 -0.2030 -0.1005  0.0513
 1087BOLB   GL126067  17.561  28.294  10.557 -0.1847 -0.0890 -0.0867
 1087BOLB   GL226068  17.669  28.142  10.874  0.0824  0.1692  0.0051
 1087BOLB   C1A26069  17.179  28.061  10.587  0.0363  0.0731  0.0403
 1087BOLB   C2A26070  16.673  27.873  10.504  0.1063  0.0672 -0.1126
 1087BOLB   C3A26071  16.206  27.755  10.285  0.0607  0.1274 -0.1175
 1087BOLB   C4A26072  15.889  27.924  10.204 -0.0652 -0.1749 -0.0913
 1087BOLB   C1B26073  17.613  27.769  10.722  0.0224 -0.1337 -0.2957
 1087BOLB   C2B26074  17.798  27.449  10.431 -0.0667  0.0310  0.0479
 1087BOLB   C3B26075  18.177  27.372  10.201 -0.0707 -0.0963  0.2734
 1087BOLB   C4B26076  18.547  27.255  10.152  0.0443  0.3650  0.0272
 1087BOLB   NC226077  14.293  29.093  11.180 -0.0778 -0.0019 -0.0132
 1087BOLB   PO226078  14.689  28.868  11.400  0.1184  0.1851 -0.1967
 1087BOLB   GL326079  14.765  28.541  11.178 -0.0713  0.1246 -0.1622
 1087BOLB   GL426080  14.706  28.569  10.892 -0.1565 -0.1032  0.0653
 1087BOLB   C1C26081  15.066  28.318  11.114 -0.1625  0.2948  0.1089
 1087BOLB   C2C26082  15.108  28.088  10.829  0.0387  0.1717  0.1362
 1087BOLB   C3C26083  15.127  28.082  10.419 -0.1253 -0.0427 -0.1104
 1087BOLB   C4C26084  15.473  27.939  10.193 -0.1338 -0.0179  0.0583
 1087BOLB   C1D26085  14.620  28.148  10.711 -0.0917  0.1538  0.0697
 1087BOLB   C2D26086  14.736  27.802  10.574  0.1387  0.1151 -0.4056
 1087BOLB   C3D26087  15.021  27.604  10.800  0.0594 -0.0646  0.4029
 1087BOLB   C4D26088  15.433  27.575  10.599 -0.1052  0.4537  0.0897
 1088BOLB   NC126089  19.741  25.744  14.013 -0.3203 -0.2255  0.4161
 1088BOLB   PO126090  19.510  25.351  13.878  0.1066 -0.2184  0.2466
 1088BOLB   GL126091  20.009  25.405  13.771  0.0603 -0.1120 -0.1597
 1088BOLB   GL226092  20.095  25.016  13.678  0.3242  0.4541  0.3342
 1088BOLB   C1A26093  20.148  25.573  13.396 -0.0097  0.0733 -0.2067
 1088BOLB   C2A26094  20.106  25.550  12.997 -0.0247 -0.4626 -0.1324
 1088BOLB   C3A26095  20.298  25.620  12.706 -0.1488  0.0318  0.0972
 1088BOLB   C4A26096  20.496  25.534  12.374  0.1146 -0.1737 -0.1845
 1088BOLB   C1B26097  20.387  25.159  13.227 -0.1582 -0.0773  0.1575
 1088BOLB   C2B26098  20.627  25.077  12.804  0.3022 -0.1943  0.1929
 1088BOLB   C3B26099  20.958  25.054  12.420 -0.0337 -0.1140  0.1456
 1088BOLB   C4B26100  20.883  24.914  12.000  0.2158 -0.0949 -0.0599
 1088BOLB   NC226101  21.760  24.833  10.028 -0.3256 -0.1246  0.1467
 1088BOLB   PO226102  21.713  25.246   9.958  0.1068  0.0938 -0.0545
 1088BOLB   GL326103  21.541  25.115  10.389  0.0443  0.1127 -0.1774
 1088BOLB   GL426104  21.461  25.443  10.469 -0.1989 -0.4681 -0.1691
 1088BOLB   C1C26105  21.437  25.060  10.861 -0.1269 -0.0940  0.1970
 1088BOLB   C2C26106  21.340  25.280  11.288 -0.1304 -0.0997 -0.1664
 1088BOLB   C3C26107  20.984  25.236  11.604  0.0041  0.1627 -0.0977
 1088BOLB   C4C26108  20.840  25.415  12.071 -0.1309  0.1249 -0.0058
 1088BOLB   C1D26109  21.227  25.726  10.830 -0.0496 -0.3215 -0.0437
 1088BOLB   C2D26110  21.148  26.174  11.050  0.0223  0.0499 -0.1583
 1088BOLB   C3D26111  21.020  26.518  11.285  0.0212 -0.2041 -0.1480
 1088BOLB   C4D26112  20.993  26.747  11.624 -0.0196 -0.1944  0.3257
 1089BOLB   NC126113  18.042  27.898  12.550 -0.2522 -0.0084 -0.0759
 1089BOLB   PO126114  17.998  27.465  12.611 -0.1955 -0.0120  0.0858
 1089BOLB   GL126115  17.949  27.083  12.441  0.0190  0.1609 -0.0875
 1089BOLB   GL226116  18.133  26.905  12.691 -0.0167 -0.0129  0.3168
 1089BOLB   C1A26117  17.626  26.877  12.285 -0.2619 -0.1597 -0.0920
 1089BOLB   C2A26118  17.505  26.811  11.863  0.2597  0.1208 -0.1657
 1089BOLB   C3A26119  17.201  26.507  11.556 -0.1040 -0.5139  0.2594
 1089BOLB   C4A26120  17.172  26.504  11.108 -0.1541  0.0543 -0.0981
 1089BOLB   C1B26121  18.099  26.605  12.424  0.2749  0.0869  0.3945
 1089BOLB   C2B26122  17.975  26.620  12.066 -0.0333 -0.2360  0.0186
 1089BOLB   C3B26123  18.026  26.804  11.688  0.3357 -0.0246 -0.0854
 1089BOLB   C4B26124  17.720  27.080  11.534  0.0374 -0.2660 -0.1558
 1089BOLB   NC226125  17.292  27.276   8.869  0.4158  0.4461 -0.1796
 1089BOLB   PO226126  16.917  27.470   9.044  0.0817 -0.1725  0.0652
 1089BOLB   GL326127  16.682  27.410   9.385 -0.3694 -0.1301  0.3625
 1089BOLB   GL426128  16.617  27.017   9.439 -0.1696  0.3716 -0.0009
 1089BOLB   C1C26129  16.751  27.270   9.807  0.3831 -0.1928  0.1048
 1089BOLB   C2C26130  16.983  27.162  10.168  0.4678 -0.2381  0.0939
 1089BOLB   C3C26131  17.266  26.833  10.346 -0.2117 -0.2574  0.2243
 1089BOLB   C4C26132  17.321  26.579  10.681  0.2732  0.2802 -0.2234
 1089BOLB   C1D26133  16.843  26.650   9.538 -0.1662 -0.0407 -0.2293
 1089BOLB   C2D26134  17.008  26.749   9.839  0.2164  0.3259  0.0104
 1089BOLB   C3D26135  17.050  26.315  10.060 -0.1390 -0.0107 -0.1213
 1089BOLB   C4D26136  16.929  26.002  10.165  0.0659  0.2660 -0.4052
 1090BOLB   NC126137  14.351  27.715  14.955 -0.2887  0.1123 -0.1422
 1090BOLB   PO126138  14.370  27.586  15.340  0.4511  0.1243 -0.0121
 1090BOLB   GL126139  14.074  27.263  15.181  0.1105 -0.0336 -0.2865
 1090BOLB   GL226140  13.722  27.230  15.284 -0.1912  0.2465 -0.1710
 1090BOLB   C1A26141  14.058  26.927  15.458  0.1099  0.3562 -0.1092
 1090BOLB   C2A26142  13.970  26.377  15.456  0.3108 -0.0881  0.1380
 1090BOLB   C3A26143  13.807  26.008  15.264  0.0277  0.0804  0.0015
 1090BOLB   C4A26144  13.534  25.781  14.940  0.1516 -0.0001 -0.1913
 1090BOLB   C1B26145  13.587  26.882  15.510  0.2785 -0.0645  0.1811
 1090BOLB   C2B26146  13.387  26.602  15.791  0.4551  0.1778  0.2632
 1090BOLB   C3B26147  13.255  26.255  16.043  0.4056 -0.0749  0.0926
 1090BOLB   C4B26148  12.951  26.026  16.310  0.0058 -0.1495  0.0388
 1090BOLB   NC226149  12.813  27.534  15.810  0.0829 -0.1274  0.0823
 1090BOLB   PO226150  13.222  27.666  15.847  0.1082  0.1887 -0.1829
 1090BOLB   GL326151  13.298  27.262  15.657  0.1336  0.0703  0.2411
 1090BOLB   GL426152  13.124  27.104  15.885 -0.0886  0.3349 -0.2319
 1090BOLB   C1C26153  13.050  26.887  15.397  0.0978  0.1715  0.1337
 1090BOLB   C2C26154  12.978  26.501  15.253  0.0332 -0.1941  0.4777
 1090BOLB   C3C26155  12.887  26.249  14.949  0.1485 -0.3315 -0.0141
 1090BOLB   C4C26156  12.998  25.843  14.792 -0.1111  0.0042  0.0543
 1090BOLB   C1D26157  12.894  26.674  15.904 -0.0418 -0.2528 -0.1796
 1090BOLB   C2D26158  12.854  26.185  15.758 -0.0516  0.1199 -0.1434
 1090BOLB   C3D26159  12.851  25.875  15.436 -0.2082  0.0976  0.0310
 1090BOLB   C4D26160  13.164  25.856  15.219  0.0231 -0.1846 -0.1792
 1091BOLB   NC126161  18.605  26.892  13.824 -0.1298 -0.1375 -0.1036
 1091BOLB   PO126162  18.836  26.616  13.764 -0.0978  0.1936  0.1159
 1091BOLB   GL126163  19.204  26.605  13.554  0.1267 -0.1096  0.1791
 1091BOLB   GL226164  19.335  26.906  13.401  0.3529  0.1757 -0.1392
 1091BOLB   C1A26165  19.378  26.374  13.237  0.0147 -0.2208  0.1958
 1091BOLB   C2A26166  19.418  26.239  12.722  0.0248 -0.0047 -0.3443
 1091BOLB   C3A26167  19.769  26.048  12.410 -0.0932  0.1732  0.3324
 1091BOLB   C4A26168  20.075  25.823  12.158  0.3749  0.1812  0.3125
 1091BOLB   C1B26169  19.744  26.649  13.023 -0.0616 -0.0601 -0.0031
 1091BOLB   C2B26170  19.949  26.254  12.835 -0.0295  0.1811  0.0929
 1091BOLB   C3B26171  19.777  25.962  12.927 -0.0469 -0.3675  0.3002
 1091BOLB   C4B26172  19.725  25.878  13.388 -0.2921  0.0426 -0.0389
 1091BOLB   NC226173  21.828  26.461  10.581  0.0157 -0.1667 -0.2634
 1091BOLB   PO226174  22.033  26.201  10.894 -0.0011 -0.2532  0.3932
 1091BOLB   GL326175  21.807  25.866  11.178 -0.0433  0.1216  0.2229
 1091BOLB   GL426176  21.724  25.554  10.958  0.0572  0.0083 -0.2198
 1091BOLB   C1C26177  21.416  25.786  11.257  0.3085  0.1937 -0.3975
 1091BOLB   C2C26178  21.056  25.713  11.464 -0.0886  0.3150  0.1355
 1091BOLB   C3C26179  20.706  25.614  11.598  0.1432 -0.1187  0.2279
 1091BOLB   C4C26180  20.407  25.667  11.890 -0.0551 -0.0572  0.1600
 1091BOLB   C1D26181  21.770  25.450  11.438  0.0531  0.2100 -0.0609
 1091BOLB   C2D26182  22.065  25.426  11.705  0.1223 -0.3433 -0.0600
 1091BOLB   C3D26183  22.390  25.417  11.966 -0.0097 -0.0216  0.2006
 1091BOLB   C4D26184  22.463  25.538  12.336  0.1151 -0.0676  0.4829
 1092BOLB   NC126185  13.385  28.064  15.597  0.3468 -0.0122 -0.1471
 1092BOLB   PO126186  13.405  27.639  15.295  0.2480 -0.1125 -0.1766
 1092BOLB   GL126187  13.395  27.548  14.895 -0.0856  0.0900  0.1150
 1092BOLB   GL226188  13.563  27.223  14.838  0.2073 -0.2795  0.1807
 1092BOLB   C1A26189  13.456  27.505  14.413 -0.2017 -0.0142 -0.2724
 1092BOLB   C2A26190  13.257  27.291  14.001 -0.0402  0.1390 -0.0297
 1092BOLB   C3A26191  13.271  27.054  13.612  0.2288 -0.0064 -0.0408
 1092BOLB   C4A26192  13.094  27.048  13.252 -0.2143 -0.3683  0.0303
 1092BOLB   C1B26193  13.373  26.891  14.848 -0.2297 -0.1959 -0.0080
 1092BOLB   C2B26194  12.928  26.726  14.741 -0.0071  0.3727 -0.2621
 1092BOLB   C3B26195  12.588  26.956  14.675 -0.0207  0.0009 -0.3955
 1092BOLB   C4B26196  12.399  27.325  14.521 -0.0761  0.0123 -0.1949
 1092BOLB   NC226197  12.739  28.496  12.534 -0.0537 -0.1346  0.0719
 1092BOLB   PO226198  12.354  28.352  12.495  0.1466  0.0021  0.2033
 1092BOLB   GL326199  12.798  28.040  12.318 -0.0900 -0.0211 -0.0546
 1092BOLB   GL426200  13.167  28.087  12.546 -0.1402  0.0300 -0.1559
 1092BOLB   C1C26201  13.115  27.910  12.033  0.0445 -0.0390  0.0401
 1092BOLB   C2C26202  13.404  27.680  12.137  0.0764 -0.4359 -0.1542
 1092BOLB   C3C26203  13.245  27.263  12.293  0.2224 -0.3932 -0.0153
 1092BOLB   C4C26204  13.104  27.075  12.744  0.1308  0.0265  0.1521
 1092BOLB   C1D26205  13.489  27.802  12.695  0.0217  0.1852 -0.0154
 1092BOLB   C2D26206  13.494  27.381  12.739 -0.4277 -0.1338 -0.0439
 1092BOLB   C3D26207  13.548  27.104  12.909 -0.0641 -0.0168 -0.2029
 1092BOLB   C4D26208  13.760  26.984  13.303 -0.0475  0.0974  0.1933
 1093BOLB   NC126209   9.497  23.190  13.783 -0.3452  0.0602  0.0222
 1093BOLB   PO126210   9.807  23.476  13.727 -0.2606 -0.1253  0.1480
 1093BOLB   GL126211  10.066  23.616  14.055  0.1424  0.1192 -0.3591
 1093BOLB   GL226212  10.154  23.931  14.088 -0.1316  0.0242  0.1081
 1093BOLB   C1A26213  10.515  23.818  14.381 -0.0864 -0.0218  0.0310
 1093BOLB   C2A26214  10.665  24.158  14.516 -0.1663  0.0207 -0.2151
 1093BOLB   C3A26215  10.742  24.654  14.804  0.2867 -0.0021 -0.4534
 1093BOLB   C4A26216  10.779  25.036  14.860  0.2010 -0.1509 -0.1700
 1093BOLB   C1B26217  10.519  24.451  14.108 -0.0321  0.2193 -0.0490
 1093BOLB   C2B26218  10.635  24.756  14.330 -0.0500 -0.0863  0.4203
 1093BOLB   C3B26219  10.872  25.141  14.321 -0.0919 -0.1793  0.1399
 1093BOLB   C4B26220  11.014  25.485  14.027  0.1038 -0.2509  0.1096
 1093BOLB   NC226221  11.208  27.599  16.349  0.0852 -0.0654 -0.1146
 1093BOLB   PO226222  11.025  27.642  15.899 -0.0990  0.1131  0.1087
 1093BOLB   GL326223  11.088  27.205  15.823  0.2148 -0.0370 -0.1483
 1093BOLB   GL426224  11.198  26.928  16.058 -0.3309 -0.0398 -0.2810
 1093BOLB   C1C26225  10.994  26.784  15.501 -0.0665 -0.1076 -0.3432
 1093BOLB   C2C26226  10.902  26.316  15.422 -0.1373  0.0518  0.0609
 1093BOLB   C3C26227  10.932  25.846  15.277  0.0057  0.0790  0.0107
 1093BOLB   C4C26228  10.943  25.426  15.045  0.2529  0.3265 -0.3576
 1093BOLB   C1D26229  11.583  26.671  16.083 -0.1582 -0.1852  0.2674
 1093BOLB   C2D26230  11.950  26.460  15.880 -0.3840  0.0964 -0.0305
 1093BOLB   C3D26231  12.295  26.207  15.934  0.2727 -0.0780 -0.0236
 1093BOLB   C4D26232  12.282  25.760  15.719 -0.0570  0.2319 -0.0803
 1094BOLB   NC126233   8.308  26.993  16.439  0.1920 -0.0805 -0.2674
 1094BOLB   PO126234   8.575  26.731  16.113 -0.0776  0.1165 -0.1936
 1094BOLB   GL126235   8.690  26.511  16.447 -0.0646 -0.0578 -0.4624
 1094BOLB   GL226236   8.640  26.741  16.727  0.3233  0.3716  0.2337
 1094BOLB   C1A26237   8.877  26.070  16.513  0.2427  0.2070 -0.1171
 1094BOLB   C2A26238   8.668  25.886  17.002 -0.0346 -0.1914 -0.0348
 1094BOLB   C3A26239   9.003  25.798  17.336  0.2339 -0.0556 -0.2369
 1094BOLB   C4A26240   9.454  25.932  17.213 -0.4114 -0.1622 -0.2373
 1094BOLB   C1B26241   8.674  26.386  16.912  0.1411  0.1430 -0.2534
 1094BOLB   C2B26242   8.799  26.265  17.293 -0.1487 -0.4193  0.0090
 1094BOLB   C3B26243   9.144  26.263  17.426 -0.1057  0.2377  0.4032
 1094BOLB   C4B26244   9.403  26.181  17.700  0.2744 -0.0564 -0.0110
 1094BOLB   NC226245   9.487  28.017  15.524 -0.0826  0.2493  0.4073
 1094BOLB   PO226246   9.533  27.568  15.628 -0.0548 -0.2239  0.3264
 1094BOLB   GL326247   9.620  27.071  15.682  0.0541 -0.0927  0.0884
 1094BOLB   GL426248   9.475  27.010  15.889  0.1186  0.1704 -0.0082
 1094BOLB   C1C26249   9.680  26.565  15.782 -0.3940  0.1817  0.1177
 1094BOLB   C2C26250   9.784  26.224  16.082 -0.1957  0.2682 -0.0233
 1094BOLB   C3C26251   9.821  25.965  16.545  0.0165 -0.1203 -0.0025
 1094BOLB   C4C26252   9.629  26.113  16.909 -0.2372 -0.0680 -0.1278
 1094BOLB   C1D26253   9.905  26.950  16.061  0.1840 -0.0728  0.0861
 1094BOLB   C2D26254  10.350  26.725  16.238  0.0527 -0.0847  0.2373
 1094BOLB   C3D26255  10.608  26.429  16.490 -0.1082 -0.2024 -0.0222
 1094BOLB   C4D26256  10.583  26.424  16.917  0.1804 -0.3375  0.0572
 1095BOLB   NC126257  13.912  24.237  12.841 -0.3314 -0.3218 -0.2871
 1095BOLB   PO126258  13.964  24.455  13.181 -0.1756 -0.3119 -0.0992
 1095BOLB   GL126259  13.603  24.663  13.206  0.0281  0.1316  0.1852
 1095BOLB   GL226260  13.590  24.815  12.901  0.0986 -0.0226  0.2198
 1095BOLB   C1A26261  13.154  24.829  13.321  0.0046  0.0305 -0.1574
 1095BOLB   C2A26262  12.910  24.997  13.521 -0.1738 -0.1914  0.3089
 1095BOLB   C3A26263  12.635  25.315  13.437  0.1645  0.2063  0.2786
 1095BOLB   C4A26264  12.451  25.789  13.395 -0.0184  0.0527  0.2043
 1095BOLB   C1B26265  13.478  25.219  12.673 -0.2126 -0.1915  0.2527
 1095BOLB   C2B26266  13.128  25.393  12.390  0.0710  0.0416 -0.0216
 1095BOLB   C3B26267  12.727  25.491  12.240  0.0822  0.3836  0.2647
 1095BOLB   C4B26268  12.293  25.726  12.136 -0.1434 -0.0370 -0.1089
 1095BOLB   NC226269  11.284  27.926  13.206  0.0696  0.0994  0.2132
 1095BOLB   PO226270  10.933  27.670  13.208  0.1192 -0.0423  0.0911
 1095BOLB   GL326271  11.175  27.321  12.967 -0.0622 -0.1176  0.2150
 1095BOLB   GL426272  11.257  27.360  12.587 -0.1222  0.0591  0.2851
 1095BOLB   C1C26273  11.545  27.099  13.072 -0.2428 -0.1239 -0.0190
 1095BOLB   C2C26274  11.880  26.781  12.977 -0.0976 -0.1769 -0.4321
 1095BOLB   C3C26275  12.192  26.382  13.051 -0.0381  0.0791  0.0040
 1095BOLB   C4C26276  12.474  26.194  13.333 -0.0830  0.0824 -0.1076
 1095BOLB   C1D26277  11.665  27.288  12.156 -0.1547 -0.3818 -0.0398
 1095BOLB   C2D26278  11.974  26.865  12.140 -0.0892  0.2766 -0.1614
 1095BOLB   C3D26279  12.065  26.530  11.886  0.1701 -0.0665  0.0801
 1095BOLB   C4D26280  12.177  26.137  11.910 -0.4619  0.1241 -0.0308
 1096BOLB   NC126281  17.513  26.068  13.156 -0.2238  0.0047  0.1518
 1096BOLB   PO126282  17.294  26.203  12.829 -0.2424 -0.0625  0.2798
 1096BOLB   GL126283  17.247  26.096  12.422 -0.2149  0.1515  0.1658
 1096BOLB   GL226284  16.853  26.359  12.379 -0.0752 -0.2372 -0.0777
 1096BOLB   C1A26285  17.212  25.833  12.056 -0.3761 -0.0886 -0.6542
 1096BOLB   C2A26286  17.209  26.007  11.678  0.2413 -0.1302  0.0308
 1096BOLB   C3A26287  17.411  26.073  11.320  0.0523  0.2463  0.0324
 1096BOLB   C4A26288  17.655  26.060  10.904 -0.0013  0.0617  0.1651
 1096BOLB   C1B26289  16.887  26.215  11.938  0.0774 -0.0009  0.1366
 1096BOLB   C2B26290  16.618  26.184  11.435 -0.0166 -0.4563 -0.1188
 1096BOLB   C3B26291  16.582  26.107  11.065 -0.3363 -0.3005  0.6488
 1096BOLB   C4B26292  16.588  26.092  10.596 -0.1438 -0.0485 -0.3598
 1096BOLB   NC226293  18.111  26.733   8.303 -0.1346 -0.0247 -0.1966
 1096BOLB   PO226294  18.282  26.389   8.583  0.1982  0.1122  0.2367
 1096BOLB   GL326295  18.143  26.347   9.047 -0.2769 -0.0947  0.0069
 1096BOLB   GL426296  17.823  26.490   9.115 -0.3321 -0.0972 -0.0038
 1096BOLB   C1C26297  18.240  26.133   9.445 -0.0284 -0.2389  0.0426
 1096BOLB   C2C26298  18.261  25.894   9.822 -0.0155 -0.2228 -0.1858
 1096BOLB   C3C26299  18.191  25.863  10.288 -0.0891  0.3600  0.2827
 1096BOLB   C4C26300  17.905  26.020  10.501  0.2572  0.0863  0.0875
 1096BOLB   C1D26301  17.854  26.339   9.617 -0.1048 -0.1692 -0.2524
 1096BOLB   C2D26302  17.991  26.315   9.950 -0.1715 -0.0719  0.0334
 1096BOLB   C3D26303  18.241  26.364  10.162 -0.1474  0.3134 -0.1657
 1096BOLB   C4D26304  18.570  26.289  10.003 -0.2189 -0.1338 -0.0439
 1097BOLB   NC126305  14.757  26.475  13.868  0.1211 -0.0149 -0.1786
 1097BOLB   PO126306  14.595  26.880  14.112  0.1117 -0.0356 -0.1900
 1097BOLB   GL126307  14.311  26.459  14.129 -0.1876  0.0547 -0.0199
 1097BOLB   GL226308  14.112  26.685  14.005  0.2034 -0.1295  0.0089
 1097BOLB   C1A26309  13.997  26.216  13.905  0.1041 -0.0937 -0.2172
 1097BOLB   C2A26310  13.684  26.074  13.719 -0.0649  0.1341  0.2872
 1097BOLB   C3A26311  13.451  26.106  13.292  0.2782  0.1233  0.2441
 1097BOLB   C4A26312  13.120  26.080  13.225  0.0752 -0.0111  0.3039
 1097BOLB   C1B26313  13.805  26.467  14.357 -0.1567  0.0980  0.0664
 1097BOLB   C2B26314  13.477  26.511  14.565  0.0828 -0.3371  0.2701
 1097BOLB   C3B26315  13.379  26.335  14.991  0.0416 -0.0314  0.3143
 1097BOLB   C4B26316  13.432  26.208  15.533 -0.2904 -0.0186 -0.2349
 1097BOLB   NC226317  12.809  28.317  13.245  0.0277  0.1179 -0.0689
 1097BOLB   PO226318  12.759  28.170  12.852 -0.1704  0.1619 -0.2763
 1097BOLB   GL326319  12.557  27.808  12.694 -0.0599  0.2279 -0.1276
 1097BOLB   GL426320  12.277  27.714  12.433  0.0864 -0.3608 -0.2547
 1097BOLB   C1C26321  12.613  27.292  12.736  0.3716  0.3605  0.3346
 1097BOLB   C2C26322  12.622  26.823  12.706 -0.0126 -0.1214 -0.2238
 1097BOLB   C3C26323  12.552  26.488  12.678  0.3487 -0.0366  0.0156
 1097BOLB   C4C26324  12.819  26.190  12.950  0.2341  0.2485  0.1843
 1097BOLB   C1D26325  12.310  27.331  12.306  0.4584 -0.0883 -0.1931
 1097BOLB   C2D26326  12.139  27.030  12.620  0.2346  0.0046 -0.0991
 1097BOLB   C3D26327  12.110  26.563  12.561  0.2036 -0.1099 -0.2279
 1097BOLB   C4D26328  12.328  26.180  12.373  0.1736  0.2419  0.1490
 1098BOLB   NC126329  16.761  25.344  12.820  0.4881  0.0941  0.1508
 1098BOLB   PO126330  16.329  25.149  12.813  0.2747  0.0949  0.0237
 1098BOLB   GL126331  16.386  25.217  12.405  0.5520 -0.5467 -0.0644
 1098BOLB   GL226332  16.088  25.418  12.385 -0.0859  0.0945 -0.0451
 1098BOLB   C1A26333  16.370  25.329  11.990  0.2103 -0.2034 -0.0959
 1098BOLB   C2A26334  16.351  25.565  11.563  0.2172 -0.4077  0.1706
 1098BOLB   C3A26335  16.275  25.554  11.104 -0.0050 -0.2637  0.0385
 1098BOLB   C4A26336  16.185  25.823  10.656  0.0432 -0.1470 -0.2241
 1098BOLB   C1B26337  15.964  25.648  11.916  0.0708 -0.2825 -0.1863
 1098BOLB   C2B26338  15.900  25.746  11.505 -0.0201  0.0561  0.2635
 1098BOLB   C3B26339  15.763  25.428  11.101 -0.3558 -0.2299  0.0298
 1098BOLB   C4B26340  15.532  25.194  10.780  0.0198  0.1025  0.1853
 1098BOLB   NC226341  16.471  26.111   8.522  0.0425  0.1290  0.0849
 1098BOLB   PO226342  16.948  26.317   8.585  0.1775 -0.1655  0.2440
 1098BOLB   GL326343  16.969  26.121   8.952 -0.3312  0.2672  0.0316
 1098BOLB   GL426344  17.145  25.901   8.952 -0.1752 -0.1264  0.2494
 1098BOLB   C1C26345  16.953  26.165   9.371  0.1774 -0.0042  0.0275
 1098BOLB   C2C26346  16.712  26.148   9.740 -0.1607 -0.3210  0.1628
 1098BOLB   C3C26347  16.548  26.348  10.136  0.0099 -0.2072  0.0127
 1098BOLB   C4C26348  16.220  26.204  10.365 -0.2429 -0.1638 -0.1520
 1098BOLB   C1D26349  17.166  25.671   9.310  0.0794  0.0617 -0.3679
 1098BOLB   C2D26350  17.353  25.468   9.603  0.0918  0.2299  0.2559
 1098BOLB   C3D26351  17.313  25.187   9.885 -0.0076 -0.0663 -0.1472
 1098BOLB   C4D26352  17.093  24.817  10.071  0.2769  0.3244 -0.0398
 1099BOLB   NC126353  10.344  28.016  18.547  0.3753  0.1002  0.0381
 1099BOLB   PO126354  10.345  28.108  18.151 -0.2375  0.1174  0.4916
 1099BOLB   GL126355  10.442  27.694  18.147  0.0901  0.3120 -0.1221
 1099BOLB   GL226356  10.161  27.457  18.359 -0.3313  0.0702 -0.2044
 1099BOLB   C1A26357  10.444  27.264  17.897  0.3696 -0.1445  0.0977
 1099BOLB   C2A26358  10.578  26.894  18.134  0.0673  0.1914  0.0485
 1099BOLB   C3A26359  10.920  26.676  17.914 -0.0440 -0.2883 -0.1182
 1099BOLB   C4A26360  11.002  26.787  17.534 -0.2303  0.1163 -0.1147
 1099BOLB   C1B26361  10.607  27.321  18.399 -0.2221  0.3209 -0.0601
 1099BOLB   C2B26362  10.886  27.111  18.604 -0.0766  0.1442  0.0742
 1099BOLB   C3B26363  11.338  26.939  18.644 -0.1038 -0.0233 -0.3140
 1099BOLB   C4B26364  11.757  26.863  18.527  0.1534  0.1722 -0.0891
 1099BOLB   NC226365  10.560  27.614  15.747  0.0507  0.1641 -0.0604
 1099BOLB   PO226366  10.070  27.577  15.803  0.0399  0.0877 -0.2305
 1099BOLB   GL326367  10.305  27.199  15.864 -0.1182 -0.0494  0.0907
 1099BOLB   GL426368  10.498  27.204  15.502 -0.0780 -0.0818  0.3164
 1099BOLB   C1C26369  10.727  26.824  15.918  0.0571 -0.0490 -0.0286
 1099BOLB   C2C26370  11.057  26.496  16.175  0.1978 -0.1258 -0.1161
 1099BOLB   C3C26371  11.112  26.393  16.613  0.0828  0.0750 -0.1296
 1099BOLB   C4C26372  11.049  26.557  16.980  0.1257 -0.4136 -0.1242
 1099BOLB   C1D26373  10.174  26.932  15.460 -0.2773  0.1446 -0.0296
 1099BOLB   C2D26374  10.301  26.611  15.691  0.0861  0.0024 -0.2982
 1099BOLB   C3D26375  10.604  26.357  15.847 -0.0070  0.2034 -0.2663
 1099BOLB   C4D26376  10.906  26.074  15.952  0.1119  0.0989  0.1348
 1100BOLB   NC126377  14.691  25.539  13.756  0.2654  0.0524  0.1066
 1100BOLB   PO126378  14.800  25.833  13.298 -0.1786 -0.0913 -0.2584
 1100BOLB   GL126379  14.493  26.022  13.275  0.1481 -0.1427  0.1552
 1100BOLB   GL226380  14.417  26.284  13.570 -0.0082  0.0530 -0.0026
 1100BOLB   C1A26381  14.218  26.162  12.934 -0.1622 -0.2751  0.2035
 1100BOLB   C2A26382  13.766  26.058  12.910 -0.2843 -0.0456  0.1915
 1100BOLB   C3A26383  13.425  26.210  12.790 -0.0426 -0.1466  0.3815
 1100BOLB   C4A26384  13.233  26.592  12.988  0.0952  0.0823 -0.0107
 1100BOLB   C1B26385  14.136  25.852  13.547  0.4138  0.0503 -0.3132
 1100BOLB   C2B26386  13.736  25.732  13.235 -0.1265  0.2069  0.0532
 1100BOLB   C3B26387  13.272  25.607  13.051  0.1485  0.1467 -0.1026
 1100BOLB   C4B26388  12.961  25.667  13.269  0.1756  0.1320  0.1316
 1100BOLB   NC226389  12.144  28.540  13.406  0.2229  0.0884 -0.4419
 1100BOLB   PO226390  12.463  28.252  13.621 -0.0691 -0.0783  0.1663
 1100BOLB   GL326391  12.300  27.840  13.552  0.0141  0.1328  0.0239
 1100BOLB   GL426392  12.149  27.643  13.233 -0.1282 -0.1514  0.4889
 1100BOLB   C1C26393  12.366  27.375  13.647  0.1645  0.2553 -0.0462
 1100BOLB   C2C26394  12.617  27.007  13.745  0.2270 -0.3668  0.1940
 1100BOLB   C3C26395  12.736  26.639  13.519 -0.0851  0.2145 -0.0185
 1100BOLB   C4C26396  12.804  26.623  13.124 -0.3019  0.1110 -0.2373
 1100BOLB   C1D26397  12.009  27.337  12.949  0.2161 -0.0830  0.1621
 1100BOLB   C2D26398  11.738  27.306  12.635  0.0139  0.0049  0.0510
 1100BOLB   C3D26399  11.657  26.909  12.543 -0.1975 -0.1306 -0.0943
 1100BOLB   C4D26400  11.586  26.519  12.659  0.3097  0.0881 -0.0786
 1101BOLB   NC126401  14.718  28.032  13.898 -0.1092  0.0032  0.0862
 1101BOLB   PO126402  15.043  27.637  13.722 -0.2738 -0.2582 -0.3432
 1101BOLB   GL126403  15.021  27.527  13.286  0.0310  0.0491 -0.1154
 1101BOLB   GL226404  15.001  27.145  13.372 -0.0742  0.2106  0.1418
 1101BOLB   C1A26405  14.701  27.500  12.992  0.3164  0.1530  0.1641
 1101BOLB   C2A26406  14.432  27.234  12.772  0.0012 -0.0205 -0.2204
 1101BOLB   C3A26407  14.292  27.250  12.382  0.1798  0.3108 -0.2657
 1101BOLB   C4A26408  14.264  27.156  12.004 -0.0681 -0.0656 -0.3457
 1101BOLB   C1B26409  14.674  27.028  13.185 -0.0736 -0.1469 -0.2834
 1101BOLB   C2B26410  14.273  27.066  13.329 -0.0637 -0.1266  0.1540
 1101BOLB   C3B26411  14.150  26.719  13.441  0.0413  0.0021 -0.0976
 1101BOLB   C4B26412  13.782  26.440  13.323 -0.0177  0.0069 -0.1145
 1101BOLB   NC226413  13.956  29.269  11.863 -0.1142 -0.0284  0.0689
 1101BOLB   PO226414  13.769  28.951  11.995 -0.2013  0.1876 -0.1015
 1101BOLB   GL326415  13.596  28.538  12.095 -0.1385  0.3717 -0.0860
 1101BOLB   GL426416  13.782  28.316  12.173 -0.1533 -0.1576 -0.0557
 1101BOLB   C1C26417  13.464  28.213  11.819  0.0925 -0.0531 -0.0433
 1101BOLB   C2C26418  13.506  27.835  11.524 -0.0098 -0.1208 -0.0147
 1101BOLB   C3C26419  13.786  27.538  11.406 -0.1133  0.2104 -0.3717
 1101BOLB   C4C26420  13.913  27.308  11.698 -0.2251 -0.1664  0.2318
 1101BOLB   C1D26421  13.830  27.854  12.324 -0.2504  0.0660  0.2655
 1101BOLB   C2D26422  14.048  27.584  12.687 -0.3298 -0.2215  0.0306
 1101BOLB   C3D26423  13.997  27.438  13.101  0.0134  0.1058  0.2241
 1101BOLB   C4D26424  14.024  27.573  13.553 -0.0034  0.3273  0.2724
 1102BOLB   NC126425  19.675  27.825  12.104  0.0258 -0.0103 -0.1862
 1102BOLB   PO126426  20.104  27.965  12.283  0.1088  0.1851  0.1736
 1102BOLB   GL126427  20.206  27.536  12.360  0.0017  0.1185 -0.0818
 1102BOLB   GL226428  19.953  27.382  12.229  0.2705  0.0398 -0.2982
 1102BOLB   C1A26429  20.468  27.181  12.539  0.2940  0.2117  0.0561
 1102BOLB   C2A26430  20.722  26.951  12.831  0.2257 -0.4003 -0.0847
 1102BOLB   C3A26431  20.944  26.616  12.828 -0.3381  0.0143 -0.1061
 1102BOLB   C4A26432  20.857  26.273  12.612  0.2509  0.1458  0.0317
 1102BOLB   C1B26433  20.208  26.967  12.110 -0.3541  0.3248 -0.2768
 1102BOLB   C2B26434  20.658  26.872  12.114 -0.2497  0.2532 -0.1468
 1102BOLB   C3B26435  21.053  26.717  12.338  0.0285  0.1022 -0.0709
 1102BOLB   C4B26436  21.409  26.516  12.631  0.0486 -0.1002 -0.0431
 1102BOLB   NC226437  22.763  26.517  12.481  0.1954  0.1592  0.2556
 1102BOLB   PO226438  22.920  26.343  12.131 -0.0233  0.1800 -0.0188
 1102BOLB   GL326439  22.606  26.002  12.205  0.1232  0.0381 -0.0277
 1102BOLB   GL426440  22.733  25.980  12.477  0.1215  0.1267 -0.0804
 1102BOLB   C1C26441  22.181  25.920  12.053 -0.3822 -0.1797 -0.0081
 1102BOLB   C2C26442  21.824  26.112  12.108 -0.0666 -0.0651  0.0531
 1102BOLB   C3C26443  21.486  25.964  12.369 -0.0970  0.0212 -0.0413
 1102BOLB   C4C26444  21.126  26.062  12.481  0.1285  0.2596  0.1743
 1102BOLB   C1D26445  22.249  25.919  12.505  0.2457  0.1176  0.0299
 1102BOLB   C2D26446  21.877  25.625  12.470  0.0677 -0.2702  0.1908
 1102BOLB   C3D26447  21.813  25.248  12.066  0.0116 -0.1190  0.0421
 1102BOLB   C4D26448  21.837  24.936  11.858  0.4178 -0.1419  0.2577
 1103BOLB   NC126449  19.295  26.312  15.515  0.1912 -0.1619  0.3544
 1103BOLB   PO126450  19.521  25.923  15.654 -0.2054 -0.3095  0.2003
 1103BOLB   GL126451  19.895  25.860  15.874 -0.1672  0.0719  0.2073
 1103BOLB   GL226452  20.092  25.682  15.746 -0.2318 -0.0893  0.4317
 1103BOLB   C1A26453  20.343  26.076  16.067 -0.0306 -0.1275  0.0059
 1103BOLB   C2A26454  20.788  25.921  16.191 -0.0554 -0.0266  0.0400
 1103BOLB   C3A26455  20.924  25.612  16.413 -0.0922  0.2433 -0.2631
 1103BOLB   C4A26456  21.229  25.781  16.699 -0.2285  0.0281  0.0463
 1103BOLB   C1B26457  20.479  25.591  15.911  0.0176 -0.1347 -0.2674
 1103BOLB   C2B26458  20.826  25.507  15.852 -0.0648 -0.2628 -0.2138
 1103BOLB   C3B26459  21.242  25.508  15.763  0.1670  0.0406  0.2375
 1103BOLB   C4B26460  21.630  25.590  15.582  0.3223  0.3365 -0.0752
 1103BOLB   NC226461  23.342  27.420  18.152 -0.1758 -0.1249  0.0490
 1103BOLB   PO226462  23.069  26.988  18.043  0.1123 -0.0989  0.3595
 1103BOLB   GL326463  22.943  26.529  17.827 -0.4193 -0.0568 -0.1792
 1103BOLB   GL426464  23.194  26.185  17.939 -0.1362  0.3704 -0.1364
 1103BOLB   C1C26465  22.521  26.314  17.606  0.0485 -0.3960 -0.0677
 1103BOLB   C2C26466  22.168  26.327  17.383  0.1678 -0.3072 -0.1876
 1103BOLB   C3C26467  21.894  26.148  17.139 -0.0730 -0.2351 -0.2684
 1103BOLB   C4C26468  21.643  25.885  16.960 -0.0900  0.1323 -0.1005
 1103BOLB   C1D26469  22.938  25.973  17.653  0.0737 -0.0861  0.0731
 1103BOLB   C2D26470  22.520  25.689  17.551  0.2329  0.0172 -0.2239
 1103BOLB   C3D26471  22.180  25.473  17.653 -0.0112 -0.0046 -0.1317
 1103BOLB   C4D26472  22.061  25.144  17.994  0.0738 -0.0371  0.1311
 1104BOLB   NC126473  14.740  24.082  12.880 -0.0340 -0.0124 -0.2118
 1104BOLB   PO126474  14.461  24.217  12.524  0.0515  0.0223 -0.0005
 1104BOLB   GL126475  14.210  24.445  12.297  0.0801 -0.2336 -0.0942
 1104BOLB   GL226476  13.861  24.209  12.264 -0.1601  0.4324 -0.0048
 1104BOLB   C1A26477  13.921  24.799  12.221  0.0593  0.0492 -0.1163
 1104BOLB   C2A26478  13.401  24.898  12.222  0.0856  0.1795  0.4322
 1104BOLB   C3A26479  13.083  25.105  12.008  0.0811  0.0278  0.0469
 1104BOLB   C4A26480  12.986  25.382  11.812 -0.1330 -0.2415 -0.0206
 1104BOLB   C1B26481  13.597  24.466  12.002 -0.3910  0.1181  0.1310
 1104BOLB   C2B26482  13.318  24.734  11.735 -0.0690 -0.1627  0.1475
 1104BOLB   C3B26483  13.176  25.027  11.522 -0.0319 -0.2936  0.1021
 1104BOLB   C4B26484  13.290  25.465  11.311  0.0228  0.0181  0.0950
 1104BOLB   NC226485  12.110  27.026  10.580 -0.0301  0.3321  0.0709
 1104BOLB   PO226486  12.319  26.793  10.199  0.0094  0.2922 -0.1510
 1104BOLB   GL326487  12.564  26.594  10.575  0.2708 -0.1623 -0.0999
 1104BOLB   GL426488  12.662  26.876  10.751 -0.1474 -0.0317  0.1689
 1104BOLB   C1C26489  12.610  26.323  10.878  0.2726 -0.3479  0.5342
 1104BOLB   C2C26490  12.522  26.234  11.323  0.1207  0.2252 -0.1358
 1104BOLB   C3C26491  12.621  26.043  11.679  0.1964  0.0205  0.2609
 1104BOLB   C4C26492  12.800  25.698  11.791 -0.1152 -0.3132  0.0170
 1104BOLB   C1D26493  12.876  26.605  11.146  0.3431 -0.2150 -0.2829
 1104BOLB   C2D26494  13.233  26.534  11.285  0.2317  0.1394  0.0666
 1104BOLB   C3D26495  13.547  26.479  11.537  0.1814 -0.1909  0.0623
 1104BOLB   C4D26496  13.727  26.123  11.711 -0.2596  0.0611  0.0269
 1105BOLB   NC126497  16.550  28.885  12.151 -0.2729 -0.1187  0.0535
 1105BOLB   PO126498  16.919  28.673  11.905  0.1441 -0.1042  0.1921
 1105BOLB   GL126499  16.622  28.374  11.959 -0.1326 -0.1631  0.0082
 1105BOLB   GL226500  16.934  28.197  12.154  0.1052 -0.2274  0.0128
 1105BOLB   C1A26501  16.529  27.975  11.859  0.2505 -0.0579  0.1007
 1105BOLB   C2A26502  16.510  27.584  11.790 -0.1092 -0.0097  0.0032
 1105BOLB   C3A26503  16.459  27.359  11.333  0.3339 -0.2608 -0.0530
 1105BOLB   C4A26504  16.303  27.068  11.105 -0.0654  0.1775  0.0685
 1105BOLB   C1B26505  16.989  27.767  11.841  0.1258 -0.1025 -0.1947
 1105BOLB   C2B26506  16.948  27.454  11.445 -0.1079  0.0346 -0.0631
 1105BOLB   C3B26507  16.825  27.171  11.055 -0.0117  0.0130  0.0288
 1105BOLB   C4B26508  16.975  26.961  10.791 -0.2182 -0.1346  0.1474
 1105BOLB   NC226509  16.040  27.631   8.663 -0.0338 -0.0719  0.0396
 1105BOLB   PO226510  15.745  27.333   8.983 -0.2643  0.0262  0.1459
 1105BOLB   GL326511  15.826  27.158   9.374  0.1819  0.2124  0.1378
 1105BOLB   GL426512  16.073  27.003   9.514  0.2990 -0.0141 -0.0080
 1105BOLB   C1C26513  15.739  26.896   9.848 -0.2588 -0.0338 -0.0356
 1105BOLB   C2C26514  16.021  26.792  10.172 -0.0791 -0.1793 -0.0605
 1105BOLB   C3C26515  16.278  26.706  10.517  0.0508  0.1792  0.0913
 1105BOLB   C4C26516  16.417  26.933  10.728  0.1807  0.0698  0.0012
 1105BOLB   C1D26517  16.301  26.653   9.769 -0.0431  0.1715 -0.0910
 1105BOLB   C2D26518  16.187  26.200   9.731 -0.2964 -0.4173  0.0470
 1105BOLB   C3D26519  15.860  25.909   9.884  0.0512 -0.3048  0.1502
 1105BOLB   C4D26520  15.835  25.932  10.329 -0.2339 -0.2692  0.1707
 1106BOLB   NC126521  19.846  27.931  10.885  0.2134  0.0264 -0.2045
 1106BOLB   PO126522  19.443  27.856  11.070 -0.0045 -0.3760  0.2440
 1106BOLB   GL126523  18.950  27.583  11.044 -0.1801  0.3211  0.0743
 1106BOLB   GL226524  19.112  27.587  11.346 -0.0692 -0.0946  0.0030
 1106BOLB   C1A26525  19.017  27.099  11.097 -0.0403  0.1442  0.1217
 1106BOLB   C2A26526  19.246  26.842  11.156 -0.0184 -0.2046 -0.0263
 1106BOLB   C3A26527  19.684  26.890  11.176 -0.0122 -0.0459 -0.0476
 1106BOLB   C4A26528  20.112  26.883  11.120 -0.0443 -0.0930  0.0572
 1106BOLB   C1B26529  18.786  27.328  11.526 -0.3414 -0.2178  0.1101
 1106BOLB   C2B26530  18.401  27.119  11.622  0.0126 -0.0362  0.0517
 1106BOLB   C3B26531  18.036  27.340  11.786  0.2320  0.0067  0.3357
 1106BOLB   C4B26532  17.791  27.330  12.090 -0.0915 -0.2331 -0.1366
 1106BOLB   NC226533  21.525  27.323  11.572  0.1390 -0.0189  0.2582
 1106BOLB   PO226534  21.610  26.974  11.771  0.2547  0.0764 -0.1584
 1106BOLB   GL326535  21.694  26.678  12.113  0.0886 -0.3252  0.3251
 1106BOLB   GL426536  21.822  26.870  12.358  0.2198 -0.0225  0.0058
 1106BOLB   C1C26537  21.359  26.382  12.135 -0.0218 -0.0919  0.3367
 1106BOLB   C2C26538  20.910  26.401  11.947  0.5867 -0.0995 -0.3876
 1106BOLB   C3C26539  20.572  26.526  11.629  0.1943 -0.1533  0.0478
 1106BOLB   C4C26540  20.487  26.832  11.399  0.2831  0.2052  0.1430
 1106BOLB   C1D26541  21.892  26.494  12.561 -0.1398  0.1725 -0.0384
 1106BOLB   C2D26542  21.820  26.059  12.726 -0.0847 -0.2942  0.2058
 1106BOLB   C3D26543  21.954  25.748  12.996  0.2567 -0.0369 -0.1302
 1106BOLB   C4D26544  22.440  25.719  12.930  0.3117  0.0131  0.3727
 1107BOLB   NC126545  16.752  27.749  13.074  0.2395 -0.2250 -0.3509
 1107BOLB   PO126546  17.046  27.527  12.975 -0.0557  0.0915  0.0381
 1107BOLB   GL126547  17.101  27.459  12.632 -0.0012 -0.3347  0.1667
 1107BOLB   GL226548  17.397  27.189  12.607  0.0865  0.2271 -0.3236
 1107BOLB   C1A26549  17.290  27.488  12.180  0.2345  0.0594  0.1386
 1107BOLB   C2A26550  17.363  27.364  11.717 -0.0741 -0.2988 -0.1760
 1107BOLB   C3A26551  17.471  27.429  11.332  0.3625 -0.1967 -0.1228
 1107BOLB   C4A26552  17.836  27.683  11.316  0.4106  0.0343  0.1164
 1107BOLB   C1B26553  17.103  27.049  12.315 -0.0906  0.2361 -0.1478
 1107BOLB   C2B26554  16.843  26.757  12.123  0.0801 -0.0519  0.1281
 1107BOLB   C3B26555  16.757  26.683  11.767  0.0436  0.0561  0.4320
 1107BOLB   C4B26556  16.736  26.753  11.281  0.3322  0.1473 -0.0631
 1107BOLB   NC226557  19.157  27.873  10.576  0.0708  0.0684  0.1083
 1107BOLB   PO226558  19.573  27.816  10.469  0.1997  0.1239  0.2966
 1107BOLB   GL326559  19.365  27.466  10.727 -0.0230  0.4265  0.1748
 1107BOLB   GL426560  19.569  27.360  10.975  0.0974  0.0568 -0.0151
 1107BOLB   C1C26561  18.973  27.259  10.613 -0.2217  0.3503  0.4247
 1107BOLB   C2C26562  18.617  27.490  10.668  0.2182 -0.0371  0.1683
 1107BOLB   C3C26563  18.274  27.723  10.601  0.0642  0.0355  0.3294
 1107BOLB   C4C26564  18.091  27.758  10.912  0.1410  0.3153  0.0216
 1107BOLB   C1D26565  19.486  27.281  11.405  0.0432  0.0719 -0.1517
 1107BOLB   C2D26566  19.316  27.115  11.758 -0.1336  0.2000  0.0150
 1107BOLB   C3D26567  19.294  27.066  12.210  0.0636  0.0298 -0.0254
 1107BOLB   C4D26568  19.461  26.823  12.517 -0.3305  0.2541 -0.0143
 1108BOLB   NC126569  18.974  25.456  13.440 -0.1440 -0.0572 -0.1486
 1108BOLB   PO126570  19.113  25.211  13.640  0.2457 -0.0910 -0.2277
 1108BOLB   GL126571  19.512  25.331  13.363  0.0901  0.0494  0.2265
 1108BOLB   GL226572  19.857  25.162  13.258 -0.1754 -0.1857  0.2046
 1108BOLB   C1A26573  19.610  25.411  12.926  0.1982  0.0761  0.0225
 1108BOLB   C2A26574  19.832  25.549  12.568  0.0346  0.0451  0.2039
 1108BOLB   C3A26575  19.857  25.345  12.151  0.2712  0.0024  0.2034
 1108BOLB   C4A26576  19.993  25.361  11.700 -0.2464  0.4493 -0.0070
 1108BOLB   C1B26577  19.930  25.043  12.856 -0.0157  0.0964  0.0336
 1108BOLB   C2B26578  20.208  25.159  12.577  0.1440 -0.0554  0.3824
 1108BOLB   C3B26579  20.477  24.908  12.365  0.1171  0.0966 -0.0604
 1108BOLB   C4B26580  20.488  24.485  12.103  0.0976  0.0335 -0.1485
 1108BOLB   NC226581  21.007  26.989  10.613  0.1702  0.0079 -0.3238
 1108BOLB   PO226582  20.651  26.961  10.341 -0.0747 -0.4580  0.1375
 1108BOLB   GL326583  20.603  26.574  10.642  0.1076 -0.3709  0.3562
 1108BOLB   GL426584  20.644  26.718  10.938  0.3832  0.1405  0.1774
 1108BOLB   C1C26585  20.339  26.189  10.574 -0.2479 -0.0466 -0.0543
 1108BOLB   C2C26586  20.161  25.862  10.766  0.0202  0.2994 -0.0518
 1108BOLB   C3C26587  20.302  25.503  10.959 -0.1200  0.1185  0.0070
 1108BOLB   C4C26588  20.032  25.277  11.247 -0.3047  0.0599 -0.0351
 1108BOLB   C1D26589  20.544  26.311  11.180 -0.2758 -0.1075 -0.1097
 1108BOLB   C2D26590  20.222  26.010  11.288 -0.1831 -0.0335 -0.0542
 1108BOLB   C3D26591  19.990  25.979  11.587 -0.0073  0.0693 -0.1431
 1108BOLB   C4D26592  19.763  26.112  11.939 -0.0154  0.3041  0.0278
 1109BOLB   NC126593  22.555  11.709  14.536 -0.1301 -0.1521 -0.1504
 1109BOLB   PO126594  22.532  11.618  14.026  0.2102 -0.1089 -0.3418
 1109BOLB   GL126595  22.831  11.425  13.831 -0.2144 -0.1138 -0.2137
 1109BOLB   GL226596  23.045  11.646  13.792 -0.0944 -0.2263 -0.0739
 1109BOLB   C1A26597  22.894  11.264  13.411 -0.0891 -0.3698 -0.0733
 1109BOLB   C2A26598  23.140  11.404  13.120 -0.2724 -0.1180 -0.0779
 1109BOLB   C3A26599  23.314  11.287  12.711  0.1457  0.2810 -0.1215
 1109BOLB   C4A26600  23.737  11.455  12.622  0.0471  0.1274  0.1172
 1109BOLB   C1B26601  23.270  11.809  13.482 -0.0718 -0.0517 -0.2290
 1109BOLB   C2B26602  23.530  11.835  13.189  0.0394 -0.1101 -0.2296
 1109BOLB   C3B26603  23.704  11.958  12.804 -0.2510 -0.2214 -0.0834
 1109BOLB   C4B26604  23.950  12.271  12.743 -0.2261  0.0319  0.1162
 1109BOLB   NC226605  25.119  12.051  10.798  0.0512 -0.0085  0.2705
 1109BOLB   PO226606  24.856  12.368  10.542  0.1330  0.0176  0.0547
 1109BOLB   GL326607  24.757  12.304  11.048  0.0639  0.0262  0.1576
 1109BOLB   GL426608  24.805  12.032  11.239  0.2633 -0.2278  0.5256
 1109BOLB   C1C26609  24.508  12.435  11.318  0.5786 -0.0618 -0.1262
 1109BOLB   C2C26610  24.313  12.189  11.708 -0.2302 -0.2402 -0.0385
 1109BOLB   C3C26611  24.101  12.030  12.126 -0.5932  0.3959  0.3623
 1109BOLB   C4C26612  23.856  11.880  12.385 -0.3185  0.0465  0.4565
 1109BOLB   C1D26613  24.671  11.834  11.489  0.2247  0.1026 -0.0471
 1109BOLB   C2D26614  24.582  11.677  11.864  0.0563  0.2740  0.2864
 1109BOLB   C3D26615  24.557  11.888  12.308  0.0901 -0.1498 -0.0502
 1109BOLB   C4D26616  24.413  12.221  12.606  0.4540  0.2377 -0.0528
 1110BOLB   NC126617   9.111  21.472  12.258 -0.0273 -0.1285  0.0869
 1110BOLB   PO126618   9.562  21.205  12.060 -0.0685 -0.0079 -0.0459
 1110BOLB   GL126619   9.972  21.299  11.926  0.2004  0.1833 -0.1881
 1110BOLB   GL226620   9.922  21.577  11.933 -0.1446 -0.2675  0.0264
 1110BOLB   C1A26621   9.945  21.284  11.502 -0.1113 -0.1471  0.1931
 1110BOLB   C2A26622  10.184  21.331  11.103  0.1412  0.0945 -0.5056
 1110BOLB   C3A26623  10.295  21.320  10.633  0.1275  0.2935  0.4910
 1110BOLB   C4A26624  10.375  21.545  10.207  0.3456  0.0181  0.1563
 1110BOLB   C1B26625   9.769  21.728  11.562  0.0496  0.0758  0.0358
 1110BOLB   C2B26626   9.782  21.670  11.110 -0.0726  0.0512 -0.2226
 1110BOLB   C3B26627   9.824  21.471  10.730  0.0624  0.3117 -0.0807
 1110BOLB   C4B26628   9.877  21.390  10.294 -0.0087 -0.0992 -0.3484
 1110BOLB   NC226629  10.793  22.222   7.846  0.0203 -0.0110 -0.1735
 1110BOLB   PO226630  10.689  21.922   7.512  0.1176 -0.3337 -0.0232
 1110BOLB   GL326631  10.463  21.772   8.013 -0.0919 -0.4500  0.1082
 1110BOLB   GL426632  10.108  21.811   8.061 -0.2685  0.2211  0.2000
 1110BOLB   C1C26633  10.484  21.730   8.567  0.1166  0.1410  0.1154
 1110BOLB   C2C26634  10.399  21.707   8.892  0.0631 -0.0521 -0.2418
 1110BOLB   C3C26635  10.548  21.643   9.356  0.0660 -0.2342 -0.0869
 1110BOLB   C4C26636  10.402  21.614   9.717  0.3591  0.2704  0.1082
 1110BOLB   C1D26637   9.952  21.853   8.506  0.1084 -0.0283  0.2968
 1110BOLB   C2D26638   9.947  21.692   8.880 -0.2031  0.2774  0.0665
 1110BOLB   C3D26639   9.965  21.593   9.290 -0.1110 -0.1983  0.0074
 1110BOLB   C4D26640   9.864  21.567   9.760 -0.0382 -0.2836  0.5798
 1111BOLB   NC126641  18.169  16.316  11.644  0.0164 -0.0813  0.0963
 1111BOLB   PO126642  18.350  16.223  11.293 -0.1349  0.1512  0.2876
 1111BOLB   GL126643  18.204  16.262  10.820  0.0604  0.1036 -0.1221
 1111BOLB   GL226644  17.924  16.181  10.767 -0.2926 -0.0893  0.0913
 1111BOLB   C1A26645  18.395  16.401  10.464 -0.1482  0.2437  0.1648
 1111BOLB   C2A26646  18.527  16.359  10.054 -0.0871 -0.1198 -0.0229
 1111BOLB   C3A26647  18.426  16.127   9.716  0.3202  0.2726 -0.1475
 1111BOLB   C4A26648  18.257  16.143   9.277  0.0437  0.1663 -0.3279
 1111BOLB   C1B26649  17.912  16.243  10.340 -0.0239  0.0318  0.1617
 1111BOLB   C2B26650  17.998  16.454   9.955  0.1608 -0.2398 -0.1732
 1111BOLB   C3B26651  18.094  16.544   9.487  0.0386  0.1098 -0.3793
 1111BOLB   C4B26652  18.535  16.819   9.316  0.1962 -0.0656 -0.2300
 1111BOLB   NC226653  17.391  16.954   7.249 -0.1316 -0.0212 -0.2699
 1111BOLB   PO226654  16.930  16.760   7.193 -0.0869  0.3220 -0.0845
 1111BOLB   GL326655  16.968  16.674   7.688  0.0850  0.3794  0.0989
 1111BOLB   GL426656  16.778  16.519   7.806 -0.0761 -0.1487  0.2583
 1111BOLB   C1C26657  17.206  16.758   8.119 -0.1437  0.0449 -0.1223
 1111BOLB   C2C26658  17.376  16.532   8.490  0.0871 -0.3810 -0.0600
 1111BOLB   C3C26659  17.579  16.331   8.838 -0.3125  0.0093 -0.1801
 1111BOLB   C4C26660  17.894  16.189   9.124  0.0331  0.2817 -0.0418
 1111BOLB   C1D26661  16.631  16.854   8.093 -0.1842 -0.2147  0.0252
 1111BOLB   C2D26662  16.700  17.142   8.475  0.0021  0.2611  0.1271
 1111BOLB   C3D26663  16.662  17.569   8.717  0.2018  0.3521  0.1164
 1111BOLB   C4D26664  16.561  17.546   9.145 -0.0061  0.1939  0.2508
 1112BOLB   NC126665  22.406  10.004  16.587 -0.0005 -0.0641  0.1634
 1112BOLB   PO126666  22.491   9.574  16.462  0.0087  0.2523 -0.1024
 1112BOLB   GL126667  22.740   9.324  16.181  0.1572 -0.1025 -0.2933
 1112BOLB   GL226668  22.943   9.346  16.352  0.2835 -0.0054  0.1250
 1112BOLB   C1A26669  22.580   9.023  15.868  0.1808  0.0517 -0.1768
 1112BOLB   C2A26670  22.810   8.705  15.563 -0.0831 -0.3847  0.1334
 1112BOLB   C3A26671  22.803   8.335  15.398  0.0606 -0.2212 -0.1543
 1112BOLB   C4A26672  22.848   7.854  15.417  0.0794  0.0661 -0.2653
 1112BOLB   C1B26673  22.988   9.029  16.583  0.0432 -0.0181  0.1626
 1112BOLB   C2B26674  23.153   8.680  16.583 -0.2106  0.0641  0.2444
 1112BOLB   C3B26675  23.310   8.503  16.896  0.3454  0.0217 -0.1126
 1112BOLB   C4B26676  23.671   8.441  17.008 -0.1031  0.0868 -0.2527
 1112BOLB   NC226677  24.640   6.228  14.652  0.0828  0.2531  0.1037
 1112BOLB   PO226678  24.429   5.994  14.960  0.3151 -0.0986 -0.3659
 1112BOLB   GL326679  24.309   6.344  15.270 -0.2983  0.1623  0.0598
 1112BOLB   GL426680  24.484   6.678  15.371  0.0212 -0.2266  0.2982
 1112BOLB   C1C26681  23.922   6.570  15.307 -0.1213 -0.3049 -0.2821
 1112BOLB   C2C26682  23.738   6.992  15.232 -0.0333 -0.1839 -0.3172
 1112BOLB   C3C26683  23.422   7.273  15.225 -0.0309 -0.0941  0.1240
 1112BOLB   C4C26684  23.050   7.554  15.373 -0.0010  0.1843  0.0925
 1112BOLB   C1D26685  24.389   6.929  15.703 -0.0467 -0.1560 -0.1496
 1112BOLB   C2D26686  24.628   6.995  16.112 -0.1773  0.1366  0.1267
 1112BOLB   C3D26687  24.405   7.387  16.286  0.0468  0.5439  0.2411
 1112BOLB   C4D26688  24.373   7.736  16.713  0.0983  0.0884  0.3804
 1113BOLB   NC126689  13.094  20.592  11.313 -0.2171 -0.4114  0.1038
 1113BOLB   PO126690  13.509  20.377  11.214 -0.0800 -0.2531  0.1397
 1113BOLB   GL126691  13.287  20.478  10.894  0.1075 -0.1845 -0.2670
 1113BOLB   GL226692  12.988  20.697  10.823  0.1490  0.2209  0.1789
 1113BOLB   C1A26693  13.444  20.626  10.500 -0.1289  0.3288 -0.0979
 1113BOLB   C2A26694  13.240  20.568  10.068  0.0441 -0.2807 -0.1199
 1113BOLB   C3A26695  13.300  20.364   9.665  0.2893 -0.0512 -0.0671
 1113BOLB   C4A26696  13.046  20.361   9.237  0.4604  0.0111 -0.3623
 1113BOLB   C1B26697  13.069  20.911  10.369 -0.2042 -0.0185  0.2019
 1113BOLB   C2B26698  12.802  20.974   9.993  0.3676  0.0473  0.1243
 1113BOLB   C3B26699  12.743  21.178   9.586  0.2331 -0.1745  0.0307
 1113BOLB   C4B26700  12.542  21.355   9.213  0.0548 -0.3919  0.2467
 1113BOLB   NC226701  12.749  18.871   7.010  0.3240  0.1777 -0.1954
 1113BOLB   PO226702  12.938  19.316   7.069  0.1100 -0.0614 -0.3130
 1113BOLB   GL326703  12.750  19.439   7.426 -0.2259  0.1550 -0.0720
 1113BOLB   GL426704  12.719  19.194   7.576  0.1660 -0.1960  0.2174
 1113BOLB   C1C26705  12.701  19.794   7.620  0.0977  0.0640 -0.2294
 1113BOLB   C2C26706  12.748  19.941   8.022 -0.0355  0.3104 -0.1446
 1113BOLB   C3C26707  12.864  20.028   8.474 -0.0053 -0.1523 -0.3665
 1113BOLB   C4C26708  12.859  20.035   8.924 -0.2034 -0.1772 -0.1084
 1113BOLB   C1D26709  12.399  19.109   7.861  0.5458  0.0857 -0.0902
 1113BOLB   C2D26710  12.204  19.123   8.243 -0.0893 -0.0744 -0.4110
 1113BOLB   C3D26711  12.344  18.841   8.622  0.3375  0.0043 -0.2274
 1113BOLB   C4D26712  12.056  18.513   8.869 -0.0310  0.1744  0.0881
 1114BOLB   NC126713  12.449  18.335  11.518 -0.1730  0.2115  0.2447
 1114BOLB   PO126714  12.563  18.522  11.084  0.0550  0.1993  0.1791
 1114BOLB   GL126715  12.645  18.747  10.765  0.1149 -0.1917 -0.1988
 1114BOLB   GL226716  12.747  19.086  10.820 -0.2976  0.1702 -0.1440
 1114BOLB   C1A26717  12.834  18.852  10.350  0.4726  0.1152  0.0489
 1114BOLB   C2A26718  12.955  18.834   9.906 -0.0575 -0.0661 -0.3137
 1114BOLB   C3A26719  13.021  18.902   9.624  0.0726 -0.3205 -0.0716
 1114BOLB   C4A26720  13.380  18.841   9.310  0.2013 -0.0502  0.3088
 1114BOLB   C1B26721  12.525  19.175  10.418 -0.0848  0.2073  0.0052
 1114BOLB   C2B26722  12.666  19.215  10.044 -0.1510  0.1255  0.0580
 1114BOLB   C3B26723  12.561  19.119   9.555 -0.1929 -0.0383  0.1034
 1114BOLB   C4B26724  12.659  19.007   9.145 -0.0168  0.1273 -0.5944
 1114BOLB   NC226725  14.048  18.368   6.824 -0.1820 -0.0164  0.1327
 1114BOLB   PO226726  14.078  18.832   6.892 -0.1544  0.0661 -0.0048
 1114BOLB   GL326727  14.169  18.733   7.258 -0.2262 -0.1054 -0.0813
 1114BOLB   GL426728  14.553  18.673   7.394  0.0375  0.1080  0.1204
 1114BOLB   C1C26729  14.073  18.943   7.670  0.1242 -0.0230 -0.3451
 1114BOLB   C2C26730  13.855  18.934   8.101  0.4422  0.0207  0.2424
 1114BOLB   C3C26731  13.560  18.725   8.476 -0.0065 -0.2540  0.2305
 1114BOLB   C4C26732  13.565  18.701   8.861  0.0144  0.4241  0.1605
 1114BOLB   C1D26733  14.553  18.675   7.763  0.2165  0.2647  0.0025
 1114BOLB   C2D26734  14.495  18.739   8.247  0.1594 -0.3335 -0.0284
 1114BOLB   C3D26735  14.338  18.562   8.644 -0.1448  0.1745 -0.1198
 1114BOLB   C4D26736  14.169  18.635   9.034  0.3477 -0.0656  0.0050
 1115BOLB   NC126737  16.586  22.738  12.512  0.1767  0.3658 -0.0125
 1115BOLB   PO126738  16.700  23.054  12.122 -0.0635  0.1377  0.2404
 1115BOLB   GL126739  16.961  23.131  11.807 -0.0616 -0.3305  0.0495
 1115BOLB   GL226740  17.010  22.918  11.617 -0.2203 -0.2115 -0.0408
 1115BOLB   C1A26741  17.080  23.413  11.436  0.2611  0.1140  0.0715
 1115BOLB   C2A26742  17.325  23.397  11.093  0.0471  0.2757  0.0478
 1115BOLB   C3A26743  17.281  23.336  10.621 -0.2008 -0.3743 -0.2300
 1115BOLB   C4A26744  17.151  23.231  10.260  0.1028 -0.1671  0.1203
 1115BOLB   C1B26745  17.138  22.893  11.175 -0.0537 -0.2915 -0.1464
 1115BOLB   C2B26746  17.010  22.970  10.826  0.1580 -0.0156 -0.2460
 1115BOLB   C3B26747  16.743  23.059  10.545  0.1000 -0.0508 -0.2111
 1115BOLB   C4B26748  16.691  23.234  10.139  0.1192  0.3178 -0.3720
 1115BOLB   NC226749  16.810  23.679   7.555  0.0808  0.0201  0.0753
 1115BOLB   PO226750  16.919  23.419   7.935  0.1297  0.0939  0.3479
 1115BOLB   GL326751  16.943  23.357   8.408 -0.2012  0.1635  0.0823
 1115BOLB   GL426752  17.307  23.101   8.457  0.1067 -0.2476  0.0264
 1115BOLB   C1C26753  16.768  23.094   8.757  0.0638  0.0178 -0.1361
 1115BOLB   C2C26754  16.972  22.931   9.089  0.0534  0.1216 -0.0244
 1115BOLB   C3C26755  17.206  23.196   9.379  0.0418 -0.0416  0.1308
 1115BOLB   C4C26756  17.125  23.362   9.818 -0.0508 -0.0456  0.1989
 1115BOLB   C1D26757  17.018  22.767   8.523 -0.1053  0.2750 -0.3862
 1115BOLB   C2D26758  17.058  22.554   8.765  0.1189  0.0318  0.0720
 1115BOLB   C3D26759  17.122  22.440   9.158  0.1057  0.3471  0.0119
 1115BOLB   C4D26760  17.071  22.573   9.564 -0.3368 -0.1026  0.3419
 1116BOLB   NC126761  14.580  13.016  11.494  0.1529 -0.1004 -0.1947
 1116BOLB   PO126762  14.409  12.497  11.592  0.0705  0.0379  0.2748
 1116BOLB   GL126763  14.624  12.557  11.161 -0.0774  0.0311 -0.3256
 1116BOLB   GL226764  14.785  12.813  11.047  0.1029 -0.2498 -0.0607
 1116BOLB   C1A26765  14.565  12.458  10.688  0.0594  0.4388  0.0174
 1116BOLB   C2A26766  14.732  12.275  10.287  0.4450 -0.2422  0.2641
 1116BOLB   C3A26767  14.892  12.296   9.924  0.3906  0.1931 -0.0485
 1116BOLB   C4A26768  14.850  12.002   9.610 -0.1000 -0.2634  0.0187
 1116BOLB   C1B26769  15.095  13.147  10.839  0.4146  0.0969  0.2063
 1116BOLB   C2B26770  15.182  13.031  10.406 -0.0714  0.2432  0.1390
 1116BOLB   C3B26771  15.134  12.906   9.970 -0.0698 -0.3445 -0.0321
 1116BOLB   C4B26772  15.187  12.894   9.560  0.3883 -0.0127  0.1479
 1116BOLB   NC226773  14.396  11.211   7.528 -0.0366  0.0506  0.1923
 1116BOLB   PO226774  14.742  10.912   7.494 -0.1166  0.2238  0.1903
 1116BOLB   GL326775  14.831  11.193   7.789 -0.1250  0.1230 -0.0154
 1116BOLB   GL426776  15.080  11.109   8.065 -0.4002 -0.0151  0.0367
 1116BOLB   C1C26777  14.654  11.221   8.297  0.0588  0.0154  0.1403
 1116BOLB   C2C26778  14.672  11.196   8.741  0.0097  0.0574 -0.2549
 1116BOLB   C3C26779  14.594  11.325   9.150  0.1545 -0.0075  0.3604
 1116BOLB   C4C26780  14.574  11.546   9.554  0.2739 -0.0107  0.1478
 1116BOLB   C1D26781  15.048  11.467   8.208  0.1827 -0.2030 -0.0302
 1116BOLB   C2D26782  15.244  11.514   8.620  0.0082 -0.1684  0.3320
 1116BOLB   C3D26783  15.236  11.274   8.951  0.3526  0.4625 -0.1338
 1116BOLB   C4D26784  14.978  10.967   9.099  0.1241  0.3533 -0.0846
 1117BOLB   NC126785  12.512  23.083  12.847  0.2734 -0.0492  0.1732
 1117BOLB   PO126786  12.495  23.507  12.850  0.5198 -0.1186  0.0971
 1117BOLB   GL126787  12.259  23.864  12.689 -0.3737 -0.1500 -0.0961
 1117BOLB   GL226788  12.076  24.233  12.658  0.2071 -0.2050 -0.3562
 1117BOLB   C1A26789  12.421  24.126  12.310 -0.1637 -0.1030 -0.4103
 1117BOLB   C2A26790  12.497  24.394  12.171 -0.1995 -0.2939 -0.0227
 1117BOLB   C3A26791  12.722  24.653  11.840 -0.2542 -0.2810 -0.0400
 1117BOLB   C4A26792  12.728  24.964  11.473 -0.2021  0.0717 -0.1356
 1117BOLB   C1B26793  12.006  24.421  12.255 -0.4444  0.3239  0.1047
 1117BOLB   C2B26794  12.071  24.709  11.912  0.0479  0.0834 -0.0110
 1117BOLB   C3B26795  12.042  25.072  11.644 -0.1791  0.1417 -0.0817
 1117BOLB   C4B26796  12.029  25.332  11.315 -0.2792 -0.0508  0.2463
 1117BOLB   NC226797  12.221  25.669   9.427 -0.3479  0.2455  0.1409
 1117BOLB   PO226798  11.795  25.696   9.322  0.0399  0.4602 -0.1130
 1117BOLB   GL326799  11.811  25.467   9.752 -0.1410 -0.3431 -0.1937
 1117BOLB   GL426800  12.041  25.625   9.954  0.0735 -0.1687  0.2276
 1117BOLB   C1C26801  11.682  25.130   9.974 -0.2099  0.1140  0.0770
 1117BOLB   C2C26802  11.855  24.906  10.394 -0.1520  0.3555 -0.2612
 1117BOLB   C3C26803  12.191  24.920  10.711  0.3439 -0.1655  0.1035
 1117BOLB   C4C26804  12.367  24.898  11.079  0.1768  0.1545  0.0494
 1117BOLB   C1D26805  12.219  25.169  10.179  0.1203 -0.1777 -0.1148
 1117BOLB   C2D26806  12.475  24.790  10.239  0.3482  0.0323 -0.3340
 1117BOLB   C3D26807  12.896  24.664  10.101  0.2258 -0.0735 -0.1532
 1117BOLB   C4D26808  13.028  24.338  10.238 -0.1407 -0.0757 -0.1242
 1118BOLB   NC126809  12.031  21.761  12.056  0.2954 -0.1885  0.3685
 1118BOLB   PO126810  12.427  22.001  12.141 -0.1952  0.1969 -0.0157
 1118BOLB   GL126811  12.428  22.273  11.843  0.0204 -0.1052  0.2919
 1118BOLB   GL226812  12.602  22.556  11.942  0.0436 -0.1503  0.0962
 1118BOLB   C1A26813  12.182  22.654  11.703 -0.1626  0.0580  0.0326
 1118BOLB   C2A26814  12.091  22.979  11.437  0.2673 -0.1091  0.0478
 1118BOLB   C3A26815  12.105  23.343  11.197 -0.3596  0.0731 -0.0904
 1118BOLB   C4A26816  12.063  23.589  10.862  0.1507 -0.2501  0.2343
 1118BOLB   C1B26817  12.623  22.784  11.546  0.0550  0.0609  0.0487
 1118BOLB   C2B26818  12.531  22.919  11.162 -0.0473  0.2665  0.0785
 1118BOLB   C3B26819  12.824  22.968  10.841  0.1098  0.2267  0.2423
 1118BOLB   C4B26820  13.023  23.033  10.495 -0.0995  0.0637 -0.4045
 1118BOLB   NC226821  11.780  24.094   8.441  0.0820 -0.0430 -0.1210
 1118BOLB   PO226822  11.914  24.622   8.499  0.0772 -0.2695 -0.0187
 1118BOLB   GL326823  11.850  24.345   8.884  0.2582 -0.1182 -0.2518
 1118BOLB   GL426824  12.129  24.211   9.073 -0.2231 -0.1580 -0.3722
 1118BOLB   C1C26825  11.603  24.358   9.219  0.1351 -0.2256 -0.1667
 1118BOLB   C2C26826  11.562  24.204   9.617 -0.2457  0.1728  0.0551
 1118BOLB   C3C26827  11.852  24.015  10.080  0.0345  0.0249  0.1486
 1118BOLB   C4C26828  12.065  23.864  10.407  0.1992 -0.0470 -0.0110
 1118BOLB   C1D26829  12.154  23.735   9.254  0.1892 -0.1217  0.2000
 1118BOLB   C2D26830  11.880  23.662   9.521  0.0527 -0.0921 -0.1159
 1118BOLB   C3D26831  11.559  23.689   9.768  0.2327 -0.1354  0.0322
 1118BOLB   C4D26832  11.499  23.684  10.262 -0.1293  0.0638  0.1701
 1119BOLB   NC126833  10.214  16.684  12.324 -0.3318 -0.0885  0.0629
 1119BOLB   PO126834  10.629  16.652  12.057  0.0512 -0.0824  0.0443
 1119BOLB   GL126835  10.661  16.583  11.609  0.0560 -0.2284 -0.1920
 1119BOLB   GL226836  10.497  16.848  11.515  0.1628 -0.0285 -0.0476
 1119BOLB   C1A26837  10.545  16.561  11.140 -0.0485 -0.1000 -0.1757
 1119BOLB   C2A26838  10.547  16.652  10.726  0.2722  0.2787 -0.2343
 1119BOLB   C3A26839  10.554  16.576  10.281  0.1198 -0.1797  0.3358
 1119BOLB   C4A26840  10.747  16.492   9.873 -0.1334  0.1750 -0.1535
 1119BOLB   C1B26841  10.171  16.945  11.057  0.1958 -0.1171 -0.0665
 1119BOLB   C2B26842   9.892  16.885  10.679 -0.0696 -0.1018 -0.2402
 1119BOLB   C3B26843   9.683  17.049  10.302  0.2266 -0.0852  0.0679
 1119BOLB   C4B26844   9.667  16.954   9.888 -0.0560  0.0423 -0.2541
 1119BOLB   NC226845  10.653  16.017   7.503  0.2869  0.1847  0.0589
 1119BOLB   PO226846  10.977  15.604   7.502 -0.1058  0.4088 -0.2067
 1119BOLB   GL326847  11.064  15.763   8.014  0.4633  0.1214  0.2825
 1119BOLB   GL426848  11.251  15.561   8.182  0.0121 -0.1870  0.0642
 1119BOLB   C1C26849  11.061  16.057   8.275 -0.0681 -0.2463  0.1008
 1119BOLB   C2C26850  10.932  16.148   8.650  0.3551 -0.2019 -0.0061
 1119BOLB   C3C26851  11.012  16.432   8.986  0.2280  0.0011 -0.0589
 1119BOLB   C4C26852  10.920  16.375   9.432  0.0285 -0.1961  0.0763
 1119BOLB   C1D26853  11.256  15.699   8.544 -0.1658 -0.2418 -0.1363
 1119BOLB   C2D26854  11.017  15.836   8.981  0.0265 -0.1667 -0.0943
 1119BOLB   C3D26855  10.706  16.050   9.138  0.1107 -0.1281 -0.2444
 1119BOLB   C4D26856  10.325  16.314   9.201 -0.2083 -0.0372 -0.2093
 1120BOLB   NC126857  22.742  12.568  13.991 -0.0163  0.2365 -0.2898
 1120BOLB   PO126858  22.798  12.142  13.844  0.2229  0.1036  0.0869
 1120BOLB   GL126859  22.720  11.916  13.557 -0.2600 -0.2012 -0.0401
 1120BOLB   GL226860  22.469  11.624  13.557 -0.0369  0.1104 -0.1790
 1120BOLB   C1A26861  22.755  11.753  13.160  0.0285 -0.1218 -0.0446
 1120BOLB   C2A26862  22.841  11.669  12.781  0.1763  0.0776 -0.3894
 1120BOLB   C3A26863  22.792  11.682  12.345 -0.0222  0.4226 -0.0605
 1120BOLB   C4A26864  22.952  11.837  11.962 -0.2968  0.1407 -0.0806
 1120BOLB   C1B26865  22.302  11.626  13.099  0.1497  0.2521 -0.0328
 1120BOLB   C2B26866  22.300  11.695  12.760  0.1376 -0.1974  0.1018
 1120BOLB   C3B26867  22.389  11.424  12.510 -0.2220  0.1570 -0.0121
 1120BOLB   C4B26868  22.489  11.198  12.162 -0.0797 -0.1121 -0.0843
 1120BOLB   NC226869  24.173  11.550   9.786 -0.0810  0.0583 -0.1359
 1120BOLB   PO226870  23.745  11.430   9.883  0.0226 -0.3989  0.1326
 1120BOLB   GL326871  23.795  11.376  10.261  0.3445  0.2351  0.1351
 1120BOLB   GL426872  23.654  11.033  10.314  0.3130 -0.1122 -0.1352
 1120BOLB   C1C26873  23.638  11.532  10.608  0.0757 -0.0260  0.0360
 1120BOLB   C2C26874  23.498  11.385  11.016 -0.0127  0.2874 -0.0179
 1120BOLB   C3C26875  23.208  11.334  11.340 -0.4537  0.0328 -0.1391
 1120BOLB   C4C26876  23.207  11.582  11.703  0.0412 -0.1983  0.0738
 1120BOLB   C1D26877  23.285  10.867  10.608 -0.3342  0.3046 -0.1748
 1120BOLB   C2D26878  22.847  10.927  10.741  0.2684  0.3492 -0.1313
 1120BOLB   C3D26879  22.401  10.974  10.988  0.1016  0.1912  0.0170
 1120BOLB   C4D26880  21.930  11.025  11.042  0.0678  0.1100  0.1614
 1121BOLB   NC126881  10.734  11.183  12.054  0.1630 -0.0476  0.2175
 1121BOLB   PO126882  10.366  11.381  12.129  0.3845 -0.0740  0.0455
 1121BOLB   GL126883  10.221  11.212  11.821  0.0057  0.1487 -0.2357
 1121BOLB   GL226884  10.458  11.376  11.605  0.1318  0.0861 -0.2213
 1121BOLB   C1A26885   9.943  11.151  11.554 -0.0616  0.1309  0.2051
 1121BOLB   C2A26886   9.792  11.164  11.019 -0.0618  0.0448 -0.0666
 1121BOLB   C3A26887   9.741  11.137  10.696  0.0487  0.2304  0.1009
 1121BOLB   C4A26888   9.549  11.107  10.315  0.3641  0.0846 -0.1085
 1121BOLB   C1B26889  10.630  11.255  11.174  0.1602  0.1271  0.0996
 1121BOLB   C2B26890  10.823  11.400  10.728  0.2127 -0.0855  0.2587
 1121BOLB   C3B26891  10.796  11.589  10.308 -0.1225  0.0137 -0.0840
 1121BOLB   C4B26892  10.836  11.907   9.967  0.2407  0.3910  0.2462
 1121BOLB   NC226893   9.199  11.635   7.645 -0.1444  0.0763 -0.0052
 1121BOLB   PO226894   8.870  11.612   7.815  0.0014 -0.0020 -0.2128
 1121BOLB   GL326895   9.121  11.578   8.236  0.0351 -0.1961 -0.1913
 1121BOLB   GL426896   8.817  11.344   8.311 -0.2326 -0.3661  0.2438
 1121BOLB   C1C26897   9.338  11.606   8.543 -0.0210 -0.1432 -0.0583
 1121BOLB   C2C26898   9.292  11.460   9.008  0.3260  0.2196  0.1525
 1121BOLB   C3C26899   9.315  11.254   9.495  0.1891  0.3712  0.2951
 1121BOLB   C4C26900   9.287  11.108   9.936 -0.0322 -0.3166 -0.0048
 1121BOLB   C1D26901   8.947  11.228   8.727  0.1914  0.0823  0.1417
 1121BOLB   C2D26902   8.956  11.122   9.185  0.0716 -0.2712  0.2397
 1121BOLB   C3D26903   8.817  11.002   9.610 -0.4206 -0.1205 -0.4034
 1121BOLB   C4D26904   8.773  11.215  10.010  0.1391 -0.3355 -0.2035
 1122BOLB   NC126905  17.912  14.237  11.501  0.0340  0.1370 -0.0457
 1122BOLB   PO126906  18.176  14.345  11.250 -0.2843 -0.0630  0.0907
 1122BOLB   GL126907  18.204  14.325  10.871  0.1830 -0.0923  0.3184
 1122BOLB   GL226908  18.394  14.099  10.868  0.1363  0.3350  0.1491
 1122BOLB   C1A26909  18.316  14.585  10.465 -0.0604 -0.0812  0.1237
 1122BOLB   C2A26910  18.503  14.486  10.085  0.0293 -0.5699  0.1194
 1122BOLB   C3A26911  18.550  14.306   9.736  0.0711  0.0854  0.2668
 1122BOLB   C4A26912  18.392  14.103   9.370 -0.0914  0.1074 -0.2946
 1122BOLB   C1B26913  18.778  14.092  10.669  0.4559 -0.0463  0.1894
 1122BOLB   C2B26914  19.003  13.760  10.641 -0.1526 -0.0204 -0.0781
 1122BOLB   C3B26915  19.163  13.533  10.300 -0.0146  0.3316 -0.3120
 1122BOLB   C4B26916  19.253  13.325  10.002  0.1315 -0.1136  0.2672
 1122BOLB   NC226917  19.779  15.083   8.000  0.0957 -0.1695 -0.2258
 1122BOLB   PO226918  19.427  15.050   7.761 -0.0215 -0.6978 -0.1047
 1122BOLB   GL326919  19.275  15.168   8.054 -0.3136  0.0183 -0.3565
 1122BOLB   GL426920  19.052  15.195   8.147 -0.1337  0.1234  0.0500
 1122BOLB   C1C26921  19.249  14.848   8.428 -0.2557 -0.0028  0.0071
 1122BOLB   C2C26922  19.096  14.493   8.450  0.1677  0.1217 -0.4015
 1122BOLB   C3C26923  18.753  14.353   8.648 -0.0160  0.1066 -0.1329
 1122BOLB   C4C26924  18.539  14.141   8.905 -0.0923 -0.0279  0.0095
 1122BOLB   C1D26925  18.981  15.334   8.603 -0.2865  0.0995 -0.3027
 1122BOLB   C2D26926  19.046  15.128   9.051  0.0397  0.1695 -0.0112
 1122BOLB   C3D26927  18.944  14.933   9.395 -0.1138 -0.1506 -0.0505
 1122BOLB   C4D26928  18.806  14.453   9.340  0.3111 -0.2781  0.0224
 1123BOLB   NC126929  17.665  10.812  12.618  0.0501  0.0090  0.2742
 1123BOLB   PO126930  17.371  11.027  12.515 -0.4656  0.1527  0.2521
 1123BOLB   GL126931  17.489  10.929  12.058  0.1483 -0.1566  0.1552
 1123BOLB   GL226932  17.711  10.698  12.062  0.0025 -0.3009 -0.2367
 1123BOLB   C1A26933  17.440  10.644  11.667 -0.2345  0.0816  0.0815
 1123BOLB   C2A26934  17.629  10.698  11.179 -0.4554  0.2252 -0.0272
 1123BOLB   C3A26935  17.740  10.772  10.765 -0.2504  0.0186 -0.0164
 1123BOLB   C4A26936  18.121  10.885  10.519 -0.0512  0.2974 -0.0068
 1123BOLB   C1B26937  17.957  10.624  11.662 -0.0259  0.0350 -0.0811
 1123BOLB   C2B26938  18.058  10.991  11.292 -0.1668  0.0972  0.0121
 1123BOLB   C3B26939  18.251  11.239  10.997  0.0197 -0.0808 -0.1649
 1123BOLB   C4B26940  18.557  11.361  10.736  0.0034  0.1557 -0.3266
 1123BOLB   NC226941  18.946  11.423   7.868  0.0900 -0.1477  0.2819
 1123BOLB   PO226942  19.016  11.110   8.132  0.0222 -0.1669  0.2152
 1123BOLB   GL326943  18.704  11.328   8.422 -0.4083  0.1428  0.0004
 1123BOLB   GL426944  18.470  11.599   8.279  0.1306 -0.0965 -0.1687
 1123BOLB   C1C26945  18.431  11.267   8.780  0.0497  0.2768 -0.0345
 1123BOLB   C2C26946  18.409  11.136   9.282 -0.2683  0.0451 -0.1131
 1123BOLB   C3C26947  18.303  11.033   9.710  0.0659  0.0254  0.1403
 1123BOLB   C4C26948  18.304  10.825  10.075 -0.2840  0.1340 -0.4260
 1123BOLB   C1D26949  18.677  11.777   8.736 -0.0821 -0.0549 -0.1007
 1123BOLB   C2D26950  18.558  11.630   9.193 -0.0923 -0.1084  0.2600
 1123BOLB   C3D26951  18.398  11.575   9.614  0.2393  0.0104  0.1113
 1123BOLB   C4D26952  18.356  11.380  10.058  0.0123  0.0051 -0.0680
 1124BOLB   NC126953  23.745   9.696  15.932  0.6068  0.0940 -0.2010
 1124BOLB   PO126954  23.579   9.508  15.505  0.2254 -0.1625 -0.0719
 1124BOLB   GL126955  23.336   9.404  15.187  0.3225  0.1164 -0.1238
 1124BOLB   GL226956  23.078   9.426  15.158  0.2305 -0.0471  0.3746
 1124BOLB   C1A26957  23.382   9.049  14.905  0.3373 -0.2157 -0.1902
 1124BOLB   C2A26958  23.476   8.720  14.589  0.1100 -0.1824 -0.3333
 1124BOLB   C3A26959  23.116   8.603  14.344  0.3077  0.1402 -0.1319
 1124BOLB   C4A26960  22.845   8.428  14.073 -0.0711 -0.1010 -0.1594
 1124BOLB   C1B26961  22.933   9.239  14.810  0.3271 -0.1029  0.1965
 1124BOLB   C2B26962  22.774   8.898  14.615 -0.1877  0.0084 -0.0572
 1124BOLB   C3B26963  22.475   8.742  14.628  0.0611  0.1013 -0.3335
 1124BOLB   C4B26964  22.162   8.559  14.455  0.2355 -0.0112 -0.0658
 1124BOLB   NC226965  22.750   6.253  12.157 -0.0075 -0.1698 -0.0846
 1124BOLB   PO226966  22.628   6.352  12.614  0.0753  0.5366  0.0673
 1124BOLB   GL326967  22.605   6.682  12.820 -0.1321 -0.0310  0.0354
 1124BOLB   GL426968  22.420   6.771  13.038  0.2380  0.0372  0.3483
 1124BOLB   C1C26969  22.817   7.076  12.965  0.3173  0.2034  0.2248
 1124BOLB   C2C26970  22.723   7.485  13.124 -0.0140  0.2268 -0.0864
 1124BOLB   C3C26971  22.726   7.731  13.506  0.2355 -0.0851  0.0940
 1124BOLB   C4C26972  22.788   8.013  13.826 -0.0821 -0.0167 -0.0220
 1124BOLB   C1D26973  21.971   7.050  13.092  0.0925 -0.0099  0.4337
 1124BOLB   C2D26974  21.733   7.382  13.292 -0.0259 -0.0804  0.3625
 1124BOLB   C3D26975  21.563   7.568  13.688  0.0974  0.0003  0.1122
 1124BOLB   C4D26976  21.325   7.492  13.956 -0.0118  0.2722  0.2241
 1125BOLB   NC126977  19.770  12.795  12.591 -0.3139  0.1260 -0.0045
 1125BOLB   PO126978  19.639  12.662  12.240  0.0252 -0.2793  0.1550
 1125BOLB   GL126979  19.784  12.467  11.966 -0.0150 -0.2678 -0.2687
 1125BOLB   GL226980  19.858  12.192  12.074 -0.2416 -0.1349 -0.1406
 1125BOLB   C1A26981  19.970  12.579  11.564  0.5332 -0.0413 -0.1002
 1125BOLB   C2A26982  20.194  12.642  11.132  0.0556  0.1497  0.1527
 1125BOLB   C3A26983  20.246  12.572  10.701  0.2617 -0.2623 -0.1683
 1125BOLB   C4A26984  20.507  12.471  10.290  0.4394 -0.3504 -0.1341
 1125BOLB   C1B26985  19.866  11.795  12.038  0.0306  0.2572  0.3706
 1125BOLB   C2B26986  20.088  11.593  11.744 -0.0413 -0.2240  0.2729
 1125BOLB   C3B26987  20.170  11.511  11.362 -0.1520  0.1994 -0.1569
 1125BOLB   C4B26988  20.384  11.274  10.954 -0.0116  0.1530 -0.1361
 1125BOLB   NC226989  19.450  11.290   8.228  0.4230  0.1754 -0.0708
 1125BOLB   PO226990  19.841  11.600   8.125 -0.1029  0.0001 -0.0321
 1125BOLB   GL326991  19.566  11.726   8.493  0.0797 -0.1463  0.0432
 1125BOLB   GL426992  19.459  11.632   8.774 -0.2641 -0.1898  0.4010
 1125BOLB   C1C26993  19.843  11.864   8.715  0.1740  0.0660  0.3216
 1125BOLB   C2C26994  20.164  12.074   8.999 -0.2131  0.4030 -0.3652
 1125BOLB   C3C26995  20.417  12.351   9.282 -0.3696  0.1720 -0.4192
 1125BOLB   C4C26996  20.565  12.473   9.760 -0.1990 -0.1500 -0.1095
 1125BOLB   C1D26997  19.603  11.773   9.176 -0.1975 -0.2124 -0.0053
 1125BOLB   C2D26998  19.545  11.821   9.570 -0.5302 -0.1139 -0.1736
 1125BOLB   C3D26999  19.743  12.050   9.849 -0.0765 -0.1955  0.3512
 1125BOLB   C4D27000  20.043  12.277   9.957  0.0035 -0.1471 -0.1304
 1126BOLB   NC127001   9.524  23.154  12.908 -0.0195  0.0478  0.1235
 1126BOLB   PO127002   9.437  22.662  12.778 -0.1964 -0.1191  0.2727
 1126BOLB   GL127003   9.755  22.795  12.471  0.0699  0.0419  0.2215
 1126BOLB   GL227004   9.844  23.130  12.515 -0.1440 -0.4583 -0.0717
 1126BOLB   C1A27005  10.045  22.852  12.130  0.2639  0.3012  0.3175
 1126BOLB   C2A27006  10.265  23.095  11.884 -0.2462 -0.1034 -0.1230
 1126BOLB   C3A27007  10.308  23.344  11.528  0.0246  0.1905 -0.0229
 1126BOLB   C4A27008  10.463  23.601  11.189  0.1394 -0.1487 -0.2442
 1126BOLB   C1B27009   9.796  23.317  12.087  0.2280  0.0244 -0.1255
 1126BOLB   C2B27010   9.846  23.255  11.627  0.0258 -0.0813 -0.0458
 1126BOLB   C3B27011   9.938  23.230  11.178  0.2056 -0.2735 -0.1361
 1126BOLB   C4B27012   9.674  23.281  10.764  0.1921  0.0504 -0.0149
 1126BOLB   NC227013   9.666  24.849   9.253 -0.1117 -0.1049 -0.3595
 1126BOLB   PO227014   9.930  24.638   8.975  0.0195  0.0474 -0.0444
 1126BOLB   GL327015   9.972  24.363   9.298  0.0250 -0.0555 -0.0609
 1126BOLB   GL427016   9.915  24.029   9.187 -0.1340  0.2160  0.2039
 1126BOLB   C1C27017  10.120  24.142   9.625 -0.0232 -0.3260  0.0178
 1126BOLB   C2C27018  10.376  23.917   9.953 -0.0983  0.2925  0.4408
 1126BOLB   C3C27019  10.447  23.933  10.371  0.0676 -0.1349 -0.0225
 1126BOLB   C4C27020  10.460  23.839  10.843 -0.3094  0.2742 -0.0658
 1126BOLB   C1D27021  10.012  23.653   9.326  0.0027  0.1556 -0.0761
 1126BOLB   C2D27022  10.095  23.283   9.617  0.0942 -0.0944 -0.1872
 1126BOLB   C3D27023  10.167  23.045  10.014 -0.1771  0.2097  0.0586
 1126BOLB   C4D27024  10.493  22.886  10.210  0.1685 -0.0995  0.0133
 1127BOLB   NC127025  13.364  11.962  11.571 -0.2773  0.1813 -0.1340
 1127BOLB   PO127026  13.346  12.458  11.610  0.2196  0.2547  0.0660
 1127BOLB   GL127027  13.597  12.301  11.279  0.0730  0.0807 -0.0050
 1127BOLB   GL227028  13.872  12.484  11.189 -0.0787  0.3616  0.0405
 1127BOLB   C1A27029  13.654  12.168  10.927  0.0917  0.2340  0.2513
 1127BOLB   C2A27030  14.089  12.172  10.809 -0.0592  0.1247 -0.0231
 1127BOLB   C3A27031  14.270  12.138  10.392  0.1364 -0.0718 -0.2063
 1127BOLB   C4A27032  14.348  12.174   9.978  0.1815 -0.3058  0.0985
 1127BOLB   C1B27033  14.118  12.661  10.804  0.2974  0.1564 -0.3572
 1127BOLB   C2B27034  14.150  12.818  10.489 -0.1366 -0.1267 -0.3628
 1127BOLB   C3B27035  14.047  12.646  10.191  0.2549 -0.1995  0.3097
 1127BOLB   C4B27036  13.850  12.272  10.006 -0.4310  0.0805 -0.2675
 1127BOLB   NC227037  14.543  11.568   7.064 -0.2729  0.1230  0.0483
 1127BOLB   PO227038  14.516  11.779   7.460 -0.2029  0.1996 -0.2561
 1127BOLB   GL327039  14.221  11.890   7.798  0.1766  0.1304 -0.0811
 1127BOLB   GL427040  14.448  12.245   7.818 -0.0927  0.0456 -0.2528
 1127BOLB   C1C27041  14.125  11.976   8.298 -0.1748 -0.1158 -0.5154
 1127BOLB   C2C27042  14.245  11.765   8.696 -0.1437  0.2550  0.1634
 1127BOLB   C3C27043  14.309  11.809   9.148  0.1723 -0.2416 -0.1197
 1127BOLB   C4C27044  14.397  12.090   9.471 -0.1364 -0.0479  0.1750
 1127BOLB   C1D27045  14.516  12.374   8.237  0.2815 -0.1201  0.2238
 1127BOLB   C2D27046  14.371  12.362   8.670 -0.0534  0.0173 -0.1973
 1127BOLB   C3D27047  14.209  12.344   9.098  0.0608  0.3782 -0.3072
 1127BOLB   C4D27048  13.855  12.234   9.414 -0.0091  0.0997  0.2636
 1128BOLB   NC127049  18.675  23.076  12.588 -0.1793  0.2426 -0.0757
 1128BOLB   PO127050  18.150  23.102  12.531  0.0945  0.1874  0.0742
 1128BOLB   GL127051  18.354  23.224  12.133  0.0741 -0.2045 -0.0757
 1128BOLB   GL227052  18.049  23.138  12.024 -0.0880  0.1384  0.0163
 1128BOLB   C1A27053  18.535  23.143  11.715 -0.0007 -0.0867 -0.1076
 1128BOLB   C2A27054  18.530  23.052  11.242 -0.1288 -0.1764  0.0640
 1128BOLB   C3A27055  18.565  22.993  10.777  0.0744 -0.1580 -0.0900
 1128BOLB   C4A27056  18.803  22.814  10.515 -0.0577 -0.2643  0.2019
 1128BOLB   C1B27057  18.061  23.540  11.782  0.0801  0.2367 -0.2195
 1128BOLB   C2B27058  18.223  23.808  11.384 -0.3845  0.0657 -0.2199
 1128BOLB   C3B27059  18.476  23.944  11.016 -0.0542 -0.0862 -0.1242
 1128BOLB   C4B27060  18.249  23.968  10.570 -0.0892 -0.2143  0.0373
 1128BOLB   NC227061  19.467  22.848   7.980  0.0921 -0.0194  0.0755
 1128BOLB   PO227062  19.183  22.962   8.336  0.1667 -0.2213  0.2598
 1128BOLB   GL327063  19.280  23.035   8.693 -0.0362  0.4128  0.1191
 1128BOLB   GL427064  19.105  23.334   8.839  0.1707 -0.0005  0.0647
 1128BOLB   C1C27065  19.341  23.039   9.168  0.1306 -0.2568  0.1655
 1128BOLB   C2C27066  19.502  23.262   9.567 -0.1485 -0.0702 -0.3750
 1128BOLB   C3C27067  19.372  23.112   9.958  0.1732 -0.0970  0.1109
 1128BOLB   C4C27068  18.979  22.949  10.180 -0.0933 -0.0435 -0.2962
 1128BOLB   C1D27069  18.842  23.060   9.095  0.1429 -0.4137 -0.0226
 1128BOLB   C2D27070  18.398  23.100   9.410 -0.0509  0.1976  0.2590
 1128BOLB   C3D27071  18.404  22.706   9.728  0.1930  0.0477 -0.3089
 1128BOLB   C4D27072  18.705  22.510  10.016  0.0840 -0.0196 -0.0580
 1129BOLB   NC127073  16.012  23.405  12.121  0.0575  0.0746  0.0745
 1129BOLB   PO127074  16.370  23.425  11.899  0.1029  0.0900 -0.3248
 1129BOLB   GL127075  16.211  23.645  11.654  0.1031 -0.2687 -0.0079
 1129BOLB   GL227076  16.370  23.729  11.332  0.2402  0.1964  0.2091
 1129BOLB   C1A27077  15.868  23.548  11.354  0.1757 -0.2437 -0.0474
 1129BOLB   C2A27078  15.857  23.555  11.043  0.0213  0.1043 -0.0812
 1129BOLB   C3A27079  15.944  23.498  10.524  0.0463 -0.3989 -0.1585
 1129BOLB   C4A27080  15.804  23.670  10.147  0.1680  0.0282  0.0930
 1129BOLB   C1B27081  16.415  23.883  10.948  0.0852  0.1505 -0.2139
 1129BOLB   C2B27082  16.658  24.109  10.626  0.3108  0.0184  0.0653
 1129BOLB   C3B27083  16.751  24.575  10.496 -0.1986  0.4376  0.2423
 1129BOLB   C4B27084  16.880  25.047  10.473 -0.0597  0.1338  0.4379
 1129BOLB   NC227085  15.983  25.034   8.495 -0.3096  0.0800 -0.1358
 1129BOLB   PO227086  16.316  24.795   8.181  0.1135  0.1020 -0.0328
 1129BOLB   GL327087  16.267  24.545   8.549  0.2375 -0.1259  0.3010
 1129BOLB   GL427088  16.268  24.668   8.811  0.0481 -0.1525  0.0826
 1129BOLB   C1C27089  16.259  24.104   8.812 -0.1830  0.0414 -0.1339
 1129BOLB   C2C27090  15.983  24.134   9.145  0.1431  0.4181 -0.0203
 1129BOLB   C3C27091  15.854  24.120   9.556 -0.1079  0.0463  0.1006
 1129BOLB   C4C27092  15.703  23.984  10.023  0.1448  0.1262 -0.1283
 1129BOLB   C1D27093  16.527  24.432   9.062 -0.1863 -0.0931 -0.1315
 1129BOLB   C2D27094  16.988  24.280   9.150 -0.1134  0.0713  0.1044
 1129BOLB   C3D27095  17.235  24.041   9.164  0.2335  0.3060  0.2658
 1129BOLB   C4D27096  17.539  23.672   9.293  0.3288 -0.0060  0.1166
 1130BOLB   NC127097  21.358  13.400  13.606  0.3098 -0.1108 -0.0516
 1130BOLB   PO127098  21.824  13.485  13.420 -0.2322 -0.1802 -0.1772
 1130BOLB   GL127099  22.202  13.534  13.168  0.1060  0.0955  0.2626
 1130BOLB   GL227100  22.063  13.485  12.932  0.0099  0.1403 -0.1817
 1130BOLB   C1A27101  22.600  13.624  13.167 -0.0569  0.2214  0.1841
 1130BOLB   C2A27102  23.066  13.584  12.950 -0.0095 -0.2548 -0.0009
 1130BOLB   C3A27103  23.075  13.612  12.497  0.1368  0.0452  0.0016
 1130BOLB   C4A27104  23.265  13.503  12.101 -0.0818  0.4867  0.1706
 1130BOLB   C1B27105  22.362  13.460  12.568 -0.3844 -0.1150 -0.2860
 1130BOLB   C2B27106  22.658  13.499  12.206  0.1081 -0.0524  0.0340
 1130BOLB   C3B27107  22.626  13.411  11.749  0.3898 -0.0591  0.0424
 1130BOLB   C4B27108  23.051  13.363  11.518 -0.3046 -0.0232  0.1445
 1130BOLB   NC227109  24.383  13.830   9.731  0.0426 -0.0760  0.1341
 1130BOLB   PO227110  24.670  13.843  10.068 -0.1867  0.2234  0.2113
 1130BOLB   GL327111  24.451  13.587  10.345 -0.2109  0.0482 -0.1672
 1130BOLB   GL427112  24.567  13.268  10.566  0.2068  0.1740  0.2349
 1130BOLB   C1C27113  24.021  13.452  10.426 -0.2444  0.0523 -0.0944
 1130BOLB   C2C27114  23.731  13.339  10.826  0.0590  0.1094  0.3090
 1130BOLB   C3C27115  23.570  13.336  11.227  0.0164 -0.4767 -0.1075
 1130BOLB   C4C27116  23.491  13.269  11.678  0.0570 -0.1473 -0.0928
 1130BOLB   C1D27117  24.252  13.088  10.850 -0.2211  0.1294  0.1310
 1130BOLB   C2D27118  24.182  12.815  11.272  0.0803 -0.0198 -0.3385
 1130BOLB   C3D27119  23.972  12.542  11.403 -0.3084  0.2393 -0.1784
 1130BOLB   C4D27120  23.850  12.314  11.813  0.2612  0.2894  0.0354
 1131BOLB   NC127121  14.748  22.073  11.584  0.0001  0.1443  0.1572
 1131BOLB   PO127122  15.144  22.192  11.753  0.0725 -0.1158  0.0904
 1131BOLB   GL127123  15.197  22.465  11.355 -0.0739  0.3798  0.1130
 1131BOLB   GL227124  14.860  22.491  11.294  0.1474 -0.0630  0.1557
 1131BOLB   C1A27125  15.385  22.766  11.156 -0.2247  0.0522 -0.3697
 1131BOLB   C2A27126  15.423  22.785  10.692  0.2357 -0.1404 -0.1211
 1131BOLB   C3A27127  15.265  22.772  10.262 -0.2883  0.1790  0.0891
 1131BOLB   C4A27128  15.356  22.890   9.942  0.0360  0.2313  0.0543
 1131BOLB   C1B27129  14.649  22.563  10.973  0.2868  0.2179  0.4367
 1131BOLB   C2B27130  14.403  22.512  10.630  0.0935  0.0022  0.1731
 1131BOLB   C3B27131  14.510  22.222  10.206 -0.1395 -0.2046  0.1415
 1131BOLB   C4B27132  14.601  22.035   9.795 -0.4121  0.0882  0.0235
 1131BOLB   NC227133  15.796  23.916   7.615 -0.2543 -0.2719  0.2451
 1131BOLB   PO227134  15.571  24.112   7.991 -0.0185  0.3638  0.2817
 1131BOLB   GL327135  15.730  23.696   8.119  0.0690 -0.3637 -0.1854
 1131BOLB   GL427136  15.992  23.576   7.966 -0.2643 -0.0366 -0.0930
 1131BOLB   C1C27137  15.634  23.467   8.544  0.0474 -0.2348  0.3882
 1131BOLB   C2C27138  15.565  23.159   8.878  0.1662  0.1851  0.0573
 1131BOLB   C3C27139  15.374  23.237   9.297  0.1384  0.0974  0.0318
 1131BOLB   C4C27140  15.210  23.150   9.676 -0.0924 -0.0599 -0.1984
 1131BOLB   C1D27141  16.045  23.252   8.272  0.0206 -0.2921  0.0519
 1131BOLB   C2D27142  16.227  23.171   8.717  0.0654  0.0632 -0.0238
 1131BOLB   C3D27143  16.084  23.036   9.086 -0.0365 -0.2824  0.1094
 1131BOLB   C4D27144  16.025  23.092   9.501 -0.3844 -0.0335  0.0263
 1132BOLB   NC127145  21.032  22.507  13.988 -0.0811 -0.0105 -0.1538
 1132BOLB   PO127146  21.046  22.866  13.763 -0.0101 -0.0427  0.1193
 1132BOLB   GL127147  21.369  23.173  13.776 -0.0929  0.0913 -0.2457
 1132BOLB   GL227148  21.626  23.094  13.945 -0.0133 -0.0957 -0.1182
 1132BOLB   C1A27149  21.412  23.668  13.723  0.1407  0.1482 -0.1720
 1132BOLB   C2A27150  21.761  23.904  13.917  0.0667  0.4060 -0.2549
 1132BOLB   C3A27151  22.048  24.168  13.701  0.0199  0.1166  0.1847
 1132BOLB   C4A27152  22.375  24.450  13.745  0.2644 -0.1485  0.0072
 1132BOLB   C1B27153  21.876  23.404  13.785  0.1071 -0.0259  0.3391
 1132BOLB   C2B27154  22.230  23.653  13.638  0.1006 -0.2546  0.2578
 1132BOLB   C3B27155  22.650  23.593  13.507  0.0641  0.3275  0.0858
 1132BOLB   C4B27156  23.011  23.551  13.162 -0.1678 -0.2365 -0.2077
 1132BOLB   NC227157  23.162  26.404  13.538 -0.0031  0.1257 -0.4497
 1132BOLB   PO227158  23.487  26.141  13.407  0.0683  0.0749 -0.2585
 1132BOLB   GL327159  23.534  25.897  13.751  0.0569  0.1094 -0.0652
 1132BOLB   GL427160  23.517  26.135  13.971 -0.1352  0.0252  0.1757
 1132BOLB   C1C27161  23.370  25.540  13.970 -0.3077 -0.0172  0.3822
 1132BOLB   C2C27162  23.054  25.238  14.058 -0.0571  0.3757 -0.0094
 1132BOLB   C3C27163  22.666  24.994  14.141  0.0946  0.5576 -0.1665
 1132BOLB   C4C27164  22.610  24.621  14.020  0.0382 -0.0305 -0.4906
 1132BOLB   C1D27165  23.162  25.983  14.119 -0.2218  0.1136 -0.0959
 1132BOLB   C2D27166  22.767  25.864  14.015 -0.0194 -0.0950  0.3577
 1132BOLB   C3D27167  22.454  26.006  13.852 -0.1533  0.0951 -0.3011
 1132BOLB   C4D27168  22.097  26.261  13.888 -0.0432 -0.2502  0.0144
 1133BOLB   NC127169  21.056  11.255  13.260 -0.1949 -0.1641 -0.0442
 1133BOLB   PO127170  20.569  11.320  13.281  0.1778  0.1842  0.1432
 1133BOLB   GL127171  20.696  11.317  12.901 -0.1171  0.0893  0.2054
 1133BOLB   GL227172  21.018  11.081  12.716  0.0354 -0.2789 -0.1182
 1133BOLB   C1A27173  20.551  11.225  12.474  0.0631 -0.1453  0.0658
 1133BOLB   C2A27174  20.614  10.962  12.098  0.3197 -0.0802  0.1054
 1133BOLB   C3A27175  20.846  10.931  11.762  0.1448  0.0269  0.2016
 1133BOLB   C4A27176  21.289  10.843  11.537  0.1607 -0.2486 -0.0411
 1133BOLB   C1B27177  20.998  10.836  12.375 -0.0601 -0.1127  0.1740
 1133BOLB   C2B27178  20.983  10.541  12.024  0.0026 -0.0761 -0.2504
 1133BOLB   C3B27179  21.012  10.122  11.857 -0.2425 -0.0470  0.1361
 1133BOLB   C4B27180  20.761   9.949  11.631  0.2783  0.0304  0.0457
 1133BOLB   NC227181  22.319  10.077   9.348  0.2152 -0.1862  0.1966
 1133BOLB   PO227182  21.944  10.143   9.514  0.1913  0.1105 -0.2268
 1133BOLB   GL327183  21.886  10.304   9.957 -0.0960  0.1548 -0.0069
 1133BOLB   GL427184  22.169  10.472  10.043  0.0223 -0.0946  0.1687
 1133BOLB   C1C27185  21.654  10.614  10.122  0.0565 -0.2528  0.3436
 1133BOLB   C2C27186  21.548  10.698  10.461 -0.0952  0.1505 -0.2542
 1133BOLB   C3C27187  21.536  10.598  10.855  0.1777  0.0993 -0.1308
 1133BOLB   C4C27188  21.507  10.634  11.295 -0.0690  0.2150 -0.1071
 1133BOLB   C1D27189  22.089  10.515  10.368  0.0990  0.1733 -0.1184
 1133BOLB   C2D27190  22.004  10.802  10.582 -0.0820  0.3252  0.1644
 1133BOLB   C3D27191  22.242  11.187  10.511 -0.0134  0.3081  0.0742
 1133BOLB   C4D27192  22.589  11.331  10.639 -0.1346  0.1487  0.0978
 1134BOLB   NC127193  14.681  16.265  11.341  0.1335 -0.1223 -0.1165
 1134BOLB   PO127194  15.057  16.439  11.562  0.0557  0.3343 -0.0907
 1134BOLB   GL127195  15.215  16.400  11.103  0.1337 -0.1766 -0.0322
 1134BOLB   GL227196  14.883  16.449  10.750 -0.1782 -0.0502 -0.3776
 1134BOLB   C1A27197  15.437  16.200  10.816  0.1735  0.1725  0.1343
 1134BOLB   C2A27198  15.535  16.356  10.328 -0.2029  0.3203  0.1436
 1134BOLB   C3A27199  15.580  16.315   9.896  0.0754  0.1969  0.3451
 1134BOLB   C4A27200  15.826  16.143   9.552 -0.1614 -0.0214 -0.2431
 1134BOLB   C1B27201  15.036  16.469  10.323 -0.0555 -0.1155  0.0828
 1134BOLB   C2B27202  15.051  16.544   9.890 -0.2170 -0.3020  0.2687
 1134BOLB   C3B27203  15.317  16.414   9.410 -0.0686 -0.1531  0.3820
 1134BOLB   C4B27204  15.618  16.715   9.152  0.0872 -0.0538 -0.1613
 1134BOLB   NC227205  15.591  15.506   6.845 -0.0300  0.3284 -0.3068
 1134BOLB   PO227206  15.695  15.815   7.201  0.2067 -0.0603 -0.5141
 1134BOLB   GL327207  15.466  15.919   7.596  0.0671  0.2376  0.1729
 1134BOLB   GL427208  15.460  15.560   7.710 -0.0097  0.0107  0.2253
 1134BOLB   C1C27209  15.315  15.973   7.986 -0.2124 -0.3295  0.0184
 1134BOLB   C2C27210  15.247  16.152   8.448  0.1943 -0.0837 -0.0462
 1134BOLB   C3C27211  15.357  16.293   8.820 -0.2498  0.0100  0.1283
 1134BOLB   C4C27212  15.696  16.217   9.145  0.0319 -0.0571  0.2317
 1134BOLB   C1D27213  15.253  15.414   7.972  0.1852  0.0261 -0.2667
 1134BOLB   C2D27214  15.423  15.111   8.355 -0.2368 -0.1960 -0.3158
 1134BOLB   C3D27215  15.735  14.853   8.333  0.4176 -0.2814 -0.3823
 1134BOLB   C4D27216  15.955  14.664   8.601 -0.1383  0.0660 -0.2011
 1135BOLB   NC127217  14.347  13.455  11.414  0.1850 -0.1481  0.1793
 1135BOLB   PO127218  14.217  13.826  11.297 -0.0417 -0.3484 -0.2062
 1135BOLB   GL127219  14.140  13.591  10.964 -0.0488 -0.1196  0.0339
 1135BOLB   GL227220  14.049  13.755  10.844  0.2631 -0.2049  0.3380
 1135BOLB   C1A27221  14.176  13.342  10.556 -0.1939  0.0740 -0.0408
 1135BOLB   C2A27222  14.329  13.193  10.140  0.0243 -0.0143  0.0991
 1135BOLB   C3A27223  14.307  13.201   9.674 -0.1738  0.1778  0.1882
 1135BOLB   C4A27224  14.713  13.160   9.430 -0.1108  0.0692 -0.4232
 1135BOLB   C1B27225  14.125  13.880  10.418  0.1852 -0.1373 -0.2533
 1135BOLB   C2B27226  14.053  13.856   9.978 -0.1986 -0.2071  0.2290
 1135BOLB   C3B27227  13.897  13.602   9.739 -0.2337 -0.0169  0.0133
 1135BOLB   C4B27228  13.597  13.645   9.405 -0.0805 -0.1466 -0.1332
 1135BOLB   NC227229  14.896  12.868   7.279 -0.3440 -0.0505 -0.1210
 1135BOLB   PO227230  15.163  12.566   7.192  0.1177 -0.2171  0.1095
 1135BOLB   GL327231  15.247  12.654   7.655  0.1015 -0.1534  0.1677
 1135BOLB   GL427232  15.108  13.016   7.775 -0.1591 -0.0228  0.1453
 1135BOLB   C1C27233  15.348  12.666   8.038 -0.2008  0.0972  0.1053
 1135BOLB   C2C27234  15.279  12.908   8.379  0.0011  0.0416 -0.3102
 1135BOLB   C3C27235  15.214  13.027   8.727 -0.1008  0.1539 -0.0757
 1135BOLB   C4C27236  15.046  13.025   9.130 -0.0126  0.2450 -0.1851
 1135BOLB   C1D27237  15.050  13.317   8.049 -0.2259  0.0937  0.2613
 1135BOLB   C2D27238  15.185  13.521   8.460  0.0327  0.0961 -0.0698
 1135BOLB   C3D27239  14.967  13.493   8.900  0.1560 -0.4229  0.0623
 1135BOLB   C4D27240  15.095  13.605   9.211 -0.0367  0.1945 -0.3182
 1136BOLB   NC127241  15.120  21.702  12.026 -0.1423 -0.1806  0.4122
 1136BOLB   PO127242  14.738  21.626  11.753  0.3684 -0.2687  0.2011
 1136BOLB   GL127243  14.481  21.729  11.335 -0.3021  0.3538 -0.0591
 1136BOLB   GL227244  14.167  21.749  11.466 -0.1687  0.0652  0.1138
 1136BOLB   C1A27245  14.423  21.997  11.049 -0.0546  0.3156  0.1353
 1136BOLB   C2A27246  14.689  22.072  10.631 -0.1856 -0.2104 -0.2574
 1136BOLB   C3A27247  14.986  22.173  10.330  0.0368 -0.0254 -0.1385
 1136BOLB   C4A27248  15.034  22.493   9.937  0.1139  0.0304 -0.0339
 1136BOLB   C1B27249  14.072  21.619  11.004  0.0070 -0.1108 -0.2547
 1136BOLB   C2B27250  13.873  21.870  10.726 -0.4482 -0.0468 -0.0956
 1136BOLB   C3B27251  13.946  21.973  10.279 -0.0412  0.2655 -0.1337
 1136BOLB   C4B27252  14.032  22.125   9.992  0.0198 -0.3158  0.0155
 1136BOLB   NC227253  13.631  23.356   8.096  0.2204  0.1636 -0.0603
 1136BOLB   PO227254  14.131  23.299   8.005  0.1540  0.0477  0.0645
 1136BOLB   GL327255  14.251  23.361   8.359 -0.1952  0.1050  0.0850
 1136BOLB   GL427256  14.586  23.465   8.499  0.0553 -0.4106 -0.1137
 1136BOLB   C1C27257  14.672  22.989   8.492 -0.3557  0.0347 -0.3860
 1136BOLB   C2C27258  15.062  22.837   8.697  0.1073 -0.2618 -0.1397
 1136BOLB   C3C27259  15.220  22.709   9.143 -0.3262 -0.1477  0.1059
 1136BOLB   C4C27260  15.258  22.612   9.579  0.2991  0.1521  0.2342
 1136BOLB   C1D27261  14.403  23.371   8.827  0.0797 -0.3384  0.0391
 1136BOLB   C2D27262  14.218  22.999   8.893  0.1500 -0.0371  0.2328
 1136BOLB   C3D27263  13.805  22.963   9.070  0.1093  0.1738  0.2536
 1136BOLB   C4D27264  13.483  23.132   9.056  0.0222 -0.1031  0.4258
 1137BOLB   NC127265  22.246  16.721  13.121 -0.0386  0.0547  0.2397
 1137BOLB   PO127266  22.450  16.987  13.228 -0.1427  0.2090 -0.0089
 1137BOLB   GL127267  22.787  16.981  12.958  0.1802  0.1392 -0.0598
 1137BOLB   GL227268  23.008  17.232  13.034 -0.1196 -0.1483 -0.1009
 1137BOLB   C1A27269  22.936  16.825  12.524  0.2997 -0.3391  0.1275
 1137BOLB   C2A27270  22.988  16.663  12.065  0.0999 -0.2239 -0.1032
 1137BOLB   C3A27271  22.953  16.515  11.626 -0.1686  0.0781 -0.4220
 1137BOLB   C4A27272  23.073  16.422  11.244  0.3149  0.0810  0.2708
 1137BOLB   C1B27273  23.439  17.176  12.940 -0.1302 -0.0637 -0.1346
 1137BOLB   C2B27274  23.672  17.271  12.621 -0.0081 -0.2729  0.2548
 1137BOLB   C3B27275  23.907  17.592  12.212 -0.2444  0.1026  0.1175
 1137BOLB   C4B27276  24.302  17.875  12.219  0.1213 -0.2633 -0.0191
 1137BOLB   NC227277  24.684  15.444   9.053  0.1450 -0.0919 -0.1587
 1137BOLB   PO227278  24.693  15.698   9.457 -0.2748 -0.1172 -0.1973
 1137BOLB   GL327279  24.380  15.668   9.795 -0.1088 -0.0427 -0.2589
 1137BOLB   GL427280  24.706  15.697   9.959 -0.1345 -0.2361  0.0173
 1137BOLB   C1C27281  24.033  15.980   9.926 -0.0793  0.0739  0.1203
 1137BOLB   C2C27282  23.773  16.047  10.260 -0.0726  0.0472 -0.1829
 1137BOLB   C3C27283  23.531  16.247  10.671 -0.1571 -0.0729 -0.2931
 1137BOLB   C4C27284  23.188  16.307  10.879  0.2422  0.0281  0.0187
 1137BOLB   C1D27285  24.461  15.894  10.260 -0.1438 -0.0261  0.1891
 1137BOLB   C2D27286  24.170  15.994  10.562 -0.0326  0.0591 -0.1824
 1137BOLB   C3D27287  23.879  15.932  10.851 -0.2914  0.1643  0.0216
 1137BOLB   C4D27288  23.836  15.496  11.157  0.0376 -0.1683  0.1069
 1138BOLB   NC127289  13.430  22.337  11.771 -0.0552 -0.3577  0.6195
 1138BOLB   PO127290  13.667  22.427  11.412 -0.0635 -0.1218 -0.1832
 1138BOLB   GL127291  13.549  22.608  11.042 -0.0437 -0.4141  0.1924
 1138BOLB   GL227292  13.364  22.325  10.911  0.1183  0.0459  0.4014
 1138BOLB   C1A27293  13.604  22.776  10.721 -0.4004 -0.1851  0.1223
 1138BOLB   C2A27294  13.992  22.889  10.490 -0.0209  0.0540 -0.1555
 1138BOLB   C3A27295  14.184  22.698  10.123 -0.3272  0.4238  0.4439
 1138BOLB   C4A27296  14.384  22.634   9.800  0.1043  0.0837 -0.0327
 1138BOLB   C1B27297  13.192  22.519  10.658 -0.2845 -0.0062  0.3511
 1138BOLB   C2B27298  13.125  22.588  10.278 -0.2191 -0.2510 -0.2576
 1138BOLB   C3B27299  13.245  22.564   9.774  0.1533  0.0837 -0.0427
 1138BOLB   C4B27300  13.277  22.921   9.483  0.1037 -0.1638  0.3498
 1138BOLB   NC227301  15.119  22.585   7.699  0.0032  0.0438  0.1855
 1138BOLB   PO227302  14.728  22.423   7.457  0.4448 -0.1392  0.0359
 1138BOLB   GL327303  14.618  22.454   7.928  0.2568 -0.2991  0.1052
 1138BOLB   GL427304  14.378  22.182   8.034  0.2441 -0.0725  0.0431
 1138BOLB   C1C27305  14.620  22.511   8.399 -0.1492 -0.2218  0.0079
 1138BOLB   C2C27306  14.515  22.502   8.862  0.3116  0.4271 -0.0713
 1138BOLB   C3C27307  14.687  22.625   9.188  0.1001 -0.0997  0.2049
 1138BOLB   C4C27308  14.665  22.521   9.605 -0.2084 -0.0699  0.1426
 1138BOLB   C1D27309  14.505  22.000   8.385 -0.0200 -0.1073 -0.1649
 1138BOLB   C2D27310  14.766  21.899   8.733 -0.0516  0.0582 -0.3208
 1138BOLB   C3D27311  14.791  21.583   8.920 -0.0870  0.0686 -0.1632
 1138BOLB   C4D27312  15.115  21.303   8.987  0.1674  0.2559  0.0861
 1139BOLB   NC127313  10.720   8.426  12.086  0.3387  0.2188  0.1969
 1139BOLB   PO127314  10.361   8.278  12.156  0.3857  0.0922  0.2277
 1139BOLB   GL127315  10.495   8.172  11.733  0.1734  0.2969 -0.2855
 1139BOLB   GL227316  10.772   8.057  11.678  0.1432  0.0269  0.1210
 1139BOLB   C1A27317  10.502   8.392  11.335  0.0189  0.1536  0.1640
 1139BOLB   C2A27318  10.822   8.681  11.164  0.1279 -0.0139 -0.0947
 1139BOLB   C3A27319  10.824   8.665  10.740 -0.0614 -0.5012 -0.1329
 1139BOLB   C4A27320  10.772   8.506  10.328  0.3887 -0.2527 -0.3678
 1139BOLB   C1B27321  10.870   8.075  11.239  0.0547 -0.0844  0.2145
 1139BOLB   C2B27322  10.702   8.183  10.884  0.0780 -0.0991  0.2353
 1139BOLB   C3B27323  10.422   8.446  10.645  0.0813  0.2909  0.0486
 1139BOLB   C4B27324  10.256   8.100  10.315 -0.1976 -0.0774 -0.0003
 1139BOLB   NC227325  10.892   8.440   7.841  0.2189 -0.1349 -0.1920
 1139BOLB   PO227326  10.693   8.869   8.057 -0.1732  0.1710  0.2341
 1139BOLB   GL327327  10.679   8.731   8.373  0.1695 -0.0506  0.2969
 1139BOLB   GL427328  10.475   8.886   8.568  0.2019 -0.2395  0.1190
 1139BOLB   C1C27329  10.793   8.466   8.682  0.1395 -0.2960  0.1386
 1139BOLB   C2C27330  10.814   8.459   9.088  0.2811 -0.1238  0.0924
 1139BOLB   C3C27331  10.849   8.352   9.550 -0.3009 -0.2113  0.1449
 1139BOLB   C4C27332  10.943   8.522   9.978  0.1175  0.0771 -0.1242
 1139BOLB   C1D27333  10.545   9.188   8.962 -0.2840 -0.1486  0.2586
 1139BOLB   C2D27334  10.400   9.091   9.497  0.0013 -0.1061  0.0886
 1139BOLB   C3D27335   9.970   8.875   9.619 -0.1017  0.4519 -0.1794
 1139BOLB   C4D27336   9.666   9.059   9.721 -0.1532 -0.1690  0.0284
 1140BOLB   NC127337  12.280  20.546  11.594  0.0746  0.0222 -0.0189
 1140BOLB   PO127338  12.678  20.712  11.564 -0.0220 -0.0883 -0.1276
 1140BOLB   GL127339  12.578  20.589  11.130 -0.1627 -0.2466 -0.1175
 1140BOLB   GL227340  12.139  20.715  11.112  0.2862  0.0161  0.3344
 1140BOLB   C1A27341  12.467  20.731  10.704 -0.1401 -0.0042  0.1428
 1140BOLB   C2A27342  12.365  20.668  10.249 -0.1914  0.2064 -0.0026
 1140BOLB   C3A27343  12.272  20.568   9.852 -0.2311 -0.0888 -0.0171
 1140BOLB   C4A27344  12.408  20.820   9.401 -0.2466 -0.1351  0.0264
 1140BOLB   C1B27345  12.252  21.127  10.903 -0.0995  0.1119  0.3008
 1140BOLB   C2B27346  12.391  21.442  10.620  0.0249 -0.0971  0.0557
 1140BOLB   C3B27347  12.430  21.285  10.241 -0.1233 -0.1185 -0.1585
 1140BOLB   C4B27348  12.306  21.059   9.895 -0.1648  0.2087 -0.2624
 1140BOLB   NC227349  13.203  20.147   6.781  0.1411  0.0700  0.0358
 1140BOLB   PO227350  13.138  20.428   7.089 -0.1302  0.1064  0.1230
 1140BOLB   GL327351  12.821  20.524   7.466 -0.0413 -0.1756 -0.1571
 1140BOLB   GL427352  12.681  20.824   7.617  0.0251 -0.0582 -0.3073
 1140BOLB   C1C27353  12.568  20.366   7.823 -0.2101 -0.0298  0.0018
 1140BOLB   C2C27354  12.725  20.437   8.202 -0.1685  0.0686  0.1232
 1140BOLB   C3C27355  12.812  20.545   8.633  0.1196 -0.2876  0.0232
 1140BOLB   C4C27356  12.668  20.855   8.986  0.2133  0.0297 -0.1387
 1140BOLB   C1D27357  12.377  20.813   7.931 -0.0389  0.1447 -0.1824
 1140BOLB   C2D27358  12.507  20.851   8.390 -0.3084  0.1534  0.0851
 1140BOLB   C3D27359  12.812  21.047   8.549  0.0943  0.1997  0.0469
 1140BOLB   C4D27360  12.990  21.246   8.956 -0.1834 -0.2235  0.1718
 1141BOLB   NC127361  19.064   8.772  15.415  0.3547 -0.0790  0.3473
 1141BOLB   PO127362  19.425   8.718  15.112  0.0954 -0.1656 -0.1720
 1141BOLB   GL127363  19.385   8.545  14.780  0.1482  0.0718  0.0669
 1141BOLB   GL227364  19.144   8.511  14.418  0.0408  0.1749  0.1143
 1141BOLB   C1A27365  19.584   8.196  14.760  0.0821 -0.1694 -0.1380
 1141BOLB   C2A27366  19.812   7.988  14.479 -0.1113 -0.0147 -0.0443
 1141BOLB   C3A27367  20.034   8.040  14.066  0.0302 -0.0302  0.0369
 1141BOLB   C4A27368  20.284   8.010  13.694 -0.2640  0.0864 -0.1540
 1141BOLB   C1B27369  19.295   8.050  14.371  0.0536 -0.2365  0.0148
 1141BOLB   C2B27370  19.580   7.725  14.071 -0.2919  0.1192  0.2142
 1141BOLB   C3B27371  19.817   7.731  13.669  0.0399 -0.5528  0.3224
 1141BOLB   C4B27372  19.589   7.700  13.291 -0.0106 -0.2863 -0.0551
 1141BOLB   NC227373  21.198   6.265  12.041 -0.1215  0.4571  0.0208
 1141BOLB   PO227374  21.469   6.159  12.445  0.0743 -0.1061  0.0190
 1141BOLB   GL327375  21.213   6.375  12.837  0.1367  0.1066 -0.1488
 1141BOLB   GL427376  21.279   6.728  12.813  0.0292  0.0192 -0.1862
 1141BOLB   C1C27377  20.827   6.615  12.949 -0.1687 -0.0255  0.0203
 1141BOLB   C2C27378  20.785   7.080  13.068 -0.1423  0.0740 -0.1283
 1141BOLB   C3C27379  20.564   7.390  13.340  0.0808  0.0269 -0.0829
 1141BOLB   C4C27380  20.313   7.714  13.419  0.0414 -0.2642 -0.0473
 1141BOLB   C1D27381  21.071   7.019  12.652  0.2618 -0.0049  0.0371
 1141BOLB   C2D27382  20.904   7.271  12.273 -0.0066  0.0278 -0.0198
 1141BOLB   C3D27383  20.522   7.346  12.111  0.1622  0.0306  0.0875
 1141BOLB   C4D27384  20.232   7.205  12.257 -0.0442  0.0348 -0.0417
 1142BOLB   NC127385  15.700  13.806  11.354  0.3033 -0.0917  0.0117
 1142BOLB   PO127386  16.020  13.492  11.258  0.1353 -0.0000 -0.0806
 1142BOLB   GL127387  15.719  13.479  10.956  0.2549  0.0389 -0.0819
 1142BOLB   GL227388  15.557  13.169  11.083  0.5124  0.0950 -0.1613
 1142BOLB   C1A27389  15.911  13.406  10.546 -0.0641 -0.0435 -0.0622
 1142BOLB   C2A27390  15.941  13.455  10.119  0.1514  0.0579  0.3046
 1142BOLB   C3A27391  16.261  13.495   9.709 -0.2492 -0.0407 -0.4239
 1142BOLB   C4A27392  16.637  13.245   9.508  0.3780 -0.2464 -0.0287
 1142BOLB   C1B27393  15.599  12.998  10.741 -0.3043 -0.0632  0.1421
 1142BOLB   C2B27394  15.746  12.912  10.241 -0.1566  0.0016  0.2368
 1142BOLB   C3B27395  15.805  13.063   9.811  0.0390  0.1219 -0.3271
 1142BOLB   C4B27396  15.947  13.051   9.412  0.3427 -0.0722 -0.0036
 1142BOLB   NC227397  16.854  12.218   7.406  0.1686 -0.0753 -0.1925
 1142BOLB   PO227398  17.226  11.924   7.608  0.2525  0.1827 -0.1787
 1142BOLB   GL327399  17.028  12.193   7.897 -0.2815  0.0779  0.2453
 1142BOLB   GL427400  16.778  12.407   7.893  0.0556  0.2368 -0.1741
 1142BOLB   C1C27401  17.075  12.711   8.151  0.0707 -0.0953  0.0910
 1142BOLB   C2C27402  17.104  12.957   8.445 -0.1445  0.4862 -0.0662
 1142BOLB   C3C27403  17.213  13.143   8.866  0.5250 -0.1549 -0.1368
 1142BOLB   C4C27404  16.881  13.155   9.096  0.2276 -0.0823  0.1640
 1142BOLB   C1D27405  16.565  12.656   8.233  0.2113 -0.3080  0.3349
 1142BOLB   C2D27406  16.212  12.918   8.397 -0.3167 -0.1377  0.1452
 1142BOLB   C3D27407  16.064  13.051   8.784 -0.0294  0.1353 -0.2719
 1142BOLB   C4D27408  16.320  13.304   9.114 -0.0393  0.1873 -0.1486
 1143BOLB   NC127409  17.935  21.241  11.543  0.3596  0.2431 -0.2364
 1143BOLB   PO127410  17.867  20.846  11.866  0.0008  0.4201  0.4265
 1143BOLB   GL127411  17.737  20.707  11.407 -0.2237  0.0516 -0.1757
 1143BOLB   GL227412  17.579  20.884  11.399 -0.2871 -0.2424  0.4057
 1143BOLB   C1A27413  17.777  20.599  10.935  0.1863 -0.0767 -0.0105
 1143BOLB   C2A27414  18.014  20.584  10.490  0.0305  0.0521  0.4712
 1143BOLB   C3A27415  18.223  20.869  10.467  0.0124 -0.0627  0.0668
 1143BOLB   C4A27416  18.265  21.102  10.164  0.1164 -0.0893 -0.0697
 1143BOLB   C1B27417  17.365  20.978  10.904  0.0414  0.2340 -0.0020
 1143BOLB   C2B27418  17.697  21.042  10.578  0.0984 -0.1271  0.1744
 1143BOLB   C3B27419  17.680  20.873  10.168  0.0783 -0.0348  0.2556
 1143BOLB   C4B27420  17.774  20.751   9.764  0.1837  0.1014  0.0516
 1143BOLB   NC227421  18.428  21.042   7.247 -0.2003  0.0724  0.1554
 1143BOLB   PO227422  18.565  21.096   7.678  0.1149 -0.3714  0.1002
 1143BOLB   GL327423  18.441  20.790   7.984 -0.1900 -0.1619 -0.0818
 1143BOLB   GL427424  18.667  20.456   8.080 -0.1181 -0.0794  0.0976
 1143BOLB   C1C27425  18.466  20.910   8.476 -0.1208  0.2769 -0.1005
 1143BOLB   C2C27426  18.526  21.014   8.831  0.1702  0.0641  0.1768
 1143BOLB   C3C27427  18.471  21.128   9.281  0.1230 -0.0986  0.1864
 1143BOLB   C4C27428  18.263  21.188   9.694  0.2081 -0.1590 -0.0920
 1143BOLB   C1D27429  18.523  20.257   8.377  0.4067 -0.4428  0.0265
 1143BOLB   C2D27430  18.075  20.383   8.498 -0.0970  0.0704 -0.1757
 1143BOLB   C3D27431  17.711  20.126   8.703 -0.3495  0.0299  0.0863
 1143BOLB   C4D27432  17.379  19.879   8.724  0.1854  0.2116 -0.2516
 1144BOLB   NC127433  11.283  18.949  11.447 -0.0915  0.0664 -0.2125
 1144BOLB   PO127434  11.660  19.169  11.669  0.1884 -0.0626  0.0612
 1144BOLB   GL127435  11.645  19.200  11.229  0.0869  0.1296  0.1212
 1144BOLB   GL227436  11.704  18.898  11.044 -0.5164 -0.1226  0.1750
 1144BOLB   C1A27437  11.661  19.534  10.840 -0.6119  0.0364 -0.0942
 1144BOLB   C2A27438  11.667  19.596  10.378  0.0522  0.0093  0.4569
 1144BOLB   C3A27439  11.696  19.858   9.941 -0.2851 -0.2623 -0.1282
 1144BOLB   C4A27440  11.908  19.850   9.580 -0.2048 -0.0930  0.2298
 1144BOLB   C1B27441  11.510  19.094  10.644  0.1469  0.0412  0.3763
 1144BOLB   C2B27442  11.217  19.393  10.606  0.0393 -0.3758  0.1119
 1144BOLB   C3B27443  11.205  19.831  10.514 -0.1461  0.1939  0.4385
 1144BOLB   C4B27444  11.271  20.257  10.324  0.0168  0.2400 -0.0682
 1144BOLB   NC227445  12.453  19.578   7.024 -0.2028 -0.0201 -0.0412
 1144BOLB   PO227446  12.140  19.775   7.258  0.2560 -0.1716  0.3689
 1144BOLB   GL327447  12.299  19.522   7.521 -0.0911  0.1764 -0.1500
 1144BOLB   GL427448  12.062  19.318   7.585 -0.3899  0.3894  0.1150
 1144BOLB   C1C27449  12.383  19.574   7.978  0.1072 -0.2407  0.2831
 1144BOLB   C2C27450  12.564  19.646   8.352 -0.1008 -0.0656 -0.2263
 1144BOLB   C3C27451  12.413  19.832   8.836  0.0337 -0.0504  0.0491
 1144BOLB   C4C27452  12.059  19.788   9.041 -0.0046 -0.1698 -0.2994
 1144BOLB   C1D27453  11.891  19.415   7.953 -0.0321 -0.3427 -0.0344
 1144BOLB   C2D27454  11.664  19.581   8.340 -0.0365 -0.2667  0.3270
 1144BOLB   C3D27455  11.164  19.527   8.512 -0.2151 -0.1097  0.1037
 1144BOLB   C4D27456  10.858  19.296   8.648  0.1469  0.1148 -0.1577
 1145BOLB   NC127457  17.897  13.463  11.340  0.2797  0.1482 -0.3716
 1145BOLB   PO127458  18.069  13.763  11.454 -0.0711 -0.2651 -0.4638
 1145BOLB   GL127459  17.928  13.931  11.104  0.1954  0.0985 -0.3916
 1145BOLB   GL227460  17.702  13.847  11.031 -0.0028 -0.1012  0.1647
 1145BOLB   C1A27461  18.007  13.923  10.636  0.1695  0.0498  0.0627
 1145BOLB   C2A27462  18.276  14.065  10.324 -0.3637  0.1072  0.0666
 1145BOLB   C3A27463  18.764  14.072  10.150  0.0893  0.1023  0.1083
 1145BOLB   C4A27464  18.971  14.008   9.757 -0.3417  0.1030 -0.0697
 1145BOLB   C1B27465  17.587  13.705  10.526  0.3135 -0.1834 -0.1418
 1145BOLB   C2B27466  17.712  13.912  10.148 -0.0405 -0.2568  0.1508
 1145BOLB   C3B27467  17.940  13.930   9.806 -0.4220  0.0828 -0.2293
 1145BOLB   C4B27468  18.037  13.752   9.569 -0.1418  0.3503  0.4247
 1145BOLB   NC227469  19.818  13.954   7.743 -0.0965 -0.1665 -0.4499
 1145BOLB   PO227470  19.499  14.134   7.786  0.1078  0.0203  0.0532
 1145BOLB   GL327471  19.404  13.947   8.083  0.0999  0.0101  0.3625
 1145BOLB   GL427472  19.529  14.156   8.293  0.1088  0.0895 -0.0724
 1145BOLB   C1C27473  19.381  13.638   8.331 -0.0856 -0.0400  0.0038
 1145BOLB   C2C27474  19.130  13.342   8.707 -0.0281  0.0357  0.4464
 1145BOLB   C3C27475  18.841  13.507   9.114 -0.0154  0.3631 -0.0419
 1145BOLB   C4C27476  18.837  13.784   9.410 -0.3819  0.1279 -0.1065
 1145BOLB   C1D27477  19.567  14.338   8.590 -0.2354 -0.2795  0.2538
 1145BOLB   C2D27478  19.861  14.591   8.732  0.0207  0.2200  0.2402
 1145BOLB   C3D27479  19.826  14.954   8.959 -0.0475 -0.1514 -0.0366
 1145BOLB   C4D27480  19.941  15.345   9.032 -0.0013 -0.0329  0.0836
 1146BOLB   NC127481  20.012  17.785  12.118 -0.0858  0.0284 -0.1952
 1146BOLB   PO127482  20.371  18.033  12.193  0.4748  0.0581 -0.1353
 1146BOLB   GL127483  20.589  17.929  11.735  0.2070 -0.2932  0.1285
 1146BOLB   GL227484  20.714  17.668  11.571  0.1604  0.0801  0.0676
 1146BOLB   C1A27485  20.852  18.252  11.465  0.1296 -0.5221 -0.3651
 1146BOLB   C2A27486  21.111  18.446  11.134 -0.0961  0.0839 -0.1906
 1146BOLB   C3A27487  21.131  18.563  10.650 -0.2935  0.2555  0.1036
 1146BOLB   C4A27488  21.170  18.349  10.255  0.0041 -0.0045  0.0311
 1146BOLB   C1B27489  20.850  17.816  11.263 -0.0898  0.2509  0.1854
 1146BOLB   C2B27490  21.029  17.674  10.883  0.1754 -0.0212 -0.1751
 1146BOLB   C3B27491  20.875  17.446  10.638 -0.0833 -0.0825  0.1544
 1146BOLB   C4B27492  20.948  17.452  10.127  0.2902  0.1237  0.1193
 1146BOLB   NC227493  22.354  17.255   8.608  0.0493  0.1048 -0.0964
 1146BOLB   PO227494  22.275  17.627   8.504 -0.2655  0.0123 -0.2753
 1146BOLB   GL327495  22.171  17.714   8.825  0.0061  0.3297  0.2899
 1146BOLB   GL427496  22.295  17.634   9.119 -0.2160  0.1752 -0.1510
 1146BOLB   C1C27497  21.799  17.696   8.924  0.1592  0.0798  0.0281
 1146BOLB   C2C27498  21.538  17.749   9.229  0.2534  0.3988  0.3883
 1146BOLB   C3C27499  21.483  17.969   9.600  0.0047  0.0733  0.1132
 1146BOLB   C4C27500  21.360  17.992  10.060  0.2330 -0.2665 -0.2467
 1146BOLB   C1D27501  22.261  17.676   9.527 -0.1187  0.0008 -0.1825
 1146BOLB   C2D27502  22.450  17.744   9.949  0.1749 -0.0487  0.2490
 1146BOLB   C3D27503  22.624  17.923  10.325  0.3772  0.1486 -0.0455
 1146BOLB   C4D27504  22.955  17.855  10.627 -0.1978 -0.0794 -0.2033
 1147BOLB   NC127505  14.265  19.897  10.817  0.1725 -0.4405  0.5690
 1147BOLB   PO127506  14.512  20.210  11.145  0.0859  0.2388  0.1349
 1147BOLB   GL127507  14.271  20.464  10.869  0.0563  0.1579 -0.1251
 1147BOLB   GL227508  13.866  20.540  10.834  0.0072 -0.2891  0.2065
 1147BOLB   C1A27509  14.391  20.745  10.568  0.6966  0.1128  0.2969
 1147BOLB   C2A27510  14.260  20.949  10.211  0.0031  0.1774  0.0601
 1147BOLB   C3A27511  13.895  20.911   9.935  0.0138 -0.0290 -0.5071
 1147BOLB   C4A27512  13.521  20.834   9.694  0.1590  0.0161  0.3845
 1147BOLB   C1B27513  14.051  20.444  10.416  0.0234  0.0332  0.2011
 1147BOLB   C2B27514  14.139  20.487   9.953  0.1431 -0.0011 -0.1120
 1147BOLB   C3B27515  14.063  20.665   9.499  0.3313 -0.0103  0.1601
 1147BOLB   C4B27516  14.140  20.505   9.091 -0.0101  0.0375 -0.2125
 1147BOLB   NC227517  14.494  21.367   7.445 -0.1807 -0.1141 -0.4548
 1147BOLB   PO227518  14.889  21.344   7.687 -0.2565 -0.0238  0.0121
 1147BOLB   GL327519  14.565  21.208   7.960 -0.2926 -0.2895 -0.1427
 1147BOLB   GL427520  14.669  20.881   7.905 -0.0299 -0.2688 -0.1542
 1147BOLB   C1C27521  14.519  20.912   8.352  0.1551  0.2276  0.1938
 1147BOLB   C2C27522  14.186  20.732   8.535 -0.1640 -0.2718  0.2201
 1147BOLB   C3C27523  13.827  20.831   8.733  0.2129 -0.1441 -0.1984
 1147BOLB   C4C27524  13.602  20.728   9.205  0.0049 -0.1739  0.0795
 1147BOLB   C1D27525  14.979  20.776   8.164  0.1852  0.1818  0.0802
 1147BOLB   C2D27526  15.349  20.566   8.265  0.0844 -0.1518  0.3164
 1147BOLB   C3D27527  15.403  20.161   8.391 -0.3211 -0.1024 -0.1796
 1147BOLB   C4D27528  15.433  19.821   8.814  0.1208 -0.0903 -0.1701
 1148BOLB   NC127529  17.257  10.087  12.322 -0.0083 -0.2313 -0.2952
 1148BOLB   PO127530  17.663  10.269  12.350 -0.2762 -0.0252 -0.1202
 1148BOLB   GL127531  17.567  10.129  11.894  0.2538 -0.1527 -0.0901
 1148BOLB   GL227532  17.649   9.975  11.891  0.5799 -0.1283 -0.0227
 1148BOLB   C1A27533  17.616  10.221  11.380 -0.1404 -0.0382 -0.1055
 1148BOLB   C2A27534  17.617  10.288  10.946 -0.3143  0.1819 -0.0151
 1148BOLB   C3A27535  17.613  10.340  10.498 -0.2674  0.0412 -0.1202
 1148BOLB   C4A27536  17.733  10.539  10.069 -0.0156 -0.2480 -0.1070
 1148BOLB   C1B27537  17.663   9.749  11.484 -0.0135  0.2163 -0.3285
 1148BOLB   C2B27538  17.630   9.644  11.132 -0.2352  0.2204  0.0012
 1148BOLB   C3B27539  17.506   9.446  10.815  0.0647 -0.3644 -0.0311
 1148BOLB   C4B27540  17.426   9.149  10.388  0.0958  0.2306 -0.1441
 1148BOLB   NC227541  19.086   9.992   8.052 -0.1373 -0.2145  0.2310
 1148BOLB   PO227542  18.720  10.263   8.150 -0.1316 -0.1071  0.2996
 1148BOLB   GL327543  18.544  10.361   8.456  0.2675  0.2673 -0.2531
 1148BOLB   GL427544  18.195  10.559   8.475 -0.0222 -0.0586 -0.0825
 1148BOLB   C1C27545  18.568  10.688   8.873  0.0083  0.5734  0.0686
 1148BOLB   C2C27546  18.294  10.596   9.219  0.2123 -0.5526  0.4473
 1148BOLB   C3C27547  18.311  10.371   9.498 -0.0801 -0.2682  0.1679
 1148BOLB   C4C27548  18.022  10.448   9.876 -0.0190 -0.1965  0.0786
 1148BOLB   C1D27549  18.130  10.896   8.771  0.3849  0.0166  0.2031
 1148BOLB   C2D27550  17.838  11.202   8.868  0.1574 -0.3251  0.0080
 1148BOLB   C3D27551  17.542  11.305   9.226  0.4818  0.0141  0.2852
 1148BOLB   C4D27552  17.483  11.434   9.660  0.0553 -0.1864 -0.1372
 1149BOLB   NC127553  14.892  14.506  11.327 -0.0478 -0.0843 -0.2463
 1149BOLB   PO127554  14.938  14.903  11.265  0.0406 -0.2813  0.1580
 1149BOLB   GL127555  15.140  14.808  10.892  0.0043 -0.0092  0.1782
 1149BOLB   GL227556  15.260  14.536  10.967  0.1021 -0.0333 -0.0597
 1149BOLB   C1A27557  15.129  14.919  10.392  0.0451 -0.3450 -0.1087
 1149BOLB   C2A27558  14.973  15.107   9.994 -0.1859 -0.0435  0.2184
 1149BOLB   C3A27559  14.977  15.036   9.546 -0.2564 -0.1918 -0.1609
 1149BOLB   C4A27560  15.216  14.853   9.194  0.1822 -0.4758  0.0076
 1149BOLB   C1B27561  15.291  14.420  10.595 -0.2361 -0.0455 -0.2013
 1149BOLB   C2B27562  15.317  14.431  10.169  0.1644  0.1352 -0.0642
 1149BOLB   C3B27563  15.348  14.241   9.792  0.1125 -0.2354 -0.0399
 1149BOLB   C4B27564  15.292  13.840   9.585 -0.1430 -0.2144  0.4495
 1149BOLB   NC227565  16.126  14.898   7.335 -0.0041 -0.0792  0.1019
 1149BOLB   PO227566  16.140  15.215   7.087  0.1229  0.1532  0.2072
 1149BOLB   GL327567  16.083  15.309   7.582  0.1775  0.0932 -0.1392
 1149BOLB   GL427568  15.930  15.657   7.713  0.1898  0.1133 -0.3284
 1149BOLB   C1C27569  15.961  15.216   7.935  0.0217  0.0424 -0.2216
 1149BOLB   C2C27570  15.867  15.355   8.458  0.2006 -0.0879  0.0395
 1149BOLB   C3C27571  15.847  15.144   8.814  0.0368 -0.2978  0.5181
 1149BOLB   C4C27572  15.549  14.926   8.911  0.0398  0.0320  0.2824
 1149BOLB   C1D27573  15.820  15.763   8.153  0.1754  0.0419 -0.2752
 1149BOLB   C2D27574  15.528  15.719   8.463 -0.1835  0.0729 -0.0021
 1149BOLB   C3D27575  15.325  15.353   8.761 -0.1507  0.1548  0.0058
 1149BOLB   C4D27576  15.058  14.892   8.670 -0.2608  0.0832 -0.2080
 1150BOLB   NC127577  14.860  10.862  11.871 -0.0485  0.2614 -0.1581
 1150BOLB   PO127578  14.939  10.428  12.098  0.2037  0.2748 -0.2271
 1150BOLB   GL127579  15.008  10.218  11.803 -0.3115  0.1374 -0.0297
 1150BOLB   GL227580  15.140  10.497  11.638 -0.0181 -0.0009  0.1804
 1150BOLB   C1A27581  15.283   9.978  11.603 -0.2121 -0.3360 -0.0780
 1150BOLB   C2A27582  15.399   9.810  11.263 -0.0847 -0.2652  0.0560
 1150BOLB   C3A27583  15.589   9.751  10.804  0.0080 -0.0212 -0.1829
 1150BOLB   C4A27584  15.620   9.732  10.301  0.0040 -0.3067  0.3245
 1150BOLB   C1B27585  15.198  10.352  11.183 -0.0131 -0.2091  0.2970
 1150BOLB   C2B27586  14.989  10.516  10.816 -0.0267 -0.4173  0.3104
 1150BOLB   C3B27587  14.906  10.824  10.481 -0.0127 -0.1657  0.0408
 1150BOLB   C4B27588  14.804  10.855  10.065 -0.3746  0.0495 -0.1605
 1150BOLB   NC227589  15.178   9.414   7.847 -0.0692  0.1609 -0.0152
 1150BOLB   PO227590  15.126   8.969   7.960  0.2956 -0.2212 -0.0809
 1150BOLB   GL327591  15.046   9.326   8.323 -0.0002 -0.2084  0.4553
 1150BOLB   GL427592  14.782   9.251   8.539 -0.0495  0.2191 -0.2380
 1150BOLB   C1C27593  15.308   9.383   8.634 -0.1468  0.1833  0.2451
 1150BOLB   C2C27594  15.457   9.630   9.022  0.1841 -0.1435  0.0320
 1150BOLB   C3C27595  15.691   9.755   9.526  0.1589  0.3053  0.2581
 1150BOLB   C4C27596  15.759   9.847   9.929  0.1338 -0.1272 -0.1024
 1150BOLB   C1D27597  15.008   9.263   9.014  0.1037  0.2784  0.2351
 1150BOLB   C2D27598  14.902   9.498   9.406 -0.2835  0.0842  0.2056
 1150BOLB   C3D27599  14.822   9.773   9.840 -0.0237 -0.0413 -0.2209
 1150BOLB   C4D27600  15.099   9.908  10.222  0.1101 -0.2833  0.3858
 1151BOLB   NC127601  22.144  21.797  14.997  0.1785  0.3027  0.0791
 1151BOLB   PO127602  21.963  22.223  14.920  0.1967 -0.2426  0.2320
 1151BOLB   GL127603  22.287  22.637  14.997  0.2424  0.1722 -0.2227
 1151BOLB   GL227604  22.640  22.758  14.999 -0.1734  0.1329  0.0796
 1151BOLB   C1A27605  22.334  23.057  14.639  0.2506 -0.2218  0.4451
 1151BOLB   C2A27606  22.571  23.081  14.237 -0.2370  0.2460 -0.0686
 1151BOLB   C3A27607  22.753  22.824  13.873  0.1024 -0.2313  0.0262
 1151BOLB   C4A27608  23.026  22.610  13.587 -0.3685  0.2740  0.0348
 1151BOLB   C1B27609  22.946  22.822  15.270 -0.1221  0.0215 -0.2147
 1151BOLB   C2B27610  23.444  22.867  15.342 -0.0019 -0.0681 -0.0245
 1151BOLB   C3B27611  23.748  23.114  15.195 -0.0224  0.1316  0.0031
 1151BOLB   C4B27612  24.199  23.314  15.180 -0.1050 -0.2936 -0.2109
 1151BOLB   NC227613  25.686  22.942  13.234  0.1815 -0.1246 -0.1418
 1151BOLB   PO227614  25.735  22.610  13.534  0.0315  0.2355  0.0397
 1151BOLB   GL327615  25.300  22.510  13.466 -0.0533  0.1481  0.4344
 1151BOLB   GL427616  25.154  22.692  13.234  0.2317  0.0508 -0.1691
 1151BOLB   C1C27617  24.795  22.469  13.522 -0.3949 -0.3917  0.3038
 1151BOLB   C2C27618  24.369  22.350  13.337 -0.4291  0.2308  0.0574
 1151BOLB   C3C27619  23.895  22.401  13.575  0.0623 -0.0158 -0.0601
 1151BOLB   C4C27620  23.419  22.410  13.456 -0.0583 -0.3267  0.4798
 1151BOLB   C1D27621  24.754  22.483  13.054 -0.2038  0.0235 -0.0854
 1151BOLB   C2D27622  24.339  22.306  12.810  0.1068 -0.0174 -0.0100
 1151BOLB   C3D27623  23.999  22.457  13.017 -0.4197  0.1623 -0.2099
 1151BOLB   C4D27624  23.693  22.159  13.167  0.0607  0.1418 -0.2533
 1152BOLB   NC127625  15.972  18.611  11.611 -0.0102 -0.1888  0.1926
 1152BOLB   PO127626  16.318  18.347  11.611 -0.0469 -0.4260 -0.0672
 1152BOLB   GL127627  16.541  18.477  11.154 -0.0343 -0.0098  0.0398
 1152BOLB   GL227628  16.286  18.271  10.947 -0.0575 -0.3028  0.0516
 1152BOLB   C1A27629  16.677  18.880  10.901  0.0298 -0.0729  0.1816
 1152BOLB   C2A27630  16.608  19.015  10.489  0.2033  0.2135  0.2893
 1152BOLB   C3A27631  16.533  19.008  10.142  0.1690 -0.1596 -0.1239
 1152BOLB   C4A27632  16.265  19.157   9.791 -0.1050  0.0748 -0.1017
 1152BOLB   C1B27633  16.399  18.554  10.609  0.2217  0.1566 -0.3414
 1152BOLB   C2B27634  16.505  18.534  10.149  0.2546  0.0181  0.0746
 1152BOLB   C3B27635  16.603  18.782   9.739  0.0029 -0.2103  0.0699
 1152BOLB   C4B27636  16.554  18.796   9.327 -0.1313 -0.1175  0.3584
 1152BOLB   NC227637  16.360  20.072   7.270  0.2139  0.0597  0.1153
 1152BOLB   PO227638  16.170  19.693   7.441  0.0302 -0.0670 -0.1396
 1152BOLB   GL327639  16.067  19.526   7.846 -0.2416  0.2676 -0.0218
 1152BOLB   GL427640  15.788  19.543   7.857  0.3759  0.1070  0.0215
 1152BOLB   C1C27641  16.123  19.604   8.287  0.1813 -0.0271 -0.2071
 1152BOLB   C2C27642  16.352  19.693   8.685  0.2181  0.4760 -0.2231
 1152BOLB   C3C27643  16.277  19.479   9.161  0.1479 -0.0664 -0.0073
 1152BOLB   C4C27644  16.218  19.183   9.460 -0.3850  0.1433 -0.3115
 1152BOLB   C1D27645  15.668  19.199   7.994 -0.2274  0.3336 -0.5300
 1152BOLB   C2D27646  15.636  18.767   8.083  0.1479 -0.2047  0.0256
 1152BOLB   C3D27647  15.447  18.539   8.516  0.0837  0.3662  0.0202
 1152BOLB   C4D27648  15.239  18.202   8.772  0.0433  0.1909 -0.4243
 1153BOLB   NC127649  18.960  22.566  12.754 -0.0931 -0.0029  0.3767
 1153BOLB   PO127650  18.745  22.660  12.301  0.2081  0.1670 -0.1016
 1153BOLB   GL127651  18.810  22.650  11.922 -0.0633  0.4755  0.0251
 1153BOLB   GL227652  19.047  22.516  11.886  0.1512 -0.2467 -0.0108
 1153BOLB   C1A27653  18.874  22.819  11.513 -0.2081  0.2333 -0.2744
 1153BOLB   C2A27654  19.051  22.922  11.080 -0.1703 -0.1863 -0.0031
 1153BOLB   C3A27655  19.266  23.011  10.690  0.1864 -0.0787  0.0328
 1153BOLB   C4A27656  19.429  22.818  10.395  0.0739  0.0722  0.2994
 1153BOLB   C1B27657  19.170  22.382  11.448  0.3307 -0.0245 -0.0415
 1153BOLB   C2B27658  19.284  22.539  11.005 -0.2894  0.2264  0.4309
 1153BOLB   C3B27659  19.645  22.511  10.709 -0.3708 -0.2354  0.1430
 1153BOLB   C4B27660  20.046  22.733  10.684  0.0091  0.2372  0.0872
 1153BOLB   NC227661  21.408  23.257   9.422 -0.1117 -0.0628  0.0790
 1153BOLB   PO227662  21.237  23.133   9.031  0.0788 -0.0772 -0.0046
 1153BOLB   GL327663  21.026  22.946   9.322 -0.1640 -0.1771  0.0747
 1153BOLB   GL427664  20.913  22.704   9.233 -0.2213 -0.2329 -0.1219
 1153BOLB   C1C27665  20.898  22.807   9.754 -0.1355  0.1233  0.5626
 1153BOLB   C2C27666  20.539  22.784  10.029 -0.0117  0.2784 -0.1394
 1153BOLB   C3C27667  20.190  22.949  10.217 -0.0990 -0.0066  0.0189
 1153BOLB   C4C27668  19.737  22.709  10.172 -0.0679  0.1168  0.1498
 1153BOLB   C1D27669  20.670  22.290   9.119  0.1061 -0.0466  0.0975
 1153BOLB   C2D27670  20.359  22.061   9.220  0.2028  0.2340  0.0009
 1153BOLB   C3D27671  20.126  21.808   9.507 -0.0817  0.3280 -0.2690
 1153BOLB   C4D27672  20.121  21.947   9.933  0.0749 -0.0047 -0.1277
 1154BOLB   NC127673  15.236  24.750  13.147 -0.0196 -0.0091 -0.0831
 1154BOLB   PO127674  15.428  24.775  12.760 -0.1567 -0.2991 -0.0614
 1154BOLB   GL127675  15.245  24.775  12.302  0.1050  0.2041  0.0773
 1154BOLB   GL227676  15.037  24.981  12.372  0.1250  0.1542 -0.2570
 1154BOLB   C1A27677  15.169  24.535  12.024 -0.1185 -0.1589  0.0230
 1154BOLB   C2A27678  15.057  24.238  11.662  0.0078  0.2388  0.0706
 1154BOLB   C3A27679  15.110  24.096  11.280 -0.2407 -0.0504  0.0531
 1154BOLB   C4A27680  15.072  24.060  10.860 -0.1283 -0.1002 -0.1048
 1154BOLB   C1B27681  14.801  25.141  11.981  0.0984 -0.2930 -0.1680
 1154BOLB   C2B27682  14.472  25.145  11.755  0.0280 -0.0010  0.2875
 1154BOLB   C3B27683  14.054  25.186  11.784 -0.0568 -0.2665  0.1110
 1154BOLB   C4B27684  13.672  25.209  11.617  0.1649 -0.0797  0.2172
 1154BOLB   NC227685  13.477  25.011   8.458  0.1624  0.0433  0.1000
 1154BOLB   PO227686  13.749  24.797   8.740  0.1858  0.4222  0.0922
 1154BOLB   GL327687  13.848  24.760   9.196  0.0417 -0.4027 -0.0421
 1154BOLB   GL427688  13.821  25.188   9.404  0.0575 -0.2382  0.2043
 1154BOLB   C1C27689  13.931  24.478   9.690  0.1810  0.0978 -0.3144
 1154BOLB   C2C27690  14.321  24.555   9.973  0.4850  0.4048 -0.2317
 1154BOLB   C3C27691  14.718  24.534  10.181 -0.1364  0.0865  0.2073
 1154BOLB   C4C27692  15.068  24.344  10.425  0.0142 -0.0089  0.1004
 1154BOLB   C1D27693  13.913  25.161   9.882  0.0444 -0.0627 -0.0839
 1154BOLB   C2D27694  14.001  24.862  10.220 -0.1609  0.1018  0.0805
 1154BOLB   C3D27695  14.198  24.542  10.442  0.3725  0.2996  0.0674
 1154BOLB   C4D27696  14.506  24.359  10.747 -0.3456  0.0237  0.0661
 1155BOLB   NC127697  11.034  22.579  12.465  0.0263  0.0478  0.0509
 1155BOLB   PO127698  11.314  22.731  12.814  0.2433 -0.0332 -0.3241
 1155BOLB   GL127699  11.192  23.051  12.493 -0.2419  0.1005 -0.0231
 1155BOLB   GL227700  10.890  23.041  12.432 -0.0293  0.1795 -0.1249
 1155BOLB   C1A27701  11.240  23.108  12.121 -0.0385 -0.0685 -0.0090
 1155BOLB   C2A27702  11.306  23.359  11.697 -0.1194 -0.1163 -0.2471
 1155BOLB   C3A27703  11.170  23.548  11.351 -0.1698  0.2845 -0.3968
 1155BOLB   C4A27704  11.036  23.647  10.853  0.1884  0.1716  0.1824
 1155BOLB   C1B27705  10.758  23.301  12.157  0.4054  0.0573 -0.2212
 1155BOLB   C2B27706  10.576  23.651  12.078 -0.0724  0.2361  0.0799
 1155BOLB   C3B27707  10.610  24.057  12.147 -0.0264  0.0648 -0.0245
 1155BOLB   C4B27708  10.397  24.442  12.006  0.3938 -0.0131 -0.0996
 1155BOLB   NC227709  10.610  24.035   8.493 -0.4006 -0.1480 -0.0351
 1155BOLB   PO227710  10.567  23.561   8.548 -0.0113  0.1260  0.0484
 1155BOLB   GL327711  10.662  23.420   8.904  0.0900  0.1790  0.0903
 1155BOLB   GL427712  10.744  23.061   8.826  0.2263  0.1471 -0.2357
 1155BOLB   C1C27713  10.896  23.330   9.260 -0.0665 -0.0155  0.1996
 1155BOLB   C2C27714  11.056  23.322   9.633  0.1952  0.3819 -0.1234
 1155BOLB   C3C27715  11.134  23.424   9.984 -0.1355 -0.0166  0.0716
 1155BOLB   C4C27716  11.016  23.441  10.387 -0.1161 -0.2928  0.1455
 1155BOLB   C1D27717  10.515  22.713   9.067  0.0795 -0.2754  0.2061
 1155BOLB   C2D27718  10.165  22.739   9.290 -0.1203 -0.0313 -0.0907
 1155BOLB   C3D27719  10.184  22.595   9.723  0.0336 -0.0348  0.1159
 1155BOLB   C4D27720  10.171  22.487  10.205 -0.0212  0.0664  0.0052
 1156BOLB   NC127721  16.214   8.760  12.854 -0.0277  0.5362 -0.1789
 1156BOLB   PO127722  15.813   8.871  12.751  0.1564  0.2198 -0.1616
 1156BOLB   GL127723  15.849   8.791  12.345  0.1401  0.1267  0.0901
 1156BOLB   GL227724  16.140   8.916  12.383 -0.1737 -0.4549  0.0899
 1156BOLB   C1A27725  15.643   8.826  12.005 -0.1895  0.2703 -0.1463
 1156BOLB   C2A27726  15.525   9.024  11.652  0.0742  0.0669  0.2485
 1156BOLB   C3A27727  15.377   8.807  11.256  0.1345 -0.2104  0.2843
 1156BOLB   C4A27728  15.438   8.618  10.913  0.1319  0.1743 -0.1237
 1156BOLB   C1B27729  16.157   8.709  11.913  0.1231  0.0528 -0.1376
 1156BOLB   C2B27730  15.938   8.529  11.549 -0.1369  0.0836 -0.1292
 1156BOLB   C3B27731  16.003   8.380  11.180  0.2277  0.1179  0.1152
 1156BOLB   C4B27732  15.917   8.805  10.847  0.2087  0.3148  0.1404
 1156BOLB   NC227733  16.924   8.614   8.180  0.3397 -0.0089 -0.2741
 1156BOLB   PO227734  16.840   8.458   8.657 -0.2194 -0.2324 -0.1739
 1156BOLB   GL327735  16.525   8.670   8.894 -0.1610  0.3601 -0.1145
 1156BOLB   GL427736  16.624   9.120   8.825  0.1302 -0.1066 -0.3645
 1156BOLB   C1C27737  16.205   8.664   9.220  0.0473  0.1793  0.0118
 1156BOLB   C2C27738  16.014   8.717   9.592  0.0509  0.1409  0.1268
 1156BOLB   C3C27739  15.776   8.721   9.979  0.4197 -0.1645 -0.2233
 1156BOLB   C4C27740  15.558   8.652  10.449 -0.2077 -0.0709 -0.1959
 1156BOLB   C1D27741  16.456   9.117   9.170 -0.1964 -0.2264 -0.0426
 1156BOLB   C2D27742  16.272   9.139   9.597 -0.1622 -0.0008  0.1913
 1156BOLB   C3D27743  16.152   9.063  10.023 -0.2317 -0.2219 -0.0187
 1156BOLB   C4D27744  16.034   8.974  10.387 -0.3194  0.0686 -0.3230
 1157BOLB   NC127745  19.181  20.413  11.625  0.0284 -0.1232  0.0970
 1157BOLB   PO127746  18.852  20.106  11.544  0.1698  0.0802 -0.0345
 1157BOLB   GL127747  18.923  20.114  11.182  0.3241 -0.0606  0.4442
 1157BOLB   GL227748  18.794  20.492  11.258  0.1728 -0.0100  0.1491
 1157BOLB   C1A27749  18.752  20.289  10.798 -0.0639 -0.0137 -0.1259
 1157BOLB   C2A27750  18.671  20.781  10.720 -0.4120 -0.0364  0.0431
 1157BOLB   C3A27751  18.753  21.069  10.374 -0.2063  0.4896  0.1479
 1157BOLB   C4A27752  18.768  21.014   9.881  0.2537 -0.1705 -0.1521
 1157BOLB   C1B27753  19.185  20.560  10.928 -0.1076  0.2686  0.2295
 1157BOLB   C2B27754  19.550  20.516  10.559  0.0254 -0.2717  0.1025
 1157BOLB   C3B27755  19.619  20.377  10.156  0.1525 -0.3102 -0.1448
 1157BOLB   C4B27756  19.520  20.323   9.705  0.2033  0.1268 -0.4026
 1157BOLB   NC227757  20.730  21.579   8.514 -0.0584 -0.0551  0.1121
 1157BOLB   PO227758  20.341  21.714   8.356  0.0556 -0.0337  0.2909
 1157BOLB   GL327759  20.244  21.786   8.754  0.0178  0.2715 -0.0712
 1157BOLB   GL427760  20.437  21.542   8.906  0.0271 -0.0222 -0.1933
 1157BOLB   C1C27761  19.761  21.706   8.942  0.1367 -0.1548  0.1120
 1157BOLB   C2C27762  19.501  21.699   9.377 -0.2185  0.0060  0.1134
 1157BOLB   C3C27763  19.158  21.585   9.636 -0.2824  0.1044  0.0030
 1157BOLB   C4C27764  18.806  21.328   9.561 -0.2840  0.0333  0.3071
 1157BOLB   C1D27765  20.648  21.688   9.295 -0.1123  0.3506  0.1087
 1157BOLB   C2D27766  21.048  21.891   9.406 -0.0050 -0.0833  0.2995
 1157BOLB   C3D27767  21.248  21.957   9.814  0.1127 -0.0699  0.0968
 1157BOLB   C4D27768  21.245  22.049  10.200 -0.2689  0.0289 -0.0140
 1158BOLB   NC127769  15.044  17.223  11.209  0.2274 -0.0516 -0.2574
 1158BOLB   PO127770  15.403  17.314  11.239 -0.1219  0.0374  0.2036
 1158BOLB   GL127771  15.477  17.321  10.828 -0.1520 -0.0343 -0.1497
 1158BOLB   GL227772  15.665  17.205  10.603  0.0194  0.0590 -0.4958
 1158BOLB   C1A27773  15.091  17.392  10.512  0.0652  0.1758 -0.0891
 1158BOLB   C2A27774  14.962  17.371  10.048  0.1081  0.1173  0.4625
 1158BOLB   C3A27775  15.213  17.442   9.698  0.3702 -0.1321  0.0625
 1158BOLB   C4A27776  15.236  17.427   9.239 -0.3095 -0.0186  0.2830
 1158BOLB   C1B27777  15.564  17.294  10.228 -0.0952 -0.0792 -0.1839
 1158BOLB   C2B27778  15.694  17.320   9.845 -0.2264  0.0093  0.0334
 1158BOLB   C3B27779  15.760  17.605   9.483  0.2685 -0.1658  0.2645
 1158BOLB   C4B27780  15.579  17.727   9.114 -0.0694  0.1782  0.0460
 1158BOLB   NC227781  14.184  17.279   6.774 -0.1514 -0.0836 -0.0529
 1158BOLB   PO227782  14.546  17.419   7.143  0.0142  0.0304 -0.2073
 1158BOLB   GL327783  14.467  17.332   7.614 -0.1979  0.2045  0.0878
 1158BOLB   GL427784  14.136  17.393   7.686  0.1216  0.1779  0.0218
 1158BOLB   C1C27785  14.580  17.589   7.856  0.2112 -0.0140  0.2560
 1158BOLB   C2C27786  14.917  17.789   8.074  0.0039  0.3138  0.2931
 1158BOLB   C3C27787  14.976  17.685   8.543 -0.0039 -0.1464 -0.0417
 1158BOLB   C4C27788  15.111  17.690   8.885  0.2383  0.0886  0.1434
 1158BOLB   C1D27789  14.169  17.329   8.215  0.1405 -0.0867  0.2528
 1158BOLB   C2D27790  14.266  17.041   8.439  0.1129 -0.1122 -0.0632
 1158BOLB   C3D27791  14.141  16.796   8.873  0.0211 -0.1035 -0.0761
 1158BOLB   C4D27792  14.378  16.537   8.973  0.1336  0.1248  0.1270
 1159BOLB   NC127793  15.359  14.596  11.564  0.0319  0.5951  0.3829
 1159BOLB   PO127794  15.265  14.137  11.456  0.0917 -0.0581 -0.0163
 1159BOLB   GL127795  15.349  13.999  11.078 -0.0337 -0.2111  0.0976
 1159BOLB   GL227796  15.586  14.045  10.874 -0.1929  0.1210 -0.0044
 1159BOLB   C1A27797  15.278  13.597  10.736 -0.2985 -0.0464 -0.2752
 1159BOLB   C2A27798  15.355  13.491  10.260 -0.1028 -0.3080 -0.0897
 1159BOLB   C3A27799  15.449  13.448   9.884  0.2849 -0.2750  0.1902
 1159BOLB   C4A27800  15.436  13.334   9.450 -0.0051 -0.1963  0.0070
 1159BOLB   C1B27801  15.604  13.921  10.410 -0.3164  0.0350  0.3357
 1159BOLB   C2B27802  15.670  13.911  10.005  0.2184 -0.0660  0.3570
 1159BOLB   C3B27803  15.813  13.850   9.640 -0.5094  0.4807  0.1495
 1159BOLB   C4B27804  16.241  13.778   9.324  0.4252 -0.0893  0.0219
 1159BOLB   NC227805  15.325  12.184   7.488  0.3937  0.3245  0.2032
 1159BOLB   PO227806  15.771  12.251   7.444  0.1626  0.0754 -0.0105
 1159BOLB   GL327807  15.686  12.134   7.821  0.1693 -0.0120 -0.0076
 1159BOLB   GL427808  15.583  11.845   7.923  0.0664 -0.1150  0.2464
 1159BOLB   C1C27809  15.624  12.220   8.327  0.1240  0.0163 -0.1584
 1159BOLB   C2C27810  15.827  12.473   8.639 -0.2738 -0.1117  0.4231
 1159BOLB   C3C27811  15.698  12.722   8.947  0.0817  0.1356  0.3338
 1159BOLB   C4C27812  15.495  13.062   9.121 -0.1299  0.0045 -0.1916
 1159BOLB   C1D27813  15.635  11.719   8.314  0.2395  0.0111 -0.2693
 1159BOLB   C2D27814  15.713  11.494   8.776 -0.0248 -0.2257  0.1635
 1159BOLB   C3D27815  15.699  11.365   9.160  0.0654 -0.1294  0.1853
 1159BOLB   C4D27816  15.961  11.128   9.390 -0.2816  0.1046  0.0951
 1160BOLB   NC127817  11.539   8.450  12.316 -0.1211  0.1741 -0.3060
 1160BOLB   PO127818  11.502   7.993  12.379  0.2297 -0.2590 -0.1559
 1160BOLB   GL127819  11.709   8.041  11.980  0.4759  0.4526  0.2500
 1160BOLB   GL227820  11.787   7.689  11.879  0.2446  0.1747 -0.0946
 1160BOLB   C1A27821  11.940   8.254  11.649  0.1476 -0.0019 -0.0923
 1160BOLB   C2A27822  12.143   8.140  11.290 -0.1004 -0.1658  0.1535
 1160BOLB   C3A27823  12.253   8.306  10.831  0.2803  0.2007  0.0406
 1160BOLB   C4A27824  12.237   8.339  10.391  0.1387 -0.0014  0.5546
 1160BOLB   C1B27825  12.036   7.661  11.602 -0.1958  0.2820  0.1880
 1160BOLB   C2B27826  12.332   7.702  11.325  0.1967 -0.1659  0.0021
 1160BOLB   C3B27827  12.376   7.726  10.886  0.0153 -0.0795  0.0876
 1160BOLB   C4B27828  12.484   7.953  10.525 -0.1277  0.1442 -0.1660
 1160BOLB   NC227829  12.171   7.726   8.017  0.0827  0.2065 -0.4577
 1160BOLB   PO227830  11.986   8.100   8.075 -0.2940  0.1006 -0.0721
 1160BOLB   GL327831  12.187   8.347   8.390 -0.1237  0.2051  0.0314
 1160BOLB   GL427832  12.327   8.574   8.372 -0.2116  0.0821  0.0066
 1160BOLB   C1C27833  12.315   8.237   8.830 -0.0389  0.0113  0.0927
 1160BOLB   C2C27834  12.085   8.262   9.204 -0.1679 -0.2800 -0.2628
 1160BOLB   C3C27835  12.028   8.436   9.670  0.0299  0.2313  0.0904
 1160BOLB   C4C27836  12.124   8.577   9.964  0.1789 -0.0191  0.2229
 1160BOLB   C1D27837  12.027   8.642   8.737  0.2128  0.1732  0.0867
 1160BOLB   C2D27838  11.814   8.811   9.119  0.1562  0.1266  0.3121
 1160BOLB   C3D27839  11.695   8.844   9.464  0.0078 -0.2202 -0.3920
 1160BOLB   C4D27840  11.722   8.855   9.822 -0.2093  0.0470  0.0657
 1161BOLB   NC127841  14.025  14.126  11.850  0.1683  0.1343 -0.2570
 1161BOLB   PO127842  13.740  14.061  11.487 -0.2221  0.2363  0.2976
 1161BOLB   GL127843  13.598  14.003  11.051  0.0052  0.2364  0.1762
 1161BOLB   GL227844  13.557  13.683  11.025  0.1666 -0.2219  0.1480
 1161BOLB   C1A27845  13.545  14.108  10.616  0.3437 -0.2063  0.2276
 1161BOLB   C2A27846  13.517  14.033  10.156 -0.2187 -0.0746  0.1830
 1161BOLB   C3A27847  13.365  13.949   9.831 -0.0197  0.1484 -0.2093
 1161BOLB   C4A27848  13.112  13.797   9.385 -0.0707 -0.1735 -0.0345
 1161BOLB   C1B27849  13.592  13.622  10.559 -0.3313  0.2689  0.2541
 1161BOLB   C2B27850  13.768  13.428  10.206  0.0755  0.2563  0.1441
 1161BOLB   C3B27851  13.859  13.177   9.909  0.4138 -0.1304 -0.0335
 1161BOLB   C4B27852  13.753  12.777   9.850 -0.1023 -0.0870  0.0308
 1161BOLB   NC227853  12.549  13.642   7.255 -0.0777 -0.1680 -0.0764
 1161BOLB   PO227854  12.351  13.349   7.439  0.1544 -0.0335 -0.0740
 1161BOLB   GL327855  12.464  13.527   7.755 -0.0881 -0.0753  0.2231
 1161BOLB   GL427856  12.403  13.750   7.718  0.0430  0.0415 -0.2937
 1161BOLB   C1C27857  12.767  13.545   8.073  0.1057  0.0134  0.0177
 1161BOLB   C2C27858  13.115  13.651   8.237 -0.3129  0.1907 -0.1926
 1161BOLB   C3C27859  13.359  13.563   8.546  0.1037  0.2024 -0.0779
 1161BOLB   C4C27860  13.273  13.636   9.009  0.1434  0.3386  0.2918
 1161BOLB   C1D27861  12.303  13.654   8.236  0.2310  0.0045 -0.1189
 1161BOLB   C2D27862  12.352  13.553   8.662 -0.0521  0.1411  0.0627
 1161BOLB   C3D27863  12.291  13.426   9.031 -0.1065 -0.3285  0.0047
 1161BOLB   C4D27864  12.223  13.418   9.505  0.2488 -0.1420  0.0522
 1162BOLB   NC127865  16.821  18.107  11.650  0.3488  0.2014  0.1597
 1162BOLB   PO127866  17.219  18.155  11.860  0.0855  0.2320  0.0294
 1162BOLB   GL127867  17.312  18.210  11.437 -0.0369  0.1690 -0.3578
 1162BOLB   GL227868  17.721  18.169  11.356  0.1910 -0.0463 -0.1505
 1162BOLB   C1A27869  17.412  18.218  10.855 -0.1122  0.1803  0.1358
 1162BOLB   C2A27870  17.325  18.307  10.438  0.1933 -0.0792  0.1999
 1162BOLB   C3A27871  17.164  18.381   9.981  0.0653 -0.1884  0.1349
 1162BOLB   C4A27872  17.501  18.265   9.636 -0.1780  0.1094  0.0652
 1162BOLB   C1B27873  17.926  18.133  10.931 -0.3181 -0.1680 -0.2153
 1162BOLB   C2B27874  18.104  18.081  10.476 -0.1781 -0.1265  0.6142
 1162BOLB   C3B27875  18.354  17.757  10.294  0.1662  0.0480 -0.0215
 1162BOLB   C4B27876  18.332  17.420   9.997 -0.3146  0.0003  0.4196
 1162BOLB   NC227877  19.049  17.679   7.513 -0.0952  0.4820 -0.4512
 1162BOLB   PO227878  18.671  17.934   7.335 -0.1491  0.0301  0.1259
 1162BOLB   GL327879  18.620  17.956   7.729  0.1075 -0.0410 -0.0169
 1162BOLB   GL427880  18.814  18.205   7.884 -0.1121 -0.0741  0.1717
 1162BOLB   C1C27881  18.389  18.111   8.122  0.0305  0.0335 -0.2357
 1162BOLB   C2C27882  18.310  18.103   8.582 -0.0349  0.0980 -0.1960
 1162BOLB   C3C27883  18.029  18.200   8.958 -0.2118 -0.1770 -0.2125
 1162BOLB   C4C27884  17.721  18.313   9.220 -0.1007 -0.2070 -0.3986
 1162BOLB   C1D27885  18.852  17.893   8.219  0.2137  0.1348 -0.0453
 1162BOLB   C2D27886  18.923  17.854   8.506 -0.3268 -0.0465 -0.2185
 1162BOLB   C3D27887  18.884  17.812   8.954  0.3475  0.1606 -0.0823
 1162BOLB   C4D27888  18.755  17.819   9.370  0.1135 -0.1171  0.0258
 1163BOLB   NC127889  13.077  23.303  13.334 -0.0517  0.0440  0.0857
 1163BOLB   PO127890  12.923  23.589  13.073 -0.0548 -0.1817  0.0358
 1163BOLB   GL127891  12.985  23.699  12.706 -0.0273  0.1088  0.0372
 1163BOLB   GL227892  12.886  24.071  12.708 -0.0814  0.1957  0.0090
 1163BOLB   C1A27893  12.896  23.847  12.294  0.0185 -0.1398  0.0789
 1163BOLB   C2A27894  12.886  24.092  11.982 -0.0026 -0.1939 -0.2141
 1163BOLB   C3A27895  13.173  24.262  11.804  0.0363  0.2624  0.0330
 1163BOLB   C4A27896  13.449  24.289  11.457  0.3093  0.0321 -0.1967
 1163BOLB   C1B27897  12.612  24.485  12.695  0.1395  0.1697  0.2146
 1163BOLB   C2B27898  12.586  24.808  12.946  0.1079 -0.3422  0.1361
 1163BOLB   C3B27899  12.262  25.130  12.945  0.0482 -0.4596  0.1086
 1163BOLB   C4B27900  12.042  25.525  13.090  0.1049 -0.1148 -0.1969
 1163BOLB   NC227901  12.793  25.275   8.994 -0.0586  0.0278 -0.1892
 1163BOLB   PO227902  12.729  25.586   9.247  0.1083  0.2075  0.1989
 1163BOLB   GL327903  12.669  25.305   9.572  0.2351 -0.2562 -0.5022
 1163BOLB   GL427904  12.475  25.350   9.798  0.0903  0.1356 -0.2011
 1163BOLB   C1C27905  12.887  25.269  10.081 -0.1587  0.1497 -0.0951
 1163BOLB   C2C27906  13.174  25.011  10.389 -0.1565 -0.1335 -0.1815
 1163BOLB   C3C27907  13.174  24.651  10.629  0.3096  0.5399 -0.1917
 1163BOLB   C4C27908  13.200  24.579  11.117  0.0377  0.0864 -0.0653
 1163BOLB   C1D27909  12.176  25.094   9.655 -0.0432 -0.1197 -0.1009
 1163BOLB   C2D27910  11.966  24.690   9.873 -0.1413  0.0727  0.1301
 1163BOLB   C3D27911  11.992  24.455  10.174  0.1885 -0.4004 -0.2151
 1163BOLB   C4D27912  11.883  24.466  10.583 -0.2946  0.2221  0.0632
 1164BOLB   NC127913  16.888  15.712  11.607 -0.0222 -0.2683 -0.0542
 1164BOLB   PO127914  16.647  15.329  11.367 -0.0257 -0.0756  0.1524
 1164BOLB   GL127915  16.919  15.445  11.051  0.3451  0.3108 -0.3182
 1164BOLB   GL227916  17.025  15.789  11.089  0.1736 -0.2617  0.0647
 1164BOLB   C1A27917  17.263  15.401  10.804  0.2024 -0.0722  0.2519
 1164BOLB   C2A27918  17.441  15.149  10.467  0.0835 -0.0022  0.2990
 1164BOLB   C3A27919  17.591  14.907  10.197 -0.0327 -0.1869  0.1715
 1164BOLB   C4A27920  17.654  14.699   9.719  0.1502 -0.0796 -0.0952
 1164BOLB   C1B27921  16.734  15.825  10.663  0.0115  0.1478  0.1091
 1164BOLB   C2B27922  16.694  15.730  10.253  0.2431  0.0298 -0.2347
 1164BOLB   C3B27923  16.716  15.654   9.815  0.1872 -0.1872  0.1837
 1164BOLB   C4B27924  16.530  15.665   9.408 -0.0044 -0.0494 -0.1458
 1164BOLB   NC227925  19.024  14.339   7.749  0.1880  0.0703  0.2260
 1164BOLB   PO227926  18.888  14.796   7.641  0.2402 -0.1073 -0.0333
 1164BOLB   GL327927  18.855  14.752   8.057 -0.2156 -0.1626  0.2282
 1164BOLB   GL427928  18.673  14.418   8.167 -0.0825 -0.2086  0.2681
 1164BOLB   C1C27929  18.718  14.809   8.499  0.0777  0.1459 -0.4396
 1164BOLB   C2C27930  18.481  14.786   8.848  0.0888 -0.1192  0.0120
 1164BOLB   C3C27931  18.194  14.524   9.146  0.3911 -0.0392 -0.1523
 1164BOLB   C4C27932  17.858  14.747   9.371  0.4226 -0.1674  0.0733
 1164BOLB   C1D27933  18.302  14.354   8.397 -0.0340 -0.0327  0.2240
 1164BOLB   C2D27934  17.991  14.472   8.636 -0.0604  0.1493 -0.0460
 1164BOLB   C3D27935  17.953  14.883   8.780  0.1484 -0.0028 -0.0226
 1164BOLB   C4D27936  17.793  15.191   8.998  0.0926  0.1794 -0.0823
 1165BOLB   NC127937   9.322   9.712  12.116  0.1122 -0.2216 -0.1179
 1165BOLB   PO127938   9.259  10.177  12.139 -0.0847  0.1556 -0.0940
 1165BOLB   GL127939   9.463  10.244  11.788  0.2232  0.1733 -0.1559
 1165BOLB   GL227940   9.270  10.111  11.585  0.1423  0.4656  0.1273
 1165BOLB   C1A27941   9.639  10.272  11.367  0.1247 -0.1984 -0.0564
 1165BOLB   C2A27942   9.359  10.178  11.017 -0.0123  0.1332 -0.1947
 1165BOLB   C3A27943   9.124  10.038  10.669  0.1484  0.4509 -0.1557
 1165BOLB   C4A27944   8.751   9.997  10.505 -0.0748  0.3457  0.3133
 1165BOLB   C1B27945   9.028   9.896  11.257 -0.2209 -0.4931 -0.0359
 1165BOLB   C2B27946   8.959   9.610  10.979  0.2003 -0.0825 -0.1681
 1165BOLB   C3B27947   8.879   9.404  10.643  0.0561  0.0394  0.1436
 1165BOLB   C4B27948   8.811   9.067  10.271 -0.1111  0.1257 -0.3835
 1165BOLB   NC227949   7.872   9.026   8.610  0.3181  0.2525  0.0409
 1165BOLB   PO227950   7.488   9.127   8.803  0.0537  0.0369  0.1949
 1165BOLB   GL327951   7.750   9.370   9.027 -0.0635  0.0723 -0.0525
 1165BOLB   GL427952   8.109   9.193   9.040  0.1114  0.0046 -0.0406
 1165BOLB   C1C27953   7.856   9.412   9.466 -0.1982 -0.0920 -0.0226
 1165BOLB   C2C27954   8.093   9.546   9.636 -0.1432  0.0277 -0.0531
 1165BOLB   C3C27955   8.168   9.805   9.996  0.0922  0.0922  0.0638
 1165BOLB   C4C27956   8.415  10.012  10.300 -0.0009 -0.0999  0.0855
 1165BOLB   C1D27957   8.224   9.625   9.086 -0.0531  0.0429  0.0572
 1165BOLB   C2D27958   8.405   9.870   9.343  0.0707  0.0253  0.4436
 1165BOLB   C3D27959   8.620  10.102   9.216 -0.0594  0.2222  0.2520
 1165BOLB   C4D27960   8.723  10.116   8.833 -0.0539 -0.3117  0.0232
 1166BOLB   NC127961  18.354  12.870  12.017 -0.2336  0.0028  0.0542
 1166BOLB   PO127962  18.174  12.546  11.835 -0.2460 -0.4661  0.0680
 1166BOLB   GL127963  18.330  12.544  11.487 -0.2179  0.0096  0.0751
 1166BOLB   GL227964  18.671  12.505  11.473 -0.1639 -0.2180 -0.1354
 1166BOLB   C1A27965  18.108  12.492  11.100  0.2000 -0.2906  0.3452
 1166BOLB   C2A27966  18.311  12.534  10.745 -0.1628 -0.1439  0.1182
 1166BOLB   C3A27967  18.501  12.507  10.291  0.3141  0.2505 -0.1738
 1166BOLB   C4A27968  18.832  12.279   9.985  0.1965 -0.1350  0.1650
 1166BOLB   C1B27969  18.979  12.462  11.191  0.0974  0.0537 -0.1356
 1166BOLB   C2B27970  19.162  12.192  10.934  0.0975  0.1988  0.0269
 1166BOLB   C3B27971  19.573  11.972  10.732  0.0230  0.2975 -0.1976
 1166BOLB   C4B27972  19.768  11.682  10.375  0.1752  0.0396 -0.1835
 1166BOLB   NC227973  20.266  11.881   7.896  0.3848  0.2680  0.0203
 1166BOLB   PO227974  19.807  12.070   7.886 -0.0979  0.0077  0.0773
 1166BOLB   GL327975  19.750  12.104   8.229  0.1977 -0.0745 -0.3246
 1166BOLB   GL427976  19.440  12.171   8.368 -0.2678 -0.0250  0.3357
 1166BOLB   C1C27977  19.831  12.331   8.659  0.0483 -0.2444 -0.0059
 1166BOLB   C2C27978  19.710  12.254   9.065 -0.3187  0.1640  0.2171
 1166BOLB   C3C27979  19.414  12.239   9.260 -0.1566 -0.0531  0.0806
 1166BOLB   C4C27980  19.253  12.254   9.721  0.0349  0.0320  0.0732
 1166BOLB   C1D27981  19.156  11.979   8.768 -0.0236  0.1667  0.0675
 1166BOLB   C2D27982  19.086  11.690   9.131  0.0293  0.2393 -0.0729
 1166BOLB   C3D27983  19.348  11.368   9.303  0.0384 -0.1752  0.1235
 1166BOLB   C4D27984  19.420  10.877   9.294  0.0428 -0.0387 -0.0962
 1167BOLB   NC127985  11.676  22.909  13.151  0.0956 -0.0053  0.2691
 1167BOLB   PO127986  11.560  23.203  12.896 -0.1667  0.1674 -0.3505
 1167BOLB   GL127987  11.726  23.486  12.502 -0.0585 -0.0915  0.1822
 1167BOLB   GL227988  11.655  23.859  12.607 -0.0823 -0.0248 -0.4260
 1167BOLB   C1A27989  11.636  23.508  12.052 -0.0773  0.0205  0.1811
 1167BOLB   C2A27990  11.556  23.776  11.590 -0.3352  0.0920 -0.3013
 1167BOLB   C3A27991  11.297  24.060  11.274 -0.1706 -0.2813 -0.1287
 1167BOLB   C4A27992  11.143  24.175  10.825 -0.1829 -0.1147  0.2226
 1167BOLB   C1B27993  11.576  24.086  12.191  0.0945 -0.1383  0.1415
 1167BOLB   C2B27994  11.463  24.505  12.106 -0.2556  0.0250 -0.2155
 1167BOLB   C3B27995  11.627  24.962  11.976  0.0932 -0.2574  0.3092
 1167BOLB   C4B27996  11.491  25.373  11.854 -0.0467  0.1132  0.1021
 1167BOLB   NC227997  11.260  24.845   8.750  0.5278 -0.0537 -0.3604
 1167BOLB   PO227998  11.414  24.560   8.445  0.0321  0.0433 -0.1156
 1167BOLB   GL327999  11.225  24.394   8.869 -0.0092  0.2283 -0.2263
 1167BOLB   GL428000  11.405  24.121   8.849  0.2273  0.0398  0.1829
 1167BOLB   C1C28001  11.055  24.103   9.236 -0.1047  0.1107 -0.1843
 1167BOLB   C2C28002  11.058  23.847   9.579 -0.0139  0.4075  0.0543
 1167BOLB   C3C28003  10.880  23.929  10.033 -0.1492  0.1840  0.3559
 1167BOLB   C4C28004  10.960  23.925  10.464  0.0122 -0.2187  0.3460
 1167BOLB   C1D28005  11.715  23.890   9.083 -0.2779  0.2339 -0.1721
 1167BOLB   C2D28006  11.815  23.417   9.074 -0.0776 -0.0983  0.1774
 1167BOLB   C3D28007  11.566  23.077   9.201  0.1903  0.1064 -0.1054
 1167BOLB   C4D28008  11.499  22.704   9.326 -0.3138 -0.0080 -0.0994
 1168BOLB   NC128009  18.208  21.933  11.984 -0.1843 -0.2853  0.1170
 1168BOLB   PO128010  17.882  22.110  11.915  0.1480  0.1110 -0.1080
 1168BOLB   GL128011  18.066  22.012  11.513  0.2664  0.7033 -0.1492
 1168BOLB   GL228012  18.280  21.754  11.466 -0.1916 -0.0259  0.5286
 1168BOLB   C1A28013  18.252  22.115  11.119 -0.0807 -0.1817  0.0102
 1168BOLB   C2A28014  18.213  22.336  10.790 -0.2516  0.1611  0.1304
 1168BOLB   C3A28015  18.302  22.634  10.440  0.0202 -0.0810 -0.2972
 1168BOLB   C4A28016  18.076  22.878  10.107 -0.0552  0.0228 -0.2968
 1168BOLB   C1B28017  18.259  21.605  11.033  0.1088  0.0974 -0.5348
 1168BOLB   C2B28018  18.506  21.903  10.679 -0.1052 -0.0739  0.1201
 1168BOLB   C3B28019  18.584  22.123  10.313  0.0402 -0.0989  0.0525
 1168BOLB   C4B28020  18.741  21.956   9.971  0.2903  0.1181 -0.4216
 1168BOLB   NC228021  19.164  23.831   8.077  0.1986 -0.0735 -0.2332
 1168BOLB   PO228022  19.259  23.818   8.559  0.2452  0.1619 -0.1908
 1168BOLB   GL328023  18.914  23.886   8.849 -0.2101 -0.2650  0.0032
 1168BOLB   GL428024  18.715  24.085   8.998  0.2166  0.1465  0.2067
 1168BOLB   C1C28025  18.769  23.585   9.093  0.1490 -0.4573 -0.2391
 1168BOLB   C2C28026  18.588  23.610   9.499  0.0258  0.0435  0.2688
 1168BOLB   C3C28027  18.358  23.520   9.874  0.0199  0.2556  0.1643
 1168BOLB   C4C28028  18.194  23.182   9.853 -0.0542 -0.2244  0.2824
 1168BOLB   C1D28029  18.420  24.072   9.269  0.1976  0.1530  0.0007
 1168BOLB   C2D28030  18.288  24.046   9.746 -0.1782  0.1870  0.3692
 1168BOLB   C3D28031  18.528  23.915  10.132  0.0136  0.0290 -0.0313
 1168BOLB   C4D28032  18.735  23.860  10.480 -0.2791 -0.1576  0.0215
 1169BOLB   NC128033  22.904  16.964  13.437 -0.0700  0.0708 -0.0254
 1169BOLB   PO128034  22.562  16.501  13.474 -0.2608  0.1297  0.0298
 1169BOLB   GL128035  22.771  16.444  13.060  0.2538  0.1540  0.1969
 1169BOLB   GL228036  22.498  16.370  12.903  0.2460  0.2672 -0.2385
 1169BOLB   C1A28037  23.104  16.258  12.857  0.2425 -0.0683 -0.1561
 1169BOLB   C2A28038  23.419  16.195  12.601 -0.1656 -0.2197  0.0426
 1169BOLB   C3A28039  23.729  16.273  12.307  0.0118  0.3045 -0.0048
 1169BOLB   C4A28040  24.099  16.110  12.408 -0.3070  0.1739 -0.0443
 1169BOLB   C1B28041  22.681  16.331  12.592  0.1569 -0.3382  0.2322
 1169BOLB   C2B28042  22.927  16.247  12.356  0.1476 -0.2169  0.2312
 1169BOLB   C3B28043  23.244  16.208  12.036 -0.2167  0.1165 -0.1457
 1169BOLB   C4B28044  23.661  16.185  11.776  0.1698 -0.2357  0.1120
 1169BOLB   NC228045  26.247  15.073  11.075  0.1579 -0.2248  0.2127
 1169BOLB   PO228046  25.797  15.053  11.092 -0.2964  0.0869 -0.3413
 1169BOLB   GL328047  25.860  15.098  11.503  0.0278 -0.1567 -0.1381
 1169BOLB   GL428048  25.766  14.753  11.606 -0.0855 -0.0895 -0.1687
 1169BOLB   C1C28049  25.639  15.424  11.768  0.0635  0.1206  0.4041
 1169BOLB   C2C28050  25.175  15.529  11.748  0.0415  0.0197 -0.0187
 1169BOLB   C3C28051  24.776  15.758  11.849 -0.1110  0.0925  0.3591
 1169BOLB   C4C28052  24.465  15.778  12.137  0.2036 -0.0614  0.1854
 1169BOLB   C1D28053  25.427  14.461  11.531 -0.1082  0.1902 -0.0604
 1169BOLB   C2D28054  25.101  14.139  11.221  0.1182 -0.0818 -0.1106
 1169BOLB   C3D28055  24.752  13.872  11.307 -0.0774 -0.1083 -0.1597
 1169BOLB   C4D28056  24.415  13.752  11.719  0.0079 -0.1129  0.4031
 1170BOLB   NC128057  11.759   9.417  12.133 -0.1554 -0.0426  0.1456
 1170BOLB   PO128058  11.528   9.832  12.125 -0.0343  0.2417  0.2723
 1170BOLB   GL128059  11.399   9.631  11.697 -0.0049 -0.1763 -0.0124
 1170BOLB   GL228060  11.500   9.249  11.755 -0.1155 -0.1588  0.1209
 1170BOLB   C1A28061  11.340   9.530  11.210  0.0390  0.3293  0.3617
 1170BOLB   C2A28062  11.312   9.544  10.770  0.1554 -0.0322  0.2517
 1170BOLB   C3A28063  11.428   9.741  10.361 -0.3054  0.1592 -0.2774
 1170BOLB   C4A28064  11.651   9.623  10.046 -0.2807  0.2847  0.4298
 1170BOLB   C1B28065  11.701   9.211  11.397 -0.1860  0.0587  0.1902
 1170BOLB   C2B28066  11.772   9.388  10.919  0.0706 -0.0164  0.0749
 1170BOLB   C3B28067  11.693   9.151  10.608  0.0913  0.2730  0.0139
 1170BOLB   C4B28068  12.007   8.760  10.422 -0.0931 -0.3634  0.0179
 1170BOLB   NC228069  12.312   9.791   7.512 -0.1388  0.2059  0.0651
 1170BOLB   PO228070  11.900   9.728   7.525  0.2138 -0.0033 -0.0219
 1170BOLB   GL328071  11.678   9.569   8.025 -0.0799  0.3361  0.1544
 1170BOLB   GL428072  11.857   9.304   7.998 -0.2791  0.0678  0.1130
 1170BOLB   C1C28073  11.687   9.702   8.427 -0.2811  0.1834 -0.3325
 1170BOLB   C2C28074  11.720   9.379   8.814 -0.3677  0.3914  0.2747
 1170BOLB   C3C28075  11.605   9.400   9.199  0.1186 -0.0414  0.3077
 1170BOLB   C4C28076  11.679   9.383   9.647 -0.1413  0.0513  0.3309
 1170BOLB   C1D28077  11.916   9.142   8.409  0.0984  0.1779 -0.0224
 1170BOLB   C2D28078  12.226   9.190   8.578  0.0332 -0.1812  0.1332
 1170BOLB   C3D28079  12.209   9.277   9.093 -0.0783  0.1048  0.1844
 1170BOLB   C4D28080  12.219   9.448   9.523  0.2647  0.1688 -0.0225
 1171BOLB   NC128081  20.949  23.340  13.948 -0.2672  0.2018  0.2159
 1171BOLB   PO128082  20.565  23.162  13.799 -0.2402  0.3123  0.0386
 1171BOLB   GL128083  20.811  23.189  13.372 -0.0439 -0.1459  0.3964
 1171BOLB   GL228084  20.546  23.201  13.211  0.1079 -0.3555  0.2685
 1171BOLB   C1A28085  21.296  23.376  13.274  0.0515  0.0407 -0.0549
 1171BOLB   C2A28086  21.644  23.258  13.298  0.0697 -0.1564  0.1278
 1171BOLB   C3A28087  22.050  23.424  13.252  0.2201 -0.2239  0.0094
 1171BOLB   C4A28088  22.109  23.747  13.086 -0.1720 -0.0611  0.0208
 1171BOLB   C1B28089  20.862  23.338  12.904 -0.0865  0.1015 -0.2110
 1171BOLB   C2B28090  21.105  23.300  12.499  0.2174  0.0188  0.2608
 1171BOLB   C3B28091  21.437  23.467  12.220 -0.0643 -0.1040  0.1610
 1171BOLB   C4B28092  21.605  23.838  12.037  0.2936 -0.1223  0.0411
 1171BOLB   NC228093  24.602  24.157  12.233  0.0778 -0.1353  0.0766
 1171BOLB   PO228094  24.402  24.443  12.432  0.1030 -0.4355 -0.1252
 1171BOLB   GL328095  24.073  24.524  12.750 -0.0354 -0.1544  0.1555
 1171BOLB   GL428096  24.240  24.348  13.182  0.0175  0.2465  0.0005
 1171BOLB   C1C28097  23.670  24.292  12.891 -0.1094 -0.0499  0.0272
 1171BOLB   C2C28098  23.166  24.378  13.035 -0.1032 -0.2040  0.1467
 1171BOLB   C3C28099  22.907  24.023  13.256 -0.1840 -0.1442 -0.0542
 1171BOLB   C4C28100  22.395  23.995  13.349 -0.0381 -0.2324  0.0470
 1171BOLB   C1D28101  24.209  24.146  13.556 -0.1621  0.1208  0.2047
 1171BOLB   C2D28102  23.904  23.910  13.727  0.0667  0.0121  0.4809
 1171BOLB   C3D28103  23.666  23.570  13.963 -0.0996 -0.0859  0.0074
 1171BOLB   C4D28104  23.636  23.476  14.373  0.0428  0.2368 -0.0969
 1172BOLB   NC128105  19.152  12.606  12.262 -0.1298 -0.3571 -0.0316
 1172BOLB   PO128106  19.017  12.252  12.510  0.2419  0.0199  0.0853
 1172BOLB   GL128107  19.138  11.939  12.190  0.1388 -0.1527  0.0476
 1172BOLB   GL228108  19.341  11.725  12.123  0.0623 -0.1585  0.1002
 1172BOLB   C1A28109  19.055  11.793  11.694 -0.1993  0.1845  0.1452
 1172BOLB   C2A28110  19.328  11.950  11.376  0.0374  0.0132 -0.0806
 1172BOLB   C3A28111  19.662  11.877  11.183 -0.2308 -0.2456  0.1675
 1172BOLB   C4A28112  19.892  11.595  10.914  0.0596  0.1685 -0.1727
 1172BOLB   C1B28113  19.556  11.623  11.678  0.0168 -0.2787  0.2148
 1172BOLB   C2B28114  19.681  11.383  11.362 -0.0303  0.1024  0.0103
 1172BOLB   C3B28115  19.408  11.437  10.984  0.0979  0.1677  0.1030
 1172BOLB   C4B28116  19.386  11.323  10.481 -0.1341 -0.1439  0.0351
 1172BOLB   NC228117  20.165  10.371   8.305  0.0844 -0.0146 -0.0443
 1172BOLB   PO228118  20.345  10.762   8.536  0.0578 -0.1149  0.1848
 1172BOLB   GL328119  20.470  10.709   9.052  0.0176  0.6785  0.0900
 1172BOLB   GL428120  20.656  10.925   9.192 -0.0815  0.0581  0.0783
 1172BOLB   C1C28121  20.408  10.724   9.556  0.1364  0.0933 -0.0657
 1172BOLB   C2C28122  20.160  11.027   9.866 -0.2158  0.1244  0.1661
 1172BOLB   C3C28123  19.885  11.048  10.231  0.0955 -0.1168 -0.0601
 1172BOLB   C4C28124  19.941  11.241  10.606  0.2511 -0.1494 -0.0539
 1172BOLB   C1D28125  20.653  11.127   9.614 -0.0143  0.3789 -0.2708
 1172BOLB   C2D28126  20.451  11.482   9.913 -0.0494 -0.0690 -0.2304
 1172BOLB   C3D28127  20.051  11.636   9.950 -0.2184  0.1835  0.0306
 1172BOLB   C4D28128  19.577  11.470   9.963  0.2305 -0.2110  0.3150
 1173BOLB   NC128129   9.643  18.363  11.813 -0.2981  0.0687  0.2950
 1173BOLB   PO128130  10.056  18.055  11.869  0.0983  0.1004  0.2191
 1173BOLB   GL128131   9.905  18.143  11.490 -0.1658 -0.0818  0.0594
 1173BOLB   GL228132   9.670  18.157  11.304  0.2205 -0.2025 -0.0198
 1173BOLB   C1A28133  10.073  18.122  11.108 -0.3905  0.2179  0.0921
 1173BOLB   C2A28134  10.024  17.839  10.683  0.1219  0.1964 -0.2019
 1173BOLB   C3A28135  10.179  17.466  10.403 -0.1728 -0.0598  0.1037
 1173BOLB   C4A28136  10.097  17.231   9.975 -0.1380  0.2870 -0.1352
 1173BOLB   C1B28137   9.418  18.349  11.020  0.0349  0.2888 -0.0143
 1173BOLB   C2B28138   9.122  18.548  10.875 -0.1042 -0.0943  0.1942
 1173BOLB   C3B28139   8.940  18.898  10.571 -0.2189  0.0216  0.1633
 1173BOLB   C4B28140   9.124  18.960  10.184  0.3657  0.0919  0.2802
 1173BOLB   NC228141   8.307  16.609   7.918  0.0485 -0.3321 -0.1900
 1173BOLB   PO228142   8.569  17.051   7.826  0.0372  0.0407  0.1643
 1173BOLB   GL328143   8.753  16.866   8.283 -0.2716  0.0179 -0.4095
 1173BOLB   GL428144   8.538  16.669   8.499 -0.1317  0.0717 -0.0629
 1173BOLB   C1C28145   8.968  16.943   8.668  0.2899  0.0127  0.3418
 1173BOLB   C2C28146   9.326  17.039   9.024 -0.1072  0.0584 -0.2775
 1173BOLB   C3C28147   9.600  16.965   9.329  0.2009 -0.1039 -0.2131
 1173BOLB   C4C28148  10.044  17.075   9.598 -0.1425 -0.2887 -0.4092
 1173BOLB   C1D28149   8.276  16.494   8.723  0.0032 -0.3886  0.0433
 1173BOLB   C2D28150   8.411  16.329   9.112 -0.0042  0.1517  0.0925
 1173BOLB   C3D28151   8.317  16.362   9.509  0.1700  0.1003 -0.2332
 1173BOLB   C4D28152   8.528  16.115   9.773  0.0589  0.1128 -0.1812
 1174BOLB   NC128153  21.739  17.654  13.620  0.1762 -0.2065  0.0142
 1174BOLB   PO128154  22.108  17.954  13.511 -0.0733 -0.0309  0.1303
 1174BOLB   GL128155  22.166  18.157  13.041 -0.0909  0.1501  0.1693
 1174BOLB   GL228156  22.402  18.277  13.023 -0.1461 -0.1148 -0.0897
 1174BOLB   C1A28157  22.073  18.304  12.549  0.3778  0.3700 -0.0234
 1174BOLB   C2A28158  22.115  18.369  12.130 -0.3062  0.0663 -0.0299
 1174BOLB   C3A28159  22.387  18.502  11.879  0.3088  0.2895  0.0927
 1174BOLB   C4A28160  22.703  18.669  11.567 -0.1962 -0.3588  0.0827
 1174BOLB   C1B28161  22.490  18.518  12.618 -0.0768  0.3111  0.1477
 1174BOLB   C2B28162  22.713  18.624  12.228 -0.0789  0.3311 -0.0473
 1174BOLB   C3B28163  23.014  18.799  11.935  0.1907 -0.1033  0.2559
 1174BOLB   C4B28164  23.248  18.650  11.545  0.1335  0.1724 -0.1384
 1174BOLB   NC228165  24.170  19.198   9.949  0.2367  0.2007 -0.1398
 1174BOLB   PO228166  24.013  18.707   9.739 -0.0323  0.1756  0.1302
 1174BOLB   GL328167  23.604  18.758  10.001  0.0176  0.1260  0.1308
 1174BOLB   GL428168  23.731  18.953  10.219 -0.0815  0.0001  0.1412
 1174BOLB   C1C28169  23.345  18.635  10.285  0.3658  0.1473  0.1205
 1174BOLB   C2C28170  23.367  18.778  10.740  0.0012  0.3453  0.3083
 1174BOLB   C3C28171  23.101  18.996  10.979  0.1630  0.2438 -0.0193
 1174BOLB   C4C28172  22.854  19.002  11.376  0.0533 -0.1223 -0.1589
 1174BOLB   C1D28173  23.570  19.213  10.497  0.0557 -0.0525 -0.2923
 1174BOLB   C2D28174  23.158  19.398  10.691 -0.0679 -0.1150 -0.0325
 1174BOLB   C3D28175  22.964  19.469  11.199  0.0106  0.2091  0.0877
 1174BOLB   C4D28176  23.043  19.727  11.596 -0.0777 -0.0632 -0.4197
 1175BOLB   NC128177  16.930  11.368  12.436  0.3664  0.1040  0.0721
 1175BOLB   PO128178  16.651  11.347  12.070 -0.0359  0.1428  0.3178
 1175BOLB   GL128179  16.682  11.424  11.629  0.0369  0.0711 -0.1377
 1175BOLB   GL228180  16.699  11.742  11.564  0.0731 -0.0655  0.0576
 1175BOLB   C1A28181  16.651  11.353  11.233 -0.1988  0.1335 -0.1517
 1175BOLB   C2A28182  16.701  11.373  10.753 -0.0734  0.0861 -0.1444
 1175BOLB   C3A28183  16.852  11.341  10.323 -0.2984 -0.1302  0.1130
 1175BOLB   C4A28184  16.586  11.298  10.112 -0.2117 -0.1032 -0.0328
 1175BOLB   C1B28185  16.927  11.907  11.393 -0.2608 -0.2598  0.1056
 1175BOLB   C2B28186  17.330  11.911  11.070  0.0132  0.0445  0.2264
 1175BOLB   C3B28187  17.500  11.989  10.631 -0.0274 -0.0648 -0.4161
 1175BOLB   C4B28188  17.777  11.829  10.321 -0.8280  0.2761 -0.0603
 1175BOLB   NC228189  16.771  11.251   7.537 -0.2253  0.1235  0.0811
 1175BOLB   PO228190  17.045  10.940   7.813  0.1042  0.0312  0.0406
 1175BOLB   GL328191  17.175  11.045   8.150 -0.0924 -0.0457 -0.1161
 1175BOLB   GL428192  17.190  11.345   8.302 -0.1039  0.2810  0.3536
 1175BOLB   C1C28193  16.887  11.099   8.580  0.1994  0.2941 -0.0379
 1175BOLB   C2C28194  16.687  11.194   8.855 -0.2054 -0.1308  0.0605
 1175BOLB   C3C28195  16.435  11.182   9.245  0.0761 -0.1065  0.1527
 1175BOLB   C4C28196  16.445  11.235   9.661 -0.2335 -0.1893 -0.0885
 1175BOLB   C1D28197  16.990  11.675   8.445  0.0071  0.1969  0.1012
 1175BOLB   C2D28198  17.025  12.001   8.813 -0.2254  0.2613  0.1238
 1175BOLB   C3D28199  17.372  12.169   9.127  0.1410  0.1786  0.0915
 1175BOLB   C4D28200  17.559  12.255   9.524  0.1195  0.0593  0.2471
 1176BOLB   NC128201  21.460  18.891  13.040 -0.0801 -0.2702 -0.2187
 1176BOLB   PO128202  21.185  19.205  12.789  0.0660 -0.0460  0.0944
 1176BOLB   GL128203  21.242  19.127  12.215  0.2149  0.0101 -0.0507
 1176BOLB   GL228204  20.991  18.955  12.075  0.0535 -0.1151  0.2155
 1176BOLB   C1A28205  21.436  19.063  11.866 -0.0563  0.0682  0.0549
 1176BOLB   C2A28206  21.604  19.130  11.406  0.0413  0.1884  0.2167
 1176BOLB   C3A28207  21.831  19.120  11.020 -0.3140 -0.0066 -0.1020
 1176BOLB   C4A28208  22.111  18.989  10.732 -0.0717  0.0083  0.0174
 1176BOLB   C1B28209  21.003  19.339  11.786 -0.0831  0.0138  0.1316
 1176BOLB   C2B28210  21.181  19.339  11.420  0.0299 -0.0282 -0.2594
 1176BOLB   C3B28211  21.324  19.408  11.056  0.0443  0.2556  0.2422
 1176BOLB   C4B28212  21.530  19.338  10.690 -0.3779  0.0035  0.0749
 1176BOLB   NC228213  22.317  18.619   8.082  0.0292 -0.1135  0.2081
 1176BOLB   PO228214  22.060  18.551   8.457 -0.0979  0.0641  0.2678
 1176BOLB   GL328215  22.162  18.772   8.862 -0.2964  0.1001  0.0519
 1176BOLB   GL428216  21.939  18.893   8.957  0.0269 -0.2222 -0.0042
 1176BOLB   C1C28217  22.378  18.978   9.239  0.0824 -0.3289 -0.1372
 1176BOLB   C2C28218  22.674  18.859   9.545 -0.1784 -0.2576  0.0744
 1176BOLB   C3C28219  22.619  18.786  10.065  0.0367 -0.1786  0.0920
 1176BOLB   C4C28220  22.303  18.737  10.340 -0.0026  0.0806 -0.1275
 1176BOLB   C1D28221  21.947  19.289   9.105 -0.0139 -0.1966 -0.1822
 1176BOLB   C2D28222  21.810  19.706   9.203  0.0666  0.1285 -0.1340
 1176BOLB   C3D28223  21.642  19.694   9.676 -0.0639  0.0128  0.0004
 1176BOLB   C4D28224  21.331  19.775   9.822 -0.1713  0.0696 -0.2431
 1177BOLB   NC128225  18.738   9.800  13.162  0.1183 -0.0580 -0.1206
 1177BOLB   PO128226  18.436   9.976  13.113  0.1349 -0.1130  0.0421
 1177BOLB   GL128227  18.508   9.854  12.731 -0.4109 -0.0896 -0.0700
 1177BOLB   GL228228  18.730  10.003  12.626  0.2494  0.2866 -0.1966
 1177BOLB   C1A28229  18.435   9.676  12.349 -0.1673 -0.0095  0.0985
 1177BOLB   C2A28230  18.748   9.590  11.871  0.1111 -0.0255 -0.0573
 1177BOLB   C3A28231  18.889   9.267  11.519 -0.0481 -0.2049 -0.1145
 1177BOLB   C4A28232  19.087   9.050  11.187 -0.0990 -0.0975 -0.0801
 1177BOLB   C1B28233  18.919   9.769  12.307 -0.0015 -0.2083  0.0190
 1177BOLB   C2B28234  19.217   9.492  12.051 -0.3671  0.2041  0.0367
 1177BOLB   C3B28235  19.478   9.255  11.661 -0.0373  0.0572 -0.0212
 1177BOLB   C4B28236  19.885   9.229  11.571 -0.2052 -0.1055  0.2924
 1177BOLB   NC228237  20.685   8.290  10.001  0.4221 -0.1293 -0.0549
 1177BOLB   PO228238  20.254   8.427   9.702  0.0225 -0.2936  0.1488
 1177BOLB   GL328239  20.354   8.729  10.004  0.1759  0.1861 -0.0884
 1177BOLB   GL428240  20.447   8.587  10.275 -0.1249 -0.3672 -0.1198
 1177BOLB   C1C28241  20.116   8.954  10.440 -0.2718  0.0710 -0.0169
 1177BOLB   C2C28242  19.945   8.538  10.614  0.0554  0.1606  0.1161
 1177BOLB   C3C28243  19.549   8.607  10.764 -0.2933 -0.3988  0.1706
 1177BOLB   C4C28244  19.153   8.636  11.046  0.2732  0.2526 -0.3794
 1177BOLB   C1D28245  20.406   8.552  10.719  0.2007  0.1421 -0.2437
 1177BOLB   C2D28246  20.665   8.720  11.093  0.2332  0.0914 -0.0582
 1177BOLB   C3D28247  21.087   8.839  11.316  0.1634 -0.1093  0.5126
 1177BOLB   C4D28248  21.346   8.974  11.646 -0.0233 -0.2191  0.3818
 1178BOLB   NC128249  14.287  21.691  11.969  0.1838  0.1172  0.1886
 1178BOLB   PO128250  14.282  22.204  11.993 -0.0876 -0.2309  0.1506
 1178BOLB   GL128251  14.304  22.284  11.409  0.0056 -0.2029  0.2320
 1178BOLB   GL228252  13.995  22.177  11.184 -0.1007  0.0358 -0.1064
 1178BOLB   C1A28253  14.160  22.661  11.088 -0.2837  0.1228 -0.2064
 1178BOLB   C2A28254  13.979  23.063  10.925 -0.0161 -0.0570  0.1698
 1178BOLB   C3A28255  13.695  23.476  10.848  0.3137  0.1812 -0.1602
 1178BOLB   C4A28256  13.663  23.902  10.712 -0.1608  0.0666  0.1000
 1178BOLB   C1B28257  13.898  22.386  10.774  0.0268  0.1762  0.3136
 1178BOLB   C2B28258  13.606  22.296  10.428  0.3824  0.2648 -0.0878
 1178BOLB   C3B28259  13.445  22.174  10.020  0.0051  0.2018  0.0050
 1178BOLB   C4B28260  13.199  22.130   9.593 -0.0497  0.2554 -0.1994
 1178BOLB   NC228261  13.114  25.865   9.089  0.2814  0.2584 -0.2498
 1178BOLB   PO228262  13.548  25.944   9.371  0.1933  0.2554 -0.0128
 1178BOLB   GL328263  13.612  25.595   9.590  0.0625  0.1723 -0.0884
 1178BOLB   GL428264  13.876  25.672   9.814  0.3662  0.4105  0.1847
 1178BOLB   C1C28265  13.353  25.280   9.758  0.0115  0.4564  0.0963
 1178BOLB   C2C28266  13.409  24.915   9.914  0.2136 -0.1563  0.2569
 1178BOLB   C3C28267  13.542  24.611  10.139  0.1911  0.1232 -0.0635
 1178BOLB   C4C28268  13.523  24.220  10.460 -0.1360  0.0338  0.1264
 1178BOLB   C1D28269  13.909  25.833  10.215 -0.1697 -0.1894 -0.1260
 1178BOLB   C2D28270  14.089  26.073  10.529  0.5034  0.1450 -0.0063
 1178BOLB   C3D28271  14.454  26.115  10.754  0.1633  0.1980  0.0956
 1178BOLB   C4D28272  14.852  26.281  10.631 -0.1783 -0.1555  0.0942
 1179BOLB   NC128273  13.804  21.030  11.576 -0.1913 -0.0145 -0.3502
 1179BOLB   PO128274  13.523  20.876  11.200  0.2459 -0.0033 -0.2179
 1179BOLB   GL128275  13.712  21.091  10.914  0.0637 -0.1235  0.1417
 1179BOLB   GL228276  13.688  21.390  10.840  0.0490  0.0170  0.1624
 1179BOLB   C1A28277  13.714  21.027  10.472  0.1422  0.0152  0.0389
 1179BOLB   C2A28278  13.488  21.090  10.092  0.2168 -0.2420  0.1143
 1179BOLB   C3A28279  13.226  21.286   9.729  0.0555  0.1928 -0.3919
 1179BOLB   C4A28280  13.363  21.275   9.336  0.1692  0.2181 -0.3483
 1179BOLB   C1B28281  13.572  21.647  10.397 -0.0512  0.3253  0.0486
 1179BOLB   C2B28282  13.358  21.656  10.049 -0.1502 -0.0129 -0.4017
 1179BOLB   C3B28283  13.522  21.720   9.718  0.1514 -0.0945  0.0872
 1179BOLB   C4B28284  13.707  21.975   9.397 -0.0552  0.4174  0.1426
 1179BOLB   NC228285  12.451  21.520   7.092 -0.0498  0.3784  0.1443
 1179BOLB   PO228286  12.598  21.531   7.505  0.4193 -0.1182 -0.0910
 1179BOLB   GL328287  12.606  21.317   7.879 -0.1145 -0.1699 -0.1635
 1179BOLB   GL428288  12.495  21.331   8.135 -0.0633 -0.1290  0.2278
 1179BOLB   C1C28289  12.897  20.918   8.016 -0.0035  0.2850 -0.0657
 1179BOLB   C2C28290  13.199  20.789   8.259  0.0653 -0.0489  0.0100
 1179BOLB   C3C28291  13.383  20.995   8.490 -0.1459  0.1883  0.2139
 1179BOLB   C4C28292  13.470  21.147   8.922 -0.0645 -0.1265 -0.1520
 1179BOLB   C1D28293  12.484  21.434   8.489 -0.0455 -0.2141  0.1634
 1179BOLB   C2D28294  12.345  21.768   8.813  0.3254  0.0910  0.2485
 1179BOLB   C3D28295  12.372  21.801   9.236  0.4015  0.0356  0.0372
 1179BOLB   C4D28296  12.429  21.624   9.686 -0.0910  0.0667 -0.0026
 1180BOLB   NC128297  18.300  11.350  12.985 -0.0656 -0.1865  0.1366
 1180BOLB   PO128298  18.137  11.144  12.590 -0.4983 -0.4389 -0.1935
 1180BOLB   GL128299  18.258  11.095  12.090 -0.1578  0.0405  0.2644
 1180BOLB   GL228300  18.072  11.051  11.934  0.0699 -0.0587 -0.2005
 1180BOLB   C1A28301  18.457  11.004  11.602 -0.0895  0.3542 -0.1140
 1180BOLB   C2A28302  18.543  10.880  11.242 -0.0473  0.0964  0.0576
 1180BOLB   C3A28303  18.519  10.813  10.844  0.2237  0.3675 -0.2345
 1180BOLB   C4A28304  18.671  10.630  10.383  0.2334  0.0494  0.2107
 1180BOLB   C1B28305  17.673  11.170  11.653 -0.4754  0.1338 -0.1261
 1180BOLB   C2B28306  17.576  11.178  11.230 -0.1676 -0.1931 -0.0478
 1180BOLB   C3B28307  17.348  11.062  10.758  0.2664 -0.1520 -0.2812
 1180BOLB   C4B28308  17.345  10.954  10.292 -0.2070  0.4174 -0.0450
 1180BOLB   NC228309  20.535   9.122   8.716  0.3658  0.1112 -0.2383
 1180BOLB   PO228310  20.271   9.479   8.972  0.2620  0.0941  0.1914
 1180BOLB   GL328311  20.047   9.857   9.160  0.0961  0.3373 -0.2766
 1180BOLB   GL428312  19.925  10.015   9.055 -0.1420 -0.2283 -0.0941
 1180BOLB   C1C28313  19.837   9.962   9.643 -0.0572  0.0308 -0.0112
 1180BOLB   C2C28314  19.520  10.070   9.785 -0.3814  0.0508  0.1392
 1180BOLB   C3C28315  19.183  10.276   9.940 -0.2499  0.1339  0.3600
 1180BOLB   C4C28316  18.812  10.540  10.011  0.2321 -0.0267 -0.1681
 1180BOLB   C1D28317  19.486  10.142   9.286 -0.4645 -0.0373  0.1151
 1180BOLB   C2D28318  19.241  10.349   9.454 -0.2211  0.0847 -0.2549
 1180BOLB   C3D28319  19.172  10.677   9.689  0.1021 -0.2167  0.2290
 1180BOLB   C4D28320  19.226  11.139   9.852 -0.2492  0.0371  0.0383
 1181BOLB   NC128321  19.554  23.468  13.042  0.2028 -0.0318  0.0519
 1181BOLB   PO128322  19.982  23.287  13.012 -0.2457  0.2059 -0.3865
 1181BOLB   GL128323  20.235  23.422  12.712  0.1219 -0.0675 -0.1452
 1181BOLB   GL228324  20.414  23.074  12.757  0.2640 -0.2917 -0.0460
 1181BOLB   C1A28325  20.247  23.684  12.370 -0.1654  0.0995 -0.0436
 1181BOLB   C2A28326  20.426  23.805  11.957 -0.1885  0.3042 -0.0325
 1181BOLB   C3A28327  20.646  23.602  11.453  0.2280 -0.0876 -0.2167
 1181BOLB   C4A28328  20.915  23.803  11.156  0.0728 -0.0144  0.0415
 1181BOLB   C1B28329  20.569  23.232  12.332  0.0081  0.0686 -0.0027
 1181BOLB   C2B28330  20.784  23.253  11.965  0.0267  0.0105  0.0465
 1181BOLB   C3B28331  20.889  23.510  11.841 -0.4524  0.1647 -0.2363
 1181BOLB   C4B28332  21.211  23.516  11.484  0.0572 -0.0165 -0.3821
 1181BOLB   NC228333  22.813  25.239  11.046  0.1415  0.3121  0.3486
 1181BOLB   PO228334  22.797  24.785  11.148  0.0810 -0.0476  0.0752
 1181BOLB   GL328335  22.611  24.433  11.110  0.1496  0.0054  0.0295
 1181BOLB   GL428336  22.829  24.094  11.160  0.0994  0.0803 -0.0317
 1181BOLB   C1C28337  22.375  24.061  11.025  0.1080 -0.2370  0.1005
 1181BOLB   C2C28338  21.996  24.129  10.929  0.0710  0.0765 -0.1123
 1181BOLB   C3C28339  21.680  24.131  11.139 -0.0496  0.0160  0.1836
 1181BOLB   C4C28340  21.304  23.992  11.150  0.0662  0.0632  0.0556
 1181BOLB   C1D28341  22.637  23.920  11.424 -0.1031  0.0724 -0.1858
 1181BOLB   C2D28342  22.369  23.595  11.506  0.0286 -0.1008 -0.0668
 1181BOLB   C3D28343  22.169  23.258  11.443  0.3016 -0.1219 -0.1513
 1181BOLB   C4D28344  22.097  22.807  11.329 -0.0245  0.3319  0.3538
 1182BOLB   NC128345  10.121  12.644  12.454 -0.0081 -0.2766 -0.0362
 1182BOLB   PO128346   9.788  12.664  12.198  0.0076 -0.2469  0.0260
 1182BOLB   GL128347   9.821  12.780  11.731 -0.3064  0.0536 -0.2442
 1182BOLB   GL228348   9.808  13.070  11.705  0.3062 -0.1481  0.1420
 1182BOLB   C1A28349   9.793  12.838  11.242 -0.1719  0.0280 -0.2798
 1182BOLB   C2A28350   9.737  12.732  10.756  0.1992 -0.1921  0.0491
 1182BOLB   C3A28351   9.634  12.775  10.327 -0.4201  0.0535  0.0011
 1182BOLB   C4A28352   9.630  12.646   9.836  0.0255  0.1657 -0.4399
 1182BOLB   C1B28353   9.563  13.249  11.390 -0.1081  0.0030 -0.1732
 1182BOLB   C2B28354   9.565  13.279  10.952 -0.1947 -0.1524  0.0501
 1182BOLB   C3B28355   9.846  13.207  10.505  0.0005 -0.1452  0.2300
 1182BOLB   C4B28356   9.848  13.271  10.116  0.3164 -0.1718 -0.0631
 1182BOLB   NC228357   8.889  12.444   7.983 -0.1494  0.3345 -0.1848
 1182BOLB   PO228358   8.446  12.243   7.960 -0.2017 -0.2584 -0.2035
 1182BOLB   GL328359   8.689  12.025   8.261 -0.5872 -0.1797 -0.1932
 1182BOLB   GL428360   8.566  11.791   8.222 -0.2570  0.1455 -0.1738
 1182BOLB   C1C28361   9.153  12.100   8.450  0.0596 -0.0404  0.1445
 1182BOLB   C2C28362   9.407  12.093   8.782 -0.0318 -0.2946  0.2733
 1182BOLB   C3C28363   9.531  12.268   9.172  0.0662 -0.1555 -0.0052
 1182BOLB   C4C28364   9.665  12.446   9.455 -0.1128 -0.0174 -0.0018
 1182BOLB   C1D28365   8.901  11.723   8.657  0.2009  0.2086  0.0757
 1182BOLB   C2D28366   8.785  11.604   9.025 -0.3319 -0.2282  0.1280
 1182BOLB   C3D28367   8.851  11.522   9.448 -0.0148  0.2821 -0.1879
 1182BOLB   C4D28368   9.066  11.556   9.779  0.0846 -0.1265 -0.2187
 1183BOLB   NC128369   9.986   8.566  12.296 -0.0185  0.0478 -0.1200
 1183BOLB   PO128370   9.560   8.345  12.213  0.0277 -0.0790 -0.1344
 1183BOLB   GL128371   9.942   8.499  11.798  0.1692  0.3824 -0.0072
 1183BOLB   GL228372  10.342   8.673  11.815  0.0556 -0.0883 -0.1246
 1183BOLB   C1A28373  10.067   8.357  11.490 -0.1611 -0.0787  0.0659
 1183BOLB   C2A28374  10.060   8.338  11.046 -0.1596 -0.2887 -0.0084
 1183BOLB   C3A28375   9.938   8.477  10.559  0.1241  0.0884  0.0675
 1183BOLB   C4A28376  10.065   8.545  10.179  0.1533  0.0406  0.1404
 1183BOLB   C1B28377  10.287   8.821  11.390  0.1677 -0.0976 -0.0018
 1183BOLB   C2B28378  10.387   8.844  10.980  0.1496 -0.2140  0.1043
 1183BOLB   C3B28379  10.392   8.948  10.507  0.1324 -0.0718 -0.0412
 1183BOLB   C4B28380  10.479   8.861  10.025  0.2179  0.1281 -0.0286
 1183BOLB   NC228381   9.056   7.073   8.532  0.0844 -0.1457  0.0749
 1183BOLB   PO228382   9.020   7.155   9.073 -0.0570 -0.0379 -0.1148
 1183BOLB   GL328383   9.314   7.365   8.923 -0.4386 -0.0373  0.2782
 1183BOLB   GL428384   9.088   7.652   8.918 -0.2065 -0.2388  0.4100
 1183BOLB   C1C28385   9.655   7.521   9.113 -0.0193 -0.0048 -0.4489
 1183BOLB   C2C28386   9.822   7.577   9.538 -0.1137  0.0309 -0.1933
 1183BOLB   C3C28387   9.862   7.889   9.752 -0.3537  0.0515 -0.0489
 1183BOLB   C4C28388  10.025   8.306   9.824  0.0613 -0.1163  0.1329
 1183BOLB   C1D28389   9.479   7.969   8.989 -0.2731  0.1139 -0.0739
 1183BOLB   C2D28390   9.940   8.016   9.095  0.2161  0.2315  0.0326
 1183BOLB   C3D28391  10.338   7.797   8.970  0.1770  0.4680 -0.1609
 1183BOLB   C4D28392  10.654   7.494   9.074  0.1383  0.1282  0.0956
 1184BOLB   NC128393  19.627  18.079  11.855 -0.1427 -0.0995 -0.3826
 1184BOLB   PO128394  19.246  18.194  11.736 -0.0552  0.1106 -0.2834
 1184BOLB   GL128395  19.297  18.508  11.409 -0.0456 -0.1457  0.5325
 1184BOLB   GL228396  19.374  18.822  11.504 -0.0035  0.1086 -0.0887
 1184BOLB   C1A28397  19.229  18.784  10.999  0.1273  0.3651 -0.2178
 1184BOLB   C2A28398  19.328  18.787  10.589  0.3326  0.2016 -0.2673
 1184BOLB   C3A28399  19.344  18.918  10.151  0.0245 -0.3093  0.0529
 1184BOLB   C4A28400  19.424  19.040   9.728  0.0380  0.0557 -0.2445
 1184BOLB   C1B28401  19.655  18.856  11.146  0.0383  0.1934  0.0634
 1184BOLB   C2B28402  19.839  18.915  10.743  0.2025 -0.0275  0.1590
 1184BOLB   C3B28403  19.786  18.916  10.277  0.0804 -0.1443 -0.1835
 1184BOLB   C4B28404  19.829  18.784   9.852 -0.2243  0.0360 -0.3590
 1184BOLB   NC228405  20.103  20.589   7.607 -0.0725  0.3308 -0.0740
 1184BOLB   PO228406  20.014  20.207   7.755 -0.2202 -0.0860 -0.2050
 1184BOLB   GL328407  20.076  20.163   8.089 -0.2614  0.1665 -0.0833
 1184BOLB   GL428408  20.290  19.895   8.155 -0.0952  0.1042  0.0569
 1184BOLB   C1C28409  19.973  19.977   8.539 -0.2524 -0.1970 -0.2975
 1184BOLB   C2C28410  19.876  19.957   8.996  0.0958 -0.0494  0.0385
 1184BOLB   C3C28411  19.781  19.514   9.111  0.3472 -0.0656 -0.0363
 1184BOLB   C4C28412  19.526  19.154   9.369  0.1841  0.3121 -0.1444
 1184BOLB   C1D28413  20.224  19.553   8.517  0.2388  0.0154 -0.1360
 1184BOLB   C2D28414  20.157  19.257   8.878  0.2296  0.3710  0.1904
 1184BOLB   C3D28415  19.853  18.929   9.025  0.1826 -0.0967 -0.2481
 1184BOLB   C4D28416  19.661  18.700   9.386 -0.5047 -0.3096  0.3106
 1185BOLB   NC128417  21.401  17.065  12.347  0.1911 -0.0485 -0.1417
 1185BOLB   PO128418  21.631  17.183  12.742 -0.0416  0.4093  0.4449
 1185BOLB   GL128419  21.749  17.397  12.240  0.1252 -0.0432 -0.1941
 1185BOLB   GL228420  21.537  17.538  12.137  0.1436 -0.0232  0.3094
 1185BOLB   C1A28421  21.993  17.325  11.819  0.1726  0.1420 -0.1726
 1185BOLB   C2A28422  22.432  17.429  11.716 -0.0051  0.1750 -0.0884
 1185BOLB   C3A28423  22.813  17.727  11.724 -0.0309  0.0180 -0.0297
 1185BOLB   C4A28424  23.200  17.747  11.532  0.2437  0.0743 -0.0647
 1185BOLB   C1B28425  21.695  17.724  11.752 -0.2305 -0.0245 -0.4637
 1185BOLB   C2B28426  21.962  17.664  11.380  0.1350 -0.2284  0.3859
 1185BOLB   C3B28427  22.383  17.826  11.191  0.2150 -0.1326 -0.1098
 1185BOLB   C4B28428  22.791  18.038  11.042  0.0511 -0.0967 -0.0631
 1185BOLB   NC228429  24.816  18.846   9.543 -0.1113 -0.2531 -0.3117
 1185BOLB   PO228430  24.495  18.761   9.807 -0.0125  0.0686 -0.2030
 1185BOLB   GL328431  24.188  18.592  10.158  0.2648 -0.0902  0.0652
 1185BOLB   GL428432  24.260  18.563  10.514  0.1440  0.0133  0.0002
 1185BOLB   C1C28433  23.762  18.438  10.381 -0.1761  0.1197  0.2820
 1185BOLB   C2C28434  23.664  18.403  10.784 -0.0803  0.0533 -0.0178
 1185BOLB   C3C28435  23.613  17.995  10.861  0.2341  0.1675  0.3484
 1185BOLB   C4C28436  23.249  17.790  11.041  0.1654  0.1087  0.0463
 1185BOLB   C1D28437  24.161  18.117  10.651 -0.0561 -0.0891 -0.2232
 1185BOLB   C2D28438  24.118  17.678  10.748 -0.2108  0.1988  0.0654
 1185BOLB   C3D28439  23.989  17.211  10.849  0.1462  0.0984  0.2355
 1185BOLB   C4D28440  23.726  17.010  11.190  0.3401  0.1127 -0.0039
 1186BOLB   NC128441  13.632  19.379  11.092 -0.1298  0.1517  0.4478
 1186BOLB   PO128442  13.911  18.964  11.065 -0.4728 -0.0090  0.2515
 1186BOLB   GL128443  13.756  19.087  10.722  0.2254 -0.1271 -0.0533
 1186BOLB   GL228444  13.763  18.866  10.523 -0.1124  0.2048 -0.0634
 1186BOLB   C1A28445  13.893  19.380  10.506 -0.0383  0.1234  0.0337
 1186BOLB   C2A28446  13.920  19.357  10.068 -0.1153  0.1278 -0.1451
 1186BOLB   C3A28447  13.987  19.247   9.665 -0.1152 -0.1102 -0.1415
 1186BOLB   C4A28448  14.319  19.469   9.394 -0.0963 -0.1427  0.0576
 1186BOLB   C1B28449  13.786  18.880  10.174 -0.1796 -0.1257 -0.4360
 1186BOLB   C2B28450  13.568  18.674   9.821  0.3281 -0.0310 -0.2709
 1186BOLB   C3B28451  13.910  18.786   9.492 -0.1045  0.1333 -0.0528
 1186BOLB   C4B28452  14.324  18.493   9.489 -0.1148  0.0141  0.2322
 1186BOLB   NC228453  15.049  20.087   7.340 -0.1444 -0.2000 -0.0625
 1186BOLB   PO228454  14.889  20.447   7.512 -0.0394 -0.0375  0.0127
 1186BOLB   GL328455  14.669  20.181   7.773 -0.1805 -0.0621  0.3998
 1186BOLB   GL428456  14.412  20.142   7.807  0.0668  0.0670 -0.2343
 1186BOLB   C1C28457  14.957  20.054   8.089 -0.1640 -0.0673 -0.0259
 1186BOLB   C2C28458  15.039  19.817   8.511 -0.0706  0.0556  0.0977
 1186BOLB   C3C28459  14.975  19.560   8.780 -0.1803  0.3638 -0.0027
 1186BOLB   C4C28460  14.786  19.414   9.100  0.0502 -0.1874 -0.3046
 1186BOLB   C1D28461  14.590  20.358   8.227  0.4416  0.0802 -0.0885
 1186BOLB   C2D28462  14.932  20.277   8.567  0.3586  0.0107 -0.0268
 1186BOLB   C3D28463  15.201  20.547   8.837  0.1435  0.0091  0.0628
 1186BOLB   C4D28464  15.110  20.827   9.083  0.0764  0.3579 -0.2315
 1187BOLB   NC128465  12.050  22.288  12.369  0.0391 -0.1550  0.0548
 1187BOLB   PO128466  11.910  22.247  12.052  0.2102  0.2350  0.0339
 1187BOLB   GL128467  11.770  22.106  11.707 -0.0281 -0.2954 -0.2130
 1187BOLB   GL228468  11.595  21.889  11.765 -0.1920  0.0188  0.3036
 1187BOLB   C1A28469  11.764  22.008  11.192  0.2101 -0.1520 -0.0036
 1187BOLB   C2A28470  11.582  22.001  10.823  0.1046  0.2453 -0.2072
 1187BOLB   C3A28471  11.724  22.079  10.415  0.2168 -0.0260 -0.2214
 1187BOLB   C4A28472  11.576  22.346  10.112 -0.0697  0.2541  0.1783
 1187BOLB   C1B28473  11.318  21.783  11.375  0.1152 -0.0074  0.1365
 1187BOLB   C2B28474  11.256  21.575  10.915  0.1697 -0.3333  0.1286
 1187BOLB   C3B28475  11.306  21.596  10.499 -0.0843  0.1331 -0.0317
 1187BOLB   C4B28476  11.396  21.739  10.151  0.0999 -0.0491 -0.0764
 1187BOLB   NC228477  12.118  22.925   7.871  0.3703  0.2607  0.2326
 1187BOLB   PO228478  12.453  22.934   8.169  0.0299 -0.1020 -0.2889
 1187BOLB   GL328479  12.453  22.775   8.509  0.0412  0.0762  0.1202
 1187BOLB   GL428480  12.360  22.445   8.545 -0.0012 -0.4966  0.0639
 1187BOLB   C1C28481  12.451  22.801   8.937  0.2206 -0.0984  0.0118
 1187BOLB   C2C28482  12.149  22.984   9.151 -0.3578 -0.3810  0.2453
 1187BOLB   C3C28483  11.972  22.834   9.521 -0.0506 -0.0976  0.0955
 1187BOLB   C4C28484  11.732  22.744   9.954 -0.2049  0.0097  0.5097
 1187BOLB   C1D28485  12.646  22.205   8.657 -0.1227 -0.0004 -0.1891
 1187BOLB   C2D28486  12.808  21.709   8.721 -0.1532  0.1676  0.3941
 1187BOLB   C3D28487  12.964  21.398   8.308 -0.0905 -0.3004  0.1660
 1187BOLB   C4D28488  13.317  21.418   8.191  0.1891 -0.1067  0.2196
 1188BOLB   NC128489   9.852  21.806  13.020  0.0778  0.0456 -0.3753
 1188BOLB   PO128490  10.017  21.938  12.647 -0.0479  0.1362  0.2533
 1188BOLB   GL128491   9.918  21.953  12.223 -0.0015 -0.0707 -0.1573
 1188BOLB   GL228492   9.825  22.308  12.286 -0.4129 -0.1839 -0.2978
 1188BOLB   C1A28493   9.838  22.176  11.792 -0.1162  0.2886 -0.1318
 1188BOLB   C2A28494   9.760  22.219  11.332  0.0859  0.0634 -0.1872
 1188BOLB   C3A28495   9.600  22.187  10.985  0.1836  0.1313  0.2042
 1188BOLB   C4A28496   9.467  22.294  10.641 -0.2135  0.1194 -0.0501
 1188BOLB   C1B28497   9.651  22.579  12.051 -0.0347 -0.2069 -0.0458
 1188BOLB   C2B28498   9.729  22.669  11.705  0.0999  0.2603  0.1128
 1188BOLB   C3B28499   9.858  22.755  11.366 -0.0643 -0.0063  0.1977
 1188BOLB   C4B28500   9.993  22.573  10.978 -0.1056 -0.0950 -0.3532
 1188BOLB   NC228501   9.622  23.414   8.440 -0.0571 -0.1140  0.1347
 1188BOLB   PO228502  10.034  23.678   8.439  0.0068  0.1535  0.0912
 1188BOLB   GL328503   9.987  23.324   8.798  0.1349  0.0735  0.2199
 1188BOLB   GL428504  10.227  23.129   8.920 -0.0969  0.1148  0.0751
 1188BOLB   C1C28505   9.887  23.179   9.209 -0.0519  0.0382 -0.1121
 1188BOLB   C2C28506   9.727  22.814   9.533  0.1545  0.0039 -0.0850
 1188BOLB   C3C28507   9.576  22.680   9.914 -0.0586 -0.1963  0.1579
 1188BOLB   C4C28508   9.455  22.609  10.337 -0.1102  0.3599  0.0960
 1188BOLB   C1D28509  10.446  23.157   9.328 -0.1410 -0.1646  0.1654
 1188BOLB   C2D28510  10.604  23.101   9.739 -0.2287  0.1016 -0.2388
 1188BOLB   C3D28511  10.902  23.011   9.952  0.0680 -0.0479 -0.3435
 1188BOLB   C4D28512  11.243  22.702   9.909 -0.3284 -0.2298  0.0843
 1189BOLB   NC128513  18.207  11.581  12.350  0.2606  0.0355 -0.2415
 1189BOLB   PO128514  18.557  11.519  12.595  0.0142  0.1392 -0.1695
 1189BOLB   GL128515  18.729  11.531  12.160 -0.2860 -0.5693 -0.1681
 1189BOLB   GL228516  18.732  11.221  12.217 -0.2656  0.0008  0.0566
 1189BOLB   C1A28517  18.798  11.294  11.773 -0.1028  0.0424  0.0720
 1189BOLB   C2A28518  19.020  11.267  11.415  0.1040  0.2134 -0.4389
 1189BOLB   C3A28519  18.977  11.136  10.968 -0.0456  0.2780 -0.1064
 1189BOLB   C4A28520  19.127  10.900  10.648 -0.1114  0.1697 -0.2529
 1189BOLB   C1B28521  18.923  10.794  11.955 -0.0085 -0.2463 -0.0413
 1189BOLB   C2B28522  18.951  10.598  11.569  0.1554 -0.0482  0.5210
 1189BOLB   C3B28523  19.169  10.604  11.094  0.0662  0.0567 -0.2371
 1189BOLB   C4B28524  19.370  10.459  10.749 -0.0262 -0.3275  0.0144
 1189BOLB   NC228525  20.548   9.634   9.351  0.1269  0.4371 -0.1229
 1189BOLB   PO228526  20.861   9.885   9.247 -0.2540 -0.1539  0.3370
 1189BOLB   GL328527  20.567  10.150   9.544 -0.0807  0.2370  0.0858
 1189BOLB   GL428528  20.362  10.271   9.313  0.2227  0.0981  0.2418
 1189BOLB   C1C28529  20.312  10.082   9.747  0.2604  0.2590 -0.0917
 1189BOLB   C2C28530  20.046  10.299  10.006  0.0244 -0.0198  0.0993
 1189BOLB   C3C28531  19.628  10.406  10.196 -0.0031  0.3341  0.2961
 1189BOLB   C4C28532  19.208  10.604  10.312 -0.1602  0.4846  0.2135
 1189BOLB   C1D28533  20.057  10.404   9.464 -0.0731  0.1986 -0.1477
 1189BOLB   C2D28534  19.679  10.509   9.693  0.0805 -0.1084  0.2070
 1189BOLB   C3D28535  19.616  10.851   9.869  0.0152 -0.1712 -0.3020
 1189BOLB   C4D28536  19.777  11.267   9.570 -0.1984  0.0066  0.1202
 1190BOLB   NC128537  20.437  23.555  15.473 -0.2211 -0.4096 -0.0897
 1190BOLB   PO128538  20.896  23.696  15.160 -0.3159  0.1936  0.2808
 1190BOLB   GL128539  21.236  23.878  14.878 -0.0231  0.1810 -0.4677
 1190BOLB   GL228540  21.176  24.145  14.705  0.1134  0.1667 -0.1899
 1190BOLB   C1A28541  21.666  24.164  14.998 -0.2851  0.1740  0.0382
 1190BOLB   C2A28542  22.147  24.091  14.930  0.2102 -0.0866  0.3607
 1190BOLB   C3A28543  22.609  23.939  14.819  0.1532 -0.2432  0.0908
 1190BOLB   C4A28544  23.003  23.862  14.664 -0.4693 -0.2258  0.0586
 1190BOLB   C1B28545  21.369  24.515  14.835  0.0176  0.0021 -0.0681
 1190BOLB   C2B28546  21.686  24.749  14.937 -0.0690  0.0230  0.0601
 1190BOLB   C3B28547  22.118  24.893  15.049  0.2710 -0.2257 -0.0892
 1190BOLB   C4B28548  22.545  24.730  14.994 -0.3523  0.1842 -0.2665
 1190BOLB   NC228549  24.598  24.648  12.995  0.1041 -0.0531  0.2271
 1190BOLB   PO228550  24.683  24.684  13.489  0.0737  0.0411 -0.1817
 1190BOLB   GL328551  24.256  24.630  13.542 -0.2511 -0.1137 -0.1851
 1190BOLB   GL428552  24.235  24.817  13.902 -0.0200  0.2119  0.0890
 1190BOLB   C1C28553  24.167  24.278  14.038  0.2596  0.1422 -0.2524
 1190BOLB   C2C28554  23.860  24.054  14.245  0.0803  0.1027 -0.4794
 1190BOLB   C3C28555  23.692  24.189  14.569 -0.1216  0.1835  0.1026
 1190BOLB   C4C28556  23.386  23.854  14.599  0.1382  0.4990 -0.1794
 1190BOLB   C1D28557  23.844  24.570  13.762 -0.1946 -0.4670 -0.1016
 1190BOLB   C2D28558  23.551  24.312  13.929 -0.1247 -0.0022  0.0264
 1190BOLB   C3D28559  23.380  24.033  14.173 -0.0428  0.0575 -0.1036
 1190BOLB   C4D28560  23.244  23.681  14.098  0.3134 -0.1633  0.2079
 1191BOLB   NC128561  15.268  12.536  11.904 -0.2192  0.1362 -0.2251
 1191BOLB   PO128562  15.544  12.734  11.565 -0.2035  0.0791 -0.0820
 1191BOLB   GL128563  15.638  12.583  11.201  0.1220 -0.3103  0.0338
 1191BOLB   GL228564  15.334  12.643  10.966 -0.5841 -0.0654 -0.1054
 1191BOLB   C1A28565  15.792  12.417  10.805  0.3628 -0.1768 -0.0530
 1191BOLB   C2A28566  16.160  12.520  10.527  0.2546 -0.1222  0.3314
 1191BOLB   C3A28567  16.259  12.242  10.089  0.0419 -0.4686 -0.0823
 1191BOLB   C4A28568  16.400  12.060   9.799  0.0148  0.2829  0.0519
 1191BOLB   C1B28569  15.182  12.542  10.598 -0.0077  0.0432  0.2653
 1191BOLB   C2B28570  15.273  12.511  10.190  0.0405 -0.0227 -0.4994
 1191BOLB   C3B28571  15.502  12.459   9.835  0.1604  0.3210  0.2133
 1191BOLB   C4B28572  15.697  12.616   9.436  0.2534 -0.0527 -0.4850
 1191BOLB   NC228573  18.116  10.826   8.038  0.0754  0.0992 -0.1705
 1191BOLB   PO228574  17.835  10.620   8.117 -0.0720 -0.0007 -0.1971
 1191BOLB   GL328575  17.573  10.889   8.422  0.0591  0.1942 -0.1305
 1191BOLB   GL428576  17.716  10.593   8.585  0.0507  0.0468  0.2674
 1191BOLB   C1C28577  17.371  11.041   8.698  0.2553 -0.2088 -0.1708
 1191BOLB   C2C28578  17.106  11.353   8.992 -0.0541 -0.2330 -0.2684
 1191BOLB   C3C28579  16.763  11.631   9.111  0.3099 -0.2392  0.0058
 1191BOLB   C4C28580  16.502  11.690   9.560  0.0558 -0.1438  0.1275
 1191BOLB   C1D28581  17.635  10.743   9.007  0.2703 -0.0771  0.2981
 1191BOLB   C2D28582  17.893  10.930   9.259 -0.2031 -0.1503  0.1124
 1191BOLB   C3D28583  17.989  11.389   9.478  0.0499  0.1088  0.0977
 1191BOLB   C4D28584  17.926  11.544   9.861  0.0487 -0.0138  0.0295
 1192BOLB   NC128585   9.896  11.232  12.306 -0.0496 -0.0991  0.1701
 1192BOLB   PO128586   9.496  11.458  12.227 -0.0882  0.1355  0.2242
 1192BOLB   GL128587   9.448  11.594  11.698 -0.0353  0.1065 -0.0475
 1192BOLB   GL228588   9.299  11.922  11.545  0.0879 -0.3214 -0.1543
 1192BOLB   C1A28589   9.664  11.581  11.306  0.1666  0.0286  0.1668
 1192BOLB   C2A28590   9.659  11.692  10.932  0.2011 -0.0420  0.0895
 1192BOLB   C3A28591   9.495  11.786  10.424  0.5133  0.1337  0.0535
 1192BOLB   C4A28592   9.443  11.679  10.039 -0.3917  0.3614  0.0056
 1192BOLB   C1B28593   9.227  11.749  11.226  0.0891  0.3816 -0.3349
 1192BOLB   C2B28594   9.115  11.936  10.836 -0.0621 -0.0928 -0.0714
 1192BOLB   C3B28595   9.018  11.990  10.416 -0.3183 -0.0541  0.2382
 1192BOLB   C4B28596   9.043  12.067   9.966 -0.3552  0.0879  0.0342
 1192BOLB   NC228597   9.637  10.958   7.545  0.1279  0.2087 -0.2514
 1192BOLB   PO228598   9.756  11.277   7.364  0.0379 -0.1995 -0.1479
 1192BOLB   GL328599   9.642  11.411   7.762 -0.0524  0.1618  0.2186
 1192BOLB   GL428600   9.620  11.645   8.083 -0.1127 -0.0143  0.2791
 1192BOLB   C1C28601   9.641  11.211   8.342  0.1607  0.1583  0.2126
 1192BOLB   C2C28602   9.656  11.196   8.735 -0.1424 -0.0493  0.0540
 1192BOLB   C3C28603   9.736  11.363   9.161  0.2995 -0.0448  0.2595
 1192BOLB   C4C28604   9.758  11.563   9.598 -0.1451 -0.1047  0.1839
 1192BOLB   C1D28605   9.665  11.995   8.317 -0.1168  0.0173  0.2553
 1192BOLB   C2D28606   9.860  12.202   8.729  0.0401  0.2733  0.2647
 1192BOLB   C3D28607  10.039  12.333   8.991  0.1229 -0.1285  0.1468
 1192BOLB   C4D28608  10.321  12.022   9.173  0.0016  0.1103  0.0004
 1193BOLB   NC128609  18.277  19.515  11.701 -0.2599 -0.2925 -0.1770
 1193BOLB   PO128610  18.471  19.595  11.433 -0.0760  0.0357  0.1401
 1193BOLB   GL128611  18.605  19.699  11.074 -0.2022  0.2184 -0.2898
 1193BOLB   GL228612  18.427  19.774  10.780  0.1230 -0.1195 -0.2431
 1193BOLB   C1A28613  18.985  19.727  10.898  0.0857 -0.1684  0.0320
 1193BOLB   C2A28614  19.096  19.761  10.406 -0.1137  0.1246 -0.1165
 1193BOLB   C3A28615  19.247  20.094  10.104  0.0645 -0.2141 -0.3105
 1193BOLB   C4A28616  19.078  20.388   9.893 -0.2968 -0.0896 -0.2210
 1193BOLB   C1B28617  18.560  19.652  10.404  0.2078  0.3141  0.0056
 1193BOLB   C2B28618  18.566  19.495   9.927 -0.1141  0.1662 -0.1226
 1193BOLB   C3B28619  18.892  19.178   9.823 -0.2149 -0.0131  0.0949
 1193BOLB   C4B28620  18.938  19.123   9.450 -0.2137 -0.1924  0.0538
 1193BOLB   NC228621  19.825  21.748   8.184 -0.1689 -0.4176  0.2677
 1193BOLB   PO228622  19.481  21.637   7.866  0.1520  0.0127  0.0056
 1193BOLB   GL328623  19.495  21.317   8.254 -0.0343  0.1068  0.3271
 1193BOLB   GL428624  19.362  20.955   8.257 -0.2217 -0.4673 -0.0950
 1193BOLB   C1C28625  19.613  21.272   8.697 -0.0186  0.1200  0.0578
 1193BOLB   C2C28626  19.484  21.285   9.114 -0.0871 -0.0637 -0.1985
 1193BOLB   C3C28627  19.384  21.183   9.573 -0.2514  0.2409 -0.0737
 1193BOLB   C4C28628  19.142  20.763   9.642  0.0796 -0.2252  0.0931
 1193BOLB   C1D28629  19.210  20.646   8.493  0.0611 -0.1782 -0.1905
 1193BOLB   C2D28630  18.789  20.578   8.702 -0.0432 -0.0780 -0.0059
 1193BOLB   C3D28631  18.461  20.566   8.992 -0.1768 -0.0171  0.4121
 1193BOLB   C4D28632  18.158  20.350   8.998 -0.1168 -0.1327  0.2478
 1194BOLB   NC128633  17.030  22.876  12.481 -0.6412  0.0038  0.2003
 1194BOLB   PO128634  17.279  22.813  12.156  0.0075  0.2891 -0.0876
 1194BOLB   GL128635  17.550  22.915  11.799  0.2162 -0.1791 -0.0263
 1194BOLB   GL228636  17.526  23.259  11.888 -0.6542 -0.0526  0.2904
 1194BOLB   C1A28637  17.566  22.990  11.408 -0.2291 -0.0427  0.1096
 1194BOLB   C2A28638  17.705  23.117  10.941  0.0717 -0.3532 -0.0062
 1194BOLB   C3A28639  17.481  22.894  10.574 -0.0188 -0.0758  0.1634
 1194BOLB   C4A28640  17.654  22.721  10.231  0.1126 -0.0003  0.1006
 1194BOLB   C1B28641  17.560  23.462  11.565 -0.1357 -0.0166 -0.1640
 1194BOLB   C2B28642  17.775  23.627  11.106 -0.1614 -0.0434  0.0528
 1194BOLB   C3B28643  17.808  23.678  10.658  0.2694 -0.0746 -0.0076
 1194BOLB   C4B28644  17.519  23.848  10.573  0.0616 -0.0233 -0.1262
 1194BOLB   NC228645  18.125  23.450   7.924  0.0571  0.2843 -0.1900
 1194BOLB   PO228646  17.848  23.761   8.056  0.0227  0.3436  0.1837
 1194BOLB   GL328647  17.834  23.487   8.373  0.0380  0.1334  0.1284
 1194BOLB   GL428648  18.127  23.248   8.378 -0.0590  0.2987 -0.0563
 1194BOLB   C1C28649  17.737  23.330   8.769  0.1008  0.1446 -0.3401
 1194BOLB   C2C28650  17.481  22.980   9.020 -0.0145 -0.3287  0.0552
 1194BOLB   C3C28651  17.485  22.792   9.490 -0.1517  0.1464 -0.0265
 1194BOLB   C4C28652  17.681  22.593   9.816 -0.0461  0.0242  0.0979
 1194BOLB   C1D28653  18.284  22.814   8.500  0.1454 -0.2188 -0.0251
 1194BOLB   C2D28654  18.277  22.529   8.776  0.0414  0.2187 -0.2024
 1194BOLB   C3D28655  18.435  22.583   9.235  0.2891 -0.1470  0.1548
 1194BOLB   C4D28656  18.617  22.228   9.526 -0.0910  0.0596 -0.1740
 1195BOLB   NC128657  14.327  22.915  12.053  0.0592  0.1012  0.0489
 1195BOLB   PO128658  14.207  23.322  12.225 -0.1106 -0.0330  0.1818
 1195BOLB   GL128659  14.170  23.647  12.018 -0.1037 -0.2129  0.1802
 1195BOLB   GL228660  13.888  23.604  11.894  0.0793 -0.0098 -0.0235
 1195BOLB   C1A28661  14.283  23.757  11.575  0.0893 -0.0725  0.3472
 1195BOLB   C2A28662  14.181  23.981  11.197  0.1430 -0.0169 -0.1058
 1195BOLB   C3A28663  14.119  24.072  10.724  0.2455  0.3180  0.3671
 1195BOLB   C4A28664  14.392  24.111  10.338 -0.1510 -0.1642  0.0981
 1195BOLB   C1B28665  13.866  24.061  11.700  0.0604  0.2362  0.0850
 1195BOLB   C2B28666  13.940  24.422  11.319  0.0566  0.0372 -0.1718
 1195BOLB   C3B28667  14.086  24.590  10.926 -0.0170  0.1620 -0.2474
 1195BOLB   C4B28668  14.237  24.943  10.719 -0.3055  0.0247 -0.0629
 1195BOLB   NC228669  15.476  24.360   8.353 -0.0056 -0.1765  0.1339
 1195BOLB   PO228670  15.689  24.660   8.549  0.0744  0.0018  0.2003
 1195BOLB   GL328671  15.506  24.479   8.930  0.1039 -0.1377 -0.3614
 1195BOLB   GL428672  15.542  24.764   9.012  0.5416 -0.1176 -0.0646
 1195BOLB   C1C28673  15.476  24.262   9.210  0.0212 -0.1397  0.0722
 1195BOLB   C2C28674  15.331  24.131   9.668  0.0326 -0.4060  0.0793
 1195BOLB   C3C28675  15.002  24.202   9.855  0.0471 -0.0910  0.0181
 1195BOLB   C4C28676  14.711  23.982  10.102  0.0041 -0.1303  0.3244
 1195BOLB   C1D28677  15.996  24.598   9.304 -0.0437  0.0313  0.2174
 1195BOLB   C2D28678  16.294  24.429   9.622 -0.0507 -0.4227 -0.1338
 1195BOLB   C3D28679  16.752  24.122   9.693  0.0870  0.0913 -0.1169
 1195BOLB   C4D28680  17.126  23.946   9.827  0.0820  0.2165  0.0913
 1196BOLB   NC128681  21.979  19.490  13.557 -0.0304 -0.0580 -0.3272
 1196BOLB   PO128682  22.432  19.432  13.837  0.1728  0.1348  0.0357
 1196BOLB   GL128683  22.725  19.446  13.543 -0.2736  0.1687 -0.1480
 1196BOLB   GL228684  22.862  19.179  13.518 -0.1589  0.0939  0.2079
 1196BOLB   C1A28685  22.963  19.600  13.172 -0.1153 -0.0027  0.0794
 1196BOLB   C2A28686  23.148  19.758  12.741 -0.2425 -0.1519  0.3331
 1196BOLB   C3A28687  23.636  19.780  12.622 -0.1667 -0.1760  0.0097
 1196BOLB   C4A28688  23.960  19.686  12.532 -0.3451  0.0577 -0.1800
 1196BOLB   C1B28689  23.193  19.249  13.401  0.2204  0.2155  0.1262
 1196BOLB   C2B28690  23.503  19.468  13.172  0.1744 -0.2185  0.0789
 1196BOLB   C3B28691  23.945  19.386  12.956  0.0627  0.1115 -0.2554
 1196BOLB   C4B28692  24.356  19.472  12.876 -0.1440 -0.1477  0.2306
 1196BOLB   NC228693  26.400  18.535  12.348  0.1402  0.0798 -0.0618
 1196BOLB   PO228694  26.201  18.931  12.196  0.3296 -0.0805 -0.0216
 1196BOLB   GL328695  25.857  18.736  12.374  0.3355 -0.0362  0.0789
 1196BOLB   GL428696  25.968  18.586  12.613 -0.2792  0.0031  0.0555
 1196BOLB   C1C28697  25.395  18.859  12.400  0.3573  0.0983  0.1593
 1196BOLB   C2C28698  24.920  18.739  12.305 -0.1977  0.0464 -0.2899
 1196BOLB   C3C28699  24.559  19.034  12.542 -0.0746 -0.1575 -0.0394
 1196BOLB   C4C28700  24.249  19.323  12.446  0.1048  0.1892  0.0523
 1196BOLB   C1D28701  25.557  18.483  12.738  0.0391  0.1672 -0.3505
 1196BOLB   C2D28702  25.130  18.481  12.671 -0.2101  0.1340 -0.0496
 1196BOLB   C3D28703  24.814  18.732  12.833 -0.0356 -0.1957  0.2034
 1196BOLB   C4D28704  24.408  18.757  12.932  0.3305 -0.3617 -0.1024
 1197BOLB   NC128705  18.245  12.463  12.327  0.0060 -0.1180 -0.4095
 1197BOLB   PO128706  18.100  12.134  12.513  0.1008 -0.2251 -0.0444
 1197BOLB   GL128707  18.152  11.977  12.111 -0.3661  0.0038 -0.0933
 1197BOLB   GL228708  18.036  12.108  11.751  0.1831  0.3756 -0.1164
 1197BOLB   C1A28709  18.563  11.907  11.776 -0.1022  0.2214 -0.1731
 1197BOLB   C2A28710  18.776  11.996  11.367 -0.1250 -0.1517 -0.0735
 1197BOLB   C3A28711  18.665  12.193  10.955  0.1757 -0.0011 -0.1078
 1197BOLB   C4A28712  18.557  12.079  10.494 -0.1453 -0.0063  0.0385
 1197BOLB   C1B28713  18.277  12.009  11.290  0.0928  0.1798 -0.1054
 1197BOLB   C2B28714  18.300  11.744  10.913  0.1444 -0.2144  0.0670
 1197BOLB   C3B28715  18.247  11.691  10.458  0.1027  0.0310  0.2201
 1197BOLB   C4B28716  18.436  11.904  10.051 -0.1278  0.2713 -0.0345
 1197BOLB   NC228717  19.073  10.569   8.070  0.2216  0.1790  0.1318
 1197BOLB   PO228718  19.339  10.795   8.335 -0.1200  0.0212  0.0305
 1197BOLB   GL328719  19.034  10.875   8.631 -0.6005 -0.1703 -0.1775
 1197BOLB   GL428720  19.169  11.221   8.771 -0.0258 -0.1266 -0.0898
 1197BOLB   C1C28721  18.835  11.083   9.084  0.0058  0.0058 -0.1073
 1197BOLB   C2C28722  18.818  11.329   9.509  0.0661 -0.1085 -0.0480
 1197BOLB   C3C28723  18.888  11.484   9.945 -0.3640  0.3464  0.3426
 1197BOLB   C4C28724  18.761  11.653  10.353 -0.0338  0.1144  0.0021
 1197BOLB   C1D28725  19.551  11.142   8.862 -0.1104 -0.0767 -0.2200
 1197BOLB   C2D28726  19.946  11.409   9.040 -0.2164 -0.1053  0.0088
 1197BOLB   C3D28727  20.057  11.683   9.431 -0.1403 -0.1642 -0.2945
 1197BOLB   C4D28728  20.059  11.990   9.472 -0.1479 -0.1685  0.1211
 1198BOLB   NC128729  16.775  21.551  11.938 -0.1314 -0.0519 -0.2085
 1198BOLB   PO128730  16.677  21.515  11.503 -0.1750  0.1468 -0.0293
 1198BOLB   GL128731  16.996  21.461  11.310  0.0365 -0.2553 -0.1867
 1198BOLB   GL228732  17.095  21.203  11.251  0.1004 -0.0866 -0.0289
 1198BOLB   C1A28733  17.167  21.841  11.069  0.2894 -0.0973 -0.2541
 1198BOLB   C2A28734  17.233  22.159  10.692  0.1056 -0.1086  0.1714
 1198BOLB   C3A28735  17.296  22.209  10.267 -0.0363  0.2821 -0.2095
 1198BOLB   C4A28736  17.259  22.462  10.040  0.1651 -0.1289 -0.2402
 1198BOLB   C1B28737  17.001  21.319  10.811 -0.0458 -0.0890  0.1775
 1198BOLB   C2B28738  16.943  21.623  10.495  0.0590 -0.3243 -0.0639
 1198BOLB   C3B28739  17.009  21.879  10.091  0.1515  0.0207 -0.0532
 1198BOLB   C4B28740  16.986  22.114   9.868  0.3696 -0.0109 -0.4828
 1198BOLB   NC228741  17.398  23.467   8.074 -0.0455  0.3083 -0.0906
 1198BOLB   PO228742  17.710  23.159   7.969  0.1291 -0.1263 -0.1669
 1198BOLB   GL328743  17.789  22.907   8.312 -0.2521 -0.0406  0.1573
 1198BOLB   GL428744  17.489  22.649   8.395  0.3507 -0.1422  0.0895
 1198BOLB   C1C28745  17.833  22.827   8.690  0.0207 -0.0293  0.2216
 1198BOLB   C2C28746  17.798  22.542   9.082 -0.0580 -0.0532  0.1486
 1198BOLB   C3C28747  17.581  22.349   9.346  0.0198  0.2606  0.1030
 1198BOLB   C4C28748  17.380  22.224   9.658  0.4013 -0.1718  0.2273
 1198BOLB   C1D28749  17.536  22.415   8.663 -0.0023 -0.2217  0.1341
 1198BOLB   C2D28750  17.766  22.096   8.923  0.1991 -0.2950 -0.0359
 1198BOLB   C3D28751  18.165  22.006   9.088 -0.0706  0.1922 -0.1966
 1198BOLB   C4D28752  18.598  22.168   8.931  0.2617  0.2567 -0.0134
 1199BOLB   NC128753  15.258  21.676  11.540 -0.0976 -0.0050 -0.0850
 1199BOLB   PO128754  15.713  21.656  11.452 -0.2512  0.2273  0.1175
 1199BOLB   GL128755  15.795  21.828  11.076  0.2368  0.0949  0.3656
 1199BOLB   GL228756  15.948  22.105  11.110 -0.0980 -0.1665 -0.0835
 1199BOLB   C1A28757  15.594  22.077  10.790 -0.0137  0.2064 -0.1361
 1199BOLB   C2A28758  15.508  22.280  10.408 -0.2816  0.0439  0.2231
 1199BOLB   C3A28759  15.477  22.360   9.948 -0.1571 -0.1196 -0.2650
 1199BOLB   C4A28760  15.612  22.251   9.418 -0.4520 -0.3717 -0.1906
 1199BOLB   C1B28761  16.225  21.874  10.785  0.1757 -0.2150 -0.2451
 1199BOLB   C2B28762  16.449  21.625  10.474  0.2175  0.0456 -0.0161
 1199BOLB   C3B28763  16.593  21.624  10.126  0.1305 -0.0573 -0.0291
 1199BOLB   C4B28764  16.799  21.542   9.782 -0.2686  0.2010 -0.0818
 1199BOLB   NC228765  16.409  23.534   6.914  0.0035  0.6100  0.2651
 1199BOLB   PO228766  16.404  23.435   7.410 -0.0129  0.1403 -0.2854
 1199BOLB   GL328767  16.093  23.067   7.657  0.1524  0.1109  0.2534
 1199BOLB   GL428768  16.063  22.724   7.853 -0.4699  0.1146  0.2601
 1199BOLB   C1C28769  15.684  23.105   8.009  0.1501 -0.1473  0.3434
 1199BOLB   C2C28770  15.532  22.949   8.424  0.1874 -0.0220  0.4485
 1199BOLB   C3C28771  15.545  22.671   8.703 -0.0698  0.0488  0.0819
 1199BOLB   C4C28772  15.535  22.395   8.975  0.1459  0.1617 -0.2494
 1199BOLB   C1D28773  15.787  22.639   8.190 -0.1829 -0.0257 -0.1746
 1199BOLB   C2D28774  15.792  22.270   8.389  0.0699  0.0772 -0.0311
 1199BOLB   C3D28775  16.137  22.128   8.745  0.0187  0.3930 -0.1135
 1199BOLB   C4D28776  16.410  21.825   8.963 -0.5210 -0.1915  0.0097
 1200BOLB   NC128777  21.804  21.145  14.350  0.1543  0.1950  0.1921
 1200BOLB   PO128778  21.533  21.052  14.052  0.0162 -0.1787 -0.0309
 1200BOLB   GL128779  21.571  21.219  13.645 -0.4699  0.0536 -0.1127
 1200BOLB   GL228780  21.438  21.109  13.338  0.1897  0.1224  0.0260
 1200BOLB   C1A28781  21.781  21.524  13.347  0.0724 -0.0063 -0.1228
 1200BOLB   C2A28782  22.204  21.588  13.419 -0.2062  0.2219 -0.4151
 1200BOLB   C3A28783  22.557  21.835  13.437 -0.1789 -0.1937 -0.2695
 1200BOLB   C4A28784  22.817  22.203  13.299  0.1076  0.0801  0.0113
 1200BOLB   C1B28785  21.684  21.129  13.048  0.1908  0.1187 -0.0705
 1200BOLB   C2B28786  21.956  21.332  12.859 -0.1981  0.0790 -0.2511
 1200BOLB   C3B28787  22.178  21.285  12.484  0.0916  0.0775  0.0097
 1200BOLB   C4B28788  22.219  21.323  12.114  0.0950  0.1478  0.0999
 1200BOLB   NC228789  24.906  23.717  13.388  0.1383 -0.1532  0.3434
 1200BOLB   PO228790  24.853  23.864  12.893 -0.0242 -0.1673  0.2428
 1200BOLB   GL328791  24.502  23.551  12.997 -0.1066  0.2064 -0.0185
 1200BOLB   GL428792  24.322  23.841  13.175 -0.0600  0.4457 -0.2420
 1200BOLB   C1C28793  24.075  23.303  13.041 -0.0443  0.3120  0.2475
 1200BOLB   C2C28794  23.840  22.980  12.868  0.1863  0.0035  0.0396
 1200BOLB   C3C28795  23.476  22.688  12.935  0.0193  0.1541  0.3558
 1200BOLB   C4C28796  23.076  22.473  13.090 -0.1768 -0.0325 -0.0145
 1200BOLB   C1D28797  23.871  23.827  13.151 -0.3287 -0.4368  0.1392
 1200BOLB   C2D28798  23.419  23.840  13.024 -0.1259 -0.0234 -0.0405
 1200BOLB   C3D28799  23.131  23.954  12.757  0.0569  0.1311 -0.2170
 1200BOLB   C4D28800  23.212  23.894  12.300  0.0366 -0.0644  0.0385
 1201BOLB   NC128801  20.679  15.213  12.319 -0.3211  0.0389  0.1469
 1201BOLB   PO128802  20.871  15.692  12.197  0.0656  0.0813 -0.0596
 1201BOLB   GL128803  21.158  15.390  12.096  0.2636 -0.3520 -0.0385
 1201BOLB   GL228804  20.986  15.169  11.956 -0.1245 -0.2030 -0.1189
 1201BOLB   C1A28805  21.429  15.476  11.740 -0.0308 -0.1649  0.0601
 1201BOLB   C2A28806  21.673  15.378  11.479 -0.0107  0.1031  0.2487
 1201BOLB   C3A28807  21.788  15.229  11.033  0.1271 -0.5370 -0.0821
 1201BOLB   C4A28808  21.873  15.246  10.635  0.1830 -0.4583  0.0757
 1201BOLB   C1B28809  21.193  15.047  11.602  0.0029 -0.0775  0.3495
 1201BOLB   C2B28810  21.367  15.029  11.170 -0.1072 -0.1546  0.1189
 1201BOLB   C3B28811  21.215  14.830  10.743  0.0120 -0.1949 -0.0791
 1201BOLB   C4B28812  21.250  14.671  10.306 -0.1262 -0.0669 -0.0536
 1201BOLB   NC228813  23.801  15.468   9.013  0.2784 -0.0556 -0.1517
 1201BOLB   PO228814  23.387  15.247   8.872 -0.0597 -0.1338 -0.0106
 1201BOLB   GL328815  23.382  15.280   9.283 -0.0499 -0.2100  0.0598
 1201BOLB   GL428816  23.515  15.178   9.519 -0.0252  0.0769  0.1094
 1201BOLB   C1C28817  23.073  15.071   9.579 -0.0962  0.0537  0.1141
 1201BOLB   C2C28818  22.721  14.981   9.918 -0.0663  0.0248  0.0644
 1201BOLB   C3C28819  22.530  15.141  10.363  0.3235 -0.2427  0.4044
 1201BOLB   C4C28820  22.210  15.340  10.593 -0.2859 -0.2211 -0.4924
 1201BOLB   C1D28821  23.682  15.037   9.884  0.2981 -0.0021 -0.0652
 1201BOLB   C2D28822  23.657  15.179  10.261 -0.3973  0.2681  0.0558
 1201BOLB   C3D28823  23.437  15.381  10.514  0.0797 -0.0182 -0.0906
 1201BOLB   C4D28824  23.520  15.625  10.772 -0.1615 -0.0255 -0.3115
 1202BOLB   NC128825  15.709  17.680  11.727  0.2683 -0.0147  0.0044
 1202BOLB   PO128826  15.718  18.147  11.442  0.0267 -0.0264  0.2440
 1202BOLB   GL128827  15.785  18.133  11.077  0.2336 -0.3584  0.2886
 1202BOLB   GL228828  15.495  18.053  10.875 -0.2593  0.1350 -0.0321
 1202BOLB   C1A28829  15.905  18.454  10.706  0.0013 -0.1225  0.1132
 1202BOLB   C2A28830  16.001  18.258  10.243 -0.1201  0.0344  0.4357
 1202BOLB   C3A28831  16.212  18.312   9.765 -0.3625  0.1570  0.0147
 1202BOLB   C4A28832  16.376  18.345   9.345 -0.2405  0.1094  0.1633
 1202BOLB   C1B28833  15.913  17.924  10.683  0.1375 -0.0850 -0.2347
 1202BOLB   C2B28834  15.966  17.730  10.259 -0.0015  0.0827 -0.4009
 1202BOLB   C3B28835  15.921  17.859   9.878  0.1207  0.0872 -0.1252
 1202BOLB   C4B28836  15.941  18.085   9.384  0.2930  0.2563 -0.2168
 1202BOLB   NC228837  17.687  18.253   7.351 -0.2113  0.1462  0.1423
 1202BOLB   PO228838  17.675  17.808   7.382  0.2556  0.3610 -0.1822
 1202BOLB   GL328839  17.640  17.913   7.804  0.2648 -0.2308  0.1012
 1202BOLB   GL428840  17.622  18.285   7.959 -0.4856  0.2228 -0.0782
 1202BOLB   C1C28841  17.331  17.950   8.118  0.1310 -0.1334  0.0996
 1202BOLB   C2C28842  17.187  18.168   8.495 -0.0413  0.1659 -0.0861
 1202BOLB   C3C28843  17.072  18.406   8.847 -0.0138 -0.1558 -0.0487
 1202BOLB   C4C28844  16.735  18.364   9.180  0.0746  0.1318 -0.1481
 1202BOLB   C1D28845  17.764  18.038   8.276  0.1139 -0.3689  0.0550
 1202BOLB   C2D28846  17.873  17.799   8.559 -0.2385  0.1929 -0.0150
 1202BOLB   C3D28847  18.021  17.706   9.040 -0.2650  0.0402 -0.2628
 1202BOLB   C4D28848  18.036  17.347   9.527 -0.1925 -0.0567  0.0113
 1203BOLB   NC128849  15.541  23.869  12.494 -0.2118  0.3734  0.2829
 1203BOLB   PO128850  15.838  23.765  12.442 -0.1426  0.3271  0.1642
 1203BOLB   GL128851  15.840  23.986  11.981 -0.1967  0.0782 -0.0073
 1203BOLB   GL228852  15.704  23.733  11.853 -0.1476 -0.2335  0.1508
 1203BOLB   C1A28853  15.969  24.039  11.539 -0.0758  0.0178 -0.1406
 1203BOLB   C2A28854  16.000  24.079  11.115  0.1632  0.2184  0.0058
 1203BOLB   C3A28855  15.896  23.954  10.724  0.2258 -0.2825  0.2067
 1203BOLB   C4A28856  16.064  24.102  10.385  0.0780 -0.1049  0.1195
 1203BOLB   C1B28857  15.455  23.800  11.585  0.0916  0.0966  0.0670
 1203BOLB   C2B28858  15.420  23.771  11.139 -0.1769 -0.0881  0.0407
 1203BOLB   C3B28859  15.454  23.595  10.762 -0.0971 -0.0078  0.4579
 1203BOLB   C4B28860  15.452  23.830  10.464 -0.0529  0.0399  0.0275
 1203BOLB   NC228861  16.491  24.147   8.237 -0.2209  0.2818  0.0298
 1203BOLB   PO228862  16.835  23.965   7.962  0.1178 -0.2203  0.0853
 1203BOLB   GL328863  16.937  23.898   8.373 -0.3751 -0.0610 -0.0629
 1203BOLB   GL428864  17.324  23.711   8.555  0.1721 -0.1411  0.3344
 1203BOLB   C1C28865  16.889  23.946   8.814  0.2248  0.0406 -0.3772
 1203BOLB   C2C28866  16.568  23.967   9.179 -0.3522  0.0875 -0.3429
 1203BOLB   C3C28867  16.287  23.976   9.589  0.2104 -0.2042  0.1222
 1203BOLB   C4C28868  16.204  24.003   9.949 -0.0025 -0.1433  0.1079
 1203BOLB   C1D28869  17.112  23.505   8.822 -0.2921 -0.0850  0.1701
 1203BOLB   C2D28870  17.033  23.563   9.155 -0.0483 -0.2120  0.0842
 1203BOLB   C3D28871  16.887  23.649   9.529  0.3752  0.0268 -0.0016
 1203BOLB   C4D28872  16.668  23.751  10.002  0.0930  0.3838  0.0368
 1204BOLB   NC128873  20.159  23.435  13.458 -0.3492  0.1543  0.2137
 1204BOLB   PO128874  19.984  23.787  13.685  0.0545 -0.0034 -0.0664
 1204BOLB   GL128875  20.311  24.020  13.353  0.1327  0.2106  0.0288
 1204BOLB   GL228876  20.535  23.700  13.214 -0.0501 -0.1176 -0.0895
 1204BOLB   C1A28877  20.643  24.180  13.037  0.2010  0.3028 -0.2637
 1204BOLB   C2A28878  21.012  24.216  12.802  0.1035 -0.0859  0.1092
 1204BOLB   C3A28879  21.357  24.194  12.529  0.1584 -0.0676 -0.1913
 1204BOLB   C4A28880  21.594  24.400  12.099  0.1830 -0.0733  0.0137
 1204BOLB   C1B28881  20.932  23.759  13.162  0.0527 -0.0929  0.0879
 1204BOLB   C2B28882  21.320  23.903  13.122 -0.0017  0.0696  0.0659
 1204BOLB   C3B28883  21.700  23.944  12.827  0.0968 -0.0855  0.0719
 1204BOLB   C4B28884  21.876  24.128  12.490 -0.1709 -0.0895 -0.1081
 1204BOLB   NC228885  22.350  23.322   9.434 -0.1849 -0.1243 -0.1875
 1204BOLB   PO228886  22.183  23.487   9.814  0.0106  0.0510  0.2831
 1204BOLB   GL328887  22.269  23.563  10.183 -0.0004  0.0038  0.0176
 1204BOLB   GL428888  22.449  23.252  10.359 -0.3562  0.3104  0.3327
 1204BOLB   C1C28889  22.130  23.506  10.596  0.3595  0.2561 -0.0097
 1204BOLB   C2C28890  22.152  23.647  11.080  0.3423 -0.3795 -0.0121
 1204BOLB   C3C28891  22.097  23.998  11.405  0.4436 -0.2755  0.3431
 1204BOLB   C4C28892  21.925  24.297  11.796  0.2091 -0.2051 -0.1028
 1204BOLB   C1D28893  22.229  22.920  10.546  0.1786 -0.1134  0.2169
 1204BOLB   C2D28894  21.822  22.780  10.661 -0.0659 -0.1754  0.1199
 1204BOLB   C3D28895  21.538  22.473  10.615  0.1740  0.1751  0.0130
 1204BOLB   C4D28896  21.171  22.438  10.676 -0.1282 -0.2503  0.2893
 1205BOLB   NC128897  16.378  20.402  11.709  0.0422  0.3619 -0.0660
 1205BOLB   PO128898  16.918  20.556  11.770 -0.0105  0.2431  0.1380
 1205BOLB   GL128899  17.057  20.705  11.331 -0.1451 -0.1325 -0.0170
 1205BOLB   GL228900  16.780  20.847  11.055  0.3005  0.1669  0.0292
 1205BOLB   C1A28901  17.269  20.506  10.972  0.1497  0.2805  0.1069
 1205BOLB   C2A28902  17.506  20.582  10.526  0.0861  0.0877 -0.0841
 1205BOLB   C3A28903  17.717  20.297  10.126 -0.0928  0.0519 -0.0680
 1205BOLB   C4A28904  17.802  20.119   9.714 -0.0022 -0.1187  0.1855
 1205BOLB   C1B28905  16.965  20.739  10.571 -0.2245 -0.0059 -0.0345
 1205BOLB   C2B28906  17.229  20.962  10.342  0.2280  0.0679 -0.0743
 1205BOLB   C3B28907  17.333  21.421  10.165 -0.1857 -0.1798 -0.0422
 1205BOLB   C4B28908  17.398  21.740   9.748  0.3270 -0.1199  0.2609
 1205BOLB   NC228909  18.082  21.498   7.702 -0.3204  0.4064  0.1321
 1205BOLB   PO228910  18.106  21.049   7.582 -0.0579 -0.0873  0.0868
 1205BOLB   GL328911  18.027  21.040   7.924 -0.0447  0.3306  0.1338
 1205BOLB   GL428912  18.256  21.257   8.112 -0.3300  0.2622 -0.0921
 1205BOLB   C1C28913  17.986  20.873   8.279  0.1005 -0.1685  0.0553
 1205BOLB   C2C28914  17.782  20.717   8.674  0.0255 -0.1829 -0.2735
 1205BOLB   C3C28915  17.681  20.528   8.999  0.0946 -0.1954  0.1040
 1205BOLB   C4C28916  17.820  20.263   9.346 -0.1023 -0.1255  0.1707
 1205BOLB   C1D28917  18.396  21.407   8.359 -0.5430  0.1338 -0.0008
 1205BOLB   C2D28918  18.870  21.327   8.608  0.1062 -0.2565 -0.0867
 1205BOLB   C3D28919  19.179  21.097   8.723 -0.1390  0.4238  0.0686
 1205BOLB   C4D28920  19.205  20.901   9.138  0.3571 -0.3010  0.0355
 1206BOLB   NC128921  13.687  15.946  11.235  0.1046  0.3598 -0.1945
 1206BOLB   PO128922  14.054  15.658  11.383 -0.1609  0.1055 -0.0742
 1206BOLB   GL128923  14.140  15.722  10.927  0.2126 -0.0837 -0.0918
 1206BOLB   GL228924  14.384  15.979  10.873 -0.2566 -0.0967 -0.0411
 1206BOLB   C1A28925  13.895  15.538  10.589  0.0032 -0.2590 -0.2772
 1206BOLB   C2A28926  13.982  15.355  10.240 -0.1515 -0.1371  0.0010
 1206BOLB   C3A28927  14.140  15.498   9.881  0.1090 -0.1119  0.0942
 1206BOLB   C4A28928  14.089  15.231   9.564 -0.1371 -0.0526 -0.0984
 1206BOLB   C1B28929  14.379  16.200  10.566 -0.2117 -0.0414 -0.2542
 1206BOLB   C2B28930  14.209  16.295  10.264 -0.4190 -0.5113 -0.2909
 1206BOLB   C3B28931  14.198  16.444   9.892  0.0855  0.2732 -0.0342
 1206BOLB   C4B28932  14.235  16.413   9.483  0.0452 -0.0068  0.5272
 1206BOLB   NC228933  13.869  14.859   7.197 -0.0029  0.4908 -0.3102
 1206BOLB   PO228934  14.111  14.521   7.303  0.3432 -0.0773 -0.3780
 1206BOLB   GL328935  14.348  14.682   7.555  0.1019  0.0758 -0.4937
 1206BOLB   GL428936  14.653  14.923   7.424 -0.2536  0.2089 -0.2135
 1206BOLB   C1C28937  14.176  15.104   7.809  0.1794 -0.0445  0.1956
 1206BOLB   C2C28938  14.061  15.198   8.260  0.0951 -0.3078  0.0707
 1206BOLB   C3C28939  14.163  15.132   8.766 -0.0131  0.0800  0.2187
 1206BOLB   C4C28940  14.173  15.010   9.178 -0.2249 -0.2851 -0.2783
 1206BOLB   C1D28941  14.764  14.653   7.799  0.0441  0.2156 -0.1423
 1206BOLB   C2D28942  14.954  14.600   8.256  0.2378  0.0293  0.0005
 1206BOLB   C3D28943  15.067  14.176   8.479 -0.2372 -0.5000  0.1068
 1206BOLB   C4D28944  15.286  13.935   8.886  0.0499  0.0132  0.0031
 1207BOLB   NC128945  10.225  20.449  12.551 -0.3514 -0.0495 -0.1089
 1207BOLB   PO128946  10.427  20.874  12.272 -0.0562 -0.1944  0.0969
 1207BOLB   GL128947  10.258  20.893  11.749  0.0075 -0.1544 -0.2703
 1207BOLB   GL228948  10.419  21.203  11.742 -0.0452 -0.2109  0.0814
 1207BOLB   C1A28949  10.135  20.815  11.314 -0.1370  0.2194 -0.1175
 1207BOLB   C2A28950  10.115  20.843  10.805  0.2926  0.0916 -0.0438
 1207BOLB   C3A28951  10.101  20.944  10.362  0.0218 -0.0754 -0.3898
 1207BOLB   C4A28952  10.072  21.164   9.957  0.2167  0.1996 -0.1479
 1207BOLB   C1B28953  10.566  21.089  11.306 -0.0867  0.3940  0.1904
 1207BOLB   C2B28954  10.645  21.059  10.834  0.1037  0.0887  0.1966
 1207BOLB   C3B28955  10.596  21.063  10.277  0.0395  0.0261  0.0649
 1207BOLB   C4B28956  10.668  21.171   9.886  0.4669  0.3057 -0.0849
 1207BOLB   NC228957   9.535  21.670   8.020 -0.2187 -0.2489  0.0182
 1207BOLB   PO228958   9.378  21.254   8.077 -0.0084 -0.3699  0.2333
 1207BOLB   GL328959   9.216  20.940   8.331  0.2111 -0.2059  0.1531
 1207BOLB   GL428960   9.056  20.733   8.360 -0.1330 -0.1109  0.2328
 1207BOLB   C1C28961   9.433  20.682   8.683 -0.0904 -0.0651 -0.1549
 1207BOLB   C2C28962   9.637  20.595   8.976  0.1200 -0.0300  0.0389
 1207BOLB   C3C28963   9.756  20.730   9.392 -0.0343  0.2362  0.1021
 1207BOLB   C4C28964   9.948  21.098   9.535  0.0160  0.0985  0.2958
 1207BOLB   C1D28965   8.985  20.438   8.763  0.0049 -0.1458  0.2603
 1207BOLB   C2D28966   9.206  20.459   9.186  0.0460  0.1607 -0.0040
 1207BOLB   C3D28967   9.467  20.274   9.462 -0.0144  0.2801  0.0734
 1207BOLB   C4D28968   9.648  19.994   9.213  0.2688 -0.4150  0.3832
 1208BOLB   NC128969  17.097  14.019  11.754  0.1432  0.1812  0.1550
 1208BOLB   PO128970  16.734  14.117  11.792  0.0844  0.0373  0.1793
 1208BOLB   GL128971  16.694  14.191  11.352  0.1563 -0.1501  0.2269
 1208BOLB   GL228972  16.941  14.328  11.259 -0.1288  0.1397  0.2192
 1208BOLB   C1A28973  16.611  14.169  10.866  0.1278  0.2109  0.0234
 1208BOLB   C2A28974  16.589  14.044  10.384  0.0298  0.0451  0.1263
 1208BOLB   C3A28975  16.920  14.312  10.050 -0.3587  0.3235  0.2951
 1208BOLB   C4A28976  16.999  14.288   9.741 -0.1596  0.2072  0.3678
 1208BOLB   C1B28977  17.072  14.476  10.942  0.0706 -0.1638 -0.1003
 1208BOLB   C2B28978  16.906  14.421  10.537  0.0057  0.0948  0.0034
 1208BOLB   C3B28979  16.703  14.805  10.323  0.1502  0.1325  0.1187
 1208BOLB   C4B28980  16.508  14.889   9.971  0.1242  0.3859  0.1505
 1208BOLB   NC228981  17.013  14.851   7.428 -0.0861 -0.2517 -0.2967
 1208BOLB   PO228982  16.563  14.761   7.424 -0.1294 -0.1286  0.3700
 1208BOLB   GL328983  16.652  14.795   7.799  0.0697 -0.1440  0.1098
 1208BOLB   GL428984  16.499  15.143   7.871  0.0322  0.2236 -0.2093
 1208BOLB   C1C28985  16.788  14.865   8.188  0.0088 -0.2028 -0.0725
 1208BOLB   C2C28986  16.941  14.953   8.580 -0.0196  0.2964  0.0979
 1208BOLB   C3C28987  16.975  14.613   8.955  0.2044 -0.2272  0.2613
 1208BOLB   C4C28988  17.158  14.452   9.332 -0.2628 -0.2486  0.1760
 1208BOLB   C1D28989  16.292  15.039   8.231 -0.0266  0.3072  0.0911
 1208BOLB   C2D28990  16.435  14.789   8.577  0.1264 -0.0723  0.1569
 1208BOLB   C3D28991  16.507  14.665   8.935 -0.0116 -0.1230  0.0344
 1208BOLB   C4D28992  16.305  14.620   9.371  0.2594 -0.1938  0.1691
 1209BOLB   NC128993  13.157  21.098  11.536 -0.3295 -0.2006 -0.0629
 1209BOLB   PO128994  12.816  21.344  11.659 -0.1543 -0.2087  0.0511
 1209BOLB   GL128995  12.851  21.618  11.315 -0.1372  0.0308  0.0730
 1209BOLB   GL228996  12.830  21.863  11.321 -0.0886  0.2206  0.2098
 1209BOLB   C1A28997  12.756  21.708  10.814 -0.5083  0.4322 -0.0242
 1209BOLB   C2A28998  12.605  21.927  10.487  0.0720  0.0863 -0.0878
 1209BOLB   C3A28999  12.453  21.799  10.194  0.0874  0.1223  0.0518
 1209BOLB   C4A29000  12.162  22.002  10.010 -0.2272 -0.0289 -0.0563
 1209BOLB   C1B29001  12.918  22.083  10.980 -0.1227 -0.2649  0.5845
 1209BOLB   C2B29002  12.750  22.353  10.565 -0.2861  0.1541 -0.0149
 1209BOLB   C3B29003  12.594  22.748  10.239  0.3144 -0.2210 -0.1557
 1209BOLB   C4B29004  12.447  23.158  10.071  0.1049  0.1341  0.1840
 1209BOLB   NC229005  11.532  21.747   7.808  0.1126 -0.0710 -0.1780
 1209BOLB   PO229006  11.327  21.309   7.803  0.1712  0.1425  0.1452
 1209BOLB   GL329007  11.349  21.354   8.310  0.2181  0.0480 -0.0162
 1209BOLB   GL429008  11.489  21.626   8.324 -0.0161  0.0499  0.1810
 1209BOLB   C1C29009  11.663  21.274   8.624 -0.0515  0.1808  0.1491
 1209BOLB   C2C29010  11.748  21.178   8.954  0.0421  0.1531 -0.5385
 1209BOLB   C3C29011  11.914  21.629   9.095 -0.0668 -0.0822 -0.0234
 1209BOLB   C4C29012  11.994  21.861   9.566 -0.1476  0.0926  0.0520
 1209BOLB   C1D29013  11.637  21.804   8.725  0.0918  0.2429  0.2083
 1209BOLB   C2D29014  11.980  22.131   8.886 -0.0610  0.1814 -0.0490
 1209BOLB   C3D29015  12.419  22.291   9.106  0.1402 -0.2983  0.2357
 1209BOLB   C4D29016  12.805  22.084   9.146  0.0829  0.0342 -0.2251
 1210BOLB   NC129017  14.016  22.583  11.791  0.0284  0.2356  0.0910
 1210BOLB   PO129018  13.880  23.039  11.801  0.2327 -0.2222 -0.0533
 1210BOLB   GL129019  14.163  23.163  11.585 -0.6382 -0.0167 -0.0914
 1210BOLB   GL229020  14.427  22.874  11.467  0.1245 -0.2029  0.1289
 1210BOLB   C1A29021  14.192  23.381  11.264 -0.0337  0.0017  0.0831
 1210BOLB   C2A29022  14.177  23.558  10.879 -0.1737 -0.1858 -0.3293
 1210BOLB   C3A29023  14.015  23.379  10.497 -0.2858 -0.3091  0.1256
 1210BOLB   C4A29024  13.864  23.147  10.074 -0.1287 -0.4256 -0.1277
 1210BOLB   C1B29025  14.484  23.051  11.075  0.0464 -0.2327  0.0871
 1210BOLB   C2B29026  14.531  23.004  10.694 -0.2299  0.1080 -0.0838
 1210BOLB   C3B29027  14.395  23.169  10.248 -0.0310 -0.0182 -0.1427
 1210BOLB   C4B29028  14.308  23.184   9.850 -0.2297 -0.1237  0.1697
 1210BOLB   NC229029  12.680  23.810   8.600  0.0786 -0.0301  0.1691
 1210BOLB   PO229030  13.145  23.967   8.640  0.1116  0.0433 -0.1022
 1210BOLB   GL329031  13.090  23.701   8.939 -0.2693  0.1209  0.4319
 1210BOLB   GL429032  12.949  23.352   8.743  0.0928 -0.1247 -0.1269
 1210BOLB   C1C29033  12.920  23.457   9.266  0.0172  0.1248 -0.0543
 1210BOLB   C2C29034  12.840  23.295   9.695  0.0919 -0.0625 -0.2432
 1210BOLB   C3C29035  12.959  22.955   9.989 -0.0733  0.0402  0.2257
 1210BOLB   C4C29036  13.438  22.924  10.147  0.0605 -0.3097  0.1667
 1210BOLB   C1D29037  12.948  23.074   8.934  0.0778  0.1984 -0.5566
 1210BOLB   C2D29038  12.817  22.952   9.312 -0.0314 -0.1554  0.1427
 1210BOLB   C3D29039  12.520  22.815   9.613  0.2997  0.1586 -0.1759
 1210BOLB   C4D29040  12.217  22.600   9.896 -0.0203 -0.0562 -0.0824
 1211BOLB   NC129041  12.013  17.029  11.238  0.1399  0.0634 -0.0919
 1211BOLB   PO129042  12.404  16.887  11.182  0.2870  0.2506 -0.0499
 1211BOLB   GL129043  12.274  16.699  10.834 -0.0550 -0.0936  0.2677
 1211BOLB   GL229044  12.400  16.794  10.567 -0.0802 -0.1157 -0.1957
 1211BOLB   C1A29045  12.067  16.388  10.671 -0.0930 -0.3009  0.1804
 1211BOLB   C2A29046  11.970  16.183  10.284 -0.4029 -0.1526  0.2581
 1211BOLB   C3A29047  11.905  16.201   9.895  0.0250 -0.0496  0.3279
 1211BOLB   C4A29048  11.542  16.278   9.646 -0.1419 -0.0385  0.0667
 1211BOLB   C1B29049  12.435  16.506  10.276 -0.0276  0.2248  0.2301
 1211BOLB   C2B29050  12.412  16.412   9.877 -0.0306 -0.0470  0.0087
 1211BOLB   C3B29051  12.251  16.628   9.615  0.1573 -0.0353  0.1100
 1211BOLB   C4B29052  12.130  16.642   9.161 -0.0964  0.2115  0.0639
 1211BOLB   NC229053  11.665  16.198   7.328 -0.1614  0.0989 -0.2336
 1211BOLB   PO229054  11.428  16.484   7.151  0.1099  0.0400  0.1190
 1211BOLB   GL329055  11.341  16.603   7.470 -0.3320 -0.2551 -0.0511
 1211BOLB   GL429056  11.431  16.883   7.599 -0.0742 -0.0497  0.0754
 1211BOLB   C1C29057  11.241  16.535   7.924 -0.0402  0.3222 -0.0183
 1211BOLB   C2C29058  11.416  16.420   8.325 -0.0717  0.3860 -0.0317
 1211BOLB   C3C29059  11.408  16.173   8.728  0.2633  0.2236 -0.2965
 1211BOLB   C4C29060  11.344  16.132   9.246 -0.0783 -0.2378 -0.0743
 1211BOLB   C1D29061  11.698  16.953   7.948  0.0269 -0.2166  0.2745
 1211BOLB   C2D29062  12.033  17.316   8.013 -0.1671 -0.0181  0.0271
 1211BOLB   C3D29063  12.451  17.607   8.038 -0.1174  0.1642  0.0193
 1211BOLB   C4D29064  12.739  17.891   8.029 -0.2384 -0.0476 -0.0112
 1212BOLB   NC129065  18.586  11.971  12.397  0.3103 -0.0989 -0.2754
 1212BOLB   PO129066  18.645  12.421  12.075  0.2730  0.1303  0.1057
 1212BOLB   GL129067  19.039  12.304  11.893  0.0706  0.0494 -0.2197
 1212BOLB   GL229068  19.253  12.556  11.741  0.1067  0.1192  0.0537
 1212BOLB   C1A29069  19.492  12.102  11.812  0.1116  0.2366 -0.3379
 1212BOLB   C2A29070  19.870  12.021  11.588 -0.2062 -0.3092  0.2723
 1212BOLB   C3A29071  20.157  12.032  11.342  0.0590  0.1429  0.0614
 1212BOLB   C4A29072  20.338  11.792  11.008  0.1370 -0.0715 -0.0748
 1212BOLB   C1B29073  19.454  12.430  11.453 -0.1488 -0.3518  0.1336
 1212BOLB   C2B29074  19.638  12.364  11.063  0.0971 -0.1912  0.0619
 1212BOLB   C3B29075  19.990  12.195  10.933 -0.3088  0.0389  0.0805
 1212BOLB   C4B29076  19.997  12.118  10.525 -0.1704  0.0289 -0.0164
 1212BOLB   NC229077  20.504  11.238   8.741 -0.0227 -0.0622  0.1304
 1212BOLB   PO229078  20.995  11.377   8.679  0.1417 -0.1347 -0.1219
 1212BOLB   GL329079  20.850  11.528   9.127  0.2737  0.0442 -0.1009
 1212BOLB   GL429080  20.467  11.524   9.161  0.1629  0.1947  0.0376
 1212BOLB   C1C29081  21.094  11.470   9.418 -0.0479  0.0749 -0.1483
 1212BOLB   C2C29082  20.935  11.702   9.807  0.1127  0.0283 -0.2775
 1212BOLB   C3C29083  20.827  11.643  10.259 -0.0794 -0.1415  0.0947
 1212BOLB   C4C29084  20.667  11.657  10.721  0.2579  0.2832 -0.1399
 1212BOLB   C1D29085  20.222  11.237   9.409 -0.2400 -0.0189  0.3775
 1212BOLB   C2D29086  20.013  10.911   9.262 -0.3216  0.1046 -0.5014
 1212BOLB   C3D29087  19.793  10.559   9.073 -0.0390  0.1474 -0.0425
 1212BOLB   C4D29088  19.342  10.545   8.958  0.1204  0.1289 -0.0925
 1213BOLB   NC129089  17.315  14.770  11.465 -0.2269  0.4248 -0.1550
 1213BOLB   PO129090  17.375  14.341  11.543 -0.0135  0.2056 -0.3621
 1213BOLB   GL129091  17.562  14.427  11.152  0.1448 -0.0753  0.0676
 1213BOLB   GL229092  17.502  14.708  11.001 -0.0895  0.1406  0.3558
 1213BOLB   C1A29093  17.723  14.306  10.794 -0.1831 -0.0508 -0.0334
 1213BOLB   C2A29094  17.839  14.327  10.442 -0.3100 -0.1613 -0.0310
 1213BOLB   C3A29095  17.927  14.392  10.031 -0.0531  0.2157  0.0183
 1213BOLB   C4A29096  18.031  14.325   9.586  0.4388  0.0668  0.2047
 1213BOLB   C1B29097  17.364  14.648  10.561  0.0450  0.0297 -0.0704
 1213BOLB   C2B29098  17.136  14.797  10.220 -0.2664 -0.1435 -0.3991
 1213BOLB   C3B29099  17.022  14.773   9.800 -0.1240  0.1241 -0.3078
 1213BOLB   C4B29100  16.770  14.770   9.382  0.1940  0.2256 -0.1771
 1213BOLB   NC229101  18.864  12.941   7.410 -0.0740  0.1583  0.1086
 1213BOLB   PO229102  18.514  12.637   7.546  0.2781  0.0269  0.0966
 1213BOLB   GL329103  18.567  12.920   7.908  0.0512  0.0581 -0.3281
 1213BOLB   GL429104  18.591  12.752   8.242 -0.1030  0.1145  0.0449
 1213BOLB   C1C29105  18.266  13.266   8.075 -0.3050  0.0095 -0.0622
 1213BOLB   C2C29106  18.248  13.605   8.444  0.0379 -0.0863 -0.0549
 1213BOLB   C3C29107  18.049  14.003   8.726 -0.1088 -0.0818 -0.0170
 1213BOLB   C4C29108  17.981  14.093   9.133 -0.1855 -0.0438 -0.3460
 1213BOLB   C1D29109  18.395  12.666   8.614 -0.0380  0.1155 -0.1285
 1213BOLB   C2D29110  18.454  12.579   9.063 -0.1317  0.3483  0.2422
 1213BOLB   C3D29111  18.451  12.397   9.420  0.0389 -0.3061  0.2255
 1213BOLB   C4D29112  18.328  12.514   9.804  0.3407  0.0113  0.0649
 1214BOLB   NC129113  19.373  11.031  12.813 -0.0263  0.1596  0.2415
 1214BOLB   PO129114  18.919  11.043  12.656  0.0393  0.1351 -0.2946
 1214BOLB   GL129115  19.181  10.786  12.342  0.0999 -0.0578  0.1595
 1214BOLB   GL229116  19.357  10.652  12.508  0.0389  0.1372 -0.1883
 1214BOLB   C1A29117  19.300  10.493  11.959 -0.2766 -0.4294 -0.0922
 1214BOLB   C2A29118  19.424  10.370  11.540 -0.1099 -0.0185  0.1301
 1214BOLB   C3A29119  19.485  10.044  11.195  0.1879 -0.1260 -0.3973
 1214BOLB   C4A29120  19.435   9.788  10.752 -0.4044  0.2003  0.1220
 1214BOLB   C1B29121  19.676  10.782  12.156 -0.1881  0.2365  0.0134
 1214BOLB   C2B29122  19.828  10.696  11.644  0.0807 -0.2622  0.2029
 1214BOLB   C3B29123  20.238  10.613  11.365  0.1019  0.0233  0.2063
 1214BOLB   C4B29124  20.666  10.379  11.146 -0.0878  0.2906  0.2065
 1214BOLB   NC229125  19.054   8.979   8.578 -0.3304 -0.1303 -0.0098
 1214BOLB   PO229126  19.142   8.671   8.918  0.0654 -0.2357 -0.0931
 1214BOLB   GL329127  18.944   9.123   9.037 -0.2480  0.0174  0.1254
 1214BOLB   GL429128  18.582   9.198   9.008 -0.0430 -0.0375  0.2795
 1214BOLB   C1C29129  18.873   9.320   9.383 -0.0227  0.1318 -0.1753
 1214BOLB   C2C29130  18.809   9.391   9.846 -0.0022  0.3348  0.0867
 1214BOLB   C3C29131  18.915   9.343  10.258  0.0721  0.1494 -0.3953
 1214BOLB   C4C29132  19.277   9.515  10.392  0.1782  0.0169 -0.0074
 1214BOLB   C1D29133  18.362   9.009   9.331  0.1301 -0.0200  0.2022
 1214BOLB   C2D29134  17.901   8.950   9.520  0.1603 -0.0649 -0.0852
 1214BOLB   C3D29135  17.515   8.686   9.498 -0.1649 -0.0196  0.0932
 1214BOLB   C4D29136  17.130   8.664   9.436  0.2734  0.1388  0.2816
 1215BOLB   NC129137  17.276  21.614  11.734 -0.1231 -0.1894  0.0088
 1215BOLB   PO129138  17.467  21.324  11.645  0.3189  0.2313  0.2449
 1215BOLB   GL129139  17.542  21.423  11.214 -0.1637  0.3753  0.3502
 1215BOLB   GL229140  17.862  21.234  11.017 -0.0603  0.0680  0.0848
 1215BOLB   C1A29141  17.480  21.495  10.835  0.0406 -0.3091 -0.2349
 1215BOLB   C2A29142  17.424  21.739  10.617 -0.0012  0.2192 -0.0711
 1215BOLB   C3A29143  17.660  21.847  10.191  0.4202 -0.1075  0.0406
 1215BOLB   C4A29144  17.792  22.054   9.873  0.1828  0.3779 -0.0736
 1215BOLB   C1B29145  17.973  21.416  10.609 -0.1565  0.0763 -0.3561
 1215BOLB   C2B29146  17.859  21.414  10.192  0.2209  0.1018  0.0467
 1215BOLB   C3B29147  17.822  21.521   9.758 -0.1014  0.2551  0.1289
 1215BOLB   C4B29148  17.740  21.871   9.422 -0.0281 -0.2402 -0.0965
 1215BOLB   NC229149  18.101  24.299   8.174  0.1702 -0.4435 -0.2123
 1215BOLB   PO229150  18.310  23.877   8.131  0.3218  0.0613  0.0558
 1215BOLB   GL329151  18.327  23.736   8.604  0.0913 -0.1107  0.0040
 1215BOLB   GL429152  18.241  23.988   8.860 -0.2589  0.0718  0.1047
 1215BOLB   C1C29153  18.396  23.250   8.807 -0.1853  0.2841  0.0902
 1215BOLB   C2C29154  18.101  23.053   9.050 -0.2403  0.2811  0.1765
 1215BOLB   C3C29155  18.003  22.793   9.447 -0.0052  0.0884  0.2229
 1215BOLB   C4C29156  18.044  22.304   9.564 -0.2364 -0.2593  0.0548
 1215BOLB   C1D29157  18.295  23.623   9.116  0.0475  0.0219  0.3295
 1215BOLB   C2D29158  18.046  23.469   9.406 -0.0256 -0.1176 -0.0151
 1215BOLB   C3D29159  17.714  23.254   9.577  0.1015  0.0091 -0.2259
 1215BOLB   C4D29160  17.705  23.219  10.070  0.0788 -0.3855 -0.0148
 1216BOLB   NC129161  19.797  24.611  13.872 -0.0238 -0.0040 -0.1235
 1216BOLB   PO129162  19.933  24.223  14.055  0.1100 -0.0627 -0.3466
 1216BOLB   GL129163  20.212  24.350  13.755  0.1367  0.0344 -0.1509
 1216BOLB   GL229164  20.452  24.181  13.814  0.3119 -0.1665  0.1661
 1216BOLB   C1A29165  20.520  24.731  13.569  0.0454  0.1327 -0.0769
 1216BOLB   C2A29166  20.750  24.748  13.170 -0.3471 -0.0278 -0.0044
 1216BOLB   C3A29167  21.071  24.739  12.839 -0.1102 -0.1924  0.0191
 1216BOLB   C4A29168  21.502  24.584  12.824  0.1104 -0.2009 -0.2644
 1216BOLB   C1B29169  20.778  24.343  13.484 -0.2930 -0.1090  0.0222
 1216BOLB   C2B29170  21.152  24.365  13.302 -0.1949  0.5330  0.1939
 1216BOLB   C3B29171  21.611  24.233  13.430  0.0615  0.0512  0.1834
 1216BOLB   C4B29172  21.739  23.829  13.399 -0.0625  0.1146  0.0528
 1216BOLB   NC229173  23.893  24.603  12.256  0.1188  0.1783 -0.1520
 1216BOLB   PO229174  23.750  24.908  12.679  0.0845  0.3781  0.0484
 1216BOLB   GL329175  23.432  24.944  13.085 -0.2030 -0.1935  0.2512
 1216BOLB   GL429176  23.415  24.765  13.444  0.1614 -0.1201 -0.0627
 1216BOLB   C1C29177  23.008  24.806  13.173 -0.3393  0.0873 -0.1372
 1216BOLB   C2C29178  22.600  24.944  13.039 -0.3140  0.2079 -0.2776
 1216BOLB   C3C29179  22.314  24.705  12.722 -0.3005 -0.2187 -0.3773
 1216BOLB   C4C29180  21.909  24.676  12.845  0.0276  0.1081  0.1236
 1216BOLB   C1D29181  23.279  24.402  13.473  0.3661 -0.1176 -0.2106
 1216BOLB   C2D29182  22.912  24.456  13.587  0.1086  0.0969  0.2644
 1216BOLB   C3D29183  22.565  24.495  13.286  0.0457 -0.2180 -0.0601
 1216BOLB   C4D29184  22.219  24.732  13.290  0.2438  0.1380 -0.0656
 1217BOLB   NC129185  19.764  12.340  12.888  0.0554  0.1594 -0.0343
 1217BOLB   PO129186  20.071  12.021  12.789  0.1218  0.2291 -0.2701
 1217BOLB   GL129187  20.149  11.948  12.410 -0.2143 -0.0223  0.1713
 1217BOLB   GL229188  20.413  12.077  12.258  0.0396  0.3511  0.0108
 1217BOLB   C1A29189  20.271  11.506  12.232  0.1909 -0.4873 -0.0626
 1217BOLB   C2A29190  20.544  11.422  11.892  0.1084 -0.0293 -0.0802
 1217BOLB   C3A29191  20.727  11.402  11.540  0.1089  0.1449 -0.0441
 1217BOLB   C4A29192  20.877  11.350  11.108 -0.0521  0.0925  0.3515
 1217BOLB   C1B29193  20.376  12.039  11.814  0.0808  0.1213  0.0075
 1217BOLB   C2B29194  20.521  11.821  11.598 -0.0882  0.0841 -0.2747
 1217BOLB   C3B29195  20.855  11.846  11.212 -0.1548  0.0422 -0.4980
 1217BOLB   C4B29196  21.285  11.808  11.126 -0.0728  0.2503  0.1409
 1217BOLB   NC229197  22.264  11.161   9.081 -0.0411  0.2088 -0.0818
 1217BOLB   PO229198  21.861  11.070   8.914  0.2570 -0.2073 -0.0301
 1217BOLB   GL329199  21.743  11.237   9.325  0.3342  0.1833 -0.0495
 1217BOLB   GL429200  22.006  11.230   9.601 -0.0993 -0.2949 -0.1793
 1217BOLB   C1C29201  21.515  11.295   9.770  0.1664  0.0575  0.4209
 1217BOLB   C2C29202  21.456  11.130  10.165  0.3573 -0.2580 -0.3737
 1217BOLB   C3C29203  21.238  11.186  10.492 -0.2237 -0.4741 -0.2636
 1217BOLB   C4C29204  20.972  11.142  10.808 -0.0316  0.2125  0.1352
 1217BOLB   C1D29205  22.323  11.325   9.903  0.0135  0.3007  0.2272
 1217BOLB   C2D29206  22.253  11.593  10.181 -0.3633 -0.0080  0.0362
 1217BOLB   C3D29207  22.061  11.644  10.536 -0.2535 -0.1037 -0.3343
 1217BOLB   C4D29208  22.232  11.522  10.904  0.0176 -0.0530 -0.2436
 1218BOLB   NC129209  22.558  17.161  13.797  0.1288 -0.0614  0.3354
 1218BOLB   PO129210  22.855  17.463  13.521 -0.0850 -0.0257  0.2029
 1218BOLB   GL129211  23.095  17.782  13.366 -0.0779 -0.0765  0.2630
 1218BOLB   GL229212  23.281  17.942  13.481 -0.2960  0.0850  0.0049
 1218BOLB   C1A29213  23.331  17.817  12.964 -0.1983  0.0682 -0.0623
 1218BOLB   C2A29214  23.435  17.633  12.499 -0.0211  0.0075 -0.2792
 1218BOLB   C3A29215  23.491  17.542  12.019 -0.0229 -0.0055 -0.1071
 1218BOLB   C4A29216  23.674  17.752  11.788  0.0301 -0.2432 -0.1321
 1218BOLB   C1B29217  23.637  18.092  13.300  0.0723  0.0427  0.1237
 1218BOLB   C2B29218  23.962  18.217  13.099  0.1193 -0.0227  0.1985
 1218BOLB   C3B29219  24.182  17.919  12.758 -0.0355 -0.5373 -0.0508
 1218BOLB   C4B29220  24.182  17.506  12.600 -0.2061  0.3139  0.0973
 1218BOLB   NC229221  24.568  19.085  10.158 -0.1006 -0.2336 -0.1893
 1218BOLB   PO229222  24.409  19.446  10.348 -0.0662  0.1828  0.0489
 1218BOLB   GL329223  24.264  19.204  10.666 -0.1494 -0.1159  0.3155
 1218BOLB   GL429224  24.511  18.991  10.772  0.1237 -0.2492 -0.0124
 1218BOLB   C1C29225  23.880  18.970  10.804  0.2071  0.0354  0.0406
 1218BOLB   C2C29226  23.901  18.618  11.159 -0.0531  0.2388  0.1300
 1218BOLB   C3C29227  23.956  18.459  11.566  0.2228  0.0864 -0.1907
 1218BOLB   C4C29228  23.948  18.066  11.775  0.2779  0.0753  0.2199
 1218BOLB   C1D29229  24.500  19.250  11.109  0.3907  0.0689 -0.1740
 1218BOLB   C2D29230  24.490  19.528  11.532 -0.1492  0.0069 -0.1390
 1218BOLB   C3D29231  24.769  19.699  11.838  0.0273  0.1886 -0.2594
 1218BOLB   C4D29232  24.705  19.950  12.099  0.1325  0.2101 -0.1680
 1219BOLB   NC129233   8.982  25.092  14.113  0.1788  0.0219 -0.1466
 1219BOLB   PO129234   8.980  24.820  13.904  0.1615  0.1667  0.2238
 1219BOLB   GL129235   9.346  24.892  13.862 -0.0856  0.0266  0.2026
 1219BOLB   GL229236   9.387  25.009  13.488 -0.4043  0.1646 -0.1996
 1219BOLB   C1A29237   9.625  24.962  14.150  0.2386 -0.0178  0.3210
 1219BOLB   C2A29238   9.999  24.996  14.352  0.1127  0.1143  0.3176
 1219BOLB   C3A29239  10.336  25.188  14.240  0.0183  0.3150  0.2357
 1219BOLB   C4A29240  10.526  25.418  14.008  0.1870 -0.1355  0.2651
 1219BOLB   C1B29241   9.812  25.119  13.680  0.1154  0.2398 -0.1709
 1219BOLB   C2B29242   9.920  25.623  13.672 -0.1189  0.1566 -0.1766
 1219BOLB   C3B29243  10.079  25.849  13.930 -0.1838  0.1705  0.5236
 1219BOLB   C4B29244   9.890  25.895  14.242 -0.2054  0.2432 -0.2081
 1219BOLB   NC229245   9.145  25.744  12.474 -0.1432 -0.0921 -0.0853
 1219BOLB   PO229246   9.320  26.078  12.285  0.0879 -0.0604  0.1685
 1219BOLB   GL329247   9.772  26.072  12.394  0.1146 -0.2152  0.0213
 1219BOLB   GL429248   9.734  25.788  12.459 -0.2200  0.2405 -0.1541
 1219BOLB   C1C29249  10.140  26.106  12.753  0.0918 -0.1555 -0.0766
 1219BOLB   C2C29250  10.544  26.083  12.941 -0.0622 -0.1909  0.0145
 1219BOLB   C3C29251  10.689  25.964  13.393 -0.1966  0.3558  0.2323
 1219BOLB   C4C29252  10.524  25.674  13.679  0.0481  0.1565  0.1530
 1219BOLB   C1D29253  10.031  25.653  12.172 -0.2835  0.1888  0.2018
 1219BOLB   C2D29254  10.176  25.713  11.726  0.3302 -0.0038 -0.0693
 1219BOLB   C3D29255  10.069  25.496  11.286 -0.1575  0.0512 -0.1342
 1219BOLB   C4D29256   9.749  25.473  11.144  0.0135  0.1416  0.4579
 1220BOLB   NC129257  21.988  15.377  12.566  0.0656 -0.2565  0.0394
 1220BOLB   PO129258  21.946  15.813  12.667  0.1318  0.1453 -0.0817
 1220BOLB   GL129259  22.257  15.732  12.398  0.3360 -0.3591  0.1661
 1220BOLB   GL229260  22.053  15.827  12.176 -0.1587 -0.0488  0.0971
 1220BOLB   C1A29261  22.587  15.844  12.143 -0.4325 -0.1702  0.1467
 1220BOLB   C2A29262  22.780  15.838  11.774 -0.4090 -0.0974  0.2306
 1220BOLB   C3A29263  22.848  15.983  11.330 -0.1321 -0.1290 -0.0073
 1220BOLB   C4A29264  23.022  15.795  10.948 -0.2209  0.0929 -0.0381
 1220BOLB   C1B29265  22.135  15.992  11.836 -0.2859 -0.0395 -0.1173
 1220BOLB   C2B29266  22.377  15.938  11.462 -0.2188  0.3149 -0.0852
 1220BOLB   C3B29267  22.573  15.637  11.221  0.0034  0.0376 -0.0693
 1220BOLB   C4B29268  22.672  15.310  11.019 -0.1657 -0.0702 -0.0664
 1220BOLB   NC229269  24.567  14.667   9.077 -0.1152 -0.3537 -0.0257
 1220BOLB   PO229270  24.286  15.159   9.081 -0.1843  0.1607 -0.3644
 1220BOLB   GL329271  24.169  15.316   9.409 -0.2252 -0.2130  0.5744
 1220BOLB   GL429272  24.184  15.084   9.660  0.2878  0.0181  0.0624
 1220BOLB   C1C29273  23.909  15.463   9.716  0.1352 -0.2220  0.1812
 1220BOLB   C2C29274  23.725  15.621  10.035 -0.3111 -0.3138  0.1827
 1220BOLB   C3C29275  23.336  15.793  10.163  0.2447 -0.0115  0.1839
 1220BOLB   C4C29276  23.151  15.861  10.541 -0.3760 -0.2091 -0.0237
 1220BOLB   C1D29277  24.167  15.205  10.063  0.1047 -0.3233  0.1204
 1220BOLB   C2D29278  24.061  15.502  10.387 -0.1727  0.2230  0.2212
 1220BOLB   C3D29279  23.999  15.476  10.716 -0.1465  0.1922  0.2123
 1220BOLB   C4D29280  24.240  15.207  10.946 -0.1813 -0.0945  0.0337
 1221BOLB   NC129281  23.090  12.333  14.245 -0.3362 -0.3061 -0.2861
 1221BOLB   PO129282  22.999  12.905  14.228  0.2325 -0.0737 -0.4232
 1221BOLB   GL129283  23.132  12.924  13.888  0.0089  0.1840 -0.0805
 1221BOLB   GL229284  23.232  12.569  13.780 -0.1145 -0.1809 -0.0555
 1221BOLB   C1A29285  23.424  12.925  13.486 -0.2892  0.0409 -0.0049
 1221BOLB   C2A29286  23.759  12.836  13.208  0.1520 -0.2467 -0.0974
 1221BOLB   C3A29287  23.836  12.713  12.774 -0.2259 -0.0477 -0.0234
 1221BOLB   C4A29288  24.123  12.959  12.527 -0.2002  0.0813 -0.1744
 1221BOLB   C1B29289  23.382  12.424  13.433 -0.1583  0.1239 -0.2761
 1221BOLB   C2B29290  23.511  12.338  12.962 -0.2190  0.0310  0.0237
 1221BOLB   C3B29291  23.538  12.364  12.533 -0.2565 -0.0630  0.0243
 1221BOLB   C4B29292  23.691  12.493  12.290 -0.3790 -0.2124 -0.0680
 1221BOLB   NC229293  25.191  13.617  10.706  0.1200 -0.2201  0.3527
 1221BOLB   PO229294  24.782  13.843  10.622 -0.2813 -0.1703  0.2572
 1221BOLB   GL329295  24.767  13.491  10.940  0.1088 -0.2598  0.1973
 1221BOLB   GL429296  24.956  13.476  11.133 -0.1643  0.1640  0.0805
 1221BOLB   C1C29297  24.402  13.490  11.233 -0.1410  0.1112  0.2581
 1221BOLB   C2C29298  24.018  13.385  11.449  0.1097  0.1381  0.3031
 1221BOLB   C3C29299  24.095  13.397  11.829 -0.1839 -0.1841  0.1189
 1221BOLB   C4C29300  24.105  13.142  12.143 -0.1127 -0.1401  0.1169
 1221BOLB   C1D29301  24.927  13.502  11.583  0.2141 -0.0190  0.4086
 1221BOLB   C2D29302  24.809  13.678  11.981 -0.1838 -0.3141 -0.3646
 1221BOLB   C3D29303  24.437  13.709  12.239 -0.1920  0.1361 -0.0563
 1221BOLB   C4D29304  24.059  13.553  12.478  0.2654 -0.1701 -0.1285
 1222BOLB   NC129305  17.648   7.304  14.608  0.2253 -0.1993 -0.1797
 1222BOLB   PO129306  17.847   7.750  14.654  0.1178  0.2500 -0.1944
 1222BOLB   GL129307  18.013   7.698  14.253  0.0996 -0.0886  0.1183
 1222BOLB   GL229308  17.910   7.382  14.183  0.0053  0.0775  0.0955
 1222BOLB   C1A29309  18.212   7.722  13.820  0.4085  0.0954  0.1995
 1222BOLB   C2A29310  18.370   7.442  13.438  0.1417  0.1681  0.1309
 1222BOLB   C3A29311  18.461   7.299  13.044 -0.1727 -0.1236 -0.1342
 1222BOLB   C4A29312  18.801   7.167  12.739 -0.1739 -0.0248 -0.0781
 1222BOLB   C1B29313  18.016   7.136  13.880  0.0496 -0.0403  0.3943
 1222BOLB   C2B29314  18.148   6.953  13.425  0.0559 -0.0719 -0.0788
 1222BOLB   C3B29315  18.351   6.766  13.112  0.1030 -0.0195  0.2126
 1222BOLB   C4B29316  18.741   6.662  12.884  0.0768 -0.0438 -0.0857
 1222BOLB   NC229317  20.011   6.988  10.677  0.4357 -0.1445 -0.3497
 1222BOLB   PO229318  20.156   6.704  10.870 -0.1217  0.1679  0.2508
 1222BOLB   GL329319  20.041   7.016  11.245 -0.0067 -0.2223  0.1322
 1222BOLB   GL429320  20.198   7.325  11.275  0.1581 -0.0354  0.1414
 1222BOLB   C1C29321  19.767   7.190  11.531  0.2520 -0.0783 -0.0336
 1222BOLB   C2C29322  19.343   7.380  11.760 -0.0067 -0.1791 -0.2907
 1222BOLB   C3C29323  19.131   7.263  12.200 -0.3683 -0.0743 -0.2821
 1222BOLB   C4C29324  19.078   7.368  12.557 -0.0289 -0.2665 -0.0296
 1222BOLB   C1D29325  20.156   7.731  11.448  0.0370 -0.1749  0.2475
 1222BOLB   C2D29326  20.392   8.151  11.584  0.1599  0.1727  0.1522
 1222BOLB   C3D29327  20.446   8.460  11.809 -0.1706  0.2610 -0.3208
 1222BOLB   C4D29328  20.511   8.719  12.109 -0.1773 -0.1108  0.1018
 1223BOLB   NC129329  14.396   9.725  12.221  0.1483 -0.1549  0.1422
 1223BOLB   PO129330  14.655  10.033  12.018 -0.3781  0.1741  0.1790
 1223BOLB   GL129331  14.681   9.901  11.547 -0.3083  0.0281 -0.1523
 1223BOLB   GL229332  14.423   9.678  11.671  0.0342 -0.0721  0.2233
 1223BOLB   C1A29333  14.854   9.961  11.276 -0.1647  0.3968  0.2023
 1223BOLB   C2A29334  15.075   9.612  10.918 -0.0073 -0.1385  0.2418
 1223BOLB   C3A29335  15.148   9.487  10.507  0.0335 -0.3343  0.2293
 1223BOLB   C4A29336  15.206   9.395  10.140  0.1662 -0.0689 -0.0807
 1223BOLB   C1B29337  14.749   9.448  11.336 -0.1010  0.0438  0.2338
 1223BOLB   C2B29338  14.622   9.358  10.963 -0.0848 -0.0223  0.0149
 1223BOLB   C3B29339  14.620   9.154  10.642  0.2237 -0.0793  0.0903
 1223BOLB   C4B29340  14.610   9.030  10.235 -0.1005 -0.2770  0.2950
 1223BOLB   NC229341  14.680   9.417   8.015 -0.1119 -0.3853  0.0176
 1223BOLB   PO229342  14.745   9.763   7.999 -0.2263 -0.1159  0.0206
 1223BOLB   GL329343  15.034   9.825   8.266  0.2396 -0.1441  0.0133
 1223BOLB   GL429344  15.150  10.139   8.317 -0.2405 -0.4253 -0.4440
 1223BOLB   C1C29345  15.042   9.807   8.674 -0.3814 -0.1022  0.0759
 1223BOLB   C2C29346  14.917   9.843   9.019  0.1825 -0.0345 -0.4443
 1223BOLB   C3C29347  15.195   9.918   9.407  0.3468 -0.0385 -0.1827
 1223BOLB   C4C29348  15.287   9.570   9.733  0.1766  0.1326  0.3550
 1223BOLB   C1D29349  14.768  10.188   8.659  0.0476  0.0194 -0.2160
 1223BOLB   C2D29350  14.788  10.467   9.060  0.0062 -0.3079 -0.1719
 1223BOLB   C3D29351  14.934  10.461   9.460 -0.2355 -0.2195 -0.2154
 1223BOLB   C4D29352  15.154  10.728   9.704 -0.0919 -0.0823 -0.0102
 1224BOLB   NC129353  18.809   9.221  13.903  0.1231 -0.0054 -0.0058
 1224BOLB   PO129354  18.887   9.457  13.526 -0.1098 -0.0341  0.0455
 1224BOLB   GL129355  19.086   9.412  13.126 -0.0701 -0.0459  0.0927
 1224BOLB   GL229356  18.893   9.106  13.150 -0.2568  0.1038  0.2012
 1224BOLB   C1A29357  19.284   9.052  12.835  0.0115 -0.2420  0.1365
 1224BOLB   C2A29358  19.555   9.086  12.473  0.0634  0.0495 -0.0003
 1224BOLB   C3A29359  19.559   9.016  12.086 -0.1507 -0.0584  0.0741
 1224BOLB   C4A29360  19.440   8.752  11.778 -0.0986  0.0260  0.0289
 1224BOLB   C1B29361  18.763   8.830  12.841  0.1631 -0.1673  0.1133
 1224BOLB   C2B29362  18.639   8.759  12.447  0.0715 -0.0586  0.2176
 1224BOLB   C3B29363  18.167   8.716  12.269 -0.0458 -0.2723  0.2281
 1224BOLB   C4B29364  17.844   8.626  12.350  0.2143  0.2261  0.3611
 1224BOLB   NC229365  21.265   8.594   9.707  0.1381  0.2288 -0.0918
 1224BOLB   PO229366  21.006   8.719  10.042  0.0958  0.1359  0.1470
 1224BOLB   GL329367  20.738   8.943  10.299 -0.2504  0.1675  0.1944
 1224BOLB   GL429368  20.673   9.237  10.142 -0.1370 -0.1317  0.1530
 1224BOLB   C1C29369  20.578   9.002  10.624  0.2208  0.0961 -0.0635
 1224BOLB   C2C29370  20.307   9.263  10.917  0.2417 -0.0030 -0.1955
 1224BOLB   C3C29371  19.939   8.976  10.988  0.1436  0.4018 -0.0390
 1224BOLB   C4C29372  19.722   8.812  11.263  0.1498 -0.0442 -0.2016
 1224BOLB   C1D29373  20.476   9.489  10.419  0.2026 -0.0444  0.0513
 1224BOLB   C2D29374  20.429   9.751  10.738 -0.0291  0.0770 -0.0796
 1224BOLB   C3D29375  20.473   9.813  11.218 -0.3337 -0.2137  0.0724
 1224BOLB   C4D29376  20.369   9.647  11.554  0.0713  0.0640  0.2079
 1225BOLB   NC129377  18.136  18.067  11.964  0.0772 -0.1465 -0.1223
 1225BOLB   PO129378  18.181  18.230  11.570 -0.1031  0.2120 -0.3146
 1225BOLB   GL129379  18.489  18.308  11.300 -0.0577  0.0736  0.2529
 1225BOLB   GL229380  18.804  18.256  11.431  0.1324  0.2390  0.1175
 1225BOLB   C1A29381  18.479  18.217  10.859  0.3987  0.0447  0.1996
 1225BOLB   C2A29382  18.573  18.326  10.444  0.0010 -0.0125 -0.1087
 1225BOLB   C3A29383  18.473  18.159  10.110 -0.2868  0.2289  0.0522
 1225BOLB   C4A29384  18.591  18.178   9.765 -0.0054  0.0253  0.2018
 1225BOLB   C1B29385  18.956  18.301  11.057 -0.1271 -0.0434  0.0622
 1225BOLB   C2B29386  18.985  18.395  10.699 -0.0406  0.1316 -0.2340
 1225BOLB   C3B29387  19.245  18.403  10.299  0.0314 -0.2536  0.1016
 1225BOLB   C4B29388  19.508  18.433   9.962  0.2873  0.1088 -0.1703
 1225BOLB   NC229389  19.755  18.941   7.353 -0.4210 -0.2049  0.0514
 1225BOLB   PO229390  19.765  18.802   7.728 -0.0291 -0.2193  0.1603
 1225BOLB   GL329391  19.523  18.558   7.939  0.0903  0.1149 -0.2998
 1225BOLB   GL429392  19.507  18.209   7.876  0.0510 -0.0776 -0.6542
 1225BOLB   C1C29393  19.225  18.340   8.284 -0.0074  0.0717 -0.1600
 1225BOLB   C2C29394  18.956  18.357   8.656 -0.2805 -0.2191 -0.1116
 1225BOLB   C3C29395  18.989  18.347   9.083 -0.0740  0.2256  0.2509
 1225BOLB   C4C29396  18.826  18.348   9.442 -0.1231  0.1139 -0.3269
 1225BOLB   C1D29397  19.704  18.270   8.316  0.0566  0.1475 -0.2725
 1225BOLB   C2D29398  20.011  18.056   8.548  0.1889 -0.0051 -0.3890
 1225BOLB   C3D29399  20.314  17.740   8.691 -0.2021 -0.1688 -0.1727
 1225BOLB   C4D29400  20.702  17.686   8.553 -0.1600 -0.2928  0.1832
 1226BOLB   NC129401  12.934  13.054  11.443  0.1061  0.0835  0.1640
 1226BOLB   PO129402  12.636  13.422  11.424  0.1959 -0.2217  0.0724
 1226BOLB   GL129403  12.720  13.461  11.028  0.0243 -0.1181  0.1193
 1226BOLB   GL229404  12.856  13.222  10.964  0.0241 -0.1034 -0.1960
 1226BOLB   C1A29405  12.568  13.419  10.555  0.2277  0.1862  0.3059
 1226BOLB   C2A29406  12.324  13.264  10.218 -0.5344 -0.1724  0.0106
 1226BOLB   C3A29407  12.464  13.045   9.845 -0.0489  0.1137 -0.2254
 1226BOLB   C4A29408  12.731  12.672   9.708  0.0131 -0.1000 -0.0788
 1226BOLB   C1B29409  12.981  12.780  10.823  0.0728 -0.1704  0.1067
 1226BOLB   C2B29410  13.202  12.628  10.490 -0.0875  0.0616 -0.3289
 1226BOLB   C3B29411  13.399  12.497  10.089 -0.0899  0.0679 -0.0464
 1226BOLB   C4B29412  13.433  12.503   9.634 -0.0403  0.1968 -0.0765
 1226BOLB   NC229413  12.354  12.270   7.550 -0.2690 -0.3117  0.0230
 1226BOLB   PO229414  12.165  11.841   7.621 -0.0305 -0.3018 -0.0072
 1226BOLB   GL329415  12.415  11.881   7.975 -0.0637  0.2191  0.1290
 1226BOLB   GL429416  12.701  12.007   7.953  0.2647  0.2707 -0.0099
 1226BOLB   C1C29417  12.545  11.706   8.335 -0.1270 -0.1282  0.0936
 1226BOLB   C2C29418  12.797  11.879   8.651 -0.1089  0.0648 -0.1868
 1226BOLB   C3C29419  12.929  12.258   8.989 -0.0523 -0.0590 -0.1703
 1226BOLB   C4C29420  12.919  12.480   9.383  0.1994 -0.1339 -0.0708
 1226BOLB   C1D29421  12.724  12.322   8.289  0.0955  0.2951  0.1949
 1226BOLB   C2D29422  12.552  12.580   8.637 -0.0581 -0.2230 -0.2903
 1226BOLB   C3D29423  12.501  12.463   8.976  0.1907  0.1534 -0.1946
 1226BOLB   C4D29424  12.324  12.571   9.375  0.0182  0.0516 -0.3160
 1227BOLB   NC129425  20.828  21.054  12.992  0.2978  0.1232  0.5450
 1227BOLB   PO129426  20.524  20.660  12.925  0.1345 -0.1653  0.0345
 1227BOLB   GL129427  20.770  20.586  12.591 -0.1734  0.1684  0.2694
 1227BOLB   GL229428  21.001  20.589  12.747 -0.1596 -0.0569  0.0753
 1227BOLB   C1A29429  21.135  20.901  12.303  0.0424  0.1255 -0.3280
 1227BOLB   C2A29430  21.337  21.152  11.939 -0.3126 -0.1683 -0.0996
 1227BOLB   C3A29431  21.671  21.513  11.827 -0.1596  0.1408 -0.3964
 1227BOLB   C4A29432  21.773  21.825  11.503  0.1152 -0.1957 -0.0151
 1227BOLB   C1B29433  21.328  20.482  12.475 -0.2288 -0.2059  0.3193
 1227BOLB   C2B29434  21.685  20.551  12.233 -0.1344 -0.1269 -0.1044
 1227BOLB   C3B29435  22.122  20.755  12.045  0.0480  0.3166  0.0980
 1227BOLB   C4B29436  22.358  20.733  11.715 -0.4161  0.2447 -0.0049
 1227BOLB   NC229437  23.266  22.149   9.808  0.2143 -0.2001 -0.2084
 1227BOLB   PO229438  23.118  21.760   9.688  0.0870 -0.0998  0.3781
 1227BOLB   GL329439  22.894  21.684  10.028 -0.2017 -0.0339 -0.2769
 1227BOLB   GL429440  22.602  21.568  10.019 -0.0888 -0.0301  0.2277
 1227BOLB   C1C29441  22.855  21.752  10.489 -0.1292  0.2323 -0.4788
 1227BOLB   C2C29442  22.582  21.914  10.873 -0.0854 -0.1177 -0.5912
 1227BOLB   C3C29443  22.346  21.721  11.118 -0.1752  0.0224 -0.2079
 1227BOLB   C4C29444  21.987  21.990  11.227  0.1197  0.1910  0.2014
 1227BOLB   C1D29445  22.277  21.258   9.972  0.1359  0.4017 -0.1975
 1227BOLB   C2D29446  21.730  21.343  10.060 -0.1105  0.0030  0.2151
 1227BOLB   C3D29447  21.291  21.364  10.110  0.2434  0.5598 -0.0659
 1227BOLB   C4D29448  21.135  21.118  10.394  0.1175  0.2791  0.1582
 1228BOLB   NC129449  16.620  22.428  11.606  0.1176 -0.0310  0.1080
 1228BOLB   PO129450  17.068  22.133  11.618  0.2768 -0.2406  0.2774
 1228BOLB   GL129451  16.953  22.412  11.250 -0.2635  0.0585  0.0106
 1228BOLB   GL229452  16.666  22.672  11.174  0.1555 -0.2331 -0.1166
 1228BOLB   C1A29453  16.845  22.439  10.840 -0.1527 -0.0636  0.3053
 1228BOLB   C2A29454  16.888  22.553  10.393  0.0931 -0.0785 -0.1678
 1228BOLB   C3A29455  16.964  22.876   9.935 -0.1791  0.1238  0.0136
 1228BOLB   C4A29456  16.745  23.048   9.645  0.1519 -0.0133 -0.0254
 1228BOLB   C1B29457  16.658  23.022  11.168  0.1506 -0.0046 -0.1437
 1228BOLB   C2B29458  16.798  23.393  10.978 -0.2767  0.3134  0.1464
 1228BOLB   C3B29459  16.658  23.523  10.650 -0.0733  0.1273 -0.1145
 1228BOLB   C4B29460  16.419  23.722  10.417  0.0986 -0.3565  0.4253
 1228BOLB   NC229461  15.723  22.086   7.573 -0.0726 -0.0159  0.3442
 1228BOLB   PO229462  16.172  22.415   7.448 -0.0134  0.2219  0.0350
 1228BOLB   GL329463  16.482  22.379   7.873 -0.0679  0.2483 -0.1431
 1228BOLB   GL429464  16.245  22.348   8.208  0.0056  0.2181 -0.0784
 1228BOLB   C1C29465  16.698  22.229   8.259 -0.3390  0.0597 -0.0489
 1228BOLB   C2C29466  16.541  22.398   8.683  0.3955 -0.0356 -0.0145
 1228BOLB   C3C29467  16.529  22.676   9.024 -0.0970 -0.2042  0.1623
 1228BOLB   C4C29468  16.552  22.855   9.389 -0.0370  0.1460 -0.1883
 1228BOLB   C1D29469  16.232  21.935   8.338 -0.1049  0.0573 -0.1275
 1228BOLB   C2D29470  16.127  21.569   8.497 -0.3200 -0.1039  0.1548
 1228BOLB   C3D29471  15.666  21.449   8.557 -0.4527 -0.0883  0.0934
 1228BOLB   C4D29472  15.369  21.081   8.487  0.2492  0.1522  0.1224
 1229BOLB   NC129473  14.945  17.982  11.579  0.3091  0.1588  0.0388
 1229BOLB   PO129474  14.890  17.994  11.162 -0.0189  0.0035 -0.1919
 1229BOLB   GL129475  15.035  17.895  10.805  0.3093 -0.0846 -0.0292
 1229BOLB   GL229476  15.152  17.677  10.936 -0.2321 -0.1649 -0.2558
 1229BOLB   C1A29477  15.013  17.985  10.391 -0.1200  0.1448  0.0892
 1229BOLB   C2A29478  15.046  18.179   9.976  0.0747  0.1748  0.1040
 1229BOLB   C3A29479  14.763  18.232   9.551  0.0187  0.0142  0.2021
 1229BOLB   C4A29480  14.750  18.354   9.200 -0.0481  0.2130  0.2034
 1229BOLB   C1B29481  15.443  17.714  10.526 -0.0410  0.1021  0.1113
 1229BOLB   C2B29482  15.315  17.768  10.077  0.2233  0.3663  0.0409
 1229BOLB   C3B29483  15.354  17.901   9.662 -0.0202  0.0866  0.0448
 1229BOLB   C4B29484  15.239  18.055   9.323  0.0168  0.1644  0.1904
 1229BOLB   NC229485  16.241  18.636   6.914 -0.1351 -0.2548  0.0279
 1229BOLB   PO229486  15.909  18.840   7.188 -0.0070 -0.1817 -0.2396
 1229BOLB   GL329487  15.499  18.775   7.337 -0.2625 -0.1343 -0.3676
 1229BOLB   GL429488  15.482  19.046   7.498  0.0624  0.1402 -0.1550
 1229BOLB   C1C29489  15.335  18.470   7.724 -0.0434 -0.0236  0.2145
 1229BOLB   C2C29490  15.002  18.414   7.975 -0.1487  0.1148  0.2157
 1229BOLB   C3C29491  14.920  18.257   8.407 -0.1230 -0.2323  0.3318
 1229BOLB   C4C29492  14.796  18.380   8.806 -0.0281  0.1196 -0.1870
 1229BOLB   C1D29493  15.191  18.941   7.857  0.1138 -0.0176 -0.3287
 1229BOLB   C2D29494  14.980  18.778   8.376 -0.2708  0.2560  0.0363
 1229BOLB   C3D29495  15.073  18.801   8.805  0.1817 -0.2605  0.2287
 1229BOLB   C4D29496  15.192  18.996   9.177  0.0845 -0.2192 -0.1118
 1230BOLB   NC129497  11.976  20.265  12.055 -0.1878  0.0242 -0.2320
 1230BOLB   PO129498  12.213  20.119  11.726  0.1455  0.3584 -0.1252
 1230BOLB   GL129499  11.965  20.210  11.422  0.1667  0.0001  0.0555
 1230BOLB   GL229500  12.195  20.208  11.089 -0.4000  0.3120  0.0852
 1230BOLB   C1A29501  11.676  20.059  11.092  0.0678 -0.1465 -0.1385
 1230BOLB   C2A29502  11.732  20.062  10.652  0.0034  0.0799  0.0945
 1230BOLB   C3A29503  11.820  20.307  10.294 -0.1510 -0.0468  0.1026
 1230BOLB   C4A29504  11.719  20.404   9.927  0.0806  0.1922 -0.3515
 1230BOLB   C1B29505  12.198  20.313  10.664  0.1386 -0.0645 -0.0129
 1230BOLB   C2B29506  12.355  20.139  10.291 -0.0782  0.1304 -0.1742
 1230BOLB   C3B29507  12.450  20.066   9.882 -0.2390 -0.1098  0.0456
 1230BOLB   C4B29508  12.419  20.024   9.430  0.1396 -0.1753 -0.0539
 1230BOLB   NC229509  10.981  20.024   7.299 -0.4932  0.0245 -0.1363
 1230BOLB   PO229510  10.753  19.976   7.733  0.2597  0.2393  0.1558
 1230BOLB   GL329511  10.676  19.953   8.141  0.3031  0.0425  0.2623
 1230BOLB   GL429512  10.269  20.050   8.223 -0.3596 -0.0937  0.2417
 1230BOLB   C1C29513  10.884  19.975   8.582 -0.2954  0.2202  0.2991
 1230BOLB   C2C29514  10.919  20.210   8.964 -0.2540  0.4711 -0.0085
 1230BOLB   C3C29515  11.056  20.032   9.394 -0.0578  0.1054 -0.1659
 1230BOLB   C4C29516  11.401  20.202   9.529 -0.1419 -0.1846  0.0739
 1230BOLB   C1D29517  10.441  20.238   8.624  0.0304 -0.4701 -0.3735
 1230BOLB   C2D29518  10.454  20.272   9.098 -0.1164 -0.1403 -0.0441
 1230BOLB   C3D29519  10.662  20.326   9.547  0.0047 -0.1440 -0.0520
 1230BOLB   C4D29520  11.044  20.298   9.835  0.1919 -0.0366  0.0185
 1231BOLB   NC129521  14.590   8.624  13.225  0.0632 -0.0784  0.1065
 1231BOLB   PO129522  14.663   8.354  12.974 -0.1905 -0.3548 -0.2237
 1231BOLB   GL129523  14.846   8.097  12.602 -0.1353 -0.0882 -0.2554
 1231BOLB   GL229524  14.651   7.875  12.482 -0.1236  0.1223 -0.0542
 1231BOLB   C1A29525  15.103   8.153  12.209  0.3976 -0.0476 -0.0824
 1231BOLB   C2A29526  15.428   7.979  12.043 -0.0500  0.1628  0.4699
 1231BOLB   C3A29527  15.503   7.545  11.943 -0.1531 -0.1099 -0.3069
 1231BOLB   C4A29528  15.137   7.335  11.674 -0.0151 -0.4367 -0.1938
 1231BOLB   C1B29529  14.631   7.587  12.259  0.1501  0.0761 -0.1248
 1231BOLB   C2B29530  14.636   7.387  11.769 -0.0327 -0.2480 -0.0552
 1231BOLB   C3B29531  14.745   7.199  11.380 -0.0760  0.0460 -0.0329
 1231BOLB   C4B29532  14.852   7.057  11.091 -0.3943  0.1951  0.1844
 1231BOLB   NC229533  15.400   6.805   8.606  0.0075 -0.1857 -0.2499
 1231BOLB   PO229534  15.458   6.812   9.126 -0.0729 -0.0287  0.1113
 1231BOLB   GL329535  15.403   6.905   9.550  0.1700  0.1866 -0.2079
 1231BOLB   GL429536  15.232   6.624   9.760 -0.0407 -0.0097 -0.0058
 1231BOLB   C1C29537  15.502   6.968  10.044 -0.3401 -0.0291 -0.1730
 1231BOLB   C2C29538  15.385   7.197  10.430  0.2759  0.0609  0.1529
 1231BOLB   C3C29539  15.161   7.250  10.771  0.1043 -0.2002  0.2005
 1231BOLB   C4C29540  15.146   7.475  11.163  0.2231  0.1180 -0.1349
 1231BOLB   C1D29541  15.158   6.236  10.015 -0.3266  0.0314 -0.1677
 1231BOLB   C2D29542  14.781   5.998  10.285 -0.0558 -0.0043 -0.0801
 1231BOLB   C3D29543  14.378   6.029  10.412  0.0116  0.0316 -0.2956
 1231BOLB   C4D29544  14.121   5.639  10.233 -0.0787  0.1154 -0.1028
 1232BOLB   NC129545  17.287   9.471  13.449  0.3154 -0.3916 -0.0066
 1232BOLB   PO129546  17.068   9.601  13.098  0.0615  0.3046  0.2982
 1232BOLB   GL129547  17.152   9.330  12.736 -0.3150 -0.1061 -0.2396
 1232BOLB   GL229548  17.366   9.116  12.845 -0.0289  0.2592 -0.4417
 1232BOLB   C1A29549  17.393   9.394  12.337  0.1425  0.0236 -0.1320
 1232BOLB   C2A29550  17.554   9.327  11.948  0.1930  0.0542 -0.0112
 1232BOLB   C3A29551  17.796   9.228  11.546  0.4484  0.0588 -0.2990
 1232BOLB   C4A29552  17.958   9.274  11.215  0.1463 -0.1763  0.0260
 1232BOLB   C1B29553  17.402   8.884  12.472  0.0131 -0.4668  0.0478
 1232BOLB   C2B29554  17.590   8.850  11.957 -0.0647  0.4192 -0.2067
 1232BOLB   C3B29555  17.730   8.731  11.567  0.0833  0.0769  0.1834
 1232BOLB   C4B29556  18.139   8.803  11.453  0.3205  0.2508  0.0788
 1232BOLB   NC229557  19.097   8.284   9.291 -0.1910 -0.0700 -0.1285
 1232BOLB   PO229558  18.643   8.403   9.222 -0.3122  0.3883  0.0546
 1232BOLB   GL329559  18.866   8.796   9.408  0.0267  0.1445 -0.1651
 1232BOLB   GL429560  19.202   8.949   9.485 -0.1218 -0.2043  0.3146
 1232BOLB   C1C29561  18.876   8.901   9.822  0.1769 -0.2051 -0.6033
 1232BOLB   C2C29562  18.561   9.030  10.106  0.0631 -0.0020  0.1128
 1232BOLB   C3C29563  18.414   9.228  10.471  0.0069 -0.2560 -0.1540
 1232BOLB   C4C29564  18.086   9.395  10.832 -0.1223 -0.0163 -0.2590
 1232BOLB   C1D29565  19.278   9.162   9.991  0.5367  0.0160  0.0022
 1232BOLB   C2D29566  19.402   8.952  10.429  0.0584  0.2929 -0.2777
 1232BOLB   C3D29567  19.482   9.199  10.816 -0.1810  0.0752  0.1722
 1232BOLB   C4D29568  19.548   9.326  11.184  0.2402 -0.0166 -0.1231
 1233BOLB   NC129569  10.300  18.445  11.763 -0.2064 -0.0110  0.0203
 1233BOLB   PO129570   9.902  18.752  11.709  0.0992 -0.2310  0.0164
 1233BOLB   GL129571   9.901  18.682  11.319 -0.2361  0.3671 -0.1607
 1233BOLB   GL229572   9.946  19.021  11.234  0.3179  0.2220  0.2498
 1233BOLB   C1A29573  10.064  18.569  10.857 -0.0831  0.0481  0.2930
 1233BOLB   C2A29574   9.959  18.285  10.553 -0.2684  0.0979 -0.0619
 1233BOLB   C3A29575   9.709  18.113  10.198  0.0536  0.1340  0.0510
 1233BOLB   C4A29576   9.713  18.001   9.820 -0.1212 -0.0637 -0.0922
 1233BOLB   C1B29577   9.660  18.955  10.905 -0.0341 -0.2062 -0.0162
 1233BOLB   C2B29578   9.508  18.596  10.535  0.3062 -0.0332  0.1847
 1233BOLB   C3B29579   8.987  18.463  10.407 -0.4378  0.0647 -0.0041
 1233BOLB   C4B29580   8.780  18.605  10.126 -0.1483 -0.4959  0.0517
 1233BOLB   NC229581   9.119  17.490   7.354 -0.1362  0.1789  0.2172
 1233BOLB   PO229582   9.210  17.637   7.749  0.4267 -0.0242 -0.0678
 1233BOLB   GL329583   8.782  17.631   8.071  0.3040  0.1049  0.1591
 1233BOLB   GL429584   8.728  17.335   8.360 -0.0906  0.1811  0.0436
 1233BOLB   C1C29585   8.925  17.841   8.413 -0.0829  0.3127 -0.0618
 1233BOLB   C2C29586   9.064  17.953   8.796  0.0140 -0.0040 -0.0207
 1233BOLB   C3C29587   9.339  18.107   9.121 -0.1118  0.0046 -0.2985
 1233BOLB   C4C29588   9.660  17.910   9.383  0.0167  0.1213 -0.2507
 1233BOLB   C1D29589   8.898  17.438   8.820  0.2168  0.1616 -0.2550
 1233BOLB   C2D29590   8.929  17.190   9.271  0.3053 -0.2909  0.3636
 1233BOLB   C3D29591   9.065  17.003   9.741  0.2168 -0.2271  0.2670
 1233BOLB   C4D29592   9.034  16.768  10.173 -0.1753 -0.0234 -0.1396
 1234BOLB   NC129593  10.166  15.868  11.725 -0.0098 -0.2161  0.0497
 1234BOLB   PO129594  10.187  16.365  11.723  0.0420  0.0000 -0.0506
 1234BOLB   GL129595  10.098  16.300  11.312  0.0589 -0.0374 -0.0555
 1234BOLB   GL229596   9.913  16.023  11.344 -0.0986 -0.1218 -0.1201
 1234BOLB   C1A29597  10.076  16.477  10.946 -0.2907 -0.2262 -0.2213
 1234BOLB   C2A29598   9.787  16.413  10.621  0.2569  0.1887  0.1089
 1234BOLB   C3A29599   9.554  16.584  10.242  0.3182 -0.1260 -0.3014
 1234BOLB   C4A29600   9.270  16.509   9.849 -0.0316 -0.5513 -0.2133
 1234BOLB   C1B29601   9.626  16.094  10.998 -0.1344 -0.4164 -0.0266
 1234BOLB   C2B29602   9.455  16.031  10.636 -0.1076  0.1763  0.1612
 1234BOLB   C3B29603   9.160  16.302  10.455  0.0935 -0.0927 -0.1406
 1234BOLB   C4B29604   8.800  16.311  10.111 -0.0252 -0.0859  0.1814
 1234BOLB   NC229605   8.219  17.102   8.163 -0.2868 -0.1118  0.0957
 1234BOLB   PO229606   8.202  17.580   8.269  0.0256 -0.1800  0.3458
 1234BOLB   GL329607   8.270  17.592   8.757 -0.1530  0.0206  0.1727
 1234BOLB   GL429608   8.345  17.790   8.835 -0.2032 -0.2967 -0.0384
 1234BOLB   C1C29609   8.429  17.257   9.065 -0.2759 -0.0832 -0.0180
 1234BOLB   C2C29610   8.599  16.820   8.986  0.4260  0.0859 -0.0764
 1234BOLB   C3C29611   8.986  16.669   9.106  0.2007  0.1094  0.0812
 1234BOLB   C4C29612   9.292  16.531   9.405  0.1066 -0.3321  0.2315
 1234BOLB   C1D29613   8.610  17.671   9.158 -0.2830 -0.0674  0.1643
 1234BOLB   C2D29614   8.981  17.733   9.242 -0.1934  0.3072  0.1655
 1234BOLB   C3D29615   9.086  17.940   9.600  0.3128  0.0934  0.0861
 1234BOLB   C4D29616   8.844  18.145   9.862 -0.1782  0.1841  0.0940
 1235BOLB   NC129617  20.785  23.633  14.685 -0.1837  0.3312 -0.2763
 1235BOLB   PO129618  20.961  23.351  14.512  0.1518 -0.2523 -0.0828
 1235BOLB   GL129619  21.376  23.585  14.495 -0.1066  0.1667  0.3865
 1235BOLB   GL229620  21.480  23.515  14.204 -0.0875 -0.4887  0.0288
 1235BOLB   C1A29621  21.742  23.856  14.528 -0.5448  0.1861 -0.0255
 1235BOLB   C2A29622  22.090  24.013  14.368  0.1188  0.1446  0.0328
 1235BOLB   C3A29623  22.377  24.074  14.141 -0.2561  0.3238 -0.0028
 1235BOLB   C4A29624  22.606  24.020  13.783  0.1145 -0.1441 -0.1808
 1235BOLB   C1B29625  21.876  23.428  14.364 -0.0487 -0.0881 -0.0806
 1235BOLB   C2B29626  22.207  23.537  14.233 -0.0173  0.1301 -0.0310
 1235BOLB   C3B29627  22.529  23.498  14.034  0.0319 -0.0156 -0.0359
 1235BOLB   C4B29628  22.890  23.297  13.829 -0.0984  0.3252 -0.1014
 1235BOLB   NC229629  23.854  25.318  12.985 -0.0525 -0.0746 -0.0408
 1235BOLB   PO229630  23.976  25.399  13.316  0.4124 -0.2218  0.2298
 1235BOLB   GL329631  23.820  25.016  13.455  0.0791  0.2503  0.0813
 1235BOLB   GL429632  23.805  25.073  13.860 -0.1704  0.1203 -0.2632
 1235BOLB   C1C29633  23.828  24.659  13.275  0.0065  0.0426  0.2575
 1235BOLB   C2C29634  23.750  24.231  13.375  0.1374  0.0758 -0.1533
 1235BOLB   C3C29635  23.441  23.933  13.584 -0.0617  0.0493 -0.1032
 1235BOLB   C4C29636  22.985  23.990  13.723 -0.0078  0.1809  0.2926
 1235BOLB   C1D29637  23.445  24.902  13.920  0.1695  0.0352 -0.1776
 1235BOLB   C2D29638  23.103  24.583  14.031 -0.2037 -0.2621  0.1064
 1235BOLB   C3D29639  22.878  24.196  14.200 -0.0029  0.1494 -0.2590
 1235BOLB   C4D29640  22.804  23.840  14.258  0.1209 -0.2711 -0.0923
 1236BOLB   NC129641  10.768  19.201  11.897 -0.0836  0.1575 -0.3169
 1236BOLB   PO129642  10.729  18.737  11.722  0.0372 -0.3852  0.5678
 1236BOLB   GL129643  10.809  18.830  11.369  0.2899 -0.0268 -0.1670
 1236BOLB   GL229644  10.925  18.650  11.106 -0.0617  0.0108  0.0113
 1236BOLB   C1A29645  10.670  19.046  11.070  0.1657 -0.2865  0.0157
 1236BOLB   C2A29646  10.925  18.960  10.723 -0.2445 -0.1476 -0.1004
 1236BOLB   C3A29647  10.765  18.889  10.418 -0.0941 -0.4966  0.1304
 1236BOLB   C4A29648  10.571  18.933  10.105 -0.1715  0.0378  0.0615
 1236BOLB   C1B29649  10.622  18.590  10.820  0.0201 -0.3175  0.2912
 1236BOLB   C2B29650  10.441  18.533  10.461  0.0809 -0.0910 -0.0997
 1236BOLB   C3B29651  10.209  18.271  10.088 -0.2561  0.3250  0.2453
 1236BOLB   C4B29652  10.158  17.794   9.948 -0.0367 -0.1923 -0.0581
 1236BOLB   NC229653   9.806  18.207   7.850 -0.1482 -0.0662  0.1811
 1236BOLB   PO229654   9.544  18.645   7.928  0.1145  0.0047 -0.0882
 1236BOLB   GL329655   9.816  18.646   8.272 -0.2060  0.1195  0.2740
 1236BOLB   GL429656  10.006  18.362   8.320 -0.1615 -0.1113  0.1979
 1236BOLB   C1C29657  10.047  18.923   8.609 -0.0866  0.1244 -0.0366
 1236BOLB   C2C29658  10.185  18.785   8.991 -0.1462 -0.0602 -0.0761
 1236BOLB   C3C29659  10.282  18.763   9.364 -0.0079 -0.0663 -0.2104
 1236BOLB   C4C29660  10.277  18.743   9.778  0.3155  0.1490  0.0774
 1236BOLB   C1D29661  10.290  18.511   8.593  0.1381 -0.2686  0.3141
 1236BOLB   C2D29662  10.655  18.389   8.809  0.0272 -0.3752  0.2392
 1236BOLB   C3D29663  10.717  18.577   9.165 -0.0828  0.1627  0.1723
 1236BOLB   C4D29664  10.753  18.880   9.570 -0.3122  0.1787 -0.0488
 1237BOLB   NC129665  19.349  22.822  13.103  0.1834  0.1391 -0.3684
 1237BOLB   PO129666  19.171  23.032  12.756  0.1134 -0.0803 -0.1401
 1237BOLB   GL129667  19.153  23.182  12.408 -0.0618  0.0917 -0.3494
 1237BOLB   GL229668  18.955  23.090  12.087  0.1131 -0.0269  0.0011
 1237BOLB   C1A29669  19.490  23.285  12.051  0.1252 -0.0130  0.1472
 1237BOLB   C2A29670  19.651  23.312  11.600 -0.1915 -0.2616  0.1498
 1237BOLB   C3A29671  19.724  23.682  11.259  0.0225  0.2506  0.0179
 1237BOLB   C4A29672  19.845  23.981  10.969 -0.2741 -0.0351  0.3943
 1237BOLB   C1B29673  19.283  22.921  11.776  0.2118 -0.0230  0.0467
 1237BOLB   C2B29674  19.471  22.861  11.380 -0.0731 -0.1376 -0.1416
 1237BOLB   C3B29675  19.638  23.021  11.051 -0.1096  0.1614  0.1679
 1237BOLB   C4B29676  19.959  23.392  10.973 -0.0262 -0.0826 -0.3777
 1237BOLB   NC229677  21.858  24.436   9.276  0.1567 -0.1676 -0.0810
 1237BOLB   PO229678  21.952  24.481   9.708 -0.0671 -0.2828  0.2140
 1237BOLB   GL329679  21.696  24.302   9.942  0.0080  0.1351  0.0212
 1237BOLB   GL429680  21.858  23.942  10.103  0.0132  0.0575 -0.0240
 1237BOLB   C1C29681  21.355  24.206  10.236  0.1155  0.0265 -0.4868
 1237BOLB   C2C29682  20.937  24.448  10.371  0.3033 -0.0376 -0.1948
 1237BOLB   C3C29683  20.527  24.233  10.407  0.5245  0.2490 -0.1720
 1237BOLB   C4C29684  20.204  23.971  10.664  0.2758 -0.0670 -0.0322
 1237BOLB   C1D29685  21.767  23.778  10.452 -0.0502  0.4110  0.2297
 1237BOLB   C2D29686  21.697  23.674  10.942  0.0933  0.1538 -0.1011
 1237BOLB   C3D29687  21.732  23.691  11.401 -0.0123 -0.1532  0.0280
 1237BOLB   C4D29688  21.890  23.567  11.759  0.2500  0.1255  0.2566
 1238BOLB   NC129689  10.757  15.198  12.100  0.0838 -0.1800 -0.0159
 1238BOLB   PO129690  10.210  15.371  12.156 -0.1479  0.0183  0.0395
 1238BOLB   GL129691   9.953  15.407  11.920  0.3353  0.1269 -0.2570
 1238BOLB   GL229692   9.945  15.444  11.597  0.0502 -0.0162  0.0993
 1238BOLB   C1A29693   9.844  14.968  11.835  0.1836  0.1632 -0.0310
 1238BOLB   C2A29694   9.876  14.806  11.441 -0.0018  0.2237 -0.3018
 1238BOLB   C3A29695   9.675  14.642  10.990  0.2776  0.0468  0.0994
 1238BOLB   C4A29696   9.476  14.517  10.572  0.2438 -0.0229  0.0077
 1238BOLB   C1B29697   9.911  15.286  11.281 -0.0669  0.3502  0.0038
 1238BOLB   C2B29698   9.736  15.144  10.814 -0.0583 -0.4731 -0.0350
 1238BOLB   C3B29699   9.485  15.022  10.452 -0.0876 -0.0587  0.0602
 1238BOLB   C4B29700   9.023  14.813  10.389 -0.1118 -0.0543 -0.0833
 1238BOLB   NC229701   9.218  14.748   7.846 -0.1048  0.0483  0.0205
 1238BOLB   PO229702   9.138  14.347   7.941  0.2334 -0.0665  0.4789
 1238BOLB   GL329703   9.052  14.242   8.439  0.0060 -0.2837 -0.0246
 1238BOLB   GL429704   8.825  14.443   8.602 -0.1537  0.1795 -0.1671
 1238BOLB   C1C29705   8.927  14.006   8.887  0.0172 -0.2796  0.1869
 1238BOLB   C2C29706   9.176  14.142   9.303 -0.2117 -0.1334  0.0813
 1238BOLB   C3C29707   9.313  14.189   9.768  0.0950  0.1590  0.1346
 1238BOLB   C4C29708   9.335  14.201  10.238 -0.1465 -0.0375 -0.2316
 1238BOLB   C1D29709   9.083  14.646   8.868 -0.1142  0.0870 -0.2199
 1238BOLB   C2D29710   9.465  14.611   9.192 -0.1173 -0.1286  0.1091
 1238BOLB   C3D29711   9.534  14.560   9.581 -0.1039  0.0082 -0.0954
 1238BOLB   C4D29712   9.607  14.671   9.975  0.1805  0.1353  0.0983
 1239BOLB   NC129713  16.403  21.750  12.129 -0.2384  0.1424  0.0338
 1239BOLB   PO129714  16.538  21.959  11.690  0.3284  0.0265  0.0352
 1239BOLB   GL129715  16.732  21.960  11.285 -0.2118 -0.3241 -0.0475
 1239BOLB   GL229716  16.396  22.094  11.211 -0.1573  0.2578  0.1210
 1239BOLB   C1A29717  16.718  21.932  10.876  0.1090 -0.2118 -0.0539
 1239BOLB   C2A29718  16.681  22.080  10.459 -0.1061  0.0677  0.0736
 1239BOLB   C3A29719  16.512  22.262  10.054  0.0957  0.1749 -0.0260
 1239BOLB   C4A29720  16.601  22.361   9.617  0.3024 -0.1766 -0.0264
 1239BOLB   C1B29721  16.347  22.307  10.948  0.2816 -0.3006  0.2108
 1239BOLB   C2B29722  16.055  22.290  10.548  0.0442 -0.0218 -0.0639
 1239BOLB   C3B29723  15.927  22.220  10.198 -0.0781  0.4335  0.0723
 1239BOLB   C4B29724  15.978  22.227   9.763 -0.3645 -0.1479 -0.0078
 1239BOLB   NC229725  17.289  22.682   7.510  0.1663  0.1424 -0.3449
 1239BOLB   PO229726  17.304  22.204   7.641  0.1828 -0.0830  0.1266
 1239BOLB   GL329727  17.381  22.016   7.986  0.0265 -0.3948  0.2207
 1239BOLB   GL429728  17.519  22.146   8.216 -0.1392 -0.5468  0.1728
 1239BOLB   C1C29729  16.969  21.787   8.221  0.0080  0.1966 -0.0747
 1239BOLB   C2C29730  16.722  21.785   8.546  0.3554  0.0524  0.1274
 1239BOLB   C3C29731  16.862  22.071   8.880  0.1059 -0.0099 -0.1762
 1239BOLB   C4C29732  16.562  22.248   9.207 -0.0378  0.1295  0.0858
 1239BOLB   C1D29733  17.158  22.172   8.424  0.0989 -0.0840 -0.3381
 1239BOLB   C2D29734  17.318  21.971   8.792  0.0571 -0.3622  0.1403
 1239BOLB   C3D29735  17.262  21.961   9.204  0.0747 -0.0295 -0.0914
 1239BOLB   C4D29736  16.864  21.970   9.448 -0.1613  0.1388 -0.2365
 1240BOLB   NC129737  21.317  19.708  12.984  0.3141  0.5215 -0.0354
 1240BOLB   PO129738  20.908  19.759  12.759  0.0381  0.0902  0.1374
 1240BOLB   GL129739  21.245  19.585  12.466 -0.0018  0.0439 -0.0468
 1240BOLB   GL229740  21.635  19.574  12.490  0.1711 -0.2808  0.0399
 1240BOLB   C1A29741  21.449  19.592  12.026  0.1507 -0.1144 -0.0135
 1240BOLB   C2A29742  21.653  19.583  11.584  0.0891  0.1480 -0.1234
 1240BOLB   C3A29743  21.819  19.555  11.154  0.2177  0.0421 -0.0803
 1240BOLB   C4A29744  21.781  19.900  10.790  0.1268  0.1750  0.0043
 1240BOLB   C1B29745  21.868  19.848  12.148 -0.2749 -0.2836 -0.2087
 1240BOLB   C2B29746  22.018  19.866  11.823  0.0789  0.1268  0.2227
 1240BOLB   C3B29747  22.098  20.025  11.376 -0.0333  0.1680  0.0116
 1240BOLB   C4B29748  22.287  19.918  11.006  0.2522  0.0401  0.2524
 1240BOLB   NC229749  23.062  20.920   9.061  0.1656 -0.3416  0.2723
 1240BOLB   PO229750  23.377  20.939   9.466 -0.2005  0.0478  0.3885
 1240BOLB   GL329751  23.129  20.905   9.885  0.0326  0.2558  0.1924
 1240BOLB   GL429752  23.237  20.660  10.109 -0.1726 -0.4641  0.2686
 1240BOLB   C1C29753  22.754  20.981  10.084 -0.0605 -0.0126  0.1877
 1240BOLB   C2C29754  22.343  20.733  10.205 -0.0032 -0.0638  0.0935
 1240BOLB   C3C29755  22.002  20.434  10.271 -0.0993 -0.0325 -0.0064
 1240BOLB   C4C29756  22.058  20.121  10.446  0.2272 -0.0221  0.0959
 1240BOLB   C1D29757  23.306  20.226  10.209 -0.2053  0.0861  0.0248
 1240BOLB   C2D29758  23.377  19.876  10.454  0.3665 -0.0424  0.1393
 1240BOLB   C3D29759  23.408  19.793  10.903 -0.0311  0.0782  0.2450
 1240BOLB   C4D29760  23.404  19.722  11.304  0.2357 -0.0428  0.0359
 1241BOLB   NC129761  18.051  23.209  13.313  0.0521 -0.0688 -0.2094
 1241BOLB   PO129762  18.292  23.433  12.905 -0.1352  0.2724  0.2887
 1241BOLB   GL129763  18.597  23.558  12.444 -0.1417 -0.0576  0.2431
 1241BOLB   GL229764  18.888  23.603  12.355  0.2601 -0.0834  0.3472
 1241BOLB   C1A29765  18.585  23.622  11.950 -0.1890  0.0480  0.2384
 1241BOLB   C2A29766  18.783  23.710  11.604 -0.2556  0.0151 -0.1421
 1241BOLB   C3A29767  18.723  23.501  11.230  0.0690 -0.1881  0.2647
 1241BOLB   C4A29768  18.804  23.461  10.867  0.1177 -0.3501 -0.0804
 1241BOLB   C1B29769  19.059  23.609  12.020 -0.2452 -0.0739 -0.0990
 1241BOLB   C2B29770  19.102  23.342  11.571  0.0670 -0.0911 -0.2026
 1241BOLB   C3B29771  19.332  23.339  11.226  0.0425  0.1010 -0.0793
 1241BOLB   C4B29772  19.397  23.470  10.900  0.3369  0.1868  0.0394
 1241BOLB   NC229773  20.057  23.526   8.667  0.0960 -0.2107  0.1408
 1241BOLB   PO229774  19.731  23.861   8.784  0.0002 -0.0935  0.1520
 1241BOLB   GL329775  19.562  23.574   9.082  0.0323 -0.2028  0.1928
 1241BOLB   GL429776  19.346  23.827   9.154  0.1642  0.1026  0.1888
 1241BOLB   C1C29777  19.148  23.455   9.363  0.0843 -0.1849 -0.1309
 1241BOLB   C2C29778  19.056  23.616   9.717 -0.0776  0.1211  0.0841
 1241BOLB   C3C29779  18.930  23.549  10.113  0.1756 -0.3342  0.0843
 1241BOLB   C4C29780  18.876  23.329  10.525 -0.1931  0.1554  0.0712
 1241BOLB   C1D29781  19.367  24.062   9.548 -0.0915  0.1876 -0.0323
 1241BOLB   C2D29782  19.485  24.226   9.947  0.1392 -0.1414  0.0111
 1241BOLB   C3D29783  19.534  24.545  10.316  0.0356 -0.1716  0.1142
 1241BOLB   C4D29784  19.717  24.369  10.614  0.2774 -0.1092  0.0940
 1242BOLB   NC129785  12.579  14.850  11.818 -0.3693 -0.1257  0.0072
 1242BOLB   PO129786  12.682  14.969  11.358 -0.1323 -0.0936  0.0484
 1242BOLB   GL129787  12.884  15.049  10.953  0.0210 -0.0770  0.0339
 1242BOLB   GL229788  13.193  15.143  11.019 -0.1156 -0.0492  0.2025
 1242BOLB   C1A29789  12.989  15.169  10.536  0.2743  0.2516 -0.2030
 1242BOLB   C2A29790  13.086  15.257  10.165  0.1786  0.1358 -0.2490
 1242BOLB   C3A29791  13.137  14.970   9.952 -0.4366 -0.0421  0.1645
 1242BOLB   C4A29792  12.940  14.792   9.584  0.1516 -0.1707  0.1323
 1242BOLB   C1B29793  13.396  15.227  10.707 -0.3034  0.3027  0.0604
 1242BOLB   C2B29794  13.539  15.263  10.384 -0.4261  0.1435  0.0933
 1242BOLB   C3B29795  13.595  15.360   9.944  0.1005  0.6277  0.1736
 1242BOLB   C4B29796  13.611  15.626   9.536 -0.3644  0.2049 -0.0410
 1242BOLB   NC229797  13.731  14.119   7.175  0.0210 -0.2424 -0.0693
 1242BOLB   PO229798  13.616  14.391   7.120  0.0708  0.2236 -0.1458
 1242BOLB   GL329799  13.636  14.309   7.613 -0.2434 -0.2256 -0.4360
 1242BOLB   GL429800  13.732  14.099   7.710  0.1540 -0.0897  0.1601
 1242BOLB   C1C29801  13.552  14.404   8.034  0.4521  0.0290 -0.0724
 1242BOLB   C2C29802  13.357  14.616   8.243 -0.1508 -0.0930 -0.0570
 1242BOLB   C3C29803  13.210  14.593   8.627  0.0964  0.2059  0.0176
 1242BOLB   C4C29804  13.002  14.743   9.125 -0.1677  0.1246  0.2406
 1242BOLB   C1D29805  14.054  14.459   7.920 -0.3238 -0.4963  0.2098
 1242BOLB   C2D29806  14.343  14.710   8.132  0.0080 -0.2301 -0.0021
 1242BOLB   C3D29807  14.389  14.794   8.509 -0.0641  0.1161  0.0141
 1242BOLB   C4D29808  14.537  14.800   8.905  0.1757 -0.1587  0.0958
 1243BOLB   NC129809  12.691  12.406  11.844  0.2631  0.0279  0.0816
 1243BOLB   PO129810  12.312  12.487  11.630  0.0856  0.1229 -0.2908
 1243BOLB   GL129811  12.317  12.383  11.316  0.0500 -0.1907  0.0921
 1243BOLB   GL229812  11.993  12.483  11.083  0.0515  0.0723 -0.0009
 1243BOLB   C1A29813  12.515  12.364  10.836 -0.2487  0.0512 -0.1224
 1243BOLB   C2A29814  12.719  12.084  10.528 -0.4765  0.0609  0.2299
 1243BOLB   C3A29815  12.723  11.922  10.131  0.1474  0.4476  0.0471
 1243BOLB   C4A29816  12.942  11.572   9.861 -0.3726  0.0488  0.1608
 1243BOLB   C1B29817  12.020  12.429  10.615  0.2478  0.1764  0.1145
 1243BOLB   C2B29818  12.333  12.414  10.250  0.3981  0.0376  0.0556
 1243BOLB   C3B29819  12.471  12.281   9.848  0.1650  0.2066 -0.1839
 1243BOLB   C4B29820  12.156  12.160   9.512 -0.0315 -0.1980 -0.0009
 1243BOLB   NC229821  12.271  11.398   7.388  0.0088  0.0560 -0.0625
 1243BOLB   PO229822  12.576  11.225   7.549 -0.2337  0.1112 -0.1738
 1243BOLB   GL329823  12.392  11.117   7.950  0.0105  0.1405 -0.1902
 1243BOLB   GL429824  12.259  11.325   7.967  0.0237 -0.0789 -0.0730
 1243BOLB   C1C29825  12.573  11.074   8.348  0.0681 -0.0444  0.0799
 1243BOLB   C2C29826  12.744  10.900   8.819 -0.0858  0.2332 -0.1406
 1243BOLB   C3C29827  12.717  11.112   9.209  0.0243 -0.0897 -0.0008
 1243BOLB   C4C29828  12.746  11.415   9.396 -0.1063 -0.3531 -0.0487
 1243BOLB   C1D29829  12.081  11.203   8.371  0.1294  0.1233 -0.1666
 1243BOLB   C2D29830  12.247  11.042   8.670  0.1582  0.2439 -0.1374
 1243BOLB   C3D29831  12.233  11.100   9.073 -0.1706 -0.0725  0.1797
 1243BOLB   C4D29832  12.339  11.202   9.526  0.2399 -0.1625 -0.1144
 1244BOLB   NC129833  10.191  10.035  12.146  0.3276 -0.0772 -0.0466
 1244BOLB   PO129834   9.780   9.984  12.090 -0.1353 -0.3098  0.3489
 1244BOLB   GL129835   9.641   9.797  11.636  0.0714 -0.0960  0.2301
 1244BOLB   GL229836   9.925   9.645  11.532 -0.1276 -0.1737 -0.3201
 1244BOLB   C1A29837   9.475   9.692  11.233  0.5516  0.1032 -0.0108
 1244BOLB   C2A29838   9.429   9.664  10.816 -0.2603  0.1220 -0.0366
 1244BOLB   C3A29839   9.293   9.623  10.380 -0.0218  0.1676  0.1406
 1244BOLB   C4A29840   9.121  10.020  10.176 -0.0699 -0.0094  0.1706
 1244BOLB   C1B29841   9.938   9.818  11.052 -0.0872  0.1236  0.0370
 1244BOLB   C2B29842   9.740  10.050  10.752 -0.3345 -0.0048  0.2213
 1244BOLB   C3B29843   9.607   9.965  10.389 -0.2866  0.1397  0.2855
 1244BOLB   C4B29844   9.612  10.175   9.993  0.1311  0.0498  0.0269
 1244BOLB   NC229845   8.801  10.584   7.694  0.0796 -0.4470  0.1437
 1244BOLB   PO229846   9.223  10.713   7.528 -0.1035  0.3700 -0.1799
 1244BOLB   GL329847   9.231  10.681   7.939  0.0640  0.2386 -0.1021
 1244BOLB   GL429848   9.531  10.753   8.012  0.3671 -0.1427  0.1732
 1244BOLB   C1C29849   9.151  10.472   8.407 -0.4462  0.0471 -0.4460
 1244BOLB   C2C29850   9.183  10.274   8.854 -0.2593 -0.2077 -0.0958
 1244BOLB   C3C29851   9.139  10.125   9.297  0.1340  0.0105  0.1079
 1244BOLB   C4C29852   9.115  10.173   9.745  0.3352  0.2263  0.0818
 1244BOLB   C1D29853   9.889  10.766   8.303  0.0319 -0.1028 -0.1845
 1244BOLB   C2D29854   9.994  10.655   8.777  0.1914  0.3869 -0.1517
 1244BOLB   C3D29855   9.971  10.902   9.177 -0.0464  0.1767  0.1742
 1244BOLB   C4D29856   9.758  11.027   9.582  0.1151  0.0213  0.2198
 1245BOLB   NC129857  21.423  20.232  13.374  0.1752 -0.0186 -0.1558
 1245BOLB   PO129858  21.446  19.694  13.487 -0.0704 -0.3237 -0.3986
 1245BOLB   GL129859  21.705  19.831  13.246 -0.2455 -0.3263  0.0363
 1245BOLB   GL229860  21.962  19.729  13.064 -0.4518  0.1291  0.1941
 1245BOLB   C1A29861  22.061  20.179  13.160 -0.2948  0.0531 -0.2867
 1245BOLB   C2A29862  22.324  20.366  12.847  0.0836  0.0255  0.0760
 1245BOLB   C3A29863  22.681  20.504  12.738 -0.3349 -0.3791  0.1142
 1245BOLB   C4A29864  22.966  20.764  12.549  0.0744  0.0021 -0.2162
 1245BOLB   C1B29865  22.140  19.779  12.735 -0.0387 -0.1126  0.0777
 1245BOLB   C2B29866  22.357  19.970  12.380  0.0248  0.0258 -0.2508
 1245BOLB   C3B29867  22.702  20.064  12.097  0.3098 -0.0270 -0.2602
 1245BOLB   C4B29868  22.909  20.158  11.774  0.1191  0.0723 -0.1729
 1245BOLB   NC229869  25.298  21.227  11.842 -0.0730 -0.3213 -0.2153
 1245BOLB   PO229870  25.110  21.268  11.482 -0.0264 -0.3249  0.5203
 1245BOLB   GL329871  24.833  21.021  11.729 -0.2318 -0.2109  0.1728
 1245BOLB   GL429872  24.547  21.209  11.786 -0.0440 -0.1528  0.1439
 1245BOLB   C1C29873  24.748  21.074  12.236  0.0141 -0.0508  0.0217
 1245BOLB   C2C29874  24.355  20.951  12.419 -0.0932  0.0867  0.0446
 1245BOLB   C3C29875  23.886  20.722  12.470  0.0340 -0.1615  0.0586
 1245BOLB   C4C29876  23.443  20.747  12.595 -0.0070  0.4147  0.2213
 1245BOLB   C1D29877  24.167  21.420  11.901 -0.1742 -0.1868  0.1154
 1245BOLB   C2D29878  23.816  21.748  11.727  0.0739  0.0323 -0.0327
 1245BOLB   C3D29879  23.485  22.020  11.642  0.0652  0.0580  0.0468
 1245BOLB   C4D29880  23.423  22.279  11.368 -0.3664  0.1897  0.1301
 1246BOLB   NC129881  11.699  11.633  11.914  0.0039  0.1966  0.2348
 1246BOLB   PO129882  11.750  11.157  11.780 -0.0694  0.1379  0.1916
 1246BOLB   GL129883  12.000  10.986  11.433 -0.2078  0.0816  0.0829
 1246BOLB   GL229884  12.143  10.698  11.591  0.0674  0.0908 -0.0230
 1246BOLB   C1A29885  11.960  10.952  10.997  0.0602  0.3556 -0.2020
 1246BOLB   C2A29886  11.877  10.922  10.659  0.1750 -0.0473  0.0298
 1246BOLB   C3A29887  11.712  11.095  10.214  0.1880  0.2751 -0.0808
 1246BOLB   C4A29888  11.407  11.299   9.951 -0.2390 -0.1566 -0.0278
 1246BOLB   C1B29889  12.358  10.698  11.199  0.2559 -0.2715 -0.1294
 1246BOLB   C2B29890  12.486  10.247  11.052  0.0339 -0.1325  0.1057
 1246BOLB   C3B29891  12.756   9.944  11.039 -0.0701 -0.1348 -0.0660
 1246BOLB   C4B29892  12.972   9.492  10.914  0.4260 -0.2167  0.1700
 1246BOLB   NC229893  10.645  12.060   7.890 -0.1250  0.2146  0.2854
 1246BOLB   PO229894  10.528  11.552   7.943 -0.0251 -0.2234  0.3620
 1246BOLB   GL329895  10.658  11.765   8.358  0.0035 -0.2788  0.2529
 1246BOLB   GL429896  10.763  12.054   8.361  0.1543 -0.1618  0.1899
 1246BOLB   C1C29897  10.734  11.991   8.797 -0.0470  0.2287 -0.0890
 1246BOLB   C2C29898  11.047  11.852   9.050 -0.0837 -0.0395  0.0561
 1246BOLB   C3C29899  11.058  11.590   9.364  0.1101  0.1790  0.0200
 1246BOLB   C4C29900  11.322  11.314   9.601  0.4232  0.1109  0.3058
 1246BOLB   C1D29901  11.228  11.947   8.479  0.2510  0.1019 -0.1580
 1246BOLB   C2D29902  11.442  11.625   8.635  0.3401  0.3257  0.2612
 1246BOLB   C3D29903  11.340  11.359   8.991 -0.1515  0.0529  0.1165
 1246BOLB   C4D29904  11.653  11.177   9.305  0.0731 -0.1349 -0.0001
 1247BOLB   NC129905  18.032   9.692  13.854 -0.1141  0.1130  0.1147
 1247BOLB   PO129906  18.309   9.240  13.757 -0.0698 -0.3630 -0.0035
 1247BOLB   GL129907  18.427   9.075  13.424 -0.1094 -0.1403  0.0461
 1247BOLB   GL229908  18.425   9.344  13.128 -0.0493 -0.1776 -0.1199
 1247BOLB   C1A29909  18.329   8.852  13.017 -0.2433 -0.0485 -0.0160
 1247BOLB   C2A29910  18.259   8.506  12.734  0.4314 -0.0763 -0.3509
 1247BOLB   C3A29911  18.137   8.233  12.544  0.3698  0.3327 -0.0872
 1247BOLB   C4A29912  18.358   7.919  12.213 -0.1574  0.0457 -0.2153
 1247BOLB   C1B29913  18.695   9.404  12.731 -0.2018 -0.1870  0.2287
 1247BOLB   C2B29914  19.033   9.322  12.500 -0.1131  0.2121  0.2699
 1247BOLB   C3B29915  19.092   8.896  12.425  0.2530 -0.1061  0.0429
 1247BOLB   C4B29916  18.973   8.451  12.345  0.1456 -0.1778 -0.0482
 1247BOLB   NC229917  19.240   7.662  10.108  0.1263  0.1213  0.0304
 1247BOLB   PO229918  18.789   7.748  10.038 -0.0415 -0.0482 -0.2263
 1247BOLB   GL329919  18.705   7.962  10.393  0.1521 -0.1504  0.1964
 1247BOLB   GL429920  18.980   7.998  10.449 -0.1035 -0.0508 -0.3005
 1247BOLB   C1C29921  18.585   7.772  10.757 -0.1096  0.0689  0.0938
 1247BOLB   C2C29922  18.535   7.698  11.154  0.0945  0.1301  0.1165
 1247BOLB   C3C29923  18.352   7.802  11.410  0.1400 -0.0398  0.3211
 1247BOLB   C4C29924  18.334   7.880  11.813  0.3266  0.1036  0.0810
 1247BOLB   C1D29925  19.097   8.461  10.495  0.0860  0.0825 -0.1496
 1247BOLB   C2D29926  18.957   8.978  10.725  0.1589  0.0748  0.0956
 1247BOLB   C3D29927  18.889   9.397  10.769 -0.2967  0.0966 -0.0346
 1247BOLB   C4D29928  18.852   9.724  10.643 -0.2556  0.0172  0.0413
 1248BOLB   NC129929  14.361  17.986  11.358  0.3366 -0.2414  0.2413
 1248BOLB   PO129930  14.695  18.382  11.322 -0.0424  0.3226  0.0686
 1248BOLB   GL129931  14.726  18.582  10.900 -0.0641  0.3057  0.5810
 1248BOLB   GL229932  14.745  18.273  10.764  0.1367  0.0016  0.4199
 1248BOLB   C1A29933  14.616  18.699  10.519 -0.1342  0.2376  0.1308
 1248BOLB   C2A29934  14.735  18.995  10.176 -0.1612 -0.1049 -0.1085
 1248BOLB   C3A29935  15.153  19.232   9.965  0.1189  0.3058 -0.0657
 1248BOLB   C4A29936  15.472  19.250   9.597  0.2693 -0.0637  0.1774
 1248BOLB   C1B29937  14.564  18.218  10.391  0.0123 -0.1188 -0.1451
 1248BOLB   C2B29938  14.647  18.556  10.015 -0.1026 -0.0414 -0.2157
 1248BOLB   C3B29939  14.712  18.742   9.713  0.1421 -0.1290  0.0093
 1248BOLB   C4B29940  14.850  19.152   9.609 -0.0111 -0.1087 -0.1702
 1248BOLB   NC229941  15.625  19.967   7.462  0.2520  0.1345  0.4255
 1248BOLB   PO229942  15.872  20.331   7.377  0.1000 -0.1515 -0.3926
 1248BOLB   GL329943  15.775  20.377   7.849  0.0091  0.2261 -0.2052
 1248BOLB   GL429944  15.483  20.170   7.909 -0.2349  0.0629 -0.1616
 1248BOLB   C1C29945  15.906  20.178   8.252 -0.1439 -0.5021  0.2064
 1248BOLB   C2C29946  15.889  19.931   8.561 -0.0259  0.2061 -0.1139
 1248BOLB   C3C29947  15.908  19.498   8.870 -0.0642  0.0280  0.0463
 1248BOLB   C4C29948  15.792  19.223   9.257  0.4781 -0.0143 -0.0724
 1248BOLB   C1D29949  15.366  19.725   8.160  0.3126  0.2433  0.1253
 1248BOLB   C2D29950  15.605  19.519   8.413 -0.0728  0.0337 -0.2127
 1248BOLB   C3D29951  15.954  19.175   8.461  0.0317 -0.0324 -0.0695
 1248BOLB   C4D29952  16.094  19.033   8.898 -0.0658 -0.0107  0.1549
 1249BOLB   NC129953  11.108  15.343  11.553 -0.0346  0.1258  0.1325
 1249BOLB   PO129954  10.873  15.523  11.709  0.1675  0.0647  0.1359
 1249BOLB   GL129955  10.698  15.579  11.247 -0.2789  0.1027 -0.3179
 1249BOLB   GL229956  10.363  15.661  11.348 -0.3087  0.1909  0.0732
 1249BOLB   C1A29957  10.664  15.654  10.812 -0.0821  0.1499  0.1450
 1249BOLB   C2A29958  10.315  15.669  10.473  0.0034 -0.0836  0.0730
 1249BOLB   C3A29959   9.874  15.466  10.249  0.0173 -0.2199 -0.0602
 1249BOLB   C4A29960   9.703  15.619   9.885 -0.1615  0.1264  0.1054
 1249BOLB   C1B29961  10.125  15.618  10.987  0.0577 -0.1219  0.2912
 1249BOLB   C2B29962   9.912  15.851  10.675  0.1245  0.1127 -0.4114
 1249BOLB   C3B29963   9.752  15.963  10.311 -0.0792 -0.0316  0.4212
 1249BOLB   C4B29964   9.381  15.962  10.095 -0.3539 -0.2474 -0.2053
 1249BOLB   NC229965   8.645  15.970   7.608  0.1234 -0.2428  0.1085
 1249BOLB   PO229966   8.708  16.359   7.754  0.0695 -0.2443  0.1719
 1249BOLB   GL329967   8.738  16.356   8.179 -0.0843 -0.1333  0.2112
 1249BOLB   GL429968   9.049  16.456   8.244  0.1587 -0.1522  0.1314
 1249BOLB   C1C29969   8.731  16.243   8.672  0.1356  0.0639  0.0333
 1249BOLB   C2C29970   9.125  16.134   8.871 -0.1120  0.2808 -0.0639
 1249BOLB   C3C29971   9.306  15.937   9.157  0.1506  0.1890 -0.1388
 1249BOLB   C4C29972   9.661  15.690   9.445 -0.0959 -0.3311  0.2969
 1249BOLB   C1D29973   9.234  16.083   8.418  0.3566  0.0357 -0.0112
 1249BOLB   C2D29974   9.590  16.160   8.738  0.0368  0.1207 -0.0324
 1249BOLB   C3D29975   9.895  16.310   8.940  0.0606 -0.3585 -0.3679
 1249BOLB   C4D29976  10.106  16.763   9.051 -0.1934  0.3189 -0.0851
 1250BOLB   NC129977  11.936  14.177  11.607  0.0152 -0.0097 -0.0687
 1250BOLB   PO129978  11.591  14.088  11.732  0.1786 -0.0485 -0.1004
 1250BOLB   GL129979  11.696  13.949  11.232 -0.0419  0.1783 -0.0363
 1250BOLB   GL229980  11.819  14.100  10.959 -0.3130 -0.0730  0.0213
 1250BOLB   C1A29981  11.567  13.708  10.905 -0.0871  0.5064 -0.2268
 1250BOLB   C2A29982  11.502  13.542  10.460 -0.0989 -0.1237 -0.0000
 1250BOLB   C3A29983  11.657  13.230  10.142  0.3176 -0.2683 -0.1739
 1250BOLB   C4A29984  11.977  13.061   9.876 -0.2041  0.0231 -0.2042
 1250BOLB   C1B29985  11.799  14.051  10.506  0.0954  0.1908 -0.1858
 1250BOLB   C2B29986  11.736  14.183  10.004  0.0001 -0.0311  0.3267
 1250BOLB   C3B29987  11.911  14.459   9.632  0.0102  0.2501 -0.0348
 1250BOLB   C4B29988  11.753  14.857   9.406 -0.2671 -0.0482 -0.2533
 1250BOLB   NC229989  10.992  13.079   7.814  0.0117  0.0542 -0.1042
 1250BOLB   PO229990  11.117  12.699   7.570  0.3255 -0.1689 -0.3442
 1250BOLB   GL329991  11.349  12.767   7.947 -0.0911  0.0435  0.3315
 1250BOLB   GL429992  11.699  12.822   7.983 -0.2406  0.1945  0.0548
 1250BOLB   C1C29993  11.340  12.840   8.433  0.2313  0.2655  0.2419
 1250BOLB   C2C29994  11.578  12.948   8.737 -0.0421  0.1910 -0.1075
 1250BOLB   C3C29995  11.880  12.788   9.173  0.4020 -0.2093  0.0397
 1250BOLB   C4C29996  11.893  12.892   9.546 -0.0107  0.0166 -0.3089
 1250BOLB   C1D29997  11.900  13.036   8.237 -0.1093  0.2070 -0.1287
 1250BOLB   C2D29998  12.002  13.171   8.654 -0.5437  0.0416  0.0731
 1250BOLB   C3D29999  12.338  12.904   8.964 -0.3098 -0.0925 -0.2772
 1250BOLB   C4D30000  12.559  13.089   9.330  0.2870 -0.0835  0.1423
 1251BOLB   NC130001  20.521  15.928  12.491 -0.2866 -0.2617 -0.1052
 1251BOLB   PO130002  20.365  15.559  12.209  0.0461 -0.1385 -0.1504
 1251BOLB   GL130003  20.583  15.429  11.842 -0.1792  0.1581  0.1687
 1251BOLB   GL230004  20.385  15.386  11.529  0.0128 -0.2062  0.4521
 1251BOLB   C1A30005  20.870  15.504  11.531  0.2737  0.0767 -0.0189
 1251BOLB   C2A30006  21.131  15.499  11.150 -0.0497  0.1018 -0.1719
 1251BOLB   C3A30007  21.348  15.285  10.770 -0.1266  0.0174  0.0733
 1251BOLB   C4A30008  21.455  15.223  10.364  0.1873  0.2739 -0.2579
 1251BOLB   C1B30009  20.505  15.512  11.134  0.2357 -0.2085 -0.3479
 1251BOLB   C2B30010  20.575  15.521  10.687  0.0007  0.3826 -0.0654
 1251BOLB   C3B30011  20.478  15.599  10.302  0.0228  0.1182  0.1387
 1251BOLB   C4B30012  20.586  15.518   9.873  0.5464  0.2288 -0.0016
 1251BOLB   NC230013  22.749  16.007   8.075  0.0071 -0.0688 -0.1521
 1251BOLB   PO230014  22.860  16.063   8.511  0.2922 -0.1577 -0.0314
 1251BOLB   GL330015  22.721  15.936   8.863 -0.0736 -0.0542 -0.2460
 1251BOLB   GL430016  22.889  15.946   9.066  0.0483 -0.2665  0.1960
 1251BOLB   C1C30017  22.447  15.744   9.149  0.0767 -0.1700 -0.0345
 1251BOLB   C2C30018  22.259  15.483   9.436  0.1780 -0.4210 -0.2899
 1251BOLB   C3C30019  21.855  15.552   9.640  0.1331 -0.0467  0.0444
 1251BOLB   C4C30020  21.600  15.351   9.942  0.0804  0.2935 -0.1565
 1251BOLB   C1D30021  22.649  16.093   9.439 -0.0524 -0.0187 -0.2954
 1251BOLB   C2D30022  22.781  16.051   9.914  0.0912  0.1464  0.0191
 1251BOLB   C3D30023  22.755  15.723  10.292 -0.2532  0.1476  0.0449
 1251BOLB   C4D30024  22.580  15.657  10.681 -0.1703 -0.0055 -0.2759
 1252BOLB   NC130025   8.163   9.130  11.684 -0.0526 -0.1386 -0.1653
 1252BOLB   PO130026   7.759   9.200  11.916 -0.2733  0.2545  0.0078
 1252BOLB   GL130027   7.728   9.585  11.631 -0.2913 -0.4033  0.1572
 1252BOLB   GL230028   8.044   9.633  11.437 -0.1132 -0.0275  0.1231
 1252BOLB   C1A30029   7.602   9.787  11.212 -0.1134  0.4218  0.1452
 1252BOLB   C2A30030   7.750   9.823  10.779 -0.6097 -0.0250  0.1363
 1252BOLB   C3A30031   7.877   9.978  10.426 -0.1786  0.0807 -0.3083
 1252BOLB   C4A30032   7.916  10.231  10.113  0.0486  0.0189 -0.0273
 1252BOLB   C1B30033   8.095   9.989  11.145 -0.0653 -0.2205 -0.0396
 1252BOLB   C2B30034   8.135  10.258  10.720  0.1746 -0.0584  0.0805
 1252BOLB   C3B30035   8.312  10.532  10.412  0.1046  0.3540  0.0694
 1252BOLB   C4B30036   8.519  10.963  10.570  0.1593  0.1385  0.1444
 1252BOLB   NC230037   7.831  11.176   8.072  0.2914  0.0324 -0.3455
 1252BOLB   PO230038   7.805  11.580   8.014 -0.0694  0.2511  0.0477
 1252BOLB   GL330039   8.033  11.517   8.518 -0.1726 -0.1379 -0.0533
 1252BOLB   GL430040   8.407  11.489   8.590 -0.2831  0.1801  0.0375
 1252BOLB   C1C30041   7.756  11.425   8.879  0.0391  0.1282 -0.1128
 1252BOLB   C2C30042   7.449  11.094   9.135 -0.0358 -0.0441 -0.0604
 1252BOLB   C3C30043   7.590  10.814   9.457 -0.4142  0.3072 -0.2351
 1252BOLB   C4C30044   7.785  10.571   9.754  0.0595  0.1147  0.0100
 1252BOLB   C1D30045   8.415  11.863   8.720  0.0441 -0.3948  0.0236
 1252BOLB   C2D30046   8.368  12.166   9.134 -0.0118  0.1193 -0.1760
 1252BOLB   C3D30047   7.878  11.984   9.326  0.1060 -0.1445 -0.0672
 1252BOLB   C4D30048   7.536  11.592   9.284 -0.2216 -0.1658  0.1496
 1253BOLB   NC130049  16.174  10.037  12.354  0.3836 -0.1850 -0.4562
 1253BOLB   PO130050  15.937   9.623  12.398  0.0094  0.0309 -0.0969
 1253BOLB   GL130051  16.087   9.679  11.933  0.2561 -0.1757  0.1753
 1253BOLB   GL230052  15.889   9.862  11.684  0.1652 -0.0498  0.1471
 1253BOLB   C1A30053  16.275   9.501  11.450 -0.2615 -0.1685  0.3350
 1253BOLB   C2A30054  16.527   9.216  11.136  0.0429  0.0149  0.1065
 1253BOLB   C3A30055  16.476   9.158  10.652 -0.0770 -0.0158 -0.0190
 1253BOLB   C4A30056  16.560   9.176  10.248 -0.1852  0.3398 -0.2024
 1253BOLB   C1B30057  15.935   9.815  11.204 -0.1189  0.1528 -0.0747
 1253BOLB   C2B30058  16.048   9.825  10.721  0.0407 -0.1041 -0.0798
 1253BOLB   C3B30059  16.142   9.965  10.343  0.3926  0.2359  0.0827
 1253BOLB   C4B30060  16.059  10.324  10.011  0.0331  0.1489  0.0289
 1253BOLB   NC230061  16.776   7.121   8.801  0.0322  0.1033  0.2516
 1253BOLB   PO230062  16.800   7.396   9.229 -0.1228  0.1132  0.0806
 1253BOLB   GL330063  17.035   7.533   9.514  0.1020  0.0611  0.4106
 1253BOLB   GL430064  17.009   7.458   9.844  0.1563 -0.2069  0.0430
 1253BOLB   C1C30065  17.050   7.921   9.607  0.1947  0.1241 -0.0669
 1253BOLB   C2C30066  16.854   8.270   9.468  0.2675  0.1439 -0.2968
 1253BOLB   C3C30067  16.635   8.734   9.519  0.0227 -0.1161 -0.1147
 1253BOLB   C4C30068  16.674   8.942   9.874 -0.0264  0.1196 -0.1062
 1253BOLB   C1D30069  17.085   7.781  10.176 -0.0079 -0.1427 -0.3653
 1253BOLB   C2D30070  17.006   7.786  10.594 -0.1339  0.0640  0.1036
 1253BOLB   C3D30071  16.777   7.750  10.906 -0.0637 -0.0113  0.1280
 1253BOLB   C4D30072  16.585   7.503  11.179 -0.1073  0.0056  0.0357
 1254BOLB   NC130073  18.264  22.700  12.274 -0.2082 -0.4594  0.1359
 1254BOLB   PO130074  18.151  22.306  12.322 -0.4695  0.0902 -0.0454
 1254BOLB   GL130075  18.318  22.381  11.918 -0.1336 -0.1351  0.3999
 1254BOLB   GL230076  18.637  22.184  11.834 -0.1156  0.0740  0.1443
 1254BOLB   C1A30077  18.425  22.551  11.507 -0.1443 -0.0380  0.2735
 1254BOLB   C2A30078  18.555  22.550  11.149  0.0050 -0.2013  0.1993
 1254BOLB   C3A30079  18.685  22.413  10.736 -0.2205 -0.3311 -0.2230
 1254BOLB   C4A30080  19.067  22.400  10.379 -0.1057  0.1036 -0.1892
 1254BOLB   C1B30081  18.682  22.092  11.408 -0.0970  0.2710  0.2653
 1254BOLB   C2B30082  18.937  22.006  11.025 -0.1352  0.1237  0.0901
 1254BOLB   C3B30083  19.089  21.968  10.625 -0.2413  0.1918 -0.4702
 1254BOLB   C4B30084  19.273  21.941  10.253  0.5493  0.3155  0.0692
 1254BOLB   NC230085  19.549  23.415   8.595 -0.3934 -0.1892 -0.0018
 1254BOLB   PO230086  19.760  23.098   8.358  0.1075 -0.2641  0.6235
 1254BOLB   GL330087  19.883  22.899   8.762  0.2281  0.0126  0.1404
 1254BOLB   GL430088  19.783  23.083   8.932  0.0239 -0.0270  0.1337
 1254BOLB   C1C30089  19.597  22.649   8.972  0.2484 -0.0122  0.1157
 1254BOLB   C2C30090  19.468  22.677   9.493 -0.2045 -0.3850 -0.0072
 1254BOLB   C3C30091  19.424  22.560   9.769 -0.0314 -0.3238  0.1729
 1254BOLB   C4C30092  19.156  22.282   9.934 -0.1009 -0.0023 -0.5007
 1254BOLB   C1D30093  19.939  22.976   9.370 -0.5397  0.2933  0.1572
 1254BOLB   C2D30094  19.954  23.214   9.810 -0.0895 -0.0948 -0.0504
 1254BOLB   C3D30095  20.052  23.430  10.114 -0.2190  0.1844 -0.2145
 1254BOLB   C4D30096  20.329  23.737  10.171 -0.3836 -0.0625 -0.1598
 1255BOLB   NC130097  19.664  18.943  12.335 -0.1815  0.0264 -0.1164
 1255BOLB   PO130098  19.465  19.076  11.998 -0.2004 -0.0067 -0.0058
 1255BOLB   GL130099  19.703  19.220  11.576  0.1416 -0.0903  0.1244
 1255BOLB   GL230100  19.903  19.412  11.680 -0.0670 -0.2174  0.2694
 1255BOLB   C1A30101  19.834  19.365  11.192  0.1100  0.3741 -0.2094
 1255BOLB   C2A30102  19.964  19.555  10.744 -0.0520  0.0261 -0.1946
 1255BOLB   C3A30103  20.148  19.345  10.493 -0.0567 -0.0051 -0.2359
 1255BOLB   C4A30104  20.293  19.544  10.077  0.1674  0.1994  0.1284
 1255BOLB   C1B30105  20.266  19.460  11.475 -0.0302  0.3393 -0.4380
 1255BOLB   C2B30106  20.390  19.538  11.115  0.2647  0.2391 -0.0018
 1255BOLB   C3B30107  20.426  19.727  10.846 -0.3955 -0.0750  0.2366
 1255BOLB   C4B30108  20.500  19.898  10.517 -0.1746  0.0153  0.4163
 1255BOLB   NC230109  21.082  20.397   7.995 -0.0312 -0.0750  0.1243
 1255BOLB   PO230110  21.333  20.282   8.239 -0.0270 -0.1304 -0.1243
 1255BOLB   GL330111  21.025  20.006   8.439  0.0145 -0.5408 -0.0962
 1255BOLB   GL430112  20.718  20.213   8.321 -0.2016  0.1369  0.2164
 1255BOLB   C1C30113  20.659  19.773   8.519 -0.2778  0.0973 -0.2141
 1255BOLB   C2C30114  20.357  19.764   8.924  0.2692  0.1995  0.0291
 1255BOLB   C3C30115  20.207  19.592   9.288  0.3734  0.1122 -0.1989
 1255BOLB   C4C30116  20.353  19.433   9.684  0.1711  0.1119  0.2077
 1255BOLB   C1D30117  20.662  20.276   8.869  0.1281 -0.1354  0.1553
 1255BOLB   C2D30118  20.554  20.603   9.031 -0.0144  0.0523  0.1469
 1255BOLB   C3D30119  20.258  20.776   9.272  0.0062  0.0287 -0.0498
 1255BOLB   C4D30120  20.175  20.883   9.620  0.2580 -0.1705 -0.1103
 1256BOLB   NC130121  21.549  22.344  14.452 -0.0168  0.0067  0.1679
 1256BOLB   PO130122  21.442  22.162  14.061  0.0407  0.0794 -0.1142
 1256BOLB   GL130123  21.812  22.073  13.894 -0.1363  0.0476  0.1362
 1256BOLB   GL230124  21.806  21.894  13.672 -0.0307  0.0145 -0.1069
 1256BOLB   C1A30125  22.194  22.133  13.798 -0.0705  0.0751  0.2775
 1256BOLB   C2A30126  22.744  22.127  13.800 -0.3559 -0.0425 -0.2522
 1256BOLB   C3A30127  23.192  22.093  13.768  0.0011  0.3402 -0.2539
 1256BOLB   C4A30128  23.636  21.988  13.655 -0.3547 -0.0309 -0.0453
 1256BOLB   C1B30129  21.821  21.995  13.246  0.0912 -0.3478 -0.0673
 1256BOLB   C2B30130  21.981  21.845  12.904  0.1901  0.0625  0.2077
 1256BOLB   C3B30131  22.221  21.830  12.566  0.4666 -0.1669 -0.2649
 1256BOLB   C4B30132  22.628  22.019  12.275  0.2543 -0.2977  0.2970
 1256BOLB   NC230133  25.368  22.409  12.130  0.1772 -0.0958 -0.1653
 1256BOLB   PO230134  25.679  22.021  12.110 -0.0897  0.0419 -0.0399
 1256BOLB   GL330135  25.476  21.992  12.445  0.2186  0.1311 -0.0562
 1256BOLB   GL430136  25.644  22.109  12.662  0.2478 -0.0248  0.1416
 1256BOLB   C1C30137  25.192  21.861  12.677  0.0929 -0.0096  0.0591
 1256BOLB   C2C30138  24.915  21.980  12.998  0.0499  0.1323  0.1671
 1256BOLB   C3C30139  24.469  21.894  13.168 -0.0625 -0.1663  0.2281
 1256BOLB   C4C30140  24.057  21.967  13.443  0.2785 -0.2311  0.2567
 1256BOLB   C1D30141  25.410  22.151  13.078 -0.0174 -0.0040 -0.1566
 1256BOLB   C2D30142  25.224  21.950  13.424  0.1040  0.1185  0.2877
 1256BOLB   C3D30143  24.829  21.989  13.527  0.2539  0.0301  0.3346
 1256BOLB   C4D30144  24.483  21.882  13.736 -0.0406 -0.6313 -0.2630
 1257BOLB   NC130145  22.336  12.129  13.927  0.1417 -0.0253  0.0204
 1257BOLB   PO130146  22.186  12.151  13.549  0.2735  0.2687  0.2169
 1257BOLB   GL130147  22.292  12.081  13.197 -0.2611 -0.0055 -0.2113
 1257BOLB   GL230148  22.111  12.237  13.005 -0.0460  0.1847  0.0448
 1257BOLB   C1A30149  22.577  12.201  12.936 -0.1582 -0.0829  0.0136
 1257BOLB   C2A30150  22.690  12.239  12.587 -0.1478 -0.0271 -0.0267
 1257BOLB   C3A30151  23.061  12.172  12.365 -0.1140  0.2062 -0.1577
 1257BOLB   C4A30152  23.394  12.119  12.090  0.1042  0.0991  0.0823
 1257BOLB   C1B30153  22.150  12.118  12.582  0.0949  0.1248 -0.0872
 1257BOLB   C2B30154  22.342  11.952  12.215 -0.2827 -0.0970 -0.2198
 1257BOLB   C3B30155  22.490  11.873  11.799  0.0077 -0.0595  0.2860
 1257BOLB   C4B30156  22.423  11.685  11.398 -0.4527  0.0788  0.5000
 1257BOLB   NC230157  24.826  12.065  10.152  0.3575 -0.1492  0.1468
 1257BOLB   PO230158  24.422  11.910   9.999  0.0072  0.2176  0.1428
 1257BOLB   GL330159  24.392  11.584  10.303  0.2848  0.2338  0.2384
 1257BOLB   GL430160  24.278  11.307  10.194 -0.0425  0.1375  0.2017
 1257BOLB   C1C30161  24.202  11.508  10.683 -0.1981 -0.1457 -0.0352
 1257BOLB   C2C30162  23.948  11.558  11.033  0.1548 -0.0419  0.1012
 1257BOLB   C3C30163  23.704  11.542  11.445 -0.1358 -0.0429  0.1165
 1257BOLB   C4C30164  23.626  11.864  11.853  0.1863  0.2794  0.0761
 1257BOLB   C1D30165  24.046  11.090  10.529 -0.0014  0.1208  0.1798
 1257BOLB   C2D30166  23.842  10.995  10.801 -0.1358  0.2183 -0.0856
 1257BOLB   C3D30167  23.714  10.948  11.225  0.1205 -0.1103 -0.2402
 1257BOLB   C4D30168  23.976  11.168  11.521  0.1244 -0.0197 -0.1077
 1258BOLB   NC130169  15.107   9.223  12.609  0.1079 -0.2082 -0.0716
 1258BOLB   PO130170  14.862   9.601  12.385  0.1134  0.0541 -0.0906
 1258BOLB   GL130171  14.824   9.567  11.926  0.2364 -0.1938  0.1592
 1258BOLB   GL230172  14.679   9.253  11.777 -0.1805  0.2527  0.0164
 1258BOLB   C1A30173  15.144   9.529  11.746  0.0931 -0.0119 -0.2779
 1258BOLB   C2A30174  15.211   9.281  11.348 -0.2755 -0.1715  0.1813
 1258BOLB   C3A30175  15.470   9.313  11.041  0.1089 -0.1113 -0.1014
 1258BOLB   C4A30176  15.536   9.188  10.677  0.0346 -0.2081 -0.2920
 1258BOLB   C1B30177  14.349   9.172  11.469  0.1705  0.3398 -0.1331
 1258BOLB   C2B30178  14.328   8.960  11.062 -0.2280  0.2197  0.2389
 1258BOLB   C3B30179  14.245   8.820  10.598  0.1164  0.1045  0.1075
 1258BOLB   C4B30180  14.031   9.014  10.206  0.1757 -0.0919  0.1175
 1258BOLB   NC230181  16.097   8.990   8.194 -0.0426 -0.0958  0.0240
 1258BOLB   PO230182  16.444   8.930   8.408  0.0090  0.3298 -0.0887
 1258BOLB   GL330183  16.100   9.022   8.708  0.2021 -0.0428  0.0069
 1258BOLB   GL430184  15.708   8.889   8.475  0.4084  0.0060  0.2050
 1258BOLB   C1C30185  15.814   8.996   9.105  0.0916 -0.0630  0.1341
 1258BOLB   C2C30186  15.817   9.238   9.541 -0.3115 -0.0062  0.1045
 1258BOLB   C3C30187  15.706   9.303   9.938 -0.2229  0.0642 -0.2415
 1258BOLB   C4C30188  15.566   9.102  10.331  0.1697  0.1259 -0.3075
 1258BOLB   C1D30189  15.420   8.949   8.793 -0.1434 -0.0456  0.0470
 1258BOLB   C2D30190  15.309   8.829   9.169 -0.0830  0.3954 -0.0500
 1258BOLB   C3D30191  15.313   9.013   9.563  0.1064 -0.0137 -0.1143
 1258BOLB   C4D30192  15.238   8.873   9.987 -0.1075  0.1525  0.1784
 1259BOLB   NC130193  21.209  13.893  12.549 -0.1360  0.0283 -0.0346
 1259BOLB   PO130194  20.948  14.164  12.389  0.0938  0.1529 -0.0984
 1259BOLB   GL130195  21.197  13.952  12.070  0.1107 -0.0043  0.4094
 1259BOLB   GL230196  21.330  14.095  11.894  0.1996 -0.2328  0.1639
 1259BOLB   C1A30197  21.686  13.816  11.944 -0.0699  0.2686  0.2343
 1259BOLB   C2A30198  21.821  13.780  11.473 -0.1568 -0.0141  0.0118
 1259BOLB   C3A30199  21.711  13.712  11.121 -0.1867  0.1628  0.0903
 1259BOLB   C4A30200  21.723  13.453  10.825  0.1371 -0.3896 -0.0509
 1259BOLB   C1B30201  21.459  14.204  11.501  0.5377  0.1664 -0.1359
 1259BOLB   C2B30202  21.653  14.170  11.137  0.1283  0.2002  0.1631
 1259BOLB   C3B30203  21.843  14.008  10.653  0.1358  0.3055 -0.1687
 1259BOLB   C4B30204  21.997  13.704  10.447  0.2892 -0.2146 -0.0345
 1259BOLB   NC230205  22.874  11.597   9.461  0.0904  0.1848  0.0892
 1259BOLB   PO230206  23.007  12.030   9.270  0.1490  0.1037 -0.1535
 1259BOLB   GL330207  22.822  12.047   9.713 -0.2885  0.1381  0.0562
 1259BOLB   GL430208  22.514  11.800   9.786  0.0988 -0.1341  0.0756
 1259BOLB   C1C30209  22.653  12.390  10.015  0.1191  0.3868 -0.1508
 1259BOLB   C2C30210  22.415  12.685  10.306  0.2622 -0.2864  0.1006
 1259BOLB   C3C30211  22.208  12.973  10.217  0.2114  0.0851  0.2416
 1259BOLB   C4C30212  21.937  13.229  10.506 -0.0406  0.2502 -0.0615
 1259BOLB   C1D30213  22.271  12.014  10.023  0.2883 -0.0376 -0.1315
 1259BOLB   C2D30214  22.094  12.453   9.977  0.4029  0.5123 -0.1931
 1259BOLB   C3D30215  21.677  12.763  10.030 -0.0526  0.1298 -0.0792
 1259BOLB   C4D30216  21.532  12.959  10.442 -0.3219 -0.1726  0.1447
 1260BOLB   NC130217  10.955  22.109  12.840  0.3021  0.1595  0.3112
 1260BOLB   PO130218  10.960  22.122  12.334  0.0104 -0.0367  0.1329
 1260BOLB   GL130219  10.670  22.324  12.073 -0.1854  0.1282  0.1605
 1260BOLB   GL230220  10.335  22.361  12.162 -0.0479 -0.1910 -0.2804
 1260BOLB   C1A30221  10.721  22.386  11.576 -0.2110 -0.0580 -0.4241
 1260BOLB   C2A30222  10.855  22.654  11.161  0.2714  0.2530  0.1842
 1260BOLB   C3A30223  10.768  22.525  10.764 -0.1925 -0.2293  0.3957
 1260BOLB   C4A30224  10.642  22.420  10.372 -0.1399 -0.2807  0.0703
 1260BOLB   C1B30225  10.266  22.633  11.734  0.1193 -0.2854 -0.1448
 1260BOLB   C2B30226  10.472  22.830  11.486  0.0977  0.3475 -0.2841
 1260BOLB   C3B30227  10.342  23.002  11.129 -0.3332 -0.3664 -0.0235
 1260BOLB   C4B30228  10.424  22.842  10.753  0.4458 -0.0541  0.0692
 1260BOLB   NC230229  10.873  23.141   8.325  0.0181  0.0313  0.2686
 1260BOLB   PO230230  11.125  23.594   8.445 -0.2516 -0.2633  0.1949
 1260BOLB   GL330231  11.179  23.253   8.730  0.0854 -0.1168 -0.1599
 1260BOLB   GL430232  11.285  23.435   8.946  0.1052 -0.6539 -0.1119
 1260BOLB   C1C30233  11.167  22.888   9.012  0.2401 -0.0368  0.1752
 1260BOLB   C2C30234  10.932  22.794   9.368  0.0380  0.0966 -0.0500
 1260BOLB   C3C30235  10.702  22.619   9.646 -0.2306  0.1500 -0.2854
 1260BOLB   C4C30236  10.744  22.499  10.044  0.4336 -0.1657  0.2935
 1260BOLB   C1D30237  11.366  23.529   9.337 -0.0956 -0.4518  0.3042
 1260BOLB   C2D30238  11.532  23.157   9.698  0.1519 -0.1164 -0.2796
 1260BOLB   C3D30239  11.544  23.147  10.159 -0.0598  0.1422 -0.0592
 1260BOLB   C4D30240  11.446  22.928  10.484 -0.0765 -0.2664 -0.0049
 1261BOLB   NC130241  14.423  22.481  12.376  0.1592  0.2317  0.1965
 1261BOLB   PO130242  14.752  22.818  12.232 -0.0451  0.0681  0.0341
 1261BOLB   GL130243  14.940  22.994  11.895 -0.1998 -0.4559 -0.0265
 1261BOLB   GL230244  15.157  22.829  11.744 -0.3029 -0.1262  0.2858
 1261BOLB   C1A30245  15.149  23.336  11.718 -0.0101 -0.3434  0.0054
 1261BOLB   C2A30246  15.381  23.238  11.449  0.1354 -0.0078  0.1181
 1261BOLB   C3A30247  15.313  23.310  11.096 -0.1240  0.2786 -0.2228
 1261BOLB   C4A30248  15.027  23.105  10.793 -0.0693 -0.0239 -0.0746
 1261BOLB   C1B30249  14.970  22.959  11.403 -0.0555 -0.1913 -0.0190
 1261BOLB   C2B30250  14.810  23.317  11.301 -0.0934  0.2417  0.0877
 1261BOLB   C3B30251  14.956  23.586  10.922  0.2744  0.1237 -0.1582
 1261BOLB   C4B30252  14.990  23.763  10.509 -0.0306  0.3079  0.1269
 1261BOLB   NC230253  14.405  23.703   7.948 -0.2039 -0.2332  0.2427
 1261BOLB   PO230254  14.338  23.935   8.319  0.3715  0.5169  0.2010
 1261BOLB   GL330255  14.391  23.937   8.760 -0.1283 -0.2807  0.1349
 1261BOLB   GL430256  14.199  23.822   8.921  0.0876 -0.1431 -0.2262
 1261BOLB   C1C30257  14.641  23.687   9.162 -0.1386 -0.1047 -0.1451
 1261BOLB   C2C30258  14.600  23.641   9.687 -0.3424 -0.1225  0.1499
 1261BOLB   C3C30259  14.872  23.472  10.021 -0.1787 -0.1373 -0.0228
 1261BOLB   C4C30260  14.909  23.219  10.414  0.0580 -0.2287  0.3147
 1261BOLB   C1D30261  13.908  23.444   9.068 -0.0105  0.1696 -0.1194
 1261BOLB   C2D30262  13.649  23.273   9.490 -0.1270  0.0288 -0.1690
 1261BOLB   C3D30263  13.402  23.465   9.890  0.1693 -0.0482 -0.1226
 1261BOLB   C4D30264  13.405  23.367  10.381 -0.0339 -0.2837 -0.0664
 1262BOLB   NC130265  19.549  21.934  13.422  0.1891  0.0102 -0.0243
 1262BOLB   PO130266  19.294  21.696  13.036 -0.1043  0.1534 -0.1036
 1262BOLB   GL130267  19.657  21.973  12.789  0.1090  0.4258 -0.1255
 1262BOLB   GL230268  19.835  21.621  12.552  0.0802  0.0063 -0.1333
 1262BOLB   C1A30269  19.801  22.243  12.424  0.2352 -0.2173 -0.0328
 1262BOLB   C2A30270  19.937  22.323  11.968  0.2816  0.2196 -0.0599
 1262BOLB   C3A30271  20.263  22.436  11.737  0.1575  0.2659  0.0609
 1262BOLB   C4A30272  20.535  22.582  11.386 -0.0123 -0.2865  0.2137
 1262BOLB   C1B30273  20.026  21.846  12.234 -0.4763  0.1307 -0.3208
 1262BOLB   C2B30274  20.337  21.978  11.882 -0.1689  0.2417  0.1949
 1262BOLB   C3B30275  20.667  22.155  11.618 -0.0470 -0.0700  0.1013
 1262BOLB   C4B30276  21.068  22.242  11.586 -0.0288  0.5480  0.0768
 1262BOLB   NC230277  21.226  23.703   9.575 -0.0732  0.2664 -0.0346
 1262BOLB   PO230278  21.629  23.561   9.811  0.0012 -0.0649 -0.0444
 1262BOLB   GL330279  21.543  23.348  10.148  0.0328  0.1613 -0.3422
 1262BOLB   GL430280  21.443  23.046  10.124  0.4381  0.1546 -0.2259
 1262BOLB   C1C30281  21.586  23.300  10.609 -0.0926  0.0547 -0.0785
 1262BOLB   C2C30282  21.300  23.289  10.870 -0.1503  0.0994 -0.5310
 1262BOLB   C3C30283  21.109  22.939  11.186 -0.0524 -0.1984  0.1347
 1262BOLB   C4C30284  20.944  22.651  11.194 -0.3395 -0.2429  0.2908
 1262BOLB   C1D30285  21.269  22.925  10.539 -0.1716 -0.1241 -0.0068
 1262BOLB   C2D30286  20.856  23.010  10.710  0.0263 -0.4416  0.1939
 1262BOLB   C3D30287  20.437  23.072  10.679 -0.0303  0.0809  0.0693
 1262BOLB   C4D30288  20.227  23.373  10.556 -0.5556  0.1429  0.1764
 1263BOLB   NC130289  11.394  20.299  11.768 -0.1544  0.0247  0.1540
 1263BOLB   PO130290  10.964  20.353  11.993  0.2679 -0.0097 -0.2035
 1263BOLB   GL130291  10.944  20.411  11.541  0.0470  0.2758  0.0988
 1263BOLB   GL230292  11.205  20.321  11.304  0.1432  0.0651  0.1384
 1263BOLB   C1A30293  10.827  20.689  11.139 -0.1369  0.1327 -0.2969
 1263BOLB   C2A30294  10.880  20.640  10.705  0.1069  0.1560  0.1303
 1263BOLB   C3A30295  10.905  20.627  10.226 -0.1127  0.2728 -0.2393
 1263BOLB   C4A30296  10.947  20.775   9.842 -0.2245 -0.0962 -0.1320
 1263BOLB   C1B30297  11.674  20.567  11.172  0.0721 -0.2969 -0.3536
 1263BOLB   C2B30298  11.819  20.540  10.853  0.1332  0.3163  0.2804
 1263BOLB   C3B30299  11.893  20.743  10.546 -0.2466 -0.2379 -0.2074
 1263BOLB   C4B30300  11.903  20.841  10.185  0.0434  0.4397  0.2478
 1263BOLB   NC230301   9.777  21.241   7.334  0.2842 -0.0886 -0.0155
 1263BOLB   PO230302   9.769  21.204   7.742  0.0162  0.0960  0.2020
 1263BOLB   GL330303   9.902  21.244   8.159  0.3093 -0.1157  0.1396
 1263BOLB   GL430304   9.812  20.958   8.424  0.0732 -0.2159  0.0214
 1263BOLB   C1C30305  10.069  21.409   8.474  0.0287 -0.2319  0.0791
 1263BOLB   C2C30306  10.203  21.278   8.907  0.1218 -0.0221 -0.0649
 1263BOLB   C3C30307  10.448  21.090   9.303 -0.1545 -0.0498  0.1439
 1263BOLB   C4C30308  10.737  20.830   9.500  0.1005 -0.1528 -0.0483
 1263BOLB   C1D30309  10.046  20.884   8.739 -0.0925  0.0346  0.0365
 1263BOLB   C2D30310  10.172  20.686   9.056  0.5105  0.2244 -0.2172
 1263BOLB   C3D30311  10.261  20.609   9.527 -0.1754 -0.3935  0.0788
 1263BOLB   C4D30312  10.344  20.798   9.876 -0.3751  0.0321 -0.2245
 1264BOLB   NC130313  22.145  21.036  14.693  0.2826  0.2529  0.0587
 1264BOLB   PO130314  22.141  21.452  14.583 -0.3870  0.0229 -0.1674
 1264BOLB   GL130315  22.554  21.618  14.787 -0.4175  0.0866  0.0545
 1264BOLB   GL230316  22.558  21.285  14.759 -0.2174 -0.1113 -0.1210
 1264BOLB   C1A30317  22.897  21.908  14.776  0.2767 -0.0667 -0.1397
 1264BOLB   C2A30318  23.205  22.189  14.570 -0.0586 -0.1951  0.3163
 1264BOLB   C3A30319  23.469  22.434  14.533  0.3180  0.0684 -0.1187
 1264BOLB   C4A30320  23.909  22.446  14.463 -0.1581 -0.2165 -0.2341
 1264BOLB   C1B30321  22.954  21.312  14.806 -0.2008  0.2266  0.1305
 1264BOLB   C2B30322  23.272  21.581  14.648  0.0706 -0.0332 -0.2999
 1264BOLB   C3B30323  23.698  21.596  14.494 -0.0210 -0.0536 -0.2827
 1264BOLB   C4B30324  24.130  21.421  14.286 -0.2938  0.2657 -0.1677
 1264BOLB   NC230325  25.599  23.753  14.724 -0.1615  0.0775 -0.2561
 1264BOLB   PO230326  25.715  23.878  14.269  0.0910 -0.0426 -0.0026
 1264BOLB   GL330327  25.375  23.480  14.411 -0.1219 -0.1548 -0.3563
 1264BOLB   GL430328  25.370  23.151  14.241 -0.0752 -0.0524  0.2127
 1264BOLB   C1C30329  25.021  23.156  14.545  0.0056  0.1209 -0.0007
 1264BOLB   C2C30330  24.800  22.870  14.566  0.0444  0.1542 -0.1030
 1264BOLB   C3C30331  24.578  22.505  14.742  0.2719 -0.1677  0.0879
 1264BOLB   C4C30332  24.297  22.336  14.646 -0.3271 -0.0115 -0.0327
 1264BOLB   C1D30333  25.202  22.723  14.341  0.1951  0.1179  0.2786
 1264BOLB   C2D30334  24.900  22.406  14.319 -0.0775  0.0656 -0.3709
 1264BOLB   C3D30335  24.583  22.236  14.096  0.2084  0.0745  0.2197
 1264BOLB   C4D30336  24.288  22.297  13.861  0.0283  0.1266  0.1372
 1265BOLB   NC130337  19.922  19.367  12.157 -0.1380 -0.2343 -0.2406
 1265BOLB   PO130338  19.889  19.852  11.910  0.0449  0.0437  0.1267
 1265BOLB   GL130339  20.127  20.021  11.614 -0.0039 -0.1348  0.3203
 1265BOLB   GL230340  19.954  19.882  11.350  0.2885  0.1907 -0.4644
 1265BOLB   C1A30341  20.457  19.996  11.352  0.4030  0.1198 -0.1961
 1265BOLB   C2A30342  20.777  20.155  11.036 -0.3236 -0.5999  0.1865
 1265BOLB   C3A30343  20.859  20.485  10.803 -0.0280  0.1401  0.1561
 1265BOLB   C4A30344  21.109  20.646  10.438  0.3173  0.0114  0.1913
 1265BOLB   C1B30345  20.015  19.982  11.005  0.2182 -0.1324  0.1217
 1265BOLB   C2B30346  19.893  20.186  10.644 -0.0368  0.2133  0.1360
 1265BOLB   C3B30347  20.101  20.199  10.227 -0.0385 -0.1411 -0.0935
 1265BOLB   C4B30348  20.378  20.022   9.920  0.0998 -0.2475 -0.0647
 1265BOLB   NC230349  21.582  20.543   8.593 -0.0159  0.1397 -0.1425
 1265BOLB   PO230350  21.977  20.310   8.549 -0.0267 -0.1306 -0.2429
 1265BOLB   GL330351  21.867  20.245   8.944  0.0462 -0.1158 -0.1376
 1265BOLB   GL430352  21.518  20.334   9.053  0.0388  0.0657  0.0392
 1265BOLB   C1C30353  21.785  20.203   9.432 -0.0194 -0.1449 -0.3004
 1265BOLB   C2C30354  21.946  20.462   9.776  0.2333 -0.0988  0.2204
 1265BOLB   C3C30355  21.789  20.843  10.009  0.0382  0.0927 -0.1222
 1265BOLB   C4C30356  21.537  20.839  10.320  0.2545  0.0436 -0.1421
 1265BOLB   C1D30357  21.156  20.050   8.968  0.1956  0.1954 -0.0001
 1265BOLB   C2D30358  20.844  19.911   9.192 -0.0403 -0.2826  0.1729
 1265BOLB   C3D30359  20.722  19.702   9.606 -0.0181 -0.1173  0.0472
 1265BOLB   C4D30360  20.763  19.806  10.104  0.1852  0.0287  0.1285
 1266BOLB   NC130361  16.944  19.544  11.578 -0.1461  0.0217  0.1146
 1266BOLB   PO130362  16.822  19.806  11.292  0.0535  0.1947 -0.0594
 1266BOLB   GL130363  16.669  19.647  10.951 -0.2777 -0.1927  0.5116
 1266BOLB   GL230364  16.517  19.416  10.799 -0.1728  0.1540  0.0136
 1266BOLB   C1A30365  16.769  19.768  10.536 -0.0711 -0.0808  0.0384
 1266BOLB   C2A30366  16.978  19.785  10.197  0.1749  0.3909  0.1456
 1266BOLB   C3A30367  17.047  20.015   9.893 -0.1122 -0.1222  0.1153
 1266BOLB   C4A30368  17.075  20.296   9.484 -0.3360 -0.1583 -0.2546
 1266BOLB   C1B30369  16.427  19.447  10.295 -0.0964  0.1735  0.0165
 1266BOLB   C2B30370  16.652  19.464   9.927  0.5618 -0.0612 -0.1098
 1266BOLB   C3B30371  16.726  19.223   9.529 -0.1192 -0.0962 -0.1729
 1266BOLB   C4B30372  16.976  19.030   9.210  0.1241  0.1938  0.2058
 1266BOLB   NC230373  18.721  20.180   7.703 -0.0207  0.2196 -0.1490
 1266BOLB   PO230374  18.343  20.115   7.436 -0.0890 -0.1925 -0.2180
 1266BOLB   GL330375  18.044  20.274   7.693 -0.3939 -0.0064 -0.0011
 1266BOLB   GL430376  17.954  19.903   7.753 -0.1855 -0.1020 -0.2409
 1266BOLB   C1C30377  17.924  20.483   7.993 -0.1316 -0.0600 -0.0134
 1266BOLB   C2C30378  17.531  20.473   8.265  0.0077 -0.2012  0.0442
 1266BOLB   C3C30379  17.277  20.508   8.612 -0.0179  0.0597 -0.0176
 1266BOLB   C4C30380  17.242  20.309   8.998  0.1863 -0.1411 -0.1677
 1266BOLB   C1D30381  18.232  19.968   8.152  0.4194  0.0825 -0.2086
 1266BOLB   C2D30382  18.154  19.885   8.585 -0.2664  0.3351 -0.0353
 1266BOLB   C3D30383  18.327  19.800   8.997  0.2588 -0.0686  0.1240
 1266BOLB   C4D30384  18.113  19.780   9.314 -0.0475  0.0694 -0.0125
 1267BOLB   NC130385  17.639  23.068  12.339  0.3301 -0.0640 -0.1791
 1267BOLB   PO130386  17.674  23.579  12.262 -0.0632  0.0723 -0.1941
 1267BOLB   GL130387  17.797  23.918  12.147 -0.1517 -0.0333 -0.0478
 1267BOLB   GL230388  17.920  24.289  12.237 -0.1515 -0.2507 -0.1056
 1267BOLB   C1A30389  17.740  24.053  11.824 -0.1144 -0.1488 -0.1370
 1267BOLB   C2A30390  17.749  24.165  11.399 -0.1265  0.2200  0.0572
 1267BOLB   C3A30391  17.969  24.138  10.991  0.2124 -0.1484 -0.0250
 1267BOLB   C4A30392  18.310  24.430  10.815 -0.1669  0.1767 -0.0033
 1267BOLB   C1B30393  17.942  24.590  11.931 -0.0953  0.0903  0.0130
 1267BOLB   C2B30394  17.750  24.670  11.489 -0.2715  0.0475  0.0415
 1267BOLB   C3B30395  17.787  24.620  11.071  0.0919 -0.2561 -0.2103
 1267BOLB   C4B30396  17.728  24.747  10.626 -0.2643  0.1502 -0.2919
 1267BOLB   NC230397  19.291  24.265   8.851 -0.0554  0.4552 -0.1301
 1267BOLB   PO230398  19.434  24.701   8.777 -0.1156 -0.2935  0.3391
 1267BOLB   GL330399  19.224  24.574   9.203 -0.1044 -0.0209 -0.1888
 1267BOLB   GL430400  19.002  24.305   9.279 -0.1928  0.4419  0.0322
 1267BOLB   C1C30401  18.995  24.916   9.459 -0.4412 -0.0268 -0.3560
 1267BOLB   C2C30402  18.739  25.058   9.725  0.3088 -0.3119 -0.1900
 1267BOLB   C3C30403  18.637  24.974  10.190  0.4004 -0.0587 -0.2687
 1267BOLB   C4C30404  18.494  24.591  10.353  0.0370  0.1864 -0.4920
 1267BOLB   C1D30405  18.830  24.086   9.606  0.1689  0.1624 -0.0179
 1267BOLB   C2D30406  18.998  24.012  10.025  0.3297 -0.0732  0.0143
 1267BOLB   C3D30407  19.252  23.953  10.354 -0.2623  0.0474 -0.0091
 1267BOLB   C4D30408  19.479  23.949  10.713 -0.5183  0.1461  0.0279
 1268BOLB   NC130409  21.094  18.159  12.673  0.0583  0.1088  0.3910
 1268BOLB   PO130410  20.663  18.224  12.586  0.2320  0.0820 -0.1747
 1268BOLB   GL130411  20.884  18.074  12.134  0.2848 -0.1065 -0.0880
 1268BOLB   GL230412  21.107  18.462  12.046 -0.2933  0.0941 -0.0506
 1268BOLB   C1A30413  21.133  17.984  11.792  0.0675 -0.0906 -0.2390
 1268BOLB   C2A30414  21.366  18.066  11.453 -0.1969 -0.2855 -0.1290
 1268BOLB   C3A30415  21.488  18.051  11.129 -0.0278 -0.0159  0.0033
 1268BOLB   C4A30416  21.586  18.373  10.889  0.1656 -0.1371 -0.0507
 1268BOLB   C1B30417  21.321  18.468  11.726  0.0946 -0.2317 -0.0558
 1268BOLB   C2B30418  21.559  18.524  11.351 -0.0437  0.2389 -0.0361
 1268BOLB   C3B30419  21.938  18.634  11.106 -0.0359 -0.3655 -0.0038
 1268BOLB   C4B30420  22.076  18.436  10.681 -0.3517 -0.0386  0.1574
 1268BOLB   NC230421  21.708  19.039   8.451  0.0621  0.1308  0.1413
 1268BOLB   PO230422  21.198  19.023   8.533 -0.1687 -0.3077 -0.0328
 1268BOLB   GL330423  21.408  18.858   8.828 -0.0456 -0.0768  0.2152
 1268BOLB   GL430424  21.535  18.585   8.786  0.2639  0.2884 -0.3765
 1268BOLB   C1C30425  21.396  18.719   9.288  0.0323  0.0034 -0.1571
 1268BOLB   C2C30426  21.331  18.853   9.689  0.3152  0.1102 -0.0498
 1268BOLB   C3C30427  21.424  18.758  10.137 -0.0486  0.2043  0.2177
 1268BOLB   C4C30428  21.574  18.424  10.476  0.1879  0.2710 -0.1542
 1268BOLB   C1D30429  21.741  18.260   9.089 -0.2037 -0.2230  0.2274
 1268BOLB   C2D30430  21.996  18.026   9.361  0.2602  0.2038  0.0252
 1268BOLB   C3D30431  22.030  18.044   9.795 -0.0239 -0.0483 -0.1147
 1268BOLB   C4D30432  21.855  18.439  10.068  0.1311 -0.0678  0.1628
 1269BOLB   NC130433  19.838  11.271  12.759 -0.1473 -0.2216  0.4164
 1269BOLB   PO130434  19.813  10.848  12.991 -0.0787  0.1730 -0.0685
 1269BOLB   GL130435  19.929  10.814  12.575  0.0818  0.0693 -0.4598
 1269BOLB   GL230436  20.088  11.036  12.376  0.1531 -0.2910  0.1155
 1269BOLB   C1A30437  20.111  10.562  12.220 -0.0128  0.0556 -0.3093
 1269BOLB   C2A30438  20.247  10.495  11.843 -0.0784  0.0770 -0.0089
 1269BOLB   C3A30439  20.624  10.426  11.639  0.0904  0.2719  0.0933
 1269BOLB   C4A30440  21.018  10.395  11.462 -0.0800 -0.2814 -0.2437
 1269BOLB   C1B30441  20.190  10.958  11.889 -0.1678  0.3301 -0.3065
 1269BOLB   C2B30442  20.410  11.014  11.569 -0.3341  0.1910 -0.0947
 1269BOLB   C3B30443  20.662  10.890  11.259  0.0480  0.0077 -0.0172
 1269BOLB   C4B30444  21.097  10.736  11.054 -0.2143  0.3383 -0.1093
 1269BOLB   NC230445  22.344   8.373  10.112 -0.3455  0.1523  0.2672
 1269BOLB   PO230446  22.339   8.497  10.577  0.0613 -0.1757 -0.1157
 1269BOLB   GL330447  21.998   8.758  10.765 -0.2299  0.1175  0.0980
 1269BOLB   GL430448  21.842   8.926  10.590  0.0690  0.1078 -0.1091
 1269BOLB   C1C30449  22.083   9.107  10.986 -0.0082 -0.0187 -0.0840
 1269BOLB   C2C30450  21.915   9.390  11.286 -0.3531 -0.1498 -0.4331
 1269BOLB   C3C30451  21.588   9.692  11.391 -0.1272  0.3446 -0.0994
 1269BOLB   C4C30452  21.380  10.069  11.506  0.1885  0.0979  0.0243
 1269BOLB   C1D30453  21.387   9.185  10.531 -0.2812 -0.2103  0.2134
 1269BOLB   C2D30454  21.333   9.679  10.582 -0.0880  0.1036 -0.1703
 1269BOLB   C3D30455  21.378   9.883  10.977  0.2133  0.0313  0.0123
 1269BOLB   C4D30456  21.008   9.970  11.162  0.3070  0.2146  0.0886
 1270BOLB   NC130457  10.419  15.367  11.721  0.1642  0.2749 -0.1082
 1270BOLB   PO130458  10.736  14.976  11.628 -0.0300  0.0474 -0.1687
 1270BOLB   GL130459  10.577  14.905  11.260  0.1862  0.2294 -0.4192
 1270BOLB   GL230460  10.337  14.571  11.195  0.1441 -0.3609 -0.0180
 1270BOLB   C1A30461  10.302  15.123  10.997 -0.2048  0.2439  0.1951
 1270BOLB   C2A30462  10.185  15.190  10.575 -0.0574 -0.4288 -0.1827
 1270BOLB   C3A30463  10.210  15.158  10.152 -0.0550  0.0057 -0.0739
 1270BOLB   C4A30464   9.841  15.074   9.819  0.0615  0.0362  0.3244
 1270BOLB   C1B30465  10.157  14.713  10.809 -0.0589  0.3238  0.1055
 1270BOLB   C2B30466  10.065  14.723  10.379 -0.5651  0.0759  0.1962
 1270BOLB   C3B30467  10.122  14.674   9.918  0.1789 -0.3682 -0.1380
 1270BOLB   C4B30468  10.327  14.621   9.630 -0.2647  0.2571 -0.0736
 1270BOLB   NC230469  10.276  15.511   7.847  0.0932  0.1859 -0.1446
 1270BOLB   PO230470  10.210  15.150   7.547 -0.1944  0.0469  0.1325
 1270BOLB   GL330471  10.197  15.030   8.002  0.0671 -0.1837  0.0067
 1270BOLB   GL430472  10.457  14.801   8.017 -0.1592  0.1852  0.2059
 1270BOLB   C1C30473  10.175  14.906   8.495 -0.0384 -0.1289  0.1302
 1270BOLB   C2C30474  10.114  14.539   8.739  0.0552  0.0416 -0.2166
 1270BOLB   C3C30475   9.956  14.532   9.232 -0.2561 -0.1170 -0.1210
 1270BOLB   C4C30476   9.959  14.884   9.452  0.1401  0.0977 -0.1662
 1270BOLB   C1D30477  10.693  15.181   8.317 -0.0011 -0.0850 -0.0436
 1270BOLB   C2D30478  10.748  15.592   8.529 -0.1070 -0.0136 -0.2651
 1270BOLB   C3D30479  10.548  15.793   8.746 -0.1028 -0.0498 -0.1488
 1270BOLB   C4D30480  10.448  16.283   8.746 -0.0566  0.2852 -0.0593
 1271BOLB   NC130481  19.651   9.696  14.185 -0.0177 -0.1992 -0.1046
 1271BOLB   PO130482  19.716   9.444  14.448  0.0780  0.1813 -0.1220
 1271BOLB   GL130483  19.974   9.089  14.331  0.0307  0.0627  0.3358
 1271BOLB   GL230484  19.675   8.947  14.260 -0.3066 -0.0312  0.1395
 1271BOLB   C1A30485  20.343   9.102  13.984 -0.2125 -0.2231  0.3133
 1271BOLB   C2A30486  20.550   8.981  13.608  0.2210  0.0759  0.1035
 1271BOLB   C3A30487  20.592   8.561  13.364 -0.0674  0.2249  0.1919
 1271BOLB   C4A30488  20.515   8.130  13.192  0.0385 -0.1652 -0.0453
 1271BOLB   C1B30489  20.004   8.663  14.032  0.2279  0.1219 -0.0428
 1271BOLB   C2B30490  20.429   8.563  13.908 -0.1855  0.1682  0.1360
 1271BOLB   C3B30491  20.683   8.266  13.833  0.1050 -0.2683 -0.1678
 1271BOLB   C4B30492  20.873   8.083  13.598 -0.0589  0.0818 -0.3663
 1271BOLB   NC230493  21.802   6.763  12.194  0.0477 -0.4334 -0.1293
 1271BOLB   PO230494  21.545   6.662  11.828  0.0902 -0.2493  0.4587
 1271BOLB   GL330495  21.373   7.068  11.796  0.0483 -0.1606 -0.1095
 1271BOLB   GL430496  21.405   7.256  11.609  0.0685  0.3041  0.0870
 1271BOLB   C1C30497  21.343   7.325  12.121 -0.2808  0.2434 -0.0471
 1271BOLB   C2C30498  21.271   7.517  12.532  0.2161  0.0121 -0.3261
 1271BOLB   C3C30499  21.093   7.577  12.914  0.1847 -0.0715 -0.1343
 1271BOLB   C4C30500  20.819   7.903  13.078 -0.0964  0.0416 -0.3301
 1271BOLB   C1D30501  21.030   7.460  11.773  0.0210  0.1748  0.0484
 1271BOLB   C2D30502  20.890   7.712  12.082  0.2751  0.2404 -0.1844
 1271BOLB   C3D30503  20.727   7.802  12.576  0.0455  0.2175 -0.0974
 1271BOLB   C4D30504  20.373   7.691  12.937 -0.2447 -0.1148 -0.2831
 1272BOLB   NC130505  13.946  16.841  11.746 -0.0835  0.0082 -0.1598
 1272BOLB   PO130506  14.155  16.738  11.301  0.0303 -0.2038  0.0498
 1272BOLB   GL130507  13.804  16.620  11.013 -0.1256 -0.1612 -0.1745
 1272BOLB   GL230508  13.877  16.316  11.012  0.1766  0.2995 -0.0344
 1272BOLB   C1A30509  13.890  16.614  10.597 -0.0652  0.0692 -0.1064
 1272BOLB   C2A30510  13.766  16.556  10.153  0.0998  0.6612  0.0298
 1272BOLB   C3A30511  13.535  16.723   9.754 -0.2562  0.1539 -0.1842
 1272BOLB   C4A30512  13.458  16.599   9.353 -0.0858  0.1538 -0.1933
 1272BOLB   C1B30513  13.809  16.080  10.592 -0.0253 -0.5263 -0.1152
 1272BOLB   C2B30514  13.808  15.897  10.287  0.0888  0.2936  0.1356
 1272BOLB   C3B30515  13.863  15.965   9.930  0.2420 -0.0856  0.0632
 1272BOLB   C4B30516  13.740  16.186   9.433 -0.0279  0.0699 -0.3914
 1272BOLB   NC230517  14.222  16.918   7.243  0.2082  0.3463 -0.1331
 1272BOLB   PO230518  13.841  16.943   7.032 -0.3892 -0.2928 -0.2525
 1272BOLB   GL330519  13.711  16.950   7.458  0.1142 -0.1841 -0.1402
 1272BOLB   GL430520  13.683  17.184   7.705 -0.1074 -0.0377  0.0816
 1272BOLB   C1C30521  13.904  16.779   7.884  0.1394 -0.5665 -0.0178
 1272BOLB   C2C30522  13.721  16.611   8.243 -0.1116 -0.0941  0.1944
 1272BOLB   C3C30523  13.720  16.512   8.611 -0.1119  0.0049 -0.4755
 1272BOLB   C4C30524  13.629  16.431   9.012  0.2407 -0.0679  0.1251
 1272BOLB   C1D30525  13.578  17.113   8.134  0.0803 -0.0307  0.0163
 1272BOLB   C2D30526  13.726  17.014   8.564  0.0400 -0.2328  0.2081
 1272BOLB   C3D30527  13.677  16.932   9.029  0.1601 -0.0042  0.1099
 1272BOLB   C4D30528  13.918  16.795   9.355 -0.0013  0.2538 -0.0675
 1273BOLB   NC130529  19.692  17.177  11.734  0.2149 -0.0030  0.1264
 1273BOLB   PO130530  19.999  17.520  11.714 -0.0261  0.0058  0.0206
 1273BOLB   GL130531  20.245  17.597  11.435  0.0173 -0.0614  0.0481
 1273BOLB   GL230532  20.449  17.338  11.331 -0.3886  0.1825  0.1027
 1273BOLB   C1A30533  20.221  17.726  11.063 -0.0090 -0.0516  0.0621
 1273BOLB   C2A30534  20.490  17.746  10.689 -0.0739 -0.0849 -0.0703
 1273BOLB   C3A30535  20.666  17.867  10.306  0.0982  0.0149  0.1634
 1273BOLB   C4A30536  20.588  17.794   9.960 -0.0635 -0.1857 -0.1081
 1273BOLB   C1B30537  20.806  17.221  11.083  0.1448  0.1864 -0.1197
 1273BOLB   C2B30538  21.248  17.120  10.884  0.1262  0.0849 -0.1786
 1273BOLB   C3B30539  21.590  17.031  10.768 -0.0851 -0.0319  0.0769
 1273BOLB   C4B30540  21.773  17.172  10.397  0.1297  0.0566  0.2783
 1273BOLB   NC230541  20.538  16.977   7.059  0.2576 -0.1288  0.1094
 1273BOLB   PO230542  20.174  17.018   7.326 -0.2998 -0.2758 -0.0217
 1273BOLB   GL330543  20.281  17.036   7.911 -0.1920  0.1482 -0.1359
 1273BOLB   GL430544  20.229  17.358   7.825 -0.1786 -0.1580 -0.1476
 1273BOLB   C1C30545  20.301  16.971   8.450  0.2284  0.0290 -0.3224
 1273BOLB   C2C30546  20.359  17.219   8.840  0.1115  0.2368  0.2444
 1273BOLB   C3C30547  20.560  17.425   9.172 -0.1080  0.4253  0.2189
 1273BOLB   C4C30548  20.596  17.583   9.565  0.1497  0.0041 -0.0601
 1273BOLB   C1D30549  20.271  17.431   8.291  0.0270 -0.2802 -0.0947
 1273BOLB   C2D30550  19.955  17.333   8.586  0.0489 -0.3008  0.2889
 1273BOLB   C3D30551  19.981  17.455   9.022 -0.0507  0.4088 -0.1585
 1273BOLB   C4D30552  19.805  17.596   9.386 -0.1909 -0.1915  0.1088
 1274BOLB   NC130553  14.590  20.705  11.317  0.1437 -0.1868 -0.0080
 1274BOLB   PO130554  14.724  21.086  11.505  0.0493 -0.0229 -0.1447
 1274BOLB   GL130555  14.943  21.297  11.144  0.4069  0.1549 -0.0660
 1274BOLB   GL230556  15.229  21.463  11.098 -0.0851  0.2386 -0.1469
 1274BOLB   C1A30557  14.695  21.579  10.907  0.2415  0.0366 -0.0024
 1274BOLB   C2A30558  14.501  21.669  10.529  0.0285  0.5599 -0.2323
 1274BOLB   C3A30559  14.500  21.557  10.054  0.1556 -0.0008 -0.0895
 1274BOLB   C4A30560  14.608  21.601   9.638 -0.0950  0.0355  0.1797
 1274BOLB   C1B30561  15.151  21.349  10.642  0.1712 -0.1085 -0.2089
 1274BOLB   C2B30562  15.005  21.529  10.194 -0.0687 -0.0593  0.0163
 1274BOLB   C3B30563  15.022  21.827   9.951  0.0401  0.1363 -0.1203
 1274BOLB   C4B30564  15.181  22.060   9.581 -0.1295  0.2606  0.3222
 1274BOLB   NC230565  15.047  22.201   7.067 -0.1769  0.1550 -0.0032
 1274BOLB   PO230566  15.175  22.189   7.488 -0.0519  0.1396 -0.0970
 1274BOLB   GL330567  14.971  22.071   7.867  0.0406 -0.0840 -0.0009
 1274BOLB   GL430568  14.719  21.808   7.856  0.0468 -0.2489 -0.1055
 1274BOLB   C1C30569  14.961  22.163   8.292 -0.2698  0.2857 -0.1980
 1274BOLB   C2C30570  14.972  22.341   8.803  0.0512  0.1290  0.0464
 1274BOLB   C3C30571  14.806  22.160   9.179 -0.2268  0.1562  0.4377
 1274BOLB   C4C30572  14.632  21.845   9.306  0.2064 -0.0576 -0.3722
 1274BOLB   C1D30573  14.904  21.650   8.300 -0.2047 -0.1278 -0.0778
 1274BOLB   C2D30574  14.911  21.237   8.505  0.1326 -0.1852 -0.0548
 1274BOLB   C3D30575  14.751  20.716   8.720 -0.0715 -0.0786  0.2290
 1274BOLB   C4D30576  14.454  20.343   8.755 -0.0832 -0.2481  0.0063
 1275BOLB   NC130577  19.446  20.273  12.016 -0.3564 -0.2391 -0.0695
 1275BOLB   PO130578  19.677  20.709  12.195  0.1127 -0.1181  0.1133
 1275BOLB   GL130579  19.943  20.818  12.013 -0.3069  0.1099 -0.1328
 1275BOLB   GL230580  20.232  20.959  12.029 -0.3115 -0.2098  0.0985
 1275BOLB   C1A30581  20.165  20.579  11.603  0.2060  0.0034 -0.0286
 1275BOLB   C2A30582  20.411  20.654  11.320 -0.1733  0.0720  0.0534
 1275BOLB   C3A30583  20.443  20.761  10.790  0.3792  0.1347 -0.0229
 1275BOLB   C4A30584  20.619  20.918  10.420  0.0602  0.0960  0.1068
 1275BOLB   C1B30585  20.320  21.055  11.698  0.1272  0.3396 -0.3678
 1275BOLB   C2B30586  20.501  21.102  11.537  0.0309  0.3857 -0.1746
 1275BOLB   C3B30587  20.612  21.204  11.172  0.0716 -0.3013 -0.0781
 1275BOLB   C4B30588  20.910  21.017  10.876  0.0725  0.1508 -0.0577
 1275BOLB   NC230589  21.615  22.268   8.791  0.0411  0.2905 -0.0650
 1275BOLB   PO230590  21.830  21.919   9.022  0.0539 -0.0269  0.0259
 1275BOLB   GL330591  21.950  21.804   9.386  0.1008 -0.0603  0.0738
 1275BOLB   GL430592  22.088  21.925   9.592  0.1087  0.2264 -0.1666
 1275BOLB   C1C30593  21.598  21.619   9.682 -0.2273  0.1144  0.1266
 1275BOLB   C2C30594  21.188  21.501   9.669 -0.1562 -0.2653 -0.1297
 1275BOLB   C3C30595  20.808  21.347   9.680 -0.2005  0.2340 -0.1797
 1275BOLB   C4C30596  20.702  21.205  10.070  0.4375  0.4185 -0.2651
 1275BOLB   C1D30597  22.104  21.704  10.020 -0.2770 -0.4034 -0.3845
 1275BOLB   C2D30598  22.296  21.757  10.412  0.3812  0.1350 -0.1640
 1275BOLB   C3D30599  22.107  21.606  10.697  0.0455 -0.0929  0.2611
 1275BOLB   C4D30600  21.960  21.300  10.936 -0.1932  0.4062  0.2245
 1276BOLB   NC130601  20.265   9.489  14.493 -0.0103  0.0590 -0.1016
 1276BOLB   PO130602  20.210   9.900  14.289 -0.1097 -0.1773 -0.1708
 1276BOLB   GL130603  20.460   9.664  13.937 -0.1674 -0.0323 -0.0925
 1276BOLB   GL230604  20.744   9.836  13.902 -0.0644  0.1282 -0.0715
 1276BOLB   C1A30605  20.549   9.526  13.475 -0.2069  0.0472  0.0118
 1276BOLB   C2A30606  20.750   9.274  13.182 -0.2232 -0.1646  0.1436
 1276BOLB   C3A30607  20.910   8.890  12.977  0.0878 -0.1367 -0.0586
 1276BOLB   C4A30608  21.251   8.624  12.958  0.1568  0.1153 -0.0686
 1276BOLB   C1B30609  21.064   9.655  13.561  0.0022 -0.3882  0.2449
 1276BOLB   C2B30610  21.312   9.464  13.223 -0.1270 -0.0784  0.1023
 1276BOLB   C3B30611  21.578   9.162  13.043 -0.1164  0.0786  0.0923
 1276BOLB   C4B30612  21.616   8.846  12.650 -0.0202  0.3766  0.3198
 1276BOLB   NC230613  22.615   7.821  10.946  0.0576 -0.0802 -0.0218
 1276BOLB   PO230614  22.708   8.193  10.847 -0.0945 -0.1465 -0.5192
 1276BOLB   GL330615  22.317   8.226  11.115 -0.3002  0.0421 -0.0946
 1276BOLB   GL430616  22.332   8.635  11.127  0.2076 -0.0899  0.1554
 1276BOLB   C1C30617  22.197   8.290  11.596 -0.0240  0.0763  0.1621
 1276BOLB   C2C30618  22.015   8.381  11.997 -0.2222  0.0262  0.0025
 1276BOLB   C3C30619  21.679   8.550  12.206 -0.1060  0.0397 -0.0841
 1276BOLB   C4C30620  21.352   8.427  12.508  0.2115  0.0887  0.2569
 1276BOLB   C1D30621  22.529   9.023  11.176  0.3105  0.0867 -0.0256
 1276BOLB   C2D30622  22.405   9.445  11.065 -0.0346  0.1626  0.0045
 1276BOLB   C3D30623  22.011   9.828  11.072  0.1230 -0.2332 -0.1464
 1276BOLB   C4D30624  21.762  10.227  11.100  0.0836  0.1120 -0.0635
 1277BOLB   NC130625   8.294  17.795  12.564  0.0960  0.3541 -0.0687
 1277BOLB   PO130626   8.326  18.037  12.249 -0.2751 -0.1309 -0.2479
 1277BOLB   GL130627   8.028  18.139  11.831 -0.1416 -0.3332  0.1074
 1277BOLB   GL230628   8.091  18.434  11.676  0.0848  0.0280  0.2206
 1277BOLB   C1A30629   7.592  18.017  11.698  0.0659  0.1271 -0.0443
 1277BOLB   C2A30630   7.368  17.998  11.228 -0.0476 -0.1786  0.1301
 1277BOLB   C3A30631   7.321  18.002  10.889 -0.1702  0.2176 -0.2033
 1277BOLB   C4A30632   7.147  17.925  10.567  0.3389  0.1745  0.4136
 1277BOLB   C1B30633   7.993  18.127  11.278  0.1452 -0.0387  0.0618
 1277BOLB   C2B30634   7.828  17.962  10.875  0.2466  0.2186 -0.0482
 1277BOLB   C3B30635   7.580  17.697  10.540 -0.0153  0.0128 -0.1732
 1277BOLB   C4B30636   7.523  17.269  10.396  0.1211 -0.2186  0.1543
 1277BOLB   NC230637   6.300  16.661   8.906 -0.2361 -0.1384 -0.1349
 1277BOLB   PO230638   6.049  17.026   9.086  0.2815  0.1019  0.0172
 1277BOLB   GL330639   6.422  17.109   9.272  0.0997  0.0188  0.3249
 1277BOLB   GL430640   6.627  16.941   9.391  0.3161 -0.1827 -0.2934
 1277BOLB   C1C30641   6.768  17.381   9.308 -0.1502 -0.0853 -0.1590
 1277BOLB   C2C30642   7.082  17.506   9.396  0.1748 -0.0542 -0.2082
 1277BOLB   C3C30643   7.291  17.470   9.759  0.4996 -0.2004 -0.1794
 1277BOLB   C4C30644   7.153  17.563  10.197  0.1202 -0.3166 -0.2365
 1277BOLB   C1D30645   6.615  17.290   9.741  0.3534  0.0351 -0.1668
 1277BOLB   C2D30646   6.732  17.672   9.939  0.0355  0.0572  0.0946
 1277BOLB   C3D30647   6.724  18.103  10.321  0.1502 -0.1132  0.2527
 1277BOLB   C4D30648   6.797  18.523  10.286  0.0110 -0.2036 -0.0153
 1278BOLB   NC130649  18.944  10.570  12.759 -0.3588 -0.1549  0.1190
 1278BOLB   PO130650  18.992  10.179  13.119 -0.2910  0.2237  0.0476
 1278BOLB   GL130651  19.146   9.893  12.907  0.1332 -0.2547  0.2526
 1278BOLB   GL230652  19.237  10.140  12.533  0.2836 -0.0211 -0.1358
 1278BOLB   C1A30653  19.489   9.693  12.725  0.1705 -0.3628  0.3876
 1278BOLB   C2A30654  19.657   9.572  12.257  0.0046  0.2269  0.0846
 1278BOLB   C3A30655  19.831   9.723  11.930 -0.0470 -0.0590  0.1184
 1278BOLB   C4A30656  19.845   9.728  11.472 -0.0452 -0.3698 -0.0247
 1278BOLB   C1B30657  19.405   9.952  12.130  0.1985  0.1619  0.1012
 1278BOLB   C2B30658  19.393   9.856  11.710  0.0621  0.0263  0.0922
 1278BOLB   C3B30659  19.292   9.673  11.506  0.0547 -0.0018 -0.0799
 1278BOLB   C4B30660  19.055   9.724  11.105 -0.2882 -0.0041 -0.0199
 1278BOLB   NC230661  19.751   9.499   8.812  0.0085  0.1461  0.0371
 1278BOLB   PO230662  19.363   9.382   8.864  0.0466  0.1215  0.3426
 1278BOLB   GL330663  19.481   9.402   9.272  0.2627 -0.1245  0.1213
 1278BOLB   GL430664  19.547   9.614   9.377 -0.2768 -0.2972 -0.3863
 1278BOLB   C1C30665  19.648   9.332   9.745 -0.3070 -0.0848 -0.1115
 1278BOLB   C2C30666  19.795   9.287  10.185 -0.1415  0.3021  0.0162
 1278BOLB   C3C30667  19.881   9.476  10.604 -0.3215  0.0618 -0.1874
 1278BOLB   C4C30668  19.924   9.731  10.987  0.4393 -0.0977  0.2687
 1278BOLB   C1D30669  19.317   9.652   9.904  0.0119  0.1522 -0.2749
 1278BOLB   C2D30670  18.935   9.853  10.020  0.1923  0.3175  0.0446
 1278BOLB   C3D30671  18.882  10.107  10.325 -0.0394 -0.1399  0.0669
 1278BOLB   C4D30672  18.915  10.239  10.754 -0.0539 -0.0736 -0.3520
 1279BOLB   NC130673  12.396  14.708  11.080 -0.3495 -0.3778  0.2344
 1279BOLB   PO130674  12.156  14.616  11.431 -0.0247  0.1236  0.0669
 1279BOLB   GL130675  11.918  14.511  11.101 -0.0541 -0.0895 -0.2092
 1279BOLB   GL230676  11.610  14.428  11.309 -0.3470 -0.0137  0.2207
 1279BOLB   C1A30677  11.902  14.513  10.756 -0.3378  0.1482  0.2260
 1279BOLB   C2A30678  11.985  14.456  10.315  0.4498 -0.1291  0.1672
 1279BOLB   C3A30679  12.257  14.184   9.919 -0.2405  0.4731 -0.1501
 1279BOLB   C4A30680  12.349  14.364   9.572 -0.0114  0.1774  0.2819
 1279BOLB   C1B30681  11.430  14.425  10.918 -0.0139  0.1423 -0.2509
 1279BOLB   C2B30682  11.034  14.386  10.590  0.2757 -0.0702  0.2086
 1279BOLB   C3B30683  10.926  14.278  10.139  0.1553 -0.0945 -0.0743
 1279BOLB   C4B30684  10.792  14.163   9.634  0.0161  0.0307 -0.0883
 1279BOLB   NC230685  13.043  14.856   6.958  0.2170 -0.4737 -0.0769
 1279BOLB   PO230686  12.852  14.762   7.333  0.0212  0.2382  0.3495
 1279BOLB   GL330687  12.668  14.678   7.720 -0.3574 -0.1321 -0.1718
 1279BOLB   GL430688  12.846  14.642   8.031 -0.1314  0.4960 -0.1570
 1279BOLB   C1C30689  12.346  14.657   8.084 -0.1412  0.0442  0.3759
 1279BOLB   C2C30690  12.249  14.642   8.489  0.3735  0.3144  0.0396
 1279BOLB   C3C30691  12.108  14.577   8.898  0.1035 -0.2122 -0.0011
 1279BOLB   C4C30692  12.316  14.401   9.248 -0.0781  0.1670 -0.1695
 1279BOLB   C1D30693  12.749  14.549   8.392 -0.1634  0.2263 -0.1798
 1279BOLB   C2D30694  12.715  14.343   8.697 -0.0412 -0.0428  0.0288
 1279BOLB   C3D30695  12.698  13.933   8.977 -0.0777 -0.1698 -0.0010
 1279BOLB   C4D30696  12.573  13.857   9.385 -0.1884 -0.0839  0.1928
 1280BOLB   NC130697  17.374  13.738  12.313 -0.0830 -0.0666  0.0994
 1280BOLB   PO130698  17.297  13.566  11.906  0.0890 -0.0283 -0.0313
 1280BOLB   GL130699  17.241  13.600  11.428  0.0934 -0.0253  0.0266
 1280BOLB   GL230700  17.234  13.912  11.223  0.0035  0.2552  0.1193
 1280BOLB   C1A30701  17.257  13.520  10.895  0.0033  0.1023 -0.2009
 1280BOLB   C2A30702  17.297  13.324  10.496 -0.0332  0.2517  0.2179
 1280BOLB   C3A30703  17.471  13.474  10.124  0.4791 -0.0301 -0.4745
 1280BOLB   C4A30704  17.778  13.382   9.793  0.1709  0.0274 -0.3395
 1280BOLB   C1B30705  17.218  14.007  10.751 -0.1455  0.1809  0.3870
 1280BOLB   C2B30706  17.351  14.222  10.349  0.0601  0.0621  0.4012
 1280BOLB   C3B30707  17.400  14.398  10.037 -0.1456  0.0048 -0.0846
 1280BOLB   C4B30708  17.560  14.239   9.560 -0.0649 -0.3879 -0.1079
 1280BOLB   NC230709  17.694  12.718   7.577 -0.0293  0.1536  0.1288
 1280BOLB   PO230710  17.342  12.974   7.455 -0.0079 -0.0102 -0.1956
 1280BOLB   GL330711  17.212  13.097   7.831  0.6404 -0.0482  0.1110
 1280BOLB   GL430712  16.831  13.076   7.858  0.0705  0.0488 -0.0667
 1280BOLB   C1C30713  17.484  13.220   8.245 -0.4576 -0.1479 -0.2005
 1280BOLB   C2C30714  17.678  13.021   8.628  0.1544 -0.2028  0.0550
 1280BOLB   C3C30715  17.659  13.199   8.993  0.1535  0.0451 -0.0247
 1280BOLB   C4C30716  17.772  13.231   9.421 -0.0678  0.2162  0.0701
 1280BOLB   C1D30717  16.609  13.215   8.214  0.0372 -0.0158 -0.1788
 1280BOLB   C2D30718  16.510  13.555   8.303 -0.1246 -0.2990  0.1864
 1280BOLB   C3D30719  16.277  13.856   8.284 -0.1970 -0.0277  0.1616
 1280BOLB   C4D30720  16.248  14.045   7.925  0.0473  0.2533 -0.2964
 1281BOLB   NC130721  10.013  21.467  12.434 -0.2083 -0.1549 -0.1174
 1281BOLB   PO130722  10.280  21.423  12.249 -0.0981 -0.0080  0.0259
 1281BOLB   GL130723  10.451  21.648  11.908  0.1631 -0.2399  0.0886
 1281BOLB   GL230724  10.298  21.964  11.838  0.0664  0.2426  0.3563
 1281BOLB   C1A30725  10.344  21.624  11.477  0.3827  0.0403 -0.2895
 1281BOLB   C2A30726  10.284  21.844  11.036  0.0686  0.0797 -0.2917
 1281BOLB   C3A30727  10.467  21.856  10.624  0.0486 -0.0819  0.0506
 1281BOLB   C4A30728  10.553  22.010  10.181 -0.1290 -0.0187 -0.4043
 1281BOLB   C1B30729  10.247  22.170  11.432  0.0656 -0.2259 -0.1558
 1281BOLB   C2B30730  10.436  22.397  11.110  0.1186 -0.1098 -0.0473
 1281BOLB   C3B30731  10.312  22.322  10.699  0.1465  0.0781  0.2856
 1281BOLB   C4B30732   9.947  22.045  10.649 -0.0224 -0.1080  0.1008
 1281BOLB   NC230733  10.325  23.176   8.366  0.1714  0.0781 -0.2921
 1281BOLB   PO230734  10.306  22.804   8.118 -0.1338 -0.2202  0.1822
 1281BOLB   GL330735  10.532  22.680   8.414 -0.3397 -0.0791 -0.1883
 1281BOLB   GL430736  10.241  22.642   8.595  0.0309  0.3390  0.0679
 1281BOLB   C1C30737  10.694  22.367   8.629 -0.0342  0.1300 -0.1731
 1281BOLB   C2C30738  10.614  22.127   8.965 -0.1057  0.0177 -0.0028
 1281BOLB   C3C30739  10.572  22.285   9.327  0.0166  0.0199  0.2115
 1281BOLB   C4C30740  10.699  22.140   9.683 -0.2345  0.0570  0.0368
 1281BOLB   C1D30741  10.176  22.231   8.740 -0.2744  0.1693  0.2139
 1281BOLB   C2D30742  10.174  22.063   9.160  0.1712  0.0361 -0.0960
 1281BOLB   C3D30743  10.225  22.082   9.672  0.1200 -0.1390  0.2724
 1281BOLB   C4D30744  10.032  21.940  10.121  0.1741  0.1211 -0.2526
 1282BOLB   NC130745  15.875  21.182  11.575  0.2518 -0.0150 -0.4668
 1282BOLB   PO130746  16.103  21.046  11.234  0.1110  0.1524 -0.0557
 1282BOLB   GL130747  16.285  20.992  10.894 -0.0264  0.1769 -0.2677
 1282BOLB   GL230748  16.145  21.336  10.762  0.0455  0.3761  0.1227
 1282BOLB   C1A30749  16.555  21.116  10.580  0.1790  0.1164  0.4144
 1282BOLB   C2A30750  16.784  21.126  10.202  0.0322 -0.2554 -0.3264
 1282BOLB   C3A30751  17.048  21.131   9.907  0.0058 -0.4431  0.0429
 1282BOLB   C4A30752  17.452  21.113   9.634 -0.1049  0.0557  0.0923
 1282BOLB   C1B30753  16.138  21.112  10.361 -0.1868  0.1680  0.0698
 1282BOLB   C2B30754  16.355  21.218   9.986  0.3442 -0.0262  0.1369
 1282BOLB   C3B30755  16.575  21.100   9.675  0.0791 -0.2409  0.0357
 1282BOLB   C4B30756  16.565  21.082   9.188 -0.1531  0.1224 -0.1865
 1282BOLB   NC230757  17.847  22.195   7.813  0.2172  0.2097  0.1305
 1282BOLB   PO230758  18.317  21.993   7.880  0.2119 -0.1746 -0.1643
 1282BOLB   GL330759  18.338  21.990   8.295  0.0118 -0.0805  0.1735
 1282BOLB   GL430760  18.174  22.092   8.576 -0.3198 -0.3831 -0.1033
 1282BOLB   C1C30761  18.644  21.794   8.608  0.3405  0.0283 -0.2078
 1282BOLB   C2C30762  18.429  21.510   8.873 -0.4127  0.3057  0.0585
 1282BOLB   C3C30763  18.032  21.521   9.179 -0.0595 -0.2000  0.0763
 1282BOLB   C4C30764  17.749  21.139   9.317  0.0605 -0.0914 -0.1061
 1282BOLB   C1D30765  18.060  21.759   8.666 -0.1807  0.2232 -0.1318
 1282BOLB   C2D30766  17.625  21.599   8.821  0.0832  0.1266 -0.2179
 1282BOLB   C3D30767  17.438  21.480   9.144  0.3076  0.2636  0.0432
 1282BOLB   C4D30768  17.045  21.401   9.370 -0.0119 -0.0763  0.3858
 1283BOLB   NC130769  16.961  17.618  11.419 -0.4470 -0.0192 -0.0815
 1283BOLB   PO130770  17.394  17.756  11.418  0.3611 -0.2460  0.2320
 1283BOLB   GL130771  17.088  17.784  11.016  0.0419 -0.2748  0.0684
 1283BOLB   GL230772  16.875  18.036  11.132  0.2985 -0.0263 -0.0885
 1283BOLB   C1A30773  16.898  17.802  10.620 -0.2366 -0.1435 -0.3663
 1283BOLB   C2A30774  16.971  17.964  10.175  0.0611 -0.1123  0.0791
 1283BOLB   C3A30775  17.115  17.963   9.725  0.0001 -0.0873 -0.3799
 1283BOLB   C4A30776  17.086  18.039   9.266 -0.0231 -0.2730 -0.2442
 1283BOLB   C1B30777  16.908  18.280  10.707  0.3882  0.4555 -0.1476
 1283BOLB   C2B30778  16.917  18.612  10.480  0.0760  0.1131  0.2467
 1283BOLB   C3B30779  16.982  18.891  10.192 -0.0099  0.2183 -0.0573
 1283BOLB   C4B30780  17.138  18.948   9.802  0.1722 -0.2278  0.1256
 1283BOLB   NC230781  16.597  19.352   7.288 -0.1145 -0.0968 -0.1833
 1283BOLB   PO230782  16.459  18.881   7.300  0.1210 -0.1404  0.1597
 1283BOLB   GL330783  16.524  18.980   7.682 -0.1411  0.1796  0.1593
 1283BOLB   GL430784  16.504  19.255   7.776 -0.0805  0.1992 -0.0022
 1283BOLB   C1C30785  16.668  18.655   7.944 -0.0632  0.0699  0.2353
 1283BOLB   C2C30786  16.553  18.281   8.190 -0.1648 -0.1831  0.2500
 1283BOLB   C3C30787  16.686  18.057   8.623 -0.1906  0.1611  0.0636
 1283BOLB   C4C30788  16.942  17.919   8.900  0.2313  0.1122  0.2794
 1283BOLB   C1D30789  16.320  19.097   8.092 -0.0035 -0.0169  0.3013
 1283BOLB   C2D30790  16.584  18.853   8.434 -0.1150 -0.2863  0.6554
 1283BOLB   C3D30791  16.900  18.618   8.426  0.0832 -0.0667  0.4237
 1283BOLB   C4D30792  17.069  18.335   8.062 -0.0268 -0.1736 -0.1146
 1284BOLB   NC130793  16.344   8.030  13.165  0.1082  0.1227 -0.1650
 1284BOLB   PO130794  16.564   8.502  13.106 -0.1410  0.3583 -0.1908
 1284BOLB   GL130795  16.679   8.127  12.829 -0.2252  0.0664  0.3753
 1284BOLB   GL230796  16.686   7.790  12.952 -0.0303  0.0695  0.1781
 1284BOLB   C1A30797  16.936   8.068  12.420  0.1424  0.1256  0.0945
 1284BOLB   C2A30798  17.088   7.839  12.148  0.1029 -0.0237 -0.1948
 1284BOLB   C3A30799  17.400   7.639  12.183 -0.0004 -0.1594 -0.3220
 1284BOLB   C4A30800  17.829   7.696  12.114 -0.0490  0.1097  0.0713
 1284BOLB   C1B30801  16.722   7.521  12.538  0.0652 -0.1992  0.4332
 1284BOLB   C2B30802  16.848   7.405  12.068 -0.1129 -0.1867  0.0539
 1284BOLB   C3B30803  16.983   7.562  11.711  0.1220  0.2427 -0.2386
 1284BOLB   C4B30804  17.086   7.616  11.310  0.0023 -0.0676  0.1074
 1284BOLB   NC230805  18.500   6.203   9.907 -0.0034  0.0604  0.5089
 1284BOLB   PO230806  18.372   6.061  10.364 -0.0625 -0.3362 -0.0557
 1284BOLB   GL330807  18.514   6.389  10.657  0.0741 -0.1961 -0.0188
 1284BOLB   GL430808  18.707   6.407  10.832  0.1998 -0.0133 -0.0173
 1284BOLB   C1C30809  18.516   6.870  10.902  0.0416 -0.0344  0.0800
 1284BOLB   C2C30810  18.447   7.071  11.278  0.1826 -0.0986 -0.2115
 1284BOLB   C3C30811  18.397   7.382  11.631 -0.4985 -0.0977  0.1209
 1284BOLB   C4C30812  18.235   7.427  12.013 -0.1566 -0.0815 -0.1242
 1284BOLB   C1D30813  18.480   6.426  11.209 -0.3225  0.2720 -0.1639
 1284BOLB   C2D30814  18.401   6.619  11.602 -0.0189  0.2275 -0.2823
 1284BOLB   C3D30815  18.448   6.933  11.828 -0.0885 -0.0376 -0.1086
 1284BOLB   C4D30816  18.675   7.236  12.030 -0.0094  0.1479  0.3201
 1285BOLB   NC130817  13.103  24.033  13.179  0.2168  0.2861  0.1276
 1285BOLB   PO130818  13.394  24.192  13.036  0.3927 -0.0709 -0.1068
 1285BOLB   GL130819  13.038  24.471  13.008 -0.1177 -0.1046  0.1731
 1285BOLB   GL230820  12.780  24.410  13.195  0.3136  0.1221 -0.1473
 1285BOLB   C1A30821  13.053  24.894  12.819  0.1374 -0.1426 -0.0791
 1285BOLB   C2A30822  12.908  25.238  12.930  0.0347 -0.0812 -0.2178
 1285BOLB   C3A30823  12.593  25.633  12.943  0.0889  0.1724 -0.2596
 1285BOLB   C4A30824  12.314  25.985  12.819 -0.1775  0.0409  0.0726
 1285BOLB   C1B30825  12.462  24.807  13.438  0.0104 -0.1984  0.1258
 1285BOLB   C2B30826  12.274  25.092  13.692 -0.2573 -0.0564  0.2134
 1285BOLB   C3B30827  12.117  25.484  13.603  0.1193 -0.2699 -0.1746
 1285BOLB   C4B30828  11.880  25.913  13.756 -0.1595  0.1590 -0.4726
 1285BOLB   NC230829  10.033  26.823  11.512 -0.1550  0.2595  0.0488
 1285BOLB   PO230830   9.980  26.603  12.010  0.1619 -0.0566 -0.1418
 1285BOLB   GL330831  10.346  26.634  12.306  0.1965  0.1442 -0.1884
 1285BOLB   GL430832  10.596  26.828  12.230 -0.1350 -0.0075 -0.0488
 1285BOLB   C1C30833  10.680  26.345  12.533  0.3409  0.1441  0.2508
 1285BOLB   C2C30834  11.036  26.058  12.798  0.0261 -0.2642 -0.1453
 1285BOLB   C3C30835  11.486  26.122  12.931 -0.1690  0.0064 -0.0188
 1285BOLB   C4C30836  11.838  26.054  12.812 -0.2256  0.2568  0.1461
 1285BOLB   C1D30837  10.866  26.510  11.965 -0.1896  0.1096  0.0778
 1285BOLB   C2D30838  11.271  26.268  11.930  0.2129  0.2304 -0.0843
 1285BOLB   C3D30839  11.612  26.438  11.673  0.0765  0.0894  0.1093
 1285BOLB   C4D30840  12.021  26.499  11.371 -0.1151  0.2018 -0.2299
 1286BOLB   NC130841  22.388   9.595  15.922  0.2522  0.1118 -0.0161
 1286BOLB   PO130842  22.367   9.741  15.501 -0.1186  0.0219 -0.3238
 1286BOLB   GL130843  22.556   9.432  15.156  0.3099  0.1172  0.2618
 1286BOLB   GL230844  22.706   9.183  15.396  0.6204  0.0283  0.1143
 1286BOLB   C1A30845  22.450   9.274  14.702 -0.1212  0.2944  0.0151
 1286BOLB   C2A30846  22.247   9.265  14.326  0.0081  0.3746  0.0572
 1286BOLB   C3A30847  22.408   8.936  14.142 -0.0532  0.2100 -0.0416
 1286BOLB   C4A30848  22.588   8.776  13.747  0.2857  0.0533  0.1198
 1286BOLB   C1B30849  23.007   8.928  15.191 -0.3349 -0.0470 -0.1638
 1286BOLB   C2B30850  22.978   8.577  14.897 -0.1408  0.3833  0.2632
 1286BOLB   C3B30851  23.057   8.092  14.995  0.1479  0.4878 -0.0070
 1286BOLB   C4B30852  23.281   8.162  15.376 -0.2418 -0.2333 -0.1514
 1286BOLB   NC230853  22.940   6.678  12.291  0.0880  0.3888 -0.1245
 1286BOLB   PO230854  23.167   7.003  12.007 -0.2714 -0.1626  0.0082
 1286BOLB   GL330855  22.835   7.219  12.184 -0.0110 -0.0530  0.1138
 1286BOLB   GL430856  22.590   6.986  12.360  0.0719 -0.2912 -0.1911
 1286BOLB   C1C30857  22.757   7.647  12.395  0.1485  0.1225 -0.2587
 1286BOLB   C2C30858  22.578   7.849  12.794 -0.2446 -0.3309  0.1724
 1286BOLB   C3C30859  22.652   8.091  13.124 -0.1906  0.0725  0.1421
 1286BOLB   C4C30860  22.655   8.380  13.476 -0.1515  0.2084 -0.2218
 1286BOLB   C1D30861  22.289   7.253  12.628  0.1134 -0.1076 -0.1358
 1286BOLB   C2D30862  22.230   7.536  12.982  0.2420 -0.2143 -0.3309
 1286BOLB   C3D30863  22.128   7.625  13.380 -0.1037  0.1739 -0.0405
 1286BOLB   C4D30864  22.265   8.025  13.481 -0.3293  0.1770 -0.1814
 1287BOLB   NC130865  11.375   8.904  12.507  0.5650  0.0617  0.0848
 1287BOLB   PO130866  11.273   8.869  12.059  0.0151 -0.0367  0.1346
 1287BOLB   GL130867  11.484   8.520  11.801 -0.1397  0.3248 -0.0227
 1287BOLB   GL230868  11.619   8.764  11.645 -0.3307  0.0740  0.3949
 1287BOLB   C1A30869  11.216   8.475  11.468  0.2218 -0.3028  0.1939
 1287BOLB   C2A30870  11.218   8.414  11.062  0.0549 -0.0654  0.1474
 1287BOLB   C3A30871  11.219   8.353  10.574 -0.0341  0.2189  0.0080
 1287BOLB   C4A30872  11.442   8.592  10.183  0.0783 -0.2685  0.1395
 1287BOLB   C1B30873  11.707   8.828  11.104 -0.4200  0.1816 -0.1303
 1287BOLB   C2B30874  11.555   8.693  10.708 -0.0979 -0.0738 -0.1544
 1287BOLB   C3B30875  11.706   8.304  10.490 -0.0572 -0.0588  0.2276
 1287BOLB   C4B30876  11.663   8.190   9.947 -0.0779 -0.0887  0.0477
 1287BOLB   NC230877  11.134   7.631   7.980  0.2026  0.1700  0.5294
 1287BOLB   PO230878  11.547   7.793   8.100 -0.3232 -0.3023  0.0414
 1287BOLB   GL330879  11.759   7.856   8.490 -0.1866 -0.1381  0.3993
 1287BOLB   GL430880  12.099   7.816   8.514  0.1436 -0.4646 -0.0600
 1287BOLB   C1C30881  11.846   8.174   8.732 -0.1264 -0.2315 -0.0818
 1287BOLB   C2C30882  11.609   8.381   8.971  0.2787 -0.2263  0.1292
 1287BOLB   C3C30883  11.358   8.586   9.234  0.2006  0.1074  0.0225
 1287BOLB   C4C30884  11.336   8.598   9.692  0.2481 -0.0382 -0.0217
 1287BOLB   C1D30885  12.031   7.751   8.949  0.4140 -0.0642 -0.1198
 1287BOLB   C2D30886  12.189   7.711   9.362  0.1671  0.4219 -0.1622
 1287BOLB   C3D30887  12.036   7.762   9.752 -0.0870 -0.2007  0.0130
 1287BOLB   C4D30888  12.008   7.793  10.260  0.0784  0.0206  0.2614
 1288BOLB   NC130889  20.348  10.914  13.364  0.2097  0.1994 -0.2945
 1288BOLB   PO130890  20.820  10.873  13.483  0.0373  0.0063 -0.2492
 1288BOLB   GL130891  20.900  10.446  13.389  0.0742 -0.0527  0.1725
 1288BOLB   GL230892  20.926  10.228  13.675  0.0453  0.1818 -0.0796
 1288BOLB   C1A30893  21.221  10.128  13.305 -0.2511 -0.0749  0.3086
 1288BOLB   C2A30894  21.477  10.121  13.056 -0.0263 -0.1523 -0.2146
 1288BOLB   C3A30895  21.706   9.720  12.937 -0.1970  0.1173 -0.1281
 1288BOLB   C4A30896  21.861   9.479  12.544 -0.1065 -0.0231 -0.3705
 1288BOLB   C1B30897  20.721   9.963  13.348 -0.3259 -0.0605 -0.2294
 1288BOLB   C2B30898  20.841   9.704  12.914 -0.2882  0.3787 -0.0418
 1288BOLB   C3B30899  20.880   9.386  12.611 -0.1987  0.1694 -0.1009
 1288BOLB   C4B30900  21.029   8.927  12.501 -0.1327 -0.0671  0.1385
 1288BOLB   NC230901  23.063   7.918  11.271  0.2214 -0.1125 -0.0382
 1288BOLB   PO230902  22.695   7.624  11.383 -0.4049 -0.2906  0.1007
 1288BOLB   GL330903  22.618   8.031  11.464 -0.2728  0.2406  0.3173
 1288BOLB   GL430904  22.758   8.343  11.365  0.0663 -0.2315 -0.2986
 1288BOLB   C1C30905  22.600   8.201  11.835 -0.1870  0.0761 -0.3093
 1288BOLB   C2C30906  22.488   8.417  12.153 -0.4017 -0.2006 -0.2128
 1288BOLB   C3C30907  22.310   8.685  12.330  0.0379 -0.0116 -0.0882
 1288BOLB   C4C30908  21.983   9.065  12.337  0.2404  0.4002 -0.0756
 1288BOLB   C1D30909  22.451   8.691  11.664  0.0295 -0.3194 -0.2709
 1288BOLB   C2D30910  22.069   8.918  11.492  0.3651 -0.2113 -0.0781
 1288BOLB   C3D30911  21.715   8.902  11.242  0.0269  0.2646  0.5159
 1288BOLB   C4D30912  21.544   8.750  10.944  0.2254  0.1401  0.2234
 1289BOLB   NC130913  16.741  20.353  11.366  0.1190 -0.2451 -0.1380
 1289BOLB   PO130914  16.377  20.023  11.300 -0.1697  0.1224 -0.0515
 1289BOLB   GL130915  16.558  20.179  10.960 -0.0119  0.1510  0.1184
 1289BOLB   GL230916  16.811  20.144  10.950 -0.0401  0.0264 -0.4371
 1289BOLB   C1A30917  16.441  20.533  10.669  0.1600 -0.0647 -0.2784
 1289BOLB   C2A30918  16.582  20.518  10.250  0.0090  0.2997 -0.1921
 1289BOLB   C3A30919  16.786  20.648   9.961 -0.0292 -0.2490 -0.0151
 1289BOLB   C4A30920  16.968  20.792   9.554 -0.2185  0.2544  0.0545
 1289BOLB   C1B30921  17.027  20.144  10.712 -0.2035 -0.0660  0.2293
 1289BOLB   C2B30922  17.190  20.309  10.272 -0.2816 -0.0915 -0.1738
 1289BOLB   C3B30923  17.271  20.610   9.933  0.0405 -0.0696 -0.0809
 1289BOLB   C4B30924  17.478  20.596   9.479  0.0199 -0.2035 -0.4341
 1289BOLB   NC230925  16.910  20.726   7.330 -0.1521 -0.2188 -0.1448
 1289BOLB   PO230926  16.923  21.246   7.269 -0.1400  0.1593  0.0206
 1289BOLB   GL330927  17.150  21.007   7.657  0.1324 -0.1153  0.1070
 1289BOLB   GL430928  17.082  20.736   7.831  0.2488 -0.0015 -0.1095
 1289BOLB   C1C30929  17.504  21.033   7.974  0.1473  0.2562  0.2451
 1289BOLB   C2C30930  17.454  21.064   8.393 -0.1219  0.2139  0.2027
 1289BOLB   C3C30931  17.416  21.060   8.905  0.1625 -0.0796  0.1716
 1289BOLB   C4C30932  17.192  20.925   9.183  0.0313 -0.2132 -0.0716
 1289BOLB   C1D30933  16.990  20.529   8.199 -0.0566 -0.1184 -0.0860
 1289BOLB   C2D30934  16.832  20.322   8.637 -0.0585 -0.1071 -0.2432
 1289BOLB   C3D30935  16.747  20.078   8.986  0.1958  0.3923  0.0041
 1289BOLB   C4D30936  16.566  19.879   9.375  0.1424  0.0812 -0.1684
 1290BOLB   NC130937  11.639  15.879  12.039 -0.1227  0.3039  0.1010
 1290BOLB   PO130938  11.358  16.230  11.988 -0.2129 -0.0113  0.2532
 1290BOLB   GL130939  11.313  16.304  11.411 -0.0092 -0.0251  0.0811
 1290BOLB   GL230940  11.129  16.507  11.315  0.1379  0.2126  0.1684
 1290BOLB   C1A30941  11.432  16.388  10.883  0.1991  0.0587  0.5150
 1290BOLB   C2A30942  11.591  16.461  10.454  0.0080  0.1533 -0.2495
 1290BOLB   C3A30943  11.738  16.681  10.019  0.0726 -0.0206  0.1372
 1290BOLB   C4A30944  11.651  16.721   9.550 -0.1269  0.0730 -0.6915
 1290BOLB   C1B30945  10.999  16.534  10.828 -0.4487  0.1798 -0.2359
 1290BOLB   C2B30946  11.100  16.513  10.400 -0.3197  0.0268 -0.0182
 1290BOLB   C3B30947  11.310  16.472  10.036 -0.1469  0.0292 -0.0372
 1290BOLB   C4B30948  11.183  16.663   9.813 -0.0571  0.0616  0.3324
 1290BOLB   NC230949  12.084  17.069   6.959 -0.1407  0.0839  0.3061
 1290BOLB   PO230950  11.862  17.329   7.317 -0.1200  0.4866  0.2935
 1290BOLB   GL330951  11.731  17.584   7.707 -0.0772 -0.0572  0.3519
 1290BOLB   GL430952  11.769  17.877   7.661  0.2680  0.1246 -0.3968
 1290BOLB   C1C30953  11.547  17.473   8.056 -0.1980 -0.0611  0.0528
 1290BOLB   C2C30954  11.610  17.383   8.526  0.1150 -0.0457 -0.1594
 1290BOLB   C3C30955  11.921  17.157   8.913  0.4276 -0.1614  0.1525
 1290BOLB   C4C30956  11.815  16.961   9.317 -0.3564 -0.3760 -0.2985
 1290BOLB   C1D30957  11.949  17.812   8.086 -0.0784 -0.0073 -0.0923
 1290BOLB   C2D30958  12.160  17.570   8.450  0.2025  0.1126  0.0731
 1290BOLB   C3D30959  12.368  17.254   8.585 -0.3169 -0.1421  0.4113
 1290BOLB   C4D30960  12.589  17.009   8.898 -0.2818  0.2662 -0.0401
 1291BOLB   NC130961  23.183  10.364  15.450  0.0917  0.1932  0.0880
 1291BOLB   PO130962  23.141   9.868  15.395  0.3494  0.1713  0.1020
 1291BOLB   GL130963  23.592   9.770  15.054 -0.0834  0.0054 -0.0966
 1291BOLB   GL230964  23.776   9.395  15.014  0.1740 -0.1289 -0.0184
 1291BOLB   C1A30965  23.786   9.892  14.687  0.2484  0.1615  0.0818
 1291BOLB   C2A30966  23.904   9.850  14.178  0.1389 -0.2065 -0.1695
 1291BOLB   C3A30967  24.066   9.976  13.806 -0.2327  0.1081 -0.1545
 1291BOLB   C4A30968  24.047  10.117  13.406  0.1101  0.0367 -0.0227
 1291BOLB   C1B30969  24.083   9.265  15.135  0.1062 -0.1357  0.0798
 1291BOLB   C2B30970  24.401   9.210  15.316  0.1659  0.2864 -0.2734
 1291BOLB   C3B30971  24.720   9.088  15.270  0.1619  0.3300  0.1935
 1291BOLB   C4B30972  25.170   9.240  15.127  0.3119  0.2569 -0.0722
 1291BOLB   NC230973  25.505   8.941  11.204 -0.1613  0.0058  0.3196
 1291BOLB   PO230974  25.069   8.971  11.215 -0.1288 -0.3934  0.0036
 1291BOLB   GL330975  24.947   9.241  11.555 -0.1653  0.3112 -0.1636
 1291BOLB   GL430976  25.224   9.335  11.809  0.1645  0.1053  0.1837
 1291BOLB   C1C30977  24.704   9.420  11.841  0.1256  0.2227  0.4176
 1291BOLB   C2C30978  24.506   9.763  12.143  0.0475  0.0864  0.3013
 1291BOLB   C3C30979  24.289   9.919  12.471  0.1114 -0.0110 -0.2897
 1291BOLB   C4C30980  24.051  10.066  12.941 -0.1315 -0.0944  0.0956
 1291BOLB   C1D30981  25.031   9.744  12.120  0.1625  0.1095  0.2954
 1291BOLB   C2D30982  24.818   9.910  12.492  0.0069  0.2838 -0.0433
 1291BOLB   C3D30983  24.634  10.274  12.665  0.2888 -0.2039  0.0576
 1291BOLB   C4D30984  24.500  10.336  13.129  0.1043 -0.1067  0.0676
 1292BOLB   NC130985  11.647  12.997  11.518  0.2490 -0.0331 -0.2133
 1292BOLB   PO130986  11.404  12.695  11.735 -0.1083  0.1510  0.5961
 1292BOLB   GL130987  11.344  12.588  11.343 -0.0100  0.0449 -0.0416
 1292BOLB   GL230988  10.979  12.519  11.248 -0.0008 -0.2060 -0.2802
 1292BOLB   C1A30989  11.607  12.663  10.900 -0.1488  0.2318 -0.0218
 1292BOLB   C2A30990  11.460  12.498  10.557 -0.0937 -0.2010  0.1779
 1292BOLB   C3A30991  11.453  12.699  10.170  0.0663  0.2031  0.2046
 1292BOLB   C4A30992  11.478  12.865   9.807  0.2107  0.2270 -0.0631
 1292BOLB   C1B30993  10.678  12.763  11.022 -0.2040 -0.2377  0.0087
 1292BOLB   C2B30994  10.299  12.800  10.698  0.2832  0.1025 -0.0069
 1292BOLB   C3B30995  10.121  12.889  10.249  0.1845 -0.0291 -0.0536
 1292BOLB   C4B30996  10.036  12.894   9.908 -0.2964 -0.3582  0.3289
 1292BOLB   NC230997  11.353  12.105   7.331 -0.0562  0.0817  0.1046
 1292BOLB   PO230998  10.970  12.249   7.571 -0.2128 -0.0998 -0.0347
 1292BOLB   GL330999  11.114  12.163   7.861 -0.1705  0.1900  0.3442
 1292BOLB   GL431000  11.421  12.230   7.840 -0.3004  0.0789  0.0878
 1292BOLB   C1C31001  11.144  12.398   8.254  0.1067 -0.3360  0.0915
 1292BOLB   C2C31002  10.959  12.488   8.704 -0.1271 -0.1446  0.0897
 1292BOLB   C3C31003  11.083  12.768   8.987  0.1075 -0.0518  0.2728
 1292BOLB   C4C31004  11.325  12.695   9.402  0.3170  0.0286 -0.1957
 1292BOLB   C1D31005  11.647  12.005   8.137  0.2188 -0.0699  0.0080
 1292BOLB   C2D31006  11.773  11.995   8.609 -0.1450 -0.0168  0.3849
 1292BOLB   C3D31007  11.550  11.935   8.960 -0.1842  0.0601  0.0986
 1292BOLB   C4D31008  11.603  11.779   9.405 -0.0142 -0.2826  0.2715
 1293BOLB   NC131009   8.956  22.749  12.691  0.2924 -0.0891  0.0555
 1293BOLB   PO131010   9.043  23.225  12.888  0.0407 -0.0986  0.1248
 1293BOLB   GL131011   9.278  23.287  12.528 -0.1546  0.0850 -0.0992
 1293BOLB   GL231012   9.315  23.032  12.416  0.1327 -0.1574  0.2906
 1293BOLB   C1A31013   9.159  23.443  12.078  0.2701 -0.3351  0.0667
 1293BOLB   C2A31014   8.997  23.604  11.683 -0.1804 -0.0608 -0.0790
 1293BOLB   C3A31015   8.993  23.461  11.259  0.2520 -0.0575 -0.2953
 1293BOLB   C4A31016   9.147  23.460  10.876 -0.1837  0.2952  0.0581
 1293BOLB   C1B31017   9.323  22.985  12.012  0.1633 -0.2846  0.2653
 1293BOLB   C2B31018   9.288  23.219  11.580  0.0239 -0.0587  0.1630
 1293BOLB   C3B31019   9.386  22.976  11.207  0.0400  0.1550 -0.1850
 1293BOLB   C4B31020   9.280  22.919  10.811 -0.0238 -0.1764  0.1712
 1293BOLB   NC231021   8.780  23.002   8.319 -0.0664  0.1275  0.1298
 1293BOLB   PO231022   8.559  23.301   8.703  0.0006 -0.3148 -0.2986
 1293BOLB   GL331023   8.514  23.100   9.074  0.0902  0.0394  0.0454
 1293BOLB   GL431024   8.380  22.882   9.005  0.1011  0.1072 -0.1202
 1293BOLB   C1C31025   8.695  23.159   9.453 -0.0976  0.1210  0.0057
 1293BOLB   C2C31026   8.708  23.107   9.920  0.0751  0.2517  0.0608
 1293BOLB   C3C31027   8.878  23.347  10.178 -0.0561  0.1418  0.1172
 1293BOLB   C4C31028   9.205  23.300  10.463  0.1262  0.2637 -0.0077
 1293BOLB   C1D31029   8.154  22.821   9.365 -0.0442 -0.0669  0.1397
 1293BOLB   C2D31030   8.247  22.622   9.695  0.0402  0.3026 -0.1870
 1293BOLB   C3D31031   8.182  22.326  10.028 -0.0647  0.0998  0.0630
 1293BOLB   C4D31032   8.048  22.355  10.491 -0.3996 -0.0562 -0.3562
 1294BOLB   NC131033  13.458  13.694  11.542  0.0186  0.1139 -0.0287
 1294BOLB   PO131034  13.137  13.690  11.340 -0.4916  0.3803  0.0903
 1294BOLB   GL131035  13.105  13.839  10.921 -0.1189 -0.0810  0.2876
 1294BOLB   GL231036  13.149  14.115  10.896  0.0273  0.0076 -0.0450
 1294BOLB   C1A31037  13.015  13.717  10.494 -0.2337  0.1272 -0.0831
 1294BOLB   C2A31038  13.252  13.586  10.195  0.0374 -0.3107  0.1054
 1294BOLB   C3A31039  13.352  13.356   9.782 -0.0482 -0.0901 -0.5299
 1294BOLB   C4A31040  13.617  13.105   9.478  0.0520  0.0441 -0.0401
 1294BOLB   C1B31041  13.075  14.245  10.436  0.2492  0.0543 -0.1136
 1294BOLB   C2B31042  13.273  14.429  10.024 -0.1190 -0.0391  0.0152
 1294BOLB   C3B31043  13.316  14.456   9.643  0.1450 -0.3348 -0.3721
 1294BOLB   C4B31044  13.569  14.534   9.235  0.0188 -0.0423 -0.1941
 1294BOLB   NC231045  14.472  13.564   7.213 -0.1068  0.1730 -0.3219
 1294BOLB   PO231046  14.205  13.389   6.898 -0.1643 -0.1039 -0.2399
 1294BOLB   GL331047  14.026  13.522   7.327  0.2252 -0.0542 -0.0188
 1294BOLB   GL431048  14.039  13.212   7.609  0.1835  0.0573 -0.1915
 1294BOLB   C1C31049  13.887  13.598   7.820  0.0181 -0.1200 -0.0564
 1294BOLB   C2C31050  13.800  13.509   8.302 -0.2162 -0.2022 -0.1056
 1294BOLB   C3C31051  13.785  13.502   8.761 -0.0657  0.0468 -0.0827
 1294BOLB   C4C31052  13.656  13.143   9.042  0.0225  0.1500 -0.2116
 1294BOLB   C1D31053  13.750  12.879   7.980 -0.0694 -0.0341  0.0140
 1294BOLB   C2D31054  13.537  12.604   8.268 -0.0116  0.0098 -0.0670
 1294BOLB   C3D31055  13.309  12.471   8.681 -0.0414  0.0709 -0.0632
 1294BOLB   C4D31056  13.543  12.247   9.054 -0.0261  0.1209  0.0177
 1295BOLB   NC131057  22.447  14.287  13.813 -0.0089  0.2535 -0.3166
 1295BOLB   PO131058  22.325  14.672  13.589 -0.1085 -0.1961  0.0571
 1295BOLB   GL131059  22.469  14.515  13.217  0.3823  0.1055  0.1970
 1295BOLB   GL231060  22.737  14.406  13.486  0.5236 -0.0687  0.1005
 1295BOLB   C1A31061  22.637  14.333  12.767 -0.1380  0.0143 -0.2421
 1295BOLB   C2A31062  22.866  14.362  12.471 -0.1875 -0.2197 -0.0691
 1295BOLB   C3A31063  23.090  14.370  12.078 -0.8144 -0.0845  0.0101
 1295BOLB   C4A31064  23.210  14.309  11.601  0.1894  0.1212 -0.1243
 1295BOLB   C1B31065  23.041  14.501  13.165  0.2671  0.2127 -0.0694
 1295BOLB   C2B31066  23.286  14.587  12.753 -0.3952  0.0684 -0.0354
 1295BOLB   C3B31067  23.525  14.448  12.344 -0.1519 -0.2428  0.4767
 1295BOLB   C4B31068  23.934  14.437  12.143  0.0268 -0.3234 -0.1369
 1295BOLB   NC231069  23.455  14.186   8.749  0.5372 -0.1365  0.0338
 1295BOLB   PO231070  23.346  14.259   9.107 -0.3074  0.4593  0.2758
 1295BOLB   GL331071  23.147  14.506   9.403  0.1643 -0.0551 -0.3015
 1295BOLB   GL431072  22.764  14.664   9.469 -0.2147  0.0564  0.3241
 1295BOLB   C1C31073  23.217  14.795   9.968 -0.2593  0.0739  0.1007
 1295BOLB   C2C31074  23.425  14.753  10.422  0.1443  0.1556 -0.1233
 1295BOLB   C3C31075  23.406  14.633  10.884 -0.1912 -0.1633  0.2891
 1295BOLB   C4C31076  23.264  14.219  11.237  0.1333 -0.1857  0.1265
 1295BOLB   C1D31077  22.546  14.491   9.756 -0.3344  0.0349 -0.0193
 1295BOLB   C2D31078  22.453  14.186   9.990  0.1515 -0.0000 -0.0651
 1295BOLB   C3D31079  22.307  13.764  10.034  0.1027  0.2925 -0.4764
 1295BOLB   C4D31080  22.032  13.470   9.950 -0.0036 -0.0197  0.3274
 1296BOLB   NC131081  18.645  15.616  11.863 -0.0779 -0.0108  0.0332
 1296BOLB   PO131082  18.653  15.577  11.423  0.0428 -0.2016 -0.1058
 1296BOLB   GL131083  18.578  15.878  11.019  0.1546 -0.2836 -0.0721
 1296BOLB   GL231084  18.182  15.752  10.952  0.0462 -0.0918 -0.1512
 1296BOLB   C1A31085  18.816  16.098  10.747 -0.2546 -0.1040  0.3950
 1296BOLB   C2A31086  18.912  16.442  10.445  0.1985 -0.2649  0.0412
 1296BOLB   C3A31087  18.975  16.597   9.995  0.1065  0.0872  0.1514
 1296BOLB   C4A31088  18.905  16.341   9.631 -0.1723  0.1083 -0.0982
 1296BOLB   C1B31089  18.208  15.851  10.506 -0.3110  0.2950 -0.0697
 1296BOLB   C2B31090  18.560  15.947  10.296  0.0243 -0.1588 -0.1826
 1296BOLB   C3B31091  18.943  16.035  10.058 -0.1487  0.2450 -0.1459
 1296BOLB   C4B31092  19.245  15.975   9.822 -0.1654 -0.1688 -0.3627
 1296BOLB   NC231093  19.440  16.321   7.426  0.1036  0.0017  0.1119
 1296BOLB   PO231094  19.198  16.731   7.536 -0.1091 -0.0900  0.0979
 1296BOLB   GL331095  19.378  16.819   7.914  0.1176  0.3893 -0.0420
 1296BOLB   GL431096  19.506  16.505   8.027  0.0357 -0.1985  0.1245
 1296BOLB   C1C31097  19.158  16.856   8.329  0.1006 -0.0297  0.1090
 1296BOLB   C2C31098  18.902  16.670   8.666 -0.0284 -0.0098  0.1808
 1296BOLB   C3C31099  18.701  16.519   8.920 -0.1835 -0.1312  0.0034
 1296BOLB   C4C31100  18.810  16.426   9.292  0.1184  0.1548 -0.1615
 1296BOLB   C1D31101  19.441  16.476   8.428 -0.0917 -0.2469 -0.2488
 1296BOLB   C2D31102  19.274  16.284   8.671  0.2371  0.1216  0.1705
 1296BOLB   C3D31103  19.005  16.118   8.896  0.1723  0.0774 -0.1822
 1296BOLB   C4D31104  18.968  15.677   9.071  0.1096 -0.0180 -0.2360
 1297BOLB   NC131105  12.766  14.380  11.100 -0.0205  0.2307 -0.1850
 1297BOLB   PO131106  12.350  14.211  11.156 -0.4045 -0.0595 -0.2838
 1297BOLB   GL131107  12.328  14.160  10.741 -0.0426 -0.1260  0.1025
 1297BOLB   GL231108  12.618  13.894  10.723 -0.1615 -0.0112 -0.0467
 1297BOLB   C1A31109  12.464  14.373  10.412  0.2220  0.3781 -0.1314
 1297BOLB   C2A31110  12.337  14.699  10.076 -0.1097 -0.4344 -0.0818
 1297BOLB   C3A31111  12.341  14.876   9.669  0.0251 -0.0419  0.2292
 1297BOLB   C4A31112  12.306  14.943   9.217  0.1256 -0.0812  0.0940
 1297BOLB   C1B31113  12.630  13.959  10.271  0.0041 -0.1241 -0.1294
 1297BOLB   C2B31114  12.399  13.753   9.829  0.0152 -0.1841 -0.0377
 1297BOLB   C3B31115  12.048  13.868   9.562  0.2748  0.1932 -0.1822
 1297BOLB   C4B31116  11.725  13.988   9.423 -0.0411 -0.0857  0.1327
 1297BOLB   NC231117  11.439  15.379   6.881 -0.3070 -0.0616  0.2034
 1297BOLB   PO231118  11.181  15.147   7.139  0.0760 -0.0434  0.0479
 1297BOLB   GL331119  11.430  15.231   7.501 -0.3078 -0.0112  0.0909
 1297BOLB   GL431120  11.783  15.368   7.364  0.2475  0.0481  0.2120
 1297BOLB   C1C31121  11.596  15.377   7.899 -0.2205  0.2774 -0.2277
 1297BOLB   C2C31122  11.916  15.508   8.193  0.2798  0.3561 -0.2890
 1297BOLB   C3C31123  12.308  15.504   8.506 -0.1253 -0.0263  0.1564
 1297BOLB   C4C31124  12.273  15.257   8.831 -0.1530 -0.2213 -0.0948
 1297BOLB   C1D31125  12.100  15.369   7.728 -0.0530 -0.2122  0.2757
 1297BOLB   C2D31126  12.387  15.208   8.058  0.0330  0.2626 -0.0767
 1297BOLB   C3D31127  12.557  15.067   8.446  0.1619 -0.1375 -0.0310
 1297BOLB   C4D31128  12.626  14.814   8.798 -0.2969  0.2971  0.1211
 1298BOLB   NC131129  16.752  23.591  12.319 -0.1525 -0.2495 -0.1093
 1298BOLB   PO131130  16.849  24.035  12.488  0.0003  0.3155  0.2183
 1298BOLB   GL131131  17.036  24.030  12.017 -0.1204  0.1891  0.4576
 1298BOLB   GL231132  17.241  23.743  12.070  0.1292  0.1650 -0.1974
 1298BOLB   C1A31133  16.933  24.264  11.641  0.0664  0.0755  0.1940
 1298BOLB   C2A31134  16.797  24.608  11.442  0.0011 -0.0368 -0.3522
 1298BOLB   C3A31135  16.479  24.843  11.215 -0.2519 -0.1686 -0.0943
 1298BOLB   C4A31136  16.455  24.919  10.729 -0.2228 -0.2068 -0.1075
 1298BOLB   C1B31137  17.321  23.888  11.634  0.2235 -0.2853 -0.1022
 1298BOLB   C2B31138  17.364  23.904  11.214  0.2069  0.0045 -0.1773
 1298BOLB   C3B31139  17.096  23.828  10.828 -0.0712  0.2626  0.0091
 1298BOLB   C4B31140  17.021  23.856  10.336  0.0548 -0.1242 -0.2139
 1298BOLB   NC231141  16.746  25.521   8.075  0.1758 -0.1575 -0.3424
 1298BOLB   PO231142  16.417  25.695   8.363  0.1197  0.0954 -0.1083
 1298BOLB   GL331143  16.320  25.359   8.623  0.0362 -0.4517 -0.2745
 1298BOLB   GL431144  16.525  25.076   8.612 -0.2776  0.2049 -0.3170
 1298BOLB   C1C31145  16.496  25.315   9.079 -0.0335  0.1630  0.3218
 1298BOLB   C2C31146  16.473  25.182   9.421  0.0189  0.3008 -0.1982
 1298BOLB   C3C31147  16.388  24.904   9.783  0.2043 -0.0189  0.1715
 1298BOLB   C4C31148  16.401  24.996  10.231 -0.5045 -0.2397 -0.0073
 1298BOLB   C1D31149  16.700  24.911   9.026  0.0316  0.1646  0.0373
 1298BOLB   C2D31150  16.748  24.746   9.459  0.0115  0.2382 -0.1842
 1298BOLB   C3D31151  16.644  24.554   9.918 -0.0238  0.0766 -0.1183
 1298BOLB   C4D31152  16.581  24.224  10.134  0.0479 -0.1614 -0.1146
 1299BOLB   NC131153  11.059  23.134  13.014  0.2307  0.2528  0.2362
 1299BOLB   PO131154  10.648  23.048  12.820 -0.0168  0.1384 -0.0489
 1299BOLB   GL131155  10.815  23.546  12.728 -0.1891 -0.0013  0.2933
 1299BOLB   GL231156  11.097  23.552  12.810 -0.0859 -0.0082 -0.0126
 1299BOLB   C1A31157  10.877  23.958  12.502  0.0555  0.2723 -0.1317
 1299BOLB   C2A31158  11.102  24.239  12.168  0.0067 -0.0394  0.0028
 1299BOLB   C3A31159  11.251  24.203  11.762 -0.0289 -0.3967 -0.0055
 1299BOLB   C4A31160  11.084  24.475  11.464 -0.3698 -0.1512  0.2200
 1299BOLB   C1B31161  11.202  23.513  12.375  0.3896 -0.1041  0.1074
 1299BOLB   C2B31162  11.050  23.684  11.964  0.1338 -0.1261 -0.1608
 1299BOLB   C3B31163  10.790  23.798  11.612 -0.2502 -0.1043  0.2207
 1299BOLB   C4B31164  10.673  24.193  11.670  0.0128 -0.3390  0.1202
 1299BOLB   NC231165  11.319  25.614   9.128  0.0426 -0.0005 -0.0909
 1299BOLB   PO231166  11.084  25.127   9.169 -0.0986  0.1143 -0.3703
 1299BOLB   GL331167  11.081  25.055   9.575  0.0532 -0.2174 -0.0156
 1299BOLB   GL431168  10.976  25.310   9.770  0.1844  0.2680  0.0539
 1299BOLB   C1C31169  11.025  24.854   9.953 -0.2444  0.2365 -0.0075
 1299BOLB   C2C31170  10.959  24.915  10.315 -0.1887 -0.3401  0.3418
 1299BOLB   C3C31171  10.871  24.679  10.715  0.0307  0.5395 -0.0481
 1299BOLB   C4C31172  10.871  24.606  11.190 -0.2345 -0.3541  0.2519
 1299BOLB   C1D31173  11.201  25.326  10.118 -0.2883  0.2809  0.0201
 1299BOLB   C2D31174  11.317  25.304  10.520 -0.0727 -0.1117 -0.3097
 1299BOLB   C3D31175  11.300  25.031  10.828 -0.1705 -0.2607  0.0200
 1299BOLB   C4D31176  11.242  24.930  11.265 -0.0253  0.3069  0.2546
 1300BOLB   NC131177  22.012   9.974  15.270  0.0068  0.1124  0.2987
 1300BOLB   PO131178  21.559   9.777  15.038  0.1623 -0.3736  0.3472
 1300BOLB   GL131179  21.672   9.440  14.659 -0.0369 -0.2566 -0.0657
 1300BOLB   GL231180  21.635   9.402  14.310  0.3153  0.0073  0.1380
 1300BOLB   C1A31181  21.863   9.024  14.465 -0.0138  0.1013 -0.0226
 1300BOLB   C2A31182  21.714   8.633  14.220  0.2389 -0.5752  0.0805
 1300BOLB   C3A31183  21.853   8.220  14.024 -0.0037 -0.1285 -0.2055
 1300BOLB   C4A31184  21.968   7.899  13.831 -0.0638 -0.0875 -0.1462
 1300BOLB   C1B31185  21.841   9.156  13.983 -0.0081  0.1927 -0.3355
 1300BOLB   C2B31186  22.075   8.806  13.859  0.0865  0.1092  0.2007
 1300BOLB   C3B31187  22.336   8.351  13.955  0.0145  0.0190  0.0207
 1300BOLB   C4B31188  22.389   7.989  14.204 -0.1304  0.1153 -0.1471
 1300BOLB   NC231189  22.648   5.213  13.958  0.2035  0.0094 -0.1050
 1300BOLB   PO231190  22.695   5.564  13.787 -0.1786  0.0825  0.0010
 1300BOLB   GL331191  22.758   6.008  14.012 -0.3142 -0.0053  0.0776
 1300BOLB   GL431192  22.881   6.025  14.350  0.0302  0.0843 -0.0160
 1300BOLB   C1C31193  22.559   6.452  14.280  0.1917  0.0127  0.0825
 1300BOLB   C2C31194  22.702   6.921  14.188 -0.2147  0.2267  0.0807
 1300BOLB   C3C31195  22.728   7.348  14.015  0.0427  0.0735  0.0033
 1300BOLB   C4C31196  22.369   7.644  13.839  0.0601  0.1121 -0.0008
 1300BOLB   C1D31197  22.666   6.096  14.761  0.1374 -0.2002 -0.2205
 1300BOLB   C2D31198  22.414   6.466  14.952 -0.1980  0.0164 -0.5980
 1300BOLB   C3D31199  22.130   6.809  15.075  0.3059 -0.0701  0.1258
 1300BOLB   C4D31200  22.034   6.900  15.552  0.0385 -0.2904  0.1119
 1301BOLB   NC131201  21.449  16.873  13.123  0.2388  0.0875 -0.0036
 1301BOLB   PO131202  21.412  16.651  12.747 -0.1808 -0.0668 -0.0411
 1301BOLB   GL131203  21.742  16.711  12.316  0.0427 -0.1400 -0.5672
 1301BOLB   GL231204  21.929  16.945  12.355  0.1226  0.3283  0.2555
 1301BOLB   C1A31205  21.885  16.425  11.888  0.0384 -0.0974  0.0828
 1301BOLB   C2A31206  22.049  16.374  11.406 -0.0898  0.4334  0.0770
 1301BOLB   C3A31207  22.184  16.386  11.003  0.1568 -0.1672 -0.0770
 1301BOLB   C4A31208  22.327  16.575  10.631  0.1896  0.0365 -0.2586
 1301BOLB   C1B31209  22.293  17.198  12.212  0.1044  0.3186 -0.0912
 1301BOLB   C2B31210  22.525  17.595  12.173 -0.3769  0.2941 -0.2710
 1301BOLB   C3B31211  22.857  17.647  12.242 -0.0662  0.1493  0.1622
 1301BOLB   C4B31212  23.132  17.939  12.091 -0.0666  0.2649  0.0360
 1301BOLB   NC231213  23.783  17.792   9.127 -0.0819 -0.0687 -0.0446
 1301BOLB   PO231214  23.637  17.482   9.358 -0.0050  0.0266  0.5609
 1301BOLB   GL331215  23.558  17.265   9.637  0.2357 -0.3219  0.0664
 1301BOLB   GL431216  23.238  17.316   9.636  0.0466 -0.0365  0.2054
 1301BOLB   C1C31217  23.562  17.094   9.954  0.0599 -0.4405  0.2669
 1301BOLB   C2C31218  23.197  17.017  10.070 -0.0556 -0.0316  0.0574
 1301BOLB   C3C31219  22.807  17.009  10.270 -0.0230 -0.3196  0.1830
 1301BOLB   C4C31220  22.418  16.916  10.418  0.1679  0.0181 -0.1420
 1301BOLB   C1D31221  22.853  17.083   9.742 -0.0607 -0.1982 -0.0385
 1301BOLB   C2D31222  22.455  17.180   9.845  0.0939  0.2105  0.2912
 1301BOLB   C3D31223  22.051  17.417  10.032  0.3022 -0.0076 -0.4287
 1301BOLB   C4D31224  21.795  17.587   9.882 -0.1195  0.0213 -0.0770
 1302BOLB   NC131225  23.192  10.664  14.916 -0.0343 -0.2651  0.1160
 1302BOLB   PO131226  23.552  10.873  14.857 -0.1456 -0.0928  0.1065
 1302BOLB   GL131227  23.480  10.650  14.474  0.2177  0.1032 -0.0159
 1302BOLB   GL231228  23.873  10.861  14.481  0.0696 -0.0940 -0.2416
 1302BOLB   C1A31229  23.587  10.479  14.061  0.2986  0.1824 -0.0210
 1302BOLB   C2A31230  23.653  10.222  13.751  0.2176 -0.1286 -0.0694
 1302BOLB   C3A31231  23.492   9.909  13.461  0.1818  0.0582 -0.0345
 1302BOLB   C4A31232  23.364   9.447  13.580  0.1872 -0.1772 -0.1824
 1302BOLB   C1B31233  23.844  10.989  14.044  0.4027 -0.1485  0.4324
 1302BOLB   C2B31234  24.097  11.149  13.675  0.0238 -0.1593  0.2218
 1302BOLB   C3B31235  24.409  10.854  13.662 -0.0078 -0.2129 -0.0941
 1302BOLB   C4B31236  24.431  10.416  13.675 -0.1330 -0.1718  0.3647
 1302BOLB   NC231237  24.663   7.772  12.416 -0.1186 -0.0286 -0.0998
 1302BOLB   PO231238  24.334   7.925  12.157  0.1582  0.0907 -0.1814
 1302BOLB   GL331239  24.046   8.112  12.383  0.2506  0.0063 -0.0591
 1302BOLB   GL431240  23.745   7.932  12.464  0.5275  0.0781  0.2784
 1302BOLB   C1C31241  23.935   8.483  12.409 -0.1976 -0.1315  0.0197
 1302BOLB   C2C31242  23.563   8.725  12.521 -0.1223  0.3920 -0.0514
 1302BOLB   C3C31243  23.211   8.923  12.832 -0.1313 -0.3455  0.1109
 1302BOLB   C4C31244  23.163   9.170  13.206  0.0445 -0.1473  0.0047
 1302BOLB   C1D31245  23.455   8.280  12.489  0.3256 -0.0472 -0.0572
 1302BOLB   C2D31246  23.101   8.617  12.523  0.2849 -0.0368 -0.1468
 1302BOLB   C3D31247  22.720   8.909  12.555 -0.0487  0.0548  0.0499
 1302BOLB   C4D31248  22.541   9.268  12.506 -0.0375  0.1160 -0.0743
 1303BOLB   NC131249  14.781  12.237  11.753  0.0692 -0.1487 -0.0546
 1303BOLB   PO131250  15.047  12.358  11.457  0.0694 -0.1650 -0.0749
 1303BOLB   GL131251  14.907  12.132  11.125  0.0533 -0.2379  0.1197
 1303BOLB   GL231252  14.597  12.053  11.233 -0.0545 -0.3667  0.1631
 1303BOLB   C1A31253  15.010  11.982  10.729 -0.1635 -0.2922  0.1878
 1303BOLB   C2A31254  15.403  12.097  10.552  0.4243  0.0547  0.1200
 1303BOLB   C3A31255  15.755  12.383  10.256  0.0316  0.0089 -0.0190
 1303BOLB   C4A31256  15.968  12.612   9.929  0.1553  0.2183  0.1812
 1303BOLB   C1B31257  14.555  11.859  10.849  0.0603 -0.1727 -0.0922
 1303BOLB   C2B31258  14.627  11.806  10.389  0.1291  0.2862  0.2070
 1303BOLB   C3B31259  14.894  11.852  10.110  0.1049  0.1968 -0.2311
 1303BOLB   C4B31260  15.327  12.007   9.922 -0.0145  0.2245 -0.1004
 1303BOLB   NC231261  16.103  12.567   7.457  0.0577 -0.3896 -0.0451
 1303BOLB   PO231262  16.450  12.510   7.575 -0.3803 -0.0890 -0.3105
 1303BOLB   GL331263  16.165  12.408   7.937 -0.0239  0.1296 -0.1773
 1303BOLB   GL431264  15.906  12.601   7.939  0.1308 -0.1531 -0.0561
 1303BOLB   C1C31265  16.178  12.345   8.317 -0.0377  0.1586 -0.1912
 1303BOLB   C2C31266  16.318  12.503   8.704 -0.1665 -0.2613  0.0061
 1303BOLB   C3C31267  16.114  12.466   9.093  0.0760 -0.0368 -0.1448
 1303BOLB   C4C31268  16.141  12.389   9.532 -0.3114 -0.1025 -0.1080
 1303BOLB   C1D31269  15.736  12.827   8.271  0.0972  0.0461 -0.2475
 1303BOLB   C2D31270  15.598  13.243   8.558 -0.0393  0.1139 -0.0606
 1303BOLB   C3D31271  15.488  13.497   8.854  0.0886  0.3894 -0.0931
 1303BOLB   C4D31272  15.803  13.534   9.161 -0.0437  0.0004  0.2792
 1304BOLB   NC131273   9.412   7.768  12.029 -0.1926 -0.3132  0.0662
 1304BOLB   PO131274   9.028   7.777  11.774  0.1931  0.1912 -0.3854
 1304BOLB   GL131275   9.159   8.064  11.429  0.0220  0.1251  0.0682
 1304BOLB   GL231276   9.206   8.437  11.457 -0.0574  0.0899 -0.1387
 1304BOLB   C1A31277   8.982   8.161  11.021 -0.1564 -0.1805  0.2412
 1304BOLB   C2A31278   9.018   8.402  10.605 -0.1141 -0.0120 -0.0477
 1304BOLB   C3A31279   9.105   8.585  10.091 -0.2558  0.0466  0.3503
 1304BOLB   C4A31280   9.243   8.983   9.941 -0.3673 -0.1314  0.0635
 1304BOLB   C1B31281   9.619   8.778  11.325 -0.1957  0.1186 -0.1638
 1304BOLB   C2B31282   9.917   8.822  10.994 -0.0362  0.1677 -0.5135
 1304BOLB   C3B31283   9.867   8.959  10.592 -0.1323 -0.0572  0.2534
 1304BOLB   C4B31284   9.949   9.066  10.155 -0.0504  0.0091  0.2011
 1304BOLB   NC231285   9.913   9.981   7.590  0.0897  0.0406 -0.3370
 1304BOLB   PO231286   9.386   9.864   7.713 -0.0446 -0.1430  0.0759
 1304BOLB   GL331287   9.491   9.955   8.101  0.0183 -0.0062 -0.0427
 1304BOLB   GL431288   9.722  10.297   8.145  0.2355  0.1774  0.2702
 1304BOLB   C1C31289   9.592   9.894   8.539  0.1106 -0.0151  0.1199
 1304BOLB   C2C31290   9.601   9.447   8.769 -0.1985  0.0047  0.1567
 1304BOLB   C3C31291   9.316   9.363   9.092 -0.0333  0.3443  0.2277
 1304BOLB   C4C31292   9.223   9.192   9.562  0.0842  0.2751  0.0789
 1304BOLB   C1D31293   9.648  10.411   8.562 -0.0523  0.0029 -0.0502
 1304BOLB   C2D31294   9.691  10.113   8.980 -0.1383 -0.3049 -0.1142
 1304BOLB   C3D31295   9.473   9.839   9.134  0.0335  0.2538 -0.1517
 1304BOLB   C4D31296   9.029   9.784   8.982 -0.0743 -0.0974 -0.1566
 1305BOLB   NC131297  16.040  22.049  11.644  0.1543  0.1081 -0.1197
 1305BOLB   PO131298  16.099  22.546  11.741 -0.1715 -0.3546  0.1289
 1305BOLB   GL131299  16.212  22.570  11.355  0.2382 -0.2228 -0.2101
 1305BOLB   GL231300  15.767  22.517  11.269 -0.0902 -0.0990  0.3103
 1305BOLB   C1A31301  16.236  22.842  10.929  0.0124  0.2581  0.1576
 1305BOLB   C2A31302  16.410  22.664  10.552  0.1295  0.3219 -0.0564
 1305BOLB   C3A31303  16.461  22.773  10.174  0.1051  0.0386  0.2619
 1305BOLB   C4A31304  16.313  22.869   9.817 -0.0047 -0.2559  0.0552
 1305BOLB   C1B31305  15.801  22.579  10.891 -0.0713 -0.2020  0.0317
 1305BOLB   C2B31306  15.871  22.720  10.481  0.0391 -0.1407  0.1136
 1305BOLB   C3B31307  15.839  22.700   9.992 -0.0087  0.1354  0.2001
 1305BOLB   C4B31308  15.711  22.746   9.583  0.1614  0.0304 -0.1171
 1305BOLB   NC231309  16.515  22.911   7.417  0.1193 -0.0045 -0.1928
 1305BOLB   PO231310  16.896  22.959   7.641  0.1814 -0.2537  0.1633
 1305BOLB   GL331311  16.559  22.892   7.929  0.0914  0.0652 -0.1002
 1305BOLB   GL431312  16.435  23.223   7.992 -0.2325 -0.3921 -0.0825
 1305BOLB   C1C31313  16.396  22.815   8.415 -0.2544  0.0780  0.1285
 1305BOLB   C2C31314  16.071  22.630   8.677  0.1695 -0.2009 -0.1422
 1305BOLB   C3C31315  16.037  22.467   9.058  0.0325 -0.0631 -0.2277
 1305BOLB   C4C31316  16.139  22.603   9.453  0.1931 -0.1363 -0.0874
 1305BOLB   C1D31317  16.479  23.479   8.363  0.0187 -0.0695  0.1988
 1305BOLB   C2D31318  16.572  23.570   8.826 -0.3560 -0.2288  0.0318
 1305BOLB   C3D31319  16.569  23.365   9.192 -0.0510 -0.3269 -0.0652
 1305BOLB   C4D31320  16.448  23.457   9.660  0.1287  0.0010 -0.1202
 1306BOLB   NC131321  18.799  21.693  12.449 -0.3248  0.0384  0.0821
 1306BOLB   PO131322  18.640  21.717  12.069  0.1770 -0.4065  0.1503
 1306BOLB   GL131323  18.837  21.633  11.712  0.1225  0.1107 -0.0539
 1306BOLB   GL231324  19.122  21.322  11.573  0.0947  0.2372 -0.0208
 1306BOLB   C1A31325  19.197  21.848  11.438  0.1517 -0.0088 -0.2004
 1306BOLB   C2A31326  19.552  22.043  11.290 -0.1365 -0.3557 -0.2858
 1306BOLB   C3A31327  19.932  22.009  11.002  0.2131  0.0076  0.1190
 1306BOLB   C4A31328  20.090  22.207  10.782  0.0785 -0.0180  0.2712
 1306BOLB   C1B31329  19.250  21.401  11.181  0.4417  0.1560  0.1225
 1306BOLB   C2B31330  19.412  21.711  10.906 -0.1856 -0.2062  0.0603
 1306BOLB   C3B31331  19.622  21.937  10.630  0.0653  0.2421 -0.2869
 1306BOLB   C4B31332  19.902  21.919  10.369  0.2069  0.2272 -0.2886
 1306BOLB   NC231333  20.676  22.170   8.465 -0.2829  0.0465 -0.1968
 1306BOLB   PO231334  20.345  22.229   8.574 -0.2538 -0.1290 -0.1614
 1306BOLB   GL331335  19.917  22.215   8.715 -0.4046 -0.1423  0.1086
 1306BOLB   GL431336  19.645  22.156   8.740  0.2936  0.1655  0.1288
 1306BOLB   C1C31337  19.879  22.205   9.192 -0.1458 -0.1598  0.0998
 1306BOLB   C2C31338  19.999  22.472   9.487  0.2184  0.1686 -0.0086
 1306BOLB   C3C31339  20.182  22.470   9.926  0.0555  0.0340  0.0672
 1306BOLB   C4C31340  20.100  22.385  10.333  0.2737  0.2573  0.3129
 1306BOLB   C1D31341  19.231  22.078   9.048  0.1222  0.1748 -0.2861
 1306BOLB   C2D31342  19.419  22.180   9.457  0.1239 -0.0729  0.1905
 1306BOLB   C3D31343  19.616  22.013   9.793  0.2667  0.2528 -0.0310
 1306BOLB   C4D31344  19.696  22.254  10.064 -0.0508 -0.1044  0.0318
 1307BOLB   NC131345  19.748  25.582  15.397  0.2581 -0.1915 -0.0795
 1307BOLB   PO131346  20.152  25.608  15.227 -0.0768 -0.0071 -0.1084
 1307BOLB   GL131347  20.467  25.311  15.165  0.0808 -0.1457  0.2750
 1307BOLB   GL231348  20.579  25.013  15.046  0.1195  0.0927  0.3358
 1307BOLB   C1A31349  20.877  25.272  15.371 -0.0256 -0.1488 -0.1245
 1307BOLB   C2A31350  21.216  25.381  15.227 -0.2715 -0.0676 -0.0392
 1307BOLB   C3A31351  21.516  25.261  14.869 -0.1319  0.1282 -0.4533
 1307BOLB   C4A31352  21.843  25.140  14.577 -0.1096  0.0161 -0.0924
 1307BOLB   C1B31353  21.057  25.006  14.906 -0.1665 -0.2134 -0.0921
 1307BOLB   C2B31354  21.282  25.063  14.509 -0.1281  0.0987 -0.0045
 1307BOLB   C3B31355  21.371  25.162  14.080 -0.3170 -0.2282  0.1777
 1307BOLB   C4B31356  21.358  25.180  13.638  0.0171 -0.0254  0.2100
 1307BOLB   NC231357  24.047  25.894  13.369 -0.0960  0.3143  0.0702
 1307BOLB   PO231358  24.067  26.021  13.884  0.0526 -0.1250  0.1485
 1307BOLB   GL331359  23.761  25.774  14.238  0.2614  0.0790 -0.4549
 1307BOLB   GL431360  23.952  25.372  14.269 -0.0728 -0.0739  0.1979
 1307BOLB   C1C31361  23.381  25.628  14.480 -0.0266 -0.3070 -0.1203
 1307BOLB   C2C31362  22.930  25.569  14.388 -0.1480  0.0416  0.0168
 1307BOLB   C3C31363  22.525  25.518  14.299 -0.2285  0.1486 -0.5184
 1307BOLB   C4C31364  22.149  25.406  14.534 -0.1381  0.1523  0.0544
 1307BOLB   C1D31365  23.609  25.238  14.274 -0.3236  0.1462 -0.1325
 1307BOLB   C2D31366  23.223  25.108  14.474 -0.0337  0.0717  0.2111
 1307BOLB   C3D31367  22.898  24.769  14.531  0.1267 -0.0712 -0.0797
 1307BOLB   C4D31368  22.615  24.396  14.559  0.1496 -0.2039  0.0377
 1308BOLB   NC131369  21.584  14.798  12.598  0.4058  0.1906  0.0191
 1308BOLB   PO131370  21.869  14.904  12.751 -0.0109  0.2488 -0.0581
 1308BOLB   GL131371  22.041  14.830  12.347  0.0687 -0.1141  0.0816
 1308BOLB   GL231372  22.207  15.069  12.297  0.0386 -0.0353  0.1439
 1308BOLB   C1A31373  22.171  14.665  11.906  0.4126 -0.1818  0.1741
 1308BOLB   C2A31374  22.443  14.695  11.509 -0.0211 -0.1947 -0.1566
 1308BOLB   C3A31375  22.768  14.765  11.169 -0.1108  0.1607 -0.1621
 1308BOLB   C4A31376  22.906  14.879  10.704 -0.2826  0.0733 -0.2984
 1308BOLB   C1B31377  22.304  15.224  11.921 -0.4139  0.1746 -0.1936
 1308BOLB   C2B31378  22.580  15.216  11.649  0.1363  0.0089  0.0947
 1308BOLB   C3B31379  22.954  15.458  11.447  0.1107 -0.3780  0.0282
 1308BOLB   C4B31380  23.290  15.508  11.223  0.0704 -0.3173 -0.0006
 1308BOLB   NC231381  23.953  17.077   9.325  0.2146  0.1295 -0.0808
 1308BOLB   PO231382  23.811  16.684   9.101 -0.0586  0.1577 -0.3577
 1308BOLB   GL331383  23.532  16.341   9.176  0.2768  0.1238  0.2335
 1308BOLB   GL431384  23.701  15.980   9.491  0.2512 -0.1373  0.0844
 1308BOLB   C1C31385  23.216  16.111   9.409  0.2331 -0.3217 -0.1170
 1308BOLB   C2C31386  23.282  15.737   9.686 -0.0413  0.0229  0.2343
 1308BOLB   C3C31387  23.165  15.285  10.015 -0.2129  0.1230  0.0345
 1308BOLB   C4C31388  23.038  15.125  10.317  0.1444  0.2617 -0.1991
 1308BOLB   C1D31389  23.561  16.299   9.846 -0.0590 -0.1091 -0.0911
 1308BOLB   C2D31390  23.170  16.297  10.206  0.1752  0.1404  0.1070
 1308BOLB   C3D31391  22.789  16.201  10.490  0.0376  0.4184  0.0735
 1308BOLB   C4D31392  22.591  16.097  10.860 -0.2122  0.3419 -0.0188
 1309BOLB   NC131393   9.212  17.979  12.303 -0.1673 -0.0918 -0.1432
 1309BOLB   PO131394   9.202  18.225  11.909  0.0600  0.0970 -0.0020
 1309BOLB   GL131395   9.221  18.056  11.573 -0.0829 -0.1042 -0.0912
 1309BOLB   GL231396   9.097  17.746  11.556  0.0003 -0.1644 -0.2471
 1309BOLB   C1A31397   9.048  18.082  11.165 -0.0239  0.3215  0.3504
 1309BOLB   C2A31398   8.893  18.035  10.707  0.1425 -0.0883  0.2242
 1309BOLB   C3A31399   8.616  18.213  10.461 -0.2597  0.2424 -0.1192
 1309BOLB   C4A31400   8.421  18.241  10.124  0.2059  0.0639  0.1349
 1309BOLB   C1B31401   8.821  17.631  11.195 -0.2084  0.0690 -0.2518
 1309BOLB   C2B31402   8.643  17.344  10.898  0.0862 -0.0369  0.2063
 1309BOLB   C3B31403   8.877  17.179  10.434 -0.0082  0.1258 -0.2423
 1309BOLB   C4B31404   9.200  17.319  10.220 -0.1902  0.0343  0.1279
 1309BOLB   NC231405   8.895  18.714   8.100 -0.5727  0.1348  0.1552
 1309BOLB   PO231406   8.533  18.696   8.068  0.0784  0.3459 -0.1505
 1309BOLB   GL331407   8.602  18.952   8.521 -0.1698  0.4587  0.0115
 1309BOLB   GL431408   8.503  18.750   8.895 -0.2837  0.3209 -0.1409
 1309BOLB   C1C31409   8.502  19.220   8.804 -0.4416  0.3376 -0.2633
 1309BOLB   C2C31410   8.487  19.147   9.262 -0.0371  0.1028 -0.0352
 1309BOLB   C3C31411   8.379  18.824   9.520 -0.3025 -0.0085 -0.2513
 1309BOLB   C4C31412   8.402  18.391   9.734 -0.1875 -0.0978  0.1680
 1309BOLB   C1D31413   8.386  18.350   9.086  0.3783  0.3137 -0.1062
 1309BOLB   C2D31414   8.463  18.081   9.347 -0.4297  0.0549 -0.0644
 1309BOLB   C3D31415   8.591  17.757   9.658 -0.2273 -0.1832  0.1345
 1309BOLB   C4D31416   8.765  17.394   9.887 -0.0458  0.0007  0.2400
 1310BOLB   NC131417  20.137  10.150  13.841  0.0501 -0.0564  0.1695
 1310BOLB   PO131418  19.719   9.973  13.792  0.2119 -0.0972 -0.0296
 1310BOLB   GL131419  19.916  10.004  13.360  0.5055 -0.1546 -0.4400
 1310BOLB   GL231420  20.171   9.839  13.518 -0.1051 -0.2010 -0.0470
 1310BOLB   C1A31421  19.906   9.701  12.993 -0.0987  0.1154  0.0117
 1310BOLB   C2A31422  19.922   9.225  12.764  0.0534 -0.0688 -0.1714
 1310BOLB   C3A31423  20.059   8.927  12.426  0.0524 -0.1765  0.2744
 1310BOLB   C4A31424  20.051   8.791  11.968 -0.1144  0.3173  0.0363
 1310BOLB   C1B31425  20.105   9.381  13.341  0.1176  0.0119  0.0076
 1310BOLB   C2B31426  20.334   9.078  13.135  0.0930 -0.2187 -0.0256
 1310BOLB   C3B31427  20.461   9.086  12.733 -0.3660  0.3020  0.0646
 1310BOLB   C4B31428  20.522   9.139  12.353 -0.2822 -0.2306 -0.1726
 1310BOLB   NC231429  20.009   7.115   9.785 -0.0974 -0.0597 -0.0525
 1310BOLB   PO231430  19.834   7.178  10.227  0.2146  0.0325  0.2996
 1310BOLB   GL331431  19.604   7.326  10.570 -0.1449 -0.1316  0.0358
 1310BOLB   GL431432  19.445   7.092  10.814 -0.1071  0.0614  0.0008
 1310BOLB   C1C31433  19.653   7.673  10.885 -0.0078  0.1610 -0.1067
 1310BOLB   C2C31434  19.845   7.887  11.013 -0.1243 -0.2710 -0.0324
 1310BOLB   C3C31435  19.796   8.289  11.198  0.1738  0.0106  0.0893
 1310BOLB   C4C31436  19.980   8.498  11.615  0.3980 -0.1328 -0.1702
 1310BOLB   C1D31437  19.456   7.347  11.158 -0.0459 -0.1447 -0.2529
 1310BOLB   C2D31438  19.654   7.660  11.495 -0.1857  0.1005  0.2053
 1310BOLB   C3D31439  19.728   8.022  11.660 -0.0407  0.4683  0.0740
 1310BOLB   C4D31440  19.765   8.240  12.001  0.2201  0.0683 -0.0562
 1311BOLB   NC131441  12.678  19.291  11.411  0.1578  0.2947  0.1890
 1311BOLB   PO131442  12.842  19.671  11.363 -0.1306  0.3304 -0.1103
 1311BOLB   GL131443  12.654  19.752  11.046 -0.1521  0.0300  0.1621
 1311BOLB   GL231444  12.442  19.507  11.007 -0.1918 -0.0577 -0.0190
 1311BOLB   C1A31445  12.716  19.789  10.629 -0.5440  0.2496  0.0534
 1311BOLB   C2A31446  12.598  19.697  10.185  0.1236  0.3922  0.1001
 1311BOLB   C3A31447  12.606  19.615   9.693 -0.1403  0.4500 -0.0274
 1311BOLB   C4A31448  12.360  19.536   9.299 -0.2711 -0.0342 -0.1061
 1311BOLB   C1B31449  12.097  19.700  10.775 -0.0599  0.0708 -0.0187
 1311BOLB   C2B31450  12.140  19.678  10.375 -0.1863  0.0713 -0.1372
 1311BOLB   C3B31451  12.154  19.542  10.014 -0.1107  0.2705 -0.0535
 1311BOLB   C4B31452  12.107  19.099   9.762 -0.0297 -0.3055  0.1693
 1311BOLB   NC231453  11.840  18.818   7.058 -0.2539 -0.3070  0.1073
 1311BOLB   PO231454  11.709  18.982   7.374  0.1402  0.3592  0.2094
 1311BOLB   GL331455  11.733  18.963   7.795  0.0300  0.3625  0.0122
 1311BOLB   GL431456  11.457  19.059   8.071 -0.1268 -0.0260  0.4647
 1311BOLB   C1C31457  11.828  18.853   8.258 -0.0077  0.2275 -0.1136
 1311BOLB   C2C31458  11.855  19.043   8.650 -0.0427  0.0622 -0.3626
 1311BOLB   C3C31459  11.754  19.411   8.889  0.1225 -0.2645 -0.0199
 1311BOLB   C4C31460  12.005  19.380   9.347  0.1384 -0.3766  0.2145
 1311BOLB   C1D31461  11.247  19.012   8.394 -0.1169 -0.0081  0.0896
 1311BOLB   C2D31462  11.379  19.103   8.741 -0.0100  0.2000 -0.1792
 1311BOLB   C3D31463  11.276  19.340   9.021  0.0242  0.1029  0.0331
 1311BOLB   C4D31464  11.003  19.682   8.999 -0.0377  0.3106 -0.2728
 1312BOLB   NC131465  10.765  20.792  11.823 -0.4101 -0.4098 -0.2454
 1312BOLB   PO131466  11.318  20.779  11.767  0.1426 -0.0907 -0.0911
 1312BOLB   GL131467  11.150  21.214  11.783  0.2345 -0.1579 -0.0577
 1312BOLB   GL231468  11.346  21.413  11.742 -0.2320 -0.1392  0.1735
 1312BOLB   C1A31469  10.882  21.479  11.506 -0.0058 -0.1821  0.1191
 1312BOLB   C2A31470  10.732  21.501  11.068  0.1938 -0.0501 -0.0232
 1312BOLB   C3A31471  10.769  21.456  10.615  0.1932  0.0282  0.5328
 1312BOLB   C4A31472  10.835  21.525  10.159 -0.1728 -0.0794 -0.3766
 1312BOLB   C1B31473  11.343  21.229  11.333  0.1043  0.1675  0.0234
 1312BOLB   C2B31474  11.202  21.012  11.035  0.1825 -0.1145  0.1113
 1312BOLB   C3B31475  11.146  21.131  10.645 -0.1143  0.3368 -0.1880
 1312BOLB   C4B31476  11.119  21.170  10.258 -0.1076  0.1689  0.0352
 1312BOLB   NC231477  11.289  22.682   7.629  0.2834  0.2202  0.1086
 1312BOLB   PO231478  11.312  22.228   7.825 -0.2518  0.0327  0.0691
 1312BOLB   GL331479  11.084  22.220   8.261 -0.0907 -0.2875  0.2336
 1312BOLB   GL431480  10.849  21.984   8.281 -0.2880 -0.0611 -0.0114
 1312BOLB   C1C31481  11.140  22.073   8.754  0.1623 -0.1385  0.0889
 1312BOLB   C2C31482  10.984  21.922   9.123  0.2643 -0.0197 -0.0366
 1312BOLB   C3C31483  11.122  21.695   9.480  0.1154  0.2137 -0.1179
 1312BOLB   C4C31484  10.928  21.746   9.849  0.1546 -0.0828 -0.0189
 1312BOLB   C1D31485  10.979  21.581   8.532  0.0544 -0.0261 -0.0321
 1312BOLB   C2D31486  11.218  21.451   8.832 -0.0555  0.1473 -0.0459
 1312BOLB   C3D31487  11.445  21.505   9.180 -0.1897 -0.2360 -0.0047
 1312BOLB   C4D31488  11.673  21.452   9.571  0.3873  0.0194  0.1279
 1313BOLB   NC131489  21.078  15.425  12.557  0.1923 -0.1939 -0.3575
 1313BOLB   PO131490  21.103  14.971  12.395 -0.0428  0.0658 -0.2077
 1313BOLB   GL131491  21.375  14.865  12.159  0.2706 -0.0444  0.0628
 1313BOLB   GL231492  21.137  14.672  11.981 -0.1058  0.3171 -0.0217
 1313BOLB   C1A31493  21.536  14.673  11.744  0.2294 -0.2212 -0.2494
 1313BOLB   C2A31494  21.905  14.443  11.509  0.1185 -0.0001  0.0281
 1313BOLB   C3A31495  22.143  14.413  11.097 -0.2081  0.1784  0.1320
 1313BOLB   C4A31496  22.491  14.340  10.885  0.2438 -0.0422  0.1631
 1313BOLB   C1B31497  21.004  14.578  11.597 -0.1502 -0.1801  0.1436
 1313BOLB   C2B31498  21.176  14.537  11.165  0.2142 -0.1310  0.1655
 1313BOLB   C3B31499  20.975  14.395  10.750  0.0710  0.1891 -0.1588
 1313BOLB   C4B31500  20.903  14.264  10.342  0.2394 -0.4215  0.2028
 1313BOLB   NC231501  23.170  13.794   9.215  0.0485 -0.1298 -0.0877
 1313BOLB   PO231502  22.867  13.586   9.075  0.0710  0.0312 -0.1852
 1313BOLB   GL331503  22.808  13.707   9.471  0.0306 -0.2994  0.0082
 1313BOLB   GL431504  22.505  13.733   9.526 -0.0189 -0.2070 -0.1586
 1313BOLB   C1C31505  22.907  14.099   9.676 -0.1010  0.2578 -0.0675
 1313BOLB   C2C31506  23.056  14.256   9.995  0.3712  0.0843 -0.1698
 1313BOLB   C3C31507  22.939  14.440  10.347  0.1078 -0.3920 -0.1171
 1313BOLB   C4C31508  22.830  14.383  10.717 -0.1302  0.1273  0.1336
 1313BOLB   C1D31509  22.372  14.111   9.506 -0.1602 -0.2409  0.1328
 1313BOLB   C2D31510  22.068  14.372   9.677 -0.1178 -0.2384  0.1083
 1313BOLB   C3D31511  22.148  14.628  10.059 -0.0514  0.2261 -0.2833
 1313BOLB   C4D31512  22.479  14.625  10.299 -0.2233  0.1006  0.3126
 1314BOLB   NC131513  22.508  15.341  13.663 -0.0306  0.2148 -0.1232
 1314BOLB   PO131514  22.873  15.154  13.882 -0.3692  0.1615 -0.2018
 1314BOLB   GL131515  23.097  14.959  13.547 -0.0077 -0.1157  0.3376
 1314BOLB   GL231516  23.178  14.691  13.596  0.2220 -0.0830 -0.4299
 1314BOLB   C1A31517  23.125  15.008  13.063  0.0756  0.3290 -0.0871
 1314BOLB   C2A31518  23.436  15.190  12.915  0.0060  0.1239 -0.0973
 1314BOLB   C3A31519  23.698  15.052  12.559  0.0975  0.1082  0.0843
 1314BOLB   C4A31520  24.108  14.933  12.281  0.0893 -0.1447  0.0184
 1314BOLB   C1B31521  23.515  14.674  13.303  0.0563 -0.1702 -0.4341
 1314BOLB   C2B31522  23.817  14.340  13.185  0.0327 -0.2547  0.1908
 1314BOLB   C3B31523  23.757  14.210  12.798 -0.0749  0.2000 -0.0048
 1314BOLB   C4B31524  23.902  14.588  12.668  0.1363 -0.2462  0.1578
 1314BOLB   NC231525  24.798  14.294  10.287  0.2210 -0.0236 -0.1676
 1314BOLB   PO231526  24.501  14.297   9.885  0.2175 -0.2557 -0.0648
 1314BOLB   GL331527  24.250  14.103  10.291 -0.3799 -0.0586  0.0700
 1314BOLB   GL431528  23.950  13.918  10.189  0.1239  0.3170 -0.0341
 1314BOLB   C1C31529  24.226  14.145  10.836 -0.1749  0.1803  0.1999
 1314BOLB   C2C31530  24.411  14.202  11.216 -0.1854 -0.0603  0.0017
 1314BOLB   C3C31531  24.363  14.459  11.591  0.0273 -0.0069  0.0817
 1314BOLB   C4C31532  24.352  14.719  11.998  0.1188  0.1603 -0.2971
 1314BOLB   C1D31533  23.850  13.877  10.593  0.2289 -0.2931 -0.1644
 1314BOLB   C2D31534  24.007  13.724  11.006 -0.0772 -0.1002  0.0062
 1314BOLB   C3D31535  24.009  13.945  11.381 -0.2161  0.1081 -0.3422
 1314BOLB   C4D31536  24.149  14.128  11.840 -0.2070 -0.0505 -0.2986
 1315BOLB   NC131537  15.370  20.461  11.437  0.0920  0.1574  0.1649
 1315BOLB   PO131538  15.595  20.797  11.357 -0.0502  0.1151 -0.1935
 1315BOLB   GL131539  15.444  21.006  10.977 -0.2767 -0.3613  0.0535
 1315BOLB   GL231540  15.659  21.272  11.095 -0.3350  0.0712 -0.0757
 1315BOLB   C1A31541  15.589  20.975  10.602 -0.0802 -0.2173 -0.0251
 1315BOLB   C2A31542  15.545  21.295  10.207  0.4924 -0.0871 -0.1939
 1315BOLB   C3A31543  15.825  21.290   9.845 -0.0362  0.2167 -0.1650
 1315BOLB   C4A31544  16.095  21.553   9.544  0.1596 -0.3410  0.3111
 1315BOLB   C1B31545  15.636  21.546  10.715  0.0052 -0.0492  0.0350
 1315BOLB   C2B31546  15.932  21.704  10.402  0.0707  0.1030  0.0961
 1315BOLB   C3B31547  16.023  21.736  10.006  0.1766 -0.2029  0.0960
 1315BOLB   C4B31548  16.409  21.936   9.685  0.1643 -0.0285 -0.1136
 1315BOLB   NC231549  17.472  21.588   7.236  0.4932 -0.1146  0.0037
 1315BOLB   PO231550  17.654  21.790   7.648  0.0982 -0.2032  0.0854
 1315BOLB   GL331551  17.630  21.578   7.969  0.1414  0.0912  0.0175
 1315BOLB   GL431552  17.883  21.648   8.113 -0.3727  0.0081 -0.1989
 1315BOLB   C1C31553  17.404  21.624   8.375  0.0890 -0.1363 -0.0467
 1315BOLB   C2C31554  17.140  21.462   8.726  0.1266  0.0522  0.0697
 1315BOLB   C3C31555  16.842  21.585   8.967  0.2017 -0.0749 -0.3381
 1315BOLB   C4C31556  16.477  21.521   9.363  0.0725 -0.0238  0.2353
 1315BOLB   C1D31557  17.868  21.341   8.407  0.0481  0.3426  0.1103
 1315BOLB   C2D31558  17.965  21.211   8.786  0.0436 -0.2102  0.2216
 1315BOLB   C3D31559  18.116  20.869   9.112  0.1030 -0.2318  0.3365
 1315BOLB   C4D31560  18.242  20.631   9.499 -0.0891 -0.0303  0.2731
 1316BOLB   NC131561  19.982  16.660  12.026 -0.1790 -0.2891 -0.1083
 1316BOLB   PO131562  19.590  16.661  11.914  0.2920  0.0889 -0.2958
 1316BOLB   GL131563  19.665  16.739  11.411 -0.1441  0.3912 -0.1269
 1316BOLB   GL231564  19.524  16.909  11.247 -0.2377  0.1212 -0.0423
 1316BOLB   C1A31565  19.873  16.769  10.930 -0.0287  0.0197  0.1543
 1316BOLB   C2A31566  20.016  16.938  10.558  0.2006  0.2003 -0.0408
 1316BOLB   C3A31567  20.194  16.911  10.201 -0.2075 -0.0900 -0.1605
 1316BOLB   C4A31568  20.467  16.775   9.903  0.0333 -0.2532  0.2121
 1316BOLB   C1B31569  19.362  17.112  10.811  0.1854 -0.1095 -0.0633
 1316BOLB   C2B31570  19.603  17.327  10.708  0.1386 -0.2356 -0.1048
 1316BOLB   C3B31571  19.930  17.621  10.633 -0.0419 -0.1589 -0.1421
 1316BOLB   C4B31572  20.093  17.777  10.285  0.0831 -0.1106 -0.0864
 1316BOLB   NC231573  22.246  16.683   8.128  0.0417 -0.2255  0.0268
 1316BOLB   PO231574  22.339  16.676   8.618 -0.0413 -0.2861  0.0442
 1316BOLB   GL331575  22.123  16.857   8.890 -0.0373 -0.0552 -0.1186
 1316BOLB   GL431576  22.083  17.185   9.069 -0.2120  0.2894 -0.2137
 1316BOLB   C1C31577  21.910  16.569   9.190  0.3305  0.2106 -0.2680
 1316BOLB   C2C31578  21.724  16.694   9.510 -0.0715  0.1266 -0.1153
 1316BOLB   C3C31579  21.345  16.491   9.707 -0.0955  0.1276  0.0090
 1316BOLB   C4C31580  20.874  16.424   9.805  0.1078 -0.1805 -0.1082
 1316BOLB   C1D31581  21.933  17.376   9.373  0.2191 -0.2297 -0.2145
 1316BOLB   C2D31582  21.558  17.245   9.497 -0.0720  0.0189  0.0465
 1316BOLB   C3D31583  21.327  17.431   9.731  0.0856 -0.1576  0.0814
 1316BOLB   C4D31584  21.023  17.716   9.733  0.0379 -0.0344  0.0556
 1317BOLB   NC131585  13.687  18.182  11.438 -0.1337  0.2577  0.2007
 1317BOLB   PO131586  13.823  17.824  11.300 -0.1714  0.2421 -0.0450
 1317BOLB   GL131587  13.884  17.945  10.889 -0.2034  0.1408 -0.2210
 1317BOLB   GL231588  13.985  17.679  10.654 -0.3093  0.3477  0.3295
 1317BOLB   C1A31589  13.846  18.151  10.582 -0.0961  0.1315 -0.1826
 1317BOLB   C2A31590  13.944  18.264  10.052 -0.0791 -0.3207  0.1931
 1317BOLB   C3A31591  13.878  18.303   9.549 -0.0384  0.1567  0.3024
 1317BOLB   C4A31592  13.778  18.278   9.049 -0.0580 -0.2690  0.0488
 1317BOLB   C1B31593  14.211  17.869  10.285 -0.1710 -0.0620  0.1827
 1317BOLB   C2B31594  14.369  18.107   9.851  0.1231 -0.0690 -0.0227
 1317BOLB   C3B31595  14.345  18.032   9.430  0.0466  0.2351 -0.1171
 1317BOLB   C4B31596  14.276  18.124   8.966  0.1105  0.2602 -0.0442
 1317BOLB   NC231597  13.168  17.793   6.670  0.2636  0.2586 -0.3457
 1317BOLB   PO231598  13.748  17.936   6.753 -0.0048  0.2769  0.0392
 1317BOLB   GL331599  13.688  18.036   7.165  0.0140 -0.0645  0.1651
 1317BOLB   GL431600  13.535  17.809   7.196  0.1824 -0.3108 -0.1571
 1317BOLB   C1C31601  13.904  18.260   7.513 -0.1616 -0.0911  0.1656
 1317BOLB   C2C31602  14.101  18.417   7.939  0.1001  0.0966  0.3578
 1317BOLB   C3C31603  13.932  18.403   8.288 -0.1557  0.2346 -0.3368
 1317BOLB   C4C31604  13.903  18.366   8.712  0.0122 -0.0637 -0.0324
 1317BOLB   C1D31605  13.721  17.694   7.559 -0.5171  0.5045 -0.0551
 1317BOLB   C2D31606  13.762  17.615   8.039  0.0494  0.0765  0.1438
 1317BOLB   C3D31607  13.510  17.648   8.451 -0.1836  0.1832  0.0746
 1317BOLB   C4D31608  13.237  17.791   8.677  0.1269 -0.1626 -0.0283
 1318BOLB   NC131609  22.131  10.402  14.354  0.3203 -0.3375  0.0145
 1318BOLB   PO131610  22.285  10.654  13.973  0.2230 -0.3621 -0.0208
 1318BOLB   GL131611  22.382  10.699  13.638 -0.1318  0.0463 -0.0112
 1318BOLB   GL231612  22.683  10.439  13.679  0.1621 -0.0105  0.0915
 1318BOLB   C1A31613  22.556  10.679  13.292 -0.1053 -0.3313  0.5076
 1318BOLB   C2A31614  22.753  10.590  12.839 -0.2612  0.2386  0.1183
 1318BOLB   C3A31615  22.795  10.307  12.488 -0.3087 -0.0329  0.3513
 1318BOLB   C4A31616  22.799  10.280  12.113 -0.1228  0.1667  0.0986
 1318BOLB   C1B31617  23.035  10.764  13.390 -0.2165  0.2594  0.2531
 1318BOLB   C2B31618  23.357  10.796  13.123 -0.2087  0.1360  0.0073
 1318BOLB   C3B31619  23.233  10.782  12.717 -0.4620  0.0577  0.2106
 1318BOLB   C4B31620  23.198  10.746  12.252  0.1298 -0.1373 -0.1325
 1318BOLB   NC231621  23.089  10.180  10.414 -0.1765  0.1616 -0.3365
 1318BOLB   PO231622  23.020  10.233  10.028 -0.0154  0.0495  0.1761
 1318BOLB   GL331623  22.725  10.446  10.188 -0.0596  0.0342  0.0197
 1318BOLB   GL431624  22.559  10.868  10.265  0.1610 -0.0274 -0.4298
 1318BOLB   C1C31625  22.567  10.467  10.655  0.2556  0.1586 -0.0484
 1318BOLB   C2C31626  22.618  10.533  10.967  0.1146 -0.1347 -0.1000
 1318BOLB   C3C31627  22.696  10.324  11.326  0.1097  0.0281  0.2119
 1318BOLB   C4C31628  22.726  10.154  11.710  0.4651 -0.3143 -0.1036
 1318BOLB   C1D31629  22.738  11.199  10.149  0.3861  0.3601  0.2384
 1318BOLB   C2D31630  22.723  11.555  10.258  0.1180  0.0021 -0.0241
 1318BOLB   C3D31631  22.619  11.874  10.423  0.0185  0.2489 -0.1560
 1318BOLB   C4D31632  22.224  12.247  10.505  0.0201  0.1449 -0.1199
 1319BOLB   NC131633  10.070   6.112  11.308 -0.0012  0.1063 -0.2466
 1319BOLB   PO131634   9.954   6.619  11.428 -0.1917 -0.2658  0.3242
 1319BOLB   GL131635  10.312   6.704  11.241  0.1025  0.2052 -0.2617
 1319BOLB   GL231636  10.509   6.703  11.401 -0.0348 -0.0690  0.3867
 1319BOLB   C1A31637  10.491   6.872  10.923 -0.0017 -0.1209  0.2227
 1319BOLB   C2A31638  10.715   7.130  10.837  0.0410 -0.0392 -0.1218
 1319BOLB   C3A31639  10.781   7.608  10.760 -0.0062  0.2812 -0.1062
 1319BOLB   C4A31640  10.892   7.844  10.498  0.0773 -0.0893 -0.0404
 1319BOLB   C1B31641  10.839   6.542  11.195 -0.1193  0.1165  0.0775
 1319BOLB   C2B31642  11.239   6.518  11.072  0.0996  0.0456 -0.1757
 1319BOLB   C3B31643  11.517   6.425  10.680  0.0478 -0.2217 -0.2547
 1319BOLB   C4B31644  11.929   6.520  10.613 -0.1866 -0.0749  0.1821
 1319BOLB   NC231645  10.209   8.040   8.035 -0.1314  0.0804 -0.3334
 1319BOLB   PO231646  10.400   8.343   8.089 -0.2360  0.0038 -0.1462
 1319BOLB   GL331647  10.662   8.070   8.332  0.2319  0.2197 -0.1996
 1319BOLB   GL431648  11.043   8.195   8.245 -0.0397 -0.6951  0.1346
 1319BOLB   C1C31649  10.759   7.923   8.799  0.2424 -0.3134 -0.3323
 1319BOLB   C2C31650  10.807   7.916   9.307 -0.1037  0.0269 -0.3127
 1319BOLB   C3C31651  10.776   7.905   9.761  0.1937  0.2827  0.1484
 1319BOLB   C4C31652  10.835   8.030  10.228 -0.0999  0.3849  0.2546
 1319BOLB   C1D31653  11.204   8.205   8.651 -0.0896  0.2446  0.2281
 1319BOLB   C2D31654  11.163   8.134   9.015  0.0619 -0.1274 -0.0755
 1319BOLB   C3D31655  11.240   8.091   9.446  0.0884  0.4176  0.1617
 1319BOLB   C4D31656  11.205   7.957   9.914 -0.0236 -0.0278  0.2558
 1320BOLB   NC131657  12.735  11.869  12.121  0.0370  0.0112  0.0706
 1320BOLB   PO131658  12.945  11.784  11.713 -0.1813  0.1326 -0.1776
 1320BOLB   GL131659  12.904  12.103  11.424  0.3900 -0.1769 -0.3047
 1320BOLB   GL231660  12.677  11.984  11.133 -0.2467 -0.0880 -0.0490
 1320BOLB   C1A31661  13.059  12.294  10.989  0.2113  0.1717  0.0533
 1320BOLB   C2A31662  13.156  12.170  10.623  0.0962  0.4822 -0.3418
 1320BOLB   C3A31663  13.255  11.982  10.251  0.4052  0.1367  0.0460
 1320BOLB   C4A31664  13.408  12.050   9.902  0.2533  0.3169 -0.0364
 1320BOLB   C1B31665  12.652  11.595  10.981  0.0855 -0.0085  0.2219
 1320BOLB   C2B31666  12.744  11.281  10.624 -0.2764 -0.0534  0.1930
 1320BOLB   C3B31667  12.941  11.211  10.232  0.2553  0.4368  0.0315
 1320BOLB   C4B31668  12.695  10.987   9.839  0.0172 -0.2389  0.2186
 1320BOLB   NC231669  13.018  11.209   7.661 -0.1077  0.0287  0.1132
 1320BOLB   PO231670  13.256  11.613   7.584 -0.0474 -0.1548 -0.2139
 1320BOLB   GL331671  13.395  11.765   7.891  0.1710  0.0498 -0.1538
 1320BOLB   GL431672  13.734  11.737   8.040 -0.3241 -0.1389 -0.0931
 1320BOLB   C1C31673  13.155  11.821   8.309  0.0149 -0.3019 -0.0403
 1320BOLB   C2C31674  13.253  11.949   8.751  0.0335 -0.1406  0.0132
 1320BOLB   C3C31675  13.145  11.812   9.236 -0.2659 -0.1960 -0.0339
 1320BOLB   C4C31676  13.260  12.065   9.482 -0.0474 -0.3973  0.0625
 1320BOLB   C1D31677  13.729  11.520   8.421  0.0587  0.1167 -0.3331
 1320BOLB   C2D31678  13.627  11.347   8.770 -0.0896 -0.2058  0.1615
 1320BOLB   C3D31679  13.632  11.087   9.194 -0.3243  0.0590  0.3216
 1320BOLB   C4D31680  13.735  11.071   9.611 -0.1765  0.0301 -0.0463
 1321BOLB   NC131681  15.081  18.864  11.167  0.2290 -0.0097  0.4879
 1321BOLB   PO131682  15.026  19.340  11.165 -0.0056 -0.0665 -0.3821
 1321BOLB   GL131683  15.065  19.707  10.838 -0.1662 -0.0986  0.1790
 1321BOLB   GL231684  14.750  19.973  10.767 -0.0290  0.0961 -0.0395
 1321BOLB   C1A31685  15.151  19.732  10.330 -0.3225  0.1676 -0.2487
 1321BOLB   C2A31686  15.069  19.746   9.886  0.4600  0.4401  0.2610
 1321BOLB   C3A31687  15.100  19.596   9.479  0.0917  0.1602 -0.1584
 1321BOLB   C4A31688  15.354  19.467   9.166  0.0899 -0.0575 -0.0361
 1321BOLB   C1B31689  14.577  20.318  10.393 -0.2362  0.0452  0.3719
 1321BOLB   C2B31690  14.720  20.543   9.903  0.2211  0.2077 -0.0233
 1321BOLB   C3B31691  14.499  20.811   9.643 -0.0100  0.0160  0.3253
 1321BOLB   C4B31692  14.249  21.120   9.544  0.2541  0.0499  0.1284
 1321BOLB   NC231693  15.103  19.990   6.693  0.1210  0.0523  0.0009
 1321BOLB   PO231694  15.382  19.772   7.054  0.0064 -0.1104  0.0689
 1321BOLB   GL331695  15.188  19.560   7.379 -0.0447 -0.2391  0.1315
 1321BOLB   GL431696  15.022  19.190   7.236 -0.0977 -0.1955  0.1245
 1321BOLB   C1C31697  15.202  19.398   7.722  0.1943 -0.0442  0.1018
 1321BOLB   C2C31698  15.164  19.240   8.209  0.0729 -0.0173 -0.1346
 1321BOLB   C3C31699  15.407  19.039   8.498 -0.0133  0.1174  0.1648
 1321BOLB   C4C31700  15.452  19.267   8.816  0.1842  0.1527  0.0970
 1321BOLB   C1D31701  14.741  19.130   7.607  0.0446  0.1513  0.2130
 1321BOLB   C2D31702  14.519  19.212   7.880 -0.0487 -0.0762 -0.1878
 1321BOLB   C3D31703  14.242  19.182   8.219  0.4326 -0.1269  0.2439
 1321BOLB   C4D31704  14.117  18.990   8.601  0.2281  0.0110 -0.1254
 1322BOLB   NC131705  19.701   9.115  15.332 -0.0128  0.2152  0.1328
 1322BOLB   PO131706  19.884   8.796  15.156 -0.3155 -0.2497 -0.2363
 1322BOLB   GL131707  19.937   8.517  14.893  0.1070 -0.0625 -0.0701
 1322BOLB   GL231708  19.928   8.584  14.593  0.0557  0.3312 -0.0741
 1322BOLB   C1A31709  20.149   8.063  14.872 -0.2883 -0.0300 -0.1626
 1322BOLB   C2A31710  20.277   7.719  14.591  0.4203 -0.0642  0.1318
 1322BOLB   C3A31711  20.442   7.668  14.225  0.1345 -0.2724  0.4463
 1322BOLB   C4A31712  20.643   7.652  13.884 -0.0666 -0.2667  0.0307
 1322BOLB   C1B31713  19.622   8.429  14.259 -0.1018 -0.3655  0.0797
 1322BOLB   C2B31714  19.541   8.192  13.942  0.1154 -0.1929  0.3934
 1322BOLB   C3B31715  19.445   8.112  13.502 -0.1980 -0.2655  0.1094
 1322BOLB   C4B31716  19.123   7.936  13.251 -0.1645 -0.0326  0.1814
 1322BOLB   NC231717  21.873   7.072  11.626 -0.0948 -0.0320 -0.0624
 1322BOLB   PO231718  22.165   7.064  11.981  0.1806 -0.0508  0.2515
 1322BOLB   GL331719  21.848   7.256  12.360 -0.1520  0.1958 -0.0791
 1322BOLB   GL431720  21.661   7.086  12.606  0.1204  0.0555 -0.1508
 1322BOLB   C1C31721  21.820   7.538  12.653  0.0813 -0.0853 -0.1115
 1322BOLB   C2C31722  21.598   7.740  12.958  0.0147  0.5219 -0.2080
 1322BOLB   C3C31723  21.283   7.742  13.289  0.0242 -0.2036 -0.0223
 1322BOLB   C4C31724  20.984   7.578  13.551 -0.1378  0.0606 -0.0622
 1322BOLB   C1D31725  21.417   7.229  12.928  0.1230  0.0052 -0.2156
 1322BOLB   C2D31726  21.243   7.153  13.388 -0.1876  0.0183 -0.0149
 1322BOLB   C3D31727  21.457   7.084  13.679  0.1644 -0.1077 -0.1299
 1322BOLB   C4D31728  21.769   6.751  13.804 -0.6011 -0.1079 -0.3783
 1323BOLB   NC131729  14.462   9.337  12.541  0.0375 -0.1156  0.1020
 1323BOLB   PO131730  14.693   9.083  12.327 -0.3323 -0.1000  0.1307
 1323BOLB   GL131731  14.870   8.831  12.029 -0.5519  0.0284  0.3270
 1323BOLB   GL231732  15.140   8.656  12.019 -0.1387  0.0746 -0.0308
 1323BOLB   C1A31733  14.954   8.862  11.591 -0.1608  0.0580  0.1365
 1323BOLB   C2A31734  14.864   8.915  11.163  0.2716 -0.3248  0.0613
 1323BOLB   C3A31735  15.081   9.038  10.850 -0.1153  0.1234  0.0748
 1323BOLB   C4A31736  15.101   8.873  10.435 -0.2384 -0.0864 -0.0478
 1323BOLB   C1B31737  15.304   8.343  11.736  0.2156 -0.1443  0.1801
 1323BOLB   C2B31738  15.454   8.316  11.361  0.1431 -0.3026  0.0248
 1323BOLB   C3B31739  15.688   8.130  10.921 -0.3367  0.0226 -0.1674
 1323BOLB   C4B31740  15.595   8.128  10.518 -0.2458 -0.1128  0.4274
 1323BOLB   NC231741  16.166   8.185   8.118  0.2628  0.1631  0.1909
 1323BOLB   PO231742  15.889   8.519   8.197 -0.2406  0.1793  0.1007
 1323BOLB   GL331743  15.596   8.431   8.409 -0.2430 -0.5211 -0.0516
 1323BOLB   GL431744  15.743   8.207   8.602 -0.1831  0.2929  0.1936
 1323BOLB   C1C31745  15.339   8.390   8.772 -0.3682 -0.1899 -0.0295
 1323BOLB   C2C31746  15.203   8.329   9.184 -0.2224 -0.1316 -0.1352
 1323BOLB   C3C31747  14.964   8.425   9.587 -0.1056 -0.1485 -0.0150
 1323BOLB   C4C31748  14.882   8.546  10.062  0.0667 -0.1986  0.0110
 1323BOLB   C1D31749  15.875   8.491   8.928  0.0687  0.1205  0.0260
 1323BOLB   C2D31750  15.703   8.474   9.295 -0.3281  0.0010  0.1227
 1323BOLB   C3D31751  15.474   8.493   9.637 -0.3080 -0.1526 -0.1012
 1323BOLB   C4D31752  15.443   8.332  10.037  0.0326 -0.1435  0.0660
 1324BOLB   NC131753  19.046  18.861  11.851  0.0846 -0.2465 -0.0041
 1324BOLB   PO131754  18.920  18.555  11.818 -0.2320  0.0752  0.3010
 1324BOLB   GL131755  18.825  18.759  11.375  0.0010  0.2057 -0.0978
 1324BOLB   GL231756  18.791  19.151  11.248  0.1928  0.1077  0.2654
 1324BOLB   C1A31757  18.645  18.713  11.023 -0.2208 -0.1882  0.1088
 1324BOLB   C2A31758  18.791  18.817  10.513 -0.0087  0.2609  0.1751
 1324BOLB   C3A31759  18.802  18.624  10.111  0.0764  0.1090 -0.1238
 1324BOLB   C4A31760  19.070  18.630   9.827  0.1691 -0.0600  0.1330
 1324BOLB   C1B31761  18.946  19.217  10.812  0.0143  0.2563 -0.0008
 1324BOLB   C2B31762  18.868  19.283  10.345  0.5259  0.2389  0.0557
 1324BOLB   C3B31763  19.234  19.575  10.015 -0.0537 -0.1714  0.1074
 1324BOLB   C4B31764  19.544  19.616   9.625  0.1404  0.1557 -0.0987
 1324BOLB   NC231765  19.156  19.088   6.936 -0.2344 -0.3030 -0.4503
 1324BOLB   PO231766  18.862  19.214   7.237  0.0217  0.1404 -0.0109
 1324BOLB   GL331767  18.821  19.302   7.745  0.3546 -0.2350  0.0076
 1324BOLB   GL431768  18.949  19.564   7.735  0.1540 -0.2285 -0.0724
 1324BOLB   C1C31769  18.867  19.312   8.224  0.1453 -0.1056  0.2882
 1324BOLB   C2C31770  18.949  19.245   8.660 -0.0270  0.2987 -0.0538
 1324BOLB   C3C31771  18.957  18.833   8.967 -0.0485 -0.0703 -0.2087
 1324BOLB   C4C31772  19.159  18.725   9.347 -0.0208  0.0893 -0.3179
 1324BOLB   C1D31773  18.851  19.784   8.124  0.1332  0.0511 -0.1542
 1324BOLB   C2D31774  18.748  19.895   8.585 -0.0102 -0.1504 -0.0269
 1324BOLB   C3D31775  18.789  19.631   9.013 -0.2135 -0.1439 -0.2899
 1324BOLB   C4D31776  18.517  19.522   9.411 -0.3715 -0.0893  0.0860
 1325BOLB   NC131777  19.231  14.065  12.204 -0.0344  0.0219  0.0673
 1325BOLB   PO131778  19.232  13.993  11.821  0.0673 -0.1049  0.0312
 1325BOLB   GL131779  19.218  13.778  11.458 -0.0652 -0.3776 -0.0653
 1325BOLB   GL231780  19.013  13.929  11.180 -0.1610  0.1729  0.0544
 1325BOLB   C1A31781  19.308  13.430  11.200  0.0256  0.3192 -0.1403
 1325BOLB   C2A31782  19.327  13.318  10.808 -0.0921  0.1057  0.0339
 1325BOLB   C3A31783  19.367  13.106  10.436 -0.0359  0.0526 -0.2211
 1325BOLB   C4A31784  19.605  12.921  10.036 -0.0019  0.0059 -0.0470
 1325BOLB   C1B31785  19.398  13.834  10.947 -0.0654 -0.2761  0.2027
 1325BOLB   C2B31786  19.578  13.788  10.507  0.1238  0.1690 -0.2949
 1325BOLB   C3B31787  19.688  13.513  10.129 -0.1176  0.2288 -0.1209
 1325BOLB   C4B31788  20.011  13.361   9.919 -0.1708 -0.0710 -0.0335
 1325BOLB   NC231789  19.380  12.291   7.767 -0.0481  0.0061 -0.0286
 1325BOLB   PO231790  19.722  12.521   7.717 -0.2734  0.2902  0.0343
 1325BOLB   GL331791  19.699  12.574   8.080 -0.2116 -0.0009 -0.2379
 1325BOLB   GL431792  19.916  12.723   8.418 -0.1220 -0.0991 -0.5154
 1325BOLB   C1C31793  19.435  12.720   8.486  0.4177 -0.1329  0.4885
 1325BOLB   C2C31794  19.542  12.727   8.859 -0.1421  0.0364 -0.1135
 1325BOLB   C3C31795  19.759  12.868   9.221 -0.1086  0.1441  0.0871
 1325BOLB   C4C31796  19.723  13.082   9.581 -0.0110  0.1911  0.1245
 1325BOLB   C1D31797  20.162  13.063   8.692  0.1977  0.1191 -0.1886
 1325BOLB   C2D31798  20.193  13.223   9.109  0.2370 -0.1023  0.1207
 1325BOLB   C3D31799  20.263  13.421   9.520  0.1338 -0.1512  0.2232
 1325BOLB   C4D31800  20.350  13.827   9.724 -0.0659  0.1573  0.1530
 1326BOLB   NC131801  15.660  16.118  11.902  0.0304  0.0097  0.0826
 1326BOLB   PO131802  15.444  15.636  11.702 -0.3736  0.0590 -0.0674
 1326BOLB   GL131803  15.636  15.686  11.226  0.2459  0.3166 -0.1255
 1326BOLB   GL231804  15.376  15.484  11.113  0.1219 -0.2014  0.1926
 1326BOLB   C1A31805  15.749  15.775  10.782  0.0889 -0.0639 -0.1631
 1326BOLB   C2A31806  15.691  15.812  10.353 -0.0924 -0.0979 -0.2059
 1326BOLB   C3A31807  15.678  15.814   9.991  0.0438 -0.1746 -0.0465
 1326BOLB   C4A31808  15.493  15.835   9.569  0.2516 -0.1369  0.0321
 1326BOLB   C1B31809  15.390  15.464  10.580  0.0504 -0.2545  0.2605
 1326BOLB   C2B31810  15.336  15.326  10.153 -0.1072 -0.1827  0.3448
 1326BOLB   C3B31811  15.166  15.504   9.814  0.3954  0.0923  0.3016
 1326BOLB   C4B31812  15.067  15.542   9.380 -0.2077  0.4045 -0.0672
 1326BOLB   NC231813  15.649  15.346   7.324 -0.0347  0.2562  0.1664
 1326BOLB   PO231814  15.286  15.109   7.359 -0.1275 -0.1559 -0.1523
 1326BOLB   GL331815  14.944  15.332   7.581  0.2738 -0.2642 -0.2683
 1326BOLB   GL431816  14.608  15.461   7.501  0.2722 -0.5248  0.0886
 1326BOLB   C1C31817  14.762  15.646   7.922 -0.0005 -0.1416  0.0482
 1326BOLB   C2C31818  14.902  15.793   8.375 -0.0804  0.0917  0.0940
 1326BOLB   C3C31819  14.949  15.712   8.835 -0.0137  0.1366 -0.2123
 1326BOLB   C4C31820  15.262  15.840   9.080 -0.1034  0.5388  0.0883
 1326BOLB   C1D31821  14.650  15.098   7.909 -0.4242 -0.2444  0.0171
 1326BOLB   C2D31822  14.616  15.368   8.254 -0.1618 -0.0323  0.0240
 1326BOLB   C3D31823  14.637  15.210   8.634 -0.1499  0.2090 -0.0011
 1326BOLB   C4D31824  14.887  15.182   9.052  0.2163 -0.1668 -0.2527
 1327BOLB   NC131825  20.929  10.643  13.941 -0.3394 -0.2558  0.1852
 1327BOLB   PO131826  21.228  11.012  13.815 -0.0176  0.0768 -0.0211
 1327BOLB   GL131827  21.308  10.800  13.418 -0.0241 -0.0503  0.0151
 1327BOLB   GL231828  21.564  10.704  13.336  0.2507 -0.2358 -0.0751
 1327BOLB   C1A31829  21.188  10.613  13.011  0.0596 -0.0536  0.1767
 1327BOLB   C2A31830  21.315  10.476  12.541  0.1936  0.1062  0.0771
 1327BOLB   C3A31831  21.432  10.171  12.335 -0.2239  0.1729 -0.1556
 1327BOLB   C4A31832  21.576  10.001  11.946  0.0721 -0.0585 -0.1200
 1327BOLB   C1B31833  21.766  10.546  12.956  0.0835 -0.0467 -0.1834
 1327BOLB   C2B31834  21.809  10.189  12.660 -0.0244  0.4799  0.0473
 1327BOLB   C3B31835  21.919   9.911  12.299 -0.0149 -0.0729 -0.0508
 1327BOLB   C4B31836  22.224   9.579  12.179 -0.0220 -0.3892  0.0626
 1327BOLB   NC231837  21.602   7.872  11.062 -0.0026  0.1359 -0.0109
 1327BOLB   PO231838  21.841   8.224  10.875  0.2095  0.2273  0.1430
 1327BOLB   GL331839  21.728   8.358  11.213 -0.1008  0.1517  0.0392
 1327BOLB   GL431840  21.406   8.294  11.349 -0.0469 -0.1263  0.0923
 1327BOLB   C1C31841  21.734   8.535  11.639 -0.0740  0.0476  0.2135
 1327BOLB   C2C31842  21.789   8.850  11.871 -0.6277 -0.1483 -0.1361
 1327BOLB   C3C31843  21.794   9.328  11.779 -0.2249  0.4605 -0.0296
 1327BOLB   C4C31844  21.849   9.730  11.837 -0.2617  0.0238  0.3090
 1327BOLB   C1D31845  21.229   8.510  11.733  0.2679 -0.0471 -0.1768
 1327BOLB   C2D31846  21.226   8.739  12.057  0.2339  0.0878  0.3326
 1327BOLB   C3D31847  21.358   9.147  12.116 -0.2621  0.0761 -0.4049
 1327BOLB   C4D31848  21.561   9.525  12.183 -0.1156  0.1988 -0.1232
 1328BOLB   NC131849  11.661  16.652  11.800 -0.0513 -0.0164  0.0239
 1328BOLB   PO131850  11.596  16.902  11.476  0.1321  0.2266  0.3701
 1328BOLB   GL131851  11.545  16.880  11.107  0.1643  0.1194  0.3505
 1328BOLB   GL231852  11.793  16.726  10.813 -0.0575  0.0772  0.0572
 1328BOLB   C1A31853  11.367  16.957  10.706  0.0746 -0.2743 -0.1653
 1328BOLB   C2A31854  11.361  16.970  10.277 -0.0446 -0.0291 -0.0663
 1328BOLB   C3A31855  11.449  17.078   9.914  0.2380  0.1581 -0.0390
 1328BOLB   C4A31856  11.369  17.098   9.528  0.1586  0.2046  0.2091
 1328BOLB   C1B31857  11.895  16.840  10.509 -0.3214 -0.0391  0.0834
 1328BOLB   C2B31858  12.169  16.925  10.159  0.2345  0.0318 -0.0803
 1328BOLB   C3B31859  12.154  17.098   9.727  0.1544 -0.1569 -0.1483
 1328BOLB   C4B31860  12.385  17.130   9.313 -0.0709 -0.0727  0.0632
 1328BOLB   NC231861   9.850  16.362   7.738  0.2946 -0.0927 -0.1436
 1328BOLB   PO231862  10.079  15.964   7.792 -0.1753 -0.1411  0.1172
 1328BOLB   GL331863  10.179  16.234   8.135  0.3741 -0.0704 -0.0424
 1328BOLB   GL431864   9.993  16.235   8.481 -0.0289  0.0960  0.4207
 1328BOLB   C1C31865  10.508  16.448   8.259  0.0646  0.1276  0.0743
 1328BOLB   C2C31866  10.846  16.591   8.416  0.0951 -0.0797  0.1435
 1328BOLB   C3C31867  11.201  16.806   8.699 -0.0355  0.1568  0.0870
 1328BOLB   C4C31868  11.408  16.818   9.120 -0.1454 -0.0617 -0.2411
 1328BOLB   C1D31869  10.066  16.609   8.531 -0.0754  0.2009 -0.2222
 1328BOLB   C2D31870  10.140  17.086   8.599 -0.0700  0.0725  0.2960
 1328BOLB   C3D31871  10.322  17.221   9.066 -0.2442  0.1470  0.1000
 1328BOLB   C4D31872  10.488  17.261   9.490  0.1088 -0.0360 -0.0830
 1329BOLB   NC131873  20.891  18.780  12.527  0.2414 -0.2147  0.0010
 1329BOLB   PO131874  21.196  18.664  12.694  0.1177 -0.1183 -0.0822
 1329BOLB   GL131875  21.524  18.847  12.584  0.3904  0.1912 -0.1475
 1329BOLB   GL231876  21.808  18.761  12.781 -0.3593  0.0476  0.2290
 1329BOLB   C1A31877  21.764  19.076  12.289 -0.1436 -0.2909  0.1560
 1329BOLB   C2A31878  21.974  19.275  11.872 -0.0509  0.0302 -0.2640
 1329BOLB   C3A31879  22.134  19.358  11.461  0.3234  0.0793  0.1254
 1329BOLB   C4A31880  22.329  19.361  11.154 -0.0260 -0.0237 -0.1985
 1329BOLB   C1B31881  22.097  18.783  12.490  0.0850 -0.0696 -0.2858
 1329BOLB   C2B31882  22.256  18.945  12.093  0.0991  0.1329 -0.2613
 1329BOLB   C3B31883  22.506  19.072  11.812  0.1057 -0.1930  0.2923
 1329BOLB   C4B31884  22.618  19.357  11.551 -0.1195 -0.3358 -0.1854
 1329BOLB   NC231885  24.438  21.001  10.375 -0.0630 -0.1167 -0.4054
 1329BOLB   PO231886  24.227  20.639  10.581  0.2555  0.1250  0.0143
 1329BOLB   GL331887  23.892  20.444  10.829  0.0324 -0.0850  0.1876
 1329BOLB   GL431888  24.169  20.217  10.904  0.1638 -0.0778 -0.1532
 1329BOLB   C1C31889  23.457  20.274  10.787  0.0569 -0.1641  0.1397
 1329BOLB   C2C31890  23.061  20.176  10.661  0.2642  0.2270 -0.1946
 1329BOLB   C3C31891  22.903  19.805  10.803  0.0130  0.1006 -0.0991
 1329BOLB   C4C31892  22.637  19.346  10.778 -0.0026 -0.2312  0.1096
 1329BOLB   C1D31893  23.768  20.151  11.183  0.1015 -0.1398 -0.0249
 1329BOLB   C2D31894  23.303  20.180  11.459 -0.0300 -0.3759 -0.1212
 1329BOLB   C3D31895  23.243  20.477  11.653  0.3546  0.1442  0.4051
 1329BOLB   C4D31896  22.913  20.661  11.589 -0.2115 -0.0636  0.0366
 1330BOLB   NC131897  13.054  18.523  10.985 -0.1870  0.1707 -0.1659
 1330BOLB   PO131898  12.868  18.090  10.913  0.2573 -0.1725  0.1513
 1330BOLB   GL131899  12.833  18.310  10.474 -0.2059 -0.1251 -0.1924
 1330BOLB   GL231900  12.572  18.336  10.475  0.0846  0.1020  0.0556
 1330BOLB   C1A31901  13.026  18.438  10.159  0.0321 -0.0942  0.0641
 1330BOLB   C2A31902  12.906  18.384   9.748 -0.0794 -0.1719 -0.2355
 1330BOLB   C3A31903  13.054  18.505   9.386  0.2159  0.0175  0.4620
 1330BOLB   C4A31904  13.279  18.337   9.008 -0.1091 -0.2063  0.2390
 1330BOLB   C1B31905  12.529  18.234  10.054  0.2393 -0.2790 -0.0716
 1330BOLB   C2B31906  12.489  18.140   9.624  0.0295  0.3030 -0.1374
 1330BOLB   C3B31907  12.524  18.212   9.174  0.1967 -0.0067  0.1909
 1330BOLB   C4B31908  12.564  18.484   8.918 -0.1247  0.3689 -0.2477
 1330BOLB   NC231909  12.510  17.911   7.178  0.1534  0.0370  0.1285
 1330BOLB   PO231910  12.726  17.618   6.737  0.0297 -0.0536  0.0286
 1330BOLB   GL331911  13.018  17.576   7.085 -0.3911  0.1742 -0.2740
 1330BOLB   GL431912  13.051  17.868   7.305 -0.1477 -0.0553 -0.0258
 1330BOLB   C1C31913  13.318  17.447   7.425  0.2462  0.2802 -0.1271
 1330BOLB   C2C31914  13.263  17.832   7.819 -0.0450 -0.4005 -0.1794
 1330BOLB   C3C31915  13.244  18.003   8.240 -0.1270 -0.1227 -0.0412
 1330BOLB   C4C31916  13.368  18.272   8.589 -0.0336 -0.0099  0.0384
 1330BOLB   C1D31917  13.398  18.240   7.562 -0.0333 -0.0376  0.3379
 1330BOLB   C2D31918  13.501  18.655   7.534 -0.1831  0.1897  0.0466
 1330BOLB   C3D31919  13.567  19.042   7.648  0.0335  0.0729 -0.1515
 1330BOLB   C4D31920  13.835  19.371   7.869  0.4577  0.0124 -0.2080
 1331BOLB   NC131921  13.896  23.235  13.081  0.0024 -0.3437 -0.3257
 1331BOLB   PO131922  13.779  23.657  12.833 -0.2712 -0.3842 -0.0349
 1331BOLB   GL131923  13.482  23.885  12.630  0.0726 -0.1510 -0.0514
 1331BOLB   GL231924  13.539  23.834  12.179 -0.0338 -0.1763 -0.1385
 1331BOLB   C1A31925  13.253  24.178  12.327  0.1824  0.0482  0.1399
 1331BOLB   C2A31926  13.034  24.567  12.335 -0.0259  0.1173 -0.1647
 1331BOLB   C3A31927  12.768  24.941  12.336 -0.0925  0.4415 -0.3777
 1331BOLB   C4A31928  12.441  25.234  12.510  0.2927 -0.0524 -0.3616
 1331BOLB   C1B31929  13.425  23.806  11.746  0.1046  0.1745  0.0644
 1331BOLB   C2B31930  13.098  23.953  11.431  0.1691 -0.4292  0.0468
 1331BOLB   C3B31931  12.853  24.212  11.396 -0.0459 -0.3761  0.0504
 1331BOLB   C4B31932  12.630  24.492  11.243  0.1915  0.2004 -0.2444
 1331BOLB   NC231933  10.421  27.304  12.321  0.2722  0.0075  0.1794
 1331BOLB   PO231934  10.909  27.476  12.202 -0.0694  0.1780 -0.1391
 1331BOLB   GL331935  11.190  27.048  12.117  0.0200 -0.4447  0.0582
 1331BOLB   GL431936  11.066  26.952  12.416 -0.0455  0.0264 -0.0793
 1331BOLB   C1C31937  11.455  26.669  12.157  0.0795 -0.2297  0.0342
 1331BOLB   C2C31938  11.803  26.276  12.203  0.0259  0.4900  0.3510
 1331BOLB   C3C31939  11.902  25.851  12.277  0.0824 -0.3944 -0.0232
 1331BOLB   C4C31940  12.075  25.612  12.580 -0.0354 -0.0240  0.2266
 1331BOLB   C1D31941  11.094  26.543  12.481  0.1838 -0.1248 -0.1018
 1331BOLB   C2D31942  11.366  26.161  12.453  0.0023 -0.4846 -0.3036
 1331BOLB   C3D31943  11.478  25.721  12.645 -0.1665  0.0781  0.0224
 1331BOLB   C4D31944  11.563  25.504  12.969  0.0458  0.1845  0.1265
 1332BOLB   NC131945   8.547  18.296  11.930 -0.1443 -0.0647  0.0952
 1332BOLB   PO131946   8.799  17.849  12.037 -0.1020 -0.2100  0.3594
 1332BOLB   GL131947   8.578  17.662  11.745  0.3838 -0.0204  0.1520
 1332BOLB   GL231948   8.480  17.848  11.505 -0.0737  0.1096  0.1003
 1332BOLB   C1A31949   8.615  17.209  11.510  0.0761 -0.0372  0.0676
 1332BOLB   C2A31950   8.526  16.936  11.160 -0.1448 -0.0964 -0.3059
 1332BOLB   C3A31951   8.174  16.774  10.922  0.1913  0.1416 -0.1286
 1332BOLB   C4A31952   7.844  16.536  10.798 -0.2420  0.1115  0.1536
 1332BOLB   C1B31953   8.261  17.626  11.123 -0.4125 -0.0915 -0.1202
 1332BOLB   C2B31954   7.961  17.507  10.831  0.1546  0.2482 -0.2365
 1332BOLB   C3B31955   7.896  17.188  10.673 -0.2122  0.0628  0.1668
 1332BOLB   C4B31956   8.003  16.870  10.441 -0.0108  0.2264 -0.1224
 1332BOLB   NC231957   7.340  17.419   8.377  0.0586 -0.1969 -0.0618
 1332BOLB   PO231958   7.306  16.910   8.601 -0.0763  0.1963  0.0157
 1332BOLB   GL331959   7.243  16.841   8.986 -0.0775  0.0003  0.0396
 1332BOLB   GL431960   7.400  16.494   9.097 -0.0445  0.1973  0.2351
 1332BOLB   C1C31961   7.098  16.933   9.371  0.2727 -0.4426  0.2971
 1332BOLB   C2C31962   7.066  16.988   9.865  0.0094  0.2080  0.2266
 1332BOLB   C3C31963   7.146  16.945  10.307 -0.1587 -0.2138  0.0372
 1332BOLB   C4C31964   7.527  16.806  10.582 -0.1019  0.0872  0.2356
 1332BOLB   C1D31965   7.586  16.673   9.522  0.0874  0.1730  0.0955
 1332BOLB   C2D31966   8.010  16.696   9.858 -0.2155  0.2340  0.0654
 1332BOLB   C3D31967   8.444  16.575   9.963  0.1794 -0.3080 -0.2952
 1332BOLB   C4D31968   8.751  16.591   9.676  0.0682 -0.0388 -0.3305
 1333BOLB   NC131969  15.576   8.647  13.201 -0.0849  0.0218  0.1676
 1333BOLB   PO131970  15.971   8.411  13.083 -0.1194  0.1892  0.0732
 1333BOLB   GL131971  16.211   8.281  12.747  0.1082 -0.0097  0.0101
 1333BOLB   GL231972  16.230   8.388  12.449  0.0691 -0.2795 -0.0035
 1333BOLB   C1A31973  16.408   7.947  12.433 -0.1493  0.1095 -0.2117
 1333BOLB   C2A31974  16.576   7.830  12.003  0.4114  0.1559  0.2966
 1333BOLB   C3A31975  16.550   7.672  11.606  0.1638  0.0677  0.0400
 1333BOLB   C4A31976  16.534   8.006  11.255  0.0924  0.0805 -0.0034
 1333BOLB   C1B31977  16.279   8.250  12.039  0.3716 -0.0862  0.0884
 1333BOLB   C2B31978  16.274   8.127  11.655  0.6275  0.0359  0.2452
 1333BOLB   C3B31979  16.123   7.827  11.311 -0.2086  0.1338 -0.0418
 1333BOLB   C4B31980  16.173   7.609  10.937 -0.3785  0.1092 -0.0865
 1333BOLB   NC231981  16.133   7.438   8.639 -0.1163  0.3990 -0.0520
 1333BOLB   PO231982  16.142   7.954   8.715 -0.2466 -0.0071  0.1172
 1333BOLB   GL331983  15.955   7.942   9.076  0.0471 -0.1702 -0.0474
 1333BOLB   GL431984  15.588   8.010   9.063 -0.0564 -0.0745  0.2662
 1333BOLB   C1C31985  16.106   8.145   9.355 -0.0781 -0.1484 -0.0799
 1333BOLB   C2C31986  16.379   8.153   9.779 -0.3937 -0.0941  0.1726
 1333BOLB   C3C31987  16.465   8.202  10.333 -0.2029  0.1304  0.0307
 1333BOLB   C4C31988  16.359   8.080  10.786 -0.0259 -0.3533 -0.0945
 1333BOLB   C1D31989  15.638   8.035   9.558  0.2177  0.1031  0.0242
 1333BOLB   C2D31990  15.893   8.261   9.826  0.0402 -0.0402 -0.0985
 1333BOLB   C3D31991  15.947   8.236  10.166  0.0033 -0.2219  0.2051
 1333BOLB   C4D31992  16.091   8.454  10.524 -0.3680  0.0257 -0.0002
 1334BOLB   NC131993  20.583  12.250  12.679  0.2335 -0.0446  0.3482
 1334BOLB   PO131994  20.643  11.868  12.651  0.1149 -0.1579 -0.0666
 1334BOLB   GL131995  20.743  11.709  12.351  0.2235 -0.0785  0.4381
 1334BOLB   GL231996  20.905  11.512  12.471  0.1117 -0.2214 -0.2195
 1334BOLB   C1A31997  20.981  11.743  11.983  0.2712 -0.4463  0.0902
 1334BOLB   C2A31998  21.053  11.913  11.647 -0.0926  0.0357  0.2058
 1334BOLB   C3A31999  21.421  12.092  11.502 -0.0742 -0.0744 -0.2221
 1334BOLB   C4A32000  21.710  12.040  11.216 -0.2591  0.4237 -0.0361
 1334BOLB   C1B32001  21.011  11.245  12.082  0.1707 -0.1985 -0.1471
 1334BOLB   C2B32002  21.159  11.325  11.726 -0.1247 -0.2410 -0.0233
 1334BOLB   C3B32003  21.342  11.344  11.306  0.1701 -0.1799  0.2772
 1334BOLB   C4B32004  21.449  11.078  10.925  0.4186  0.0120  0.2963
 1334BOLB   NC232005  22.546  11.930   9.324  0.0076 -0.3114 -0.3082
 1334BOLB   PO232006  22.391  11.568   9.302  0.2653  0.0672  0.3419
 1334BOLB   GL332007  22.067  11.733   9.507  0.1722  0.1223 -0.1405
 1334BOLB   GL432008  22.146  12.134   9.516  0.1601  0.1641  0.0239
 1334BOLB   C1C32009  21.926  11.639   9.825 -0.0401 -0.5885  0.1513
 1334BOLB   C2C32010  21.756  11.621  10.118  0.0291 -0.0552 -0.0601
 1334BOLB   C3C32011  21.709  11.912  10.316 -0.0660  0.0376  0.1219
 1334BOLB   C4C32012  21.710  12.042  10.773 -0.0807  0.1322 -0.0912
 1334BOLB   C1D32013  21.836  12.123   9.657  0.3096 -0.2209 -0.1259
 1334BOLB   C2D32014  21.581  12.265   9.936 -0.3427  0.1708  0.0585
 1334BOLB   C3D32015  21.709  12.425  10.344  0.0218  0.0145  0.2157
 1334BOLB   C4D32016  21.972  12.702  10.548  0.1887 -0.3227 -0.1508
 1335BOLB   NC132017  12.552  10.239  12.013  0.2022 -0.0122  0.1139
 1335BOLB   PO132018  12.886  10.022  11.944 -0.0600  0.0127  0.3172
 1335BOLB   GL132019  12.949  10.059  11.493  0.2887 -0.2121  0.1641
 1335BOLB   GL232020  12.704  10.423  11.505 -0.1169  0.4609 -0.1428
 1335BOLB   C1A32021  13.251   9.910  11.169 -0.0843 -0.0112 -0.1266
 1335BOLB   C2A32022  13.309   9.823  10.772 -0.1437 -0.2117  0.2510
 1335BOLB   C3A32023  13.245   9.540  10.478  0.0784  0.0854  0.3392
 1335BOLB   C4A32024  13.192   9.242  10.140  0.1102 -0.1782  0.0671
 1335BOLB   C1B32025  12.999  10.357  11.098 -0.0183  0.0532  0.3541
 1335BOLB   C2B32026  13.000  10.273  10.659  0.3393 -0.0356 -0.2708
 1335BOLB   C3B32027  12.896   9.922  10.479  0.0034 -0.1381 -0.0542
 1335BOLB   C4B32028  12.485   9.759  10.463  0.2069  0.2989  0.1158
 1335BOLB   NC232029  13.819   9.609   7.909  0.3141  0.3766 -0.2546
 1335BOLB   PO232030  14.170   9.318   8.030 -0.2960  0.0373  0.0527
 1335BOLB   GL332031  14.312   9.435   8.419 -0.1503  0.2274 -0.0263
 1335BOLB   GL432032  14.564   9.746   8.463 -0.0101  0.1315  0.0313
 1335BOLB   C1C32033  14.039   9.477   8.773 -0.0008  0.0708 -0.3689
 1335BOLB   C2C32034  13.644   9.360   8.974  0.0120 -0.0395 -0.0578
 1335BOLB   C3C32035  13.346   9.225   9.304  0.1083  0.1098  0.1150
 1335BOLB   C4C32036  13.193   9.216   9.738  0.0624  0.1266 -0.1126
 1335BOLB   C1D32037  14.424   9.669   8.976  0.2862  0.0458  0.1459
 1335BOLB   C2D32038  14.549   9.833   9.345  0.1222 -0.1261 -0.0935
 1335BOLB   C3D32039  14.386  10.111   9.713 -0.3378  0.1114  0.0364
 1335BOLB   C4D32040  14.199  10.280  10.047 -0.3178  0.0967 -0.1069
 1336BOLB   NC132041  14.757  11.379  11.917  0.2121 -0.4083  0.0825
 1336BOLB   PO132042  14.449  11.159  12.005 -0.4405 -0.0814  0.0640
 1336BOLB   GL132043  14.199  10.895  11.633 -0.0125  0.1928  0.0895
 1336BOLB   GL232044  14.454  10.824  11.454  0.2518 -0.2420 -0.0368
 1336BOLB   C1A32045  14.088  11.038  11.237 -0.2303 -0.0447  0.2576
 1336BOLB   C2A32046  14.279  10.980  10.762  0.1968  0.3609 -0.2133
 1336BOLB   C3A32047  14.410  11.076  10.259  0.0327 -0.2707 -0.3219
 1336BOLB   C4A32048  14.366  11.101   9.899 -0.2054  0.1108  0.1126
 1336BOLB   C1B32049  14.427  10.528  11.077 -0.1590 -0.0117 -0.0699
 1336BOLB   C2B32050  14.452  10.366  10.641  0.0557 -0.1769  0.3690
 1336BOLB   C3B32051  14.552  10.513  10.316 -0.1863  0.0574  0.0620
 1336BOLB   C4B32052  14.809  10.348   9.917 -0.1626  0.0076 -0.3008
 1336BOLB   NC232053  13.952  11.061   7.324  0.2064 -0.0957 -0.3751
 1336BOLB   PO232054  14.036  11.531   7.450  0.1285  0.4542 -0.0671
 1336BOLB   GL332055  14.122  11.418   7.934 -0.0221 -0.1362 -0.0050
 1336BOLB   GL432056  14.431  11.492   7.931 -0.2058  0.0239  0.1186
 1336BOLB   C1C32057  14.182  11.330   8.437 -0.0388 -0.0394 -0.1892
 1336BOLB   C2C32058  14.122  11.185   8.819 -0.1526 -0.2884  0.0416
 1336BOLB   C3C32059  14.095  11.238   9.179  0.0785  0.1731 -0.2644
 1336BOLB   C4C32060  14.232  11.047   9.555  0.0274 -0.0415 -0.0687
 1336BOLB   C1D32061  14.571  11.806   8.138 -0.2535 -0.1689  0.0700
 1336BOLB   C2D32062  14.756  11.921   8.539 -0.1973  0.1558  0.2454
 1336BOLB   C3D32063  14.875  11.690   8.922 -0.3140 -0.0151  0.0259
 1336BOLB   C4D32064  15.011  11.605   9.324  0.3560  0.2436  0.2447
 1337BOLB   NC132065  10.478  11.803  11.920 -0.1068 -0.3940  0.1942
 1337BOLB   PO132066  10.836  11.655  11.957 -0.0169 -0.1899  0.0354
 1337BOLB   GL132067  10.928  11.549  11.510  0.0756 -0.2760 -0.1191
 1337BOLB   GL232068  10.694  11.808  11.381  0.6143  0.1056  0.0748
 1337BOLB   C1A32069  11.112  11.444  11.127  0.0542  0.0970 -0.1033
 1337BOLB   C2A32070  11.277  11.666  10.701  0.0222 -0.0119  0.2062
 1337BOLB   C3A32071  11.284  11.704  10.206  0.2938 -0.0301 -0.4804
 1337BOLB   C4A32072  11.306  11.812   9.793 -0.0739 -0.0963  0.0103
 1337BOLB   C1B32073  10.665  11.743  11.035  0.1316 -0.3795  0.1893
 1337BOLB   C2B32074  10.534  11.880  10.665  0.1929  0.2731 -0.1424
 1337BOLB   C3B32075  10.371  11.984  10.309  0.2319 -0.1940 -0.1640
 1337BOLB   C4B32076  10.151  12.370   9.991  0.5595  0.0847 -0.0373
 1337BOLB   NC232077  11.594  12.553   7.478 -0.0602  0.1977  0.1554
 1337BOLB   PO232078  11.953  12.536   7.558  0.0249  0.1057  0.2382
 1337BOLB   GL332079  11.897  12.353   7.882 -0.5153  0.1895 -0.1081
 1337BOLB   GL432080  12.015  12.271   8.001 -0.1311  0.2864 -0.0956
 1337BOLB   C1C32081  11.622  12.477   8.288  0.1118  0.3250  0.1500
 1337BOLB   C2C32082  11.435  12.426   8.694  0.1096 -0.3712 -0.0094
 1337BOLB   C3C32083  11.204  12.313   9.118 -0.0464  0.2479  0.2069
 1337BOLB   C4C32084  11.072  12.080   9.476  0.1726 -0.2349 -0.0518
 1337BOLB   C1D32085  12.232  12.131   8.391  0.2658  0.1120  0.0634
 1337BOLB   C2D32086  12.299  12.092   8.746 -0.0275 -0.0536 -0.1190
 1337BOLB   C3D32087  12.430  12.007   9.155 -0.1709 -0.2423  0.0919
 1337BOLB   C4D32088  12.668  11.931   9.542 -0.0741  0.1569 -0.1645
 1338BOLB   NC132089  20.177  18.505  12.474  0.2664  0.1250  0.1757
 1338BOLB   PO132090  19.813  18.353  12.191 -0.1071 -0.2082 -0.1238
 1338BOLB   GL132091  20.103  18.336  11.819 -0.0841 -0.1051  0.3600
 1338BOLB   GL232092  20.110  18.023  11.615  0.2894  0.2427  0.0880
 1338BOLB   C1A32093  20.490  18.469  11.762 -0.0366  0.1728  0.2995
 1338BOLB   C2A32094  20.482  18.689  11.382 -0.1108 -0.0340  0.0312
 1338BOLB   C3A32095  20.670  18.655  11.045 -0.1380 -0.4398 -0.0229
 1338BOLB   C4A32096  20.638  18.629  10.696  0.3615  0.2561  0.1546
 1338BOLB   C1B32097  20.320  18.169  11.346 -0.0422  0.3104  0.2901
 1338BOLB   C2B32098  20.463  18.213  10.972  0.2770 -0.0463  0.1048
 1338BOLB   C3B32099  20.814  18.158  10.708 -0.1207  0.2011  0.1268
 1338BOLB   C4B32100  21.268  18.035  10.642  0.0438  0.1172 -0.0450
 1338BOLB   NC232101  21.064  18.217   8.284  0.0720 -0.2484  0.2065
 1338BOLB   PO232102  21.417  18.320   8.388  0.1725  0.0428 -0.0647
 1338BOLB   GL332103  21.296  18.098   8.766 -0.1690 -0.0916  0.1417
 1338BOLB   GL432104  21.062  18.073   8.755 -0.1347  0.0062  0.0768
 1338BOLB   C1C32105  21.193  18.119   9.232 -0.1784 -0.0778 -0.0903
 1338BOLB   C2C32106  21.177  18.371   9.653  0.0247 -0.0366  0.3051
 1338BOLB   C3C32107  20.917  18.553   9.895 -0.0569 -0.0889  0.3687
 1338BOLB   C4C32108  20.800  18.716  10.345 -0.0683 -0.3334 -0.1760
 1338BOLB   C1D32109  20.757  17.848   9.035  0.0968 -0.2032 -0.1060
 1338BOLB   C2D32110  20.752  18.038   9.494  0.1787  0.0635  0.1116
 1338BOLB   C3D32111  20.272  18.227   9.517  0.1975  0.1409  0.4574
 1338BOLB   C4D32112  19.835  18.268   9.628 -0.0406  0.1469  0.0290
 1339BOLB   NC132113  12.319   8.830  12.277  0.0792 -0.2130 -0.2322
 1339BOLB   PO132114  11.778   8.911  12.162  0.0545  0.1960 -0.0840
 1339BOLB   GL132115  12.067   8.840  11.770  0.3312 -0.1713 -0.3058
 1339BOLB   GL232116  12.398   8.649  11.839 -0.2615  0.0225  0.2056
 1339BOLB   C1A32117  12.179   8.673  11.339  0.0108  0.0206 -0.0510
 1339BOLB   C2A32118  12.583   8.621  11.071  0.0113  0.2811 -0.1733
 1339BOLB   C3A32119  12.879   8.430  10.667  0.2028 -0.1147  0.1201
 1339BOLB   C4A32120  12.851   8.349  10.335 -0.1527  0.0820  0.1558
 1339BOLB   C1B32121  12.594   8.926  11.492 -0.2641 -0.1034 -0.1698
 1339BOLB   C2B32122  12.648   9.120  11.130 -0.2872 -0.1567 -0.0452
 1339BOLB   C3B32123  12.682   9.161  10.669  0.1118 -0.0891  0.1584
 1339BOLB   C4B32124  12.772   9.423  10.341  0.4584  0.1946 -0.1435
 1339BOLB   NC232125  12.890   7.445   8.266  0.2090  0.0540  0.0088
 1339BOLB   PO232126  13.135   7.696   7.933 -0.0147  0.0947 -0.0669
 1339BOLB   GL332127  13.159   7.940   8.450 -0.1384 -0.0239 -0.0182
 1339BOLB   GL432128  13.259   8.247   8.444 -0.1381  0.3749  0.0101
 1339BOLB   C1C32129  13.179   7.843   8.840 -0.1591 -0.1160  0.0528
 1339BOLB   C2C32130  13.252   7.975   9.273  0.2269 -0.1134  0.2242
 1339BOLB   C3C32131  13.081   8.266   9.540  0.1316  0.0280  0.0906
 1339BOLB   C4C32132  12.901   8.295   9.899 -0.1576 -0.4562 -0.2861
 1339BOLB   C1D32133  12.935   8.287   8.790  0.4269 -0.0084 -0.1967
 1339BOLB   C2D32134  12.768   8.339   9.168  0.2058  0.1822 -0.1106
 1339BOLB   C3D32135  12.482   8.260   9.516  0.2814  0.3519  0.2137
 1339BOLB   C4D32136  12.301   8.106   9.938 -0.2362  0.2659 -0.4581
 1340BOLB   NC132137  13.700  23.366  12.284  0.1880 -0.0695 -0.0872
 1340BOLB   PO132138  13.385  23.331  12.544 -0.0541 -0.0268  0.1493
 1340BOLB   GL132139  13.159  23.264  12.246  0.1391  0.2883  0.0810
 1340BOLB   GL232140  13.164  23.511  12.113 -0.0722 -0.2296  0.0248
 1340BOLB   C1A32141  12.841  23.161  11.917 -0.0124  0.0317  0.0269
 1340BOLB   C2A32142  12.483  23.298  11.457 -0.0269 -0.0210  0.0726
 1340BOLB   C3A32143  12.589  23.440  11.012 -0.1219  0.1737  0.1045
 1340BOLB   C4A32144  12.507  23.851  10.763 -0.0594  0.0961 -0.3385
 1340BOLB   C1B32145  12.935  23.626  11.736  0.0033  0.1952 -0.0769
 1340BOLB   C2B32146  12.588  23.798  11.398 -0.2944 -0.2129  0.1541
 1340BOLB   C3B32147  12.411  24.072  11.192 -0.1188 -0.0101 -0.0279
 1340BOLB   C4B32148  12.318  24.393  10.880 -0.1181 -0.2196 -0.4323
 1340BOLB   NC232149  13.129  24.473   8.578 -0.1120 -0.4174 -0.1705
 1340BOLB   PO232150  13.071  24.931   8.728  0.3473  0.1623  0.0581
 1340BOLB   GL332151  13.039  24.920   9.185 -0.2947  0.1518  0.0197
 1340BOLB   GL432152  13.374  24.886   9.435 -0.1152 -0.0249 -0.0453
 1340BOLB   C1C32153  12.944  24.578   9.427 -0.3041  0.3870  0.1600
 1340BOLB   C2C32154  12.803  24.316   9.744 -0.0486  0.3153  0.2084
 1340BOLB   C3C32155  12.559  24.279  10.125 -0.0495 -0.1865 -0.0526
 1340BOLB   C4C32156  12.586  24.152  10.487  0.1263  0.1512 -0.1053
 1340BOLB   C1D32157  12.973  24.977   9.702  0.1505  0.3065 -0.0094
 1340BOLB   C2D32158  12.582  24.795   9.719 -0.0545  0.2220 -0.1790
 1340BOLB   C3D32159  12.345  24.478   9.650 -0.2243 -0.1141  0.0038
 1340BOLB   C4D32160  12.201  24.059   9.750  0.0682 -0.4069 -0.0649
 1341BOLB   NC132161  21.111  21.409  13.876  0.0340 -0.2549  0.2565
 1341BOLB   PO132162  20.984  21.333  13.459 -0.1186 -0.1309  0.1819
 1341BOLB   GL132163  21.204  21.546  13.074 -0.3093  0.4343  0.1257
 1341BOLB   GL232164  21.164  21.866  12.973  0.0827  0.3418  0.0837
 1341BOLB   C1A32165  21.558  21.598  12.771  0.1828  0.0965 -0.4763
 1341BOLB   C2A32166  21.792  21.572  12.302 -0.0928 -0.2214  0.1802
 1341BOLB   C3A32167  22.051  21.753  11.974  0.0653 -0.0958  0.1954
 1341BOLB   C4A32168  22.277  21.941  11.652 -0.1039  0.0476  0.4232
 1341BOLB   C1B32169  21.331  22.004  12.579  0.0363 -0.1624  0.0884
 1341BOLB   C2B32170  21.712  22.169  12.348 -0.0139 -0.1944 -0.2548
 1341BOLB   C3B32171  22.014  22.330  12.041 -0.0744 -0.2203  0.1962
 1341BOLB   C4B32172  22.180  22.432  11.606 -0.0550 -0.2666  0.2844
 1341BOLB   NC232173  24.127  23.375  10.834 -0.5699 -0.1508 -0.0077
 1341BOLB   PO232174  23.843  23.764  10.984  0.0503  0.1223 -0.1851
 1341BOLB   GL332175  23.552  23.405  11.007  0.1194 -0.3418 -0.1218
 1341BOLB   GL432176  23.776  23.161  11.199 -0.2056  0.3902 -0.2624
 1341BOLB   C1C32177  23.224  23.124  11.174  0.0446  0.2180 -0.2299
 1341BOLB   C2C32178  23.220  22.745  11.525  0.0329  0.0975 -0.2113
 1341BOLB   C3C32179  22.970  22.370  11.621  0.0377  0.0906  0.0014
 1341BOLB   C4C32180  22.676  22.115  11.782  0.1718  0.0211 -0.0796
 1341BOLB   C1D32181  23.550  23.068  11.586  0.0670 -0.0497  0.2945
 1341BOLB   C2D32182  23.516  22.929  12.002 -0.0230  0.0839 -0.0887
 1341BOLB   C3D32183  23.143  22.831  12.239  0.0555  0.0052 -0.0984
 1341BOLB   C4D32184  22.694  22.893  12.350 -0.1512  0.2541  0.1788
 1342BOLB   NC132185  15.195   8.413  12.788  0.1614  0.0603  0.0094
 1342BOLB   PO132186  15.252   8.723  12.554 -0.0791  0.0428 -0.1348
 1342BOLB   GL132187  15.498   8.398  12.337 -0.1232  0.0538  0.0717
 1342BOLB   GL232188  15.715   8.399  12.603 -0.0145  0.0162  0.0677
 1342BOLB   C1A32189  15.776   8.369  11.970  0.0226  0.0123  0.0093
 1342BOLB   C2A32190  15.778   8.018  11.662 -0.1612  0.2715  0.1488
 1342BOLB   C3A32191  15.542   7.647  11.449  0.2422  0.1343  0.0491
 1342BOLB   C4A32192  15.585   7.237  11.279 -0.1420  0.1926  0.2224
 1342BOLB   C1B32193  15.868   8.080  12.313 -0.1022  0.0016  0.1954
 1342BOLB   C2B32194  15.971   7.721  12.041  0.1341  0.2647 -0.1280
 1342BOLB   C3B32195  15.977   7.476  11.730  0.1724  0.4168  0.0518
 1342BOLB   C4B32196  16.102   7.328  11.330  0.0312 -0.3458  0.0540
 1342BOLB   NC232197  16.727   5.835   9.433 -0.4061  0.2158  0.4152
 1342BOLB   PO232198  16.543   5.669   9.711 -0.0861  0.0629 -0.1541
 1342BOLB   GL332199  16.527   6.226   9.840  0.1416  0.0473  0.1896
 1342BOLB   GL432200  16.630   6.628   9.759 -0.1211  0.1812  0.1814
 1342BOLB   C1C32201  16.519   6.549  10.221 -0.1099 -0.1003 -0.0547
 1342BOLB   C2C32202  16.274   6.640  10.607  0.3044 -0.1328 -0.5116
 1342BOLB   C3C32203  15.924   6.722  11.008 -0.1626 -0.0421  0.0142
 1342BOLB   C4C32204  15.818   6.948  11.355 -0.1144 -0.3737 -0.1697
 1342BOLB   C1D32205  16.728   7.011  10.072 -0.1600 -0.0779 -0.0613
 1342BOLB   C2D32206  16.851   7.363  10.335 -0.0228 -0.2937 -0.1623
 1342BOLB   C3D32207  16.549   7.635  10.438 -0.0024 -0.0991  0.0701
 1342BOLB   C4D32208  16.117   7.818  10.441 -0.1700  0.0595  0.1290
 1343BOLB   NC132209  15.678   9.996  12.233 -0.2815  0.2487  0.0742
 1343BOLB   PO132210  15.790  10.413  12.416  0.0981 -0.0841 -0.0984
 1343BOLB   GL132211  15.993  10.472  11.995  0.2490 -0.2412 -0.2361
 1343BOLB   GL232212  15.800  10.353  11.825  0.0033 -0.1288  0.4597
 1343BOLB   C1A32213  16.031  10.637  11.488 -0.0038 -0.1533  0.1703
 1343BOLB   C2A32214  15.949  10.652  10.999 -0.0859  0.2067  0.1538
 1343BOLB   C3A32215  16.059  10.422  10.667  0.1482 -0.0632  0.2265
 1343BOLB   C4A32216  16.377  10.439  10.387 -0.1180 -0.1060 -0.0500
 1343BOLB   C1B32217  15.715  10.249  11.392 -0.1082 -0.0294 -0.0466
 1343BOLB   C2B32218  15.710  10.205  11.002  0.1969  0.0030 -0.0339
 1343BOLB   C3B32219  15.368  10.157  10.728 -0.1659  0.1139 -0.3379
 1343BOLB   C4B32220  14.936  10.072  10.669  0.2095  0.2566 -0.1102
 1343BOLB   NC232221  16.494  10.018   8.297  0.0162 -0.1996 -0.2897
 1343BOLB   PO232222  16.108   9.900   8.358  0.1082 -0.2744  0.2934
 1343BOLB   GL332223  16.048   9.829   8.785 -0.2109 -0.3093  0.0597
 1343BOLB   GL432224  15.895   9.989   9.061  0.1920  0.2072 -0.2845
 1343BOLB   C1C32225  16.365   9.783   8.938 -0.1988  0.0318  0.1931
 1343BOLB   C2C32226  16.711  10.180   9.260 -0.2931 -0.2420  0.2425
 1343BOLB   C3C32227  16.695  10.399   9.646 -0.4210 -0.1541 -0.2649
 1343BOLB   C4C32228  16.597  10.415  10.074 -0.2679  0.0207  0.0631
 1343BOLB   C1D32229  15.971  10.118   9.537  0.0862  0.0976 -0.0566
 1343BOLB   C2D32230  16.389  10.023   9.771  0.0412 -0.5000  0.1014
 1343BOLB   C3D32231  16.844   9.841   9.583  0.1684 -0.5761 -0.2474
 1343BOLB   C4D32232  17.181   9.735   9.622 -0.2006  0.2627  0.0701
 1344BOLB   NC132233  20.367  10.922  13.855 -0.1680 -0.0692 -0.2607
 1344BOLB   PO132234  20.486  10.488  13.660 -0.1818  0.2316 -0.1849
 1344BOLB   GL132235  20.359  10.269  13.392 -0.4138  0.0230 -0.1729
 1344BOLB   GL232236  20.098  10.378  13.060  0.0521  0.2135  0.1629
 1344BOLB   C1A32237  20.346   9.952  13.052 -0.0657 -0.1548 -0.4883
 1344BOLB   C2A32238  20.408   9.708  12.739 -0.1152  0.1558 -0.3433
 1344BOLB   C3A32239  20.628   9.697  12.333 -0.2031  0.1665 -0.0695
 1344BOLB   C4A32240  20.602   9.607  11.956 -0.3394 -0.1487  0.1075
 1344BOLB   C1B32241  20.218  10.344  12.739 -0.0716 -0.2519  0.3023
 1344BOLB   C2B32242  20.344  10.237  12.406  0.2618  0.1945  0.1960
 1344BOLB   C3B32243  20.595  10.216  12.080  0.0824  0.1237  0.1082
 1344BOLB   C4B32244  20.293   9.972  11.970 -0.0756 -0.0651  0.0038
 1344BOLB   NC232245  20.571   7.608  10.425 -0.4810 -0.1592  0.0804
 1344BOLB   PO232246  20.671   7.852  10.138  0.0221  0.0752 -0.0309
 1344BOLB   GL332247  20.673   8.155  10.502 -0.3904  0.0116  0.1752
 1344BOLB   GL432248  20.873   8.406  10.516  0.0282  0.2830  0.1333
 1344BOLB   C1C32249  20.757   8.214  10.952 -0.2943  0.1795  0.3240
 1344BOLB   C2C32250  20.829   8.362  11.418 -0.2020 -0.3149 -0.1153
 1344BOLB   C3C32251  20.742   8.809  11.652 -0.2427 -0.2989  0.0573
 1344BOLB   C4C32252  20.844   9.206  11.884  0.1673 -0.1264  0.0258
 1344BOLB   C1D32253  21.059   8.788  10.759  0.0970  0.0040  0.0655
 1344BOLB   C2D32254  20.992   9.208  10.901  0.1875 -0.1812  0.1222
 1344BOLB   C3D32255  20.885   9.583  10.839  0.1314  0.2449 -0.2169
 1344BOLB   C4D32256  20.895   9.796  10.454  0.0327 -0.3778 -0.2796
 1345BOLB   NC132257  12.201  11.038  11.927 -0.1482 -0.0223  0.1647
 1345BOLB   PO132258  12.618  10.765  11.857  0.2188 -0.1851  0.0168
 1345BOLB   GL132259  12.561  11.009  11.539  0.0715  0.1756 -0.0010
 1345BOLB   GL232260  12.589  11.397  11.617  0.3441 -0.1212  0.1665
 1345BOLB   C1A32261  12.659  11.060  11.069  0.1662  0.1426 -0.1493
 1345BOLB   C2A32262  12.406  10.922  10.631 -0.1828 -0.0753 -0.0146
 1345BOLB   C3A32263  12.236  11.053  10.254 -0.0221 -0.0173 -0.2742
 1345BOLB   C4A32264  12.140  11.225   9.983  0.0356  0.2416 -0.0551
 1345BOLB   C1B32265  12.313  11.530  11.311  0.1366  0.1738  0.1527
 1345BOLB   C2B32266  12.091  11.460  11.023 -0.1994 -0.1123  0.0588
 1345BOLB   C3B32267  12.190  11.430  10.577  0.0489  0.2225 -0.0440
 1345BOLB   C4B32268  12.507  11.473  10.248  0.2634 -0.1216  0.3570
 1345BOLB   NC232269  12.411  10.634   7.682  0.2146  0.2446 -0.2242
 1345BOLB   PO232270  12.098  10.925   7.596 -0.0865 -0.2407 -0.1246
 1345BOLB   GL332271  12.022  10.762   8.088  0.1782 -0.2665  0.3348
 1345BOLB   GL432272  12.312  10.662   8.256  0.2935  0.4536  0.1426
 1345BOLB   C1C32273  11.893  10.704   8.502 -0.1512  0.1324 -0.2546
 1345BOLB   C2C32274  11.895  10.688   8.933  0.0636 -0.0133  0.2323
 1345BOLB   C3C32275  11.977  10.860   9.394 -0.0465 -0.0719  0.1675
 1345BOLB   C4C32276  11.850  11.144   9.739  0.0778  0.2905  0.0767
 1345BOLB   C1D32277  12.336  10.541   8.673  0.0540  0.2552 -0.0325
 1345BOLB   C2D32278  12.372  10.654   9.147  0.3409  0.1110 -0.1221
 1345BOLB   C3D32279  12.355  10.708   9.600 -0.0787 -0.0953  0.0657
 1345BOLB   C4D32280  12.403  10.618  10.066 -0.0470 -0.2671 -0.0449
 1346BOLB   NC132281  21.775  20.518  14.012 -0.1171 -0.1297  0.1248
 1346BOLB   PO132282  22.146  20.291  14.048  0.1571  0.1388  0.1868
 1346BOLB   GL132283  22.541  20.481  13.924  0.0970 -0.1658  0.0191
 1346BOLB   GL232284  22.830  20.491  14.148 -0.2276 -0.1446 -0.1985
 1346BOLB   C1A32285  22.906  20.541  13.620 -0.0510  0.0031  0.1812
 1346BOLB   C2A32286  23.019  20.453  13.113 -0.0969 -0.0224  0.2683
 1346BOLB   C3A32287  23.394  20.394  12.965  0.1566 -0.1110 -0.2041
 1346BOLB   C4A32288  23.790  20.646  12.966 -0.1000 -0.1925  0.2691
 1346BOLB   C1B32289  23.070  20.677  14.121  0.0607 -0.1176 -0.3037
 1346BOLB   C2B32290  23.341  20.899  13.998 -0.0153 -0.1613  0.1682
 1346BOLB   C3B32291  23.769  21.064  13.951 -0.4161  0.0234 -0.0227
 1346BOLB   C4B32292  24.220  21.002  13.694  0.1241  0.4348  0.0085
 1346BOLB   NC232293  24.644  22.859  12.342 -0.3138  0.0834 -0.1061
 1346BOLB   PO232294  24.891  22.618  12.204  0.3577  0.1844  0.1706
 1346BOLB   GL332295  24.710  22.214  12.375 -0.0495  0.0068 -0.3396
 1346BOLB   GL432296  24.983  22.080  12.309  0.2014  0.0828 -0.0295
 1346BOLB   C1C32297  24.522  21.900  12.662 -0.2093 -0.2455 -0.0012
 1346BOLB   C2C32298  24.614  21.412  12.789  0.0129  0.0314 -0.1820
 1346BOLB   C3C32299  24.469  21.145  13.032  0.0076 -0.1567  0.0038
 1346BOLB   C4C32300  24.208  20.739  13.200 -0.2236  0.0823 -0.0157
 1346BOLB   C1D32301  24.904  21.688  12.368 -0.2330 -0.0793 -0.1545
 1346BOLB   C2D32302  24.563  21.520  12.265  0.0612 -0.0566 -0.4198
 1346BOLB   C3D32303  24.163  21.404  12.570  0.1617 -0.2382 -0.0476
 1346BOLB   C4D32304  24.075  21.043  12.819 -0.0581  0.2013 -0.0234
 1347BOLB   NC132305  16.793  10.455  12.441  0.0349  0.0856  0.0729
 1347BOLB   PO132306  17.225  10.556  12.422 -0.1087 -0.1155 -0.0895
 1347BOLB   GL132307  17.172  10.427  11.981 -0.2941 -0.0278 -0.1490
 1347BOLB   GL232308  16.907  10.420  11.901  0.2130  0.0391 -0.0754
 1347BOLB   C1A32309  17.160  10.089  11.633 -0.2713  0.3637 -0.1536
 1347BOLB   C2A32310  17.236   9.942  11.137  0.1481  0.0070 -0.0019
 1347BOLB   C3A32311  17.125   9.878  10.731 -0.1826  0.1506 -0.0639
 1347BOLB   C4A32312  17.150   9.731  10.319  0.0927 -0.0232 -0.0580
 1347BOLB   C1B32313  17.014  10.539  11.460  0.4086 -0.0194  0.0447
 1347BOLB   C2B32314  17.184  10.572  10.915 -0.0326  0.1800  0.3388
 1347BOLB   C3B32315  17.095  10.462  10.398 -0.2653  0.0110  0.1529
 1347BOLB   C4B32316  17.367  10.177  10.121 -0.0060  0.3667 -0.0574
 1347BOLB   NC232317  17.905   9.331   8.279  0.0498  0.3113 -0.1859
 1347BOLB   PO232318  17.817   8.881   8.349 -0.1284  0.0184  0.0705
 1347BOLB   GL332319  17.804   9.133   8.764 -0.0838 -0.1222  0.2437
 1347BOLB   GL432320  17.768   9.573   8.767  0.3604 -0.1318 -0.0101
 1347BOLB   C1C32321  17.645   9.112   9.173  0.4123  0.0280 -0.1001
 1347BOLB   C2C32322  17.386   9.302   9.447  0.0570 -0.1149  0.0859
 1347BOLB   C3C32323  17.135   9.210   9.762  0.3954 -0.2093  0.0101
 1347BOLB   C4C32324  17.064   9.515  10.142 -0.0508 -0.2498 -0.1365
 1347BOLB   C1D32325  17.640   9.679   9.154  0.1570  0.3158 -0.1370
 1347BOLB   C2D32326  17.616   9.970   9.548  0.2127 -0.0605 -0.0747
 1347BOLB   C3D32327  17.215  10.230   9.619  0.3362  0.0639 -0.0808
 1347BOLB   C4D32328  17.185  10.617   9.989 -0.0949  0.0985 -0.2771
 1348BOLB   NC132329  13.149  16.881  11.088 -0.2039 -0.3052  0.3074
 1348BOLB   PO132330  13.358  16.493  11.174 -0.1890  0.1173  0.1739
 1348BOLB   GL132331  13.414  16.412  10.703  0.2503  0.1515 -0.1105
 1348BOLB   GL232332  13.315  16.834  10.590  0.1219 -0.0529  0.2903
 1348BOLB   C1A32333  13.397  16.231  10.228 -0.0452  0.3966 -0.0637
 1348BOLB   C2A32334  13.296  16.188   9.836  0.2067  0.0875 -0.0747
 1348BOLB   C3A32335  13.258  15.939   9.423 -0.2287 -0.4104  0.0669
 1348BOLB   C4A32336  13.532  15.894   9.041  0.0771  0.0058  0.0257
 1348BOLB   C1B32337  13.355  16.932  10.190  0.0160  0.3520 -0.0927
 1348BOLB   C2B32338  13.191  16.990   9.932 -0.1433 -0.0296  0.3426
 1348BOLB   C3B32339  13.271  17.059   9.555 -0.2187  0.3185  0.1270
 1348BOLB   C4B32340  13.013  16.934   9.226  0.0984 -0.1398  0.0537
 1348BOLB   NC232341  12.760  15.968   6.492  0.1220  0.5726 -0.1148
 1348BOLB   PO232342  12.945  15.816   6.934 -0.1534 -0.2307 -0.3301
 1348BOLB   GL332343  13.109  15.701   7.344 -0.1439 -0.4616  0.0090
 1348BOLB   GL432344  12.801  15.864   7.473  0.0565  0.2323 -0.1171
 1348BOLB   C1C32345  13.307  15.889   7.648  0.1213 -0.1598 -0.0931
 1348BOLB   C2C32346  13.507  16.096   7.976 -0.0393  0.1444  0.0008
 1348BOLB   C3C32347  13.631  16.032   8.319 -0.0070 -0.4078 -0.3563
 1348BOLB   C4C32348  13.798  15.919   8.701  0.3198  0.0493 -0.0018
 1348BOLB   C1D32349  12.908  15.941   7.973  0.1648  0.0297 -0.0106
 1348BOLB   C2D32350  13.016  16.102   8.403 -0.1260  0.0883  0.0133
 1348BOLB   C3D32351  13.273  16.301   8.715  0.0920 -0.1589  0.3348
 1348BOLB   C4D32352  13.219  16.718   8.815 -0.2544 -0.1558  0.0811
 1349BOLB   NC132353  22.328  11.174  13.846  0.1418  0.2457  0.3148
 1349BOLB   PO132354  22.045  11.371  13.734 -0.0595  0.0619 -0.0501
 1349BOLB   GL132355  22.160  11.235  13.394 -0.1763  0.3782 -0.0774
 1349BOLB   GL232356  21.963  10.991  13.281  0.1549  0.0383 -0.0966
 1349BOLB   C1A32357  22.425  11.156  13.216 -0.1783 -0.0064  0.0328
 1349BOLB   C2A32358  22.716  11.204  12.886  0.2128 -0.1524 -0.0601
 1349BOLB   C3A32359  22.891  11.158  12.465 -0.0125  0.0627 -0.0900
 1349BOLB   C4A32360  23.042  11.209  12.035  0.3014  0.0433  0.0855
 1349BOLB   C1B32361  22.181  10.847  12.838  0.1560 -0.0658  0.1112
 1349BOLB   C2B32362  22.259  10.748  12.471 -0.0459  0.2787 -0.0769
 1349BOLB   C3B32363  22.660  10.726  12.311  0.0143 -0.4953 -0.1500
 1349BOLB   C4B32364  22.883  10.746  11.809  0.1212  0.1843  0.0920
 1349BOLB   NC232365  23.505  10.964   9.840  0.0554 -0.1956  0.1840
 1349BOLB   PO232366  23.116  11.130   9.558  0.1402 -0.0464 -0.1702
 1349BOLB   GL332367  23.160  11.306   9.946 -0.2841 -0.2128 -0.2565
 1349BOLB   GL432368  23.069  11.657   9.960 -0.2927 -0.0375  0.2662
 1349BOLB   C1C32369  23.089  11.348  10.512  0.1989  0.0069  0.0810
 1349BOLB   C2C32370  22.992  11.363  10.888 -0.0049 -0.1551  0.0158
 1349BOLB   C3C32371  22.729  11.272  11.221  0.3715  0.0103  0.1742
 1349BOLB   C4C32372  22.768  11.280  11.724  0.0633 -0.3033  0.1767
 1349BOLB   C1D32373  23.135  11.975  10.298  0.3403  0.2386  0.0762
 1349BOLB   C2D32374  23.144  11.852  10.693 -0.0110 -0.2255  0.2073
 1349BOLB   C3D32375  22.752  11.819  10.907  0.2250 -0.1982 -0.0918
 1349BOLB   C4D32376  22.426  12.010  10.935  0.4639 -0.1616  0.0937
 1350BOLB   NC132377  19.059  16.786  11.734  0.0724 -0.2543  0.0844
 1350BOLB   PO132378  19.208  17.192  11.527 -0.0070 -0.1420  0.2400
 1350BOLB   GL132379  19.372  17.400  11.195 -0.1144  0.1924 -0.4179
 1350BOLB   GL232380  19.703  17.461  11.267 -0.1715  0.2385 -0.2533
 1350BOLB   C1A32381  19.441  17.760  10.914 -0.0456 -0.1529 -0.0358
 1350BOLB   C2A32382  19.552  17.875  10.428 -0.1867  0.2635 -0.2493
 1350BOLB   C3A32383  19.746  17.840   9.983 -0.0168  0.3040  0.2512
 1350BOLB   C4A32384  20.098  17.685   9.777  0.0278 -0.0509 -0.1099
 1350BOLB   C1B32385  20.022  17.263  11.093 -0.1086  0.1458 -0.2661
 1350BOLB   C2B32386  20.372  17.258  10.840 -0.2986 -0.0599  0.3685
 1350BOLB   C3B32387  20.316  17.359  10.368 -0.3494 -0.1887 -0.1166
 1350BOLB   C4B32388  20.467  17.331   9.958  0.0488  0.0972 -0.0839
 1350BOLB   NC232389  20.767  18.993   7.973  0.1592 -0.0411  0.1619
 1350BOLB   PO232390  20.576  19.357   7.873  0.2279  0.0743  0.2582
 1350BOLB   GL332391  20.217  19.199   8.175  0.0145  0.2477  0.1879
 1350BOLB   GL432392  19.854  19.174   8.134  0.0915 -0.0104 -0.1884
 1350BOLB   C1C32393  20.223  18.905   8.436 -0.2662  0.1364  0.1454
 1350BOLB   C2C32394  20.019  18.559   8.680 -0.1086 -0.1527 -0.1680
 1350BOLB   C3C32395  20.212  18.173   9.012 -0.0401 -0.3042 -0.0674
 1350BOLB   C4C32396  20.199  17.819   9.300 -0.1739  0.0427  0.1129
 1350BOLB   C1D32397  19.671  18.765   8.396  0.1872  0.2557 -0.0494
 1350BOLB   C2D32398  19.370  18.600   8.787 -0.1038  0.0655 -0.0783
 1350BOLB   C3D32399  19.637  18.344   9.049  0.2328 -0.0136  0.1713
 1350BOLB   C4D32400  19.758  17.909   9.003 -0.0140  0.1111 -0.2319
 1351BOLB   NC132401   9.673  12.016  11.865  0.1654  0.0018  0.1969
 1351BOLB   PO132402  10.034  12.295  11.755  0.2253 -0.4237 -0.0214
 1351BOLB   GL132403   9.687  12.363  11.418 -0.0647 -0.2173  0.0143
 1351BOLB   GL232404   9.772  12.101  11.313 -0.1174 -0.0170  0.0169
 1351BOLB   C1A32405   9.260  12.254  11.217 -0.1974  0.4254  0.1639
 1351BOLB   C2A32406   9.015  12.440  10.835 -0.1935  0.0443 -0.2049
 1351BOLB   C3A32407   8.673  12.423  10.605 -0.1628  0.0398 -0.4721
 1351BOLB   C4A32408   8.717  12.338  10.223 -0.0458 -0.0861  0.1772
 1351BOLB   C1B32409   9.647  12.265  10.924  0.1956  0.2262 -0.1982
 1351BOLB   C2B32410   9.476  12.298  10.662 -0.0714  0.2862  0.0052
 1351BOLB   C3B32411   9.374  12.262  10.306  0.2835 -0.0044  0.1100
 1351BOLB   C4B32412   9.542  12.163   9.909  0.0436 -0.0621  0.1436
 1351BOLB   NC232413   8.317  13.380   7.987 -0.2581  0.0085  0.1411
 1351BOLB   PO232414   8.393  12.935   7.984  0.0729 -0.0375 -0.2110
 1351BOLB   GL332415   8.564  12.698   8.316  0.0014 -0.0554  0.2086
 1351BOLB   GL432416   8.358  12.391   8.419  0.1453  0.3029  0.1287
 1351BOLB   C1C32417   8.697  12.741   8.797 -0.1969 -0.4493  0.1770
 1351BOLB   C2C32418   8.658  12.543   9.087  0.0564  0.1491 -0.1408
 1351BOLB   C3C32419   8.653  12.663   9.550 -0.1508  0.4638 -0.2240
 1351BOLB   C4C32420   8.521  12.646   9.977 -0.0315  0.2443  0.1935
 1351BOLB   C1D32421   8.755  12.256   8.701 -0.3086 -0.1902  0.2954
 1351BOLB   C2D32422   8.875  12.114   8.994 -0.0362  0.1716  0.1432
 1351BOLB   C3D32423   9.158  11.922   9.139  0.1559  0.0573 -0.1498
 1351BOLB   C4D32424   9.325  11.862   9.517  0.0319  0.0218 -0.2247
 1352BOLB   NC132425  16.864  18.571  11.503 -0.0739 -0.1821 -0.3128
 1352BOLB   PO132426  16.865  19.040  11.626 -0.1006 -0.1403  0.2457
 1352BOLB   GL132427  17.228  19.218  11.347  0.0618 -0.3542 -0.2296
 1352BOLB   GL232428  17.094  19.230  11.012  0.2487 -0.2250 -0.1620
 1352BOLB   C1A32429  17.611  19.136  11.146 -0.0645 -0.0333  0.0702
 1352BOLB   C2A32430  17.888  18.969  10.720  0.0271  0.3025 -0.0943
 1352BOLB   C3A32431  17.991  18.973  10.324  0.2444  0.3662 -0.0068
 1352BOLB   C4A32432  18.000  18.924   9.918  0.0737  0.0638  0.1718
 1352BOLB   C1B32433  17.058  19.225  10.588 -0.0397 -0.0469 -0.0085
 1352BOLB   C2B32434  17.143  19.361  10.098  0.3306 -0.3047  0.1088
 1352BOLB   C3B32435  17.137  19.437   9.628 -0.1953  0.1607 -0.1586
 1352BOLB   C4B32436  16.975  19.636   9.211  0.0860  0.0335 -0.3111
 1352BOLB   NC232437  18.556  18.405   7.495 -0.2113  0.0791  0.0798
 1352BOLB   PO232438  18.121  18.549   7.440  0.0279 -0.2996  0.0033
 1352BOLB   GL332439  18.096  18.350   7.771 -0.1589  0.3416 -0.3817
 1352BOLB   GL432440  18.112  18.029   7.780 -0.1368  0.0903  0.0303
 1352BOLB   C1C32441  18.039  18.446   8.267 -0.3095  0.0460  0.2004
 1352BOLB   C2C32442  18.031  18.568   8.666  0.0699  0.2736  0.1193
 1352BOLB   C3C32443  18.084  18.818   9.099  0.0010  0.1787 -0.2407
 1352BOLB   C4C32444  17.943  18.718   9.493  0.0354 -0.1093  0.1641
 1352BOLB   C1D32445  18.056  17.724   8.024  0.2193  0.2983  0.0961
 1352BOLB   C2D32446  18.009  17.355   8.280  0.0819 -0.1112 -0.0761
 1352BOLB   C3D32447  18.121  17.279   8.677  0.0497 -0.0120  0.1464
 1352BOLB   C4D32448  18.108  17.109   9.063 -0.0294  0.0389 -0.2662
 1353BOLB   NC132449   8.199  21.040  12.125  0.0519  0.1613 -0.1403
 1353BOLB   PO132450   8.563  20.707  12.163 -0.2673 -0.0730  0.0179
 1353BOLB   GL132451   8.855  20.773  11.870 -0.3954 -0.2265 -0.1958
 1353BOLB   GL232452   9.094  21.123  11.799  0.3128  0.1199 -0.1774
 1353BOLB   C1A32453   8.678  20.870  11.417 -0.0157 -0.1182  0.0020
 1353BOLB   C2A32454   8.372  20.812  11.110 -0.0914  0.1425 -0.0341
 1353BOLB   C3A32455   8.082  20.729  10.827  0.0635  0.1036  0.4055
 1353BOLB   C4A32456   7.844  20.728  10.459 -0.3559  0.0249  0.1862
 1353BOLB   C1B32457   9.148  21.015  11.350 -0.2887  0.0628 -0.1276
 1353BOLB   C2B32458   9.177  20.955  10.965  0.1684  0.1501  0.1934
 1353BOLB   C3B32459   9.167  20.689  10.527 -0.0199 -0.2967  0.4481
 1353BOLB   C4B32460   9.132  20.403  10.234 -0.2149  0.1289  0.2638
 1353BOLB   NC232461   7.305  21.498   7.737  0.2032 -0.1268 -0.1989
 1353BOLB   PO232462   7.566  21.142   7.931 -0.1921  0.1686  0.1327
 1353BOLB   GL332463   7.689  21.163   8.419  0.1341 -0.1301  0.1915
 1353BOLB   GL432464   7.829  21.372   8.585  0.1249  0.1275  0.1106
 1353BOLB   C1C32465   7.688  21.100   8.958 -0.0829 -0.1006  0.2135
 1353BOLB   C2C32466   7.947  21.114   9.266  0.2309 -0.2837 -0.2995
 1353BOLB   C3C32467   8.092  20.911   9.633  0.0171  0.2186  0.0504
 1353BOLB   C4C32468   7.918  20.641  10.045  0.0435 -0.1189  0.0531
 1353BOLB   C1D32469   8.221  21.254   8.834  0.3698  0.0660 -0.0433
 1353BOLB   C2D32470   8.487  21.216   9.240  0.1236 -0.0082  0.1847
 1353BOLB   C3D32471   8.570  20.969   9.535  0.1316  0.0879  0.0542
 1353BOLB   C4D32472   8.751  20.665   9.836  0.0161  0.1724  0.2002
 1354BOLB   NC132473  19.608  13.191  12.278  0.2931  0.5269  0.0954
 1354BOLB   PO132474  19.910  13.367  12.179 -0.0499 -0.0189 -0.1784
 1354BOLB   GL132475  19.824  13.387  11.786  0.0175  0.0089 -0.1402
 1354BOLB   GL232476  19.640  13.594  11.700 -0.1377 -0.0351 -0.0209
 1354BOLB   C1A32477  19.958  13.252  11.478  0.1121 -0.0768  0.0378
 1354BOLB   C2A32478  19.923  13.344  11.041  0.3108  0.1097 -0.0425
 1354BOLB   C3A32479  19.826  13.348  10.633 -0.0195 -0.0094  0.1940
 1354BOLB   C4A32480  20.070  13.428  10.414  0.0277 -0.3743 -0.1738
 1354BOLB   C1B32481  19.754  13.791  11.336  0.2117  0.0940  0.1597
 1354BOLB   C2B32482  19.870  13.785  10.921  0.0592  0.0390 -0.1167
 1354BOLB   C3B32483  20.220  13.903  10.673 -0.1077 -0.1417  0.1466
 1354BOLB   C4B32484  20.426  14.010  10.244 -0.0988 -0.0975 -0.2002
 1354BOLB   NC232485  21.730  13.896   8.436 -0.0877  0.0877  0.0115
 1354BOLB   PO232486  21.719  13.484   8.388  0.0660  0.0512 -0.0391
 1354BOLB   GL332487  21.545  13.362   8.836  0.0377  0.4829  0.1120
 1354BOLB   GL432488  21.600  13.647   8.970 -0.1440 -0.1622  0.0509
 1354BOLB   C1C32489  21.616  13.359   9.393 -0.0566 -0.1118 -0.1735
 1354BOLB   C2C32490  21.196  13.362   9.620  0.1203 -0.1138  0.2119
 1354BOLB   C3C32491  20.817  13.377   9.905  0.0136 -0.0097 -0.1313
 1354BOLB   C4C32492  20.453  13.438  10.114 -0.1215 -0.2194 -0.2460
 1354BOLB   C1D32493  21.165  13.501   9.109  0.1568 -0.1382  0.1918
 1354BOLB   C2D32494  20.773  13.536   8.952 -0.1261 -0.2133  0.0417
 1354BOLB   C3D32495  20.512  13.883   9.206  0.2335 -0.1101  0.0033
 1354BOLB   C4D32496  20.245  14.250   9.377 -0.0170 -0.1532 -0.2571
 1355BOLB   NC132497  11.224  14.005  12.100  0.2549 -0.2142  0.2445
 1355BOLB   PO132498  11.234  13.516  12.131 -0.1760  0.1197  0.0067
 1355BOLB   GL132499  11.298  13.295  11.619 -0.0689 -0.0319 -0.0065
 1355BOLB   GL232500  11.069  13.025  11.468 -0.0162  0.0648  0.3108
 1355BOLB   C1A32501  11.190  13.428  11.228  0.0996  0.1729  0.0002
 1355BOLB   C2A32502  11.063  13.481  10.712  0.1200 -0.0959  0.2781
 1355BOLB   C3A32503  11.005  13.482  10.357  0.0355 -0.1121 -0.2021
 1355BOLB   C4A32504  11.056  13.591   9.908  0.1143 -0.2594 -0.2422
 1355BOLB   C1B32505  11.129  12.933  10.988  0.1628 -0.0278  0.2211
 1355BOLB   C2B32506  11.077  12.581  10.812  0.1581 -0.2428  0.0081
 1355BOLB   C3B32507  11.025  12.671  10.353 -0.1298  0.4374  0.2026
 1355BOLB   C4B32508  11.011  12.580   9.888  0.2905 -0.0290  0.2167
 1355BOLB   NC232509  10.149  12.674   7.376 -0.1109 -0.0730 -0.1825
 1355BOLB   PO232510  10.321  12.969   7.638  0.0557 -0.1702 -0.2186
 1355BOLB   GL332511  10.541  12.954   8.123  0.3507 -0.1620 -0.0372
 1355BOLB   GL432512  10.303  13.016   8.250 -0.0583  0.3761  0.4383
 1355BOLB   C1C32513  10.859  12.882   8.430 -0.0741 -0.2437  0.1817
 1355BOLB   C2C32514  10.941  13.135   8.691 -0.1146 -0.3006 -0.0891
 1355BOLB   C3C32515  10.965  13.327   9.091 -0.3608 -0.2129  0.2328
 1355BOLB   C4C32516  10.936  13.614   9.493 -0.1524  0.1176 -0.0776
 1355BOLB   C1D32517  10.400  13.028   8.592  0.1234  0.2746 -0.0085
 1355BOLB   C2D32518  10.575  12.981   8.957  0.3857  0.4663  0.0214
 1355BOLB   C3D32519  10.372  12.879   9.373  0.0133  0.0343 -0.2040
 1355BOLB   C4D32520  10.167  12.488   9.438 -0.1316  0.1465 -0.1144
 1356BOLB   NC132521   9.595  20.801  11.745 -0.3150 -0.0195 -0.1741
 1356BOLB   PO132522   9.925  20.509  11.894 -0.1129  0.1595  0.0188
 1356BOLB   GL132523   9.862  20.377  11.461 -0.1154  0.2675  0.0761
 1356BOLB   GL232524  10.034  20.202  11.345 -0.2129 -0.0622  0.1475
 1356BOLB   C1A32525   9.854  20.439  10.966 -0.2080 -0.1795 -0.0233
 1356BOLB   C2A32526  10.043  20.165  10.624  0.0610  0.1662 -0.0454
 1356BOLB   C3A32527   9.889  19.875  10.310  0.2688 -0.2506  0.1490
 1356BOLB   C4A32528   9.840  19.557   9.976  0.1955 -0.1184 -0.1911
 1356BOLB   C1B32529  10.183  19.918  11.091 -0.2264 -0.3486 -0.1500
 1356BOLB   C2B32530  10.118  19.639  10.725  0.1621 -0.0867  0.1903
 1356BOLB   C3B32531  10.130  19.456  10.386 -0.1617  0.1951  0.2383
 1356BOLB   C4B32532  10.146  19.142  10.080  0.0178  0.2112  0.1410
 1356BOLB   NC232533   9.657  19.044   7.681 -0.0671  0.0641  0.0164
 1356BOLB   PO232534   9.323  19.468   7.699 -0.0579  0.0265 -0.0522
 1356BOLB   GL332535   9.343  19.367   8.076 -0.0655  0.0831 -0.0826
 1356BOLB   GL432536   9.264  19.018   8.128 -0.1030  0.1752  0.1354
 1356BOLB   C1C32537   9.597  19.395   8.434 -0.0827 -0.1174 -0.2455
 1356BOLB   C2C32538   9.735  19.272   8.883 -0.0592  0.0456  0.2963
 1356BOLB   C3C32539   9.781  19.378   9.311  0.2088  0.0756 -0.1565
 1356BOLB   C4C32540   9.934  19.207   9.624 -0.0508 -0.2952  0.1651
 1356BOLB   C1D32541   9.392  18.975   8.505 -0.0538 -0.0400  0.0284
 1356BOLB   C2D32542   9.494  18.812   8.878 -0.0157  0.0019 -0.1421
 1356BOLB   C3D32543   9.366  18.915   9.237 -0.5640  0.0776  0.1197
 1356BOLB   C4D32544   9.369  19.117   9.638  0.2365  0.1929 -0.2062
 1357BOLB   NC132545  21.858  10.119  15.933 -0.1044  0.1527 -0.0672
 1357BOLB   PO132546  21.924   9.807  15.744  0.2218 -0.0859  0.1431
 1357BOLB   GL132547  21.963   9.445  15.453  0.1508  0.2935  0.0959
 1357BOLB   GL232548  21.878   9.419  15.182 -0.0826 -0.4193  0.0191
 1357BOLB   C1A32549  22.223   9.098  15.375  0.1221  0.1235  0.1611
 1357BOLB   C2A32550  22.473   8.803  15.126  0.2281 -0.2411  0.2034
 1357BOLB   C3A32551  22.534   8.342  14.911 -0.1436  0.2311  0.1030
 1357BOLB   C4A32552  22.798   8.191  14.588  0.3408  0.3146  0.2664
 1357BOLB   C1B32553  21.833   8.989  15.053 -0.2067 -0.0766  0.0138
 1357BOLB   C2B32554  21.931   8.573  15.148 -0.2943  0.0251 -0.2679
 1357BOLB   C3B32555  21.976   8.101  15.081 -0.2204  0.0466 -0.0978
 1357BOLB   C4B32556  22.068   7.652  15.110 -0.0923 -0.1181  0.0440
 1357BOLB   NC232557  24.797   7.005  13.640 -0.0237  0.1139 -0.2568
 1357BOLB   PO232558  24.450   7.082  13.372 -0.3289 -0.2993 -0.0186
 1357BOLB   GL332559  24.312   7.359  13.664 -0.2974 -0.1543 -0.1118
 1357BOLB   GL432560  24.176   7.651  13.607  0.1696  0.1288 -0.2255
 1357BOLB   C1C32561  23.900   7.254  13.866 -0.1165  0.1369  0.2746
 1357BOLB   C2C32562  23.433   7.308  14.004  0.0110 -0.3420  0.0907
 1357BOLB   C3C32563  23.204   7.485  14.235 -0.1172 -0.1260  0.2050
 1357BOLB   C4C32564  22.833   7.842  14.298 -0.0685 -0.0980  0.0058
 1357BOLB   C1D32565  23.860   7.917  13.568 -0.0472 -0.0551 -0.1607
 1357BOLB   C2D32566  23.637   8.258  13.537  0.0231 -0.2092  0.1408
 1357BOLB   C3D32567  23.623   8.648  13.439  0.0508  0.0906 -0.0630
 1357BOLB   C4D32568  23.249   8.728  13.361  0.1886 -0.2744  0.2090
 1358BOLB   NC132569  17.689  15.097  11.803 -0.3390 -0.1499  0.1700
 1358BOLB   PO132570  17.826  14.861  11.390 -0.1157  0.3094  0.4468
 1358BOLB   GL132571  18.029  14.761  11.075 -0.1835 -0.0893 -0.1868
 1358BOLB   GL232572  18.303  14.826  10.952 -0.1361 -0.1246  0.2534
 1358BOLB   C1A32573  17.847  14.791  10.599  0.0135 -0.1083  0.1709
 1358BOLB   C2A32574  18.065  14.854  10.170  0.2662  0.1247 -0.2378
 1358BOLB   C3A32575  18.150  14.802   9.776  0.0725  0.0023  0.0789
 1358BOLB   C4A32576  18.352  15.277   9.719 -0.4205 -0.1316 -0.1821
 1358BOLB   C1B32577  18.542  15.005  10.575 -0.0232  0.3980 -0.0382
 1358BOLB   C2B32578  18.554  14.994  10.135 -0.0475  0.0138  0.0140
 1358BOLB   C3B32579  18.635  14.900   9.741 -0.2009  0.3601 -0.0698
 1358BOLB   C4B32580  18.458  14.903   9.404  0.0642 -0.1325 -0.1260
 1358BOLB   NC232581  18.403  15.120   7.483 -0.2018  0.0122 -0.2316
 1358BOLB   PO232582  18.198  14.797   7.479  0.2486  0.0318 -0.0691
 1358BOLB   GL332583  18.409  14.851   7.911  0.2392  0.1078 -0.1970
 1358BOLB   GL432584  18.471  15.183   7.973  0.2953  0.0948 -0.0708
 1358BOLB   C1C32585  18.210  14.888   8.328 -0.1750 -0.3761  0.1546
 1358BOLB   C2C32586  18.406  15.205   8.519 -0.0307  0.3979  0.1100
 1358BOLB   C3C32587  18.608  15.331   8.912  0.1324  0.1705 -0.0622
 1358BOLB   C4C32588  18.650  15.382   9.424  0.0038 -0.3828  0.1114
 1358BOLB   C1D32589  18.680  15.547   8.109 -0.3819 -0.2284  0.1787
 1358BOLB   C2D32590  18.595  15.997   8.146  0.0046 -0.0606  0.4134
 1358BOLB   C3D32591  18.144  16.076   8.053 -0.1037  0.0575  0.0633
 1358BOLB   C4D32592  17.805  15.939   7.928  0.0775 -0.3131  0.0331
 1359BOLB   NC132593  15.536  22.461  11.726  0.1304  0.1184  0.3468
 1359BOLB   PO132594  15.502  22.091  11.416  0.1950  0.1365  0.2449
 1359BOLB   GL132595  15.302  22.079  11.134  0.2025  0.1004 -0.1191
 1359BOLB   GL232596  15.016  21.874  11.113 -0.0874  0.1538  0.1248
 1359BOLB   C1A32597  15.180  22.393  10.861  0.2638  0.3431  0.0946
 1359BOLB   C2A32598  14.916  22.650  10.593 -0.1974 -0.1648  0.0321
 1359BOLB   C3A32599  14.707  22.714  10.218  0.0775  0.2533 -0.1138
 1359BOLB   C4A32600  14.781  22.940   9.913  0.1500 -0.2163 -0.2718
 1359BOLB   C1B32601  15.160  21.839  10.660 -0.0921 -0.2807  0.0564
 1359BOLB   C2B32602  15.387  21.772  10.317 -0.2654 -0.0323 -0.0313
 1359BOLB   C3B32603  15.523  21.744   9.977  0.0553  0.1602  0.2015
 1359BOLB   C4B32604  15.580  21.768   9.626  0.0262 -0.1383  0.0259
 1359BOLB   NC232605  15.549  23.102   7.309 -0.0320 -0.3803  0.1064
 1359BOLB   PO232606  15.156  23.084   7.576 -0.0835 -0.1480  0.1920
 1359BOLB   GL332607  15.144  23.050   7.960 -0.1734  0.2882 -0.3380
 1359BOLB   GL432608  14.980  22.843   8.099 -0.1553  0.0265  0.0344
 1359BOLB   C1C32609  15.098  23.304   8.378  0.0458  0.3394 -0.3544
 1359BOLB   C2C32610  15.051  23.470   8.764  0.0748  0.0046  0.0987
 1359BOLB   C3C32611  14.853  23.164   9.043 -0.1572 -0.0605  0.3603
 1359BOLB   C4C32612  14.808  23.029   9.459  0.2081 -0.1223 -0.1951
 1359BOLB   C1D32613  15.271  22.511   8.312 -0.2897  0.0610  0.2442
 1359BOLB   C2D32614  15.354  22.126   8.555  0.2672  0.2120 -0.2414
 1359BOLB   C3D32615  15.661  21.935   8.897 -0.0813 -0.0541 -0.0852
 1359BOLB   C4D32616  15.996  21.952   9.207 -0.1907 -0.1313  0.0068
 1360BOLB   NC132617  15.121  11.310  12.692  0.3136 -0.0962 -0.3718
 1360BOLB   PO132618  15.048  11.053  12.299  0.2753  0.0507 -0.1194
 1360BOLB   GL132619  15.383  11.054  11.872 -0.0168  0.0336  0.2691
 1360BOLB   GL232620  15.641  10.845  11.692  0.1232 -0.1140 -0.0568
 1360BOLB   C1A32621  15.349  11.199  11.437 -0.0383 -0.1506  0.2887
 1360BOLB   C2A32622  15.666  11.230  11.101 -0.0305  0.1270  0.2904
 1360BOLB   C3A32623  15.871  11.091  10.787 -0.4432 -0.0984  0.1004
 1360BOLB   C4A32624  15.892  10.865  10.460  0.4813  0.1576  0.0872
 1360BOLB   C1B32625  15.537  10.741  11.257 -0.0510  0.2923 -0.0969
 1360BOLB   C2B32626  15.491  10.674  10.770 -0.2291 -0.1377 -0.2632
 1360BOLB   C3B32627  15.359  10.578  10.428  0.0691  0.0758 -0.0245
 1360BOLB   C4B32628  15.076  10.380  10.326 -0.1860  0.1153  0.1895
 1360BOLB   NC232629  16.672  10.543   7.995 -0.0813  0.1687  0.0698
 1360BOLB   PO232630  16.235  10.524   8.179  0.0306  0.2650  0.1968
 1360BOLB   GL332631  16.149  10.289   8.625  0.2602  0.1291 -0.0375
 1360BOLB   GL432632  15.883  10.437   8.763  0.3484  0.2133 -0.2183
 1360BOLB   C1C32633  16.244  10.289   9.063 -0.0807 -0.3267  0.2464
 1360BOLB   C2C32634  16.276  10.533   9.406  0.2139  0.0243 -0.0276
 1360BOLB   C3C32635  15.890  10.597   9.601 -0.1439  0.2252 -0.1880
 1360BOLB   C4C32636  15.779  10.717  10.040  0.3039  0.1599 -0.2760
 1360BOLB   C1D32637  15.777  10.495   9.121  0.0597 -0.1096  0.2049
 1360BOLB   C2D32638  15.516  10.293   9.410 -0.2231 -0.0782 -0.0700
 1360BOLB   C3D32639  15.461  10.239   9.889  0.0952  0.1888  0.1962
 1360BOLB   C4D32640  15.608  10.238  10.215  0.1048  0.4493  0.2963
 1361BOLB   NC132641  11.110  10.191  12.304 -0.0613  0.4590  0.0840
 1361BOLB   PO132642  10.635  10.199  12.161  0.0057  0.0147 -0.0780
 1361BOLB   GL132643  10.579  10.266  11.728  0.2072  0.3013  0.1270
 1361BOLB   GL232644  10.421   9.971  11.723  0.3237  0.3224  0.1463
 1361BOLB   C1A32645  10.564  10.361  11.261  0.2400 -0.1181  0.1131
 1361BOLB   C2A32646  10.565  10.452  10.924 -0.1698 -0.3709 -0.1219
 1361BOLB   C3A32647  10.670  10.178  10.534  0.3034 -0.0635 -0.0088
 1361BOLB   C4A32648  10.648  10.185  10.060  0.2247 -0.2428 -0.0143
 1361BOLB   C1B32649  10.301   9.970  11.375 -0.1379 -0.0426  0.2362
 1361BOLB   C2B32650  10.343   9.923  10.842 -0.1577 -0.2500  0.0651
 1361BOLB   C3B32651  10.277   9.933  10.317 -0.0284  0.2353 -0.1004
 1361BOLB   C4B32652  10.355   9.802   9.936 -0.1394 -0.1792  0.4616
 1361BOLB   NC232653  10.757   9.790   7.529  0.1304  0.1453 -0.2694
 1361BOLB   PO232654  11.120  10.119   7.541  0.4252 -0.1046  0.2219
 1361BOLB   GL332655  11.115  10.215   8.103 -0.1509  0.0279  0.1629
 1361BOLB   GL432656  10.826  10.396   8.247  0.1140  0.1377 -0.1798
 1361BOLB   C1C32657  11.170   9.924   8.506 -0.1788  0.0875  0.1023
 1361BOLB   C2C32658  10.993   9.856   8.878 -0.2034  0.2430  0.0123
 1361BOLB   C3C32659  10.897   9.871   9.321 -0.2678  0.0741  0.2010
 1361BOLB   C4C32660  10.828   9.946   9.752  0.3302 -0.1374  0.0184
 1361BOLB   C1D32661  10.998  10.457   8.538 -0.2303 -0.0699  0.1966
 1361BOLB   C2D32662  11.206  10.325   8.950 -0.0504  0.1507  0.0828
 1361BOLB   C3D32663  11.269  10.281   9.399  0.2293  0.3851  0.0106
 1361BOLB   C4D32664  11.371   9.980   9.821  0.3092  0.0314 -0.1530
 1362BOLB   NC132665  18.681  23.331  13.168  0.0314  0.3442 -0.0206
 1362BOLB   PO132666  18.998  23.516  12.825  0.0858 -0.1681 -0.1940
 1362BOLB   GL132667  19.344  23.709  12.659 -0.2242 -0.2271 -0.1861
 1362BOLB   GL232668  19.640  23.489  12.546 -0.1239  0.2903  0.1871
 1362BOLB   C1A32669  19.516  23.803  12.136  0.0001 -0.1377 -0.1899
 1362BOLB   C2A32670  19.377  23.740  11.643 -0.1051 -0.0255 -0.1804
 1362BOLB   C3A32671  19.138  23.822  11.175 -0.0845 -0.0118 -0.4963
 1362BOLB   C4A32672  18.999  23.972  10.839  0.0050 -0.0266  0.0452
 1362BOLB   C1B32673  19.961  23.243  12.230  0.0637 -0.1396 -0.2096
 1362BOLB   C2B32674  20.124  23.349  11.844 -0.2917  0.2285  0.1982
 1362BOLB   C3B32675  20.215  23.380  11.427  0.0017 -0.2212 -0.0469
 1362BOLB   C4B32676  20.346  23.698  11.036  0.2951 -0.1798  0.0019
 1362BOLB   NC232677  20.593  25.051   9.206 -0.3971 -0.2179 -0.1600
 1362BOLB   PO232678  20.121  25.182   9.351 -0.2731 -0.0603  0.3010
 1362BOLB   GL332679  19.952  25.064   9.748  0.3102  0.0710  0.1241
 1362BOLB   GL432680  20.062  24.772   9.858 -0.1162  0.1249  0.0332
 1362BOLB   C1C32681  19.580  24.981  10.029 -0.2563  0.2005 -0.0699
 1362BOLB   C2C32682  19.150  24.883  10.019 -0.3737  0.1157  0.0152
 1362BOLB   C3C32683  18.954  24.666  10.457  0.2620 -0.0487  0.0511
 1362BOLB   C4C32684  19.053  24.340  10.634 -0.0743 -0.0006 -0.1413
 1362BOLB   C1D32685  20.036  24.510  10.159 -0.0854  0.0438  0.2225
 1362BOLB   C2D32686  19.931  24.008  10.249  0.3662  0.2398  0.0083
 1362BOLB   C3D32687  19.813  23.611  10.520 -0.1216  0.0686 -0.0432
 1362BOLB   C4D32688  19.725  23.164  10.557  0.2392 -0.2842  0.0502
 1363BOLB   NC132689  11.941  18.859  11.476 -0.0760 -0.0068  0.0119
 1363BOLB   PO132690  11.609  18.491  11.329  0.1582 -0.3566 -0.3647
 1363BOLB   GL132691  11.381  18.272  10.971  0.0845 -0.1198  0.3389
 1363BOLB   GL232692  11.296  18.663  10.853  0.0189 -0.0335  0.2078
 1363BOLB   C1A32693  11.505  18.191  10.543  0.2080  0.1996 -0.1924
 1363BOLB   C2A32694  11.620  18.202  10.119  0.0351  0.4330 -0.0744
 1363BOLB   C3A32695  11.697  18.211   9.700  0.2293 -0.2666  0.2460
 1363BOLB   C4A32696  11.632  18.402   9.395 -0.1928 -0.0519 -0.2352
 1363BOLB   C1B32697  11.321  18.694  10.381  0.3794  0.1367  0.1677
 1363BOLB   C2B32698  11.184  19.039  10.209 -0.1987  0.1227 -0.2342
 1363BOLB   C3B32699  11.294  19.479  10.115 -0.0709 -0.1605 -0.1030
 1363BOLB   C4B32700  11.247  19.855   9.849 -0.0418 -0.2293  0.1199
 1363BOLB   NC232701  11.556  18.106   7.208 -0.1349 -0.1637  0.1862
 1363BOLB   PO232702  11.392  18.615   7.210 -0.2340  0.0573 -0.1214
 1363BOLB   GL332703  11.415  18.622   7.623 -0.0657  0.2260  0.2969
 1363BOLB   GL432704  11.378  18.256   7.675  0.5163 -0.0139  0.1626
 1363BOLB   C1C32705  11.168  18.634   7.951  0.2273 -0.2196  0.0960
 1363BOLB   C2C32706  11.338  18.364   8.321 -0.2588 -0.0903  0.1514
 1363BOLB   C3C32707  11.497  18.548   8.605 -0.1176  0.0827  0.0686
 1363BOLB   C4C32708  11.552  18.558   9.028 -0.3194 -0.0420 -0.0882
 1363BOLB   C1D32709  11.477  18.024   7.981  0.0492  0.2048  0.0762
 1363BOLB   C2D32710  11.484  17.897   8.427 -0.2197 -0.0931 -0.2663
 1363BOLB   C3D32711  11.276  17.742   8.872  0.2057  0.0702 -0.1254
 1363BOLB   C4D32712  11.336  17.289   8.941  0.2679  0.2506  0.2204
 1364BOLB   NC132713  11.930  12.471  11.975  0.0685 -0.0971 -0.4144
 1364BOLB   PO132714  12.149  12.063  12.001 -0.1928  0.0275 -0.2844
 1364BOLB   GL132715  11.935  12.053  11.525 -0.1397 -0.2571  0.1425
 1364BOLB   GL232716  11.801  11.777  11.438 -0.0063 -0.0669 -0.2331
 1364BOLB   C1A32717  12.051  12.003  11.062 -0.0143  0.1182  0.1358
 1364BOLB   C2A32718  12.059  11.924  10.653 -0.0062  0.0251  0.3815
 1364BOLB   C3A32719  12.164  11.840  10.300 -0.1410  0.2794  0.1059
 1364BOLB   C4A32720  12.286  11.822   9.940 -0.0025 -0.0009 -0.2200
 1364BOLB   C1B32721  11.606  11.659  11.145 -0.0924  0.0128 -0.0200
 1364BOLB   C2B32722  11.723  11.543  10.704 -0.1553  0.0552  0.1398
 1364BOLB   C3B32723  11.755  11.581  10.353  0.1327 -0.0353 -0.1595
 1364BOLB   C4B32724  11.811  11.605   9.905 -0.1289 -0.0944  0.1672
 1364BOLB   NC232725  10.882  10.652   7.388  0.0863  0.4355  0.3318
 1364BOLB   PO232726  11.284  10.871   7.487 -0.0394 -0.2582  0.1100
 1364BOLB   GL332727  11.542  10.966   7.880  0.2471 -0.0930 -0.2116
 1364BOLB   GL432728  11.781  11.156   7.887  0.0691  0.2581  0.0012
 1364BOLB   C1C32729  11.579  11.121   8.387  0.2089  0.0610  0.0617
 1364BOLB   C2C32730  11.795  11.232   8.820 -0.3232  0.2494 -0.0456
 1364BOLB   C3C32731  11.905  11.564   9.069 -0.0784  0.0778  0.0475
 1364BOLB   C4C32732  12.098  11.643   9.505  0.2053 -0.3199 -0.0712
 1364BOLB   C1D32733  11.771  11.522   8.165  0.0719  0.1282  0.2332
 1364BOLB   C2D32734  12.086  11.638   8.568 -0.0304 -0.1932  0.2863
 1364BOLB   C3D32735  12.362  11.569   8.786  0.5316  0.0863  0.3105
 1364BOLB   C4D32736  12.672  11.387   8.755 -0.0158  0.1346  0.0337
 1365BOLB   NC132737  20.236  19.982  12.246  0.1903  0.1352 -0.2546
 1365BOLB   PO132738  20.465  19.678  12.552 -0.1277  0.2301  0.0879
 1365BOLB   GL132739  20.746  19.935  12.258  0.3421 -0.2340  0.1189
 1365BOLB   GL232740  20.938  20.201  12.324  0.3816 -0.0191 -0.0950
 1365BOLB   C1A32741  20.944  19.843  11.905 -0.2855 -0.0162 -0.1591
 1365BOLB   C2A32742  21.059  19.874  11.495 -0.0127 -0.0007 -0.2609
 1365BOLB   C3A32743  21.243  20.027  11.003  0.1056  0.1196  0.0690
 1365BOLB   C4A32744  21.173  20.132  10.677 -0.2404 -0.2698  0.0778
 1365BOLB   C1B32745  21.108  20.357  11.898  0.2209  0.1550  0.1118
 1365BOLB   C2B32746  21.498  20.546  11.804 -0.3206 -0.1316 -0.1550
 1365BOLB   C3B32747  21.878  20.419  11.662 -0.0677 -0.0585 -0.0517
 1365BOLB   C4B32748  22.263  20.272  11.933  0.2286  0.1130 -0.3856
 1365BOLB   NC232749  21.398  21.445   8.394  0.1856 -0.0940  0.0075
 1365BOLB   PO232750  21.430  21.128   8.688 -0.2525  0.1666 -0.1242
 1365BOLB   GL332751  21.402  20.927   8.974 -0.1435 -0.1352  0.0789
 1365BOLB   GL432752  21.425  21.119   9.266  0.2252 -0.1567 -0.0931
 1365BOLB   C1C32753  21.056  20.643   9.108 -0.4115  0.1615 -0.0350
 1365BOLB   C2C32754  21.074  20.398   9.466 -0.3329  0.1987 -0.0026
 1365BOLB   C3C32755  20.962  20.148   9.766 -0.1113 -0.2321 -0.1766
 1365BOLB   C4C32756  21.101  20.194  10.201  0.0022 -0.0946  0.3531
 1365BOLB   C1D32757  21.074  21.080   9.369 -0.1141 -0.0481  0.3355
 1365BOLB   C2D32758  20.719  20.813   9.623 -0.3096 -0.1248 -0.1057
 1365BOLB   C3D32759  20.516  20.426   9.584  0.1209  0.3980 -0.2806
 1365BOLB   C4D32760  20.329  20.092   9.292 -0.1656 -0.0379  0.1946
 1366BOLB   NC132761  13.783  11.208  11.920 -0.0352 -0.2778  0.1971
 1366BOLB   PO132762  13.496  11.504  11.730  0.1527 -0.1397  0.0721
 1366BOLB   GL132763  13.298  11.515  11.343 -0.2987  0.3689 -0.2237
 1366BOLB   GL232764  12.960  11.458  11.313  0.3180 -0.5059  0.0044
 1366BOLB   C1A32765  13.133  11.838  11.018 -0.0377  0.1303 -0.0326
 1366BOLB   C2A32766  13.136  11.623  10.526  0.1566 -0.2341  0.2707
 1366BOLB   C3A32767  13.370  11.504  10.165  0.1097 -0.1597  0.1725
 1366BOLB   C4A32768  13.577  11.497   9.838 -0.0098 -0.2984 -0.0159
 1366BOLB   C1B32769  13.104  11.366  10.915  0.1124  0.0300 -0.0935
 1366BOLB   C2B32770  13.261  11.175  10.601 -0.0930 -0.0313  0.0778
 1366BOLB   C3B32771  13.427  10.984  10.268 -0.3972 -0.3549 -0.1040
 1366BOLB   C4B32772  13.572  10.805   9.987 -0.5036 -0.2025 -0.0769
 1366BOLB   NC232773  13.128  12.119   7.646  0.0987 -0.2165 -0.1027
 1366BOLB   PO232774  13.511  12.396   7.427 -0.5156  0.0449 -0.3964
 1366BOLB   GL332775  13.667  12.342   7.853  0.0994 -0.1291 -0.2387
 1366BOLB   GL432776  13.869  12.213   7.869 -0.0065 -0.2085  0.2811
 1366BOLB   C1C32777  13.647  12.128   8.284  0.1236 -0.0696  0.0926
 1366BOLB   C2C32778  13.797  11.998   8.715  0.3424  0.2511 -0.2058
 1366BOLB   C3C32779  13.846  11.804   9.040 -0.3626  0.0583  0.0950
 1366BOLB   C4C32780  13.632  11.769   9.391 -0.0946  0.1084  0.1513
 1366BOLB   C1D32781  14.012  12.476   8.268 -0.1911  0.0196  0.0156
 1366BOLB   C2D32782  13.889  12.470   8.707  0.1437 -0.0043  0.0440
 1366BOLB   C3D32783  13.832  12.648   9.055 -0.6665 -0.0055  0.0654
 1366BOLB   C4D32784  14.010  12.895   9.334  0.1568 -0.0501  0.0262
 1367BOLB   NC132785  16.914   8.917  13.056  0.2082 -0.1201  0.1882
 1367BOLB   PO132786  17.278   8.998  13.329 -0.1162 -0.0958  0.1215
 1367BOLB   GL132787  17.342   8.622  13.098 -0.1868 -0.3435 -0.3259
 1367BOLB   GL232788  17.044   8.416  12.960 -0.1077  0.2367 -0.2133
 1367BOLB   C1A32789  17.473   8.342  12.733  0.1523  0.0755  0.1576
 1367BOLB   C2A32790  17.669   8.057  12.410 -0.1139 -0.1255 -0.2182
 1367BOLB   C3A32791  17.821   8.197  12.038 -0.0394  0.0762 -0.1404
 1367BOLB   C4A32792  18.115   8.405  11.777  0.0325 -0.0030  0.0285
 1367BOLB   C1B32793  17.189   7.947  12.975 -0.1015 -0.1034  0.0940
 1367BOLB   C2B32794  17.300   7.771  12.737 -0.2524 -0.3836 -0.2719
 1367BOLB   C3B32795  17.603   7.468  12.689  0.0157  0.1380 -0.2062
 1367BOLB   C4B32796  17.742   7.261  12.372  0.4499 -0.1208 -0.1500
 1367BOLB   NC232797  19.323   6.878  10.385 -0.0334 -0.0661 -0.1101
 1367BOLB   PO232798  19.356   7.177  10.195  0.4049 -0.0764  0.1159
 1367BOLB   GL332799  19.072   7.403  10.493 -0.0349  0.0059  0.0035
 1367BOLB   GL432800  18.778   7.423  10.467  0.2968  0.1819 -0.1040
 1367BOLB   C1C32801  19.105   7.679  10.761 -0.3783  0.2171 -0.0981
 1367BOLB   C2C32802  18.962   8.053  10.942 -0.0852  0.0501 -0.0020
 1367BOLB   C3C32803  18.817   8.165  11.384  0.1401  0.2433 -0.0446
 1367BOLB   C4C32804  18.465   8.361  11.620 -0.0965 -0.3398 -0.1575
 1367BOLB   C1D32805  18.364   7.328  10.766 -0.1143  0.0348  0.2980
 1367BOLB   C2D32806  18.115   7.474  11.051 -0.0648 -0.0423 -0.0722
 1367BOLB   C3D32807  17.960   7.845  11.055  0.0525 -0.0232 -0.0155
 1367BOLB   C4D32808  17.762   8.176  10.758 -0.3328 -0.0691 -0.3876
 1368BOLB   NC132809  15.521  11.820  12.322  0.0290  0.1933  0.2219
 1368BOLB   PO132810  15.233  12.031  12.048 -0.3128  0.0047 -0.2189
 1368BOLB   GL132811  15.314  11.781  11.608 -0.2091  0.2696 -0.0207
 1368BOLB   GL232812  14.980  11.726  11.573 -0.2152  0.1662 -0.0958
 1368BOLB   C1A32813  15.414  11.638  11.211  0.2190  0.2345  0.0528
 1368BOLB   C2A32814  15.632  11.621  10.750  0.3036  0.1888  0.0156
 1368BOLB   C3A32815  15.769  11.425  10.302  0.4485 -0.0954  0.0146
 1368BOLB   C4A32816  15.827  11.469   9.808 -0.2382  0.1776 -0.0156
 1368BOLB   C1B32817  14.896  11.584  11.132 -0.2189 -0.2452  0.0893
 1368BOLB   C2B32818  15.171  11.487  10.803 -0.0207  0.0337  0.1174
 1368BOLB   C3B32819  15.280  11.582  10.372  0.0667  0.2214 -0.1774
 1368BOLB   C4B32820  15.315  11.512   9.956  0.2442  0.6505 -0.1460
 1368BOLB   NC232821  15.389  11.315   7.613  0.1251 -0.3000  0.0748
 1368BOLB   PO232822  15.203  11.729   7.587 -0.1418 -0.2498  0.0208
 1368BOLB   GL332823  15.027  11.928   7.850  0.0311 -0.1501 -0.0532
 1368BOLB   GL432824  15.005  12.235   7.850 -0.2678  0.1417  0.4382
 1368BOLB   C1C32825  15.183  11.934   8.281  0.3540  0.1174 -0.1798
 1368BOLB   C2C32826  15.343  11.983   8.645  0.1762 -0.0007  0.1150
 1368BOLB   C3C32827  15.443  11.796   9.053 -0.1584  0.0458 -0.0515
 1368BOLB   C4C32828  15.517  11.662   9.528  0.0046 -0.5132 -0.1165
 1368BOLB   C1D32829  15.063  12.367   8.363  0.0807 -0.0302 -0.3108
 1368BOLB   C2D32830  15.361  12.465   8.714 -0.1163  0.1904 -0.1448
 1368BOLB   C3D32831  15.274  12.565   9.092 -0.1158 -0.4719  0.1546
 1368BOLB   C4D32832  14.884  12.496   9.433 -0.2160 -0.1998 -0.1651
 1369BOLB   NC132833  18.697  18.020  11.922  0.2347 -0.4706 -0.1016
 1369BOLB   PO132834  18.460  17.706  11.858  0.0597  0.2166  0.1341
 1369BOLB   GL132835  18.525  17.807  11.502 -0.1107  0.1852 -0.0944
 1369BOLB   GL232836  18.278  17.838  11.231 -0.0915  0.0035  0.1013
 1369BOLB   C1A32837  18.714  17.848  11.070  0.4415  0.3250  0.3800
 1369BOLB   C2A32838  18.748  17.816  10.608 -0.0244  0.1139 -0.0965
 1369BOLB   C3A32839  18.948  17.891  10.222 -0.0624 -0.0131 -0.0365
 1369BOLB   C4A32840  19.230  18.007   9.811 -0.0978 -0.2450  0.0846
 1369BOLB   C1B32841  18.186  17.660  10.818  0.0760  0.0620 -0.1476
 1369BOLB   C2B32842  18.157  17.321  10.467 -0.0778  0.1382  0.1358
 1369BOLB   C3B32843  18.089  16.976  10.171  0.3671 -0.2950  0.1987
 1369BOLB   C4B32844  18.316  16.833   9.835 -0.1995  0.1281 -0.2335
 1369BOLB   NC232845  20.754  17.840   7.296  0.0620 -0.1564 -0.2113
 1369BOLB   PO232846  20.487  17.770   7.646 -0.0285 -0.1411  0.0178
 1369BOLB   GL332847  20.205  17.859   8.027 -0.0353 -0.0654 -0.1318
 1369BOLB   GL432848  20.416  18.091   8.309  0.1542  0.1314  0.3410
 1369BOLB   C1C32849  19.839  17.741   8.155 -0.0408  0.0557  0.1127
 1369BOLB   C2C32850  19.491  17.871   8.470 -0.1651  0.1323  0.1470
 1369BOLB   C3C32851  19.323  18.076   8.842 -0.0145  0.1874  0.3988
 1369BOLB   C4C32852  19.307  18.032   9.282  0.0355 -0.2871 -0.4111
 1369BOLB   C1D32853  20.568  18.271   8.665  0.1411 -0.2051  0.0905
 1369BOLB   C2D32854  20.822  18.375   9.003 -0.1683 -0.1196 -0.2068
 1369BOLB   C3D32855  20.754  18.596   9.407 -0.2135 -0.0651 -0.2256
 1369BOLB   C4D32856  20.686  18.980   9.710 -0.0783 -0.0948  0.1115
 1370BOLB   NC132857   9.404  14.120  12.264 -0.1360 -0.2793  0.1004
 1370BOLB   PO132858   9.472  14.482  12.429  0.1072  0.0337  0.2035
 1370BOLB   GL132859   9.407  14.735  11.964 -0.3951  0.1312 -0.1143
 1370BOLB   GL232860   9.113  14.875  11.813 -0.1798  0.0822  0.0014
 1370BOLB   C1A32861   9.346  14.606  11.478 -0.0040  0.3194 -0.2100
 1370BOLB   C2A32862   9.210  14.488  11.020  0.1343 -0.1726 -0.2337
 1370BOLB   C3A32863   8.904  14.437  10.656 -0.0400  0.0438 -0.1406
 1370BOLB   C4A32864   8.656  14.520  10.259 -0.1348  0.0928  0.0743
 1370BOLB   C1B32865   8.959  14.815  11.314 -0.2691 -0.0120  0.0086
 1370BOLB   C2B32866   8.604  14.489  11.108  0.2543  0.1530  0.0890
 1370BOLB   C3B32867   8.178  14.331  10.978  0.1595 -0.0107 -0.1784
 1370BOLB   C4B32868   7.801  14.204  10.778  0.0653 -0.0209  0.0481
 1370BOLB   NC232869   7.399  14.814   7.901 -0.0425  0.0606  0.1034
 1370BOLB   PO232870   7.592  14.714   8.251  0.1369 -0.0017 -0.2194
 1370BOLB   GL332871   7.823  14.547   8.555  0.0874  0.0752 -0.1703
 1370BOLB   GL432872   8.053  14.827   8.714  0.1526  0.2048  0.1470
 1370BOLB   C1C32873   7.946  14.296   8.864  0.2300  0.0671 -0.1650
 1370BOLB   C2C32874   8.062  14.344   9.136  0.2484 -0.2958 -0.0617
 1370BOLB   C3C32875   8.309  14.513   9.510  0.0505 -0.2701 -0.1501
 1370BOLB   C4C32876   8.609  14.615   9.806  0.0315 -0.1200  0.0927
 1370BOLB   C1D32877   8.382  14.891   9.001 -0.0011 -0.2115 -0.1308
 1370BOLB   C2D32878   8.771  14.838   9.208 -0.0154 -0.0525 -0.0628
 1370BOLB   C3D32879   8.985  14.733   9.500 -0.1381 -0.3390  0.0281
 1370BOLB   C4D32880   9.040  14.600   9.926  0.0089  0.0769  0.1146
 1371BOLB   NC132881   8.826  13.994  12.779 -0.0741 -0.3343 -0.2720
 1371BOLB   PO132882   8.941  13.970  12.293 -0.2839 -0.0126 -0.1927
 1371BOLB   GL132883   8.985  14.017  11.951  0.1547  0.2108  0.0408
 1371BOLB   GL232884   9.011  14.354  11.963  0.0895 -0.2607 -0.1480
 1371BOLB   C1A32885   8.786  13.850  11.557 -0.2078 -0.5258  0.1738
 1371BOLB   C2A32886   8.393  13.867  11.378  0.1382 -0.1266 -0.1138
 1371BOLB   C3A32887   7.982  13.922  11.245 -0.1635 -0.0050  0.1259
 1371BOLB   C4A32888   7.663  14.268  11.226  0.1618 -0.1591  0.0151
 1371BOLB   C1B32889   8.814  14.347  11.653  0.1016 -0.1835  0.0836
 1371BOLB   C2B32890   8.385  14.348  11.605 -0.2232 -0.2983 -0.1798
 1371BOLB   C3B32891   7.978  14.090  11.725  0.1168  0.2445  0.1467
 1371BOLB   C4B32892   8.083  13.672  11.736  0.0752 -0.1163 -0.2334
 1371BOLB   NC232893   5.778  15.184   9.361  0.2084 -0.1056  0.2069
 1371BOLB   PO232894   6.205  14.960   9.313  0.3112  0.0118  0.0700
 1371BOLB   GL332895   6.344  14.891   9.745 -0.4755  0.0950  0.0806
 1371BOLB   GL432896   6.349  14.577   9.868  0.3884  0.1790  0.2936
 1371BOLB   C1C32897   6.855  14.829   9.868  0.0962 -0.0873  0.1212
 1371BOLB   C2C32898   7.127  14.921  10.155 -0.1256  0.1110 -0.0193
 1371BOLB   C3C32899   7.230  14.756  10.446  0.0331 -0.0737 -0.5370
 1371BOLB   C4C32900   7.382  14.504  10.825 -0.0072 -0.0189  0.0157
 1371BOLB   C1D32901   6.040  14.709  10.177 -0.2144  0.0165  0.2678
 1371BOLB   C2D32902   5.843  14.605  10.440 -0.0824 -0.1597  0.1702
 1371BOLB   C3D32903   5.540  14.467  10.744  0.4762 -0.0974 -0.3028
 1371BOLB   C4D32904   5.404  14.539  11.057 -0.0672 -0.1815  0.0411
 1372BOLB   NC132905  12.488  17.174  11.568  0.2306 -0.1124  0.2192
 1372BOLB   PO132906  12.809  17.269  11.288  0.5262  0.2459 -0.0371
 1372BOLB   GL132907  12.731  17.608  10.855  0.0240  0.1702  0.0399
 1372BOLB   GL232908  12.535  17.846  10.684 -0.1430 -0.1690  0.1381
 1372BOLB   C1A32909  12.755  17.606  10.349  0.1748  0.1640  0.3013
 1372BOLB   C2A32910  12.849  17.338   9.950  0.5562  0.1820 -0.2837
 1372BOLB   C3A32911  12.889  17.417   9.497 -0.1281 -0.1065 -0.0820
 1372BOLB   C4A32912  13.066  17.521   9.190  0.4148  0.0255 -0.3053
 1372BOLB   C1B32913  12.210  17.792  10.423  0.1519  0.1380  0.0558
 1372BOLB   C2B32914  11.969  17.779   9.987 -0.1935 -0.1678 -0.3069
 1372BOLB   C3B32915  12.064  17.895   9.548  0.0781 -0.0658 -0.1222
 1372BOLB   C4B32916  12.073  18.167   9.282  0.0231  0.0075 -0.1142
 1372BOLB   NC232917  12.675  16.349   7.357  0.1446  0.1526  0.1044
 1372BOLB   PO232918  13.044  16.352   7.221 -0.1981  0.1982  0.1413
 1372BOLB   GL332919  13.087  16.330   7.585  0.2456  0.1678  0.0871
 1372BOLB   GL432920  13.418  16.447   7.655  0.0000 -0.4413 -0.0639
 1372BOLB   C1C32921  12.998  16.431   8.031  0.0236  0.2576  0.1030
 1372BOLB   C2C32922  13.250  16.697   8.240  0.2388 -0.0281  0.0258
 1372BOLB   C3C32923  13.177  17.105   8.466 -0.0308 -0.0839  0.2345
 1372BOLB   C4C32924  12.982  17.341   8.819 -0.3033 -0.1005 -0.0067
 1372BOLB   C1D32925  13.247  16.845   7.693 -0.2858  0.3649  0.2519
 1372BOLB   C2D32926  13.067  17.198   7.843 -0.0439  0.0363  0.0663
 1372BOLB   C3D32927  13.044  17.533   8.217  0.0960  0.0335 -0.2269
 1372BOLB   C4D32928  12.712  17.661   8.506 -0.2676  0.1312 -0.0220
 1373BOLB   NC132929   9.609  18.872  12.221  0.0046  0.0426  0.0059
 1373BOLB   PO132930   9.313  18.659  12.143 -0.0239 -0.0278  0.1841
 1373BOLB   GL132931   9.284  18.832  11.752 -0.3181 -0.0759 -0.2879
 1373BOLB   GL232932   9.442  18.628  11.479 -0.0245  0.1535 -0.0933
 1373BOLB   C1A32933   9.218  19.037  11.268  0.3350 -0.1993 -0.2249
 1373BOLB   C2A32934   9.144  19.159  10.932 -0.0697 -0.4585 -0.0521
 1373BOLB   C3A32935   9.128  19.343  10.590 -0.2627 -0.0830  0.0060
 1373BOLB   C4A32936   9.114  19.491  10.099 -0.2068 -0.0208 -0.0314
 1373BOLB   C1B32937   8.978  18.565  11.372 -0.1766  0.0865  0.2513
 1373BOLB   C2B32938   8.620  18.369  11.227  0.1944 -0.2288 -0.1291
 1373BOLB   C3B32939   8.447  18.058  10.978 -0.2046 -0.0130 -0.2981
 1373BOLB   C4B32940   8.393  17.807  10.615 -0.0683 -0.4539  0.1700
 1373BOLB   NC232941   9.273  20.503   7.971  0.1413 -0.0853  0.2783
 1373BOLB   PO232942   9.727  20.673   7.999 -0.1148  0.1009 -0.0635
 1373BOLB   GL332943   9.683  20.401   8.263 -0.3161 -0.2237 -0.0078
 1373BOLB   GL432944   9.940  20.459   8.526 -0.1049 -0.0562 -0.2832
 1373BOLB   C1C32945   9.432  20.200   8.544 -0.1541  0.5472  0.1648
 1373BOLB   C2C32946   9.174  20.007   8.917  0.1451 -0.1641  0.2324
 1373BOLB   C3C32947   9.223  19.832   9.347 -0.0698  0.0313 -0.0036
 1373BOLB   C4C32948   9.336  19.601   9.777 -0.2652  0.2284 -0.0780
 1373BOLB   C1D32949   9.975  20.221   8.894 -0.0943  0.1840 -0.3530
 1373BOLB   C2D32950  10.073  20.149   9.430 -0.3065  0.2460 -0.2195
 1373BOLB   C3D32951  10.252  20.067   9.829  0.0991 -0.0996 -0.1477
 1373BOLB   C4D32952  10.563  20.284  10.045  0.0303 -0.4008  0.4094
 1374BOLB   NC132953  13.064  17.717  11.229 -0.1389 -0.1148  0.1064
 1374BOLB   PO132954  13.350  18.053  11.060 -0.3725 -0.1016  0.1239
 1374BOLB   GL132955  13.275  18.106  10.624  0.0155 -0.1712 -0.0379
 1374BOLB   GL232956  13.503  17.833  10.490 -0.0898 -0.1426 -0.2565
 1374BOLB   C1A32957  13.087  17.960  10.161  0.1195  0.1761 -0.0560
 1374BOLB   C2A32958  12.838  17.823   9.890  0.0640 -0.1615  0.1688
 1374BOLB   C3A32959  12.964  17.932   9.469  0.4726 -0.4806 -0.1132
 1374BOLB   C4A32960  12.947  17.980   9.007  0.3447 -0.1390 -0.1156
 1374BOLB   C1B32961  13.713  17.774  10.201 -0.0390 -0.0327  0.0064
 1374BOLB   C2B32962  13.969  17.792   9.797 -0.2512 -0.0448  0.0660
 1374BOLB   C3B32963  13.962  17.774   9.275  0.2024 -0.0756 -0.1395
 1374BOLB   C4B32964  13.864  17.753   8.862 -0.1958  0.1806  0.1734
 1374BOLB   NC232965  12.080  19.278   6.748 -0.5146 -0.3511  0.1134
 1374BOLB   PO232966  12.284  19.082   7.154  0.0654  0.0255  0.2877
 1374BOLB   GL332967  12.216  18.803   7.449 -0.0662  0.1366  0.0829
 1374BOLB   GL432968  12.532  18.696   7.455  0.0796 -0.1197 -0.1051
 1374BOLB   C1C32969  12.148  18.679   7.784 -0.1907 -0.1512 -0.2791
 1374BOLB   C2C32970  12.228  18.542   8.233 -0.1675  0.1382  0.1644
 1374BOLB   C3C32971  12.582  18.421   8.431  0.0837  0.0624  0.0107
 1374BOLB   C4C32972  12.833  18.135   8.573  0.0935  0.0351  0.0157
 1374BOLB   C1D32973  12.647  18.612   7.875 -0.1564 -0.3726 -0.0590
 1374BOLB   C2D32974  12.748  18.858   8.268  0.1070  0.3918  0.1351
 1374BOLB   C3D32975  12.723  19.199   8.562 -0.0853  0.0037  0.0678
 1374BOLB   C4D32976  12.752  19.502   8.913 -0.1178 -0.0385 -0.0154
 1375BOLB   NC132977  16.248  16.383  11.483  0.0432 -0.0277 -0.1600
 1375BOLB   PO132978  15.807  16.639  11.413 -0.0901  0.0901  0.2431
 1375BOLB   GL132979  15.694  16.538  11.021 -0.1353 -0.2676 -0.5401
 1375BOLB   GL232980  16.011  16.418  10.876  0.3146 -0.0038  0.0481
 1375BOLB   C1A32981  15.632  16.761  10.617  0.0265 -0.0402 -0.2415
 1375BOLB   C2A32982  15.778  16.862  10.143  0.0654 -0.2203  0.2180
 1375BOLB   C3A32983  15.712  16.785   9.676  0.2138 -0.4217 -0.0460
 1375BOLB   C4A32984  16.022  16.687   9.433  0.4604 -0.1633 -0.3246
 1375BOLB   C1B32985  16.006  16.176  10.540 -0.0223 -0.4018  0.2371
 1375BOLB   C2B32986  15.987  16.203  10.207 -0.1382  0.0437  0.0879
 1375BOLB   C3B32987  16.137  16.327   9.894 -0.0519 -0.0671 -0.2062
 1375BOLB   C4B32988  16.319  16.289   9.498 -0.0461  0.3492  0.5184
 1375BOLB   NC232989  17.012  16.231   6.999  0.4356  0.1662  0.1426
 1375BOLB   PO232990  17.153  16.211   7.454  0.2601 -0.0613  0.0515
 1375BOLB   GL332991  17.217  16.239   7.943  0.1516  0.0247  0.2241
 1375BOLB   GL432992  17.510  16.363   8.046  0.2538  0.0704  0.2019
 1375BOLB   C1C32993  16.936  16.322   8.201 -0.2031 -0.5066 -0.2680
 1375BOLB   C2C32994  16.684  16.284   8.592 -0.1420  0.1627  0.2424
 1375BOLB   C3C32995  16.408  16.399   8.915  0.0549  0.1780 -0.0475
 1375BOLB   C4C32996  16.141  16.713   8.986 -0.1998 -0.0170 -0.1035
 1375BOLB   C1D32997  17.653  16.144   8.368  0.0017 -0.1841  0.0178
 1375BOLB   C2D32998  18.014  16.037   8.610 -0.1225 -0.4704  0.3134
 1375BOLB   C3D32999  18.238  15.806   8.445  0.2043  0.2882 -0.2961
 1375BOLB   C4D33000  18.551  15.724   8.618 -0.1065  0.0135 -0.1307
 1376BOLB   NC133001  20.571  22.719  13.412 -0.1310 -0.3787  0.2971
 1376BOLB   PO133002  20.202  22.431  13.437  0.1399  0.0347  0.0443
 1376BOLB   GL133003  20.460  22.344  13.113  0.2339  0.0280 -0.0360
 1376BOLB   GL233004  20.726  22.273  13.121  0.0225  0.2799  0.3408
 1376BOLB   C1A33005  20.555  22.538  12.733 -0.3014 -0.2657  0.1440
 1376BOLB   C2A33006  20.928  22.818  12.459  0.1438  0.5111  0.1331
 1376BOLB   C3A33007  21.178  22.893  12.221  0.0458 -0.1184  0.2522
 1376BOLB   C4A33008  21.380  23.056  11.899  0.0273 -0.1739 -0.1569
 1376BOLB   C1B33009  21.076  22.384  12.734 -0.1180 -0.0518 -0.2499
 1376BOLB   C2B33010  21.439  22.544  12.527  0.1730 -0.1196  0.3519
 1376BOLB   C3B33011  21.827  22.658  12.352  0.0969  0.3976 -0.3960
 1376BOLB   C4B33012  22.177  22.897  12.324 -0.1790  0.1319 -0.2136
 1376BOLB   NC233013  23.017  23.395  10.423 -0.0359  0.3613 -0.4213
 1376BOLB   PO233014  22.750  23.700  10.442 -0.0836 -0.2611 -0.1909
 1376BOLB   GL333015  22.815  23.658  10.911  0.1476 -0.0647 -0.3407
 1376BOLB   GL433016  23.041  23.503  10.922  0.0007  0.1470  0.0393
 1376BOLB   C1C33017  22.563  23.331  11.105  0.2721 -0.0503  0.3459
 1376BOLB   C2C33018  22.140  23.154  10.998 -0.1383  0.0856 -0.2437
 1376BOLB   C3C33019  21.742  23.189  11.148  0.0986  0.1704 -0.1653
 1376BOLB   C4C33020  21.491  23.145  11.468 -0.1719 -0.0030 -0.1876
 1376BOLB   C1D33021  22.990  23.536  11.355  0.0692  0.0958 -0.0230
 1376BOLB   C2D33022  22.786  23.555  11.775 -0.3628  0.1340 -0.0996
 1376BOLB   C3D33023  22.820  23.368  12.205  0.3655  0.0772 -0.2368
 1376BOLB   C4D33024  22.979  23.500  12.646  0.0394  0.1775  0.1999
 1377BOLB   NC133025  15.416  19.570  11.313 -0.1112  0.0442  0.1407
 1377BOLB   PO133026  15.325  19.920  11.200  0.1010 -0.1596  0.1268
 1377BOLB   GL133027  15.560  19.961  10.847  0.3003 -0.0360 -0.0420
 1377BOLB   GL233028  15.592  19.594  10.818 -0.2204  0.0088  0.3149
 1377BOLB   C1A33029  15.592  19.960  10.415  0.2666 -0.1315  0.1204
 1377BOLB   C2A33030  15.543  19.937   9.975  0.1924  0.0724  0.1079
 1377BOLB   C3A33031  15.543  19.787   9.630 -0.0868  0.2999  0.4177
 1377BOLB   C4A33032  15.807  19.786   9.268 -0.0392 -0.0399 -0.0481
 1377BOLB   C1B33033  15.516  19.344  10.469  0.0517  0.1363  0.2961
 1377BOLB   C2B33034  15.669  19.295  10.048 -0.3198  0.0012 -0.0527
 1377BOLB   C3B33035  15.913  19.475   9.677 -0.1263 -0.0096  0.0989
 1377BOLB   C4B33036  16.263  19.614   9.633  0.1194  0.2516 -0.2376
 1377BOLB   NC233037  17.637  20.211   7.376  0.0030 -0.1740  0.1521
 1377BOLB   PO233038  17.255  20.405   7.472  0.0908  0.0790 -0.0070
 1377BOLB   GL333039  16.964  20.086   7.775  0.2061  0.0691 -0.4238
 1377BOLB   GL433040  16.621  19.888   7.656  0.1161 -0.0290 -0.1117
 1377BOLB   C1C33041  16.632  20.198   8.063 -0.0902  0.0080 -0.2116
 1377BOLB   C2C33042  16.419  20.147   8.356  0.2348 -0.0739 -0.0432
 1377BOLB   C3C33043  16.206  20.265   8.702 -0.0465  0.2097 -0.1310
 1377BOLB   C4C33044  16.137  20.009   9.061 -0.0696  0.3551 -0.0396
 1377BOLB   C1D33045  16.608  19.682   8.055  0.1551 -0.1710  0.0236
 1377BOLB   C2D33046  16.698  19.358   8.281  0.2887  0.2769 -0.0694
 1377BOLB   C3D33047  17.014  19.114   8.431 -0.0100  0.2081 -0.1296
 1377BOLB   C4D33048  17.227  18.890   8.782 -0.0371 -0.1709  0.0563
 1378BOLB   NC133049  22.812  13.334  14.042 -0.0495  0.2844 -0.4639
 1378BOLB   PO133050  22.475  13.047  14.108  0.1334 -0.1589  0.2304
 1378BOLB   GL133051  22.678  12.943  13.644  0.3152  0.1000  0.1019
 1378BOLB   GL233052  22.559  13.155  13.415  0.0656  0.2661  0.0076
 1378BOLB   C1A33053  22.912  12.782  13.294  0.1037  0.3626  0.1105
 1378BOLB   C2A33054  22.896  12.618  12.896  0.0602 -0.0166 -0.1508
 1378BOLB   C3A33055  23.068  12.666  12.589 -0.0329 -0.1105 -0.1212
 1378BOLB   C4A33056  23.210  12.680  12.210  0.4237  0.0438 -0.2380
 1378BOLB   C1B33057  22.592  13.063  12.978 -0.1199  0.0616  0.0563
 1378BOLB   C2B33058  22.769  13.196  12.624  0.0564  0.0576  0.2942
 1378BOLB   C3B33059  22.901  13.110  12.295  0.1078  0.4015  0.2278
 1378BOLB   C4B33060  22.958  12.936  11.888 -0.3560 -0.2021  0.3140
 1378BOLB   NC233061  23.782  12.378   9.945  0.0268  0.0673  0.1561
 1378BOLB   PO233062  23.904  12.663  10.020  0.0234  0.2655 -0.0508
 1378BOLB   GL333063  23.512  12.703  10.249 -0.0825  0.2610  0.1494
 1378BOLB   GL433064  23.367  12.701  10.042  0.0376 -0.4061 -0.0203
 1378BOLB   C1C33065  23.404  12.780  10.695 -0.1124  0.0841  0.1155
 1378BOLB   C2C33066  23.571  12.893  11.014 -0.1316 -0.0395 -0.1569
 1378BOLB   C3C33067  23.566  12.870  11.419 -0.4335  0.1453  0.2937
 1378BOLB   C4C33068  23.398  12.658  11.821 -0.0653  0.3318  0.1637
 1378BOLB   C1D33069  23.084  12.470  10.357  0.2185 -0.2422 -0.2535
 1378BOLB   C2D33070  22.797  12.484  10.655  0.1261  0.1472 -0.2079
 1378BOLB   C3D33071  22.633  12.506  11.039  0.3378 -0.0744  0.3824
 1378BOLB   C4D33072  22.621  12.201  11.358 -0.0551  0.0225 -0.0745
 1379BOLB   NC133073  20.464  17.502  12.043 -0.1601  0.3960 -0.0508
 1379BOLB   PO133074  20.637  17.178  11.748  0.2215  0.2113 -0.0813
 1379BOLB   GL133075  20.732  16.866  11.438 -0.0152 -0.5220 -0.0680
 1379BOLB   GL233076  20.390  16.720  11.263  0.3378  0.0105 -0.1996
 1379BOLB   C1A33077  21.099  16.717  11.201 -0.0671 -0.1025  0.1476
 1379BOLB   C2A33078  21.103  16.494  10.826  0.0392 -0.1321 -0.1026
 1379BOLB   C3A33079  21.154  16.192  10.496 -0.1615 -0.0238 -0.3660
 1379BOLB   C4A33080  21.157  16.116  10.052 -0.0762 -0.1543  0.1073
 1379BOLB   C1B33081  20.650  16.696  10.905 -0.0326 -0.1207 -0.2354
 1379BOLB   C2B33082  20.885  16.888  10.539 -0.2543  0.0293 -0.0893
 1379BOLB   C3B33083  21.255  17.078  10.375 -0.0900 -0.1850  0.4260
 1379BOLB   C4B33084  21.452  17.495  10.358 -0.0259  0.0095  0.4191
 1379BOLB   NC233085  21.522  16.737   7.629  0.0058  0.2894  0.1418
 1379BOLB   PO233086  21.476  16.777   8.125 -0.3050  0.0441 -0.2217
 1379BOLB   GL333087  21.339  16.942   8.470 -0.0652 -0.0254 -0.0781
 1379BOLB   GL433088  21.548  16.711   8.782  0.0099 -0.1257  0.1440
 1379BOLB   C1C33089  21.011  16.568   8.597 -0.0339 -0.0137  0.3589
 1379BOLB   C2C33090  20.779  16.369   8.864 -0.2342 -0.0046  0.1305
 1379BOLB   C3C33091  20.848  16.005   9.190  0.5792  0.0854  0.1564
 1379BOLB   C4C33092  21.155  15.985   9.668 -0.1271 -0.4628  0.1119
 1379BOLB   C1D33093  21.435  16.411   9.115 -0.1476  0.0612  0.2450
 1379BOLB   C2D33094  21.619  16.155   9.439 -0.0322 -0.1156 -0.2538
 1379BOLB   C3D33095  22.088  16.048   9.458 -0.1693 -0.1368 -0.1518
 1379BOLB   C4D33096  22.198  16.027   9.865 -0.0369 -0.0467 -0.1753
 1380BOLB   NC133097  21.163   9.925  15.298 -0.2348  0.1477 -0.0623
 1380BOLB   PO133098  21.081   9.856  14.844  0.1437  0.0148  0.3085
 1380BOLB   GL133099  21.160   9.418  14.634 -0.1581 -0.2444 -0.0004
 1380BOLB   GL233100  21.087   9.586  14.215  0.0057  0.0176  0.0176
 1380BOLB   C1A33101  21.216   9.151  14.318  0.1626 -0.0261  0.0395
 1380BOLB   C2A33102  21.350   8.917  14.015  0.2347  0.0894 -0.3391
 1380BOLB   C3A33103  21.552   8.552  13.783  0.1229 -0.0827  0.1235
 1380BOLB   C4A33104  21.977   8.376  13.605  0.5433 -0.1164  0.2156
 1380BOLB   C1B33105  21.353   9.414  13.920  0.0581 -0.2136  0.0517
 1380BOLB   C2B33106  21.657   9.336  13.530 -0.3972  0.1654  0.0472
 1380BOLB   C3B33107  21.974   9.385  13.255 -0.0881  0.4216 -0.0168
 1380BOLB   C4B33108  22.198   9.282  12.873 -0.1377 -0.0248 -0.2013
 1380BOLB   NC233109  23.588   7.334  11.827  0.0599  0.0569  0.3302
 1380BOLB   PO233110  23.448   7.714  11.671  0.1193 -0.0059  0.1618
 1380BOLB   GL333111  23.232   8.067  11.829 -0.1056 -0.0235  0.2092
 1380BOLB   GL433112  23.127   8.376  11.694  0.0868  0.2474 -0.2489
 1380BOLB   C1C33113  23.038   8.187  12.192  0.0020 -0.2911 -0.0751
 1380BOLB   C2C33114  22.808   8.220  12.565 -0.2410 -0.0977  0.1084
 1380BOLB   C3C33115  22.467   8.429  12.852  0.0838 -0.0838 -0.1015
 1380BOLB   C4C33116  22.222   8.471  13.251 -0.3558 -0.2927 -0.0482
 1380BOLB   C1D33117  22.903   8.654  12.016  0.2672 -0.1806 -0.0380
 1380BOLB   C2D33118  22.656   8.997  12.015  0.0773 -0.2701 -0.1074
 1380BOLB   C3D33119  22.298   9.155  11.919 -0.3479  0.1474 -0.1867
 1380BOLB   C4D33120  22.254   9.519  11.630 -0.3164 -0.0368 -0.4879
 1381BOLB   NC133121  23.109  16.470  14.196  0.3823  0.2560 -0.4121
 1381BOLB   PO133122  23.012  16.550  13.763 -0.1662 -0.0734 -0.0600
 1381BOLB   GL133123  23.227  16.531  13.268  0.0247 -0.2741  0.0083
 1381BOLB   GL233124  23.215  16.768  12.975 -0.2838 -0.3090  0.1693
 1381BOLB   C1A33125  23.513  16.372  13.054  0.2765 -0.1985 -0.1557
 1381BOLB   C2A33126  23.809  16.429  12.831 -0.0827 -0.1177 -0.0899
 1381BOLB   C3A33127  23.846  16.848  12.532  0.0675 -0.1429  0.2861
 1381BOLB   C4A33128  24.097  17.029  12.285 -0.1176 -0.2329  0.2131
 1381BOLB   C1B33129  23.351  16.684  12.649 -0.1482 -0.0305 -0.0933
 1381BOLB   C2B33130  23.472  16.635  12.120 -0.0156  0.0066  0.1240
 1381BOLB   C3B33131  23.804  16.655  11.946  0.0562  0.1247  0.1899
 1381BOLB   C4B33132  24.157  16.412  12.051  0.2020 -0.0363  0.1176
 1381BOLB   NC233133  25.378  18.478  10.653  0.1736 -0.0382  0.1999
 1381BOLB   PO233134  25.065  18.352  10.938  0.1277 -0.2947  0.1168
 1381BOLB   GL333135  24.740  18.100  11.075  0.0817  0.0122  0.0408
 1381BOLB   GL433136  24.498  18.375  11.035  0.2832 -0.0865  0.3880
 1381BOLB   C1C33137  24.522  17.799  11.004  0.3937 -0.0818 -0.0788
 1381BOLB   C2C33138  24.182  17.484  11.280  0.1633 -0.2778  0.1506
 1381BOLB   C3C33139  24.183  17.622  11.739 -0.0560 -0.1868  0.0418
 1381BOLB   C4C33140  24.284  17.307  12.088  0.0807 -0.4540 -0.2002
 1381BOLB   C1D33141  24.563  18.605  11.384 -0.1972 -0.3067 -0.2160
 1381BOLB   C2D33142  24.217  19.021  11.620  0.0855 -0.2060  0.2602
 1381BOLB   C3D33143  23.935  19.364  11.509 -0.2316 -0.0193  0.2827
 1381BOLB   C4D33144  23.794  19.753  11.543  0.2483  0.2950  0.3239
 1382BOLB   NC133145  20.778  20.376  13.226 -0.2480 -0.2550  0.0697
 1382BOLB   PO133146  21.101  20.677  13.279 -0.0725 -0.1307  0.2501
 1382BOLB   GL133147  21.421  20.711  12.965  0.5024  0.1174  0.1021
 1382BOLB   GL233148  21.291  21.054  12.807  0.1224 -0.2847 -0.1347
 1382BOLB   C1A33149  21.808  20.660  12.897 -0.1234 -0.4447 -0.2193
 1382BOLB   C2A33150  22.137  20.861  12.768 -0.0841  0.1404 -0.2576
 1382BOLB   C3A33151  22.522  20.980  12.665 -0.0310 -0.1995 -0.1538
 1382BOLB   C4A33152  22.622  21.028  12.294 -0.1629 -0.0561  0.0476
 1382BOLB   C1B33153  21.608  20.998  12.547 -0.0984  0.2433 -0.0736
 1382BOLB   C2B33154  21.797  21.034  12.180 -0.2156 -0.0226 -0.1533
 1382BOLB   C3B33155  21.748  20.966  11.735  0.5418  0.0882 -0.1260
 1382BOLB   C4B33156  21.748  20.887  11.281  0.2542  0.2267 -0.0405
 1382BOLB   NC233157  24.712  21.585  11.372 -0.0743 -0.0417 -0.0669
 1382BOLB   PO233158  24.289  21.557  11.167  0.2516  0.1243  0.3392
 1382BOLB   GL333159  23.892  21.441  11.155  0.0182 -0.1411  0.1544
 1382BOLB   GL433160  23.778  21.248  10.893  0.0393 -0.3026 -0.1374
 1382BOLB   C1C33161  23.470  21.545  11.273  0.1858 -0.3754  0.0381
 1382BOLB   C2C33162  23.183  21.424  11.369  0.1978  0.0644  0.0414
 1382BOLB   C3C33163  22.771  21.133  11.353 -0.2038  0.0957 -0.3512
 1382BOLB   C4C33164  22.686  21.131  11.840 -0.1346 -0.0886  0.0500
 1382BOLB   C1D33165  23.405  21.096  11.072  0.0225 -0.0607 -0.1266
 1382BOLB   C2D33166  23.136  20.750  11.187 -0.2129 -0.2168  0.0246
 1382BOLB   C3D33167  22.838  20.448  11.065 -0.0307 -0.1819 -0.0254
 1382BOLB   C4D33168  22.760  20.000  11.231 -0.0461  0.1387 -0.2613
 1383BOLB   NC133169  21.834  12.534  13.449 -0.1298  0.0347 -0.2531
 1383BOLB   PO133170  22.054  13.027  13.601  0.0303  0.0169  0.0877
 1383BOLB   GL133171  22.072  13.003  13.116 -0.1078  0.2819  0.1034
 1383BOLB   GL233172  21.876  12.740  12.976 -0.3136  0.2067 -0.3047
 1383BOLB   C1A33173  22.159  13.034  12.703  0.2847 -0.1216 -0.4504
 1383BOLB   C2A33174  22.422  12.957  12.338  0.3288 -0.1797  0.2390
 1383BOLB   C3A33175  22.465  12.975  11.953 -0.1287 -0.1447  0.0493
 1383BOLB   C4A33176  22.626  13.014  11.493 -0.1879  0.0718  0.0409
 1383BOLB   C1B33177  21.883  12.516  12.635  0.1247 -0.2659 -0.1760
 1383BOLB   C2B33178  22.092  12.493  12.137  0.2139 -0.0016 -0.2564
 1383BOLB   C3B33179  22.361  12.393  11.839 -0.5948 -0.1560 -0.4869
 1383BOLB   C4B33180  22.362  12.613  11.507 -0.1566 -0.0433  0.2012
 1383BOLB   NC233181  23.669  13.424   9.259  0.1089  0.1749 -0.0604
 1383BOLB   PO233182  23.659  13.065   9.521  0.0141  0.1043  0.1362
 1383BOLB   GL333183  23.583  13.203   9.810 -0.1062 -0.0218 -0.0678
 1383BOLB   GL433184  23.757  13.115  10.070 -0.0505 -0.0067  0.0832
 1383BOLB   C1C33185  23.164  13.179   9.958 -0.0816  0.2847  0.3611
 1383BOLB   C2C33186  22.909  13.432  10.370  0.1984 -0.0819  0.0819
 1383BOLB   C3C33187  22.788  13.549  10.783 -0.0923 -0.0031 -0.0700
 1383BOLB   C4C33188  22.627  13.345  11.203 -0.2782  0.4714 -0.0412
 1383BOLB   C1D33189  23.410  13.176  10.415 -0.1977 -0.0590 -0.0770
 1383BOLB   C2D33190  23.212  13.252  10.877  0.2176 -0.2636  0.3956
 1383BOLB   C3D33191  23.020  12.914  11.232  0.0956  0.1015  0.0928
 1383BOLB   C4D33192  22.970  12.590  11.460 -0.0247  0.0827  0.0869
 1384BOLB   NC133193  15.234  18.318  11.276 -0.1361 -0.1083 -0.2133
 1384BOLB   PO133194  15.503  18.648  11.403 -0.2264  0.2767  0.3157
 1384BOLB   GL133195  15.531  18.572  10.941 -0.3132 -0.0589  0.0583
 1384BOLB   GL233196  15.270  18.476  10.775  0.0032 -0.3259 -0.1562
 1384BOLB   C1A33197  15.542  18.895  10.642 -0.2142 -0.0834  0.0420
 1384BOLB   C2A33198  15.567  18.801  10.212 -0.0399 -0.1450 -0.0724
 1384BOLB   C3A33199  15.564  18.814   9.774 -0.3036  0.0517 -0.0184
 1384BOLB   C4A33200  15.593  18.791   9.348  0.1849  0.1578 -0.3179
 1384BOLB   C1B33201  15.280  18.392  10.442 -0.4492 -0.3812  0.1310
 1384BOLB   C2B33202  15.547  18.195  10.070 -0.2290  0.1585 -0.2276
 1384BOLB   C3B33203  15.610  18.332   9.572 -0.1947 -0.1042 -0.1141
 1384BOLB   C4B33204  15.599  18.248   9.059  0.1097  0.3414 -0.0513
 1384BOLB   NC233205  15.819  17.745   7.155  0.0672  0.0715  0.0499
 1384BOLB   PO233206  16.057  17.966   7.428 -0.0415 -0.0048  0.0360
 1384BOLB   GL333207  15.764  18.088   7.762 -0.1016  0.4426 -0.1132
 1384BOLB   GL433208  15.773  17.837   7.984  0.1294  0.1965 -0.4816
 1384BOLB   C1C33209  15.895  18.328   8.042 -0.0292 -0.4487 -0.0932
 1384BOLB   C2C33210  16.144  18.669   8.096 -0.0344  0.0424 -0.1362
 1384BOLB   C3C33211  15.864  18.688   8.536 -0.0465 -0.2772 -0.1745
 1384BOLB   C4C33212  15.587  18.799   8.896 -0.0428 -0.2834 -0.2549
 1384BOLB   C1D33213  15.791  17.438   8.114 -0.0922 -0.0848 -0.3726
 1384BOLB   C2D33214  16.073  17.116   8.213  0.0417  0.1857 -0.0760
 1384BOLB   C3D33215  16.328  16.701   8.510 -0.1054 -0.0517 -0.2393
 1384BOLB   C4D33216  16.719  16.758   8.800 -0.1352 -0.0887  0.1200
 1385BOLB   NC133217  15.787  22.594  12.153 -0.1330 -0.1645 -0.0453
 1385BOLB   PO133218  15.645  22.926  12.013 -0.0215 -0.0621 -0.4024
 1385BOLB   GL133219  15.790  22.923  11.667  0.1032  0.2216 -0.2454
 1385BOLB   GL233220  16.011  23.106  11.728 -0.2125  0.1467  0.1565
 1385BOLB   C1A33221  15.769  23.017  11.120 -0.1064 -0.3632 -0.1539
 1385BOLB   C2A33222  15.807  23.088  10.748 -0.2054 -0.0166 -0.2089
 1385BOLB   C3A33223  15.636  23.130  10.359 -0.3245 -0.2560  0.0121
 1385BOLB   C4A33224  15.357  23.425  10.194  0.1063  0.1750 -0.2916
 1385BOLB   C1B33225  16.195  23.221  11.350  0.1111  0.0477  0.0535
 1385BOLB   C2B33226  16.273  23.333  10.917  0.2928 -0.1510 -0.2685
 1385BOLB   C3B33227  16.249  23.121  10.440  0.0060  0.1651  0.0690
 1385BOLB   C4B33228  16.177  23.272  10.044  0.0822  0.0859  0.0761
 1385BOLB   NC233229  16.504  24.398   7.820 -0.1044  0.2319  0.1640
 1385BOLB   PO233230  16.140  24.137   7.905  0.2791  0.1942 -0.1054
 1385BOLB   GL333231  15.973  24.143   8.349  0.0622  0.0126  0.1411
 1385BOLB   GL433232  16.141  23.796   8.389  0.0428 -0.0630 -0.2025
 1385BOLB   C1C33233  15.711  24.005   8.796  0.2251  0.0202 -0.3015
 1385BOLB   C2C33234  15.599  23.744   9.161 -0.2990  0.2251  0.0943
 1385BOLB   C3C33235  15.501  23.619   9.591  0.0211 -0.2152 -0.3534
 1385BOLB   C4C33236  15.281  23.782   9.993  0.2730  0.0650 -0.0791
 1385BOLB   C1D33237  16.112  23.629   8.793  0.3411 -0.1114  0.1904
 1385BOLB   C2D33238  16.070  23.602   9.288  0.0035 -0.0464  0.1988
 1385BOLB   C3D33239  15.983  23.558   9.631 -0.1387  0.0359 -0.1823
 1385BOLB   C4D33240  15.679  23.264   9.856 -0.0478 -0.0095 -0.0994
 1386BOLB   NC133241  15.881  20.291  11.391 -0.3804  0.1712  0.3235
 1386BOLB   PO133242  16.195  20.536  11.254 -0.4740 -0.2404 -0.1438
 1386BOLB   GL133243  15.890  20.665  10.944  0.1383  0.0015 -0.2187
 1386BOLB   GL233244  15.596  20.400  10.995  0.0523  0.2888  0.0018
 1386BOLB   C1A33245  15.954  20.616  10.587  0.2080  0.1444  0.0858
 1386BOLB   C2A33246  15.766  20.843  10.181  0.2057 -0.0022  0.0925
 1386BOLB   C3A33247  15.575  20.845   9.852  0.0296  0.1868  0.1654
 1386BOLB   C4A33248  15.434  21.145   9.602  0.2002  0.0839  0.0334
 1386BOLB   C1B33249  15.553  20.443  10.530 -0.0616 -0.0592 -0.2263
 1386BOLB   C2B33250  15.649  20.391  10.060 -0.1255  0.1612  0.2353
 1386BOLB   C3B33251  15.620  20.349   9.644 -0.1410 -0.2966  0.0671
 1386BOLB   C4B33252  15.441  20.135   9.264 -0.2151 -0.1827  0.0931
 1386BOLB   NC233253  15.408  21.224   7.407  0.0833 -0.1307 -0.1683
 1386BOLB   PO233254  15.752  21.578   7.546  0.1943  0.1307  0.5555
 1386BOLB   GL333255  15.891  21.581   7.941 -0.1490 -0.3226  0.2954
 1386BOLB   GL433256  15.786  21.852   7.993 -0.0108 -0.1310 -0.5295
 1386BOLB   C1C33257  16.034  21.201   8.169  0.1322  0.1069  0.1287
 1386BOLB   C2C33258  16.030  21.060   8.568 -0.0334 -0.0263 -0.0165
 1386BOLB   C3C33259  15.685  20.987   8.884 -0.1123  0.0381 -0.1130
 1386BOLB   C4C33260  15.481  21.090   9.239 -0.0057 -0.0350 -0.1253
 1386BOLB   C1D33261  15.477  21.733   8.278  0.0923 -0.1245  0.1320
 1386BOLB   C2D33262  15.239  21.671   8.622 -0.0877 -0.0580 -0.2304
 1386BOLB   C3D33263  15.190  21.841   9.060 -0.3632 -0.3547 -0.4928
 1386BOLB   C4D33264  15.106  21.556   9.412 -0.1172 -0.0773  0.0268
 1387BOLB   NC133265  18.286  16.881  11.319  0.0759 -0.1035 -0.1355
 1387BOLB   PO133266  18.615  16.703  11.468  0.3751 -0.0721 -0.1069
 1387BOLB   GL133267  18.877  16.980  11.208  0.0663  0.2009 -0.0114
 1387BOLB   GL233268  19.058  16.770  11.181 -0.0049  0.0368  0.2909
 1387BOLB   C1A33269  18.914  16.873  10.673  0.1174 -0.0705 -0.1635
 1387BOLB   C2A33270  19.069  17.029  10.322 -0.0690  0.2320 -0.1347
 1387BOLB   C3A33271  19.253  17.055   9.938 -0.1856 -0.2172  0.0475
 1387BOLB   C4A33272  19.591  17.041   9.642  0.2526 -0.0267 -0.0490
 1387BOLB   C1B33273  19.268  16.539  10.845  0.0494  0.1108 -0.1433
 1387BOLB   C2B33274  19.383  16.688  10.464 -0.1087 -0.1304 -0.0179
 1387BOLB   C3B33275  19.652  17.013  10.238 -0.1205  0.1518  0.2676
 1387BOLB   C4B33276  19.769  17.355  10.032  0.1872 -0.0963 -0.2692
 1387BOLB   NC233277  21.110  16.496   7.912  0.0160 -0.2008  0.4151
 1387BOLB   PO233278  20.714  16.387   7.685 -0.1775 -0.1447 -0.1669
 1387BOLB   GL333279  20.685  16.651   8.036 -0.2364  0.2795  0.1171
 1387BOLB   GL433280  20.887  16.865   8.146  0.2636 -0.2060 -0.0767
 1387BOLB   C1C33281  20.485  16.509   8.450 -0.1313  0.0132  0.0603
 1387BOLB   C2C33282  20.333  16.622   8.889  0.1075 -0.1519  0.1726
 1387BOLB   C3C33283  19.941  16.954   8.964  0.1324 -0.0015  0.1349
 1387BOLB   C4C33284  19.610  17.130   9.237 -0.2866  0.0840  0.2711
 1387BOLB   C1D33285  20.872  17.062   8.510  0.0039  0.0002 -0.1552
 1387BOLB   C2D33286  20.824  16.966   9.009  0.0389 -0.0525 -0.0876
 1387BOLB   C3D33287  20.528  16.941   9.344 -0.0558  0.0540  0.0892
 1387BOLB   C4D33288  20.075  17.136   9.478 -0.1838  0.0282 -0.1936
 1388BOLB   NC133289  14.405  10.427  11.882  0.2988 -0.0936  0.5598
 1388BOLB   PO133290  14.051  10.054  12.034  0.2634 -0.1532  0.1372
 1388BOLB   GL133291  14.065  10.100  11.628 -0.2132  0.0404  0.2059
 1388BOLB   GL233292  14.068  10.376  11.463 -0.2141 -0.0368 -0.2289
 1388BOLB   C1A33293  14.287  10.008  11.215 -0.2473 -0.0755 -0.0784
 1388BOLB   C2A33294  14.563   9.865  10.897 -0.3133  0.0353  0.0037
 1388BOLB   C3A33295  14.716   9.645  10.549  0.4442 -0.3490  0.3050
 1388BOLB   C4A33296  14.730   9.498  10.246 -0.0368  0.1361  0.4037
 1388BOLB   C1B33297  13.901  10.578  11.139 -0.1616 -0.1632  0.1797
 1388BOLB   C2B33298  13.977  10.518  10.700  0.0966  0.0463  0.1575
 1388BOLB   C3B33299  13.822  10.505  10.302  0.1175  0.2851 -0.0650
 1388BOLB   C4B33300  13.715  10.300   9.953 -0.0644 -0.3437 -0.1693
 1388BOLB   NC233301  15.276   8.482   8.016  0.2857  0.0144 -0.0387
 1388BOLB   PO233302  14.819   8.316   8.070  0.0090 -0.0096  0.2630
 1388BOLB   GL333303  14.859   8.315   8.563 -0.0573 -0.1663 -0.3483
 1388BOLB   GL433304  14.615   8.318   8.789 -0.1345  0.0767  0.0195
 1388BOLB   C1C33305  14.932   8.668   8.925  0.2487 -0.0695  0.0331
 1388BOLB   C2C33306  14.834   8.893   9.273  0.3718  0.1156 -0.0715
 1388BOLB   C3C33307  14.837   8.997   9.705  0.1192 -0.2703 -0.2938
 1388BOLB   C4C33308  14.813   9.282   9.852  0.4918  0.2450 -0.1728
 1388BOLB   C1D33309  14.438   8.629   9.109 -0.1128 -0.1653 -0.0259
 1388BOLB   C2D33310  14.199   8.639   9.433  0.0517 -0.1723 -0.0567
 1388BOLB   C3D33311  13.870   8.660   9.644  0.2125  0.4395 -0.1164
 1388BOLB   C4D33312  13.471   8.808   9.583  0.0551  0.1592 -0.2209
 1389BOLB   NC133313  17.817  19.839  11.779 -0.0373  0.3576  0.2892
 1389BOLB   PO133314  17.516  19.711  11.549  0.0054  0.0010  0.0617
 1389BOLB   GL133315  17.466  19.735  11.093 -0.1088  0.0080  0.3215
 1389BOLB   GL233316  17.147  19.701  10.927 -0.0949 -0.0136  0.0896
 1389BOLB   C1A33317  17.509  19.453  10.751 -0.2413 -0.2168 -0.1239
 1389BOLB   C2A33318  17.596  19.276  10.353  0.1178 -0.2512  0.1484
 1389BOLB   C3A33319  17.633  19.234   9.938  0.0612  0.1064  0.0280
 1389BOLB   C4A33320  17.524  19.128   9.522 -0.1849  0.0880 -0.0354
 1389BOLB   C1B33321  17.471  19.915  10.597 -0.1938 -0.1090  0.2765
 1389BOLB   C2B33322  17.616  19.814  10.374  0.2519  0.0605 -0.0205
 1389BOLB   C3B33323  17.517  19.744   9.894 -0.2023 -0.2895  0.1225
 1389BOLB   C4B33324  17.552  19.670   9.416 -0.3005  0.2651 -0.0716
 1389BOLB   NC233325  17.255  19.866   7.345  0.2920  0.0082  0.1511
 1389BOLB   PO233326  16.863  19.795   7.126  0.0409 -0.1161 -0.0169
 1389BOLB   GL333327  16.936  19.574   7.577  0.1339  0.0421  0.0947
 1389BOLB   GL433328  16.995  19.239   7.608 -0.0931 -0.0592 -0.0383
 1389BOLB   C1C33329  17.134  19.536   8.016 -0.0396 -0.2918  0.1284
 1389BOLB   C2C33330  17.264  19.515   8.373 -0.0402  0.3556 -0.1786
 1389BOLB   C3C33331  17.347  19.368   8.695 -0.1894  0.2760 -0.0156
 1389BOLB   C4C33332  17.510  19.270   9.056  0.2162  0.3404  0.0233
 1389BOLB   C1D33333  17.017  19.066   7.905  0.4999  0.4749  0.1806
 1389BOLB   C2D33334  17.316  18.785   8.264  0.2137  0.2394 -0.0166
 1389BOLB   C3D33335  17.551  18.659   8.476  0.1654  0.0281  0.1380
 1389BOLB   C4D33336  17.625  18.365   8.743  0.0932  0.0279  0.1133
 1390BOLB   NC133337  21.187  11.496  13.814 -0.2543 -0.0414  0.0876
 1390BOLB   PO133338  21.569  11.265  13.559  0.0762 -0.2323  0.0397
 1390BOLB   GL133339  21.624  11.306  13.159  0.4163  0.0922 -0.0562
 1390BOLB   GL233340  21.417  11.196  12.949  0.2324  0.5197 -0.0584
 1390BOLB   C1A33341  21.865  11.322  12.803  0.1076  0.2687  0.3987
 1390BOLB   C2A33342  21.979  11.165  12.381  0.1895 -0.0756  0.3606
 1390BOLB   C3A33343  22.010  10.889  12.006 -0.1931 -0.1929 -0.0268
 1390BOLB   C4A33344  22.369  10.971  11.719  0.4297  0.0018  0.1276
 1390BOLB   C1B33345  21.552  10.989  12.619  0.0401 -0.0778 -0.0386
 1390BOLB   C2B33346  21.784  10.600  12.349  0.1684 -0.0343 -0.2318
 1390BOLB   C3B33347  21.915  10.353  12.051  0.0836  0.1278  0.0903
 1390BOLB   C4B33348  22.283  10.506  11.894  0.0093  0.2662 -0.0490
 1390BOLB   NC233349  23.504  10.072  10.113 -0.0951 -0.1965  0.2420
 1390BOLB   PO233350  23.836   9.952  10.413  0.1509 -0.0545  0.1091
 1390BOLB   GL333351  23.484  10.142  10.661  0.4497  0.1415 -0.1594
 1390BOLB   GL433352  23.282   9.880  10.791 -0.0463  0.1369  0.1742
 1390BOLB   C1C33353  23.504  10.509  10.856 -0.0966 -0.3500 -0.1236
 1390BOLB   C2C33354  23.257  10.884  11.105  0.0744  0.1115 -0.0075
 1390BOLB   C3C33355  22.902  10.849  11.231  0.0987 -0.0741 -0.1081
 1390BOLB   C4C33356  22.487  10.755  11.431 -0.1209  0.0624 -0.1877
 1390BOLB   C1D33357  23.121  10.081  11.139  0.3663 -0.1112  0.4588
 1390BOLB   C2D33358  23.198  10.407  11.484 -0.0393 -0.2410 -0.0373
 1390BOLB   C3D33359  23.341  10.806  11.631 -0.1056  0.3405  0.2694
 1390BOLB   C4D33360  23.487  11.181  11.766  0.0750 -0.3134 -0.0949
 1391BOLB   NC133361  20.887  21.851  13.355  0.2554 -0.0526 -0.0124
 1391BOLB   PO133362  21.001  21.906  13.855  0.2782  0.2749 -0.0773
 1391BOLB   GL133363  21.286  22.150  13.474 -0.1685  0.0000 -0.3425
 1391BOLB   GL233364  21.490  22.421  13.637 -0.3328  0.1357  0.0054
 1391BOLB   C1A33365  21.408  22.271  13.046 -0.2344  0.0040 -0.1459
 1391BOLB   C2A33366  21.797  22.328  12.840 -0.0259 -0.1398 -0.0080
 1391BOLB   C3A33367  22.158  22.302  12.604 -0.0076  0.1373 -0.4705
 1391BOLB   C4A33368  22.373  22.446  12.327 -0.1533 -0.0099  0.1069
 1391BOLB   C1B33369  21.848  22.409  13.434  0.1310  0.1862  0.2576
 1391BOLB   C2B33370  22.281  22.245  13.203  0.2696 -0.0408 -0.1112
 1391BOLB   C3B33371  22.511  21.978  12.981 -0.0961 -0.0950  0.3061
 1391BOLB   C4B33372  22.936  21.950  12.789 -0.1587 -0.0181 -0.1099
 1391BOLB   NC233373  23.078  22.682   9.592  0.1993 -0.3056  0.0351
 1391BOLB   PO233374  23.108  22.568  10.055  0.0577  0.0986  0.0775
 1391BOLB   GL333375  23.045  22.674  10.438 -0.0568  0.0797  0.0928
 1391BOLB   GL433376  22.716  22.685  10.446 -0.2630  0.0115  0.2750
 1391BOLB   C1C33377  22.913  22.930  10.831  0.1166 -0.1526  0.0369
 1391BOLB   C2C33378  22.539  22.839  11.135  0.0416  0.2635  0.0193
 1391BOLB   C3C33379  22.627  22.689  11.462 -0.3120  0.0768  0.2846
 1391BOLB   C4C33380  22.654  22.558  11.962  0.4917  0.0546 -0.1940
 1391BOLB   C1D33381  22.427  22.310  10.560 -0.0383  0.1399  0.0504
 1391BOLB   C2D33382  22.226  22.373  10.936  0.2436 -0.0950 -0.2925
 1391BOLB   C3D33383  21.854  22.422  11.067  0.1491  0.3485  0.1690
 1391BOLB   C4D33384  21.613  22.662  11.214 -0.3912 -0.2737 -0.0050
 1392BOLB   NC133385  10.390  13.999  11.987  0.1618 -0.3370  0.0882
 1392BOLB   PO133386   9.882  13.876  12.085  0.0083 -0.0049  0.0659
 1392BOLB   GL133387   9.698  13.904  11.677  0.2465  0.0172  0.2640
 1392BOLB   GL233388   9.420  14.082  11.722  0.2307  0.1775  0.2294
 1392BOLB   C1A33389   9.784  13.809  11.339  0.3747  0.2233  0.1142
 1392BOLB   C2A33390   9.860  13.669  10.958 -0.0451  0.0249  0.2077
 1392BOLB   C3A33391   9.613  13.792  10.609  0.1662 -0.3408 -0.1033
 1392BOLB   C4A33392   9.614  13.743  10.245  0.0304 -0.0982 -0.1472
 1392BOLB   C1B33393   9.147  14.133  11.351  0.2897  0.0193  0.0552
 1392BOLB   C2B33394   8.800  14.016  11.042  0.2088 -0.2343  0.2124
 1392BOLB   C3B33395   8.500  14.085  10.667 -0.0994 -0.2073  0.0374
 1392BOLB   C4B33396   8.243  14.261  10.293  0.0240  0.0460  0.2262
 1392BOLB   NC233397   8.698  14.228   8.097  0.3225  0.5009 -0.2431
 1392BOLB   PO233398   8.529  13.783   8.163 -0.3469  0.0967 -0.0931
 1392BOLB   GL333399   8.430  13.720   8.591  0.0845 -0.0499  0.0623
 1392BOLB   GL433400   8.196  13.518   8.683  0.2128 -0.2475 -0.2860
 1392BOLB   C1C33401   8.601  13.560   9.003 -0.2133 -0.0241 -0.0587
 1392BOLB   C2C33402   8.801  13.790   9.296 -0.0733 -0.0503  0.0046
 1392BOLB   C3C33403   9.083  13.726   9.615  0.1291 -0.0164  0.2955
 1392BOLB   C4C33404   9.282  13.698   9.988 -0.2753 -0.1654 -0.2076
 1392BOLB   C1D33405   8.258  13.235   9.004 -0.1970 -0.0926  0.1517
 1392BOLB   C2D33406   8.577  13.035   9.181  0.4047 -0.0634  0.0328
 1392BOLB   C3D33407   8.940  12.884   9.221 -0.0319 -0.1852 -0.4412
 1392BOLB   C4D33408   9.219  12.855   9.589 -0.0552 -0.1745 -0.0938
 1393BOLB   NC133409  16.384  13.872  11.537  0.0025 -0.4785 -0.2071
 1393BOLB   PO133410  16.086  14.052  11.560 -0.4559 -0.1125  0.3475
 1393BOLB   GL133411  16.064  13.993  11.068 -0.1459 -0.1876  0.3231
 1393BOLB   GL233412  16.300  13.762  10.964  0.0964 -0.2931  0.1410
 1393BOLB   C1A33413  16.088  14.044  10.590  0.1915 -0.1265  0.1057
 1393BOLB   C2A33414  16.110  13.948  10.176 -0.1045  0.0325 -0.0365
 1393BOLB   C3A33415  16.541  13.922   9.944  0.2371 -0.0667 -0.4264
 1393BOLB   C4A33416  16.802  13.755   9.561  0.5846 -0.1926  0.0051
 1393BOLB   C1B33417  16.345  13.617  10.571  0.0624  0.0559  0.4192
 1393BOLB   C2B33418  16.539  13.448  10.220 -0.0292  0.0724  0.0481
 1393BOLB   C3B33419  16.908  13.449   9.972 -0.0549 -0.1695 -0.0874
 1393BOLB   C4B33420  17.162  13.117   9.940 -0.2359  0.2468  0.0779
 1393BOLB   NC233421  15.402  13.021   7.351  0.0433 -0.0149 -0.1767
 1393BOLB   PO233422  15.744  12.919   7.600 -0.0245  0.0408  0.1089
 1393BOLB   GL333423  15.803  13.151   7.885  0.2494 -0.0716 -0.1629
 1393BOLB   GL433424  15.530  13.263   8.034 -0.0232  0.0650 -0.2236
 1393BOLB   C1C33425  15.916  13.527   8.225 -0.0022  0.0124 -0.0917
 1393BOLB   C2C33426  16.007  13.605   8.669 -0.0482 -0.1644 -0.3552
 1393BOLB   C3C33427  16.413  13.718   8.778 -0.0212 -0.1114 -0.2061
 1393BOLB   C4C33428  16.679  13.739   9.176 -0.2032  0.2530 -0.0177
 1393BOLB   C1D33429  15.434  13.749   8.075  0.2000  0.0530 -0.0455
 1393BOLB   C2D33430  15.709  13.970   8.408 -0.2270  0.1967  0.1903
 1393BOLB   C3D33431  15.773  14.028   8.832 -0.0609  0.0662  0.1097
 1393BOLB   C4D33432  15.650  14.084   9.227 -0.1149  0.1574 -0.0728
 1394BOLB   NC133433  16.093   9.297  12.789 -0.0816  0.1670  0.1954
 1394BOLB   PO133434  16.518   9.192  12.840 -0.1404 -0.0441 -0.1274
 1394BOLB   GL133435  16.607   8.831  12.542  0.0431 -0.0111 -0.0478
 1394BOLB   GL233436  16.682   8.633  12.662 -0.5468  0.0707 -0.1205
 1394BOLB   C1A33437  16.619   8.547  12.166  0.2316 -0.2897  0.2353
 1394BOLB   C2A33438  16.822   8.220  11.813  0.1018 -0.0521 -0.1000
 1394BOLB   C3A33439  16.958   8.057  11.514  0.1043 -0.0594 -0.2223
 1394BOLB   C4A33440  17.414   7.825  11.646  0.2297 -0.0140  0.1049
 1394BOLB   C1B33441  17.015   8.539  12.396  0.2665  0.1479  0.2962
 1394BOLB   C2B33442  17.331   8.416  11.988 -0.4358 -0.3135 -0.2061
 1394BOLB   C3B33443  17.513   8.297  11.613  0.2282  0.0492 -0.0617
 1394BOLB   C4B33444  17.956   8.029  11.551 -0.1722 -0.0425  0.2598
 1394BOLB   NC233445  18.749   5.929  10.730  0.0377  0.2623  0.0748
 1394BOLB   PO233446  18.475   5.613  10.841 -0.0120  0.0745  0.1751
 1394BOLB   GL333447  18.256   5.953  10.952 -0.0057  0.1419 -0.3297
 1394BOLB   GL433448  18.087   5.989  10.832 -0.0502  0.0278 -0.0336
 1394BOLB   C1C33449  18.029   6.271  11.269  0.2654 -0.2316 -0.0930
 1394BOLB   C2C33450  18.114   6.752  11.183  0.1255 -0.1939 -0.0165
 1394BOLB   C3C33451  18.029   7.162  11.540  0.1872  0.3027  0.2338
 1394BOLB   C4C33452  17.791   7.610  11.633  0.0204  0.3622  0.0250
 1394BOLB   C1D33453  17.670   6.057  11.027 -0.3961  0.2653 -0.1283
 1394BOLB   C2D33454  17.378   6.247  11.362 -0.0513  0.0124  0.1979
 1394BOLB   C3D33455  17.088   6.209  11.695  0.3303  0.1193  0.2838
 1394BOLB   C4D33456  17.271   6.263  12.140  0.0074 -0.2083  0.1217
 1395BOLB   NC133457  21.107  12.160  13.500  0.2502  0.3558 -0.1526
 1395BOLB   PO133458  21.338  11.725  13.400 -0.0334 -0.2814  0.1339
 1395BOLB   GL133459  21.546  11.751  12.915 -0.0142 -0.1781  0.0425
 1395BOLB   GL233460  21.864  11.823  12.919 -0.0701 -0.0364 -0.1948
 1395BOLB   C1A33461  21.642  12.100  12.565 -0.2234 -0.3070  0.0661
 1395BOLB   C2A33462  21.814  12.026  12.082  0.3087  0.2919 -0.1707
 1395BOLB   C3A33463  21.841  11.754  11.581 -0.2144  0.1189  0.1228
 1395BOLB   C4A33464  21.800  11.539  11.227  0.2587 -0.1821  0.3789
 1395BOLB   C1B33465  21.862  11.638  12.405  0.0869  0.0779  0.0663
 1395BOLB   C2B33466  22.157  11.549  12.067  0.0586 -0.0782 -0.0905
 1395BOLB   C3B33467  22.112  11.400  11.802  0.3447 -0.0505  0.1433
 1395BOLB   C4B33468  22.181  11.286  11.407 -0.0824  0.0635 -0.1911
 1395BOLB   NC233469  22.598  10.731   9.106  0.1440 -0.1878 -0.2330
 1395BOLB   PO233470  22.150  10.531   9.052  0.0118 -0.3107  0.0169
 1395BOLB   GL333471  21.905  10.778   9.392 -0.1509  0.2641  0.0251
 1395BOLB   GL433472  21.585  10.748   9.344 -0.2615 -0.1749 -0.1972
 1395BOLB   C1C33473  21.930  10.835   9.830 -0.1204  0.2465  0.0944
 1395BOLB   C2C33474  21.959  11.091  10.158 -0.0035  0.1649  0.3802
 1395BOLB   C3C33475  21.742  11.256  10.534  0.0059 -0.2489 -0.0004
 1395BOLB   C4C33476  21.713  11.482  10.842 -0.0266 -0.2192  0.2405
 1395BOLB   C1D33477  21.382  10.761   9.747  0.0796  0.1767  0.3080
 1395BOLB   C2D33478  21.165  10.690  10.144 -0.0930 -0.3177 -0.0137
 1395BOLB   C3D33479  20.930  10.733  10.488 -0.0221 -0.1789  0.2086
 1395BOLB   C4D33480  20.540  10.845  10.739 -0.2063  0.1908 -0.4111
 1396BOLB   NC133481  12.716  16.699  11.627 -0.0599  0.1171 -0.0942
 1396BOLB   PO133482  12.858  16.516  11.330 -0.2645  0.0650 -0.5368
 1396BOLB   GL133483  12.674  16.389  11.004 -0.4020 -0.0925  0.1949
 1396BOLB   GL233484  12.870  16.569  10.813 -0.0553  0.3161 -0.2799
 1396BOLB   C1A33485  12.537  16.184  10.636  0.0151 -0.1555 -0.1759
 1396BOLB   C2A33486  12.371  15.946  10.395  0.3504  0.2041 -0.2633
 1396BOLB   C3A33487  12.307  15.893  10.039 -0.1383  0.0421  0.1813
 1396BOLB   C4A33488  12.332  15.809   9.678 -0.3460  0.3124  0.0578
 1396BOLB   C1B33489  12.965  16.602  10.431  0.2548 -0.0472 -0.1300
 1396BOLB   C2B33490  12.885  16.431  10.005 -0.2523  0.0991 -0.0484
 1396BOLB   C3B33491  13.026  16.512   9.564  0.0351 -0.0101 -0.1280
 1396BOLB   C4B33492  13.005  16.390   9.229  0.2649  0.1431  0.2209
 1396BOLB   NC233493  11.985  16.106   6.831  0.0853 -0.1948 -0.2035
 1396BOLB   PO233494  12.183  16.321   7.155 -0.1552 -0.3541 -0.0160
 1396BOLB   GL333495  12.161  16.287   7.655 -0.0033 -0.1845  0.0984
 1396BOLB   GL433496  12.523  16.284   7.813 -0.2615 -0.2593 -0.2041
 1396BOLB   C1C33497  12.016  16.129   8.115 -0.0001 -0.0073  0.0822
 1396BOLB   C2C33498  12.130  15.939   8.483 -0.0302  0.3033 -0.1504
 1396BOLB   C3C33499  12.242  15.789   8.917  0.1563  0.0678  0.1343
 1396BOLB   C4C33500  12.381  15.594   9.279 -0.0337 -0.1930 -0.0164
 1396BOLB   C1D33501  12.579  16.254   8.262  0.2259 -0.1200  0.0775
 1396BOLB   C2D33502  12.630  15.979   8.701 -0.4868 -0.0914  0.1130
 1396BOLB   C3D33503  12.592  16.078   9.113 -0.2854  0.1638 -0.0270
 1396BOLB   C4D33504  12.328  16.153   9.324  0.1842 -0.2487 -0.0258
 1397BOLB   NC133505  14.322  18.660  11.131 -0.0903 -0.1242 -0.1412
 1397BOLB   PO133506  14.095  18.337  11.133  0.0324  0.1127  0.0211
 1397BOLB   GL133507  14.162  18.563  10.689  0.1630  0.1521  0.0647
 1397BOLB   GL233508  14.251  18.940  10.706  0.1167 -0.2893  0.1561
 1397BOLB   C1A33509  14.191  18.571  10.360 -0.0897  0.0788  0.0584
 1397BOLB   C2A33510  14.193  18.825   9.868  0.1879 -0.3976 -0.2118
 1397BOLB   C3A33511  14.373  19.004   9.532  0.2966  0.1614  0.0885
 1397BOLB   C4A33512  14.559  18.956   9.064  0.3375 -0.2331  0.3370
 1397BOLB   C1B33513  14.266  19.093  10.321 -0.1743  0.0599 -0.0580
 1397BOLB   C2B33514  14.383  19.253   9.936  0.1103  0.4589  0.2006
 1397BOLB   C3B33515  14.611  19.634   9.718 -0.1457 -0.4505 -0.0622
 1397BOLB   C4B33516  14.573  19.922   9.299 -0.0617 -0.1262 -0.1464
 1397BOLB   NC233517  15.058  19.512   6.802  0.1115 -0.0050 -0.4610
 1397BOLB   PO233518  14.761  19.812   7.011  0.1824 -0.0513  0.1230
 1397BOLB   GL333519  14.688  19.653   7.385  0.0070  0.0276 -0.1389
 1397BOLB   GL433520  14.355  19.551   7.481 -0.0891 -0.1352 -0.1065
 1397BOLB   C1C33521  14.723  19.699   7.734  0.0165 -0.2658  0.0563
 1397BOLB   C2C33522  14.756  19.551   8.085 -0.3409 -0.1361 -0.2780
 1397BOLB   C3C33523  14.633  19.435   8.455  0.2549  0.0595  0.0956
 1397BOLB   C4C33524  14.624  19.139   8.678  0.1045 -0.0674 -0.0141
 1397BOLB   C1D33525  14.267  19.634   7.892 -0.1673 -0.1840 -0.0784
 1397BOLB   C2D33526  14.359  19.918   8.256  0.0969  0.1069 -0.0459
 1397BOLB   C3D33527  14.572  19.866   8.708 -0.1450  0.2129 -0.0446
 1397BOLB   C4D33528  14.995  20.009   9.060  0.0992 -0.0762  0.0275
 1398BOLB   NC133529  12.567  21.084  12.005 -0.1706 -0.1436  0.0612
 1398BOLB   PO133530  12.344  21.530  11.786  0.2543 -0.1850 -0.1493
 1398BOLB   GL133531  12.342  21.825  11.400  0.3237 -0.2483  0.0250
 1398BOLB   GL233532  12.165  22.085  11.428 -0.1405 -0.2850 -0.2090
 1398BOLB   C1A33533  12.319  21.881  10.961  0.0684  0.2112 -0.1545
 1398BOLB   C2A33534  12.070  22.056  10.778 -0.0198 -0.0361  0.1490
 1398BOLB   C3A33535  12.239  22.311  10.414 -0.3238  0.0148 -0.0190
 1398BOLB   C4A33536  12.528  22.298  10.118  0.0110 -0.0371  0.0319
 1398BOLB   C1B33537  11.953  22.464  11.197  0.1287  0.0488 -0.1681
 1398BOLB   C2B33538  11.810  22.491  10.869  0.2174  0.2690 -0.0074
 1398BOLB   C3B33539  11.820  22.556  10.512 -0.4003 -0.0540  0.3597
 1398BOLB   C4B33540  12.049  22.880  10.312  0.2093 -0.2081 -0.4421
 1398BOLB   NC233541  12.978  23.285   7.869  0.1015 -0.1256 -0.1739
 1398BOLB   PO233542  13.269  22.995   7.989 -0.0234 -0.2956  0.1161
 1398BOLB   GL333543  13.486  22.962   8.445 -0.0725 -0.2412 -0.2090
 1398BOLB   GL433544  13.741  23.108   8.558  0.1607 -0.1892  0.2968
 1398BOLB   C1C33545  13.329  22.726   8.779 -0.0661 -0.0269  0.2068
 1398BOLB   C2C33546  12.940  22.594   9.018  0.0479  0.1653 -0.0875
 1398BOLB   C3C33547  12.801  22.462   9.484  0.0977 -0.0693 -0.1043
 1398BOLB   C4C33548  12.764  22.466   9.829 -0.0259  0.0811 -0.2339
 1398BOLB   C1D33549  13.944  22.686   8.486  0.0377 -0.0818  0.1074
 1398BOLB   C2D33550  14.131  22.279   8.624  0.0885  0.2801 -0.1671
 1398BOLB   C3D33551  14.254  22.022   8.993 -0.1464  0.1362  0.1992
 1398BOLB   C4D33552  14.318  21.515   9.136 -0.0641  0.3799 -0.3384
 1399BOLB   NC133553  19.656   8.989  14.774  0.1196  0.0260  0.1842
 1399BOLB   PO133554  19.959   9.350  14.921  0.0597  0.1059 -0.2085
 1399BOLB   GL133555  20.304   9.069  14.756  0.1154 -0.1877 -0.2300
 1399BOLB   GL233556  20.373   8.769  14.966  0.2416  0.3067 -0.0113
 1399BOLB   C1A33557  20.367   8.728  14.451 -0.0130  0.1554 -0.2071
 1399BOLB   C2A33558  20.339   8.412  14.382  0.0252  0.1705 -0.1486
 1399BOLB   C3A33559  20.628   8.130  14.299 -0.1174 -0.0059  0.3008
 1399BOLB   C4A33560  20.915   7.772  14.253  0.3338  0.2062  0.0093
 1399BOLB   C1B33561  20.603   8.323  14.879  0.3543  0.0388 -0.0229
 1399BOLB   C2B33562  20.705   7.888  14.743 -0.1616 -0.1875 -0.2939
 1399BOLB   C3B33563  20.706   7.489  14.626  0.4092  0.1354 -0.0156
 1399BOLB   C4B33564  20.851   7.089  14.599 -0.1580  0.4168  0.0156
 1399BOLB   NC233565  21.790   5.697  13.262  0.0055  0.2213 -0.0893
 1399BOLB   PO233566  21.840   5.546  13.738  0.2280  0.1046  0.1808
 1399BOLB   GL333567  21.717   5.927  13.750  0.1217 -0.3173  0.1476
 1399BOLB   GL433568  21.933   6.006  13.942 -0.0973 -0.3148  0.1661
 1399BOLB   C1C33569  21.525   6.276  13.780  0.1093  0.0832 -0.2090
 1399BOLB   C2C33570  21.258   6.636  13.864  0.0169 -0.0796 -0.0270
 1399BOLB   C3C33571  21.054   7.070  14.045 -0.0224  0.1834 -0.0538
 1399BOLB   C4C33572  20.881   7.358  14.160 -0.0961 -0.2927 -0.1689
 1399BOLB   C1D33573  22.278   6.125  14.021 -0.1240  0.0971  0.2127
 1399BOLB   C2D33574  22.199   6.222  14.521 -0.3957  0.4134  0.2244
 1399BOLB   C3D33575  21.940   6.373  14.976 -0.0979  0.1538 -0.0592
 1399BOLB   C4D33576  21.670   6.672  15.180  0.1806 -0.3127  0.0938
 1400BOLB   NC133577  13.659  17.348  11.666  0.0091 -0.1336 -0.2255
 1400BOLB   PO133578  13.399  17.366  11.352  0.0466 -0.0504  0.2868
 1400BOLB   GL133579  13.140  17.340  10.852  0.0376 -0.1910 -0.2508
 1400BOLB   GL233580  13.153  17.529  10.629 -0.0396 -0.0895 -0.2585
 1400BOLB   C1A33581  12.979  17.132  10.382  0.1178  0.1695 -0.0958
 1400BOLB   C2A33582  12.671  16.944  10.216  0.2307 -0.0611  0.0923
 1400BOLB   C3A33583  12.651  16.861   9.720 -0.2023  0.0219  0.0853
 1400BOLB   C4A33584  12.613  16.605   9.309 -0.2583  0.0495 -0.0478
 1400BOLB   C1B33585  13.277  17.444  10.211 -0.3268 -0.1541 -0.6045
 1400BOLB   C2B33586  13.305  17.590   9.772 -0.2420  0.5045  0.3236
 1400BOLB   C3B33587  13.556  17.545   9.357 -0.0594  0.0403 -0.1702
 1400BOLB   C4B33588  13.480  17.451   8.929  0.2199  0.0957  0.0489
 1400BOLB   NC233589  12.729  17.133   7.050  0.1912 -0.0037  0.0361
 1400BOLB   PO233590  12.430  17.432   7.096 -0.1034  0.2029  0.1688
 1400BOLB   GL333591  12.409  17.168   7.427 -0.0258  0.1545  0.0131
 1400BOLB   GL433592  12.304  16.828   7.473 -0.1445  0.0451  0.1074
 1400BOLB   C1C33593  12.541  17.141   7.892  0.1531 -0.3027 -0.3123
 1400BOLB   C2C33594  12.693  16.909   8.282 -0.1793  0.1415 -0.3032
 1400BOLB   C3C33595  12.813  16.633   8.559 -0.1455 -0.0391  0.1849
 1400BOLB   C4C33596  12.723  16.502   8.806 -0.1905 -0.1657 -0.1375
 1400BOLB   C1D33597  12.217  16.698   7.976  0.2070  0.0264 -0.2106
 1400BOLB   C2D33598  12.102  16.926   8.279 -0.2373  0.1144 -0.0032
 1400BOLB   C3D33599  12.184  16.712   8.639  0.2446  0.0550 -0.0497
 1400BOLB   C4D33600  12.297  16.310   8.767  0.1270  0.4279 -0.0775
 1401BOLB   NC133601  18.932  16.310  11.411 -0.0102 -0.0366  0.0058
 1401BOLB   PO133602  19.361  16.364  11.492 -0.0691  0.1829 -0.0886
 1401BOLB   GL133603  19.535  15.913  11.373 -0.0327  0.3574  0.3769
 1401BOLB   GL233604  19.721  15.592  11.399  0.0593  0.1479  0.5279
 1401BOLB   C1A33605  19.640  15.731  10.975 -0.0926  0.0055 -0.0428
 1401BOLB   C2A33606  19.570  15.757  10.599 -0.1637 -0.0339  0.0582
 1401BOLB   C3A33607  19.703  15.943  10.198 -0.1768 -0.0329 -0.0445
 1401BOLB   C4A33608  19.815  16.114   9.814  0.1127 -0.2099  0.3109
 1401BOLB   C1B33609  20.003  15.371  11.110 -0.1217 -0.2001 -0.1534
 1401BOLB   C2B33610  20.009  15.453  10.725 -0.5832 -0.3712 -0.1558
 1401BOLB   C3B33611  20.001  15.515  10.299  0.0201 -0.0129  0.1728
 1401BOLB   C4B33612  20.143  15.753   9.829 -0.1323 -0.1525  0.2676
 1401BOLB   NC233613  19.509  16.995   7.226  0.4461  0.1899  0.1222
 1401BOLB   PO233614  19.794  16.655   7.223 -0.2194  0.0723 -0.1866
 1401BOLB   GL333615  19.809  16.731   7.644 -0.0174 -0.1533  0.1426
 1401BOLB   GL433616  19.865  17.084   7.686  0.0181 -0.1100 -0.2845
 1401BOLB   C1C33617  20.125  16.592   8.062  0.0351  0.0550  0.2922
 1401BOLB   C2C33618  19.962  16.520   8.554 -0.3068  0.0605 -0.3410
 1401BOLB   C3C33619  19.911  16.364   8.975  0.1481  0.2916 -0.1678
 1401BOLB   C4C33620  19.968  16.219   9.462  0.2086  0.0602 -0.0349
 1401BOLB   C1D33621  19.841  17.020   8.153 -0.0311 -0.3126 -0.1173
 1401BOLB   C2D33622  19.676  16.922   8.526 -0.3103  0.0628 -0.0010
 1401BOLB   C3D33623  19.381  16.851   8.759  0.0882 -0.4969 -0.4669
 1401BOLB   C4D33624  19.279  16.609   9.123  0.1534  0.1558  0.0551
 1402BOLB   NC133625  22.686   9.886  15.178 -0.4730  0.1518  0.0970
 1402BOLB   PO133626  22.462  10.043  14.873 -0.0734  0.1834 -0.2331
 1402BOLB   GL133627  22.833   9.928  14.687 -0.2446  0.2381 -0.1949
 1402BOLB   GL233628  23.021   9.676  14.733  0.0101 -0.0586  0.0383
 1402BOLB   C1A33629  22.832   9.932  14.097 -0.0427  0.0035 -0.0242
 1402BOLB   C2A33630  22.818   9.933  13.651 -0.2033  0.2523  0.1623
 1402BOLB   C3A33631  22.991   9.752  13.277 -0.1340 -0.3684 -0.1900
 1402BOLB   C4A33632  23.268   9.639  13.106  0.3202 -0.1576  0.1012
 1402BOLB   C1B33633  23.175   9.548  14.413  0.0393  0.1154  0.1073
 1402BOLB   C2B33634  23.413   9.328  14.102  0.0685  0.0073 -0.3107
 1402BOLB   C3B33635  23.617   9.085  13.827 -0.3093  0.1088  0.1029
 1402BOLB   C4B33636  23.704   9.112  13.384 -0.0074  0.4369 -0.2631
 1402BOLB   NC233637  24.829   8.557  11.615 -0.0149  0.2589 -0.4978
 1402BOLB   PO233638  25.128   8.451  12.086 -0.2393 -0.0903  0.1572
 1402BOLB   GL333639  24.926   8.859  12.163 -0.0225 -0.1479 -0.0532
 1402BOLB   GL433640  24.675   8.956  11.948 -0.1680  0.4120  0.1311
 1402BOLB   C1C33641  24.890   9.223  12.325 -0.1211 -0.0867  0.2150
 1402BOLB   C2C33642  24.475   9.352  12.437  0.0713 -0.2768 -0.2453
 1402BOLB   C3C33643  24.067   9.536  12.599 -0.0379  0.4343 -0.3257
 1402BOLB   C4C33644  23.751   9.608  12.956  0.0856  0.1519 -0.0071
 1402BOLB   C1D33645  24.428   8.707  12.377 -0.3093  0.0698 -0.1338
 1402BOLB   C2D33646  24.680   8.951  12.685  0.0399  0.2217 -0.1636
 1402BOLB   C3D33647  24.454   9.122  12.971  0.0267 -0.1217  0.2571
 1402BOLB   C4D33648  24.345   9.130  13.476  0.2110  0.2006  0.2750
 1403BOLB   NC133649  18.568  14.718  11.379  0.2041 -0.0343 -0.1870
 1403BOLB   PO133650  18.712  15.110  11.580  0.3846 -0.1113 -0.0883
 1403BOLB   GL133651  18.826  15.064  11.239  0.0387 -0.0612  0.2877
 1403BOLB   GL233652  18.607  15.265  11.012 -0.0574  0.0705 -0.0457
 1403BOLB   C1A33653  18.990  15.023  10.788 -0.0877  0.2870  0.3019
 1403BOLB   C2A33654  18.987  15.104  10.327  0.1892  0.3905  0.2137
 1403BOLB   C3A33655  19.123  15.277   9.841  0.3013  0.0259 -0.0236
 1403BOLB   C4A33656  19.421  15.174   9.446 -0.0117 -0.0148 -0.2614
 1403BOLB   C1B33657  18.562  15.480  10.660 -0.0705 -0.1787 -0.2312
 1403BOLB   C2B33658  18.704  15.437  10.222 -0.0175  0.0026 -0.0320
 1403BOLB   C3B33659  18.764  15.600   9.854 -0.1958  0.0603  0.1450
 1403BOLB   C4B33660  18.788  15.829   9.540  0.1513 -0.2485 -0.0114
 1403BOLB   NC233661  18.718  16.916   7.468 -0.1276  0.2188  0.4279
 1403BOLB   PO233662  18.774  16.368   7.379  0.1035  0.2068 -0.0914
 1403BOLB   GL333663  18.949  16.347   7.802  0.2734 -0.0617 -0.0118
 1403BOLB   GL433664  18.811  16.690   7.894 -0.1718 -0.0774  0.0217
 1403BOLB   C1C33665  18.983  16.242   8.258 -0.2693  0.0802  0.1853
 1403BOLB   C2C33666  19.060  15.811   8.554  0.0946  0.0919  0.1918
 1403BOLB   C3C33667  19.381  15.602   8.840  0.2953 -0.3383 -0.0059
 1403BOLB   C4C33668  19.482  15.346   9.141  0.5273  0.0428 -0.1914
 1403BOLB   C1D33669  18.622  16.592   8.236  0.0874 -0.2937  0.2156
 1403BOLB   C2D33670  18.451  16.325   8.531 -0.1682 -0.2327  0.0006
 1403BOLB   C3D33671  18.466  16.097   8.885  0.0624 -0.0465 -0.1220
 1403BOLB   C4D33672  18.479  15.759   9.143  0.0462  0.1179  0.2919
 1404BOLB   NC133673   9.157  19.634  12.336  0.2103 -0.1264 -0.0044
 1404BOLB   PO133674   9.254  19.196  12.121  0.0094 -0.1997  0.1977
 1404BOLB   GL133675   9.312  19.314  11.701  0.1701  0.3255 -0.1596
 1404BOLB   GL233676   9.590  19.328  11.534 -0.1057  0.0048 -0.0919
 1404BOLB   C1A33677   9.030  19.474  11.409  0.1711 -0.1073 -0.0018
 1404BOLB   C2A33678   8.813  19.487  11.024  0.1476 -0.1517  0.0956
 1404BOLB   C3A33679   8.627  19.283  10.687  0.1082 -0.0518 -0.0199
 1404BOLB   C4A33680   8.664  19.145  10.163  0.4342 -0.0387 -0.2205
 1404BOLB   C1B33681   9.510  19.458  11.160 -0.2304  0.2772 -0.2131
 1404BOLB   C2B33682   9.258  19.746  10.914  0.0226 -0.0216 -0.0415
 1404BOLB   C3B33683   9.235  19.843  10.439 -0.0449 -0.0942  0.1806
 1404BOLB   C4B33684   8.966  19.941   9.989 -0.1536 -0.2248  0.0731
 1404BOLB   NC233685   8.929  19.682   7.975  0.2407 -0.2871 -0.2791
 1404BOLB   PO233686   8.946  20.125   7.835 -0.0197 -0.1562  0.1763
 1404BOLB   GL333687   8.927  20.021   8.358 -0.0641  0.2998 -0.1553
 1404BOLB   GL433688   9.209  19.750   8.408 -0.4008 -0.2645  0.1030
 1404BOLB   C1C33689   8.711  19.840   8.707 -0.1753  0.0325 -0.1002
 1404BOLB   C2C33690   8.819  19.531   9.099 -0.0120 -0.1114  0.3483
 1404BOLB   C3C33691   9.003  19.320   9.367  0.0417 -0.0587 -0.2768
 1404BOLB   C4C33692   8.877  19.176   9.775  0.0597  0.1750  0.3136
 1404BOLB   C1D33693   9.287  19.542   8.820  0.0890 -0.4858  0.2593
 1404BOLB   C2D33694   9.193  19.256   8.912  0.0816  0.0728  0.3924
 1404BOLB   C3D33695   8.909  18.910   9.212 -0.2416 -0.2282  0.0207
 1404BOLB   C4D33696   8.831  18.702   9.543  0.5432  0.6196 -0.0566
 1405BOLB   NC133697  18.013   9.512  13.377 -0.3041  0.3282 -0.0771
 1405BOLB   PO133698  17.758   9.286  13.590  0.0825 -0.0655 -0.0586
 1405BOLB   GL133699  17.967   9.016  13.367 -0.1410 -0.0727 -0.0613
 1405BOLB   GL233700  17.782   9.005  13.125  0.3463 -0.1632  0.0277
 1405BOLB   C1A33701  18.260   8.583  13.453 -0.2519  0.1148  0.2872
 1405BOLB   C2A33702  18.433   8.248  13.137  0.2467  0.0481 -0.0453
 1405BOLB   C3A33703  18.701   8.160  12.797  0.2267 -0.1929  0.2648
 1405BOLB   C4A33704  18.848   7.952  12.473 -0.1120 -0.0277 -0.0314
 1405BOLB   C1B33705  17.850   8.935  12.709 -0.1374 -0.1147 -0.0110
 1405BOLB   C2B33706  17.817   9.105  12.281 -0.2881  0.1130 -0.0242
 1405BOLB   C3B33707  18.048   9.051  11.893 -0.2531 -0.0067 -0.1385
 1405BOLB   C4B33708  18.449   8.859  11.910 -0.0828 -0.2991 -0.0528
 1405BOLB   NC233709  20.962   6.695  11.920  0.0943  0.0966 -0.1956
 1405BOLB   PO233710  20.896   6.842  11.519 -0.1123 -0.3922  0.1628
 1405BOLB   GL333711  20.467   7.001  11.577 -0.1072 -0.2595 -0.2590
 1405BOLB   GL433712  20.366   6.705  11.757  0.0448  0.2375  0.1606
 1405BOLB   C1C33713  20.187   7.305  11.757  0.1745 -0.2477  0.0883
 1405BOLB   C2C33714  20.040   7.678  11.985 -0.2071 -0.1131 -0.4778
 1405BOLB   C3C33715  19.548   7.787  12.098 -0.0144 -0.0729  0.2332
 1405BOLB   C4C33716  19.159   7.766  12.225  0.2573 -0.1905  0.0736
 1405BOLB   C1D33717  19.928   6.956  11.937  0.3583 -0.3613  0.0391
 1405BOLB   C2D33718  19.709   7.352  12.165 -0.0834  0.0461  0.0177
 1405BOLB   C3D33719  19.518   7.635  12.556  0.2223 -0.2459  0.2138
 1405BOLB   C4D33720  19.219   7.810  12.762 -0.2483  0.2098 -0.1539
 1406BOLB   NC133721   8.443  19.117  12.715 -0.0685  0.1208 -0.1538
 1406BOLB   PO133722   8.495  19.516  12.349  0.1166  0.2615 -0.1046
 1406BOLB   GL133723   8.412  19.375  11.970  0.1249  0.2512 -0.0878
 1406BOLB   GL233724   8.213  19.651  11.855  0.0012 -0.2697  0.0506
 1406BOLB   C1A33725   8.447  19.288  11.557 -0.0962  0.0788 -0.0668
 1406BOLB   C2A33726   8.283  19.224  11.112  0.0761 -0.1345  0.0619
 1406BOLB   C3A33727   8.025  18.962  10.809  0.1378  0.0929  0.1355
 1406BOLB   C4A33728   7.861  18.708  10.475  0.1209  0.0004  0.0595
 1406BOLB   C1B33729   8.013  19.484  11.446 -0.0883 -0.0786  0.0847
 1406BOLB   C2B33730   7.805  19.438  11.064 -0.0552  0.0696 -0.1256
 1406BOLB   C3B33731   7.827  19.408  10.655  0.2547 -0.3507 -0.0364
 1406BOLB   C4B33732   8.073  19.168  10.333  0.1789  0.2142 -0.1062
 1406BOLB   NC233733   8.151  18.797   7.743  0.1575  0.3571  0.2297
 1406BOLB   PO233734   8.059  18.304   7.969  0.0861 -0.0287  0.1114
 1406BOLB   GL333735   8.170  18.621   8.401 -0.1508 -0.1824  0.0663
 1406BOLB   GL433736   8.434  18.475   8.491 -0.2564  0.1339  0.0794
 1406BOLB   C1C33737   7.970  18.697   8.743 -0.1525 -0.0151 -0.1348
 1406BOLB   C2C33738   7.960  18.694   9.210  0.0515 -0.0807  0.1777
 1406BOLB   C3C33739   7.796  18.669   9.686 -0.5283 -0.1429  0.0631
 1406BOLB   C4C33740   7.843  18.492  10.101 -0.1295 -0.1085 -0.0613
 1406BOLB   C1D33741   8.658  18.162   8.726  0.2839 -0.1846  0.2466
 1406BOLB   C2D33742   8.918  18.264   9.167 -0.0797  0.0256  0.2252
 1406BOLB   C3D33743   9.310  18.461   9.468 -0.0416 -0.1160  0.4098
 1406BOLB   C4D33744   9.364  18.598   9.897  0.3556  0.1100 -0.2225
 1407BOLB   NC133745  21.724  22.730  15.178 -0.1188 -0.1568  0.1145
 1407BOLB   PO133746  21.860  22.872  15.633  0.0113  0.1228  0.0518
 1407BOLB   GL133747  22.141  23.201  15.603 -0.1876  0.4049  0.2258
 1407BOLB   GL233748  22.382  23.078  15.625 -0.1504  0.0743 -0.1921
 1407BOLB   C1A33749  22.240  23.203  15.115 -0.0005  0.0633 -0.0066
 1407BOLB   C2A33750  22.680  23.259  14.973  0.1180 -0.2375 -0.2411
 1407BOLB   C3A33751  23.041  23.243  14.921 -0.1842  0.3281  0.2958
 1407BOLB   C4A33752  23.347  23.175  14.657 -0.1346  0.0129 -0.2243
 1407BOLB   C1B33753  22.655  23.205  15.473  0.2887 -0.1633 -0.2075
 1407BOLB   C2B33754  23.072  23.259  15.422 -0.1125  0.1473 -0.1633
 1407BOLB   C3B33755  23.441  23.277  15.610 -0.2394  0.0455  0.0036
 1407BOLB   C4B33756  23.613  23.327  16.004  0.2431 -0.3650 -0.0368
 1407BOLB   NC233757  25.318  23.824  13.970  0.1589 -0.0687 -0.0058
 1407BOLB   PO233758  25.313  23.655  13.579 -0.0920 -0.1681  0.1846
 1407BOLB   GL333759  25.015  23.433  13.794 -0.0137  0.3324 -0.0622
 1407BOLB   GL433760  24.931  23.468  14.140 -0.0984  0.1472  0.1509
 1407BOLB   C1C33761  24.916  23.013  14.058 -0.1715  0.0394 -0.2386
 1407BOLB   C2C33762  24.529  22.828  14.106 -0.1056 -0.1685  0.1920
 1407BOLB   C3C33763  24.231  22.802  14.335  0.3595  0.3038  0.0654
 1407BOLB   C4C33764  23.771  22.985  14.544 -0.1527  0.0593 -0.2063
 1407BOLB   C1D33765  24.591  23.668  14.414  0.0814 -0.2525  0.1623
 1407BOLB   C2D33766  24.466  23.698  14.923 -0.1909  0.1290 -0.0787
 1407BOLB   C3D33767  24.569  23.717  15.348  0.3116 -0.0537 -0.1064
 1407BOLB   C4D33768  24.753  24.070  15.706 -0.2582 -0.1484 -0.2386
 1408BOLB   NC133769  20.081  14.188  12.466 -0.2292 -0.0968 -0.0229
 1408BOLB   PO133770  20.325  13.907  12.173  0.1176  0.1673 -0.2952
 1408BOLB   GL133771  20.336  13.704  11.789  0.2205  0.1239 -0.0733
 1408BOLB   GL233772  20.389  13.428  11.863 -0.1774  0.0024  0.1499
 1408BOLB   C1A33773  20.349  13.537  11.379  0.0360  0.0987  0.0769
 1408BOLB   C2A33774  20.345  13.501  10.952  0.2744 -0.0996 -0.2889
 1408BOLB   C3A33775  20.358  13.156  10.723 -0.1533  0.0180 -0.0071
 1408BOLB   C4A33776  20.435  12.976  10.377 -0.0545 -0.1488 -0.0721
 1408BOLB   C1B33777  20.762  13.277  11.647  0.1614  0.1865  0.0151
 1408BOLB   C2B33778  20.976  13.137  11.351  0.0343  0.2023  0.0367
 1408BOLB   C3B33779  21.184  12.938  11.002  0.1528 -0.0715  0.0183
 1408BOLB   C4B33780  21.082  12.913  10.632 -0.2778  0.1209 -0.0953
 1408BOLB   NC233781  21.044  12.499   8.081 -0.1460  0.0821 -0.1334
 1408BOLB   PO233782  20.660  12.222   8.050  0.1227  0.0494  0.0489
 1408BOLB   GL333783  20.725  12.476   8.449 -0.2296  0.1254  0.1129
 1408BOLB   GL433784  20.385  12.581   8.589  0.0141  0.1135  0.0237
 1408BOLB   C1C33785  20.885  12.588   8.913  0.1327 -0.0404  0.0886
 1408BOLB   C2C33786  20.884  12.634   9.367 -0.0788  0.1217 -0.1715
 1408BOLB   C3C33787  20.867  12.928   9.720 -0.0661  0.2406 -0.1078
 1408BOLB   C4C33788  20.772  12.862  10.189  0.2641 -0.3587 -0.1084
 1408BOLB   C1D33789  20.113  12.574   9.031  0.1089  0.2547 -0.1314
 1408BOLB   C2D33790  20.011  12.534   9.473 -0.1261  0.2976 -0.0346
 1408BOLB   C3D33791  19.667  12.534   9.677  0.0103  0.4959 -0.1907
 1408BOLB   C4D33792  19.342  12.744   9.581  0.0364 -0.1070  0.0799
 1409BOLB   NC133793  20.995  11.677  13.002  0.2053  0.1767 -0.0905
 1409BOLB   PO133794  21.122  12.095  12.988  0.0505  0.1554  0.3789
 1409BOLB   GL133795  21.199  11.930  12.633  0.0742  0.1031  0.0829
 1409BOLB   GL233796  21.030  12.136  12.403  0.1861  0.0913  0.0610
 1409BOLB   C1A33797  21.352  11.701  12.363 -0.4282 -0.1271  0.1085
 1409BOLB   C2A33798  21.495  11.298  12.241  0.0937 -0.0723  0.0607
 1409BOLB   C3A33799  21.365  10.854  12.060 -0.0997 -0.2048  0.1049
 1409BOLB   C4A33800  21.479  10.471  11.777  0.2867  0.0626  0.0489
 1409BOLB   C1B33801  21.291  12.119  12.080 -0.0795  0.1369 -0.0464
 1409BOLB   C2B33802  21.486  11.672  11.849 -0.0048  0.0558 -0.0641
 1409BOLB   C3B33803  21.660  11.202  11.783 -0.2394  0.1316  0.1979
 1409BOLB   C4B33804  21.912  10.844  11.498 -0.2414 -0.0506 -0.2569
 1409BOLB   NC233805  22.822   8.651  10.825 -0.0605 -0.0142  0.2680
 1409BOLB   PO233806  23.248   8.815  10.829 -0.0806  0.1390 -0.2356
 1409BOLB   GL333807  23.012   9.117  10.978  0.1007  0.0849 -0.0116
 1409BOLB   GL433808  23.072   9.287  10.694 -0.1692  0.1825 -0.0676
 1409BOLB   C1C33809  22.974   9.588  11.181  0.2199 -0.3196  0.1988
 1409BOLB   C2C33810  22.649   9.738  11.393 -0.0382  0.1335 -0.2105
 1409BOLB   C3C33811  22.265  10.103  11.412 -0.1684  0.1357 -0.1470
 1409BOLB   C4C33812  21.850  10.335  11.578 -0.0239  0.0871  0.1378
 1409BOLB   C1D33813  22.866   9.584  10.704  0.0073 -0.0920 -0.1077
 1409BOLB   C2D33814  22.553   9.973  10.869 -0.1875 -0.1629 -0.1350
 1409BOLB   C3D33815  22.142  10.355  10.826 -0.1895  0.0488  0.0223
 1409BOLB   C4D33816  22.167  10.540  11.177  0.0329 -0.1413 -0.0212
 1410BOLB   NC133817  13.449  19.870  11.182  0.0360 -0.2965  0.3939
 1410BOLB   PO133818  13.797  19.913  11.015 -0.3789  0.1394  0.0399
 1410BOLB   GL133819  13.748  19.944  10.672 -0.0920 -0.1270  0.1371
 1410BOLB   GL233820  13.580  20.180  10.622 -0.1504  0.2088  0.0519
 1410BOLB   C1A33821  13.979  19.868  10.208  0.1833  0.1224 -0.2449
 1410BOLB   C2A33822  14.114  19.758   9.797 -0.0190  0.3936 -0.2885
 1410BOLB   C3A33823  13.869  19.776   9.517 -0.0175  0.0657 -0.1389
 1410BOLB   C4A33824  13.808  19.695   9.116  0.0785  0.1656  0.1812
 1410BOLB   C1B33825  13.609  20.232  10.167  0.2009  0.0302  0.2397
 1410BOLB   C2B33826  13.714  20.148   9.785  0.0155  0.1083 -0.3394
 1410BOLB   C3B33827  13.695  20.229   9.307 -0.0160 -0.0069  0.1947
 1410BOLB   C4B33828  13.680  20.382   8.834 -0.2925  0.0452  0.1483
 1410BOLB   NC233829  14.152  19.741   6.934 -0.0461  0.0570 -0.1856
 1410BOLB   PO233830  13.796  19.563   7.078  0.0704  0.0947  0.2724
 1410BOLB   GL333831  13.486  19.510   7.391 -0.3494  0.4302 -0.0551
 1410BOLB   GL433832  13.677  19.726   7.559  0.1519 -0.0497  0.1400
 1410BOLB   C1C33833  13.142  19.365   7.672  0.3292  0.2488 -0.0526
 1410BOLB   C2C33834  12.868  19.416   8.079 -0.1216 -0.1003 -0.4377
 1410BOLB   C3C33835  13.053  19.597   8.541 -0.2349  0.2646  0.2431
 1410BOLB   C4C33836  13.522  19.581   8.787 -0.0055 -0.3439  0.1046
 1410BOLB   C1D33837  13.765  19.872   7.932 -0.2105 -0.1796 -0.0092
 1410BOLB   C2D33838  13.872  19.642   8.317  0.1779  0.2373  0.1954
 1410BOLB   C3D33839  14.161  19.496   8.544  0.0461 -0.0933 -0.3006
 1410BOLB   C4D33840  14.282  19.452   8.889  0.1482  0.2118 -0.0473
 1411BOLB   NC133841  16.628  15.321  11.858  0.4010  0.1810 -0.2535
 1411BOLB   PO133842  17.037  15.101  11.705  0.0563 -0.0429  0.0597
 1411BOLB   GL133843  16.972  14.985  11.197  0.2451  0.1585 -0.1361
 1411BOLB   GL233844  16.710  14.787  11.347  0.1413  0.2104  0.4819
 1411BOLB   C1A33845  17.015  14.967  10.768  0.0851  0.0019 -0.0179
 1411BOLB   C2A33846  16.955  15.267  10.389  0.0334  0.1187  0.1196
 1411BOLB   C3A33847  16.837  15.224   9.946  0.1506 -0.1746  0.0212
 1411BOLB   C4A33848  16.915  15.286   9.472  0.0037 -0.1213  0.0751
 1411BOLB   C1B33849  16.591  14.649  10.952 -0.0590  0.3545  0.0621
 1411BOLB   C2B33850  16.359  14.504  10.600  0.1394 -0.1239  0.0303
 1411BOLB   C3B33851  16.377  14.447  10.206  0.0443  0.0041  0.1432
 1411BOLB   C4B33852  16.406  14.422   9.808 -0.1336  0.0316 -0.0535
 1411BOLB   NC233853  17.404  15.906   7.116  0.0334  0.2078  0.0940
 1411BOLB   PO233854  17.389  15.576   7.350  0.2496  0.1180 -0.0100
 1411BOLB   GL333855  17.486  15.546   7.755  0.4375 -0.0968 -0.0460
 1411BOLB   GL433856  17.217  15.732   7.819 -0.0737 -0.1163  0.0417
 1411BOLB   C1C33857  17.598  15.613   8.249  0.1141 -0.0330  0.0258
 1411BOLB   C2C33858  17.591  15.782   8.733 -0.1920 -0.0058  0.1538
 1411BOLB   C3C33859  17.709  15.625   9.104 -0.1271 -0.2084 -0.0097
 1411BOLB   C4C33860  17.286  15.394   9.300 -0.2797  0.0874 -0.0518
 1411BOLB   C1D33861  17.167  15.810   8.328 -0.3912 -0.0516  0.0706
 1411BOLB   C2D33862  17.186  16.040   8.616  0.0120 -0.1397 -0.0180
 1411BOLB   C3D33863  17.086  16.259   8.967 -0.0561  0.2505  0.1392
 1411BOLB   C4D33864  17.053  16.436   9.398 -0.0323 -0.0361  0.3948
 1412BOLB   NC133865  19.980  21.152  12.857 -0.0405  0.1039  0.1203
 1412BOLB   PO133866  20.392  21.126  12.745  0.0674 -0.1393  0.1895
 1412BOLB   GL133867  20.655  21.203  12.404 -0.0703 -0.0224 -0.1140
 1412BOLB   GL233868  20.905  21.391  12.589 -0.1874  0.1831 -0.2353
 1412BOLB   C1A33869  20.849  21.205  11.983  0.3835 -0.0659 -0.1595
 1412BOLB   C2A33870  21.023  21.358  11.584 -0.0840  0.1410 -0.1228
 1412BOLB   C3A33871  21.510  21.328  11.413 -0.0429 -0.0381 -0.2779
 1412BOLB   C4A33872  21.873  21.356  11.405  0.0748 -0.2969  0.2058
 1412BOLB   C1B33873  21.281  21.480  12.382 -0.0734 -0.0562  0.1356
 1412BOLB   C2B33874  21.324  21.742  12.140 -0.2575 -0.2077  0.2305
 1412BOLB   C3B33875  21.556  22.089  11.902 -0.3099  0.0495  0.2247
 1412BOLB   C4B33876  21.622  22.317  11.560  0.4407 -0.0256  0.2243
 1412BOLB   NC233877  23.878  22.327  10.112 -0.0512 -0.0531  0.0817
 1412BOLB   PO233878  23.611  22.137  10.313 -0.0898 -0.2445  0.3227
 1412BOLB   GL333879  23.479  22.129  10.682  0.2033  0.2168  0.0320
 1412BOLB   GL433880  23.659  21.970  10.945 -0.0634  0.2266  0.0312
 1412BOLB   C1C33881  23.132  22.101  10.934 -0.1882  0.2055 -0.1766
 1412BOLB   C2C33882  22.950  21.955  11.377  0.1961 -0.3275  0.1071
 1412BOLB   C3C33883  22.691  21.589  11.608 -0.1283  0.0175 -0.3135
 1412BOLB   C4C33884  22.313  21.408  11.582 -0.4572  0.1877 -0.2232
 1412BOLB   C1D33885  23.275  21.611  10.838  0.6683 -0.1262  0.1774
 1412BOLB   C2D33886  22.881  21.406  10.971  0.0151 -0.0379 -0.1474
 1412BOLB   C3D33887  22.474  21.247  10.928 -0.0059  0.2446 -0.2570
 1412BOLB   C4D33888  22.283  20.942  11.171 -0.0621 -0.4448  0.0573
 1413BOLB   NC133889  13.221  18.982  11.635 -0.2696  0.0463  0.2043
 1413BOLB   PO133890  13.140  19.297  11.231 -0.1885 -0.0507  0.0017
 1413BOLB   GL133891  13.044  19.479  10.887  0.1074 -0.0945  0.2078
 1413BOLB   GL233892  13.372  19.580  10.724  0.0867 -0.1959 -0.2454
 1413BOLB   C1A33893  12.940  19.407  10.460 -0.3863 -0.0922 -0.0703
 1413BOLB   C2A33894  13.056  19.497  10.051 -0.2469  0.0113  0.1699
 1413BOLB   C3A33895  13.054  19.457   9.658 -0.0349 -0.0940 -0.1341
 1413BOLB   C4A33896  13.078  19.308   9.253 -0.3486 -0.2465 -0.1667
 1413BOLB   C1B33897  13.491  19.664  10.366  0.1354 -0.2396  0.1036
 1413BOLB   C2B33898  13.527  19.657   9.878  0.0138 -0.3190 -0.2677
 1413BOLB   C3B33899  13.371  19.790   9.431  0.2540  0.0548 -0.0407
 1413BOLB   C4B33900  13.372  19.992   8.967 -0.2393 -0.0351  0.1863
 1413BOLB   NC233901  13.589  18.649   6.629  0.1192 -0.1733 -0.1842
 1413BOLB   PO233902  13.203  18.765   6.793 -0.0578 -0.0975 -0.2275
 1413BOLB   GL333903  13.063  18.575   7.226 -0.2900 -0.0365  0.2821
 1413BOLB   GL433904  12.919  18.404   7.249 -0.2233  0.0864 -0.0016
 1413BOLB   C1C33905  13.017  18.806   7.687 -0.0415 -0.2221  0.2789
 1413BOLB   C2C33906  13.171  18.894   7.981 -0.1063 -0.3153  0.0856
 1413BOLB   C3C33907  13.181  19.023   8.364  0.0062 -0.2226 -0.1411
 1413BOLB   C4C33908  13.254  19.153   8.849 -0.0810 -0.1341  0.1351
 1413BOLB   C1D33909  12.877  18.248   7.602 -0.0889 -0.2477  0.3911
 1413BOLB   C2D33910  13.059  18.292   7.908 -0.0230  0.1861  0.1587
 1413BOLB   C3D33911  13.070  18.485   8.242 -0.0756  0.0715 -0.0681
 1413BOLB   C4D33912  13.034  18.678   8.660  0.0558 -0.0507  0.1654
 1414BOLB   NC133913  13.784  21.666  11.760  0.1506  0.0044 -0.0118
 1414BOLB   PO133914  13.531  21.409  11.480 -0.2782  0.0423 -0.0979
 1414BOLB   GL133915  13.279  21.437  11.125 -0.0945  0.1428  0.1979
 1414BOLB   GL233916  13.260  21.753  10.939  0.0369 -0.0135 -0.0392
 1414BOLB   C1A33917  13.024  21.205  10.782  0.0686 -0.0724  0.3617
 1414BOLB   C2A33918  13.011  21.536  10.397 -0.2611 -0.0981 -0.2927
 1414BOLB   C3A33919  12.828  21.533   9.950 -0.1603 -0.0893  0.0557
 1414BOLB   C4A33920  12.994  21.662   9.486  0.3929  0.0848 -0.2251
 1414BOLB   C1B33921  13.196  22.056  10.522 -0.2108 -0.0218 -0.0131
 1414BOLB   C2B33922  12.924  22.015  10.058 -0.2255 -0.1649  0.1184
 1414BOLB   C3B33923  12.726  21.998   9.742 -0.0126  0.0471 -0.0506
 1414BOLB   C4B33924  12.337  22.216   9.606  0.1402 -0.2801  0.0866
 1414BOLB   NC233925  12.926  21.887   7.517 -0.0717  0.1049 -0.0724
 1414BOLB   PO233926  12.977  22.355   7.508 -0.1135 -0.1036  0.1357
 1414BOLB   GL333927  13.175  22.173   7.810 -0.4265 -0.0198 -0.3599
 1414BOLB   GL433928  13.380  22.477   7.938 -0.0347 -0.0635  0.1273
 1414BOLB   C1C33929  13.285  22.065   8.237 -0.3556  0.0163  0.0066
 1414BOLB   C2C33930  13.573  21.845   8.484  0.0417 -0.0928 -0.0908
 1414BOLB   C3C33931  13.429  21.609   8.741  0.1480  0.1517 -0.0512
 1414BOLB   C4C33932  13.261  21.735   9.132 -0.1301 -0.2014 -0.3522
 1414BOLB   C1D33933  13.112  22.479   8.297 -0.0547 -0.1331 -0.1383
 1414BOLB   C2D33934  13.174  22.178   8.743  0.1107 -0.1887  0.1811
 1414BOLB   C3D33935  13.318  22.325   9.184 -0.2176 -0.1145  0.1802
 1414BOLB   C4D33936  13.570  22.582   9.396 -0.2426 -0.1834  0.1012
 1415BOLB   NC133937  11.794  14.902  11.399  0.2008 -0.0028  0.0566
 1415BOLB   PO133938  11.592  15.259  11.302  0.1411 -0.0578  0.0861
 1415BOLB   GL133939  11.283  15.352  11.068 -0.3031 -0.0547  0.0052
 1415BOLB   GL233940  10.994  15.232  11.076 -0.0278 -0.2277 -0.1341
 1415BOLB   C1A33941  11.131  15.493  10.678  0.0341  0.1367  0.1293
 1415BOLB   C2A33942  11.057  15.517  10.185 -0.1550  0.0335  0.4528
 1415BOLB   C3A33943  11.360  15.672   9.767 -0.0643 -0.0117 -0.3724
 1415BOLB   C4A33944  11.493  15.506   9.457 -0.0372  0.0141 -0.0422
 1415BOLB   C1B33945  10.729  15.193  10.683 -0.2182  0.0648 -0.0219
 1415BOLB   C2B33946  10.771  15.136  10.256 -0.1575 -0.0191  0.4742
 1415BOLB   C3B33947  10.683  15.192   9.777  0.0908 -0.0704  0.2450
 1415BOLB   C4B33948  10.655  14.904   9.286 -0.0674 -0.0649  0.2510
 1415BOLB   NC233949  11.456  14.558   7.161  0.0107 -0.0429 -0.1595
 1415BOLB   PO233950  11.724  14.963   7.011  0.2720  0.0510  0.2101
 1415BOLB   GL333951  11.774  14.872   7.452 -0.2663 -0.0277  0.2615
 1415BOLB   GL433952  12.086  14.881   7.724  0.1987  0.1077  0.0854
 1415BOLB   C1C33953  11.548  14.807   7.826  0.0094 -0.0561  0.1235
 1415BOLB   C2C33954  11.391  15.057   8.163  0.1459  0.1536  0.3569
 1415BOLB   C3C33955  11.406  15.223   8.666  0.1846  0.1397  0.4051
 1415BOLB   C4C33956  11.408  15.440   8.989  0.0846  0.0327 -0.0423
 1415BOLB   C1D33957  11.930  15.048   8.084 -0.4701 -0.0144 -0.0098
 1415BOLB   C2D33958  11.919  15.066   8.528 -0.1829  0.1235 -0.0094
 1415BOLB   C3D33959  11.816  15.098   9.004 -0.2303 -0.1478 -0.2709
 1415BOLB   C4D33960  11.969  15.288   9.476 -0.3328 -0.0185  0.0838
 1416BOLB   NC133961  16.224  11.609  11.845  0.2546 -0.0591  0.1814
 1416BOLB   PO133962  15.825  11.847  11.867  0.0610  0.4761 -0.3774
 1416BOLB   GL133963  15.891  11.845  11.432  0.1808 -0.1429  0.0834
 1416BOLB   GL233964  16.206  11.689  11.333  0.2813  0.2232  0.3371
 1416BOLB   C1A33965  16.057  12.034  10.960 -0.1330 -0.1371  0.2356
 1416BOLB   C2A33966  16.020  11.939  10.493 -0.0055  0.2451 -0.4835
 1416BOLB   C3A33967  15.760  11.877  10.089 -0.4517 -0.1560  0.0757
 1416BOLB   C4A33968  15.834  12.011   9.752 -0.0194  0.0067 -0.1593
 1416BOLB   C1B33969  16.141  11.545  10.906 -0.3058  0.3548  0.4179
 1416BOLB   C2B33970  16.229  11.371  10.454 -0.0051  0.1749 -0.5179
 1416BOLB   C3B33971  16.122  11.131  10.074  0.0983 -0.0740 -0.1907
 1416BOLB   C4B33972  16.293  10.804   9.890 -0.0897 -0.0093 -0.0355
 1416BOLB   NC233973  16.110  10.774   7.324 -0.0530 -0.1548  0.0285
 1416BOLB   PO233974  16.149  10.918   7.757  0.1859 -0.3056 -0.0043
 1416BOLB   GL333975  16.351  10.948   8.103  0.2071  0.0459  0.0298
 1416BOLB   GL433976  16.682  11.160   8.148 -0.1314 -0.0590 -0.1093
 1416BOLB   C1C33977  16.279  11.068   8.549 -0.2453  0.2122  0.0884
 1416BOLB   C2C33978  16.241  11.359   8.820  0.4119 -0.2499 -0.0574
 1416BOLB   C3C33979  16.210  11.626   9.131 -0.2259 -0.1609  0.1932
 1416BOLB   C4C33980  16.013  11.823   9.437  0.1886  0.0429 -0.0165
 1416BOLB   C1D33981  16.508  11.464   8.346 -0.4398  0.0537  0.1947
 1416BOLB   C2D33982  16.552  11.723   8.677  0.0561 -0.0229  0.0658
 1416BOLB   C3D33983  16.487  12.066   8.961 -0.2469  0.2942  0.0959
 1416BOLB   C4D33984  16.587  12.139   9.330  0.0417 -0.2148  0.5784
 1417BOLB   NC133985  18.079  10.094  12.724  0.0639 -0.2455  0.1841
 1417BOLB   PO133986  17.919   9.851  12.986  0.2841 -0.1853 -0.0219
 1417BOLB   GL133987  18.052   9.410  12.725 -0.2779  0.1369 -0.1227
 1417BOLB   GL233988  17.940   9.605  12.506 -0.0281  0.1270 -0.1278
 1417BOLB   C1A33989  18.286   9.204  12.447  0.1530  0.2561 -0.0735
 1417BOLB   C2A33990  18.656   9.212  12.212  0.1076  0.1830 -0.1935
 1417BOLB   C3A33991  18.963   9.012  11.925 -0.0960  0.2267 -0.1215
 1417BOLB   C4A33992  18.998   8.575  11.702 -0.1851  0.0385  0.2255
 1417BOLB   C1B33993  17.940   9.549  12.109  0.0066  0.0505 -0.4582
 1417BOLB   C2B33994  18.239   9.542  11.837  0.0288  0.1141 -0.0161
 1417BOLB   C3B33995  18.355   9.247  11.535  0.2838 -0.4997  0.1222
 1417BOLB   C4B33996  18.499   9.130  11.065 -0.0166  0.3452 -0.2894
 1417BOLB   NC233997  19.841   8.204   9.559 -0.0805  0.2737  0.2064
 1417BOLB   PO233998  19.438   8.012   9.535  0.4845 -0.4738 -0.1562
 1417BOLB   GL333999  19.522   8.135   9.983 -0.0868  0.1568  0.1563
 1417BOLB   GL434000  19.095   8.175   9.920 -0.1945 -0.0889  0.0649
 1417BOLB   C1C34001  19.512   8.242  10.368 -0.1690 -0.0401 -0.1132
 1417BOLB   C2C34002  19.401   8.114  10.702 -0.1874  0.0023 -0.0384
 1417BOLB   C3C34003  19.352   8.013  11.208  0.3483  0.2562 -0.1275
 1417BOLB   C4C34004  19.318   8.309  11.552  0.2822 -0.0688 -0.1024
 1417BOLB   C1D34005  19.221   8.523   9.995  0.1604  0.1342  0.2993
 1417BOLB   C2D34006  19.531   8.707   9.995 -0.1624  0.0968 -0.0664
 1417BOLB   C3D34007  19.897   8.895   9.960 -0.0812 -0.0547  0.2857
 1417BOLB   C4D34008  20.219   9.197   9.996 -0.4057 -0.0476  0.0929
 1418BOLB   NC134009  13.476   8.463  12.819 -0.1399  0.1588 -0.1963
 1418BOLB   PO134010  13.403   8.226  12.396 -0.2564  0.0920  0.0501
 1418BOLB   GL134011  13.351   8.116  11.972  0.0299 -0.2991  0.2259
 1418BOLB   GL234012  13.486   8.387  11.970  0.2242 -0.0293  0.2548
 1418BOLB   C1A34013  13.157   8.136  11.547  0.1909  0.0296 -0.2602
 1418BOLB   C2A34014  13.273   8.134  11.180 -0.1072  0.4987  0.1374
 1418BOLB   C3A34015  13.453   8.066  10.826  0.3396  0.0257 -0.1336
 1418BOLB   C4A34016  13.583   8.090  10.469  0.1766  0.4665  0.0115
 1418BOLB   C1B34017  13.830   8.218  11.767 -0.0470 -0.0999 -0.1843
 1418BOLB   C2B34018  14.212   8.245  11.799 -0.2109  0.0936 -0.0876
 1418BOLB   C3B34019  14.573   7.934  11.853  0.0198  0.1695 -0.0216
 1418BOLB   C4B34020  14.688   7.818  11.556 -0.1373  0.0733  0.1779
 1418BOLB   NC234021  14.428   8.081   7.923  0.0605 -0.1257 -0.1502
 1418BOLB   PO234022  14.023   8.003   8.121 -0.4123  0.2675  0.5064
 1418BOLB   GL334023  14.057   8.048   8.534 -0.5119 -0.0987  0.0460
 1418BOLB   GL434024  13.720   8.029   8.648 -0.2532  0.0666 -0.0677
 1418BOLB   C1C34025  14.208   8.127   9.022  0.0267  0.0673  0.1006
 1418BOLB   C2C34026  14.068   8.168   9.456 -0.0874 -0.0513 -0.0144
 1418BOLB   C3C34027  14.071   8.136   9.808 -0.2558 -0.1448  0.0873
 1418BOLB   C4C34028  13.986   8.010  10.214 -0.1091 -0.0245 -0.0570
 1418BOLB   C1D34029  13.449   8.387   8.860  0.1167 -0.2527 -0.0404
 1418BOLB   C2D34030  13.294   8.714   9.098 -0.1986  0.0031  0.0561
 1418BOLB   C3D34031  12.997   8.827   9.470  0.0520  0.1620 -0.0661
 1418BOLB   C4D34032  12.632   8.722   9.737  0.2015  0.1419 -0.0971
 1419BOLB   NC134033  21.636  14.632  13.572 -0.1305 -0.1579 -0.2960
 1419BOLB   PO134034  21.652  14.483  13.064 -0.2677 -0.0792  0.0102
 1419BOLB   GL134035  21.650  14.286  12.628  0.2765  0.1573  0.1382
 1419BOLB   GL234036  21.444  14.366  12.325  0.1646  0.0538 -0.3329
 1419BOLB   C1A34037  21.850  13.952  12.417 -0.0097  0.4097 -0.3184
 1419BOLB   C2A34038  22.202  13.795  12.250 -0.0963 -0.0475  0.0858
 1419BOLB   C3A34039  22.519  13.854  11.912 -0.1586  0.2448  0.0899
 1419BOLB   C4A34040  22.884  13.852  11.599  0.0070 -0.0054 -0.0707
 1419BOLB   C1B34041  21.793  14.326  12.053  0.1059  0.0600 -0.2650
 1419BOLB   C2B34042  22.148  14.178  11.863  0.1934 -0.1252  0.2174
 1419BOLB   C3B34043  22.311  13.984  11.508  0.1592 -0.1351  0.1308
 1419BOLB   C4B34044  22.243  13.853  11.082 -0.3231  0.1043 -0.0119
 1419BOLB   NC234045  23.918  14.894   9.273 -0.0527  0.2919  0.0355
 1419BOLB   PO234046  24.290  14.639   9.478  0.0710  0.3799 -0.0917
 1419BOLB   GL334047  23.990  14.566   9.864 -0.0441 -0.0938 -0.1847
 1419BOLB   GL434048  24.000  14.506  10.205  0.0412  0.0435  0.2785
 1419BOLB   C1C34049  23.522  14.327  10.003 -0.0344  0.0132 -0.1072
 1419BOLB   C2C34050  23.330  14.229  10.543  0.1158  0.2761  0.0927
 1419BOLB   C3C34051  23.086  13.945  10.825  0.0216 -0.2559  0.0740
 1419BOLB   C4C34052  22.946  13.777  11.200  0.0508  0.0259  0.2769
 1419BOLB   C1D34053  23.838  14.452  10.628  0.1263 -0.1878  0.3647
 1419BOLB   C2D34054  23.712  14.229  11.013  0.2858 -0.0508  0.0565
 1419BOLB   C3D34055  23.694  14.277  11.454  0.1446  0.0560  0.1923
 1419BOLB   C4D34056  23.665  14.159  11.872  0.0888 -0.1520  0.1747
 1420BOLB   NC134057  10.905  16.218  12.029  0.2527  0.1242  0.2576
 1420BOLB   PO134058  10.632  16.027  11.764 -0.1518  0.1391 -0.0288
 1420BOLB   GL134059  10.596  16.126  11.424  0.1688 -0.1077  0.0867
 1420BOLB   GL234060  10.873  16.027  11.345 -0.0415 -0.2441  0.1182
 1420BOLB   C1A34061  10.395  16.050  11.003  0.0147 -0.2790  0.1407
 1420BOLB   C2A34062  10.240  16.152  10.575  0.1019 -0.4256  0.1292
 1420BOLB   C3A34063  10.111  16.272  10.183 -0.0708  0.0294  0.2462
 1420BOLB   C4A34064   9.752  16.221   9.798  0.1778 -0.3781  0.0904
 1420BOLB   C1B34065  10.884  16.069  10.916  0.3020 -0.2882  0.2128
 1420BOLB   C2B34066  10.729  16.143  10.502  0.2117  0.5871 -0.0250
 1420BOLB   C3B34067  10.577  16.050  10.155  0.3150 -0.2505 -0.0658
 1420BOLB   C4B34068  10.438  16.090   9.669 -0.0557  0.1880  0.1036
 1420BOLB   NC234069   7.907  15.821   8.174 -0.1667 -0.0782 -0.2190
 1420BOLB   PO234070   8.333  16.057   8.071 -0.2029 -0.1102  0.0504
 1420BOLB   GL334071   8.270  15.954   8.502  0.0139  0.2435 -0.2670
 1420BOLB   GL434072   8.462  15.582   8.442  0.0449 -0.0505  0.1907
 1420BOLB   C1C34073   8.450  15.897   8.888  0.0850  0.2937  0.0178
 1420BOLB   C2C34074   8.822  16.011   9.251  0.3014 -0.0832 -0.1473
 1420BOLB   C3C34075   9.080  16.075   9.567 -0.0568  0.0768 -0.1453
 1420BOLB   C4C34076   9.481  16.111   9.588  0.1812  0.1530  0.1536
 1420BOLB   C1D34077   8.803  15.763   8.565 -0.1588 -0.2280 -0.1431
 1420BOLB   C2D34078   8.936  15.597   8.994 -0.1627 -0.0650 -0.0598
 1420BOLB   C3D34079   9.137  15.511   9.427  0.1301 -0.0724 -0.2599
 1420BOLB   C4D34080   9.106  15.651   9.828 -0.1259  0.0686  0.2700
 1421BOLB   NC134081  23.488  11.795  14.835  0.2307  0.0998  0.0245
 1421BOLB   PO134082  23.421  12.169  14.596  0.0220 -0.1405 -0.1196
 1421BOLB   GL134083  23.525  11.882  14.290  0.1216  0.0885  0.4151
 1421BOLB   GL234084  23.384  12.035  14.024  0.0059  0.1733 -0.0072
 1421BOLB   C1A34085  23.763  11.534  14.019  0.4887 -0.0221 -0.2349
 1421BOLB   C2A34086  23.877  11.654  13.572 -0.1490 -0.2590 -0.1440
 1421BOLB   C3A34087  24.099  11.778  13.152  0.0065  0.0984 -0.1016
 1421BOLB   C4A34088  24.199  11.764  12.775 -0.1023  0.1756  0.0528
 1421BOLB   C1B34089  23.697  12.085  13.625 -0.0615  0.0672  0.0147
 1421BOLB   C2B34090  23.864  12.234  13.324  0.0294 -0.0588 -0.2957
 1421BOLB   C3B34091  24.296  12.289  13.137 -0.1541 -0.1138  0.0169
 1421BOLB   C4B34092  24.319  12.701  12.965 -0.4428  0.1317 -0.0365
 1421BOLB   NC234093  25.231  10.669  10.643 -0.1611 -0.3032  0.0106
 1421BOLB   PO234094  25.511  10.939  10.874  0.1635  0.1554  0.0418
 1421BOLB   GL334095  25.283  10.982  11.231 -0.0771 -0.2864  0.1354
 1421BOLB   GL434096  25.346  11.277  11.463 -0.1698 -0.0894 -0.2675
 1421BOLB   C1C34097  24.895  11.036  11.462 -0.1145  0.0604  0.3435
 1421BOLB   C2C34098  24.600  11.087  11.737  0.0279  0.0178 -0.1449
 1421BOLB   C3C34099  24.285  11.299  12.028  0.1633  0.2726 -0.2270
 1421BOLB   C4C34100  24.155  11.543  12.394 -0.0592  0.3489  0.1389
 1421BOLB   C1D34101  25.022  11.524  11.660 -0.0821 -0.1131  0.0494
 1421BOLB   C2D34102  24.980  11.723  12.075 -0.0165 -0.1328 -0.0106
 1421BOLB   C3D34103  25.130  11.747  12.498 -0.4109 -0.1076 -0.1101
 1421BOLB   C4D34104  25.266  11.693  12.932 -0.0954 -0.0365 -0.0912
 1422BOLB   NC134105  19.406  19.553  11.888 -0.3812  0.2124  0.0049
 1422BOLB   PO134106  19.281  19.931  11.777  0.2029 -0.2228  0.0803
 1422BOLB   GL134107  19.563  20.146  11.479 -0.2524  0.0153 -0.2672
 1422BOLB   GL234108  19.463  20.147  11.129 -0.1166  0.0201  0.0111
 1422BOLB   C1A34109  19.785  20.497  11.227  0.1343 -0.2075  0.1564
 1422BOLB   C2A34110  20.021  20.530  10.994 -0.0810  0.0404 -0.1670
 1422BOLB   C3A34111  20.352  20.247  10.794 -0.2806  0.3766  0.1370
 1422BOLB   C4A34112  20.552  20.366  10.323  0.0463  0.0216 -0.0429
 1422BOLB   C1B34113  19.214  20.151  10.639  0.2325  0.1086  0.1322
 1422BOLB   C2B34114  18.967  20.475  10.375  0.2083  0.0124 -0.0205
 1422BOLB   C3B34115  18.607  20.597  10.199 -0.4457  0.2164  0.0971
 1422BOLB   C4B34116  18.238  20.384  10.009 -0.2198  0.2136  0.0154
 1422BOLB   NC234117  22.292  21.281   8.821  0.1572 -0.4861  0.0883
 1422BOLB   PO234118  22.486  20.984   9.128 -0.4555  0.1086  0.3957
 1422BOLB   GL334119  22.095  20.944   9.254 -0.2402  0.0507  0.4458
 1422BOLB   GL434120  21.797  20.720   9.262 -0.0123  0.3405  0.1879
 1422BOLB   C1C34121  21.849  21.092   9.595 -0.1925  0.1157  0.0166
 1422BOLB   C2C34122  21.399  21.091   9.741 -0.0281  0.2176 -0.2926
 1422BOLB   C3C34123  21.110  20.877   9.957  0.1949 -0.3083  0.1094
 1422BOLB   C4C34124  20.806  20.628  10.066 -0.1779 -0.1048 -0.0095
 1422BOLB   C1D34125  21.514  20.598   9.498  0.3033  0.2189 -0.2615
 1422BOLB   C2D34126  21.430  20.492   9.927 -0.0354 -0.2114  0.0056
 1422BOLB   C3D34127  21.627  20.066  10.049 -0.0395 -0.0888 -0.0016
 1422BOLB   C4D34128  21.616  19.739  10.332 -0.0465 -0.1055 -0.1359
 1423BOLB   NC134129  22.455  11.224  14.726  0.2903  0.2857  0.4353
 1423BOLB   PO134130  22.773  10.827  14.730 -0.4073 -0.2174 -0.1488
 1423BOLB   GL134131  22.952  10.658  14.375  0.1487 -0.1928  0.3562
 1423BOLB   GL234132  23.033  10.406  14.538 -0.1801  0.2335 -0.0024
 1423BOLB   C1A34133  23.049  10.426  14.044 -0.1896 -0.0958 -0.0613
 1423BOLB   C2A34134  23.187  10.310  13.684 -0.4024  0.1550  0.0500
 1423BOLB   C3A34135  23.091  10.240  13.210  0.5274  0.1091  0.3601
 1423BOLB   C4A34136  23.202  10.258  12.748 -0.2353  0.2656 -0.3092
 1423BOLB   C1B34137  23.356  10.169  14.415 -0.1587 -0.1429  0.0427
 1423BOLB   C2B34138  23.344   9.853  14.066 -0.2019 -0.0503 -0.3164
 1423BOLB   C3B34139  22.963   9.529  13.869 -0.0855 -0.0905 -0.3121
 1423BOLB   C4B34140  22.763   9.279  13.610 -0.1037 -0.2805 -0.0246
 1423BOLB   NC234141  24.237  10.233  10.400 -0.0453  0.5435 -0.0303
 1423BOLB   PO234142  24.724  10.660  10.386  0.1204 -0.0583  0.1781
 1423BOLB   GL334143  24.350  10.584  10.724  0.1487  0.3047 -0.1831
 1423BOLB   GL434144  24.474  10.297  11.054  0.3200 -0.2151 -0.2755
 1423BOLB   C1C34145  24.085  10.583  11.158 -0.2306  0.0445 -0.2314
 1423BOLB   C2C34146  23.776  10.417  11.585 -0.4611 -0.1789 -0.2629
 1423BOLB   C3C34147  23.484  10.367  11.891  0.1684 -0.1853 -0.2606
 1423BOLB   C4C34148  23.290  10.290  12.330  0.0129  0.2462 -0.0100
 1423BOLB   C1D34149  24.219  10.229  11.428 -0.0694  0.0530  0.1386
 1423BOLB   C2D34150  24.065  10.217  11.947  0.1873 -0.1283 -0.2296
 1423BOLB   C3D34151  23.792  10.219  12.344 -0.0286 -0.4303 -0.2867
 1423BOLB   C4D34152  23.616  10.527  12.613 -0.2703 -0.0142  0.0391
 1424BOLB   NC134153  19.539  15.725  11.824 -0.1864  0.1153 -0.1454
 1424BOLB   PO134154  20.028  15.745  11.777  0.1969  0.0842 -0.1668
 1424BOLB   GL134155  20.098  15.887  11.462 -0.0174 -0.0371 -0.0958
 1424BOLB   GL234156  20.442  15.998  11.444  0.1442  0.0793 -0.0976
 1424BOLB   C1A34157  20.136  15.901  11.009  0.0050  0.0261  0.1257
 1424BOLB   C2A34158  20.034  15.952  10.591 -0.0591 -0.0734  0.1108
 1424BOLB   C3A34159  20.179  16.063  10.238 -0.0835 -0.1873 -0.1196
 1424BOLB   C4A34160  20.260  16.327   9.803  0.1764 -0.0927  0.0438
 1424BOLB   C1B34161  20.608  15.980  10.953 -0.0907  0.0396 -0.5840
 1424BOLB   C2B34162  20.580  16.040  10.555  0.2990 -0.1845 -0.0777
 1424BOLB   C3B34163  20.681  16.032  10.094 -0.1307  0.0620  0.0847
 1424BOLB   C4B34164  20.528  15.972   9.581 -0.2838  0.2958 -0.3591
 1424BOLB   NC234165  21.583  17.312   8.128  0.0738  0.2328 -0.2883
 1424BOLB   PO234166  21.959  17.309   8.217  0.0723  0.0844 -0.0930
 1424BOLB   GL334167  21.779  17.305   8.642  0.2893 -0.1847  0.1321
 1424BOLB   GL434168  21.479  17.386   8.644 -0.2396 -0.3143 -0.2095
 1424BOLB   C1C34169  21.510  17.101   9.054 -0.1417  0.3245  0.2382
 1424BOLB   C2C34170  21.277  16.847   9.313  0.0066  0.3251 -0.1504
 1424BOLB   C3C34171  20.885  16.524   9.320  0.0140  0.2009 -0.0546
 1424BOLB   C4C34172  20.528  16.447   9.403  0.0483  0.1981 -0.0556
 1424BOLB   C1D34173  21.034  17.464   8.806  0.0588  0.1464  0.2040
 1424BOLB   C2D34174  21.037  17.503   9.292 -0.0047  0.2015 -0.1468
 1424BOLB   C3D34175  20.883  17.190   9.574 -0.1739  0.0903 -0.0378
 1424BOLB   C4D34176  21.096  16.915   9.809 -0.4781  0.4644 -0.2673
 1425BOLB   NC134177  19.395  21.115  11.938  0.1563  0.1084 -0.3245
 1425BOLB   PO134178  19.263  20.756  11.973  0.0668 -0.1056  0.0757
 1425BOLB   GL134179  19.617  20.774  11.659 -0.0533  0.0428 -0.0092
 1425BOLB   GL234180  19.315  20.893  11.433 -0.0681  0.3069  0.0318
 1425BOLB   C1A34181  19.897  20.986  11.384  0.0125 -0.0070  0.3642
 1425BOLB   C2A34182  20.103  21.099  11.075 -0.1299 -0.0065 -0.2497
 1425BOLB   C3A34183  20.413  21.253  10.704 -0.0114 -0.1004 -0.1092
 1425BOLB   C4A34184  20.727  21.400  10.524  0.2036 -0.0550 -0.1460
 1425BOLB   C1B34185  19.544  20.864  11.030 -0.2078  0.0482  0.0222
 1425BOLB   C2B34186  19.827  20.891  10.678 -0.0852 -0.1457  0.0760
 1425BOLB   C3B34187  19.989  20.753  10.342 -0.0431  0.0479 -0.0415
 1425BOLB   C4B34188  20.203  20.725  10.067 -0.1260 -0.3479 -0.0672
 1425BOLB   NC234189  20.784  23.138   8.927  0.0835  0.1335  0.2482
 1425BOLB   PO234190  20.316  23.135   8.909 -0.3587  0.1603  0.0420
 1425BOLB   GL334191  20.482  22.960   9.264 -0.0240 -0.3032  0.0533
 1425BOLB   GL434192  20.459  23.210   9.431  0.2552  0.3734  0.2126
 1425BOLB   C1C34193  20.517  22.577   9.561 -0.0854 -0.1153 -0.3538
 1425BOLB   C2C34194  20.467  22.137   9.682 -0.3745  0.2874 -0.0249
 1425BOLB   C3C34195  20.696  21.832   9.840 -0.1907 -0.4158  0.0594
 1425BOLB   C4C34196  20.903  21.701  10.179  0.2227  0.0087  0.2488
 1425BOLB   C1D34197  20.480  23.349   9.790  0.1221  0.0013  0.1988
 1425BOLB   C2D34198  20.682  23.261  10.210  0.1497  0.0994 -0.1179
 1425BOLB   C3D34199  21.079  23.379  10.335 -0.0880 -0.4972 -0.0867
 1425BOLB   C4D34200  21.292  23.689  10.605 -0.0131  0.3523  0.5416
 1426BOLB   NC134201  17.276  16.768  11.560  0.0182  0.1039 -0.1874
 1426BOLB   PO134202  17.236  16.390  11.484 -0.0758  0.3715 -0.0676
 1426BOLB   GL134203  17.424  16.228  11.060 -0.2234  0.2756  0.1355
 1426BOLB   GL234204  17.535  16.455  10.885  0.2734  0.1370 -0.2297
 1426BOLB   C1A34205  17.384  15.919  10.772 -0.1989  0.3704  0.0866
 1426BOLB   C2A34206  17.234  15.692  10.373 -0.2682  0.0282  0.1151
 1426BOLB   C3A34207  17.271  15.509  10.072 -0.0669 -0.2310 -0.1058
 1426BOLB   C4A34208  17.332  15.184   9.756  0.2507  0.3593 -0.1902
 1426BOLB   C1B34209  17.456  16.339  10.548  0.1174 -0.1362 -0.1759
 1426BOLB   C2B34210  17.507  16.016  10.193  0.1066  0.4644 -0.0613
 1426BOLB   C3B34211  17.785  15.953   9.896 -0.2956 -0.1126  0.0526
 1426BOLB   C4B34212  17.554  15.636   9.606  0.3034  0.0299 -0.2521
 1426BOLB   NC234213  17.071  14.123   7.071  0.0867  0.0732 -0.0343
 1426BOLB   PO234214  16.890  14.408   7.159  0.1670 -0.0850 -0.2657
 1426BOLB   GL334215  16.842  14.334   7.631  0.0807 -0.1833 -0.2344
 1426BOLB   GL434216  16.566  14.306   7.645 -0.3014  0.0445  0.1544
 1426BOLB   C1C34217  17.040  14.489   7.979  0.0880  0.2450  0.2977
 1426BOLB   C2C34218  17.288  14.641   8.317 -0.3398 -0.2675  0.1708
 1426BOLB   C3C34219  17.401  14.932   8.738  0.0414  0.0983 -0.0476
 1426BOLB   C4C34220  17.340  14.888   9.274 -0.2453  0.0119  0.1990
 1426BOLB   C1D34221  16.541  14.395   8.130  0.1759 -0.1395  0.1679
 1426BOLB   C2D34222  16.832  14.452   8.506  0.0412  0.0003 -0.0365
 1426BOLB   C3D34223  17.193  14.225   8.803  0.0093  0.2228  0.1266
 1426BOLB   C4D34224  17.638  14.446   9.002 -0.2729 -0.1591 -0.0630
 1427BOLB   NC134225  17.202  13.041  11.496  0.3398  0.0187 -0.2108
 1427BOLB   PO134226  17.551  13.209  11.609  0.2554  0.0692 -0.0378
 1427BOLB   GL134227  17.794  12.978  11.179  0.1589 -0.2264  0.0173
 1427BOLB   GL234228  17.540  13.073  11.081 -0.2569  0.0889  0.2311
 1427BOLB   C1A34229  17.874  12.814  10.677  0.1298 -0.0047 -0.0483
 1427BOLB   C2A34230  18.073  12.833  10.225 -0.2279 -0.1803  0.2013
 1427BOLB   C3A34231  18.104  12.971   9.767  0.2103 -0.1630  0.0928
 1427BOLB   C4A34232  18.420  12.950   9.494  0.1461  0.0953 -0.1215
 1427BOLB   C1B34233  17.881  13.289  10.765 -0.0181 -0.1055  0.1371
 1427BOLB   C2B34234  17.974  13.414  10.366  0.0736 -0.1804  0.0830
 1427BOLB   C3B34235  18.203  13.529   9.979 -0.2253  0.0891  0.1060
 1427BOLB   C4B34236  18.471  13.841   9.789 -0.0375 -0.2479 -0.0958
 1427BOLB   NC234237  17.485  11.813   8.018  0.1502  0.3011 -0.1723
 1427BOLB   PO234238  17.616  12.200   7.850  0.1443 -0.1796  0.0499
 1427BOLB   GL334239  17.732  12.573   8.039  0.2372 -0.3919  0.0832
 1427BOLB   GL434240  17.518  12.629   8.281 -0.2186 -0.3148  0.1319
 1427BOLB   C1C34241  17.969  12.886   8.240  0.1195 -0.2368 -0.1061
 1427BOLB   C2C34242  18.208  13.131   8.548  0.0527 -0.3059 -0.1226
 1427BOLB   C3C34243  18.543  13.252   8.780 -0.2380 -0.1195 -0.4555
 1427BOLB   C4C34244  18.695  13.034   9.172  0.0471  0.3509 -0.0042
 1427BOLB   C1D34245  17.366  12.533   8.634 -0.0072 -0.0820 -0.0440
 1427BOLB   C2D34246  17.508  12.707   9.141 -0.2943  0.1600 -0.3920
 1427BOLB   C3D34247  17.340  13.053   9.428  0.3541  0.3899 -0.3764
 1427BOLB   C4D34248  17.192  13.453   9.457 -0.2388 -0.1778 -0.1234
 1428BOLB   NC134249  17.801  13.521  11.937 -0.0071 -0.3029  0.1023
 1428BOLB   PO134250  18.067  13.215  11.784  0.2101 -0.1521  0.0672
 1428BOLB   GL134251  18.260  13.012  11.453 -0.1288 -0.1774  0.0936
 1428BOLB   GL234252  18.654  12.973  11.369  0.2707 -0.1918 -0.1688
 1428BOLB   C1A34253  18.223  13.052  10.991  0.0548 -0.1517  0.2641
 1428BOLB   C2A34254  18.398  13.058  10.543 -0.2399 -0.0497  0.4408
 1428BOLB   C3A34255  18.564  13.061  10.059  0.0885 -0.0661 -0.3970
 1428BOLB   C4A34256  18.772  12.751   9.845  0.0836  0.2354 -0.1152
 1428BOLB   C1B34257  18.694  12.760  10.922  0.0176  0.3407 -0.0743
 1428BOLB   C2B34258  18.840  12.504  10.644 -0.1631  0.1866 -0.2668
 1428BOLB   C3B34259  19.062  12.104  10.418  0.0294 -0.1059 -0.1256
 1428BOLB   C4B34260  19.278  11.933  10.053  0.1123  0.0176 -0.1991
 1428BOLB   NC234261  19.688  13.035   7.644  0.0068 -0.5233  0.1411
 1428BOLB   PO234262  19.318  12.780   7.619  0.0733  0.0050  0.1281
 1428BOLB   GL334263  19.129  12.768   7.993 -0.2940  0.3621 -0.0668
 1428BOLB   GL434264  18.949  12.538   7.993  0.1427 -0.0955  0.0288
 1428BOLB   C1C34265  19.016  13.036   8.272  0.1387 -0.2489 -0.5610
 1428BOLB   C2C34266  18.870  12.888   8.698 -0.2680 -0.1382  0.2914
 1428BOLB   C3C34267  18.978  12.651   8.980 -0.0657  0.0111 -0.0754
 1428BOLB   C4C34268  18.881  12.554   9.460  0.2256 -0.0025  0.0822
 1428BOLB   C1D34269  18.969  12.469   8.422 -0.0967 -0.0333  0.1430
 1428BOLB   C2D34270  18.737  12.311   8.726  0.1434  0.1112 -0.0202
 1428BOLB   C3D34271  18.778  12.169   9.134  0.2353  0.2391  0.0179
 1428BOLB   C4D34272  18.942  11.891   9.527  0.1086  0.1167  0.2633
 1429BOLB   NC134273  12.128  13.354  11.601 -0.0234 -0.1563 -0.1795
 1429BOLB   PO134274  12.082  12.926  11.819 -0.2373 -0.0255 -0.0155
 1429BOLB   GL134275  12.172  12.892  11.358  0.1848  0.1071  0.1419
 1429BOLB   GL234276  12.448  12.936  11.129 -0.1380 -0.1231  0.1219
 1429BOLB   C1A34277  11.965  12.995  10.975  0.0474  0.1464  0.1198
 1429BOLB   C2A34278  11.571  13.094  10.678  0.2266  0.2282 -0.3496
 1429BOLB   C3A34279  11.299  13.075  10.452  0.1726  0.0585 -0.0592
 1429BOLB   C4A34280  11.108  13.101  10.077 -0.0652 -0.0409  0.3083
 1429BOLB   C1B34281  12.457  12.926  10.685  0.1269 -0.0141  0.1410
 1429BOLB   C2B34282  12.687  12.804  10.292  0.1473 -0.0400  0.2474
 1429BOLB   C3B34283  12.855  12.395  10.085 -0.1939 -0.1649 -0.1091
 1429BOLB   C4B34284  12.981  12.231   9.802 -0.2356  0.0275  0.0449
 1429BOLB   NC234285  11.964  13.012   7.429 -0.1984 -0.0599  0.1060
 1429BOLB   PO234286  11.552  13.078   7.597  0.0694  0.1824 -0.0531
 1429BOLB   GL334287  11.397  13.336   7.934  0.0951  0.1319  0.0299
 1429BOLB   GL434288  11.058  13.565   7.949 -0.2455 -0.1493  0.1381
 1429BOLB   C1C34289  11.349  13.397   8.319 -0.1144  0.1474 -0.0299
 1429BOLB   C2C34290  11.362  13.405   8.719 -0.1242 -0.0500 -0.1568
 1429BOLB   C3C34291  11.408  13.130   9.208  0.0985 -0.0876  0.0980
 1429BOLB   C4C34292  11.198  13.202   9.604 -0.1255 -0.4132  0.0052
 1429BOLB   C1D34293  11.049  13.870   8.323  0.1424 -0.0931  0.1834
 1429BOLB   C2D34294  11.377  13.850   8.577 -0.1151 -0.1565  0.2093
 1429BOLB   C3D34295  11.456  13.859   8.985  0.2358  0.0928 -0.1490
 1429BOLB   C4D34296  11.351  13.642   9.238 -0.0650  0.1821 -0.2534
 1430BOLB   NC134297  15.068  13.827  11.775 -0.2377 -0.2436  0.0358
 1430BOLB   PO134298  15.309  13.543  11.605 -0.1299 -0.1830  0.3722
 1430BOLB   GL134299  15.052  13.465  11.264  0.0940  0.0480 -0.2471
 1430BOLB   GL234300  14.796  13.327  11.198 -0.2810 -0.0160  0.2814
 1430BOLB   C1A34301  14.927  13.814  10.910  0.1397 -0.2237  0.2728
 1430BOLB   C2A34302  15.105  13.999  10.448 -0.2130 -0.2775  0.1058
 1430BOLB   C3A34303  15.073  13.925  10.065 -0.1738 -0.1686  0.1183
 1430BOLB   C4A34304  14.838  14.084   9.711  0.0304  0.3934 -0.0646
 1430BOLB   C1B34305  14.588  13.513  10.806 -0.4652  0.3089  0.1348
 1430BOLB   C2B34306  14.843  13.501  10.428 -0.2968  0.2043  0.2812
 1430BOLB   C3B34307  14.875  13.358  10.128 -0.2292  0.1476  0.0159
 1430BOLB   C4B34308  14.948  13.449   9.740 -0.2855  0.1508 -0.3959
 1430BOLB   NC234309  15.249  13.827   7.199  0.4492 -0.3413  0.0248
 1430BOLB   PO234310  15.003  13.433   7.352 -0.3172  0.0225  0.2245
 1430BOLB   GL334311  14.984  13.724   7.653  0.0138  0.0785  0.1930
 1430BOLB   GL434312  14.729  13.850   7.560  0.0313  0.1803  0.0349
 1430BOLB   C1C34313  14.797  13.700   8.093 -0.0847 -0.3612 -0.1466
 1430BOLB   C2C34314  14.714  13.817   8.510  0.2979 -0.0994  0.1459
 1430BOLB   C3C34315  14.788  13.982   8.950 -0.3441  0.1221  0.0819
 1430BOLB   C4C34316  14.675  14.176   9.354 -0.1662 -0.0142  0.0509
 1430BOLB   C1D34317  14.465  14.004   7.845 -0.0991  0.0297  0.2156
 1430BOLB   C2D34318  14.512  14.238   8.253  0.0892 -0.0051  0.2332
 1430BOLB   C3D34319  14.671  14.356   8.629  0.0292 -0.0290 -0.1426
 1430BOLB   C4D34320  14.919  14.484   8.958 -0.0161 -0.0444  0.0713
 1431BOLB   NC134321  10.113  19.764  12.085 -0.0101 -0.4033 -0.0229
 1431BOLB   PO134322  10.338  19.515  11.880  0.1775  0.4275  0.0831
 1431BOLB   GL134323  10.367  19.637  11.490 -0.0959  0.0761  0.0962
 1431BOLB   GL234324  10.317  19.433  11.183  0.0590  0.1959 -0.1833
 1431BOLB   C1A34325  10.695  19.755  11.226  0.1911  0.3610  0.1530
 1431BOLB   C2A34326  10.504  19.913  10.777 -0.1040  0.0925 -0.0035
 1431BOLB   C3A34327  10.468  19.863  10.329  0.4826  0.1107  0.0883
 1431BOLB   C4A34328  10.392  19.616   9.972  0.3785 -0.1979 -0.3500
 1431BOLB   C1B34329  10.140  19.153  10.809 -0.0645 -0.0871 -0.1764
 1431BOLB   C2B34330   9.922  18.871  10.494 -0.0670 -0.1288 -0.1311
 1431BOLB   C3B34331   9.864  18.605  10.196  0.2618 -0.0989  0.1474
 1431BOLB   C4B34332   9.810  18.507   9.801 -0.1511  0.0715 -0.0023
 1431BOLB   NC234333  10.261  19.840   7.722 -0.1284 -0.0361 -0.1144
 1431BOLB   PO234334   9.779  19.743   7.681  0.0537  0.3445  0.0977
 1431BOLB   GL334335   9.886  19.638   8.056  0.1103 -0.1922 -0.1114
 1431BOLB   GL434336  10.259  19.535   8.069  0.1443 -0.0114  0.2143
 1431BOLB   C1C34337   9.816  19.938   8.326 -0.0264  0.0526 -0.2795
 1431BOLB   C2C34338   9.986  19.764   8.718  0.1115 -0.0566 -0.0696
 1431BOLB   C3C34339  10.065  19.753   9.121 -0.1364  0.1353 -0.4683
 1431BOLB   C4C34340  10.172  19.646   9.570  0.1277 -0.3260  0.2202
 1431BOLB   C1D34341  10.138  19.416   8.415  0.2303  0.0373 -0.1263
 1431BOLB   C2D34342  10.257  19.305   8.853 -0.4878  0.0222  0.0536
 1431BOLB   C3D34343  10.326  19.306   9.225 -0.0257  0.1004  0.0604
 1431BOLB   C4D34344  10.486  19.246   9.651  0.0224 -0.1979  0.1238
 1432BOLB   NC134345  20.685   9.813  14.463  0.0164 -0.0372  0.2732
 1432BOLB   PO134346  20.669   9.502  14.772 -0.3485 -0.1293  0.1228
 1432BOLB   GL134347  20.730   9.257  14.498  0.2176 -0.0603 -0.0517
 1432BOLB   GL234348  20.680   9.362  14.247 -0.0711  0.1312  0.0271
 1432BOLB   C1A34349  20.770   8.907  14.128 -0.0697 -0.0825 -0.1878
 1432BOLB   C2A34350  20.925   8.711  13.824  0.0795  0.1803  0.0530
 1432BOLB   C3A34351  21.081   8.559  13.477 -0.3083 -0.0456  0.1484
 1432BOLB   C4A34352  21.384   8.306  13.353 -0.1153  0.0303  0.1031
 1432BOLB   C1B34353  20.858   9.307  13.847  0.0496  0.4002 -0.1594
 1432BOLB   C2B34354  21.096   9.136  13.561  0.4312 -0.0978 -0.1832
 1432BOLB   C3B34355  21.446   8.932  13.464 -0.3223  0.3077  0.0140
 1432BOLB   C4B34356  21.885   8.810  13.323  0.1276  0.3423  0.1799
 1432BOLB   NC234357  22.653   7.187  11.659 -0.1484  0.1891 -0.1160
 1432BOLB   PO234358  22.257   7.369  11.529 -0.0442 -0.0086  0.0986
 1432BOLB   GL334359  22.075   7.635  11.761 -0.2783  0.1739  0.1112
 1432BOLB   GL434360  21.835   7.525  11.839  0.0675  0.0320  0.1393
 1432BOLB   C1C34361  22.152   7.952  11.982 -0.0507  0.1156  0.0663
 1432BOLB   C2C34362  22.213   7.892  12.416  0.2157 -0.2324  0.1243
 1432BOLB   C3C34363  22.083   8.072  12.973 -0.3134 -0.0352  0.1381
 1432BOLB   C4C34364  21.697   8.333  12.978  0.4815 -0.0877 -0.1722
 1432BOLB   C1D34365  21.675   7.672  12.230  0.1155 -0.2964 -0.0125
 1432BOLB   C2D34366  21.757   8.028  12.508 -0.0692 -0.1034 -0.0856
 1432BOLB   C3D34367  21.949   8.455  12.598 -0.2530  0.3037  0.2123
 1432BOLB   C4D34368  22.112   8.812  12.843  0.3430  0.0725  0.2261
 1433BOLB   NC134369  13.946   9.051  12.413  0.3763 -0.0019 -0.0824
 1433BOLB   PO134370  14.242   9.222  12.111  0.0671  0.3060  0.1271
 1433BOLB   GL134371  14.231   8.905  11.836  0.0957  0.0116 -0.1067
 1433BOLB   GL234372  13.864   8.702  11.917  0.0326  0.2395 -0.2212
 1433BOLB   C1A34373  14.461   8.645  11.507 -0.4465 -0.0407  0.2084
 1433BOLB   C2A34374  14.480   8.223  11.390  0.4101 -0.2132  0.1429
 1433BOLB   C3A34375  14.736   7.978  11.113  0.0896  0.3012 -0.1052
 1433BOLB   C4A34376  14.658   7.988  10.699  0.0286 -0.1385  0.0800
 1433BOLB   C1B34377  13.948   8.628  11.482 -0.1734 -0.2585  0.0838
 1433BOLB   C2B34378  14.085   8.461  11.180 -0.0224  0.0819  0.4781
 1433BOLB   C3B34379  14.470   8.443  10.958 -0.0568 -0.2613 -0.1347
 1433BOLB   C4B34380  14.704   8.596  10.547  0.3046  0.1094  0.1681
 1433BOLB   NC234381  14.809   7.031   8.569  0.3180  0.3215  0.1728
 1433BOLB   PO234382  14.873   6.659   8.631  0.0900  0.2578 -0.1815
 1433BOLB   GL334383  14.952   6.996   9.028  0.1765  0.1954 -0.1900
 1433BOLB   GL434384  14.956   6.771   9.178 -0.3274 -0.0384  0.0929
 1433BOLB   C1C34385  14.942   7.318   9.428 -0.0722 -0.0173 -0.3170
 1433BOLB   C2C34386  14.707   7.663   9.429  0.0684  0.0601 -0.2368
 1433BOLB   C3C34387  14.622   7.857   9.814 -0.2128 -0.0204 -0.1454
 1433BOLB   C4C34388  14.510   8.033  10.193 -0.1374 -0.1803 -0.1436
 1433BOLB   C1D34389  14.715   6.863   9.536 -0.0479 -0.1520 -0.0398
 1433BOLB   C2D34390  14.729   6.959  10.025  0.1577 -0.2179 -0.0030
 1433BOLB   C3D34391  14.967   6.914  10.382  0.3419 -0.6507  0.3898
 1433BOLB   C4D34392  14.943   6.740  10.744 -0.0115  0.0413 -0.2304
 1434BOLB   NC134393  22.628  15.387  13.144  0.2848  0.1972 -0.1885
 1434BOLB   PO134394  22.304  15.533  12.885 -0.4226 -0.3402 -0.0202
 1434BOLB   GL134395  22.661  15.328  12.623 -0.1383  0.1489  0.1439
 1434BOLB   GL234396  22.970  15.408  12.747 -0.0884  0.1763  0.2003
 1434BOLB   C1A34397  22.802  15.372  12.248  0.1254 -0.1689  0.0103
 1434BOLB   C2A34398  23.089  15.210  11.880 -0.3320 -0.2814 -0.0700
 1434BOLB   C3A34399  23.461  15.407  11.681  0.2357 -0.0780  0.3900
 1434BOLB   C4A34400  23.762  15.681  11.623 -0.0830  0.0179  0.0708
 1434BOLB   C1B34401  23.252  15.322  12.448  0.0297 -0.0416 -0.0629
 1434BOLB   C2B34402  23.709  15.288  12.153  0.1120 -0.2026  0.4340
 1434BOLB   C3B34403  23.899  15.182  11.807  0.1297 -0.1551  0.1000
 1434BOLB   C4B34404  24.167  15.119  11.448  0.3792  0.0304 -0.0171
 1434BOLB   NC234405  24.649  14.826   9.878  0.0760 -0.1831 -0.0330
 1434BOLB   PO234406  25.008  14.741  10.079 -0.0210  0.3994 -0.2522
 1434BOLB   GL334407  24.732  14.867  10.359  0.1597  0.0665 -0.1519
 1434BOLB   GL434408  24.466  14.778  10.471  0.0634  0.2006 -0.0777
 1434BOLB   C1C34409  24.589  15.288  10.372  0.2072 -0.1035 -0.0510
 1434BOLB   C2C34410  24.522  15.550  10.694  0.0682 -0.0291  0.3639
 1434BOLB   C3C34411  24.266  15.710  11.076 -0.3905  0.0138  0.1171
 1434BOLB   C4C34412  23.942  15.909  11.400 -0.1644  0.3186  0.0542
 1434BOLB   C1D34413  24.096  14.907  10.554  0.0321  0.2826 -0.0276
 1434BOLB   C2D34414  23.678  15.040  10.770 -0.2945 -0.0035 -0.1781
 1434BOLB   C3D34415  23.302  15.133  10.873 -0.1926  0.0821  0.0063
 1434BOLB   C4D34416  22.987  15.421  10.646 -0.1287  0.5134 -0.4635
 1435BOLB   NC134417   9.865  11.781  12.579 -0.3446  0.2361  0.1365
 1435BOLB   PO134418   9.956  11.678  12.128  0.1937  0.0232  0.1924
 1435BOLB   GL134419  10.020  11.617  11.664  0.1166  0.1367 -0.0463
 1435BOLB   GL234420  10.215  11.935  11.518  0.1099 -0.0499  0.1062
 1435BOLB   C1A34421  10.156  11.487  11.221  0.1048  0.1147 -0.4511
 1435BOLB   C2A34422  10.249  11.394  10.853 -0.0762 -0.0726  0.1361
 1435BOLB   C3A34423  10.321  11.465  10.344 -0.0085 -0.0787 -0.2820
 1435BOLB   C4A34424  10.347  11.634   9.903  0.0152  0.4641 -0.1084
 1435BOLB   C1B34425  10.193  11.953  11.015  0.2817  0.0305  0.1215
 1435BOLB   C2B34426  10.036  11.798  10.635 -0.2358  0.0559  0.2793
 1435BOLB   C3B34427   9.868  11.464  10.357  0.0573  0.1461 -0.2046
 1435BOLB   C4B34428   9.877  11.361  10.010 -0.1688  0.2268 -0.3140
 1435BOLB   NC234429  11.576  11.255   7.363  0.1053  0.0063  0.1393
 1435BOLB   PO234430  11.217  11.293   7.670  0.1299  0.0648  0.1309
 1435BOLB   GL334431  11.107  11.195   8.110  0.1327 -0.0571  0.1015
 1435BOLB   GL434432  10.799  11.159   8.079  0.0507  0.2237  0.1330
 1435BOLB   C1C34433  11.007  11.441   8.476  0.0297  0.1550 -0.0490
 1435BOLB   C2C34434  10.820  11.380   8.816 -0.0116  0.1239 -0.1344
 1435BOLB   C3C34435  10.670  11.500   9.147 -0.0276 -0.2623 -0.1361
 1435BOLB   C4C34436  10.604  11.625   9.535  0.2326  0.2632 -0.0091
 1435BOLB   C1D34437  10.711  11.050   8.429 -0.0369  0.0699 -0.1076
 1435BOLB   C2D34438  10.812  10.843   8.876 -0.0419 -0.0752  0.0276
 1435BOLB   C3D34439  10.860  10.567   9.201 -0.0929 -0.0979 -0.0508
 1435BOLB   C4D34440  10.791  10.437   9.537  0.0871  0.1472 -0.1747
 1436BOLB   NC134441  21.359   9.870  14.469  0.3320 -0.0248 -0.1680
 1436BOLB   PO134442  21.880   9.906  14.473  0.1422  0.0106 -0.1236
 1436BOLB   GL134443  22.188   9.952  14.189 -0.3460  0.0219 -0.1893
 1436BOLB   GL234444  22.470   9.741  14.437  0.3272 -0.4009 -0.1515
 1436BOLB   C1A34445  22.496   9.695  13.903  0.0242  0.1526 -0.0899
 1436BOLB   C2A34446  22.481   9.662  13.412  0.1064 -0.0740  0.2109
 1436BOLB   C3A34447  22.681   9.474  13.017  0.1473  0.0852 -0.0312
 1436BOLB   C4A34448  23.009   9.376  12.748  0.2696  0.1479  0.1305
 1436BOLB   C1B34449  22.741   9.365  14.264 -0.0790  0.0231  0.4236
 1436BOLB   C2B34450  22.932   9.034  14.125 -0.0776 -0.1831  0.2063
 1436BOLB   C3B34451  23.193   8.807  13.906 -0.0509  0.0454 -0.2239
 1436BOLB   C4B34452  23.157   8.346  13.709 -0.1526  0.5786 -0.3452
 1436BOLB   NC234453  24.602   7.971  11.751  0.2154 -0.1351  0.3005
 1436BOLB   PO234454  24.514   8.244  11.470  0.0260 -0.0581  0.0396
 1436BOLB   GL334455  24.111   8.248  11.728  0.0149 -0.2236  0.2467
 1436BOLB   GL434456  24.276   8.580  11.852  0.4006 -0.2975 -0.0521
 1436BOLB   C1C34457  23.801   8.315  11.942  0.2712 -0.0972 -0.0349
 1436BOLB   C2C34458  23.379   8.527  12.108 -0.2490 -0.4884  0.6382
 1436BOLB   C3C34459  23.281   8.991  12.058 -0.2696 -0.0026 -0.3222
 1436BOLB   C4C34460  23.106   9.175  12.315 -0.1536 -0.1462  0.0341
 1436BOLB   C1D34461  24.148   8.981  11.749 -0.2613  0.0786 -0.1667
 1436BOLB   C2D34462  24.222   9.341  12.000  0.0223  0.4946  0.1921
 1436BOLB   C3D34463  23.922   9.647  12.127  0.0355  0.2352 -0.1684
 1436BOLB   C4D34464  23.510   9.785  12.043 -0.1027  0.2105  0.0236
 1437BOLB   NC134465  18.275  10.827  12.970  0.0064 -0.2849 -0.0807
 1437BOLB   PO134466  18.466  10.415  12.778 -0.1712  0.1405  0.0853
 1437BOLB   GL134467  18.573  10.388  12.328  0.4795  0.2129 -0.1851
 1437BOLB   GL234468  18.884  10.342  12.254 -0.3191 -0.0400 -0.2726
 1437BOLB   C1A34469  18.554  10.474  11.872 -0.1870  0.0265 -0.0315
 1437BOLB   C2A34470  18.371  10.397  11.515  0.3181 -0.0636  0.0730
 1437BOLB   C3A34471  18.066  10.506  11.163  0.0544 -0.5150  0.0911
 1437BOLB   C4A34472  18.137  10.458  10.827  0.2478 -0.1725  0.0464
 1437BOLB   C1B34473  18.977  10.068  11.953 -0.1573 -0.1696  0.2848
 1437BOLB   C2B34474  18.918  10.009  11.650  0.2080  0.1541  0.1153
 1437BOLB   C3B34475  18.951  10.193  11.288 -0.2243 -0.3244  0.2616
 1437BOLB   C4B34476  18.638  10.380  11.107  0.4376  0.0511 -0.1837
 1437BOLB   NC234477  18.878   9.949   8.546  0.0617  0.0563  0.0375
 1437BOLB   PO234478  18.835   9.440   8.642 -0.0778  0.0910 -0.0719
 1437BOLB   GL334479  18.996   9.686   9.009 -0.3809 -0.0640  0.0877
 1437BOLB   GL434480  18.980  10.034   9.018  0.1618  0.2305 -0.2303
 1437BOLB   C1C34481  19.033   9.823   9.466  0.1278 -0.0123 -0.1218
 1437BOLB   C2C34482  18.756  10.183   9.702 -0.1363  0.0018 -0.0475
 1437BOLB   C3C34483  18.434  10.202  10.078  0.0737 -0.1561 -0.3130
 1437BOLB   C4C34484  18.119  10.309  10.424 -0.2291 -0.1887  0.0254
 1437BOLB   C1D34485  18.846  10.499   9.262  0.0202 -0.0940 -0.2376
 1437BOLB   C2D34486  18.719  10.802   9.518  0.1459 -0.1833 -0.3716
 1437BOLB   C3D34487  18.721  11.039   9.870 -0.0632  0.1463  0.0094
 1437BOLB   C4D34488  18.791  11.122  10.328  0.2133 -0.2959 -0.1770
 1438BOLB   NC134489  21.855   9.327  15.943 -0.1055 -0.0023 -0.1939
 1438BOLB   PO134490  21.629   9.056  15.622 -0.1434  0.5701  0.0176
 1438BOLB   GL134491  21.898   8.817  15.615 -0.0073  0.2707 -0.1227
 1438BOLB   GL234492  21.834   8.539  15.843 -0.0345  0.1653  0.4407
 1438BOLB   C1A34493  22.303   8.645  15.730  0.1022 -0.0427  0.3989
 1438BOLB   C2A34494  22.315   8.405  15.412 -0.2228 -0.1208  0.1888
 1438BOLB   C3A34495  22.365   7.944  15.353  0.0615 -0.1190  0.0858
 1438BOLB   C4A34496  22.393   7.605  15.422  0.1104 -0.0663  0.0378
 1438BOLB   C1B34497  21.742   8.283  15.511  0.4074  0.2246 -0.4200
 1438BOLB   C2B34498  21.838   7.887  15.513 -0.0652 -0.0317  0.3652
 1438BOLB   C3B34499  21.700   7.499  15.687 -0.1449 -0.1210 -0.0703
 1438BOLB   C4B34500  21.505   7.124  15.727  0.2022  0.2386 -0.0494
 1438BOLB   NC234501  22.980   5.171  15.611 -0.0694  0.3269  0.0862
 1438BOLB   PO234502  23.346   5.485  15.608  0.0928  0.0665 -0.1575
 1438BOLB   GL334503  23.148   5.823  15.534  0.2708  0.0598  0.2300
 1438BOLB   GL434504  22.930   5.866  15.151  0.0714  0.3113 -0.2139
 1438BOLB   C1C34505  22.972   6.234  15.511  0.2541 -0.2151 -0.1915
 1438BOLB   C2C34506  22.766   6.603  15.669  0.1312  0.2884  0.3815
 1438BOLB   C3C34507  22.490   6.760  15.396  0.1004 -0.1086 -0.0232
 1438BOLB   C4C34508  22.442   7.198  15.387  0.1434 -0.0623  0.3230
 1438BOLB   C1D34509  22.538   6.008  15.236 -0.0067 -0.2102 -0.2484
 1438BOLB   C2D34510  22.420   6.250  15.563 -0.1561 -0.0347 -0.2060
 1438BOLB   C3D34511  22.082   6.479  15.723 -0.0270  0.0245 -0.2202
 1438BOLB   C4D34512  21.656   6.620  15.808  0.0045  0.0977 -0.1748
 1439BOLB   NC134513  20.240  11.728  13.252 -0.1364 -0.1516 -0.2637
 1439BOLB   PO134514  20.073  11.262  13.198 -0.2734  0.2374  0.0399
 1439BOLB   GL134515  20.285  10.958  12.860  0.1799 -0.0726 -0.1065
 1439BOLB   GL234516  20.667  10.823  13.009 -0.2123  0.0147  0.2223
 1439BOLB   C1A34517  20.501  10.715  12.555  0.1736 -0.1527  0.0133
 1439BOLB   C2A34518  20.764  10.439  12.463 -0.0780 -0.1376  0.1828
 1439BOLB   C3A34519  20.907  10.059  12.391 -0.2350  0.1966  0.0372
 1439BOLB   C4A34520  21.140   9.732  12.268 -0.1484 -0.0733 -0.1217
 1439BOLB   C1B34521  20.669  10.496  12.968 -0.1734 -0.3739 -0.0167
 1439BOLB   C2B34522  21.000  10.150  12.865  0.2704  0.0686  0.3024
 1439BOLB   C3B34523  21.310   9.819  12.717  0.1297 -0.3548 -0.1930
 1439BOLB   C4B34524  21.364   9.386  12.649 -0.0514 -0.1653  0.1112
 1439BOLB   NC234525  22.629   8.828  10.079 -0.1651  0.0055 -0.2029
 1439BOLB   PO234526  22.265   9.017  10.163 -0.2014  0.0394  0.0146
 1439BOLB   GL334527  22.143   9.343  10.462  0.2683  0.3977  0.0897
 1439BOLB   GL434528  22.317   9.524  10.603 -0.0955 -0.2028 -0.1033
 1439BOLB   C1C34529  21.820   9.386  10.700  0.0290  0.0283  0.0452
 1439BOLB   C2C34530  21.495   9.299  11.023  0.1096 -0.4262 -0.1463
 1439BOLB   C3C34531  21.234   9.369  11.349  0.1896 -0.2993 -0.2738
 1439BOLB   C4C34532  21.272   9.563  11.792  0.0516  0.4337  0.0362
 1439BOLB   C1D34533  22.114   9.961  10.504 -0.0689 -0.1209  0.4191
 1439BOLB   C2D34534  21.696  10.140  10.624  0.0070  0.0942 -0.0200
 1439BOLB   C3D34535  21.225  10.280  10.527  0.1910 -0.0457 -0.1207
 1439BOLB   C4D34536  20.753  10.236  10.656 -0.1082 -0.0309 -0.3111
 1440BOLB   NC134537  11.185  18.039  11.811 -0.1671 -0.1064  0.1458
 1440BOLB   PO134538  11.095  18.413  11.467 -0.0656 -0.1086 -0.0569
 1440BOLB   GL134539  10.817  18.137  11.108  0.0547 -0.1967 -0.2118
 1440BOLB   GL234540  10.535  18.058  11.273 -0.4159  0.2598  0.1062
 1440BOLB   C1A34541  10.884  18.241  10.669 -0.1263  0.0990  0.1647
 1440BOLB   C2A34542  10.943  18.452  10.257  0.3923  0.0369  0.0121
 1440BOLB   C3A34543  11.020  18.613   9.922  0.0229 -0.3629 -0.3012
 1440BOLB   C4A34544  11.162  18.543   9.606  0.1422  0.1615  0.0713
 1440BOLB   C1B34545  10.399  18.115  10.796 -0.0304 -0.0094  0.2442
 1440BOLB   C2B34546  10.468  17.935  10.424 -0.2160 -0.0733 -0.0234
 1440BOLB   C3B34547  10.695  18.081  10.049  0.0768  0.1620 -0.3977
 1440BOLB   C4B34548  10.635  18.326   9.669  0.2755 -0.0215  0.0095
 1440BOLB   NC234549  10.359  17.722   7.455 -0.0697 -0.0694  0.3872
 1440BOLB   PO234550  10.064  18.100   7.438  0.1288  0.2156  0.1638
 1440BOLB   GL334551  10.297  18.227   7.862  0.0430  0.0894 -0.0972
 1440BOLB   GL434552  10.181  17.821   8.002 -0.0324 -0.2518 -0.1711
 1440BOLB   C1C34553  10.477  18.116   8.242  0.2080  0.3527 -0.1536
 1440BOLB   C2C34554  10.867  17.990   8.538 -0.2285 -0.2224  0.0200
 1440BOLB   C3C34555  11.142  18.199   8.757  0.0967  0.1987 -0.2791
 1440BOLB   C4C34556  11.161  18.340   9.231 -0.0810 -0.0310  0.2622
 1440BOLB   C1D34557  10.005  17.875   8.429  0.1501  0.1068 -0.0952
 1440BOLB   C2D34558  10.242  18.062   8.732  0.2594 -0.0484 -0.1380
 1440BOLB   C3D34559  10.286  18.257   9.080 -0.2095  0.2170 -0.1012
 1440BOLB   C4D34560  10.133  18.273   9.514  0.4409  0.2815  0.1456
 1441BOLB   NC134561  15.300  16.839  11.413 -0.2196  0.0535 -0.0165
 1441BOLB   PO134562  14.891  16.756  11.216 -0.0691 -0.2913 -0.1085
 1441BOLB   GL134563  14.671  17.083  10.864  0.2515 -0.4062  0.3187
 1441BOLB   GL234564  14.650  17.436  10.955 -0.4477  0.1656  0.1805
 1441BOLB   C1A34565  14.767  17.084  10.442 -0.1418  0.0247  0.0419
 1441BOLB   C2A34566  15.214  16.943  10.391 -0.1840  0.1775  0.1907
 1441BOLB   C3A34567  15.322  16.986   9.945 -0.0966  0.0575 -0.0005
 1441BOLB   C4A34568  15.234  16.994   9.469 -0.1055 -0.0662 -0.0237
 1441BOLB   C1B34569  14.664  17.622  10.603  0.2453 -0.2287 -0.0818
 1441BOLB   C2B34570  14.681  17.728  10.146  0.0391  0.0574  0.1456
 1441BOLB   C3B34571  14.778  17.764   9.824  0.0652 -0.0093  0.0764
 1441BOLB   C4B34572  14.821  17.749   9.418  0.2506  0.2573 -0.0395
 1441BOLB   NC234573  15.136  17.226   7.259 -0.1272  0.1967  0.0610
 1441BOLB   PO234574  14.730  16.918   7.355 -0.1174  0.0861  0.0979
 1441BOLB   GL334575  14.822  16.629   7.627 -0.1411 -0.1456  0.3325
 1441BOLB   GL434576  14.770  16.412   7.548  0.1205 -0.1627  0.1080
 1441BOLB   C1C34577  14.897  16.731   8.037 -0.1474 -0.1096 -0.1342
 1441BOLB   C2C34578  14.716  16.837   8.421  0.1624  0.0190  0.0800
 1441BOLB   C3C34579  14.821  16.732   8.795 -0.0209  0.0153  0.2087
 1441BOLB   C4C34580  14.969  16.893   9.067 -0.3093 -0.1880  0.0780
 1441BOLB   C1D34581  14.892  16.226   7.897 -0.2476 -0.2045  0.0935
 1441BOLB   C2D34582  14.797  16.344   8.334  0.1806  0.1912  0.3206
 1441BOLB   C3D34583  14.794  16.161   8.687 -0.3012  0.3645 -0.1392
 1441BOLB   C4D34584  14.891  16.270   9.079 -0.2049 -0.2926  0.0956
 1442BOLB   NC134585  21.859  15.431  13.059  0.1997  0.1676 -0.0582
 1442BOLB   PO134586  21.492  15.295  12.814  0.1439  0.2254 -0.0582
 1442BOLB   GL134587  21.546  15.249  12.387  0.1165  0.2066 -0.0134
 1442BOLB   GL234588  21.610  15.599  12.230 -0.2157 -0.0712 -0.1686
 1442BOLB   C1A34589  21.738  15.112  11.971  0.0297  0.1652  0.3196
 1442BOLB   C2A34590  21.909  14.946  11.517  0.0582  0.2874 -0.0508
 1442BOLB   C3A34591  21.793  14.753  11.108 -0.3338  0.2023 -0.0551
 1442BOLB   C4A34592  21.935  14.747  10.660 -0.1651 -0.3621 -0.1037
 1442BOLB   C1B34593  21.976  15.548  11.813  0.1987  0.2947 -0.3402
 1442BOLB   C2B34594  22.122  15.447  11.365  0.1134  0.0567  0.0697
 1442BOLB   C3B34595  22.288  15.071  11.165  0.0534 -0.1805  0.4925
 1442BOLB   C4B34596  22.408  14.842  10.846 -0.1077  0.0450 -0.3139
 1442BOLB   NC234597  23.047  15.643   8.579  0.1166  0.0167 -0.2280
 1442BOLB   PO234598  22.617  15.568   8.399  0.2161  0.1376  0.3501
 1442BOLB   GL334599  22.653  15.419   8.866 -0.0316  0.5180  0.0151
 1442BOLB   GL434600  22.976  15.426   9.041 -0.0032 -0.2879  0.2536
 1442BOLB   C1C34601  22.615  15.144   9.229  0.1403  0.0627 -0.3146
 1442BOLB   C2C34602  22.312  15.025   9.588 -0.2525 -0.1787  0.5466
 1442BOLB   C3C34603  22.034  15.165   9.948 -0.1789 -0.1274  0.1595
 1442BOLB   C4C34604  22.110  15.039  10.261  0.3631  0.1139 -0.0143
 1442BOLB   C1D34605  22.869  15.543   9.354 -0.2020  0.1301  0.0710
 1442BOLB   C2D34606  22.685  15.497   9.806  0.0345  0.2464 -0.4607
 1442BOLB   C3D34607  22.345  15.499  10.105  0.1924  0.1012  0.2846
 1442BOLB   C4D34608  22.012  15.652  10.164  0.3712  0.2451 -0.0227
 1443BOLB   NC134609  20.379  13.382  12.379 -0.0500  0.3661  0.2629
 1443BOLB   PO134610  20.834  13.260  12.512  0.1030 -0.1580 -0.5611
 1443BOLB   GL134611  20.905  13.494  12.104  0.1748 -0.0046 -0.0186
 1443BOLB   GL234612  20.750  13.701  12.040  0.0497 -0.2341  0.1077
 1443BOLB   C1A34613  21.175  13.505  11.819 -0.0343 -0.3529  0.3375
 1443BOLB   C2A34614  21.288  13.617  11.488 -0.3824  0.0120  0.0770
 1443BOLB   C3A34615  21.271  13.478  11.076 -0.0040  0.2098 -0.2093
 1443BOLB   C4A34616  21.252  13.401  10.623 -0.1010 -0.0063  0.1332
 1443BOLB   C1B34617  20.800  13.756  11.587 -0.2607  0.2820 -0.3411
 1443BOLB   C2B34618  20.777  13.596  11.162  0.0700  0.1160  0.1626
 1443BOLB   C3B34619  20.797  13.251  10.916  0.0210 -0.0442 -0.0362
 1443BOLB   C4B34620  20.832  13.268  10.432  0.0007 -0.0764 -0.1769
 1443BOLB   NC234621  21.370  14.522   7.971  0.1867  0.3530  0.0968
 1443BOLB   PO234622  21.378  14.105   8.162  0.0846 -0.1075  0.2282
 1443BOLB   GL334623  21.369  14.217   8.709 -0.0980 -0.4441 -0.0087
 1443BOLB   GL434624  21.552  14.386   8.833 -0.1644 -0.1823  0.1287
 1443BOLB   C1C34625  21.313  14.013   9.159  0.2801  0.0870  0.3431
 1443BOLB   C2C34626  21.497  13.878   9.577 -0.1871 -0.0681 -0.1298
 1443BOLB   C3C34627  21.446  13.666   9.894 -0.0844 -0.3278 -0.2246
 1443BOLB   C4C34628  21.486  13.484  10.297  0.0032 -0.0582 -0.0525
 1443BOLB   C1D34629  21.725  14.722   8.983  0.0587 -0.1230  0.0593
 1443BOLB   C2D34630  21.749  15.174   9.184  0.3296  0.3822  0.1962
 1443BOLB   C3D34631  21.805  15.613   9.134  0.1865 -0.1029 -0.1144
 1443BOLB   C4D34632  21.842  16.110   8.972  0.0766  0.1088 -0.1936
 1444BOLB   NC134633  13.074  15.217  11.500  0.0356 -0.0278  0.1647
 1444BOLB   PO134634  13.115  15.622  11.350  0.1181  0.1829 -0.1907
 1444BOLB   GL134635  13.144  15.709  10.991  0.0708  0.1331 -0.2148
 1444BOLB   GL234636  13.138  16.009  10.976 -0.1441  0.1182  0.0681
 1444BOLB   C1A34637  13.423  15.733  10.664  0.0154  0.1241 -0.0533
 1444BOLB   C2A34638  13.342  15.745  10.255  0.2815  0.0742 -0.2433
 1444BOLB   C3A34639  13.159  15.677   9.873  0.0785  0.2946 -0.1677
 1444BOLB   C4A34640  13.159  15.339   9.551  0.0063  0.2141  0.0057
 1444BOLB   C1B34641  13.043  16.093  10.583  0.1953 -0.0891 -0.1731
 1444BOLB   C2B34642  12.841  15.944  10.233  0.1774  0.0048 -0.0391
 1444BOLB   C3B34643  12.840  16.014   9.793 -0.2126 -0.1343  0.0665
 1444BOLB   C4B34644  12.807  15.747   9.415  0.1679 -0.4319 -0.2561
 1444BOLB   NC234645  12.143  14.580   7.319 -0.1457  0.0126 -0.0027
 1444BOLB   PO234646  12.328  14.905   7.235  0.1318  0.3511 -0.0160
 1444BOLB   GL334647  12.609  15.113   7.611 -0.1223 -0.2018  0.0801
 1444BOLB   GL434648  12.774  15.443   7.733  0.1377 -0.0795 -0.0216
 1444BOLB   C1C34649  12.877  15.114   8.057  0.0771 -0.0928  0.0458
 1444BOLB   C2C34650  13.087  15.043   8.414 -0.3866 -0.0026 -0.1599
 1444BOLB   C3C34651  13.186  15.164   8.907  0.1251  0.2582  0.0088
 1444BOLB   C4C34652  13.301  15.471   9.122  0.1190  0.0588  0.0901
 1444BOLB   C1D34653  13.135  15.478   7.849 -0.1664  0.1706 -0.1416
 1444BOLB   C2D34654  13.297  15.622   8.212  0.0936 -0.0117 -0.0138
 1444BOLB   C3D34655  13.232  15.727   8.653  0.1554  0.0493 -0.1351
 1444BOLB   C4D34656  13.058  15.919   8.974  0.2779 -0.0386 -0.1802
 1445BOLB   NC134657  11.410  22.105  12.169 -0.3119 -0.1960 -0.3542
 1445BOLB   PO134658  11.532  22.460  12.355 -0.1920  0.0643  0.1468
 1445BOLB   GL134659  11.531  22.595  12.010 -0.1266  0.2326 -0.0472
 1445BOLB   GL234660  11.110  22.632  11.971 -0.0444 -0.4495  0.6597
 1445BOLB   C1A34661  11.617  22.726  11.534 -0.2020 -0.0099 -0.1622
 1445BOLB   C2A34662  11.673  22.906  11.113 -0.0034  0.0452  0.0169
 1445BOLB   C3A34663  11.910  23.049  10.794 -0.1298  0.2375 -0.1882
 1445BOLB   C4A34664  11.895  23.302  10.463  0.0006  0.3176 -0.1323
 1445BOLB   C1B34665  11.120  22.708  11.605  0.5697  0.0499 -0.2671
 1445BOLB   C2B34666  11.226  22.983  11.310 -0.0733  0.0590 -0.1034
 1445BOLB   C3B34667  11.189  23.049  10.893  0.0263  0.0798 -0.1078
 1445BOLB   C4B34668  10.905  22.977  10.548  0.2689 -0.1590  0.2101
 1445BOLB   NC234669  12.239  23.368   8.082 -0.1460 -0.1332 -0.0381
 1445BOLB   PO234670  11.939  23.601   8.201  0.4664 -0.2764 -0.0871
 1445BOLB   GL334671  12.058  23.357   8.551  0.0440 -0.3693  0.1316
 1445BOLB   GL434672  12.107  23.131   8.544  0.1391  0.4176 -0.1430
 1445BOLB   C1C34673  12.399  23.323   8.925  0.2544 -0.1897  0.0706
 1445BOLB   C2C34674  12.446  23.359   9.348  0.2610  0.1517  0.3828
 1445BOLB   C3C34675  12.187  23.324   9.661  0.1210 -0.1154  0.0068
 1445BOLB   C4C34676  11.956  23.355  10.091 -0.1377 -0.2439  0.0316
 1445BOLB   C1D34677  11.793  22.966   8.703  0.1818 -0.2307  0.0465
 1445BOLB   C2D34678  11.872  22.637   8.880  0.1959 -0.1688 -0.2803
 1445BOLB   C3D34679  11.895  22.429   9.232 -0.1300  0.1672 -0.1376
 1445BOLB   C4D34680  11.691  22.331   9.594 -0.3321  0.1418 -0.1443
 1446BOLB   NC134681  15.624   9.245  12.517  0.5333 -0.0069 -0.1106
 1446BOLB   PO134682  15.411   9.613  12.467 -0.0090 -0.0744 -0.2350
 1446BOLB   GL134683  15.564   9.518  12.014  0.0207  0.0990 -0.0395
 1446BOLB   GL234684  15.877   9.257  12.054  0.1799  0.2182 -0.1159
 1446BOLB   C1A34685  15.640   9.451  11.557 -0.1436 -0.2393  0.1941
 1446BOLB   C2A34686  15.912   9.207  11.151 -0.1727  0.0913 -0.3702
 1446BOLB   C3A34687  16.009   9.334  10.760  0.3087  0.1514  0.1274
 1446BOLB   C4A34688  16.051   9.490  10.298 -0.0486 -0.3771 -0.1184
 1446BOLB   C1B34689  16.066   9.151  11.671  0.0621 -0.0349 -0.0097
 1446BOLB   C2B34690  16.242   8.853  11.292 -0.1027 -0.1349  0.3490
 1446BOLB   C3B34691  16.394   8.618  10.965  0.2476  0.2424 -0.2086
 1446BOLB   C4B34692  16.630   8.583  10.612  0.1076  0.1513  0.0293
 1446BOLB   NC234693  15.778  10.245   8.172 -0.1551 -0.4358  0.0809
 1446BOLB   PO234694  15.452   9.836   8.045 -0.1898  0.1309  0.2562
 1446BOLB   GL334695  15.644   9.702   8.350  0.3220  0.1848 -0.3617
 1446BOLB   GL434696  15.580   9.958   8.564 -0.2201  0.0246 -0.0979
 1446BOLB   C1C34697  15.802   9.411   8.668  0.3983 -0.1813 -0.0614
 1446BOLB   C2C34698  16.095   9.417   9.055  0.2873 -0.0826 -0.1894
 1446BOLB   C3C34699  16.193   9.589   9.424 -0.1217  0.3140 -0.1284
 1446BOLB   C4C34700  16.116   9.575   9.906  0.4729 -0.1469 -0.0095
 1446BOLB   C1D34701  15.443  10.130   8.896 -0.0118  0.2680 -0.2897
 1446BOLB   C2D34702  15.340  10.579   8.984 -0.1038  0.1557 -0.1292
 1446BOLB   C3D34703  15.492  10.867   9.375  0.2152  0.4563  0.0003
 1446BOLB   C4D34704  15.257  11.221   9.506 -0.2093 -0.1342  0.1772
 1447BOLB   NC134705  16.315  15.008  11.540  0.0664 -0.1997 -0.0426
 1447BOLB   PO134706  16.197  15.465  11.622  0.0941  0.2308 -0.0049
 1447BOLB   GL134707  16.075  15.361  11.181 -0.0638  0.0428 -0.2123
 1447BOLB   GL234708  16.208  15.049  11.053 -0.0844  0.1159 -0.0894
 1447BOLB   C1A34709  15.801  15.309  10.839 -0.4270  0.0878 -0.1052
 1447BOLB   C2A34710  15.824  15.326  10.431  0.0725 -0.2202  0.4075
 1447BOLB   C3A34711  15.801  15.276   9.962 -0.0522 -0.0616 -0.0613
 1447BOLB   C4A34712  15.527  15.337   9.592  0.2271 -0.0083  0.0897
 1447BOLB   C1B34713  16.024  14.923  10.674 -0.2208  0.0334 -0.2645
 1447BOLB   C2B34714  16.083  14.839  10.207  0.1894 -0.3964 -0.1851
 1447BOLB   C3B34715  15.973  14.827   9.728 -0.0994  0.0615  0.3136
 1447BOLB   C4B34716  15.928  15.040   9.279  0.1029  0.0844  0.1737
 1447BOLB   NC234717  16.643  16.373   7.320 -0.0981 -0.2421  0.0936
 1447BOLB   PO234718  16.292  16.490   7.536 -0.1173 -0.1921  0.1332
 1447BOLB   GL334719  16.287  16.303   7.865  0.2851 -0.0308  0.0191
 1447BOLB   GL434720  16.113  16.061   7.869  0.2578 -0.2226 -0.1753
 1447BOLB   C1C34721  16.266  16.185   8.384  0.4335 -0.1124 -0.0890
 1447BOLB   C2C34722  15.867  16.082   8.703  0.0456 -0.1727 -0.3061
 1447BOLB   C3C34723  15.753  15.630   8.843  0.0699  0.1031 -0.2811
 1447BOLB   C4C34724  15.565  15.484   9.214  0.0063 -0.0884 -0.0852
 1447BOLB   C1D34725  15.850  16.258   8.130 -0.3783 -0.1915 -0.0387
 1447BOLB   C2D34726  15.828  16.702   8.390  0.2126  0.3101  0.0141
 1447BOLB   C3D34727  15.972  17.070   8.721  0.2652 -0.1518 -0.0003
 1447BOLB   C4D34728  16.364  17.147   8.894  0.0271  0.0740 -0.0816
 1448BOLB   NC134729  21.674  16.255  12.502  0.0432 -0.1825  0.0144
 1448BOLB   PO134730  21.304  16.525  12.246  0.1606 -0.1956  0.1358
 1448BOLB   GL134731  21.430  16.704  11.884 -0.0983 -0.1601 -0.1538
 1448BOLB   GL234732  21.711  16.939  11.914 -0.0050 -0.0052  0.3959
 1448BOLB   C1A34733  21.577  16.739  11.437 -0.1318 -0.1451  0.1766
 1448BOLB   C2A34734  21.844  16.746  11.087 -0.0472 -0.3140 -0.1398
 1448BOLB   C3A34735  22.174  17.017  10.871 -0.0300 -0.0613  0.4277
 1448BOLB   C4A34736  22.727  17.130  10.750 -0.3047  0.1244  0.0317
 1448BOLB   C1B34737  22.069  16.849  11.623 -0.0940 -0.2339 -0.1947
 1448BOLB   C2B34738  22.321  16.934  11.366  0.2108 -0.3297 -0.1267
 1448BOLB   C3B34739  22.354  17.339  11.261 -0.0764 -0.0709 -0.0077
 1448BOLB   C4B34740  22.558  17.589  10.811 -0.1969 -0.0114  0.0568
 1448BOLB   NC234741  24.527  17.094   9.596 -0.2290 -0.1284 -0.1178
 1448BOLB   PO234742  24.674  17.459   9.821 -0.3199  0.1848  0.1714
 1448BOLB   GL334743  24.286  17.719   9.999  0.1579 -0.1381 -0.1291
 1448BOLB   GL434744  24.332  17.960  10.216  0.2006  0.2890 -0.1283
 1448BOLB   C1C34745  24.047  17.452  10.303  0.1303  0.3618 -0.0179
 1448BOLB   C2C34746  23.756  17.163  10.389 -0.1827  0.1250  0.0081
 1448BOLB   C3C34747  23.434  17.161  10.469 -0.0012  0.2445  0.0774
 1448BOLB   C4C34748  23.088  17.344  10.585 -0.0590  0.2168  0.2163
 1448BOLB   C1D34749  23.884  17.974  10.279 -0.0852 -0.0411 -0.0828
 1448BOLB   C2D34750  23.518  17.658  10.502  0.1309 -0.2280  0.2361
 1448BOLB   C3D34751  23.538  17.466  10.858 -0.0856  0.0065 -0.0116
 1448BOLB   C4D34752  23.305  17.320  11.310 -0.0350  0.1260 -0.0405
 1449BOLB   NC134753  20.526  14.354  12.200 -0.1672 -0.0305 -0.2763
 1449BOLB   PO134754  20.709  14.680  12.318  0.0160 -0.0827 -0.2518
 1449BOLB   GL134755  20.652  14.767  11.912 -0.4991 -0.1910  0.2606
 1449BOLB   GL234756  20.355  14.757  11.878 -0.1602 -0.2734  0.1324
 1449BOLB   C1A34757  20.718  15.035  11.560  0.1719 -0.1481 -0.1936
 1449BOLB   C2A34758  20.854  15.032  11.213 -0.3659 -0.1240  0.3231
 1449BOLB   C3A34759  20.873  15.202  10.879  0.0766  0.3764 -0.1725
 1449BOLB   C4A34760  20.943  15.179  10.429 -0.0044 -0.1013 -0.2866
 1449BOLB   C1B34761  20.320  14.893  11.294 -0.0663 -0.2155 -0.0928
 1449BOLB   C2B34762  20.393  15.090  10.846 -0.0447  0.1125 -0.0287
 1449BOLB   C3B34763  20.303  15.137  10.448  0.0280 -0.1916 -0.0681
 1449BOLB   C4B34764  20.261  15.134  10.153 -0.0001  0.2663 -0.1704
 1449BOLB   NC234765  20.760  15.121   7.915  0.1887 -0.0297 -0.0233
 1449BOLB   PO234766  20.861  14.699   8.069 -0.0777 -0.1152  0.2190
 1449BOLB   GL334767  20.723  14.839   8.515  0.2979  0.2767  0.0010
 1449BOLB   GL434768  20.483  15.065   8.446  0.1513 -0.1188 -0.2278
 1449BOLB   C1C34769  20.895  15.060   8.845 -0.2629 -0.1063  0.0354
 1449BOLB   C2C34770  20.874  15.044   9.234 -0.2028 -0.0825 -0.2985
 1449BOLB   C3C34771  20.841  15.026   9.675 -0.1049 -0.0746 -0.3937
 1449BOLB   C4C34772  20.771  15.135  10.050  0.0872  0.1724  0.0097
 1449BOLB   C1D34773  20.078  15.004   8.526 -0.1749  0.1805  0.0077
 1449BOLB   C2D34774  19.874  15.471   8.521  0.1720 -0.0409  0.0488
 1449BOLB   C3D34775  19.980  15.730   8.320  0.1504 -0.0567 -0.2968
 1449BOLB   C4D34776  20.124  16.104   8.330 -0.0382 -0.0325 -0.1560
 1450BOLB   NC134777  20.404  22.162  13.817 -0.0385  0.2288  0.1817
 1450BOLB   PO134778  20.786  22.255  13.596 -0.1956 -0.2356  0.1828
 1450BOLB   GL134779  21.077  22.548  13.398 -0.1629 -0.1154 -0.3513
 1450BOLB   GL234780  21.014  22.756  13.102  0.2274  0.1468 -0.0594
 1450BOLB   C1A34781  21.451  22.816  13.315  0.1061 -0.0072 -0.1120
 1450BOLB   C2A34782  21.726  22.813  13.002 -0.0152 -0.2962  0.0321
 1450BOLB   C3A34783  21.895  23.161  12.839 -0.2826  0.2224 -0.2058
 1450BOLB   C4A34784  21.953  23.481  12.680 -0.1622 -0.3613 -0.1814
 1450BOLB   C1B34785  21.320  22.933  12.762 -0.0237 -0.1519  0.2164
 1450BOLB   C2B34786  21.569  23.056  12.472  0.4864 -0.0451  0.0238
 1450BOLB   C3B34787  21.875  23.255  12.157 -0.0299 -0.2039 -0.1042
 1450BOLB   C4B34788  22.314  23.320  11.962  0.2208  0.1151  0.1461
 1450BOLB   NC234789  23.795  24.210  11.330 -0.1607  0.0682  0.0718
 1450BOLB   PO234790  23.529  24.680  11.339  0.4738 -0.3171 -0.1084
 1450BOLB   GL334791  23.103  24.797  11.557  0.1206 -0.2306 -0.0825
 1450BOLB   GL434792  22.991  24.487  11.489  0.2202 -0.0106 -0.1992
 1450BOLB   C1C34793  22.694  24.765  11.788 -0.0907  0.1345 -0.3994
 1450BOLB   C2C34794  22.423  24.272  11.840 -0.1172  0.0664 -0.0803
 1450BOLB   C3C34795  22.219  23.889  12.003  0.2564 -0.3002 -0.1449
 1450BOLB   C4C34796  22.037  23.687  12.311 -0.1406  0.1745  0.2536
 1450BOLB   C1D34797  22.916  24.102  11.773  0.1199  0.1540 -0.2548
 1450BOLB   C2D34798  22.756  23.954  12.133  0.1224  0.0151  0.4413
 1450BOLB   C3D34799  22.546  23.749  12.444  0.1864  0.0678  0.0261
 1450BOLB   C4D34800  22.382  23.366  12.473 -0.1985  0.2876 -0.3918
 1451BOLB   NC134801  18.959  19.637  11.502 -0.1748 -0.1045  0.1527
 1451BOLB   PO134802  19.159  19.259  11.582  0.1251  0.0436  0.1293
 1451BOLB   GL134803  19.325  19.309  11.263 -0.1264 -0.3346 -0.0006
 1451BOLB   GL234804  19.505  19.653  11.389 -0.0205 -0.1078  0.1704
 1451BOLB   C1A34805  19.427  19.267  10.838 -0.1138  0.1337 -0.0205
 1451BOLB   C2A34806  19.465  19.349  10.473 -0.0924  0.0797 -0.0941
 1451BOLB   C3A34807  19.674  19.347  10.098  0.2254 -0.0141 -0.2354
 1451BOLB   C4A34808  19.913  19.290   9.637  0.2873 -0.3573  0.2777
 1451BOLB   C1B34809  19.460  19.731  10.828 -0.3700  0.2655  0.1124
 1451BOLB   C2B34810  19.611  19.861  10.404 -0.0196 -0.1595  0.2770
 1451BOLB   C3B34811  19.815  19.826   9.996 -0.1130 -0.2792 -0.3562
 1451BOLB   C4B34812  19.945  19.932   9.569  0.4519  0.1958  0.0118
 1451BOLB   NC234813  21.758  19.947   8.162  0.2505 -0.0403 -0.1537
 1451BOLB   PO234814  21.776  19.523   8.259  0.0453 -0.0674 -0.1211
 1451BOLB   GL334815  21.349  19.583   8.560  0.2467  0.0250  0.1292
 1451BOLB   GL434816  21.537  19.414   8.778  0.2489  0.0171  0.3526
 1451BOLB   C1C34817  21.004  19.560   8.849 -0.0639 -0.2310 -0.0371
 1451BOLB   C2C34818  20.642  19.266   8.915 -0.0183 -0.1516  0.1694
 1451BOLB   C3C34819  20.498  19.087   9.256  0.3212  0.1324 -0.0840
 1451BOLB   C4C34820  20.107  19.130   9.410 -0.0112  0.0297  0.1174
 1451BOLB   C1D34821  21.502  19.262   9.333 -0.1492 -0.0169  0.1436
 1451BOLB   C2D34822  21.197  19.333   9.726  0.1499 -0.1431  0.0912
 1451BOLB   C3D34823  20.992  19.221  10.106 -0.2563  0.3810  0.0307
 1451BOLB   C4D34824  20.670  19.318  10.525 -0.1870 -0.1542  0.0594
 1452BOLB   NC134825  13.597  18.577  10.979  0.2519 -0.1088  0.0809
 1452BOLB   PO134826  13.440  18.905  11.149  0.2299 -0.0172  0.1588
 1452BOLB   GL134827  13.302  19.037  10.782  0.2129 -0.0082 -0.0404
 1452BOLB   GL234828  13.259  18.814  10.636 -0.5948 -0.1801  0.3551
 1452BOLB   C1A34829  13.368  19.218  10.384 -0.1456  0.3229  0.0860
 1452BOLB   C2A34830  13.420  19.174   9.944 -0.0429  0.2212 -0.2307
 1452BOLB   C3A34831  13.519  19.315   9.516  0.2132  0.2327  0.0299
 1452BOLB   C4A34832  13.881  19.222   9.173  0.0202 -0.0759 -0.1498
 1452BOLB   C1B34833  13.446  18.591  10.358  0.3482  0.0054  0.1320
 1452BOLB   C2B34834  13.494  18.219  10.199 -0.1309 -0.4098  0.1389
 1452BOLB   C3B34835  13.405  18.095   9.773  0.1747 -0.0119 -0.2183
 1452BOLB   C4B34836  13.487  18.019   9.366 -0.2173 -0.4817 -0.1413
 1452BOLB   NC234837  13.350  19.561   6.907 -0.2178  0.0127  0.2189
 1452BOLB   PO234838  13.452  19.982   7.191  0.0448  0.0820 -0.2800
 1452BOLB   GL334839  13.259  19.935   7.584 -0.1401 -0.2442 -0.0459
 1452BOLB   GL434840  13.041  20.102   7.660 -0.0909  0.2973  0.1437
 1452BOLB   C1C34841  13.276  19.766   7.943  0.0568  0.2019  0.1123
 1452BOLB   C2C34842  13.405  19.446   8.138  0.0276  0.0303 -0.0713
 1452BOLB   C3C34843  13.687  19.203   8.452  0.0756 -0.1966  0.2019
 1452BOLB   C4C34844  13.785  19.179   8.857  0.1860 -0.0837  0.1200
 1452BOLB   C1D34845  13.150  20.239   8.090  0.1111 -0.1599 -0.0868
 1452BOLB   C2D34846  13.282  20.344   8.535 -0.1868  0.1632  0.0519
 1452BOLB   C3D34847  13.185  20.684   8.884  0.0918 -0.4046  0.3000
 1452BOLB   C4D34848  13.077  20.895   9.280  0.0806 -0.0648 -0.0285
 1453BOLB   NC134849  11.707  10.245  12.350  0.0715  0.0128 -0.2766
 1453BOLB   PO134850  11.887  10.167  11.913 -0.0391  0.3568 -0.0302
 1453BOLB   GL134851  11.782  10.216  11.414 -0.5740 -0.0827  0.3173
 1453BOLB   GL234852  11.392  10.076  11.435  0.0940  0.1989 -0.1987
 1453BOLB   C1A34853  11.910  10.411  11.142  0.0192  0.1445  0.2312
 1453BOLB   C2A34854  12.058  10.486  10.844  0.1422  0.2478  0.1021
 1453BOLB   C3A34855  11.983  10.509  10.353  0.3911  0.2168 -0.1331
 1453BOLB   C4A34856  11.907  10.695   9.928  0.2342  0.4578  0.0309
 1453BOLB   C1B34857  11.443  10.063  11.083 -0.0961 -0.0461 -0.0341
 1453BOLB   C2B34858  11.677   9.882  10.817 -0.2566 -0.1443  0.1911
 1453BOLB   C3B34859  11.937   9.630  10.435 -0.0425  0.2653 -0.0789
 1453BOLB   C4B34860  12.208   9.634  10.030 -0.0461 -0.0154 -0.0061
 1453BOLB   NC234861  11.669  10.153   7.268 -0.1565  0.2933  0.2841
 1453BOLB   PO234862  12.054  10.290   7.538 -0.0532  0.3398  0.1523
 1453BOLB   GL334863  11.988  10.222   8.010  0.2559  0.0383  0.1081
 1453BOLB   GL434864  12.043   9.865   8.046 -0.0999  0.3236  0.0957
 1453BOLB   C1C34865  11.965  10.172   8.432 -0.1258 -0.0802  0.3531
 1453BOLB   C2C34866  11.905  10.253   8.763  0.2054 -0.2043 -0.0396
 1453BOLB   C3C34867  11.715  10.247   9.191 -0.4097 -0.0418  0.0260
 1453BOLB   C4C34868  11.739  10.293   9.657 -0.1523  0.1252 -0.2865
 1453BOLB   C1D34869  12.214   9.636   8.377  0.1457 -0.0731  0.0401
 1453BOLB   C2D34870  12.109   9.693   8.860  0.1975  0.0516 -0.3557
 1453BOLB   C3D34871  11.910   9.792   9.161 -0.2820 -0.3178 -0.0138
 1453BOLB   C4D34872  11.847   9.817   9.604 -0.1142 -0.2882  0.2829
 1454BOLB   NC134873  22.283  13.433  13.726  0.1877 -0.1184 -0.0403
 1454BOLB   PO134874  22.637  13.789  13.861  0.0835 -0.1024  0.1886
 1454BOLB   GL134875  22.872  13.571  13.573 -0.1110  0.0527 -0.2177
 1454BOLB   GL234876  22.973  13.826  13.455  0.1042 -0.0719  0.0774
 1454BOLB   C1A34877  23.073  13.223  13.330 -0.2433 -0.1649 -0.0615
 1454BOLB   C2A34878  23.280  13.099  12.926  0.6809  0.0084  0.3470
 1454BOLB   C3A34879  23.525  13.048  12.607 -0.3437 -0.0490  0.0332
 1454BOLB   C4A34880  23.620  13.070  12.114 -0.1293 -0.1542  0.0474
 1454BOLB   C1B34881  22.883  14.028  13.065 -0.0939 -0.2474 -0.0282
 1454BOLB   C2B34882  23.161  14.059  12.723  0.2605 -0.2263 -0.0293
 1454BOLB   C3B34883  23.393  13.923  12.305  0.2919  0.1952  0.2211
 1454BOLB   C4B34884  23.729  13.664  12.025  0.2235 -0.0216 -0.1515
 1454BOLB   NC234885  25.716  12.515  10.411 -0.0184  0.0272  0.0909
 1454BOLB   PO234886  25.531  12.375  10.832 -0.2000 -0.0793  0.0274
 1454BOLB   GL334887  25.330  12.453  11.184  0.1359 -0.2101 -0.1975
 1454BOLB   GL434888  25.534  12.445  11.513  0.1922  0.0038 -0.0303
 1454BOLB   C1C34889  24.984  12.645  11.270 -0.0598 -0.1472 -0.3766
 1454BOLB   C2C34890  24.723  12.718  11.684 -0.0043 -0.1384 -0.2209
 1454BOLB   C3C34891  24.345  12.738  11.725  0.1931 -0.3492 -0.1396
 1454BOLB   C4C34892  23.859  12.828  11.799 -0.1988 -0.1187 -0.0944
 1454BOLB   C1D34893  25.417  12.689  11.829 -0.0167  0.3333 -0.0952
 1454BOLB   C2D34894  25.045  12.701  12.155 -0.2396  0.3646 -0.0617
 1454BOLB   C3D34895  25.173  12.619  12.665  0.2475 -0.0404  0.0806
 1454BOLB   C4D34896  25.198  12.215  12.926  0.1644  0.0199  0.1902
 1455BOLB   NC134897  18.822  21.106  11.934 -0.3778 -0.2646  0.0855
 1455BOLB   PO134898  18.870  20.762  11.655  0.1461  0.1519  0.0685
 1455BOLB   GL134899  18.806  20.973  11.285  0.2361  0.0199 -0.0370
 1455BOLB   GL234900  18.536  21.308  11.406  0.1893  0.2348  0.2825
 1455BOLB   C1A34901  18.986  21.094  10.889 -0.2494 -0.0086 -0.1691
 1455BOLB   C2A34902  19.392  21.211  10.728  0.0121  0.3117  0.0440
 1455BOLB   C3A34903  19.361  21.459  10.461 -0.0825  0.0970  0.1629
 1455BOLB   C4A34904  19.568  21.608  10.077 -0.2764 -0.3174  0.2750
 1455BOLB   C1B34905  18.766  21.486  11.246 -0.0012 -0.1757 -0.1578
 1455BOLB   C2B34906  18.860  21.573  10.821  0.2263 -0.0786  0.1234
 1455BOLB   C3B34907  18.886  21.612  10.364  0.2225 -0.1386 -0.0426
 1455BOLB   C4B34908  19.089  21.328  10.057 -0.0940 -0.0596  0.0530
 1455BOLB   NC234909  20.519  20.451   7.921  0.1414  0.0416 -0.4143
 1455BOLB   PO234910  20.678  20.740   8.032 -0.3884 -0.4734  0.1882
 1455BOLB   GL334911  20.699  20.731   8.487 -0.0098 -0.0821 -0.0840
 1455BOLB   GL434912  20.881  20.972   8.744 -0.0215 -0.2086  0.2230
 1455BOLB   C1C34913  20.303  20.970   8.728 -0.0970 -0.0192  0.1682
 1455BOLB   C2C34914  20.056  21.197   8.924  0.0118 -0.1298 -0.1864
 1455BOLB   C3C34915  19.920  21.281   9.357 -0.2452  0.2842  0.0177
 1455BOLB   C4C34916  19.734  21.512   9.719 -0.4083  0.2476 -0.0204
 1455BOLB   C1D34917  20.618  21.136   9.110 -0.1231  0.3057  0.1442
 1455BOLB   C2D34918  20.403  21.263   9.425  0.0347  0.1393 -0.0389
 1455BOLB   C3D34919  20.325  21.477   9.799  0.2715 -0.1108 -0.1639
 1455BOLB   C4D34920  20.056  21.477  10.121 -0.4221  0.0585  0.1212
 1456BOLB   NC134921  23.240  17.288  14.338 -0.1204 -0.2531  0.0075
 1456BOLB   PO134922  22.991  16.970  14.124  0.1826  0.3349 -0.3970
 1456BOLB   GL134923  23.202  17.165  13.756 -0.1152  0.0616  0.0278
 1456BOLB   GL234924  23.292  17.473  13.752 -0.0829 -0.0793  0.1486
 1456BOLB   C1A34925  23.645  17.077  13.528 -0.0524 -0.1867  0.0789
 1456BOLB   C2A34926  24.026  17.304  13.417 -0.1793 -0.3832  0.2096
 1456BOLB   C3A34927  24.345  17.398  13.042 -0.0166  0.1041  0.1695
 1456BOLB   C4A34928  24.670  17.545  13.335  0.0027 -0.3702  0.1030
 1456BOLB   C1B34929  23.585  17.553  13.354  0.2833 -0.2691  0.0715
 1456BOLB   C2B34930  23.774  17.611  12.948 -0.0587  0.1019  0.1393
 1456BOLB   C3B34931  23.742  18.039  12.614 -0.1298 -0.0584 -0.2115
 1456BOLB   C4B34932  23.652  18.006  12.186 -0.2114 -0.0237 -0.0943
 1456BOLB   NC234933  27.093  18.168  12.698 -0.1081  0.2298  0.4360
 1456BOLB   PO234934  26.757  17.982  12.389  0.0053 -0.1269 -0.0794
 1456BOLB   GL334935  26.461  17.569  12.643  0.2355  0.1453 -0.1070
 1456BOLB   GL434936  26.235  17.473  12.547 -0.0713 -0.1590 -0.1692
 1456BOLB   C1C34937  26.242  17.532  13.043  0.1411 -0.0165  0.0194
 1456BOLB   C2C34938  25.890  17.647  13.254  0.3295  0.2035 -0.1430
 1456BOLB   C3C34939  25.455  17.542  13.360 -0.5401  0.0060 -0.0376
 1456BOLB   C4C34940  25.122  17.691  13.371 -0.3182 -0.0168 -0.3037
 1456BOLB   C1D34941  25.949  17.219  12.731  0.1957 -0.1162 -0.0883
 1456BOLB   C2D34942  25.849  16.823  12.804  0.4920  0.1090 -0.1224
 1456BOLB   C3D34943  25.385  16.590  12.879  0.0840  0.1250 -0.2472
 1456BOLB   C4D34944  25.296  16.264  12.672  0.2007  0.0216 -0.1758
 1457BOLB   NC134945  20.764  19.285  12.430 -0.1717  0.0253  0.2190
 1457BOLB   PO134946  20.429  19.054  12.164 -0.0979  0.2539  0.1591
 1457BOLB   GL134947  20.588  19.023  11.798 -0.0439 -0.2182 -0.2582
 1457BOLB   GL234948  20.331  19.030  11.690  0.1493 -0.0618  0.0830
 1457BOLB   C1A34949  20.922  18.798  11.607  0.0194  0.0778  0.0544
 1457BOLB   C2A34950  21.127  18.861  11.316 -0.0386  0.1139 -0.0962
 1457BOLB   C3A34951  21.376  18.888  11.025  0.2015 -0.1081 -0.1935
 1457BOLB   C4A34952  21.634  18.836  10.682 -0.0170  0.0879 -0.0315
 1457BOLB   C1B34953  20.697  19.138  11.305  0.2933  0.2200 -0.2157
 1457BOLB   C2B34954  20.882  19.498  11.051  0.3435  0.0077 -0.0321
 1457BOLB   C3B34955  20.914  19.687  10.705 -0.1267 -0.0504  0.2423
 1457BOLB   C4B34956  21.149  19.593  10.374 -0.1612 -0.1004 -0.0464
 1457BOLB   NC234957  22.256  20.604   8.896 -0.2894  0.2640  0.0933
 1457BOLB   PO234958  22.363  20.150   8.888  0.0402  0.0907  0.0370
 1457BOLB   GL334959  22.293  20.108   9.291 -0.4213  0.2380 -0.1845
 1457BOLB   GL434960  22.251  20.544   9.410  0.0178 -0.1869  0.2613
 1457BOLB   C1C34961  22.163  19.938   9.684 -0.0551  0.0080 -0.1346
 1457BOLB   C2C34962  21.998  19.682  10.038 -0.1426  0.1693  0.1859
 1457BOLB   C3C34963  22.067  19.313  10.214 -0.2180 -0.0580  0.1908
 1457BOLB   C4C34964  21.838  18.978  10.337  0.3253 -0.1472 -0.4212
 1457BOLB   C1D34965  22.431  20.410   9.703 -0.1817  0.1115 -0.2312
 1457BOLB   C2D34966  22.412  20.218  10.097  0.2694  0.2509  0.1930
 1457BOLB   C3D34967  22.469  19.629   9.952 -0.2691 -0.0971  0.0817
 1457BOLB   C4D34968  22.571  19.280  10.240  0.0076 -0.0469  0.2389
 1458BOLB   NC134969  13.324  22.820  12.429 -0.0691 -0.0747  0.2253
 1458BOLB   PO134970  13.509  22.877  12.085 -0.1511 -0.2486  0.0140
 1458BOLB   GL134971  13.385  22.807  11.650  0.0874 -0.1932  0.3005
 1458BOLB   GL234972  13.591  22.954  11.396 -0.1236 -0.0706 -0.0835
 1458BOLB   C1A34973  13.047  23.094  11.474 -0.1279 -0.1533  0.2257
 1458BOLB   C2A34974  13.045  23.478  11.255  0.1640 -0.3229  0.0276
 1458BOLB   C3A34975  13.258  23.695  11.008 -0.2777  0.1214  0.1139
 1458BOLB   C4A34976  13.223  24.101  10.938 -0.0537 -0.4755  0.2988
 1458BOLB   C1B34977  13.657  23.457  11.381  0.0318  0.0824 -0.0251
 1458BOLB   C2B34978  13.701  23.902  11.247 -0.2331 -0.0142  0.0576
 1458BOLB   C3B34979  13.627  24.373  10.958  0.0110 -0.1145 -0.0231
 1458BOLB   C4B34980  13.657  24.696  10.690 -0.1204 -0.0218  0.3023
 1458BOLB   NC234981  12.497  26.503   9.790  0.1091 -0.0050  0.2226
 1458BOLB   PO234982  12.222  26.110   9.764 -0.0539  0.0484 -0.3041
 1458BOLB   GL334983  12.536  25.884   9.966 -0.0722 -0.1430 -0.1723
 1458BOLB   GL434984  12.813  26.091   9.939  0.2573  0.1613 -0.0212
 1458BOLB   C1C34985  12.489  25.522  10.306  0.1021  0.2942  0.0218
 1458BOLB   C2C34986  12.665  25.072  10.620  0.1885  0.0052 -0.1269
 1458BOLB   C3C34987  12.666  24.704  10.643 -0.3861 -0.1925 -0.0104
 1458BOLB   C4C34988  12.830  24.319  10.863 -0.6191  0.0115  0.1800
 1458BOLB   C1D34989  12.979  25.766  10.179  0.2039  0.2170  0.4864
 1458BOLB   C2D34990  13.035  25.599  10.485  0.1944 -0.1700 -0.0261
 1458BOLB   C3D34991  13.023  25.675  10.919 -0.2112 -0.1738 -0.1507
 1458BOLB   C4D34992  12.895  25.741  11.304 -0.1346 -0.1740 -0.1039
 1459BOLB   NC134993  12.331  16.348  11.413  0.0827  0.1059 -0.0560
 1459BOLB   PO134994  11.883  16.543  11.354  0.1245  0.1131 -0.0540
 1459BOLB   GL134995  11.846  16.197  11.127 -0.1483  0.1949 -0.0176
 1459BOLB   GL234996  12.182  16.042  11.054 -0.0201  0.1894  0.1811
 1459BOLB   C1A34997  11.754  16.008  10.670  0.1763  0.1752 -0.1462
 1459BOLB   C2A34998  11.582  15.790  10.237  0.3714 -0.2113  0.2369
 1459BOLB   C3A34999  11.881  15.694   9.821  0.3531  0.1409  0.1864
 1459BOLB   C4A35000  11.903  15.907   9.439  0.0798  0.3179  0.1391
 1459BOLB   C1B35001  12.130  15.700  10.752  0.1414  0.0848 -0.0011
 1459BOLB   C2B35002  11.983  15.521  10.330  0.0285  0.0757 -0.3168
 1459BOLB   C3B35003  12.080  15.257  10.004 -0.1310 -0.0540 -0.0575
 1459BOLB   C4B35004  11.895  14.875   9.964 -0.2253 -0.1252  0.3007
 1459BOLB   NC235005  11.342  17.347   7.458 -0.1123 -0.0146  0.2079
 1459BOLB   PO235006  10.917  17.286   7.453  0.1736 -0.2140 -0.0576
 1459BOLB   GL335007  11.047  17.318   7.868 -0.2568  0.2251  0.1249
 1459BOLB   GL435008  10.855  17.291   8.042 -0.0332  0.0307 -0.0853
 1459BOLB   C1C35009  11.214  16.985   8.254 -0.1705  0.1864  0.1238
 1459BOLB   C2C35010  11.618  16.854   8.479  0.1730 -0.0110 -0.2507
 1459BOLB   C3C35011  11.718  16.497   8.870  0.0931 -0.0644  0.1141
 1459BOLB   C4C35012  11.862  16.099   9.003  0.0341 -0.0480 -0.1773
 1459BOLB   C1D35013  10.612  17.629   8.306 -0.0676  0.0927  0.1456
 1459BOLB   C2D35014  10.316  17.550   8.640  0.1304  0.0458  0.1080
 1459BOLB   C3D35015  10.549  17.714   8.958 -0.1243 -0.2515  0.0020
 1459BOLB   C4D35016  10.750  18.048   9.107 -0.0150  0.0144 -0.2555
 1460BOLB   NC135017  16.848  16.267  12.204 -0.0639 -0.2278 -0.2023
 1460BOLB   PO135018  16.794  16.192  11.727  0.2122 -0.1263 -0.0431
 1460BOLB   GL135019  16.799  16.243  11.258  0.0261 -0.0413  0.0828
 1460BOLB   GL235020  16.519  16.247  11.048 -0.1205 -0.1346  0.1328
 1460BOLB   C1A35021  16.955  16.261  10.886  0.1071 -0.2858  0.0328
 1460BOLB   C2A35022  16.959  16.220  10.398 -0.1095 -0.0696  0.0253
 1460BOLB   C3A35023  17.108  16.390  10.064 -0.2743 -0.0126 -0.5367
 1460BOLB   C4A35024  17.229  15.990   9.784 -0.1990  0.2788 -0.2493
 1460BOLB   C1B35025  16.477  16.281  10.520 -0.3055  0.0179 -0.0998
 1460BOLB   C2B35026  16.517  16.124  10.055 -0.1351  0.1729 -0.0081
 1460BOLB   C3B35027  16.811  16.145   9.710  0.2293 -0.3242  0.1231
 1460BOLB   C4B35028  16.715  16.128   9.242 -0.1052  0.0488 -0.0908
 1460BOLB   NC235029  17.922  15.148   7.210  0.0166 -0.0657 -0.1906
 1460BOLB   PO235030  17.505  15.108   7.339 -0.1129 -0.2731 -0.0024
 1460BOLB   GL335031  17.275  15.097   7.773  0.0354  0.0927  0.0454
 1460BOLB   GL435032  16.973  15.285   7.691  0.0896 -0.1523 -0.1170
 1460BOLB   C1C35033  17.218  15.199   8.245  0.0697 -0.1099  0.3218
 1460BOLB   C2C35034  17.188  15.402   8.656  0.0361  0.2631  0.0330
 1460BOLB   C3C35035  17.043  15.773   9.020 -0.0352 -0.1599  0.1446
 1460BOLB   C4C35036  17.030  15.803   9.440 -0.3655 -0.1645  0.1928
 1460BOLB   C1D35037  16.837  15.443   8.009 -0.2763 -0.1298  0.1704
 1460BOLB   C2D35038  16.701  15.349   8.392  0.1035  0.1871 -0.0030
 1460BOLB   C3D35039  16.350  15.300   8.631  0.0793 -0.1407  0.1068
 1460BOLB   C4D35040  16.219  15.438   9.062 -0.0385  0.0835  0.3479
 1461BOLB   NC135041  12.416  22.422  13.161 -0.2166  0.2328  0.0193
 1461BOLB   PO135042  12.411  22.531  12.795  0.2817  0.0471  0.0269
 1461BOLB   GL135043  12.192  22.875  12.504  0.0440 -0.0845 -0.2729
 1461BOLB   GL235044  12.071  22.767  12.236 -0.1508  0.1630  0.1749
 1461BOLB   C1A35045  12.099  23.282  12.308  0.0130  0.2671  0.0444
 1461BOLB   C2A35046  12.052  23.681  12.181  0.0792 -0.0857  0.3572
 1461BOLB   C3A35047  11.967  24.024  11.892 -0.0876 -0.1221 -0.1941
 1461BOLB   C4A35048  11.862  24.172  11.521 -0.1848  0.0915  0.1940
 1461BOLB   C1B35049  11.845  23.034  11.865 -0.2568 -0.3713 -0.1199
 1461BOLB   C2B35050  11.678  23.249  11.438 -0.1261 -0.2153  0.0754
 1461BOLB   C3B35051  11.631  23.392  11.082 -0.0492 -0.0558 -0.3151
 1461BOLB   C4B35052  11.477  23.370  10.678  0.2553 -0.2231 -0.1993
 1461BOLB   NC235053  11.240  26.046   9.953 -0.0398  0.0269 -0.0494
 1461BOLB   PO235054  11.526  26.186  10.252  0.1232 -0.2589  0.0694
 1461BOLB   GL335055  11.436  25.825  10.408  0.2729 -0.0115  0.1050
 1461BOLB   GL435056  11.557  25.668  10.124 -0.1388  0.2770 -0.3074
 1461BOLB   C1C35057  11.598  25.537  10.818  0.0062 -0.0400  0.0810
 1461BOLB   C2C35058  11.830  25.217  10.888 -0.3135 -0.0556 -0.2752
 1461BOLB   C3C35059  11.827  24.751  11.028  0.2306  0.2524  0.1580
 1461BOLB   C4C35060  11.837  24.384  11.156  0.3355  0.2768 -0.2068
 1461BOLB   C1D35061  11.834  25.463  10.385 -0.2310 -0.0190 -0.0583
 1461BOLB   C2D35062  12.223  25.478  10.718 -0.0531 -0.0301  0.2427
 1461BOLB   C3D35063  12.540  25.325  11.065 -0.1006 -0.1000 -0.0479
 1461BOLB   C4D35064  12.919  25.154  11.086 -0.0407 -0.1664  0.3997
 1462BOLB   NC135065  11.268  11.350  11.935  0.1531 -0.3861  0.1871
 1462BOLB   PO135066  11.313  10.907  11.933  0.1544 -0.2796 -0.0021
 1462BOLB   GL135067  11.299  11.049  11.544  0.0201  0.2509 -0.0265
 1462BOLB   GL235068  11.443  11.373  11.441 -0.1828 -0.0414 -0.0032
 1462BOLB   C1A35069  11.014  10.954  11.146  0.2546  0.4504  0.0495
 1462BOLB   C2A35070  10.768  10.879  10.742 -0.1224 -0.0065 -0.3061
 1462BOLB   C3A35071  10.652  11.086  10.301  0.3703 -0.0285 -0.2879
 1462BOLB   C4A35072  10.364  11.164   9.930 -0.3298  0.2897  0.2167
 1462BOLB   C1B35073  11.525  11.204  11.053 -0.1604 -0.2095 -0.3833
 1462BOLB   C2B35074  11.370  11.117  10.682 -0.0388  0.1799 -0.1987
 1462BOLB   C3B35075  11.116  11.248  10.335  0.1341 -0.1570  0.0242
 1462BOLB   C4B35076  10.829  11.342   9.900  0.0120  0.2030 -0.2378
 1462BOLB   NC235077  10.652  12.673   7.420 -0.1729 -0.0080 -0.1268
 1462BOLB   PO235078  10.288  12.361   7.754 -0.0038  0.1804 -0.1618
 1462BOLB   GL335079  10.302  12.367   8.168  0.1510  0.0765  0.2063
 1462BOLB   GL435080  10.565  12.514   8.394 -0.2520  0.1682  0.1889
 1462BOLB   C1C35081  10.293  12.106   8.565  0.1479  0.0026 -0.1776
 1462BOLB   C2C35082  10.324  11.661   8.828 -0.0579 -0.1772  0.1234
 1462BOLB   C3C35083  10.167  11.572   9.279  0.2337 -0.1474 -0.2503
 1462BOLB   C4C35084  10.210  11.252   9.593 -0.0285  0.2199 -0.0162
 1462BOLB   C1D35085  10.455  12.555   8.858 -0.3023 -0.0328  0.0183
 1462BOLB   C2D35086  10.698  12.484   9.271  0.2394  0.0311 -0.2831
 1462BOLB   C3D35087  10.817  12.912   9.452  0.1009  0.4502 -0.0805
 1462BOLB   C4D35088  10.725  13.184   9.746  0.0377  0.1565  0.3041
 1463BOLB   NC135089  12.624   9.674  12.228  0.0162 -0.0350 -0.0835
 1463BOLB   PO135090  12.266   9.341  12.180 -0.2347 -0.0616  0.0092
 1463BOLB   GL135091  12.109   9.363  11.700 -0.0103 -0.1396  0.1129
 1463BOLB   GL235092  11.963   9.692  11.703 -0.1547  0.1508  0.1316
 1463BOLB   C1A35093  12.166   9.220  11.330 -0.1297  0.0307 -0.1071
 1463BOLB   C2A35094  12.181   8.967  10.875  0.2734  0.3548  0.0364
 1463BOLB   C3A35095  12.551   8.730  10.533 -0.0008  0.2056 -0.1873
 1463BOLB   C4A35096  12.584   8.946  10.183  0.2833  0.2060 -0.1060
 1463BOLB   C1B35097  11.886   9.732  11.249 -0.1033  0.0231  0.1159
 1463BOLB   C2B35098  12.106   9.968  11.116  0.3225  0.1437  0.2090
 1463BOLB   C3B35099  12.171  10.055  10.682  0.2114 -0.0879 -0.0029
 1463BOLB   C4B35100  12.475  10.313  10.525  0.0617  0.1500 -0.2526
 1463BOLB   NC235101  12.307   8.401   7.835 -0.3586  0.0280  0.1213
 1463BOLB   PO235102  12.655   8.593   8.037  0.0163  0.1682  0.1783
 1463BOLB   GL335103  12.798   8.763   8.346  0.1272 -0.0607 -0.1965
 1463BOLB   GL435104  12.657   9.067   8.483 -0.0850  0.0672 -0.3004
 1463BOLB   C1C35105  13.050   8.756   8.622  0.1765 -0.1824 -0.2201
 1463BOLB   C2C35106  12.912   9.054   9.021  0.0056 -0.1796  0.1415
 1463BOLB   C3C35107  12.698   9.257   9.395  0.1305 -0.2343  0.1546
 1463BOLB   C4C35108  12.691   9.221   9.834  0.0376 -0.4269 -0.2199
 1463BOLB   C1D35109  12.595   8.687   8.832  0.0453 -0.2720 -0.2927
 1463BOLB   C2D35110  12.419   8.744   9.248  0.2328  0.0685 -0.1504
 1463BOLB   C3D35111  12.230   8.991   9.591  0.0792  0.2778  0.0390
 1463BOLB   C4D35112  12.098   9.152  10.013 -0.1221  0.0476  0.1689
 1464BOLB   NC135113  23.143  14.664  14.099 -0.0944  0.1003  0.1925
 1464BOLB   PO135114  23.210  14.318  14.326  0.1525  0.2854 -0.2570
 1464BOLB   GL135115  23.586  14.279  14.043 -0.1680 -0.0038 -0.0015
 1464BOLB   GL235116  23.582  14.573  13.790 -0.2005  0.1079  0.0978
 1464BOLB   C1A35117  23.925  14.201  13.696  0.1773  0.1196  0.0212
 1464BOLB   C2A35118  24.236  14.227  13.366  0.2127 -0.0601 -0.1509
 1464BOLB   C3A35119  24.315  14.563  13.009  0.0493  0.0837 -0.0685
 1464BOLB   C4A35120  24.359  14.552  12.525 -0.2036  0.2994 -0.0019
 1464BOLB   C1B35121  23.415  14.241  13.529  0.2284 -0.1301  0.0378
 1464BOLB   C2B35122  23.370  14.097  13.214  0.1418  0.1023  0.1249
 1464BOLB   C3B35123  23.549  13.722  12.904  0.4233  0.2391 -0.2981
 1464BOLB   C4B35124  23.536  13.502  12.499 -0.1045  0.0025 -0.0303
 1464BOLB   NC235125  26.343  13.572  11.261 -0.1601 -0.1399 -0.0751
 1464BOLB   PO235126  25.970  13.278  11.111 -0.1766 -0.0739 -0.0568
 1464BOLB   GL335127  25.519  13.394  11.105 -0.0479  0.3299  0.3580
 1464BOLB   GL435128  25.385  13.138  11.146  0.2307 -0.2375 -0.2878
 1464BOLB   C1C35129  25.355  13.700  11.361  0.1875 -0.0567  0.1961
 1464BOLB   C2C35130  25.061  13.968  11.704 -0.2342 -0.1602 -0.1898
 1464BOLB   C3C35131  24.676  14.142  11.782 -0.0051 -0.0985 -0.1048
 1464BOLB   C4C35132  24.449  14.245  12.158  0.1837  0.2635 -0.2303
 1464BOLB   C1D35133  25.155  13.024  11.519  0.1237 -0.1581 -0.0009
 1464BOLB   C2D35134  25.008  13.138  11.925  0.0462 -0.1391 -0.1245
 1464BOLB   C3D35135  25.104  13.382  12.243  0.0404  0.1257 -0.1838
 1464BOLB   C4D35136  24.832  13.562  12.464 -0.0351 -0.0997  0.0005
 1465BOLB   NC135137  22.081  17.206  12.968  0.0762 -0.0176 -0.1753
 1465BOLB   PO135138  22.002  17.630  13.103  0.2834 -0.2932  0.0832
 1465BOLB   GL135139  22.174  17.800  12.726 -0.2105 -0.0959  0.0854
 1465BOLB   GL235140  22.044  17.638  12.543  0.0281  0.2210 -0.0896
 1465BOLB   C1A35141  22.537  17.983  12.519  0.4611 -0.3062  0.1548
 1465BOLB   C2A35142  22.629  18.151  12.113 -0.3149 -0.1615 -0.1098
 1465BOLB   C3A35143  22.916  18.303  11.789 -0.1673  0.2631 -0.0248
 1465BOLB   C4A35144  22.987  18.263  11.425 -0.2193  0.1281  0.1462
 1465BOLB   C1B35145  22.055  17.781  12.118 -0.1779 -0.0996  0.0600
 1465BOLB   C2B35146  22.290  17.869  11.733 -0.0555 -0.1339 -0.0419
 1465BOLB   C3B35147  22.508  18.157  11.571 -0.0477 -0.1454  0.2622
 1465BOLB   C4B35148  22.418  18.342  11.172  0.0273  0.2077 -0.1279
 1465BOLB   NC235149  23.463  18.544   8.968  0.0157 -0.0790 -0.1221
 1465BOLB   PO235150  23.572  18.270   9.192  0.0360  0.0785 -0.2412
 1465BOLB   GL335151  23.503  18.220   9.642  0.2367  0.0513 -0.2277
 1465BOLB   GL435152  23.234  17.945   9.541  0.3342  0.0219 -0.2285
 1465BOLB   C1C35153  23.513  18.189  10.005  0.0396  0.1682  0.0808
 1465BOLB   C2C35154  23.359  18.100  10.422 -0.2295  0.4564 -0.5200
 1465BOLB   C3C35155  23.146  18.346  10.710 -0.1197  0.1973  0.1436
 1465BOLB   C4C35156  23.220  18.429  11.101  0.1891  0.1914  0.0175
 1465BOLB   C1D35157  22.815  18.026   9.415  0.1727  0.2551  0.0313
 1465BOLB   C2D35158  22.477  18.177   9.354 -0.0449  0.0446 -0.0424
 1465BOLB   C3D35159  22.138  18.487   9.475 -0.0932  0.1301 -0.0981
 1465BOLB   C4D35160  21.711  18.411   9.568 -0.1052  0.0174  0.2412
 1466BOLB   NC135161  21.646  13.997  13.330  0.0195 -0.0613  0.2006
 1466BOLB   PO135162  21.993  14.354  13.440  0.1216  0.0627  0.1209
 1466BOLB   GL135163  22.035  14.171  12.961  0.0717 -0.1630 -0.1646
 1466BOLB   GL235164  22.107  14.479  12.808  0.0972 -0.0113  0.0418
 1466BOLB   C1A35165  22.282  13.905  12.754  0.1948  0.0068  0.2089
 1466BOLB   C2A35166  22.643  13.929  12.458 -0.0987 -0.0372  0.2932
 1466BOLB   C3A35167  22.959  13.935  12.089  0.0209  0.0583 -0.6764
 1466BOLB   C4A35168  23.320  13.849  11.790 -0.1013  0.2685  0.1310
 1466BOLB   C1B35169  22.134  14.333  12.382 -0.1783 -0.0163  0.4633
 1466BOLB   C2B35170  22.460  14.341  12.158 -0.0004  0.0036  0.2447
 1466BOLB   C3B35171  22.665  14.352  11.743  0.1510 -0.0223  0.1487
 1466BOLB   C4B35172  22.813  14.262  11.321  0.0237 -0.0482 -0.0315
 1466BOLB   NC235173  24.098  14.170   9.553 -0.2996 -0.2164  0.0953
 1466BOLB   PO235174  23.899  13.789   9.638  0.1122  0.0827 -0.1826
 1466BOLB   GL335175  23.598  13.696   9.882  0.2015 -0.0070 -0.0947
 1466BOLB   GL435176  23.290  13.619   9.671 -0.0100  0.3498  0.1528
 1466BOLB   C1C35177  23.342  13.708  10.157 -0.0252 -0.1816  0.0256
 1466BOLB   C2C35178  23.421  13.644  10.648 -0.0093  0.0860  0.3342
 1466BOLB   C3C35179  23.455  13.809  11.101 -0.1937 -0.0799  0.0297
 1466BOLB   C4C35180  23.570  13.745  11.522 -0.1023  0.1302  0.0585
 1466BOLB   C1D35181  22.945  13.651   9.918  0.0780  0.0461 -0.0681
 1466BOLB   C2D35182  22.899  13.896  10.292  0.0982 -0.1958 -0.0796
 1466BOLB   C3D35183  22.608  13.974  10.499 -0.1664  0.2527 -0.1285
 1466BOLB   C4D35184  22.220  14.242  10.444  0.1958 -0.0578  0.4461
 1467BOLB   NC135185  20.937  16.167  12.181 -0.1280 -0.0474  0.0421
 1467BOLB   PO135186  21.256  15.924  12.363 -0.1098 -0.2762  0.0959
 1467BOLB   GL135187  21.275  15.900  11.955  0.3194  0.3214 -0.0043
 1467BOLB   GL235188  21.572  15.996  11.968 -0.1652 -0.1757  0.1525
 1467BOLB   C1A35189  21.250  15.859  11.517 -0.0993 -0.3307  0.0217
 1467BOLB   C2A35190  21.513  15.725  11.061 -0.1996 -0.2213  0.1134
 1467BOLB   C3A35191  21.554  15.821  10.663 -0.2011  0.0916 -0.2467
 1467BOLB   C4A35192  21.480  15.753  10.241 -0.1040 -0.1229  0.0783
 1467BOLB   C1B35193  21.726  15.904  11.508 -0.1821 -0.1840 -0.1679
 1467BOLB   C2B35194  21.962  15.922  11.157  0.1371  0.2301  0.6214
 1467BOLB   C3B35195  22.053  16.012  10.689  0.2221 -0.1315  0.1621
 1467BOLB   C4B35196  22.326  15.995  10.338 -0.0233  0.0725 -0.0892
 1467BOLB   NC235197  23.139  16.930   8.653  0.2363  0.3265 -0.1679
 1467BOLB   PO235198  23.276  16.605   8.884 -0.1077 -0.2206 -0.1460
 1467BOLB   GL335199  22.977  16.594   9.207  0.1147 -0.1808  0.3729
 1467BOLB   GL435200  23.217  16.601   9.487  0.0227  0.1826  0.0617
 1467BOLB   C1C35201  22.543  16.635   9.384 -0.1716  0.0311  0.1342
 1467BOLB   C2C35202  22.245  16.514   9.692 -0.0231  0.0520  0.2111
 1467BOLB   C3C35203  21.835  16.309   9.828  0.2609  0.3827 -0.1280
 1467BOLB   C4C35204  21.624  15.922   9.871 -0.1817 -0.1390  0.2784
 1467BOLB   C1D35205  22.933  16.613   9.852 -0.0422  0.2124  0.0134
 1467BOLB   C2D35206  22.518  16.537  10.164  0.3910  0.2754  0.1122
 1467BOLB   C3D35207  22.060  16.461  10.233  0.2619 -0.2456  0.2899
 1467BOLB   C4D35208  21.758  16.644  10.513  0.0312  0.0855  0.1180
 1468BOLB   NC135209  19.558  18.627  11.918  0.1065 -0.0333  0.0199
 1468BOLB   PO135210  19.992  18.807  11.952 -0.3827 -0.0931 -0.0625
 1468BOLB   GL135211  19.904  18.783  11.505  0.2314  0.0001  0.0299
 1468BOLB   GL235212  19.778  18.404  11.463  0.5842  0.1055 -0.2192
 1468BOLB   C1A35213  20.124  18.993  11.257 -0.5047  0.0354 -0.2856
 1468BOLB   C2A35214  20.403  19.114  10.867  0.2177  0.1824  0.0964
 1468BOLB   C3A35215  20.908  19.065  10.871  0.2027 -0.0551  0.2288
 1468BOLB   C4A35216  21.143  19.016  10.519  0.2463 -0.0765  0.0090
 1468BOLB   C1B35217  19.966  18.494  11.102  0.1345  0.1805 -0.4403
 1468BOLB   C2B35218  20.205  18.649  10.888  0.0069 -0.0188  0.0477
 1468BOLB   C3B35219  20.239  18.790  10.469 -0.0542 -0.1283  0.3580
 1468BOLB   C4B35220  20.241  19.087  10.138  0.3438 -0.0235 -0.1633
 1468BOLB   NC235221  23.132  19.647   8.854  0.2455 -0.2347 -0.0254
 1468BOLB   PO235222  23.049  19.263   8.730 -0.3095  0.0997  0.0171
 1468BOLB   GL335223  22.775  19.406   9.111  0.1645 -0.3123  0.0776
 1468BOLB   GL435224  22.965  19.490   9.301 -0.0729  0.5186 -0.0593
 1468BOLB   C1C35225  22.429  19.480   9.434  0.1084 -0.1949 -0.2594
 1468BOLB   C2C35226  22.051  19.430   9.607  0.1998  0.0792  0.1926
 1468BOLB   C3C35227  21.704  19.246   9.836 -0.0133  0.1434 -0.0154
 1468BOLB   C4C35228  21.460  19.333  10.189  0.1044  0.0953 -0.0381
 1468BOLB   C1D35229  22.840  19.301   9.722  0.0612 -0.1590 -0.0830
 1468BOLB   C2D35230  22.406  19.167   9.807  0.0075 -0.0102  0.0657
 1468BOLB   C3D35231  22.154  18.917   9.780 -0.3496 -0.0637  0.1175
 1468BOLB   C4D35232  21.857  18.869   9.484 -0.4511 -0.2279  0.0043
 1469BOLB   NC135233  21.009  13.452  12.977 -0.0602  0.0349  0.3303
 1469BOLB   PO135234  21.397  13.536  13.124  0.0126 -0.0430  0.1108
 1469BOLB   GL135235  21.542  13.388  12.720  0.1304 -0.1536  0.1237
 1469BOLB   GL235236  21.373  13.391  12.445 -0.0915 -0.0553  0.1242
 1469BOLB   C1A35237  21.825  13.437  12.560  0.1341  0.1681  0.0259
 1469BOLB   C2A35238  22.054  13.390  12.179 -0.2237  0.2080 -0.0392
 1469BOLB   C3A35239  22.137  13.575  11.766 -0.3066  0.1948  0.3435
 1469BOLB   C4A35240  22.161  13.435  11.352  0.1084 -0.1749 -0.2320
 1469BOLB   C1B35241  21.604  13.295  12.128  0.3060 -0.1955 -0.0762
 1469BOLB   C2B35242  21.640  13.379  11.716 -0.1640 -0.0524 -0.1442
 1469BOLB   C3B35243  21.712  13.224  11.292 -0.0031  0.1824 -0.1350
 1469BOLB   C4B35244  21.705  12.939  10.947 -0.0491  0.0093 -0.2007
 1469BOLB   NC235245  22.124  13.085   8.866 -0.0345  0.0482 -0.1469
 1469BOLB   PO235246  22.553  13.171   8.756  0.3918  0.3592  0.0107
 1469BOLB   GL335247  22.416  13.384   9.112 -0.0901 -0.0396 -0.1397
 1469BOLB   GL435248  22.165  13.465   9.317 -0.0626  0.1050  0.0840
 1469BOLB   C1C35249  22.488  13.319   9.668  0.3403 -0.1538  0.2348
 1469BOLB   C2C35250  22.569  13.221  10.045  0.1261  0.0158  0.1235
 1469BOLB   C3C35251  22.399  13.372  10.363 -0.2742  0.0858 -0.1137
 1469BOLB   C4C35252  22.275  13.417  10.876 -0.1013 -0.0359 -0.0170
 1469BOLB   C1D35253  21.961  13.740   9.516 -0.2087 -0.4792  0.0211
 1469BOLB   C2D35254  21.878  14.015   9.835  0.2947  0.2495  0.0085
 1469BOLB   C3D35255  21.762  14.321  10.193  0.2494 -0.0516 -0.0178
 1469BOLB   C4D35256  21.572  14.436  10.632 -0.2343  0.0319 -0.2178
 1470BOLB   NC135257  15.644  13.164  11.632  0.0576 -0.1926 -0.0439
 1470BOLB   PO135258  15.987  13.038  11.723  0.0436 -0.1830 -0.5358
 1470BOLB   GL135259  16.018  12.933  11.285  0.0435  0.1473 -0.1997
 1470BOLB   GL235260  16.315  12.674  11.222 -0.0269  0.0218  0.2125
 1470BOLB   C1A35261  16.198  12.958  10.821 -0.0088  0.4815  0.0836
 1470BOLB   C2A35262  16.274  13.104  10.497 -0.1661 -0.0744 -0.0022
 1470BOLB   C3A35263  16.278  13.020  10.090  0.2922  0.0920  0.0051
 1470BOLB   C4A35264  16.313  12.911   9.637 -0.0213  0.0512  0.1929
 1470BOLB   C1B35265  16.474  12.347  10.853 -0.0455 -0.0056  0.0187
 1470BOLB   C2B35266  16.501  12.062  10.497 -0.2715 -0.0176 -0.0127
 1470BOLB   C3B35267  16.533  11.818  10.219 -0.0809  0.0909  0.2081
 1470BOLB   C4B35268  16.237  11.595   9.998 -0.3177 -0.3176 -0.1386
 1470BOLB   NC235269  17.556  13.435   7.496  0.0232  0.1312  0.3413
 1470BOLB   PO235270  17.096  13.490   7.443  0.2197  0.2402  0.0008
 1470BOLB   GL335271  17.016  13.556   7.874 -0.1395  0.1022  0.0144
 1470BOLB   GL435272  17.311  13.713   7.982  0.1951  0.2686  0.5553
 1470BOLB   C1C35273  17.058  13.404   8.287 -0.0821  0.1089 -0.1217
 1470BOLB   C2C35274  16.865  13.402   8.637  0.2812 -0.1454 -0.2332
 1470BOLB   C3C35275  16.650  12.947   8.678  0.0198 -0.0755  0.0275
 1470BOLB   C4C35276  16.520  12.757   9.222 -0.0539  0.0850  0.0770
 1470BOLB   C1D35277  16.909  13.975   8.141  0.0403 -0.1253  0.0504
 1470BOLB   C2D35278  16.808  13.934   8.629 -0.0331 -0.0123  0.2950
 1470BOLB   C3D35279  16.731  14.222   8.960 -0.1276 -0.0330  0.0375
 1470BOLB   C4D35280  16.603  14.211   9.362 -0.3196 -0.0861  0.0085
 1471BOLB   NC135281  19.827  24.536  14.430  0.1815  0.0924  0.2068
 1471BOLB   PO135282  19.951  24.530  14.823 -0.0887 -0.0562  0.0648
 1471BOLB   GL135283  20.381  24.464  14.559  0.0277  0.1605  0.1180
 1471BOLB   GL235284  20.376  24.348  14.267  0.1301 -0.0408 -0.1438
 1471BOLB   C1A35285  20.804  24.709  14.535 -0.0870  0.0493 -0.0093
 1471BOLB   C2A35286  20.805  25.132  14.373  0.1342  0.0727  0.0446
 1471BOLB   C3A35287  21.106  25.475  14.316  0.0571 -0.0037  0.0318
 1471BOLB   C4A35288  21.531  25.568  14.330  0.0646 -0.0853 -0.1145
 1471BOLB   C1B35289  20.822  24.385  14.047 -0.2407 -0.2234 -0.2016
 1471BOLB   C2B35290  21.238  24.604  14.212  0.3114  0.2600  0.4065
 1471BOLB   C3B35291  21.619  24.749  14.223 -0.2148  0.3435 -0.1786
 1471BOLB   C4B35292  22.054  24.673  14.164  0.1405 -0.0110  0.0190
 1471BOLB   NC235293  22.925  27.601  15.007  0.0549 -0.1591  0.1965
 1471BOLB   PO235294  22.632  27.303  15.077 -0.0382  0.1336 -0.0985
 1471BOLB   GL335295  22.548  26.907  14.955 -0.0482 -0.0202  0.2363
 1471BOLB   GL435296  22.778  26.698  14.970  0.2336 -0.0285  0.1689
 1471BOLB   C1C35297  22.121  26.824  14.805  0.1342 -0.0237 -0.0322
 1471BOLB   C2C35298  21.895  26.487  14.743  0.0732  0.1292  0.1307
 1471BOLB   C3C35299  21.749  26.126  14.800 -0.0477  0.0671 -0.2305
 1471BOLB   C4C35300  21.706  25.706  14.677  0.2439 -0.0550  0.4241
 1471BOLB   C1D35301  22.772  26.304  15.288 -0.3279  0.0816  0.1840
 1471BOLB   C2D35302  22.737  26.025  14.979  0.1567 -0.1031  0.2103
 1471BOLB   C3D35303  22.654  25.685  14.847  0.0665  0.1977 -0.0099
 1471BOLB   C4D35304  22.667  25.203  14.710 -0.2527 -0.0487 -0.1336
 1472BOLB   NC135305  16.179  19.562  11.218  0.1813 -0.2002  0.2060
 1472BOLB   PO135306  15.858  19.836  11.205  0.2797  0.1898 -0.0483
 1472BOLB   GL135307  16.123  19.981  10.863  0.1282  0.2485  0.1157
 1472BOLB   GL235308  16.014  20.192  10.758  0.0040  0.1231 -0.0863
 1472BOLB   C1A35309  16.301  19.857  10.528  0.0728 -0.1077  0.0665
 1472BOLB   C2A35310  16.413  19.929  10.033  0.1498  0.1944  0.1456
 1472BOLB   C3A35311  16.567  20.250   9.829 -0.2201  0.0798  0.0074
 1472BOLB   C4A35312  16.590  20.377   9.362 -0.0466  0.1068 -0.0765
 1472BOLB   C1B35313  16.078  20.248  10.313  0.0976 -0.2556  0.2789
 1472BOLB   C2B35314  16.131  20.470   9.996  0.1406 -0.0976 -0.0479
 1472BOLB   C3B35315  16.067  20.807   9.701  0.1893 -0.1009  0.1127
 1472BOLB   C4B35316  16.000  21.032   9.381  0.0770  0.3036 -0.3943
 1472BOLB   NC235317  16.349  21.481   7.283 -0.3453 -0.0583 -0.0466
 1472BOLB   PO235318  16.633  21.523   7.556  0.0283  0.2128 -0.0296
 1472BOLB   GL335319  16.815  21.318   7.814 -0.3650  0.2426  0.4703
 1472BOLB   GL435320  16.584  21.059   7.991  0.1147  0.0367  0.2609
 1472BOLB   C1C35321  17.076  21.318   8.106  0.2430 -0.1772 -0.0211
 1472BOLB   C2C35322  16.971  20.989   8.381  0.1329  0.0885 -0.0710
 1472BOLB   C3C35323  16.878  20.974   8.757 -0.0068  0.2069 -0.2055
 1472BOLB   C4C35324  16.854  20.593   9.066 -0.1777  0.2918  0.4737
 1472BOLB   C1D35325  16.670  21.324   8.345  0.1343 -0.4655  0.1106
 1472BOLB   C2D35326  16.463  21.317   8.760  0.1142 -0.1555 -0.1478
 1472BOLB   C3D35327  16.133  21.350   9.036  0.4294 -0.0320  0.0317
 1472BOLB   C4D35328  15.615  21.566   9.207 -0.1208  0.0891 -0.1091
 1473BOLB   NC135329   8.410  25.438  12.159  0.2377  0.2684 -0.0577
 1473BOLB   PO135330   8.873  25.306  12.387 -0.1098  0.2421  0.1293
 1473BOLB   GL135331   9.347  25.411  12.241  0.0366  0.1888 -0.0794
 1473BOLB   GL235332   9.592  25.673  11.946  0.2474 -0.2537 -0.1842
 1473BOLB   C1A35333   9.717  25.220  12.247 -0.0551  0.1043  0.2343
 1473BOLB   C2A35334  10.188  25.138  12.286  0.3203 -0.3069 -0.2416
 1473BOLB   C3A35335  10.247  24.879  11.883 -0.3854  0.1776  0.1955
 1473BOLB   C4A35336  10.352  24.584  11.524 -0.1221 -0.0169 -0.2454
 1473BOLB   C1B35337   9.840  25.325  11.764  0.0524  0.0208 -0.1571
 1473BOLB   C2B35338  10.053  25.014  11.395  0.1283 -0.2035 -0.0179
 1473BOLB   C3B35339  10.294  25.112  11.051 -0.2501 -0.0262 -0.3559
 1473BOLB   C4B35340  10.301  25.314  10.638 -0.4687  0.2276 -0.0358
 1473BOLB   NC235341   9.546  25.164  10.171  0.1249 -0.1675 -0.1655
 1473BOLB   PO235342   9.589  25.093   9.785  0.0788  0.2243 -0.0981
 1473BOLB   GL335343   9.505  24.660   9.920 -0.0414 -0.0666  0.0511
 1473BOLB   GL435344   9.667  24.491   9.626 -0.3172 -0.0412 -0.0914
 1473BOLB   C1C35345   9.627  24.275  10.074 -0.1069 -0.1781  0.1279
 1473BOLB   C2C35346   9.886  24.114  10.434 -0.0440  0.0216 -0.0215
 1473BOLB   C3C35347  10.108  24.156  10.734  0.1882 -0.1149 -0.1712
 1473BOLB   C4C35348  10.316  24.370  11.044 -0.0554 -0.1779  0.1388
 1473BOLB   C1D35349   9.975  24.575   9.821  0.0850  0.2788 -0.0634
 1473BOLB   C2D35350  10.249  24.330  10.142  0.0987  0.3134 -0.0410
 1473BOLB   C3D35351  10.380  24.504  10.501  0.2771 -0.3042  0.0923
 1473BOLB   C4D35352  10.234  24.794  10.671  0.0966 -0.0502  0.0643
 1474BOLB   NC135353  13.660   9.990  12.460  0.0495  0.0596  0.1813
 1474BOLB   PO135354  13.867   9.617  12.305  0.3538 -0.0885 -0.3372
 1474BOLB   GL135355  13.843   9.521  11.840 -0.0910  0.0443  0.0620
 1474BOLB   GL235356  13.800   9.203  11.903  0.3263  0.3032  0.1627
 1474BOLB   C1A35357  13.952   9.578  11.437 -0.0067  0.0817  0.0259
 1474BOLB   C2A35358  14.098   9.448  11.027 -0.0363 -0.2503 -0.0732
 1474BOLB   C3A35359  14.254   9.475  10.608  0.3607 -0.2872  0.1124
 1474BOLB   C4A35360  14.272   9.474  10.174  0.2553 -0.1375 -0.0887
 1474BOLB   C1B35361  13.820   9.078  11.443  0.0100  0.3180  0.2579
 1474BOLB   C2B35362  13.841   8.927  11.034  0.2646 -0.2352  0.2961
 1474BOLB   C3B35363  13.864   8.550  10.715  0.1850  0.1796 -0.0159
 1474BOLB   C4B35364  13.799   8.463  10.219 -0.1225  0.0217 -0.0100
 1474BOLB   NC235365  13.981  10.335   7.558  0.1866 -0.2259 -0.3393
 1474BOLB   PO235366  13.756  10.076   7.877  0.0277 -0.0495 -0.3445
 1474BOLB   GL335367  13.767  10.017   8.240 -0.1774  0.1367  0.0604
 1474BOLB   GL435368  13.731  10.356   8.366 -0.1096  0.1975 -0.1727
 1474BOLB   C1C35369  13.986   9.952   8.661 -0.2108  0.0890  0.0125
 1474BOLB   C2C35370  13.980   9.886   9.088  0.3244 -0.3359  0.1923
 1474BOLB   C3C35371  14.089   9.625   9.401  0.0317 -0.0464  0.3253
 1474BOLB   C4C35372  14.394   9.536   9.729  0.0367 -0.2615  0.2799
 1474BOLB   C1D35373  13.698  10.317   8.878 -0.1567  0.1752 -0.0457
 1474BOLB   C2D35374  13.661  10.303   9.319  0.0267 -0.0825  0.1460
 1474BOLB   C3D35375  13.890  10.030   9.590 -0.1156  0.1349 -0.0946
 1474BOLB   C4D35376  14.014   9.804   9.910 -0.0987 -0.1053 -0.0802
 1475BOLB   NC135377  14.050  14.235  11.067 -0.1406 -0.4755  0.0641
 1475BOLB   PO135378  14.400  14.311  11.386  0.2661 -0.2681  0.1287
 1475BOLB   GL135379  14.478  14.136  10.887 -0.0970 -0.0518  0.0215
 1475BOLB   GL235380  14.749  14.296  10.833  0.3652 -0.1852  0.1258
 1475BOLB   C1A35381  14.631  13.938  10.535  0.2139 -0.3189 -0.0918
 1475BOLB   C2A35382  14.537  13.867  10.176  0.1246 -0.2028  0.0296
 1475BOLB   C3A35383  14.420  13.713   9.737 -0.1986  0.5001 -0.0032
 1475BOLB   C4A35384  14.582  13.678   9.294 -0.1085 -0.1484 -0.2506
 1475BOLB   C1B35385  14.824  14.384  10.354  0.0281 -0.0507 -0.1374
 1475BOLB   C2B35386  14.781  14.578   9.931 -0.4352  0.1675  0.0140
 1475BOLB   C3B35387  15.004  14.518   9.562  0.2534  0.0629 -0.0977
 1475BOLB   C4B35388  15.141  14.184   9.318  0.2289  0.1033 -0.0500
 1475BOLB   NC235389  14.090  12.252   7.397  0.1505 -0.0442 -0.0888
 1475BOLB   PO235390  14.326  12.549   7.188  0.0342 -0.0260  0.1151
 1475BOLB   GL335391  14.413  12.661   7.549  0.0166 -0.2609  0.1999
 1475BOLB   GL435392  14.697  12.746   7.688  0.1683 -0.1616 -0.0462
 1475BOLB   C1C35393  14.291  12.778   7.948  0.3195 -0.1692 -0.0891
 1475BOLB   C2C35394  14.290  13.046   8.305 -0.0820  0.1340 -0.3264
 1475BOLB   C3C35395  14.233  13.363   8.587  0.1440  0.2443 -0.2030
 1475BOLB   C4C35396  14.460  13.634   8.851  0.2618 -0.0454 -0.1448
 1475BOLB   C1D35397  14.799  12.735   8.085  0.0084  0.0637  0.1587
 1475BOLB   C2D35398  14.830  12.772   8.531  0.2829 -0.0732 -0.5168
 1475BOLB   C3D35399  14.793  12.469   8.922  0.0145 -0.0670  0.0695
 1475BOLB   C4D35400  14.866  12.149   9.079 -0.0980 -0.2190 -0.1547
 1476BOLB   NC135401  16.910  12.222  12.114 -0.1896 -0.2321 -0.2951
 1476BOLB   PO135402  17.055  11.842  12.295  0.0882 -0.0843 -0.2594
 1476BOLB   GL135403  17.100  11.677  11.903  0.4415 -0.0051  0.0414
 1476BOLB   GL235404  17.259  11.471  12.027  0.0059  0.2654 -0.1151
 1476BOLB   C1A35405  17.318  11.554  11.495  0.1854  0.1265 -0.1826
 1476BOLB   C2A35406  17.188  11.417  11.005  0.0721 -0.0001  0.0900
 1476BOLB   C3A35407  17.330  11.548  10.565 -0.1356  0.0680  0.0742
 1476BOLB   C4A35408  17.408  11.459  10.180  0.0715 -0.0290  0.1205
 1476BOLB   C1B35409  17.102  11.166  11.668 -0.0842  0.1649  0.0036
 1476BOLB   C2B35410  17.042  11.065  11.347  0.2206  0.1144  0.1621
 1476BOLB   C3B35411  16.834  10.892  10.931 -0.2015  0.0147  0.2156
 1476BOLB   C4B35412  16.720  10.559  10.762  0.1061  0.2119 -0.0087
 1476BOLB   NC235413  17.364  10.452   8.261  0.0555  0.0316 -0.1584
 1476BOLB   PO235414  17.007  10.203   8.247  0.0255 -0.1601 -0.1647
 1476BOLB   GL335415  16.824  10.601   8.454  0.4459  0.1795 -0.1832
 1476BOLB   GL435416  16.513  10.651   8.558 -0.1887 -0.1069 -0.2475
 1476BOLB   C1C35417  16.892  10.732   8.886  0.1841  0.0470 -0.1366
 1476BOLB   C2C35418  16.755  10.799   9.318 -0.2432  0.1850 -0.1101
 1476BOLB   C3C35419  16.824  10.875   9.722  0.0643 -0.1068  0.1421
 1476BOLB   C4C35420  17.222  11.112   9.875 -0.3618 -0.3042  0.0131
 1476BOLB   C1D35421  16.252  10.787   8.950  0.2099 -0.1156 -0.0976
 1476BOLB   C2D35422  15.805  10.922   8.927 -0.1628  0.0358 -0.1812
 1476BOLB   C3D35423  15.422  10.931   8.702 -0.1319 -0.1857 -0.1491
 1476BOLB   C4D35424  14.988  10.803   8.584 -0.1021  0.0158  0.4037
 1477BOLB   NC135425  19.580  22.689  13.712 -0.1095  0.3225  0.1281
 1477BOLB   PO135426  19.703  22.517  13.270 -0.2922  0.2429  0.1916
 1477BOLB   GL135427  19.953  22.448  12.863 -0.0779 -0.0517  0.3204
 1477BOLB   GL235428  20.183  22.162  12.744 -0.0693  0.2655  0.2050
 1477BOLB   C1A35429  20.060  22.668  12.603  0.0010 -0.3695  0.4997
 1477BOLB   C2A35430  20.225  22.824  12.181  0.0827  0.1969 -0.1811
 1477BOLB   C3A35431  20.424  22.941  11.794  0.1186  0.2302  0.3592
 1477BOLB   C4A35432  20.644  23.050  11.385  0.0536  0.3034 -0.0851
 1477BOLB   C1B35433  20.328  22.291  12.384  0.0385 -0.0786 -0.0432
 1477BOLB   C2B35434  20.686  22.568  12.039 -0.2920  0.1465  0.2045
 1477BOLB   C3B35435  20.913  22.738  11.779 -0.0433 -0.1446 -0.4535
 1477BOLB   C4B35436  21.251  22.714  11.583 -0.1262 -0.2141 -0.0972
 1477BOLB   NC235437  20.822  24.169   8.897 -0.2157  0.1306 -0.1230
 1477BOLB   PO235438  21.013  23.923   9.204  0.2996  0.3886 -0.2475
 1477BOLB   GL335439  20.752  23.880   9.558 -0.2643 -0.2244 -0.2252
 1477BOLB   GL435440  20.497  23.738   9.450  0.1679  0.2178  0.1208
 1477BOLB   C1C35441  20.872  24.045   9.978  0.0596 -0.0857  0.2966
 1477BOLB   C2C35442  20.846  23.869  10.378  0.0122 -0.1600 -0.1810
 1477BOLB   C3C35443  20.819  23.523  10.707 -0.1615 -0.2043 -0.1103
 1477BOLB   C4C35444  20.717  23.316  11.075  0.0248  0.2695  0.0186
 1477BOLB   C1D35445  20.156  23.712   9.688 -0.2289 -0.1566  0.1343
 1477BOLB   C2D35446  19.834  23.783   9.838 -0.2681 -0.0397 -0.2359
 1477BOLB   C3D35447  19.504  23.585   9.981  0.1262 -0.0027 -0.0240
 1477BOLB   C4D35448  19.337  23.395  10.368 -0.0344  0.3971 -0.2884
 1478BOLB   NC135449  20.052  20.773  12.477 -0.4232  0.6454 -0.1246
 1478BOLB   PO135450  20.266  20.444  12.483  0.1828  0.1699 -0.0709
 1478BOLB   GL135451  20.565  20.466  12.087  0.1676  0.0750  0.1262
 1478BOLB   GL235452  20.570  20.221  11.872  0.0235 -0.1275  0.1194
 1478BOLB   C1A35453  20.758  20.718  11.937 -0.3041 -0.1688 -0.3592
 1478BOLB   C2A35454  20.996  20.846  11.611 -0.1061  0.2818  0.0115
 1478BOLB   C3A35455  21.231  20.930  11.320  0.0698  0.0254  0.0643
 1478BOLB   C4A35456  21.444  21.121  10.915 -0.2554 -0.0772 -0.0903
 1478BOLB   C1B35457  20.799  20.381  11.508  0.1641 -0.2566  0.2535
 1478BOLB   C2B35458  21.202  20.412  11.335 -0.2090  0.2099 -0.0127
 1478BOLB   C3B35459  21.371  20.616  10.806  0.0875 -0.0066  0.0125
 1478BOLB   C4B35460  21.578  20.386  10.529  0.1828  0.2963  0.0451
 1478BOLB   NC235461  23.363  21.349   9.818 -0.2178  0.2905 -0.0949
 1478BOLB   PO235462  23.683  20.910  10.012 -0.2427  0.1046  0.1328
 1478BOLB   GL335463  23.467  21.019  10.451 -0.1421 -0.0500  0.2063
 1478BOLB   GL435464  23.567  20.766  10.752  0.3565  0.1984 -0.0226
 1478BOLB   C1C35465  23.003  21.214  10.545  0.2127 -0.0260 -0.1651
 1478BOLB   C2C35466  22.544  21.278  10.450 -0.2672 -0.1973 -0.0507
 1478BOLB   C3C35467  22.037  21.144  10.421 -0.0388 -0.0984  0.2402
 1478BOLB   C4C35468  21.638  21.283  10.525  0.1233  0.0461 -0.1679
 1478BOLB   C1D35469  23.137  20.667  10.736  0.2051 -0.1662  0.1534
 1478BOLB   C2D35470  22.713  20.813  10.624  0.0187  0.0976  0.1191
 1478BOLB   C3D35471  22.287  20.805  10.661  0.0754  0.1567 -0.0102
 1478BOLB   C4D35472  21.886  20.728  10.723  0.1821 -0.0208 -0.2486
 1479BOLB   NC135473  10.989  13.131  11.977  0.2992 -0.4113  0.2109
 1479BOLB   PO135474  10.524  13.061  12.064 -0.0323 -0.1642  0.0475
 1479BOLB   GL135475  10.335  13.128  11.712 -0.0295 -0.1770  0.1535
 1479BOLB   GL235476  10.588  13.221  11.512 -0.0062  0.0809  0.0383
 1479BOLB   C1A35477  10.055  13.237  11.342  0.2030 -0.1341 -0.1855
 1479BOLB   C2A35478  10.088  13.112  10.949  0.4774 -0.1223 -0.1403
 1479BOLB   C3A35479  10.328  13.284  10.508  0.0342 -0.0921  0.2140
 1479BOLB   C4A35480  10.344  13.308  10.012 -0.1707  0.0054  0.1756
 1479BOLB   C1B35481  10.718  13.306  11.024 -0.1116  0.2060 -0.0987
 1479BOLB   C2B35482  10.772  13.055  10.570 -0.0305  0.0408 -0.1854
 1479BOLB   C3B35483  10.673  12.920  10.203 -0.1871 -0.3288  0.0152
 1479BOLB   C4B35484  10.491  12.698   9.849 -0.2957 -0.0925  0.0582
 1479BOLB   NC235485   9.540  13.936   7.679 -0.0186 -0.3718  0.0511
 1479BOLB   PO235486  10.060  14.022   7.676  0.1758 -0.0841 -0.0145
 1479BOLB   GL335487  10.029  14.057   8.098  0.4353  0.3095  0.0738
 1479BOLB   GL435488  10.112  14.417   8.219  0.2090 -0.0830 -0.2793
 1479BOLB   C1C35489  10.074  14.070   8.594  0.3612 -0.1222  0.4353
 1479BOLB   C2C35490  10.051  14.082   8.975 -0.0340  0.0686 -0.0588
 1479BOLB   C3C35491   9.916  13.678   9.182  0.0203 -0.3356 -0.2708
 1479BOLB   C4C35492  10.057  13.372   9.572 -0.1551 -0.3696  0.0753
 1479BOLB   C1D35493  10.522  14.361   8.486  0.0143 -0.3631 -0.1906
 1479BOLB   C2D35494  10.497  14.128   8.825  0.0497  0.0725  0.1055
 1479BOLB   C3D35495  10.579  13.885   9.225 -0.0010 -0.0557  0.1450
 1479BOLB   C4D35496  10.439  13.501   9.311 -0.1942  0.0084  0.1760
 1480BOLB   NC135497  17.427  22.394  11.890 -0.0174  0.0344  0.1483
 1480BOLB   PO135498  17.352  22.031  12.022  0.1800  0.2796 -0.0090
 1480BOLB   GL135499  17.558  21.965  11.571  0.0595 -0.1061  0.2635
 1480BOLB   GL235500  17.462  22.415  11.421  0.1976  0.3625 -0.1409
 1480BOLB   C1A35501  17.665  22.003  11.113 -0.1121 -0.1277  0.0015
 1480BOLB   C2A35502  17.925  21.894  10.727 -0.3802 -0.3666  0.3576
 1480BOLB   C3A35503  18.154  21.828  10.309  0.2570 -0.3439  0.5076
 1480BOLB   C4A35504  18.233  21.879   9.758  0.2494 -0.0969 -0.0236
 1480BOLB   C1B35505  17.453  22.561  11.004  0.1302  0.1849 -0.0139
 1480BOLB   C2B35506  17.734  22.469  10.673  0.1197 -0.0355  0.2861
 1480BOLB   C3B35507  17.911  22.275  10.328  0.2182  0.0945 -0.0184
 1480BOLB   C4B35508  18.202  22.370  10.035  0.4382  0.2214  0.3836
 1480BOLB   NC235509  19.680  22.355   7.781  0.0144 -0.2927 -0.0929
 1480BOLB   PO235510  19.516  22.137   8.049 -0.0636 -0.2919 -0.1039
 1480BOLB   GL335511  19.366  21.987   8.354  0.0623 -0.1124 -0.0589
 1480BOLB   GL435512  19.167  22.116   8.487 -0.2237 -0.2642  0.0799
 1480BOLB   C1C35513  19.322  21.619   8.665  0.2131  0.3098  0.0403
 1480BOLB   C2C35514  19.032  21.620   9.019  0.0320 -0.1569 -0.0398
 1480BOLB   C3C35515  18.750  21.781   9.236  0.0350 -0.0186 -0.2774
 1480BOLB   C4C35516  18.417  21.640   9.533  0.0210 -0.1795  0.2057
 1480BOLB   C1D35517  19.154  22.488   8.785  0.0353  0.2439  0.2639
 1480BOLB   C2D35518  19.024  22.536   9.178  0.2553  0.0408  0.0472
 1480BOLB   C3D35519  18.992  22.758   9.574 -0.2348 -0.2475  0.1438
 1480BOLB   C4D35520  18.907  23.094   9.744 -0.1692 -0.0014  0.5226
 1481BOLB   NC135521  10.693  19.972  11.861 -0.0995 -0.1675  0.4139
 1481BOLB   PO135522  10.278  20.106  11.776 -0.3616  0.1191 -0.1348
 1481BOLB   GL135523  10.564  20.148  11.377 -0.0010 -0.1407  0.1610
 1481BOLB   GL235524  10.436  20.472  11.464 -0.0115  0.0945 -0.1070
 1481BOLB   C1A35525  10.862  20.225  10.959 -0.1907  0.0624 -0.1875
 1481BOLB   C2A35526  10.868  20.166  10.563  0.3037 -0.0347  0.1845
 1481BOLB   C3A35527  10.893  19.921  10.179 -0.1812 -0.0734 -0.3342
 1481BOLB   C4A35528  10.748  19.787   9.704 -0.1227  0.0466  0.2959
 1481BOLB   C1B35529  10.413  20.450  10.978  0.2306  0.1676  0.0529
 1481BOLB   C2B35530  10.422  20.515  10.533  0.2336 -0.4575  0.1625
 1481BOLB   C3B35531  10.029  20.456  10.227  0.0295  0.2076  0.3376
 1481BOLB   C4B35532   9.823  20.496   9.859  0.0816 -0.4711  0.2999
 1481BOLB   NC235533  10.134  19.716   7.193 -0.1598  0.0999 -0.2147
 1481BOLB   PO235534  10.646  19.638   7.263 -0.2361 -0.1357 -0.1389
 1481BOLB   GL335535  10.627  19.419   7.709  0.0265  0.0018  0.1414
 1481BOLB   GL435536  10.596  19.081   7.934  0.0120 -0.0875 -0.1447
 1481BOLB   C1C35537  10.795  19.457   8.200  0.2410  0.1410  0.1985
 1481BOLB   C2C35538  10.567  19.653   8.439  0.2099 -0.2202  0.0233
 1481BOLB   C3C35539  10.512  19.806   8.904 -0.0744 -0.2245 -0.2876
 1481BOLB   C4C35540  10.589  19.765   9.334 -0.0424 -0.0488  0.1740
 1481BOLB   C1D35541  10.452  18.984   8.334 -0.2205 -0.1065  0.0321
 1481BOLB   C2D35542  10.598  18.897   8.667  0.0527  0.1626  0.1398
 1481BOLB   C3D35543  10.700  19.047   9.085  0.1533 -0.1017  0.0798
 1481BOLB   C4D35544  10.886  19.334   9.377 -0.0809 -0.1554 -0.0683
 1482BOLB   NC135545  18.516  14.026  11.451  0.1029 -0.3363 -0.1114
 1482BOLB   PO135546  18.916  14.285  11.585 -0.2581  0.3109  0.3366
 1482BOLB   GL135547  18.927  14.437  11.158 -0.4148 -0.3262 -0.2592
 1482BOLB   GL235548  18.755  14.556  10.860 -0.2604 -0.1135 -0.3369
 1482BOLB   C1A35549  19.158  14.279  10.878 -0.2110 -0.1377 -0.1994
 1482BOLB   C2A35550  19.260  14.167  10.376  0.1492 -0.4308  0.0558
 1482BOLB   C3A35551  19.427  13.899  10.067  0.3949 -0.1857  0.0726
 1482BOLB   C4A35552  19.379  13.687   9.680 -0.0742 -0.0060  0.3533
 1482BOLB   C1B35553  18.872  14.553  10.471 -0.2949 -0.2134 -0.1003
 1482BOLB   C2B35554  19.000  14.587  10.028  0.0253 -0.3559 -0.0546
 1482BOLB   C3B35555  19.117  14.451   9.662  0.2002  0.3614 -0.1382
 1482BOLB   C4B35556  19.186  14.114   9.313  0.3880  0.0447 -0.0225
 1482BOLB   NC235557  19.350  14.115   7.213 -0.1424 -0.0186  0.0868
 1482BOLB   PO235558  18.816  13.924   7.437 -0.0799 -0.1240  0.1381
 1482BOLB   GL335559  18.877  13.847   7.869  0.2899  0.3119  0.1804
 1482BOLB   GL435560  19.028  13.562   7.962  0.1482 -0.0987 -0.1875
 1482BOLB   C1C35561  18.989  14.034   8.269 -0.2776  0.1698 -0.3095
 1482BOLB   C2C35562  19.165  14.022   8.631 -0.0324 -0.1780  0.1039
 1482BOLB   C3C35563  19.118  13.858   8.889  0.1701  0.1291 -0.0787
 1482BOLB   C4C35564  19.335  13.609   9.243  0.0951 -0.2433 -0.0182
 1482BOLB   C1D35565  18.815  13.560   8.454  0.1778  0.2426 -0.1057
 1482BOLB   C2D35566  18.645  13.748   8.730  0.1559  0.2201  0.2267
 1482BOLB   C3D35567  18.349  13.713   9.054  0.0746 -0.1138 -0.1437
 1482BOLB   C4D35568  17.960  13.561   8.943  0.1330  0.1176  0.1901
 1483BOLB   NC135569  21.502  17.658  12.654  0.0702 -0.0391 -0.2312
 1483BOLB   PO135570  21.091  17.745  12.418  0.2049  0.1911 -0.1133
 1483BOLB   GL135571  21.344  18.005  12.243  0.0186 -0.4756 -0.0870
 1483BOLB   GL235572  21.709  17.986  12.322 -0.4498 -0.1086  0.0628
 1483BOLB   C1A35573  21.582  18.432  12.248  0.0891 -0.0111 -0.1209
 1483BOLB   C2A35574  21.802  18.696  11.851  0.6026 -0.1949  0.1092
 1483BOLB   C3A35575  22.106  18.827  11.639 -0.1585  0.0747  0.2011
 1483BOLB   C4A35576  22.319  18.866  11.266 -0.2047 -0.0398  0.0433
 1483BOLB   C1B35577  21.708  18.202  11.799 -0.2685  0.0139 -0.1301
 1483BOLB   C2B35578  22.035  18.267  11.509  0.0246 -0.0408 -0.0471
 1483BOLB   C3B35579  21.973  18.115  11.072  0.2244 -0.0785  0.2532
 1483BOLB   C4B35580  22.319  18.038  10.737  0.4162 -0.1536  0.1458
 1483BOLB   NC235581  23.686  20.325   9.264 -0.1372 -0.3718 -0.2015
 1483BOLB   PO235582  23.713  19.906   9.463  0.1187 -0.0248  0.1596
 1483BOLB   GL335583  23.338  19.597   9.660  0.1919  0.0736  0.1520
 1483BOLB   GL435584  23.280  19.216   9.538 -0.1200 -0.0180 -0.1034
 1483BOLB   C1C35585  23.232  19.415  10.067  0.1119  0.0991 -0.1638
 1483BOLB   C2C35586  23.093  19.063  10.216 -0.3660  0.0201 -0.1828
 1483BOLB   C3C35587  22.850  18.922  10.548  0.1511  0.1108 -0.0008
 1483BOLB   C4C35588  22.612  18.892  10.915  0.1099 -0.1439  0.2562
 1483BOLB   C1D35589  23.133  18.834   9.790  0.0753  0.1548 -0.2636
 1483BOLB   C2D35590  22.915  18.507   9.783 -0.1476 -0.0560  0.1807
 1483BOLB   C3D35591  22.518  18.408   9.801 -0.1057 -0.0391  0.3965
 1483BOLB   C4D35592  22.302  18.208  10.149 -0.0756  0.1613  0.0130
 1484BOLB   NC135593  19.330   9.752  14.495  0.3479  0.2220  0.1378
 1484BOLB   PO135594  19.315   9.285  14.245 -0.1448 -0.1254  0.0276
 1484BOLB   GL135595  19.296   8.952  13.904  0.0068  0.0698  0.2134
 1484BOLB   GL235596  19.145   8.962  13.635  0.2687  0.2351 -0.0354
 1484BOLB   C1A35597  19.593   8.648  13.791 -0.1950  0.1102 -0.2124
 1484BOLB   C2A35598  19.890   8.365  13.596  0.0857  0.3747  0.0421
 1484BOLB   C3A35599  19.988   8.103  13.321 -0.0310  0.0361 -0.2555
 1484BOLB   C4A35600  20.193   8.153  12.788 -0.0789 -0.0623  0.0469
 1484BOLB   C1B35601  19.339   8.669  13.267  0.0667 -0.1886 -0.0669
 1484BOLB   C2B35602  19.645   8.423  13.156 -0.1525 -0.2416 -0.3371
 1484BOLB   C3B35603  19.723   8.053  12.850 -0.1616  0.3622 -0.0089
 1484BOLB   C4B35604  19.881   7.659  12.879 -0.1618  0.0005  0.1052
 1484BOLB   NC235605  20.515   6.841  11.133 -0.1561 -0.2409 -0.2518
 1484BOLB   PO235606  20.477   7.140  10.771  0.0882  0.0647 -0.1343
 1484BOLB   GL335607  20.593   7.526  10.922 -0.3478 -0.0762 -0.4847
 1484BOLB   GL435608  20.308   7.687  10.991  0.0461 -0.1530  0.1010
 1484BOLB   C1C35609  20.636   7.686  11.363  0.0882 -0.1379  0.0402
 1484BOLB   C2C35610  20.487   7.728  11.773 -0.1624  0.1879  0.0872
 1484BOLB   C3C35611  20.289   8.078  12.070  0.0754 -0.0292 -0.1300
 1484BOLB   C4C35612  20.199   8.388  12.342  0.2048  0.1880 -0.1948
 1484BOLB   C1D35613  20.322   8.118  11.091 -0.1182  0.0845 -0.0810
 1484BOLB   C2D35614  20.256   8.508  11.215 -0.2103  0.0601  0.2187
 1484BOLB   C3D35615  20.300   8.977  11.333 -0.0607  0.3585 -0.1869
 1484BOLB   C4D35616  20.643   9.289  11.327  0.0410  0.1212 -0.3793
 1485BOLB   NC135617  14.402  14.789  11.419  0.2720 -0.0185  0.0352
 1485BOLB   PO135618  14.421  15.260  11.412  0.1842  0.0245  0.1438
 1485BOLB   GL135619  14.580  15.258  11.001  0.2143  0.2323 -0.1378
 1485BOLB   GL235620  14.860  15.243  10.787 -0.2240  0.2873 -0.2977
 1485BOLB   C1A35621  14.428  15.470  10.571  0.2219  0.1115 -0.0613
 1485BOLB   C2A35622  14.248  15.783  10.265  0.0525 -0.2317 -0.3706
 1485BOLB   C3A35623  14.346  15.916   9.846  0.4301 -0.1728 -0.1404
 1485BOLB   C4A35624  14.095  15.921   9.494 -0.0826 -0.0516 -0.1822
 1485BOLB   C1B35625  14.913  15.374  10.413 -0.0490 -0.1470  0.0900
 1485BOLB   C2B35626  14.723  15.530   9.998  0.1503  0.2769 -0.0933
 1485BOLB   C3B35627  14.582  15.449   9.609  0.0662  0.0955  0.0016
 1485BOLB   C4B35628  14.320  15.479   9.182  0.0729  0.2654  0.1632
 1485BOLB   NC235629  13.503  16.542   7.088  0.3354 -0.1917  0.1610
 1485BOLB   PO235630  13.976  16.444   7.243 -0.0931  0.1105  0.0834
 1485BOLB   GL335631  14.235  16.481   7.588  0.0607 -0.1193  0.0333
 1485BOLB   GL435632  14.342  16.839   7.698  0.2529 -0.0160 -0.0261
 1485BOLB   C1C35633  14.433  16.502   8.005  0.2042  0.0576 -0.1536
 1485BOLB   C2C35634  14.282  16.571   8.392  0.2884 -0.1240  0.0305
 1485BOLB   C3C35635  14.170  16.262   8.680  0.0362 -0.1432 -0.2848
 1485BOLB   C4C35636  14.137  16.125   9.070  0.0411 -0.0113 -0.0742
 1485BOLB   C1D35637  14.523  17.034   7.984  0.0535  0.2897 -0.0326
 1485BOLB   C2D35638  14.725  17.356   8.299 -0.2636 -0.1255 -0.3397
 1485BOLB   C3D35639  14.396  17.547   8.644 -0.0955  0.1011 -0.1429
 1485BOLB   C4D35640  14.126  17.813   8.433  0.1524 -0.0487  0.0200
 1486BOLB   NC135641  16.878  13.236  11.934 -0.0080 -0.3096  0.1245
 1486BOLB   PO135642  16.817  13.584  11.662 -0.2365  0.2339  0.2508
 1486BOLB   GL135643  16.751  13.650  11.253  0.0523 -0.2959 -0.1794
 1486BOLB   GL235644  16.578  13.347  11.011  0.3048  0.1607  0.0465
 1486BOLB   C1A35645  16.792  13.735  10.826 -0.2135  0.2631  0.1140
 1486BOLB   C2A35646  17.053  13.738  10.356  0.0620 -0.1541 -0.0032
 1486BOLB   C3A35647  17.205  13.879  10.011 -0.1184  0.1238  0.1364
 1486BOLB   C4A35648  17.493  13.765   9.688 -0.0374  0.1803 -0.0031
 1486BOLB   C1B35649  16.824  13.297  10.609 -0.0200 -0.1725 -0.1100
 1486BOLB   C2B35650  16.848  13.046  10.327 -0.0801  0.0117 -0.1410
 1486BOLB   C3B35651  16.741  12.827   9.947 -0.0517 -0.1168  0.2162
 1486BOLB   C4B35652  16.718  12.522   9.635 -0.0604 -0.1875  0.0126
 1486BOLB   NC235653  18.054  14.260   7.378 -0.1386  0.0455  0.0609
 1486BOLB   PO235654  17.683  14.028   7.510  0.0127 -0.0451 -0.0351
 1486BOLB   GL335655  17.722  13.881   7.841 -0.0278  0.1976  0.2646
 1486BOLB   GL435656  17.810  13.633   7.918 -0.0813 -0.4132  0.0656
 1486BOLB   C1C35657  17.455  14.150   8.132 -0.1109 -0.1892 -0.2350
 1486BOLB   C2C35658  17.594  14.174   8.553  0.1133 -0.1646 -0.1920
 1486BOLB   C3C35659  17.594  13.939   8.908 -0.1424 -0.0935 -0.1706
 1486BOLB   C4C35660  17.584  13.816   9.310 -0.0030 -0.0781 -0.3050
 1486BOLB   C1D35661  17.692  13.722   8.338  0.1488 -0.2883  0.2790
 1486BOLB   C2D35662  17.335  13.699   8.541 -0.0335  0.2597  0.0924
 1486BOLB   C3D35663  17.154  13.673   8.911  0.1063 -0.1454 -0.1310
 1486BOLB   C4D35664  17.133  13.974   9.303 -0.1083  0.2293  0.0715
 1487BOLB   NC135665  16.736   9.666  12.742 -0.3483  0.0787 -0.1773
 1487BOLB   PO135666  16.978   9.963  12.674 -0.0110 -0.0134 -0.0396
 1487BOLB   GL135667  16.968   9.735  12.248 -0.2376  0.2530  0.0236
 1487BOLB   GL235668  16.929   9.533  12.331  0.3101  0.0425  0.0364
 1487BOLB   C1A35669  17.137   9.569  11.862  0.6227  0.0636 -0.2097
 1487BOLB   C2A35670  17.238   9.397  11.480 -0.0871 -0.1420 -0.1273
 1487BOLB   C3A35671  17.384   9.105  11.145  0.0826 -0.3472  0.0098
 1487BOLB   C4A35672  17.662   8.681  11.083 -0.2364  0.0726 -0.0273
 1487BOLB   C1B35673  17.012   9.099  12.160  0.2289  0.1844  0.4755
 1487BOLB   C2B35674  17.152   8.824  11.784 -0.0727 -0.2108  0.2115
 1487BOLB   C3B35675  17.250   8.634  11.371 -0.0935 -0.3041  0.1589
 1487BOLB   C4B35676  17.393   8.231  11.102 -0.1898 -0.3390  0.0472
 1487BOLB   NC235677  18.319   7.890   9.215 -0.2332 -0.2781 -0.1337
 1487BOLB   PO235678  18.739   7.894   9.293 -0.0424  0.3673 -0.1025
 1487BOLB   GL335679  18.571   8.112   9.633 -0.1349 -0.0401 -0.2988
 1487BOLB   GL435680  18.725   8.403   9.699  0.0072  0.0272  0.2750
 1487BOLB   C1C35681  18.266   8.219   9.999  0.4195  0.1287 -0.4005
 1487BOLB   C2C35682  18.190   8.215  10.440 -0.3569 -0.0574  0.1787
 1487BOLB   C3C35683  18.297   8.251  10.841  0.0870 -0.1938  0.0738
 1487BOLB   C4C35684  18.000   8.396  11.156  0.2662 -0.2794 -0.0804
 1487BOLB   C1D35685  18.706   8.541  10.128 -0.0137  0.3497 -0.0445
 1487BOLB   C2D35686  18.568   8.703  10.534 -0.1978 -0.0815  0.3367
 1487BOLB   C3D35687  18.667   8.571  10.946 -0.2404  0.0148 -0.0471
 1487BOLB   C4D35688  18.668   8.789  11.415 -0.1467 -0.0632 -0.6186
 1488BOLB   NC135689  18.980  17.579  11.763  0.2497 -0.0910 -0.0990
 1488BOLB   PO135690  19.484  17.597  11.806  0.0137 -0.3034  0.0891
 1488BOLB   GL135691  19.530  17.869  11.450 -0.0235  0.3032  0.3379
 1488BOLB   GL235692  19.324  18.023  11.285  0.0754 -0.1030  0.0795
 1488BOLB   C1A35693  19.843  17.996  11.172  0.2677 -0.0653 -0.1979
 1488BOLB   C2A35694  20.036  18.117  10.745 -0.1008 -0.1791  0.0028
 1488BOLB   C3A35695  20.320  18.214  10.481  0.6267  0.2547 -0.1582
 1488BOLB   C4A35696  20.559  18.342  10.174 -0.2935 -0.2622 -0.0556
 1488BOLB   C1B35697  19.462  18.327  11.023  0.0035  0.2605  0.1223
 1488BOLB   C2B35698  19.668  18.438  10.553 -0.1924  0.0315 -0.2898
 1488BOLB   C3B35699  19.903  18.448  10.263 -0.1518 -0.3280 -0.2541
 1488BOLB   C4B35700  20.166  18.152   9.987 -0.4070  0.3944  0.4065
 1488BOLB   NC235701  20.540  18.250   7.749 -0.0626  0.2623  0.0945
 1488BOLB   PO235702  20.802  18.403   7.940  0.1404 -0.0506  0.0057
 1488BOLB   GL335703  20.648  18.607   8.293 -0.2441 -0.1793 -0.2152
 1488BOLB   GL435704  20.914  18.625   8.577 -0.2793  0.2309 -0.2198
 1488BOLB   C1C35705  20.453  18.697   8.808 -0.3500  0.0529  0.1907
 1488BOLB   C2C35706  20.221  18.594   9.181 -0.0990  0.0605 -0.0728
 1488BOLB   C3C35707  20.260  18.720   9.650  0.0305  0.0024  0.2396
 1488BOLB   C4C35708  20.360  18.613   9.940 -0.0693 -0.1096  0.2830
 1488BOLB   C1D35709  20.957  18.860   9.063 -0.1698 -0.0227  0.1676
 1488BOLB   C2D35710  20.972  19.249   9.321  0.0293  0.2428 -0.3399
 1488BOLB   C3D35711  21.237  19.648   9.303  0.0654  0.0500  0.0590
 1488BOLB   C4D35712  21.324  19.996   9.381 -0.0134  0.3000 -0.0329
 1489BOLB   NC135713  18.215  15.285  11.363  0.4413  0.6055 -0.2217
 1489BOLB   PO135714  17.821  15.491  11.428  0.0021 -0.0173 -0.0571
 1489BOLB   GL135715  17.700  15.523  11.010  0.2343 -0.0809 -0.1876
 1489BOLB   GL235716  17.717  15.190  11.020  0.0882  0.3267 -0.0562
 1489BOLB   C1A35717  17.763  15.619  10.569  0.1194 -0.1509 -0.0970
 1489BOLB   C2A35718  17.713  15.507  10.216 -0.1341 -0.3180  0.2033
 1489BOLB   C3A35719  17.845  15.298   9.941 -0.1201 -0.0426 -0.1170
 1489BOLB   C4A35720  17.822  15.211   9.529 -0.0834  0.1889  0.2800
 1489BOLB   C1B35721  18.117  15.302  10.754 -0.0464 -0.1448 -0.2914
 1489BOLB   C2B35722  18.199  15.367  10.316 -0.1849 -0.1315  0.1077
 1489BOLB   C3B35723  18.279  15.704  10.001  0.1778  0.2276  0.0278
 1489BOLB   C4B35724  18.044  15.725   9.536 -0.1279 -0.1503  0.1192
 1489BOLB   NC235725  18.491  15.396   6.780 -0.0456  0.0923 -0.1896
 1489BOLB   PO235726  18.305  15.465   7.154 -0.1940 -0.0098 -0.1613
 1489BOLB   GL335727  18.051  15.453   7.603  0.1089 -0.3337  0.0560
 1489BOLB   GL435728  17.850  15.183   7.716  0.1465  0.1436  0.0113
 1489BOLB   C1C35729  18.077  15.396   8.155  0.0566 -0.2472 -0.0788
 1489BOLB   C2C35730  17.888  15.331   8.524  0.0997  0.0767  0.0725
 1489BOLB   C3C35731  18.133  15.501   8.860 -0.4046  0.0436  0.0237
 1489BOLB   C4C35732  18.171  15.301   9.208 -0.4250 -0.0019 -0.1520
 1489BOLB   C1D35733  17.653  14.998   8.083  0.0414 -0.0607 -0.1123
 1489BOLB   C2D35734  17.835  14.565   8.170  0.1304 -0.1159 -0.0646
 1489BOLB   C3D35735  17.977  14.119   8.170  0.2895 -0.1588  0.0675
 1489BOLB   C4D35736  18.452  13.905   8.070  0.1125  0.0736 -0.0393
 1490BOLB   NC135737  10.998   9.386  11.899  0.1487 -0.0499 -0.0617
 1490BOLB   PO135738  10.663   9.618  11.946  0.0529 -0.1625 -0.2389
 1490BOLB   GL135739  10.585   9.546  11.510  0.2490  0.0191 -0.1019
 1490BOLB   GL235740  10.927   9.797  11.433 -0.1395 -0.0808 -0.0797
 1490BOLB   C1A35741  10.685   9.612  11.069 -0.0681 -0.0745  0.1016
 1490BOLB   C2A35742  10.826   9.691  10.654  0.2916 -0.0927  0.0842
 1490BOLB   C3A35743  10.787   9.737  10.265  0.0870  0.0017 -0.0057
 1490BOLB   C4A35744  11.096   9.486   9.970 -0.1726 -0.0445 -0.4396
 1490BOLB   C1B35745  10.890  10.061  11.013  0.1270  0.0834  0.5825
 1490BOLB   C2B35746  11.114  10.164  10.678 -0.0169  0.0492 -0.1414
 1490BOLB   C3B35747  11.061  10.211  10.265  0.1152  0.0658 -0.1717
 1490BOLB   C4B35748  11.138  10.396   9.896  0.0796  0.1966 -0.4223
 1490BOLB   NC235749  11.512  10.007   7.800 -0.0010  0.0170  0.0132
 1490BOLB   PO235750  11.483  10.398   7.644  0.3206 -0.2715  0.1114
 1490BOLB   GL335751  11.563  10.490   8.093 -0.1862  0.0784  0.3287
 1490BOLB   GL435752  11.373  10.692   8.295  0.2114 -0.2735  0.3268
 1490BOLB   C1C35753  11.488  10.308   8.488  0.0943  0.0440 -0.0232
 1490BOLB   C2C35754  11.514   9.920   8.859 -0.2754  0.4440 -0.1815
 1490BOLB   C3C35755  11.425   9.841   9.256 -0.0189 -0.2011  0.0653
 1490BOLB   C4C35756  11.278   9.589   9.531 -0.1174 -0.3764 -0.1164
 1490BOLB   C1D35757  11.315  10.764   8.817  0.0392 -0.2827 -0.1031
 1490BOLB   C2D35758  11.410  10.783   9.326  0.2918 -0.1617  0.1620
 1490BOLB   C3D35759  11.485  10.747   9.743  0.1751 -0.1604  0.2380
 1490BOLB   C4D35760  11.464  10.617  10.175 -0.0680  0.0782  0.3483
 1491BOLB   NC135761  10.264  12.672  11.928  0.1540 -0.1210  0.1243
 1491BOLB   PO135762  10.497  12.317  11.924 -0.3147  0.0120  0.0697
 1491BOLB   GL135763  10.468  12.334  11.458  0.0206 -0.1629  0.2823
 1491BOLB   GL235764  10.264  12.658  11.320 -0.1648  0.0484 -0.2185
 1491BOLB   C1A35765  10.657  12.233  11.026 -0.3437 -0.1232 -0.2693
 1491BOLB   C2A35766  10.605  12.360  10.611  0.2181 -0.2584  0.2834
 1491BOLB   C3A35767  10.628  12.379  10.150 -0.1154  0.2631 -0.0097
 1491BOLB   C4A35768  10.515  12.150   9.743 -0.1041  0.1996  0.1440
 1491BOLB   C1B35769  10.107  12.463  10.979  0.3534  0.2736  0.1442
 1491BOLB   C2B35770  10.131  12.331  10.596 -0.2360  0.0299  0.1878
 1491BOLB   C3B35771   9.868  12.139  10.319 -0.1625  0.0508  0.3153
 1491BOLB   C4B35772   9.955  11.842  10.053 -0.3685 -0.1876 -0.2174
 1491BOLB   NC235773  10.211  11.388   7.510 -0.0770 -0.0453  0.2433
 1491BOLB   PO235774  10.125  11.011   7.543 -0.2442  0.1574  0.3051
 1491BOLB   GL335775  10.065  11.245   8.017  0.1206  0.0149  0.1226
 1491BOLB   GL435776  10.321  11.109   8.140  0.0880 -0.1840  0.0779
 1491BOLB   C1C35777   9.977  11.588   8.464  0.1591 -0.1063 -0.0549
 1491BOLB   C2C35778   9.806  11.724   8.805  0.0943 -0.0837  0.4789
 1491BOLB   C3C35779   9.799  11.888   9.191 -0.2550  0.0595  0.0675
 1491BOLB   C4C35780  10.023  12.045   9.600 -0.3296  0.2081  0.0120
 1491BOLB   C1D35781  10.156  11.089   8.549  0.0562 -0.1208  0.1565
 1491BOLB   C2D35782  10.318  11.165   8.933 -0.1002  0.2441  0.0136
 1491BOLB   C3D35783  10.575  11.033   9.265  0.2264 -0.1537  0.2265
 1491BOLB   C4D35784  11.015  11.031   9.289  0.0727  0.0186 -0.4171
 1492BOLB   NC135785  19.785  16.202  11.688 -0.0163 -0.1294 -0.0356
 1492BOLB   PO135786  20.225  16.386  11.625 -0.6160 -0.0182 -0.0536
 1492BOLB   GL135787  20.041  16.330  11.210 -0.2522 -0.0562  0.0621
 1492BOLB   GL235788  19.739  16.284  11.102  0.2267  0.0255  0.1910
 1492BOLB   C1A35789  20.264  16.419  10.851  0.2167  0.4862  0.1290
 1492BOLB   C2A35790  20.426  16.526  10.403  0.0211 -0.2277 -0.0685
 1492BOLB   C3A35791  20.727  16.486  10.260 -0.1976 -0.2550  0.1201
 1492BOLB   C4A35792  21.172  16.582  10.220  0.2142  0.1302 -0.0095
 1492BOLB   C1B35793  19.772  16.408  10.604  0.2447 -0.2683  0.2939
 1492BOLB   C2B35794  19.912  16.501  10.258  0.1561 -0.3560 -0.4706
 1492BOLB   C3B35795  19.925  16.684   9.776 -0.1293  0.2892  0.0980
 1492BOLB   C4B35796  19.726  16.652   9.343  0.2045  0.1887 -0.2128
 1492BOLB   NC235797  23.023  17.365   8.161  0.1875  0.2345  0.2517
 1492BOLB   PO235798  22.967  17.419   8.691  0.4676  0.2041  0.0139
 1492BOLB   GL335799  22.764  17.469   9.121  0.0418  0.1760 -0.6800
 1492BOLB   GL435800  22.950  17.203   9.231  0.4516  0.1734 -0.1720
 1492BOLB   C1C35801  22.456  17.196   9.378 -0.3760 -0.0292  0.1622
 1492BOLB   C2C35802  22.143  16.950   9.530  0.0885 -0.1813  0.0688
 1492BOLB   C3C35803  21.980  16.943   9.952  0.0552  0.0387  0.0268
 1492BOLB   C4C35804  21.614  16.764  10.077 -0.0869  0.2066 -0.0838
 1492BOLB   C1D35805  22.803  17.584   9.616 -0.0195  0.2103  0.0298
 1492BOLB   C2D35806  22.901  17.988   9.874  0.0215 -0.2201  0.0755
 1492BOLB   C3D35807  22.827  18.355  10.253  0.1997 -0.0479  0.2527
 1492BOLB   C4D35808  22.615  18.447  10.624 -0.0201  0.2385 -0.0881
 1493BOLB   NC135809   8.663  10.347  12.464 -0.0610 -0.2690  0.5015
 1493BOLB   PO135810   8.845  10.853  12.328 -0.2587  0.0057  0.1513
 1493BOLB   GL135811   8.972  10.991  11.896  0.2089 -0.0845  0.4061
 1493BOLB   GL235812   9.335  11.112  11.858 -0.0931 -0.0964 -0.0120
 1493BOLB   C1A35813   8.931  11.398  11.536 -0.1576  0.1442 -0.1399
 1493BOLB   C2A35814   8.727  11.492  11.144 -0.0047  0.2240  0.0099
 1493BOLB   C3A35815   8.614  11.388  10.735 -0.0460  0.1200 -0.1731
 1493BOLB   C4A35816   8.452  11.449  10.331 -0.0899 -0.1143  0.3968
 1493BOLB   C1B35817   9.468  11.148  11.473 -0.0841 -0.3401  0.0010
 1493BOLB   C2B35818   9.347  11.238  11.005 -0.3145 -0.2817 -0.1252
 1493BOLB   C3B35819   9.141  11.414  10.689  0.1968  0.2189  0.0013
 1493BOLB   C4B35820   9.015  11.494  10.291  0.0828  0.0699 -0.0089
 1493BOLB   NC235821   7.981  12.539   7.971 -0.2254 -0.0306  0.1420
 1493BOLB   PO235822   7.556  12.352   8.040 -0.0713 -0.0698  0.1615
 1493BOLB   GL335823   7.755  12.279   8.488  0.1038 -0.0756  0.0285
 1493BOLB   GL435824   7.884  12.432   8.591  0.0144 -0.1464 -0.1649
 1493BOLB   C1C35825   7.956  12.034   8.776 -0.0931  0.1959  0.0864
 1493BOLB   C2C35826   8.156  11.663   9.054  0.1617 -0.2906 -0.1306
 1493BOLB   C3C35827   8.335  11.686   9.460 -0.4209  0.0367 -0.4404
 1493BOLB   C4C35828   8.586  11.671   9.882 -0.1082 -0.0710  0.2556
 1493BOLB   C1D35829   7.820  12.519   9.073 -0.0105  0.0755 -0.0205
 1493BOLB   C2D35830   7.620  12.370   9.492  0.1720 -0.1119  0.2224
 1493BOLB   C3D35831   7.632  12.032   9.752 -0.0529  0.0602  0.0902
 1493BOLB   C4D35832   7.625  12.001  10.150  0.1615 -0.4132 -0.0612
 1494BOLB   NC135833  11.181  14.469  11.643  0.3616  0.2395 -0.2442
 1494BOLB   PO135834  11.375  14.907  11.725 -0.3624 -0.0009  0.0043
 1494BOLB   GL135835  11.290  14.867  11.222  0.0197 -0.2261 -0.4660
 1494BOLB   GL235836  10.996  14.570  11.162  0.0997  0.0927  0.3121
 1494BOLB   C1A35837  11.171  14.910  10.734 -0.0381  0.2587 -0.1094
 1494BOLB   C2A35838  11.199  14.838  10.230 -0.3413 -0.1963 -0.0277
 1494BOLB   C3A35839  11.388  14.583   9.906  0.0390 -0.0521  0.3067
 1494BOLB   C4A35840  11.389  14.514   9.393 -0.1523  0.0663 -0.0913
 1494BOLB   C1B35841  10.713  14.711  10.802  0.1762 -0.1883  0.1062
 1494BOLB   C2B35842  10.602  14.690  10.381 -0.0284 -0.0671 -0.1398
 1494BOLB   C3B35843  10.682  14.668   9.929 -0.0685 -0.4568 -0.0808
 1494BOLB   C4B35844  10.961  14.691   9.572  0.1164 -0.1521 -0.1571
 1494BOLB   NC235845  10.947  14.105   7.085  0.1016 -0.1787 -0.0513
 1494BOLB   PO235846  11.272  14.126   7.381  0.3238 -0.4787 -0.0075
 1494BOLB   GL335847  11.373  13.890   7.685 -0.2767  0.1121 -0.1737
 1494BOLB   GL435848  11.324  14.244   7.864  0.1195 -0.1979  0.1357
 1494BOLB   C1C35849  11.474  13.847   8.035 -0.1538 -0.0495 -0.2518
 1494BOLB   C2C35850  11.629  14.145   8.249 -0.2451  0.1614 -0.0978
 1494BOLB   C3C35851  11.731  14.258   8.686  0.1949 -0.1519  0.0605
 1494BOLB   C4C35852  11.648  14.355   9.093 -0.2370  0.1807  0.1926
 1494BOLB   C1D35853  11.253  14.435   8.345  0.3244  0.0940  0.2237
 1494BOLB   C2D35854  11.210  14.351   8.753 -0.0281  0.1884  0.0082
 1494BOLB   C3D35855  10.972  14.451   9.133  0.2805 -0.0207  0.2833
 1494BOLB   C4D35856  10.498  14.424   9.226  0.0885  0.0592  0.2481
 1495BOLB   NC135857  18.847   9.819  13.930 -0.2964 -0.3675  0.1395
 1495BOLB   PO135858  19.153   9.641  13.982  0.0969  0.2148 -0.0503
 1495BOLB   GL135859  19.476   9.499  13.688  0.2051  0.6262 -0.4334
 1495BOLB   GL235860  19.581   9.608  13.378 -0.0879  0.0935  0.1303
 1495BOLB   C1A35861  19.804   9.138  13.701 -0.0657  0.1746 -0.2083
 1495BOLB   C2A35862  20.089   8.861  13.576  0.0339  0.1026  0.1829
 1495BOLB   C3A35863  20.154   8.603  13.231 -0.1751 -0.1678  0.0239
 1495BOLB   C4A35864  20.509   8.593  12.851 -0.1881 -0.1181  0.0677
 1495BOLB   C1B35865  19.595   9.278  13.129 -0.1250  0.3024 -0.1084
 1495BOLB   C2B35866  19.707   8.930  13.184  0.1578  0.0320 -0.4995
 1495BOLB   C3B35867  19.732   8.795  12.787 -0.3700  0.0707  0.0727
 1495BOLB   C4B35868  19.571   8.608  12.421 -0.1230  0.0794 -0.1047
 1495BOLB   NC235869  21.921   7.169  11.106  0.1758  0.1327 -0.2228
 1495BOLB   PO235870  21.796   7.485  11.343 -0.3595  0.1505  0.0673
 1495BOLB   GL335871  21.479   7.753  11.499  0.0363 -0.0949 -0.0323
 1495BOLB   GL435872  21.691   7.897  11.541 -0.1720 -0.2333 -0.0293
 1495BOLB   C1C35873  21.147   7.942  11.628  0.1980  0.0415 -0.1775
 1495BOLB   C2C35874  20.831   8.164  11.902  0.0856  0.0496  0.0808
 1495BOLB   C3C35875  20.767   8.339  12.232 -0.4011  0.1163 -0.1281
 1495BOLB   C4C35876  20.771   8.482  12.552 -0.0024 -0.2597  0.0797
 1495BOLB   C1D35877  21.660   8.083  11.930  0.0794 -0.1469  0.1543
 1495BOLB   C2D35878  21.299   8.140  12.055 -0.3211  0.1101 -0.1937
 1495BOLB   C3D35879  21.158   8.003  12.426  0.1265  0.0329  0.1234
 1495BOLB   C4D35880  21.260   8.059  12.889  0.1291  0.0542 -0.0905
 1496BOLB   NC135881  22.353  18.951  13.646 -0.0763 -0.0897 -0.0706
 1496BOLB   PO135882  21.939  19.034  13.511 -0.4922  0.1345  0.1109
 1496BOLB   GL135883  22.212  19.229  13.097 -0.0085 -0.1608  0.0036
 1496BOLB   GL235884  22.054  19.239  12.687 -0.0139  0.2892 -0.2049
 1496BOLB   C1A35885  22.492  19.059  12.592 -0.1449  0.0273  0.1068
 1496BOLB   C2A35886  22.739  19.096  12.247  0.0818  0.2376 -0.2349
 1496BOLB   C3A35887  23.013  19.443  12.000  0.0882 -0.1069 -0.2519
 1496BOLB   C4A35888  23.427  19.609  11.868 -0.0856  0.0976  0.1252
 1496BOLB   C1B35889  22.240  19.376  12.305 -0.4066  0.2830 -0.1026
 1496BOLB   C2B35890  22.444  19.609  11.961 -0.2067  0.1966 -0.0709
 1496BOLB   C3B35891  22.527  19.886  11.710  0.1946 -0.0262  0.2714
 1496BOLB   C4B35892  22.478  20.329  11.499 -0.0280  0.0320 -0.1459
 1496BOLB   NC235893  26.003  19.892  12.051  0.1033 -0.0572  0.3022
 1496BOLB   PO235894  25.775  20.089  12.210  0.0434 -0.1077 -0.0314
 1496BOLB   GL335895  25.526  19.815  12.301 -0.0413 -0.4872 -0.0493
 1496BOLB   GL435896  25.618  19.653  12.635 -0.4708 -0.0675  0.0247
 1496BOLB   C1C35897  25.088  19.766  12.351 -0.1748  0.0354  0.1550
 1496BOLB   C2C35898  24.644  19.544  12.392  0.0177 -0.1241 -0.0630
 1496BOLB   C3C35899  24.258  19.731  12.083  0.0303  0.2120 -0.4260
 1496BOLB   C4C35900  23.881  19.722  12.064 -0.0161  0.2123  0.2827
 1496BOLB   C1D35901  25.215  19.565  12.885 -0.2112 -0.2152 -0.1963
 1496BOLB   C2D35902  24.798  19.808  12.867 -0.1856  0.0964 -0.1220
 1496BOLB   C3D35903  24.425  19.927  12.590 -0.1035 -0.1397  0.0922
 1496BOLB   C4D35904  24.332  20.329  12.384 -0.2202  0.0933  0.1532
 1497BOLB   NC135905  11.048  12.554  12.045 -0.2597 -0.2818  0.1224
 1497BOLB   PO135906  11.449  12.238  12.056  0.1234 -0.1983  0.0107
 1497BOLB   GL135907  11.469  12.154  11.643 -0.2038  0.2681 -0.0509
 1497BOLB   GL235908  11.338  11.819  11.619 -0.0453  0.0057 -0.0162
 1497BOLB   C1A35909  11.514  12.196  11.152  0.0037 -0.3197  0.3175
 1497BOLB   C2A35910  11.604  12.043  10.770 -0.2339  0.1658  0.1219
 1497BOLB   C3A35911  11.687  12.061  10.297 -0.1229 -0.0133  0.3786
 1497BOLB   C4A35912  11.732  12.154   9.830  0.1812  0.0799 -0.4754
 1497BOLB   C1B35913  11.168  11.919  11.256  0.1589 -0.1572 -0.0473
 1497BOLB   C2B35914  11.070  12.117  10.804  0.0588 -0.0841  0.0259
 1497BOLB   C3B35915  10.999  12.076  10.425 -0.0623 -0.2459  0.1260
 1497BOLB   C4B35916  11.230  12.233  10.169 -0.2559 -0.2189  0.2900
 1497BOLB   NC235917  13.015  12.554   7.393 -0.2101  0.2433  0.0222
 1497BOLB   PO235918  12.744  12.631   7.742 -0.2405  0.0515 -0.1631
 1497BOLB   GL335919  12.356  12.676   7.860 -0.0496  0.1479 -0.2494
 1497BOLB   GL435920  12.274  13.011   7.904 -0.1660  0.1294  0.1847
 1497BOLB   C1C35921  12.282  12.708   8.257  0.2277 -0.0787 -0.1742
 1497BOLB   C2C35922  12.014  12.585   8.713  0.0234 -0.4686  0.0373
 1497BOLB   C3C35923  11.888  12.323   9.079  0.1906 -0.0394  0.0772
 1497BOLB   C4C35924  11.717  12.411   9.479 -0.4197  0.1505  0.1669
 1497BOLB   C1D35925  12.504  13.162   8.272 -0.0136  0.1119  0.2790
 1497BOLB   C2D35926  12.653  13.040   8.633 -0.1477  0.3222  0.1623
 1497BOLB   C3D35927  12.892  12.842   8.960 -0.0942  0.1712 -0.1235
 1497BOLB   C4D35928  13.357  12.768   9.083 -0.3205 -0.2816  0.1999
 1498BOLB   NC135929   8.809  19.097  12.220  0.1222  0.3622  0.1799
 1498BOLB   PO135930   8.817  18.673  12.094  0.1323 -0.2341  0.0696
 1498BOLB   GL135931   8.715  18.787  11.736 -0.2928 -0.2662  0.1486
 1498BOLB   GL235932   8.838  19.065  11.686  0.0089 -0.1076  0.1988
 1498BOLB   C1A35933   8.395  18.773  11.464  0.2500 -0.0190  0.0722
 1498BOLB   C2A35934   8.135  18.669  11.158  0.3870  0.0720  0.0156
 1498BOLB   C3A35935   8.155  18.470  10.836 -0.2013 -0.0784  0.4119
 1498BOLB   C4A35936   8.045  18.194  10.503  0.1193  0.4005 -0.0941
 1498BOLB   C1B35937   8.748  19.002  11.270 -0.2749  0.0633  0.3523
 1498BOLB   C2B35938   8.601  18.725  10.873 -0.0139  0.1095  0.0671
 1498BOLB   C3B35939   8.419  18.747  10.453 -0.1534  0.0804 -0.0189
 1498BOLB   C4B35940   8.262  18.770  10.034  0.4572 -0.1444 -0.1252
 1498BOLB   NC235941   7.109  18.299   8.333  0.2360  0.0684  0.0708
 1498BOLB   PO235942   7.288  17.924   8.314 -0.0565  0.0246 -0.2674
 1498BOLB   GL335943   7.483  17.857   8.698 -0.2471 -0.2276 -0.0017
 1498BOLB   GL435944   7.729  17.566   8.607  0.1834 -0.1896 -0.1432
 1498BOLB   C1C35945   7.374  17.886   9.107 -0.1449 -0.1623 -0.0174
 1498BOLB   C2C35946   7.615  17.862   9.472 -0.1504 -0.2324 -0.1298
 1498BOLB   C3C35947   7.732  17.678   9.861 -0.0125 -0.0308 -0.0064
 1498BOLB   C4C35948   7.972  17.857  10.279 -0.5509 -0.3391 -0.5373
 1498BOLB   C1D35949   7.855  17.469   8.956 -0.2349 -0.2011  0.1513
 1498BOLB   C2D35950   8.052  17.608   9.262 -0.4083 -0.2092 -0.0734
 1498BOLB   C3D35951   8.094  17.434   9.657 -0.0166 -0.1073  0.0706
 1498BOLB   C4D35952   7.950  17.381  10.217  0.3673 -0.1585 -0.3214
 1499BOLB   NC135953  10.675  23.404  13.184 -0.1182  0.2609  0.0785
 1499BOLB   PO135954  11.015  23.617  13.306 -0.3098  0.2559 -0.2671
 1499BOLB   GL135955  11.070  23.999  13.110 -0.0740 -0.1071 -0.0666
 1499BOLB   GL235956  11.220  24.115  13.305 -0.0481  0.0845  0.2832
 1499BOLB   C1A35957  11.266  24.165  12.728 -0.1742 -0.1088  0.1030
 1499BOLB   C2A35958  11.130  24.505  12.635  0.2098  0.1761  0.2425
 1499BOLB   C3A35959  10.999  24.836  12.735 -0.0466 -0.0100  0.0493
 1499BOLB   C4A35960  11.032  25.321  12.748  0.3563  0.2258  0.0883
 1499BOLB   C1B35961  11.236  24.584  13.147 -0.0766  0.1713 -0.4420
 1499BOLB   C2B35962  11.332  24.936  13.143  0.0968 -0.0308 -0.1847
 1499BOLB   C3B35963  11.721  24.996  13.100  0.1012 -0.1316  0.0130
 1499BOLB   C4B35964  11.865  25.149  12.736 -0.3483  0.2919  0.2955
 1499BOLB   NC235965  10.309  26.624  10.597  0.0823  0.3783 -0.0709
 1499BOLB   PO235966  10.208  26.230  10.869 -0.0243 -0.4077 -0.1814
 1499BOLB   GL335967  10.299  25.933  11.210 -0.1267  0.0593 -0.2086
 1499BOLB   GL435968  10.541  25.626  11.031 -0.1182  0.1208 -0.2041
 1499BOLB   C1C35969  10.589  26.080  11.587 -0.0428  0.1496  0.0421
 1499BOLB   C2C35970  10.710  26.040  12.006 -0.4307  0.0893 -0.2875
 1499BOLB   C3C35971  10.965  26.004  12.246 -0.0700 -0.0736 -0.2769
 1499BOLB   C4C35972  10.990  25.665  12.455  0.1398  0.0149 -0.2287
 1499BOLB   C1D35973  10.576  25.478  11.445 -0.0093 -0.3318  0.1176
 1499BOLB   C2D35974  10.579  25.406  11.913 -0.1112 -0.2175  0.3818
 1499BOLB   C3D35975  10.522  25.493  12.237 -0.0448  0.0610  0.0689
 1499BOLB   C4D35976  10.488  25.868  12.446  0.2656 -0.0039  0.0684
 1500BOLB   NC135977  13.262  19.955  11.952  0.0603 -0.1806  0.3352
 1500BOLB   PO135978  13.139  20.129  11.507 -0.1618  0.3403 -0.0998
 1500BOLB   GL135979  12.999  20.087  11.069 -0.1303 -0.1291  0.3826
 1500BOLB   GL235980  13.140  20.009  10.840 -0.0882 -0.3038 -0.1200
 1500BOLB   C1A35981  12.745  20.299  10.721 -0.0674 -0.3493 -0.3581
 1500BOLB   C2A35982  12.836  20.491  10.337  0.0980  0.0048  0.1558
 1500BOLB   C3A35983  12.779  20.482   9.866 -0.1647  0.2036  0.0331
 1500BOLB   C4A35984  12.660  20.430   9.497 -0.2613  0.2010 -0.1101
 1500BOLB   C1B35985  13.177  20.156  10.430 -0.2213 -0.1817  0.3971
 1500BOLB   C2B35986  12.991  20.006  10.039  0.1539 -0.1995  0.1904
 1500BOLB   C3B35987  12.926  19.981   9.630  0.2612  0.0022  0.3894
 1500BOLB   C4B35988  12.855  19.776   9.335  0.2347 -0.1085  0.0052
 1500BOLB   NC235989  11.862  22.098   7.644  0.0138  0.0288  0.3189
 1500BOLB   PO235990  12.020  21.716   7.869 -0.0710  0.1233  0.0041
 1500BOLB   GL335991  12.048  21.196   7.990 -0.1626 -0.2026 -0.1197
 1500BOLB   GL435992  11.785  21.177   8.147  0.2664 -0.1107  0.3830
 1500BOLB   C1C35993  11.973  20.705   8.181  0.1275  0.3328 -0.0495
 1500BOLB   C2C35994  12.193  20.449   8.331 -0.0746 -0.0132 -0.2380
 1500BOLB   C3C35995  12.376  20.287   8.680 -0.0591  0.0508  0.1998
 1500BOLB   C4C35996  12.440  20.434   9.088  0.2575 -0.0002 -0.1028
 1500BOLB   C1D35997  12.115  21.085   8.449 -0.1122 -0.1302 -0.3570
 1500BOLB   C2D35998  12.233  21.192   8.845 -0.3117 -0.0354 -0.0558
 1500BOLB   C3D35999  12.128  21.242   9.343  0.0368  0.2106 -0.0985
 1500BOLB   C4D36000  11.860  21.016   9.657  0.4183  0.3063 -0.3088
 1501BOLB   NC136001  19.194  14.917  11.663 -0.0276 -0.1332  0.0481
 1501BOLB   PO136002  19.362  14.590  11.938 -0.3409 -0.1504 -0.1506
 1501BOLB   GL136003  19.387  14.502  11.505  0.4329  0.0034  0.5014
 1501BOLB   GL236004  19.427  14.236  11.391 -0.1808 -0.1937  0.0961
 1501BOLB   C1A36005  19.333  14.707  11.068 -0.2837  0.0040  0.0472
 1501BOLB   C2A36006  19.321  14.740  10.610 -0.0947 -0.2475 -0.1211
 1501BOLB   C3A36007  19.370  14.692  10.278 -0.0744  0.0174 -0.0871
 1501BOLB   C4A36008  19.534  14.394   9.950 -0.0243  0.4363  0.0821
 1501BOLB   C1B36009  19.641  14.300  11.075  0.2153 -0.1774  0.0319
 1501BOLB   C2B36010  19.658  14.358  10.667  0.3238  0.0288 -0.1263
 1501BOLB   C3B36011  19.859  14.269  10.340 -0.0657  0.2077 -0.0270
 1501BOLB   C4B36012  19.938  13.910  10.102 -0.0193  0.0075  0.1438
 1501BOLB   NC236013  20.555  14.295   7.910  0.1206 -0.0138  0.0006
 1501BOLB   PO236014  20.443  13.877   7.906  0.0367 -0.2391  0.1601
 1501BOLB   GL336015  20.461  13.858   8.299 -0.0775  0.0713  0.0806
 1501BOLB   GL436016  20.523  13.974   8.583 -0.0015  0.0153 -0.1869
 1501BOLB   C1C36017  20.261  13.548   8.666 -0.2577 -0.0073  0.1161
 1501BOLB   C2C36018  20.018  13.681   9.071  0.0783  0.3026  0.0535
 1501BOLB   C3C36019  19.809  13.804   9.492 -0.0317 -0.4029  0.1815
 1501BOLB   C4C36020  19.751  14.230   9.601  0.4822 -0.0198  0.2584
 1501BOLB   C1D36021  20.924  14.038   8.851  0.2582  0.0649 -0.1730
 1501BOLB   C2D36022  20.902  14.246   9.335  0.1115  0.0596  0.1447
 1501BOLB   C3D36023  20.606  14.273   9.754 -0.3813  0.0507  0.0858
 1501BOLB   C4D36024  20.159  14.287   9.894 -0.0963  0.1081  0.1113
 1502BOLB   NC136025  11.942  17.577  11.751 -0.1758  0.0231  0.0602
 1502BOLB   PO136026  12.141  17.867  11.452 -0.0403 -0.2571 -0.1026
 1502BOLB   GL136027  12.126  17.595  11.026 -0.1963  0.1353  0.2406
 1502BOLB   GL236028  12.272  17.388  11.029  0.0807  0.3267  0.3971
 1502BOLB   C1A36029  11.916  17.356  10.639  0.0264 -0.0645 -0.2914
 1502BOLB   C2A36030  11.768  17.247  10.234 -0.0278  0.3364  0.1149
 1502BOLB   C3A36031  11.801  17.391   9.737 -0.0968  0.0667 -0.1853
 1502BOLB   C4A36032  11.804  17.463   9.281  0.4052  0.0639 -0.0928
 1502BOLB   C1B36033  12.414  17.341  10.620 -0.1207  0.0332 -0.0433
 1502BOLB   C2B36034  12.295  17.405  10.106  0.4152  0.2250  0.0557
 1502BOLB   C3B36035  12.462  17.549   9.703  0.1080 -0.0733 -0.1805
 1502BOLB   C4B36036  12.539  17.646   9.283  0.0099 -0.1199  0.2343
 1502BOLB   NC236037  12.310  18.071   6.680 -0.1170  0.2398 -0.1427
 1502BOLB   PO236038  12.459  18.442   7.039  0.1305  0.0995 -0.2641
 1502BOLB   GL336039  12.180  18.242   7.369  0.1990 -0.0146  0.1897
 1502BOLB   GL436040  11.819  18.394   7.491 -0.4896  0.1150 -0.0311
 1502BOLB   C1C36041  12.203  18.126   7.848  0.0286 -0.0797  0.2632
 1502BOLB   C2C36042  12.335  18.018   8.298 -0.4386  0.0741 -0.1310
 1502BOLB   C3C36043  12.353  17.943   8.741 -0.0573  0.1123 -0.2072
 1502BOLB   C4C36044  12.052  17.675   9.020  0.4644 -0.2230 -0.0080
 1502BOLB   C1D36045  11.762  18.426   8.023 -0.2396  0.0398  0.1750
 1502BOLB   C2D36046  11.854  18.239   8.479 -0.1389 -0.0313 -0.2625
 1502BOLB   C3D36047  11.726  18.084   8.938  0.0690  0.3047  0.1344
 1502BOLB   C4D36048  11.410  17.910   9.314 -0.0875  0.2470  0.1078
 1503BOLB   NC136049  18.755  24.335  13.275  0.1148 -0.0248  0.0520
 1503BOLB   PO136050  18.333  24.326  13.046 -0.1654 -0.0410 -0.1837
 1503BOLB   GL136051  18.609  24.421  12.698  0.0634 -0.0075  0.1215
 1503BOLB   GL236052  18.359  24.425  12.464  0.1296  0.0006 -0.0702
 1503BOLB   C1A36053  19.016  24.740  12.655  0.0216 -0.1300 -0.1134
 1503BOLB   C2A36054  19.560  24.785  12.694 -0.4061  0.1121  0.2223
 1503BOLB   C3A36055  20.000  24.729  12.438  0.0025 -0.2524  0.0284
 1503BOLB   C4A36056  20.020  24.843  12.043 -0.0677 -0.0703  0.1428
 1503BOLB   C1B36057  18.412  24.468  12.042 -0.2544  0.1067  0.1278
 1503BOLB   C2B36058  18.513  24.662  11.748  0.0497 -0.1167 -0.0068
 1503BOLB   C3B36059  18.583  24.901  11.414 -0.0781  0.0344  0.1806
 1503BOLB   C4B36060  18.658  25.339  11.405 -0.0307 -0.3119  0.1443
 1503BOLB   NC236061  21.270  25.457   9.905 -0.0744 -0.0792 -0.2186
 1503BOLB   PO236062  21.110  25.106  10.033  0.2613 -0.0501 -0.1163
 1503BOLB   GL336063  20.973  25.181  10.425 -0.2030  0.3367  0.0610
 1503BOLB   GL436064  20.913  25.479  10.461  0.3561 -0.0451  0.2695
 1503BOLB   C1C36065  20.981  25.311  10.900  0.0558  0.3209  0.1503
 1503BOLB   C2C36066  20.757  25.327  11.197 -0.4761 -0.0229  0.1886
 1503BOLB   C3C36067  20.460  25.172  11.488  0.4844  0.3201 -0.1428
 1503BOLB   C4C36068  20.343  24.836  11.840  0.0856 -0.0411  0.0036
 1503BOLB   C1D36069  20.547  25.176  10.658 -0.1945  0.2812 -0.1530
 1503BOLB   C2D36070  20.541  24.950  11.061  0.1996  0.2029  0.0214
 1503BOLB   C3D36071  20.490  24.666  11.396 -0.0677  0.0640  0.2973
 1503BOLB   C4D36072  20.259  24.320  11.716  0.3300  0.2040  0.3680
 1504BOLB   NC136073  21.505  21.636  14.033  0.2544 -0.2630  0.0333
 1504BOLB   PO136074  21.593  21.583  14.435  0.2784  0.0890 -0.0114
 1504BOLB   GL136075  22.033  21.649  14.132  0.0466  0.0603 -0.0083
 1504BOLB   GL236076  22.003  21.376  13.892  0.0341 -0.0181  0.0637
 1504BOLB   C1A36077  22.439  21.654  13.885  0.2318  0.0986  0.0591
 1504BOLB   C2A36078  22.876  21.468  13.885  0.1771 -0.1940 -0.1720
 1504BOLB   C3A36079  23.229  21.617  13.659  0.2784 -0.5413  0.0059
 1504BOLB   C4A36080  23.676  21.558  13.398 -0.2643 -0.1426  0.3827
 1504BOLB   C1B36081  22.452  21.229  13.635 -0.0366  0.0884 -0.2124
 1504BOLB   C2B36082  22.788  21.360  13.417 -0.0230  0.1083 -0.1862
 1504BOLB   C3B36083  23.149  21.419  13.099  0.1282  0.0428 -0.0625
 1504BOLB   C4B36084  23.401  21.574  12.761  0.1071 -0.1322 -0.0869
 1504BOLB   NC236085  26.093  22.310  12.800 -0.1658  0.0603  0.1822
 1504BOLB   PO236086  26.067  21.838  12.809 -0.2088  0.1720 -0.0573
 1504BOLB   GL336087  25.630  21.632  12.849  0.0544 -0.1451 -0.0684
 1504BOLB   GL436088  25.746  21.344  12.881 -0.2181 -0.3010 -0.0663
 1504BOLB   C1C36089  25.281  21.536  13.052 -0.2136  0.0284  0.0453
 1504BOLB   C2C36090  24.904  21.582  13.270  0.0079  0.2159 -0.1626
 1504BOLB   C3C36091  24.476  21.404  13.437  0.0913  0.5389 -0.5001
 1504BOLB   C4C36092  24.057  21.456  13.524 -0.1740 -0.2065  0.1200
 1504BOLB   C1D36093  25.745  21.282  13.368  0.0037 -0.4305  0.1725
 1504BOLB   C2D36094  25.574  21.114  13.901 -0.0470 -0.1013 -0.0572
 1504BOLB   C3D36095  25.253  20.801  13.977  0.1685 -0.0116 -0.1025
 1504BOLB   C4D36096  25.296  20.311  14.224 -0.0337 -0.0989 -0.2284
 1505BOLB   NC136097  11.712  10.647  11.866  0.0301  0.0437  0.3028
 1505BOLB   PO136098  11.384  10.300  11.928 -0.1381 -0.2563 -0.0071
 1505BOLB   GL136099  11.294  10.550  11.568 -0.1651  0.0856  0.0726
 1505BOLB   GL236100  10.985  10.589  11.433  0.0146  0.0782  0.0676
 1505BOLB   C1A36101  11.531  10.650  11.182 -0.0834 -0.1544 -0.0535
 1505BOLB   C2A36102  11.577  10.526  10.729 -0.4043  0.0089 -0.3799
 1505BOLB   C3A36103  11.564  10.211  10.454  0.0358 -0.3450  0.0317
 1505BOLB   C4A36104  11.825  10.027  10.185 -0.0955 -0.1072 -0.1502
 1505BOLB   C1B36105  11.122  10.498  11.015  0.0262 -0.1642  0.3344
 1505BOLB   C2B36106  11.102  10.637  10.507 -0.2921  0.0381 -0.0117
 1505BOLB   C3B36107  11.062  10.847  10.077  0.0670  0.1877 -0.1007
 1505BOLB   C4B36108  10.849  10.874   9.682  0.1325 -0.0155  0.1368
 1505BOLB   NC236109  12.897  10.202   7.866 -0.1428 -0.3321  0.1408
 1505BOLB   PO236110  12.479  10.163   7.843 -0.0656 -0.2544 -0.2471
 1505BOLB   GL336111  12.500  10.151   8.280  0.1277  0.2718  0.0018
 1505BOLB   GL436112  12.772  10.411   8.333  0.0495 -0.0867 -0.2786
 1505BOLB   C1C36113  12.456  10.076   8.706  0.0034  0.1489  0.1245
 1505BOLB   C2C36114  12.257  10.192   9.124 -0.0221 -0.1585 -0.0435
 1505BOLB   C3C36115  12.279  10.195   9.617  0.0751  0.1556  0.0088
 1505BOLB   C4C36116  12.224  10.125   9.963 -0.2875 -0.0253 -0.0773
 1505BOLB   C1D36117  13.071  10.788   8.358  0.3834  0.0363  0.0784
 1505BOLB   C2D36118  13.384  10.856   8.642 -0.1294  0.1384 -0.1954
 1505BOLB   C3D36119  13.422  10.685   8.997  0.3715  0.0599  0.0821
 1505BOLB   C4D36120  13.424  10.704   9.477 -0.1807  0.2588 -0.1703
 1506BOLB   NC136121  21.598  13.112  13.177  0.2133  0.1656 -0.0808
 1506BOLB   PO136122  21.237  13.026  13.004  0.1676 -0.0119 -0.3656
 1506BOLB   GL136123  21.548  12.906  12.694  0.2133 -0.0397 -0.0872
 1506BOLB   GL236124  21.364  12.528  12.653  0.3187  0.2260 -0.2473
 1506BOLB   C1A36125  21.827  12.895  12.348  0.4780  0.2173 -0.1451
 1506BOLB   C2A36126  21.901  12.947  11.912 -0.1104  0.2626 -0.1511
 1506BOLB   C3A36127  22.077  13.017  11.583  0.0364 -0.0522 -0.3738
 1506BOLB   C4A36128  22.283  12.971  11.162 -0.1626 -0.3597  0.1091
 1506BOLB   C1B36129  21.395  12.565  12.184 -0.2915 -0.0789 -0.0896
 1506BOLB   C2B36130  21.517  12.473  11.837  0.1969 -0.0106 -0.0036
 1506BOLB   C3B36131  21.877  12.313  11.662  0.3678  0.0633 -0.3364
 1506BOLB   C4B36132  22.159  12.192  11.357  0.2844 -0.3892 -0.0713
 1506BOLB   NC236133  23.148  12.415   8.963  0.1268 -0.0802  0.0851
 1506BOLB   PO236134  22.682  12.194   8.859 -0.3447  0.0638  0.0677
 1506BOLB   GL336135  22.684  12.458   9.212  0.1279 -0.3999 -0.1180
 1506BOLB   GL436136  22.498  12.464   9.473 -0.0564 -0.0405  0.0922
 1506BOLB   C1C36137  22.959  12.573   9.651  0.2517 -0.1289 -0.1052
 1506BOLB   C2C36138  22.894  12.769   9.994  0.0627  0.0786  0.1142
 1506BOLB   C3C36139  22.843  12.928  10.423  0.3040 -0.0882 -0.0208
 1506BOLB   C4C36140  22.473  12.929  10.784 -0.0357 -0.1329  0.1855
 1506BOLB   C1D36141  22.405  12.736   9.694  0.1450  0.3654  0.0069
 1506BOLB   C2D36142  22.041  13.005   9.667 -0.0187 -0.1902 -0.1947
 1506BOLB   C3D36143  21.613  13.197   9.905  0.2912 -0.0307 -0.0099
 1506BOLB   C4D36144  21.224  13.154  10.056 -0.1314 -0.0466 -0.0520
 1507BOLB   NC136145  14.920  15.492  11.323 -0.2386  0.0003 -0.4030
 1507BOLB   PO136146  15.188  15.889  11.333  0.0323 -0.0638  0.4165
 1507BOLB   GL136147  14.978  15.954  10.951 -0.1829  0.1454 -0.0662
 1507BOLB   GL236148  14.856  15.744  10.872  0.1993 -0.2909 -0.1013
 1507BOLB   C1A36149  15.185  15.890  10.533 -0.0806  0.1213  0.0071
 1507BOLB   C2A36150  15.120  15.944  10.040  0.0066  0.0266  0.1897
 1507BOLB   C3A36151  14.985  15.955   9.660 -0.2659 -0.1202 -0.0475
 1507BOLB   C4A36152  14.685  15.934   9.356  0.0164 -0.0528  0.0750
 1507BOLB   C1B36153  14.701  15.832  10.443  0.3439 -0.0192 -0.5081
 1507BOLB   C2B36154  14.682  16.088  10.133 -0.1441 -0.0112  0.0567
 1507BOLB   C3B36155  14.620  16.304   9.799 -0.2944  0.0494 -0.4396
 1507BOLB   C4B36156  14.734  16.549   9.473  0.1091  0.0940 -0.0391
 1507BOLB   NC236157  13.402  15.639   6.855 -0.1069  0.2139  0.0525
 1507BOLB   PO236158  13.738  15.556   7.001  0.1800 -0.0827 -0.0353
 1507BOLB   GL336159  13.583  15.490   7.400  0.1151 -0.2847  0.1000
 1507BOLB   GL436160  13.752  15.212   7.568 -0.0802  0.4187  0.0441
 1507BOLB   C1C36161  13.617  15.567   7.867 -0.0081  0.0547  0.2401
 1507BOLB   C2C36162  13.912  15.668   8.131 -0.0407 -0.0208 -0.1408
 1507BOLB   C3C36163  14.203  15.737   8.531 -0.2279  0.1393  0.3261
 1507BOLB   C4C36164  14.508  15.859   8.916  0.2591 -0.3645  0.1055
 1507BOLB   C1D36165  14.027  15.538   7.586  0.1789  0.0117  0.1640
 1507BOLB   C2D36166  13.889  15.948   7.684 -0.0139  0.0066 -0.0017
 1507BOLB   C3D36167  14.039  16.164   8.085 -0.2142  0.0739 -0.0768
 1507BOLB   C4D36168  14.459  16.017   8.165 -0.1169  0.0657 -0.1961
 1508BOLB   NC136169  21.088  23.425  15.519  0.1925  0.0751 -0.0844
 1508BOLB   PO136170  21.349  23.584  15.957 -0.0762  0.1647  0.3217
 1508BOLB   GL136171  21.721  23.839  15.921 -0.2693 -0.0801 -0.1669
 1508BOLB   GL236172  21.736  24.040  16.204  0.0005 -0.2580 -0.0880
 1508BOLB   C1A36173  21.991  24.145  15.716  0.0817 -0.0524 -0.2125
 1508BOLB   C2A36174  22.333  24.266  15.846 -0.1785  0.1090 -0.1496
 1508BOLB   C3A36175  22.639  24.536  15.949 -0.0942  0.0200 -0.1939
 1508BOLB   C4A36176  22.930  24.880  16.041  0.1344 -0.1356 -0.0652
 1508BOLB   C1B36177  22.032  24.365  16.243 -0.4608  0.0260 -0.1820
 1508BOLB   C2B36178  22.261  24.563  16.383 -0.3053  0.1504 -0.1039
 1508BOLB   C3B36179  22.587  24.752  16.481  0.0037  0.1239 -0.2795
 1508BOLB   C4B36180  22.513  25.217  16.368  0.0166  0.0450  0.0398
 1508BOLB   NC236181  23.769  27.107  16.794  0.1562  0.0273 -0.0484
 1508BOLB   PO236182  23.948  26.742  16.902  0.0484  0.1451 -0.0103
 1508BOLB   GL336183  23.585  26.526  16.639 -0.2236 -0.1176  0.0293
 1508BOLB   GL436184  23.595  26.623  16.313 -0.0398  0.0669  0.0196
 1508BOLB   C1C36185  23.473  26.108  16.417  0.1977 -0.1746 -0.2457
 1508BOLB   C2C36186  23.586  25.904  15.993  0.2687  0.0098 -0.2897
 1508BOLB   C3C36187  23.401  25.447  15.932  0.1849  0.5361 -0.2337
 1508BOLB   C4C36188  23.102  25.254  16.124 -0.4200 -0.1949 -0.0438
 1508BOLB   C1D36189  23.238  26.532  16.292  0.2363  0.1362  0.2665
 1508BOLB   C2D36190  23.044  26.467  16.635 -0.1204 -0.1856 -0.0736
 1508BOLB   C3D36191  22.659  26.195  16.716 -0.3708  0.0687 -0.1470
 1508BOLB   C4D36192  22.215  26.156  16.776  0.3003  0.3508  0.0096
 1509BOLB   NC136193   9.549  22.114  12.754 -0.0734  0.0680  0.1463
 1509BOLB   PO136194   9.478  21.836  12.422 -0.0074  0.1811  0.2770
 1509BOLB   GL136195   9.430  21.776  12.012 -0.2814  0.2057 -0.0775
 1509BOLB   GL236196   9.358  21.592  11.834  0.0020  0.0293  0.1786
 1509BOLB   C1A36197   9.370  22.070  11.657 -0.0722 -0.0303 -0.0821
 1509BOLB   C2A36198   9.361  21.851  11.224 -0.0065 -0.0501  0.0331
 1509BOLB   C3A36199   9.387  21.788  10.710 -0.1996 -0.2398 -0.0660
 1509BOLB   C4A36200   9.594  21.776  10.345  0.1276 -0.2500 -0.2007
 1509BOLB   C1B36201   9.463  21.398  11.373  0.1062  0.1100  0.1271
 1509BOLB   C2B36202   9.630  21.139  11.041  0.1569 -0.0560  0.2610
 1509BOLB   C3B36203   9.628  20.876  10.717  0.1972  0.0027  0.0732
 1509BOLB   C4B36204   9.609  20.634  10.230  0.0364  0.0896  0.1538
 1509BOLB   NC236205   9.423  22.473   7.754  0.2752 -0.3035 -0.2560
 1509BOLB   PO236206   9.757  22.119   7.907  0.1356 -0.0626 -0.1889
 1509BOLB   GL336207   9.469  22.094   8.321 -0.0125 -0.2253 -0.2552
 1509BOLB   GL436208   9.240  22.290   8.616  0.0543  0.3127  0.2409
 1509BOLB   C1C36209   9.495  21.882   8.790 -0.2288  0.0370 -0.1942
 1509BOLB   C2C36210   9.577  21.915   9.224 -0.1852  0.2311 -0.1695
 1509BOLB   C3C36211   9.397  21.836   9.603  0.0687  0.0007  0.0088
 1509BOLB   C4C36212   9.439  21.585   9.910 -0.0188  0.0954  0.4039
 1509BOLB   C1D36213   9.315  22.492   8.980  0.0852  0.0865  0.0322
 1509BOLB   C2D36214   9.321  22.518   9.446  0.0605  0.0842 -0.0715
 1509BOLB   C3D36215   9.128  22.280   9.893 -0.1785  0.1132  0.1504
 1509BOLB   C4D36216   9.262  22.147  10.235 -0.2769 -0.1863 -0.1458
 1510BOLB   NC136217  22.566  18.555  13.494  0.1375  0.1050  0.1648
 1510BOLB   PO136218  22.791  18.255  13.455 -0.2117 -0.0244  0.2210
 1510BOLB   GL136219  23.012  18.181  13.086 -0.0037 -0.0350 -0.3341
 1510BOLB   GL236220  22.867  17.771  12.853 -0.1668  0.1536  0.1133
 1510BOLB   C1A36221  23.366  18.422  12.882  0.1056 -0.2719  0.2371
 1510BOLB   C2A36222  23.649  18.485  12.441  0.0486 -0.3574 -0.1604
 1510BOLB   C3A36223  23.673  18.620  11.989 -0.1020 -0.0132  0.0362
 1510BOLB   C4A36224  23.655  18.865  11.576  0.0478  0.0849  0.3212
 1510BOLB   C1B36225  22.968  18.163  12.599 -0.0768  0.1897  0.3262
 1510BOLB   C2B36226  23.178  18.390  12.221  0.1630 -0.1507  0.0787
 1510BOLB   C3B36227  23.424  18.215  11.792 -0.3497  0.0139  0.0951
 1510BOLB   C4B36228  23.587  18.191  11.320  0.0031  0.1221  0.2161
 1510BOLB   NC236229  25.107  20.311  10.912  0.2043  0.1833 -0.1523
 1510BOLB   PO236230  24.976  19.868  10.949 -0.0602 -0.0433 -0.0728
 1510BOLB   GL336231  24.788  19.843  11.302  0.2169 -0.1793  0.2757
 1510BOLB   GL436232  24.933  20.041  11.546 -0.3588  0.0798  0.2268
 1510BOLB   C1C36233  24.247  19.856  11.267  0.3345 -0.0646 -0.0737
 1510BOLB   C2C36234  23.913  19.616  10.988 -0.2163  0.0201  0.0371
 1510BOLB   C3C36235  23.563  19.313  11.013 -0.3860 -0.1740  0.4234
 1510BOLB   C4C36236  23.539  18.952  11.165 -0.3213  0.2124 -0.1562
 1510BOLB   C1D36237  24.536  20.150  11.633  0.1575 -0.1257 -0.1830
 1510BOLB   C2D36238  24.229  20.207  11.908 -0.2244 -0.1329 -0.1923
 1510BOLB   C3D36239  23.904  20.259  12.149 -0.1072 -0.2942  0.2928
 1510BOLB   C4D36240  23.561  20.566  12.111  0.2610  0.3922  0.1371
 1511BOLB   NC136241  10.435   9.331  12.361  0.0746  0.1387 -0.0623
 1511BOLB   PO136242  10.726   8.996  12.106  0.1105  0.0740  0.0045
 1511BOLB   GL136243  10.688   9.021  11.724 -0.5867  0.0418  0.2022
 1511BOLB   GL236244  10.957   8.814  11.663  0.3349 -0.2316 -0.3387
 1511BOLB   C1A36245  10.715   9.169  11.246 -0.0411 -0.0959  0.0484
 1511BOLB   C2A36246  10.746   9.179  10.813 -0.2902 -0.1616  0.1290
 1511BOLB   C3A36247  10.805   9.192  10.400 -0.0329  0.4691 -0.0176
 1511BOLB   C4A36248  10.985   8.996  10.031 -0.0394  0.0379 -0.2086
 1511BOLB   C1B36249  11.185   8.973  11.342  0.2166 -0.0414 -0.2863
 1511BOLB   C2B36250  11.224   9.061  10.935  0.0263 -0.1083 -0.0254
 1511BOLB   C3B36251  11.250   8.963  10.451 -0.1526  0.0259 -0.0432
 1511BOLB   C4B36252  11.519   9.133  10.167  0.1108 -0.2092  0.4162
 1511BOLB   NC236253  11.527   8.130   7.288  0.1291  0.1821 -0.0534
 1511BOLB   PO236254  11.359   8.512   7.553  0.3708  0.1499  0.1038
 1511BOLB   GL336255  11.374   8.552   7.957  0.0559  0.3507 -0.0210
 1511BOLB   GL436256  11.523   8.292   8.132 -0.0458  0.2259 -0.0940
 1511BOLB   C1C36257  11.160   8.724   8.422  0.1101  0.2424  0.0768
 1511BOLB   C2C36258  10.980   8.900   8.784  0.0746 -0.2178 -0.4972
 1511BOLB   C3C36259  10.845   8.926   9.217  0.0701 -0.0363 -0.4326
 1511BOLB   C4C36260  10.809   8.896   9.663 -0.1524  0.0779 -0.1133
 1511BOLB   C1D36261  11.619   8.575   8.460 -0.0732 -0.2524 -0.1292
 1511BOLB   C2D36262  11.512   8.906   8.739  0.1086 -0.0508  0.1473
 1511BOLB   C3D36263  11.294   9.038   9.114  0.1983 -0.0213 -0.1040
 1511BOLB   C4D36264  11.262   9.085   9.597  0.0241  0.0548 -0.0265
 1512BOLB   NC136265  19.626  14.908  12.274 -0.1991 -0.1998 -0.0574
 1512BOLB   PO136266  19.831  14.764  11.826 -0.2275  0.2324 -0.0576
 1512BOLB   GL136267  19.893  14.559  11.392  0.1975 -0.1289 -0.2000
 1512BOLB   GL236268  20.038  14.348  11.436 -0.1732 -0.1178  0.1015
 1512BOLB   C1A36269  20.112  14.357  10.950  0.3173  0.1592  0.1477
 1512BOLB   C2A36270  20.305  14.440  10.556  0.2673  0.0054  0.1121
 1512BOLB   C3A36271  20.283  14.598  10.222 -0.1084  0.2080  0.1755
 1512BOLB   C4A36272  20.347  14.763   9.814 -0.1336 -0.1636  0.0516
 1512BOLB   C1B36273  20.292  13.999  11.280  0.2635  0.1264 -0.3244
 1512BOLB   C2B36274  20.674  14.081  10.972  0.1531 -0.1178 -0.0150
 1512BOLB   C3B36275  20.792  13.731  10.649  0.0794 -0.1429  0.2786
 1512BOLB   C4B36276  20.895  13.769  10.216  0.3810 -0.1460 -0.0660
 1512BOLB   NC236277  21.421  15.341   7.972 -0.2950  0.2972  0.0302
 1512BOLB   PO236278  21.070  15.576   7.970 -0.3245 -0.0505  0.3893
 1512BOLB   GL336279  20.681  15.620   8.264  0.1623 -0.0583 -0.4530
 1512BOLB   GL436280  20.590  15.970   8.486  0.1536  0.1145 -0.1784
 1512BOLB   C1C36281  20.394  15.520   8.672 -0.2469 -0.0735 -0.2146
 1512BOLB   C2C36282  20.453  15.175   8.920  0.0784  0.2635 -0.1030
 1512BOLB   C3C36283  20.334  14.852   8.997 -0.1472 -0.1833  0.1171
 1512BOLB   C4C36284  20.570  14.734   9.412 -0.0882 -0.0827  0.0656
 1512BOLB   C1D36285  20.379  16.053   8.945 -0.1190 -0.1225 -0.2689
 1512BOLB   C2D36286  19.994  15.861   9.134 -0.0267  0.0001  0.0350
 1512BOLB   C3D36287  19.759  15.665   9.464 -0.0715 -0.2839 -0.2065
 1512BOLB   C4D36288  19.298  15.662   9.461  0.3298 -0.0210  0.0402
 1513BOLB   NC136289  11.765  18.033  11.133  0.1372  0.1350  0.0351
 1513BOLB   PO136290  11.693  17.524  11.334 -0.5480 -0.0391 -0.1739
 1513BOLB   GL136291  11.519  17.434  10.899  0.2169  0.2035  0.3339
 1513BOLB   GL236292  11.590  17.719  10.796  0.2785  0.1382  0.0570
 1513BOLB   C1A36293  11.293  17.425  10.470  0.0755  0.1764 -0.0519
 1513BOLB   C2A36294  11.070  17.356  10.053 -0.0664 -0.1103  0.0271
 1513BOLB   C3A36295  10.847  17.616   9.872 -0.1351 -0.0563  0.2756
 1513BOLB   C4A36296  10.568  17.829   9.550 -0.2520  0.0849 -0.3911
 1513BOLB   C1B36297  11.699  17.777  10.372 -0.0987 -0.1807  0.1874
 1513BOLB   C2B36298  11.486  17.743   9.967 -0.3055  0.1756  0.2385
 1513BOLB   C3B36299  11.287  17.571   9.614  0.1642 -0.0132 -0.0711
 1513BOLB   C4B36300  10.985  17.591   9.243  0.1075  0.0104 -0.0285
 1513BOLB   NC236301   9.325  18.085   7.593 -0.2315 -0.0571 -0.0057
 1513BOLB   PO236302   9.160  18.362   7.749 -0.1938 -0.3800 -0.1748
 1513BOLB   GL336303   9.170  18.150   8.137 -0.0109 -0.0890  0.0016
 1513BOLB   GL436304   9.153  18.341   8.411 -0.2139 -0.0948  0.1087
 1513BOLB   C1C36305   9.440  17.913   8.320 -0.1997 -0.0590  0.0941
 1513BOLB   C2C36306   9.644  17.829   8.717 -0.1156  0.0404 -0.0164
 1513BOLB   C3C36307   9.965  17.748   9.056 -0.0398  0.3477 -0.2629
 1513BOLB   C4C36308  10.183  17.651   9.445  0.0540  0.4197  0.1479
 1513BOLB   C1D36309   9.461  18.404   8.700  0.2841  0.1288 -0.1164
 1513BOLB   C2D36310   9.820  18.237   8.975  0.0615  0.0080  0.2302
 1513BOLB   C3D36311   9.764  18.431   9.227  0.1731  0.1028 -0.0344
 1513BOLB   C4D36312   9.798  18.767   9.407  0.2824  0.1066  0.1091
 1514BOLB   NC136313  15.988  12.451  11.609  0.0363 -0.3702 -0.0134
 1514BOLB   PO136314  16.215  12.169  11.903  0.1031 -0.1048  0.2647
 1514BOLB   GL136315  16.577  12.204  11.689  0.2766 -0.1396  0.0567
 1514BOLB   GL236316  16.349  12.201  11.363  0.2823  0.0777  0.0726
 1514BOLB   C1A36317  16.794  12.446  11.303  0.3887 -0.2812  0.4187
 1514BOLB   C2A36318  16.959  12.333  10.886  0.0704 -0.1034  0.1587
 1514BOLB   C3A36319  17.080  12.423  10.497 -0.0054  0.0047  0.2796
 1514BOLB   C4A36320  17.194  12.650  10.144  0.3219 -0.4876 -0.0631
 1514BOLB   C1B36321  16.523  11.827  11.018  0.1204 -0.0439 -0.0766
 1514BOLB   C2B36322  16.989  11.855  10.744  0.0980 -0.1505 -0.0654
 1514BOLB   C3B36323  17.045  11.834  10.258 -0.6271 -0.0074  0.0878
 1514BOLB   C4B36324  16.871  11.657   9.859 -0.3108 -0.0537 -0.2146
 1514BOLB   NC236325  16.076  11.898   7.582  0.4795  0.0524  0.2771
 1514BOLB   PO236326  16.499  12.052   7.719  0.0182  0.1380  0.1277
 1514BOLB   GL336327  16.483  11.951   8.125 -0.0665  0.1322  0.0175
 1514BOLB   GL436328  16.097  11.920   8.092  0.0929  0.1220 -0.2580
 1514BOLB   C1C36329  16.681  12.208   8.416 -0.1097  0.1213  0.1482
 1514BOLB   C2C36330  16.841  12.488   8.795  0.0193 -0.0574  0.4062
 1514BOLB   C3C36331  17.032  12.631   9.221 -0.2710 -0.1539  0.0940
 1514BOLB   C4C36332  17.204  12.623   9.677  0.1036 -0.0238 -0.1860
 1514BOLB   C1D36333  16.087  11.904   8.531 -0.1276 -0.1399 -0.2899
 1514BOLB   C2D36334  15.906  11.969   8.854  0.0516  0.2510  0.2230
 1514BOLB   C3D36335  15.666  12.238   9.145  0.0100 -0.1409  0.3065
 1514BOLB   C4D36336  15.267  12.131   9.397  0.0785  0.1735 -0.1409
 1515BOLB   NC136337  22.301  15.972  13.038 -0.1345 -0.2535  0.0729
 1515BOLB   PO136338  22.633  15.811  13.335 -0.2408 -0.0718 -0.3066
 1515BOLB   GL136339  22.934  15.828  13.083  0.0474 -0.0613 -0.2703
 1515BOLB   GL236340  22.719  15.886  12.779 -0.4497  0.0805 -0.3022
 1515BOLB   C1A36341  23.366  15.728  12.789 -0.2985  0.1009 -0.0643
 1515BOLB   C2A36342  23.615  15.749  12.337 -0.2104 -0.5167 -0.2703
 1515BOLB   C3A36343  23.960  15.762  12.086 -0.0998 -0.0091 -0.1036
 1515BOLB   C4A36344  24.228  16.030  11.779 -0.0416 -0.1448 -0.0627
 1515BOLB   C1B36345  22.993  15.819  12.506 -0.1556 -0.0951  0.0428
 1515BOLB   C2B36346  23.133  15.713  12.105 -0.1037  0.2708 -0.2007
 1515BOLB   C3B36347  23.261  15.828  11.738 -0.3118 -0.0249  0.0666
 1515BOLB   C4B36348  23.358  16.005  11.337  0.3365 -0.0352  0.0243
 1515BOLB   NC236349  26.183  17.514  11.008  0.2074 -0.1102  0.0860
 1515BOLB   PO236350  25.897  17.177  11.040  0.0817 -0.1733  0.3136
 1515BOLB   GL336351  25.560  17.043  11.322  0.6663 -0.3567 -0.1636
 1515BOLB   GL436352  25.624  16.774  11.299 -0.2553  0.0073 -0.0727
 1515BOLB   C1C36353  25.054  17.135  11.468 -0.0973 -0.1101  0.3014
 1515BOLB   C2C36354  24.705  16.802  11.328  0.0738 -0.6098 -0.0210
 1515BOLB   C3C36355  24.617  16.399  11.509 -0.2558  0.0903  0.0393
 1515BOLB   C4C36356  24.550  16.148  11.679 -0.0639  0.2560 -0.1162
 1515BOLB   C1D36357  25.378  16.892  11.741 -0.2180  0.0549  0.1309
 1515BOLB   C2D36358  25.197  17.136  12.111 -0.0871 -0.0006  0.4532
 1515BOLB   C3D36359  25.229  17.591  12.362  0.0308 -0.1893 -0.3264
 1515BOLB   C4D36360  25.295  18.080  12.494 -0.3240  0.1552  0.0483
 1516BOLB   NC136361  20.511  15.955  11.922 -0.1097 -0.3588  0.2705
 1516BOLB   PO136362  20.464  16.341  12.133 -0.0844  0.5424 -0.0406
 1516BOLB   GL136363  20.731  16.481  11.788  0.0653  0.2675  0.3472
 1516BOLB   GL236364  21.056  16.358  11.744  0.0261 -0.1064  0.1593
 1516BOLB   C1A36365  20.879  16.279  11.305  0.4707  0.2512 -0.0561
 1516BOLB   C2A36366  21.113  16.030  11.042 -0.0742  0.0078  0.0110
 1516BOLB   C3A36367  21.078  15.764  10.737 -0.1308  0.1421  0.1582
 1516BOLB   C4A36368  21.014  15.719  10.353 -0.1262 -0.1393  0.3766
 1516BOLB   C1B36369  21.465  16.323  11.544  0.1893 -0.2480 -0.1331
 1516BOLB   C2B36370  21.628  16.259  11.061  0.1344 -0.3295  0.0126
 1516BOLB   C3B36371  21.592  16.260  10.741  0.2489 -0.0918  0.0154
 1516BOLB   C4B36372  21.714  16.146  10.297 -0.3979 -0.0086  0.0146
 1516BOLB   NC236373  22.032  15.354   8.458 -0.5392 -0.1844  0.1633
 1516BOLB   PO236374  21.831  15.421   8.224  0.0771  0.0701 -0.0050
 1516BOLB   GL336375  21.527  15.400   8.446 -0.4318 -0.0365 -0.2326
 1516BOLB   GL436376  21.568  15.064   8.651 -0.0445 -0.1583  0.0881
 1516BOLB   C1C36377  21.376  15.464   8.855 -0.0636  0.3983 -0.1253
 1516BOLB   C2C36378  21.104  15.454   9.151 -0.3100  0.2478  0.0492
 1516BOLB   C3C36379  20.942  15.595   9.550  0.0412  0.2257  0.0067
 1516BOLB   C4C36380  21.100  15.546   9.939  0.1090 -0.0112 -0.2372
 1516BOLB   C1D36381  21.321  14.997   9.023  0.1602 -0.0933 -0.0977
 1516BOLB   C2D36382  20.951  14.565   8.896 -0.0485  0.1414 -0.1474
 1516BOLB   C3D36383  20.499  14.312   8.966  0.0297  0.2152 -0.4237
 1516BOLB   C4D36384  20.071  14.165   8.908 -0.2591  0.3294  0.0880
 1517BOLB   NC136385  15.878  24.979  12.875  0.0928 -0.1111  0.0826
 1517BOLB   PO136386  15.589  25.229  12.857 -0.5971 -0.1463 -0.1571
 1517BOLB   GL136387  15.494  25.240  12.443 -0.0571  0.1338 -0.1452
 1517BOLB   GL236388  15.761  25.032  12.417 -0.1810  0.3766 -0.3233
 1517BOLB   C1A36389  15.335  25.225  12.054 -0.2377 -0.0702 -0.1237
 1517BOLB   C2A36390  15.158  25.231  11.646 -0.2726  0.1667 -0.0656
 1517BOLB   C3A36391  15.160  25.169  11.208 -0.0861  0.3685 -0.4352
 1517BOLB   C4A36392  15.071  25.132  10.909  0.2095  0.2625  0.0843
 1517BOLB   C1B36393  15.826  25.092  12.052 -0.0186  0.0772  0.2853
 1517BOLB   C2B36394  15.725  25.224  11.703 -0.1006 -0.0214  0.1880
 1517BOLB   C3B36395  15.690  24.954  11.390 -0.2688  0.4123 -0.5307
 1517BOLB   C4B36396  15.526  24.806  11.150  0.1109  0.2059 -0.1329
 1517BOLB   NC236397  14.280  25.996   8.254  0.0855  0.0662 -0.1936
 1517BOLB   PO236398  14.688  25.967   8.491  0.1773 -0.3819  0.1505
 1517BOLB   GL336399  14.856  25.792   8.950 -0.3046  0.0156  0.0716
 1517BOLB   GL436400  14.867  25.496   9.084  0.0433 -0.0459 -0.3173
 1517BOLB   C1C36401  14.685  25.827   9.380 -0.0218  0.2331 -0.0534
 1517BOLB   C2C36402  14.811  25.622   9.778  0.1381 -0.1613 -0.0110
 1517BOLB   C3C36403  14.779  25.429  10.180  0.0739 -0.3185  0.0848
 1517BOLB   C4C36404  14.921  25.303  10.615  0.2907 -0.0175 -0.0378
 1517BOLB   C1D36405  15.153  25.474   9.369 -0.0964 -0.0805  0.1754
 1517BOLB   C2D36406  15.174  25.288   9.791 -0.1978  0.2826  0.0373
 1517BOLB   C3D36407  15.494  25.434  10.206 -0.1980 -0.0580  0.2028
 1517BOLB   C4D36408  15.526  25.663  10.617 -0.0122 -0.0371 -0.2214
 1518BOLB   NC136409   9.664   9.266  12.781  0.1903 -0.0483 -0.0287
 1518BOLB   PO136410   9.978   9.037  12.491 -0.1956  0.1716 -0.0408
 1518BOLB   GL136411  10.135   9.042  12.042  0.1129  0.2101 -0.1460
 1518BOLB   GL236412   9.898   9.007  11.858 -0.2503 -0.0576 -0.0216
 1518BOLB   C1A36413  10.243   9.230  11.627 -0.1695 -0.2825  0.3127
 1518BOLB   C2A36414  10.270   9.302  11.149  0.1645 -0.0580 -0.1890
 1518BOLB   C3A36415  10.302   9.436  10.679  0.0991  0.0924  0.1261
 1518BOLB   C4A36416  10.390   9.345  10.181 -0.2121  0.0317 -0.3339
 1518BOLB   C1B36417   9.814   9.210  11.386 -0.4673 -0.1248 -0.1094
 1518BOLB   C2B36418   9.834   9.358  10.971 -0.0436  0.1253 -0.1647
 1518BOLB   C3B36419   9.735   9.418  10.520 -0.4126 -0.1875  0.0674
 1518BOLB   C4B36420   9.951   9.560  10.278 -0.2036  0.0042  0.1526
 1518BOLB   NC236421  10.736   9.454   7.868 -0.0694  0.0398 -0.1027
 1518BOLB   PO236422  11.125   9.702   7.871  0.2465  0.2293 -0.0850
 1518BOLB   GL336423  11.139   9.427   8.236  0.1448 -0.1880 -0.2755
 1518BOLB   GL436424  10.881   9.224   8.311  0.1092 -0.1969  0.0067
 1518BOLB   C1C36425  11.288   9.453   8.670 -0.0778  0.1182 -0.0956
 1518BOLB   C2C36426  11.121   9.456   9.071  0.0652  0.1634  0.0611
 1518BOLB   C3C36427  10.810   9.391   9.390 -0.0937 -0.1089  0.1924
 1518BOLB   C4C36428  10.656   9.442   9.825  0.1288  0.2568 -0.0911
 1518BOLB   C1D36429  10.835   9.503   8.583  0.2570 -0.2383  0.3094
 1518BOLB   C2D36430  10.518   9.689   8.982  0.0408  0.2825  0.0423
 1518BOLB   C3D36431  10.345   9.599   9.465  0.2616  0.1534  0.1405
 1518BOLB   C4D36432  10.073   9.390   9.795  0.0515  0.0902 -0.1696
 1519BOLB   NC136433  14.668  23.746  12.325  0.4899 -0.1720  0.0514
 1519BOLB   PO136434  15.091  23.594  12.412 -0.2457 -0.3711  0.1378
 1519BOLB   GL136435  15.164  23.725  12.056  0.2234 -0.4137  0.0128
 1519BOLB   GL236436  15.246  24.000  11.995  0.1048 -0.0510  0.1932
 1519BOLB   C1A36437  14.934  23.757  11.624  0.1882 -0.4946  0.0308
 1519BOLB   C2A36438  14.734  23.813  11.295 -0.3250  0.1637 -0.2361
 1519BOLB   C3A36439  14.555  23.853  10.895 -0.1343  0.0060  0.2483
 1519BOLB   C4A36440  14.532  23.538  10.499  0.1882  0.0232  0.1802
 1519BOLB   C1B36441  15.594  24.270  11.673 -0.0353  0.2217  0.1363
 1519BOLB   C2B36442  15.595  24.361  11.250  0.1558  0.3451 -0.1861
 1519BOLB   C3B36443  15.508  24.354  10.846  0.2309  0.1048  0.1610
 1519BOLB   C4B36444  15.621  24.390  10.370  0.2617  0.0913 -0.1087
 1519BOLB   NC236445  14.043  24.287   8.070  0.0232  0.1944 -0.0098
 1519BOLB   PO236446  13.616  24.407   8.345 -0.0828  0.1873  0.1955
 1519BOLB   GL336447  13.541  24.314   8.757 -0.0370 -0.0558  0.0642
 1519BOLB   GL436448  13.414  24.578   8.967 -0.2084  0.2776 -0.0553
 1519BOLB   C1C36449  13.715  23.994   9.130  0.0281  0.2941 -0.4149
 1519BOLB   C2C36450  13.612  23.819   9.557  0.0697 -0.1108 -0.2316
 1519BOLB   C3C36451  13.978  23.533   9.755  0.3360  0.0557 -0.1569
 1519BOLB   C4C36452  14.249  23.641  10.118  0.0136  0.2352 -0.2704
 1519BOLB   C1D36453  13.457  24.433   9.321 -0.0627  0.2502 -0.3667
 1519BOLB   C2D36454  13.326  24.313   9.800  0.0944 -0.1964  0.2998
 1519BOLB   C3D36455  13.472  23.969  10.060 -0.1151  0.0482 -0.3454
 1519BOLB   C4D36456  13.773  23.791  10.151  0.0439  0.2282 -0.1674
 1520BOLB   NC136457  12.863   9.752  13.033  0.0329 -0.1499 -0.2611
 1520BOLB   PO136458  13.051   9.635  12.520 -0.1731  0.1789  0.4631
 1520BOLB   GL136459  13.100   9.484  12.046 -0.3128 -0.0654  0.0246
 1520BOLB   GL236460  12.937   9.481  11.778  0.0063  0.0270  0.0295
 1520BOLB   C1A36461  13.407   9.608  11.611  0.0830  0.0360  0.0430
 1520BOLB   C2A36462  13.550   9.538  11.100  0.2184 -0.3261 -0.0029
 1520BOLB   C3A36463  13.739   9.495  10.630 -0.2736 -0.3814 -0.2725
 1520BOLB   C4A36464  13.732   9.348  10.288 -0.3849  0.0341  0.1646
 1520BOLB   C1B36465  12.777   9.471  11.416  0.1920  0.0755  0.0215
 1520BOLB   C2B36466  12.441   9.585  11.268 -0.0797  0.0743 -0.3293
 1520BOLB   C3B36467  12.261   9.494  10.843  0.2432 -0.0924 -0.1027
 1520BOLB   C4B36468  12.279   9.263  10.432 -0.0681 -0.2850 -0.2304
 1520BOLB   NC236469  13.862   8.398   7.800  0.0734 -0.1070  0.0098
 1520BOLB   PO236470  13.529   8.572   7.805 -0.2090 -0.2616 -0.2261
 1520BOLB   GL336471  13.372   8.783   8.236  0.1910  0.1341 -0.2200
 1520BOLB   GL436472  13.191   9.083   8.290 -0.0050  0.2002 -0.0383
 1520BOLB   C1C36473  13.622   8.906   8.701  0.0991 -0.0647 -0.1651
 1520BOLB   C2C36474  13.974   9.007   8.978  0.0219  0.0982 -0.3522
 1520BOLB   C3C36475  13.915   9.112   9.437  0.0118 -0.0351  0.3919
 1520BOLB   C4C36476  13.887   9.329   9.824 -0.3463  0.4989  0.1375
 1520BOLB   C1D36477  13.183   9.294   8.627  0.1345 -0.1813  0.0049
 1520BOLB   C2D36478  13.088   9.539   9.008 -0.0778 -0.0640 -0.0077
 1520BOLB   C3D36479  13.099   9.638   9.466  0.1559 -0.0932  0.1789
 1520BOLB   C4D36480  12.858   9.714   9.928  0.1492  0.4321  0.1163
 1521BOLB   NC136481  10.628  14.499  11.728  0.0190  0.1236 -0.1464
 1521BOLB   PO136482  10.823  14.112  11.819  0.0094 -0.1387 -0.1018
 1521BOLB   GL136483  10.886  14.131  11.452  0.0910 -0.2037 -0.0329
 1521BOLB   GL236484  10.628  14.205  11.321  0.1606 -0.1771  0.0783
 1521BOLB   C1A36485  11.251  13.924  11.159 -0.0380 -0.1824 -0.1588
 1521BOLB   C2A36486  11.286  13.972  10.666  0.0044 -0.2148 -0.1021
 1521BOLB   C3A36487  11.331  13.910  10.212 -0.1682  0.0454 -0.0700
 1521BOLB   C4A36488  11.334  13.980   9.748 -0.3453 -0.1657  0.0687
 1521BOLB   C1B36489  10.521  14.237  10.813 -0.2890 -0.0774 -0.1343
 1521BOLB   C2B36490  10.428  14.167  10.382  0.1314 -0.0963 -0.0624
 1521BOLB   C3B36491  10.392  14.183  10.004 -0.0415  0.0940  0.0506
 1521BOLB   C4B36492  10.185  14.063   9.486  0.0921  0.0274 -0.1986
 1521BOLB   NC236493  10.359  13.658   7.417  0.1226 -0.0657  0.0476
 1521BOLB   PO236494  10.648  13.347   7.550 -0.2534  0.3475  0.0633
 1521BOLB   GL336495  10.509  13.446   7.872  0.1634 -0.2577 -0.2060
 1521BOLB   GL436496  10.419  13.694   7.939 -0.0345  0.3413 -0.3164
 1521BOLB   C1C36497  10.642  13.415   8.320 -0.1133 -0.1659  0.2899
 1521BOLB   C2C36498  10.776  13.628   8.682 -0.1141  0.1261 -0.3141
 1521BOLB   C3C36499  10.961  13.917   8.965 -0.3756 -0.0292 -0.1487
 1521BOLB   C4C36500  11.159  14.066   9.342  0.1878 -0.0431  0.1936
 1521BOLB   C1D36501  10.545  13.973   8.208  0.0166 -0.3960 -0.1292
 1521BOLB   C2D36502  10.812  14.403   8.077 -0.0910 -0.1474  0.0577
 1521BOLB   C3D36503  10.923  14.764   8.287 -0.2984  0.2712 -0.0762
 1521BOLB   C4D36504  11.056  14.849   8.715  0.1969  0.1836 -0.1991
 1522BOLB   NC136505  17.778  12.797  11.662 -0.1316 -0.1124 -0.0202
 1522BOLB   PO136506  17.416  12.657  11.767 -0.0372  0.1230  0.1406
 1522BOLB   GL136507  17.500  12.514  11.391 -0.0960 -0.1168  0.0991
 1522BOLB   GL236508  17.235  12.621  11.221 -0.4075 -0.3981  0.0734
 1522BOLB   C1A36509  17.693  12.234  11.266  0.2582 -0.0733 -0.0626
 1522BOLB   C2A36510  17.929  12.058  10.948  0.1367 -0.0278  0.1289
 1522BOLB   C3A36511  18.017  12.134  10.610  0.0126  0.2048  0.2358
 1522BOLB   C4A36512  18.069  12.231  10.237  0.0175 -0.1501 -0.5146
 1522BOLB   C1B36513  17.513  12.503  10.911 -0.0204  0.1405 -0.3071
 1522BOLB   C2B36514  17.619  12.473  10.399 -0.0391 -0.5044  0.1271
 1522BOLB   C3B36515  17.409  12.186  10.105  0.0191 -0.1555 -0.0228
 1522BOLB   C4B36516  17.353  11.856   9.893 -0.0181 -0.1101  0.1853
 1522BOLB   NC236517  18.575  12.187   7.775 -0.2691  0.3291 -0.2045
 1522BOLB   PO236518  18.847  11.928   8.062 -0.2150 -0.0363  0.2333
 1522BOLB   GL336519  18.565  12.185   8.298  0.2474 -0.1922  0.1841
 1522BOLB   GL436520  18.238  12.316   8.190  0.1368 -0.4121  0.3455
 1522BOLB   C1C36521  18.293  12.018   8.581  0.3715 -0.1641  0.0952
 1522BOLB   C2C36522  18.287  12.029   8.992 -0.2909  0.3311  0.1990
 1522BOLB   C3C36523  18.167  11.945   9.382  0.0819  0.1526 -0.4227
 1522BOLB   C4C36524  17.927  12.019   9.861  0.0345 -0.1587  0.0152
 1522BOLB   C1D36525  17.964  12.477   8.588 -0.1596 -0.1106 -0.0611
 1522BOLB   C2D36526  18.094  12.843   8.920  0.0786  0.2040  0.0400
 1522BOLB   C3D36527  18.219  13.246   9.172  0.0466 -0.0109  0.0102
 1522BOLB   C4D36528  18.451  13.464   9.543  0.0309  0.0182 -0.0890
 1523BOLB   NC136529  17.375  20.751  11.796 -0.1642  0.3321  0.1013
 1523BOLB   PO136530  17.481  20.355  11.625  0.0073  0.1453  0.3691
 1523BOLB   GL136531  17.782  20.118  11.356  0.2757 -0.1160  0.3638
 1523BOLB   GL236532  17.994  19.815  11.256 -0.0550  0.0454 -0.4117
 1523BOLB   C1A36533  17.789  20.084  10.908  0.0262 -0.0507  0.2295
 1523BOLB   C2A36534  17.984  20.094  10.563  0.0700  0.2205 -0.0711
 1523BOLB   C3A36535  18.047  19.901  10.164  0.1891 -0.4639  0.0186
 1523BOLB   C4A36536  18.295  19.920   9.741 -0.1678 -0.1196  0.0671
 1523BOLB   C1B36537  17.983  19.473  11.013  0.1768  0.0709 -0.2002
 1523BOLB   C2B36538  17.985  19.503  10.576 -0.0706  0.2735 -0.1998
 1523BOLB   C3B36539  18.118  19.406  10.115 -0.0774  0.2475 -0.0580
 1523BOLB   C4B36540  17.969  19.556   9.748 -0.1694  0.0767 -0.0124
 1523BOLB   NC236541  18.930  21.093   8.056 -0.1981 -0.2400 -0.2072
 1523BOLB   PO236542  19.122  20.716   7.798  0.2369  0.3244 -0.0679
 1523BOLB   GL336543  19.271  20.343   7.983 -0.0625 -0.0850 -0.0839
 1523BOLB   GL436544  19.558  20.406   8.223  0.2050  0.2485  0.2017
 1523BOLB   C1C36545  19.204  20.137   8.411 -0.1072 -0.3915 -0.1043
 1523BOLB   C2C36546  19.101  20.187   8.842  0.0345  0.2336 -0.0171
 1523BOLB   C3C36547  18.825  20.177   9.089  0.0863  0.5016  0.0721
 1523BOLB   C4C36548  18.664  20.292   9.530  0.1644 -0.0174 -0.1292
 1523BOLB   C1D36549  19.724  20.412   8.587  0.3424  0.0576 -0.2266
 1523BOLB   C2D36550  19.545  20.418   9.024  0.1981  0.5448  0.1123
 1523BOLB   C3D36551  19.199  20.351   9.375 -0.0145 -0.3230  0.0923
 1523BOLB   C4D36552  18.835  20.639   9.245  0.1722  0.1110 -0.0073
 1524BOLB   NC136553  16.242  10.575  12.526  0.0227  0.5434  0.0475
 1524BOLB   PO136554  16.472  10.566  12.123  0.1867 -0.1046 -0.2685
 1524BOLB   GL136555  16.485  10.375  11.676 -0.1167  0.0536  0.1722
 1524BOLB   GL236556  16.259  10.168  11.736 -0.3176 -0.3526  0.1892
 1524BOLB   C1A36557  16.709   9.962  11.577 -0.0353  0.4976  0.0729
 1524BOLB   C2A36558  16.805   9.641  11.405  0.0468 -0.0718  0.2004
 1524BOLB   C3A36559  17.045   9.428  11.006 -0.0772 -0.0595 -0.1608
 1524BOLB   C4A36560  16.995   9.300  10.609  0.0227  0.0871  0.0303
 1524BOLB   C1B36561  16.237  10.178  11.258  0.2042 -0.1090  0.0630
 1524BOLB   C2B36562  16.464  10.138  10.819  0.1587  0.0763 -0.0232
 1524BOLB   C3B36563  16.751  10.099  10.411  0.0989 -0.1054 -0.0533
 1524BOLB   C4B36564  16.924  10.056  10.001 -0.0350  0.0882 -0.0072
 1524BOLB   NC236565  17.848   8.468   8.633 -0.0197  0.2775  0.3410
 1524BOLB   PO236566  17.879   8.247   9.026  0.5021 -0.0027  0.0923
 1524BOLB   GL336567  17.903   8.433   9.373  0.2111 -0.0141  0.0725
 1524BOLB   GL436568  18.196   8.430   9.529 -0.1689 -0.0743 -0.5114
 1524BOLB   C1C36569  17.857   8.506   9.848 -0.1326  0.0058 -0.2584
 1524BOLB   C2C36570  17.723   8.891  10.089 -0.4226 -0.0850  0.3572
 1524BOLB   C3C36571  17.360   8.779  10.039 -0.1006  0.0185 -0.4439
 1524BOLB   C4C36572  17.014   8.892  10.260  0.3041  0.0791 -0.0147
 1524BOLB   C1D36573  18.315   8.759   9.797  0.2540  0.1008  0.0042
 1524BOLB   C2D36574  18.212   8.688  10.174  0.0079 -0.0117  0.0042
 1524BOLB   C3D36575  17.990   8.630  10.662  0.0257 -0.1818 -0.2931
 1524BOLB   C4D36576  18.157   8.923  10.838 -0.3223 -0.1760  0.0964
 1525BOLB   NC136577   8.905  24.172  13.165  0.1051 -0.0276 -0.0941
 1525BOLB   PO136578   8.663  24.058  12.862 -0.0744  0.3166  0.2161
 1525BOLB   GL136579   9.090  24.093  12.574 -0.1105  0.1199  0.1972
 1525BOLB   GL236580   9.038  24.256  12.194  0.0229  0.1055 -0.1627
 1525BOLB   C1A36581   9.397  23.861  12.227 -0.1608  0.0533 -0.4898
 1525BOLB   C2A36582   9.592  23.704  11.820 -0.1793  0.0558 -0.0250
 1525BOLB   C3A36583   9.817  23.729  11.528  0.1852  0.2579  0.1559
 1525BOLB   C4A36584   9.934  23.744  11.085 -0.2682  0.0352 -0.0889
 1525BOLB   C1B36585   9.445  24.482  12.092 -0.1557  0.0218  0.1054
 1525BOLB   C2B36586   9.827  24.516  11.966  0.1631  0.0041  0.3468
 1525BOLB   C3B36587   9.947  24.089  11.905  0.1380 -0.1335 -0.1497
 1525BOLB   C4B36588  10.112  23.691  11.902 -0.0924  0.1111 -0.0777
 1525BOLB   NC236589   8.718  24.522   9.752  0.1099  0.1532 -0.2319
 1525BOLB   PO236590   8.873  24.361   9.304  0.0553  0.0520 -0.1111
 1525BOLB   GL336591   9.146  24.039   9.385  0.0638  0.2330  0.0532
 1525BOLB   GL436592   9.405  23.874   9.221  0.2277 -0.3715 -0.0238
 1525BOLB   C1C36593   9.638  23.978   9.625 -0.2669  0.1324 -0.3803
 1525BOLB   C2C36594   9.906  23.778   9.826  0.0380  0.1264 -0.1935
 1525BOLB   C3C36595  10.042  23.575  10.192  0.1182 -0.1976 -0.1798
 1525BOLB   C4C36596  10.081  23.606  10.608 -0.0807 -0.0405 -0.2712
 1525BOLB   C1D36597   9.514  23.529   9.448 -0.2811  0.1460  0.0436
 1525BOLB   C2D36598   9.580  23.242   9.846  0.2167  0.1579 -0.0930
 1525BOLB   C3D36599   9.626  23.064  10.276  0.1752 -0.0435  0.0460
 1525BOLB   C4D36600   9.964  22.973  10.494  0.3330 -0.0898  0.3878
 1526BOLB   NC136601  13.037  10.779  12.258  0.3011 -0.0453  0.1795
 1526BOLB   PO136602  13.386  10.936  12.035  0.1675  0.1273  0.4228
 1526BOLB   GL136603  13.366  11.064  11.606  0.0164 -0.2034 -0.1176
 1526BOLB   GL236604  13.166  10.944  11.486  0.2831 -0.0452  0.1525
 1526BOLB   C1A36605  13.562  11.008  11.145  0.3024 -0.2477  0.1422
 1526BOLB   C2A36606  13.442  10.723  10.717  0.2585 -0.1333  0.1085
 1526BOLB   C3A36607  13.347  10.408  10.355  0.0684 -0.0884  0.0113
 1526BOLB   C4A36608  13.109  10.121  10.073  0.2482  0.3061  0.1946
 1526BOLB   C1B36609  13.129  10.842  11.062 -0.0523  0.0203  0.0582
 1526BOLB   C2B36610  12.893  10.797  10.640 -0.4693  0.2686  0.0095
 1526BOLB   C3B36611  12.835  10.747  10.217  0.0245  0.1133  0.2188
 1526BOLB   C4B36612  13.098  10.597   9.938 -0.1851 -0.1023  0.0138
 1526BOLB   NC236613  13.063   8.856   7.826  0.0923  0.0460 -0.2120
 1526BOLB   PO236614  12.859   9.231   7.847 -0.1074  0.0531  0.2875
 1526BOLB   GL336615  12.887   9.440   8.225  0.0120  0.3074 -0.3181
 1526BOLB   GL436616  12.870   9.845   8.313  0.0177 -0.1439 -0.1245
 1526BOLB   C1C36617  12.680   9.524   8.681  0.3483 -0.0588  0.5663
 1526BOLB   C2C36618  12.582   9.751   9.105  0.0977 -0.2330  0.1234
 1526BOLB   C3C36619  12.556   9.832   9.470  0.0795 -0.2051 -0.1125
 1526BOLB   C4C36620  12.830  10.176   9.712  0.1338  0.0926  0.2282
 1526BOLB   C1D36621  12.956   9.930   8.678 -0.1724 -0.4219 -0.0141
 1526BOLB   C2D36622  13.025   9.996   8.953  0.0109  0.1313  0.0711
 1526BOLB   C3D36623  13.157  10.264   9.288  0.2061 -0.0926 -0.2070
 1526BOLB   C4D36624  13.337  10.099   9.640 -0.3172  0.0916 -0.1188
 1527BOLB   NC136625  14.068  15.191  11.071 -0.1852  0.0877 -0.0389
 1527BOLB   PO136626  14.025  14.711  11.140  0.0212 -0.1048 -0.0893
 1527BOLB   GL136627  14.267  14.633  10.904 -0.2513 -0.0157  0.0072
 1527BOLB   GL236628  14.532  14.774  10.919 -0.1673  0.3330  0.1189
 1527BOLB   C1A36629  14.328  14.394  10.466  0.0886 -0.1774 -0.0153
 1527BOLB   C2A36630  14.334  14.562  10.189 -0.0703 -0.3705  0.3683
 1527BOLB   C3A36631  14.344  14.309   9.744  0.2803 -0.0857  0.1312
 1527BOLB   C4A36632  14.185  14.034   9.394 -0.0272 -0.1648  0.4052
 1527BOLB   C1B36633  14.574  14.939  10.537 -0.3778  0.1222 -0.0834
 1527BOLB   C2B36634  14.468  15.120  10.171  0.1311 -0.0871  0.0597
 1527BOLB   C3B36635  14.541  14.976   9.735  0.1619  0.1273 -0.2094
 1527BOLB   C4B36636  14.576  14.666   9.411  0.1211 -0.1910 -0.4602
 1527BOLB   NC236637  14.155  13.011   7.185 -0.0992 -0.0663  0.1309
 1527BOLB   PO236638  14.510  13.154   7.481  0.0877 -0.0406  0.0816
 1527BOLB   GL336639  14.519  13.373   7.685  0.2186 -0.0198 -0.1522
 1527BOLB   GL436640  14.569  13.215   7.933  0.1550  0.0467  0.0899
 1527BOLB   C1C36641  14.297  13.552   8.097 -0.0781 -0.3552 -0.0366
 1527BOLB   C2C36642  14.051  14.003   8.192 -0.0646 -0.0004  0.4094
 1527BOLB   C3C36643  14.225  14.077   8.602 -0.0651 -0.1874 -0.0813
 1527BOLB   C4C36644  14.291  14.133   8.943  0.3247  0.0534  0.2707
 1527BOLB   C1D36645  14.696  13.273   8.477  0.3108  0.0263 -0.1646
 1527BOLB   C2D36646  14.618  13.171   8.784 -0.0044  0.2035  0.2379
 1527BOLB   C3D36647  14.169  13.279   9.098 -0.1692 -0.2194  0.5044
 1527BOLB   C4D36648  14.072  13.599   9.296 -0.2501  0.1552  0.2542
 1528BOLB   NC136649  11.484  19.360  12.070 -0.2502  0.0488  0.2688
 1528BOLB   PO136650  11.166  19.381  11.691  0.0643  0.1483 -0.2208
 1528BOLB   GL136651  11.234  19.518  11.216 -0.2510 -0.0211  0.1359
 1528BOLB   GL236652  11.120  19.250  11.076  0.1299  0.0284  0.2131
 1528BOLB   C1A36653  11.170  19.884  10.981 -0.0508 -0.0121  0.2064
 1528BOLB   C2A36654  11.338  20.325  10.833  0.1821 -0.3688 -0.0921
 1528BOLB   C3A36655  11.373  20.714  10.545 -0.0136  0.0202 -0.0847
 1528BOLB   C4A36656  11.402  20.733  10.097  0.0672 -0.0636  0.1386
 1528BOLB   C1B36657  10.773  19.467  10.828 -0.0015  0.2804  0.0292
 1528BOLB   C2B36658  10.650  19.408  10.350  0.1086 -0.1152 -0.2951
 1528BOLB   C3B36659  10.917  19.277   9.842  0.1267 -0.5161 -0.1261
 1528BOLB   C4B36660  11.184  19.093   9.711  0.5972  0.2415  0.3835
 1528BOLB   NC236661  10.900  21.065   7.329  0.0118 -0.1511  0.2460
 1528BOLB   PO236662  10.706  20.889   7.718  0.1597  0.1833 -0.0382
 1528BOLB   GL336663  10.768  20.789   8.098  0.3518 -0.1540 -0.3075
 1528BOLB   GL436664  10.706  20.449   8.198  0.0373  0.1893 -0.1601
 1528BOLB   C1C36665  10.989  21.027   8.513 -0.0882  0.0662  0.0348
 1528BOLB   C2C36666  11.344  20.909   8.913  0.2465 -0.1351  0.2482
 1528BOLB   C3C36667  11.429  21.031   9.348 -0.0125  0.0174 -0.0397
 1528BOLB   C4C36668  11.434  20.751   9.715 -0.1971  0.1939  0.0374
 1528BOLB   C1D36669  11.008  20.514   8.486 -0.4108  0.4153  0.0712
 1528BOLB   C2D36670  11.338  20.410   8.772 -0.1814  0.1209  0.1712
 1528BOLB   C3D36671  11.552  20.554   9.133  0.2344 -0.4364  0.2745
 1528BOLB   C4D36672  11.932  20.781   9.244 -0.0104 -0.1094 -0.3050
 1529BOLB   NC136673  17.743  18.868  11.999  0.0117 -0.3349 -0.0367
 1529BOLB   PO136674  17.329  18.684  11.796  0.1600  0.1949 -0.0116
 1529BOLB   GL136675  17.362  18.720  11.368 -0.0862 -0.0424  0.0955
 1529BOLB   GL236676  17.184  18.652  11.164  0.3412  0.0433 -0.1438
 1529BOLB   C1A36677  17.622  18.628  11.020  0.0412 -0.1295  0.0174
 1529BOLB   C2A36678  17.751  18.506  10.580 -0.0738 -0.3362  0.2438
 1529BOLB   C3A36679  17.747  18.388  10.139 -0.0909 -0.1811  0.1786
 1529BOLB   C4A36680  17.979  18.208   9.728  0.4756  0.2282 -0.1379
 1529BOLB   C1B36681  17.162  18.779  10.825  0.0268  0.0673  0.3522
 1529BOLB   C2B36682  17.365  18.809  10.512  0.0081 -0.0007  0.1976
 1529BOLB   C3B36683  17.450  18.800  10.159 -0.1553 -0.0734  0.2261
 1529BOLB   C4B36684  17.549  18.723   9.864 -0.0353 -0.1512  0.2001
 1529BOLB   NC236685  17.514  19.107   7.474 -0.1197 -0.0758  0.0212
 1529BOLB   PO236686  17.576  18.665   7.639 -0.0058 -0.1947  0.0670
 1529BOLB   GL336687  17.838  18.792   7.979 -0.2711  0.0021 -0.0042
 1529BOLB   GL436688  18.074  18.901   7.771  0.1112 -0.0085 -0.1155
 1529BOLB   C1C36689  18.185  18.929   8.335  0.1047 -0.1018 -0.2369
 1529BOLB   C2C36690  18.428  18.830   8.712  0.5690 -0.2273 -0.1805
 1529BOLB   C3C36691  18.513  18.410   9.029 -0.3253 -0.0293  0.2124
 1529BOLB   C4C36692  18.231  18.321   9.392  0.1715  0.0673 -0.3630
 1529BOLB   C1D36693  18.431  19.074   7.952 -0.2367 -0.0499  0.0441
 1529BOLB   C2D36694  18.736  18.813   8.285  0.2565 -0.1330  0.0425
 1529BOLB   C3D36695  19.141  18.840   8.426 -0.0557 -0.3263 -0.1775
 1529BOLB   C4D36696  19.375  19.189   8.362 -0.0193 -0.2349 -0.0046
 1530BOLB   NC136697  16.220  10.063  13.212  0.0131 -0.0667 -0.3296
 1530BOLB   PO136698  16.265   9.798  12.799 -0.1232  0.3613 -0.2288
 1530BOLB   GL136699  16.443   9.641  12.348  0.1028  0.3388 -0.0815
 1530BOLB   GL236700  16.450   9.341  12.309 -0.1290 -0.2844  0.1198
 1530BOLB   C1A36701  16.549   9.547  11.860 -0.0270  0.0450  0.3253
 1530BOLB   C2A36702  16.779   9.209  11.678 -0.3500  0.0715 -0.0460
 1530BOLB   C3A36703  16.871   8.958  11.330  0.1890  0.0194  0.0688
 1530BOLB   C4A36704  16.901   8.845  10.957  0.0605 -0.2430  0.1815
 1530BOLB   C1B36705  16.498   9.024  12.047 -0.1273 -0.3667  0.3096
 1530BOLB   C2B36706  16.569   8.732  11.694  0.2087  0.0296  0.2427
 1530BOLB   C3B36707  16.646   8.458  11.373  0.2637 -0.4766  0.0077
 1530BOLB   C4B36708  16.863   8.265  10.992 -0.0746  0.1106  0.0033
 1530BOLB   NC236709  18.553   7.579   9.643  0.1595  0.1041 -0.2394
 1530BOLB   PO236710  18.170   7.500   9.399 -0.0865  0.0186 -0.1121
 1530BOLB   GL336711  17.986   7.570   9.896 -0.3077  0.1875 -0.0397
 1530BOLB   GL436712  17.912   7.340  10.158  0.1074 -0.1981  0.0191
 1530BOLB   C1C36713  17.849   7.859  10.212 -0.3097 -0.0464 -0.2625
 1530BOLB   C2C36714  17.753   8.307  10.258 -0.1591 -0.1289 -0.0276
 1530BOLB   C3C36715  17.479   8.603  10.483 -0.1340 -0.0847 -0.2548
 1530BOLB   C4C36716  17.267   8.849  10.767 -0.0448 -0.1124 -0.0737
 1530BOLB   C1D36717  17.930   7.571  10.593  0.1333 -0.1240 -0.2391
 1530BOLB   C2D36718  17.543   7.779  10.739 -0.0160 -0.3965  0.1625
 1530BOLB   C3D36719  17.353   8.086  10.506 -0.1202  0.0304  0.1023
 1530BOLB   C4D36720  17.013   8.373  10.380 -0.0730  0.4183 -0.0493
 1531BOLB   NC136721  21.598  10.248  14.251  0.1153 -0.0578  0.1456
 1531BOLB   PO136722  21.097  10.156  14.228  0.2020 -0.2402  0.0824
 1531BOLB   GL136723  21.362  10.003  13.875  0.1320  0.1025 -0.0564
 1531BOLB   GL236724  21.690   9.757  13.963  0.2460  0.0947  0.0725
 1531BOLB   C1A36725  21.558   9.825  13.505 -0.2869  0.2120 -0.0794
 1531BOLB   C2A36726  22.031   9.946  13.284  0.0262 -0.2115  0.0083
 1531BOLB   C3A36727  22.235   9.766  12.965  0.1612 -0.3623 -0.0271
 1531BOLB   C4A36728  22.307   9.911  12.596  0.2391 -0.0606 -0.0794
 1531BOLB   C1B36729  22.031   9.677  13.731  0.2089  0.2361  0.2344
 1531BOLB   C2B36730  22.276   9.275  13.691  0.0098  0.1442 -0.2030
 1531BOLB   C3B36731  22.336   9.080  13.313  0.4099  0.3538  0.0803
 1531BOLB   C4B36732  22.725   8.903  13.173  0.2080  0.1578 -0.2094
 1531BOLB   NC236733  23.601   8.540  11.062 -0.2626  0.0733 -0.0046
 1531BOLB   PO236734  23.219   8.433  11.192 -0.0249  0.1454 -0.0796
 1531BOLB   GL336735  23.159   8.782  11.340  0.2877  0.1549 -0.2816
 1531BOLB   GL436736  23.483   8.970  11.438  0.1524 -0.1568 -0.0441
 1531BOLB   C1C36737  22.888   8.978  11.569  0.3265  0.5853 -0.1080
 1531BOLB   C2C36738  22.725   9.316  11.634  0.0743 -0.1152  0.0667
 1531BOLB   C3C36739  22.655   9.625  11.952 -0.0547  0.0802  0.0526
 1531BOLB   C4C36740  22.594   9.852  12.319  0.0877 -0.3598 -0.0029
 1531BOLB   C1D36741  23.649   8.804  11.739  0.0886 -0.2217 -0.1900
 1531BOLB   C2D36742  23.841   8.837  12.082 -0.1713 -0.0990  0.1935
 1531BOLB   C3D36743  24.040   9.032  12.434 -0.4151  0.1090  0.0699
 1531BOLB   C4D36744  23.979   9.165  12.975 -0.0559 -0.0736  0.1407
 1532BOLB   NC136745  17.365  12.095  12.023 -0.1182  0.1104  0.0583
 1532BOLB   PO136746  17.681  11.869  12.283 -0.2815 -0.1995  0.0974
 1532BOLB   GL136747  17.753  11.706  11.929  0.0145 -0.2318 -0.0653
 1532BOLB   GL236748  18.056  11.544  11.916  0.0323 -0.1825  0.3480
 1532BOLB   C1A36749  17.832  11.739  11.491  0.5933  0.1560 -0.2424
 1532BOLB   C2A36750  17.885  11.622  11.149  0.1922  0.0507 -0.1559
 1532BOLB   C3A36751  17.860  11.574  10.777  0.2990  0.1250  0.1985
 1532BOLB   C4A36752  17.725  11.204  10.431 -0.1104 -0.4252 -0.2267
 1532BOLB   C1B36753  18.305  11.453  11.721 -0.1470 -0.0008  0.2318
 1532BOLB   C2B36754  18.520  11.455  11.340  0.2663  0.0934 -0.0381
 1532BOLB   C3B36755  18.831  11.624  11.056  0.1875 -0.0036 -0.1261
 1532BOLB   C4B36756  19.094  11.706  10.742 -0.0500  0.0144 -0.0825
 1532BOLB   NC236757  17.244   9.931   7.931 -0.1244  0.3454  0.1055
 1532BOLB   PO236758  17.612  10.075   8.129 -0.0961  0.0432 -0.1403
 1532BOLB   GL336759  17.796  10.069   8.549  0.3812 -0.0500  0.1245
 1532BOLB   GL436760  18.112  10.060   8.676  0.2933  0.0711 -0.6377
 1532BOLB   C1C36761  17.720  10.268   8.943 -0.1218 -0.4135 -0.2703
 1532BOLB   C2C36762  17.726  10.436   9.376 -0.0926 -0.0877  0.1739
 1532BOLB   C3C36763  17.649  10.769   9.660 -0.0062 -0.2354 -0.3257
 1532BOLB   C4C36764  17.852  11.088  10.031 -0.2261  0.1022  0.0289
 1532BOLB   C1D36765  18.054   9.990   9.209 -0.1960 -0.3988 -0.0457
 1532BOLB   C2D36766  18.118   9.957   9.662  0.3003  0.1937  0.2708
 1532BOLB   C3D36767  18.100   9.799  10.158  0.3032 -0.2215  0.0014
 1532BOLB   C4D36768  18.514   9.665  10.280 -0.4572 -0.0634  0.1496
 1533BOLB   NC136769  12.729  13.886  11.280 -0.1630 -0.0048 -0.0011
 1533BOLB   PO136770  12.387  13.832  11.534 -0.0215  0.0612 -0.0531
 1533BOLB   GL136771  12.189  13.705  11.218  0.0461 -0.1479  0.0961
 1533BOLB   GL236772  12.247  13.344  11.098  0.1677  0.0486 -0.0875
 1533BOLB   C1A36773  12.128  13.725  10.797  0.2620 -0.1152  0.0347
 1533BOLB   C2A36774  12.188  13.804  10.331 -0.1081  0.1219  0.1755
 1533BOLB   C3A36775  11.932  13.637  10.048 -0.1205 -0.0377  0.0420
 1533BOLB   C4A36776  11.742  13.397   9.682 -0.1329 -0.2106  0.1604
 1533BOLB   C1B36777  12.007  13.275  10.577  0.2933  0.0411  0.1264
 1533BOLB   C2B36778  11.926  12.878  10.404  0.0411 -0.0767 -0.0097
 1533BOLB   C3B36779  11.888  12.536  10.100 -0.4269  0.0034 -0.3306
 1533BOLB   C4B36780  12.072  12.535   9.815 -0.3546  0.2888  0.1704
 1533BOLB   NC236781  11.497  13.719   7.098 -0.0377 -0.3632  0.1480
 1533BOLB   PO236782  11.701  13.343   7.142 -0.0260  0.1696 -0.2040
 1533BOLB   GL336783  11.790  13.485   7.581  0.0442 -0.0880 -0.2486
 1533BOLB   GL436784  11.896  13.733   7.542 -0.4767  0.0220  0.0610
 1533BOLB   C1C36785  11.975  13.482   7.974  0.3975 -0.3400  0.0731
 1533BOLB   C2C36786  11.818  13.625   8.427 -0.2153  0.1284  0.2119
 1533BOLB   C3C36787  11.836  13.643   8.839  0.0332 -0.1688  0.0888
 1533BOLB   C4C36788  11.787  13.484   9.273 -0.0259 -0.1100  0.2256
 1533BOLB   C1D36789  11.920  13.952   7.832  0.0179 -0.0495 -0.3990
 1533BOLB   C2D36790  12.142  14.129   8.279 -0.2096 -0.0577  0.0761
 1533BOLB   C3D36791  12.228  14.097   8.677  0.2850  0.1477 -0.1247
 1533BOLB   C4D36792  12.160  13.974   9.112 -0.1015 -0.4033  0.1771
 1534BOLB   NC136793  11.197  17.275  11.393 -0.2409  0.0812 -0.0399
 1534BOLB   PO136794  11.057  16.940  11.382  0.0889  0.0297  0.1913
 1534BOLB   GL136795  10.931  16.948  10.950 -0.3892  0.2072 -0.2228
 1534BOLB   GL236796  10.982  17.304  10.914  0.0632  0.2606  0.0050
 1534BOLB   C1A36797  10.878  17.023  10.495  0.1491  0.3157 -0.1012
 1534BOLB   C2A36798  10.874  16.927  10.116  0.1646  0.1719 -0.4204
 1534BOLB   C3A36799  10.889  17.100   9.684  0.1414  0.0570  0.1762
 1534BOLB   C4A36800  10.905  17.137   9.203 -0.0563 -0.2256 -0.3485
 1534BOLB   C1B36801  11.045  17.753  10.824  0.1084  0.0556  0.4905
 1534BOLB   C2B36802  11.100  17.903  10.390  0.0011  0.7554  0.3042
 1534BOLB   C3B36803  11.187  18.146   9.977  0.0773  0.1781 -0.2173
 1534BOLB   C4B36804  10.994  17.972   9.564  0.3935  0.0322  0.0010
 1534BOLB   NC236805  10.938  18.709   7.366  0.0125 -0.3325 -0.3992
 1534BOLB   PO236806  11.079  18.242   7.219  0.0512 -0.2627 -0.0690
 1534BOLB   GL336807  10.751  18.158   7.566  0.2599  0.0126  0.5178
 1534BOLB   GL436808  10.648  18.470   7.681 -0.3503 -0.0145 -0.0922
 1534BOLB   C1C36809  10.935  18.131   8.007  0.0556 -0.0113  0.0490
 1534BOLB   C2C36810  11.090  17.768   8.114 -0.0152 -0.4134 -0.1267
 1534BOLB   C3C36811  11.087  17.473   8.442  0.2588 -0.3016  0.1438
 1534BOLB   C4C36812  10.848  17.321   8.809  0.0189 -0.2232  0.0454
 1534BOLB   C1D36813  10.627  18.554   8.137 -0.1515  0.2940  0.1754
 1534BOLB   C2D36814  10.926  18.634   8.405  0.4344 -0.2697  0.0288
 1534BOLB   C3D36815  11.041  18.688   8.789 -0.2184 -0.0533 -0.2595
 1534BOLB   C4D36816  11.218  18.890   9.204 -0.0844  0.1247  0.1099
 1535BOLB   NC136817   9.642  10.369  12.833  0.1408 -0.1829  0.1099
 1535BOLB   PO136818   9.708  10.402  12.381 -0.2373 -0.1722 -0.0913
 1535BOLB   GL136819  10.004  10.464  11.953  0.0732 -0.1248 -0.1184
 1535BOLB   GL236820  10.371  10.664  11.940  0.0959  0.5295 -0.4020
 1535BOLB   C1A36821  10.119  10.382  11.567  0.0422  0.0648 -0.1185
 1535BOLB   C2A36822  10.081  10.313  11.086  0.2890  0.3466 -0.0429
 1535BOLB   C3A36823  10.206  10.375  10.592 -0.0029 -0.0163 -0.0350
 1535BOLB   C4A36824  10.176  10.357  10.159  0.0513 -0.2066  0.0370
 1535BOLB   C1B36825  10.335  10.796  11.630 -0.0869 -0.0613  0.1088
 1535BOLB   C2B36826  10.245  10.902  11.236 -0.3506  0.1563  0.0137
 1535BOLB   C3B36827  10.207  10.783  10.887  0.1581  0.0390  0.0511
 1535BOLB   C4B36828  10.172  11.002  10.499  0.2152 -0.2097 -0.3003
 1535BOLB   NC236829  10.218   8.841   8.155  0.0819 -0.2148 -0.0038
 1535BOLB   PO236830  10.209   9.271   7.913  0.1219 -0.1112 -0.1724
 1535BOLB   GL336831  10.404   9.563   8.197  0.1659  0.0099 -0.4577
 1535BOLB   GL436832  10.334   9.463   8.496  0.3851  0.4766  0.0206
 1535BOLB   C1C36833  10.515  10.003   8.543 -0.0574 -0.2255 -0.1694
 1535BOLB   C2C36834  10.680  10.207   8.951 -0.1813  0.1068 -0.0634
 1535BOLB   C3C36835  10.491  10.141   9.343  0.3539  0.0548 -0.0887
 1535BOLB   C4C36836  10.282  10.247   9.743 -0.3272  0.2360  0.0771
 1535BOLB   C1D36837  10.038   9.667   8.666 -0.0142 -0.0752 -0.1100
 1535BOLB   C2D36838   9.993   9.734   8.985 -0.2071 -0.0081 -0.1382
 1535BOLB   C3D36839   9.963   9.940   9.402 -0.2732 -0.4338  0.2511
 1535BOLB   C4D36840   9.909   9.975   9.723 -0.0518  0.0512 -0.2540
 1536BOLB   NC136841  14.234  12.846  11.958 -0.2575  0.4251 -0.2920
 1536BOLB   PO136842  14.111  13.135  11.676 -0.0690 -0.0147 -0.1950
 1536BOLB   GL136843  14.150  12.903  11.263 -0.2818 -0.2783  0.0920
 1536BOLB   GL236844  14.363  13.069  10.989  0.0917 -0.0206  0.2503
 1536BOLB   C1A36845  13.896  13.152  10.896  0.0822  0.2587  0.5008
 1536BOLB   C2A36846  13.693  13.065  10.500  0.0366  0.3319  0.3579
 1536BOLB   C3A36847  13.468  13.000  10.205  0.0330  0.1735 -0.0187
 1536BOLB   C4A36848  13.096  12.878  10.011 -0.0111  0.3021 -0.2182
 1536BOLB   C1B36849  14.618  13.042  10.564  0.1605  0.1531 -0.2384
 1536BOLB   C2B36850  14.705  12.859  10.227 -0.2261 -0.2566  0.1878
 1536BOLB   C3B36851  14.549  12.726   9.819  0.0817 -0.1094  0.1139
 1536BOLB   C4B36852  14.188  12.536   9.604  0.0767  0.3238  0.1437
 1536BOLB   NC236853  12.744  13.071   7.618 -0.0164 -0.1281  0.2954
 1536BOLB   PO236854  13.128  12.995   7.348  0.0377  0.1592 -0.3761
 1536BOLB   GL336855  13.187  13.188   7.796  0.2031 -0.0122 -0.2044
 1536BOLB   GL436856  13.411  13.328   7.973 -0.4026  0.1341 -0.1583
 1536BOLB   C1C36857  13.066  13.132   8.280  0.0392 -0.0674 -0.2807
 1536BOLB   C2C36858  13.163  13.181   8.811 -0.1332  0.0411 -0.1442
 1536BOLB   C3C36859  13.221  13.221   9.213  0.2677 -0.1165 -0.0205
 1536BOLB   C4C36860  13.097  12.986   9.544 -0.0783 -0.1011  0.1752
 1536BOLB   C1D36861  13.535  13.144   8.401 -0.1813  0.2319 -0.3822
 1536BOLB   C2D36862  13.849  12.938   8.545 -0.1326 -0.0887  0.0597
 1536BOLB   C3D36863  14.230  12.841   8.822  0.0936 -0.2482 -0.3575
 1536BOLB   C4D36864  14.502  12.775   9.159 -0.3525  0.0041 -0.4883
 1537BOLB   NC136865   9.668  13.443  11.995  0.0944 -0.2372  0.4199
 1537BOLB   PO136866   9.355  13.654  12.075 -0.0000 -0.1147  0.0068
 1537BOLB   GL136867   9.210  13.618  11.642 -0.1839 -0.0019 -0.0501
 1537BOLB   GL236868   9.073  13.383  11.524  0.0228 -0.1223 -0.0539
 1537BOLB   C1A36869   9.317  13.644  11.178  0.2814 -0.0073  0.0845
 1537BOLB   C2A36870   9.129  13.556  10.699  0.2481 -0.0236  0.2605
 1537BOLB   C3A36871   9.341  13.250  10.449 -0.0418 -0.1437 -0.1055
 1537BOLB   C4A36872   9.279  13.178  10.001  0.2186  0.2821  0.0990
 1537BOLB   C1B36873   8.730  13.541  11.144  0.2583 -0.1451 -0.1483
 1537BOLB   C2B36874   8.537  13.597  10.743  0.1634 -0.1470 -0.0178
 1537BOLB   C3B36875   8.050  13.689  10.734 -0.0506  0.0919 -0.0898
 1537BOLB   C4B36876   7.872  13.847  10.396 -0.0769  0.1568 -0.0745
 1537BOLB   NC236877   9.444  12.162   7.316 -0.1008  0.0792 -0.1991
 1537BOLB   PO236878   9.235  12.504   7.663  0.0206  0.0469 -0.2161
 1537BOLB   GL336879   9.358  12.610   8.084  0.0634  0.2197  0.0456
 1537BOLB   GL436880   9.664  12.464   8.190 -0.0358 -0.0498  0.0368
 1537BOLB   C1C36881   9.618  12.964   8.345 -0.0859 -0.1215 -0.0976
 1537BOLB   C2C36882   9.659  13.210   8.649 -0.4541  0.2333  0.1742
 1537BOLB   C3C36883   9.547  13.328   9.045  0.4222 -0.0639  0.0020
 1537BOLB   C4C36884   9.514  13.294   9.558 -0.0513 -0.1476 -0.0834
 1537BOLB   C1D36885   9.427  12.563   8.586 -0.2629 -0.2069  0.0744
 1537BOLB   C2D36886   9.181  12.498   8.949  0.0059 -0.1983 -0.0013
 1537BOLB   C3D36887   9.077  12.403   9.486 -0.0152 -0.0143 -0.1498
 1537BOLB   C4D36888   8.687  12.100   9.580  0.1555  0.2102 -0.0673
 1538BOLB   NC136889  17.839  16.065  11.258  0.1491  0.0260  0.0677
 1538BOLB   PO136890  17.907  16.523  11.223 -0.0965  0.1212  0.1572
 1538BOLB   GL136891  17.996  16.722  10.828 -0.0361 -0.0724  0.0628
 1538BOLB   GL236892  17.956  16.663  10.544  0.1785 -0.0227 -0.0495
 1538BOLB   C1A36893  18.359  16.867  10.667 -0.1310  0.1664 -0.0994
 1538BOLB   C2A36894  18.554  16.847  10.287 -0.2143 -0.1452  0.0503
 1538BOLB   C3A36895  18.688  17.070   9.880 -0.1008  0.0902  0.0519
 1538BOLB   C4A36896  18.508  17.232   9.513 -0.1390 -0.0777 -0.0527
 1538BOLB   C1B36897  17.564  16.735  10.210 -0.0689  0.1003  0.1246
 1538BOLB   C2B36898  17.550  16.584   9.786  0.3022  0.1624  0.6081
 1538BOLB   C3B36899  17.595  16.307   9.532  0.2583 -0.2768 -0.0665
 1538BOLB   C4B36900  17.466  16.004   9.246  0.0843  0.0139  0.0635
 1538BOLB   NC236901  18.466  17.734   6.869  0.2965  0.2235 -0.2869
 1538BOLB   PO236902  18.664  17.379   7.103 -0.3057 -0.1960 -0.3646
 1538BOLB   GL336903  18.503  17.368   7.541  0.2120 -0.1152  0.2506
 1538BOLB   GL436904  18.239  17.576   7.577 -0.0142  0.1098 -0.4726
 1538BOLB   C1C36905  18.566  17.533   7.945  0.2888 -0.2895  0.1212
 1538BOLB   C2C36906  18.402  17.650   8.359 -0.3673  0.1649 -0.0891
 1538BOLB   C3C36907  18.530  17.561   8.725  0.1203 -0.1175 -0.0082
 1538BOLB   C4C36908  18.585  17.318   9.067 -0.1808 -0.1741  0.2810
 1538BOLB   C1D36909  18.121  17.231   7.795  0.4343  0.0500  0.0375
 1538BOLB   C2D36910  18.373  17.060   7.989 -0.0122  0.1175 -0.0463
 1538BOLB   C3D36911  18.493  17.171   8.372 -0.2215 -0.1018  0.2412
 1538BOLB   C4D36912  18.444  16.867   8.684  0.0657 -0.1140 -0.0191
 1539BOLB   NC136913  19.074  21.957  12.086  0.1467  0.1642  0.1044
 1539BOLB   PO136914  19.142  22.068  12.574 -0.0318  0.2318 -0.0875
 1539BOLB   GL136915  19.340  22.387  12.298  0.1490  0.1149 -0.0039
 1539BOLB   GL236916  19.280  22.713  12.283  0.2845  0.0328  0.0480
 1539BOLB   C1A36917  19.509  22.404  11.828 -0.0578  0.2425 -0.0707
 1539BOLB   C2A36918  19.865  22.490  11.468 -0.1823 -0.0552 -0.2105
 1539BOLB   C3A36919  20.101  22.497  11.178  0.0688  0.0266  0.1293
 1539BOLB   C4A36920  20.467  22.591  10.912  0.2844 -0.1500 -0.4558
 1539BOLB   C1B36921  19.674  22.843  12.192  0.2211  0.1694 -0.1846
 1539BOLB   C2B36922  19.795  22.943  11.820 -0.0482  0.1790  0.0517
 1539BOLB   C3B36923  20.027  22.919  11.477  0.3482 -0.3053 -0.1091
 1539BOLB   C4B36924  20.176  22.994  11.076  0.1509 -0.0082 -0.0098
 1539BOLB   NC236925  22.500  22.205   9.249 -0.0781  0.2240  0.0453
 1539BOLB   PO236926  22.454  22.206   9.669 -0.1244  0.1418  0.0622
 1539BOLB   GL336927  22.194  22.302   9.964  0.0180  0.3720  0.0058
 1539BOLB   GL436928  22.262  22.613  10.157  0.2152 -0.2797  0.0657
 1539BOLB   C1C36929  21.814  22.583   9.959  0.1534  0.0068 -0.0991
 1539BOLB   C2C36930  21.371  22.584  10.071 -0.2854 -0.0218  0.3614
 1539BOLB   C3C36931  20.958  22.557  10.248 -0.1399 -0.2711 -0.0553
 1539BOLB   C4C36932  20.547  22.610  10.502  0.1495 -0.2838 -0.3176
 1539BOLB   C1D36933  21.919  22.317  10.359 -0.1723  0.1410 -0.3387
 1539BOLB   C2D36934  21.784  21.969  10.794  0.0318 -0.5580  0.0128
 1539BOLB   C3D36935  21.567  21.661  11.024 -0.2878  0.0098 -0.0745
 1539BOLB   C4D36936  21.131  21.397  11.119 -0.1322 -0.0082 -0.1415
 1540BOLB   NC136937   8.786   9.979  11.859 -0.0066  0.2293 -0.0395
 1540BOLB   PO136938   8.445  10.137  12.108  0.0810  0.0342 -0.3018
 1540BOLB   GL136939   8.430  10.397  11.762 -0.2675  0.1290 -0.2507
 1540BOLB   GL236940   8.488  10.813  11.700  0.1026  0.2163  0.0832
 1540BOLB   C1A36941   8.695  10.519  11.418  0.0111  0.4324 -0.0743
 1540BOLB   C2A36942   9.014  10.474  11.132  0.0629  0.0683  0.2516
 1540BOLB   C3A36943   9.277  10.751  10.738  0.0567  0.1333 -0.1290
 1540BOLB   C4A36944   9.334  10.429  10.364 -0.1685 -0.0927 -0.4304
 1540BOLB   C1B36945   8.443  10.901  11.236 -0.1552 -0.5151 -0.2047
 1540BOLB   C2B36946   8.620  10.614  10.930  0.2109  0.0977  0.3666
 1540BOLB   C3B36947   8.843  10.453  10.504  0.3294 -0.1007  0.1580
 1540BOLB   C4B36948   8.712  10.383  10.106  0.3140  0.2308 -0.0081
 1540BOLB   NC236949   8.529   9.975   8.024 -0.2087 -0.2154  0.0082
 1540BOLB   PO236950   8.576  10.381   8.104 -0.0898  0.0837  0.3557
 1540BOLB   GL336951   8.592  10.563   8.491  0.3356 -0.0527  0.0842
 1540BOLB   GL436952   8.731  10.886   8.366 -0.1624  0.3064 -0.1101
 1540BOLB   C1C36953   8.904  10.668   8.846  0.0186  0.1800  0.2763
 1540BOLB   C2C36954   9.052  10.654   9.236  0.0064 -0.0492 -0.0060
 1540BOLB   C3C36955   9.305  10.769   9.540 -0.1873  0.3057 -0.0199
 1540BOLB   C4C36956   9.469  10.638   9.978 -0.1105 -0.0218 -0.0209
 1540BOLB   C1D36957   9.186  10.945   8.417 -0.2624  0.1439  0.0510
 1540BOLB   C2D36958   9.360  10.798   8.787  0.0910  0.2966  0.1287
 1540BOLB   C3D36959   9.566  10.610   9.126 -0.2206  0.4973 -0.1540
 1540BOLB   C4D36960   9.532  10.253   9.505 -0.1310  0.0641  0.0411
 1541BOLB   NC136961  13.652  10.393  11.938  0.1341  0.1898  0.3730
 1541BOLB   PO136962  13.748  10.662  11.746 -0.3937  0.3937  0.1411
 1541BOLB   GL136963  13.557  10.486  11.500  0.3075 -0.0013  0.4166
 1541BOLB   GL236964  13.522  10.123  11.526  0.1934  0.0695 -0.0787
 1541BOLB   C1A36965  13.461  10.420  11.096 -0.3532 -0.0852  0.3942
 1541BOLB   C2A36966  13.549  10.246  10.763  0.1086 -0.2844 -0.2555
 1541BOLB   C3A36967  13.615   9.957  10.395  0.0100 -0.0080 -0.0954
 1541BOLB   C4A36968  13.531   9.756  10.025  0.0443 -0.1366  0.2603
 1541BOLB   C1B36969  13.748  10.035  11.194  0.0471  0.1071 -0.2849
 1541BOLB   C2B36970  13.932   9.937  10.906 -0.1178 -0.0963  0.2548
 1541BOLB   C3B36971  14.149   9.951  10.574 -0.0049  0.1648  0.0256
 1541BOLB   C4B36972  14.535   9.996  10.226 -0.0461 -0.0998 -0.3605
 1541BOLB   NC236973  13.206  10.018   7.165 -0.0203  0.0218  0.0584
 1541BOLB   PO236974  13.332  10.129   7.624 -0.2193  0.2005 -0.0830
 1541BOLB   GL336975  13.281   9.904   7.961  0.2638  0.5738 -0.1231
 1541BOLB   GL436976  13.305  10.168   8.140 -0.0123 -0.0998 -0.1608
 1541BOLB   C1C36977  13.314   9.784   8.372  0.2775 -0.0186 -0.0867
 1541BOLB   C2C36978  13.487   9.798   8.709 -0.0139  0.3240  0.1175
 1541BOLB   C3C36979  13.487   9.834   9.166 -0.1167  0.1376 -0.1268
 1541BOLB   C4C36980  13.567   9.590   9.549  0.3537  0.2030 -0.2381
 1541BOLB   C1D36981  13.293  10.353   8.599 -0.1774  0.1233 -0.1447
 1541BOLB   C2D36982  12.933  10.446   8.781 -0.0763 -0.1245  0.1322
 1541BOLB   C3D36983  12.769  10.414   9.104  0.0601 -0.0870 -0.0261
 1541BOLB   C4D36984  12.849  10.667   9.410 -0.0889  0.0514 -0.3175
 1542BOLB   NC136985  16.114  17.873  11.473 -0.0172 -0.1585 -0.3016
 1542BOLB   PO136986  16.510  17.797  11.466  0.1441  0.0145 -0.0595
 1542BOLB   GL136987  16.503  17.710  10.970  0.1531 -0.2132 -0.2108
 1542BOLB   GL236988  16.738  17.418  10.944  0.0043 -0.0370  0.3488
 1542BOLB   C1A36989  16.411  18.047  10.490  0.1623 -0.0525  0.1373
 1542BOLB   C2A36990  16.468  18.013  10.017  0.0225  0.1606  0.0605
 1542BOLB   C3A36991  16.751  18.334   9.727  0.0784 -0.1262 -0.2052
 1542BOLB   C4A36992  17.012  18.598   9.510  0.3835 -0.2855 -0.1033
 1542BOLB   C1B36993  16.800  17.185  10.648  0.1041 -0.1371  0.4557
 1542BOLB   C2B36994  16.598  17.087  10.311  0.2371  0.0217  0.0441
 1542BOLB   C3B36995  16.621  17.094   9.858  0.0465  0.0301 -0.0996
 1542BOLB   C4B36996  16.761  17.168   9.434 -0.0979 -0.2638  0.0199
 1542BOLB   NC236997  18.145  19.020   7.280  0.1119  0.1169  0.0100
 1542BOLB   PO236998  18.019  19.317   7.525 -0.0245 -0.0626  0.1808
 1542BOLB   GL336999  17.784  19.341   7.795 -0.0056 -0.3731 -0.0025
 1542BOLB   GL437000  17.969  19.466   8.012 -0.3069 -0.0348 -0.0627
 1542BOLB   C1C37001  17.664  19.174   8.215 -0.1405  0.1852  0.1920
 1542BOLB   C2C37002  17.819  19.019   8.684 -0.1918 -0.0733 -0.0871
 1542BOLB   C3C37003  17.631  18.794   8.975  0.2263 -0.2825 -0.1518
 1542BOLB   C4C37004  17.332  18.637   9.275  0.0265  0.1644  0.4670
 1542BOLB   C1D37005  18.358  19.436   8.318  0.4922  0.3215 -0.2950
 1542BOLB   C2D37006  18.465  19.353   8.744 -0.4239  0.0661  0.0261
 1542BOLB   C3D37007  18.584  19.106   9.100  0.1022  0.0242 -0.0076
 1542BOLB   C4D37008  18.589  18.793   9.394  0.0301  0.0561  0.0068
 1543BOLB   NC137009  19.112  21.023  12.455  0.0614  0.1314 -0.0900
 1543BOLB   PO137010  19.597  21.160  12.421 -0.1371  0.3582 -0.0437
 1543BOLB   GL137011  19.859  21.335  12.191 -0.3665 -0.2900  0.1986
 1543BOLB   GL237012  19.853  21.247  11.813  0.0883 -0.0484 -0.0522
 1543BOLB   C1A37013  20.311  21.442  12.067  0.2467  0.0701  0.0606
 1543BOLB   C2A37014  20.526  21.549  11.761 -0.3085  0.1441 -0.0826
 1543BOLB   C3A37015  20.686  21.680  11.419  0.2530 -0.4574  0.0653
 1543BOLB   C4A37016  20.731  21.705  10.952 -0.2135  0.2227 -0.0813
 1543BOLB   C1B37017  20.145  21.488  11.467 -0.2551 -0.1743 -0.2843
 1543BOLB   C2B37018  20.298  21.551  11.111 -0.0616 -0.1127 -0.3648
 1543BOLB   C3B37019  20.258  21.691  10.715 -0.2238  0.0668  0.2720
 1543BOLB   C4B37020  20.429  21.709  10.301 -0.2595 -0.1465  0.0408
 1543BOLB   NC237021  22.199  22.665   8.822  0.0585 -0.0236 -0.2582
 1543BOLB   PO237022  21.956  22.448   9.163  0.1505 -0.0066 -0.0879
 1543BOLB   GL337023  21.567  22.307   9.307  0.0513  0.3888 -0.2953
 1543BOLB   GL437024  21.669  22.281   9.599 -0.2389 -0.2412 -0.1771
 1543BOLB   C1C37025  21.192  22.392   9.551  0.1255  0.0784  0.0152
 1543BOLB   C2C37026  20.872  22.321   9.857  0.1541  0.1465  0.1550
 1543BOLB   C3C37027  20.560  22.184  10.223 -0.1529  0.0407  0.0646
 1543BOLB   C4C37028  20.628  22.081  10.637 -0.0030  0.1618 -0.1750
 1543BOLB   C1D37029  21.768  22.044   9.970 -0.2655  0.0567  0.3606
 1543BOLB   C2D37030  21.674  21.765  10.303  0.0623  0.1289  0.0672
 1543BOLB   C3D37031  21.336  21.656  10.568 -0.0926  0.1047  0.4230
 1543BOLB   C4D37032  21.134  21.915  10.706 -0.1800 -0.1108 -0.1278
 1544BOLB   NC137033   9.815  14.400  12.091 -0.0211  0.1256 -0.1377
 1544BOLB   PO137034  10.277  14.471  12.031 -0.0741  0.2145  0.1512
 1544BOLB   GL137035  10.144  14.395  11.676 -0.1094  0.3245  0.0155
 1544BOLB   GL237036  10.197  14.139  11.569  0.1081  0.0118  0.3643
 1544BOLB   C1A37037   9.795  14.294  11.370 -0.0492 -0.1085 -0.1064
 1544BOLB   C2A37038   9.526  14.077  11.022 -0.2462  0.0609  0.0082
 1544BOLB   C3A37039   9.190  14.025  10.759  0.0202  0.0315  0.1539
 1544BOLB   C4A37040   8.975  13.934  10.438  0.4055 -0.1066  0.2018
 1544BOLB   C1B37041  10.201  14.076  11.174 -0.5134  0.1139  0.3848
 1544BOLB   C2B37042  10.026  14.136  10.720  0.3180 -0.2412 -0.1337
 1544BOLB   C3B37043   9.856  14.225  10.336  0.1185  0.0453 -0.0418
 1544BOLB   C4B37044   9.859  14.219   9.896  0.0709 -0.0789  0.2191
 1544BOLB   NC237045   7.985  13.958   7.623 -0.3345  0.0559  0.0302
 1544BOLB   PO237046   8.112  14.193   7.972  0.1278  0.2097  0.0629
 1544BOLB   GL337047   8.184  14.087   8.420 -0.0707 -0.1553  0.0080
 1544BOLB   GL437048   7.963  13.931   8.615  0.1771 -0.1731  0.0090
 1544BOLB   C1C37049   8.461  14.156   8.763 -0.1150 -0.2138 -0.0010
 1544BOLB   C2C37050   8.572  14.231   9.157 -0.2100 -0.2729 -0.1646
 1544BOLB   C3C37051   8.799  14.188   9.627  0.1642 -0.1742 -0.0830
 1544BOLB   C4C37052   8.796  14.102  10.079  0.0401 -0.1523 -0.0812
 1544BOLB   C1D37053   8.173  13.852   9.064 -0.1341 -0.1122  0.3765
 1544BOLB   C2D37054   8.298  13.958   9.416 -0.0903 -0.1018 -0.0497
 1544BOLB   C3D37055   8.339  13.962   9.854  0.3492 -0.1231 -0.1541
 1544BOLB   C4D37056   8.419  13.760  10.277  0.1693 -0.1833 -0.1012
 1545BOLB   NC137057   8.787  12.637  12.277  0.1064 -0.0733  0.1172
 1545BOLB   PO137058   8.381  12.378  12.408 -0.1647  0.1332 -0.0160
 1545BOLB   GL137059   8.420  12.413  11.976 -0.0186  0.4372  0.0149
 1545BOLB   GL237060   8.073  12.530  11.946  0.2454 -0.0149 -0.4741
 1545BOLB   C1A37061   8.346  12.419  11.572 -0.1608 -0.0716  0.1117
 1545BOLB   C2A37062   8.366  12.394  11.162  0.1267  0.1151  0.0043
 1545BOLB   C3A37063   8.269  12.647  10.789 -0.0946 -0.4217  0.0730
 1545BOLB   C4A37064   8.431  12.869  10.412  0.3294  0.2112  0.0254
 1545BOLB   C1B37065   7.814  12.776  11.660  0.1867 -0.0079 -0.3192
 1545BOLB   C2B37066   7.775  13.126  11.426 -0.0844  0.1495  0.0202
 1545BOLB   C3B37067   7.787  13.465  11.198  0.1238 -0.3550  0.0755
 1545BOLB   C4B37068   7.591  13.859  11.002  0.1801  0.3180 -0.1776
 1545BOLB   NC237069   7.577  14.103   8.329  0.0324 -0.0738  0.0472
 1545BOLB   PO237070   7.458  13.672   8.444 -0.2436 -0.0071  0.2077
 1545BOLB   GL337071   7.637  13.504   8.777 -0.0310 -0.2606 -0.0842
 1545BOLB   GL437072   7.553  13.268   8.744 -0.2821 -0.1543  0.0258
 1545BOLB   C1C37073   7.879  13.491   9.229  0.1439  0.0560  0.2385
 1545BOLB   C2C37074   8.166  13.487   9.448  0.2374 -0.1876  0.1735
 1545BOLB   C3C37075   8.234  13.448   9.841  0.1771 -0.0994  0.0848
 1545BOLB   C4C37076   8.338  13.148  10.095  0.1528 -0.1795  0.0484
 1545BOLB   C1D37077   7.775  13.015   8.891  0.0929 -0.3051 -0.4468
 1545BOLB   C2D37078   7.870  13.003   9.341  0.1611 -0.1957  0.2823
 1545BOLB   C3D37079   8.259  12.999   9.659 -0.3872 -0.0960  0.0130
 1545BOLB   C4D37080   8.796  13.079   9.864 -0.0755  0.0898  0.1047
 1546BOLB   NC137081  14.114  11.554  11.697 -0.0125 -0.0987 -0.3125
 1546BOLB   PO137082  14.499  11.738  11.636  0.0859  0.1519  0.0149
 1546BOLB   GL137083  14.506  11.344  11.505  0.4447  0.0413  0.1199
 1546BOLB   GL237084  14.813  11.225  11.502 -0.0888  0.1997 -0.1640
 1546BOLB   C1A37085  14.580  11.176  11.059 -0.1269  0.1893 -0.1424
 1546BOLB   C2A37086  14.731  11.302  10.729  0.3676 -0.0233 -0.1266
 1546BOLB   C3A37087  14.772  11.379  10.260 -0.2223 -0.0163 -0.0499
 1546BOLB   C4A37088  14.910  11.251   9.821 -0.0222 -0.1948 -0.2053
 1546BOLB   C1B37089  14.892  10.832  11.273 -0.0038 -0.2279  0.0019
 1546BOLB   C2B37090  15.136  11.019  10.957  0.1051  0.0238  0.2665
 1546BOLB   C3B37091  15.334  11.070  10.484  0.1493 -0.0095 -0.0617
 1546BOLB   C4B37092  15.362  11.047  10.017  0.0234 -0.0510 -0.2427
 1546BOLB   NC237093  14.991  10.113   7.723 -0.0197  0.0144  0.2008
 1546BOLB   PO237094  15.279  10.509   8.002  0.2154  0.3281  0.0816
 1546BOLB   GL337095  14.869  10.609   8.060  0.2307 -0.2296  0.2654
 1546BOLB   GL437096  14.664  10.251   8.088  0.1423  0.4010 -0.0493
 1546BOLB   C1C37097  14.579  10.677   8.373  0.0522  0.1355  0.2064
 1546BOLB   C2C37098  14.424  10.706   8.715 -0.3241  0.1052 -0.0957
 1546BOLB   C3C37099  14.427  10.847   9.164 -0.3634 -0.1589 -0.0877
 1546BOLB   C4C37100  14.730  11.014   9.526 -0.3418 -0.2751 -0.0636
 1546BOLB   C1D37101  14.297  10.273   8.467 -0.3763  0.1888  0.0835
 1546BOLB   C2D37102  14.295  10.244   8.915  0.0567  0.3377 -0.0421
 1546BOLB   C3D37103  14.371  10.399   9.308  0.1907 -0.1276  0.0940
 1546BOLB   C4D37104  14.475  10.644   9.700 -0.0216  0.2065  0.4462
 1547BOLB   NC137105  19.609  10.366  13.331  0.0281 -0.2300  0.3773
 1547BOLB   PO137106  19.365  10.582  13.058  0.2479  0.0923 -0.0433
 1547BOLB   GL137107  19.689  10.378  12.815 -0.0302 -0.3737  0.3142
 1547BOLB   GL237108  19.638  10.095  12.885 -0.0984 -0.1067 -0.1630
 1547BOLB   C1A37109  19.688  10.290  12.424 -0.0129 -0.1151 -0.1954
 1547BOLB   C2A37110  19.781  10.280  11.922 -0.0230  0.2724  0.1916
 1547BOLB   C3A37111  20.004  10.224  11.506  0.3698  0.0490 -0.1785
 1547BOLB   C4A37112  20.169  10.197  11.106 -0.0610 -0.1431  0.0724
 1547BOLB   C1B37113  19.971   9.922  12.552  0.1264 -0.2629  0.0596
 1547BOLB   C2B37114  20.129   9.550  12.305  0.1436  0.0052 -0.0761
 1547BOLB   C3B37115  20.158   9.295  11.984 -0.3056  0.1225  0.1347
 1547BOLB   C4B37116  20.344   9.118  11.821 -0.0142 -0.0544  0.2082
 1547BOLB   NC237117  21.294  11.009   8.900  0.2117  0.2342 -0.0802
 1547BOLB   PO237118  21.295  10.579   8.997 -0.2111  0.2931  0.2073
 1547BOLB   GL337119  21.059  10.663   9.354 -0.2177 -0.3226 -0.1960
 1547BOLB   GL437120  21.110  11.005   9.386 -0.0360 -0.2685  0.0830
 1547BOLB   C1C37121  20.828  10.580   9.790  0.0885  0.1329 -0.1759
 1547BOLB   C2C37122  20.440  10.583  10.011 -0.1797 -0.0428  0.0770
 1547BOLB   C3C37123  20.265  10.518  10.383 -0.2433  0.1417  0.4087
 1547BOLB   C4C37124  20.294  10.434  10.740 -0.1267 -0.0521  0.0550
 1547BOLB   C1D37125  21.064  11.150   9.813  0.1680 -0.1682  0.4185
 1547BOLB   C2D37126  20.708  11.094  10.174 -0.1597  0.0261  0.0950
 1547BOLB   C3D37127  20.569  11.277  10.464 -0.2077 -0.0864  0.0238
 1547BOLB   C4D37128  20.270  11.519  10.425 -0.1978  0.0676  0.1508
 1548BOLB   NC137129  11.515  21.138  12.147  0.0224  0.3304 -0.2417
 1548BOLB   PO137130  11.963  21.260  12.137  0.1416  0.6068 -0.0046
 1548BOLB   GL137131  11.841  21.335  11.774 -0.1038  0.1674  0.1157
 1548BOLB   GL237132  11.904  21.611  11.497 -0.1864  0.2385  0.1747
 1548BOLB   C1A37133  11.816  21.105  11.355 -0.1875 -0.0438 -0.1681
 1548BOLB   C2A37134  11.695  21.089  10.890 -0.2481  0.0478 -0.0642
 1548BOLB   C3A37135  11.580  21.182  10.437  0.0172 -0.4368  0.1115
 1548BOLB   C4A37136  11.513  21.252  10.017 -0.1008  0.2529 -0.1628
 1548BOLB   C1B37137  11.998  21.538  11.109  0.1281  0.0273  0.0325
 1548BOLB   C2B37138  11.842  21.546  10.739  0.1945  0.1301  0.2812
 1548BOLB   C3B37139  11.991  21.591  10.379 -0.1200 -0.0763 -0.0517
 1548BOLB   C4B37140  12.031  21.509  10.022  0.2829  0.0489  0.0634
 1548BOLB   NC237141  10.352  21.136   7.445 -0.1876  0.0761  0.0860
 1548BOLB   PO237142  10.233  21.452   7.556  0.2777  0.2108 -0.0727
 1548BOLB   GL337143  10.344  21.305   8.034  0.0484  0.1773  0.0256
 1548BOLB   GL437144  10.224  20.908   7.899 -0.0721  0.0252 -0.1459
 1548BOLB   C1C37145  10.497  21.189   8.411 -0.0151 -0.1646  0.0250
 1548BOLB   C2C37146  10.672  21.249   8.849  0.2905 -0.1076 -0.0707
 1548BOLB   C3C37147  10.942  21.280   9.297  0.0174  0.1129 -0.5588
 1548BOLB   C4C37148  11.176  21.249   9.732  0.2990  0.1037  0.0273
 1548BOLB   C1D37149  10.298  20.735   8.283 -0.0165 -0.0878 -0.2595
 1548BOLB   C2D37150  10.594  20.687   8.658 -0.1232  0.0322  0.1307
 1548BOLB   C3D37151  10.886  20.703   8.998 -0.1833 -0.0772  0.1846
 1548BOLB   C4D37152  11.080  20.530   9.327  0.0386 -0.1012  0.2316
 1549BOLB   NC137153  13.661  12.835  11.517  0.3770  0.1444 -0.0916
 1549BOLB   PO137154  13.420  13.119  11.673  0.0202  0.1153 -0.1017
 1549BOLB   GL137155  13.372  13.127  11.229  0.0774 -0.0912  0.1131
 1549BOLB   GL237156  13.305  12.747  11.185 -0.1043  0.3211 -0.0091
 1549BOLB   C1A37157  13.344  13.244  10.846 -0.2417  0.0478 -0.5190
 1549BOLB   C2A37158  13.070  13.143  10.453  0.0038 -0.1659  0.0200
 1549BOLB   C3A37159  12.860  13.287  10.077  0.1286  0.2437  0.1933
 1549BOLB   C4A37160  12.727  13.398   9.620  0.0259  0.1399  0.1204
 1549BOLB   C1B37161  13.505  12.725  10.851 -0.1095  0.3676 -0.1007
 1549BOLB   C2B37162  13.702  12.483  10.516 -0.0358  0.1715 -0.1463
 1549BOLB   C3B37163  13.689  12.084  10.452  0.2117  0.2023 -0.2194
 1549BOLB   C4B37164  13.855  11.813  10.262 -0.0981 -0.2431  0.0665
 1549BOLB   NC237165  13.126  14.356   7.509  0.0599 -0.0788 -0.0358
 1549BOLB   PO237166  12.817  14.047   7.304 -0.3496  0.0444  0.0042
 1549BOLB   GL337167  12.676  14.238   7.721 -0.3651  0.0556  0.1383
 1549BOLB   GL437168  12.382  14.279   7.731  0.2776 -0.3188  0.0379
 1549BOLB   C1C37169  12.616  14.092   8.165  0.1736 -0.2136 -0.0293
 1549BOLB   C2C37170  12.670  13.906   8.451 -0.0465 -0.1072 -0.1430
 1549BOLB   C3C37171  12.847  13.520   8.670 -0.1444 -0.2155 -0.3380
 1549BOLB   C4C37172  12.785  13.491   9.144  0.0285  0.1015  0.0163
 1549BOLB   C1D37173  11.903  14.475   7.970 -0.1723 -0.0903  0.1162
 1549BOLB   C2D37174  11.727  14.638   8.320 -0.0867 -0.1586  0.0580
 1549BOLB   C3D37175  11.506  14.733   8.792  0.0025 -0.1736  0.2501
 1549BOLB   C4D37176  11.356  14.944   9.166 -0.1431 -0.0508 -0.2392
 1550BOLB   NC137177  16.573  17.185  11.357  0.1175 -0.0883 -0.2061
 1550BOLB   PO137178  16.200  17.412  11.273 -0.0732  0.1844 -0.1764
 1550BOLB   GL137179  16.259  17.272  10.862  0.0387  0.0254 -0.1831
 1550BOLB   GL237180  16.067  17.445  10.735 -0.1745  0.0347  0.3450
 1550BOLB   C1A37181  16.477  17.565  10.483  0.1756 -0.2235  0.0353
 1550BOLB   C2A37182  16.778  17.527  10.219  0.3669 -0.0791  0.0428
 1550BOLB   C3A37183  16.850  17.525   9.830  0.2996 -0.0368 -0.1274
 1550BOLB   C4A37184  17.176  17.414   9.535  0.1626 -0.0269 -0.0494
 1550BOLB   C1B37185  16.090  17.218  10.354 -0.1386  0.0595  0.2889
 1550BOLB   C2B37186  16.304  17.440   9.967 -0.1021  0.2747 -0.0901
 1550BOLB   C3B37187  16.355  17.668   9.712  0.1045 -0.0305 -0.0158
 1550BOLB   C4B37188  16.669  17.886   9.459 -0.1841  0.1050  0.0347
 1550BOLB   NC237189  16.596  18.026   7.412 -0.2397 -0.2268 -0.0510
 1550BOLB   PO237190  17.000  17.744   7.403  0.2302 -0.1127 -0.1878
 1550BOLB   GL337191  17.144  17.595   7.776 -0.1677  0.2460  0.0175
 1550BOLB   GL437192  17.370  17.388   7.661  0.0002 -0.2362 -0.2382
 1550BOLB   C1C37193  17.068  17.216   8.004 -0.2369 -0.2179  0.0599
 1550BOLB   C2C37194  17.189  17.077   8.458 -0.1165 -0.3542 -0.3191
 1550BOLB   C3C37195  16.940  17.198   8.926 -0.2177  0.1661 -0.1518
 1550BOLB   C4C37196  17.139  17.502   9.184 -0.2250 -0.4369 -0.0110
 1550BOLB   C1D37197  17.585  17.429   8.033 -0.3775 -0.0521 -0.2134
 1550BOLB   C2D37198  17.528  17.500   8.342 -0.2901  0.2344 -0.0946
 1550BOLB   C3D37199  17.572  17.368   8.790 -0.0425  0.1172  0.0018
 1550BOLB   C4D37200  17.607  17.352   9.248  0.1957  0.1429  0.2992
 1551BOLB   NC137201   9.329  23.706  13.867  0.0258 -0.1213  0.0254
 1551BOLB   PO137202   9.354  23.989  13.411  0.3669  0.0623 -0.0401
 1551BOLB   GL137203   9.589  24.098  13.115  0.1050 -0.1217 -0.0485
 1551BOLB   GL237204   9.721  24.284  13.401 -0.2463 -0.2774  0.2091
 1551BOLB   C1A37205   9.993  24.231  12.966  0.0825 -0.1790  0.1828
 1551BOLB   C2A37206  10.274  24.534  13.048  0.2057 -0.2035 -0.1669
 1551BOLB   C3A37207  10.442  24.815  12.731  0.1035  0.2097 -0.2781
 1551BOLB   C4A37208  10.672  25.045  12.458 -0.2171 -0.3259 -0.2470
 1551BOLB   C1B37209   9.949  24.610  13.406  0.0105 -0.1282 -0.0975
 1551BOLB   C2B37210  10.271  24.987  13.256  0.0465  0.2819  0.0586
 1551BOLB   C3B37211  10.241  25.399  13.219 -0.1373  0.0924 -0.1347
 1551BOLB   C4B37212  10.222  25.818  13.151  0.0839  0.0693 -0.1248
 1551BOLB   NC237213  10.607  26.311  10.351 -0.2077 -0.0470  0.1518
 1551BOLB   PO237214  10.813  25.922  10.111  0.3849  0.0157 -0.1929
 1551BOLB   GL337215  10.951  25.685  10.505  0.0216  0.3081 -0.1929
 1551BOLB   GL437216  11.114  25.737  10.780  0.1930  0.0513 -0.1387
 1551BOLB   C1C37217  10.799  25.357  10.741  0.1437 -0.0272 -0.0685
 1551BOLB   C2C37218  10.794  25.069  11.076 -0.1520 -0.0658 -0.0993
 1551BOLB   C3C37219  10.661  24.968  11.489 -0.0368 -0.1459 -0.2263
 1551BOLB   C4C37220  10.688  24.974  11.945 -0.3493  0.1118 -0.1331
 1551BOLB   C1D37221  11.064  25.551  11.113 -0.0790 -0.0960 -0.0364
 1551BOLB   C2D37222  11.071  25.360  11.509  0.2784 -0.1581  0.0216
 1551BOLB   C3D37223  11.202  24.876  11.742 -0.0243  0.1259  0.2755
 1551BOLB   C4D37224  10.931  24.561  11.872  0.1836 -0.1058 -0.2552
 1552BOLB   NC137225  21.094  20.893  13.682 -0.0411 -0.2362 -0.4124
 1552BOLB   PO137226  21.421  20.667  13.746 -0.0334  0.3703  0.3686
 1552BOLB   GL137227  21.682  20.673  13.428  0.0387 -0.3244  0.0777
 1552BOLB   GL237228  21.853  20.441  13.558  0.0069 -0.0256  0.3021
 1552BOLB   C1A37229  22.021  21.090  13.397 -0.1845 -0.0097  0.1942
 1552BOLB   C2A37230  22.339  21.210  13.136  0.0542 -0.1425  0.2531
 1552BOLB   C3A37231  22.593  21.414  12.954  0.2534 -0.0425 -0.3334
 1552BOLB   C4A37232  22.917  21.384  12.654  0.2806  0.0873 -0.1806
 1552BOLB   C1B37233  22.231  20.637  13.274  0.0968  0.0594 -0.1695
 1552BOLB   C2B37234  22.619  20.755  13.240  0.1408  0.0958 -0.3760
 1552BOLB   C3B37235  22.911  20.952  13.074 -0.0221 -0.1751  0.4149
 1552BOLB   C4B37236  23.354  20.920  13.061 -0.4260  0.0541 -0.1823
 1552BOLB   NC237237  23.933  21.008  10.473 -0.0952 -0.1091  0.0509
 1552BOLB   PO237238  24.194  21.083  10.813 -0.1730 -0.1927 -0.1425
 1552BOLB   GL337239  23.972  20.857  11.112 -0.3875 -0.2560 -0.1792
 1552BOLB   GL437240  24.085  21.034  11.447  0.2829  0.1396  0.0589
 1552BOLB   C1C37241  23.628  20.755  11.388 -0.3181 -0.1120  0.0831
 1552BOLB   C2C37242  23.292  21.003  11.656  0.1194  0.1556 -0.1098
 1552BOLB   C3C37243  23.159  20.969  12.015  0.0224 -0.2002 -0.1435
 1552BOLB   C4C37244  23.185  21.239  12.345 -0.1362 -0.4777  0.0821
 1552BOLB   C1D37245  23.733  21.238  11.604  0.1340 -0.2625 -0.0064
 1552BOLB   C2D37246  23.428  21.469  11.893  0.0078  0.1101  0.1473
 1552BOLB   C3D37247  23.051  21.676  12.022  0.4495 -0.0102  0.0457
 1552BOLB   C4D37248  22.689  21.512  12.247 -0.2497 -0.0073  0.2682
 1553BOLB   NC137249   9.610  20.103  11.809  0.0894  0.2290  0.0065
 1553BOLB   PO137250   9.402  19.709  11.966 -0.0845  0.1093  0.2139
 1553BOLB   GL137251   9.149  19.993  11.614  0.3391  0.0047  0.3158
 1553BOLB   GL237252   9.438  19.991  11.343 -0.2154  0.1078  0.2270
 1553BOLB   C1A37253   8.946  19.950  11.224 -0.1527  0.0815 -0.1462
 1553BOLB   C2A37254   8.959  20.122  10.811  0.4201 -0.1438 -0.0111
 1553BOLB   C3A37255   8.693  20.212  10.409 -0.0689 -0.1864  0.1013
 1553BOLB   C4A37256   8.551  20.275  10.049  0.1326  0.2394  0.0560
 1553BOLB   C1B37257   9.731  19.901  10.965 -0.0388 -0.3169  0.1702
 1553BOLB   C2B37258   9.660  19.513  10.663 -0.3189  0.1248 -0.1022
 1553BOLB   C3B37259   9.556  19.194  10.427  0.2216  0.2946  0.0530
 1553BOLB   C4B37260   9.661  19.019  10.054 -0.1655  0.0446 -0.1711
 1553BOLB   NC237261   7.578  20.928   7.424  0.4103 -0.0931  0.0552
 1553BOLB   PO237262   7.822  20.603   7.815 -0.2686  0.1402 -0.2761
 1553BOLB   GL337263   7.964  20.543   8.246 -0.0631 -0.0105  0.1490
 1553BOLB   GL437264   7.989  20.829   8.515 -0.3735 -0.3085  0.1119
 1553BOLB   C1C37265   7.968  20.325   8.599  0.2268 -0.1946 -0.0040
 1553BOLB   C2C37266   8.076  20.141   8.877  0.0983  0.4540  0.0799
 1553BOLB   C3C37267   8.177  20.160   9.301  0.0326 -0.0468  0.2101
 1553BOLB   C4C37268   8.312  20.415   9.679 -0.2046  0.1178 -0.1377
 1553BOLB   C1D37269   8.014  20.716   8.908 -0.0280  0.0074 -0.3775
 1553BOLB   C2D37270   8.316  20.675   9.208  0.0628 -0.0141  0.3585
 1553BOLB   C3D37271   8.720  20.520   9.356 -0.0750 -0.0629 -0.0195
 1553BOLB   C4D37272   9.051  20.305   9.657 -0.3168  0.3963  0.2094
 1554BOLB   NC137273  12.914  16.040  11.429  0.0383  0.0431  0.2588
 1554BOLB   PO137274  12.531  15.917  11.394  0.0515 -0.0728 -0.1818
 1554BOLB   GL137275  12.602  15.765  11.025  0.2088  0.1108  0.3917
 1554BOLB   GL237276  12.560  15.414  10.998 -0.1883 -0.1236 -0.0079
 1554BOLB   C1A37277  12.803  15.676  10.589 -0.3905 -0.0002  0.2844
 1554BOLB   C2A37278  12.583  15.505  10.194  0.0859  0.2086 -0.2152
 1554BOLB   C3A37279  12.632  15.381   9.767  0.1320  0.1473 -0.0883
 1554BOLB   C4A37280  12.712  15.253   9.233 -0.1353 -0.0577  0.0437
 1554BOLB   C1B37281  12.456  15.215  10.642  0.0301  0.0253 -0.0592
 1554BOLB   C2B37282  12.153  15.001  10.498 -0.0162  0.1535 -0.0276
 1554BOLB   C3B37283  11.669  14.831  10.511  0.0496 -0.0693  0.0795
 1554BOLB   C4B37284  11.491  14.459  10.378 -0.1209 -0.1117 -0.2273
 1554BOLB   NC237285  12.141  15.271   6.909 -0.2635 -0.2091  0.0624
 1554BOLB   PO237286  11.886  15.666   6.993  0.0951  0.3293 -0.2863
 1554BOLB   GL337287  12.055  15.834   7.361 -0.3106  0.3016 -0.2114
 1554BOLB   GL437288  11.801  15.860   7.631 -0.3926  0.1052 -0.3532
 1554BOLB   C1C37289  12.363  15.852   7.739  0.3002 -0.1695 -0.0787
 1554BOLB   C2C37290  12.429  15.799   8.131 -0.1454 -0.0324 -0.1600
 1554BOLB   C3C37291  12.762  15.550   8.374 -0.2690 -0.1438  0.1237
 1554BOLB   C4C37292  12.766  15.489   8.806 -0.2261 -0.0476 -0.2526
 1554BOLB   C1D37293  11.597  15.884   8.052  0.0934  0.1041 -0.0587
 1554BOLB   C2D37294  11.667  15.968   8.391  0.1867  0.0623  0.0068
 1554BOLB   C3D37295  11.740  15.681   8.672  0.0574 -0.0227  0.2005
 1554BOLB   C4D37296  11.857  15.556   9.042  0.0514  0.0365  0.0685
 1555BOLB   NC137297  10.368  13.540  12.206  0.2008 -0.2057 -0.2092
 1555BOLB   PO137298  10.738  13.533  11.903  0.1595  0.1358  0.0303
 1555BOLB   GL137299  10.665  13.703  11.566 -0.0924 -0.0990  0.0224
 1555BOLB   GL237300  10.824  13.664  11.391 -0.3003 -0.0025  0.0619
 1555BOLB   C1A37301  10.356  13.614  11.187 -0.0244 -0.1834 -0.1511
 1555BOLB   C2A37302  10.356  13.745  10.773  0.0952  0.0210 -0.0727
 1555BOLB   C3A37303  10.094  13.760  10.403 -0.0968  0.0318  0.0652
 1555BOLB   C4A37304  10.030  13.752   9.953  0.0340 -0.4330  0.2598
 1555BOLB   C1B37305  10.806  13.895  10.997  0.0931 -0.2027 -0.0548
 1555BOLB   C2B37306  10.806  13.897  10.562  0.1185  0.1286 -0.0848
 1555BOLB   C3B37307  10.606  13.719  10.192 -0.1690 -0.2434  0.0221
 1555BOLB   C4B37308  10.539  13.735   9.754 -0.2838 -0.0392  0.2317
 1555BOLB   NC237309  10.018  14.586   7.725 -0.3459 -0.0296 -0.1649
 1555BOLB   PO237310   9.638  14.412   7.892 -0.4085  0.0175 -0.4758
 1555BOLB   GL337311   9.509  14.571   8.236  0.0963 -0.0721 -0.0651
 1555BOLB   GL437312   9.278  14.691   8.421  0.0952 -0.1402 -0.3577
 1555BOLB   C1C37313   9.624  14.432   8.605 -0.0300 -0.3105  0.2301
 1555BOLB   C2C37314   9.522  14.163   8.983 -0.0169  0.2116  0.0868
 1555BOLB   C3C37315   9.642  14.043   9.377 -0.2220  0.2261  0.3315
 1555BOLB   C4C37316   9.711  13.742   9.681 -0.1305 -0.0196  0.0524
 1555BOLB   C1D37317   9.551  15.012   8.615  0.1225 -0.2300  0.2355
 1555BOLB   C2D37318   9.787  14.958   8.968 -0.0704 -0.2261 -0.2902
 1555BOLB   C3D37319  10.221  14.919   8.984 -0.0165  0.2162 -0.1135
 1555BOLB   C4D37320  10.606  14.731   8.813 -0.2622 -0.0027 -0.0894
 1556BOLB   NC137321  18.970  16.321  11.929 -0.1677 -0.1735  0.1976
 1556BOLB   PO137322  19.077  15.921  11.616 -0.0689 -0.0536 -0.2155
 1556BOLB   GL137323  19.124  15.789  11.162  0.2910 -0.2452 -0.0283
 1556BOLB   GL237324  19.032  15.549  11.031  0.1643  0.0430  0.0470
 1556BOLB   C1A37325  19.287  15.997  10.885 -0.0738  0.0176  0.1535
 1556BOLB   C2A37326  19.247  16.118  10.473 -0.2636  0.2306  0.1751
 1556BOLB   C3A37327  19.417  16.376  10.130  0.1236  0.2772 -0.5265
 1556BOLB   C4A37328  19.429  16.467   9.757 -0.2874 -0.0916  0.2806
 1556BOLB   C1B37329  19.080  15.597  10.645 -0.0178  0.0537 -0.1766
 1556BOLB   C2B37330  19.215  15.629  10.201  0.1944 -0.3502 -0.0047
 1556BOLB   C3B37331  19.563  15.586   9.884 -0.1436  0.1782 -0.0790
 1556BOLB   C4B37332  19.887  15.317   9.808 -0.0327 -0.3408  0.0013
 1556BOLB   NC237333  19.460  15.405   7.309 -0.1597 -0.0772 -0.1633
 1556BOLB   PO237334  19.360  15.739   7.595  0.2077 -0.1606 -0.0740
 1556BOLB   GL337335  19.301  16.016   7.876  0.0049  0.1796  0.0314
 1556BOLB   GL437336  19.170  15.720   8.087 -0.0630 -0.2674 -0.0999
 1556BOLB   C1C37337  19.518  16.010   8.307  0.2309  0.0392 -0.1387
 1556BOLB   C2C37338  19.712  16.038   8.670  0.3750 -0.0872  0.0664
 1556BOLB   C3C37339  19.568  16.075   9.063  0.0591 -0.1478 -0.2665
 1556BOLB   C4C37340  19.386  16.248   9.420 -0.1377 -0.1970 -0.2194
 1556BOLB   C1D37341  19.424  15.548   8.352  0.4544  0.3796  0.2521
 1556BOLB   C2D37342  19.494  15.150   8.668  0.4324 -0.0450  0.1772
 1556BOLB   C3D37343  19.344  14.768   8.914 -0.2553  0.0043 -0.2378
 1556BOLB   C4D37344  19.190  14.416   8.944  0.0534  0.0607  0.1663
 1557BOLB   NC137345  12.344  19.716  11.496  0.1327 -0.1427 -0.2650
 1557BOLB   PO137346  12.156  19.259  11.566  0.0776 -0.0866 -0.0195
 1557BOLB   GL137347  12.215  19.112  11.127 -0.4764 -0.2970 -0.0551
 1557BOLB   GL237348  12.212  18.870  11.007  0.1195 -0.0566  0.2312
 1557BOLB   C1A37349  12.041  19.176  10.718  0.4386 -0.3406  0.2709
 1557BOLB   C2A37350  11.922  19.139  10.307  0.0188 -0.0057  0.1176
 1557BOLB   C3A37351  11.641  19.126  10.082  0.2403  0.0367 -0.2039
 1557BOLB   C4A37352  11.628  19.411   9.651  0.3422  0.2585  0.0666
 1557BOLB   C1B37353  12.239  18.763  10.556 -0.0917 -0.0171 -0.0963
 1557BOLB   C2B37354  12.351  18.762  10.186  0.0807 -0.0262  0.2080
 1557BOLB   C3B37355  12.457  18.676   9.797  0.1638 -0.0670  0.1255
 1557BOLB   C4B37356  12.538  18.606   9.430 -0.0556  0.1469 -0.0813
 1557BOLB   NC237357  11.837  20.200   7.146 -0.3940  0.1521  0.1011
 1557BOLB   PO237358  11.383  20.304   7.320  0.0464 -0.4719 -0.0198
 1557BOLB   GL337359  11.243  20.180   7.799 -0.1265  0.1266 -0.1580
 1557BOLB   GL437360  11.025  20.445   7.818  0.0753  0.1477  0.1444
 1557BOLB   C1C37361  11.244  20.162   8.192 -0.0616 -0.2016 -0.0905
 1557BOLB   C2C37362  11.452  19.981   8.564  0.0387 -0.4619 -0.0351
 1557BOLB   C3C37363  11.574  19.949   9.004 -0.1010 -0.4409  0.1712
 1557BOLB   C4C37364  11.406  19.699   9.342 -0.2786 -0.3854  0.0954
 1557BOLB   C1D37365  11.227  20.757   8.130 -0.0367 -0.0819 -0.1475
 1557BOLB   C2D37366  11.447  20.864   8.426  0.5169  0.3247 -0.3996
 1557BOLB   C3D37367  11.823  20.751   8.673  0.0669  0.2087 -0.0537
 1557BOLB   C4D37368  12.193  20.721   8.779  0.2124 -0.1620  0.0645
 1558BOLB   NC137369  20.603   8.815  15.527 -0.0744  0.1257  0.2734
 1558BOLB   PO137370  20.635   9.095  15.189  0.0771 -0.4235 -0.2415
 1558BOLB   GL137371  20.957   9.097  14.943  0.1780 -0.1423  0.0812
 1558BOLB   GL237372  20.875   8.871  14.707  0.1051 -0.0251  0.3386
 1558BOLB   C1A37373  21.364   8.933  14.728 -0.0396  0.1372 -0.1898
 1558BOLB   C2A37374  21.686   8.651  14.735  0.1183  0.3058 -0.1640
 1558BOLB   C3A37375  21.804   8.302  14.586  0.0365  0.1780 -0.0440
 1558BOLB   C4A37376  22.171   8.042  14.654  0.2155  0.1971 -0.2512
 1558BOLB   C1B37377  21.110   8.636  14.352 -0.0887  0.2414 -0.3943
 1558BOLB   C2B37378  21.181   8.320  13.995  0.1226  0.2494  0.3143
 1558BOLB   C3B37379  21.438   8.034  13.808 -0.3280  0.2438  0.1240
 1558BOLB   C4B37380  21.733   7.977  13.399 -0.0878  0.0831 -0.2108
 1558BOLB   NC237381  23.328   6.379  13.508  0.1101  0.1100 -0.0140
 1558BOLB   PO237382  23.824   6.410  13.669  0.1587  0.1914  0.2123
 1558BOLB   GL337383  23.726   6.589  14.074 -0.1215 -0.0868  0.2707
 1558BOLB   GL437384  23.873   6.632  14.270  0.1894  0.3903  0.1865
 1558BOLB   C1C37385  23.416   6.882  14.332  0.3239 -0.0227 -0.1978
 1558BOLB   C2C37386  23.053   7.091  14.461 -0.2725 -0.1631  0.1346
 1558BOLB   C3C37387  22.668   7.344  14.549  0.1696 -0.0859 -0.0692
 1558BOLB   C4C37388  22.544   7.776  14.701 -0.0019  0.1453 -0.0096
 1558BOLB   C1D37389  24.067   7.133  14.436  0.0998  0.0258 -0.0355
 1558BOLB   C2D37390  23.805   7.530  14.463  0.0953 -0.3237  0.1301
 1558BOLB   C3D37391  23.511   7.793  14.642  0.0127  0.2337 -0.3150
 1558BOLB   C4D37392  23.477   7.794  14.987 -0.5428  0.0867 -0.0391
 1559BOLB   NC137393   8.885  13.563  12.102  0.2037  0.0342 -0.0195
 1559BOLB   PO137394   8.891  13.123  12.291  0.3830 -0.4578 -0.0784
 1559BOLB   GL137395   8.679  13.133  11.947  0.1936 -0.0269 -0.1804
 1559BOLB   GL237396   8.496  12.850  11.864 -0.0746 -0.0466  0.2258
 1559BOLB   C1A37397   8.505  13.395  11.678 -0.2103  0.5120  0.1065
 1559BOLB   C2A37398   8.273  13.297  11.369 -0.1725 -0.1806 -0.1320
 1559BOLB   C3A37399   8.282  13.189  10.886  0.0016 -0.4282  0.0336
 1559BOLB   C4A37400   8.037  13.212  10.540  0.1613  0.1743 -0.0986
 1559BOLB   C1B37401   8.253  12.873  11.556  0.0007  0.0273 -0.1016
 1559BOLB   C2B37402   8.102  12.832  11.211 -0.0691 -0.0980  0.1708
 1559BOLB   C3B37403   7.810  12.985  10.965 -0.0718  0.1927 -0.1068
 1559BOLB   C4B37404   7.555  13.343  10.726 -0.1510 -0.0398 -0.1709
 1559BOLB   NC237405   6.569  13.947   8.591 -0.2116  0.3247 -0.3824
 1559BOLB   PO237406   6.964  13.933   8.472 -0.1760  0.1213  0.2072
 1559BOLB   GL337407   6.995  14.002   8.959  0.0420  0.1228  0.4468
 1559BOLB   GL437408   6.891  14.298   9.173  0.0202  0.5576  0.0059
 1559BOLB   C1C37409   7.228  13.961   9.338 -0.2672 -0.1466 -0.1490
 1559BOLB   C2C37410   7.447  13.604   9.510  0.4216  0.0445 -0.3011
 1559BOLB   C3C37411   7.733  13.546   9.807 -0.0652 -0.0452 -0.3172
 1559BOLB   C4C37412   7.741  13.391  10.224  0.3402  0.1400 -0.0283
 1559BOLB   C1D37413   7.012  14.328   9.628  0.1959 -0.0441 -0.2842
 1559BOLB   C2D37414   7.345  14.111   9.776 -0.4451  0.1733  0.0737
 1559BOLB   C3D37415   7.282  13.773  10.019  0.2023 -0.1379 -0.3139
 1559BOLB   C4D37416   7.292  13.567  10.358  0.3098 -0.1797  0.6317
 1560BOLB   NC137417  10.127  16.857  11.838  0.0771  0.0035  0.0496
 1560BOLB   PO137418  10.254  17.263  11.802  0.3440 -0.0488 -0.2943
 1560BOLB   GL137419  10.107  17.302  11.382  0.1353  0.1735  0.2292
 1560BOLB   GL237420  10.044  17.666  11.296  0.1170  0.2179  0.1134
 1560BOLB   C1A37421  10.063  17.357  10.851  0.0480  0.2614  0.2405
 1560BOLB   C2A37422   9.643  17.379  10.640 -0.1298 -0.0135 -0.1189
 1560BOLB   C3A37423   9.656  17.562  10.172  0.4199 -0.1053  0.2172
 1560BOLB   C4A37424   9.769  17.436   9.737  0.0770 -0.1205  0.0203
 1560BOLB   C1B37425   9.630  17.807  10.986 -0.1120  0.2387 -0.3615
 1560BOLB   C2B37426   9.468  17.982  10.632  0.3479 -0.0203  0.1450
 1560BOLB   C3B37427   9.229  18.004  10.331 -0.0627 -0.1225 -0.2082
 1560BOLB   C4B37428   9.187  17.699   9.953 -0.0835 -0.1905  0.0260
 1560BOLB   NC237429   9.012  16.475   7.371  0.1291 -0.3173  0.1248
 1560BOLB   PO237430   9.412  16.623   7.514  0.0968 -0.1538 -0.1788
 1560BOLB   GL337431   9.564  16.786   7.951  0.4376 -0.1338  0.0848
 1560BOLB   GL437432   9.851  16.684   8.118 -0.1707 -0.0941 -0.0354
 1560BOLB   C1C37433   9.511  16.964   8.394 -0.0199 -0.0573 -0.1469
 1560BOLB   C2C37434   9.727  16.943   8.715  0.2119 -0.2077  0.0329
 1560BOLB   C3C37435   9.807  17.321   8.905 -0.3841  0.0666 -0.2849
 1560BOLB   C4C37436   9.773  17.386   9.309  0.1160 -0.4347  0.2868
 1560BOLB   C1D37437   9.500  16.473   8.329 -0.0376 -0.1403 -0.2479
 1560BOLB   C2D37438   9.286  16.569   8.677 -0.0883 -0.0277  0.0469
 1560BOLB   C3D37439   9.479  16.572   8.972 -0.2002 -0.0799  0.0022
 1560BOLB   C4D37440   9.850  16.506   9.394  0.3639  0.0993  0.2033
 1561BOLB   NC137441  16.098  19.238  11.714  0.2356  0.3455  0.1528
 1561BOLB   PO137442  15.953  19.154  11.358 -0.0112  0.4098  0.2706
 1561BOLB   GL137443  15.988  19.165  10.940 -0.0726 -0.1013  0.0473
 1561BOLB   GL237444  16.249  19.050  10.858 -0.0727  0.0700  0.1905
 1561BOLB   C1A37445  16.006  19.448  10.614  0.0395 -0.1180  0.4271
 1561BOLB   C2A37446  15.989  19.693  10.147  0.0823 -0.2795 -0.3524
 1561BOLB   C3A37447  15.992  20.033   9.761 -0.1763 -0.3454 -0.1155
 1561BOLB   C4A37448  16.080  20.342   9.446  0.0402 -0.0526  0.0259
 1561BOLB   C1B37449  16.040  18.992  10.415 -0.1664  0.0153 -0.3153
 1561BOLB   C2B37450  16.052  18.741  10.004  0.0411 -0.0459 -0.1123
 1561BOLB   C3B37451  16.039  18.699   9.513  0.1286  0.0480 -0.2618
 1561BOLB   C4B37452  16.052  18.521   9.044 -0.0067  0.3225 -0.0499
 1561BOLB   NC237453  16.009  20.989   6.784 -0.1284 -0.2735  0.0481
 1561BOLB   PO237454  16.224  20.615   7.079 -0.0633 -0.0487 -0.4627
 1561BOLB   GL337455  16.032  20.801   7.544  0.0870  0.3428 -0.1030
 1561BOLB   GL437456  15.701  20.847   7.687  0.3417  0.1174 -0.4549
 1561BOLB   C1C37457  16.213  20.718   7.964  0.3934  0.1707 -0.0179
 1561BOLB   C2C37458  16.503  20.701   8.328 -0.2577 -0.2367  0.0951
 1561BOLB   C3C37459  16.425  20.777   8.730 -0.2610 -0.0097 -0.3149
 1561BOLB   C4C37460  16.112  20.661   9.001 -0.3476  0.3124 -0.0704
 1561BOLB   C1D37461  15.699  20.869   8.110 -0.0771  0.0918 -0.0031
 1561BOLB   C2D37462  15.764  20.631   8.515  0.2459 -0.3913  0.3626
 1561BOLB   C3D37463  15.691  20.416   8.769  0.1083  0.3201 -0.2072
 1561BOLB   C4D37464  15.611  20.562   9.205  0.1953 -0.0125 -0.3004
 1562BOLB   NC137465  21.866  10.912  13.783 -0.2220 -0.0147 -0.0021
 1562BOLB   PO137466  21.788  10.727  14.119  0.1020 -0.0541 -0.0635
 1562BOLB   GL137467  21.924  10.286  13.870 -0.0834  0.3661 -0.0543
 1562BOLB   GL237468  21.848  10.388  13.632 -0.0422  0.2534 -0.3071
 1562BOLB   C1A37469  22.321  10.060  13.626  0.3973 -0.0206 -0.1103
 1562BOLB   C2A37470  22.575  10.132  13.232 -0.1850 -0.1835  0.1808
 1562BOLB   C3A37471  22.698   9.969  12.915 -0.0923  0.0817  0.1988
 1562BOLB   C4A37472  22.938   9.846  12.700  0.0744 -0.1083  0.0680
 1562BOLB   C1B37473  22.123  10.446  13.328 -0.2555 -0.1014 -0.3794
 1562BOLB   C2B37474  22.252  10.297  12.886 -0.1959  0.0135  0.1434
 1562BOLB   C3B37475  22.328  10.279  12.335 -0.0671  0.0136  0.1352
 1562BOLB   C4B37476  22.247  10.030  11.953 -0.1523  0.3965  0.2914
 1562BOLB   NC237477  23.491   9.122  10.457  0.1488 -0.0985 -0.1638
 1562BOLB   PO237478  23.915   9.391  10.497 -0.0872  0.2149  0.0940
 1562BOLB   GL337479  23.806   9.640  10.839 -0.1876 -0.0162 -0.0459
 1562BOLB   GL437480  24.026   9.719  11.066 -0.4635 -0.1079 -0.0942
 1562BOLB   C1C37481  23.471   9.668  11.196  0.0344  0.1057  0.0977
 1562BOLB   C2C37482  23.252   9.394  11.545 -0.2027 -0.1111 -0.0514
 1562BOLB   C3C37483  23.092   9.436  11.888 -0.0765  0.0835 -0.2653
 1562BOLB   C4C37484  23.065   9.715  12.271 -0.2413  0.0562  0.3789
 1562BOLB   C1D37485  23.862   9.371  11.341  0.0213 -0.2182 -0.0485
 1562BOLB   C2D37486  23.709   9.342  11.836  0.3136  0.1129 -0.1716
 1562BOLB   C3D37487  23.615   9.269  12.240 -0.0963  0.0274 -0.1500
 1562BOLB   C4D37488  23.488   9.339  12.645 -0.0305 -0.0821 -0.1569
 1563BOLB   NC137489  16.528  17.071  12.011  0.0589 -0.0440 -0.3569
 1563BOLB   PO137490  16.261  16.885  11.617 -0.1400  0.1532  0.1103
 1563BOLB   GL137491  16.289  16.768  11.149  0.4390  0.0406  0.0746
 1563BOLB   GL237492  16.605  16.814  10.990  0.2242 -0.1272 -0.0847
 1563BOLB   C1A37493  16.278  16.761  10.656 -0.2602  0.0361 -0.0030
 1563BOLB   C2A37494  16.277  16.733  10.223  0.0989  0.0300  0.1815
 1563BOLB   C3A37495  16.129  16.957   9.840 -0.0981 -0.2434  0.1489
 1563BOLB   C4A37496  16.202  17.227   9.449  0.2335  0.1552 -0.1896
 1563BOLB   C1B37497  16.854  16.703  10.581 -0.0160  0.0356  0.1448
 1563BOLB   C2B37498  16.717  16.623  10.135  0.0776 -0.1992 -0.3848
 1563BOLB   C3B37499  16.717  16.667   9.714 -0.0408  0.3363 -0.1774
 1563BOLB   C4B37500  16.545  16.728   9.334 -0.0070  0.2716 -0.0481
 1563BOLB   NC237501  15.025  18.011   7.022 -0.4700  0.2784  0.0726
 1563BOLB   PO237502  15.349  17.724   7.121 -0.0551 -0.2259 -0.0132
 1563BOLB   GL337503  15.489  17.700   7.574  0.0364 -0.0627  0.0328
 1563BOLB   GL437504  15.289  17.922   7.789  0.1409 -0.0429 -0.2382
 1563BOLB   C1C37505  15.355  17.494   7.952 -0.2368 -0.0730  0.0247
 1563BOLB   C2C37506  15.441  17.581   8.470 -0.1672 -0.1088 -0.2659
 1563BOLB   C3C37507  15.843  17.568   8.636  0.0140 -0.0408  0.2298
 1563BOLB   C4C37508  16.018  17.448   9.094  0.0916 -0.0005 -0.1129
 1563BOLB   C1D37509  15.375  18.151   8.181 -0.0274 -0.2253  0.0821
 1563BOLB   C2D37510  15.766  18.096   8.468  0.0100  0.4404  0.1056
 1563BOLB   C3D37511  15.965  18.065   8.793  0.1695  0.3281 -0.1362
 1563BOLB   C4D37512  16.335  17.939   8.952  0.0017  0.0833 -0.0677
 1564BOLB   NC137513  13.088   9.063  12.392  0.0803 -0.3472 -0.0669
 1564BOLB   PO137514  13.522   8.771  12.423 -0.2949 -0.0564  0.3374
 1564BOLB   GL137515  13.325   8.913  11.962  0.1096  0.0664  0.1366
 1564BOLB   GL237516  13.082   9.029  11.678 -0.2518  0.0191  0.1747
 1564BOLB   C1A37517  13.497   8.736  11.588  0.0973  0.1904  0.0321
 1564BOLB   C2A37518  13.565   8.552  11.159 -0.0293  0.0065  0.1625
 1564BOLB   C3A37519  13.394   8.548  10.750  0.2831  0.1400  0.0353
 1564BOLB   C4A37520  13.330   8.475  10.303  0.4397 -0.0585  0.2580
 1564BOLB   C1B37521  13.226   9.121  11.295  0.2708 -0.0293 -0.1035
 1564BOLB   C2B37522  13.416   9.105  10.864 -0.0140  0.2235 -0.1132
 1564BOLB   C3B37523  13.652   8.934  10.534  0.0343 -0.0423 -0.0447
 1564BOLB   C4B37524  13.528   8.885  10.067 -0.1266 -0.1215  0.2474
 1564BOLB   NC237525  14.359   8.913   7.803  0.3754 -0.0612 -0.3539
 1564BOLB   PO237526  14.363   8.519   7.806  0.0617 -0.2836 -0.1382
 1564BOLB   GL337527  14.177   8.594   8.148  0.2059  0.0679  0.1841
 1564BOLB   GL437528  14.385   8.449   8.340 -0.2939  0.0810 -0.2816
 1564BOLB   C1C37529  14.076   8.637   8.637 -0.1092  0.3111 -0.0087
 1564BOLB   C2C37530  13.869   8.522   9.089 -0.0315  0.3827  0.1702
 1564BOLB   C3C37531  13.614   8.350   9.367  0.0102  0.2477  0.0489
 1564BOLB   C4C37532  13.470   8.359   9.852 -0.0663 -0.4684  0.0841
 1564BOLB   C1D37533  14.544   8.812   8.606 -0.0303  0.2124  0.2397
 1564BOLB   C2D37534  14.515   9.183   8.908  0.1751  0.2879  0.0811
 1564BOLB   C3D37535  14.393   9.099   9.353  0.2196 -0.0131 -0.0532
 1564BOLB   C4D37536  14.335   8.966   9.827  0.1144  0.0478 -0.0370
 1565BOLB   NC137537  18.380  18.655  11.706 -0.0266 -0.1292  0.0357
 1565BOLB   PO137538  18.203  19.069  11.844  0.2378  0.5653  0.1163
 1565BOLB   GL137539  18.273  19.050  11.431 -0.1883  0.2126 -0.1352
 1565BOLB   GL237540  18.287  18.793  11.281 -0.3409  0.1305 -0.0031
 1565BOLB   C1A37541  18.384  19.143  10.963  0.1863  0.0603 -0.2184
 1565BOLB   C2A37542  18.414  19.186  10.521 -0.1934  0.1441 -0.0830
 1565BOLB   C3A37543  18.507  19.015  10.095 -0.0539  0.0362  0.2234
 1565BOLB   C4A37544  18.387  19.104   9.734 -0.3654  0.0769  0.3308
 1565BOLB   C1B37545  18.160  18.620  10.969  0.0894 -0.1576  0.2569
 1565BOLB   C2B37546  18.274  18.627  10.623  0.2916  0.0865  0.0411
 1565BOLB   C3B37547  18.307  18.631  10.207  0.2056  0.1866  0.0484
 1565BOLB   C4B37548  18.354  18.598   9.803 -0.4381  0.3859 -0.1636
 1565BOLB   NC237549  18.004  19.772   7.290 -0.0584  0.0525  0.3932
 1565BOLB   PO237550  17.622  19.618   7.438 -0.4064 -0.1735  0.0520
 1565BOLB   GL337551  17.494  19.758   7.833 -0.1658 -0.0850  0.0891
 1565BOLB   GL437552  17.505  20.096   7.837 -0.1078  0.2791 -0.2270
 1565BOLB   C1C37553  17.641  19.790   8.254 -0.2266  0.1187 -0.0418
 1565BOLB   C2C37554  17.779  19.615   8.716 -0.0697 -0.4026 -0.1099
 1565BOLB   C3C37555  18.029  19.408   8.988  0.1080 -0.1556 -0.1980
 1565BOLB   C4C37556  18.154  19.227   9.387  0.1958 -0.1133  0.0853
 1565BOLB   C1D37557  17.224  20.013   8.210  0.0003  0.1023  0.1139
 1565BOLB   C2D37558  16.865  19.834   8.407  0.2055 -0.0699 -0.0442
 1565BOLB   C3D37559  16.886  19.684   8.712 -0.0665 -0.1650 -0.0357
 1565BOLB   C4D37560  16.736  19.315   8.768  0.0836  0.2426 -0.3418
 1566BOLB   NC137561  18.078  23.611  12.488 -0.1238  0.1665 -0.3581
 1566BOLB   PO137562  18.207  23.994  12.634  0.3193 -0.1269  0.1234
 1566BOLB   GL137563  18.326  23.983  12.263 -0.5496 -0.3828 -0.1257
 1566BOLB   GL237564  18.672  24.033  12.259 -0.0222 -0.2600  0.0470
 1566BOLB   C1A37565  18.203  24.016  11.917  0.0656 -0.2043 -0.3590
 1566BOLB   C2A37566  18.199  24.313  11.561 -0.0598  0.3014 -0.0649
 1566BOLB   C3A37567  18.328  24.526  11.313 -0.1714  0.0200 -0.1188
 1566BOLB   C4A37568  18.273  24.843  11.057  0.4872 -0.1233 -0.2724
 1566BOLB   C1B37569  18.749  24.164  11.830  0.2782  0.1580  0.2919
 1566BOLB   C2B37570  18.705  24.216  11.460 -0.2053  0.2395 -0.2120
 1566BOLB   C3B37571  18.834  24.507  11.130 -0.1885  0.0990 -0.3207
 1566BOLB   C4B37572  18.702  24.817  10.911 -0.3157  0.1133  0.0245
 1566BOLB   NC237573  18.456  24.895   8.679  0.2444 -0.1143 -0.0085
 1566BOLB   PO237574  18.103  25.029   8.764  0.1957 -0.0471  0.1518
 1566BOLB   GL337575  18.200  25.318   9.025  0.0318  0.0199 -0.4232
 1566BOLB   GL437576  17.940  25.472   9.182  0.1929  0.0423  0.2549
 1566BOLB   C1C37577  18.253  25.013   9.431 -0.3389 -0.1321 -0.2458
 1566BOLB   C2C37578  18.263  25.029   9.801  0.1657 -0.2390  0.0670
 1566BOLB   C3C37579  18.124  24.890  10.226  0.1035 -0.0269  0.1462
 1566BOLB   C4C37580  18.208  24.946  10.670  0.0056  0.1351 -0.2282
 1566BOLB   C1D37581  17.763  25.281   9.435  0.1051  0.0796  0.0592
 1566BOLB   C2D37582  17.736  24.849   9.755 -0.1070  0.1426  0.3089
 1566BOLB   C3D37583  17.639  24.617  10.059 -0.1674  0.1642  0.2248
 1566BOLB   C4D37584  17.531  24.151  10.089  0.0647  0.2094 -0.2384
 1567BOLB   NC137585  18.845  13.699  11.812  0.0420  0.0502  0.1115
 1567BOLB   PO137586  18.617  13.302  11.796  0.2847  0.2835 -0.1160
 1567BOLB   GL137587  18.482  13.455  11.398  0.1443 -0.0983  0.2682
 1567BOLB   GL237588  18.677  13.554  11.335 -0.1965  0.1046 -0.1017
 1567BOLB   C1A37589  18.336  13.609  10.948 -0.1742  0.3273  0.2839
 1567BOLB   C2A37590  18.417  13.639  10.596  0.1620 -0.0700 -0.1546
 1567BOLB   C3A37591  18.610  13.563  10.233 -0.0708 -0.4459 -0.2088
 1567BOLB   C4A37592  18.854  13.551   9.933 -0.1512 -0.0601 -0.2434
 1567BOLB   C1B37593  18.833  13.454  10.950 -0.0478 -0.1832  0.1393
 1567BOLB   C2B37594  18.866  13.149  10.588 -0.0570 -0.0549 -0.0372
 1567BOLB   C3B37595  18.969  12.846  10.339 -0.1158  0.1805 -0.2326
 1567BOLB   C4B37596  19.187  12.648  10.162  0.0949  0.1753 -0.0936
 1567BOLB   NC237597  20.450  13.414   8.071  0.1869 -0.4234  0.2012
 1567BOLB   PO237598  20.055  13.487   7.781 -0.1112  0.0245 -0.0349
 1567BOLB   GL337599  20.006  13.511   8.214 -0.2483 -0.2390 -0.2294
 1567BOLB   GL437600  19.950  13.846   8.242  0.0309  0.1254  0.0044
 1567BOLB   C1C37601  19.756  13.315   8.501 -0.0353  0.2000  0.0444
 1567BOLB   C2C37602  19.688  13.318   8.970  0.3555  0.1572  0.0782
 1567BOLB   C3C37603  19.277  13.149   9.208 -0.0720 -0.0818 -0.0259
 1567BOLB   C4C37604  18.935  13.213   9.592 -0.0761 -0.0116 -0.1668
 1567BOLB   C1D37605  19.822  13.852   8.619 -0.0938 -0.1028 -0.1433
 1567BOLB   C2D37606  19.575  13.972   8.963  0.1612 -0.2144 -0.1913
 1567BOLB   C3D37607  19.651  14.270   9.117 -0.2515 -0.1224 -0.0463
 1567BOLB   C4D37608  19.970  14.601   9.203 -0.0872 -0.1898 -0.0121
 1568BOLB   NC137609  10.802  17.234  11.750  0.3121 -0.4082  0.0543
 1568BOLB   PO137610  10.894  17.596  11.698  0.3765 -0.1814  0.0361
 1568BOLB   GL137611  10.805  17.613  11.296 -0.1880 -0.1064  0.0126
 1568BOLB   GL237612  10.610  17.286  11.237 -0.2386 -0.3958 -0.1031
 1568BOLB   C1A37613  10.596  17.631  10.890 -0.0866 -0.0085  0.2787
 1568BOLB   C2A37614  10.709  17.484  10.458 -0.2449 -0.3205 -0.1277
 1568BOLB   C3A37615  10.564  17.324  10.133  0.4220 -0.1551  0.1291
 1568BOLB   C4A37616  10.435  16.924   9.857 -0.0385 -0.0116 -0.0633
 1568BOLB   C1B37617  10.508  17.170  10.767 -0.0242 -0.2220  0.3007
 1568BOLB   C2B37618  10.316  16.995  10.397 -0.0444  0.3547 -0.1519
 1568BOLB   C3B37619  10.062  16.747  10.157 -0.2157 -0.1633 -0.6771
 1568BOLB   C4B37620  10.104  16.635   9.798  0.0166 -0.0673 -0.0896
 1568BOLB   NC237621   9.895  17.342   7.738  0.2308  0.1200  0.0146
 1568BOLB   PO237622  10.377  17.292   7.683  0.2715 -0.1565 -0.1536
 1568BOLB   GL337623  10.306  17.283   8.117 -0.1704 -0.2293  0.0132
 1568BOLB   GL437624  10.083  17.090   8.104 -0.1756  0.2222  0.0082
 1568BOLB   C1C37625  10.614  17.072   8.426  0.1588 -0.3777 -0.0713
 1568BOLB   C2C37626  10.616  16.865   8.778 -0.2239  0.0248 -0.1332
 1568BOLB   C3C37627  10.598  16.688   9.143  0.4479 -0.1189  0.0753
 1568BOLB   C4C37628  10.560  16.726   9.527 -0.0387 -0.0162  0.0621
 1568BOLB   C1D37629   9.796  17.418   8.356 -0.2156 -0.1077  0.1025
 1568BOLB   C2D37630   9.402  17.479   8.579 -0.2083  0.0868  0.3279
 1568BOLB   C3D37631   9.353  17.568   9.009  0.0051  0.0625  0.0956
 1568BOLB   C4D37632   9.309  17.491   9.498 -0.0411 -0.0329 -0.0115
 1569BOLB   NC137633   9.890  17.600  11.785 -0.1107  0.0756  0.0216
 1569BOLB   PO137634   9.748  17.142  11.737 -0.2492  0.0046 -0.1099
 1569BOLB   GL137635   9.409  17.319  11.585  0.0237 -0.2149 -0.1783
 1569BOLB   GL237636   9.555  17.601  11.411 -0.1442 -0.0473 -0.1946
 1569BOLB   C1A37637   9.024  17.129  11.246 -0.0965 -0.0481  0.2994
 1569BOLB   C2A37638   8.970  16.856  11.012  0.1697 -0.1773  0.3408
 1569BOLB   C3A37639   8.804  16.671  10.585 -0.0287 -0.0443 -0.0899
 1569BOLB   C4A37640   8.370  16.480  10.423 -0.4866  0.2734  0.2032
 1569BOLB   C1B37641   9.253  17.425  11.002 -0.0177  0.2168  0.2097
 1569BOLB   C2B37642   9.221  17.600  10.633  0.1338  0.0212 -0.0116
 1569BOLB   C3B37643   8.799  17.670  10.390  0.1230 -0.1263 -0.2234
 1569BOLB   C4B37644   8.387  17.611  10.171 -0.1009 -0.1905  0.0418
 1569BOLB   NC237645   7.065  16.451   8.707 -0.0174 -0.0806 -0.0638
 1569BOLB   PO237646   6.749  16.737   8.615  0.1840  0.0533  0.2681
 1569BOLB   GL337647   6.790  16.582   9.107  0.1444 -0.2422 -0.2611
 1569BOLB   GL437648   6.519  16.439   9.291  0.2057 -0.0828  0.5326
 1569BOLB   C1C37649   7.002  16.431   9.438  0.3217 -0.0852  0.1463
 1569BOLB   C2C37650   7.050  16.475   9.886 -0.1040 -0.1024  0.0693
 1569BOLB   C3C37651   7.417  16.571  10.090 -0.0156  0.2503 -0.1881
 1569BOLB   C4C37652   7.835  16.438  10.283 -0.1125 -0.0704 -0.1676
 1569BOLB   C1D37653   6.609  16.127   9.213  0.2533  0.0610  0.2344
 1569BOLB   C2D37654   6.735  15.973   9.475 -0.0627  0.2944 -0.0015
 1569BOLB   C3D37655   6.878  15.928   9.896 -0.1682  0.3339  0.0575
 1569BOLB   C4D37656   7.226  15.739  10.015  0.2510 -0.1060 -0.0466
 1570BOLB   NC137657  12.764  21.831  11.802 -0.1583 -0.0133 -0.0901
 1570BOLB   PO137658  12.968  22.171  11.974 -0.0557 -0.1462  0.0059
 1570BOLB   GL137659  12.957  22.338  11.574  0.2007 -0.1931 -0.1572
 1570BOLB   GL237660  13.098  22.330  11.390 -0.1690  0.1864  0.1236
 1570BOLB   C1A37661  12.629  22.328  11.313  0.1123  0.2074  0.1451
 1570BOLB   C2A37662  12.405  22.401  11.019  0.2225 -0.1040 -0.4018
 1570BOLB   C3A37663  12.358  22.705  10.686 -0.1198  0.5214 -0.1690
 1570BOLB   C4A37664  12.393  23.110  10.624  0.2231 -0.1834 -0.2677
 1570BOLB   C1B37665  13.031  22.638  11.112  0.0008  0.0326  0.1928
 1570BOLB   C2B37666  13.273  23.103  10.978 -0.0874  0.2392 -0.2868
 1570BOLB   C3B37667  13.001  23.436  10.712  0.3388  0.1159  0.0416
 1570BOLB   C4B37668  12.921  23.509  10.315  0.0180  0.3440  0.0446
 1570BOLB   NC237669  12.183  24.731   8.866 -0.1527  0.1927 -0.0473
 1570BOLB   PO237670  12.592  24.814   8.758  0.1348 -0.0661  0.0887
 1570BOLB   GL337671  12.706  24.449   8.996  0.1155  0.0494 -0.1788
 1570BOLB   GL437672  12.985  24.325   9.059 -0.2184  0.1882 -0.0623
 1570BOLB   C1C37673  12.582  24.237   9.311  0.0109 -0.2897 -0.3340
 1570BOLB   C2C37674  12.614  23.819   9.588 -0.0372  0.0836  0.1820
 1570BOLB   C3C37675  12.508  23.701  10.021  0.0473 -0.0280 -0.0301
 1570BOLB   C4C37676  12.406  23.444  10.449  0.0997 -0.1740 -0.1733
 1570BOLB   C1D37677  13.053  24.030   9.312 -0.2938  0.2524 -0.1763
 1570BOLB   C2D37678  13.146  23.849   9.731  0.0517  0.0175  0.1992
 1570BOLB   C3D37679  12.931  23.911  10.058 -0.0664 -0.3558 -0.0013
 1570BOLB   C4D37680  13.136  23.906  10.496 -0.3445 -0.0580  0.0113
 1571BOLB   NC137681  21.765  15.961  13.179  0.0701  0.0248  0.1394
 1571BOLB   PO137682  21.936  16.304  12.905 -0.0213  0.1227  0.0689
 1571BOLB   GL137683  22.113  16.476  12.533  0.0905  0.2793  0.1926
 1571BOLB   GL237684  22.317  16.801  12.617  0.2569 -0.1740  0.0848
 1571BOLB   C1A37685  22.257  16.288  12.226 -0.1191  0.4694  0.2302
 1571BOLB   C2A37686  22.514  16.333  11.817 -0.2134  0.0583  0.2001
 1571BOLB   C3A37687  22.526  16.454  11.329  0.1643 -0.2935 -0.0099
 1571BOLB   C4A37688  22.646  16.675  11.063 -0.0188  0.0957  0.0541
 1571BOLB   C1B37689  22.547  16.756  12.190  0.1709 -0.1370 -0.0290
 1571BOLB   C2B37690  22.615  16.862  11.720  0.2069  0.2443  0.0084
 1571BOLB   C3B37691  22.835  17.088  11.460 -0.0003  0.1240 -0.1137
 1571BOLB   C4B37692  22.803  17.477  11.320 -0.0317 -0.1490 -0.2258
 1571BOLB   NC237693  25.114  16.593   9.804 -0.2659  0.1112  0.1667
 1571BOLB   PO237694  24.736  16.606   9.606  0.2306  0.1725 -0.1292
 1571BOLB   GL337695  24.361  16.644   9.818  0.1514 -0.0493  0.1793
 1571BOLB   GL437696  24.511  16.460  10.065 -0.1701 -0.0453 -0.0341
 1571BOLB   C1C37697  23.958  16.571  10.039  0.0268  0.1010 -0.1635
 1571BOLB   C2C37698  23.561  16.694  10.267 -0.1062  0.1815  0.3994
 1571BOLB   C3C37699  23.212  16.714  10.458  0.3413 -0.0648 -0.0531
 1571BOLB   C4C37700  22.891  16.651  10.746  0.2243  0.1275  0.1627
 1571BOLB   C1D37701  24.333  16.406  10.375 -0.1132 -0.2326 -0.1076
 1571BOLB   C2D37702  23.963  16.472  10.590 -0.0206 -0.2483 -0.2262
 1571BOLB   C3D37703  23.634  16.794  10.754 -0.0882  0.3033  0.0317
 1571BOLB   C4D37704  23.286  16.863  10.982 -0.1379  0.1503  0.3278
 1572BOLB   NC137705  10.127  22.500  12.608  0.2868  0.0607  0.2164
 1572BOLB   PO137706  10.535  22.408  12.634  0.2902 -0.0719 -0.0414
 1572BOLB   GL137707  10.502  22.726  12.407  0.0402  0.0796 -0.0655
 1572BOLB   GL237708  10.402  22.992  12.405  0.2530  0.0258  0.4463
 1572BOLB   C1A37709  10.650  22.819  11.964  0.0269  0.1669 -0.1182
 1572BOLB   C2A37710  10.808  23.072  11.722 -0.1390 -0.1104  0.1927
 1572BOLB   C3A37711  10.758  23.220  11.341 -0.1410  0.1313 -0.2348
 1572BOLB   C4A37712  10.680  23.278  10.823 -0.0446 -0.1753 -0.1528
 1572BOLB   C1B37713  10.228  23.408  12.321 -0.1340  0.0130 -0.0309
 1572BOLB   C2B37714   9.908  23.803  12.323 -0.0246  0.0383  0.2150
 1572BOLB   C3B37715   9.946  24.186  12.406  0.0334  0.0574 -0.0664
 1572BOLB   C4B37716  10.102  24.605  12.424  0.2046  0.0107 -0.0688
 1572BOLB   NC237717  10.410  24.649   9.186 -0.1352  0.1598  0.1596
 1572BOLB   PO237718  10.369  24.395   8.775  0.1541  0.0860 -0.0680
 1572BOLB   GL337719  10.595  24.145   9.118 -0.2738 -0.0854  0.1924
 1572BOLB   GL437720  10.651  24.202   9.524 -0.2390 -0.0285 -0.0105
 1572BOLB   C1C37721  10.655  23.754   9.326  0.1618 -0.1900 -0.1473
 1572BOLB   C2C37722  10.584  23.574   9.734  0.0507  0.0157  0.1614
 1572BOLB   C3C37723  10.571  23.472  10.126 -0.4113  0.0496 -0.0276
 1572BOLB   C4C37724  10.521  23.365  10.467  0.1784  0.1372  0.1675
 1572BOLB   C1D37725  10.622  24.506   9.862  0.0858  0.1457  0.0483
 1572BOLB   C2D37726  10.823  24.360  10.284  0.0976 -0.2996  0.3444
 1572BOLB   C3D37727  10.664  24.234  10.732  0.2595  0.0220  0.0645
 1572BOLB   C4D37728  10.767  24.089  11.146 -0.0899 -0.2366 -0.2743
 1573BOLB   NC137729  13.962  15.071  11.546  0.0901  0.0771 -0.1540
 1573BOLB   PO137730  13.571  14.959  11.270 -0.2146  0.5064  0.0680
 1573BOLB   GL137731  13.772  14.936  10.778 -0.2149 -0.0854  0.0660
 1573BOLB   GL237732  13.717  14.582  10.736 -0.0271 -0.0436  0.1418
 1573BOLB   C1A37733  14.039  14.907  10.394  0.3001 -0.0847 -0.3135
 1573BOLB   C2A37734  14.048  14.924   9.966 -0.1164 -0.0653  0.0310
 1573BOLB   C3A37735  14.094  14.721   9.603 -0.3059 -0.2138 -0.0168
 1573BOLB   C4A37736  14.013  14.428   9.234 -0.1672 -0.1675 -0.1634
 1573BOLB   C1B37737  13.842  14.457  10.237 -0.0505 -0.1451  0.2842
 1573BOLB   C2B37738  13.776  14.297   9.814  0.2295 -0.2903 -0.2056
 1573BOLB   C3B37739  13.706  14.098   9.460 -0.1873 -0.0996 -0.1026
 1573BOLB   C4B37740  13.843  13.950   9.030 -0.1476  0.0019 -0.0688
 1573BOLB   NC237741  12.990  15.246   7.274  0.2438  0.2412 -0.0131
 1573BOLB   PO237742  13.433  15.160   7.057  0.4677 -0.2235 -0.1806
 1573BOLB   GL337743  13.401  14.862   7.346  0.1976  0.0094 -0.1448
 1573BOLB   GL437744  13.220  15.026   7.675 -0.1080  0.0787  0.1059
 1573BOLB   C1C37745  13.667  14.735   7.738 -0.3995  0.0504 -0.1183
 1573BOLB   C2C37746  13.810  14.767   8.202 -0.4772  0.1414 -0.1507
 1573BOLB   C3C37747  13.956  14.538   8.526 -0.0417 -0.0950 -0.0928
 1573BOLB   C4C37748  14.069  14.542   8.875 -0.1532 -0.0516 -0.1285
 1573BOLB   C1D37749  13.420  15.105   8.042 -0.1367 -0.2070  0.1300
 1573BOLB   C2D37750  13.542  15.176   8.388  0.0231  0.3535  0.0862
 1573BOLB   C3D37751  13.612  15.379   8.775  0.0904 -0.0355  0.1221
 1573BOLB   C4D37752  13.925  15.512   8.956  0.2770  0.3242  0.4597
 1574BOLB   NC137753  22.180  19.760  14.069  0.0823  0.2006 -0.1205
 1574BOLB   PO137754  21.912  19.971  13.707 -0.0429  0.1860  0.2485
 1574BOLB   GL137755  22.246  19.898  13.557  0.1120  0.0340  0.0064
 1574BOLB   GL237756  22.382  20.168  13.558 -0.0175  0.0909  0.1767
 1574BOLB   C1A37757  22.456  19.794  13.167 -0.1690  0.1143 -0.3171
 1574BOLB   C2A37758  22.585  19.594  12.674  0.1268  0.0257 -0.1840
 1574BOLB   C3A37759  22.810  19.667  12.388 -0.1345 -0.0533 -0.2937
 1574BOLB   C4A37760  23.232  19.879  12.200  0.0481  0.0660 -0.3490
 1574BOLB   C1B37761  22.625  20.212  13.192  0.1959 -0.1355  0.0979
 1574BOLB   C2B37762  22.745  20.061  12.810  0.0270  0.2289  0.0044
 1574BOLB   C3B37763  23.052  20.201  12.596  0.3712 -0.1822  0.2722
 1574BOLB   C4B37764  23.413  20.270  12.470 -0.0715  0.3856  0.0899
 1574BOLB   NC237765  25.747  20.897  11.742  0.0171  0.1657 -0.1920
 1574BOLB   PO237766  25.315  20.783  11.577  0.0753 -0.0695 -0.1060
 1574BOLB   GL337767  24.928  20.581  11.661  0.1009 -0.1847 -0.1531
 1574BOLB   GL437768  24.927  20.407  11.991 -0.0094  0.0087 -0.0536
 1574BOLB   C1C37769  24.519  20.724  11.479  0.0329  0.0531 -0.1794
 1574BOLB   C2C37770  24.157  20.425  11.404 -0.1132 -0.3174 -0.1417
 1574BOLB   C3C37771  23.757  20.341  11.697 -0.1239  0.3682 -0.4651
 1574BOLB   C4C37772  23.443  20.122  11.938 -0.0261 -0.1701  0.2095
 1574BOLB   C1D37773  24.484  20.606  12.010  0.2107  0.0746 -0.0999
 1574BOLB   C2D37774  24.041  20.725  11.828  0.0669  0.1965  0.1428
 1574BOLB   C3D37775  23.822  21.129  12.105 -0.1077 -0.3810  0.1112
 1574BOLB   C4D37776  23.693  21.463  12.410 -0.2641  0.1666  0.0583
 1575BOLB   NC137777   9.375  16.306  12.628  0.0389 -0.2087  0.2679
 1575BOLB   PO137778   9.347  16.613  12.448  0.0424 -0.1783  0.0974
 1575BOLB   GL137779   9.176  16.615  12.012 -0.0902 -0.2645  0.2644
 1575BOLB   GL237780   9.385  16.740  11.692 -0.1211  0.0080 -0.0068
 1575BOLB   C1A37781   9.102  16.301  11.775 -0.0600  0.0636  0.2362
 1575BOLB   C2A37782   9.061  15.979  11.487 -0.0324  0.0266  0.0459
 1575BOLB   C3A37783   9.125  15.840  11.013  0.1716 -0.3431 -0.1542
 1575BOLB   C4A37784   8.975  16.019  10.773  0.2495 -0.0262 -0.1817
 1575BOLB   C1B37785   9.178  16.573  11.354 -0.0036 -0.0137  0.0011
 1575BOLB   C2B37786   9.129  16.365  11.148 -0.2959 -0.0354 -0.3039
 1575BOLB   C3B37787   9.384  16.539  10.872 -0.0788  0.1327 -0.0818
 1575BOLB   C4B37788   9.382  16.947  10.707  0.0539  0.2392  0.0007
 1575BOLB   NC237789   7.717  15.166   8.532 -0.0727 -0.0715 -0.0581
 1575BOLB   PO237790   7.994  15.399   8.391  0.0001 -0.0197  0.4045
 1575BOLB   GL337791   8.136  15.332   8.830 -0.1251 -0.2424 -0.0200
 1575BOLB   GL437792   7.978  15.685   8.830 -0.0040  0.4801  0.4788
 1575BOLB   C1C37793   8.447  15.428   9.189  0.2268  0.0554  0.0101
 1575BOLB   C2C37794   8.672  15.708   9.579  0.3169  0.1029  0.2011
 1575BOLB   C3C37795   8.645  15.726  10.030 -0.1467 -0.1723  0.1682
 1575BOLB   C4C37796   8.955  15.807  10.359  0.2430 -0.3333  0.0380
 1575BOLB   C1D37797   7.725  15.431   9.163 -0.1429  0.3046 -0.0257
 1575BOLB   C2D37798   7.582  15.254   9.455 -0.0951  0.1027  0.2438
 1575BOLB   C3D37799   7.760  15.128   9.844  0.2162 -0.1849 -0.1273
 1575BOLB   C4D37800   7.660  14.852  10.201 -0.0723  0.1450  0.3235
 1576BOLB   NC137801  15.601  16.139  11.391 -0.4205 -0.0264 -0.0399
 1576BOLB   PO137802  15.938  15.950  11.457  0.0505  0.1012  0.1779
 1576BOLB   GL137803  16.136  15.880  11.028  0.2418 -0.0839  0.1329
 1576BOLB   GL237804  16.434  15.592  11.025  0.0310  0.3144  0.1351
 1576BOLB   C1A37805  16.205  15.624  10.621  0.1605  0.0819 -0.1048
 1576BOLB   C2A37806  16.189  15.755  10.217  0.0311  0.1318 -0.2739
 1576BOLB   C3A37807  16.101  15.827   9.828  0.1774  0.0806  0.3451
 1576BOLB   C4A37808  16.021  15.623   9.495  0.1605 -0.1074  0.0938
 1576BOLB   C1B37809  16.537  15.241  10.700 -0.1536  0.0659  0.0282
 1576BOLB   C2B37810  16.374  15.259  10.310  0.1826 -0.0432  0.2922
 1576BOLB   C3B37811  16.307  15.354   9.862  0.2252  0.2221 -0.0691
 1576BOLB   C4B37812  16.459  15.177   9.527  0.2809 -0.1843 -0.3124
 1576BOLB   NC237813  16.224  16.018   7.416  0.4927 -0.0760 -0.1412
 1576BOLB   PO237814  16.284  15.672   7.353 -0.0836 -0.0552  0.2134
 1576BOLB   GL337815  16.502  15.689   7.655  0.0782  0.1580 -0.1610
 1576BOLB   GL437816  16.768  15.953   7.720  0.2244 -0.1450  0.2548
 1576BOLB   C1C37817  16.292  15.511   8.127 -0.4789 -0.2224 -0.3930
 1576BOLB   C2C37818  16.155  15.727   8.510 -0.1943 -0.1098  0.0121
 1576BOLB   C3C37819  16.256  15.914   8.899 -0.1872 -0.1331  0.1068
 1576BOLB   C4C37820  16.114  15.878   9.236  0.2477  0.1560  0.0335
 1576BOLB   C1D37821  16.613  15.913   8.140  0.1526  0.0637  0.0232
 1576BOLB   C2D37822  16.656  15.780   8.625 -0.0150  0.2114 -0.1706
 1576BOLB   C3D37823  16.711  15.406   8.966 -0.0168  0.0934  0.0628
 1576BOLB   C4D37824  16.929  15.076   9.022  0.0582  0.1917 -0.1144
 1577BOLB   NC137825  21.845  12.591  13.968 -0.0543  0.1368  0.3378
 1577BOLB   PO137826  22.268  12.675  13.879  0.1436 -0.0504 -0.1165
 1577BOLB   GL137827  22.364  12.544  13.410 -0.0389 -0.3411 -0.1836
 1577BOLB   GL237828  22.672  12.443  13.491 -0.0970 -0.0234  0.0774
 1577BOLB   C1A37829  22.389  12.654  13.061 -0.3457  0.1884  0.0678
 1577BOLB   C2A37830  22.369  12.573  12.644 -0.1495 -0.1902  0.3438
 1577BOLB   C3A37831  22.677  12.550  12.212 -0.0501 -0.2791  0.1939
 1577BOLB   C4A37832  22.956  12.389  11.877  0.1831  0.3072 -0.0600
 1577BOLB   C1B37833  22.952  12.189  13.249 -0.2230 -0.1857 -0.0953
 1577BOLB   C2B37834  23.155  12.031  12.894  0.2321  0.0195  0.0790
 1577BOLB   C3B37835  23.259  11.755  12.587  0.0894  0.2342  0.0775
 1577BOLB   C4B37836  23.386  11.618  12.237  0.1019 -0.1264  0.1854
 1577BOLB   NC237837  25.127  11.232  10.695 -0.0272  0.2768 -0.2279
 1577BOLB   PO237838  24.841  11.587  10.579 -0.1012 -0.4829 -0.0829
 1577BOLB   GL337839  24.583  11.795  10.835  0.1131  0.0501 -0.3229
 1577BOLB   GL437840  24.453  12.003  10.634 -0.0667 -0.0630 -0.2227
 1577BOLB   C1C37841  24.291  12.021  11.110  0.3066  0.0028 -0.1480
 1577BOLB   C2C37842  23.948  12.026  11.362 -0.0291  0.4767  0.2721
 1577BOLB   C3C37843  23.562  12.195  11.416  0.1643 -0.2326  0.2497
 1577BOLB   C4C37844  23.168  12.141  11.644 -0.2881 -0.0766 -0.1674
 1577BOLB   C1D37845  23.927  11.964  10.663  0.2302 -0.0272 -0.0546
 1577BOLB   C2D37846  23.606  11.944  10.890 -0.0270 -0.4104 -0.2390
 1577BOLB   C3D37847  23.301  11.823  11.221  0.1713 -0.0906  0.4572
 1577BOLB   C4D37848  22.909  11.730  11.378 -0.0644 -0.1480 -0.1810
 1578BOLB   NC137849   9.390  10.681  12.067 -0.2604  0.2301 -0.1766
 1578BOLB   PO137850   9.679  10.833  12.122  0.2614 -0.1262  0.1954
 1578BOLB   GL137851   9.620  10.729  11.637 -0.1714  0.1501 -0.1857
 1578BOLB   GL237852   9.222  10.645  11.567 -0.0070 -0.0189 -0.0080
 1578BOLB   C1A37853   9.559  10.782  11.187  0.0747 -0.0397 -0.1035
 1578BOLB   C2A37854   9.752  10.630  10.802  0.2235  0.1447  0.1239
 1578BOLB   C3A37855   9.775  10.692  10.357  0.2731  0.0631  0.0705
 1578BOLB   C4A37856   9.942  10.834  10.023 -0.0205 -0.3353 -0.2104
 1578BOLB   C1B37857   9.042  10.966  11.313 -0.0082  0.0476 -0.0515
 1578BOLB   C2B37858   8.890  11.036  10.889 -0.3630  0.3501  0.2655
 1578BOLB   C3B37859   8.970  10.987  10.397  0.0559  0.1528 -0.2286
 1578BOLB   C4B37860   9.009  10.734  10.002 -0.4821  0.0508  0.0014
 1578BOLB   NC237861  10.697  10.275   7.792 -0.1194 -0.2742 -0.0999
 1578BOLB   PO237862  10.399  10.044   7.779 -0.1790 -0.0379 -0.0455
 1578BOLB   GL337863  10.328  10.339   8.162 -0.0884  0.4060 -0.3102
 1578BOLB   GL437864  10.379  10.624   8.171 -0.1372 -0.2988  0.0350
 1578BOLB   C1C37865  10.095  10.209   8.509  0.0907 -0.0731  0.0882
 1578BOLB   C2C37866  10.183  10.219   8.840 -0.4034 -0.0411 -0.1074
 1578BOLB   C3C37867  10.026  10.396   9.251  0.1452 -0.2089 -0.2542
 1578BOLB   C4C37868   9.903  10.519   9.729  0.1376  0.0191 -0.2875
 1578BOLB   C1D37869  10.498  10.570   8.610  0.1073  0.1502 -0.2001
 1578BOLB   C2D37870  10.395  10.610   9.080  0.1774  0.2957 -0.1903
 1578BOLB   C3D37871  10.314  10.745   9.569  0.0750  0.0593  0.0731
 1578BOLB   C4D37872  10.484  10.704  10.022 -0.1808  0.0293 -0.1645
 1579BOLB   NC137873  15.771  15.296  11.582 -0.5259  0.3641 -0.1460
 1579BOLB   PO137874  15.785  14.871  11.563 -0.1223 -0.0420  0.2317
 1579BOLB   GL137875  15.771  14.839  11.124 -0.1125  0.0603  0.2200
 1579BOLB   GL237876  15.538  15.001  11.104 -0.1210  0.0136 -0.1958
 1579BOLB   C1A37877  15.888  14.474  10.836  0.0828  0.1429 -0.0159
 1579BOLB   C2A37878  15.854  14.397  10.353 -0.3843  0.0258 -0.1535
 1579BOLB   C3A37879  15.863  14.389   9.907  0.0879  0.1891  0.0248
 1579BOLB   C4A37880  16.047  14.270   9.565 -0.2638  0.1563 -0.0969
 1579BOLB   C1B37881  15.563  14.833  10.640 -0.1553  0.0765 -0.0311
 1579BOLB   C2B37882  15.584  14.873  10.130 -0.0423  0.0793 -0.1166
 1579BOLB   C3B37883  15.479  14.809   9.675  0.0376 -0.3401  0.1064
 1579BOLB   C4B37884  15.575  14.511   9.406 -0.1049  0.2322 -0.1527
 1579BOLB   NC237885  15.083  14.694   7.219 -0.1386 -0.0533 -0.0741
 1579BOLB   PO237886  15.564  14.413   7.350 -0.2305 -0.1398 -0.0340
 1579BOLB   GL337887  15.741  14.849   7.662 -0.0879  0.2399 -0.3784
 1579BOLB   GL437888  15.497  15.020   7.821  0.2946 -0.1027  0.0440
 1579BOLB   C1C37889  16.089  14.670   7.967 -0.1289 -0.1375 -0.0954
 1579BOLB   C2C37890  16.071  14.366   8.290 -0.1016  0.4471 -0.2171
 1579BOLB   C3C37891  16.297  14.195   8.655 -0.0668 -0.1231  0.2952
 1579BOLB   C4C37892  16.209  14.189   9.027 -0.0160  0.2821 -0.2482
 1579BOLB   C1D37893  15.609  14.554   7.992 -0.1958  0.0229 -0.6099
 1579BOLB   C2D37894  15.525  14.395   8.394  0.1828 -0.1664  0.3169
 1579BOLB   C3D37895  15.496  14.394   8.847  0.2637  0.1601 -0.1749
 1579BOLB   C4D37896  15.891  14.575   9.075 -0.0006  0.0635 -0.0303
 1580BOLB   NC137897  15.857  10.886  12.179  0.3710  0.1183 -0.0224
 1580BOLB   PO137898  16.049  11.175  12.260 -0.0880 -0.1180  0.0838
 1580BOLB   GL137899  16.266  10.960  11.948 -0.0406 -0.0597  0.0159
 1580BOLB   GL237900  16.184  11.091  11.726  0.0776 -0.1200  0.2108
 1580BOLB   C1A37901  16.524  10.854  11.550 -0.3187 -0.2314  0.1660
 1580BOLB   C2A37902  16.539  10.575  11.209  0.2556 -0.1011  0.0229
 1580BOLB   C3A37903  16.788  10.216  11.166 -0.1424  0.0148 -0.0473
 1580BOLB   C4A37904  16.704   9.716  10.901  0.0593  0.0963  0.0090
 1580BOLB   C1B37905  16.162  11.082  11.261 -0.2572  0.1089 -0.2646
 1580BOLB   C2B37906  16.363  11.022  10.960  0.0055 -0.1053 -0.0059
 1580BOLB   C3B37907  16.451  10.910  10.530  0.0201  0.2535  0.0095
 1580BOLB   C4B37908  16.852  10.869  10.239 -0.1575 -0.3408 -0.2453
 1580BOLB   NC237909  17.125   8.860   8.761  0.1343 -0.1643  0.0492
 1580BOLB   PO237910  17.316   9.368   8.697 -0.2545 -0.0751  0.1529
 1580BOLB   GL337911  17.123   9.344   9.040 -0.0949 -0.0341  0.1398
 1580BOLB   GL437912  17.136   9.771   9.047 -0.0459  0.1749 -0.2885
 1580BOLB   C1C37913  16.788   9.364   9.395 -0.0257 -0.1370 -0.2068
 1580BOLB   C2C37914  16.604   9.461   9.779  0.1757 -0.0685 -0.0054
 1580BOLB   C3C37915  16.539   9.722  10.115  0.1375  0.1196 -0.1350
 1580BOLB   C4C37916  16.500   9.655  10.566 -0.0509  0.4593  0.2636
 1580BOLB   C1D37917  17.285  10.168   9.135  0.2855  0.2076 -0.0760
 1580BOLB   C2D37918  17.200  10.555   9.228  0.0285  0.2333 -0.0352
 1580BOLB   C3D37919  17.247  10.922   9.385 -0.1976  0.0580 -0.0416
 1580BOLB   C4D37920  16.973  11.325   9.533 -0.0185  0.0543  0.0340
 1581BOLB   NC137921  18.138  17.055  11.826  0.3590  0.1161  0.1345
 1581BOLB   PO137922  17.791  16.971  11.550  0.1393 -0.0266 -0.1052
 1581BOLB   GL137923  17.737  17.371  11.199  0.1967  0.3278  0.0333
 1581BOLB   GL237924  17.978  17.188  10.923  0.0833 -0.2764 -0.2452
 1581BOLB   C1A37925  17.649  17.518  10.890 -0.1628  0.0447  0.0762
 1581BOLB   C2A37926  17.601  17.857  10.548 -0.1530 -0.1032 -0.0863
 1581BOLB   C3A37927  17.498  17.884  10.070  0.2390  0.0911  0.1865
 1581BOLB   C4A37928  17.534  17.749   9.677 -0.0686  0.3330  0.3048
 1581BOLB   C1B37929  17.658  17.200  10.532 -0.4163  0.0056  0.0996
 1581BOLB   C2B37930  17.797  17.533  10.207 -0.0128 -0.3079  0.2049
 1581BOLB   C3B37931  17.982  17.720   9.841  0.3698  0.1027  0.1686
 1581BOLB   C4B37932  18.181  17.822   9.488  0.1533 -0.1528 -0.0077
 1581BOLB   NC237933  16.568  17.082   7.155  0.2894 -0.0892  0.0788
 1581BOLB   PO237934  16.534  17.485   7.448  0.0191  0.0806  0.1527
 1581BOLB   GL337935  16.588  17.479   7.829  0.2362  0.2670  0.2194
 1581BOLB   GL437936  16.439  17.345   8.018 -0.0591 -0.0416 -0.1011
 1581BOLB   C1C37937  16.818  17.638   8.263  0.1148 -0.0213 -0.0801
 1581BOLB   C2C37938  17.137  17.547   8.636  0.2087 -0.0483 -0.0290
 1581BOLB   C3C37939  17.409  17.798   8.898  0.4666  0.1154  0.3475
 1581BOLB   C4C37940  17.602  17.810   9.303  0.0851 -0.1661  0.2405
 1581BOLB   C1D37941  16.275  17.521   8.370 -0.2051  0.3931 -0.1031
 1581BOLB   C2D37942  16.264  17.895   8.417  0.2767 -0.0337 -0.2300
 1581BOLB   C3D37943  16.269  18.413   8.571 -0.0339 -0.4576 -0.0975
 1581BOLB   C4D37944  16.520  18.545   8.806  0.1125 -0.0253  0.0575
 1582BOLB   NC137945  22.270  19.583  14.475 -0.2047 -0.0636  0.0918
 1582BOLB   PO137946  22.749  19.609  14.284 -0.1849 -0.0298 -0.1130
 1582BOLB   GL137947  22.948  19.694  13.943  0.1372  0.2860  0.0127
 1582BOLB   GL237948  22.712  19.876  13.777  0.0602  0.0249  0.1078
 1582BOLB   C1A37949  23.284  19.721  13.704 -0.0143  0.1022  0.0029
 1582BOLB   C2A37950  23.649  19.847  13.540  0.2667 -0.2628  0.4471
 1582BOLB   C3A37951  24.049  19.752  13.293 -0.0435  0.0349  0.0527
 1582BOLB   C4A37952  24.399  19.883  13.133 -0.1977 -0.0407  0.2018
 1582BOLB   C1B37953  22.955  20.016  13.456  0.2923  0.0811  0.0436
 1582BOLB   C2B37954  23.310  20.013  13.265 -0.3294 -0.1191 -0.0448
 1582BOLB   C3B37955  23.709  20.014  13.088 -0.1076  0.0202 -0.3024
 1582BOLB   C4B37956  23.927  20.253  12.656 -0.0776  0.0971 -0.0473
 1582BOLB   NC237957  26.070  21.704  11.940 -0.1590 -0.1501  0.1486
 1582BOLB   PO237958  25.873  21.233  12.057  0.0200 -0.0106 -0.0023
 1582BOLB   GL337959  25.617  21.154  12.379 -0.0433  0.0947 -0.1310
 1582BOLB   GL437960  25.583  20.821  12.580  0.3608  0.0787  0.0857
 1582BOLB   C1C37961  25.228  21.331  12.638 -0.0191  0.2355  0.1264
 1582BOLB   C2C37962  24.874  21.030  12.703 -0.0090 -0.1668  0.1085
 1582BOLB   C3C37963  24.537  20.693  12.860  0.0308 -0.1013 -0.0755
 1582BOLB   C4C37964  24.545  20.283  13.038  0.0257  0.1846 -0.0768
 1582BOLB   C1D37965  25.281  20.667  12.704  0.3655 -0.0690 -0.1700
 1582BOLB   C2D37966  25.145  20.618  13.002  0.1274 -0.0614 -0.0835
 1582BOLB   C3D37967  25.156  20.278  13.148 -0.1903 -0.1966 -0.1297
 1582BOLB   C4D37968  25.074  19.875  13.276 -0.0061  0.4594  0.2489
 1583BOLB   NC137969  20.095  15.223  11.888  0.2179  0.0897 -0.0156
 1583BOLB   PO137970  19.602  15.217  11.819 -0.1644 -0.0580  0.4569
 1583BOLB   GL137971  19.640  15.006  11.396  0.1082 -0.1487 -0.0158
 1583BOLB   GL237972  19.433  15.204  11.172 -0.1797  0.1521 -0.2538
 1583BOLB   C1A37973  19.912  14.885  11.014 -0.0371 -0.0262 -0.1318
 1583BOLB   C2A37974  19.828  14.796  10.582 -0.0409 -0.2176 -0.1424
 1583BOLB   C3A37975  19.837  14.761  10.184 -0.3285  0.0126  0.0530
 1583BOLB   C4A37976  19.916  14.833   9.693  0.1600  0.1923 -0.1371
 1583BOLB   C1B37977  19.454  15.263  10.728  0.2128 -0.2969  0.0521
 1583BOLB   C2B37978  19.504  15.216  10.229  0.2733 -0.0338  0.3390
 1583BOLB   C3B37979  19.446  14.898   9.850  0.1078  0.1401 -0.0376
 1583BOLB   C4B37980  19.433  14.700   9.387 -0.3327 -0.1503  0.0690
 1583BOLB   NC237981  20.934  16.002   7.764 -0.2283 -0.1816 -0.2308
 1583BOLB   PO237982  20.948  16.079   8.140  0.0961 -0.0824 -0.0484
 1583BOLB   GL337983  21.177  15.813   8.467 -0.0139 -0.0972 -0.1930
 1583BOLB   GL437984  21.354  16.131   8.729 -0.0736 -0.3510  0.2379
 1583BOLB   C1C37985  20.881  15.664   8.775  0.3093  0.1273  0.0343
 1583BOLB   C2C37986  20.596  15.614   9.153 -0.1044 -0.2204 -0.2893
 1583BOLB   C3C37987  20.265  15.470   9.370 -0.1722  0.0389 -0.2733
 1583BOLB   C4C37988  20.107  15.063   9.396 -0.1666 -0.1562 -0.0759
 1583BOLB   C1D37989  21.317  15.910   9.169 -0.0998 -0.2437 -0.0239
 1583BOLB   C2D37990  21.425  15.659   9.430 -0.2148 -0.0101 -0.2738
 1583BOLB   C3D37991  21.383  15.229   9.457  0.1628  0.0833 -0.0492
 1583BOLB   C4D37992  21.257  14.796   9.509 -0.1934  0.2045  0.3074
 1584BOLB   NC137993  19.720  14.217  11.793  0.1486  0.1328 -0.1670
 1584BOLB   PO137994  20.088  14.320  12.001 -0.0908  0.1281 -0.1993
 1584BOLB   GL137995  20.434  14.199  11.713 -0.0752  0.0427  0.1626
 1584BOLB   GL237996  20.829  14.212  11.848 -0.1046  0.0265 -0.1359
 1584BOLB   C1A37997  20.544  14.495  11.407 -0.4916 -0.1487  0.0106
 1584BOLB   C2A37998  20.571  14.644  10.923 -0.1132  0.1045  0.3174
 1584BOLB   C3A37999  20.669  14.759  10.501  0.0552  0.3922 -0.2226
 1584BOLB   C4A38000  20.775  14.637  10.068  0.3351 -0.1340  0.2029
 1584BOLB   C1B38001  20.957  14.154  11.351  0.0091  0.1989 -0.0945
 1584BOLB   C2B38002  21.166  13.985  10.966 -0.1038 -0.0450  0.3961
 1584BOLB   C3B38003  21.350  13.948  10.578 -0.2451 -0.0869 -0.1495
 1584BOLB   C4B38004  21.325  14.074  10.170 -0.0863 -0.0158  0.2757
 1584BOLB   NC238005  22.607  13.635   8.655 -0.0422  0.1663 -0.0662
 1584BOLB   PO238006  22.323  13.831   8.390 -0.0404 -0.2043 -0.0226
 1584BOLB   GL338007  22.025  14.127   8.723  0.0035 -0.2069  0.1890
 1584BOLB   GL438008  22.113  14.348   8.873 -0.1546 -0.1620  0.3850
 1584BOLB   C1C38009  21.875  14.071   9.184 -0.1715 -0.1203  0.2005
 1584BOLB   C2C38010  21.611  14.337   9.392 -0.0249 -0.0253  0.4109
 1584BOLB   C3C38011  21.513  14.394   9.763 -0.3059 -0.0892 -0.2209
 1584BOLB   C4C38012  21.098  14.452   9.885 -0.0988 -0.1313 -0.2349
 1584BOLB   C1D38013  22.094  14.592   9.275 -0.0590 -0.0569  0.1690
 1584BOLB   C2D38014  21.834  14.842   9.602 -0.0403  0.0525 -0.0078
 1584BOLB   C3D38015  21.625  14.830   9.973  0.0419 -0.0953 -0.0132
 1584BOLB   C4D38016  21.227  15.053   9.913  0.2918  0.2370  0.0249
 1585BOLB   NC138017  16.378  13.340  11.573  0.1489 -0.0840 -0.2109
 1585BOLB   PO138018  16.702  13.078  11.511 -0.0064  0.1897  0.4417
 1585BOLB   GL138019  16.815  12.895  11.146 -0.2997  0.3887  0.1846
 1585BOLB   GL238020  17.055  13.060  10.983 -0.1360  0.4093 -0.2343
 1585BOLB   C1A38021  16.719  12.762  10.665  0.0617  0.0537 -0.0215
 1585BOLB   C2A38022  16.592  12.588  10.314  0.0327 -0.2521  0.2712
 1585BOLB   C3A38023  16.792  12.230  10.101 -0.0717  0.1882 -0.1443
 1585BOLB   C4A38024  16.955  12.113   9.761  0.0989 -0.1761  0.0667
 1585BOLB   C1B38025  17.294  12.880  10.688  0.2377 -0.3384  0.2083
 1585BOLB   C2B38026  17.567  12.984  10.296 -0.2034  0.0449  0.0050
 1585BOLB   C3B38027  17.649  12.860   9.938  0.1505 -0.1747  0.3386
 1585BOLB   C4B38028  17.819  12.513   9.937  0.1144 -0.1097  0.0836
 1585BOLB   NC238029  18.301  11.143   7.525  0.0261  0.0285  0.0518
 1585BOLB   PO238030  18.037  11.335   7.886 -0.3099 -0.2402 -0.0463
 1585BOLB   GL338031  17.945  11.629   8.221  0.0227 -0.3243 -0.0515
 1585BOLB   GL438032  17.669  11.456   8.444  0.0167  0.0486 -0.1183
 1585BOLB   C1C38033  18.010  11.647   8.722  0.2773  0.0406 -0.0905
 1585BOLB   C2C38034  17.892  11.717   9.059  0.0295  0.1719  0.0047
 1585BOLB   C3C38035  17.671  11.786   9.392  0.2363 -0.0608  0.3006
 1585BOLB   C4C38036  17.199  11.842   9.462 -0.3112 -0.1178  0.3196
 1585BOLB   C1D38037  17.496  11.729   8.754  0.0943 -0.1441 -0.0942
 1585BOLB   C2D38038  17.804  12.137   8.861 -0.0644  0.0298 -0.0369
 1585BOLB   C3D38039  17.958  12.376   9.218  0.2819 -0.3055  0.1291
 1585BOLB   C4D38040  17.961  12.754   9.371 -0.1606 -0.0750  0.1821
 1586BOLB   NC138041  22.583  17.812  13.230  0.1401 -0.1856 -0.2371
 1586BOLB   PO138042  22.555  17.483  13.025 -0.1090  0.0848 -0.0308
 1586BOLB   GL138043  22.616  17.281  12.610 -0.0416 -0.1255 -0.0565
 1586BOLB   GL238044  23.015  17.280  12.578 -0.1731 -0.1246  0.3276
 1586BOLB   C1A38045  22.803  17.203  12.085 -0.0474 -0.2225  0.1008
 1586BOLB   C2A38046  23.150  17.221  11.842 -0.2595  0.0017  0.1561
 1586BOLB   C3A38047  23.406  16.896  11.671  0.2466 -0.1504  0.0454
 1586BOLB   C4A38048  23.475  16.646  11.450  0.0211  0.0600  0.0785
 1586BOLB   C1B38049  23.389  17.061  12.279 -0.1854 -0.1191 -0.3104
 1586BOLB   C2B38050  23.720  17.121  11.988 -0.1262  0.0914 -0.1306
 1586BOLB   C3B38051  23.800  17.294  11.621  0.0210  0.0843  0.0454
 1586BOLB   C4B38052  23.712  17.599  11.325  0.0586 -0.1841 -0.0230
 1586BOLB   NC238053  25.227  17.908  10.800  0.0858  0.1617 -0.0196
 1586BOLB   PO238054  25.028  17.773  10.453 -0.0207 -0.1010 -0.1429
 1586BOLB   GL338055  24.928  17.510  10.888 -0.0197 -0.3009 -0.1289
 1586BOLB   GL438056  25.007  17.664  11.199  0.1417 -0.1256 -0.1776
 1586BOLB   C1C38057  24.617  17.226  11.010  0.0207  0.0135 -0.2860
 1586BOLB   C2C38058  24.246  16.927  11.191 -0.0564 -0.0810 -0.0024
 1586BOLB   C3C38059  24.016  16.518  11.092 -0.1217 -0.2574  0.0999
 1586BOLB   C4C38060  23.653  16.376  11.168 -0.0974  0.0780  0.1547
 1586BOLB   C1D38061  24.693  17.541  11.415  0.0350  0.3653 -0.2719
 1586BOLB   C2D38062  24.530  17.215  11.637 -0.2857 -0.0811  0.0392
 1586BOLB   C3D38063  24.241  16.938  11.714  0.1039  0.1274  0.1092
 1586BOLB   C4D38064  24.035  16.460  11.550  0.1970  0.0163 -0.1498
 1587BOLB   NC138065  13.914  17.211  11.282  0.0547  0.1436  0.2649
 1587BOLB   PO138066  14.186  17.504  11.150 -0.1503  0.0864  0.0767
 1587BOLB   GL138067  14.152  17.302  10.848 -0.0700 -0.0745  0.0442
 1587BOLB   GL238068  14.140  16.963  10.875  0.1239 -0.0844  0.2178
 1587BOLB   C1A38069  14.247  17.329  10.410  0.1876 -0.2166  0.1867
 1587BOLB   C2A38070  14.404  17.270  10.119  0.0523 -0.1269 -0.0302
 1587BOLB   C3A38071  14.387  17.475   9.701  0.0189 -0.1026  0.1252
 1587BOLB   C4A38072  14.454  17.598   9.153 -0.0528  0.0973  0.2171
 1587BOLB   C1B38073  14.358  16.749  10.514  0.0263  0.0819 -0.0254
 1587BOLB   C2B38074  14.588  16.676  10.137  0.0769  0.0141  0.0295
 1587BOLB   C3B38075  14.766  16.912   9.783  0.2443 -0.0408  0.2988
 1587BOLB   C4B38076  14.741  17.171   9.450  0.0577  0.1634  0.2206
 1587BOLB   NC238077  14.724  18.057   6.216 -0.0862 -0.0389  0.2564
 1587BOLB   PO238078  14.646  18.154   6.708  0.2292  0.1474  0.0943
 1587BOLB   GL338079  14.559  18.241   7.177 -0.1425  0.0077  0.1024
 1587BOLB   GL438080  14.598  17.870   7.262  0.0766 -0.0691  0.1095
 1587BOLB   C1C38081  14.491  18.226   7.652 -0.1825  0.0609  0.0801
 1587BOLB   C2C38082  14.575  18.123   8.096  0.0519 -0.1123  0.0996
 1587BOLB   C3C38083  14.462  18.095   8.536 -0.1047 -0.3311 -0.0088
 1587BOLB   C4C38084  14.692  17.909   8.953 -0.0696 -0.2377  0.3539
 1587BOLB   C1D38085  14.215  17.858   7.412  0.1360  0.2955 -0.0661
 1587BOLB   C2D38086  14.125  17.901   7.856  0.0397  0.1194  0.1793
 1587BOLB   C3D38087  13.688  18.089   7.990  0.1395 -0.1361 -0.3133
 1587BOLB   C4D38088  13.485  18.526   7.969 -0.0958  0.0185  0.1507
 1588BOLB   NC138089  19.030  11.622  12.553 -0.1572 -0.1940  0.0843
 1588BOLB   PO138090  19.390  11.512  12.799 -0.2377 -0.2965 -0.0979
 1588BOLB   GL138091  19.342  11.273  12.371 -0.3314 -0.0716 -0.2876
 1588BOLB   GL238092  19.668  11.274  12.267  0.0591 -0.0538  0.1631
 1588BOLB   C1A38093  19.271  11.220  11.894 -0.0277  0.0010  0.1459
 1588BOLB   C2A38094  19.391  10.987  11.437 -0.1092  0.4206 -0.1526
 1588BOLB   C3A38095  19.583  10.824  11.226  0.1308  0.0193  0.1938
 1588BOLB   C4A38096  19.764  10.461  11.085 -0.3899  0.3133  0.0681
 1588BOLB   C1B38097  19.836  11.193  11.787 -0.0687 -0.2212  0.3259
 1588BOLB   C2B38098  20.009  11.054  11.291 -0.1172  0.0910  0.1833
 1588BOLB   C3B38099  20.036  10.846  10.913  0.0703 -0.0511 -0.1287
 1588BOLB   C4B38100  19.779  10.707  10.600 -0.1304 -0.2119  0.1378
 1588BOLB   NC238101  21.751   9.797  10.058 -0.0055 -0.0450 -0.0583
 1588BOLB   PO238102  21.410   9.962   9.967  0.0264  0.0076 -0.2960
 1588BOLB   GL338103  21.033  10.051   9.832  0.2041  0.1705  0.2292
 1588BOLB   GL438104  20.950   9.742   9.708  0.1247 -0.0314 -0.1236
 1588BOLB   C1C38105  20.709  10.158  10.072  0.4048 -0.0623 -0.2628
 1588BOLB   C2C38106  20.398   9.997  10.325  0.1239  0.1496 -0.2496
 1588BOLB   C3C38107  19.990  10.008  10.484 -0.3791 -0.1817 -0.1330
 1588BOLB   C4C38108  19.777  10.182  10.728 -0.1427  0.1030 -0.3012
 1588BOLB   C1D38109  20.601   9.675   9.979 -0.5030  0.3189 -0.1034
 1588BOLB   C2D38110  20.079   9.732  10.010  0.1904  0.0144  0.0588
 1588BOLB   C3D38111  19.698   9.805  10.172 -0.0239  0.0295 -0.3174
 1588BOLB   C4D38112  19.350  10.040  10.328  0.0498  0.4307 -0.2049
 1589BOLB   NC138113  13.582  14.446  11.181 -0.1355  0.1742  0.2281
 1589BOLB   PO138114  13.096  14.680  11.245 -0.2725  0.0289 -0.1873
 1589BOLB   GL138115  13.216  14.617  10.882  0.1991 -0.2175 -0.1831
 1589BOLB   GL238116  12.856  14.652  10.681 -0.0701  0.0709 -0.0776
 1589BOLB   C1A38117  13.355  14.807  10.431  0.2222  0.0578  0.2328
 1589BOLB   C2A38118  13.607  14.884  10.104  0.3441 -0.0335  0.4576
 1589BOLB   C3A38119  13.627  14.902   9.630  0.0300  0.0399 -0.0494
 1589BOLB   C4A38120  13.564  15.100   9.237 -0.2664  0.0386  0.3566
 1589BOLB   C1B38121  12.877  14.659  10.291 -0.0693 -0.0509  0.1024
 1589BOLB   C2B38122  12.756  14.445   9.944 -0.0441  0.2717 -0.0270
 1589BOLB   C3B38123  12.888  14.128   9.820 -0.1096  0.2137 -0.1197
 1589BOLB   C4B38124  12.913  13.770   9.865  0.1228  0.1110 -0.1371
 1589BOLB   NC238125  13.406  13.409   7.404  0.0768  0.0235  0.1171
 1589BOLB   PO238126  13.343  13.932   7.352  0.4118  0.2204  0.0887
 1589BOLB   GL338127  13.361  13.776   7.731 -0.0668 -0.3468  0.0397
 1589BOLB   GL438128  13.101  13.954   7.906  0.1108 -0.1426 -0.1526
 1589BOLB   C1C38129  13.528  13.851   8.106  0.0551 -0.2029 -0.2103
 1589BOLB   C2C38130  13.667  13.978   8.517  0.0983 -0.1181 -0.1130
 1589BOLB   C3C38131  13.614  14.303   8.728  0.0388  0.1280  0.0642
 1589BOLB   C4C38132  13.682  14.821   8.790 -0.2860 -0.1594 -0.2214
 1589BOLB   C1D38133  13.129  14.163   8.282  0.1746 -0.1315 -0.2171
 1589BOLB   C2D38134  13.108  14.006   8.669 -0.2477 -0.0623 -0.2833
 1589BOLB   C3D38135  13.177  14.176   9.065 -0.2180 -0.1279  0.0993
 1589BOLB   C4D38136  12.906  14.300   9.410  0.1059 -0.0834 -0.1172
 1590BOLB   NC138137  18.760  13.322  12.278 -0.0027 -0.0674  0.1499
 1590BOLB   PO138138  19.128  13.075  12.341  0.1189  0.2043 -0.0120
 1590BOLB   GL138139  19.312  13.034  11.923  0.1373  0.2204  0.2211
 1590BOLB   GL238140  19.095  13.200  11.655 -0.1006 -0.0463  0.1864
 1590BOLB   C1A38141  19.566  13.025  11.560 -0.0176 -0.2133  0.0364
 1590BOLB   C2A38142  19.688  12.917  11.113 -0.2218 -0.2007  0.0364
 1590BOLB   C3A38143  19.924  12.899  10.695 -0.2363 -0.0736 -0.0784
 1590BOLB   C4A38144  20.016  12.616  10.311 -0.2364 -0.0855 -0.3513
 1590BOLB   C1B38145  19.167  12.936  11.265 -0.2183  0.0721  0.2829
 1590BOLB   C2B38146  19.228  12.787  10.844 -0.1583 -0.4321 -0.0912
 1590BOLB   C3B38147  19.542  12.566  10.515 -0.0876  0.1521  0.2746
 1590BOLB   C4B38148  19.601  12.242  10.265  0.0190 -0.2474  0.3374
 1590BOLB   NC238149  21.546  13.645   7.951 -0.3163  0.0095  0.1299
 1590BOLB   PO238150  21.260  13.343   8.216 -0.0529 -0.1298 -0.0549
 1590BOLB   GL338151  20.954  13.059   8.497  0.2009 -0.1017 -0.0232
 1590BOLB   GL438152  21.182  12.849   8.621  0.0240  0.3368  0.1499
 1590BOLB   C1C38153  20.642  13.118   8.797 -0.2574 -0.1638 -0.0769
 1590BOLB   C2C38154  20.548  12.833   9.122 -0.0188 -0.1596 -0.2212
 1590BOLB   C3C38155  20.385  12.892   9.466 -0.1272  0.2251  0.1397
 1590BOLB   C4C38156  20.237  12.868   9.888  0.2157 -0.0042 -0.0733
 1590BOLB   C1D38157  21.053  13.062   9.047 -0.0958  0.2247  0.1865
 1590BOLB   C2D38158  20.731  13.289   9.401  0.0371 -0.0127 -0.0610
 1590BOLB   C3D38159  20.818  13.732   9.516  0.0829 -0.0762 -0.1569
 1590BOLB   C4D38160  21.026  13.943   9.803  0.4191 -0.0652  0.0201
 1591BOLB   NC138161  18.485  10.873  12.457 -0.2798  0.3615  0.0194
 1591BOLB   PO138162  18.040  10.572  12.499  0.1227 -0.0192 -0.4856
 1591BOLB   GL138163  18.060  10.321  12.042  0.1204  0.2848 -0.0191
 1591BOLB   GL238164  18.079   9.996  12.183 -0.0850  0.0279 -0.2748
 1591BOLB   C1A38165  18.047  10.036  11.692 -0.0975  0.0846 -0.1990
 1591BOLB   C2A38166  18.006   9.991  11.235 -0.1396  0.1766 -0.1245
 1591BOLB   C3A38167  17.888   9.854  10.799 -0.1353 -0.1868  0.2965
 1591BOLB   C4A38168  17.665   9.817  10.479 -0.3243 -0.1053  0.1322
 1591BOLB   C1B38169  18.463   9.984  11.986  0.3744  0.1984 -0.0050
 1591BOLB   C2B38170  18.505   9.767  11.494 -0.0415 -0.1243 -0.2833
 1591BOLB   C3B38171  18.592   9.875  11.062  0.1203  0.0522 -0.0992
 1591BOLB   C4B38172  18.351  10.006  10.680  0.5044  0.2610  0.1561
 1591BOLB   NC238173  18.146  10.209   8.110  0.0428  0.0214 -0.0333
 1591BOLB   PO238174  18.049   9.744   8.207 -0.0575 -0.2970 -0.0206
 1591BOLB   GL338175  18.232   9.558   8.621 -0.0897 -0.0099  0.0972
 1591BOLB   GL438176  18.440   9.719   8.887  0.1152 -0.2223  0.0251
 1591BOLB   C1C38177  18.164   9.396   9.010 -0.1398  0.1931  0.1332
 1591BOLB   C2C38178  18.046   9.405   9.349  0.0804  0.1044 -0.1378
 1591BOLB   C3C38179  17.847   9.561   9.683 -0.1242 -0.1997  0.0463
 1591BOLB   C4C38180  17.550   9.647  10.019  0.0524 -0.2687  0.3059
 1591BOLB   C1D38181  18.468   9.647   9.365  0.0304  0.2956 -0.3589
 1591BOLB   C2D38182  18.357   9.371   9.751 -0.2655 -0.2878 -0.0987
 1591BOLB   C3D38183  18.112   9.199  10.010  0.1091  0.2475  0.2666
 1591BOLB   C4D38184  17.898   9.220  10.395 -0.3042  0.1392 -0.2000
 1592BOLB   NC138185  12.058  15.629  11.354 -0.1287  0.0713  0.0698
 1592BOLB   PO138186  11.814  15.905  11.545 -0.1131 -0.2918 -0.1041
 1592BOLB   GL138187  11.620  15.716  11.146 -0.1875 -0.0835  0.0168
 1592BOLB   GL238188  11.361  15.858  10.990 -0.0547 -0.0765  0.4525
 1592BOLB   C1A38189  11.674  15.507  10.750  0.1230 -0.2578 -0.0480
 1592BOLB   C2A38190  11.512  15.276  10.393  0.1228  0.0659 -0.1558
 1592BOLB   C3A38191  11.556  15.202   9.984 -0.0507 -0.1818 -0.1053
 1592BOLB   C4A38192  11.253  15.143   9.630 -0.0303 -0.0930  0.0816
 1592BOLB   C1B38193  11.283  16.018  10.576  0.2143  0.0225 -0.1913
 1592BOLB   C2B38194  11.077  16.035  10.179 -0.0662 -0.3781 -0.1028
 1592BOLB   C3B38195  10.950  15.983   9.742 -0.0213  0.1061  0.3318
 1592BOLB   C4B38196  10.727  15.698   9.495 -0.2908  0.2895 -0.0630
 1592BOLB   NC238197   9.841  15.504   7.439 -0.0035  0.0534 -0.6836
 1592BOLB   PO238198   9.756  15.442   7.915 -0.2616 -0.3670 -0.0402
 1592BOLB   GL338199   9.699  15.485   8.297 -0.2011 -0.1018  0.0439
 1592BOLB   GL438200   9.668  15.688   8.519  0.1903 -0.3744 -0.0130
 1592BOLB   C1C38201  10.022  15.324   8.668 -0.2317  0.2143  0.2095
 1592BOLB   C2C38202  10.404  15.281   8.793 -0.1305  0.0016  0.0398
 1592BOLB   C3C38203  10.929  15.297   8.966 -0.0421  0.1424  0.0325
 1592BOLB   C4C38204  10.998  15.317   9.318 -0.1832  0.1745  0.0208
 1592BOLB   C1D38205   9.981  15.776   8.821 -0.2067 -0.0911 -0.2513
 1592BOLB   C2D38206  10.235  15.713   9.165 -0.1538  0.1914 -0.3032
 1592BOLB   C3D38207  10.130  15.627   9.610 -0.1804  0.1250  0.0189
 1592BOLB   C4D38208  10.501  15.598   9.990 -0.2387  0.1078 -0.3813
 1593BOLB   NC138209  19.342  21.625  12.545  0.0430  0.0894  0.3383
 1593BOLB   PO138210  19.118  21.446  12.179 -0.3105  0.2495 -0.0950
 1593BOLB   GL138211  19.461  21.597  11.826  0.0354  0.2375 -0.1074
 1593BOLB   GL238212  19.558  21.754  12.086  0.1632 -0.0119  0.0309
 1593BOLB   C1A38213  19.650  21.497  11.450 -0.3104 -0.0664 -0.0390
 1593BOLB   C2A38214  19.799  21.449  10.977 -0.0245 -0.3008 -0.3444
 1593BOLB   C3A38215  19.866  21.354  10.599 -0.0146 -0.1181 -0.2663
 1593BOLB   C4A38216  19.719  21.124  10.179  0.0424  0.0075 -0.1551
 1593BOLB   C1B38217  19.873  21.809  11.757  0.1680  0.3762  0.2605
 1593BOLB   C2B38218  20.130  22.016  11.441  0.0129  0.0836 -0.0694
 1593BOLB   C3B38219  20.406  22.087  11.147 -0.2274 -0.1860  0.0017
 1593BOLB   C4B38220  20.860  22.165  11.123  0.1347  0.2950 -0.0423
 1593BOLB   NC238221  20.853  21.248   7.724  0.1811  0.1828 -0.3635
 1593BOLB   PO238222  20.451  20.988   7.695  0.2581  0.1368 -0.2519
 1593BOLB   GL338223  20.142  20.892   8.081 -0.0980 -0.0833  0.0085
 1593BOLB   GL438224  20.252  20.628   8.302 -0.0004 -0.2368 -0.0539
 1593BOLB   C1C38225  19.881  20.899   8.511 -0.1912  0.0718  0.6264
 1593BOLB   C2C38226  19.772  20.823   8.910 -0.3178 -0.2882  0.5032
 1593BOLB   C3C38227  19.619  20.736   9.384 -0.1594 -0.1099 -0.0291
 1593BOLB   C4C38228  19.708  20.826   9.829 -0.1933 -0.0058  0.3073
 1593BOLB   C1D38229  20.301  20.362   8.587 -0.0148  0.0174 -0.1108
 1593BOLB   C2D38230  20.109  20.399   8.915 -0.1282 -0.1408  0.1146
 1593BOLB   C3D38231  19.926  20.346   9.321  0.1630  0.2308 -0.1664
 1593BOLB   C4D38232  19.996  20.355   9.746  0.0981 -0.0547  0.0823
 1594BOLB   NC138233  16.220  24.278  12.151  0.1088  0.1407  0.0827
 1594BOLB   PO138234  16.351  23.955  12.148 -0.3323 -0.1208  0.3512
 1594BOLB   GL138235  16.539  24.064  11.722  0.1056  0.1299 -0.0051
 1594BOLB   GL238236  16.732  23.717  11.708  0.1150 -0.0150 -0.1794
 1594BOLB   C1A38237  16.417  24.254  11.326  0.2077 -0.1537  0.1392
 1594BOLB   C2A38238  16.341  24.383  10.866  0.2402 -0.3754  0.2604
 1594BOLB   C3A38239  16.226  24.547  10.493 -0.0222  0.0965 -0.1987
 1594BOLB   C4A38240  16.153  24.524  10.073  0.2548 -0.2014  0.0519
 1594BOLB   C1B38241  16.831  23.856  11.316 -0.0489  0.1570  0.0160
 1594BOLB   C2B38242  16.878  24.184  11.106  0.0453  0.1329 -0.1058
 1594BOLB   C3B38243  16.943  24.625  10.963 -0.1910 -0.2502 -0.0372
 1594BOLB   C4B38244  17.227  24.740  10.620  0.3893 -0.0623  0.0735
 1594BOLB   NC238245  13.820  25.308   8.699  0.2048  0.2544  0.0471
 1594BOLB   PO238246  14.066  25.397   9.004  0.1735 -0.0191 -0.1223
 1594BOLB   GL338247  14.406  25.428   9.343  0.1000 -0.1477 -0.0047
 1594BOLB   GL438248  14.356  25.470   9.697 -0.2345  0.1947  0.1563
 1594BOLB   C1C38249  14.745  25.137   9.398 -0.2235 -0.2832 -0.0825
 1594BOLB   C2C38250  15.200  24.968   9.400 -0.0669  0.1215 -0.0519
 1594BOLB   C3C38251  15.549  24.662   9.519  0.2976  0.1426 -0.0669
 1594BOLB   C4C38252  15.797  24.505   9.866 -0.3659  0.1567  0.0013
 1594BOLB   C1D38253  14.248  25.477  10.112  0.3142 -0.1583  0.1659
 1594BOLB   C2D38254  14.101  25.503  10.598 -0.0024 -0.0469  0.0126
 1594BOLB   C3D38255  13.998  25.740  10.956  0.0563 -0.2663 -0.1683
 1594BOLB   C4D38256  14.006  25.932  11.358  0.0772 -0.0483  0.0766
 1595BOLB   NC138257  21.311  22.592  15.452  0.3876  0.1644  0.0243
 1595BOLB   PO138258  21.354  23.054  15.305 -0.1151 -0.1120  0.0818
 1595BOLB   GL138259  21.648  23.368  15.403  0.0784  0.0338  0.1275
 1595BOLB   GL238260  21.480  23.644  15.375 -0.0616 -0.0227 -0.1072
 1595BOLB   C1A38261  21.972  23.767  15.363 -0.0512  0.2555  0.2335
 1595BOLB   C2A38262  22.412  23.693  15.209  0.1673  0.0205  0.0673
 1595BOLB   C3A38263  22.978  23.679  15.104  0.0575  0.0661 -0.0957
 1595BOLB   C4A38264  23.396  23.643  15.019  0.0496 -0.0168 -0.3892
 1595BOLB   C1B38265  21.653  23.627  14.960  0.1372  0.1893  0.0096
 1595BOLB   C2B38266  22.143  23.584  14.743 -0.2993 -0.1296  0.1567
 1595BOLB   C3B38267  22.624  23.526  14.588 -0.3808  0.2921  0.1244
 1595BOLB   C4B38268  22.943  23.341  14.372 -0.2861  0.0204 -0.1851
 1595BOLB   NC238269  25.551  24.352  13.595 -0.3284  0.3181  0.0241
 1595BOLB   PO238270  25.457  24.319  14.025  0.1811 -0.0440  0.0166
 1595BOLB   GL338271  25.000  24.250  14.148  0.0691  0.1694  0.0321
 1595BOLB   GL438272  24.828  23.937  13.957 -0.1947  0.0760  0.4592
 1595BOLB   C1C38273  24.591  24.242  14.362  0.1123 -0.2012 -0.0992
 1595BOLB   C2C38274  24.318  24.062  14.600 -0.3305 -0.0723  0.0932
 1595BOLB   C3C38275  24.056  23.654  14.641 -0.0813  0.3036  0.0228
 1595BOLB   C4C38276  23.735  23.538  14.848  0.1863 -0.2620  0.0252
 1595BOLB   C1D38277  24.393  23.823  13.936  0.1387  0.1433  0.1284
 1595BOLB   C2D38278  24.132  23.650  14.132 -0.3398  0.2168 -0.3850
 1595BOLB   C3D38279  24.017  23.201  13.942 -0.1536 -0.0289  0.1660
 1595BOLB   C4D38280  24.192  22.808  13.756 -0.2186  0.2811 -0.1114
 1596BOLB   NC138281  16.155  24.127  12.914 -0.1945 -0.0056 -0.1476
 1596BOLB   PO138282  15.939  24.232  12.532  0.0541  0.0073 -0.1775
 1596BOLB   GL138283  15.810  24.597  12.156  0.2497 -0.1259 -0.2046
 1596BOLB   GL238284  16.049  24.695  11.920 -0.3571 -0.2643 -0.2992
 1596BOLB   C1A38285  15.546  24.761  11.834  0.1934  0.1116 -0.2082
 1596BOLB   C2A38286  15.228  24.733  11.579  0.0526  0.0234  0.1566
 1596BOLB   C3A38287  14.842  24.851  11.438 -0.1503 -0.0061 -0.0504
 1596BOLB   C4A38288  14.584  24.783  11.024  0.0073  0.0956 -0.0611
 1596BOLB   C1B38289  15.997  24.551  11.497 -0.1993  0.5902  0.1600
 1596BOLB   C2B38290  15.957  24.634  11.042 -0.3158  0.1799 -0.0805
 1596BOLB   C3B38291  15.805  24.714  10.654 -0.0795  0.0470  0.1004
 1596BOLB   C4B38292  15.837  24.899  10.313 -0.0473 -0.0692  0.0962
 1596BOLB   NC238293  14.525  24.898   8.463  0.3334 -0.0687  0.0914
 1596BOLB   PO238294  14.579  24.442   8.757  0.0981  0.0044  0.0254
 1596BOLB   GL338295  14.571  24.540   9.207  0.1025 -0.1508  0.3050
 1596BOLB   GL438296  14.249  24.361   9.319 -0.5065  0.3751  0.1567
 1596BOLB   C1C38297  14.290  24.863   9.404 -0.0598 -0.1826 -0.3823
 1596BOLB   C2C38298  14.513  25.045   9.822  0.0808 -0.3141  0.1639
 1596BOLB   C3C38299  14.509  25.013  10.268  0.0577 -0.0984 -0.3534
 1596BOLB   C4C38300  14.741  24.782  10.608  0.1005 -0.2001 -0.1493
 1596BOLB   C1D38301  14.200  23.851   9.401  0.2434  0.0653  0.2278
 1596BOLB   C2D38302  14.359  23.337   9.331 -0.1842  0.3202  0.4974
 1596BOLB   C3D38303  14.101  22.922   9.451 -0.2411  0.3852 -0.0627
 1596BOLB   C4D38304  13.842  22.658   9.783  0.2235 -0.2848 -0.0068
 1597BOLB   NC138305  20.716  12.902  13.070  0.0251 -0.1932 -0.1578
 1597BOLB   PO138306  20.910  12.543  12.910  0.0122  0.0904  0.0445
 1597BOLB   GL138307  20.842  12.639  12.501  0.2697  0.1268 -0.3453
 1597BOLB   GL238308  21.171  12.961  12.385 -0.0757  0.0395 -0.1010
 1597BOLB   C1A38309  20.844  12.525  12.088 -0.1436  0.0611 -0.1057
 1597BOLB   C2A38310  20.978  12.425  11.717  0.1971 -0.3990  0.1210
 1597BOLB   C3A38311  21.116  12.330  11.225 -0.1217 -0.1188 -0.2644
 1597BOLB   C4A38312  21.050  12.134  10.839 -0.1723  0.0136  0.0062
 1597BOLB   C1B38313  21.253  13.021  11.943 -0.3750 -0.0950 -0.1633
 1597BOLB   C2B38314  21.414  12.837  11.493 -0.0582  0.0119 -0.1237
 1597BOLB   C3B38315  21.619  12.522  11.250  0.3055 -0.0904 -0.2967
 1597BOLB   C4B38316  22.008  12.510  10.993 -0.3031 -0.1792  0.0870
 1597BOLB   NC238317  22.197  12.782   8.405  0.2413  0.2999 -0.0770
 1597BOLB   PO238318  21.936  12.483   8.727 -0.1406 -0.1730  0.2091
 1597BOLB   GL338319  21.648  12.582   8.947  0.0327  0.0383  0.1191
 1597BOLB   GL438320  21.724  12.952   9.079 -0.0327 -0.1815 -0.0493
 1597BOLB   C1C38321  21.356  12.368   9.201 -0.1297 -0.2015  0.2730
 1597BOLB   C2C38322  21.120  12.108   9.590  0.0521 -0.1260  0.1010
 1597BOLB   C3C38323  20.983  12.138   9.959  0.2414  0.1606 -0.1449
 1597BOLB   C4C38324  20.913  12.105  10.388  0.1672 -0.2467 -0.0310
 1597BOLB   C1D38325  21.549  12.737   9.508 -0.2519  0.1098  0.2235
 1597BOLB   C2D38326  21.241  12.573   9.784  0.0189 -0.2742  0.0956
 1597BOLB   C3D38327  21.225  12.638  10.234 -0.0978 -0.1393  0.2028
 1597BOLB   C4D38328  21.412  12.500  10.749 -0.0359 -0.2005 -0.2786
 1598BOLB   NC138329  17.545  16.870  11.116  0.2820  0.0514 -0.1123
 1598BOLB   PO138330  17.125  17.183  11.229  0.0128  0.0875 -0.3446
 1598BOLB   GL138331  17.269  17.226  10.815  0.4665 -0.2666 -0.0602
 1598BOLB   GL238332  17.299  16.871  10.654 -0.2095  0.1933 -0.0494
 1598BOLB   C1A38333  17.241  17.523  10.460 -0.1212  0.0041 -0.0266
 1598BOLB   C2A38334  17.317  17.414  10.016  0.0721 -0.2369 -0.0684
 1598BOLB   C3A38335  17.550  17.150   9.765 -0.0677 -0.1449  0.0840
 1598BOLB   C4A38336  17.811  16.932   9.522  0.1496  0.1898  0.0039
 1598BOLB   C1B38337  17.129  17.005  10.259  0.3152 -0.0163 -0.1310
 1598BOLB   C2B38338  17.080  16.958   9.791 -0.5632 -0.0315 -0.1212
 1598BOLB   C3B38339  17.152  16.918   9.297  0.0090 -0.1943  0.0645
 1598BOLB   C4B38340  17.231  16.721   8.903 -0.2631 -0.2831 -0.0131
 1598BOLB   NC238341  18.311  16.303   7.143  0.0475 -0.0581  0.0120
 1598BOLB   PO238342  17.984  16.644   7.111  0.6680  0.0154 -0.0724
 1598BOLB   GL338343  17.809  16.752   7.436 -0.3027  0.2966  0.2922
 1598BOLB   GL438344  17.531  16.562   7.593 -0.2256  0.0364 -0.1115
 1598BOLB   C1C38345  17.697  16.967   7.872 -0.2680  0.3741  0.1845
 1598BOLB   C2C38346  17.633  16.986   8.251  0.1477 -0.2561 -0.0766
 1598BOLB   C3C38347  17.685  16.912   8.698 -0.1410  0.0328 -0.0643
 1598BOLB   C4C38348  17.692  16.750   9.162 -0.1274 -0.0461 -0.0779
 1598BOLB   C1D38349  17.956  16.452   7.800 -0.3860 -0.4280  0.1315
 1598BOLB   C2D38350  18.069  16.627   8.170  0.1802 -0.1655 -0.1060
 1598BOLB   C3D38351  17.990  16.582   8.534  0.0055 -0.0247  0.0532
 1598BOLB   C4D38352  18.116  16.567   8.979  0.1653  0.0822  0.0998
 1599BOLB   NC138353  18.004   8.846  13.940 -0.1001  0.0682 -0.1546
 1599BOLB   PO138354  18.359   8.956  14.251  0.1747  0.0463 -0.5390
 1599BOLB   GL138355  18.617   8.807  13.837  0.0637  0.0250 -0.0296
 1599BOLB   GL238356  18.917   8.593  13.923  0.1621  0.0613 -0.0038
 1599BOLB   C1A38357  18.776   8.669  13.460  0.0127  0.0325 -0.1384
 1599BOLB   C2A38358  18.947   8.422  13.116 -0.2435 -0.4325 -0.2399
 1599BOLB   C3A38359  19.296   8.368  12.723  0.0077  0.0832  0.1189
 1599BOLB   C4A38360  19.408   8.165  12.425 -0.0660  0.2126 -0.1811
 1599BOLB   C1B38361  18.963   8.211  13.644  0.2702 -0.4157 -0.1483
 1599BOLB   C2B38362  19.086   7.790  13.749  0.0888 -0.0639  0.1033
 1599BOLB   C3B38363  19.354   7.485  13.626  0.0100 -0.0247  0.1159
 1599BOLB   C4B38364  19.305   7.130  13.468  0.0253  0.0310  0.3611
 1599BOLB   NC238365  18.649   6.851   9.913 -0.3998  0.1388 -0.2736
 1599BOLB   PO238366  18.848   6.967  10.230 -0.1727  0.0443  0.1075
 1599BOLB   GL338367  18.937   6.979  10.715  0.1789 -0.2338 -0.0971
 1599BOLB   GL438368  19.020   6.869  11.101 -0.3459  0.3852  0.1221
 1599BOLB   C1C38369  18.838   7.319  10.980  0.0468  0.0035 -0.1037
 1599BOLB   C2C38370  19.031   7.618  11.261  0.2146  0.0708 -0.0768
 1599BOLB   C3C38371  19.222   7.855  11.654  0.0377  0.0419  0.1180
 1599BOLB   C4C38372  19.250   8.192  12.004 -0.0152  0.0305  0.2402
 1599BOLB   C1D38373  18.952   6.567  11.438 -0.1236 -0.0066  0.2536
 1599BOLB   C2D38374  19.278   6.467  11.802  0.1262  0.1323 -0.0350
 1599BOLB   C3D38375  19.272   6.423  12.252 -0.1313 -0.0085 -0.2004
 1599BOLB   C4D38376  19.119   6.395  12.622  0.0849 -0.1555 -0.0505
 1600BOLB   NC138377  18.516  20.462  11.754 -0.1762 -0.1369 -0.2373
 1600BOLB   PO138378  18.345  20.075  11.754 -0.0625  0.1823  0.1511
 1600BOLB   GL138379  18.327  20.178  11.336 -0.1536  0.0007  0.2585
 1600BOLB   GL238380  18.169  20.449  11.425  0.2122  0.0329  0.2133
 1600BOLB   C1A38381  18.311  20.308  10.948 -0.0981  0.0835 -0.1614
 1600BOLB   C2A38382  18.388  20.286  10.458 -0.0269  0.3554 -0.5686
 1600BOLB   C3A38383  18.682  20.117  10.125  0.2468  0.1861  0.0626
 1600BOLB   C4A38384  18.800  19.924   9.886  0.0058 -0.1102  0.1944
 1600BOLB   C1B38385  18.402  20.800  11.128  0.0771  0.1608  0.1285
 1600BOLB   C2B38386  18.450  21.191  10.877 -0.0867  0.1752  0.2137
 1600BOLB   C3B38387  18.439  21.432  10.489 -0.0751 -0.2510  0.2951
 1600BOLB   C4B38388  18.493  21.530  10.075  0.0967  0.0137  0.2160
 1600BOLB   NC238389  19.755  19.885   7.461 -0.0932 -0.0465  0.3446
 1600BOLB   PO238390  19.287  20.003   7.615 -0.1029 -0.0300  0.3944
 1600BOLB   GL338391  19.435  19.768   7.923  0.1687 -0.0661 -0.2891
 1600BOLB   GL438392  19.663  19.906   8.018  0.0264  0.1013 -0.1762
 1600BOLB   C1C38393  19.323  19.686   8.440 -0.1706 -0.0621 -0.4286
 1600BOLB   C2C38394  19.417  19.773   8.882  0.2929 -0.2752 -0.0623
 1600BOLB   C3C38395  19.474  19.918   9.291  0.2378  0.2161  0.2105
 1600BOLB   C4C38396  19.090  19.847   9.581  0.3341  0.0841 -0.0150
 1600BOLB   C1D38397  19.890  19.620   8.186 -0.0948 -0.1115 -0.2544
 1600BOLB   C2D38398  19.738  19.419   8.595 -0.2887 -0.1446  0.1297
 1600BOLB   C3D38399  19.400  19.188   8.845  0.0475 -0.1148  0.2536
 1600BOLB   C4D38400  19.211  19.494   9.256 -0.1282  0.0440 -0.1917
 1601BOLB   NC138401  14.180  19.165  11.419 -0.1785 -0.1315  0.0458
 1601BOLB   PO138402  14.536  19.089  11.106  0.0214 -0.2434  0.1894
 1601BOLB   GL138403  14.800  19.203  10.680 -0.1265 -0.1545 -0.1402
 1601BOLB   GL238404  15.123  19.207  10.703 -0.0227  0.0672  0.0429
 1601BOLB   C1A38405  14.801  19.463  10.243 -0.0572 -0.0808  0.0644
 1601BOLB   C2A38406  14.625  19.835  10.222  0.1630  0.0613 -0.0601
 1601BOLB   C3A38407  14.531  20.091   9.935 -0.2427  0.0072  0.0233
 1601BOLB   C4A38408  14.328  20.208   9.594 -0.0843  0.1267 -0.1137
 1601BOLB   C1B38409  15.117  18.862  10.420 -0.3900  0.0227 -0.2508
 1601BOLB   C2B38410  15.097  18.702  10.036  0.4299  0.2518  0.2136
 1601BOLB   C3B38411  15.133  18.599   9.616 -0.0799  0.3420 -0.1538
 1601BOLB   C4B38412  15.199  18.526   9.166 -0.2503 -0.2025 -0.3119
 1601BOLB   NC238413  13.454  20.472   7.466 -0.0282 -0.3319  0.1051
 1601BOLB   PO238414  13.753  20.766   7.277  0.0897  0.0682 -0.3016
 1601BOLB   GL338415  13.969  20.799   7.667  0.1556 -0.2087 -0.3183
 1601BOLB   GL438416  14.166  21.070   7.628 -0.2821 -0.0323  0.0961
 1601BOLB   C1C38417  14.139  20.591   8.003 -0.1356  0.1098 -0.1957
 1601BOLB   C2C38418  14.044  20.279   8.350  0.1216  0.0915 -0.0045
 1601BOLB   C3C38419  14.090  19.981   8.770  0.0862  0.1686 -0.1077
 1601BOLB   C4C38420  14.128  20.031   9.203 -0.0608  0.0919 -0.0762
 1601BOLB   C1D38421  14.120  21.104   8.044 -0.2556  0.1756  0.2975
 1601BOLB   C2D38422  13.930  21.324   8.437  0.1122 -0.0107  0.4122
 1601BOLB   C3D38423  13.932  21.320   8.850  0.1436 -0.0495 -0.2578
 1601BOLB   C4D38424  13.937  21.119   9.129  0.0752  0.0291  0.0121
 1602BOLB   NC138425  21.322  23.092  14.373  0.1573 -0.1178 -0.0480
 1602BOLB   PO138426  21.388  22.743  14.197 -0.0958  0.3531 -0.1697
 1602BOLB   GL138427  21.735  22.638  13.974 -0.2643  0.0662 -0.2474
 1602BOLB   GL238428  21.948  22.476  14.087 -0.0914 -0.1279  0.1089
 1602BOLB   C1A38429  21.892  22.944  13.547  0.0359  0.2358  0.4449
 1602BOLB   C2A38430  22.158  22.898  13.267 -0.3122  0.2618 -0.0478
 1602BOLB   C3A38431  22.220  22.689  12.877  0.2748 -0.1843  0.3443
 1602BOLB   C4A38432  22.594  22.500  12.764 -0.1474  0.0205 -0.0928
 1602BOLB   C1B38433  22.217  22.618  13.752 -0.1076  0.1520  0.0671
 1602BOLB   C2B38434  22.517  22.520  13.538 -0.0272 -0.1945  0.0917
 1602BOLB   C3B38435  22.666  22.702  13.202  0.6212 -0.0982 -0.0276
 1602BOLB   C4B38436  22.902  22.973  12.948 -0.4344 -0.2172  0.1819
 1602BOLB   NC238437  24.733  23.038  11.308 -0.0191 -0.0956 -0.3116
 1602BOLB   PO238438  24.266  22.969  11.106  0.1099  0.2792  0.2964
 1602BOLB   GL338439  24.048  22.659  11.237  0.1233 -0.2854  0.0559
 1602BOLB   GL438440  23.837  22.487  11.105  0.0704  0.0318 -0.0596
 1602BOLB   C1C38441  23.729  22.583  11.629  0.1439  0.1368  0.0111
 1602BOLB   C2C38442  23.343  22.430  11.966 -0.0589 -0.2899 -0.0398
 1602BOLB   C3C38443  23.067  22.259  12.147 -0.0800  0.0719 -0.2202
 1602BOLB   C4C38444  22.946  22.422  12.553 -0.1580 -0.0473 -0.0080
 1602BOLB   C1D38445  23.557  22.733  11.138 -0.1584 -0.1396  0.3107
 1602BOLB   C2D38446  23.198  22.580  11.016 -0.1189  0.2523  0.0872
 1602BOLB   C3D38447  22.780  22.390  10.915 -0.0704  0.3111  0.2216
 1602BOLB   C4D38448  22.522  22.202  11.286  0.0461  0.2381  0.4314
 1603BOLB   NC138449  13.633  17.469  10.915  0.2383 -0.1569  0.1862
 1603BOLB   PO138450  13.613  17.074  10.928 -0.0023 -0.0086  0.0272
 1603BOLB   GL138451  13.728  17.120  10.499 -0.0208 -0.0986 -0.2217
 1603BOLB   GL238452  13.722  17.322  10.365  0.2101 -0.1504 -0.1229
 1603BOLB   C1A38453  14.001  16.941  10.190  0.0807 -0.1527 -0.2979
 1603BOLB   C2A38454  14.218  16.920   9.809 -0.0559  0.1829  0.0804
 1603BOLB   C3A38455  14.390  16.907   9.317 -0.0414  0.3289 -0.1547
 1603BOLB   C4A38456  14.478  17.109   9.014  0.0545 -0.1721  0.0226
 1603BOLB   C1B38457  13.703  17.219   9.894  0.0523  0.2235 -0.2245
 1603BOLB   C2B38458  13.947  17.350   9.618 -0.0865  0.1589  0.0800
 1603BOLB   C3B38459  14.030  17.246   9.200 -0.0651 -0.1452  0.0791
 1603BOLB   C4B38460  14.031  17.279   8.822  0.0706  0.2231 -0.3203
 1603BOLB   NC238461  15.814  16.698   7.176  0.2241 -0.1041 -0.1206
 1603BOLB   PO238462  15.443  16.818   7.276 -0.0962  0.0024 -0.4242
 1603BOLB   GL338463  15.369  16.773   7.639  0.0132 -0.1719  0.1674
 1603BOLB   GL438464  15.397  16.519   7.828 -0.2005  0.0414 -0.3105
 1603BOLB   C1C38465  15.528  17.005   7.962  0.1536 -0.0052  0.0842
 1603BOLB   C2C38466  15.217  17.099   8.266 -0.1118 -0.0608  0.0194
 1603BOLB   C3C38467  15.101  17.203   8.657  0.1575 -0.0470 -0.1923
 1603BOLB   C4C38468  14.757  17.249   8.869 -0.0252 -0.0279  0.0463
 1603BOLB   C1D38469  15.343  16.585   8.278  0.0881  0.2150  0.0022
 1603BOLB   C2D38470  15.428  16.819   8.659  0.0619  0.1451 -0.0072
 1603BOLB   C3D38471  15.528  17.191   8.878 -0.2055 -0.2252  0.0192
 1603BOLB   C4D38472  15.665  17.174   9.287  0.0270  0.1839 -0.0513
 1604BOLB   NC138473  13.962  20.274  11.265 -0.0810 -0.1190 -0.1396
 1604BOLB   PO138474  14.080  20.771  11.245 -0.1183  0.0510 -0.0247
 1604BOLB   GL138475  14.243  20.996  10.967  0.0499 -0.0568 -0.0879
 1604BOLB   GL238476  14.476  21.116  11.036 -0.2957  0.3423  0.0258
 1604BOLB   C1A38477  14.177  21.210  10.701  0.5156  0.2413 -0.2890
 1604BOLB   C2A38478  14.027  21.448  10.468 -0.0593 -0.2412  0.0704
 1604BOLB   C3A38479  14.007  21.435  10.015  0.1527 -0.0276  0.0513
 1604BOLB   C4A38480  14.129  21.772   9.694  0.0943  0.0039 -0.1236
 1604BOLB   C1B38481  14.685  21.132  10.647  0.2120  0.0715  0.0911
 1604BOLB   C2B38482  14.783  21.081  10.308  0.2209 -0.3376  0.0461
 1604BOLB   C3B38483  14.870  21.216   9.795  0.0172  0.3130 -0.2673
 1604BOLB   C4B38484  14.668  21.228   9.304 -0.2292  0.3062 -0.1677
 1604BOLB   NC238485  14.287  22.876   7.831 -0.3394  0.0114  0.0032
 1604BOLB   PO238486  14.001  22.492   7.812  0.1615 -0.6025  0.0654
 1604BOLB   GL338487  13.775  22.262   8.156  0.2884  0.3117  0.5181
 1604BOLB   GL438488  13.976  21.980   8.175 -0.2048 -0.2832 -0.0272
 1604BOLB   C1C38489  13.604  22.302   8.526 -0.1909 -0.3580  0.1785
 1604BOLB   C2C38490  13.719  22.382   8.914  0.1285 -0.4860 -0.1680
 1604BOLB   C3C38491  14.063  22.499   9.147  0.1344 -0.6213 -0.2988
 1604BOLB   C4C38492  14.247  22.177   9.497 -0.0539  0.2958  0.0266
 1604BOLB   C1D38493  14.007  21.760   8.576 -0.0010  0.1041 -0.0110
 1604BOLB   C2D38494  13.835  21.821   8.914 -0.0235 -0.3688 -0.0104
 1604BOLB   C3D38495  13.748  21.546   9.234 -0.0981 -0.0612 -0.1047
 1604BOLB   C4D38496  13.797  21.290   9.583 -0.2079 -0.1651  0.1383
 1605BOLB   NC138497  17.930  17.757  11.533  0.2573 -0.0635 -0.0018
 1605BOLB   PO138498  18.174  17.382  11.447 -0.1447  0.2506  0.2200
 1605BOLB   GL138499  18.472  17.340  11.061  0.3740 -0.0477 -0.0930
 1605BOLB   GL238500  18.814  17.476  11.309 -0.1430 -0.0407  0.1198
 1605BOLB   C1A38501  18.567  17.249  10.717 -0.1212 -0.4317 -0.1283
 1605BOLB   C2A38502  18.724  17.367  10.259 -0.1006  0.1531  0.1238
 1605BOLB   C3A38503  18.852  17.564   9.854  0.1510  0.2654 -0.2239
 1605BOLB   C4A38504  18.952  17.380   9.494  0.2651 -0.2470  0.1612
 1605BOLB   C1B38505  18.979  17.421  10.918 -0.1549 -0.0733  0.0988
 1605BOLB   C2B38506  19.166  17.500  10.570  0.1392  0.3153 -0.2957
 1605BOLB   C3B38507  19.283  17.539  10.099  0.1958  0.0581  0.0108
 1605BOLB   C4B38508  19.362  17.511   9.656  0.0247 -0.3196 -0.0131
 1605BOLB   NC238509  19.360  17.768   6.779 -0.0582 -0.2816  0.3260
 1605BOLB   PO238510  19.189  17.407   7.171 -0.1223 -0.2119  0.0449
 1605BOLB   GL338511  19.263  17.238   7.606 -0.1145  0.1091 -0.1946
 1605BOLB   GL438512  18.940  17.298   7.800  0.0136  0.0142 -0.2292
 1605BOLB   C1C38513  19.535  17.298   7.957  0.1137  0.0898  0.2654
 1605BOLB   C2C38514  19.445  17.326   8.456  0.1342 -0.4113  0.0729
 1605BOLB   C3C38515  19.474  17.515   8.865 -0.1592  0.0530  0.0540
 1605BOLB   C4C38516  19.326  17.506   9.154 -0.2504  0.1883  0.1107
 1605BOLB   C1D38517  18.936  17.386   8.193 -0.2076  0.0793 -0.3548
 1605BOLB   C2D38518  19.001  17.266   8.684  0.0775  0.1045 -0.1606
 1605BOLB   C3D38519  18.983  17.008   9.079 -0.0436  0.0301  0.0088
 1605BOLB   C4D38520  18.971  16.815   9.523 -0.0144 -0.0418 -0.0745
 1606BOLB   NC138521  10.819  21.236  12.196 -0.1045 -0.2320 -0.1668
 1606BOLB   PO138522  11.052  21.594  12.166  0.0641 -0.0977  0.1186
 1606BOLB   GL138523  10.918  21.828  11.832 -0.1193 -0.2537 -0.4011
 1606BOLB   GL238524  11.125  22.070  11.775  0.0993 -0.0728  0.0809
 1606BOLB   C1A38525  10.824  21.965  11.345  0.1759 -0.6042 -0.1215
 1606BOLB   C2A38526  10.984  22.097  10.993  0.2717 -0.0276  0.2423
 1606BOLB   C3A38527  10.955  22.017  10.597  0.1596 -0.0229 -0.1002
 1606BOLB   C4A38528  11.067  22.109  10.224 -0.0156  0.1266 -0.0259
 1606BOLB   C1B38529  11.333  22.282  11.482 -0.0164  0.0830 -0.1446
 1606BOLB   C2B38530  11.357  22.515  11.126  0.0984  0.0682  0.1363
 1606BOLB   C3B38531  11.288  22.399  10.678  0.1143 -0.0563  0.1142
 1606BOLB   C4B38532  11.138  22.567  10.359  0.2852  0.1151 -0.1522
 1606BOLB   NC238533  11.471  23.328   8.281  0.1066  0.1039  0.0718
 1606BOLB   PO238534  11.707  23.079   8.078  0.2909 -0.0585  0.0967
 1606BOLB   GL338535  11.331  22.840   8.341 -0.1456  0.3409  0.1224
 1606BOLB   GL438536  11.479  22.561   8.241  0.3363  0.1293 -0.2190
 1606BOLB   C1C38537  11.183  22.557   8.693 -0.0209 -0.2306 -0.2398
 1606BOLB   C2C38538  10.970  22.440   9.055  0.3116  0.2308 -0.0617
 1606BOLB   C3C38539  11.138  22.367   9.416 -0.1370 -0.1803 -0.1304
 1606BOLB   C4C38540  11.179  22.178   9.838 -0.0648  0.1597 -0.0698
 1606BOLB   C1D38541  11.569  22.259   8.561 -0.5087  0.1912  0.2244
 1606BOLB   C2D38542  11.480  22.330   9.009 -0.3104  0.0590  0.1075
 1606BOLB   C3D38543  11.501  22.041   9.198  0.1224  0.0968  0.0029
 1606BOLB   C4D38544  11.507  21.885   9.660  0.1807 -0.1336  0.0951
 1607BOLB   NC138545   9.866  15.467  12.483  0.1193  0.2180  0.0223
 1607BOLB   PO138546   9.932  15.831  12.155  0.0302 -0.0224  0.0191
 1607BOLB   GL138547   9.639  15.728  11.809  0.0110 -0.5589 -0.2443
 1607BOLB   GL238548   9.346  15.830  11.880  0.1366  0.1037 -0.0929
 1607BOLB   C1A38549   9.493  15.695  11.353 -0.1409 -0.4290 -0.1624
 1607BOLB   C2A38550   9.549  15.563  11.029 -0.4115 -0.0970  0.0700
 1607BOLB   C3A38551   9.387  15.472  10.531 -0.2420  0.2482 -0.2159
 1607BOLB   C4A38552   9.326  15.292  10.074  0.0642  0.1434  0.2043
 1607BOLB   C1B38553   9.539  16.127  11.612  0.1086  0.0387 -0.1028
 1607BOLB   C2B38554   9.650  16.463  11.389 -0.0127  0.4134  0.0171
 1607BOLB   C3B38555   9.784  16.756  11.277  0.1083  0.2925  0.3692
 1607BOLB   C4B38556   9.611  17.120  11.137  0.1036 -0.0400  0.0897
 1607BOLB   NC238557   8.493  15.073   8.193  0.2793  0.1857 -0.0425
 1607BOLB   PO238558   8.848  14.689   8.131  0.1180 -0.0390 -0.2633
 1607BOLB   GL338559   8.900  14.972   8.380  0.2747  0.0380  0.0174
 1607BOLB   GL438560   8.898  15.366   8.255  0.0047  0.2392  0.3751
 1607BOLB   C1C38561   8.821  15.190   8.799  0.1248  0.0464  0.0998
 1607BOLB   C2C38562   9.196  15.089   9.056  0.0054  0.1400  0.1596
 1607BOLB   C3C38563   9.493  15.122   9.408 -0.0160 -0.0303  0.1197
 1607BOLB   C4C38564   9.269  15.074   9.705  0.0343 -0.2070 -0.1514
 1607BOLB   C1D38565   9.223  15.471   8.585 -0.2560 -0.3850  0.0343
 1607BOLB   C2D38566   9.587  15.499   8.989 -0.2461  0.1444  0.1481
 1607BOLB   C3D38567   9.937  15.336   9.203  0.0240  0.2192  0.2769
 1607BOLB   C4D38568  10.485  15.334   9.327 -0.0210  0.0433 -0.2095
 1608BOLB   NC138569  22.023  14.787  13.222  0.2701  0.3515 -0.1107
 1608BOLB   PO138570  22.246  15.126  13.165  0.1325 -0.2391 -0.0889
 1608BOLB   GL138571  22.403  14.897  12.762 -0.2887  0.0152 -0.0134
 1608BOLB   GL238572  22.669  14.883  12.834 -0.0617 -0.4432  0.0212
 1608BOLB   C1A38573  22.548  14.735  12.379 -0.1692 -0.2354  0.2443
 1608BOLB   C2A38574  22.676  14.842  12.033 -0.2328  0.2732  0.1696
 1608BOLB   C3A38575  22.943  14.757  11.689  0.0682 -0.0707 -0.1758
 1608BOLB   C4A38576  23.270  14.876  11.460  0.2725  0.0666  0.2251
 1608BOLB   C1B38577  22.986  14.949  12.547  0.5853 -0.0624 -0.2015
 1608BOLB   C2B38578  23.249  14.844  12.312  0.1552  0.0456 -0.1995
 1608BOLB   C3B38579  23.557  14.775  11.960  0.0729  0.1518 -0.2826
 1608BOLB   C4B38580  23.917  14.704  11.658 -0.0811  0.2153  0.0712
 1608BOLB   NC238581  25.189  15.160  10.250  0.1912 -0.0482 -0.0436
 1608BOLB   PO238582  25.394  15.476  10.563 -0.1380  0.3076  0.1169
 1608BOLB   GL338583  25.085  15.193  10.725  0.0919 -0.2458  0.0142
 1608BOLB   GL438584  25.276  14.880  10.986  0.2905 -0.0308  0.3243
 1608BOLB   C1C38585  24.725  14.976  10.869  0.1256  0.0203  0.0366
 1608BOLB   C2C38586  24.509  14.725  11.199 -0.2230 -0.0532  0.1399
 1608BOLB   C3C38587  24.062  14.519  11.201 -0.1213  0.1065 -0.0518
 1608BOLB   C4C38588  23.640  14.916  11.287  0.1914  0.1374  0.1484
 1608BOLB   C1D38589  25.015  14.690  11.317 -0.0018 -0.0227 -0.1173
 1608BOLB   C2D38590  24.787  14.713  11.679  0.4069 -0.0399  0.4041
 1608BOLB   C3D38591  24.569  15.147  11.741  0.3561  0.4046 -0.1763
 1608BOLB   C4D38592  24.291  15.511  11.728  0.1497 -0.0459 -0.5831
 1609BOLB   NC138593  12.200  23.827  13.517 -0.3419 -0.0121 -0.1308
 1609BOLB   PO138594  12.043  23.922  13.111 -0.0574  0.1634  0.1804
 1609BOLB   GL138595  11.698  24.173  13.080 -0.3535 -0.0754 -0.0255
 1609BOLB   GL238596  11.643  24.431  13.348 -0.1613 -0.0573 -0.1124
 1609BOLB   C1A38597  11.638  24.500  12.777 -0.5763 -0.1916 -0.1529
 1609BOLB   C2A38598  11.519  24.810  12.565 -0.2376 -0.0359  0.1972
 1609BOLB   C3A38599  11.489  25.264  12.362 -0.0831  0.2124  0.4040
 1609BOLB   C4A38600  11.416  25.748  12.169 -0.1222 -0.0273 -0.0504
 1609BOLB   C1B38601  11.474  24.762  13.572  0.1276  0.0755  0.2753
 1609BOLB   C2B38602  11.543  25.221  13.470  0.1983 -0.1580  0.0290
 1609BOLB   C3B38603  11.605  25.654  13.461 -0.1781 -0.2013  0.2520
 1609BOLB   C4B38604  11.914  25.975  13.325  0.0803 -0.2487  0.2426
 1609BOLB   NC238605  11.956  26.462  10.033  0.0058  0.2463 -0.0019
 1609BOLB   PO238606  12.434  26.233  10.236  0.1946 -0.0977 -0.0540
 1609BOLB   GL338607  12.404  26.000  10.477 -0.0649  0.1815 -0.3108
 1609BOLB   GL438608  12.713  25.924  10.574  0.1797 -0.2927 -0.3769
 1609BOLB   C1C38609  11.986  25.954  10.769  0.0109 -0.0506 -0.0720
 1609BOLB   C2C38610  11.968  25.774  11.092  0.0944 -0.2718  0.0948
 1609BOLB   C3C38611  11.947  26.030  11.469  0.0261  0.3257  0.1312
 1609BOLB   C4C38612  11.633  25.916  11.798  0.0912  0.5000  0.2673
 1609BOLB   C1D38613  12.427  25.863  10.952 -0.0800 -0.0173  0.0854
 1609BOLB   C2D38614  12.376  25.681  11.359  0.3198  0.1722  0.2447
 1609BOLB   C3D38615  12.480  25.403  11.576 -0.1637 -0.1369  0.3582
 1609BOLB   C4D38616  12.483  25.117  11.914  0.0913  0.2536 -0.0507
 1610BOLB   NC138617  14.106  12.135  11.414 -0.3119  0.2374  0.0861
 1610BOLB   PO138618  13.851  11.965  11.590 -0.3274 -0.1661  0.1020
 1610BOLB   GL138619  13.787  11.729  11.303  0.3091  0.2323 -0.1073
 1610BOLB   GL238620  14.184  11.689  11.239 -0.4785 -0.0285  0.0624
 1610BOLB   C1A38621  13.569  11.659  10.855 -0.1342 -0.0499 -0.0805
 1610BOLB   C2A38622  13.710  11.398  10.484 -0.1757  0.2054  0.0276
 1610BOLB   C3A38623  13.926  11.040  10.271 -0.1765  0.1945  0.1075
 1610BOLB   C4A38624  14.086  10.731   9.934  0.0344 -0.1226  0.1642
 1610BOLB   C1B38625  14.073  11.644  10.802  0.0443 -0.1344  0.1236
 1610BOLB   C2B38626  14.256  11.517  10.454 -0.2007 -0.2245  0.1339
 1610BOLB   C3B38627  14.330  11.616  10.031  0.0319  0.1578 -0.0051
 1610BOLB   C4B38628  14.074  11.786   9.657 -0.0772  0.0753 -0.1481
 1610BOLB   NC238629  13.520  10.494   7.859 -0.2517 -0.2836 -0.0636
 1610BOLB   PO238630  13.275  10.749   7.700 -0.3285 -0.1273  0.0697
 1610BOLB   GL338631  13.372  10.974   7.982  0.2032  0.1388 -0.0281
 1610BOLB   GL438632  13.297  11.318   8.263 -0.0451 -0.3400  0.1873
 1610BOLB   C1C38633  13.709  11.029   8.319  0.0048  0.1830  0.4731
 1610BOLB   C2C38634  13.893  10.754   8.726 -0.3351 -0.2038  0.1373
 1610BOLB   C3C38635  13.933  10.733   9.139  0.1534 -0.1011  0.1651
 1610BOLB   C4C38636  13.962  10.619   9.543 -0.2235 -0.1813  0.3838
 1610BOLB   C1D38637  13.079  11.285   8.584  0.0369  0.1579 -0.0298
 1610BOLB   C2D38638  13.169  11.290   9.065 -0.2808  0.2661 -0.2016
 1610BOLB   C3D38639  13.249  11.317   9.485  0.0502  0.1621  0.0780
 1610BOLB   C4D38640  13.197  11.068   9.828 -0.0071 -0.2773 -0.3365
 1611BOLB   NC138641  19.858  13.668  12.779  0.4299  0.0144 -0.0105
 1611BOLB   PO138642  20.042  13.209  12.657 -0.1201 -0.0663 -0.0377
 1611BOLB   GL138643  20.098  12.916  12.221 -0.0878  0.0352 -0.0027
 1611BOLB   GL238644  19.966  12.947  11.949  0.2725 -0.3263 -0.0432
 1611BOLB   C1A38645  20.301  12.540  11.909 -0.1169  0.3160 -0.1049
 1611BOLB   C2A38646  20.553  12.359  11.509  0.0293  0.0669 -0.0328
 1611BOLB   C3A38647  20.574  12.254  11.125  0.0968 -0.1481  0.2019
 1611BOLB   C4A38648  20.524  12.147  10.696 -0.2953 -0.2766  0.1040
 1611BOLB   C1B38649  20.301  12.968  11.699 -0.1616 -0.1581 -0.0417
 1611BOLB   C2B38650  20.467  13.044  11.296  0.0194  0.2142  0.1742
 1611BOLB   C3B38651  20.725  12.694  11.065  0.1526  0.3331  0.2712
 1611BOLB   C4B38652  20.727  12.604  10.679 -0.2824  0.1170  0.1103
 1611BOLB   NC238653  21.236  11.548   8.086 -0.0175 -0.0159 -0.0742
 1611BOLB   PO238654  21.392  11.797   8.436 -0.1548  0.0115  0.3221
 1611BOLB   GL338655  21.314  11.749   8.856 -0.1259 -0.3846  0.1722
 1611BOLB   GL438656  21.421  11.463   9.002  0.0732 -0.3706  0.1316
 1611BOLB   C1C38657  21.063  11.997   9.071 -0.2369 -0.1566  0.2572
 1611BOLB   C2C38658  20.652  11.933   9.425  0.0529  0.2069 -0.0359
 1611BOLB   C3C38659  20.463  11.953   9.752 -0.2629  0.0446 -0.2026
 1611BOLB   C4C38660  20.370  11.996  10.227  0.1723  0.1391 -0.1004
 1611BOLB   C1D38661  21.500  11.738   9.380  0.2078 -0.4973  0.1086
 1611BOLB   C2D38662  21.451  11.811   9.756 -0.0790  0.1712  0.0365
 1611BOLB   C3D38663  21.275  11.724  10.150 -0.0201 -0.0271  0.1582
 1611BOLB   C4D38664  21.283  11.725  10.588  0.0383 -0.2351 -0.1082
 1612BOLB   NC138665  12.390  18.032  11.087 -0.2125 -0.0413  0.1112
 1612BOLB   PO138666  12.092  18.441  11.169 -0.2605  0.1336  0.1324
 1612BOLB   GL138667  12.024  18.323  10.788 -0.0753  0.0198  0.4692
 1612BOLB   GL238668  11.785  18.514  10.728 -0.0133 -0.2264  0.0479
 1612BOLB   C1A38669  12.090  18.267  10.408 -0.1125 -0.0931 -0.1385
 1612BOLB   C2A38670  12.075  18.378   9.946 -0.1436 -0.1363 -0.1627
 1612BOLB   C3A38671  12.071  18.621   9.536 -0.0730 -0.0835  0.1689
 1612BOLB   C4A38672  12.160  18.928   9.121  0.0699  0.0808 -0.0207
 1612BOLB   C1B38673  11.807  18.668  10.296 -0.0143  0.4009 -0.2545
 1612BOLB   C2B38674  11.538  18.614   9.959 -0.0387 -0.5892  0.4420
 1612BOLB   C3B38675  11.611  18.888   9.625 -0.0420 -0.2213  0.0829
 1612BOLB   C4B38676  11.667  19.056   9.197  0.5902  0.0382 -0.6015
 1612BOLB   NC238677  11.731  21.081   7.619 -0.5658 -0.1672  0.3118
 1612BOLB   PO238678  11.855  20.682   7.371 -0.0028  0.0456 -0.0826
 1612BOLB   GL338679  12.041  20.426   7.758  0.0399 -0.2420 -0.0877
 1612BOLB   GL438680  11.721  20.395   7.860 -0.1290 -0.0465 -0.1504
 1612BOLB   C1C38681  12.246  20.076   8.027 -0.0763  0.2701 -0.0069
 1612BOLB   C2C38682  12.115  19.901   8.309 -0.0721 -0.0985  0.0187
 1612BOLB   C3C38683  12.118  19.522   8.553 -0.1522 -0.1933 -0.0185
 1612BOLB   C4C38684  12.269  19.290   8.856  0.1313  0.0034 -0.0436
 1612BOLB   C1D38685  11.753  20.220   8.240  0.2110 -0.1726 -0.2673
 1612BOLB   C2D38686  11.887  20.245   8.667  0.0109 -0.0249  0.0483
 1612BOLB   C3D38687  11.968  20.314   8.982  0.1306 -0.1261  0.0163
 1612BOLB   C4D38688  12.045  20.361   9.488  0.1314 -0.0748 -0.0751
 1613BOLB   NC138689  20.595  20.139  12.739  0.1252  0.0977 -0.1315
 1613BOLB   PO138690  21.136  20.148  12.986  0.1075 -0.0440 -0.0890
 1613BOLB   GL138691  21.430  20.045  12.655  0.0108 -0.1305  0.0796
 1613BOLB   GL238692  21.636  20.129  12.845 -0.1111  0.0745  0.2761
 1613BOLB   C1A38693  21.464  20.106  12.247  0.1198 -0.4715 -0.2353
 1613BOLB   C2A38694  21.511  20.042  11.806 -0.1621  0.0826  0.3550
 1613BOLB   C3A38695  21.594  20.123  11.358 -0.2414 -0.0341  0.2779
 1613BOLB   C4A38696  21.786  20.384  11.113  0.1020  0.0992  0.0055
 1613BOLB   C1B38697  21.946  20.163  12.495  0.2246 -0.2451 -0.0138
 1613BOLB   C2B38698  22.326  20.464  12.368  0.0590 -0.0013  0.1745
 1613BOLB   C3B38699  22.672  20.559  12.105  0.3100  0.1686  0.2439
 1613BOLB   C4B38700  23.000  20.491  12.118 -0.1201 -0.4419  0.1335
 1613BOLB   NC238701  22.721  20.059   8.529  0.0080 -0.1777 -0.2514
 1613BOLB   PO238702  22.768  19.919   8.980 -0.0068  0.2348 -0.2174
 1613BOLB   GL338703  22.864  20.063   9.306  0.4178  0.2402 -0.1750
 1613BOLB   GL438704  23.207  20.014   9.455  0.0045  0.2036  0.1390
 1613BOLB   C1C38705  22.976  20.393   9.746 -0.0436  0.1429 -0.0530
 1613BOLB   C2C38706  22.835  20.430  10.192 -0.1835 -0.1214  0.1985
 1613BOLB   C3C38707  22.552  20.346  10.617 -0.0603  0.3003  0.0431
 1613BOLB   C4C38708  22.206  20.370  10.882 -0.1717 -0.2206 -0.0733
 1613BOLB   C1D38709  22.958  19.858   9.832 -0.1042  0.0149  0.1317
 1613BOLB   C2D38710  22.813  19.922  10.275 -0.2200  0.1048 -0.1981
 1613BOLB   C3D38711  22.394  19.745  10.421  0.1701  0.3687 -0.3380
 1613BOLB   C4D38712  22.087  19.545  10.747  0.0319 -0.2106 -0.1916
 1614BOLB   NC138713  12.638  22.399  12.394 -0.0175  0.1383 -0.0232
 1614BOLB   PO138714  12.836  22.694  12.580  0.3400 -0.2135  0.3084
 1614BOLB   GL138715  12.644  22.939  12.290  0.3096  0.1055  0.1257
 1614BOLB   GL238716  12.703  23.283  12.431 -0.1795  0.0681  0.2522
 1614BOLB   C1A38717  12.315  23.062  11.876 -0.2063  0.3045  0.1228
 1614BOLB   C2A38718  12.113  23.470  11.748  0.5458  0.0523 -0.0912
 1614BOLB   C3A38719  12.083  23.748  11.476 -0.1068  0.0053  0.0576
 1614BOLB   C4A38720  11.729  23.878  11.126 -0.1752  0.1433  0.0078
 1614BOLB   C1B38721  12.577  23.559  12.071  0.0833 -0.0942  0.2451
 1614BOLB   C2B38722  12.409  23.869  11.837 -0.0098  0.2083  0.2440
 1614BOLB   C3B38723  12.358  24.289  11.663  0.1831  0.1805  0.0774
 1614BOLB   C4B38724  12.164  24.590  11.464 -0.3174  0.1824  0.1885
 1614BOLB   NC238725  10.729  25.136   8.695  0.1420  0.0696  0.0502
 1614BOLB   PO238726  10.803  24.729   8.894  0.0028  0.0215  0.1897
 1614BOLB   GL338727  10.934  24.600   9.331 -0.2142 -0.1140 -0.1477
 1614BOLB   GL438728  11.279  24.705   9.250  0.1875 -0.0094  0.0201
 1614BOLB   C1C38729  11.065  24.396   9.720 -0.3332  0.0620 -0.0691
 1614BOLB   C2C38730  11.339  24.109   9.982  0.1379 -0.0580 -0.3590
 1614BOLB   C3C38731  11.472  24.163  10.363  0.3536 -0.2143  0.1318
 1614BOLB   C4C38732  11.557  23.869  10.757  0.3527  0.0586  0.2819
 1614BOLB   C1D38733  11.466  24.725   9.552 -0.0146 -0.1101 -0.0337
 1614BOLB   C2D38734  11.429  24.578  10.074  0.1387 -0.0545 -0.1011
 1614BOLB   C3D38735  11.408  24.598  10.581  0.0889  0.2361 -0.3303
 1614BOLB   C4D38736  11.408  24.517  11.030  0.1177  0.2792  0.1242
 1615BOLB   NC138737  17.661  22.251  12.441 -0.1502 -0.2617  0.2590
 1615BOLB   PO138738  17.739  22.549  12.260 -0.0119 -0.0347 -0.0365
 1615BOLB   GL138739  17.945  22.665  11.929 -0.1181  0.1876  0.0520
 1615BOLB   GL238740  17.866  22.551  11.683 -0.1759  0.1091 -0.1024
 1615BOLB   C1A38741  18.074  22.920  11.486 -0.3152  0.0436 -0.2627
 1615BOLB   C2A38742  18.058  23.300  11.341  0.0012 -0.0698  0.1307
 1615BOLB   C3A38743  18.259  23.426  11.008  0.2566  0.0191 -0.2345
 1615BOLB   C4A38744  18.348  23.468  10.573  0.0189  0.0961 -0.0506
 1615BOLB   C1B38745  17.901  22.584  11.205 -0.0840 -0.2932 -0.2534
 1615BOLB   C2B38746  18.094  22.858  10.854 -0.0065 -0.1321 -0.2657
 1615BOLB   C3B38747  18.044  23.093  10.522 -0.0547  0.1210 -0.3740
 1615BOLB   C4B38748  18.492  23.131  10.222 -0.0622  0.0756 -0.2447
 1615BOLB   NC238749  18.678  24.066   8.434 -0.0205 -0.3077  0.0657
 1615BOLB   PO238750  18.455  24.404   8.617  0.0110 -0.1107  0.2284
 1615BOLB   GL338751  18.201  24.519   8.971 -0.3214 -0.1548  0.2267
 1615BOLB   GL438752  18.482  24.625   9.239  0.2295  0.0732  0.1659
 1615BOLB   C1C38753  18.080  24.397   9.476 -0.0914 -0.2180  0.2184
 1615BOLB   C2C38754  17.899  24.289   9.801 -0.1105  0.1015  0.1021
 1615BOLB   C3C38755  17.964  23.958  10.116  0.3853  0.1537  0.2224
 1615BOLB   C4C38756  18.012  23.601  10.214  0.2027  0.0210 -0.1250
 1615BOLB   C1D38757  18.552  24.467   9.587  0.0576 -0.2701  0.1227
 1615BOLB   C2D38758  18.358  24.544   9.907  0.1204  0.3362 -0.0500
 1615BOLB   C3D38759  18.028  24.386  10.293  0.0886 -0.2640 -0.1833
 1615BOLB   C4D38760  17.816  24.241  10.498 -0.0997  0.1990  0.0239
 1616BOLB   NC138761  19.376  23.858  13.819 -0.0015 -0.0689 -0.2943
 1616BOLB   PO138762  19.304  23.853  13.306  0.0113  0.2768  0.1094
 1616BOLB   GL138763  19.600  23.988  13.069  0.4559  0.1899  0.3876
 1616BOLB   GL238764  19.912  23.801  13.136 -0.2068  0.2563  0.2185
 1616BOLB   C1A38765  19.848  23.929  12.633 -0.1753  0.0692  0.1493
 1616BOLB   C2A38766  19.904  24.057  12.148 -0.0690  0.0049  0.0889
 1616BOLB   C3A38767  19.873  23.857  11.782 -0.1332  0.0204  0.2622
 1616BOLB   C4A38768  20.226  23.881  11.493 -0.3272 -0.1445 -0.2142
 1616BOLB   C1B38769  20.271  23.855  12.859  0.1937 -0.0381  0.1539
 1616BOLB   C2B38770  20.652  23.745  12.704  0.1304 -0.0855 -0.1764
 1616BOLB   C3B38771  21.044  23.736  12.631  0.4957  0.0488 -0.1622
 1616BOLB   C4B38772  21.390  23.467  12.793 -0.3557  0.2206 -0.0348
 1616BOLB   NC238773  22.586  24.290  10.217 -0.1978 -0.2160 -0.0367
 1616BOLB   PO238774  22.120  24.420  10.251 -0.0488  0.3717  0.2166
 1616BOLB   GL338775  21.765  24.335  10.458  0.0590 -0.0981  0.0663
 1616BOLB   GL438776  21.644  24.539  10.375 -0.1745  0.3468 -0.2790
 1616BOLB   C1C38777  21.491  24.139  10.707 -0.0359  0.2150  0.3960
 1616BOLB   C2C38778  21.026  24.191  10.760  0.0308 -0.1245  0.1590
 1616BOLB   C3C38779  20.622  24.372  10.917  0.1102 -0.0693  0.2905
 1616BOLB   C4C38780  20.333  24.230  11.221  0.1527  0.2412 -0.0346
 1616BOLB   C1D38781  21.279  24.708  10.529  0.0056  0.0990 -0.2501
 1616BOLB   C2D38782  20.941  24.818  10.800 -0.0862 -0.1335  0.0375
 1616BOLB   C3D38783  21.067  24.856  11.251  0.4214 -0.2649  0.0986
 1616BOLB   C4D38784  20.927  24.720  11.570  0.1033 -0.0456 -0.3531
 1617BOLB   NC138785  20.972  16.850  11.976 -0.4821  0.1215 -0.1300
 1617BOLB   PO138786  20.996  17.286  12.214  0.1749  0.1926  0.1426
 1617BOLB   GL138787  21.305  17.202  11.842 -0.1622 -0.3027  0.2898
 1617BOLB   GL238788  21.193  17.084  11.560 -0.0679 -0.1040  0.2098
 1617BOLB   C1A38789  21.600  17.303  11.506 -0.0775 -0.2530 -0.1930
 1617BOLB   C2A38790  21.881  17.193  11.260 -0.1857  0.1380 -0.2482
 1617BOLB   C3A38791  22.011  17.455  10.874  0.5744  0.0892  0.1750
 1617BOLB   C4A38792  22.250  17.362  10.486  0.2146  0.2070 -0.1001
 1617BOLB   C1B38793  21.213  17.471  11.307  0.4089 -0.0568 -0.0091
 1617BOLB   C2B38794  21.611  17.595  11.095 -0.1106  0.0903  0.1720
 1617BOLB   C3B38795  21.705  17.804  10.732 -0.2301 -0.1330  0.0619
 1617BOLB   C4B38796  21.937  17.839  10.381 -0.1433 -0.2225  0.0170
 1617BOLB   NC238797  24.631  17.976   9.543  0.1413  0.3058 -0.2163
 1617BOLB   PO238798  24.362  17.616   9.433  0.3163 -0.0304 -0.3259
 1617BOLB   GL338799  24.052  17.409   9.710 -0.1131  0.5137 -0.1351
 1617BOLB   GL438800  24.135  17.182   9.882  0.0714  0.1537 -0.3457
 1617BOLB   C1C38801  23.747  17.632   9.975 -0.0191 -0.1536 -0.0183
 1617BOLB   C2C38802  23.347  17.560  10.010  0.0999 -0.1986  0.0356
 1617BOLB   C3C38803  22.919  17.494  10.107 -0.3341  0.3702 -0.1107
 1617BOLB   C4C38804  22.576  17.430  10.347  0.1822 -0.0099 -0.0748
 1617BOLB   C1D38805  24.215  16.951  10.248 -0.0206  0.4021 -0.2607
 1617BOLB   C2D38806  24.288  16.805  10.715  0.2231 -0.1047 -0.0305
 1617BOLB   C3D38807  24.517  16.507  10.952 -0.2771 -0.2915  0.0013
 1617BOLB   C4D38808  24.345  16.180  11.108 -0.2299  0.1066  0.1992
 1618BOLB   NC138809  20.267  21.677  12.905 -0.1004  0.0750  0.4024
 1618BOLB   PO138810  20.661  21.543  12.989 -0.1139 -0.0265 -0.1191
 1618BOLB   GL138811  20.680  21.885  12.714 -0.0786 -0.0825  0.0669
 1618BOLB   GL238812  20.466  21.779  12.440  0.2057 -0.0564 -0.3103
 1618BOLB   C1A38813  20.789  22.192  12.359  0.0249  0.0339 -0.4018
 1618BOLB   C2A38814  21.166  22.358  12.204 -0.0653 -0.0837  0.1468
 1618BOLB   C3A38815  21.505  22.533  12.042 -0.0306  0.1032  0.1088
 1618BOLB   C4A38816  21.821  22.808  11.867 -0.1925  0.1252  0.2078
 1618BOLB   C1B38817  20.860  21.662  12.160  0.3676  0.0574 -0.1838
 1618BOLB   C2B38818  21.043  21.814  11.750  0.0446 -0.5139 -0.3682
 1618BOLB   C3B38819  21.207  21.848  11.391 -0.1744  0.1524 -0.2267
 1618BOLB   C4B38820  21.369  22.160  11.155 -0.0869 -0.4750 -0.2783
 1618BOLB   NC238821  24.025  23.393  11.893 -0.0451 -0.1836 -0.3693
 1618BOLB   PO238822  24.302  23.737  12.023  0.1066  0.1224 -0.0566
 1618BOLB   GL338823  23.798  23.793  12.072  0.3162  0.1167 -0.0704
 1618BOLB   GL438824  23.637  24.112  12.042  0.1036 -0.2925  0.0157
 1618BOLB   C1C38825  23.437  23.544  11.944  0.1948 -0.1597  0.0899
 1618BOLB   C2C38826  23.149  23.192  11.801  0.0406 -0.0704 -0.0378
 1618BOLB   C3C38827  22.715  23.053  11.889  0.0648 -0.1277  0.0186
 1618BOLB   C4C38828  22.326  22.887  11.802 -0.0139 -0.1163 -0.0959
 1618BOLB   C1D38829  23.657  24.048  12.461  0.3328  0.0773 -0.3083
 1618BOLB   C2D38830  23.561  23.599  12.576 -0.2809  0.0913  0.0301
 1618BOLB   C3D38831  23.406  23.273  12.406 -0.0086  0.1758 -0.0988
 1618BOLB   C4D38832  23.350  23.126  12.734  0.0732 -0.0086  0.4371
 1619BOLB   NC138833  14.865  19.898  11.312  0.0189  0.4473  0.1210
 1619BOLB   PO138834  14.906  20.348  11.459 -0.2407 -0.1355  0.1382
 1619BOLB   GL138835  15.000  20.295  11.025 -0.1207 -0.0440  0.3467
 1619BOLB   GL238836  14.795  20.527  10.857  0.1960  0.0203  0.2195
 1619BOLB   C1A38837  15.126  20.188  10.569 -0.2183  0.1895 -0.2127
 1619BOLB   C2A38838  15.067  20.292  10.146  0.0684 -0.0843 -0.2045
 1619BOLB   C3A38839  15.058  20.207   9.726  0.2049  0.2420 -0.0738
 1619BOLB   C4A38840  14.814  20.344   9.420  0.2024  0.1383  0.1292
 1619BOLB   C1B38841  15.135  20.654  10.740 -0.1892  0.2994 -0.2145
 1619BOLB   C2B38842  15.188  20.733  10.308 -0.2253  0.0797  0.2191
 1619BOLB   C3B38843  15.074  20.845   9.987  0.1688  0.0683  0.0972
 1619BOLB   C4B38844  15.045  20.732   9.587  0.1261 -0.2043  0.1211
 1619BOLB   NC238845  13.852  21.984   7.660 -0.3993  0.0608  0.1216
 1619BOLB   PO238846  14.074  21.587   7.373 -0.2887  0.1632  0.2102
 1619BOLB   GL338847  14.145  21.632   7.786  0.2215 -0.0636 -0.1669
 1619BOLB   GL438848  13.844  21.514   7.919 -0.3314  0.1735 -0.0710
 1619BOLB   C1C38849  14.322  21.529   8.220 -0.1601  0.1072 -0.0544
 1619BOLB   C2C38850  14.438  21.324   8.650  0.0984  0.1685 -0.2029
 1619BOLB   C3C38851  14.445  20.964   8.964  0.1358 -0.2709  0.1636
 1619BOLB   C4C38852  14.629  20.619   9.249 -0.1437  0.0871  0.0453
 1619BOLB   C1D38853  13.669  21.124   7.998  0.2066  0.0382  0.2853
 1619BOLB   C2D38854  13.694  20.679   8.233  0.1512 -0.1544  0.0055
 1619BOLB   C3D38855  13.603  20.322   8.131  0.1696 -0.0417  0.1407
 1619BOLB   C4D38856  13.456  19.873   8.413  0.0987 -0.4709  0.0339
 1620BOLB   NC138857  20.971  22.872  14.755 -0.1672  0.1142 -0.1389
 1620BOLB   PO138858  21.429  22.754  14.721 -0.0160  0.1090  0.1251
 1620BOLB   GL138859  21.877  22.843  14.543 -0.3952  0.1105  0.0490
 1620BOLB   GL238860  22.122  22.537  14.555  0.3135 -0.0272  0.0282
 1620BOLB   C1A38861  22.081  22.988  14.134  0.1378 -0.1149  0.1771
 1620BOLB   C2A38862  22.308  23.115  13.793 -0.0174 -0.1053  0.1242
 1620BOLB   C3A38863  22.619  23.147  13.459  0.1528  0.3146  0.0577
 1620BOLB   C4A38864  22.993  23.079  13.391 -0.3389  0.0491 -0.0148
 1620BOLB   C1B38865  22.577  22.533  14.511 -0.0021 -0.1233 -0.2462
 1620BOLB   C2B38866  22.850  22.856  14.564  0.0926  0.1633  0.0184
 1620BOLB   C3B38867  23.114  22.852  14.209  0.0036 -0.3542  0.0344
 1620BOLB   C4B38868  23.318  23.080  13.883  0.0262  0.2345  0.2709
 1620BOLB   NC238869  24.575  23.709  12.507  0.0648 -0.0795 -0.2842
 1620BOLB   PO238870  24.684  23.287  12.595  0.1544  0.1438 -0.0746
 1620BOLB   GL338871  24.385  23.125  12.650  0.4255 -0.2587 -0.4807
 1620BOLB   GL438872  24.151  22.961  12.518 -0.2949 -0.0969  0.0584
 1620BOLB   C1C38873  24.350  22.769  12.951 -0.1066 -0.0515 -0.5788
 1620BOLB   C2C38874  24.073  22.856  13.289  0.1955  0.0062 -0.0329
 1620BOLB   C3C38875  23.637  22.842  13.422  0.1450  0.1540 -0.3256
 1620BOLB   C4C38876  23.266  23.096  13.324 -0.0694 -0.0756  0.1743
 1620BOLB   C1D38877  23.753  22.693  12.433 -0.1945 -0.3617  0.0317
 1620BOLB   C2D38878  23.457  22.414  12.454 -0.1877 -0.2370  0.1916
 1620BOLB   C3D38879  23.375  22.212  12.834  0.1393 -0.2182 -0.1870
 1620BOLB   C4D38880  23.280  21.903  13.291  0.4141 -0.3617 -0.1958
 1621BOLB   NC138881  15.613   6.974  14.040  0.0513  0.0721  0.3273
 1621BOLB   PO138882  15.884   7.177  14.255  0.0248  0.0132  0.0146
 1621BOLB   GL138883  16.104   7.009  13.910  0.1768 -0.5318 -0.1871
 1621BOLB   GL238884  16.133   6.686  14.007  0.1198  0.1879 -0.1399
 1621BOLB   C1A38885  16.116   6.959  13.484  0.2206 -0.2963  0.3616
 1621BOLB   C2A38886  16.191   6.755  13.005 -0.0046  0.3402  0.3922
 1621BOLB   C3A38887  16.458   6.596  12.751 -0.0535 -0.1193  0.3975
 1621BOLB   C4A38888  16.666   6.430  12.407  0.0542  0.3498 -0.0788
 1621BOLB   C1B38889  16.472   6.662  13.639 -0.2122  0.0918 -0.0977
 1621BOLB   C2B38890  16.639   6.524  13.196 -0.3134  0.1187  0.1107
 1621BOLB   C3B38891  16.858   6.280  12.882 -0.2221  0.0449  0.2899
 1621BOLB   C4B38892  16.965   6.090  12.500 -0.1510  0.1904 -0.2262
 1621BOLB   NC238893  17.974   5.395  10.688  0.0793 -0.3935 -0.0485
 1621BOLB   PO238894  17.574   5.456  10.474  0.0262 -0.0402  0.0297
 1621BOLB   GL338895  17.448   5.622  10.882  0.0377  0.0591  0.1167
 1621BOLB   GL438896  17.648   5.542  11.067 -0.1904  0.0039  0.0334
 1621BOLB   C1C38897  17.189   5.880  11.032  0.1400  0.0770 -0.0251
 1621BOLB   C2C38898  16.868   6.213  11.185 -0.1844  0.1718  0.1381
 1621BOLB   C3C38899  16.659   6.432  11.533 -0.0227  0.0269  0.0716
 1621BOLB   C4C38900  16.705   6.404  11.955  0.0515 -0.0665 -0.1545
 1621BOLB   C1D38901  17.978   5.679  11.285 -0.1348 -0.1871 -0.3177
 1621BOLB   C2D38902  17.723   6.000  11.560 -0.3882  0.2446 -0.0809
 1621BOLB   C3D38903  17.621   6.412  11.754 -0.0445 -0.0543  0.2437
 1621BOLB   C4D38904  17.862   6.774  11.809  0.0606 -0.2451 -0.0671
 1622BOLB   NC138905  12.959   8.024  12.298 -0.0636  0.1971 -0.0807
 1622BOLB   PO138906  13.272   7.671  12.389  0.0302  0.2021 -0.0918
 1622BOLB   GL138907  13.482   7.263  12.325  0.4371  0.1322  0.3062
 1622BOLB   GL238908  13.669   7.322  12.164  0.0838  0.0437 -0.0060
 1622BOLB   C1A38909  13.277   6.886  11.957 -0.4502  0.1802 -0.2537
 1622BOLB   C2A38910  13.354   6.846  11.435  0.0626 -0.1843  0.2490
 1622BOLB   C3A38911  13.058   7.027  11.090  0.1462  0.2415  0.1575
 1622BOLB   C4A38912  13.165   7.079  10.671  0.0443  0.1248 -0.0996
 1622BOLB   C1B38913  13.583   7.341  11.792 -0.0833  0.0724 -0.0678
 1622BOLB   C2B38914  13.691   7.396  11.415 -0.1337 -0.5867 -0.1366
 1622BOLB   C3B38915  13.782   7.630  11.041  0.1272  0.1691  0.0728
 1622BOLB   C4B38916  13.755   7.656  10.630  0.0178  0.2882 -0.0204
 1622BOLB   NC238917  13.426   6.343   8.080  0.3145  0.1970  0.1999
 1622BOLB   PO238918  13.480   6.099   8.451 -0.0128 -0.0049  0.0994
 1622BOLB   GL338919  13.452   6.138   8.933 -0.0237 -0.0330  0.0216
 1622BOLB   GL438920  13.506   5.828   9.071  0.1535  0.1956  0.3222
 1622BOLB   C1C38921  13.329   6.306   9.415  0.0779  0.1160 -0.1902
 1622BOLB   C2C38922  13.073   6.559   9.679  0.3762 -0.1328 -0.3670
 1622BOLB   C3C38923  13.026   6.884   9.857 -0.0216 -0.2344 -0.3492
 1622BOLB   C4C38924  12.964   7.127  10.269 -0.0619  0.1365  0.1420
 1622BOLB   C1D38925  13.685   5.973   9.438  0.0307  0.2363 -0.0496
 1622BOLB   C2D38926  14.079   5.982   9.644  0.0052 -0.0216  0.0539
 1622BOLB   C3D38927  14.357   5.940   9.858  0.1431  0.1405  0.0854
 1622BOLB   C4D38928  14.631   5.593  10.026  0.0938  0.0306  0.1118
 1623BOLB   NC138929  13.267   6.655  12.846 -0.3227 -0.3940 -0.1294
 1623BOLB   PO138930  13.202   6.267  12.805 -0.0743  0.1435  0.2185
 1623BOLB   GL138931  13.268   5.895  12.595  0.2100 -0.2361  0.3893
 1623BOLB   GL238932  13.580   5.864  12.593 -0.0855  0.1734 -0.1566
 1623BOLB   C1A38933  13.177   5.585  12.224  0.3915 -0.0114 -0.1305
 1623BOLB   C2A38934  13.633   5.584  12.091 -0.0888  0.0669  0.2246
 1623BOLB   C3A38935  13.956   5.850  11.933 -0.2689  0.0777  0.1014
 1623BOLB   C4A38936  14.265   5.881  11.636  0.4204  0.0987 -0.1868
 1623BOLB   C1B38937  13.508   6.089  12.199 -0.0796 -0.0848 -0.0319
 1623BOLB   C2B38938  13.544   6.275  11.837 -0.0152  0.0392 -0.1210
 1623BOLB   C3B38939  13.551   6.387  11.470 -0.0419 -0.3564 -0.2724
 1623BOLB   C4B38940  13.679   6.231  11.061 -0.0415 -0.0335  0.0693
 1623BOLB   NC238941  14.332   3.871   9.917 -0.1649 -0.2197 -0.0477
 1623BOLB   PO238942  14.635   4.291   9.795  0.0707 -0.1773 -0.3582
 1623BOLB   GL338943  14.439   4.736  10.020  0.1926 -0.4229 -0.2510
 1623BOLB   GL438944  14.557   5.014   9.787 -0.0457  0.2426  0.0556
 1623BOLB   C1C38945  14.533   4.893  10.427  0.4146  0.1006  0.2634
 1623BOLB   C2C38946  14.655   5.141  10.877  0.0259 -0.2103  0.1961
 1623BOLB   C3C38947  14.822   5.428  11.098  0.1538 -0.0567 -0.2130
 1623BOLB   C4C38948  14.624   5.743  11.379  0.1144 -0.0253  0.3872
 1623BOLB   C1D38949  14.022   5.047   9.927  0.0084 -0.0059 -0.0453
 1623BOLB   C2D38950  13.663   5.229  10.271  0.2747  0.1688  0.2519
 1623BOLB   C3D38951  13.665   5.060  10.651  0.0908 -0.0942 -0.0615
 1623BOLB   C4D38952  13.730   4.581  10.846 -0.1330  0.1813 -0.2187
 1624BOLB   NC138953  17.882   4.226  15.222  0.1346  0.2077  0.1189
 1624BOLB   PO138954  17.559   4.274  15.516  0.0072 -0.3224  0.2429
 1624BOLB   GL138955  17.978   4.487  15.617 -0.2537 -0.0247 -0.2123
 1624BOLB   GL238956  18.000   4.636  15.969 -0.0840 -0.1024 -0.1675
 1624BOLB   C1A38957  18.305   4.662  15.434  0.0575  0.2157 -0.0848
 1624BOLB   C2A38958  18.374   4.649  15.056  0.2887 -0.3649  0.0013
 1624BOLB   C3A38959  18.281   4.860  14.708  0.0140 -0.1144 -0.3892
 1624BOLB   C4A38960  18.268   5.017  14.290 -0.1422  0.0407 -0.0035
 1624BOLB   C1B38961  17.934   4.965  15.641 -0.3756 -0.1036  0.1137
 1624BOLB   C2B38962  17.956   5.080  15.173  0.0566 -0.1377  0.1141
 1624BOLB   C3B38963  17.943   5.374  14.796 -0.1173 -0.0508  0.0311
 1624BOLB   C4B38964  18.002   5.373  14.447 -0.2722 -0.6295 -0.1050
 1624BOLB   NC238965  17.346   3.373  12.477 -0.4048 -0.1449 -0.2137
 1624BOLB   PO238966  17.540   3.471  12.904 -0.2148  0.1582 -0.2979
 1624BOLB   GL338967  17.671   3.952  13.049 -0.1387  0.0600  0.3031
 1624BOLB   GL438968  17.758   4.170  12.740 -0.4336  0.0378 -0.1221
 1624BOLB   C1C38969  17.948   4.124  13.208 -0.1465  0.4934  0.3144
 1624BOLB   C2C38970  18.288   4.247  13.500  0.2098 -0.1612 -0.0716
 1624BOLB   C3C38971  18.406   4.751  13.623  0.0709  0.3229 -0.0749
 1624BOLB   C4C38972  18.373   4.993  13.903 -0.1449 -0.1935 -0.0620
 1624BOLB   C1D38973  17.655   4.378  12.457  0.0702 -0.1419  0.1194
 1624BOLB   C2D38974  17.301   4.641  12.315 -0.1290  0.0787  0.0837
 1624BOLB   C3D38975  17.251   5.080  12.217 -0.2470 -0.3535 -0.0244
 1624BOLB   C4D38976  17.288   5.304  11.944  0.0318  0.1935  0.2010
 1625BOLB   NC138977  14.041   6.581  13.531 -0.0710  0.0075 -0.1778
 1625BOLB   PO138978  14.393   6.223  13.576 -0.2725  0.1320 -0.1055
 1625BOLB   GL138979  14.767   6.474  13.308 -0.0815  0.1580 -0.3771
 1625BOLB   GL238980  14.722   6.477  12.925 -0.1913  0.2169  0.0033
 1625BOLB   C1A38981  15.152   6.416  13.098  0.3617  0.3005 -0.1361
 1625BOLB   C2A38982  15.348   6.243  12.646  0.5964  0.4380 -0.0102
 1625BOLB   C3A38983  15.550   6.201  12.255  0.2581  0.0367 -0.1981
 1625BOLB   C4A38984  16.036   6.138  12.056 -0.2851 -0.2508 -0.2881
 1625BOLB   C1B38985  14.857   6.732  12.525  0.0586 -0.0739  0.0873
 1625BOLB   C2B38986  15.061   6.513  12.159 -0.0746  0.0989  0.1188
 1625BOLB   C3B38987  15.306   6.373  11.858  0.0239 -0.1862 -0.1250
 1625BOLB   C4B38988  15.528   6.104  11.730 -0.0020  0.2341 -0.0246
 1625BOLB   NC238989  17.289   6.333   9.720  0.1099  0.1248  0.0488
 1625BOLB   PO238990  17.043   6.003   9.782  0.1721 -0.1684  0.1648
 1625BOLB   GL338991  16.912   5.814  10.152 -0.0519 -0.3707  0.0031
 1625BOLB   GL438992  16.597   5.888  10.223 -0.0201  0.0458  0.0772
 1625BOLB   C1C38993  16.992   5.806  10.556  0.0352 -0.0743  0.0716
 1625BOLB   C2C38994  16.706   5.931  10.844 -0.0284  0.1183  0.0153
 1625BOLB   C3C38995  16.442   5.951  11.258  0.1165 -0.0999  0.0702
 1625BOLB   C4C38996  16.179   5.987  11.650 -0.1889 -0.1197 -0.0010
 1625BOLB   C1D38997  16.349   6.104  10.559 -0.0849 -0.0968  0.0048
 1625BOLB   C2D38998  16.282   6.218  10.913  0.2323 -0.1336  0.1384
 1625BOLB   C3D38999  16.187   6.389  11.287  0.0273  0.2714 -0.0672
 1625BOLB   C4D39000  16.114   6.486  11.700 -0.1535 -0.3315  0.1531
 1626BOLB   NC139001  14.857   6.414  13.812 -0.0382 -0.1868 -0.0608
 1626BOLB   PO139002  15.201   6.681  13.851 -0.3937  0.3538  0.1629
 1626BOLB   GL139003  15.393   6.352  13.557 -0.0167  0.1362  0.1896
 1626BOLB   GL239004  15.426   6.026  13.608  0.0804 -0.3194 -0.0921
 1626BOLB   C1A39005  15.627   6.233  13.216  0.2339  0.1035  0.0307
 1626BOLB   C2A39006  15.712   5.929  12.855 -0.1507  0.0736  0.2835
 1626BOLB   C3A39007  15.976   5.909  12.522 -0.0835 -0.1449 -0.2622
 1626BOLB   C4A39008  16.308   5.811  12.347 -0.1608 -0.0672 -0.0759
 1626BOLB   C1B39009  15.163   5.972  13.295  0.0606  0.1495 -0.2714
 1626BOLB   C2B39010  15.245   5.889  12.992 -0.4667 -0.0843  0.3070
 1626BOLB   C3B39011  15.159   5.716  12.560 -0.0310 -0.0637 -0.3575
 1626BOLB   C4B39012  14.847   5.477  12.212 -0.3005  0.0369  0.1086
 1626BOLB   NC239013  16.467   4.063  10.672  0.0408 -0.0159 -0.1783
 1626BOLB   PO239014  16.423   4.441  10.484  0.0430 -0.3997  0.1577
 1626BOLB   GL339015  16.578   4.821  10.708 -0.0529 -0.1444 -0.3003
 1626BOLB   GL439016  16.725   5.086  10.662 -0.1333 -0.3640  0.0359
 1626BOLB   C1C39017  16.489   5.085  11.069 -0.0323 -0.0141  0.0790
 1626BOLB   C2C39018  16.493   5.235  11.471  0.1409  0.0793  0.2089
 1626BOLB   C3C39019  16.420   5.518  11.629  0.1383  0.3249  0.4492
 1626BOLB   C4C39020  16.368   5.662  11.965 -0.0201 -0.3905 -0.2962
 1626BOLB   C1D39021  16.964   5.393  10.878  0.1345 -0.1158  0.1087
 1626BOLB   C2D39022  16.801   5.622  11.238  0.0273  0.1096 -0.2112
 1626BOLB   C3D39023  16.859   5.724  11.685  0.1629 -0.0503 -0.0220
 1626BOLB   C4D39024  16.831   5.869  12.099 -0.1784  0.2197  0.1011
 1627BOLB   NC139025  20.176   9.156  15.363  0.1965  0.2440 -0.2622
 1627BOLB   PO139026  20.055   8.791  15.633  0.2388 -0.0294 -0.1588
 1627BOLB   GL139027  20.265   8.456  15.391  0.0814  0.1222 -0.2309
 1627BOLB   GL239028  20.189   8.173  15.684 -0.1613 -0.1322  0.1424
 1627BOLB   C1A39029  20.495   8.070  15.253 -0.0041 -0.1737 -0.1041
 1627BOLB   C2A39030  20.694   7.614  15.149  0.2665  0.1946  0.3545
 1627BOLB   C3A39031  20.905   7.214  15.054  0.2718  0.4064 -0.0571
 1627BOLB   C4A39032  21.258   7.133  14.832 -0.2598  0.0523 -0.2824
 1627BOLB   C1B39033  20.511   7.942  15.745 -0.1903 -0.3481  0.3047
 1627BOLB   C2B39034  20.822   7.590  15.779  0.2953  0.0359  0.2560
 1627BOLB   C3B39035  21.051   7.290  15.572  0.2645  0.3391  0.0223
 1627BOLB   C4B39036  21.249   7.016  15.329 -0.1797  0.1631  0.2432
 1627BOLB   NC239037  22.110   6.267  12.636 -0.0164 -0.3221 -0.1303
 1627BOLB   PO239038  21.715   6.047  12.903  0.1229 -0.0139  0.1795
 1627BOLB   GL339039  22.018   6.144  13.235  0.0602 -0.0899  0.2874
 1627BOLB   GL439040  21.982   6.508  13.112 -0.2822  0.0669 -0.0198
 1627BOLB   C1C39041  22.014   6.373  13.681  0.0489  0.0519 -0.0339
 1627BOLB   C2C39042  22.006   6.513  14.175  0.0994  0.2165  0.1465
 1627BOLB   C3C39043  21.941   6.766  14.504 -0.1031  0.1927 -0.0626
 1627BOLB   C4C39044  21.661   6.976  14.784  0.0715  0.0025  0.2906
 1627BOLB   C1D39045  21.597   6.607  13.332 -0.1400 -0.2879  0.0053
 1627BOLB   C2D39046  21.168   6.389  13.349 -0.2089  0.0205 -0.3755
 1627BOLB   C3D39047  20.843   6.585  13.535  0.2365 -0.3208 -0.0197
 1627BOLB   C4D39048  20.822   7.001  13.620 -0.1538 -0.1042  0.0467
 1628BOLB   NC139049  12.918   4.830  12.315 -0.1740 -0.1972 -0.3681
 1628BOLB   PO139050  13.294   4.975  12.354 -0.0080 -0.1285  0.1445
 1628BOLB   GL139051  13.291   5.224  11.860 -0.1820  0.2054  0.0081
 1628BOLB   GL239052  13.294   5.051  11.560 -0.1150 -0.0040  0.2948
 1628BOLB   C1A39053  13.694   5.394  11.592  0.1071 -0.0673 -0.0283
 1628BOLB   C2A39054  14.023   5.369  11.401  0.5319 -0.3605  0.3792
 1628BOLB   C3A39055  14.453   5.206  11.353  0.3194  0.1964  0.0247
 1628BOLB   C4A39056  14.925   4.921  11.241  0.1579 -0.0382  0.1207
 1628BOLB   C1B39057  13.661   4.874  11.315 -0.0643 -0.0439  0.0186
 1628BOLB   C2B39058  14.041   4.757  11.338 -0.0710 -0.2562  0.0163
 1628BOLB   C3B39059  14.481   4.737  11.163  0.0638 -0.1411 -0.0413
 1628BOLB   C4B39060  14.735   4.692  10.839  0.0409  0.0447 -0.0808
 1628BOLB   NC239061  16.981   3.621  11.092  0.0139  0.1975 -0.0205
 1628BOLB   PO239062  16.771   3.880  11.037  0.0242 -0.0683 -0.1838
 1628BOLB   GL339063  16.502   4.256  11.143  0.0204  0.0208  0.0917
 1628BOLB   GL439064  16.237   4.408  10.954 -0.4570  0.5044  0.1892
 1628BOLB   C1C39065  16.322   4.632  11.406  0.0007  0.0965  0.1317
 1628BOLB   C2C39066  15.987   4.976  11.370 -0.2106  0.0767  0.5358
 1628BOLB   C3C39067  15.652   5.071  11.492 -0.0787 -0.2926 -0.2468
 1628BOLB   C4C39068  15.263   4.960  11.520 -0.0370  0.0425 -0.1163
 1628BOLB   C1D39069  15.884   4.377  11.238 -0.0006 -0.1565 -0.1195
 1628BOLB   C2D39070  15.580   4.454  11.574  0.2762 -0.0735  0.1522
 1628BOLB   C3D39071  15.152   4.439  11.536 -0.4924 -0.1450 -0.0845
 1628BOLB   C4D39072  14.713   4.403  11.490 -0.0502 -0.1149  0.0626
 1629BOLB   NC139073  15.694   7.636  13.353 -0.1873  0.5024 -0.0817
 1629BOLB   PO139074  15.326   7.868  13.193  0.1052 -0.1709 -0.0241
 1629BOLB   GL139075  15.349   7.871  12.729  0.2028 -0.0108  0.2467
 1629BOLB   GL239076  15.624   7.698  12.482 -0.3646 -0.0961 -0.2606
 1629BOLB   C1A39077  15.187   7.693  12.359 -0.2197 -0.0659 -0.5072
 1629BOLB   C2A39078  15.040   7.704  11.970 -0.1881  0.1491  0.2237
 1629BOLB   C3A39079  15.160   7.942  11.481 -0.1495 -0.0699  0.0068
 1629BOLB   C4A39080  15.263   7.882  11.027 -0.2897 -0.0188  0.2956
 1629BOLB   C1B39081  16.054   7.619  12.576  0.0325  0.2177  0.2701
 1629BOLB   C2B39082  16.307   7.438  12.279 -0.2985  0.1673 -0.2025
 1629BOLB   C3B39083  16.419   7.185  11.884  0.1043 -0.1859  0.1533
 1629BOLB   C4B39084  16.750   7.170  11.491 -0.1511  0.3328 -0.5943
 1629BOLB   NC239085  16.745   7.984   8.686 -0.1734  0.2983 -0.1756
 1629BOLB   PO239086  16.521   7.602   8.823 -0.0254  0.3511  0.1706
 1629BOLB   GL339087  16.338   7.642   9.191 -0.3156  0.1678  0.1860
 1629BOLB   GL439088  16.560   7.783   9.462 -0.0095 -0.1040  0.0515
 1629BOLB   C1C39089  16.024   7.668   9.527  0.0156  0.0438  0.1071
 1629BOLB   C2C39090  15.853   7.761   9.937 -0.1215  0.3017  0.1465
 1629BOLB   C3C39091  15.444   7.672  10.165  0.1848 -0.0101  0.2858
 1629BOLB   C4C39092  15.175   7.740  10.572 -0.0892  0.0434 -0.0078
 1629BOLB   C1D39093  16.381   7.692   9.875 -0.0224  0.2589  0.0838
 1629BOLB   C2D39094  16.297   7.354  10.068 -0.1177 -0.3309 -0.1372
 1629BOLB   C3D39095  16.265   7.155  10.460 -0.2090 -0.1874 -0.0438
 1629BOLB   C4D39096  15.912   7.141  10.733 -0.0056 -0.2664  0.1507
 1630BOLB   NC139097  10.924   6.150  12.124  0.0624 -0.0161  0.0760
 1630BOLB   PO139098  10.738   6.484  11.884  0.1240  0.0891  0.2047
 1630BOLB   GL139099  11.089   6.679  11.642 -0.1348  0.1148 -0.1097
 1630BOLB   GL239100  11.473   6.798  11.574 -0.0322  0.0452  0.0291
 1630BOLB   C1A39101  11.039   7.002  11.211  0.2186  0.2211 -0.2537
 1630BOLB   C2A39102  11.163   7.007  10.853  0.0106  0.1115 -0.3041
 1630BOLB   C3A39103  11.210   7.401  10.627 -0.0049  0.2272  0.0269
 1630BOLB   C4A39104  11.350   7.455  10.271  0.2395  0.0330  0.1884
 1630BOLB   C1B39105  11.531   7.021  11.226 -0.2055 -0.0674 -0.1095
 1630BOLB   C2B39106  11.614   7.355  10.940  0.0461  0.1127  0.1585
 1630BOLB   C3B39107  11.717   7.532  10.563 -0.0776 -0.0309  0.1437
 1630BOLB   C4B39108  11.399   7.935  10.373  0.2358 -0.2313  0.1367
 1630BOLB   NC239109  10.579   6.181   8.468  0.2073  0.2585  0.0846
 1630BOLB   PO239110  10.910   6.216   8.627 -0.4268  0.0542 -0.0722
 1630BOLB   GL339111  10.952   6.609   8.918  0.2477  0.0032  0.2254
 1630BOLB   GL439112  11.295   6.819   8.920 -0.2429 -0.3471 -0.1720
 1630BOLB   C1C39113  10.991   7.042   9.208 -0.0149 -0.0488  0.2522
 1630BOLB   C2C39114  11.108   7.452   9.460 -0.1215  0.2021  0.4631
 1630BOLB   C3C39115  11.436   7.624   9.635  0.1923 -0.3553  0.3193
 1630BOLB   C4C39116  11.588   7.541  10.003  0.0580  0.0542 -0.3962
 1630BOLB   C1D39117  11.242   6.642   9.270  0.1679  0.0598 -0.0025
 1630BOLB   C2D39118  11.104   6.315   9.452  0.1514  0.1456 -0.1225
 1630BOLB   C3D39119  10.736   6.259   9.659  0.1259  0.2486  0.2144
 1630BOLB   C4D39120  10.431   6.430   9.835 -0.3023  0.0693  0.0260
 1631BOLB   NC139121  13.121   7.503  12.803  0.1047  0.0352 -0.1578
 1631BOLB   PO139122  13.071   7.136  12.610 -0.2452  0.1726 -0.0501
 1631BOLB   GL139123  12.898   7.200  12.120  0.2872 -0.4802 -0.0561
 1631BOLB   GL239124  12.534   7.085  12.028 -0.0034  0.1300  0.0738
 1631BOLB   C1A39125  13.067   7.281  11.591  0.0190 -0.2128 -0.2067
 1631BOLB   C2A39126  13.293   7.549  11.225 -0.0654  0.1002  0.1745
 1631BOLB   C3A39127  13.291   7.601  10.778  0.2772  0.1707 -0.0007
 1631BOLB   C4A39128  13.375   7.524  10.336  0.1973  0.0060 -0.2783
 1631BOLB   C1B39129  12.460   7.331  11.649  0.0321  0.3811 -0.0662
 1631BOLB   C2B39130  12.544   7.172  11.239  0.0097 -0.1255 -0.1353
 1631BOLB   C3B39131  12.620   7.143  10.841  0.2342  0.0820 -0.0999
 1631BOLB   C4B39132  12.517   6.968  10.419 -0.0987 -0.1990  0.1167
 1631BOLB   NC239133  14.356   7.082   8.076 -0.1913 -0.0214  0.1835
 1631BOLB   PO239134  14.491   7.323   8.361 -0.0232  0.0154 -0.0538
 1631BOLB   GL339135  14.425   7.493   8.745 -0.0474  0.2098  0.3597
 1631BOLB   GL439136  14.693   7.501   8.899 -0.0710  0.2066 -0.0734
 1631BOLB   C1C39137  14.187   7.605   8.996 -0.0146 -0.1218 -0.0726
 1631BOLB   C2C39138  14.253   7.723   9.359 -0.0681  0.4643 -0.2781
 1631BOLB   C3C39139  14.088   7.606   9.726 -0.0437  0.1087  0.0373
 1631BOLB   C4C39140  13.738   7.581  10.056  0.0890  0.4109 -0.0232
 1631BOLB   C1D39141  14.723   7.904   9.004 -0.1169 -0.1464 -0.3620
 1631BOLB   C2D39142  14.559   8.233   9.382  0.4196 -0.1334 -0.1916
 1631BOLB   C3D39143  14.514   8.378   9.753 -0.3189  0.4925 -0.0935
 1631BOLB   C4D39144  14.296   8.524  10.050  0.1306 -0.1438 -0.0621
 1632BOLB   NC139145  11.215   5.171  11.108  0.5923 -0.0294  0.0892
 1632BOLB   PO139146  11.025   5.442  10.861  0.0207 -0.0247 -0.3146
 1632BOLB   GL139147  11.459   5.651  10.738  0.1883  0.3953  0.1827
 1632BOLB   GL239148  11.391   5.436  10.467  0.4243 -0.0055  0.1069
 1632BOLB   C1A39149  11.892   5.609  10.793  0.0940 -0.0808 -0.0191
 1632BOLB   C2A39150  12.272   5.501  10.699 -0.1587 -0.1658 -0.0038
 1632BOLB   C3A39151  12.584   5.761  10.514  0.0434 -0.1818 -0.2029
 1632BOLB   C4A39152  12.451   5.988  10.154 -0.1155 -0.3191  0.1271
 1632BOLB   C1B39153  11.345   5.516  10.020 -0.2700  0.1225 -0.1828
 1632BOLB   C2B39154  11.519   5.621   9.630  0.1399  0.2759 -0.0425
 1632BOLB   C3B39155  11.938   5.891   9.444  0.0627  0.3200 -0.1949
 1632BOLB   C4B39156  12.396   6.022   9.282 -0.0260 -0.1658 -0.0965
 1632BOLB   NC239157  10.095   5.548   9.688 -0.1111  0.1889 -0.2731
 1632BOLB   PO239158  10.354   5.495  10.127 -0.2071  0.0289  0.0905
 1632BOLB   GL339159  10.711   5.859  10.149  0.2556  0.1047 -0.1153
 1632BOLB   GL439160  11.078   5.862  10.449  0.2057 -0.1743 -0.0031
 1632BOLB   C1C39161  11.065   5.958   9.988  0.0054  0.1091 -0.0229
 1632BOLB   C2C39162  11.400   6.104   9.777  0.0690 -0.2421  0.1946
 1632BOLB   C3C39163  11.897   6.226   9.821  0.0020  0.1995  0.2992
 1632BOLB   C4C39164  12.227   6.254   9.884  0.0472  0.2466 -0.0802
 1632BOLB   C1D39165  11.187   6.325  10.292  0.0485  0.1186  0.1192
 1632BOLB   C2D39166  11.361   6.569   9.874  0.2848  0.2044  0.1232
 1632BOLB   C3D39167  11.615   6.400   9.411 -0.3612  0.0983 -0.1841
 1632BOLB   C4D39168  11.795   6.376   8.999 -0.1552  0.2282 -0.0264
 1633BOLB   NC139169  17.564   3.720  15.400 -0.0474  0.0351  0.0319
 1633BOLB   PO139170  17.553   3.882  14.929 -0.2286  0.1894  0.0365
 1633BOLB   GL139171  17.907   4.033  14.747  0.2088  0.0573  0.2434
 1633BOLB   GL239172  18.116   4.309  14.803  0.1875 -0.2203  0.0708
 1633BOLB   C1A39173  18.160   4.265  14.340  0.2369  0.0532  0.3334
 1633BOLB   C2A39174  18.170   4.543  13.973 -0.0424  0.1338 -0.1424
 1633BOLB   C3A39175  17.920   4.615  13.648  0.0131  0.1637  0.0514
 1633BOLB   C4A39176  17.717   4.545  13.347 -0.3119  0.1390 -0.0871
 1633BOLB   C1B39177  18.528   4.264  14.679 -0.0343  0.0535  0.3091
 1633BOLB   C2B39178  18.958   4.243  14.855  0.1534  0.1994  0.1064
 1633BOLB   C3B39179  19.331   4.213  15.253  0.0746 -0.1149 -0.0203
 1633BOLB   C4B39180  19.296   4.564  15.518  0.2245  0.1262 -0.1671
 1633BOLB   NC239181  18.110   3.689  11.813  0.2732 -0.2061  0.1968
 1633BOLB   PO239182  17.841   4.093  11.616 -0.1789  0.1449  0.1423
 1633BOLB   GL339183  18.046   4.244  12.001  0.0183  0.0170  0.0565
 1633BOLB   GL439184  18.047   4.248  12.202 -0.2035 -0.0787  0.3156
 1633BOLB   C1C39185  17.866   4.641  12.014  0.2339 -0.4398 -0.2918
 1633BOLB   C2C39186  17.752   4.881  12.211  0.2114 -0.0679  0.0284
 1633BOLB   C3C39187  17.626   4.899  12.589 -0.3865  0.2302  0.0002
 1633BOLB   C4C39188  17.804   4.644  12.917  0.3196  0.0104 -0.0746
 1633BOLB   C1D39189  18.127   4.573  12.526  0.2576 -0.0075  0.1214
 1633BOLB   C2D39190  18.451   4.587  12.765 -0.1105 -0.1966 -0.1314
 1633BOLB   C3D39191  18.689   4.806  13.155 -0.3355 -0.0274  0.2292
 1633BOLB   C4D39192  19.007   4.766  13.456 -0.2523  0.2926  0.1793
 1634BOLB   NC139193  19.740   8.338  15.879 -0.1125 -0.1027 -0.1521
 1634BOLB   PO139194  20.102   8.265  16.166  0.1666 -0.0305  0.0420
 1634BOLB   GL139195  19.998   7.871  16.044  0.0933  0.1991  0.1796
 1634BOLB   GL239196  20.232   7.785  16.186 -0.0566  0.0202 -0.1839
 1634BOLB   C1A39197  20.088   7.619  15.709 -0.0347  0.1938  0.3068
 1634BOLB   C2A39198  20.409   7.378  15.547 -0.0820 -0.1769 -0.0317
 1634BOLB   C3A39199  20.637   6.959  15.439 -0.3501  0.0802  0.1250
 1634BOLB   C4A39200  20.865   6.742  15.378  0.0256 -0.0918  0.1129
 1634BOLB   C1B39201  20.426   7.456  16.015  0.2540 -0.0539 -0.3706
 1634BOLB   C2B39202  20.705   7.109  15.941  0.2832 -0.2615  0.1968
 1634BOLB   C3B39203  21.080   6.833  15.883 -0.0961 -0.0562 -0.2523
 1634BOLB   C4B39204  21.265   6.395  15.965  0.2428 -0.3241 -0.2495
 1634BOLB   NC239205  22.280   5.006  15.099  0.1802 -0.1373  0.2290
 1634BOLB   PO239206  22.573   5.000  15.350  0.3199 -0.1164 -0.0200
 1634BOLB   GL339207  22.476   5.366  15.563 -0.0152  0.2187 -0.2651
 1634BOLB   GL439208  22.689   5.580  15.479 -0.3000  0.0049 -0.1065
 1634BOLB   C1C39209  22.147   5.701  15.526 -0.1439  0.1470  0.2246
 1634BOLB   C2C39210  21.876   5.992  15.337  0.0814  0.1126 -0.3110
 1634BOLB   C3C39211  21.505   6.217  15.464 -0.2862  0.0581  0.0627
 1634BOLB   C4C39212  21.182   6.517  15.458  0.1093 -0.0938 -0.3105
 1634BOLB   C1D39213  22.568   5.848  15.766 -0.0964  0.2749 -0.1606
 1634BOLB   C2D39214  22.593   5.788  16.281  0.3601 -0.2931 -0.1508
 1634BOLB   C3D39215  22.445   5.773  16.719 -0.0638  0.0437 -0.0939
 1634BOLB   C4D39216  22.250   5.902  17.119 -0.0698  0.1216  0.1002
 1635BOLB   NC139217  13.366   4.149  11.490 -0.0576  0.1037  0.3182
 1635BOLB   PO139218  13.772   4.127  11.802  0.0010 -0.0440 -0.1360
 1635BOLB   GL139219  13.780   4.507  11.762  0.1297 -0.0207  0.0787
 1635BOLB   GL239220  14.158   4.481  11.882 -0.1220  0.1895  0.1341
 1635BOLB   C1A39221  13.878   5.003  11.798  0.1045 -0.2941  0.0440
 1635BOLB   C2A39222  14.149   5.364  11.857  0.0696  0.2702 -0.0922
 1635BOLB   C3A39223  14.521   5.440  11.813  0.0992  0.2598 -0.3210
 1635BOLB   C4A39224  15.004   5.408  11.711 -0.0426  0.2692 -0.1614
 1635BOLB   C1B39225  14.560   4.483  12.071 -0.1400 -0.0864  0.0823
 1635BOLB   C2B39226  14.956   4.399  11.988 -0.0976  0.5138  0.0310
 1635BOLB   C3B39227  15.294   4.167  11.955 -0.0435 -0.2876 -0.2340
 1635BOLB   C4B39228  15.670   3.969  11.852 -0.0669  0.0561 -0.1599
 1635BOLB   NC239229  16.231   4.408   9.963 -0.0217  0.0673  0.0451
 1635BOLB   PO239230  16.239   4.857   9.743  0.0922 -0.0560  0.1876
 1635BOLB   GL339231  15.883   4.799  10.070 -0.1759  0.2289  0.4129
 1635BOLB   GL439232  15.979   4.633  10.368 -0.2674  0.0134 -0.4404
 1635BOLB   C1C39233  15.612   5.016  10.405 -0.1242 -0.4088  0.2166
 1635BOLB   C2C39234  15.721   5.316  10.754 -0.3488  0.0831 -0.1204
 1635BOLB   C3C39235  15.611   5.445  11.124 -0.3482 -0.0350 -0.0351
 1635BOLB   C4C39236  15.347   5.440  11.378  0.3393  0.1040 -0.0826
 1635BOLB   C1D39237  15.793   4.404  10.691  0.2023  0.0809  0.2407
 1635BOLB   C2D39238  15.552   4.058  10.946 -0.0576 -0.1828  0.3118
 1635BOLB   C3D39239  15.429   3.677  11.045 -0.1770 -0.3502 -0.1766
 1635BOLB   C4D39240  15.648   3.364  11.220 -0.0019 -0.2166  0.0369
 1636BOLB   NC139241  18.334   7.416  15.062 -0.1943  0.0297 -0.2034
 1636BOLB   PO139242  18.495   7.578  15.433  0.2070 -0.0244  0.1720
 1636BOLB   GL139243  18.871   7.452  15.110 -0.3317 -0.0359  0.0694
 1636BOLB   GL239244  18.705   7.126  15.246  0.0648  0.1086 -0.1000
 1636BOLB   C1A39245  18.979   7.278  14.626 -0.0292 -0.2736  0.3198
 1636BOLB   C2A39246  19.161   6.940  14.423 -0.0924 -0.0423  0.2031
 1636BOLB   C3A39247  19.346   6.730  14.043  0.1139  0.1196 -0.1962
 1636BOLB   C4A39248  19.701   6.662  13.782 -0.0973  0.1682  0.4677
 1636BOLB   C1B39249  18.900   6.912  15.025 -0.3866  0.3568 -0.1773
 1636BOLB   C2B39250  18.898   6.592  14.597 -0.3014 -0.2309 -0.0152
 1636BOLB   C3B39251  19.192   6.278  14.255 -0.0279 -0.1694 -0.0601
 1636BOLB   C4B39252  19.351   6.308  13.811 -0.1445 -0.1473  0.0615
 1636BOLB   NC239253  21.979   4.826  13.426 -0.0513  0.1669  0.1437
 1636BOLB   PO239254  21.559   5.031  13.416 -0.0336  0.0444 -0.1792
 1636BOLB   GL339255  21.198   5.303  13.605 -0.0968 -0.3354 -0.3895
 1636BOLB   GL439256  21.336   5.666  13.620  0.0526  0.1374 -0.2722
 1636BOLB   C1C39257  20.905   5.598  13.917 -0.2659  0.2352 -0.3449
 1636BOLB   C2C39258  20.480   5.859  13.951 -0.0912 -0.0548 -0.1638
 1636BOLB   C3C39259  20.385   6.168  13.776  0.0293  0.1734  0.1561
 1636BOLB   C4C39260  20.012   6.440  13.790 -0.2092  0.1542 -0.1624
 1636BOLB   C1D39261  21.277   5.958  14.061 -0.3245  0.1176  0.1151
 1636BOLB   C2D39262  21.130   6.291  14.339 -0.0421 -0.1600  0.0352
 1636BOLB   C3D39263  21.254   6.727  14.423  0.1590 -0.2590  0.3580
 1636BOLB   C4D39264  21.594   6.887  14.213  0.0489  0.1125  0.1387
 1637BOLB   NC139265  21.531   9.194  16.928 -0.0913 -0.2149 -0.1701
 1637BOLB   PO139266  21.578   8.941  16.681 -0.2469 -0.0702 -0.0434
 1637BOLB   GL139267  21.575   8.481  16.550  0.2722  0.3131  0.2011
 1637BOLB   GL239268  21.893   8.447  16.346 -0.0257  0.3899  0.1151
 1637BOLB   C1A39269  21.608   8.092  16.553 -0.1766 -0.2331 -0.0335
 1637BOLB   C2A39270  21.748   7.688  16.605  0.2670 -0.2028 -0.2545
 1637BOLB   C3A39271  21.942   7.330  16.559 -0.0249 -0.1459 -0.0028
 1637BOLB   C4A39272  21.787   6.906  16.771  0.1635 -0.0224 -0.1761
 1637BOLB   C1B39273  22.219   8.612  16.274 -0.2543  0.1303 -0.2849
 1637BOLB   C2B39274  22.637   8.626  16.424  0.0341  0.2149  0.1411
 1637BOLB   C3B39275  22.958   8.235  16.468  0.2594  0.0058 -0.0480
 1637BOLB   C4B39276  23.228   7.889  16.347  0.5571  0.2244 -0.2035
 1637BOLB   NC239277  21.553   4.255  16.052  0.0241  0.3013  0.1309
 1637BOLB   PO239278  21.759   4.478  16.438 -0.0123  0.1066 -0.0894
 1637BOLB   GL339279  21.768   4.833  16.510 -0.0105 -0.1113 -0.2550
 1637BOLB   GL439280  21.512   4.847  16.860  0.0817 -0.0263  0.3184
 1637BOLB   C1C39281  21.811   5.292  16.450  0.1605  0.1772  0.0660
 1637BOLB   C2C39282  21.971   5.757  16.488  0.1500 -0.0655  0.2245
 1637BOLB   C3C39283  21.928   5.998  16.715 -0.1066  0.1295  0.2216
 1637BOLB   C4C39284  21.978   6.431  16.806 -0.0602  0.1102  0.1583
 1637BOLB   C1D39285  21.493   5.229  16.891  0.1338  0.0405  0.3197
 1637BOLB   C2D39286  21.173   5.460  17.023 -0.1387  0.0612  0.0985
 1637BOLB   C3D39287  20.951   5.868  16.923 -0.1730 -0.0202  0.0804
 1637BOLB   C4D39288  20.706   6.205  17.088  0.0624 -0.2072 -0.0618
 1638BOLB   NC139289  16.297   6.962  14.408 -0.3839 -0.0135 -0.1084
 1638BOLB   PO139290  16.637   7.045  14.176 -0.0334 -0.0274 -0.0805
 1638BOLB   GL139291  16.956   6.995  14.023  0.0180  0.2005  0.2800
 1638BOLB   GL239292  17.124   6.670  14.070  0.6348  0.1636  0.0617
 1638BOLB   C1A39293  17.048   6.923  13.613  0.1253 -0.3239  0.3495
 1638BOLB   C2A39294  17.181   7.036  13.282 -0.2242  0.0964 -0.2427
 1638BOLB   C3A39295  17.413   6.922  12.896 -0.1879  0.0567 -0.4184
 1638BOLB   C4A39296  17.692   6.759  12.559 -0.2202  0.0562  0.1813
 1638BOLB   C1B39297  17.312   6.547  13.689  0.2765 -0.5925  0.2098
 1638BOLB   C2B39298  17.616   6.215  13.394  0.1124 -0.3106 -0.1663
 1638BOLB   C3B39299  17.974   5.840  13.272 -0.1394  0.0390 -0.1655
 1638BOLB   C4B39300  18.265   5.764  12.915  0.1537  0.0943 -0.1416
 1638BOLB   NC239301  17.603   4.567  10.845 -0.1444 -0.0614  0.0539
 1638BOLB   PO239302  17.875   4.735  11.074  0.1413 -0.0400 -0.0626
 1638BOLB   GL339303  17.800   5.078  11.372 -0.1896 -0.1366 -0.0834
 1638BOLB   GL439304  17.622   5.021  11.579 -0.3673  0.1043  0.2657
 1638BOLB   C1C39305  17.711   5.487  11.648  0.4135 -0.1490 -0.1293
 1638BOLB   C2C39306  17.869   5.728  11.997  0.2640  0.2610  0.3310
 1638BOLB   C3C39307  17.720   6.054  12.096 -0.1962 -0.0250 -0.2670
 1638BOLB   C4C39308  17.724   6.378  12.265 -0.4559  0.0009  0.0947
 1638BOLB   C1D39309  17.394   4.815  11.824 -0.0761  0.0235 -0.0704
 1638BOLB   C2D39310  17.092   4.557  11.892  0.0605  0.2465 -0.0947
 1638BOLB   C3D39311  17.078   4.171  12.132 -0.0759  0.0418  0.1909
 1638BOLB   C4D39312  16.729   4.006  12.198  0.0014 -0.1243  0.1569
 1639BOLB   NC139313  13.656   7.490  12.728 -0.2526 -0.0754 -0.0461
 1639BOLB   PO139314  13.917   7.606  12.798 -0.0583  0.5674 -0.2713
 1639BOLB   GL139315  14.251   7.511  12.566 -0.4701  0.1360 -0.1068
 1639BOLB   GL239316  14.097   7.445  12.294 -0.0134  0.1190 -0.1535
 1639BOLB   C1A39317  14.478   7.135  12.332  0.3047 -0.3475 -0.1953
 1639BOLB   C2A39318  14.818   7.065  12.136 -0.3081  0.2250 -0.3167
 1639BOLB   C3A39319  14.912   6.893  11.777  0.0751  0.0604 -0.1704
 1639BOLB   C4A39320  14.969   6.619  11.509 -0.1099  0.0071  0.0342
 1639BOLB   C1B39321  14.127   7.232  11.870 -0.0032  0.1413 -0.1312
 1639BOLB   C2B39322  14.207   7.241  11.451 -0.2029  0.2164 -0.0264
 1639BOLB   C3B39323  14.093   7.214  11.065 -0.1488  0.1868 -0.0096
 1639BOLB   C4B39324  13.613   7.140  10.816 -0.0752 -0.0587 -0.0867
 1639BOLB   NC239325  15.807   6.562   9.350  0.2508  0.3319  0.2342
 1639BOLB   PO239326  16.161   6.239   9.495 -0.4110  0.3566 -0.2884
 1639BOLB   GL339327  15.996   6.382   9.897  0.0490  0.0775  0.1466
 1639BOLB   GL439328  15.684   6.360   9.799  0.3030 -0.1201 -0.1486
 1639BOLB   C1C39329  16.037   6.325  10.245 -0.0348 -0.1766 -0.2767
 1639BOLB   C2C39330  15.829   6.225  10.655  0.0631  0.0930 -0.0839
 1639BOLB   C3C39331  15.487   6.366  10.908  0.1852  0.2619  0.0364
 1639BOLB   C4C39332  15.250   6.350  11.266  0.0674 -0.1313 -0.1855
 1639BOLB   C1D39333  15.550   6.396  10.140  0.0753  0.0245  0.2345
 1639BOLB   C2D39334  15.284   6.425  10.472  0.3238 -0.1426 -0.3552
 1639BOLB   C3D39335  15.028   6.167  10.741  0.1638  0.0217 -0.2219
 1639BOLB   C4D39336  15.042   5.919  11.100  0.0447  0.1416  0.1366
 1640BOLB   NC139337  16.277   5.641  14.899 -0.0373 -0.0242  0.1957
 1640BOLB   PO139338  16.461   5.257  14.997 -0.1461 -0.3818  0.0919
 1640BOLB   GL139339  16.521   5.337  14.581 -0.3718  0.1176 -0.3593
 1640BOLB   GL239340  16.812   5.162  14.497 -0.2438 -0.1715 -0.0552
 1640BOLB   C1A39341  16.560   5.375  14.120 -0.1374 -0.3233  0.0945
 1640BOLB   C2A39342  16.786   5.313  13.815  0.0302 -0.0159 -0.1136
 1640BOLB   C3A39343  17.112   5.169  13.547 -0.3711  0.1348 -0.1898
 1640BOLB   C4A39344  17.514   5.004  13.717 -0.1374 -0.2892  0.2708
 1640BOLB   C1B39345  17.172   5.374  14.596 -0.0723  0.2091 -0.1366
 1640BOLB   C2B39346  17.416   5.488  14.878 -0.2152  0.1440 -0.0001
 1640BOLB   C3B39347  17.661   5.505  15.182 -0.0602 -0.1470 -0.0896
 1640BOLB   C4B39348  17.591   5.375  15.721  0.0945  0.1127  0.1516
 1640BOLB   NC239349  15.523   3.978  13.776 -0.0482  0.0811  0.1942
 1640BOLB   PO239350  15.705   3.919  13.348 -0.2284 -0.2838 -0.0305
 1640BOLB   GL339351  16.027   4.176  13.574 -0.0488 -0.1164  0.0680
 1640BOLB   GL439352  16.008   4.530  13.739  0.2336 -0.2515 -0.1152
 1640BOLB   C1C39353  16.479   4.258  13.637  0.1765 -0.0930  0.1318
 1640BOLB   C2C39354  16.791   4.493  13.775 -0.1212 -0.2333  0.2473
 1640BOLB   C3C39355  17.191   4.556  13.957  0.0509 -0.0589 -0.1352
 1640BOLB   C4C39356  17.529   4.763  13.995 -0.0813  0.3055 -0.1895
 1640BOLB   C1D39357  16.331   4.664  13.945 -0.0494 -0.0917 -0.1100
 1640BOLB   C2D39358  16.680   4.884  14.003  0.3547  0.1692 -0.0304
 1640BOLB   C3D39359  17.086   5.075  14.121 -0.0495 -0.2133 -0.3132
 1640BOLB   C4D39360  17.568   5.098  14.411  0.3045 -0.1295 -0.1595
 1641BOLB   NC139361  14.775   4.103  13.370  0.1628  0.3845 -0.4057
 1641BOLB   PO139362  14.748   4.112  12.911 -0.0696  0.0123 -0.0679
 1641BOLB   GL139363  14.560   4.313  12.646 -0.3620  0.1218 -0.1190
 1641BOLB   GL239364  14.459   4.077  12.382 -0.1204 -0.2883  0.0306
 1641BOLB   C1A39365  14.742   4.642  12.522  0.0853  0.1409 -0.0331
 1641BOLB   C2A39366  14.846   4.936  12.137  0.0406 -0.2415 -0.1063
 1641BOLB   C3A39367  15.266   5.239  12.196 -0.3546  0.2859 -0.1526
 1641BOLB   C4A39368  15.557   5.246  11.960 -0.0274  0.2439  0.1477
 1641BOLB   C1B39369  14.247   4.542  12.414  0.0542 -0.0395  0.2899
 1641BOLB   C2B39370  14.267   4.908  12.158 -0.1554 -0.1103 -0.1766
 1641BOLB   C3B39371  14.409   4.863  11.718 -0.4885  0.1905 -0.0136
 1641BOLB   C4B39372  14.761   4.960  11.647  0.1525  0.0336  0.0357
 1641BOLB   NC239373  16.074   2.955  11.862  0.2477 -0.0988  0.0719
 1641BOLB   PO239374  16.348   3.238  11.875  0.2926  0.0219  0.0446
 1641BOLB   GL339375  16.519   3.677  11.812 -0.2406  0.0062  0.1497
 1641BOLB   GL439376  16.541   3.707  11.499 -0.2376 -0.3168 -0.0938
 1641BOLB   C1C39377  16.720   4.191  11.652 -0.0528  0.0651 -0.1192
 1641BOLB   C2C39378  16.657   4.565  11.820 -0.0651  0.0962  0.0822
 1641BOLB   C3C39379  16.342   4.940  11.841 -0.0228  0.1022 -0.0468
 1641BOLB   C4C39380  16.036   5.241  11.775  0.0314  0.2551 -0.1458
 1641BOLB   C1D39381  16.165   4.076  11.638 -0.2934  0.2595 -0.0050
 1641BOLB   C2D39382  16.061   4.529  11.821  0.1937 -0.2278  0.2336
 1641BOLB   C3D39383  15.749   4.797  11.960 -0.0277 -0.0612 -0.0031
 1641BOLB   C4D39384  15.294   4.729  11.956  0.3141  0.1327 -0.0299
 1642BOLB   NC139385  14.679   7.261  13.437 -0.0379 -0.0769  0.0965
 1642BOLB   PO139386  15.048   7.435  13.231  0.1842  0.1322  0.0896
 1642BOLB   GL139387  15.436   7.231  13.250 -0.0137  0.2162  0.4217
 1642BOLB   GL239388  15.511   7.042  13.568 -0.0381  0.0218  0.1108
 1642BOLB   C1A39389  15.747   7.096  13.055 -0.0748  0.1745  0.0997
 1642BOLB   C2A39390  15.887   7.034  12.596  0.2782  0.1546  0.0401
 1642BOLB   C3A39391  15.823   7.176  12.174 -0.0210 -0.0935  0.2250
 1642BOLB   C4A39392  16.014   6.971  11.792 -0.0501  0.1576 -0.1739
 1642BOLB   C1B39393  15.495   6.724  13.274 -0.2073 -0.3489  0.1553
 1642BOLB   C2B39394  15.688   6.561  12.877  0.1541 -0.1392 -0.2255
 1642BOLB   C3B39395  15.945   6.479  12.493  0.0932  0.1912  0.0859
 1642BOLB   C4B39396  16.250   6.740  12.175  0.1753  0.2384 -0.1586
 1642BOLB   NC239397  17.484   5.681  10.019  0.2698 -0.1605 -0.0078
 1642BOLB   PO239398  17.516   6.033  10.038  0.0936 -0.0373  0.1888
 1642BOLB   GL339399  17.281   6.232  10.244 -0.3530  0.0809 -0.2869
 1642BOLB   GL439400  17.477   6.508  10.381  0.0117 -0.2196  0.2001
 1642BOLB   C1C39401  16.962   6.364  10.453 -0.1579  0.1162 -0.1643
 1642BOLB   C2C39402  16.714   6.453  10.814  0.0282 -0.1363 -0.0201
 1642BOLB   C3C39403  16.534   6.753  11.129  0.3392  0.0814 -0.1668
 1642BOLB   C4C39404  16.360   6.899  11.424 -0.0352  0.1008  0.0415
 1642BOLB   C1D39405  17.284   6.330  10.784 -0.1084 -0.0173 -0.0080
 1642BOLB   C2D39406  17.118   6.614  11.085 -0.3894  0.1290  0.0441
 1642BOLB   C3D39407  17.060   7.056  11.106  0.0983  0.0072  0.2687
 1642BOLB   C4D39408  16.987   7.318  10.832  0.1508  0.5752 -0.3366
 1643BOLB   NC139409  18.754   7.936  15.136 -0.2910 -0.0363  0.0819
 1643BOLB   PO139410  19.048   8.234  15.039  0.1851  0.1091 -0.1613
 1643BOLB   GL139411  19.310   7.863  14.970 -0.3585 -0.1841 -0.0240
 1643BOLB   GL239412  19.121   7.797  14.769  0.1254  0.2835  0.2346
 1643BOLB   C1A39413  19.696   7.699  14.892 -0.0922  0.2472 -0.4826
 1643BOLB   C2A39414  19.863   7.256  14.889  0.0574  0.1595  0.1228
 1643BOLB   C3A39415  19.912   6.848  14.853 -0.0665 -0.1428 -0.0929
 1643BOLB   C4A39416  20.083   6.543  14.533 -0.1823  0.0978  0.1299
 1643BOLB   C1B39417  19.410   7.609  14.506 -0.3057  0.0583  0.2064
 1643BOLB   C2B39418  19.805   7.509  14.463  0.0008 -0.3440  0.1307
 1643BOLB   C3B39419  20.030   7.415  14.098  0.3378 -0.3421 -0.2703
 1643BOLB   C4B39420  20.141   7.337  13.681 -0.3692 -0.3648 -0.0743
 1643BOLB   NC239421  21.277   5.764  12.936 -0.1657 -0.0430 -0.3050
 1643BOLB   PO239422  21.105   5.477  13.117  0.0465  0.0157  0.1099
 1643BOLB   GL339423  20.903   5.884  13.207  0.0491  0.1064 -0.1369
 1643BOLB   GL439424  20.745   6.140  12.961  0.2105 -0.1044  0.0700
 1643BOLB   C1C39425  20.699   6.020  13.479 -0.2650  0.3212  0.0679
 1643BOLB   C2C39426  20.882   6.204  13.940  0.3706  0.0972  0.0315
 1643BOLB   C3C39427  20.823   6.521  14.051  0.1679  0.1589 -0.2417
 1643BOLB   C4C39428  20.398   6.591  14.110  0.0705 -0.0726 -0.2007
 1643BOLB   C1D39429  20.396   6.326  13.252 -0.3957 -0.2522  0.5193
 1643BOLB   C2D39430  19.941   6.260  13.353 -0.1637 -0.0420  0.0745
 1643BOLB   C3D39431  19.532   6.314  13.283  0.1755  0.2005 -0.2925
 1643BOLB   C4D39432  19.113   6.437  13.112 -0.0693 -0.2598  0.1901
 1644BOLB   NC139433  14.269   5.777  13.240  0.0883 -0.2318  0.1593
 1644BOLB   PO139434  14.397   5.375  13.288  0.0549  0.0911  0.1566
 1644BOLB   GL139435  14.546   5.463  12.956 -0.2373  0.0954  0.0906
 1644BOLB   GL239436  14.943   5.494  12.970 -0.0404 -0.2738 -0.0414
 1644BOLB   C1A39437  14.580   5.731  12.534 -0.1427  0.0446  0.0243
 1644BOLB   C2A39438  14.485   6.019  12.187  0.0444  0.3813 -0.1392
 1644BOLB   C3A39439  14.741   5.887  11.876 -0.0439 -0.1658 -0.2958
 1644BOLB   C4A39440  15.110   5.956  11.590  0.1016  0.3346 -0.0061
 1644BOLB   C1B39441  14.960   5.184  12.703 -0.1474  0.0060  0.3194
 1644BOLB   C2B39442  14.542   5.097  12.552 -0.1024  0.1552 -0.0467
 1644BOLB   C3B39443  14.182   5.445  12.332  0.0326 -0.0652 -0.2633
 1644BOLB   C4B39444  14.074   5.709  12.483 -0.3419 -0.0387  0.0345
 1644BOLB   NC239445  15.750   5.230   9.773 -0.0345 -0.1856  0.0500
 1644BOLB   PO239446  15.707   5.443   9.342  0.2568 -0.2618 -0.1655
 1644BOLB   GL339447  15.823   5.758   9.650 -0.1321  0.2670  0.0383
 1644BOLB   GL439448  16.139   5.835   9.941 -0.2180  0.2405 -0.6117
 1644BOLB   C1C39449  15.659   5.823  10.020  0.0503  0.0491  0.0499
 1644BOLB   C2C39450  15.442   5.975  10.449  0.0515 -0.1992 -0.1496
 1644BOLB   C3C39451  15.523   5.878  10.861 -0.1603  0.0491  0.1578
 1644BOLB   C4C39452  15.481   5.903  11.319  0.0059  0.1523  0.1684
 1644BOLB   C1D39453  16.054   5.679  10.415  0.3736  0.0421  0.2217
 1644BOLB   C2D39454  16.072   5.803  10.785  0.2060  0.1903 -0.1912
 1644BOLB   C3D39455  15.930   6.011  11.216 -0.3011  0.0658  0.1258
 1644BOLB   C4D39456  15.723   6.481  11.306  0.1486 -0.1030  0.0275
 1645BOLB   NC139457  16.444   5.622  15.382 -0.0482 -0.2565  0.1675
 1645BOLB   PO139458  16.731   5.871  15.254 -0.0405 -0.2558  0.1159
 1645BOLB   GL139459  16.769   5.677  14.898 -0.1671  0.3145  0.1029
 1645BOLB   GL239460  17.010   5.444  15.121  0.0494 -0.0771  0.1871
 1645BOLB   C1A39461  16.870   5.725  14.513 -0.0645 -0.3628 -0.3527
 1645BOLB   C2A39462  17.125   5.549  14.138  0.0141 -0.0589  0.1283
 1645BOLB   C3A39463  17.299   5.558  13.800  0.4431  0.0294 -0.3261
 1645BOLB   C4A39464  17.653   5.493  13.476 -0.0395  0.2418 -0.4582
 1645BOLB   C1B39465  17.253   5.236  15.325 -0.3096  0.0375 -0.0230
 1645BOLB   C2B39466  17.538   4.971  14.924  0.0781  0.1360 -0.1190
 1645BOLB   C3B39467  17.765   4.761  14.720 -0.0282 -0.1211 -0.0823
 1645BOLB   C4B39468  17.853   4.709  14.375  0.1011  0.0633  0.0506
 1645BOLB   NC239469  18.369   4.597  10.981  0.0034  0.1797  0.0066
 1645BOLB   PO239470  18.570   4.779  11.329  0.1985  0.1426  0.1389
 1645BOLB   GL339471  18.242   5.026  11.682  0.0435 -0.2965 -0.2103
 1645BOLB   GL439472  18.492   5.268  11.814  0.1087  0.4061 -0.0668
 1645BOLB   C1C39473  17.986   5.211  11.947  0.0351 -0.0777  0.1602
 1645BOLB   C2C39474  17.723   5.362  12.300  0.1872  0.2247 -0.1309
 1645BOLB   C3C39475  17.603   5.393  12.720  0.0735  0.1582  0.1990
 1645BOLB   C4C39476  17.763   5.424  13.018 -0.3604  0.0640 -0.3348
 1645BOLB   C1D39477  18.271   5.550  11.787 -0.1026  0.1281  0.1296
 1645BOLB   C2D39478  18.370   5.840  12.123 -0.0574 -0.1345  0.2594
 1645BOLB   C3D39479  18.297   6.111  12.519 -0.1723  0.0500  0.2659
 1645BOLB   C4D39480  18.195   6.587  12.644 -0.1944 -0.0054  0.0406
 1646BOLB   NC139481  19.580   8.098  16.267 -0.0193  0.0243 -0.1739
 1646BOLB   PO139482  19.437   7.880  15.876  0.1407 -0.0376 -0.2194
 1646BOLB   GL139483  19.670   7.917  15.627  0.3365  0.0279  0.3447
 1646BOLB   GL239484  19.576   7.663  15.417  0.3349 -0.3302  0.3770
 1646BOLB   C1A39485  19.959   7.908  15.322 -0.1037  0.1810 -0.0242
 1646BOLB   C2A39486  20.191   7.609  15.118 -0.2651  0.1510  0.2185
 1646BOLB   C3A39487  20.339   7.257  14.893  0.0871 -0.0599  0.2039
 1646BOLB   C4A39488  20.380   7.112  14.430 -0.1859 -0.3466  0.0503
 1646BOLB   C1B39489  19.404   7.402  15.122 -0.4340  0.1925 -0.2425
 1646BOLB   C2B39490  19.421   7.117  14.796  0.4259 -0.2840 -0.1105
 1646BOLB   C3B39491  19.643   7.004  14.428 -0.3655  0.3997  0.0014
 1646BOLB   C4B39492  19.991   6.891  14.165  0.0417 -0.0870  0.3260
 1646BOLB   NC239493  20.513   6.078  12.302  0.0943  0.1866 -0.1517
 1646BOLB   PO239494  20.396   5.946  12.654 -0.2269 -0.3288  0.2206
 1646BOLB   GL339495  20.292   6.391  12.699 -0.2158 -0.0771 -0.1315
 1646BOLB   GL439496  20.114   6.354  12.881  0.0705 -0.2462  0.3939
 1646BOLB   C1C39497  20.361   6.767  12.886 -0.0416  0.1042 -0.0064
 1646BOLB   C2C39498  20.353   6.782  13.297  0.1307 -0.3347  0.1275
 1646BOLB   C3C39499  20.313   6.823  13.690 -0.0484 -0.1035  0.0985
 1646BOLB   C4C39500  20.471   7.109  14.062  0.0207  0.1478  0.3353
 1646BOLB   C1D39501  19.913   6.660  13.102 -0.3088 -0.3679 -0.0681
 1646BOLB   C2D39502  19.475   6.689  12.892  0.1835 -0.4470  0.2168
 1646BOLB   C3D39503  19.115   6.917  13.056 -0.1231  0.1528 -0.1204
 1646BOLB   C4D39504  18.732   6.958  13.298  0.2694 -0.0589 -0.4379
 1647BOLB   NC139505   8.837   7.208  11.092 -0.6100  0.2884  0.0711
 1647BOLB   PO139506   9.180   7.141  11.152  0.5440 -0.1446 -0.2234
 1647BOLB   GL139507   9.502   7.323  11.133  0.1271 -0.0666  0.3274
 1647BOLB   GL239508   9.731   7.144  11.095 -0.0488 -0.5629  0.1081
 1647BOLB   C1A39509   9.621   7.740  11.040  0.1085  0.2943 -0.2322
 1647BOLB   C2A39510   9.601   8.260  11.223  0.0583 -0.4371 -0.2737
 1647BOLB   C3A39511   9.511   8.530  10.855  0.1108 -0.0706  0.1093
 1647BOLB   C4A39512   9.484   8.623  10.532  0.0068  0.0224  0.0850
 1647BOLB   C1B39513  10.251   7.260  11.087  0.1134  0.1553  0.1944
 1647BOLB   C2B39514  10.695   7.351  11.407  0.1820 -0.3005  0.0686
 1647BOLB   C3B39515  11.127   7.522  11.191  0.1726 -0.0108  0.1637
 1647BOLB   C4B39516  11.384   7.859  10.928 -0.3228  0.0799  0.3342
 1647BOLB   NC239517   8.481   7.394   9.209  0.2235  0.1109 -0.1198
 1647BOLB   PO239518   8.641   6.991   9.383 -0.2112 -0.4126 -0.0311
 1647BOLB   GL339519   8.932   7.381   9.506 -0.1800  0.1617  0.0808
 1647BOLB   GL439520   8.999   7.271   9.783 -0.0618  0.0333  0.0735
 1647BOLB   C1C39521   9.236   7.674   9.523  0.1467  0.5333 -0.0343
 1647BOLB   C2C39522   9.416   8.102   9.478  0.0566 -0.0646 -0.0552
 1647BOLB   C3C39523   9.578   8.426   9.766  0.0938  0.1681 -0.1070
 1647BOLB   C4C39524   9.579   8.612  10.047 -0.0984  0.1650  0.0093
 1647BOLB   C1D39525   9.189   7.227  10.174 -0.2700 -0.1604  0.0059
 1647BOLB   C2D39526   9.569   7.069  10.422 -0.4524 -0.1004 -0.1562
 1647BOLB   C3D39527   9.927   6.922  10.304 -0.6030 -0.0956  0.1760
 1647BOLB   C4D39528  10.242   6.871  10.060 -0.1213  0.0950  0.0255
 1648BOLB   NC139529  16.722   6.392  15.200  0.2516 -0.1466 -0.0980
 1648BOLB   PO139530  16.364   6.169  15.023  0.1748  0.1914  0.0127
 1648BOLB   GL139531  16.393   6.129  14.538 -0.2396  0.0249 -0.2665
 1648BOLB   GL239532  16.439   5.854  14.422 -0.0724 -0.0278 -0.0813
 1648BOLB   C1A39533  16.255   6.101  14.056  0.1374 -0.0171 -0.1724
 1648BOLB   C2A39534  16.421   6.132  13.652  0.1896 -0.2582  0.0796
 1648BOLB   C3A39535  16.560   6.021  13.231 -0.0374 -0.0047  0.0861
 1648BOLB   C4A39536  16.894   5.774  12.998 -0.4239  0.0832  0.2666
 1648BOLB   C1B39537  16.733   5.860  14.052  0.0682 -0.1603  0.3033
 1648BOLB   C2B39538  16.890   5.804  13.651 -0.1467 -0.4962 -0.0542
 1648BOLB   C3B39539  17.340   5.833  13.418  0.3831 -0.1798  0.1217
 1648BOLB   C4B39540  17.478   5.888  12.970  0.0909 -0.0118  0.0168
 1648BOLB   NC239541  16.989   3.913  14.558 -0.0463 -0.2361 -0.0848
 1648BOLB   PO239542  17.035   3.582  14.167 -0.0276  0.2325 -0.0624
 1648BOLB   GL339543  17.219   3.961  13.948 -0.0852 -0.1462  0.1071
 1648BOLB   GL439544  17.049   4.048  13.604  0.0764  0.2548 -0.1353
 1648BOLB   C1C39545  17.523   4.249  13.716 -0.0555 -0.0663  0.0412
 1648BOLB   C2C39546  17.235   4.618  13.444 -0.2035 -0.0641  0.1639
 1648BOLB   C3C39547  17.401   4.964  13.154 -0.0461  0.0308  0.2181
 1648BOLB   C4C39548  17.267   5.437  13.113  0.2486  0.0463 -0.1368
 1648BOLB   C1D39549  16.677   3.872  13.348  0.0293  0.0164 -0.1132
 1648BOLB   C2D39550  16.337   3.868  12.944  0.0643 -0.1058 -0.2159
 1648BOLB   C3D39551  16.021   3.796  12.518  0.2840  0.2291  0.0830
 1648BOLB   C4D39552  15.534   3.950  12.351 -0.1269  0.0824  0.0085
 1649BOLB   NC139553  21.322   9.208  16.010 -0.3611 -0.2447 -0.0772
 1649BOLB   PO139554  21.203   9.000  16.333  0.0612 -0.0755 -0.1295
 1649BOLB   GL139555  21.254   8.586  16.191  0.0349 -0.1438  0.2976
 1649BOLB   GL239556  20.955   8.395  16.186 -0.1029  0.1352  0.1013
 1649BOLB   C1A39557  21.425   8.286  16.027 -0.0380  0.1962  0.0773
 1649BOLB   C2A39558  21.774   8.059  15.991  0.0004  0.1720 -0.0572
 1649BOLB   C3A39559  22.243   8.109  15.843 -0.1397 -0.3020  0.0570
 1649BOLB   C4A39560  22.538   7.797  15.851  0.1657  0.3565  0.0874
 1649BOLB   C1B39561  20.956   8.053  15.917  0.1815 -0.1862  0.1960
 1649BOLB   C2B39562  21.311   7.792  16.022  0.1985 -0.0624 -0.2551
 1649BOLB   C3B39563  21.685   7.462  16.164  0.3922  0.2973  0.2033
 1649BOLB   C4B39564  22.001   7.173  16.025 -0.0438 -0.1465 -0.1056
 1649BOLB   NC239565  23.458   5.645  15.163 -0.2478 -0.0278 -0.3212
 1649BOLB   PO239566  23.363   5.897  14.790 -0.1796 -0.1223  0.1759
 1649BOLB   GL339567  23.142   6.251  14.969 -0.0352 -0.2749 -0.0180
 1649BOLB   GL439568  23.393   6.255  15.198  0.0141 -0.0916 -0.1318
 1649BOLB   C1C39569  22.852   6.579  15.049 -0.3144 -0.1022 -0.2184
 1649BOLB   C2C39570  22.969   6.930  15.363 -0.1978 -0.2277  0.0219
 1649BOLB   C3C39571  22.780   7.113  15.732  0.1801 -0.1905  0.0546
 1649BOLB   C4C39572  22.469   7.391  15.894  0.0350  0.0902  0.0945
 1649BOLB   C1D39573  23.388   6.642  15.099  0.0584  0.1285  0.0484
 1649BOLB   C2D39574  23.278   6.825  14.881 -0.2040  0.1965 -0.4596
 1649BOLB   C3D39575  22.995   7.116  14.945 -0.0188 -0.4263 -0.2023
 1649BOLB   C4D39576  22.724   7.403  15.087 -0.1972 -0.1024 -0.2508
 1650BOLB   NC139577  17.464   5.930  16.198  0.0638 -0.0955  0.1468
 1650BOLB   PO139578  17.316   6.283  15.948  0.0420 -0.0895 -0.1502
 1650BOLB   GL139579  17.668   6.061  15.713 -0.0632 -0.0946  0.2409
 1650BOLB   GL239580  18.018   6.173  15.780 -0.3094  0.0421  0.1454
 1650BOLB   C1A39581  17.858   5.894  15.301 -0.1812 -0.2314 -0.0758
 1650BOLB   C2A39582  17.759   5.884  14.916  0.0686  0.0217 -0.0648
 1650BOLB   C3A39583  17.909   5.900  14.400 -0.1950  0.0926 -0.2047
 1650BOLB   C4A39584  18.329   5.880  14.297 -0.0680  0.2004  0.1504
 1650BOLB   C1B39585  18.366   6.094  15.451  0.1233  0.1317  0.0619
 1650BOLB   C2B39586  18.810   6.012  15.403 -0.2970 -0.3905 -0.2958
 1650BOLB   C3B39587  19.239   5.918  15.514 -0.1937  0.2707 -0.0402
 1650BOLB   C4B39588  19.700   5.688  15.519  0.0143  0.0371  0.1782
 1650BOLB   NC239589  20.414   5.080  12.753  0.1842 -0.1305  0.1592
 1650BOLB   PO239590  19.944   5.156  12.643 -0.3899  0.1362  0.1531
 1650BOLB   GL339591  19.719   5.080  13.025  0.0229 -0.0410  0.0988
 1650BOLB   GL439592  19.702   4.786  13.229 -0.0760 -0.1697  0.0694
 1650BOLB   C1C39593  19.422   5.159  13.305 -0.3527 -0.1498 -0.0780
 1650BOLB   C2C39594  19.096   5.448  13.449  0.3493  0.2538 -0.0944
 1650BOLB   C3C39595  18.848   5.633  13.820 -0.1358  0.1941 -0.1007
 1650BOLB   C4C39596  18.600   5.898  14.007 -0.0734 -0.0464  0.1180
 1650BOLB   C1D39597  19.923   5.055  13.543 -0.2652  0.3716 -0.1608
 1650BOLB   C2D39598  20.017   5.387  13.851 -0.2054 -0.1035 -0.2119
 1650BOLB   C3D39599  20.388   5.422  14.229  0.1123  0.0002  0.1870
 1650BOLB   C4D39600  20.660   5.725  14.509 -0.1062 -0.1764 -0.2023
 1651BOLB   NC139601  15.605   5.013  14.539 -0.1413 -0.2146  0.2862
 1651BOLB   PO139602  15.900   5.292  14.779  0.0835  0.2082  0.1618
 1651BOLB   GL139603  15.944   5.306  14.331  0.1968  0.4064  0.3762
 1651BOLB   GL239604  16.028   5.554  14.262  0.0678 -0.1001  0.0335
 1651BOLB   C1A39605  16.127   5.168  13.987 -0.1982  0.1422  0.1009
 1651BOLB   C2A39606  16.429   5.078  13.617 -0.1274  0.1280 -0.2217
 1651BOLB   C3A39607  16.442   5.014  13.181  0.0862 -0.1616  0.2105
 1651BOLB   C4A39608  16.603   4.738  12.878  0.1806  0.2743 -0.1215
 1651BOLB   C1B39609  16.030   5.636  13.860 -0.1277 -0.1172 -0.1370
 1651BOLB   C2B39610  16.389   5.639  13.515  0.2393  0.0474 -0.1135
 1651BOLB   C3B39611  16.630   5.465  13.300 -0.1645  0.0259 -0.3274
 1651BOLB   C4B39612  16.853   5.192  13.059 -0.2046 -0.0515  0.1324
 1651BOLB   NC239613  14.350   4.842  13.387  0.2225 -0.0354  0.3395
 1651BOLB   PO239614  14.690   4.633  13.578  0.0648  0.2542  0.1407
 1651BOLB   GL339615  15.040   4.569  13.249  0.4918 -0.3816 -0.0978
 1651BOLB   GL439616  14.966   4.733  12.969 -0.0964  0.4281  0.0106
 1651BOLB   C1C39617  15.355   4.384  12.967 -0.0587 -0.2549  0.1267
 1651BOLB   C2C39618  15.799   4.341  12.836  0.2267  0.1491  0.3276
 1651BOLB   C3C39619  16.188   4.250  12.618 -0.1195  0.3991 -0.2370
 1651BOLB   C4C39620  16.518   4.299  12.786 -0.1210 -0.3638 -0.2164
 1651BOLB   C1D39621  15.215   4.789  12.622 -0.0592 -0.1091  0.2607
 1651BOLB   C2D39622  15.471   4.469  12.456 -0.1107  0.2330  0.2776
 1651BOLB   C3D39623  15.800   4.319  12.222 -0.1175  0.0577  0.1534
 1651BOLB   C4D39624  16.194   4.135  12.126 -0.2319  0.0581 -0.2211
 1652BOLB   NC139625  17.340   7.637  14.969 -0.0672 -0.0291 -0.3747
 1652BOLB   PO139626  17.363   7.103  14.987  0.0146 -0.1389  0.0381
 1652BOLB   GL139627  17.373   6.755  14.698 -0.1629 -0.1929 -0.6456
 1652BOLB   GL239628  17.227   6.490  14.821 -0.1644 -0.0435 -0.1291
 1652BOLB   C1A39629  17.487   6.424  14.363 -0.0293  0.0841  0.1250
 1652BOLB   C2A39630  17.785   6.328  14.064  0.2962 -0.1546  0.1997
 1652BOLB   C3A39631  18.240   6.239  13.861  0.3435  0.4018  0.0458
 1652BOLB   C4A39632  18.429   5.986  13.495  0.2239  0.0171  0.0443
 1652BOLB   C1B39633  17.355   6.129  14.732 -0.1035 -0.1280  0.0232
 1652BOLB   C2B39634  17.329   5.881  14.502 -0.2518 -0.0995 -0.4847
 1652BOLB   C3B39635  17.632   5.567  14.214 -0.0347  0.0994  0.0739
 1652BOLB   C4B39636  17.881   5.272  13.972 -0.1794  0.1378 -0.0262
 1652BOLB   NC239637  19.218   3.907  13.667  0.1213 -0.1742 -0.0872
 1652BOLB   PO239638  19.022   4.134  13.363  0.1040 -0.0825 -0.1078
 1652BOLB   GL339639  18.968   4.393  13.762  0.0599 -0.2703 -0.0906
 1652BOLB   GL439640  18.726   4.297  13.700  0.0825  0.1899  0.0439
 1652BOLB   C1C39641  19.065   4.756  13.979 -0.3315  0.3335  0.1239
 1652BOLB   C2C39642  18.905   5.135  13.831 -0.2548 -0.1657 -0.0731
 1652BOLB   C3C39643  18.688   5.170  13.475  0.2671 -0.3380  0.2652
 1652BOLB   C4C39644  18.653   5.676  13.329  0.0407  0.2038  0.1241
 1652BOLB   C1D39645  18.642   4.590  14.138  0.0853  0.1295  0.1216
 1652BOLB   C2D39646  18.743   4.985  14.374 -0.1136 -0.2673 -0.0987
 1652BOLB   C3D39647  18.902   5.229  14.773  0.1807 -0.0337  0.1621
 1652BOLB   C4D39648  18.881   5.351  15.323  0.1567 -0.1353 -0.0444
 1653BOLB   NC139649  18.265   4.642  16.406  0.1510  0.1444  0.0035
 1653BOLB   PO139650  18.027   5.070  16.390  0.0471 -0.0726 -0.0856
 1653BOLB   GL139651  18.011   5.337  16.003  0.0552  0.1050  0.2057
 1653BOLB   GL239652  17.914   5.723  16.079 -0.1036  0.3056 -0.0047
 1653BOLB   C1A39653  18.061   5.496  15.504  0.1063 -0.0480 -0.1379
 1653BOLB   C2A39654  18.450   5.628  15.228 -0.0339  0.2647 -0.1144
 1653BOLB   C3A39655  18.874   5.719  15.006 -0.0525 -0.3483  0.4340
 1653BOLB   C4A39656  19.210   5.882  14.698 -0.1118 -0.1713  0.0929
 1653BOLB   C1B39657  18.271   5.777  15.814 -0.0287 -0.3315  0.0695
 1653BOLB   C2B39658  18.415   5.432  15.820  0.0948 -0.1588  0.1145
 1653BOLB   C3B39659  18.433   5.112  15.502 -0.1626 -0.1021  0.3185
 1653BOLB   C4B39660  18.514   5.108  15.071  0.0756 -0.3392 -0.1280
 1653BOLB   NC239661  20.052   3.963  13.643 -0.0650  0.1174  0.2072
 1653BOLB   PO239662  20.430   4.252  13.706  0.1123  0.2718 -0.0785
 1653BOLB   GL339663  20.142   4.399  13.953 -0.3927  0.1054  0.2649
 1653BOLB   GL439664  20.181   4.405  14.339  0.0064 -0.2897 -0.0821
 1653BOLB   C1C39665  19.905   4.724  13.916  0.0280  0.1633 -0.0248
 1653BOLB   C2C39666  19.816   5.090  14.160 -0.0600  0.1405  0.2609
 1653BOLB   C3C39667  19.658   5.531  14.285 -0.1798  0.0688 -0.2799
 1653BOLB   C4C39668  19.488   5.903  14.449  0.4193  0.0232 -0.2259
 1653BOLB   C1D39669  19.862   4.706  14.636  0.3632 -0.0038 -0.0431
 1653BOLB   C2D39670  19.677   5.103  14.673  0.1314 -0.0684 -0.0169
 1653BOLB   C3D39671  19.434   5.443  14.762  0.0692 -0.2168  0.2721
 1653BOLB   C4D39672  19.313   5.603  15.085 -0.0403  0.2183 -0.0613
 1654BOLB   NC139673  13.907   7.429  13.278  0.0232 -0.2733  0.2612
 1654BOLB   PO139674  14.211   7.079  13.460 -0.3115 -0.0019 -0.2931
 1654BOLB   GL139675  14.331   6.687  13.074  0.1488 -0.3116 -0.1991
 1654BOLB   GL239676  14.223   6.321  13.147  0.2136  0.0679 -0.0462
 1654BOLB   C1A39677  14.381   6.686  12.644 -0.0604  0.2137  0.0743
 1654BOLB   C2A39678  14.528   6.524  12.267 -0.5622  0.4335  0.2808
 1654BOLB   C3A39679  14.632   6.345  11.813  0.0262  0.3862  0.0216
 1654BOLB   C4A39680  14.706   6.238  11.420  0.2335  0.0510 -0.0135
 1654BOLB   C1B39681  14.376   6.175  12.705 -0.1125  0.2660 -0.2046
 1654BOLB   C2B39682  14.782   6.172  12.561  0.1798 -0.1342 -0.2973
 1654BOLB   C3B39683  15.053   6.044  12.199 -0.5943  0.1390 -0.3858
 1654BOLB   C4B39684  15.320   5.749  12.045  0.2055 -0.0239  0.2722
 1654BOLB   NC239685  15.466   5.697   9.012 -0.0046 -0.0912 -0.2777
 1654BOLB   PO239686  15.156   5.967   9.016 -0.0750 -0.0281  0.1227
 1654BOLB   GL339687  15.028   6.250   9.354  0.0525 -0.2617 -0.0907
 1654BOLB   GL439688  14.719   6.249   9.181  0.1254 -0.3789  0.0409
 1654BOLB   C1C39689  14.754   6.336   9.719 -0.0654  0.0255  0.2420
 1654BOLB   C2C39690  14.747   6.433  10.170 -0.1183  0.0766  0.2023
 1654BOLB   C3C39691  14.566   6.448  10.655 -0.0183 -0.0499 -0.0921
 1654BOLB   C4C39692  14.738   6.377  11.090  0.1592 -0.0112  0.1118
 1654BOLB   C1D39693  14.354   6.315   9.447  0.3039 -0.0859  0.1129
 1654BOLB   C2D39694  14.267   6.426   9.982  0.0254  0.2282  0.4127
 1654BOLB   C3D39695  14.351   6.739  10.268  0.3008  0.3784  0.0683
 1654BOLB   C4D39696  14.545   7.113  10.499  0.0417  0.1452  0.1393
 1655BOLB   NC139697  17.877   5.348  16.803  0.1892 -0.3154 -0.0609
 1655BOLB   PO139698  18.110   5.516  16.696 -0.1195  0.0358 -0.0758
 1655BOLB   GL139699  18.535   5.363  16.746  0.0337 -0.0405 -0.1476
 1655BOLB   GL239700  18.494   5.166  17.026  0.1592  0.0399 -0.3388
 1655BOLB   C1A39701  18.928   5.546  16.668  0.0426  0.0778 -0.1225
 1655BOLB   C2A39702  19.233   5.290  16.700  0.2265  0.0870  0.0280
 1655BOLB   C3A39703  19.595   5.169  16.415  0.0244 -0.0042  0.1261
 1655BOLB   C4A39704  20.031   5.321  16.294  0.1158 -0.1230  0.0988
 1655BOLB   C1B39705  18.920   5.458  17.146 -0.2343  0.0557 -0.0930
 1655BOLB   C2B39706  19.228   5.443  17.501 -0.0627  0.0489  0.1838
 1655BOLB   C3B39707  19.535   5.747  17.425 -0.3781 -0.3000 -0.2953
 1655BOLB   C4B39708  19.912   5.933  17.649 -0.1085  0.2105  0.0119
 1655BOLB   NC239709  21.577   3.958  14.601 -0.0053 -0.0718 -0.0063
 1655BOLB   PO239710  21.626   4.416  14.743  0.5179 -0.0789  0.3540
 1655BOLB   GL339711  21.257   4.664  15.039  0.2657  0.0218 -0.5729
 1655BOLB   GL439712  21.119   4.553  15.412  0.0754 -0.3106 -0.3519
 1655BOLB   C1C39713  21.030   4.989  15.051  0.0813 -0.0274 -0.4188
 1655BOLB   C2C39714  20.970   5.348  15.400  0.2176  0.2046 -0.1951
 1655BOLB   C3C39715  20.518   5.317  15.672 -0.0276  0.3829 -0.0607
 1655BOLB   C4C39716  20.394   5.318  16.095  0.0974 -0.1364 -0.0121
 1655BOLB   C1D39717  20.760   4.850  15.479  0.2927 -0.0228  0.1418
 1655BOLB   C2D39718  20.303   4.902  15.442 -0.2619  0.3440  0.0595
 1655BOLB   C3D39719  20.029   4.970  15.047  0.0003  0.0915  0.0511
 1655BOLB   C4D39720  19.777   5.305  15.174  0.0716  0.2604 -0.1903
 1656BOLB   NC139721  16.968   6.982  14.547 -0.3205 -0.4798  0.4678
 1656BOLB   PO139722  17.139   7.371  14.553 -0.0291  0.0946  0.1474
 1656BOLB   GL139723  17.361   7.095  14.235  0.2074  0.3133 -0.0922
 1656BOLB   GL239724  17.422   7.368  13.984  0.0392 -0.2057 -0.1710
 1656BOLB   C1A39725  17.697   6.821  14.089 -0.3126  0.1470  0.0025
 1656BOLB   C2A39726  17.921   6.647  13.701 -0.3056  0.0638  0.2495
 1656BOLB   C3A39727  18.102   6.428  13.342  0.0042  0.0147 -0.1598
 1656BOLB   C4A39728  18.362   6.313  13.038  0.2699  0.2677 -0.0603
 1656BOLB   C1B39729  17.551   7.067  13.643 -0.2295  0.2612 -0.0716
 1656BOLB   C2B39730  17.623   6.807  13.320 -0.1444 -0.3127  0.2393
 1656BOLB   C3B39731  17.811   6.598  13.005 -0.2301 -0.0439 -0.1369
 1656BOLB   C4B39732  17.881   6.186  12.958 -0.1982  0.2200  0.0060
 1656BOLB   NC239733  19.013   4.292  12.537  0.2899  0.0304 -0.1852
 1656BOLB   PO239734  19.257   4.625  12.417 -0.1325  0.5274  0.2424
 1656BOLB   GL339735  19.407   5.049  12.626 -0.0500  0.3320  0.1357
 1656BOLB   GL439736  19.521   5.452  12.655  0.2657  0.0362  0.2801
 1656BOLB   C1C39737  19.147   5.129  12.938  0.0646  0.1117  0.3484
 1656BOLB   C2C39738  18.938   5.436  12.976 -0.0936  0.2151 -0.0802
 1656BOLB   C3C39739  18.737   5.815  12.707 -0.0220  0.2347 -0.1375
 1656BOLB   C4C39740  18.764   6.138  12.906  0.0621 -0.0155 -0.0832
 1656BOLB   C1D39741  19.082   5.439  12.464  0.3062 -0.0778 -0.0525
 1656BOLB   C2D39742  18.550   5.465  12.352 -0.1242  0.0906  0.2189
 1656BOLB   C3D39743  18.079   5.645  12.456  0.2509  0.0378  0.1906
 1656BOLB   C4D39744  17.782   5.887  12.584  0.0954  0.4156 -0.0402
 1657BOLB   NC139745  13.059   8.585  12.295 -0.0204 -0.1146  0.3763
 1657BOLB   PO139746  12.697   8.516  12.235 -0.0019  0.1301  0.1193
 1657BOLB   GL139747  12.845   8.341  11.875 -0.0602 -0.0855  0.4781
 1657BOLB   GL239748  12.982   8.592  11.811  0.1263 -0.3175  0.3221
 1657BOLB   C1A39749  12.644   8.311  11.498  0.0324 -0.0384 -0.0516
 1657BOLB   C2A39750  12.663   8.093  11.049  0.2166 -0.0255 -0.2536
 1657BOLB   C3A39751  12.957   7.982  10.783 -0.1700  0.0528 -0.2620
 1657BOLB   C4A39752  13.151   8.000  10.291 -0.1267  0.1753  0.0876
 1657BOLB   C1B39753  13.062   8.565  11.302 -0.0905 -0.0349 -0.0771
 1657BOLB   C2B39754  13.043   8.794  10.956  0.0999  0.1239  0.3243
 1657BOLB   C3B39755  13.114   8.934  10.514 -0.1918  0.2742  0.0928
 1657BOLB   C4B39756  13.035   8.839  10.036  0.1413  0.1464  0.0631
 1657BOLB   NC239757  13.421   6.781   8.406 -0.2112  0.0608  0.0302
 1657BOLB   PO239758  13.425   7.010   8.130  0.1603 -0.4055 -0.2040
 1657BOLB   GL339759  13.553   7.301   8.462 -0.2202  0.1924 -0.0309
 1657BOLB   GL439760  13.269   7.372   8.625  0.2670  0.0754 -0.0758
 1657BOLB   C1C39761  13.757   7.530   8.833  0.0824 -0.0152 -0.1417
 1657BOLB   C2C39762  13.718   7.718   9.188 -0.3980 -0.0847 -0.0874
 1657BOLB   C3C39763  13.607   7.886   9.610  0.0728  0.2481 -0.2902
 1657BOLB   C4C39764  13.302   7.847   9.874  0.0201  0.4668  0.1193
 1657BOLB   C1D39765  13.349   7.155   9.001 -0.3283  0.0519  0.0239
 1657BOLB   C2D39766  13.478   6.905   9.350 -0.2458 -0.1040 -0.2266
 1657BOLB   C3D39767  13.540   6.832   9.703  0.0875 -0.1161 -0.2174
 1657BOLB   C4D39768  13.479   7.042  10.152 -0.3021 -0.2289 -0.0516
 1658BOLB   NC139769  16.912   7.479  14.025  0.1879  0.1458  0.0636
 1658BOLB   PO139770  16.621   7.676  13.733  0.0508 -0.4118 -0.0678
 1658BOLB   GL139771  16.860   7.547  13.342  0.2080  0.3171 -0.1608
 1658BOLB   GL239772  17.074   7.412  13.604 -0.1176 -0.1487  0.2001
 1658BOLB   C1A39773  17.041   7.410  12.910  0.1029  0.1109 -0.0333
 1658BOLB   C2A39774  17.175   7.184  12.618  0.0900 -0.1976  0.4285
 1658BOLB   C3A39775  17.204   7.131  12.228 -0.1529 -0.2832  0.0808
 1658BOLB   C4A39776  17.386   7.183  11.898  0.3559  0.1517  0.2860
 1658BOLB   C1B39777  17.383   7.546  13.264  0.1785 -0.2251 -0.3618
 1658BOLB   C2B39778  17.642   7.790  13.070 -0.0897  0.0618  0.3478
 1658BOLB   C3B39779  17.814   8.044  12.880 -0.0444  0.2380  0.1179
 1658BOLB   C4B39780  17.838   8.382  13.091 -0.1853 -0.0825  0.0225
 1658BOLB   NC239781  17.823   7.201   9.186  0.2580  0.0365 -0.1273
 1658BOLB   PO239782  17.882   7.057   9.523 -0.0290 -0.0057 -0.5420
 1658BOLB   GL339783  17.560   7.369   9.772  0.0593  0.3392 -0.2269
 1658BOLB   GL439784  17.498   7.649   9.746  0.0897  0.2447  0.1424
 1658BOLB   C1C39785  17.432   7.370  10.129  0.3776  0.2651  0.2148
 1658BOLB   C2C39786  17.397   7.338  10.522 -0.2797  0.1001  0.0433
 1658BOLB   C3C39787  17.503   7.408  11.050 -0.0149 -0.1426  0.1379
 1658BOLB   C4C39788  17.418   7.277  11.494  0.0246  0.0530  0.1963
 1658BOLB   C1D39789  17.475   8.055   9.845 -0.0843 -0.0146  0.0337
 1658BOLB   C2D39790  17.204   8.373   9.838  0.3109 -0.1348 -0.0953
 1658BOLB   C3D39791  16.745   8.409   9.994  0.0719 -0.1865  0.0702
 1658BOLB   C4D39792  16.322   8.608  10.015 -0.0432  0.3949  0.4026
 1659BOLB   NC139793  10.405   5.404  11.555  0.0268 -0.1606 -0.1399
 1659BOLB   PO139794  10.464   5.762  11.197 -0.2232  0.0787 -0.1227
 1659BOLB   GL139795  10.948   5.874  11.172 -0.2772  0.0126  0.3821
 1659BOLB   GL239796  10.818   6.048  10.904  0.0790 -0.2516 -0.0263
 1659BOLB   C1A39797  11.367   6.016  11.044  0.2976 -0.0167  0.1092
 1659BOLB   C2A39798  11.762   6.046  10.896  0.0325 -0.2699 -0.0430
 1659BOLB   C3A39799  12.094   5.999  10.542  0.0096 -0.4038 -0.2065
 1659BOLB   C4A39800  12.373   6.389  10.495 -0.1113 -0.1068 -0.0486
 1659BOLB   C1B39801  10.916   6.476  10.704 -0.3206  0.2264 -0.1130
 1659BOLB   C2B39802  10.980   6.866  10.437  0.4301  0.0293  0.2807
 1659BOLB   C3B39803  10.910   7.126  10.167 -0.3482  0.0647 -0.1410
 1659BOLB   C4B39804  10.997   7.493   9.929 -0.1276  0.1696  0.2048
 1659BOLB   NC239805  12.194   6.230   8.483 -0.1137 -0.0207 -0.2394
 1659BOLB   PO239806  12.589   6.455   8.378 -0.2959 -0.0372  0.2288
 1659BOLB   GL339807  12.639   6.863   8.604 -0.1271  0.2762  0.4562
 1659BOLB   GL439808  12.879   7.030   8.576  0.0501  0.2394 -0.0293
 1659BOLB   C1C39809  12.522   6.941   8.992  0.0870 -0.1729  0.1606
 1659BOLB   C2C39810  12.449   6.996   9.442 -0.0797  0.1092  0.0146
 1659BOLB   C3C39811  12.333   6.791   9.830 -0.1383 -0.1840  0.5080
 1659BOLB   C4C39812  12.299   6.596  10.241  0.1792 -0.0120  0.3573
 1659BOLB   C1D39813  12.858   7.285   8.882  0.1782  0.0680  0.2542
 1659BOLB   C2D39814  12.546   7.438   9.167 -0.1715 -0.0090 -0.2413
 1659BOLB   C3D39815  12.486   7.460   9.651 -0.0788 -0.3301 -0.0158
 1659BOLB   C4D39816  12.537   7.262  10.005  0.0026  0.1929  0.0077
 1660BOLB   NC139817  15.016   5.326  13.942  0.3329  0.2363 -0.2984
 1660BOLB   PO139818  15.437   5.334  14.115 -0.1443  0.0530 -0.1110
 1660BOLB   GL139819  15.654   5.176  13.785 -0.0431 -0.2951 -0.3137
 1660BOLB   GL239820  15.624   4.972  13.474  0.1207  0.0696  0.2378
 1660BOLB   C1A39821  16.007   5.292  13.486  0.0363 -0.0158 -0.0012
 1660BOLB   C2A39822  16.033   5.234  12.987 -0.1916 -0.1282 -0.2381
 1660BOLB   C3A39823  16.045   5.415  12.529 -0.1606 -0.1671 -0.0030
 1660BOLB   C4A39824  16.310   5.226  12.284 -0.2303 -0.1870  0.0435
 1660BOLB   C1B39825  15.897   4.700  13.256 -0.3595 -0.1134 -0.3372
 1660BOLB   C2B39826  16.302   4.431  13.258 -0.2525  0.0668  0.0100
 1660BOLB   C3B39827  16.830   4.377  13.252 -0.3534  0.0678  0.1418
 1660BOLB   C4B39828  16.820   4.822  13.386  0.1835  0.0146 -0.0410
 1660BOLB   NC239829  17.166   2.646  12.674 -0.1148 -0.1550 -0.2483
 1660BOLB   PO239830  16.964   3.073  12.504 -0.0106  0.0580  0.1148
 1660BOLB   GL339831  16.962   3.486  12.704  0.2380  0.1506  0.1795
 1660BOLB   GL439832  17.085   3.531  13.144 -0.1689 -0.0018  0.1015
 1660BOLB   C1C39833  16.833   3.892  12.840 -0.1269  0.0758 -0.0416
 1660BOLB   C2C39834  17.076   4.231  12.644  0.1511  0.0041  0.0735
 1660BOLB   C3C39835  16.849   4.534  12.466  0.2729  0.3566  0.0557
 1660BOLB   C4C39836  16.682   4.990  12.407 -0.3003 -0.0086  0.0888
 1660BOLB   C1D39837  17.192   3.948  13.180  0.1061 -0.0611 -0.1494
 1660BOLB   C2D39838  17.352   4.392  12.987  0.2734 -0.1176 -0.0151
 1660BOLB   C3D39839  17.118   4.741  12.801 -0.1744 -0.0013  0.2846
 1660BOLB   C4D39840  17.184   5.086  12.684  0.0295  0.0725 -0.0570
 1661BOLB   NC139841  18.336   4.800  17.330  0.1089  0.0416 -0.2184
 1661BOLB   PO139842  18.497   4.629  17.029 -0.1987 -0.0165  0.0216
 1661BOLB   GL139843  18.940   4.568  16.972 -0.3081  0.0510 -0.0831
 1661BOLB   GL239844  19.198   4.348  16.993 -0.0812  0.1552 -0.0600
 1661BOLB   C1A39845  19.258   4.757  16.698 -0.2329 -0.0698  0.2551
 1661BOLB   C2A39846  19.681   4.737  16.655 -0.1587 -0.1877  0.0440
 1661BOLB   C3A39847  20.026   4.578  16.795  0.1530  0.1605 -0.0929
 1661BOLB   C4A39848  20.237   4.638  17.207 -0.2158  0.3336  0.2784
 1661BOLB   C1B39849  19.496   4.599  17.128  0.0233 -0.0903  0.1596
 1661BOLB   C2B39850  19.775   4.938  17.150 -0.1915  0.2738  0.0284
 1661BOLB   C3B39851  20.024   5.142  16.764 -0.2520  0.1389  0.2005
 1661BOLB   C4B39852  20.338   5.467  16.676  0.0684  0.0876 -0.2648
 1661BOLB   NC239853  21.983   4.381  17.640  0.1729 -0.1350 -0.0510
 1661BOLB   PO239854  21.976   4.224  18.083  0.0382 -0.3707  0.0274
 1661BOLB   GL339855  21.598   4.423  18.116 -0.2474 -0.3633  0.1658
 1661BOLB   GL439856  21.579   4.787  18.172  0.1413 -0.0849  0.1750
 1661BOLB   C1C39857  21.301   4.425  18.330  0.2187  0.0631 -0.2467
 1661BOLB   C2C39858  20.913   4.310  18.221  0.3541 -0.1335  0.1129
 1661BOLB   C3C39859  20.461   4.295  18.094  0.1230  0.0910  0.2322
 1661BOLB   C4C39860  20.229   4.518  17.692  0.2070 -0.1015 -0.1433
 1661BOLB   C1D39861  21.173   4.912  18.215 -0.1489 -0.1708 -0.0097
 1661BOLB   C2D39862  20.715   4.911  18.303  0.0128  0.0687  0.0315
 1661BOLB   C3D39863  20.605   4.915  18.715 -0.1043 -0.2665  0.1110
 1661BOLB   C4D39864  20.277   4.899  18.885  0.2257  0.2331  0.2730
 1662BOLB   NC139865  20.977   9.487  15.264 -0.2795 -0.1776 -0.0164
 1662BOLB   PO139866  21.071   9.210  15.584 -0.1341  0.1352  0.0845
 1662BOLB   GL139867  21.093   8.850  15.325 -0.2191  0.0499  0.0028
 1662BOLB   GL239868  20.840   8.623  15.141  0.0578  0.0995 -0.1938
 1662BOLB   C1A39869  21.424   8.582  15.218  0.2476 -0.1629 -0.0240
 1662BOLB   C2A39870  21.525   8.153  15.003 -0.0424  0.0845 -0.2702
 1662BOLB   C3A39871  21.695   7.804  14.762  0.2662 -0.1274 -0.0547
 1662BOLB   C4A39872  21.859   7.451  14.583  0.0408 -0.2508 -0.2297
 1662BOLB   C1B39873  21.112   8.500  14.810 -0.0280  0.1859  0.1494
 1662BOLB   C2B39874  21.165   8.185  14.585  0.0076  0.1993 -0.1094
 1662BOLB   C3B39875  21.461   8.016  14.341  0.1447  0.2003 -0.1231
 1662BOLB   C4B39876  21.711   7.743  14.200  0.0286  0.0655  0.1238
 1662BOLB   NC239877  23.337   5.906  14.262  0.1024 -0.1098  0.2247
 1662BOLB   PO239878  23.298   5.989  13.802 -0.0952 -0.0269  0.0467
 1662BOLB   GL339879  23.231   6.445  14.101 -0.0863 -0.1834 -0.0967
 1662BOLB   GL439880  22.937   6.446  13.874 -0.0488  0.1674 -0.3597
 1662BOLB   C1C39881  23.054   6.552  14.435 -0.0255  0.1876  0.1534
 1662BOLB   C2C39882  22.705   6.746  14.638  0.1578 -0.0051 -0.0738
 1662BOLB   C3C39883  22.538   6.978  14.933  0.1368  0.0451  0.6816
 1662BOLB   C4C39884  22.165   7.157  14.740  0.0756 -0.0455  0.2637
 1662BOLB   C1D39885  23.211   6.884  13.840  0.0005  0.0166  0.0446
 1662BOLB   C2D39886  23.082   7.274  13.602  0.4033 -0.2361  0.0129
 1662BOLB   C3D39887  23.211   7.605  13.242  0.0863  0.3385  0.2282
 1662BOLB   C4D39888  23.118   7.815  12.819  0.1182 -0.3088  0.0021
 1663BOLB   NC139889  12.073   7.863  12.259  0.0569 -0.2825 -0.1497
 1663BOLB   PO139890  12.522   7.668  12.175  0.0629 -0.4109  0.0639
 1663BOLB   GL139891  12.847   7.796  11.898 -0.3529  0.0790 -0.0609
 1663BOLB   GL239892  13.214   7.658  11.920 -0.0704 -0.1435 -0.1974
 1663BOLB   C1A39893  12.888   7.729  11.461  0.3276 -0.2487  0.1873
 1663BOLB   C2A39894  12.812   7.565  11.054  0.1650  0.2365  0.1639
 1663BOLB   C3A39895  12.824   7.535  10.582 -0.1792 -0.0517 -0.1300
 1663BOLB   C4A39896  12.949   7.619  10.091  0.2022  0.0653 -0.2452
 1663BOLB   C1B39897  13.607   7.808  11.579  0.0710 -0.4871  0.2511
 1663BOLB   C2B39898  13.754   8.086  11.237  0.1014 -0.0511 -0.1758
 1663BOLB   C3B39899  13.947   8.077  10.899 -0.0301 -0.2677 -0.0352
 1663BOLB   C4B39900  14.273   8.308  10.547  0.1252 -0.0447  0.0169
 1663BOLB   NC239901  14.171   6.164   8.359 -0.0797  0.1241  0.0453
 1663BOLB   PO239902  13.887   6.541   8.222 -0.0477  0.1298 -0.2135
 1663BOLB   GL339903  13.801   6.492   8.601 -0.0077 -0.2724 -0.1696
 1663BOLB   GL439904  13.935   6.419   8.872 -0.1300 -0.2207  0.0976
 1663BOLB   C1C39905  13.914   6.991   8.923  0.0434 -0.0570  0.0609
 1663BOLB   C2C39906  13.906   7.217   9.356 -0.2581 -0.1124  0.0731
 1663BOLB   C3C39907  13.518   7.383   9.562  0.0308 -0.0619 -0.1037
 1663BOLB   C4C39908  13.090   7.395   9.766  0.0635  0.2388 -0.1326
 1663BOLB   C1D39909  13.773   6.459   9.306 -0.2529 -0.0865  0.0991
 1663BOLB   C2D39910  13.833   6.411   9.711  0.2279  0.3319  0.0176
 1663BOLB   C3D39911  13.917   6.168  10.129 -0.0064 -0.1076  0.0091
 1663BOLB   C4D39912  13.928   6.000  10.581  0.2118 -0.2341  0.1139
 1664BOLB   NC139913  11.665   4.586  11.497  0.0384  0.2724  0.0561
 1664BOLB   PO139914  11.617   4.881  11.255 -0.1371 -0.3373  0.1220
 1664BOLB   GL139915  11.889   5.275  11.195  0.3131 -0.4191 -0.3852
 1664BOLB   GL239916  11.632   5.453  11.239 -0.1355 -0.0781  0.1911
 1664BOLB   C1A39917  12.113   5.543  11.306  0.1831 -0.0305 -0.1510
 1664BOLB   C2A39918  12.316   5.879  11.035  0.1104  0.2155 -0.0831
 1664BOLB   C3A39919  12.711   6.184  10.899 -0.2568 -0.2817 -0.1304
 1664BOLB   C4A39920  13.113   6.225  10.641  0.0351  0.0095 -0.0482
 1664BOLB   C1B39921  11.744   5.821  11.410  0.1630  0.0686  0.1317
 1664BOLB   C2B39922  12.022   6.156  11.356  0.2856 -0.0539  0.1506
 1664BOLB   C3B39923  12.296   6.411  11.162 -0.3162  0.0872 -0.0155
 1664BOLB   C4B39924  12.266   6.825  10.870 -0.3563 -0.1420 -0.0344
 1664BOLB   NC239925  14.946   4.778   9.549 -0.3579  0.0518  0.2875
 1664BOLB   PO239926  14.547   4.882   9.293  0.4108 -0.0536  0.1263
 1664BOLB   GL339927  14.225   5.166   9.394  0.0725 -0.4184 -0.2866
 1664BOLB   GL439928  14.389   5.488   9.276  0.0388 -0.0019  0.2579
 1664BOLB   C1C39929  14.167   5.468   9.762 -0.2642 -0.0965 -0.0232
 1664BOLB   C2C39930  13.762   5.723   9.899 -0.1246  0.2698 -0.0124
 1664BOLB   C3C39931  13.582   5.710  10.270 -0.1810 -0.0786 -0.1688
 1664BOLB   C4C39932  13.430   6.061  10.422 -0.1154 -0.2010  0.0165
 1664BOLB   C1D39933  14.631   5.744   9.498 -0.0695 -0.0167 -0.4037
 1664BOLB   C2D39934  14.979   5.879   9.766 -0.0708 -0.1578  0.0813
 1664BOLB   C3D39935  15.121   5.718  10.093 -0.2650  0.0703 -0.1884
 1664BOLB   C4D39936  15.410   5.466  10.323 -0.0014  0.0124 -0.1222
 1665BOLB   NC139937  19.303   7.847  16.901  0.4637  0.0888 -0.1747
 1665BOLB   PO139938  19.036   7.401  16.978 -0.2586 -0.0415 -0.6012
 1665BOLB   GL139939  19.142   7.031  17.047  0.2755 -0.0779  0.2445
 1665BOLB   GL239940  18.965   6.861  16.693  0.2330  0.2586  0.1276
 1665BOLB   C1A39941  19.412   6.724  17.210  0.1508  0.0128  0.1617
 1665BOLB   C2A39942  19.881   6.835  16.989 -0.0251 -0.0149 -0.2199
 1665BOLB   C3A39943  20.456   6.847  16.772  0.2936  0.1903  0.0574
 1665BOLB   C4A39944  20.716   6.550  16.616  0.1991 -0.1223 -0.1730
 1665BOLB   C1B39945  19.112   6.581  16.341  0.0713 -0.0699 -0.0478
 1665BOLB   C2B39946  19.552   6.414  16.164  0.0825  0.1639 -0.0152
 1665BOLB   C3B39947  19.963   6.208  16.119 -0.2043 -0.2304  0.2424
 1665BOLB   C4B39948  20.350   6.219  15.870  0.0481  0.3036  0.2127
 1665BOLB   NC239949  22.124   4.737  16.848  0.1281  0.0364 -0.1690
 1665BOLB   PO239950  22.662   4.815  16.811  0.1715  0.1580 -0.0705
 1665BOLB   GL339951  22.470   5.152  17.000  0.0868 -0.4658 -0.0195
 1665BOLB   GL439952  22.550   5.207  17.288 -0.2738 -0.0527 -0.0938
 1665BOLB   C1C39953  22.113   5.441  16.967  0.1686 -0.1210  0.2437
 1665BOLB   C2C39954  21.693   5.676  16.939  0.2966 -0.1140 -0.2816
 1665BOLB   C3C39955  21.406   5.961  16.824 -0.0459 -0.1836 -0.1131
 1665BOLB   C4C39956  21.070   6.324  16.688 -0.0508 -0.1461  0.0834
 1665BOLB   C1D39957  22.130   5.376  17.414 -0.3206  0.0509  0.1925
 1665BOLB   C2D39958  21.896   5.762  17.380  0.1401 -0.0889  0.2427
 1665BOLB   C3D39959  21.797   6.162  17.181 -0.0875  0.2110 -0.3477
 1665BOLB   C4D39960  21.535   6.493  16.980  0.0713  0.2573 -0.0800
 1666BOLB   NC139961  15.237   6.167  14.047  0.1264  0.1820 -0.2540
 1666BOLB   PO139962  15.082   5.806  13.877 -0.2143  0.2536  0.1930
 1666BOLB   GL139963  15.356   5.537  13.641  0.1857  0.0476  0.4551
 1666BOLB   GL239964  15.187   5.298  13.417  0.4495 -0.1112  0.5012
 1666BOLB   C1A39965  15.614   5.453  13.282  0.2582 -0.0079 -0.1158
 1666BOLB   C2A39966  15.508   5.479  12.843 -0.1028 -0.0575 -0.1829
 1666BOLB   C3A39967  15.613   5.482  12.464  0.2903 -0.0849  0.2013
 1666BOLB   C4A39968  15.872   5.625  12.072 -0.0435 -0.0117 -0.1340
 1666BOLB   C1B39969  15.363   5.087  13.055 -0.3333  0.1207 -0.2215
 1666BOLB   C2B39970  15.656   4.821  12.840 -0.2295  0.0253  0.2974
 1666BOLB   C3B39971  15.844   4.825  12.474 -0.0516  0.1532  0.0911
 1666BOLB   C4B39972  16.200   4.639  12.318 -0.0816 -0.2608 -0.2441
 1666BOLB   NC239973  16.605   5.166   9.757 -0.1770 -0.1404  0.0157
 1666BOLB   PO239974  16.876   5.102  10.033 -0.0377  0.1587  0.2873
 1666BOLB   GL339975  16.575   5.376  10.244  0.1361 -0.0132 -0.2171
 1666BOLB   GL439976  16.235   5.337  10.111 -0.2073 -0.2736  0.0764
 1666BOLB   C1C39977  16.534   5.597  10.568 -0.0588 -0.0124 -0.0638
 1666BOLB   C2C39978  16.407   5.537  10.948 -0.0879 -0.0032  0.0557
 1666BOLB   C3C39979  16.089   5.506  11.253  0.4507 -0.3061 -0.3219
 1666BOLB   C4C39980  15.823   5.665  11.641  0.1885  0.2014 -0.0536
 1666BOLB   C1D39981  16.193   5.113  10.489 -0.1333 -0.1036 -0.0628
 1666BOLB   C2D39982  15.954   4.874  10.857  0.0358  0.0534  0.0678
 1666BOLB   C3D39983  15.555   4.772  11.073 -0.0154 -0.1500 -0.0461
 1666BOLB   C4D39984  15.206   4.450  11.077  0.3676 -0.0917  0.6056
 1667BOLB   NC139985  17.025   6.182  15.592 -0.0277 -0.0264  0.0942
 1667BOLB   PO139986  17.393   6.375  15.451  0.0083  0.6713 -0.2527
 1667BOLB   GL139987  17.676   6.406  15.122 -0.0460 -0.0617  0.1818
 1667BOLB   GL239988  17.937   6.532  15.280  0.2739  0.1218 -0.3214
 1667BOLB   C1A39989  17.800   6.503  14.692  0.0199 -0.5123 -0.2368
 1667BOLB   C2A39990  18.012   6.488  14.490  0.2071 -0.2487 -0.0086
 1667BOLB   C3A39991  18.383   6.378  14.477 -0.1587 -0.0885 -0.0563
 1667BOLB   C4A39992  18.727   6.386  14.106  0.2048  0.3570 -0.2042
 1667BOLB   C1B39993  18.126   6.220  15.009 -0.0725 -0.0031 -0.1195
 1667BOLB   C2B39994  18.263   5.891  14.819 -0.1836  0.1772 -0.3077
 1667BOLB   C3B39995  18.465   5.466  14.604 -0.0130  0.1280  0.1468
 1667BOLB   C4B39996  18.491   5.442  14.130  0.1791 -0.0160 -0.0336
 1667BOLB   NC239997  19.775   4.981  12.251  0.0458  0.2200  0.1208
 1667BOLB   PO239998  19.776   5.418  12.147  0.3266  0.1821 -0.1945
 1667BOLB   GL339999  19.429   5.682  12.172  0.0906  0.1975 -0.2298
 1667BOLB   GL440000  19.389   5.874  12.005  0.0263 -0.1371  0.2567
 1667BOLB   C1C40001  19.314   5.934  12.512 -0.1164 -0.0447  0.2927
 1667BOLB   C2C40002  19.234   5.959  12.950  0.3244 -0.2439  0.1737
 1667BOLB   C3C40003  19.014   6.031  13.291  0.2528 -0.1062  0.2202
 1667BOLB   C4C40004  18.861   6.236  13.745 -0.0605  0.1578  0.0171
 1667BOLB   C1D40005  19.042   6.057  11.784  0.1368  0.0395  0.3279
 1667BOLB   C2D40006  18.782   6.462  11.873 -0.0703  0.0101  0.1001
 1667BOLB   C3D40007  18.986   6.809  12.044  0.1333  0.2394 -0.4152
 1667BOLB   C4D40008  19.094   6.846  12.455 -0.0023  0.0748 -0.0342
 1668BOLB   NC140009  19.270   8.291  15.581  0.0767 -0.1835  0.1323
 1668BOLB   PO140010  19.104   7.931  15.482  0.1091  0.0213  0.1952
 1668BOLB   GL140011  18.996   7.475  15.612 -0.3496 -0.0065 -0.0754
 1668BOLB   GL240012  19.208   7.382  15.846  0.1543 -0.1874  0.0253
 1668BOLB   C1A40013  19.187   7.027  15.475 -0.0836  0.1361 -0.2944
 1668BOLB   C2A40014  19.394   6.858  15.183  0.1980 -0.0010  0.4138
 1668BOLB   C3A40015  19.368   6.569  14.884  0.0230  0.0255  0.2633
 1668BOLB   C4A40016  19.533   6.566  14.542  0.1691 -0.5655  0.4010
 1668BOLB   C1B40017  19.677   7.304  15.722 -0.1782  0.3451 -0.2312
 1668BOLB   C2B40018  19.927   7.122  15.392 -0.0774  0.0993  0.0960
 1668BOLB   C3B40019  20.217   6.885  15.235  0.0676  0.0904 -0.2113
 1668BOLB   C4B40020  20.460   6.722  14.881  0.2633  0.0349 -0.0971
 1668BOLB   NC240021  20.641   4.513  13.301  0.1415  0.2395 -0.1445
 1668BOLB   PO240022  20.626   4.808  13.061  0.0706  0.4091 -0.0899
 1668BOLB   GL340023  20.539   5.245  13.287  0.1212 -0.0420 -0.1501
 1668BOLB   GL440024  20.242   5.218  13.216  0.0653 -0.2717  0.1701
 1668BOLB   C1C40025  20.338   5.629  13.564  0.1974  0.2338  0.3264
 1668BOLB   C2C40026  20.011   5.899  13.633 -0.1139  0.0487  0.0970
 1668BOLB   C3C40027  19.799   5.963  14.030  0.0793 -0.2135  0.1637
 1668BOLB   C4C40028  19.715   6.406  14.220  0.1295  0.2062 -0.1601
 1668BOLB   C1D40029  19.898   5.528  13.300  0.1604  0.1364 -0.1168
 1668BOLB   C2D40030  19.728   5.891  13.034 -0.2684 -0.0917  0.4458
 1668BOLB   C3D40031  19.666   6.169  12.811  0.0025 -0.1641  0.1629
 1668BOLB   C4D40032  19.714   6.426  12.523 -0.0359 -0.1970 -0.2614
 1669BOLB   NC140033  15.955   6.519  14.428  0.0306  0.1719 -0.0018
 1669BOLB   PO140034  15.685   6.080  14.448 -0.4598 -0.0075 -0.0074
 1669BOLB   GL140035  15.800   6.260  14.027  0.0157 -0.0650 -0.2285
 1669BOLB   GL240036  15.637   6.494  14.013  0.2312  0.0635  0.2256
 1669BOLB   C1A40037  15.939   6.075  13.689  0.0218  0.1603 -0.1814
 1669BOLB   C2A40038  16.004   5.837  13.209  0.1914 -0.1081 -0.1787
 1669BOLB   C3A40039  16.182   5.712  12.950  0.3171  0.3052  0.0753
 1669BOLB   C4A40040  16.517   5.466  12.751 -0.2964  0.0644 -0.0441
 1669BOLB   C1B40041  15.847   6.543  13.596  0.2434 -0.0525 -0.1040
 1669BOLB   C2B40042  16.098   6.398  13.309  0.2396  0.3594 -0.1649
 1669BOLB   C3B40043  16.086   6.225  12.937 -0.1091 -0.2454  0.3401
 1669BOLB   C4B40044  16.394   6.085  12.741 -0.1015  0.0120  0.1723
 1669BOLB   NC240045  17.575   4.026  10.769 -0.2918 -0.3822 -0.0933
 1669BOLB   PO240046  17.181   4.160  11.039 -0.0866  0.0689 -0.1759
 1669BOLB   GL340047  17.079   4.512  11.198  0.2499 -0.0782 -0.0464
 1669BOLB   GL440048  17.358   4.829  11.236  0.1091  0.0724 -0.0485
 1669BOLB   C1C40049  16.786   4.780  11.402 -0.2035 -0.4039 -0.0302
 1669BOLB   C2C40050  16.864   5.079  11.742  0.3312 -0.0629 -0.1129
 1669BOLB   C3C40051  16.765   5.316  12.025 -0.0366 -0.2442  0.0814
 1669BOLB   C4C40052  16.727   5.501  12.421 -0.0228 -0.0899  0.2102
 1669BOLB   C1D40053  17.193   5.230  11.413  0.2296 -0.0028 -0.0410
 1669BOLB   C2D40054  17.288   5.614  11.465  0.0547  0.1024  0.0693
 1669BOLB   C3D40055  17.289   5.792  11.909 -0.4672  0.3144  0.1055
 1669BOLB   C4D40056  17.244   5.637  12.380  0.1743 -0.0259 -0.1766
 1670BOLB   NC140057  18.929   7.430  16.469  0.0354 -0.1057  0.2244
 1670BOLB   PO140058  19.250   7.768  16.422  0.0154 -0.0245  0.1205
 1670BOLB   GL140059  19.606   7.591  16.295 -0.0141  0.1555 -0.2274
 1670BOLB   GL240060  19.769   7.611  16.640 -0.0328  0.0520 -0.0281
 1670BOLB   C1A40061  19.926   7.315  16.271  0.1112 -0.1973  0.2793
 1670BOLB   C2A40062  20.324   7.055  16.253 -0.4733  0.2183 -0.4741
 1670BOLB   C3A40063  20.578   6.669  16.103 -0.0280  0.0996 -0.2430
 1670BOLB   C4A40064  20.810   6.361  15.814 -0.1688 -0.4511 -0.2873
 1670BOLB   C1B40065  19.487   7.198  16.651 -0.3043  0.0567  0.2541
 1670BOLB   C2B40066  19.552   6.754  16.626  0.0532  0.0243 -0.1020
 1670BOLB   C3B40067  19.937   6.514  16.609 -0.0978 -0.0208 -0.2407
 1670BOLB   C4B40068  20.280   6.380  16.445 -0.3209 -0.0354 -0.2792
 1670BOLB   NC240069  22.204   4.020  15.335  0.1660  0.2173  0.3092
 1670BOLB   PO240070  21.964   4.119  15.716  0.0896 -0.0844  0.2406
 1670BOLB   GL340071  21.595   4.431  15.584 -0.1921  0.0564  0.0733
 1670BOLB   GL440072  21.462   4.681  15.804 -0.0461  0.1515  0.1297
 1670BOLB   C1C40073  21.574   4.936  15.391 -0.1015  0.2522 -0.2174
 1670BOLB   C2C40074  21.474   5.331  15.460 -0.0479 -0.3243 -0.3421
 1670BOLB   C3C40075  21.369   5.723  15.596 -0.2073  0.0505  0.0108
 1670BOLB   C4C40076  21.046   6.009  15.588  0.1737  0.0658 -0.1881
 1670BOLB   C1D40077  21.135   4.992  15.743 -0.0967  0.1495 -0.1366
 1670BOLB   C2D40078  20.848   5.050  15.958  0.1175 -0.0627  0.0768
 1670BOLB   C3D40079  20.556   4.873  15.978  0.1001  0.1381  0.0684
 1670BOLB   C4D40080  20.138   4.852  15.874 -0.2406 -0.1059 -0.1311
 1671BOLB   NC140081  18.322   6.602  17.424  0.1801  0.1247  0.0346
 1671BOLB   PO140082  18.556   6.325  17.776  0.2221 -0.1813  0.1197
 1671BOLB   GL140083  18.916   6.246  17.977 -0.2092  0.0467  0.1761
 1671BOLB   GL240084  18.804   6.137  18.218 -0.1943 -0.1016 -0.1139
 1671BOLB   C1A40085  19.336   6.116  17.716 -0.0815 -0.1959  0.1268
 1671BOLB   C2A40086  19.480   6.216  17.280  0.0615 -0.0241  0.2816
 1671BOLB   C3A40087  19.818   6.334  17.115 -0.0294 -0.0437 -0.3037
 1671BOLB   C4A40088  20.262   6.297  16.940  0.3706 -0.0652 -0.2492
 1671BOLB   C1B40089  19.226   6.093  18.316  0.3856  0.3239 -0.2239
 1671BOLB   C2B40090  19.569   6.026  18.346  0.0260  0.1853  0.2562
 1671BOLB   C3B40091  19.968   6.146  18.407 -0.2049  0.2434 -0.2245
 1671BOLB   C4B40092  20.344   6.076  18.085 -0.0150 -0.0482 -0.1490
 1671BOLB   NC240093  20.805   4.172  16.377 -0.2364  0.1509 -0.0528
 1671BOLB   PO240094  21.064   4.374  15.935 -0.1680 -0.1365  0.0541
 1671BOLB   GL340095  20.922   4.607  16.197 -0.0704 -0.0858  0.3558
 1671BOLB   GL440096  21.297   4.568  16.359  0.1559  0.0719 -0.3510
 1671BOLB   C1C40097  20.756   4.915  16.472  0.3584  0.1026 -0.2082
 1671BOLB   C2C40098  20.791   5.236  16.457  0.5098 -0.0554  0.0594
 1671BOLB   C3C40099  20.747   5.682  16.460  0.0305 -0.1591  0.1662
 1671BOLB   C4C40100  20.471   5.975  16.756 -0.0547  0.4074 -0.1099
 1671BOLB   C1D40101  21.321   5.047  16.393  0.0089 -0.0350  0.0293
 1671BOLB   C2D40102  21.265   5.555  16.528 -0.3803  0.0412 -0.4691
 1671BOLB   C3D40103  21.104   5.958  16.249  0.0404  0.0527  0.0875
 1671BOLB   C4D40104  20.666   6.149  16.223  0.0682 -0.1235 -0.1033
 1672BOLB   NC140105  12.867   4.651  11.542  0.2955 -0.2721 -0.1882
 1672BOLB   PO140106  12.361   4.737  11.555 -0.0251  0.1369 -0.2005
 1672BOLB   GL140107  12.281   5.050  11.257 -0.1406  0.2254 -0.1047
 1672BOLB   GL240108  12.069   4.937  10.892  0.1609  0.3714 -0.2928
 1672BOLB   C1A40109  12.561   5.374  11.052  0.2541 -0.1359  0.0384
 1672BOLB   C2A40110  12.814   5.372  10.665  0.0780  0.0217 -0.1141
 1672BOLB   C3A40111  13.015   5.748  10.801 -0.0713 -0.0775  0.3015
 1672BOLB   C4A40112  13.534   5.797  10.806 -0.1170  0.2118 -0.0542
 1672BOLB   C1B40113  12.583   4.846  10.892 -0.2381 -0.4747  0.0796
 1672BOLB   C2B40114  12.948   4.940  10.864 -0.1847 -0.1774  0.1146
 1672BOLB   C3B40115  13.292   4.993  11.054 -0.0714  0.1382 -0.0429
 1672BOLB   C4B40116  13.559   5.347  11.100 -0.3704 -0.0634 -0.0375
 1672BOLB   NC240117  13.076   4.127   9.755 -0.1953 -0.1089 -0.0167
 1672BOLB   PO240118  12.979   4.509   9.986 -0.3146 -0.1524  0.0336
 1672BOLB   GL340119  13.183   4.689  10.408 -0.0745 -0.1133  0.0931
 1672BOLB   GL440120  12.776   4.755  10.459 -0.2129 -0.0539 -0.0683
 1672BOLB   C1C40121  13.604   4.712  10.272  0.1424 -0.1140  0.0759
 1672BOLB   C2C40122  14.026   4.761  10.332  0.1163  0.1894  0.2167
 1672BOLB   C3C40123  14.173   5.200  10.449  0.2358 -0.1801  0.1664
 1672BOLB   C4C40124  13.898   5.531  10.649  0.0175 -0.0662  0.2879
 1672BOLB   C1D40125  12.413   5.070  10.499 -0.3010 -0.1760  0.1917
 1672BOLB   C2D40126  11.954   5.186  10.425  0.1974  0.0212 -0.0080
 1672BOLB   C3D40127  11.860   5.625  10.319  0.3793 -0.0760 -0.1883
 1672BOLB   C4D40128  11.669   6.015  10.273  0.3578  0.1027  0.2447
 1673BOLB   NC140129  18.907   7.725  16.010  0.1474  0.4184  0.3476
 1673BOLB   PO140130  18.590   7.451  16.076 -0.0693 -0.1483 -0.1403
 1673BOLB   GL140131  18.908   7.028  15.999 -0.0943  0.0334 -0.0062
 1673BOLB   GL240132  18.749   6.687  16.035 -0.1503 -0.3821  0.2160
 1673BOLB   C1A40133  19.362   7.013  16.150 -0.0683 -0.4633 -0.1732
 1673BOLB   C2A40134  19.778   6.867  16.158  0.0724  0.2543  0.0066
 1673BOLB   C3A40135  20.010   6.883  15.839  0.0451  0.4651  0.0117
 1673BOLB   C4A40136  20.281   6.627  15.646  0.0509  0.1145  0.0784
 1673BOLB   C1B40137  19.196   6.659  15.833 -0.1167  0.2450  0.0431
 1673BOLB   C2B40138  19.580   6.749  15.732  0.1192  0.4472  0.0145
 1673BOLB   C3B40139  19.860   6.635  15.395  0.0807  0.1275  0.2174
 1673BOLB   C4B40140  20.102   6.395  15.049 -0.0210  0.4374  0.1122
 1673BOLB   NC240141  21.893   5.218  14.242 -0.2598  0.2452  0.2302
 1673BOLB   PO240142  22.177   5.304  14.670  0.2536 -0.1653 -0.1212
 1673BOLB   GL340143  21.836   5.557  14.654 -0.1429 -0.1693 -0.1038
 1673BOLB   GL440144  21.734   5.669  14.249 -0.3233 -0.2238 -0.1865
 1673BOLB   C1C40145  21.726   5.865  14.882 -0.0801 -0.1944  0.0023
 1673BOLB   C2C40146  21.259   5.949  15.142 -0.0569  0.0721  0.0532
 1673BOLB   C3C40147  20.853   6.181  15.172  0.3057  0.0156  0.0614
 1673BOLB   C4C40148  20.529   6.405  15.384 -0.2663 -0.1459  0.1413
 1673BOLB   C1D40149  21.674   6.101  14.377 -0.1982 -0.0519 -0.4334
 1673BOLB   C2D40150  21.532   6.353  14.660 -0.0325 -0.0406 -0.3027
 1673BOLB   C3D40151  21.244   6.441  14.958 -0.1257 -0.0033  0.1995
 1673BOLB   C4D40152  20.946   6.641  14.878 -0.1305 -0.0658 -0.2082
 1674BOLB   NC140153  12.244   7.017  12.574  0.1321 -0.1732  0.0946
 1674BOLB   PO140154  12.590   6.894  12.805  0.3108 -0.4444  0.0159
 1674BOLB   GL140155  12.776   6.784  12.430 -0.1991 -0.2358 -0.2782
 1674BOLB   GL240156  13.152   6.575  12.368  0.2507 -0.1178 -0.1440
 1674BOLB   C1A40157  12.829   6.582  12.039 -0.1336  0.4288  0.0682
 1674BOLB   C2A40158  13.100   6.503  11.678 -0.1257 -0.1170 -0.1275
 1674BOLB   C3A40159  13.162   6.402  11.209 -0.0554 -0.1457 -0.2591
 1674BOLB   C4A40160  13.349   6.624  10.881 -0.2787 -0.1071  0.2935
 1674BOLB   C1B40161  13.589   6.629  12.244  0.2355 -0.2883  0.3482
 1674BOLB   C2B40162  13.780   6.761  11.801 -0.0846 -0.2123 -0.1597
 1674BOLB   C3B40163  13.854   6.845  11.401  0.0772 -0.0503 -0.3197
 1674BOLB   C4B40164  13.887   6.681  10.987 -0.3248 -0.1724 -0.1206
 1674BOLB   NC240165  14.862   6.179   8.702 -0.2497  0.1561  0.2109
 1674BOLB   PO240166  14.452   6.306   8.783 -0.1865 -0.1815 -0.1456
 1674BOLB   GL340167  14.460   6.696   9.009  0.0365 -0.0858  0.3096
 1674BOLB   GL440168  14.475   6.954   8.893  0.4154  0.2499  0.2039
 1674BOLB   C1C40169  14.138   6.800   9.369  0.0514  0.0772 -0.1879
 1674BOLB   C2C40170  14.131   6.819   9.778 -0.0385 -0.4572  0.0018
 1674BOLB   C3C40171  13.838   6.698  10.211  0.0454  0.1506 -0.0698
 1674BOLB   C4C40172  13.617   6.602  10.581 -0.1131 -0.0725 -0.2296
 1674BOLB   C1D40173  14.418   7.246   9.289 -0.2292 -0.0045  0.1018
 1674BOLB   C2D40174  14.427   7.233   9.710 -0.0578  0.0047  0.0404
 1674BOLB   C3D40175  14.199   7.227  10.159  0.3832  0.3099 -0.2461
 1674BOLB   C4D40176  14.044   7.214  10.571 -0.1399  0.1171 -0.0712
 1675BOLB   NC140177  11.865   4.392   9.538  0.1823 -0.0792  0.1358
 1675BOLB   PO140178  12.226   4.676   9.223 -0.3044  0.2040 -0.0586
 1675BOLB   GL140179  12.199   4.799   9.657 -0.4099 -0.1503  0.1388
 1675BOLB   GL240180  11.951   4.808   9.819  0.0486  0.3706 -0.0554
 1675BOLB   C1A40181  12.330   5.132  10.001  0.2027 -0.0966  0.0238
 1675BOLB   C2A40182  12.673   5.373  10.118 -0.0927 -0.1940  0.0134
 1675BOLB   C3A40183  13.005   5.709  10.275 -0.5554 -0.1608 -0.0516
 1675BOLB   C4A40184  12.944   6.195  10.192  0.2539 -0.1490 -0.0047
 1675BOLB   C1B40185  11.861   5.217   9.843  0.1223  0.1571  0.0899
 1675BOLB   C2B40186  12.073   5.627   9.800 -0.1585 -0.0265 -0.0361
 1675BOLB   C3B40187  12.519   5.685   9.677  0.1767  0.0775 -0.1420
 1675BOLB   C4B40188  12.922   6.070   9.661 -0.1190 -0.2886 -0.2131
 1675BOLB   NC240189  11.211   6.634   8.480 -0.2118  0.0007  0.2729
 1675BOLB   PO240190  11.634   6.879   8.479  0.2702  0.0116  0.0547
 1675BOLB   GL340191  11.756   7.008   8.773 -0.1446  0.0998 -0.1274
 1675BOLB   GL440192  11.550   7.401   8.789 -0.2129  0.0561 -0.1798
 1675BOLB   C1C40193  11.945   6.830   9.079  0.4523  0.0386  0.0520
 1675BOLB   C2C40194  12.221   6.470   9.357  0.1216  0.0938 -0.0233
 1675BOLB   C3C40195  12.594   6.457   9.577  0.2450 -0.2884 -0.0988
 1675BOLB   C4C40196  12.693   6.429   9.982 -0.0680  0.1080  0.2143
 1675BOLB   C1D40197  11.449   7.233   9.175 -0.2083 -0.2527 -0.0034
 1675BOLB   C2D40198  11.646   6.856   9.474 -0.1026  0.3143 -0.2067
 1675BOLB   C3D40199  11.788   6.734   9.794  0.2721 -0.1360  0.1057
 1675BOLB   C4D40200  11.782   6.577  10.106  0.1783 -0.0530 -0.0503
 1676BOLB   NC140201  20.743   8.868  16.331  0.1816  0.1142 -0.0149
 1676BOLB   PO140202  20.527   8.615  15.968 -0.3776  0.1111  0.0527
 1676BOLB   GL140203  20.792   8.383  15.619  0.3223  0.1032  0.1921
 1676BOLB   GL240204  21.159   8.424  15.617  0.0777 -0.1294  0.0954
 1676BOLB   C1A40205  21.036   8.111  15.176 -0.0276 -0.0586  0.2485
 1676BOLB   C2A40206  21.192   7.773  14.974 -0.2677 -0.1708 -0.2974
 1676BOLB   C3A40207  21.209   7.667  14.599 -0.1643  0.0381 -0.3344
 1676BOLB   C4A40208  21.445   7.300  14.402  0.1057  0.2479 -0.0267
 1676BOLB   C1B40209  21.325   8.088  15.556 -0.1611 -0.3438  0.1680
 1676BOLB   C2B40210  21.299   7.733  15.506  0.1261  0.2113  0.1472
 1676BOLB   C3B40211  21.493   7.489  15.260  0.0361 -0.2103  0.1151
 1676BOLB   C4B40212  21.762   7.136  15.206 -0.0559 -0.1959  0.1754
 1676BOLB   NC240213  22.880   6.129  13.516  0.1099 -0.1613 -0.2441
 1676BOLB   PO240214  22.894   6.305  13.173 -0.0399  0.2750  0.3801
 1676BOLB   GL340215  22.861   6.647  13.351  0.0337 -0.0527 -0.2595
 1676BOLB   GL440216  22.476   6.516  13.483 -0.0575  0.0849  0.0788
 1676BOLB   C1C40217  22.746   6.872  13.682  0.0318  0.1529  0.2160
 1676BOLB   C2C40218  22.438   7.210  13.656 -0.0564 -0.0326  0.1437
 1676BOLB   C3C40219  21.969   7.255  13.725  0.1352  0.0664 -0.0393
 1676BOLB   C4C40220  21.797   7.294  14.040  0.1314 -0.1803 -0.0107
 1676BOLB   C1D40221  22.163   6.799  13.524  0.0407  0.0769 -0.0173
 1676BOLB   C2D40222  22.227   6.873  13.948 -0.2692  0.2876  0.0312
 1676BOLB   C3D40223  22.206   7.138  14.210 -0.2178 -0.0836 -0.1296
 1676BOLB   C4D40224  22.232   7.516  14.340 -0.1162  0.2336 -0.0605
 1677BOLB   NC140225  18.142   7.328  15.854  0.0681 -0.0618  0.2130
 1677BOLB   PO140226  18.131   7.191  15.472 -0.1627 -0.1364  0.2514
 1677BOLB   GL140227  18.297   6.845  15.256 -0.0116  0.1761 -0.3039
 1677BOLB   GL240228  18.288   6.898  14.943  0.1573 -0.1534  0.2286
 1677BOLB   C1A40229  18.564   6.531  14.988  0.3861  0.3226 -0.0511
 1677BOLB   C2A40230  18.998   6.257  14.938 -0.1370 -0.1237 -0.0773
 1677BOLB   C3A40231  18.780   6.031  14.535  0.2391 -0.1601 -0.2081
 1677BOLB   C4A40232  18.836   5.681  14.355  0.2219  0.1236 -0.0436
 1677BOLB   C1B40233  18.549   6.963  14.704  0.0284 -0.2065  0.2662
 1677BOLB   C2B40234  18.703   6.971  14.273  0.2907 -0.0122  0.1592
 1677BOLB   C3B40235  18.954   6.956  13.834  0.2401 -0.1691 -0.0817
 1677BOLB   C4B40236  19.118   6.655  13.566 -0.0183  0.0116  0.1363
 1677BOLB   NC240237  19.911   3.889  13.095 -0.2656 -0.2071 -0.0418
 1677BOLB   PO240238  19.624   3.918  13.395  0.0822  0.0980 -0.2432
 1677BOLB   GL340239  19.599   4.222  13.619  0.0629  0.2273 -0.0708
 1677BOLB   GL440240  19.390   4.441  13.508 -0.4849 -0.1601 -0.1498
 1677BOLB   C1C40241  19.494   4.464  14.092 -0.0670 -0.4061  0.2376
 1677BOLB   C2C40242  19.433   4.799  14.325  0.0200  0.0725 -0.0105
 1677BOLB   C3C40243  19.203   5.089  14.351 -0.0511 -0.1437 -0.0307
 1677BOLB   C4C40244  19.100   5.445  14.344 -0.1318 -0.2266 -0.1646
 1677BOLB   C1D40245  19.456   4.902  13.732 -0.1764 -0.0586  0.0305
 1677BOLB   C2D40246  19.410   5.323  13.885 -0.1691 -0.0175 -0.2179
 1677BOLB   C3D40247  19.372   5.683  13.886  0.0931  0.0736  0.2475
 1677BOLB   C4D40248  19.455   5.843  13.470  0.2611  0.2665 -0.0620
 1678BOLB   NC140249  19.833   3.613  16.404 -0.1517 -0.2363 -0.6035
 1678BOLB   PO140250  19.889   4.049  16.428  0.0296 -0.1159 -0.0893
 1678BOLB   GL140251  20.008   4.398  16.251 -0.3512 -0.0966 -0.2690
 1678BOLB   GL240252  20.387   4.449  16.229  0.1728  0.0564 -0.2154
 1678BOLB   C1A40253  19.679   4.730  16.037  0.2281  0.0036 -0.0487
 1678BOLB   C2A40254  19.280   4.964  16.041 -0.0654  0.1459 -0.1605
 1678BOLB   C3A40255  18.883   5.011  15.729 -0.1457 -0.2177  0.1012
 1678BOLB   C4A40256  18.844   4.721  15.295  0.0161 -0.2142  0.0576
 1678BOLB   C1B40257  20.266   4.874  16.403 -0.0576  0.1081  0.1519
 1678BOLB   C2B40258  20.474   4.940  16.859  0.0895  0.1889  0.1482
 1678BOLB   C3B40259  20.339   5.121  17.168 -0.3054 -0.1633 -0.1897
 1678BOLB   C4B40260  20.063   5.465  17.408 -0.0151 -0.0931 -0.0599
 1678BOLB   NC240261  17.939   3.551  14.610 -0.0667 -0.0130  0.4933
 1678BOLB   PO240262  18.267   3.699  14.734 -0.0301  0.2079 -0.0505
 1678BOLB   GL340263  18.444   3.817  14.407 -0.0450  0.2707  0.1137
 1678BOLB   GL440264  18.289   3.722  14.115  0.0203  0.3775 -0.1293
 1678BOLB   C1C40265  18.790   4.038  14.178 -0.1513  0.1888 -0.2292
 1678BOLB   C2C40266  19.061   4.298  14.286 -0.3183 -0.3936  0.1346
 1678BOLB   C3C40267  19.029   4.633  14.552 -0.2042  0.2711 -0.3426
 1678BOLB   C4C40268  18.753   4.745  14.763 -0.0646 -0.0515 -0.0187
 1678BOLB   C1D40269  17.880   3.970  14.000 -0.0064  0.0008 -0.2727
 1678BOLB   C2D40270  17.691   4.302  14.173  0.4556  0.3409 -0.0517
 1678BOLB   C3D40271  17.349   4.426  14.482 -0.2557  0.2238  0.0068
 1678BOLB   C4D40272  17.143   4.815  14.524  0.1796 -0.0785  0.3142
 1679BOLB   NC140273   9.684   7.143  11.630  0.0176 -0.2731  0.0042
 1679BOLB   PO140274   9.854   7.532  11.856 -0.1547 -0.2107 -0.0938
 1679BOLB   GL140275  10.285   7.677  11.790 -0.1477  0.1614  0.2219
 1679BOLB   GL240276  10.495   7.444  11.946 -0.2725  0.0081 -0.1240
 1679BOLB   C1A40277  10.491   7.824  11.371 -0.2216 -0.3218  0.1850
 1679BOLB   C2A40278  10.340   7.868  11.048  0.2080 -0.0647 -0.2382
 1679BOLB   C3A40279  10.317   7.706  10.726  0.1602 -0.2028  0.1227
 1679BOLB   C4A40280  10.441   7.681  10.310 -0.1265 -0.3500  0.3030
 1679BOLB   C1B40281  10.864   7.588  11.849 -0.0826 -0.1317 -0.1393
 1679BOLB   C2B40282  11.182   7.761  11.634  0.0151  0.2417  0.3560
 1679BOLB   C3B40283  11.543   8.073  11.474  0.1863  0.4337 -0.0321
 1679BOLB   C4B40284  11.694   8.264  11.103 -0.2956  0.0775 -0.0751
 1679BOLB   NC240285   9.501   8.616   7.695  0.2729  0.2046 -0.0043
 1679BOLB   PO240286   9.835   8.551   8.094  0.0862  0.0987 -0.1163
 1679BOLB   GL340287  10.093   8.439   8.510 -0.0021  0.3480  0.2531
 1679BOLB   GL440288   9.801   8.446   8.667 -0.2337 -0.0622  0.1257
 1679BOLB   C1C40289  10.289   8.281   8.807 -0.3103 -0.2488  0.0801
 1679BOLB   C2C40290  10.418   8.219   9.224  0.1186 -0.0512 -0.2229
 1679BOLB   C3C40291  10.292   7.824   9.496  0.1899 -0.0885 -0.1711
 1679BOLB   C4C40292  10.367   7.781   9.951 -0.1245  0.1512 -0.0474
 1679BOLB   C1D40293  10.055   8.710   8.912  0.3244  0.0967 -0.0844
 1679BOLB   C2D40294  10.344   8.765   9.125 -0.1115 -0.0864  0.0484
 1679BOLB   C3D40295  10.393   8.569   9.549  0.0391 -0.1202 -0.1381
 1679BOLB   C4D40296  10.525   8.269   9.898  0.0310  0.1306 -0.0329
 1680BOLB   NC140297  18.840   8.946  14.336 -0.0474  0.0466 -0.1329
 1680BOLB   PO140298  18.658   8.593  14.364  0.1282 -0.1085  0.0312
 1680BOLB   GL140299  18.545   8.324  14.108  0.1034  0.2020 -0.1377
 1680BOLB   GL240300  18.497   8.245  13.753 -0.6456  0.3952 -0.2217
 1680BOLB   C1A40301  18.724   7.837  14.083 -0.0419  0.0302  0.4136
 1680BOLB   C2A40302  18.998   7.450  14.142  0.1381 -0.1424  0.2178
 1680BOLB   C3A40303  19.306   7.281  14.086  0.1180 -0.0572 -0.1930
 1680BOLB   C4A40304  19.624   7.157  13.890  0.0138 -0.0002 -0.1559
 1680BOLB   C1B40305  18.518   7.927  13.498 -0.2632  0.0484 -0.0893
 1680BOLB   C2B40306  18.696   7.796  13.191  0.1586 -0.0463 -0.0471
 1680BOLB   C3B40307  18.655   7.655  12.834 -0.1851  0.2402 -0.2174
 1680BOLB   C4B40308  18.613   7.509  12.449 -0.2291 -0.1203 -0.2007
 1680BOLB   NC240309  19.867   5.757  11.831  0.3074  0.0336  0.0594
 1680BOLB   PO240310  20.239   5.990  11.872 -0.0227  0.1444 -0.0591
 1680BOLB   GL340311  20.105   6.405  12.110 -0.2433  0.0071  0.0056
 1680BOLB   GL440312  20.477   6.565  12.203  0.0924  0.0344 -0.1848
 1680BOLB   C1C40313  20.054   6.798  12.498  0.5058  0.1253  0.2784
 1680BOLB   C2C40314  20.077   7.168  12.795  0.0316 -0.0092 -0.3268
 1680BOLB   C3C40315  20.058   7.256  13.167 -0.1061 -0.1736 -0.2091
 1680BOLB   C4C40316  19.770   7.134  13.486  0.2826 -0.0792 -0.1293
 1680BOLB   C1D40317  20.570   6.944  12.475  0.1293 -0.0508  0.0387
 1680BOLB   C2D40318  20.531   7.324  12.680 -0.0103  0.1472 -0.1508
 1680BOLB   C3D40319  20.201   7.674  12.493 -0.2186 -0.2815  0.2293
 1680BOLB   C4D40320  19.872   7.920  12.381 -0.0322  0.1258  0.0798
 1681BOLB   NC140321  22.980   9.930  17.233 -0.2437 -0.4251  0.0893
 1681BOLB   PO140322  22.707   9.658  17.401 -0.4331 -0.2191  0.2562
 1681BOLB   GL140323  22.824   9.276  17.189 -0.0758 -0.2739 -0.1529
 1681BOLB   GL240324  22.569   9.122  16.960 -0.2008  0.0275 -0.0145
 1681BOLB   C1A40325  23.104   8.890  17.046  0.1199  0.4544  0.0708
 1681BOLB   C2A40326  22.808   8.632  16.983 -0.2527  0.3666 -0.1176
 1681BOLB   C3A40327  22.832   8.227  16.946 -0.2400 -0.1311  0.2500
 1681BOLB   C4A40328  22.950   7.865  16.875  0.1569  0.0542  0.0453
 1681BOLB   C1B40329  22.346   8.769  16.788  0.2207 -0.1751  0.1354
 1681BOLB   C2B40330  22.326   8.273  16.669 -0.3186  0.0820  0.0438
 1681BOLB   C3B40331  22.091   7.999  16.416  0.1724 -0.1599 -0.0849
 1681BOLB   C4B40332  22.181   7.666  16.217  0.2442 -0.2047  0.2278
 1681BOLB   NC240333  24.458   6.100  16.965 -0.3126  0.0182 -0.2939
 1681BOLB   PO240334  24.641   6.374  17.030  0.1828  0.1001 -0.2646
 1681BOLB   GL340335  24.281   6.543  16.805 -0.1439  0.1563 -0.1702
 1681BOLB   GL440336  24.153   6.541  17.142  0.0891  0.0858 -0.0642
 1681BOLB   C1C40337  23.883   6.546  16.622 -0.1541 -0.1126  0.3332
 1681BOLB   C2C40338  23.491   6.791  16.688 -0.1381  0.0981  0.2500
 1681BOLB   C3C40339  23.245   7.183  16.718  0.2366 -0.0853  0.0957
 1681BOLB   C4C40340  22.999   7.484  16.732  0.3229  0.2120  0.2810
 1681BOLB   C1D40341  23.764   6.763  17.158  0.1413 -0.2235  0.0743
 1681BOLB   C2D40342  23.278   6.989  17.231  0.2780 -0.2095 -0.0893
 1681BOLB   C3D40343  22.948   7.235  17.199 -0.4735 -0.0663 -0.0893
 1681BOLB   C4D40344  22.573   7.292  16.963 -0.3080 -0.1339  0.4007
 1682BOLB   NC140345  14.280   7.994  12.858  0.1208 -0.0031 -0.1174
 1682BOLB   PO140346  14.206   8.465  12.745 -0.2936  0.0385  0.1798
 1682BOLB   GL140347  14.344   8.304  12.427 -0.1811  0.0483  0.0436
 1682BOLB   GL240348  14.182   8.043  12.227 -0.0070  0.0760  0.2798
 1682BOLB   C1A40349  14.628   8.307  12.177 -0.0392 -0.0508 -0.2766
 1682BOLB   C2A40350  14.796   8.327  11.773  0.1755  0.0506  0.0612
 1682BOLB   C3A40351  14.936   8.362  11.363  0.0626 -0.0971  0.1248
 1682BOLB   C4A40352  14.976   8.395  10.926  0.0803  0.0372  0.0515
 1682BOLB   C1B40353  14.073   7.760  11.925  0.1280 -0.0729 -0.0711
 1682BOLB   C2B40354  14.114   7.805  11.442  0.2403 -0.2970 -0.0624
 1682BOLB   C3B40355  14.278   7.686  11.091  0.0263 -0.3256 -0.0410
 1682BOLB   C4B40356  14.644   7.528  10.907  0.1801  0.1920 -0.0961
 1682BOLB   NC240357  15.491   7.728   8.666  0.2461 -0.2003 -0.2098
 1682BOLB   PO240358  15.259   7.343   8.733 -0.0517  0.1089 -0.0486
 1682BOLB   GL340359  15.287   7.412   9.040 -0.1021  0.1050  0.0033
 1682BOLB   GL440360  15.514   7.477   9.349  0.1452  0.1862  0.0018
 1682BOLB   C1C40361  15.132   7.869   9.274  0.0162  0.0364  0.0436
 1682BOLB   C2C40362  15.138   7.844   9.759 -0.1735 -0.0319 -0.0786
 1682BOLB   C3C40363  15.020   7.942  10.069  0.2268  0.1128  0.1481
 1682BOLB   C4C40364  15.056   8.190  10.392 -0.0507  0.2606 -0.0281
 1682BOLB   C1D40365  15.332   7.386   9.762  0.0721 -0.1368  0.0399
 1682BOLB   C2D40366  15.014   7.450  10.124 -0.4904  0.3839  0.1109
 1682BOLB   C3D40367  14.663   7.494  10.243 -0.2594 -0.2535  0.0281
 1682BOLB   C4D40368  14.265   7.648  10.504  0.2909  0.0284 -0.0922
 1683BOLB   NC140369  12.996   7.048  13.075 -0.3424 -0.3379 -0.1713
 1683BOLB   PO140370  13.451   7.184  13.059  0.2075 -0.2506  0.1988
 1683BOLB   GL140371  13.637   6.947  12.665  0.0425 -0.0239 -0.0305
 1683BOLB   GL240372  13.848   7.014  12.554  0.3202 -0.0355  0.0451
 1683BOLB   C1A40373  13.920   6.440  12.667 -0.0979 -0.4897  0.2135
 1683BOLB   C2A40374  14.049   6.257  12.321  0.1551 -0.0363 -0.0458
 1683BOLB   C3A40375  14.143   6.330  11.908  0.0451  0.2739  0.5884
 1683BOLB   C4A40376  14.074   6.386  11.459 -0.1565 -0.2583 -0.0786
 1683BOLB   C1B40377  14.093   6.783  12.236  0.2575 -0.1421  0.1806
 1683BOLB   C2B40378  14.351   6.794  11.782 -0.2564 -0.1510  0.1642
 1683BOLB   C3B40379  14.428   6.797  11.400 -0.3585 -0.1076  0.0862
 1683BOLB   C4B40380  14.416   6.833  10.947 -0.1204 -0.1109 -0.2804
 1683BOLB   NC240381  15.235   4.301   9.853 -0.2626 -0.1064  0.2649
 1683BOLB   PO240382  15.381   4.791   9.850 -0.0429  0.1359  0.1615
 1683BOLB   GL340383  15.088   4.896  10.138 -0.0428 -0.1713 -0.1103
 1683BOLB   GL440384  14.955   4.641  10.157 -0.4130  0.2787  0.2910
 1683BOLB   C1C40385  15.007   5.212  10.442 -0.2641 -0.2471  0.1345
 1683BOLB   C2C40386  14.614   5.547  10.564 -0.2950  0.1520  0.2013
 1683BOLB   C3C40387  14.590   5.938  10.886  0.4897 -0.1793  0.0408
 1683BOLB   C4C40388  14.232   6.152  11.142  0.3550  0.0753 -0.1115
 1683BOLB   C1D40389  15.111   4.569  10.569 -0.1314 -0.5017 -0.0447
 1683BOLB   C2D40390  15.213   4.893  10.736  0.0713 -0.0287 -0.2101
 1683BOLB   C3D40391  15.260   5.285  10.889  0.1215  0.1421  0.1835
 1683BOLB   C4D40392  15.101   5.687  10.676  0.0812 -0.1728  0.3461
 1684BOLB   NC140393  17.774   6.578  15.817  0.0096 -0.3714 -0.0239
 1684BOLB   PO140394  17.984   6.894  16.057  0.2131  0.1118 -0.2171
 1684BOLB   GL140395  18.277   6.701  15.833 -0.1175 -0.0487  0.0226
 1684BOLB   GL240396  18.528   6.887  15.670 -0.2007  0.0382 -0.0908
 1684BOLB   C1A40397  18.580   6.317  15.797 -0.0206  0.1288 -0.0059
 1684BOLB   C2A40398  18.754   5.943  15.898 -0.3158 -0.1750 -0.3571
 1684BOLB   C3A40399  18.994   5.550  15.812  0.1514 -0.4676  0.0515
 1684BOLB   C4A40400  19.293   5.275  15.530 -0.0743  0.1396  0.1990
 1684BOLB   C1B40401  18.787   6.622  15.445  0.2242 -0.0887 -0.2178
 1684BOLB   C2B40402  19.222   6.391  15.363  0.4598  0.0494  0.1485
 1684BOLB   C3B40403  19.594   6.160  15.166 -0.1993 -0.3347 -0.2881
 1684BOLB   C4B40404  19.792   6.162  14.723  0.0370  0.1148  0.1496
 1684BOLB   NC240405  20.454   3.620  15.010  0.1557 -0.1662 -0.2431
 1684BOLB   PO240406  19.956   3.553  15.069 -0.3355 -0.0125  0.1106
 1684BOLB   GL340407  20.078   3.824  14.739 -0.6021  0.1373  0.1490
 1684BOLB   GL440408  20.298   4.059  14.751 -0.0479 -0.2587 -0.1029
 1684BOLB   C1C40409  19.788   4.143  14.504 -0.0179  0.0355  0.1494
 1684BOLB   C2C40410  19.447   4.404  14.713 -0.4995 -0.0214  0.0575
 1684BOLB   C3C40411  19.368   4.758  14.881  0.2464  0.0691  0.0113
 1684BOLB   C4C40412  19.201   5.014  15.122 -0.2262 -0.0531 -0.3115
 1684BOLB   C1D40413  19.934   4.270  14.949 -0.0782 -0.1281  0.0261
 1684BOLB   C2D40414  19.740   4.602  15.172 -0.1555  0.3204  0.1918
 1684BOLB   C3D40415  19.637   4.906  15.529 -0.1088 -0.0855  0.0313
 1684BOLB   C4D40416  19.903   5.257  15.703 -0.0013 -0.0774  0.1829
 1685BOLB   NC140417  18.866   7.247  17.458  0.0161 -0.2036 -0.0655
 1685BOLB   PO140418  18.576   6.991  17.252  0.0206 -0.1605  0.2450
 1685BOLB   GL140419  18.842   6.630  17.214 -0.1441 -0.1911  0.2193
 1685BOLB   GL240420  19.027   6.369  17.433  0.3329  0.1613 -0.2679
 1685BOLB   C1A40421  19.118   6.409  16.921  0.0374  0.0881 -0.1141
 1685BOLB   C2A40422  19.435   6.286  16.720 -0.0432 -0.1193  0.3765
 1685BOLB   C3A40423  19.747   6.074  16.615  0.2566 -0.1500  0.4553
 1685BOLB   C4A40424  20.069   5.881  16.556  0.0247 -0.3221 -0.0896
 1685BOLB   C1B40425  19.239   6.635  17.695  0.2195 -0.0471 -0.0209
 1685BOLB   C2B40426  19.574   6.756  17.690 -0.0145  0.3903 -0.0054
 1685BOLB   C3B40427  19.918   6.894  17.459 -0.0247  0.2099 -0.0428
 1685BOLB   C4B40428  20.360   6.750  17.263  0.2170 -0.2686  0.2490
 1685BOLB   NC240429  20.535   4.698  14.124  0.2770 -0.0611  0.0782
 1685BOLB   PO240430  20.736   4.676  14.472 -0.2296 -0.2001  0.1694
 1685BOLB   GL340431  20.405   4.811  14.718 -0.3958 -0.0460 -0.2121
 1685BOLB   GL440432  20.222   5.018  14.448 -0.0372 -0.4531 -0.0165
 1685BOLB   C1C40433  20.443   5.235  15.068 -0.0383  0.0024  0.0077
 1685BOLB   C2C40434  20.196   5.531  15.352  0.0046  0.2452 -0.1611
 1685BOLB   C3C40435  20.124   5.711  15.771 -0.0191 -0.1834  0.1947
 1685BOLB   C4C40436  20.312   5.792  16.233 -0.1879  0.2664 -0.2086
 1685BOLB   C1D40437  20.124   5.431  14.717  0.2973  0.0374  0.0785
 1685BOLB   C2D40438  20.123   5.833  14.455 -0.1119 -0.0706 -0.0876
 1685BOLB   C3D40439  20.381   6.174  14.301  0.0271  0.0958 -0.1292
 1685BOLB   C4D40440  20.659   6.436  14.513  0.1145 -0.0622 -0.2354
 1686BOLB   NC140441   8.984   6.597  10.728 -0.0692 -0.0873  0.2969
 1686BOLB   PO140442   8.654   6.842  10.734 -0.1494  0.1406  0.2370
 1686BOLB   GL140443   8.748   7.302  10.553  0.1290  0.0598  0.1013
 1686BOLB   GL240444   8.721   7.342  10.246  0.0029 -0.0100  0.1421
 1686BOLB   C1A40445   9.190   7.489  10.621  0.1392 -0.1043  0.3462
 1686BOLB   C2A40446   9.525   7.556  10.584  0.1639 -0.1504  0.1725
 1686BOLB   C3A40447   9.905   7.329  10.685 -0.1017  0.0856 -0.0423
 1686BOLB   C4A40448  10.306   7.156  10.495 -0.3099  0.0722  0.2607
 1686BOLB   C1B40449   8.940   7.734  10.068 -0.0950  0.3012  0.0894
 1686BOLB   C2B40450   9.125   7.973  10.432 -0.2056 -0.3240  0.3453
 1686BOLB   C3B40451   9.476   8.074  10.643 -0.2071  0.1363  0.1415
 1686BOLB   C4B40452   9.875   7.912  10.682  0.3978  0.1104  0.0208
 1686BOLB   NC240453  10.852   6.590   7.668  0.3774  0.0403 -0.0060
 1686BOLB   PO240454  10.644   6.879   7.947 -0.1741 -0.0558  0.1497
 1686BOLB   GL340455  10.725   6.924   8.385 -0.0328  0.1740 -0.2011
 1686BOLB   GL440456  11.003   7.050   8.500  0.2364  0.1098 -0.0473
 1686BOLB   C1C40457  10.631   7.058   8.800  0.1892  0.0229  0.0057
 1686BOLB   C2C40458  10.364   7.106   9.154  0.1947 -0.0812  0.1020
 1686BOLB   C3C40459  10.324   7.324   9.599 -0.1486 -0.0346 -0.1807
 1686BOLB   C4C40460  10.475   7.272  10.045  0.0405  0.1791  0.2111
 1686BOLB   C1D40461  11.063   7.324   8.770  0.0490  0.2133 -0.3230
 1686BOLB   C2D40462  11.114   7.650   8.997  0.0585 -0.3827 -0.1885
 1686BOLB   C3D40463  11.547   7.792   9.121 -0.1428  0.1366  0.0850
 1686BOLB   C4D40464  11.760   7.985   9.427  0.0537  0.2000 -0.3422
 1687BOLB   NC140465  16.988   8.656  13.492 -0.0959 -0.1848  0.3328
 1687BOLB   PO140466  17.283   8.513  13.816  0.0624 -0.1752 -0.0826
 1687BOLB   GL140467  17.558   8.241  13.920  0.3676  0.0322 -0.2033
 1687BOLB   GL240468  17.918   8.352  13.882 -0.1367 -0.0705 -0.3229
 1687BOLB   C1A40469  17.636   7.831  13.814  0.2098 -0.2883 -0.0515
 1687BOLB   C2A40470  17.847   7.496  13.496  0.1024 -0.0854 -0.1410
 1687BOLB   C3A40471  17.753   7.240  13.106 -0.1063 -0.2266  0.2554
 1687BOLB   C4A40472  17.967   7.030  12.888  0.3559  0.0508  0.0549
 1687BOLB   C1B40473  17.844   8.159  13.525  0.1430 -0.0664 -0.0844
 1687BOLB   C2B40474  18.029   7.909  13.329 -0.4711  0.0901  0.1765
 1687BOLB   C3B40475  18.130   7.678  12.996  0.2627  0.3610  0.1363
 1687BOLB   C4B40476  18.058   7.656  12.544 -0.5708  0.0838 -0.3778
 1687BOLB   NC240477  18.788   5.286  11.369 -0.0931 -0.0221  0.0699
 1687BOLB   PO240478  18.990   5.175  11.697 -0.2178  0.0555 -0.0186
 1687BOLB   GL340479  18.945   5.512  11.934  0.1318 -0.1853 -0.1370
 1687BOLB   GL440480  18.712   5.733  11.739  0.0778 -0.0961 -0.0026
 1687BOLB   C1C40481  18.850   5.928  12.204  0.0687 -0.2025 -0.0436
 1687BOLB   C2C40482  18.721   6.383  12.327  0.0407 -0.0450 -0.1842
 1687BOLB   C3C40483  18.623   6.812  12.385 -0.3453 -0.2047 -0.0051
 1687BOLB   C4C40484  18.340   7.067  12.603  0.1456  0.0530 -0.1255
 1687BOLB   C1D40485  18.454   6.073  11.641 -0.2378  0.1677  0.1848
 1687BOLB   C2D40486  18.103   6.197  11.851 -0.2930 -0.1836  0.3284
 1687BOLB   C3D40487  18.224   6.600  12.132 -0.1695  0.3148 -0.3541
 1687BOLB   C4D40488  18.054   6.951  12.190  0.3029  0.0890 -0.1331
 1688BOLB   NC140489  12.882   5.869  12.945 -0.1113 -0.3504 -0.0338
 1688BOLB   PO140490  12.487   5.582  12.835 -0.3139  0.0192  0.1207
 1688BOLB   GL140491  12.563   5.631  12.337  0.0137 -0.2459 -0.2796
 1688BOLB   GL240492  12.672   5.460  12.048  0.0182 -0.0648 -0.1525
 1688BOLB   C1A40493  12.678   6.035  12.149 -0.0277 -0.2507 -0.1429
 1688BOLB   C2A40494  13.057   6.054  12.004  0.4225 -0.4388 -0.2096
 1688BOLB   C3A40495  13.388   5.823  11.751  0.0383 -0.0786 -0.0243
 1688BOLB   C4A40496  13.804   5.920  11.461 -0.2064 -0.1846 -0.2378
 1688BOLB   C1B40497  12.960   5.581  11.677 -0.0159  0.1788  0.3122
 1688BOLB   C2B40498  13.078   5.438  11.162 -0.0836  0.2874 -0.0324
 1688BOLB   C3B40499  13.299   5.358  10.671 -0.1094 -0.1178  0.0378
 1688BOLB   C4B40500  13.074   5.161  10.318 -0.0105  0.1398 -0.1397
 1688BOLB   NC240501  13.903   3.808  11.403 -0.2018 -0.2061  0.1998
 1688BOLB   PO240502  13.965   3.885  10.892  0.2597  0.1019  0.0758
 1688BOLB   GL340503  14.290   4.169  10.820 -0.3496 -0.0275 -0.1591
 1688BOLB   GL440504  14.578   4.195  10.844  0.0109 -0.2780  0.1641
 1688BOLB   C1C40505  14.244   4.630  10.742  0.1315 -0.2344  0.1524
 1688BOLB   C2C40506  14.127   5.047  10.911  0.2573 -0.0998 -0.1856
 1688BOLB   C3C40507  14.209   5.464  10.992  0.0919  0.1781 -0.0029
 1688BOLB   C4C40508  13.963   5.763  11.124 -0.1423 -0.0982  0.2968
 1688BOLB   C1D40509  14.916   4.042  11.146 -0.2484  0.3510 -0.0513
 1688BOLB   C2D40510  15.214   3.913  11.428  0.1993  0.2757  0.0081
 1688BOLB   C3D40511  15.695   3.852  11.379  0.2807 -0.1182  0.1515
 1688BOLB   C4D40512  16.114   3.821  11.210  0.0752 -0.1336  0.2216
 1689BOLB   NC140513  11.725   5.767  12.224  0.5453  0.0646 -0.1505
 1689BOLB   PO140514  11.215   5.772  12.027 -0.2729  0.1384  0.0423
 1689BOLB   GL140515  11.440   5.975  11.806  0.0307 -0.1726 -0.2102
 1689BOLB   GL240516  11.465   6.274  11.966  0.0129 -0.0032 -0.1096
 1689BOLB   C1A40517  11.504   6.277  11.497 -0.1769  0.2625  0.0958
 1689BOLB   C2A40518  11.766   6.560  11.150 -0.0614  0.2383  0.1867
 1689BOLB   C3A40519  11.693   6.880  10.800 -0.0311 -0.2283 -0.2426
 1689BOLB   C4A40520  11.489   6.889  10.353  0.1993 -0.0190  0.1205
 1689BOLB   C1B40521  11.741   6.526  11.930  0.3166 -0.0218  0.0332
 1689BOLB   C2B40522  12.069   6.656  11.621 -0.0751 -0.1191  0.0127
 1689BOLB   C3B40523  12.381   6.815  11.503  0.2383 -0.2693  0.1090
 1689BOLB   C4B40524  12.834   6.883  11.487 -0.0428  0.3553 -0.2801
 1689BOLB   NC240525   9.445   6.124   9.259  0.1647  0.0078 -0.1098
 1689BOLB   PO240526  10.059   6.247   9.151  0.2161  0.0747 -0.2266
 1689BOLB   GL340527  10.232   6.602   9.352 -0.0285  0.0791 -0.2551
 1689BOLB   GL440528  10.155   6.760   9.606 -0.0692  0.2290 -0.0313
 1689BOLB   C1C40529  10.601   6.717   9.453 -0.3332 -0.0414 -0.1028
 1689BOLB   C2C40530  10.785   6.852   9.782 -0.0328 -0.1485  0.0224
 1689BOLB   C3C40531  11.191   6.999   9.654 -0.0477 -0.0731  0.0533
 1689BOLB   C4C40532  11.434   7.107   9.925  0.2366  0.0198  0.0155
 1689BOLB   C1D40533   9.864   7.056   9.707  0.0989 -0.2615  0.0242
 1689BOLB   C2D40534   9.981   7.333   9.983 -0.2081  0.1365  0.6312
 1689BOLB   C3D40535   9.950   7.696  10.237  0.1965 -0.0474 -0.0905
 1689BOLB   C4D40536   9.706   8.124  10.225 -0.0798  0.2268  0.1803
 1690BOLB   NC140537  15.831   8.134  13.818  0.0809  0.1703 -0.1779
 1690BOLB   PO140538  16.133   7.908  13.623 -0.0315  0.2870 -0.2096
 1690BOLB   GL140539  16.301   7.486  13.411 -0.1645  0.0354 -0.0415
 1690BOLB   GL240540  16.537   7.223  13.646  0.1826  0.0424  0.1083
 1690BOLB   C1A40541  16.216   7.367  12.997 -0.0148 -0.0597  0.3744
 1690BOLB   C2A40542  16.476   7.129  12.750 -0.2207 -0.4118  0.1212
 1690BOLB   C3A40543  16.633   6.980  12.375 -0.0204  0.2584  0.0368
 1690BOLB   C4A40544  16.842   6.874  11.975  0.0803 -0.3591 -0.0468
 1690BOLB   C1B40545  16.638   7.059  13.274  0.1996  0.0114 -0.1017
 1690BOLB   C2B40546  16.882   6.935  12.920  0.0568  0.2819  0.1521
 1690BOLB   C3B40547  17.131   6.684  12.502  0.1942  0.3984  0.1381
 1690BOLB   C4B40548  17.419   6.690  12.061 -0.1969  0.2792  0.3132
 1690BOLB   NC240549  17.888   6.294  10.252 -0.1446  0.1952  0.3701
 1690BOLB   PO240550  18.326   6.595  10.253  0.1289  0.0028 -0.1705
 1690BOLB   GL340551  18.103   6.671  10.698 -0.1689 -0.0879 -0.3046
 1690BOLB   GL440552  18.004   7.028  10.661  0.0034  0.4159  0.1838
 1690BOLB   C1C40553  17.786   6.510  10.913  0.0327 -0.1657 -0.0850
 1690BOLB   C2C40554  17.641   6.594  11.174 -0.3326  0.4264 -0.0936
 1690BOLB   C3C40555  17.513   6.776  11.326 -0.1537 -0.1214 -0.0096
 1690BOLB   C4C40556  17.212   6.797  11.580 -0.4025  0.2516 -0.1336
 1690BOLB   C1D40557  17.569   6.892  10.760 -0.1215 -0.0812 -0.0707
 1690BOLB   C2D40558  17.153   6.901  10.634 -0.2406  0.0664  0.1727
 1690BOLB   C3D40559  16.754   6.959  10.594  0.1344  0.1101 -0.1727
 1690BOLB   C4D40560  16.419   7.144  10.937  0.1282 -0.0243 -0.2240
 1691BOLB   NC140561  21.043   9.166  16.826 -0.3848 -0.1921  0.1254
 1691BOLB   PO140562  20.958   9.012  17.189  0.1561  0.0188 -0.1502
 1691BOLB   GL140563  21.206   8.728  17.066 -0.0292 -0.2497 -0.3362
 1691BOLB   GL240564  21.445   8.813  17.341 -0.3771 -0.1188 -0.0659
 1691BOLB   C1A40565  21.497   8.343  17.012 -0.0478  0.1227 -0.0111
 1691BOLB   C2A40566  21.916   8.199  16.916 -0.0361  0.0222  0.0359
 1691BOLB   C3A40567  22.139   7.853  16.938  0.0019  0.0948 -0.2029
 1691BOLB   C4A40568  22.491   7.680  16.627 -0.1652  0.2944  0.1099
 1691BOLB   C1B40569  21.460   8.424  17.507 -0.0419  0.0392  0.0927
 1691BOLB   C2B40570  21.255   8.029  17.532 -0.0826  0.4835  0.2956
 1691BOLB   C3B40571  21.067   7.598  17.789  0.3143 -0.3104  0.1082
 1691BOLB   C4B40572  21.159   7.172  17.869 -0.2024 -0.0234 -0.0297
 1691BOLB   NC240573  23.347   4.773  16.137 -0.0302  0.0848  0.1876
 1691BOLB   PO240574  23.207   5.236  16.103  0.1950  0.1081  0.0839
 1691BOLB   GL340575  22.939   5.506  15.942 -0.1013 -0.3257 -0.0929
 1691BOLB   GL440576  22.620   5.274  16.002 -0.0440 -0.0152 -0.0390
 1691BOLB   C1C40577  22.998   5.947  15.959 -0.2793  0.1590  0.4098
 1691BOLB   C2C40578  23.077   6.416  15.968  0.4750  0.0446 -0.0043
 1691BOLB   C3C40579  22.873   6.834  16.177 -0.0183 -0.2276 -0.2053
 1691BOLB   C4C40580  22.456   7.239  16.392 -0.2263 -0.0028 -0.0841
 1691BOLB   C1D40581  22.253   5.547  16.051 -0.2107  0.1362  0.0968
 1691BOLB   C2D40582  22.155   5.991  15.990 -0.1116  0.2531  0.0703
 1691BOLB   C3D40583  21.959   6.305  16.215 -0.1186  0.0372 -0.1585
 1691BOLB   C4D40584  22.011   6.761  16.359  0.2452 -0.2096 -0.0149
 1692BOLB   NC140585  14.804   7.858  13.054  0.1240  0.0173 -0.2133
 1692BOLB   PO140586  14.376   7.614  13.143 -0.1542  0.1110  0.1669
 1692BOLB   GL140587  14.669   7.429  12.851 -0.2115 -0.1848  0.0682
 1692BOLB   GL240588  14.702   7.003  12.970 -0.0155  0.1091  0.1233
 1692BOLB   C1A40589  14.974   7.269  12.591 -0.2253  0.2921  0.0854
 1692BOLB   C2A40590  15.281   7.200  12.194  0.1373 -0.0702  0.1877
 1692BOLB   C3A40591  15.441   6.975  11.916 -0.1239 -0.1737  0.0893
 1692BOLB   C4A40592  15.435   6.786  11.546  0.0163  0.0153  0.1226
 1692BOLB   C1B40593  15.044   6.854  12.979 -0.1543 -0.0267 -0.1508
 1692BOLB   C2B40594  15.347   6.961  12.826  0.0038  0.1000  0.3558
 1692BOLB   C3B40595  15.511   6.773  12.397 -0.3453 -0.3276 -0.1826
 1692BOLB   C4B40596  15.759   6.626  12.042  0.0104  0.2793 -0.1870
 1692BOLB   NC240597  16.664   6.903   9.320  0.0595  0.0367  0.0987
 1692BOLB   PO240598  16.275   6.718   9.317 -0.2791  0.1220  0.0491
 1692BOLB   GL340599  16.140   6.816   9.657 -0.3164 -0.1696  0.0104
 1692BOLB   GL440600  15.872   7.062   9.471  0.0121  0.0571 -0.1762
 1692BOLB   C1C40601  16.118   6.835  10.115 -0.0777  0.0709 -0.1028
 1692BOLB   C2C40602  15.787   6.771  10.369  0.1287  0.0726 -0.0326
 1692BOLB   C3C40603  15.428   6.834  10.717 -0.0408 -0.0646  0.0245
 1692BOLB   C4C40604  15.305   6.811  11.109 -0.3118  0.2110  0.3655
 1692BOLB   C1D40605  15.843   7.233   9.843  0.0690 -0.1202  0.2185
 1692BOLB   C2D40606  15.798   7.332  10.254  0.1477  0.0098 -0.0725
 1692BOLB   C3D40607  15.711   7.570  10.559  0.1788 -0.1181  0.2869
 1692BOLB   C4D40608  15.673   7.630  10.950 -0.0756  0.1501 -0.1100
 1693BOLB   NC140609  20.288   9.028  16.461  0.1812 -0.1258 -0.2153
 1693BOLB   PO140610  20.329   8.651  16.478 -0.2034 -0.3822  0.2577
 1693BOLB   GL140611  20.501   8.216  16.463  0.0905 -0.1229  0.0418
 1693BOLB   GL240612  20.647   8.272  16.755 -0.1759  0.0629  0.1973
 1693BOLB   C1A40613  20.664   7.923  16.258  0.2463  0.0793 -0.1712
 1693BOLB   C2A40614  20.894   7.542  16.276  0.0285 -0.1592  0.2591
 1693BOLB   C3A40615  21.194   7.277  16.133 -0.2638  0.1182 -0.0901
 1693BOLB   C4A40616  21.515   6.928  16.207 -0.2990  0.2712 -0.1508
 1693BOLB   C1B40617  20.611   7.830  16.824  0.1395 -0.4665  0.0558
 1693BOLB   C2B40618  20.890   7.439  16.751 -0.0661  0.2394  0.0754
 1693BOLB   C3B40619  20.814   7.083  16.494 -0.1549 -0.3694 -0.1968
 1693BOLB   C4B40620  21.043   6.802  16.358  0.0519  0.1507 -0.0583
 1693BOLB   NC240621  22.058   4.583  15.890  0.3019 -0.0676 -0.0287
 1693BOLB   PO240622  22.105   4.632  15.439  0.2043 -0.0815 -0.0904
 1693BOLB   GL340623  22.006   5.107  15.609  0.0159  0.0602 -0.0044
 1693BOLB   GL440624  22.105   5.059  15.985 -0.1429  0.0627  0.1598
 1693BOLB   C1C40625  21.839   5.516  15.830 -0.1340 -0.2202 -0.3159
 1693BOLB   C2C40626  21.718   5.672  16.077 -0.0543 -0.2689 -0.0726
 1693BOLB   C3C40627  21.549   6.082  16.196  0.1465  0.1444 -0.1551
 1693BOLB   C4C40628  21.488   6.504  16.374 -0.2430  0.0744  0.5027
 1693BOLB   C1D40629  21.660   5.098  16.020 -0.1545  0.3000  0.4221
 1693BOLB   C2D40630  21.337   5.341  16.016 -0.1941  0.1701  0.0718
 1693BOLB   C3D40631  20.982   5.561  15.929  0.0688  0.2546  0.0974
 1693BOLB   C4D40632  20.665   5.807  15.843  0.2529 -0.1042 -0.1648
 1694BOLB   NC140633  11.373   7.230  13.032  0.3612  0.0975  0.1809
 1694BOLB   PO140634  11.669   7.144  12.587  0.0214  0.3456 -0.0559
 1694BOLB   GL140635  11.609   7.089  12.177 -0.1470  0.1874 -0.0955
 1694BOLB   GL240636  11.374   7.019  12.026 -0.3733  0.1193 -0.1740
 1694BOLB   C1A40637  11.789   7.101  11.774  0.0473 -0.2699 -0.0656
 1694BOLB   C2A40638  12.004   7.171  11.341  0.2376  0.1481  0.2037
 1694BOLB   C3A40639  12.066   7.327  10.862  0.0177 -0.0534  0.0425
 1694BOLB   C4A40640  12.343   7.438  10.482  0.2391 -0.2842 -0.0844
 1694BOLB   C1B40641  11.179   7.275  11.735  0.2646  0.3070  0.2732
 1694BOLB   C2B40642  11.585   7.522  11.404 -0.2663  0.0205 -0.0153
 1694BOLB   C3B40643  11.888   7.753  11.124  0.3750 -0.2564 -0.4013
 1694BOLB   C4B40644  11.909   7.865  10.773  0.2011  0.1033  0.0844
 1694BOLB   NC240645  11.881   7.363   8.375 -0.1699 -0.1782  0.2257
 1694BOLB   PO240646  12.344   7.347   8.253  0.2145 -0.2099  0.1815
 1694BOLB   GL340647  12.460   7.395   8.601 -0.1405 -0.0292 -0.3090
 1694BOLB   GL440648  12.244   7.264   8.738  0.4919  0.0039  0.0545
 1694BOLB   C1C40649  12.648   7.856   8.832  0.0871  0.1091  0.2177
 1694BOLB   C2C40650  12.759   7.868   9.289 -0.0760 -0.1605 -0.1057
 1694BOLB   C3C40651  12.745   7.864   9.748  0.1257  0.2263 -0.1517
 1694BOLB   C4C40652  12.472   7.699  10.124 -0.2796  0.0810  0.1182
 1694BOLB   C1D40653  12.078   7.285   9.141  0.3995  0.1562 -0.1323
 1694BOLB   C2D40654  11.891   7.330   9.527 -0.5021  0.3357 -0.2166
 1694BOLB   C3D40655  11.980   7.289  10.061 -0.1611  0.2899 -0.0397
 1694BOLB   C4D40656  11.927   7.081  10.431 -0.0035 -0.3227  0.1129
 1695BOLB   NC140657  11.993   6.465  12.657  0.0620  0.0558 -0.1525
 1695BOLB   PO140658  11.916   6.130  12.477  0.2741 -0.0838  0.1122
 1695BOLB   GL140659  12.122   6.099  12.150  0.0957  0.5179  0.2879
 1695BOLB   GL240660  11.944   6.064  11.916  0.2357 -0.0098 -0.1258
 1695BOLB   C1A40661  12.433   6.376  11.826  0.2307 -0.0056  0.1945
 1695BOLB   C2A40662  12.678   6.324  11.466  0.0233 -0.0728 -0.0810
 1695BOLB   C3A40663  12.682   6.666  11.085  0.0419 -0.0466  0.0592
 1695BOLB   C4A40664  12.844   6.650  10.690  0.0925  0.2154  0.2578
 1695BOLB   C1B40665  12.307   5.859  11.671  0.3610 -0.0147 -0.4040
 1695BOLB   C2B40666  12.646   5.804  11.377 -0.0139  0.0352 -0.0199
 1695BOLB   C3B40667  13.029   5.961  11.339 -0.1878  0.2746  0.3221
 1695BOLB   C4B40668  13.394   5.820  11.254 -0.0367  0.1249  0.0481
 1695BOLB   NC240669  13.013   5.225   8.860 -0.3776  0.3211 -0.0899
 1695BOLB   PO240670  13.418   5.128   9.061  0.3404  0.0139  0.5245
 1695BOLB   GL340671  13.326   5.432   9.245 -0.0628  0.3666 -0.2360
 1695BOLB   GL440672  13.009   5.633   9.203 -0.1873  0.2296 -0.4915
 1695BOLB   C1C40673  13.200   5.656   9.679  0.0418  0.0859 -0.1198
 1695BOLB   C2C40674  13.357   6.018   9.876  0.3566 -0.3839  0.1998
 1695BOLB   C3C40675  13.441   6.408  10.036  0.1233  0.3034  0.3307
 1695BOLB   C4C40676  13.097   6.660  10.303  0.5053 -0.0046 -0.3358
 1695BOLB   C1D40677  12.993   6.119   9.121  0.0558 -0.3322  0.1204
 1695BOLB   C2D40678  13.000   6.589   9.218 -0.2383  0.0357 -0.1417
 1695BOLB   C3D40679  12.941   7.085   9.313 -0.2254 -0.1638 -0.1324
 1695BOLB   C4D40680  13.016   7.473   9.279  0.0980 -0.0364 -0.0338
 1696BOLB   NC140681  17.081   6.736  15.243  0.2252 -0.1007  0.0006
 1696BOLB   PO140682  16.761   6.691  14.847 -0.1034 -0.1366  0.0868
 1696BOLB   GL140683  16.796   6.547  14.420 -0.0858  0.3079 -0.0150
 1696BOLB   GL240684  16.616   6.516  14.188  0.2200 -0.0456  0.1826
 1696BOLB   C1A40685  16.991   6.188  14.259  0.0111 -0.0889 -0.2600
 1696BOLB   C2A40686  17.301   6.099  13.880 -0.1928  0.0998  0.0198
 1696BOLB   C3A40687  17.697   5.920  13.785 -0.2222  0.0245 -0.1602
 1696BOLB   C4A40688  18.019   5.699  13.813 -0.0340  0.0152 -0.0072
 1696BOLB   C1B40689  16.867   6.382  13.731  0.1579 -0.1436  0.0045
 1696BOLB   C2B40690  17.053   6.244  13.348 -0.1630 -0.1221 -0.4520
 1696BOLB   C3B40691  17.321   6.463  13.032  0.3367 -0.1711  0.0841
 1696BOLB   C4B40692  17.473   6.300  12.662  0.1495 -0.0544  0.2350
 1696BOLB   NC240693  19.036   4.666  11.791  0.4939  0.0418  0.2358
 1696BOLB   PO240694  18.898   4.326  12.049 -0.3068 -0.1071  0.0936
 1696BOLB   GL340695  18.742   4.750  12.302  0.0009  0.0809 -0.5099
 1696BOLB   GL440696  18.807   5.074  12.154  0.0082 -0.3808 -0.0673
 1696BOLB   C1C40697  18.800   5.040  12.658 -0.0756  0.0796  0.2426
 1696BOLB   C2C40698  18.484   5.355  12.861 -0.0187  0.0523 -0.1601
 1696BOLB   C3C40699  18.254   5.374  13.224 -0.0887 -0.0657  0.2576
 1696BOLB   C4C40700  18.302   5.437  13.646  0.2194  0.3777 -0.2031
 1696BOLB   C1D40701  18.299   5.036  12.248 -0.5872  0.0333 -0.3578
 1696BOLB   C2D40702  18.076   5.125  12.617 -0.0068  0.0432  0.0222
 1696BOLB   C3D40703  18.185   4.967  12.975 -0.0842 -0.4429 -0.1325
 1696BOLB   C4D40704  17.906   5.003  13.354  0.0861  0.2331  0.0915
 1697BOLB   NC140705  18.240   8.060  14.531 -0.0291 -0.2595  0.0830
 1697BOLB   PO140706  18.530   7.732  14.729  0.0820  0.3859  0.0664
 1697BOLB   GL140707  18.392   7.439  14.534 -0.0465  0.1021 -0.0110
 1697BOLB   GL240708  18.131   7.330  14.645 -0.0279  0.0079 -0.2673
 1697BOLB   C1A40709  18.464   7.383  14.107  0.2479  0.0183 -0.1449
 1697BOLB   C2A40710  18.526   7.218  13.822 -0.0668 -0.2366  0.0546
 1697BOLB   C3A40711  18.849   7.413  13.524 -0.0159 -0.1141  0.2756
 1697BOLB   C4A40712  18.992   7.418  13.121  0.0939 -0.2382  0.0286
 1697BOLB   C1B40713  18.195   7.026  14.387 -0.1751  0.0785 -0.0024
 1697BOLB   C2B40714  18.357   6.796  13.994  0.3013 -0.0446  0.5559
 1697BOLB   C3B40715  18.454   6.619  13.588 -0.1242 -0.3290  0.0006
 1697BOLB   C4B40716  18.670   6.436  13.379 -0.1742  0.1258  0.0040
 1697BOLB   NC240717  19.812   6.254  11.017  0.2917 -0.2715  0.0412
 1697BOLB   PO240718  19.667   6.681  11.120 -0.2411  0.1347  0.3615
 1697BOLB   GL340719  19.610   6.777  11.575 -0.1557  0.3153  0.3032
 1697BOLB   GL440720  19.309   6.884  11.566  0.0439  0.1222 -0.1041
 1697BOLB   C1C40721  19.473   6.835  12.050 -0.1587 -0.0838 -0.2727
 1697BOLB   C2C40722  19.583   6.874  12.400 -0.0533  0.1191  0.3716
 1697BOLB   C3C40723  19.591   7.129  12.679 -0.0233 -0.0967 -0.6157
 1697BOLB   C4C40724  19.373   7.362  12.965  0.2016  0.1309 -0.0759
 1697BOLB   C1D40725  18.863   7.114  11.585  0.1645  0.5728 -0.3618
 1697BOLB   C2D40726  18.816   7.613  11.738 -0.0601  0.4050  0.3309
 1697BOLB   C3D40727  18.778   8.085  11.912 -0.2561 -0.0412  0.3409
 1697BOLB   C4D40728  18.531   8.434  12.108 -0.0310  0.0818 -0.1573
 1698BOLB   NC140729  18.183   5.975  16.684  0.3692 -0.1815 -0.0008
 1698BOLB   PO140730  18.160   6.226  17.155 -0.1912  0.2102  0.0048
 1698BOLB   GL140731  18.545   6.188  17.066  0.1062  0.4139 -0.1597
 1698BOLB   GL240732  18.725   5.997  17.388 -0.0586 -0.1750  0.0341
 1698BOLB   C1A40733  18.813   5.982  16.829 -0.4311 -0.0595 -0.1680
 1698BOLB   C2A40734  19.081   6.014  16.452 -0.1519 -0.0514 -0.1078
 1698BOLB   C3A40735  19.257   6.000  16.032 -0.0707 -0.1915  0.1320
 1698BOLB   C4A40736  19.616   6.114  15.789 -0.0056 -0.1499 -0.1665
 1698BOLB   C1B40737  19.072   5.868  17.326 -0.1468 -0.2040  0.2221
 1698BOLB   C2B40738  19.293   5.871  16.939 -0.0279 -0.3007  0.0902
 1698BOLB   C3B40739  19.512   5.665  16.508 -0.0789  0.0380  0.0969
 1698BOLB   C4B40740  19.621   5.735  16.119  0.0908 -0.1085 -0.2848
 1698BOLB   NC240741  21.212   4.628  14.502  0.0573  0.0264 -0.1578
 1698BOLB   PO240742  21.071   5.046  14.235  0.1498 -0.1460  0.1124
 1698BOLB   GL340743  21.105   5.379  14.520 -0.0292 -0.2029 -0.4123
 1698BOLB   GL440744  21.284   5.492  14.279 -0.1271  0.1131  0.1915
 1698BOLB   C1C40745  21.011   5.484  14.956  0.1188  0.0771  0.2220
 1698BOLB   C2C40746  20.672   5.676  15.137  0.1680  0.0373 -0.0470
 1698BOLB   C3C40747  20.453   5.953  15.437 -0.2317  0.0352  0.0718
 1698BOLB   C4C40748  19.993   6.100  15.526 -0.1425 -0.2651  0.0604
 1698BOLB   C1D40749  21.347   5.782  14.597  0.0712  0.0284 -0.0494
 1698BOLB   C2D40750  20.975   6.078  14.728 -0.1192  0.0507 -0.0956
 1698BOLB   C3D40751  20.487   6.116  14.843  0.1695  0.1955  0.1760
 1698BOLB   C4D40752  20.185   5.921  14.925  0.3048 -0.1605 -0.1291
 1699BOLB   NC140753  21.538  23.128  17.480  0.2513 -0.0690  0.3567
 1699BOLB   PO140754  21.556  23.452  17.238 -0.0303  0.0730  0.3894
 1699BOLB   GL140755  21.873  23.739  17.214  0.3481 -0.0539  0.3005
 1699BOLB   GL240756  21.824  24.020  17.301 -0.0908 -0.0722 -0.2457
 1699BOLB   C1A40757  22.286  23.814  17.448  0.3618  0.0341 -0.3138
 1699BOLB   C2A40758  22.625  24.059  17.516  0.0684  0.5519 -0.3641
 1699BOLB   C3A40759  22.875  24.250  17.356 -0.5919  0.2585  0.1189
 1699BOLB   C4A40760  23.235  24.510  17.349  0.0155 -0.0560 -0.4446
 1699BOLB   C1B40761  22.205  24.150  17.091  0.1402 -0.1441  0.2308
 1699BOLB   C2B40762  22.497  24.342  16.956  0.2900 -0.2644  0.1206
 1699BOLB   C3B40763  22.826  24.554  16.919  0.0657 -0.0922 -0.2001
 1699BOLB   C4B40764  23.229  24.489  16.878 -0.0501 -0.1150  0.1225
 1699BOLB   NC240765  26.059  24.719  16.291  0.2820  0.2945  0.0085
 1699BOLB   PO240766  25.615  24.746  16.091 -0.0236 -0.0080 -0.1533
 1699BOLB   GL340767  25.240  24.740  16.245  0.1190  0.2636  0.1319
 1699BOLB   GL440768  25.120  24.939  16.403  0.0380 -0.2156  0.1162
 1699BOLB   C1C40769  24.815  24.557  16.619 -0.1612  0.1253 -0.2454
 1699BOLB   C2C40770  24.444  24.569  16.792 -0.1709 -0.0333  0.2423
 1699BOLB   C3C40771  23.965  24.532  16.952  0.0960 -0.0221  0.0738
 1699BOLB   C4C40772  23.631  24.511  17.188  0.4687  0.1695 -0.1867
 1699BOLB   C1D40773  24.660  25.016  16.498  0.1823 -0.1964 -0.2028
 1699BOLB   C2D40774  24.263  24.880  16.472 -0.1925 -0.1901  0.0342
 1699BOLB   C3D40775  24.117  24.839  16.009  0.3067  0.1856  0.1321
 1699BOLB   C4D40776  24.153  25.100  15.657  0.2279  0.2953  0.0683
 1700BOLB   NC140777  20.743  24.420  15.598  0.0848  0.2279  0.0867
 1700BOLB   PO140778  20.845  24.229  15.990  0.0251  0.0984  0.0206
 1700BOLB   GL140779  21.202  24.507  15.763 -0.1191 -0.3168 -0.1136
 1700BOLB   GL240780  21.039  24.718  15.834 -0.1152 -0.0648  0.2489
 1700BOLB   C1A40781  21.712  24.517  15.862 -0.0828  0.1078 -0.5018
 1700BOLB   C2A40782  22.001  24.667  15.671  0.0740  0.2222  0.0514
 1700BOLB   C3A40783  22.333  24.814  15.435 -0.2372  0.0146 -0.0247
 1700BOLB   C4A40784  22.802  24.788  15.463 -0.1292 -0.2009 -0.0481
 1700BOLB   C1B40785  21.456  25.027  15.789 -0.0810  0.3521  0.4032
 1700BOLB   C2B40786  21.769  25.358  15.969 -0.0707  0.5119 -0.2933
 1700BOLB   C3B40787  22.207  25.478  15.969  0.0374 -0.0440  0.1695
 1700BOLB   C4B40788  22.575  25.603  15.975  0.2395 -0.0487 -0.1608
 1700BOLB   NC240789  24.778  26.103  15.116 -0.1656  0.0040  0.2104
 1700BOLB   PO240790  24.805  26.042  15.592  0.2736 -0.0070 -0.0516
 1700BOLB   GL340791  24.417  25.943  15.823 -0.1635 -0.3218  0.0228
 1700BOLB   GL440792  24.323  25.610  15.680  0.1510  0.2293  0.0982
 1700BOLB   C1C40793  23.987  25.977  15.711 -0.1501 -0.1661 -0.3011
 1700BOLB   C2C40794  23.672  25.846  15.416  0.1766 -0.3000 -0.2900
 1700BOLB   C3C40795  23.331  25.474  15.429 -0.1041 -0.5071  0.1164
 1700BOLB   C4C40796  23.130  25.097  15.603  0.1345 -0.3002 -0.0961
 1700BOLB   C1D40797  24.355  25.316  16.076 -0.1045 -0.1736  0.1423
 1700BOLB   C2D40798  24.084  25.374  16.535 -0.0400 -0.1291  0.1610
 1700BOLB   C3D40799  23.700  25.432  16.929  0.0763  0.0198 -0.0375
 1700BOLB   C4D40800  23.776  25.874  16.984  0.1894  0.2078 -0.2992
 1701BOLB   NC140801  22.686  20.542  15.413  0.0298 -0.0027  0.0046
 1701BOLB   PO140802  22.840  20.259  15.762 -0.1370  0.0753  0.0708
 1701BOLB   GL140803  23.225  20.597  15.583  0.0463 -0.0110 -0.1246
 1701BOLB   GL240804  23.048  20.842  15.590 -0.2571 -0.0766  0.0147
 1701BOLB   C1A40805  23.465  20.810  15.240  0.1281 -0.0806  0.1983
 1701BOLB   C2A40806  23.821  21.078  15.003  0.3560 -0.0965 -0.1892
 1701BOLB   C3A40807  24.172  21.205  14.767  0.0548 -0.2462  0.0159
 1701BOLB   C4A40808  24.564  21.378  14.586  0.0980 -0.1520 -0.3471
 1701BOLB   C1B40809  23.474  21.223  15.600 -0.1143  0.0341  0.3250
 1701BOLB   C2B40810  23.844  21.220  15.520  0.0655 -0.1442 -0.1026
 1701BOLB   C3B40811  24.178  21.407  15.331  0.0886 -0.1112 -0.1350
 1701BOLB   C4B40812  24.334  21.783  15.381 -0.0394  0.1886  0.1665
 1701BOLB   NC240813  26.367  22.448  14.185 -0.1266  0.1690  0.0474
 1701BOLB   PO240814  26.546  22.184  14.548  0.2879  0.0927  0.2540
 1701BOLB   GL340815  26.440  21.833  14.540 -0.1095  0.2547  0.0361
 1701BOLB   GL440816  26.306  21.896  14.851 -0.0260 -0.0591  0.1750
 1701BOLB   C1C40817  26.097  21.578  14.292 -0.0393  0.2670 -0.1655
 1701BOLB   C2C40818  25.729  21.368  14.255  0.2209  0.3947 -0.0874
 1701BOLB   C3C40819  25.316  21.258  14.350  0.3505  0.1300  0.3333
 1701BOLB   C4C40820  24.857  21.258  14.351  0.1786  0.0144 -0.2520
 1701BOLB   C1D40821  25.890  21.849  14.642 -0.2884 -0.0884  0.0198
 1701BOLB   C2D40822  25.545  21.601  14.692 -0.0575  0.1581  0.2473
 1701BOLB   C3D40823  25.449  21.344  14.913 -0.1282  0.1767  0.0445
 1701BOLB   C4D40824  25.121  21.322  15.177 -0.1084  0.1470  0.2946
 1702BOLB   NC140825  24.211  18.612  18.205 -0.3573  0.0266 -0.0462
 1702BOLB   PO140826  24.509  18.935  18.257 -0.1870 -0.0562 -0.1884
 1702BOLB   GL140827  24.818  19.170  18.131  0.3046  0.0130  0.1591
 1702BOLB   GL240828  24.884  19.542  18.171  0.0526  0.0629  0.1712
 1702BOLB   C1A40829  25.214  19.199  18.121  0.0954 -0.0923 -0.0555
 1702BOLB   C2A40830  25.490  19.360  17.870  0.0243  0.3344 -0.0344
 1702BOLB   C3A40831  25.850  19.711  17.906  0.0396 -0.2711  0.1817
 1702BOLB   C4A40832  26.350  19.669  17.857  0.0906  0.0678  0.0385
 1702BOLB   C1B40833  25.304  19.657  18.296 -0.1019 -0.0204  0.1876
 1702BOLB   C2B40834  25.518  19.735  18.700 -0.1464 -0.1154 -0.0872
 1702BOLB   C3B40835  25.264  20.059  18.894 -0.1061  0.0544 -0.1011
 1702BOLB   C4B40836  24.810  20.174  18.953  0.0536  0.0634  0.3615
 1702BOLB   NC240837  28.620  19.183  17.732 -0.3211  0.0353  0.0294
 1702BOLB   PO240838  28.479  18.797  17.494 -0.2455 -0.2027 -0.3749
 1702BOLB   GL340839  28.011  18.949  17.373  0.0415 -0.0205 -0.2006
 1702BOLB   GL440840  28.007  18.991  17.716 -0.0958  0.0213  0.3986
 1702BOLB   C1C40841  27.729  19.181  17.338  0.1719 -0.0576 -0.0447
 1702BOLB   C2C40842  27.234  19.280  17.376 -0.0010  0.1254  0.3223
 1702BOLB   C3C40843  26.929  19.691  17.276 -0.0712  0.4712 -0.1381
 1702BOLB   C4C40844  26.579  19.675  17.493 -0.3686  0.0327 -0.0119
 1702BOLB   C1D40845  27.839  18.802  18.034  0.0047  0.0129  0.0275
 1702BOLB   C2D40846  27.651  18.408  18.239  0.1049  0.0265  0.2299
 1702BOLB   C3D40847  27.542  18.101  18.631  0.0430  0.0290  0.3512
 1702BOLB   C4D40848  27.427  18.045  19.138 -0.3748 -0.1223  0.0287
 1703BOLB   NC140849  24.452  17.310  16.651  0.2076  0.1100  0.0802
 1703BOLB   PO140850  24.135  17.563  16.754 -0.0457 -0.0043 -0.0423
 1703BOLB   GL140851  24.482  17.869  16.600 -0.0729  0.0876 -0.3245
 1703BOLB   GL240852  24.536  18.190  16.574  0.1802 -0.5093  0.2053
 1703BOLB   C1A40853  24.926  17.785  16.603 -0.1731 -0.0530  0.0246
 1703BOLB   C2A40854  25.276  17.954  16.555  0.0941 -0.0190  0.0916
 1703BOLB   C3A40855  25.758  18.122  16.640 -0.1044 -0.0404 -0.0240
 1703BOLB   C4A40856  26.238  18.223  16.637  0.3266 -0.1058 -0.2934
 1703BOLB   C1B40857  24.884  18.274  16.410 -0.0530 -0.1772 -0.1647
 1703BOLB   C2B40858  25.101  18.439  15.976 -0.0117  0.1207 -0.1195
 1703BOLB   C3B40859  25.556  18.550  15.885 -0.2402 -0.0664 -0.0731
 1703BOLB   C4B40860  25.848  18.891  15.885 -0.0466  0.3389  0.0493
 1703BOLB   NC240861  28.445  18.744  16.014 -0.0854  0.3374 -0.0798
 1703BOLB   PO240862  28.164  18.735  15.681 -0.1540 -0.2145  0.1705
 1703BOLB   GL340863  27.809  18.560  15.948 -0.0264  0.0577  0.0146
 1703BOLB   GL440864  27.964  18.382  16.095  0.1668 -0.1945 -0.0182
 1703BOLB   C1C40865  27.455  18.579  16.214 -0.3093  0.2738 -0.0485
 1703BOLB   C2C40866  27.082  18.944  16.280 -0.0056  0.3566 -0.2475
 1703BOLB   C3C40867  26.765  18.853  16.509  0.1350 -0.0187  0.1162
 1703BOLB   C4C40868  26.597  18.476  16.557  0.1948 -0.4875  0.2010
 1703BOLB   C1D40869  27.744  18.188  16.469 -0.3674  0.0507  0.1369
 1703BOLB   C2D40870  27.889  17.940  16.737  0.0974 -0.1639 -0.1893
 1703BOLB   C3D40871  27.572  17.746  16.930  0.0629 -0.1431  0.1559
 1703BOLB   C4D40872  27.205  17.860  16.912 -0.2721  0.0588 -0.4028
 1704BOLB   NC140873  23.981  16.778  15.094  0.0734 -0.1751  0.1669
 1704BOLB   PO140874  24.033  16.972  14.656  0.2821  0.0886 -0.0793
 1704BOLB   GL140875  24.360  17.068  14.471 -0.1146  0.1277 -0.0675
 1704BOLB   GL240876  24.553  17.367  14.451 -0.0553  0.0902 -0.0227
 1704BOLB   C1A40877  24.357  16.919  14.105 -0.2179 -0.1668 -0.0564
 1704BOLB   C2A40878  24.462  16.631  13.909 -0.0569  0.0485 -0.2459
 1704BOLB   C3A40879  24.713  16.278  13.789 -0.1931 -0.1181 -0.2514
 1704BOLB   C4A40880  25.109  16.218  13.608  0.3210 -0.0432  0.2342
 1704BOLB   C1B40881  24.804  17.135  14.150 -0.0204  0.0593  0.0282
 1704BOLB   C2B40882  24.822  16.857  13.714  0.1356 -0.2605  0.0673
 1704BOLB   C3B40883  25.231  16.681  13.407 -0.0749 -0.0117 -0.2928
 1704BOLB   C4B40884  25.621  16.687  13.350  0.2096 -0.1669 -0.4007
 1704BOLB   NC240885  27.387  16.161  11.728  0.0803 -0.0481 -0.1960
 1704BOLB   PO240886  27.192  16.100  12.255  0.1297  0.0558  0.0576
 1704BOLB   GL340887  26.982  16.116  12.575  0.1421  0.0263 -0.2059
 1704BOLB   GL440888  27.094  16.328  12.755 -0.0684 -0.2365 -0.3968
 1704BOLB   C1C40889  26.517  16.258  12.665  0.0114 -0.4837  0.1871
 1704BOLB   C2C40890  26.136  16.330  12.829 -0.0636  0.0878 -0.0724
 1704BOLB   C3C40891  25.765  16.330  13.061  0.1475 -0.1839 -0.2885
 1704BOLB   C4C40892  25.422  16.245  13.266 -0.1736 -0.2815 -0.1308
 1704BOLB   C1D40893  26.840  16.148  13.023  0.0330  0.0765  0.0507
 1704BOLB   C2D40894  26.469  16.109  13.147 -0.0403 -0.2024  0.0191
 1704BOLB   C3D40895  26.312  15.747  13.166  0.0728  0.0911 -0.1584
 1704BOLB   C4D40896  25.935  15.659  13.274  0.1239 -0.3148  0.1725
 1705BOLB   NC140897  27.114  11.137  12.734  0.1674  0.0871 -0.1718
 1705BOLB   PO140898  27.044  11.207  13.246  0.1365 -0.0786 -0.0927
 1705BOLB   GL140899  26.735  11.256  13.540  0.0978  0.0665 -0.3008
 1705BOLB   GL240900  26.898  11.211  13.874  0.0805  0.0452  0.1290
 1705BOLB   C1A40901  26.390  11.178  13.857 -0.1015 -0.0531  0.3082
 1705BOLB   C2A40902  26.070  10.906  14.011 -0.0449 -0.3002  0.1143
 1705BOLB   C3A40903  25.999  10.606  14.232  0.1885  0.1380 -0.3398
 1705BOLB   C4A40904  25.671  10.402  14.132  0.0887  0.1132  0.0355
 1705BOLB   C1B40905  26.805  11.507  14.194  0.2496 -0.0806 -0.4720
 1705BOLB   C2B40906  27.078  11.650  14.609 -0.0002  0.1012 -0.0640
 1705BOLB   C3B40907  27.052  11.630  15.061 -0.0930  0.1102  0.0628
 1705BOLB   C4B40908  26.995  11.750  15.493  0.2446 -0.1490 -0.2482
 1705BOLB   NC240909  25.489   8.283  13.207 -0.0420  0.1589  0.1538
 1705BOLB   PO240910  25.407   8.546  13.538  0.0370  0.2379 -0.1852
 1705BOLB   GL340911  25.065   8.750  13.600 -0.1971 -0.0224 -0.1317
 1705BOLB   GL440912  24.847   8.785  13.369 -0.0311  0.0647  0.0524
 1705BOLB   C1C40913  24.817   9.031  13.863 -0.2172 -0.1369  0.1333
 1705BOLB   C2C40914  24.844   9.484  13.931  0.2352  0.0269  0.0633
 1705BOLB   C3C40915  25.100   9.845  13.951 -0.2962  0.0883 -0.3858
 1705BOLB   C4C40916  25.292  10.182  14.204 -0.2737  0.0560 -0.3931
 1705BOLB   C1D40917  24.536   8.624  13.073  0.1296  0.1680 -0.2794
 1705BOLB   C2D40918  24.226   8.699  12.794 -0.1440  0.2086 -0.1599
 1705BOLB   C3D40919  23.862   8.715  12.969  0.0718  0.2983  0.0609
 1705BOLB   C4D40920  23.575   8.404  12.931 -0.0593 -0.2885  0.1061
 1706BOLB   NC140921  22.826  21.811  15.949 -0.2122  0.0179 -0.2028
 1706BOLB   PO140922  22.461  22.038  15.849  0.0368  0.3103 -0.1710
 1706BOLB   GL140923  22.755  22.269  15.658  0.0362 -0.2717 -0.0502
 1706BOLB   GL240924  22.689  22.455  15.484  0.1315  0.2662  0.1438
 1706BOLB   C1A40925  23.182  22.309  15.492  0.1535  0.0100 -0.4187
 1706BOLB   C2A40926  23.569  22.375  15.322 -0.3950  0.1587 -0.3354
 1706BOLB   C3A40927  23.956  22.156  15.190  0.0693 -0.0373 -0.0282
 1706BOLB   C4A40928  24.306  22.329  15.181  0.1449  0.4447  0.1612
 1706BOLB   C1B40929  22.739  22.808  15.765  0.1666  0.1172 -0.0841
 1706BOLB   C2B40930  23.045  23.069  15.971  0.4194 -0.0028 -0.0614
 1706BOLB   C3B40931  23.078  23.482  15.963  0.1028  0.2841 -0.1697
 1706BOLB   C4B40932  23.371  23.752  16.095 -0.1427 -0.3761  0.1997
 1706BOLB   NC240933  25.755  24.510  14.410  0.2305 -0.0899  0.0442
 1706BOLB   PO240934  25.344  24.240  14.558 -0.1831 -0.0685  0.0090
 1706BOLB   GL340935  25.015  24.172  14.848 -0.2741  0.0902  0.1213
 1706BOLB   GL440936  24.704  24.295  14.870 -0.1396 -0.3367  0.2274
 1706BOLB   C1C40937  24.962  23.864  15.086  0.0263  0.4896 -0.0675
 1706BOLB   C2C40938  24.796  23.385  15.035 -0.3871  0.1642  0.0972
 1706BOLB   C3C40939  24.733  22.938  15.094  0.3740  0.1211 -0.0611
 1706BOLB   C4C40940  24.662  22.515  15.270 -0.0294 -0.1805 -0.2239
 1706BOLB   C1D40941  24.482  24.162  15.183 -0.2028 -0.1311 -0.3846
 1706BOLB   C2D40942  24.120  24.050  15.394  0.0985 -0.3047 -0.1855
 1706BOLB   C3D40943  23.861  23.964  15.849  0.0684  0.1241 -0.1197
 1706BOLB   C4D40944  24.045  24.020  16.196 -0.1351  0.0799  0.0509
 1707BOLB   NC140945  25.789   8.668  17.018 -0.1074  0.4150 -0.2187
 1707BOLB   PO140946  25.397   8.803  16.901 -0.1027 -0.1748 -0.0562
 1707BOLB   GL140947  24.949   8.538  17.165 -0.3068  0.0575  0.0409
 1707BOLB   GL240948  25.025   8.292  17.325 -0.0310 -0.3781  0.0237
 1707BOLB   C1A40949  24.622   8.483  17.441 -0.1489  0.1007 -0.0804
 1707BOLB   C2A40950  24.575   8.528  17.919  0.0962  0.0961  0.2302
 1707BOLB   C3A40951  24.458   8.351  18.339 -0.1761  0.1215  0.1339
 1707BOLB   C4A40952  24.167   8.015  18.260 -0.2045  0.1274 -0.0575
 1707BOLB   C1B40953  24.842   7.959  17.514  0.2666 -0.4330 -0.1291
 1707BOLB   C2B40954  24.639   7.832  17.831  0.2054  0.0874 -0.0817
 1707BOLB   C3B40955  24.389   7.566  18.166  0.1624  0.2157 -0.2246
 1707BOLB   C4B40956  23.857   7.551  18.337  0.0514 -0.1533 -0.0950
 1707BOLB   NC240957  25.193   6.418  17.647  0.2680 -0.3242  0.0227
 1707BOLB   PO240958  25.046   6.588  17.271  0.0493 -0.1788 -0.1786
 1707BOLB   GL340959  24.706   6.965  17.113  0.1040  0.4208 -0.4242
 1707BOLB   GL440960  25.013   7.028  16.918  0.2277  0.3171  0.0574
 1707BOLB   C1C40961  24.225   7.026  17.146 -0.1032  0.1267 -0.1425
 1707BOLB   C2C40962  23.922   7.253  17.357 -0.0415  0.2745  0.3118
 1707BOLB   C3C40963  23.922   7.694  17.475  0.1089 -0.0349  0.0015
 1707BOLB   C4C40964  23.920   7.858  17.888  0.3032  0.0503 -0.2331
 1707BOLB   C1D40965  24.656   7.366  16.846  0.2037  0.2055  0.0399
 1707BOLB   C2D40966  24.364   7.562  17.151  0.2303 -0.1559  0.1920
 1707BOLB   C3D40967  24.369   7.544  17.517  0.1062 -0.0704 -0.3286
 1707BOLB   C4D40968  24.072   7.368  17.810 -0.2206  0.0876 -0.1166
 1708BOLB   NC140969  24.191  19.412  18.013 -0.1263 -0.5004 -0.1506
 1708BOLB   PO140970  23.911  19.669  18.151  0.0438 -0.0927 -0.0032
 1708BOLB   GL140971  24.198  19.949  17.939  0.2469  0.2933  0.1778
 1708BOLB   GL240972  24.461  19.780  18.028  0.0355  0.1505 -0.2039
 1708BOLB   C1A40973  24.443  20.232  17.778  0.4153 -0.2606  0.4158
 1708BOLB   C2A40974  24.818  20.458  17.646 -0.1201  0.3648 -0.1098
 1708BOLB   C3A40975  25.180  20.572  17.570 -0.1922  0.3389 -0.3764
 1708BOLB   C4A40976  25.609  20.550  17.562  0.0489 -0.0173 -0.0303
 1708BOLB   C1B40977  24.821  20.029  18.117 -0.0571  0.2932  0.0096
 1708BOLB   C2B40978  25.085  20.232  18.428 -0.0468 -0.3059 -0.2467
 1708BOLB   C3B40979  25.408  20.422  18.425  0.2529  0.2339 -0.1199
 1708BOLB   C4B40980  25.582  20.816  18.526  0.1333  0.0890  0.2719
 1708BOLB   NC240981  28.448  20.322  17.331  0.2083 -0.0013  0.1247
 1708BOLB   PO240982  28.056  20.385  17.421  0.1176 -0.2657  0.0026
 1708BOLB   GL340983  27.709  20.286  17.377 -0.0590  0.1573  0.1225
 1708BOLB   GL440984  27.699  20.051  17.701  0.2494 -0.2346  0.2163
 1708BOLB   C1C40985  27.346  20.478  17.649  0.0941 -0.3387  0.1588
 1708BOLB   C2C40986  26.911  20.505  17.789  0.1941 -0.0534  0.1540
 1708BOLB   C3C40987  26.466  20.473  17.537  0.1006 -0.0608 -0.0485
 1708BOLB   C4C40988  26.025  20.517  17.491 -0.0092 -0.0826 -0.1761
 1708BOLB   C1D40989  27.397  19.884  17.741  0.1739  0.0693 -0.0419
 1708BOLB   C2D40990  27.036  20.041  17.642  0.1354 -0.3482  0.1302
 1708BOLB   C3D40991  26.656  20.068  17.778  0.2008 -0.3377 -0.0742
 1708BOLB   C4D40992  26.257  20.214  17.976 -0.1254 -0.1526 -0.2528
 1709BOLB   NC140993  24.009  18.959  16.547  0.0423  0.0145  0.3651
 1709BOLB   PO140994  24.306  19.051  16.893 -0.0427 -0.1125  0.2671
 1709BOLB   GL140995  24.642  19.089  16.774  0.0075  0.3259 -0.1245
 1709BOLB   GL240996  24.726  19.401  16.833  0.0964  0.4525  0.0995
 1709BOLB   C1A40997  25.046  19.289  16.535  0.1319 -0.1899  0.0426
 1709BOLB   C2A40998  25.405  19.457  16.779 -0.2740  0.3384  0.0852
 1709BOLB   C3A40999  25.794  19.426  16.885 -0.0215  0.1666 -0.1270
 1709BOLB   C4A41000  26.148  19.322  16.739 -0.0339 -0.2941  0.2610
 1709BOLB   C1B41001  24.940  19.713  16.819 -0.1091  0.0288  0.0967
 1709BOLB   C2B41002  25.290  19.953  16.674 -0.1005 -0.2503 -0.2087
 1709BOLB   C3B41003  25.629  20.153  16.567 -0.0288  0.0116  0.1046
 1709BOLB   C4B41004  25.997  20.272  16.297  0.2046 -0.0809 -0.1714
 1709BOLB   NC241005  28.064  19.151  15.414 -0.3011 -0.4164 -0.0033
 1709BOLB   PO241006  27.814  19.407  15.291  0.1098 -0.2115  0.1661
 1709BOLB   GL341007  27.560  19.369  15.679  0.0704  0.1081 -0.5469
 1709BOLB   GL441008  27.323  19.389  15.484 -0.2054 -0.2316 -0.0140
 1709BOLB   C1C41009  27.679  19.214  16.044  0.1399 -0.2276  0.2936
 1709BOLB   C2C41010  27.428  19.304  16.303  0.0999  0.0594 -0.2744
 1709BOLB   C3C41011  26.968  19.404  16.446 -0.2362  0.0554 -0.0620
 1709BOLB   C4C41012  26.517  19.295  16.519 -0.0342 -0.1713  0.4367
 1709BOLB   C1D41013  26.915  19.568  15.249  0.0943 -0.1912 -0.3483
 1709BOLB   C2D41014  26.571  19.922  15.318 -0.1462  0.0624 -0.1158
 1709BOLB   C3D41015  26.175  20.042  15.068  0.0221  0.1671  0.0767
 1709BOLB   C4D41016  26.102  19.972  14.636  0.0667 -0.2255 -0.0814
 1710BOLB   NC141017  22.063  21.883  17.742  0.2069  0.0749 -0.1803
 1710BOLB   PO141018  22.411  21.883  17.641 -0.1853 -0.0478 -0.0304
 1710BOLB   GL141019  22.726  22.101  17.327  0.0773  0.2000  0.0553
 1710BOLB   GL241020  22.928  21.803  17.388 -0.0446 -0.0581  0.0565
 1710BOLB   C1A41021  23.025  22.426  17.225  0.3156  0.0029  0.0165
 1710BOLB   C2A41022  23.505  22.683  17.120  0.1264  0.1025 -0.0478
 1710BOLB   C3A41023  23.852  22.696  16.917 -0.0175 -0.2481 -0.2074
 1710BOLB   C4A41024  24.092  22.715  16.521  0.0393  0.1125 -0.0264
 1710BOLB   C1B41025  23.211  22.142  17.638  0.0584  0.0086  0.2896
 1710BOLB   C2B41026  23.584  22.396  17.524  0.0436  0.2080  0.0631
 1710BOLB   C3B41027  23.868  22.728  17.445  0.1501 -0.2761 -0.2637
 1710BOLB   C4B41028  24.219  22.842  17.592 -0.0089  0.2320 -0.1587
 1710BOLB   NC241029  25.717  24.023  15.745  0.1171  0.1465  0.3281
 1710BOLB   PO241030  25.877  23.660  15.647  0.1583 -0.1627  0.0303
 1710BOLB   GL341031  25.483  23.529  15.756  0.0327  0.0073  0.1473
 1710BOLB   GL441032  25.507  23.289  15.992  0.1200 -0.0547 -0.3013
 1710BOLB   C1C41033  25.075  23.589  15.764 -0.0588 -0.0851 -0.1283
 1710BOLB   C2C41034  24.708  23.434  15.743 -0.2287  0.1037  0.1253
 1710BOLB   C3C41035  24.605  23.123  16.041 -0.2895  0.1632  0.0903
 1710BOLB   C4C41036  24.449  22.762  16.343 -0.3169  0.1414 -0.0832
 1710BOLB   C1D41037  25.299  23.050  15.700  0.1893  0.1346  0.2958
 1710BOLB   C2D41038  25.091  22.663  15.443  0.0299  0.1767  0.6563
 1710BOLB   C3D41039  24.932  22.267  15.685  0.0024 -0.3145 -0.4818
 1710BOLB   C4D41040  24.806  22.065  16.052  0.2877  0.0282 -0.1432
 1711BOLB   NC141041  25.807  13.308  17.549  0.0398 -0.0022  0.0349
 1711BOLB   PO141042  26.164  13.220  17.827 -0.0004  0.2355  0.2999
 1711BOLB   GL141043  26.345  13.553  17.636 -0.1464 -0.2176  0.1840
 1711BOLB   GL241044  26.255  13.799  17.887  0.0615  0.0267 -0.5653
 1711BOLB   C1A41045  26.585  13.915  17.412  0.2107 -0.0753 -0.1386
 1711BOLB   C2A41046  26.575  14.321  17.381  0.2293  0.0450 -0.4499
 1711BOLB   C3A41047  26.794  14.641  17.262  0.0146 -0.2034  0.1174
 1711BOLB   C4A41048  27.016  15.076  17.191 -0.2911 -0.0988 -0.1371
 1711BOLB   C1B41049  26.294  14.193  17.962  0.0618 -0.1865 -0.0480
 1711BOLB   C2B41050  26.394  14.497  18.067  0.0148  0.2058  0.1617
 1711BOLB   C3B41051  26.783  14.719  18.218  0.0700 -0.1073 -0.2995
 1711BOLB   C4B41052  27.219  14.784  18.222 -0.1102  0.1294 -0.0506
 1711BOLB   NC241053  28.886  16.034  18.292 -0.0793  0.1206  0.1168
 1711BOLB   PO241054  28.825  16.016  17.805 -0.2603  0.4387  0.0553
 1711BOLB   GL341055  28.739  15.981  17.448 -0.1699 -0.0197  0.0504
 1711BOLB   GL441056  28.814  15.759  17.195  0.1335 -0.0270 -0.1292
 1711BOLB   C1C41057  28.328  16.001  17.170  0.2572  0.1098  0.0654
 1711BOLB   C2C41058  28.029  15.807  16.977  0.0383  0.3455 -0.0926
 1711BOLB   C3C41059  27.671  15.581  17.112 -0.2797 -0.0001  0.2373
 1711BOLB   C4C41060  27.362  15.297  17.264 -0.2656  0.0595 -0.4460
 1711BOLB   C1D41061  28.400  15.480  17.033  0.1796 -0.2689 -0.2125
 1711BOLB   C2D41062  28.092  15.226  17.157  0.2176 -0.0603 -0.0883
 1711BOLB   C3D41063  27.901  14.868  17.037 -0.2056  0.6950 -0.1775
 1711BOLB   C4D41064  28.029  14.567  17.134 -0.3319  0.1341  0.0033
 1712BOLB   NC141065  25.292   9.453  16.852  0.0109 -0.4043  0.2095
 1712BOLB   PO141066  24.967   9.463  16.609  0.1711 -0.1366 -0.0696
 1712BOLB   GL141067  24.608   9.252  16.553 -0.0243 -0.3919 -0.1748
 1712BOLB   GL241068  24.600   9.057  16.790 -0.0104  0.0114 -0.0586
 1712BOLB   C1A41069  24.224   9.136  16.385 -0.0982 -0.0865 -0.0443
 1712BOLB   C2A41070  24.074   8.874  16.127 -0.2826  0.2527 -0.0927
 1712BOLB   C3A41071  23.743   8.642  15.929 -0.0898 -0.0206 -0.3945
 1712BOLB   C4A41072  23.708   8.323  15.548 -0.2015  0.2985  0.1596
 1712BOLB   C1B41073  24.503   8.701  16.373  0.0405  0.1839 -0.1219
 1712BOLB   C2B41074  24.726   8.615  16.058 -0.2181  0.1769  0.0529
 1712BOLB   C3B41075  24.685   8.295  15.665  0.2480  0.2525  0.1075
 1712BOLB   C4B41076  24.498   7.948  15.622  0.1294  0.1562 -0.0929
 1712BOLB   NC241077  25.717   6.993  13.778  0.2970 -0.1406  0.0561
 1712BOLB   PO241078  25.280   7.085  13.980  0.1257 -0.3173 -0.1769
 1712BOLB   GL341079  24.872   7.171  14.171  0.2253  0.0285  0.1325
 1712BOLB   GL441080  24.483   7.110  14.051  0.1688  0.1008 -0.0885
 1712BOLB   C1C41081  24.630   7.417  14.487 -0.1529  0.1291 -0.3788
 1712BOLB   C2C41082  24.239   7.573  14.664  0.0725  0.0187 -0.2440
 1712BOLB   C3C41083  23.960   7.848  14.961 -0.2482  0.0969  0.0188
 1712BOLB   C4C41084  23.878   7.953  15.346  0.0987 -0.2667 -0.1554
 1712BOLB   C1D41085  24.231   7.513  14.160 -0.0577  0.0499  0.1973
 1712BOLB   C2D41086  24.184   7.826  14.268  0.1163 -0.0535  0.1761
 1712BOLB   C3D41087  23.830   8.082  14.380  0.1565 -0.4719  0.2445
 1712BOLB   C4D41088  23.872   8.465  14.546 -0.3003  0.3819  0.0577
 1713BOLB   NC141089  22.284  22.768  17.298 -0.1388 -0.0529 -0.0549
 1713BOLB   PO141090  22.254  22.582  17.697  0.1834  0.3374 -0.1070
 1713BOLB   GL141091  22.459  22.913  17.748 -0.0978 -0.0482  0.0726
 1713BOLB   GL241092  22.730  22.921  17.984 -0.1504 -0.0773  0.1111
 1713BOLB   C1A41093  22.877  23.003  17.477 -0.1471  0.3195  0.1384
 1713BOLB   C2A41094  23.355  23.086  17.349  0.1222  0.1498 -0.1180
 1713BOLB   C3A41095  23.768  23.114  17.220 -0.0496  0.0172 -0.1628
 1713BOLB   C4A41096  24.235  22.984  17.155 -0.2416 -0.0274 -0.1604
 1713BOLB   C1B41097  22.954  23.168  17.932  0.0095  0.3362  0.2371
 1713BOLB   C2B41098  23.330  23.391  17.987 -0.0880 -0.2518  0.2613
 1713BOLB   C3B41099  23.594  23.575  18.123 -0.3023 -0.2051  0.1910
 1713BOLB   C4B41100  23.696  23.938  18.423  0.1880 -0.1816 -0.0515
 1713BOLB   NC241101  26.630  22.826  17.378  0.2949 -0.1288 -0.0068
 1713BOLB   PO241102  26.621  22.878  17.846  0.2238 -0.2386 -0.0550
 1713BOLB   GL341103  26.121  22.839  17.595 -0.2006 -0.4203 -0.0723
 1713BOLB   GL441104  26.259  22.480  17.458 -0.0135  0.0544  0.1623
 1713BOLB   C1C41105  25.673  22.864  17.749  0.0904  0.2483  0.1269
 1713BOLB   C2C41106  25.196  22.977  17.764  0.2426 -0.4460  0.2569
 1713BOLB   C3C41107  24.897  23.229  17.640 -0.0577  0.1893 -0.2367
 1713BOLB   C4C41108  24.531  23.194  17.315 -0.4590 -0.0711  0.1849
 1713BOLB   C1D41109  26.431  22.023  17.446 -0.0191  0.0109 -0.3360
 1713BOLB   C2D41110  26.296  21.797  17.809  0.2243 -0.1054 -0.4701
 1713BOLB   C3D41111  26.125  21.607  18.139 -0.2927  0.3597 -0.3142
 1713BOLB   C4D41112  26.047  21.595  18.579 -0.1070 -0.1602 -0.0203
 1714BOLB   NC141113  24.065  16.297  15.283  0.0405 -0.0002  0.1166
 1714BOLB   PO141114  23.918  16.353  14.815  0.1739  0.2244 -0.0621
 1714BOLB   GL141115  24.252  16.115  14.580  0.3228  0.0516 -0.1226
 1714BOLB   GL241116  24.420  15.839  14.491 -0.0142  0.2486  0.0617
 1714BOLB   C1A41117  24.342  16.137  14.115 -0.0250  0.2659  0.1855
 1714BOLB   C2A41118  24.188  16.171  13.721 -0.1074 -0.2073  0.0679
 1714BOLB   C3A41119  24.146  16.390  13.330 -0.2366 -0.1521 -0.1685
 1714BOLB   C4A41120  24.292  16.642  12.980 -0.0757  0.2828 -0.3308
 1714BOLB   C1B41121  24.791  16.054  14.389  0.0122 -0.0182  0.1122
 1714BOLB   C2B41122  25.171  16.296  14.429 -0.2090  0.0545 -0.0682
 1714BOLB   C3B41123  25.514  16.573  14.404  0.0571 -0.4006 -0.4764
 1714BOLB   C4B41124  25.606  16.882  14.128  0.0337  0.1539 -0.1217
 1714BOLB   NC241125  25.812  15.465  10.815  0.1276 -0.2455  0.3108
 1714BOLB   PO241126  25.460  15.400  11.081 -0.0614 -0.0537  0.3332
 1714BOLB   GL341127  25.243  15.850  11.315 -0.0840 -0.0944  0.1741
 1714BOLB   GL441128  25.516  16.085  11.345 -0.0591 -0.0722  0.1035
 1714BOLB   C1C41129  25.114  16.068  11.685 -0.0119  0.2568 -0.0057
 1714BOLB   C2C41130  25.005  16.192  11.995  0.1313 -0.0736 -0.1340
 1714BOLB   C3C41131  24.625  16.429  12.219 -0.1099  0.0430 -0.1146
 1714BOLB   C4C41132  24.334  16.555  12.544 -0.2141  0.0607  0.2268
 1714BOLB   C1D41133  25.570  15.955  11.726  0.0354  0.1307 -0.1852
 1714BOLB   C2D41134  25.522  15.845  12.171  0.0113 -0.0584 -0.0671
 1714BOLB   C3D41135  25.726  15.835  12.528  0.0264  0.2621 -0.3421
 1714BOLB   C4D41136  25.613  15.844  12.971 -0.0237 -0.0932 -0.1147
 1715BOLB   NC141137  24.084  10.633  15.951 -0.1880 -0.1428  0.3254
 1715BOLB   PO141138  24.314  10.323  15.817  0.1210  0.1053 -0.1220
 1715BOLB   GL141139  24.484  10.069  15.427 -0.1137 -0.1978 -0.0522
 1715BOLB   GL241140  24.487  10.342  15.221 -0.0549  0.0446  0.0477
 1715BOLB   C1A41141  24.393   9.752  14.985 -0.0724  0.2261  0.0100
 1715BOLB   C2A41142  24.157   9.503  14.621  0.0738 -0.2269 -0.5545
 1715BOLB   C3A41143  23.905   9.365  14.191 -0.0891  0.0763 -0.0369
 1715BOLB   C4A41144  23.763   9.559  13.816 -0.2328 -0.0527  0.0564
 1715BOLB   C1B41145  24.744  10.139  14.968 -0.2409  0.0530  0.1302
 1715BOLB   C2B41146  25.034   9.952  14.689  0.1101  0.3560  0.0662
 1715BOLB   C3B41147  25.406   9.807  14.681 -0.0579 -0.1239 -0.1843
 1715BOLB   C4B41148  25.793   9.780  14.932  0.1752  0.1814  0.1913
 1715BOLB   NC241149  26.110   8.682  12.411  0.0416  0.3827 -0.1502
 1715BOLB   PO241150  25.756   8.944  12.499  0.2320  0.1174 -0.1853
 1715BOLB   GL341151  25.501   9.320  12.541 -0.0914 -0.2666 -0.1778
 1715BOLB   GL441152  25.445   9.657  12.358  0.0115 -0.1596  0.0809
 1715BOLB   C1C41153  25.041   9.339  12.787 -0.0173  0.0314  0.0609
 1715BOLB   C2C41154  24.712   9.561  12.907 -0.0910 -0.0592 -0.3597
 1715BOLB   C3C41155  24.234   9.615  13.057 -0.0542 -0.0028 -0.0211
 1715BOLB   C4C41156  24.020   9.486  13.391 -0.0440 -0.0244 -0.1452
 1715BOLB   C1D41157  25.240   9.786  12.730 -0.1869 -0.2806  0.2497
 1715BOLB   C2D41158  25.064   9.751  13.173 -0.3878 -0.4388  0.1339
 1715BOLB   C3D41159  25.260   9.514  13.538 -0.0505 -0.0576  0.2052
 1715BOLB   C4D41160  25.544   9.630  13.810  0.0916  0.2020 -0.1563
 1716BOLB   NC141161  23.599   9.706  17.604  0.0920  0.2304 -0.0228
 1716BOLB   PO141162  23.216   9.847  17.689 -0.0667 -0.1023 -0.1896
 1716BOLB   GL141163  23.046   9.481  17.788 -0.2849  0.0192 -0.0985
 1716BOLB   GL241164  23.305   9.459  17.980  0.0103  0.1727 -0.1982
 1716BOLB   C1A41165  23.087   9.100  17.558  0.2377  0.2312 -0.1364
 1716BOLB   C2A41166  22.825   8.778  17.451  0.1626  0.0316 -0.1291
 1716BOLB   C3A41167  22.814   8.308  17.479  0.5508  0.0384 -0.1918
 1716BOLB   C4A41168  23.003   8.015  17.554 -0.1061  0.2375 -0.0863
 1716BOLB   C1B41169  23.343   8.968  17.970 -0.1123 -0.4355 -0.1640
 1716BOLB   C2B41170  23.556   8.714  17.781 -0.2371  0.1117 -0.1450
 1716BOLB   C3B41171  23.899   8.356  17.851 -0.2044 -0.0502 -0.0068
 1716BOLB   C4B41172  24.263   8.104  17.633  0.0633 -0.0026 -0.2590
 1716BOLB   NC241173  24.643   6.530  17.541 -0.0559 -0.0281 -0.2252
 1716BOLB   PO241174  24.737   6.971  17.644  0.1184 -0.1501 -0.2188
 1716BOLB   GL341175  24.441   7.060  17.676 -0.1503 -0.1560 -0.4399
 1716BOLB   GL441176  24.271   6.967  18.033  0.0026 -0.0106 -0.3208
 1716BOLB   C1C41177  24.009   6.822  17.627 -0.1028 -0.0499 -0.0429
 1716BOLB   C2C41178  23.627   6.964  17.616  0.0772 -0.1992 -0.3838
 1716BOLB   C3C41179  23.495   7.382  17.558 -0.0603  0.2791 -0.1524
 1716BOLB   C4C41180  23.304   7.717  17.412  0.4507  0.3484 -0.0953
 1716BOLB   C1D41181  23.787   7.028  18.113 -0.1824 -0.0605 -0.0193
 1716BOLB   C2D41182  23.351   7.196  18.061  0.0113 -0.1206 -0.1534
 1716BOLB   C3D41183  23.471   7.622  18.015  0.0144 -0.0611  0.1643
 1716BOLB   C4D41184  23.628   8.110  18.218  0.1239 -0.1277  0.0935
 1717BOLB   NC141185  23.492  20.696  17.492  0.0500 -0.0320  0.3804
 1717BOLB   PO141186  23.575  20.610  17.987 -0.1114 -0.0787  0.2304
 1717BOLB   GL141187  23.766  20.945  17.858 -0.0440 -0.1518 -0.1032
 1717BOLB   GL241188  23.818  21.071  17.652 -0.0930 -0.1734  0.0401
 1717BOLB   C1A41189  24.145  21.237  17.969  0.1812  0.1162  0.1014
 1717BOLB   C2A41190  24.528  21.539  17.920 -0.0779 -0.2070  0.1412
 1717BOLB   C3A41191  24.986  21.519  17.896  0.2828 -0.0038  0.1344
 1717BOLB   C4A41192  25.386  21.523  17.844 -0.1050 -0.0547  0.0688
 1717BOLB   C1B41193  24.231  21.234  17.495 -0.1575 -0.0501 -0.1530
 1717BOLB   C2B41194  24.664  21.483  17.387 -0.0285 -0.2442 -0.2432
 1717BOLB   C3B41195  25.072  21.818  17.390 -0.0040 -0.0587  0.0673
 1717BOLB   C4B41196  25.445  21.871  17.433 -0.1432  0.0251 -0.3648
 1717BOLB   NC241197  27.323  22.483  17.039  0.2393 -0.1639 -0.1759
 1717BOLB   PO241198  27.348  22.195  17.390  0.1705  0.3569  0.3602
 1717BOLB   GL341199  27.002  21.989  17.283 -0.0058 -0.0836 -0.1599
 1717BOLB   GL441200  26.871  22.116  17.187 -0.2965 -0.3256  0.1489
 1717BOLB   C1C41201  26.819  21.613  17.320  0.2551  0.3365  0.0536
 1717BOLB   C2C41202  26.409  21.370  17.408 -0.3447 -0.3264 -0.0224
 1717BOLB   C3C41203  25.940  21.474  17.583  0.0732  0.0587 -0.2229
 1717BOLB   C4C41204  25.688  21.588  17.754  0.3040  0.1674 -0.0844
 1717BOLB   C1D41205  26.506  21.849  16.946  0.1780 -0.2769  0.0419
 1717BOLB   C2D41206  26.247  21.589  16.956  0.1812  0.0922  0.3701
 1717BOLB   C3D41207  26.094  21.211  16.904  0.0428  0.1083  0.0021
 1717BOLB   C4D41208  26.151  20.771  16.692  0.0533  0.0054  0.0038
 1718BOLB   NC141209  22.071  21.268  15.532  0.1300 -0.0372  0.0311
 1718BOLB   PO141210  22.194  21.343  15.128 -0.2434  0.0595  0.0187
 1718BOLB   GL141211  22.654  21.443  15.244 -0.2171  0.1464  0.2233
 1718BOLB   GL241212  22.598  21.677  15.370 -0.2722  0.1372 -0.1381
 1718BOLB   C1A41213  23.073  21.233  15.273  0.2514  0.1644 -0.0168
 1718BOLB   C2A41214  23.409  21.378  15.059  0.4441  0.0276 -0.0681
 1718BOLB   C3A41215  23.746  21.619  15.014 -0.1666  0.1021 -0.1016
 1718BOLB   C4A41216  24.147  21.730  14.948  0.1715  0.1980 -0.0678
 1718BOLB   C1B41217  22.949  21.968  15.288  0.1936  0.1566 -0.0174
 1718BOLB   C2B41218  23.350  21.947  15.077  0.0134  0.3934 -0.1173
 1718BOLB   C3B41219  23.705  22.047  14.773 -0.1614  0.4436 -0.1326
 1718BOLB   C4B41220  23.999  21.973  14.538  0.2946 -0.4590 -0.0423
 1718BOLB   NC241221  25.851  23.238  14.398 -0.2672 -0.1678  0.0604
 1718BOLB   PO241222  26.009  23.121  14.865 -0.0698 -0.0427  0.1107
 1718BOLB   GL341223  25.522  23.231  14.801 -0.2278  0.0274  0.1466
 1718BOLB   GL441224  25.323  23.428  14.978  0.1053 -0.0583  0.2171
 1718BOLB   C1C41225  25.244  22.867  14.979 -0.1198  0.0901 -0.0147
 1718BOLB   C2C41226  25.098  22.476  14.969 -0.3565  0.1495  0.1934
 1718BOLB   C3C41227  24.823  22.120  14.784 -0.1555 -0.1191  0.0038
 1718BOLB   C4C41228  24.454  21.836  14.816  0.0026  0.0490  0.0115
 1718BOLB   C1D41229  25.120  23.210  15.322  0.2968 -0.0067  0.1958
 1718BOLB   C2D41230  24.773  22.988  15.567  0.1381  0.1547  0.0850
 1718BOLB   C3D41231  24.370  22.893  15.450 -0.0555 -0.1891  0.2901
 1718BOLB   C4D41232  23.981  22.639  15.372  0.2037  0.0286 -0.1171
 1719BOLB   NC141233  25.476  10.052  16.152  0.0669  0.0089  0.3832
 1719BOLB   PO141234  25.455  10.215  15.764  0.1799 -0.3017 -0.2911
 1719BOLB   GL141235  25.594  10.469  15.402  0.3189 -0.3025  0.0030
 1719BOLB   GL241236  25.844  10.434  15.132 -0.3420 -0.0315 -0.2083
 1719BOLB   C1A41237  25.499  10.729  14.998  0.1912  0.0760 -0.0467
 1719BOLB   C2A41238  25.554  10.704  14.564 -0.6194 -0.3862 -0.3733
 1719BOLB   C3A41239  25.263  10.683  14.236 -0.1800 -0.2331  0.1078
 1719BOLB   C4A41240  25.030  10.532  13.862  0.2665 -0.1122  0.0142
 1719BOLB   C1B41241  25.523  10.270  14.845  0.0576 -0.1443 -0.2614
 1719BOLB   C2B41242  25.180  10.402  14.709  0.1615  0.3679  0.0204
 1719BOLB   C3B41243  24.873  10.714  14.674 -0.3438 -0.0157 -0.0130
 1719BOLB   C4B41244  24.781  11.152  14.610  0.2380 -0.0959 -0.0887
 1719BOLB   NC241245  25.848  10.204  11.062 -0.2270  0.0652 -0.2140
 1719BOLB   PO241246  25.462  10.068  11.411 -0.1119  0.2489 -0.1338
 1719BOLB   GL341247  25.216  10.140  11.720 -0.0838 -0.0586 -0.2508
 1719BOLB   GL441248  25.260  10.559  11.630 -0.1012 -0.0516  0.1444
 1719BOLB   C1C41249  25.074  10.245  12.224 -0.1495  0.0224  0.1339
 1719BOLB   C2C41250  25.171  10.429  12.689 -0.1120 -0.0670 -0.0091
 1719BOLB   C3C41251  24.979  10.588  13.010 -0.2926  0.0561 -0.1548
 1719BOLB   C4C41252  24.874  10.641  13.448  0.0266 -0.0372  0.1814
 1719BOLB   C1D41253  24.993  10.762  11.879  0.1148  0.1593  0.0782
 1719BOLB   C2D41254  24.601  10.862  12.196  0.2353 -0.1201  0.4450
 1719BOLB   C3D41255  24.259  11.044  12.494 -0.3591  0.2669 -0.5437
 1719BOLB   C4D41256  24.164  11.251  12.849  0.1538  0.1270  0.2784
 1720BOLB   NC141257  22.068  20.442  14.756  0.3581 -0.0482 -0.1097
 1720BOLB   PO141258  22.331  20.735  15.086 -0.2105 -0.1722 -0.1800
 1720BOLB   GL141259  22.781  20.775  14.907 -0.2553  0.2111  0.0329
 1720BOLB   GL241260  22.881  20.805  14.564  0.1626  0.1933  0.0111
 1720BOLB   C1A41261  23.275  20.888  14.789 -0.0812  0.0146  0.1320
 1720BOLB   C2A41262  23.545  21.129  14.586  0.2015  0.1510 -0.1820
 1720BOLB   C3A41263  23.917  21.014  14.421  0.2769  0.2716  0.0193
 1720BOLB   C4A41264  24.249  20.933  14.171  0.0902  0.0463 -0.2274
 1720BOLB   C1B41265  23.053  21.177  14.317  0.1949 -0.1809 -0.0776
 1720BOLB   C2B41266  23.342  21.435  14.191 -0.4042 -0.2672 -0.1723
 1720BOLB   C3B41267  23.710  21.566  13.979  0.0388 -0.0352  0.3151
 1720BOLB   C4B41268  24.035  21.799  13.925 -0.1853 -0.0548 -0.0429
 1720BOLB   NC241269  26.136  22.428  13.696  0.3257 -0.1164  0.2285
 1720BOLB   PO241270  26.255  22.047  13.635 -0.1903 -0.2953 -0.0582
 1720BOLB   GL341271  26.183  21.799  13.852 -0.1891 -0.2032  0.1027
 1720BOLB   GL441272  26.097  22.034  14.127 -0.0514  0.0912 -0.1210
 1720BOLB   C1C41273  25.792  21.578  13.774 -0.1922 -0.0454 -0.4133
 1720BOLB   C2C41274  25.346  21.458  13.591  0.1943  0.1467  0.1315
 1720BOLB   C3C41275  25.041  21.134  13.716 -0.0243 -0.1750  0.0400
 1720BOLB   C4C41276  24.679  20.914  13.971 -0.2514 -0.0425  0.2240
 1720BOLB   C1D41277  25.609  21.870  14.147 -0.0184 -0.1375  0.0667
 1720BOLB   C2D41278  25.164  21.684  14.189 -0.0236  0.0557 -0.2249
 1720BOLB   C3D41279  24.779  21.821  14.350 -0.3146  0.1662  0.6087
 1720BOLB   C4D41280  24.429  21.787  14.246 -0.2646  0.1054  0.2411
 1721BOLB   NC141281  23.754  20.124  18.066 -0.2301 -0.0653 -0.0389
 1721BOLB   PO141282  24.006  20.104  18.422  0.0623  0.0997  0.0684
 1721BOLB   GL141283  24.272  20.389  18.266 -0.2021  0.0863  0.4353
 1721BOLB   GL241284  24.099  20.486  17.930  0.1372  0.3546 -0.4611
 1721BOLB   C1A41285  24.734  20.515  18.160  0.2158 -0.0498 -0.1691
 1721BOLB   C2A41286  25.143  20.670  18.103  0.4351  0.0342  0.5502
 1721BOLB   C3A41287  25.469  20.786  17.999  0.2390  0.1934 -0.0939
 1721BOLB   C4A41288  25.657  21.052  17.762  0.3096  0.1237  0.1644
 1721BOLB   C1B41289  24.440  20.800  17.876 -0.2338  0.0579  0.2175
 1721BOLB   C2B41290  24.786  21.095  18.095  0.0181  0.0533  0.0877
 1721BOLB   C3B41291  25.287  21.162  18.230 -0.2834 -0.1180  0.2069
 1721BOLB   C4B41292  25.713  21.338  18.257  0.2840  0.0223 -0.0294
 1721BOLB   NC241293  27.839  21.083  17.064  0.0279 -0.0651  0.1824
 1721BOLB   PO241294  27.841  21.390  17.394  0.2011 -0.3470  0.1484
 1721BOLB   GL341295  27.423  21.224  17.351  0.2054  0.2245  0.1036
 1721BOLB   GL441296  27.290  21.413  17.383 -0.0779  0.2078  0.0979
 1721BOLB   C1C41297  27.168  20.816  17.325  0.0676 -0.0743 -0.2104
 1721BOLB   C2C41298  26.764  20.666  17.177 -0.2464 -0.1038 -0.3512
 1721BOLB   C3C41299  26.436  20.869  17.132  0.1135 -0.0603  0.0409
 1721BOLB   C4C41300  25.976  20.969  17.354 -0.0422 -0.0756  0.0897
 1721BOLB   C1D41301  26.890  21.237  17.589 -0.1617 -0.1133 -0.1930
 1721BOLB   C2D41302  26.586  20.955  17.655 -0.1612 -0.2684  0.1266
 1721BOLB   C3D41303  26.139  20.981  17.818  0.2555  0.0729  0.1934
 1721BOLB   C4D41304  26.015  20.624  17.962  0.0647  0.0301  0.1118
 1722BOLB   NC141305  23.965  15.632  14.574 -0.0740  0.0388 -0.0061
 1722BOLB   PO141306  23.960  15.321  14.850  0.1697  0.1192 -0.0294
 1722BOLB   GL141307  24.397  15.194  14.689 -0.1069 -0.0758 -0.2926
 1722BOLB   GL241308  24.498  14.905  14.555 -0.0918 -0.3143  0.1415
 1722BOLB   C1A41309  24.674  15.418  14.331 -0.1238  0.0025  0.1432
 1722BOLB   C2A41310  24.877  15.664  13.894 -0.2498 -0.0368  0.1830
 1722BOLB   C3A41311  25.321  15.768  13.611  0.1189  0.0535  0.0617
 1722BOLB   C4A41312  25.640  16.009  13.576 -0.0249  0.4204 -0.0192
 1722BOLB   C1B41313  24.810  14.938  14.240  0.1690  0.1155 -0.1596
 1722BOLB   C2B41314  25.053  15.134  13.995  0.1593  0.3152 -0.0684
 1722BOLB   C3B41315  25.170  15.265  13.643 -0.2249 -0.1546 -0.3578
 1722BOLB   C4B41316  25.474  15.062  13.321  0.0493  0.0426 -0.2263
 1722BOLB   NC241317  27.583  16.377  12.860 -0.0653 -0.0654  0.1277
 1722BOLB   PO241318  27.569  16.809  12.752  0.1657 -0.1230 -0.0996
 1722BOLB   GL341319  27.133  16.818  12.903  0.1113  0.1512  0.1020
 1722BOLB   GL441320  26.998  17.088  13.096 -0.1979  0.3931  0.0491
 1722BOLB   C1C41321  26.759  16.602  12.936 -0.0772 -0.0331 -0.0753
 1722BOLB   C2C41322  26.387  16.632  13.150 -0.0549 -0.0957 -0.0234
 1722BOLB   C3C41323  26.115  16.513  13.436 -0.0201  0.1611  0.1524
 1722BOLB   C4C41324  26.028  16.124  13.469 -0.0515 -0.1135 -0.2989
 1722BOLB   C1D41325  26.874  16.734  13.399 -0.2483 -0.0057 -0.1828
 1722BOLB   C2D41326  26.581  16.503  13.599 -0.2362  0.2122 -0.0597
 1722BOLB   C3D41327  26.283  16.336  13.872 -0.1604 -0.2605  0.0026
 1722BOLB   C4D41328  25.984  16.048  13.985 -0.2488  0.1708 -0.0560
 1723BOLB   NC141329  20.980  23.507  17.035  0.0174 -0.0554  0.3353
 1723BOLB   PO141330  21.256  23.705  16.801  0.2749  0.1028 -0.0994
 1723BOLB   GL141331  21.542  23.967  16.784  0.3277  0.0885 -0.0501
 1723BOLB   GL241332  21.495  24.184  16.585 -0.0031  0.0439 -0.3111
 1723BOLB   C1A41333  21.996  24.097  16.675 -0.2144  0.3610 -0.3002
 1723BOLB   C2A41334  22.452  24.066  16.473 -0.0091 -0.2824 -0.1457
 1723BOLB   C3A41335  22.740  24.284  16.503 -0.0308 -0.0145  0.0109
 1723BOLB   C4A41336  23.149  24.429  16.300  0.0729  0.0823  0.0497
 1723BOLB   C1B41337  21.699  24.612  16.515  0.1961 -0.2247  0.0097
 1723BOLB   C2B41338  21.923  24.922  16.354  0.0845  0.1666  0.1900
 1723BOLB   C3B41339  22.249  24.986  16.021 -0.0913  0.1050 -0.1123
 1723BOLB   C4B41340  22.616  25.133  15.731 -0.2259 -0.3294 -0.1656
 1723BOLB   NC241341  24.774  26.441  15.860  0.1784  0.1581 -0.2805
 1723BOLB   PO241342  24.704  26.328  16.277 -0.0838  0.0902  0.1446
 1723BOLB   GL341343  24.364  26.100  16.317 -0.0010  0.1237  0.1126
 1723BOLB   GL441344  24.347  26.110  16.639  0.1443 -0.1884 -0.1311
 1723BOLB   C1C41345  24.101  25.752  16.193  0.1038  0.0442  0.0114
 1723BOLB   C2C41346  23.883  25.391  16.035 -0.1799 -0.1553  0.1501
 1723BOLB   C3C41347  23.671  25.070  16.202 -0.4083 -0.1142  0.2183
 1723BOLB   C4C41348  23.490  24.674  16.404 -0.2976 -0.2520  0.1702
 1723BOLB   C1D41349  23.935  26.038  16.594  0.0790  0.0636 -0.3342
 1723BOLB   C2D41350  23.620  25.638  16.406 -0.2096  0.0844 -0.1490
 1723BOLB   C3D41351  23.371  25.250  16.529  0.1522  0.0133 -0.0011
 1723BOLB   C4D41352  23.096  24.879  16.553  0.2131  0.2481 -0.0786
 1724BOLB   NC141353  24.459  19.091  17.735 -0.3406 -0.0413 -0.0246
 1724BOLB   PO141354  24.670  19.422  17.698 -0.1191  0.0376 -0.1165
 1724BOLB   GL141355  25.113  19.493  17.543  0.0825 -0.0443  0.0240
 1724BOLB   GL241356  25.138  19.615  17.246  0.0964 -0.2946 -0.2253
 1724BOLB   C1A41357  25.440  19.822  17.630  0.1730 -0.2225 -0.2645
 1724BOLB   C2A41358  25.785  20.015  17.518 -0.1895  0.2363 -0.1360
 1724BOLB   C3A41359  26.258  20.003  17.392  0.0476 -0.1885  0.2125
 1724BOLB   C4A41360  26.651  20.097  17.151 -0.3059 -0.0069  0.1032
 1724BOLB   C1B41361  25.458  19.803  17.135  0.1641  0.1844  0.1164
 1724BOLB   C2B41362  25.854  19.948  17.048  0.3229 -0.0885 -0.0383
 1724BOLB   C3B41363  26.297  19.808  16.901  0.0360  0.2807  0.0060
 1724BOLB   C4B41364  26.708  19.724  16.736 -0.0438 -0.0279 -0.0242
 1724BOLB   NC241365  28.237  19.940  17.535 -0.1860  0.1083  0.4355
 1724BOLB   PO241366  28.321  19.852  17.121 -0.1649 -0.1719  0.0270
 1724BOLB   GL341367  27.904  19.692  17.165 -0.1964 -0.2346 -0.0963
 1724BOLB   GL441368  27.705  19.659  17.433  0.0261 -0.3711  0.0789
 1724BOLB   C1C41369  27.619  19.540  16.925  0.1104  0.1427  0.3472
 1724BOLB   C2C41370  27.260  19.643  16.788  0.3002  0.1448 -0.1636
 1724BOLB   C3C41371  27.189  20.006  16.792  0.0244 -0.0206 -0.2707
 1724BOLB   C4C41372  26.796  20.309  16.807  0.2332 -0.0012 -0.0504
 1724BOLB   C1D41373  27.379  19.938  17.207 -0.2466 -0.1028  0.2460
 1724BOLB   C2D41374  27.151  20.292  17.178  0.0768 -0.2311 -0.2622
 1724BOLB   C3D41375  27.178  20.643  16.803 -0.1613 -0.0135  0.2195
 1724BOLB   C4D41376  26.752  20.835  16.682 -0.0121 -0.1343 -0.1139
 1725BOLB   NC141377  23.893  18.780  15.009  0.1027 -0.2637 -0.2520
 1725BOLB   PO141378  23.818  18.977  15.402 -0.1284  0.0555 -0.1207
 1725BOLB   GL141379  24.237  19.099  15.283  0.1524 -0.0514 -0.2618
 1725BOLB   GL241380  24.340  19.025  14.847  0.0704  0.4418 -0.0843
 1725BOLB   C1A41381  24.687  19.262  15.357 -0.2625 -0.0855 -0.1533
 1725BOLB   C2A41382  25.179  19.248  15.223  0.0809 -0.0589 -0.2865
 1725BOLB   C3A41383  25.609  19.395  14.993  0.0278  0.0041 -0.2924
 1725BOLB   C4A41384  25.919  19.531  14.732  0.1249  0.1868 -0.0918
 1725BOLB   C1B41385  24.682  19.257  14.749  0.1160 -0.1400 -0.3226
 1725BOLB   C2B41386  25.129  19.416  14.771  0.1523  0.1000 -0.1066
 1725BOLB   C3B41387  25.453  19.544  14.509  0.1630  0.1274 -0.0162
 1725BOLB   C4B41388  25.743  19.246  14.327  0.2925 -0.1109 -0.0307
 1725BOLB   NC241389  26.419  19.290  12.486 -0.0964  0.0558 -0.2218
 1725BOLB   PO241390  26.489  18.854  12.696  0.0746 -0.2201 -0.1538
 1725BOLB   GL341391  26.157  19.041  12.888 -0.0433 -0.2666 -0.1892
 1725BOLB   GL441392  26.017  19.346  12.815 -0.0525  0.2045 -0.0708
 1725BOLB   C1C41393  25.862  18.986  13.189  0.1929 -0.0235  0.0278
 1725BOLB   C2C41394  25.759  19.133  13.666 -0.3165  0.1953  0.0334
 1725BOLB   C3C41395  25.995  19.481  13.926  0.0534  0.2108 -0.0649
 1725BOLB   C4C41396  26.122  19.525  14.353  0.0363  0.0792 -0.0823
 1725BOLB   C1D41397  25.701  19.457  13.075 -0.2255 -0.0404 -0.1223
 1725BOLB   C2D41398  25.422  19.356  13.376  0.3179 -0.3093 -0.1917
 1725BOLB   C3D41399  25.119  19.441  13.538  0.1373  0.2259 -0.1974
 1725BOLB   C4D41400  24.935  19.248  13.781 -0.1877  0.2498 -0.2404
 1726BOLB   NC141401  22.891  15.690  13.725 -0.2792  0.1923 -0.2699
 1726BOLB   PO141402  23.141  15.874  13.941 -0.3180  0.2048 -0.3572
 1726BOLB   GL141403  23.553  16.190  13.921  0.0905 -0.2275 -0.4797
 1726BOLB   GL241404  23.754  15.916  13.699  0.1142  0.0296 -0.3461
 1726BOLB   C1A41405  23.685  16.455  13.576 -0.1625 -0.4634 -0.1056
 1726BOLB   C2A41406  23.783  16.797  13.165  0.0739 -0.0870  0.0735
 1726BOLB   C3A41407  23.971  17.091  12.952 -0.1444  0.1034  0.1407
 1726BOLB   C4A41408  24.439  17.054  12.698  0.3717 -0.2970  0.0583
 1726BOLB   C1B41409  24.092  15.871  13.358 -0.1360 -0.2518 -0.2621
 1726BOLB   C2B41410  24.390  15.672  13.054  0.0397  0.1291  0.1122
 1726BOLB   C3B41411  24.788  15.642  12.781 -0.0415  0.0038 -0.2875
 1726BOLB   C4B41412  25.188  15.749  12.720 -0.1232 -0.3404 -0.0524
 1726BOLB   NC241413  25.106  16.212  10.503  0.0963 -0.3175 -0.3430
 1726BOLB   PO241414  25.345  16.561  10.622 -0.2457  0.1511  0.3219
 1726BOLB   GL341415  25.315  16.442  10.985 -0.1177  0.1694 -0.2452
 1726BOLB   GL441416  24.973  16.243  11.018  0.3546 -0.0724 -0.1052
 1726BOLB   C1C41417  25.142  16.541  11.434  0.1913  0.1577  0.0380
 1726BOLB   C2C41418  24.967  16.656  11.762  0.0487 -0.0835 -0.0928
 1726BOLB   C3C41419  24.709  16.866  11.936 -0.1468 -0.1758  0.0680
 1726BOLB   C4C41420  24.604  16.921  12.368 -0.0169  0.0872  0.0760
 1726BOLB   C1D41421  24.756  15.862  11.341  0.1270 -0.1025 -0.0055
 1726BOLB   C2D41422  24.652  15.489  11.348  0.3925  0.1902 -0.1481
 1726BOLB   C3D41423  24.977  15.152  11.419  0.1108 -0.2348  0.1738
 1726BOLB   C4D41424  25.348  14.981  11.545 -0.0671 -0.1843 -0.1861
 1727BOLB   NC141425  23.384  18.817  14.706 -0.0730 -0.4179  0.1646
 1727BOLB   PO141426  23.539  18.455  14.710  0.3418 -0.2349 -0.2464
 1727BOLB   GL141427  23.959  18.578  14.568 -0.2871 -0.0188 -0.0884
 1727BOLB   GL241428  24.141  18.390  14.397 -0.2014 -0.2283  0.0469
 1727BOLB   C1A41429  24.263  18.849  14.367 -0.0949 -0.1539 -0.3045
 1727BOLB   C2A41430  24.535  19.253  14.216  0.1954 -0.2650  0.1878
 1727BOLB   C3A41431  24.948  19.129  14.284 -0.0043 -0.0958  0.0825
 1727BOLB   C4A41432  25.273  18.950  14.602 -0.5944  0.0689 -0.2866
 1727BOLB   C1B41433  24.117  17.969  14.135 -0.1680 -0.0331  0.0653
 1727BOLB   C2B41434  24.411  17.704  14.039  0.1571 -0.2185  0.2441
 1727BOLB   C3B41435  24.749  17.743  13.804 -0.0769  0.0461  0.0413
 1727BOLB   C4B41436  25.205  17.735  13.864  0.1032 -0.3452 -0.0417
 1727BOLB   NC241437  27.150  20.313  14.511  0.0628 -0.1217 -0.0682
 1727BOLB   PO241438  27.486  19.993  14.693 -0.2178  0.2382  0.0581
 1727BOLB   GL341439  27.094  19.762  14.753  0.0546  0.0580 -0.2136
 1727BOLB   GL441440  26.984  20.056  14.885 -0.0752  0.3444 -0.2098
 1727BOLB   C1C41441  26.910  19.405  14.623  0.0420  0.0242 -0.1618
 1727BOLB   C2C41442  26.517  19.247  14.461 -0.2423 -0.0957  0.1093
 1727BOLB   C3C41443  26.085  19.024  14.585  0.2151 -0.2638 -0.0160
 1727BOLB   C4C41444  25.698  18.980  14.793 -0.1423 -0.1216  0.0385
 1727BOLB   C1D41445  26.609  20.276  14.900 -0.0108  0.0451  0.0466
 1727BOLB   C2D41446  26.431  20.757  14.967 -0.1244 -0.1650  0.0822
 1727BOLB   C3D41447  26.143  21.128  15.216 -0.4569  0.2066  0.4769
 1727BOLB   C4D41448  25.917  21.492  15.049  0.0744  0.1132  0.1303
 1728BOLB   NC141449  23.223  14.545  14.807  0.0868  0.0271  0.4962
 1728BOLB   PO141450  23.681  14.432  14.874  0.0995  0.0562  0.3777
 1728BOLB   GL141451  23.911  14.247  14.504 -0.0388 -0.1143 -0.0035
 1728BOLB   GL241452  24.218  14.453  14.547 -0.3918  0.0120 -0.3186
 1728BOLB   C1A41453  24.214  14.162  14.096  0.0140 -0.0640 -0.1133
 1728BOLB   C2A41454  24.530  14.179  13.793  0.1386  0.1082  0.2174
 1728BOLB   C3A41455  24.986  14.166  13.569  0.2317 -0.0685 -0.0311
 1728BOLB   C4A41456  25.383  13.925  13.386 -0.0832 -0.0674  0.1535
 1728BOLB   C1B41457  24.596  14.430  14.348 -0.2923 -0.1961  0.1981
 1728BOLB   C2B41458  24.844  14.071  14.100  0.3163  0.4128  0.3975
 1728BOLB   C3B41459  24.955  13.667  14.293 -0.3600 -0.3979  0.2485
 1728BOLB   C4B41460  24.878  13.476  14.739  0.0191 -0.0798 -0.3237
 1728BOLB   NC241461  26.601  12.662  11.612 -0.1580  0.1908 -0.2402
 1728BOLB   PO241462  26.802  12.997  11.869 -0.1496 -0.2603 -0.3349
 1728BOLB   GL341463  26.669  13.156  12.251  0.1306 -0.1590  0.0093
 1728BOLB   GL441464  26.737  13.514  12.375  0.1757  0.1764  0.0104
 1728BOLB   C1C41465  26.350  13.274  12.547 -0.0839 -0.3077  0.5069
 1728BOLB   C2C41466  26.118  13.586  12.821  0.0841  0.0058  0.0452
 1728BOLB   C3C41467  25.826  13.563  13.080  0.0640  0.2607  0.0198
 1728BOLB   C4C41468  25.688  13.716  13.301 -0.0711  0.0285  0.0688
 1728BOLB   C1D41469  26.507  13.810  12.525 -0.1231 -0.2400 -0.0571
 1728BOLB   C2D41470  26.413  13.940  13.016 -0.1331  0.1871  0.1475
 1728BOLB   C3D41471  26.521  14.155  13.356  0.4152 -0.1844 -0.2528
 1728BOLB   C4D41472  26.172  14.301  13.662 -0.2899 -0.0064 -0.1245
 1729BOLB   NC141473  25.659  11.208  15.985 -0.3181 -0.1899  0.1280
 1729BOLB   PO141474  25.283  11.487  16.013  0.1068 -0.3278  0.1227
 1729BOLB   GL141475  25.512  11.906  15.905 -0.1868 -0.1501 -0.0482
 1729BOLB   GL241476  25.543  12.259  15.935 -0.0067  0.2137  0.0223
 1729BOLB   C1A41477  25.607  11.953  15.545 -0.4909 -0.0140  0.2384
 1729BOLB   C2A41478  25.866  12.252  15.291  0.1976  0.1364 -0.3449
 1729BOLB   C3A41479  26.276  12.221  15.399 -0.0082 -0.6505 -0.0995
 1729BOLB   C4A41480  26.643  12.376  15.538  0.0606 -0.1629 -0.2688
 1729BOLB   C1B41481  25.972  12.319  15.787  0.1712 -0.1449 -0.1255
 1729BOLB   C2B41482  26.015  12.682  15.532  0.0103  0.0733 -0.1917
 1729BOLB   C3B41483  25.849  13.103  15.222  0.0122  0.0018 -0.2600
 1729BOLB   C4B41484  25.719  13.178  14.866  0.0214 -0.3822  0.2005
 1729BOLB   NC241485  28.674  12.940  15.545 -0.1707  0.3315 -0.4133
 1729BOLB   PO241486  28.908  13.396  15.621  0.0160  0.2595  0.2088
 1729BOLB   GL341487  28.329  13.298  15.683  0.1980  0.1999 -0.1468
 1729BOLB   GL441488  28.226  13.433  15.503 -0.1900  0.5003 -0.0249
 1729BOLB   C1C41489  27.876  13.265  15.772  0.0274  0.1071 -0.0107
 1729BOLB   C2C41490  27.416  13.229  15.736 -0.1275 -0.1650  0.0921
 1729BOLB   C3C41491  27.179  12.878  15.668 -0.1031  0.0860  0.2296
 1729BOLB   C4C41492  26.895  12.684  15.394  0.0253 -0.1839  0.1411
 1729BOLB   C1D41493  28.066  13.746  15.294 -0.1618 -0.4922 -0.0433
 1729BOLB   C2D41494  27.858  13.967  14.921 -0.2169 -0.0097  0.2164
 1729BOLB   C3D41495  27.818  14.224  14.668 -0.0724 -0.0078 -0.0299
 1729BOLB   C4D41496  27.712  14.672  14.502 -0.0902  0.2394 -0.1190
 1730BOLB   NC141497  24.087   9.712  17.242 -0.1641  0.1404  0.0507
 1730BOLB   PO141498  24.233   9.468  16.924 -0.1017 -0.2289  0.3296
 1730BOLB   GL141499  24.100   9.099  16.891  0.0310  0.1018  0.1622
 1730BOLB   GL241500  23.792   9.017  16.736  0.0602  0.3912  0.0478
 1730BOLB   C1A41501  24.185   8.661  16.774 -0.0977  0.3330 -0.0253
 1730BOLB   C2A41502  24.160   8.373  16.333 -0.1163  0.1096  0.0476
 1730BOLB   C3A41503  24.279   8.335  15.920 -0.0625 -0.1178 -0.1260
 1730BOLB   C4A41504  24.212   8.406  15.516 -0.1151  0.1909  0.1435
 1730BOLB   C1B41505  23.680   8.644  16.564 -0.0995 -0.3211 -0.0711
 1730BOLB   C2B41506  23.676   8.276  16.240 -0.0935 -0.1848  0.1468
 1730BOLB   C3B41507  23.540   7.881  15.950 -0.1118 -0.0244 -0.0842
 1730BOLB   C4B41508  23.414   7.749  15.578 -0.0681  0.0039 -0.0803
 1730BOLB   NC241509  25.066   8.066  13.063 -0.0775 -0.0819 -0.1899
 1730BOLB   PO241510  25.282   7.776  13.363  0.0868 -0.0731 -0.1704
 1730BOLB   GL341511  25.071   8.080  13.588  0.0284  0.3242  0.1999
 1730BOLB   GL441512  24.818   8.304  13.496  0.1973 -0.3399  0.1033
 1730BOLB   C1C41513  24.848   8.250  14.023 -0.1584  0.0362  0.0924
 1730BOLB   C2C41514  24.491   8.200  14.289  0.4424 -0.1526  0.1381
 1730BOLB   C3C41515  24.252   8.159  14.645 -0.1826 -0.0791 -0.0079
 1730BOLB   C4C41516  24.060   8.344  15.055 -0.0124 -0.4653  0.0540
 1730BOLB   C1D41517  24.391   8.132  13.514 -0.0937  0.1559 -0.1301
 1730BOLB   C2D41518  24.203   8.155  13.804 -0.2659 -0.1207 -0.0993
 1730BOLB   C3D41519  23.940   8.527  13.877 -0.3838 -0.0434  0.2635
 1730BOLB   C4D41520  23.507   8.464  14.094  0.0112  0.0679  0.0753
 1731BOLB   NC141521  27.743  12.207  16.402  0.0818 -0.1909  0.0899
 1731BOLB   PO141522  27.375  11.894  16.467 -0.0852 -0.0449  0.2039
 1731BOLB   GL141523  27.138  12.230  16.369  0.2450  0.3089  0.0028
 1731BOLB   GL241524  26.745  12.135  16.391 -0.0827  0.0135  0.0107
 1731BOLB   C1A41525  27.292  12.515  15.951 -0.0229  0.2993 -0.1812
 1731BOLB   C2A41526  27.625  12.716  16.105  0.1142 -0.0248 -0.0328
 1731BOLB   C3A41527  27.758  12.823  15.596  0.2947  0.0648 -0.0006
 1731BOLB   C4A41528  27.783  13.086  15.231  0.1035 -0.1107 -0.1901
 1731BOLB   C1B41529  26.822  12.156  15.928  0.1315 -0.0394  0.0095
 1731BOLB   C2B41530  27.126  12.273  15.549 -0.2728 -0.1047 -0.3273
 1731BOLB   C3B41531  27.358  12.581  15.316 -0.2228  0.2754  0.1307
 1731BOLB   C4B41532  27.731  12.644  15.124 -0.1196  0.1834 -0.0602
 1731BOLB   NC241533  29.012  13.371  14.163 -0.4172  0.0244 -0.0595
 1731BOLB   PO241534  28.671  13.592  13.877 -0.3225 -0.1331  0.2533
 1731BOLB   GL341535  28.259  13.685  13.880  0.1964  0.1450  0.2015
 1731BOLB   GL441536  28.233  14.076  13.866 -0.1190 -0.0095 -0.2533
 1731BOLB   C1C41537  27.835  13.786  13.862 -0.1302 -0.0560  0.3903
 1731BOLB   C2C41538  27.490  13.763  14.240 -0.1255  0.1885 -0.1657
 1731BOLB   C3C41539  27.361  13.519  14.591 -0.4294 -0.1468 -0.3006
 1731BOLB   C4C41540  27.687  13.381  14.979 -0.0027 -0.2932  0.1831
 1731BOLB   C1D41541  27.986  14.343  14.173 -0.0610 -0.2099  0.0003
 1731BOLB   C2D41542  27.525  14.324  14.182  0.0175  0.1202  0.0062
 1731BOLB   C3D41543  27.319  14.367  14.455  0.1477 -0.0571 -0.0710
 1731BOLB   C4D41544  27.224  14.013  14.718 -0.1046  0.0422 -0.0143
 1732BOLB   NC141545  24.036  14.938  14.520  0.1924 -0.1879 -0.1941
 1732BOLB   PO141546  23.590  14.711  14.430 -0.0046 -0.2549 -0.1977
 1732BOLB   GL141547  23.937  14.620  14.125  0.0876  0.1079 -0.2048
 1732BOLB   GL241548  23.974  14.874  14.005 -0.1341 -0.0788 -0.0377
 1732BOLB   C1A41549  24.384  14.629  13.966 -0.1691 -0.0331  0.2220
 1732BOLB   C2A41550  24.868  14.580  13.890 -0.0413 -0.1151  0.1219
 1732BOLB   C3A41551  25.120  14.721  13.549  0.1666  0.3011 -0.2378
 1732BOLB   C4A41552  25.333  14.402  13.197 -0.2633 -0.3072  0.0477
 1732BOLB   C1B41553  24.180  14.745  13.497 -0.2026 -0.1211 -0.0684
 1732BOLB   C2B41554  24.599  14.923  13.159  0.0494 -0.0945  0.0839
 1732BOLB   C3B41555  24.910  15.120  13.189  0.0933 -0.1135  0.2778
 1732BOLB   C4B41556  25.180  14.911  12.936 -0.2673  0.0073  0.1115
 1732BOLB   NC241557  27.527  15.629  12.993 -0.1546 -0.0226  0.2397
 1732BOLB   PO241558  27.516  15.301  12.770 -0.1356 -0.0989  0.0500
 1732BOLB   GL341559  27.104  15.383  12.902 -0.0744  0.0533 -0.1053
 1732BOLB   GL441560  27.056  15.678  12.871  0.2869 -0.0392 -0.3390
 1732BOLB   C1C41561  26.645  15.377  12.921 -0.0329 -0.0102  0.0886
 1732BOLB   C2C41562  26.326  15.167  13.047 -0.2321 -0.0103 -0.0363
 1732BOLB   C3C41563  25.895  14.968  13.042 -0.5155 -0.3076 -0.1050
 1732BOLB   C4C41564  25.603  14.533  12.940  0.0380  0.2169  0.1800
 1732BOLB   C1D41565  26.590  15.787  12.763 -0.2747 -0.3531 -0.0133
 1732BOLB   C2D41566  26.124  15.570  12.766 -0.0600 -0.0747  0.3858
 1732BOLB   C3D41567  25.755  15.372  12.832 -0.0406  0.0034 -0.0807
 1732BOLB   C4D41568  25.312  15.366  12.987 -0.2087 -0.1841 -0.0393
 1733BOLB   NC141569  28.466  13.179  17.345 -0.2328  0.0339 -0.2022
 1733BOLB   PO141570  28.219  12.905  17.108 -0.1273 -0.0438 -0.1898
 1733BOLB   GL141571  27.702  13.058  17.088 -0.1495 -0.0709 -0.2053
 1733BOLB   GL241572  27.347  12.895  16.898  0.1840  0.1326  0.2387
 1733BOLB   C1A41573  27.313  13.297  17.239  0.1841  0.2920 -0.1228
 1733BOLB   C2A41574  27.055  13.711  17.315 -0.0992  0.2233 -0.1949
 1733BOLB   C3A41575  27.232  14.090  17.268  0.1327 -0.0468 -0.1783
 1733BOLB   C4A41576  27.202  14.449  17.077  0.2546 -0.2418 -0.2118
 1733BOLB   C1B41577  27.346  13.354  16.691 -0.0034 -0.0495  0.1371
 1733BOLB   C2B41578  27.115  13.801  16.823  0.4164  0.2111  0.1925
 1733BOLB   C3B41579  26.995  14.109  16.518 -0.3113  0.0054  0.2767
 1733BOLB   C4B41580  27.168  14.463  16.546 -0.0820 -0.0843  0.0362
 1733BOLB   NC241581  29.322  15.783  16.339  0.0178 -0.2360  0.1298
 1733BOLB   PO241582  28.912  15.695  16.069 -0.1220  0.0003  0.0690
 1733BOLB   GL341583  28.536  15.551  15.965 -0.2803 -0.1793  0.0702
 1733BOLB   GL441584  28.434  15.284  15.624 -0.0953  0.0010 -0.0651
 1733BOLB   C1C41585  28.169  15.506  16.283 -0.1287  0.0901 -0.1448
 1733BOLB   C2C41586  27.968  15.445  16.650  0.1259  0.2621  0.0079
 1733BOLB   C3C41587  27.583  15.201  16.836  0.1619  0.1017 -0.0330
 1733BOLB   C4C41588  27.299  14.884  16.824  0.1590 -0.2644  0.3079
 1733BOLB   C1D41589  28.038  15.117  15.403  0.1304 -0.0377 -0.3309
 1733BOLB   C2D41590  27.587  15.269  15.327  0.2651 -0.0760 -0.1125
 1733BOLB   C3D41591  27.252  15.359  15.685  0.4911  0.3319 -0.0054
 1733BOLB   C4D41592  27.210  15.627  16.030  0.2819  0.2255  0.1051
 1734BOLB   NC141593  24.675   9.596  16.118  0.0403 -0.3933  0.0296
 1734BOLB   PO141594  24.246   9.873  15.940  0.0839  0.0417  0.0575
 1734BOLB   GL141595  24.283   9.339  15.891  0.0991  0.0663  0.0091
 1734BOLB   GL241596  24.553   9.122  15.963  0.0285 -0.1587  0.0606
 1734BOLB   C1A41597  24.047   9.143  15.689  0.3278 -0.3380  0.0002
 1734BOLB   C2A41598  23.827   8.802  15.477  0.0719 -0.0068 -0.1712
 1734BOLB   C3A41599  23.533   8.622  15.175  0.0506  0.5257  0.0311
 1734BOLB   C4A41600  23.564   8.299  14.904 -0.1814  0.1835 -0.1221
 1734BOLB   C1B41601  24.445   8.854  15.631  0.0401 -0.1820  0.1870
 1734BOLB   C2B41602  24.231   8.769  15.159 -0.0811  0.0912  0.0843
 1734BOLB   C3B41603  23.910   8.961  14.794  0.2698  0.2064  0.0100
 1734BOLB   C4B41604  23.607   9.301  14.587  0.0653 -0.2546  0.2916
 1734BOLB   NC241605  24.082   6.787  13.341  0.0480 -0.1183  0.0611
 1734BOLB   PO241606  23.835   6.884  12.932  0.1799 -0.0819  0.0457
 1734BOLB   GL341607  23.938   7.239  13.264  0.2925  0.0455 -0.0638
 1734BOLB   GL441608  24.075   7.503  13.168 -0.0522 -0.3114 -0.0211
 1734BOLB   C1C41609  23.602   7.495  13.516 -0.0866 -0.1115  0.0908
 1734BOLB   C2C41610  23.331   7.857  13.703 -0.2227  0.1246 -0.1722
 1734BOLB   C3C41611  23.246   8.089  14.142 -0.1065  0.0883 -0.0225
 1734BOLB   C4C41612  23.317   8.254  14.587  0.1654  0.0456  0.0029
 1734BOLB   C1D41613  24.056   7.850  13.092  0.2243  0.1410  0.1201
 1734BOLB   C2D41614  23.580   7.937  13.056  0.1461 -0.0869 -0.1160
 1734BOLB   C3D41615  23.184   8.126  13.202 -0.1056  0.0854 -0.2243
 1734BOLB   C4D41616  22.967   8.535  12.995 -0.0173  0.0823  0.1434
 1735BOLB   NC141617  22.191  21.816  16.193 -0.1544  0.0266 -0.0022
 1735BOLB   PO141618  22.327  21.668  16.604 -0.3808  0.1111 -0.0709
 1735BOLB   GL141619  22.792  21.733  16.714  0.2220 -0.1620 -0.0495
 1735BOLB   GL241620  22.956  21.879  16.936 -0.2609 -0.1059  0.0102
 1735BOLB   C1A41621  23.219  21.874  16.448  0.2063  0.1968  0.1338
 1735BOLB   C2A41622  23.352  22.236  16.206 -0.0129  0.0486 -0.0535
 1735BOLB   C3A41623  23.648  22.129  15.865  0.0092  0.3074  0.2972
 1735BOLB   C4A41624  24.028  22.198  15.650 -0.0493  0.2713 -0.0486
 1735BOLB   C1B41625  23.305  22.095  16.987  0.1929  0.0904 -0.0610
 1735BOLB   C2B41626  23.605  22.297  16.686  0.2938 -0.0701  0.1725
 1735BOLB   C3B41627  23.800  22.424  16.326  0.2229  0.0321  0.1628
 1735BOLB   C4B41628  24.073  22.578  15.888 -0.1289 -0.0649  0.1490
 1735BOLB   NC241629  26.324  23.436  15.756 -0.1493 -0.2108 -0.1631
 1735BOLB   PO241630  26.346  23.175  16.151 -0.0483  0.0162 -0.0672
 1735BOLB   GL341631  25.877  22.812  16.048  0.1556  0.1987  0.3019
 1735BOLB   GL441632  25.831  22.461  16.088  0.1994  0.0987  0.3224
 1735BOLB   C1C41633  25.461  22.840  16.244 -0.4484 -0.0196 -0.1803
 1735BOLB   C2C41634  25.001  22.621  16.068 -0.0970  0.1147 -0.0592
 1735BOLB   C3C41635  24.584  22.528  15.928  0.0536 -0.1300  0.0789
 1735BOLB   C4C41636  24.415  22.215  15.705  0.0712 -0.1571  0.0889
 1735BOLB   C1D41637  25.508  22.569  15.710 -0.2279 -0.2147 -0.1344
 1735BOLB   C2D41638  25.473  22.339  15.308 -0.2265 -0.1123  0.2231
 1735BOLB   C3D41639  25.624  22.393  14.968 -0.2867 -0.0636  0.1940
 1735BOLB   C4D41640  26.020  22.522  15.004 -0.0739 -0.4864 -0.1697
 1736BOLB   NC141641  23.569  19.626  17.136  0.2086  0.0579  0.2371
 1736BOLB   PO141642  23.687  20.011  17.183  0.2941  0.1878 -0.1311
 1736BOLB   GL141643  24.036  20.346  17.014 -0.2109 -0.1419 -0.2320
 1736BOLB   GL241644  23.827  20.757  17.069  0.0806  0.2262 -0.1402
 1736BOLB   C1A41645  24.410  20.658  16.898  0.4068  0.0344  0.2116
 1736BOLB   C2A41646  24.736  20.672  16.689 -0.1311 -0.1602 -0.2149
 1736BOLB   C3A41647  25.154  20.916  16.739  0.0001  0.1755 -0.0897
 1736BOLB   C4A41648  25.340  21.297  16.425 -0.0869 -0.2148 -0.0723
 1736BOLB   C1B41649  24.210  21.074  16.993  0.2889  0.0512 -0.0410
 1736BOLB   C2B41650  24.748  21.131  16.964  0.2060  0.2209 -0.2518
 1736BOLB   C3B41651  25.052  21.367  17.044  0.1034  0.1753  0.3074
 1736BOLB   C4B41652  25.278  21.616  16.947 -0.2711  0.1366 -0.1680
 1736BOLB   NC241653  27.164  21.144  15.164  0.2850 -0.3426 -0.2501
 1736BOLB   PO241654  27.261  20.764  15.258 -0.2226 -0.3527 -0.2461
 1736BOLB   GL341655  26.967  20.502  15.512 -0.2017 -0.3919  0.0678
 1736BOLB   GL441656  26.904  20.360  15.332 -0.0020 -0.0616  0.1510
 1736BOLB   C1C41657  26.705  20.743  15.732  0.0314  0.2064 -0.2380
 1736BOLB   C2C41658  26.436  21.033  15.646 -0.2807 -0.0472  0.1221
 1736BOLB   C3C41659  25.978  21.167  15.756  0.1115 -0.0764 -0.0149
 1736BOLB   C4C41660  25.624  21.347  16.036 -0.1077 -0.3954  0.2673
 1736BOLB   C1D41661  26.505  20.383  15.450 -0.3082  0.0165 -0.1123
 1736BOLB   C2D41662  26.139  20.523  15.300 -0.2831 -0.1716  0.1839
 1736BOLB   C3D41663  25.810  20.789  15.448 -0.3353 -0.0036 -0.3991
 1736BOLB   C4D41664  25.669  21.184  15.365  0.2140  0.0283 -0.0986
 1737BOLB   NC141665  22.967  14.131  14.776 -0.0600 -0.1625  0.2587
 1737BOLB   PO141666  23.409  14.025  14.737 -0.0661 -0.2322 -0.0087
 1737BOLB   GL141667  23.545  13.750  14.423  0.0323  0.0748  0.2511
 1737BOLB   GL241668  23.797  13.411  14.462 -0.1087  0.0907 -0.2234
 1737BOLB   C1A41669  23.832  13.830  14.073  0.2035  0.0150  0.0342
 1737BOLB   C2A41670  24.119  13.728  13.753  0.2797  0.0940 -0.1459
 1737BOLB   C3A41671  24.356  13.765  13.434 -0.1138  0.2090  0.0111
 1737BOLB   C4A41672  24.648  14.069  13.208 -0.0036  0.1313  0.0722
 1737BOLB   C1B41673  24.151  13.437  14.206  0.0484  0.0425  0.0508
 1737BOLB   C2B41674  24.514  13.641  14.063  0.2503 -0.2774 -0.1809
 1737BOLB   C3B41675  24.952  13.674  13.800  0.0653  0.1222  0.0373
 1737BOLB   C4B41676  25.238  13.837  13.863 -0.3509 -0.3468  0.3223
 1737BOLB   NC241677  26.967  14.302  11.594  0.3016  0.1293 -0.4371
 1737BOLB   PO241678  26.857  13.944  11.834  0.0321 -0.0039  0.1219
 1737BOLB   GL341679  26.563  14.111  12.070  0.2889 -0.0751  0.2112
 1737BOLB   GL441680  26.832  14.438  12.189 -0.2678 -0.1987 -0.1592
 1737BOLB   C1C41681  26.168  14.088  12.262  0.0382 -0.0560 -0.1769
 1737BOLB   C2C41682  25.846  13.927  12.486 -0.2546 -0.1062  0.0526
 1737BOLB   C3C41683  25.538  14.027  12.816 -0.2338  0.0042 -0.0837
 1737BOLB   C4C41684  25.093  13.997  13.001 -0.0166 -0.0796  0.0874
 1737BOLB   C1D41685  26.691  14.774  12.410 -0.0091  0.1885  0.3357
 1737BOLB   C2D41686  26.796  14.924  12.860  0.1719  0.1650 -0.0587
 1737BOLB   C3D41687  26.941  14.962  13.280  0.2203  0.0136 -0.1168
 1737BOLB   C4D41688  26.889  15.060  13.721  0.2772  0.1171  0.2479
 1738BOLB   NC141689  21.757  18.509  13.206 -0.0311 -0.1264 -0.3755
 1738BOLB   PO141690  22.152  18.695  13.168  0.0784  0.1811  0.2193
 1738BOLB   GL141691  22.481  18.805  13.037  0.2082  0.3078  0.1928
 1738BOLB   GL241692  22.751  18.630  13.074  0.0394 -0.2881 -0.0101
 1738BOLB   C1A41693  22.751  19.105  13.025  0.1548 -0.2087  0.2361
 1738BOLB   C2A41694  22.992  19.259  12.793  0.2019  0.1647 -0.1106
 1738BOLB   C3A41695  23.264  19.347  12.536  0.0951 -0.3027  0.0437
 1738BOLB   C4A41696  23.594  19.364  12.311  0.0425 -0.0873  0.1010
 1738BOLB   C1B41697  23.004  18.706  12.685  0.1849  0.2409  0.2570
 1738BOLB   C2B41698  23.291  18.872  12.367  0.2733 -0.1313 -0.0079
 1738BOLB   C3B41699  23.407  19.071  11.976 -0.0768 -0.0231  0.0262
 1738BOLB   C4B41700  23.306  19.189  11.555  0.3231 -0.0337 -0.0175
 1738BOLB   NC241701  25.940  18.639  11.698 -0.2240 -0.0607 -0.1429
 1738BOLB   PO241702  25.826  18.837  11.405 -0.2754  0.1893 -0.0475
 1738BOLB   GL341703  25.474  18.523  11.360 -0.2780 -0.1583  0.2965
 1738BOLB   GL441704  25.410  18.364  11.616 -0.0385  0.5031 -0.2468
 1738BOLB   C1C41705  25.060  18.676  11.497  0.1154 -0.1697  0.2905
 1738BOLB   C2C41706  24.803  19.012  11.737 -0.0903  0.1366  0.2883
 1738BOLB   C3C41707  24.516  19.185  12.006  0.0765  0.0220  0.2130
 1738BOLB   C4C41708  23.990  19.222  12.027  0.2513  0.2126  0.0655
 1738BOLB   C1D41709  25.140  18.038  11.520  0.0974  0.0545 -0.0417
 1738BOLB   C2D41710  24.653  17.946  11.666 -0.2315  0.2152  0.0850
 1738BOLB   C3D41711  24.348  18.110  11.492 -0.1880  0.0497 -0.0479
 1738BOLB   C4D41712  24.077  18.071  11.118  0.0115  0.2960  0.0530
 1739BOLB   NC141713  25.630  12.718  16.792 -0.2399  0.0284  0.1286
 1739BOLB   PO141714  25.761  13.025  17.164 -0.0153 -0.0304 -0.0953
 1739BOLB   GL141715  25.839  13.172  16.684 -0.3448  0.1802  0.1365
 1739BOLB   GL241716  26.035  12.835  16.560 -0.0932 -0.2130  0.1478
 1739BOLB   C1A41717  26.127  13.342  16.582 -0.1285 -0.2122  0.2989
 1739BOLB   C2A41718  26.176  13.680  16.214 -0.0479  0.0766 -0.2393
 1739BOLB   C3A41719  26.308  14.037  15.927 -0.0933 -0.0810 -0.1246
 1739BOLB   C4A41720  26.629  14.302  15.691  0.0164  0.0821 -0.2732
 1739BOLB   C1B41721  26.131  13.027  16.234  0.0796 -0.3985 -0.0384
 1739BOLB   C2B41722  26.457  13.234  16.023 -0.1092  0.1713  0.1362
 1739BOLB   C3B41723  26.777  12.976  16.002 -0.2335 -0.3065 -0.0074
 1739BOLB   C4B41724  26.825  12.593  16.140  0.1695  0.2208 -0.0290
 1739BOLB   NC241725  28.708  14.596  14.836 -0.0415  0.2341 -0.2932
 1739BOLB   PO241726  28.561  15.053  15.044  0.2312  0.1687 -0.0546
 1739BOLB   GL341727  28.181  14.969  14.867 -0.3366 -0.3173  0.1881
 1739BOLB   GL441728  28.133  15.041  14.523 -0.1572  0.1374 -0.0360
 1739BOLB   C1C41729  27.691  15.073  14.826 -0.0438  0.1627 -0.1382
 1739BOLB   C2C41730  27.321  15.049  14.973  0.0018  0.3415  0.1406
 1739BOLB   C3C41731  27.080  15.008  15.268  0.2167 -0.1137 -0.2368
 1739BOLB   C4C41732  26.872  14.587  15.420 -0.2243  0.0907 -0.1080
 1739BOLB   C1D41733  27.916  15.427  14.576  0.0749 -0.0923 -0.1054
 1739BOLB   C2D41734  27.692  15.738  14.733 -0.1194 -0.0096 -0.0613
 1739BOLB   C3D41735  27.400  15.801  14.873  0.0047 -0.0448  0.0084
 1739BOLB   C4D41736  27.154  15.511  15.146 -0.0007 -0.1896 -0.1811
 1740BOLB   NC141737  22.642  21.456  16.330  0.1010 -0.0578  0.1557
 1740BOLB   PO141738  22.647  21.206  15.971 -0.2534  0.4447 -0.0887
 1740BOLB   GL141739  23.075  21.307  15.888  0.1982 -0.1645 -0.0621
 1740BOLB   GL241740  23.170  21.411  16.177  0.1006  0.2141  0.2806
 1740BOLB   C1A41741  23.265  21.625  15.496  0.3949  0.1985  0.3642
 1740BOLB   C2A41742  23.734  21.739  15.522  0.0214 -0.5172  0.1083
 1740BOLB   C3A41743  24.072  21.683  15.767 -0.0863 -0.2485  0.0395
 1740BOLB   C4A41744  24.562  21.720  15.802 -0.0297  0.1205  0.1734
 1740BOLB   C1B41745  23.436  21.645  15.931 -0.0038 -0.0884 -0.1834
 1740BOLB   C2B41746  23.687  21.827  16.291  0.1597  0.2905 -0.0434
 1740BOLB   C3B41747  23.985  21.929  16.206  0.0535  0.1420  0.0331
 1740BOLB   C4B41748  24.267  22.218  16.208 -0.0938  0.0982  0.3414
 1740BOLB   NC241749  27.370  22.022  15.395 -0.0804 -0.2070 -0.2433
 1740BOLB   PO241750  26.893  22.123  15.402 -0.0809  0.1043  0.2032
 1740BOLB   GL341751  26.569  21.981  15.432  0.2050  0.1957  0.0129
 1740BOLB   GL441752  26.390  22.235  15.248 -0.3091 -0.1360 -0.1501
 1740BOLB   C1C41753  26.125  22.052  15.756 -0.2968 -0.1337  0.1208
 1740BOLB   C2C41754  25.702  22.121  15.728 -0.1503 -0.0045  0.1964
 1740BOLB   C3C41755  25.337  21.993  15.678  0.1508  0.0818 -0.2644
 1740BOLB   C4C41756  24.948  21.713  15.647 -0.2255 -0.0923 -0.1583
 1740BOLB   C1D41757  25.998  21.980  15.207  0.2754  0.1835  0.3869
 1740BOLB   C2D41758  25.463  21.822  15.178 -0.2632 -0.1075 -0.1451
 1740BOLB   C3D41759  25.101  21.968  15.207  0.5412 -0.1901  0.0700
 1740BOLB   C4D41760  24.739  22.021  15.319  0.0646  0.1453  0.1394
 1741BOLB   NC141761  24.872  15.102  16.570  0.1708  0.2362 -0.0451
 1741BOLB   PO141762  24.787  14.642  16.385 -0.4719 -0.1470 -0.2094
 1741BOLB   GL141763  25.009  14.828  16.120  0.2257 -0.0481  0.0352
 1741BOLB   GL241764  25.169  14.814  15.804  0.0975  0.3426  0.2120
 1741BOLB   C1A41765  25.424  15.026  16.164  0.0240  0.1394  0.0452
 1741BOLB   C2A41766  25.635  15.304  15.984 -0.2393  0.0570 -0.2623
 1741BOLB   C3A41767  26.076  15.485  15.894 -0.0227  0.1443  0.0813
 1741BOLB   C4A41768  26.352  15.602  15.619  0.0409  0.0701 -0.1479
 1741BOLB   C1B41769  25.096  15.273  15.891 -0.0954 -0.1563 -0.1667
 1741BOLB   C2B41770  25.163  15.705  15.627  0.1456  0.2104 -0.3194
 1741BOLB   C3B41771  25.506  15.800  15.611  0.2335  0.3025  0.0046
 1741BOLB   C4B41772  25.941  15.900  15.675  0.0517 -0.1946 -0.2265
 1741BOLB   NC241773  28.763  16.943  14.863  0.3999  0.0235 -0.0606
 1741BOLB   PO241774  28.529  16.697  14.483 -0.3088  0.4834 -0.0081
 1741BOLB   GL341775  28.026  16.523  14.721  0.2341 -0.0629 -0.1560
 1741BOLB   GL441776  27.957  16.858  15.024 -0.0719  0.1841 -0.0670
 1741BOLB   C1C41777  27.709  16.233  14.931 -0.1902  0.2166  0.2321
 1741BOLB   C2C41778  27.218  16.173  15.089  0.0279 -0.1747  0.1534
 1741BOLB   C3C41779  26.869  15.983  15.065  0.0752 -0.2756  0.1575
 1741BOLB   C4C41780  26.672  15.728  15.323  0.2299 -0.0281  0.1174
 1741BOLB   C1D41781  27.461  16.907  15.119 -0.2994  0.1827  0.2073
 1741BOLB   C2D41782  27.244  17.366  15.169 -0.1099  0.2320 -0.0017
 1741BOLB   C3D41783  27.259  17.547  15.602 -0.0943 -0.1167 -0.1347
 1741BOLB   C4D41784  27.424  17.666  15.883  0.5084  0.2442 -0.3488
 1742BOLB   NC141785  24.924  11.865  15.776  0.2773  0.1577  0.1106
 1742BOLB   PO141786  24.780  11.619  15.470  0.1836 -0.1882 -0.2638
 1742BOLB   GL141787  24.810  11.969  15.179 -0.1759 -0.3233 -0.2326
 1742BOLB   GL241788  24.544  12.023  14.823  0.1747  0.0974  0.1540
 1742BOLB   C1A41789  25.067  11.927  14.919  0.0375 -0.1392 -0.2427
 1742BOLB   C2A41790  25.314  11.968  14.492  0.2517  0.2540 -0.2932
 1742BOLB   C3A41791  25.491  12.285  14.245  0.0060  0.3701  0.1030
 1742BOLB   C4A41792  25.581  12.693  14.111 -0.0210 -0.0692 -0.1216
 1742BOLB   C1B41793  24.801  12.144  14.490 -0.3319  0.0945 -0.2270
 1742BOLB   C2B41794  25.045  12.102  14.094 -0.2136 -0.1179  0.0680
 1742BOLB   C3B41795  25.413  11.958  13.850 -0.1134 -0.0343 -0.5348
 1742BOLB   C4B41796  25.838  11.791  13.838  0.1881 -0.2620  0.2565
 1742BOLB   NC241797  27.532  11.590  13.102  0.0711 -0.2091 -0.0357
 1742BOLB   PO241798  27.214  11.659  12.835  0.0721  0.1884  0.2364
 1742BOLB   GL341799  27.147  11.871  13.142  0.0169 -0.1857  0.5190
 1742BOLB   GL441800  26.877  11.711  13.271  0.0343  0.1636  0.0094
 1742BOLB   C1C41801  26.808  12.251  13.230 -0.4688 -0.0135  0.0609
 1742BOLB   C2C41802  26.435  12.566  13.314 -0.1995 -0.0975  0.0200
 1742BOLB   C3C41803  26.113  12.827  13.443 -0.0925 -0.0544 -0.1894
 1742BOLB   C4C41804  25.713  12.710  13.661  0.1674 -0.0603  0.0750
 1742BOLB   C1D41805  26.468  11.756  13.079  0.0149 -0.1406 -0.0835
 1742BOLB   C2D41806  26.229  12.036  12.877 -0.3842 -0.3344  0.1931
 1742BOLB   C3D41807  26.099  12.415  12.568  0.3336 -0.2117 -0.2944
 1742BOLB   C4D41808  26.165  12.793  12.458 -0.3553  0.4029  0.4125
 1743BOLB   NC141809  22.158  22.349  15.419 -0.0693 -0.1704 -0.1243
 1743BOLB   PO141810  22.228  22.010  15.431  0.2295  0.0930 -0.0288
 1743BOLB   GL141811  22.497  22.177  15.061  0.2056  0.1065 -0.3873
 1743BOLB   GL241812  22.424  22.125  14.760 -0.1001  0.0293 -0.0633
 1743BOLB   C1A41813  22.921  22.359  14.971  0.0692  0.1355  0.2845
 1743BOLB   C2A41814  23.267  22.730  14.860  0.0028  0.0031 -0.2302
 1743BOLB   C3A41815  23.725  22.648  14.963 -0.0138  0.0383 -0.1418
 1743BOLB   C4A41816  24.189  22.761  14.960 -0.0337 -0.1492  0.0319
 1743BOLB   C1B41817  22.545  22.071  14.386 -0.2144 -0.1576  0.0108
 1743BOLB   C2B41818  22.932  22.363  14.151  0.1592 -0.1434 -0.0090
 1743BOLB   C3B41819  23.357  22.515  13.996  0.0927  0.0698 -0.2742
 1743BOLB   C4B41820  23.653  22.727  14.146  0.1306 -0.0436  0.1006
 1743BOLB   NC241821  25.259  23.641  13.007 -0.1801 -0.2217  0.1772
 1743BOLB   PO241822  25.498  23.279  12.985  0.1021  0.1170  0.0964
 1743BOLB   GL341823  25.128  23.174  13.225  0.3038 -0.0655 -0.2094
 1743BOLB   GL441824  24.735  23.134  13.063 -0.2116  0.2726 -0.0876
 1743BOLB   C1C41825  24.895  22.992  13.535 -0.1805 -0.1622 -0.1637
 1743BOLB   C2C41826  24.529  23.331  13.815  0.0075  0.3797  0.2191
 1743BOLB   C3C41827  24.370  23.233  14.283 -0.2485 -0.1468 -0.3097
 1743BOLB   C4C41828  24.366  23.086  14.713  0.2681  0.1173 -0.0394
 1743BOLB   C1D41829  24.470  23.210  13.350 -0.0960  0.0690 -0.0384
 1743BOLB   C2D41830  24.142  23.453  13.518  0.2386  0.1095 -0.2096
 1743BOLB   C3D41831  23.638  23.461  13.455  0.4923  0.0991  0.3577
 1743BOLB   C4D41832  23.223  23.499  13.576  0.1521  0.1506 -0.0546
 1744BOLB   NC141833  25.643  13.528  17.010  0.3748 -0.0313 -0.0464
 1744BOLB   PO141834  25.432  13.880  17.220 -0.2421 -0.2773  0.1086
 1744BOLB   GL141835  25.709  14.026  17.008  0.0279  0.0775 -0.0008
 1744BOLB   GL241836  25.666  14.379  16.925  0.1617 -0.1225  0.0298
 1744BOLB   C1A41837  26.127  13.991  16.846 -0.3078 -0.1550 -0.0882
 1744BOLB   C2A41838  26.430  14.057  16.549 -0.2172  0.0167 -0.2115
 1744BOLB   C3A41839  26.582  14.369  16.255 -0.2817 -0.3979 -0.3202
 1744BOLB   C4A41840  26.808  14.636  16.035  0.0849  0.2562  0.1543
 1744BOLB   C1B41841  26.062  14.498  16.861 -0.1773  0.1452  0.0161
 1744BOLB   C2B41842  26.538  14.490  16.825 -0.1106  0.1975  0.2266
 1744BOLB   C3B41843  26.714  14.050  16.971 -0.2297  0.2430 -0.1668
 1744BOLB   C4B41844  26.574  13.649  16.952 -0.0703 -0.1208 -0.1623
 1744BOLB   NC241845  28.692  16.145  15.196 -0.2864 -0.1792  0.0614
 1744BOLB   PO241846  29.072  15.829  15.362  0.1375  0.1237 -0.0459
 1744BOLB   GL341847  28.581  15.635  15.281 -0.0221 -0.2228  0.3108
 1744BOLB   GL441848  28.466  15.547  15.018  0.1465 -0.2194 -0.0914
 1744BOLB   C1C41849  28.191  15.721  15.485 -0.0298 -0.2351  0.3073
 1744BOLB   C2C41850  27.911  15.481  15.732 -0.0108  0.0039  0.0004
 1744BOLB   C3C41851  27.661  15.082  15.931  0.2212  0.1604 -0.2786
 1744BOLB   C4C41852  27.159  14.863  15.767 -0.1928  0.0343 -0.0835
 1744BOLB   C1D41853  28.035  15.523  15.047  0.0492 -0.4139  0.0588
 1744BOLB   C2D41854  27.729  15.748  15.207 -0.1655  0.2460 -0.0074
 1744BOLB   C3D41855  27.512  15.786  15.515 -0.0083  0.0923  0.0095
 1744BOLB   C4D41856  27.087  15.890  15.595  0.1700  0.1138 -0.1701
 1745BOLB   NC141857  23.181  21.084  17.451  0.3087  0.2613 -0.1946
 1745BOLB   PO141858  23.007  21.352  17.138 -0.2383  0.0540  0.0130
 1745BOLB   GL141859  23.379  21.499  17.264  0.2562  0.1850 -0.2090
 1745BOLB   GL241860  23.627  21.314  17.262 -0.4070 -0.0190 -0.1926
 1745BOLB   C1A41861  23.689  21.872  17.298 -0.0873  0.1526  0.1496
 1745BOLB   C2A41862  23.877  22.270  17.148  0.0218 -0.0368  0.0527
 1745BOLB   C3A41863  24.368  22.493  17.276 -0.1286  0.2812  0.1256
 1745BOLB   C4A41864  24.701  22.650  17.372 -0.0805  0.3664 -0.0410
 1745BOLB   C1B41865  23.996  21.528  17.096  0.1377 -0.0338 -0.3971
 1745BOLB   C2B41866  24.383  21.695  17.065  0.1071 -0.0682 -0.2510
 1745BOLB   C3B41867  24.782  21.878  16.990 -0.2170  0.2134  0.2054
 1745BOLB   C4B41868  24.787  22.278  16.992 -0.1192  0.1100  0.3131
 1745BOLB   NC241869  26.764  24.239  17.860  0.0657  0.0108 -0.1912
 1745BOLB   PO241870  26.363  24.144  17.755  0.1129 -0.4046  0.0124
 1745BOLB   GL341871  26.037  23.767  17.754  0.3398 -0.0594 -0.1934
 1745BOLB   GL441872  26.061  23.767  17.374  0.1118 -0.2250 -0.0018
 1745BOLB   C1C41873  25.856  23.382  17.627  0.1215  0.0209  0.0706
 1745BOLB   C2C41874  25.625  23.367  17.371 -0.1589 -0.0055  0.0168
 1745BOLB   C3C41875  25.385  23.035  17.204 -0.0499 -0.1617 -0.0636
 1745BOLB   C4C41876  24.925  22.907  17.247 -0.0806  0.0852 -0.0281
 1745BOLB   C1D41877  26.065  23.391  17.111 -0.0292  0.2038 -0.2162
 1745BOLB   C2D41878  25.936  22.876  17.114 -0.0225 -0.0278  0.0236
 1745BOLB   C3D41879  25.767  22.478  17.263  0.1324  0.0880  0.0655
 1745BOLB   C4D41880  25.291  22.162  17.028 -0.2403  0.1741 -0.0870
 1746BOLB   NC141881  23.713   9.473  16.608  0.0462 -0.2460 -0.2951
 1746BOLB   PO141882  23.654   9.713  17.009 -0.1210 -0.0563  0.1176
 1746BOLB   GL141883  23.738   9.285  17.251 -0.0620  0.1258  0.2594
 1746BOLB   GL241884  24.008   9.193  17.383 -0.0280 -0.4349  0.3180
 1746BOLB   C1A41885  23.483   8.881  17.300 -0.5036  0.2127  0.0090
 1746BOLB   C2A41886  23.252   8.498  17.356  0.0898  0.0606 -0.0788
 1746BOLB   C3A41887  23.277   8.172  17.217 -0.0566  0.2784 -0.2809
 1746BOLB   C4A41888  23.411   7.863  16.778  0.0906 -0.0470  0.1514
 1746BOLB   C1B41889  23.931   8.737  17.438 -0.1300 -0.2484  0.1170
 1746BOLB   C2B41890  24.128   8.382  17.175 -0.2650  0.0707  0.0947
 1746BOLB   C3B41891  24.446   8.044  17.192 -0.1418  0.3490  0.1945
 1746BOLB   C4B41892  24.773   7.837  16.961  0.5258 -0.4123 -0.1662
 1746BOLB   NC241893  25.015   6.535  16.745  0.0286  0.0780  0.0230
 1746BOLB   PO241894  25.055   6.434  16.254 -0.1176 -0.3398 -0.3078
 1746BOLB   GL341895  24.629   6.575  16.399 -0.2360 -0.0587 -0.1842
 1746BOLB   GL441896  24.666   6.842  16.604 -0.2206 -0.0515 -0.4270
 1746BOLB   C1C41897  24.295   6.676  16.238 -0.1882 -0.0643  0.1071
 1746BOLB   C2C41898  24.094   6.901  16.213  0.0777 -0.0533  0.0062
 1746BOLB   C3C41899  23.648   7.172  16.335  0.2358  0.0448  0.2142
 1746BOLB   C4C41900  23.568   7.549  16.507 -0.0799 -0.1015 -0.0257
 1746BOLB   C1D41901  24.302   7.078  16.627 -0.3875  0.3222  0.1030
 1746BOLB   C2D41902  23.865   7.262  16.855 -0.1650  0.1276 -0.0618
 1746BOLB   C3D41903  23.615   7.520  17.077 -0.1511  0.3824  0.1546
 1746BOLB   C4D41904  23.794   7.895  17.005 -0.1170 -0.1193 -0.1998
 1747BOLB   NC141905  24.182  17.905  15.293 -0.0125 -0.0606 -0.1079
 1747BOLB   PO141906  24.027  18.296  15.008  0.1069  0.0840  0.0780
 1747BOLB   GL141907  24.318  18.509  14.952 -0.2690 -0.3237  0.0078
 1747BOLB   GL241908  24.541  18.301  15.050  0.3493  0.3410  0.2182
 1747BOLB   C1A41909  24.689  18.641  14.645  0.1694 -0.3034 -0.1618
 1747BOLB   C2A41910  24.989  18.560  14.438  0.2732  0.0238  0.3167
 1747BOLB   C3A41911  25.308  18.584  14.220 -0.1996 -0.0957  0.0522
 1747BOLB   C4A41912  25.407  19.014  14.028  0.3054  0.0802  0.0322
 1747BOLB   C1B41913  24.925  18.317  14.926  0.0280  0.0013  0.0078
 1747BOLB   C2B41914  24.996  18.045  14.525  0.2157  0.0304  0.1520
 1747BOLB   C3B41915  24.882  17.677  14.271  0.0634 -0.5352  0.3443
 1747BOLB   C4B41916  25.263  17.310  14.157 -0.3624  0.2422  0.0137
 1747BOLB   NC241917  27.391  19.639  13.991  0.0448  0.1591 -0.0182
 1747BOLB   PO241918  27.149  19.836  14.274 -0.4188 -0.1452  0.3750
 1747BOLB   GL341919  26.675  19.816  14.274  0.0449 -0.1031  0.1719
 1747BOLB   GL441920  26.547  20.099  14.460  0.2632  0.1791 -0.1924
 1747BOLB   C1C41921  26.233  19.967  14.103 -0.2378 -0.2335 -0.1587
 1747BOLB   C2C41922  26.061  19.966  13.745  0.0925  0.1103  0.2474
 1747BOLB   C3C41923  25.686  19.711  13.627  0.0491 -0.0416  0.0057
 1747BOLB   C4C41924  25.421  19.430  13.980  0.0449  0.0304 -0.0367
 1747BOLB   C1D41925  26.590  19.750  14.772  0.3033 -0.0441  0.4191
 1747BOLB   C2D41926  26.395  19.444  14.980 -0.0659  0.1572 -0.0182
 1747BOLB   C3D41927  26.485  19.322  15.406  0.0265  0.1819  0.0876
 1747BOLB   C4D41928  26.235  19.131  15.682 -0.2033  0.0376  0.1004
 1748BOLB   NC141929  23.728  18.684  15.841 -0.1699  0.0713 -0.2690
 1748BOLB   PO141930  24.030  18.625  16.123 -0.2735 -0.0961 -0.0949
 1748BOLB   GL141931  24.307  18.724  15.848 -0.0590  0.3098  0.0445
 1748BOLB   GL241932  24.516  18.437  16.015  0.0730 -0.2522  0.2577
 1748BOLB   C1A41933  24.818  18.759  15.714 -0.1933  0.3519  0.1137
 1748BOLB   C2A41934  25.206  18.921  15.666  0.1523  0.2248 -0.0628
 1748BOLB   C3A41935  25.445  19.123  15.750  0.1343 -0.2602  0.0751
 1748BOLB   C4A41936  25.633  19.204  15.487 -0.0010 -0.0173  0.1531
 1748BOLB   C1B41937  24.843  18.772  16.179  0.2876  0.1064  0.0653
 1748BOLB   C2B41938  25.326  19.036  16.232  0.1712 -0.6199 -0.0377
 1748BOLB   C3B41939  25.746  19.127  16.440 -0.1331  0.1167  0.1958
 1748BOLB   C4B41940  26.107  19.107  16.280 -0.1304  0.3845 -0.0209
 1748BOLB   NC241941  27.780  18.708  14.125  0.2428  0.4049 -0.1305
 1748BOLB   PO241942  27.635  19.102  14.096  0.0368 -0.1938 -0.1557
 1748BOLB   GL341943  27.206  18.892  14.347  0.0822  0.3116 -0.1834
 1748BOLB   GL441944  27.274  19.113  14.543 -0.2044 -0.3504  0.3855
 1748BOLB   C1C41945  26.899  18.818  14.630 -0.0387 -0.1665 -0.2132
 1748BOLB   C2C41946  26.645  18.618  14.845  0.0753 -0.1728  0.0171
 1748BOLB   C3C41947  26.374  18.909  15.081  0.2750  0.1500  0.2231
 1748BOLB   C4C41948  25.995  19.228  15.201 -0.1446  0.0561 -0.0258
 1748BOLB   C1D41949  27.160  19.194  15.011 -0.2122 -0.0732 -0.3985
 1748BOLB   C2D41950  26.807  18.954  15.295 -0.1645  0.1450 -0.2905
 1748BOLB   C3D41951  26.613  18.755  15.519 -0.3699 -0.3498 -0.1386
 1748BOLB   C4D41952  26.267  18.632  15.695 -0.2281  0.4052 -0.3156
 1749BOLB   NC141953  22.878  20.699  16.679  0.0228 -0.0555  0.1388
 1749BOLB   PO141954  23.031  21.052  16.566  0.0406  0.3055  0.1432
 1749BOLB   GL141955  23.468  21.085  16.398 -0.2133  0.0048  0.2500
 1749BOLB   GL241956  23.627  21.144  16.147  0.0105 -0.2682 -0.0589
 1749BOLB   C1A41957  23.839  20.781  16.514  0.0354 -0.1388  0.1529
 1749BOLB   C2A41958  24.187  20.943  16.536  0.0044 -0.3045  0.1877
 1749BOLB   C3A41959  24.584  21.108  16.494  0.0346 -0.2100 -0.1684
 1749BOLB   C4A41960  24.895  21.039  16.257  0.1146 -0.2309  0.2197
 1749BOLB   C1B41961  23.934  21.335  16.149  0.2606  0.1249 -0.1411
 1749BOLB   C2B41962  24.297  21.481  16.145  0.1820  0.1729 -0.0323
 1749BOLB   C3B41963  24.662  21.537  16.226  0.0470  0.1542 -0.0793
 1749BOLB   C4B41964  24.888  21.568  16.539 -0.0520  0.3311  0.0070
 1749BOLB   NC241965  26.811  21.962  14.906  0.0168 -0.0103  0.0446
 1749BOLB   PO241966  26.875  21.602  14.718  0.1395  0.2425  0.1389
 1749BOLB   GL341967  26.582  21.486  15.100 -0.2400 -0.1005  0.4666
 1749BOLB   GL441968  26.785  21.319  15.369  0.2275  0.0597  0.1627
 1749BOLB   C1C41969  26.238  21.588  15.377  0.1293 -0.1917 -0.0608
 1749BOLB   C2C41970  25.855  21.647  15.623  0.1418 -0.0695  0.0599
 1749BOLB   C3C41971  25.425  21.546  15.603 -0.2912 -0.2088 -0.0218
 1749BOLB   C4C41972  25.109  21.224  15.855 -0.3964 -0.0169 -0.1045
 1749BOLB   C1D41973  26.591  21.466  15.762  0.1844  0.3308 -0.0401
 1749BOLB   C2D41974  26.140  21.663  16.022 -0.0206  0.1144 -0.1530
 1749BOLB   C3D41975  25.755  21.840  16.117  0.0494 -0.2517 -0.0964
 1749BOLB   C4D41976  25.205  21.712  16.126 -0.0839 -0.2737 -0.4736
 1750BOLB   NC141977  23.648  15.831  15.788 -0.1742 -0.3408  0.0591
 1750BOLB   PO141978  24.025  15.938  15.589  0.4761  0.1246  0.1682
 1750BOLB   GL141979  24.394  15.936  15.315  0.1190 -0.0877  0.1070
 1750BOLB   GL241980  24.728  15.872  15.443 -0.0177 -0.0491  0.1893
 1750BOLB   C1A41981  24.609  16.110  14.925 -0.3998 -0.2265  0.1833
 1750BOLB   C2A41982  24.850  16.435  14.810 -0.0988  0.0106  0.3263
 1750BOLB   C3A41983  25.106  16.845  14.567  0.0404  0.0851 -0.0722
 1750BOLB   C4A41984  25.465  17.167  14.599  0.0284 -0.3132 -0.1375
 1750BOLB   C1B41985  25.036  15.957  15.089 -0.1282  0.0571 -0.0085
 1750BOLB   C2B41986  25.228  15.963  14.757  0.2028  0.3020 -0.0491
 1750BOLB   C3B41987  25.603  16.120  14.591 -0.0070 -0.0874 -0.1617
 1750BOLB   C4B41988  25.903  16.462  14.840  0.3782  0.1884 -0.0424
 1750BOLB   NC241989  27.885  17.887  14.108 -0.3375  0.2319 -0.1630
 1750BOLB   PO241990  27.771  17.727  13.700 -0.0543  0.0185 -0.0865
 1750BOLB   GL341991  27.392  17.637  13.916 -0.2513  0.1131  0.0486
 1750BOLB   GL441992  27.464  17.615  14.230  0.0618 -0.1576  0.1723
 1750BOLB   C1C41993  26.919  17.691  13.859  0.1268 -0.1521  0.0375
 1750BOLB   C2C41994  26.465  17.428  13.869  0.1581  0.0383 -0.1824
 1750BOLB   C3C41995  26.041  17.251  14.102 -0.0964 -0.1016  0.2749
 1750BOLB   C4C41996  25.753  17.380  14.401  0.0846  0.0232  0.0070
 1750BOLB   C1D41997  27.101  17.355  14.224  0.1396 -0.1689  0.1392
 1750BOLB   C2D41998  26.740  17.220  14.404 -0.0437  0.3337 -0.0837
 1750BOLB   C3D41999  26.290  17.136  14.584 -0.2352  0.0725 -0.0759
 1750BOLB   C4D42000  25.930  16.853  14.519 -0.1908  0.0019 -0.1222
 1751BOLB   NC142001  23.970  16.440  17.657 -0.2211 -0.1045  0.3562
 1751BOLB   PO142002  24.389  16.584  17.773 -0.1040  0.2783 -0.3834
 1751BOLB   GL142003  24.724  16.829  17.622  0.0352  0.0245 -0.1820
 1751BOLB   GL242004  24.784  17.096  17.418 -0.0401  0.0631  0.0184
 1751BOLB   C1A42005  25.055  16.720  17.349 -0.2988  0.1162  0.1246
 1751BOLB   C2A42006  25.412  16.520  17.257  0.2331 -0.0352  0.2301
 1751BOLB   C3A42007  25.740  16.831  17.067  0.0616  0.0372 -0.1033
 1751BOLB   C4A42008  25.983  17.181  16.901  0.2451 -0.0569  0.0556
 1751BOLB   C1B42009  25.201  17.226  17.292 -0.3530 -0.1780  0.1592
 1751BOLB   C2B42010  25.610  17.362  17.390 -0.0575  0.2929 -0.2269
 1751BOLB   C3B42011  25.958  17.141  17.453 -0.1777 -0.2332  0.0462
 1751BOLB   C4B42012  26.447  17.252  17.492  0.2234  0.2104  0.1676
 1751BOLB   NC242013  28.766  17.547  16.269  0.2758  0.3293  0.2655
 1751BOLB   PO242014  28.469  17.839  16.459  0.2063  0.3413  0.1146
 1751BOLB   GL342015  27.991  17.782  16.288  0.2124  0.2606  0.1268
 1751BOLB   GL442016  27.865  17.910  16.061  0.1122 -0.0365  0.0862
 1751BOLB   C1C42017  27.619  17.482  16.324 -0.0890 -0.1768  0.1893
 1751BOLB   C2C42018  27.196  17.503  16.587  0.1315  0.1825  0.1327
 1751BOLB   C3C42019  26.758  17.437  16.697  0.1283 -0.0383 -0.1721
 1751BOLB   C4C42020  26.424  17.264  16.867  0.2626  0.0548  0.2028
 1751BOLB   C1D42021  27.370  17.920  16.305 -0.2693 -0.1498  0.2283
 1751BOLB   C2D42022  26.984  18.058  16.437 -0.0626 -0.0537  0.0103
 1751BOLB   C3D42023  26.580  17.927  16.329  0.2418 -0.0989 -0.1212
 1751BOLB   C4D42024  26.303  17.869  16.023  0.0154 -0.2835 -0.0111
 1752BOLB   NC142025  22.802  19.186  13.997  0.1457  0.0516 -0.2707
 1752BOLB   PO142026  22.661  18.656  13.962 -0.2032  0.1099  0.2362
 1752BOLB   GL142027  23.113  18.517  13.776  0.0098  0.0618 -0.0343
 1752BOLB   GL242028  23.068  18.712  13.479  0.1547  0.3526  0.0075
 1752BOLB   C1A42029  23.579  18.617  13.580 -0.1826 -0.0067 -0.1910
 1752BOLB   C2A42030  23.780  18.665  13.199  0.4517  0.3266  0.1578
 1752BOLB   C3A42031  24.007  18.572  12.787  0.3539 -0.0096 -0.1901
 1752BOLB   C4A42032  24.093  18.321  12.372 -0.2551 -0.5173  0.4134
 1752BOLB   C1B42033  23.220  18.844  13.066  0.1296 -0.2520 -0.3150
 1752BOLB   C2B42034  23.477  19.049  12.821  0.0647  0.1681  0.2815
 1752BOLB   C3B42035  23.872  19.030  12.584  0.0138  0.2671 -0.2053
 1752BOLB   C4B42036  24.093  18.802  12.270 -0.0612  0.1127  0.1302
 1752BOLB   NC242037  26.815  18.565  11.526 -0.3679  0.6817 -0.0820
 1752BOLB   PO242038  26.441  18.485  11.779  0.1210 -0.3245  0.0499
 1752BOLB   GL342039  26.086  18.311  12.065 -0.0805  0.0886  0.0992
 1752BOLB   GL442040  26.177  18.053  12.385 -0.2701  0.2858 -0.2555
 1752BOLB   C1C42041  25.584  18.365  12.160 -0.0319 -0.1059  0.0173
 1752BOLB   C2C42042  25.145  18.391  12.042  0.0816 -0.1251 -0.0421
 1752BOLB   C3C42043  24.686  18.385  11.790  0.0383  0.1222  0.1249
 1752BOLB   C4C42044  24.333  18.383  11.937  0.3028 -0.0659  0.2246
 1752BOLB   C1D42045  25.749  17.911  12.428 -0.0446 -0.1930  0.0028
 1752BOLB   C2D42046  25.541  17.660  12.789 -0.2782  0.0057  0.1574
 1752BOLB   C3D42047  25.167  17.628  12.878  0.2361  0.2456  0.2856
 1752BOLB   C4D42048  24.695  17.829  12.796  0.1817  0.0351 -0.2537
 1753BOLB   NC142049  26.710  11.209  16.176  0.1217  0.0743 -0.1377
 1753BOLB   PO142050  26.747  11.058  15.717  0.0857 -0.0042  0.2439
 1753BOLB   GL142051  26.591  11.442  15.645 -0.1373 -0.2518 -0.2255
 1753BOLB   GL242052  26.665  11.659  15.903 -0.1102 -0.0215  0.2044
 1753BOLB   C1A42053  26.551  11.721  15.261  0.1160  0.1312 -0.0309
 1753BOLB   C2A42054  26.754  12.032  15.213  0.0691  0.0533  0.2616
 1753BOLB   C3A42055  26.617  12.425  15.075 -0.3708 -0.2091 -0.1597
 1753BOLB   C4A42056  26.487  12.785  14.729  0.1625 -0.2844 -0.1061
 1753BOLB   C1B42057  26.359  11.954  15.852  0.0705 -0.0827 -0.1102
 1753BOLB   C2B42058  26.106  11.751  15.467 -0.1464 -0.2923  0.1270
 1753BOLB   C3B42059  25.852  11.769  15.142 -0.0465  0.3879 -0.0813
 1753BOLB   C4B42060  25.587  11.656  14.905 -0.2621 -0.0929 -0.2658
 1753BOLB   NC242061  28.327  13.154  13.744  0.1135 -0.3191 -0.2014
 1753BOLB   PO242062  28.074  13.198  13.469 -0.4285 -0.0681 -0.2018
 1753BOLB   GL342063  27.647  13.181  13.444  0.1876  0.2243  0.3037
 1753BOLB   GL442064  27.552  12.946  13.308  0.4848  0.3182 -0.0922
 1753BOLB   C1C42065  27.160  13.299  13.464  0.2209  0.0343 -0.0862
 1753BOLB   C2C42066  26.809  13.433  13.797 -0.1564  0.4257 -0.1511
 1753BOLB   C3C42067  26.669  13.188  14.144 -0.1980 -0.1518 -0.2055
 1753BOLB   C4C42068  26.422  12.935  14.326 -0.1049  0.3168  0.4401
 1753BOLB   C1D42069  27.262  12.794  13.476 -0.1848 -0.1262 -0.0405
 1753BOLB   C2D42070  27.108  12.443  13.613  0.3150 -0.0072  0.0516
 1753BOLB   C3D42071  27.091  11.996  13.589  0.3686 -0.0456 -0.2590
 1753BOLB   C4D42072  26.896  11.732  13.777  0.2454  0.0794  0.2365
 1754BOLB   NC142073  24.096  16.171  16.656 -0.0649  0.3258 -0.0635
 1754BOLB   PO142074  24.503  16.112  16.913  0.0092 -0.2448 -0.2548
 1754BOLB   GL142075  24.806  16.182  16.607  0.0503 -0.2389  0.1156
 1754BOLB   GL242076  24.744  16.110  16.317  0.2119 -0.0190 -0.1220
 1754BOLB   C1A42077  25.215  16.135  16.440 -0.1114 -0.0608  0.2171
 1754BOLB   C2A42078  25.557  16.409  16.323  0.1700  0.0189 -0.1826
 1754BOLB   C3A42079  25.914  16.663  16.292  0.2201  0.1632 -0.2648
 1754BOLB   C4A42080  26.359  16.674  16.176  0.1977  0.2374  0.1051
 1754BOLB   C1B42081  24.993  16.040  15.975  0.0327 -0.3587  0.1725
 1754BOLB   C2B42082  24.976  16.301  15.604 -0.1270 -0.1926 -0.1510
 1754BOLB   C3B42083  25.063  16.628  15.242 -0.4576 -0.0257 -0.1004
 1754BOLB   C4B42084  25.405  16.552  14.959  0.2533 -0.0131 -0.0970
 1754BOLB   NC242085  28.591  17.482  15.304 -0.0180 -0.4830 -0.2227
 1754BOLB   PO242086  28.562  17.017  15.326  0.0851  0.1255  0.1848
 1754BOLB   GL342087  28.148  16.826  15.518 -0.0932  0.0844  0.0894
 1754BOLB   GL442088  28.072  16.847  15.845 -0.0361 -0.0983  0.2581
 1754BOLB   C1C42089  27.717  16.745  15.551 -0.0325  0.0194  0.0607
 1754BOLB   C2C42090  27.248  16.557  15.455  0.3064  0.1774 -0.1842
 1754BOLB   C3C42091  26.889  16.419  15.564  0.1695 -0.0234  0.0513
 1754BOLB   C4C42092  26.705  16.442  15.895  0.2764 -0.0728  0.2636
 1754BOLB   C1D42093  27.841  16.564  16.042 -0.1740 -0.2199 -0.0602
 1754BOLB   C2D42094  27.687  16.326  16.289 -0.1415 -0.3117 -0.0873
 1754BOLB   C3D42095  27.285  16.156  16.495 -0.1448  0.2370  0.1719
 1754BOLB   C4D42096  26.990  15.781  16.459 -0.3561  0.0300  0.1112
 1755BOLB   NC142097  23.276  11.095  14.527  0.1081 -0.0847 -0.0614
 1755BOLB   PO142098  23.239  11.486  14.453  0.0396  0.0189 -0.1053
 1755BOLB   GL142099  23.309  11.270  14.019 -0.1598 -0.3311  0.1688
 1755BOLB   GL242100  23.257  10.938  13.982  0.2017  0.0690  0.2195
 1755BOLB   C1A42101  23.490  11.268  13.670  0.3735  0.0254  0.1416
 1755BOLB   C2A42102  23.798  11.142  13.261 -0.0535  0.3762 -0.0107
 1755BOLB   C3A42103  23.729  11.011  12.828  0.1056  0.2892 -0.2022
 1755BOLB   C4A42104  23.790  10.935  12.421 -0.2575  0.1004  0.1054
 1755BOLB   C1B42105  23.473  10.736  13.651 -0.0648 -0.0699  0.1042
 1755BOLB   C2B42106  23.689  10.450  13.271  0.2966 -0.2294 -0.1251
 1755BOLB   C3B42107  23.574  10.059  13.009  0.1107  0.1507  0.2907
 1755BOLB   C4B42108  23.559   9.854  12.602 -0.0705 -0.0097 -0.0667
 1755BOLB   NC242109  25.066  10.081  11.109  0.1426 -0.1173  0.1199
 1755BOLB   PO242110  25.290  10.422  11.041 -0.2376  0.1486 -0.2918
 1755BOLB   GL342111  24.873  10.597  11.202  0.0569 -0.4670 -0.1466
 1755BOLB   GL442112  24.885  10.838  10.917 -0.0679  0.3336  0.0011
 1755BOLB   C1C42113  24.631  10.594  11.522  0.0703 -0.0502 -0.0779
 1755BOLB   C2C42114  24.311  10.687  11.566 -0.0462  0.0122 -0.1374
 1755BOLB   C3C42115  24.048  10.802  11.781  0.3332  0.3276  0.3488
 1755BOLB   C4C42116  23.737  10.699  12.067  0.0642  0.0427 -0.1786
 1755BOLB   C1D42117  24.492  10.896  11.110 -0.0823 -0.0283 -0.1499
 1755BOLB   C2D42118  24.295  11.225  11.173 -0.4092  0.0225 -0.0767
 1755BOLB   C3D42119  24.295  11.528  11.347  0.0440  0.2175 -0.3034
 1755BOLB   C4D42120  24.146  11.700  11.707 -0.0751 -0.3071 -0.1154
 1756BOLB   NC142121  22.582  20.382  14.640  0.0325 -0.2335 -0.0132
 1756BOLB   PO142122  22.221  20.638  14.348 -0.0928 -0.2324  0.3085
 1756BOLB   GL142123  22.504  20.913  14.204 -0.0439 -0.5043  0.1531
 1756BOLB   GL242124  22.406  21.215  14.270 -0.0416 -0.0385  0.0428
 1756BOLB   C1A42125  22.827  21.006  13.877 -0.0376  0.1423  0.0368
 1756BOLB   C2A42126  23.116  20.969  13.535 -0.0453  0.0467  0.2388
 1756BOLB   C3A42127  23.417  21.076  13.539  0.0751 -0.2512 -0.0352
 1756BOLB   C4A42128  23.837  21.115  13.284 -0.1997  0.2483  0.4359
 1756BOLB   C1B42129  22.747  21.582  14.336  0.3265  0.2615 -0.0359
 1756BOLB   C2B42130  22.949  21.830  14.190 -0.0537 -0.2606  0.0349
 1756BOLB   C3B42131  23.383  21.937  14.223 -0.4620  0.2466 -0.3734
 1756BOLB   C4B42132  23.696  22.102  14.204  0.1621  0.3177 -0.2843
 1756BOLB   NC242133  24.787  22.568  11.206  0.2746  0.0187 -0.0530
 1756BOLB   PO242134  24.417  22.446  11.498  0.1211 -0.2459 -0.1054
 1756BOLB   GL342135  24.187  22.484  11.797 -0.2672  0.1137  0.0228
 1756BOLB   GL442136  24.352  22.488  12.114 -0.0204  0.1689 -0.0926
 1756BOLB   C1C42137  23.827  22.355  12.113 -0.2402  0.1603 -0.1265
 1756BOLB   C2C42138  23.862  22.172  12.560  0.1241 -0.3292 -0.1292
 1756BOLB   C3C42139  23.904  21.854  12.854  0.4024  0.2590  0.0589
 1756BOLB   C4C42140  24.074  21.476  13.026 -0.0342  0.3536 -0.0446
 1756BOLB   C1D42141  24.397  21.961  12.125 -0.0141 -0.2288 -0.0265
 1756BOLB   C2D42142  24.029  21.764  12.167  0.0915  0.0068  0.1146
 1756BOLB   C3D42143  23.554  21.908  12.216 -0.3886 -0.1264 -0.1488
 1756BOLB   C4D42144  23.211  21.851  12.438  0.1316  0.1638  0.2283
 1757BOLB   NC142145  24.804  13.124  16.683 -0.1009 -0.3908 -0.0747
 1757BOLB   PO142146  24.984  13.201  16.345 -0.0540  0.1230  0.1764
 1757BOLB   GL142147  25.287  13.204  16.097 -0.0812  0.2695  0.1626
 1757BOLB   GL242148  25.463  13.031  16.273  0.0253 -0.0104  0.1142
 1757BOLB   C1A42149  25.502  13.324  15.726 -0.2852  0.1899 -0.0313
 1757BOLB   C2A42150  25.613  13.586  15.290 -0.0383  0.3067  0.0297
 1757BOLB   C3A42151  25.892  13.674  14.964  0.0192  0.4093 -0.1255
 1757BOLB   C4A42152  25.901  13.642  14.484 -0.0338 -0.2207  0.0127
 1757BOLB   C1B42153  25.786  13.403  16.204 -0.1586  0.0179 -0.2320
 1757BOLB   C2B42154  25.837  13.670  15.769  0.1155  0.0482  0.0618
 1757BOLB   C3B42155  26.063  13.748  15.426 -0.1848  0.0459 -0.1029
 1757BOLB   C4B42156  26.384  13.670  15.146  0.2234 -0.1743 -0.0519
 1757BOLB   NC242157  27.798  12.788  12.573  0.0612 -0.0536 -0.3039
 1757BOLB   PO242158  27.504  12.947  12.725  0.0978  0.2384  0.1695
 1757BOLB   GL342159  27.173  12.831  12.878  0.0990 -0.1719 -0.0095
 1757BOLB   GL442160  27.022  13.159  12.754 -0.0474  0.0276 -0.2617
 1757BOLB   C1C42161  26.803  12.792  13.153 -0.2370  0.0912 -0.0315
 1757BOLB   C2C42162  26.638  13.025  13.474 -0.1908  0.2496 -0.2033
 1757BOLB   C3C42163  26.378  13.197  13.693 -0.2318  0.0841 -0.1220
 1757BOLB   C4C42164  26.237  13.508  14.061  0.2492 -0.0637  0.3421
 1757BOLB   C1D42165  26.635  13.228  12.963 -0.0210  0.1039  0.3721
 1757BOLB   C2D42166  26.243  13.383  13.262  0.1370 -0.0674 -0.1687
 1757BOLB   C3D42167  25.832  13.293  13.524 -0.0422  0.0164  0.1331
 1757BOLB   C4D42168  25.914  13.081  13.898  0.0536  0.0762 -0.0815
 1758BOLB   NC142169  23.471  19.372  15.427 -0.3169 -0.0932  0.0355
 1758BOLB   PO142170  23.181  19.664  15.531  0.2490 -0.0146 -0.0640
 1758BOLB   GL142171  23.599  19.871  15.421 -0.0110  0.1612  0.0401
 1758BOLB   GL242172  23.836  19.879  15.601  0.2628  0.1591  0.1888
 1758BOLB   C1A42173  23.940  20.052  15.129  0.1544 -0.0038  0.3241
 1758BOLB   C2A42174  24.239  20.436  15.147  0.0741  0.0341  0.0943
 1758BOLB   C3A42175  24.623  20.493  14.937  0.1180  0.1084  0.3053
 1758BOLB   C4A42176  25.018  20.613  15.048 -0.1860  0.1631  0.1639
 1758BOLB   C1B42177  24.216  19.928  15.520 -0.0492  0.4676  0.1419
 1758BOLB   C2B42178  24.499  20.037  15.229  0.1082 -0.0318 -0.2086
 1758BOLB   C3B42179  24.500  20.023  14.845 -0.0262  0.3181 -0.1127
 1758BOLB   C4B42180  24.442  20.306  14.483  0.3812  0.1564  0.1229
 1758BOLB   NC242181  26.620  22.061  14.090  0.0317  0.2196  0.0786
 1758BOLB   PO242182  26.757  21.639  14.103  0.1553 -0.4182 -0.0374
 1758BOLB   GL342183  26.646  21.305  14.340 -0.1698 -0.2636 -0.1181
 1758BOLB   GL442184  26.490  21.009  14.242  0.0779 -0.2288 -0.1296
 1758BOLB   C1C42185  26.284  21.271  14.662  0.0222 -0.0049  0.1365
 1758BOLB   C2C42186  25.892  21.147  14.682 -0.0622  0.1289  0.0158
 1758BOLB   C3C42187  25.733  20.921  14.962  0.1030  0.0141  0.2298
 1758BOLB   C4C42188  25.372  20.848  15.127  0.0767  0.0111  0.0111
 1758BOLB   C1D42189  26.581  20.637  14.441  0.2086  0.1155 -0.1955
 1758BOLB   C2D42190  26.169  20.457  14.640 -0.1447 -0.1677 -0.1906
 1758BOLB   C3D42191  25.857  20.372  14.871  0.1917  0.2326 -0.1595
 1758BOLB   C4D42192  25.424  20.307  15.009 -0.0358  0.0938 -0.1712
 1759BOLB   NC142193  23.964  18.464  15.425  0.2807 -0.0164  0.2142
 1759BOLB   PO142194  24.025  18.228  15.774  0.1091 -0.0035  0.2493
 1759BOLB   GL142195  24.397  18.291  15.483 -0.2596 -0.0974  0.0435
 1759BOLB   GL242196  24.420  18.635  15.405  0.0838  0.3566  0.2224
 1759BOLB   C1A42197  24.803  18.286  15.451  0.1689 -0.0900  0.1056
 1759BOLB   C2A42198  25.213  18.404  15.510 -0.1111  0.2680 -0.0309
 1759BOLB   C3A42199  25.751  18.242  15.477  0.0590 -0.0626 -0.1562
 1759BOLB   C4A42200  26.130  18.142  15.661 -0.3994 -0.1119  0.1668
 1759BOLB   C1B42201  24.687  18.813  15.115  0.1733 -0.0032 -0.2503
 1759BOLB   C2B42202  25.130  18.777  15.035 -0.5811 -0.0907 -0.2541
 1759BOLB   C3B42203  25.584  18.696  15.282  0.2536  0.3133 -0.2572
 1759BOLB   C4B42204  25.932  18.728  15.339 -0.3788  0.0469 -0.0400
 1759BOLB   NC242205  28.297  18.148  14.763 -0.0489  0.0263 -0.2705
 1759BOLB   PO242206  27.986  18.319  14.438  0.1204  0.1202  0.0702
 1759BOLB   GL342207  27.565  18.235  14.320  0.0784 -0.0523  0.0785
 1759BOLB   GL442208  27.379  18.138  14.053  0.0419  0.1865  0.3381
 1759BOLB   C1C42209  27.199  18.390  14.670  0.3564  0.0924  0.0002
 1759BOLB   C2C42210  27.035  18.392  15.070  0.1138  0.2065  0.6211
 1759BOLB   C3C42211  26.950  18.378  15.529  0.1235  0.1739 -0.0256
 1759BOLB   C4C42212  26.616  18.242  15.866 -0.0914  0.0398 -0.0524
 1759BOLB   C1D42213  27.112  17.916  14.380 -0.3221 -0.0868 -0.0456
 1759BOLB   C2D42214  26.644  17.747  14.320  0.1777  0.2048  0.1558
 1759BOLB   C3D42215  26.331  17.726  14.624 -0.0115 -0.0757  0.2313
 1759BOLB   C4D42216  26.084  17.438  14.938  0.3877  0.3362 -0.1591
 1760BOLB   NC142217  23.086  13.791  14.119 -0.1286 -0.1566 -0.2993
 1760BOLB   PO142218  23.281  13.413  14.060 -0.0522  0.0300 -0.2529
 1760BOLB   GL142219  23.425  13.396  13.680 -0.0141  0.0070 -0.1286
 1760BOLB   GL242220  23.528  13.765  13.618 -0.1753  0.3010 -0.0456
 1760BOLB   C1A42221  23.582  13.330  13.288 -0.4828  0.0252  0.3053
 1760BOLB   C2A42222  23.871  13.339  13.045 -0.0378  0.1085 -0.0108
 1760BOLB   C3A42223  24.272  13.401  12.886  0.0164  0.0956 -0.0651
 1760BOLB   C4A42224  24.555  13.740  12.828 -0.0503  0.0210 -0.0859
 1760BOLB   C1B42225  23.863  13.820  13.342 -0.2746  0.0542  0.0993
 1760BOLB   C2B42226  24.071  13.889  12.959 -0.1508  0.1187  0.0544
 1760BOLB   C3B42227  24.185  14.024  12.514  0.1429  0.0502 -0.0045
 1760BOLB   C4B42228  23.911  14.018  12.304  0.1715  0.1445 -0.1373
 1760BOLB   NC242229  25.962  14.173  10.758  0.1742  0.0443  0.0832
 1760BOLB   PO242230  25.894  13.760  10.964 -0.0649 -0.1980 -0.1218
 1760BOLB   GL342231  25.865  13.749  11.453  0.0579 -0.1155  0.5614
 1760BOLB   GL442232  25.958  13.445  11.583  0.1008 -0.0430  0.1961
 1760BOLB   C1C42233  25.602  14.028  11.723  0.1800  0.0470  0.2508
 1760BOLB   C2C42234  25.466  14.108  12.059 -0.3134  0.0254 -0.3137
 1760BOLB   C3C42235  25.058  14.021  12.286  0.2956  0.4405 -0.5016
 1760BOLB   C4C42236  24.732  14.074  12.590  0.0207 -0.0756 -0.4329
 1760BOLB   C1D42237  25.983  13.718  11.960  0.1310  0.0376  0.0725
 1760BOLB   C2D42238  25.906  13.503  12.335 -0.0837  0.1348 -0.1579
 1760BOLB   C3D42239  25.809  13.207  12.610  0.0273 -0.1461 -0.1045
 1760BOLB   C4D42240  25.686  12.757  12.661 -0.0287  0.1134  0.1743
 1761BOLB   NC142241  23.312  13.130  14.504 -0.2847  0.1575  0.0003
 1761BOLB   PO142242  23.667  12.943  14.701 -0.0239 -0.2322 -0.1901
 1761BOLB   GL142243  23.880  12.929  14.390 -0.1221  0.0178  0.0702
 1761BOLB   GL242244  24.138  12.947  14.571 -0.1558 -0.0658  0.0413
 1761BOLB   C1A42245  23.764  13.060  13.995 -0.4233 -0.0503 -0.1081
 1761BOLB   C2A42246  23.974  13.265  13.602  0.1286 -0.1436  0.0626
 1761BOLB   C3A42247  24.305  13.110  13.313 -0.1702  0.2345  0.1182
 1761BOLB   C4A42248  24.597  13.095  13.009  0.1507 -0.1474  0.1593
 1761BOLB   C1B42249  24.283  12.943  14.085  0.0334  0.2295  0.1498
 1761BOLB   C2B42250  24.479  13.174  13.782  0.0590 -0.0127 -0.1343
 1761BOLB   C3B42251  24.822  13.273  13.534 -0.0809 -0.2288  0.4088
 1761BOLB   C4B42252  24.813  13.616  13.285 -0.1468 -0.0258 -0.0701
 1761BOLB   NC242253  24.933  13.413  10.226 -0.1550 -0.1345 -0.0017
 1761BOLB   PO242254  25.243  13.180  10.529  0.0713 -0.5027  0.2885
 1761BOLB   GL342255  24.890  13.060  10.840 -0.2182 -0.0345 -0.3099
 1761BOLB   GL442256  24.684  12.751  10.842 -0.0813 -0.2398 -0.1351
 1761BOLB   C1C42257  24.643  13.061  11.242  0.1043  0.2558 -0.1641
 1761BOLB   C2C42258  24.534  13.214  11.628  0.0533  0.0763  0.4201
 1761BOLB   C3C42259  24.561  13.248  12.117 -0.1862  0.0401 -0.0356
 1761BOLB   C4C42260  24.557  13.097  12.636  0.2827 -0.3580  0.1151
 1761BOLB   C1D42261  24.290  12.465  10.838  0.0319 -0.1796 -0.0384
 1761BOLB   C2D42262  23.895  12.372  10.973 -0.2560 -0.0017  0.1716
 1761BOLB   C3D42263  23.460  12.419  10.979 -0.1500  0.2662 -0.0022
 1761BOLB   C4D42264  23.062  12.264  11.045  0.2575 -0.0149 -0.0891
 1762BOLB   NC142265  24.803  14.860  17.012 -0.1455  0.1075  0.1154
 1762BOLB   PO142266  25.037  15.264  17.007 -0.0683 -0.0289 -0.3264
 1762BOLB   GL142267  25.469  15.448  16.969  0.0657  0.1229 -0.2332
 1762BOLB   GL242268  25.333  15.756  16.869 -0.4052  0.3806  0.1059
 1762BOLB   C1A42269  25.889  15.552  16.840 -0.2960 -0.4978  0.2209
 1762BOLB   C2A42270  26.206  15.858  16.749 -0.3294 -0.0205  0.3031
 1762BOLB   C3A42271  26.510  16.048  16.511  0.2726  0.1313 -0.0226
 1762BOLB   C4A42272  26.711  16.423  16.372  0.0835  0.1882  0.0868
 1762BOLB   C1B42273  25.647  15.910  16.602  0.0990  0.3926  0.2248
 1762BOLB   C2B42274  25.942  16.093  16.374 -0.4402 -0.0739  0.0592
 1762BOLB   C3B42275  26.248  16.207  16.124 -0.1638  0.0770 -0.1026
 1762BOLB   C4B42276  26.487  16.031  15.694 -0.1180 -0.1682  0.2517
 1762BOLB   NC242277  28.118  17.633  14.908 -0.0119 -0.2173  0.0585
 1762BOLB   PO242278  28.234  17.900  15.237 -0.1164  0.4454 -0.1566
 1762BOLB   GL342279  27.873  17.752  15.485  0.2969  0.3837 -0.2598
 1762BOLB   GL442280  27.614  17.726  15.158  0.0318  0.0260 -0.1611
 1762BOLB   C1C42281  27.884  17.508  15.815 -0.1222 -0.0363 -0.1868
 1762BOLB   C2C42282  27.649  17.093  15.937  0.0482  0.1522 -0.1022
 1762BOLB   C3C42283  27.361  16.716  15.982  0.2593 -0.3709  0.0008
 1762BOLB   C4C42284  27.117  16.573  16.208 -0.0198  0.0470 -0.1169
 1762BOLB   C1D42285  27.269  17.959  15.002 -0.0553  0.1068 -0.1391
 1762BOLB   C2D42286  26.812  18.015  14.770 -0.0644 -0.0146 -0.0723
 1762BOLB   C3D42287  26.492  18.138  14.933  0.0109  0.0414 -0.3112
 1762BOLB   C4D42288  26.318  18.414  15.261 -0.1928 -0.2072  0.1765
 1763BOLB   NC142289  22.823  18.880  15.240 -0.0679  0.1869  0.3142
 1763BOLB   PO142290  23.182  19.245  15.020 -0.2796  0.0062 -0.2992
 1763BOLB   GL142291  23.670  19.197  14.956 -0.0200  0.0144  0.3154
 1763BOLB   GL242292  23.818  19.181  14.680  0.1792 -0.5583  0.0289
 1763BOLB   C1A42293  24.031  19.594  14.856  0.2098  0.0714  0.0424
 1763BOLB   C2A42294  24.253  19.489  14.577  0.1479 -0.0026 -0.1217
 1763BOLB   C3A42295  24.647  19.645  14.494  0.3821  0.0248  0.3039
 1763BOLB   C4A42296  24.926  19.601  14.136  0.1394 -0.0963 -0.3636
 1763BOLB   C1B42297  24.014  19.285  14.182 -0.0051  0.5624  0.3331
 1763BOLB   C2B42298  24.227  19.063  13.912  0.3632 -0.0714  0.3795
 1763BOLB   C3B42299  24.513  18.981  13.734 -0.1620 -0.1566  0.3411
 1763BOLB   C4B42300  24.837  19.006  13.351  0.4351  0.0194 -0.0522
 1763BOLB   NC242301  27.039  20.589  13.576  0.3760 -0.2329  0.0991
 1763BOLB   PO242302  26.981  20.234  13.461  0.2034  0.0258  0.1210
 1763BOLB   GL342303  26.559  20.240  13.470 -0.0249 -0.0987  0.1778
 1763BOLB   GL442304  26.541  20.233  13.813 -0.1015 -0.1836  0.1583
 1763BOLB   C1C42305  26.133  20.424  13.582  0.1316  0.3011 -0.0248
 1763BOLB   C2C42306  25.736  20.251  13.412  0.0540 -0.0538 -0.0997
 1763BOLB   C3C42307  25.329  20.203  13.605  0.3103  0.0688 -0.0807
 1763BOLB   C4C42308  25.101  19.937  13.828  0.1905 -0.1550  0.1742
 1763BOLB   C1D42309  26.176  20.457  14.140 -0.3317  0.1491 -0.1267
 1763BOLB   C2D42310  25.811  20.293  14.365 -0.0088  0.0936 -0.0650
 1763BOLB   C3D42311  25.517  20.021  14.619 -0.0247  0.0227  0.2479
 1763BOLB   C4D42312  25.122  19.893  14.501  0.3066 -0.1957  0.0483
 1764BOLB   NC142313  24.360  16.457  16.385  0.0109 -0.0049 -0.0221
 1764BOLB   PO142314  24.258  16.708  16.689  0.2506  0.1411 -0.6163
 1764BOLB   GL142315  24.666  16.797  16.641  0.0137  0.1922  0.1878
 1764BOLB   GL242316  24.843  16.684  16.848  0.0682  0.0936 -0.0063
 1764BOLB   C1A42317  25.066  16.863  16.309 -0.3970 -0.2286  0.1613
 1764BOLB   C2A42318  25.416  16.855  16.104  0.1009 -0.1597 -0.2309
 1764BOLB   C3A42319  25.690  16.911  15.844  0.0821  0.0007  0.1157
 1764BOLB   C4A42320  26.128  17.081  16.031  0.1276  0.1246 -0.0418
 1764BOLB   C1B42321  25.201  16.951  16.891 -0.0784  0.0447  0.3100
 1764BOLB   C2B42322  25.484  16.905  16.594  0.1659  0.2835  0.2315
 1764BOLB   C3B42323  25.767  17.122  16.493 -0.1718  0.0741 -0.2390
 1764BOLB   C4B42324  26.214  16.985  16.523  0.0891 -0.0322  0.0349
 1764BOLB   NC242325  28.221  18.395  15.206 -0.2733 -0.1699 -0.1263
 1764BOLB   PO242326  27.952  18.675  15.199 -0.1621 -0.0651 -0.2275
 1764BOLB   GL342327  27.698  18.331  15.374  0.4254 -0.0069 -0.3551
 1764BOLB   GL442328  27.487  18.495  15.594 -0.3041 -0.3114 -0.0727
 1764BOLB   C1C42329  27.308  18.011  15.484  0.1203 -0.1549  0.0296
 1764BOLB   C2C42330  26.955  17.720  15.306 -0.1142  0.0625 -0.2448
 1764BOLB   C3C42331  26.665  17.560  15.662 -0.1140  0.1802  0.2411
 1764BOLB   C4C42332  26.431  17.295  15.849  0.1157 -0.0729 -0.0992
 1764BOLB   C1D42333  27.438  18.212  15.930 -0.0753 -0.2995  0.1053
 1764BOLB   C2D42334  27.021  17.932  15.927 -0.1632  0.0333 -0.2667
 1764BOLB   C3D42335  26.911  17.502  16.122 -0.1541  0.0292 -0.0095
 1764BOLB   C4D42336  27.186  17.168  16.189 -0.1972  0.0816  0.2060
 1765BOLB   NC142337  25.854  10.975  15.605  0.3079 -0.2070  0.1014
 1765BOLB   PO142338  25.452  11.024  15.540  0.2622 -0.1574  0.2682
 1765BOLB   GL142339  25.247  11.158  15.072 -0.3757  0.3788  0.1256
 1765BOLB   GL242340  24.954  11.374  15.074  0.1480 -0.3499  0.1942
 1765BOLB   C1A42341  25.362  11.118  14.629 -0.2501 -0.2269 -0.0928
 1765BOLB   C2A42342  25.096  11.129  14.242  0.0571 -0.1374 -0.1089
 1765BOLB   C3A42343  25.085  11.083  13.772 -0.0167 -0.1086 -0.0730
 1765BOLB   C4A42344  25.018  11.161  13.358 -0.2079 -0.1957  0.2679
 1765BOLB   C1B42345  25.172  11.543  14.656  0.3707 -0.3035  0.2772
 1765BOLB   C2B42346  25.531  11.500  14.398 -0.0402 -0.0508  0.4009
 1765BOLB   C3B42347  25.453  11.436  13.947  0.0701  0.1511 -0.2002
 1765BOLB   C4B42348  25.411  11.411  13.488 -0.0190  0.2862  0.0605
 1765BOLB   NC242349  25.793  11.213  11.213  0.2257  0.6046  0.1733
 1765BOLB   PO242350  25.695  11.637  11.288  0.0945  0.1669 -0.1278
 1765BOLB   GL342351  25.467  11.786  11.597  0.1144  0.0816 -0.0113
 1765BOLB   GL442352  25.282  11.974  11.322  0.1257  0.0567  0.0464
 1765BOLB   C1C42353  25.468  11.691  12.022 -0.1854  0.1608  0.0874
 1765BOLB   C2C42354  25.538  11.477  12.365  0.0052 -0.0799 -0.4185
 1765BOLB   C3C42355  25.214  11.261  12.548 -0.1886  0.2655  0.1111
 1765BOLB   C4C42356  25.042  11.158  12.989 -0.0088  0.1329  0.0670
 1765BOLB   C1D42357  25.074  12.087  11.600 -0.1410 -0.1060 -0.0047
 1765BOLB   C2D42358  24.831  12.277  11.943 -0.0738 -0.1719  0.2764
 1765BOLB   C3D42359  24.574  12.459  12.120  0.0831  0.0714 -0.0840
 1765BOLB   C4D42360  24.143  12.633  12.161  0.0987 -0.2172  0.4885
 1766BOLB   NC142361  24.869  14.442  15.636  0.3457 -0.1796 -0.1639
 1766BOLB   PO142362  25.059  14.296  15.861 -0.0057  0.2230  0.2017
 1766BOLB   GL142363  25.420  14.394  15.728  0.2339 -0.3046  0.2303
 1766BOLB   GL242364  25.538  14.508  16.017 -0.0212  0.0563 -0.1379
 1766BOLB   C1A42365  25.629  14.755  15.578  0.1317  0.3197  0.0252
 1766BOLB   C2A42366  25.518  15.232  15.435  0.0136 -0.0382 -0.3730
 1766BOLB   C3A42367  25.754  15.601  15.264  0.0050  0.2531 -0.0797
 1766BOLB   C4A42368  25.871  15.760  14.837 -0.1025  0.0701  0.0339
 1766BOLB   C1B42369  25.870  14.776  16.030 -0.0276 -0.2431 -0.0589
 1766BOLB   C2B42370  26.075  15.023  15.684  0.3173 -0.2034 -0.2638
 1766BOLB   C3B42371  26.066  15.086  15.254  0.0911 -0.0648  0.1952
 1766BOLB   C4B42372  25.753  15.189  15.004 -0.0353  0.0723  0.0451
 1766BOLB   NC242373  28.281  16.322  14.289 -0.2082  0.0486 -0.0913
 1766BOLB   PO242374  28.057  16.441  13.921 -0.0764  0.0155 -0.0031
 1766BOLB   GL342375  27.750  16.329  14.121  0.2461 -0.0580  0.3288
 1766BOLB   GL442376  27.737  16.134  14.329  0.0266  0.0289 -0.0346
 1766BOLB   C1C42377  27.305  16.489  14.029 -0.0586 -0.1558  0.3297
 1766BOLB   C2C42378  26.820  16.341  14.089  0.0194 -0.0486 -0.1034
 1766BOLB   C3C42379  26.481  15.987  14.163  0.0775 -0.2076 -0.2321
 1766BOLB   C4C42380  26.147  15.864  14.488 -0.2128 -0.0929 -0.1554
 1766BOLB   C1D42381  27.325  16.180  14.451 -0.0755 -0.0437  0.1186
 1766BOLB   C2D42382  26.886  16.193  14.664  0.0198 -0.3938 -0.1516
 1766BOLB   C3D42383  26.483  16.153  14.768  0.2535  0.0706 -0.1683
 1766BOLB   C4D42384  26.247  15.946  15.130 -0.2767  0.0501  0.0442
 1767BOLB   NC142385  24.628  15.833  17.388  0.1886  0.0659 -0.0077
 1767BOLB   PO142386  25.021  15.641  17.347 -0.3669 -0.0842  0.0254
 1767BOLB   GL142387  25.149  16.007  17.309 -0.2923 -0.1717 -0.3490
 1767BOLB   GL242388  25.094  16.172  17.040  0.0030  0.1265  0.2647
 1767BOLB   C1A42389  25.697  16.118  17.101 -0.0763 -0.1618  0.0674
 1767BOLB   C2A42390  26.039  16.353  17.185 -0.1105  0.1381 -0.2758
 1767BOLB   C3A42391  26.292  16.826  17.106  0.2073  0.0565  0.1998
 1767BOLB   C4A42392  26.700  16.899  17.087  0.1091  0.0016 -0.0755
 1767BOLB   C1B42393  25.301  16.466  16.770  0.1462 -0.1364  0.0437
 1767BOLB   C2B42394  25.792  16.416  16.724  0.4390 -0.0462  0.1465
 1767BOLB   C3B42395  26.197  16.398  16.697  0.2685 -0.3885  0.0192
 1767BOLB   C4B42396  26.582  16.433  16.936  0.1028 -0.2507 -0.1376
 1767BOLB   NC242397  29.080  17.624  15.542 -0.3469 -0.3789 -0.3020
 1767BOLB   PO242398  28.861  17.427  15.741 -0.1559  0.1017 -0.1927
 1767BOLB   GL342399  28.442  17.340  15.786 -0.0319  0.4384  0.3827
 1767BOLB   GL442400  28.140  17.333  15.411 -0.0644  0.0890  0.1902
 1767BOLB   C1C42401  28.107  17.274  16.150 -0.0231  0.0147  0.0117
 1767BOLB   C2C42402  27.953  17.307  16.694  0.3655 -0.1019  0.0155
 1767BOLB   C3C42403  27.512  17.283  16.870  0.0631  0.0651  0.4409
 1767BOLB   C4C42404  27.107  17.092  16.938  0.0658 -0.0525  0.1671
 1767BOLB   C1D42405  27.736  17.268  15.372 -0.1670  0.1716 -0.3974
 1767BOLB   C2D42406  27.309  17.039  15.616 -0.0075 -0.0219  0.4781
 1767BOLB   C3D42407  26.878  16.898  15.891 -0.0775 -0.2583 -0.4425
 1767BOLB   C4D42408  26.771  16.841  16.478  0.1368 -0.1895  0.2436
 1768BOLB   NC142409  23.190  20.132  15.410  0.2223 -0.1523  0.2917
 1768BOLB   PO142410  22.937  20.268  14.998 -0.0040 -0.3330 -0.2699
 1768BOLB   GL142411  23.348  20.104  14.824 -0.0446 -0.0626 -0.5394
 1768BOLB   GL242412  23.564  20.327  15.078  0.1755 -0.0225  0.2072
 1768BOLB   C1A42413  23.624  20.016  14.675 -0.1153 -0.1617 -0.1811
 1768BOLB   C2A42414  23.987  20.060  14.583 -0.0443  0.1196 -0.1389
 1768BOLB   C3A42415  24.249  19.913  14.251  0.1586  0.0054  0.0659
 1768BOLB   C4A42416  24.291  19.627  13.992  0.4011 -0.0280  0.1684
 1768BOLB   C1B42417  23.777  20.601  14.819 -0.2216  0.0199 -0.2513
 1768BOLB   C2B42418  24.173  20.703  14.717 -0.0395  0.0276  0.0342
 1768BOLB   C3B42419  24.568  20.778  14.520  0.0170  0.1330  0.0669
 1768BOLB   C4B42420  24.911  20.576  14.366  0.0064 -0.1141  0.0091
 1768BOLB   NC242421  25.743  19.090  11.837  0.2712  0.1281 -0.0699
 1768BOLB   PO242422  25.622  19.532  11.892 -0.0038 -0.1044 -0.1014
 1768BOLB   GL342423  25.533  19.299  12.275  0.0421  0.1561 -0.0266
 1768BOLB   GL442424  25.822  19.220  12.418  0.1051 -0.0190  0.0184
 1768BOLB   C1C42425  25.066  19.165  12.593 -0.1437  0.1921 -0.1483
 1768BOLB   C2C42426  24.842  19.241  12.915  0.0898  0.0709  0.1731
 1768BOLB   C3C42427  24.698  19.528  13.329  0.0675  0.2888 -0.0121
 1768BOLB   C4C42428  24.374  19.517  13.641  0.2914 -0.2581  0.0656
 1768BOLB   C1D42429  25.590  19.111  12.747 -0.3017  0.1482 -0.0070
 1768BOLB   C2D42430  25.318  19.040  13.055  0.2374  0.0339  0.3323
 1768BOLB   C3D42431  25.368  18.870  13.528  0.2829 -0.2810  0.0724
 1768BOLB   C4D42432  25.513  18.591  13.763  0.1071  0.0719 -0.1249
 1769BOLB   NC142433  23.142  19.636  14.571 -0.0622 -0.3199 -0.1433
 1769BOLB   PO142434  23.085  19.178  14.412 -0.3041  0.0310  0.2071
 1769BOLB   GL142435  23.369  19.368  14.159  0.2871 -0.0104  0.2083
 1769BOLB   GL242436  23.547  19.523  14.253 -0.2393  0.0421 -0.1880
 1769BOLB   C1A42437  23.636  19.423  13.774 -0.3338 -0.0182 -0.4903
 1769BOLB   C2A42438  23.859  19.335  13.443 -0.4284  0.2404  0.2269
 1769BOLB   C3A42439  24.176  18.989  13.373  0.0442  0.1415 -0.1542
 1769BOLB   C4A42440  24.395  18.643  13.416 -0.5295 -0.0624  0.0024
 1769BOLB   C1B42441  23.774  19.902  14.096  0.2142 -0.0546  0.0595
 1769BOLB   C2B42442  24.015  20.029  13.804  0.0654  0.4234 -0.2227
 1769BOLB   C3B42443  24.423  20.031  13.673 -0.2326 -0.2394 -0.3356
 1769BOLB   C4B42444  24.811  20.216  13.507  0.3689  0.1064  0.0751
 1769BOLB   NC242445  26.677  19.198  13.075 -0.2338 -0.1102  0.0191
 1769BOLB   PO242446  26.917  18.766  13.061  0.2861 -0.1440 -0.1899
 1769BOLB   GL342447  26.502  18.697  13.203 -0.2306  0.0099  0.3499
 1769BOLB   GL442448  26.480  18.439  13.417  0.0240 -0.1739 -0.0580
 1769BOLB   C1C42449  26.064  18.533  13.149 -0.0690 -0.1494  0.0064
 1769BOLB   C2C42450  25.642  18.479  13.263 -0.0573  0.0223 -0.2880
 1769BOLB   C3C42451  25.111  18.565  13.200  0.4003  0.0171 -0.0094
 1769BOLB   C4C42452  24.703  18.536  13.407 -0.0208  0.0284  0.1320
 1769BOLB   C1D42453  26.485  18.587  13.794  0.2006  0.2003  0.2726
 1769BOLB   C2D42454  26.498  18.680  14.273  0.0604  0.0669  0.1653
 1769BOLB   C3D42455  26.294  18.588  14.541 -0.0388 -0.1210 -0.1316
 1769BOLB   C4D42456  25.961  18.524  14.887  0.3165 -0.1040 -0.0005
 1770BOLB   NC142457  24.378  14.832  16.111  0.1577  0.2283 -0.0327
 1770BOLB   PO142458  24.644  14.846  15.801 -0.1139  0.0620 -0.0504
 1770BOLB   GL142459  24.908  14.911  15.374 -0.1007 -0.0088 -0.2042
 1770BOLB   GL242460  24.719  14.925  15.085  0.0409  0.2560 -0.0971
 1770BOLB   C1A42461  25.264  14.915  15.010 -0.2158 -0.1587 -0.1481
 1770BOLB   C2A42462  25.511  14.835  14.689  0.0781  0.0963  0.1834
 1770BOLB   C3A42463  25.703  14.962  14.399  0.1693  0.0659  0.1132
 1770BOLB   C4A42464  26.053  15.155  14.089  0.2111  0.3568  0.0239
 1770BOLB   C1B42465  24.870  15.171  14.815  0.0133  0.0068  0.1273
 1770BOLB   C2B42466  25.194  15.211  14.431 -0.0430  0.0811 -0.1763
 1770BOLB   C3B42467  25.463  15.298  14.079  0.0534 -0.1700 -0.4422
 1770BOLB   C4B42468  25.682  15.456  13.673 -0.2064  0.3661  0.0646
 1770BOLB   NC242469  28.334  15.692  13.633 -0.1290  0.0147 -0.1054
 1770BOLB   PO242470  28.154  15.898  13.991 -0.2448 -0.0587  0.2001
 1770BOLB   GL342471  27.813  15.911  13.887 -0.1520 -0.1555 -0.1485
 1770BOLB   GL442472  27.729  15.690  14.211 -0.0650  0.1904 -0.0169
 1770BOLB   C1C42473  27.368  16.025  13.943 -0.0183  0.0737 -0.1788
 1770BOLB   C2C42474  27.024  15.807  13.896  0.2068  0.1806  0.0872
 1770BOLB   C3C42475  26.727  15.583  13.881  0.0882  0.1914 -0.1468
 1770BOLB   C4C42476  26.463  15.160  13.960 -0.1449  0.2578 -0.0352
 1770BOLB   C1D42477  27.366  15.727  14.341  0.0388  0.0659  0.1334
 1770BOLB   C2D42478  26.922  15.747  14.517  0.0909 -0.0150  0.3333
 1770BOLB   C3D42479  26.558  15.621  14.751  0.3575  0.1409 -0.0122
 1770BOLB   C4D42480  26.316  15.435  15.076 -0.3059 -0.0642  0.1897
 1771BOLB   NC142481  23.214  15.453  14.200  0.3082  0.1458  0.1454
 1771BOLB   PO142482  23.601  15.715  14.121  0.0249  0.1322  0.2496
 1771BOLB   GL142483  24.171  15.587  14.102 -0.0761 -0.2817  0.0972
 1771BOLB   GL242484  24.155  15.317  14.208  0.0468 -0.2635  0.1821
 1771BOLB   C1A42485  24.358  15.722  13.738  0.0448  0.1129  0.0990
 1771BOLB   C2A42486  24.613  16.023  13.384 -0.1015  0.0151 -0.0357
 1771BOLB   C3A42487  24.660  16.390  13.275 -0.0838  0.0002 -0.0764
 1771BOLB   C4A42488  24.839  16.691  13.025  0.0983  0.2501 -0.0764
 1771BOLB   C1B42489  24.417  15.157  13.869  0.0565 -0.1698 -0.0228
 1771BOLB   C2B42490  24.640  14.944  13.643  0.1979 -0.4038 -0.1558
 1771BOLB   C3B42491  24.638  14.542  13.440 -0.0817  0.2571  0.1052
 1771BOLB   C4B42492  24.836  14.508  13.093 -0.2987 -0.2073 -0.0386
 1771BOLB   NC242493  26.196  16.747  11.106 -0.1825  0.0345 -0.3015
 1771BOLB   PO242494  26.529  16.598  11.353  0.1596 -0.0338  0.1298
 1771BOLB   GL342495  26.070  16.689  11.592 -0.1241 -0.0204  0.3754
 1771BOLB   GL442496  26.078  16.720  11.924  0.1092  0.1627  0.1262
 1771BOLB   C1C42497  25.683  16.415  11.677  0.1373 -0.2296  0.0472
 1771BOLB   C2C42498  25.439  16.373  12.010  0.0538  0.1521 -0.2828
 1771BOLB   C3C42499  25.160  16.606  12.217  0.1266 -0.0626 -0.2874
 1771BOLB   C4C42500  24.841  16.532  12.648 -0.1221 -0.1578 -0.2193
 1771BOLB   C1D42501  25.886  16.990  11.920  0.1701 -0.2068  0.0768
 1771BOLB   C2D42502  25.746  17.222  12.267  0.0538 -0.0700 -0.3124
 1771BOLB   C3D42503  25.434  17.080  12.542  0.0395 -0.1463  0.1093
 1771BOLB   C4D42504  25.020  17.199  12.598 -0.0376  0.1763  0.2548
 1772BOLB   NC142505  25.994  11.846  16.575 -0.2310  0.0851 -0.0698
 1772BOLB   PO142506  26.146  12.266  16.707 -0.1032 -0.1103  0.1792
 1772BOLB   GL142507  26.078  12.376  16.279 -0.0898 -0.3234  0.0742
 1772BOLB   GL242508  25.743  12.623  16.187  0.0341  0.0500  0.3086
 1772BOLB   C1A42509  26.320  12.640  15.972  0.1207  0.2113 -0.0580
 1772BOLB   C2A42510  26.496  12.867  15.648  0.0074  0.1318  0.0996
 1772BOLB   C3A42511  26.414  12.971  15.212 -0.1316 -0.4008 -0.0727
 1772BOLB   C4A42512  26.265  13.190  14.768 -0.0323  0.2135 -0.1073
 1772BOLB   C1B42513  25.796  12.924  15.891  0.1616  0.3289 -0.0279
 1772BOLB   C2B42514  26.048  13.124  15.713 -0.0763 -0.2887  0.1478
 1772BOLB   C3B42515  26.418  13.433  15.580 -0.4375 -0.1107  0.1350
 1772BOLB   C4B42516  26.734  13.815  15.534  0.0553  0.2450 -0.3941
 1772BOLB   NC242517  27.313  14.075  12.710  0.1853  0.0017 -0.1388
 1772BOLB   PO242518  27.753  13.857  12.783  0.1132 -0.0034  0.0553
 1772BOLB   GL342519  27.457  13.823  13.182 -0.2903 -0.0464 -0.6273
 1772BOLB   GL442520  27.555  13.717  13.438  0.1351  0.2572  0.1250
 1772BOLB   C1C42521  27.050  13.919  13.470 -0.0978 -0.3208 -0.1233
 1772BOLB   C2C42522  26.777  14.006  13.753  0.3045 -0.0169  0.1844
 1772BOLB   C3C42523  26.610  13.810  14.137  0.1910  0.2373  0.0704
 1772BOLB   C4C42524  26.377  13.579  14.576  0.0080 -0.0068 -0.1224
 1772BOLB   C1D42525  27.417  13.481  13.834  0.0262  0.1552  0.1319
 1772BOLB   C2D42526  27.112  13.532  14.132 -0.1432  0.3063 -0.2204
 1772BOLB   C3D42527  26.858  13.424  14.544 -0.0196 -0.1366  0.1950
 1772BOLB   C4D42528  26.710  13.862  14.815 -0.0997 -0.0309  0.2212
 1773BOLB   NC142529  22.941  20.842  16.115 -0.1429  0.3828 -0.0208
 1773BOLB   PO142530  23.378  20.713  16.028 -0.3871 -0.0435  0.0782
 1773BOLB   GL142531  23.668  20.712  15.716  0.1877  0.1093  0.0914
 1773BOLB   GL242532  23.663  20.326  15.701  0.0979  0.1213 -0.0782
 1773BOLB   C1A42533  23.958  20.776  15.360 -0.2020 -0.0595  0.2418
 1773BOLB   C2A42534  24.348  20.910  15.293  0.1910 -0.1820 -0.1225
 1773BOLB   C3A42535  24.676  21.003  14.978 -0.0513  0.1028  0.1366
 1773BOLB   C4A42536  25.023  21.028  14.739  0.2340 -0.0014 -0.1850
 1773BOLB   C1B42537  24.076  20.338  15.629 -0.0221 -0.1801 -0.0869
 1773BOLB   C2B42538  24.471  20.574  15.631  0.2266 -0.0697  0.2207
 1773BOLB   C3B42539  24.767  20.374  15.487 -0.2252  0.0909  0.0811
 1773BOLB   C4B42540  24.991  20.158  15.207 -0.1984 -0.3438 -0.1337
 1773BOLB   NC242541  26.723  21.338  13.128  0.0837 -0.2101 -0.0441
 1773BOLB   PO242542  26.386  21.456  12.908  0.1104 -0.2503 -0.0550
 1773BOLB   GL342543  26.215  21.236  13.320  0.4905 -0.0372  0.2363
 1773BOLB   GL442544  26.086  21.026  13.111  0.0879 -0.3161 -0.1441
 1773BOLB   C1C42545  26.130  21.198  13.715 -0.0385 -0.0646  0.2830
 1773BOLB   C2C42546  26.058  20.990  14.033  0.0735 -0.1624 -0.0074
 1773BOLB   C3C42547  25.712  20.857  14.346  0.0734  0.0169  0.1854
 1773BOLB   C4C42548  25.345  20.710  14.607  0.0096 -0.1681 -0.0113
 1773BOLB   C1D42549  25.840  20.862  13.495 -0.0726  0.0023  0.4227
 1773BOLB   C2D42550  25.788  20.572  13.911  0.3895 -0.2382 -0.0167
 1773BOLB   C3D42551  25.686  20.159  13.907 -0.3578 -0.3093 -0.1836
 1773BOLB   C4D42552  25.729  19.821  14.196  0.0175 -0.2164 -0.1863
 1774BOLB   NC142553  28.039  12.727  13.434  0.2424  0.0045  0.2246
 1774BOLB   PO142554  27.817  12.501  13.522  0.1122 -0.1551  0.1340
 1774BOLB   GL142555  27.614  12.588  13.883  0.2041  0.3115 -0.2829
 1774BOLB   GL242556  27.547  12.876  13.931  0.3554 -0.1506  0.1492
 1774BOLB   C1A42557  27.215  12.484  14.110  0.0260  0.1367 -0.1018
 1774BOLB   C2A42558  26.830  12.496  14.441  0.0666 -0.2134  0.0434
 1774BOLB   C3A42559  26.441  12.269  14.429  0.1829  0.1432 -0.1023
 1774BOLB   C4A42560  26.329  11.929  14.171  0.0586  0.0643  0.0607
 1774BOLB   C1B42561  27.014  12.900  13.904  0.0946 -0.2781 -0.0846
 1774BOLB   C2B42562  26.607  12.693  13.904  0.0660  0.1681  0.2659
 1774BOLB   C3B42563  26.161  12.655  13.872 -0.0890 -0.1643  0.0063
 1774BOLB   C4B42564  25.875  12.295  13.880  0.2309 -0.1709  0.1053
 1774BOLB   NC242565  27.719  10.595  12.977 -0.0412  0.0446  0.1850
 1774BOLB   PO242566  27.246  10.656  12.791 -0.0367 -0.0355 -0.1762
 1774BOLB   GL342567  26.843  10.727  13.159 -0.0558 -0.2842 -0.2618
 1774BOLB   GL442568  26.730  10.433  13.354  0.0817  0.0343 -0.2215
 1774BOLB   C1C42569  26.479  10.912  13.031 -0.3583  0.1148 -0.3637
 1774BOLB   C2C42570  26.228  11.203  13.276 -0.1812  0.0357  0.0173
 1774BOLB   C3C42571  26.223  11.525  13.471 -0.0921  0.0156 -0.1317
 1774BOLB   C4C42572  26.400  11.745  13.906 -0.1498 -0.0435  0.1046
 1774BOLB   C1D42573  26.386  10.729  13.559 -0.3716 -0.3752  0.0218
 1774BOLB   C2D42574  26.024  10.477  13.738  0.3164  0.2327  0.0796
 1774BOLB   C3D42575  26.034  10.085  13.871 -0.4964  0.1924 -0.0498
 1774BOLB   C4D42576  26.085   9.653  13.980  0.0578  0.2548  0.2043
 1775BOLB   NC142577  24.508  17.357  15.825 -0.0672 -0.2339 -0.2640
 1775BOLB   PO142578  24.486  17.504  15.378  0.0521  0.0361  0.0213
 1775BOLB   GL142579  24.689  17.404  15.072  0.1684  0.1431 -0.0156
 1775BOLB   GL242580  24.706  17.062  14.855  0.0644 -0.0772 -0.3476
 1775BOLB   C1A42581  24.978  17.452  14.731  0.1081  0.0966 -0.0029
 1775BOLB   C2A42582  25.330  17.652  14.519  0.2025  0.3415  0.2320
 1775BOLB   C3A42583  25.389  18.083  14.256 -0.4354  0.2120  0.0743
 1775BOLB   C4A42584  25.705  18.177  13.992 -0.0687 -0.2112  0.1624
 1775BOLB   C1B42585  25.169  17.057  15.014 -0.1328 -0.0387  0.0297
 1775BOLB   C2B42586  25.656  16.984  14.989  0.0225 -0.0769 -0.0264
 1775BOLB   C3B42587  26.071  16.948  15.092 -0.1315  0.1251 -0.0993
 1775BOLB   C4B42588  26.358  16.703  14.839 -0.0249  0.0113  0.2569
 1775BOLB   NC242589  27.037  19.609  12.743  0.0393 -0.1666  0.3109
 1775BOLB   PO242590  26.631  19.593  12.805 -0.1205  0.1440  0.0162
 1775BOLB   GL342591  26.329  19.636  13.096 -0.0575 -0.0954  0.0340
 1775BOLB   GL442592  26.013  19.834  13.072  0.1061  0.3531 -0.1478
 1775BOLB   C1C42593  26.139  19.415  13.451  0.0973  0.2142 -0.1854
 1775BOLB   C2C42594  26.230  19.029  13.571 -0.1590  0.2884 -0.1415
 1775BOLB   C3C42595  26.032  18.721  13.608  0.0715 -0.2212 -0.0390
 1775BOLB   C4C42596  26.038  18.336  13.882  0.0493 -0.2251  0.1888
 1775BOLB   C1D42597  25.597  19.950  13.078 -0.3067 -0.0302 -0.2470
 1775BOLB   C2D42598  25.288  20.047  12.749 -0.4471 -0.0227 -0.5306
 1775BOLB   C3D42599  24.931  20.245  12.619 -0.0237  0.2524  0.3162
 1775BOLB   C4D42600  24.828  20.645  12.422 -0.2443 -0.1925 -0.1706
 1776BOLB   NC142601  24.610  14.145  16.761 -0.1020  0.0012 -0.0995
 1776BOLB   PO142602  24.918  14.424  16.817 -0.1046  0.1640  0.0490
 1776BOLB   GL142603  25.250  14.652  16.608 -0.2988 -0.0066 -0.0445
 1776BOLB   GL242604  25.395  14.940  16.789  0.2145  0.1348  0.0724
 1776BOLB   C1A42605  25.739  14.740  16.466 -0.2717 -0.2602  0.2009
 1776BOLB   C2A42606  26.185  14.804  16.497 -0.1968  0.0220  0.0809
 1776BOLB   C3A42607  26.621  14.799  16.424 -0.1447 -0.0490  0.1116
 1776BOLB   C4A42608  27.025  14.975  16.280  0.0250 -0.1072 -0.0476
 1776BOLB   C1B42609  25.785  15.029  16.872 -0.2307  0.0565 -0.0473
 1776BOLB   C2B42610  26.157  15.178  16.764  0.2756  0.0285 -0.1153
 1776BOLB   C3B42611  26.430  15.310  16.525 -0.0108  0.2735 -0.0576
 1776BOLB   C4B42612  26.345  15.134  16.152  0.1581  0.2095 -0.0440
 1776BOLB   NC242613  28.893  16.890  15.671  0.0388  0.2678 -0.2129
 1776BOLB   PO242614  28.608  16.509  15.500 -0.0082 -0.0021  0.0559
 1776BOLB   GL342615  28.221  16.310  15.605 -0.0610  0.1726  0.0483
 1776BOLB   GL442616  28.185  16.164  15.272 -0.1013 -0.1730 -0.2239
 1776BOLB   C1C42617  28.027  16.085  15.944  0.1206  0.1701  0.1364
 1776BOLB   C2C42618  27.692  15.757  16.074 -0.3477 -0.1694 -0.1221
 1776BOLB   C3C42619  27.656  15.361  16.285  0.1755 -0.0122 -0.1560
 1776BOLB   C4C42620  27.331  15.272  16.409  0.5288 -0.0734  0.0598
 1776BOLB   C1D42621  27.760  16.321  15.376  0.3916  0.2110  0.0879
 1776BOLB   C2D42622  27.544  16.239  15.784  0.0150  0.1392  0.0563
 1776BOLB   C3D42623  27.179  16.151  15.992  0.2767 -0.1505 -0.0516
 1776BOLB   C4D42624  26.831  15.993  16.066 -0.1558 -0.2907  0.2157
 1777BOLB   NC142625  24.214  14.965  15.191 -0.0921  0.3121  0.2686
 1777BOLB   PO142626  24.120  15.003  15.695  0.1136  0.0862  0.0071
 1777BOLB   GL142627  24.439  15.291  15.457  0.0913  0.4433 -0.0669
 1777BOLB   GL242628  24.194  15.456  15.329 -0.0350  0.0461 -0.2359
 1777BOLB   C1A42629  24.835  15.391  15.408  0.1882 -0.3531  0.2149
 1777BOLB   C2A42630  25.145  15.427  15.157  0.0183 -0.0598 -0.1789
 1777BOLB   C3A42631  25.354  15.457  14.868 -0.2558  0.3007  0.1983
 1777BOLB   C4A42632  25.613  15.399  14.554  0.1114  0.1470 -0.4561
 1777BOLB   C1B42633  24.539  15.581  15.004 -0.0184  0.1877  0.2485
 1777BOLB   C2B42634  24.858  15.641  14.731  0.1468 -0.2143  0.1484
 1777BOLB   C3B42635  25.176  15.712  14.288  0.0638 -0.2122  0.1500
 1777BOLB   C4B42636  25.451  16.044  14.112  0.2881 -0.0021 -0.0469
 1777BOLB   NC242637  28.006  16.202  13.487 -0.1363 -0.0386  0.1269
 1777BOLB   PO242638  27.624  16.179  13.303  0.2403  0.1321 -0.0595
 1777BOLB   GL342639  27.254  15.955  13.310 -0.0267 -0.2999 -0.0091
 1777BOLB   GL442640  27.162  15.660  13.352 -0.3318  0.1126  0.0667
 1777BOLB   C1C42641  26.861  16.084  13.487 -0.2307 -0.0904 -0.0941
 1777BOLB   C2C42642  26.472  15.939  13.650  0.0176  0.2414 -0.0650
 1777BOLB   C3C42643  26.223  15.646  13.958  0.0112  0.0752  0.3683
 1777BOLB   C4C42644  25.791  15.640  14.261  0.2295  0.4064 -0.1309
 1777BOLB   C1D42645  26.785  15.618  13.328 -0.2214 -0.3093  0.3704
 1777BOLB   C2D42646  26.530  15.315  13.486 -0.2033  0.0784 -0.2056
 1777BOLB   C3D42647  26.137  15.269  13.546  0.2094  0.2494 -0.1206
 1777BOLB   C4D42648  25.741  15.015  13.696 -0.0081  0.2626 -0.0716
 1778BOLB   NC142649  27.893  12.155  13.968  0.4176 -0.2079  0.1724
 1778BOLB   PO142650  27.838  11.782  14.347  0.0185  0.1733  0.0191
 1778BOLB   GL142651  27.541  12.010  14.377 -0.1686 -0.2293  0.2171
 1778BOLB   GL242652  27.398  12.018  14.076 -0.0294  0.0827  0.3236
 1778BOLB   C1A42653  27.210  12.143  14.524 -0.0430  0.2285 -0.0263
 1778BOLB   C2A42654  26.848  12.086  14.731 -0.2090  0.0515 -0.1099
 1778BOLB   C3A42655  26.536  11.738  14.595  0.0153  0.0641  0.0232
 1778BOLB   C4A42656  26.296  11.446  14.339  0.1685  0.0932  0.0269
 1778BOLB   C1B42657  26.847  12.019  14.194 -0.0514 -0.3959 -0.0354
 1778BOLB   C2B42658  26.695  12.198  13.944  0.1776 -0.0807  0.1751
 1778BOLB   C3B42659  26.459  12.163  13.663  0.4050  0.0177 -0.0381
 1778BOLB   C4B42660  26.014  12.169  13.372 -0.0905 -0.1871  0.1425
 1778BOLB   NC242661  26.874  10.293  12.927  0.0126 -0.1477  0.4361
 1778BOLB   PO242662  26.521  10.039  13.027 -0.1851  0.3497 -0.1512
 1778BOLB   GL342663  26.239  10.200  13.375  0.1700 -0.2890 -0.2394
 1778BOLB   GL442664  25.996  10.056  13.272  0.0536 -0.1776 -0.0202
 1778BOLB   C1C42665  25.988  10.580  13.200  0.1281 -0.3034 -0.0437
 1778BOLB   C2C42666  25.845  10.910  13.465  0.1601 -0.0726  0.3653
 1778BOLB   C3C42667  25.860  11.234  13.703 -0.0193  0.0832 -0.4782
 1778BOLB   C4C42668  25.999  11.428  14.057 -0.0245 -0.0984  0.1858
 1778BOLB   C1D42669  25.654  10.204  13.100 -0.1649  0.3408  0.1965
 1778BOLB   C2D42670  25.228  10.266  13.273  0.0599 -0.1302  0.0438
 1778BOLB   C3D42671  24.868  10.131  13.554 -0.0215 -0.1534  0.2706
 1778BOLB   C4D42672  24.546  10.039  13.930  0.0322  0.0868 -0.4421
 1779BOLB   NC142673  21.783  23.446  16.682 -0.1463 -0.0194 -0.2422
 1779BOLB   PO142674  21.733  23.443  16.304 -0.2853  0.0365 -0.1873
 1779BOLB   GL142675  22.088  23.525  16.302 -0.0574 -0.2322 -0.0304
 1779BOLB   GL242676  22.250  23.839  16.120  0.3060 -0.0512 -0.3787
 1779BOLB   C1A42677  22.547  23.567  16.454 -0.2102  0.2690  0.1048
 1779BOLB   C2A42678  22.892  23.747  16.512 -0.4138 -0.0099  0.3115
 1779BOLB   C3A42679  23.257  23.976  16.532  0.0536  0.0639 -0.2207
 1779BOLB   C4A42680  23.550  24.196  16.292 -0.1894 -0.1662 -0.1885
 1779BOLB   C1B42681  22.359  23.737  15.713  0.3143  0.0981 -0.1613
 1779BOLB   C2B42682  22.796  23.798  15.588  0.1962  0.0103 -0.1495
 1779BOLB   C3B42683  23.147  23.768  15.592 -0.0370 -0.1173 -0.1264
 1779BOLB   C4B42684  23.504  23.726  15.635 -0.2644 -0.0765 -0.2048
 1779BOLB   NC242685  24.795  25.453  15.626 -0.2325 -0.1803  0.2648
 1779BOLB   PO242686  24.987  25.059  15.415 -0.0388 -0.2218  0.0756
 1779BOLB   GL342687  24.502  25.015  15.336  0.0802  0.2908 -0.0779
 1779BOLB   GL442688  24.592  25.182  14.947 -0.0633  0.2769 -0.1336
 1779BOLB   C1C42689  24.061  25.062  15.180  0.0804 -0.2779 -0.1587
 1779BOLB   C2C42690  23.929  24.681  15.253 -0.1623  0.5078  0.1267
 1779BOLB   C3C42691  23.859  24.549  15.646  0.0576 -0.0721  0.3919
 1779BOLB   C4C42692  23.791  24.446  16.045  0.0561 -0.1827 -0.0223
 1779BOLB   C1D42693  24.381  24.689  14.966 -0.1738  0.0040  0.0594
 1779BOLB   C2D42694  24.083  24.430  14.847  0.0335 -0.1253 -0.1269
 1779BOLB   C3D42695  23.805  23.967  14.994  0.0153 -0.1157 -0.1840
 1779BOLB   C4D42696  23.926  23.640  15.380 -0.0064  0.0317 -0.0434
 1780BOLB   NC142697  24.370  10.855  15.063  0.1388  0.1332  0.2398
 1780BOLB   PO142698  24.007  11.133  14.973 -0.0755 -0.1269  0.0158
 1780BOLB   GL142699  24.308  11.445  14.828 -0.1947  0.3173 -0.0412
 1780BOLB   GL242700  24.207  11.681  14.700  0.4471  0.1630 -0.0756
 1780BOLB   C1A42701  24.714  11.662  14.501  0.1824 -0.0380 -0.0708
 1780BOLB   C2A42702  24.909  11.613  14.162 -0.2570  0.0542  0.3012
 1780BOLB   C3A42703  24.976  11.644  13.764 -0.3377  0.0977 -0.3525
 1780BOLB   C4A42704  24.917  11.624  13.295  0.2293  0.1833 -0.0215
 1780BOLB   C1B42705  24.310  11.474  14.253  0.0523 -0.1384 -0.0050
 1780BOLB   C2B42706  24.529  11.193  14.091 -0.0167  0.0346  0.0516
 1780BOLB   C3B42707  24.736  10.817  14.148 -0.1126 -0.1987 -0.1528
 1780BOLB   C4B42708  24.890  10.374  14.343  0.1339  0.0226 -0.4148
 1780BOLB   NC242709  26.147  11.863  11.440  0.1589  0.1488  0.3352
 1780BOLB   PO242710  26.161  11.338  11.588 -0.0407 -0.3116  0.2726
 1780BOLB   GL342711  25.771  11.325  11.718 -0.1411 -0.1679 -0.2344
 1780BOLB   GL442712  25.759  11.031  11.783 -0.3018 -0.1499 -0.2376
 1780BOLB   C1C42713  25.289  11.162  12.012 -0.1831 -0.0703  0.0581
 1780BOLB   C2C42714  24.909  11.256  12.147  0.3984  0.2647 -0.0259
 1780BOLB   C3C42715  24.665  11.410  12.489  0.1815 -0.0923  0.1727
 1780BOLB   C4C42716  24.609  11.455  12.935  0.0891 -0.3246  0.2171
 1780BOLB   C1D42717  25.737  11.056  12.229 -0.0332 -0.1522 -0.3516
 1780BOLB   C2D42718  25.658  10.885  12.524  0.1051 -0.0941  0.2384
 1780BOLB   C3D42719  25.492  10.782  12.943  0.1637 -0.3929 -0.4111
 1780BOLB   C4D42720  25.408  10.854  13.347 -0.1510 -0.0937 -0.2083
 1781BOLB   NC142721  23.192  19.379  16.015 -0.0856  0.0391 -0.0245
 1781BOLB   PO142722  23.461  19.057  15.802 -0.1177  0.1885  0.0226
 1781BOLB   GL142723  24.003  19.093  15.925 -0.4467  0.0132 -0.3967
 1781BOLB   GL242724  24.077  19.401  16.173 -0.0131 -0.0714  0.0628
 1781BOLB   C1A42725  24.454  19.134  15.734 -0.0680  0.1820  0.0218
 1781BOLB   C2A42726  24.908  19.263  15.838 -0.1563  0.0172 -0.3981
 1781BOLB   C3A42727  25.278  19.533  16.049  0.1688 -0.0180 -0.0410
 1781BOLB   C4A42728  25.581  19.613  16.397 -0.1668 -0.0043  0.2029
 1781BOLB   C1B42729  24.584  19.527  16.058  0.0935 -0.2462  0.0726
 1781BOLB   C2B42730  24.922  19.774  16.310  0.0387 -0.0518 -0.2731
 1781BOLB   C3B42731  25.237  20.081  16.207 -0.0058  0.0080 -0.3246
 1781BOLB   C4B42732  25.736  19.971  16.050  0.1402  0.2088  0.0634
 1781BOLB   NC242733  27.078  21.747  16.301  0.3774  0.1069  0.1371
 1781BOLB   PO242734  27.082  21.521  16.633 -0.1088  0.0935  0.1342
 1781BOLB   GL342735  27.042  21.125  16.422  0.0564  0.0233  0.1533
 1781BOLB   GL442736  26.843  21.364  16.124 -0.1268 -0.0001  0.2828
 1781BOLB   C1C42737  26.998  20.743  16.215 -0.2320  0.0230 -0.0472
 1781BOLB   C2C42738  26.612  20.463  16.331  0.1417  0.2630 -0.0168
 1781BOLB   C3C42739  26.351  20.148  16.563  0.1215 -0.1765 -0.2968
 1781BOLB   C4C42740  25.998  19.723  16.489 -0.2212 -0.1234 -0.1899
 1781BOLB   C1D42741  26.531  21.020  16.179  0.0057  0.0692  0.1481
 1781BOLB   C2D42742  26.347  20.617  15.999 -0.0537 -0.0916 -0.0334
 1781BOLB   C3D42743  26.043  20.462  15.774 -0.0343  0.1667 -0.1935
 1781BOLB   C4D42744  25.689  20.303  15.501 -0.0782  0.3967 -0.2814
 1782BOLB   NC142745  27.377  11.012  14.410  0.1266 -0.1515  0.1881
 1782BOLB   PO142746  27.081  10.801  14.213 -0.0502  0.1873  0.2131
 1782BOLB   GL142747  26.760  10.963  14.367  0.1606  0.0985 -0.1906
 1782BOLB   GL242748  26.883  11.096  14.641  0.4060 -0.2694 -0.3816
 1782BOLB   C1A42749  26.388  10.878  14.498  0.1242 -0.0402  0.1185
 1782BOLB   C2A42750  25.890  11.104  14.473 -0.1334 -0.1141  0.0940
 1782BOLB   C3A42751  25.613  11.025  14.242  0.2166  0.1309 -0.0762
 1782BOLB   C4A42752  25.535  10.848  13.851  0.1980 -0.2988  0.2069
 1782BOLB   C1B42753  26.550  11.316  14.902  0.2176  0.2505  0.1751
 1782BOLB   C2B42754  26.153  11.475  14.854  0.1336 -0.0661 -0.1204
 1782BOLB   C3B42755  26.017  11.766  14.611 -0.1632 -0.1125 -0.4790
 1782BOLB   C4B42756  25.830  11.948  14.317 -0.4312 -0.1007 -0.0051
 1782BOLB   NC242757  25.348   8.670  12.465  0.3442 -0.0483 -0.0035
 1782BOLB   PO242758  25.210   8.590  12.910  0.0303  0.0245 -0.2033
 1782BOLB   GL342759  25.343   8.971  12.986  0.1131 -0.2382 -0.1240
 1782BOLB   GL442760  25.427   9.043  13.374 -0.1959 -0.3038 -0.3340
 1782BOLB   C1C42761  25.503   9.380  13.022  0.0977  0.0326 -0.1135
 1782BOLB   C2C42762  25.653   9.722  13.274  0.1351 -0.1217  0.1343
 1782BOLB   C3C42763  25.608  10.081  13.582 -0.0243  0.2903 -0.1816
 1782BOLB   C4C42764  25.552  10.494  13.633  0.2029 -0.1670  0.3510
 1782BOLB   C1D42765  25.006   9.234  13.223  0.0771  0.3771 -0.1902
 1782BOLB   C2D42766  24.693   9.483  13.402 -0.3229  0.2203 -0.3830
 1782BOLB   C3D42767  24.425   9.764  13.465 -0.1136  0.0216  0.0128
 1782BOLB   C4D42768  24.295   9.577  13.826  0.3433  0.0472  0.2562
 1783BOLB   NC142769  24.017  10.209  15.299 -0.2344  0.2193  0.1090
 1783BOLB   PO142770  23.589  10.420  15.153  0.0064  0.1357 -0.0472
 1783BOLB   GL142771  23.636  10.353  14.825  0.1029 -0.1713 -0.0413
 1783BOLB   GL242772  24.015  10.553  14.828  0.4581 -0.1660 -0.2174
 1783BOLB   C1A42773  23.895  10.295  14.407 -0.1793  0.1029  0.1751
 1783BOLB   C2A42774  24.086  10.548  14.073 -0.1184  0.0640 -0.2460
 1783BOLB   C3A42775  23.934  10.640  13.677 -0.1966  0.0887 -0.2201
 1783BOLB   C4A42776  24.132  10.752  13.259 -0.0503 -0.1032 -0.0784
 1783BOLB   C1B42777  24.373  10.349  14.718 -0.1263 -0.3138 -0.0077
 1783BOLB   C2B42778  24.583  10.026  14.451 -0.0449  0.2468 -0.0825
 1783BOLB   C3B42779  24.638   9.575  14.440 -0.2610  0.1494 -0.2052
 1783BOLB   C4B42780  24.445   9.196  14.231 -0.1566  0.0296  0.3016
 1783BOLB   NC242781  24.359   9.520  10.749 -0.2285  0.0716  0.4560
 1783BOLB   PO242782  24.447   9.913  10.728  0.3747  0.0090 -0.1410
 1783BOLB   GL342783  24.652   9.810  11.187  0.1627 -0.0100 -0.0045
 1783BOLB   GL442784  24.619   9.494  11.308  0.0384 -0.1039  0.2164
 1783BOLB   C1C42785  24.719  10.021  11.608 -0.0503 -0.2900  0.0762
 1783BOLB   C2C42786  24.524  10.289  11.956 -0.3398  0.0980  0.1016
 1783BOLB   C3C42787  24.219  10.584  12.320 -0.2885  0.1686 -0.0288
 1783BOLB   C4C42788  24.135  10.564  12.822  0.2060 -0.2632  0.0851
 1783BOLB   C1D42789  24.330   9.670  11.628 -0.0751  0.1525 -0.0491
 1783BOLB   C2D42790  23.964   9.779  11.694  0.0668  0.1617  0.0430
 1783BOLB   C3D42791  23.554   9.971  11.583 -0.0256  0.0872 -0.0470
 1783BOLB   C4D42792  23.142   9.835  11.539 -0.3860 -0.1161  0.1257
 1784BOLB   NC142793  24.866  13.557  15.916  0.1887  0.0345  0.0337
 1784BOLB   PO142794  24.699  13.809  15.656 -0.0538  0.0026 -0.3034
 1784BOLB   GL142795  25.141  13.757  15.534 -0.1248 -0.0827 -0.0314
 1784BOLB   GL242796  25.409  13.891  15.683 -0.1119  0.1285  0.0075
 1784BOLB   C1A42797  25.337  13.917  15.087 -0.0187  0.1616 -0.0924
 1784BOLB   C2A42798  25.644  14.082  14.743  0.1197  0.3333 -0.1458
 1784BOLB   C3A42799  26.008  14.090  14.684  0.1259 -0.1094  0.3947
 1784BOLB   C4A42800  26.377  14.279  14.669  0.0535  0.0736  0.2358
 1784BOLB   C1B42801  25.699  14.079  15.389 -0.1734  0.0125  0.0161
 1784BOLB   C2B42802  26.065  14.207  15.175 -0.0465 -0.0690 -0.1114
 1784BOLB   C3B42803  26.486  14.131  15.155  0.1210 -0.1864 -0.1946
 1784BOLB   C4B42804  26.996  14.183  15.154  0.0435  0.1234  0.1542
 1784BOLB   NC242805  28.715  14.113  13.716 -0.2723 -0.0710 -0.0230
 1784BOLB   PO242806  28.400  14.593  13.667 -0.0760  0.2297 -0.2453
 1784BOLB   GL342807  28.013  14.454  13.518  0.1404  0.2706 -0.0697
 1784BOLB   GL442808  27.880  14.755  13.633 -0.2470 -0.2573  0.2978
 1784BOLB   C1C42809  27.733  14.196  13.523 -0.0502 -0.0717  0.0201
 1784BOLB   C2C42810  27.388  14.021  13.800 -0.1107 -0.0381  0.2123
 1784BOLB   C3C42811  27.056  14.025  14.152  0.1261 -0.2285 -0.1313
 1784BOLB   C4C42812  26.812  14.195  14.490 -0.0996  0.1770 -0.0499
 1784BOLB   C1D42813  27.467  14.878  13.961 -0.0092  0.0829  0.2590
 1784BOLB   C2D42814  27.136  14.789  14.237  0.0015  0.0240 -0.0148
 1784BOLB   C3D42815  26.978  14.716  14.639  0.1977 -0.0672  0.3188
 1784BOLB   C4D42816  26.741  14.498  14.915  0.0092 -0.0411 -0.1502
 1785BOLB   NC142817  27.637  11.146  15.713  0.1250  0.0198 -0.0885
 1785BOLB   PO142818  27.687  11.527  15.689  0.0083  0.1495  0.0501
 1785BOLB   GL142819  27.514  11.775  15.333 -0.1306 -0.3410 -0.1473
 1785BOLB   GL242820  27.745  12.074  15.210 -0.0502 -0.2685  0.0338
 1785BOLB   C1A42821  27.223  12.084  15.098  0.0693  0.0580  0.3096
 1785BOLB   C2A42822  27.090  12.562  14.921 -0.0452 -0.2764  0.0280
 1785BOLB   C3A42823  26.924  12.997  14.906  0.0483  0.0819 -0.2419
 1785BOLB   C4A42824  26.843  13.344  15.146 -0.0591 -0.4431 -0.1109
 1785BOLB   C1B42825  27.598  12.289  14.821  0.0676 -0.0623  0.1176
 1785BOLB   C2B42826  27.519  12.682  14.683 -0.2635 -0.2838 -0.1675
 1785BOLB   C3B42827  27.396  12.985  14.861  0.0236  0.0535 -0.0791
 1785BOLB   C4B42828  27.293  13.107  15.226  0.3001 -0.2528  0.3366
 1785BOLB   NC242829  28.755  14.601  15.899 -0.0926 -0.4648  0.0813
 1785BOLB   PO242830  29.038  14.353  15.515 -0.0286 -0.0748  0.1851
 1785BOLB   GL342831  28.638  14.103  15.485  0.0792 -0.1573 -0.2400
 1785BOLB   GL442832  28.572  13.751  15.477  0.3432  0.1377 -0.2392
 1785BOLB   C1C42833  28.199  14.275  15.498  0.3986 -0.0723  0.3934
 1785BOLB   C2C42834  27.868  14.106  15.538 -0.0452  0.3510 -0.3176
 1785BOLB   C3C42835  27.445  13.979  15.288  0.0746  0.0065 -0.1412
 1785BOLB   C4C42836  27.206  13.646  15.105 -0.1548  0.1602  0.0099
 1785BOLB   C1D42837  28.281  13.851  15.745  0.1896 -0.1130  0.0543
 1785BOLB   C2D42838  28.117  14.255  16.025 -0.2764 -0.0339  0.1073
 1785BOLB   C3D42839  27.888  14.615  16.090  0.5628  0.1431  0.2512
 1785BOLB   C4D42840  27.944  14.686  15.689 -0.1118 -0.1510 -0.4562
 1786BOLB   NC142841  22.876  17.869  13.804  0.0598  0.0333 -0.0382
 1786BOLB   PO142842  23.161  17.814  14.172  0.0628  0.1497  0.1799
 1786BOLB   GL142843  23.355  18.169  14.014 -0.0182  0.1734  0.2138
 1786BOLB   GL242844  23.505  18.443  14.137 -0.0226 -0.0036 -0.4391
 1786BOLB   C1A42845  23.689  18.167  13.808 -0.0015  0.0385  0.0711
 1786BOLB   C2A42846  24.061  18.339  13.550  0.0256 -0.1158 -0.2334
 1786BOLB   C3A42847  24.439  18.168  13.657  0.0983 -0.2600  0.0825
 1786BOLB   C4A42848  24.810  18.010  13.357  0.3639 -0.1300 -0.1505
 1786BOLB   C1B42849  23.885  18.587  13.991  0.2987 -0.3657  0.1238
 1786BOLB   C2B42850  24.305  18.558  13.966  0.1285  0.0350  0.2747
 1786BOLB   C3B42851  24.635  18.709  14.108  0.2106  0.1238  0.1125
 1786BOLB   C4B42852  24.969  18.696  13.835  0.0017 -0.0464  0.1346
 1786BOLB   NC242853  27.095  17.459  12.111 -0.4611  0.0350  0.0434
 1786BOLB   PO242854  27.103  17.584  12.424 -0.0560  0.0674 -0.0478
 1786BOLB   GL342855  26.890  17.728  12.888  0.2270  0.1633 -0.1457
 1786BOLB   GL442856  26.739  17.499  13.049  0.3831  0.0038 -0.3305
 1786BOLB   C1C42857  26.406  17.994  12.940  0.1519  0.0526 -0.0351
 1786BOLB   C2C42858  25.872  18.067  12.914 -0.1800 -0.0146  0.2878
 1786BOLB   C3C42859  25.400  18.064  13.016 -0.0507  0.2924  0.0989
 1786BOLB   C4C42860  25.029  18.110  13.041  0.0852 -0.2178 -0.3717
 1786BOLB   C1D42861  26.471  17.088  12.940  0.1850  0.2465 -0.2854
 1786BOLB   C2D42862  26.375  16.762  12.684  0.2835 -0.1614  0.0218
 1786BOLB   C3D42863  26.260  16.395  12.249  0.1088 -0.0849 -0.1024
 1786BOLB   C4D42864  25.989  16.183  11.932  0.0905  0.3642 -0.1466
 1787BOLB   NC142865  24.349  18.442  16.972  0.0484 -0.4442  0.0373
 1787BOLB   PO142866  24.712  18.661  16.990  0.1577  0.3357 -0.2333
 1787BOLB   GL142867  25.005  18.743  16.746 -0.2662  0.1143  0.4864
 1787BOLB   GL242868  25.263  18.969  16.822 -0.3841  0.0031  0.0325
 1787BOLB   C1A42869  25.329  18.569  16.442 -0.0403 -0.0938  0.2043
 1787BOLB   C2A42870  25.790  18.572  16.414 -0.1224  0.3071 -0.3384
 1787BOLB   C3A42871  26.228  18.749  16.667  0.1662 -0.1123 -0.1838
 1787BOLB   C4A42872  26.326  18.537  17.074 -0.2289  0.3581 -0.0451
 1787BOLB   C1B42873  25.646  18.814  16.812  0.1050  0.1183 -0.0788
 1787BOLB   C2B42874  25.928  19.000  17.066  0.1096 -0.2880 -0.0838
 1787BOLB   C3B42875  26.373  18.977  17.305 -0.2108  0.2054 -0.0019
 1787BOLB   C4B42876  26.787  19.030  17.441  0.0133  0.0110  0.1170
 1787BOLB   NC242877  28.344  19.579  16.226  0.2221  0.1136 -0.0612
 1787BOLB   PO242878  28.604  19.211  16.177  0.3381 -0.0329  0.0578
 1787BOLB   GL342879  28.240  19.102  16.432 -0.0673 -0.0395  0.2042
 1787BOLB   GL442880  28.006  18.885  16.319  0.0954 -0.1045 -0.2000
 1787BOLB   C1C42881  27.861  19.228  16.597 -0.1887  0.0837 -0.1343
 1787BOLB   C2C42882  27.381  19.089  16.801 -0.1124  0.1983 -0.1010
 1787BOLB   C3C42883  27.133  18.763  17.146 -0.0304 -0.3387  0.2509
 1787BOLB   C4C42884  26.741  18.584  17.183 -0.3145  0.0750 -0.1979
 1787BOLB   C1D42885  27.966  18.709  16.622 -0.0550 -0.0587  0.0383
 1787BOLB   C2D42886  27.750  18.764  16.952  0.1756  0.0262 -0.1014
 1787BOLB   C3D42887  27.573  18.636  17.395  0.3655 -0.2502  0.1445
 1787BOLB   C4D42888  27.597  18.417  17.736 -0.0092  0.0713  0.0181
 1788BOLB   NC142889  24.820  15.706  16.849 -0.1090  0.0450 -0.2405
 1788BOLB   PO142890  24.531  15.636  16.543 -0.0960  0.1691  0.0013
 1788BOLB   GL142891  24.977  15.591  16.325  0.1684 -0.6515 -0.1292
 1788BOLB   GL242892  25.117  15.525  16.470  0.1989 -0.3746  0.1311
 1788BOLB   C1A42893  25.374  15.720  16.110 -0.3676 -0.0932 -0.3169
 1788BOLB   C2A42894  25.463  16.067  15.998 -0.1956  0.4897 -0.1210
 1788BOLB   C3A42895  25.828  16.337  15.879  0.0040 -0.2627  0.1416
 1788BOLB   C4A42896  26.151  16.662  15.713 -0.1593  0.0308  0.0431
 1788BOLB   C1B42897  25.580  15.415  16.449 -0.3233 -0.0346 -0.2369
 1788BOLB   C2B42898  25.970  15.544  16.361 -0.0618 -0.2030 -0.2716
 1788BOLB   C3B42899  26.404  15.686  16.188  0.0609 -0.1513  0.0024
 1788BOLB   C4B42900  26.760  15.468  15.958 -0.0146 -0.0264  0.2627
 1788BOLB   NC242901  28.358  17.119  14.098 -0.3691  0.3579 -0.1058
 1788BOLB   PO242902  28.205  17.222  14.461 -0.1908  0.1888 -0.3149
 1788BOLB   GL342903  27.816  17.080  14.551 -0.0660 -0.2833 -0.0997
 1788BOLB   GL442904  27.778  17.308  14.896 -0.0146 -0.1131  0.2225
 1788BOLB   C1C42905  27.361  17.057  14.640 -0.0389 -0.1742 -0.1775
 1788BOLB   C2C42906  27.021  17.046  14.895 -0.2326 -0.0088  0.1250
 1788BOLB   C3C42907  26.894  16.969  15.399 -0.3368 -0.1408  0.3126
 1788BOLB   C4C42908  26.516  16.819  15.635 -0.2291 -0.1037 -0.0201
 1788BOLB   C1D42909  27.482  17.530  14.736  0.1719 -0.3299 -0.1980
 1788BOLB   C2D42910  27.083  17.538  14.711  0.1431 -0.2699 -0.0842
 1788BOLB   C3D42911  26.671  17.493  14.933 -0.1324  0.1126 -0.1208
 1788BOLB   C4D42912  26.479  17.193  15.162 -0.0498 -0.0483 -0.2927
 1789BOLB   NC142913  23.075  20.338  16.211  0.0748 -0.1782  0.2936
 1789BOLB   PO142914  23.429  20.118  16.349 -0.1507  0.0703  0.0687
 1789BOLB   GL142915  23.801  20.377  16.172 -0.0449 -0.2050  0.0484
 1789BOLB   GL242916  23.884  20.330  16.386 -0.2671  0.1399 -0.3543
 1789BOLB   C1A42917  24.030  20.788  16.057 -0.0571  0.0971  0.1787
 1789BOLB   C2A42918  24.213  21.010  15.785  0.1006 -0.4622  0.1123
 1789BOLB   C3A42919  24.620  21.167  15.850 -0.1630 -0.0339 -0.1127
 1789BOLB   C4A42920  24.680  21.387  15.437  0.1310  0.2335  0.3648
 1789BOLB   C1B42921  24.275  20.504  16.419 -0.0074  0.1014 -0.0409
 1789BOLB   C2B42922  24.570  20.634  16.247  0.0591  0.2319 -0.2651
 1789BOLB   C3B42923  24.940  20.663  15.836  0.1027 -0.1471  0.0136
 1789BOLB   C4B42924  24.871  20.869  15.430 -0.0254 -0.0127  0.3370
 1789BOLB   NC242925  26.574  23.171  13.915 -0.1983 -0.1588  0.1592
 1789BOLB   PO242926  26.258  22.875  14.050  0.0328  0.3160 -0.1382
 1789BOLB   GL342927  25.865  22.573  14.108 -0.0567 -0.2456 -0.0740
 1789BOLB   GL442928  25.618  22.712  14.086 -0.1911 -0.2774  0.2172
 1789BOLB   C1C42929  25.600  22.304  14.385 -0.1523 -0.2968  0.0786
 1789BOLB   C2C42930  25.265  22.015  14.586  0.4711  0.0723 -0.0774
 1789BOLB   C3C42931  24.959  21.627  14.794 -0.1780 -0.1498  0.2378
 1789BOLB   C4C42932  24.668  21.521  15.088 -0.1564  0.2286  0.1661
 1789BOLB   C1D42933  25.317  22.399  14.003  0.2288 -0.4458 -0.2406
 1789BOLB   C2D42934  25.171  22.035  13.899 -0.1362  0.1360  0.0678
 1789BOLB   C3D42935  24.851  21.599  13.847 -0.5583  0.2662 -0.1451
 1789BOLB   C4D42936  24.467  21.344  13.920  0.0987 -0.3738 -0.3074
 1790BOLB   NC142937  25.617   7.819  16.895 -0.1287  0.1745  0.0267
 1790BOLB   PO142938  25.472   8.295  17.102  0.0427  0.1615  0.1804
 1790BOLB   GL142939  25.199   8.197  16.847  0.1819  0.1002 -0.0894
 1790BOLB   GL242940  25.286   8.012  16.541  0.1696  0.0092 -0.1725
 1790BOLB   C1A42941  24.713   8.365  16.787  0.1910 -0.0350 -0.0095
 1790BOLB   C2A42942  24.326   8.220  16.743 -0.6679  0.0223  0.1283
 1790BOLB   C3A42943  23.959   8.036  16.583 -0.0911 -0.1734  0.2304
 1790BOLB   C4A42944  23.934   7.625  16.189 -0.1555 -0.0130 -0.1351
 1790BOLB   C1B42945  25.017   8.284  16.334 -0.2196 -0.3206  0.2430
 1790BOLB   C2B42946  24.639   8.160  16.336 -0.2512  0.0063 -0.0560
 1790BOLB   C3B42947  24.341   7.855  16.193 -0.1716 -0.0439  0.1159
 1790BOLB   C4B42948  23.979   7.924  15.828 -0.4142 -0.1994 -0.0956
 1790BOLB   NC242949  25.142   6.872  14.500 -0.0974 -0.1694 -0.3593
 1790BOLB   PO242950  24.792   6.691  14.511 -0.0538 -0.0107 -0.0074
 1790BOLB   GL342951  24.461   6.747  14.664 -0.1232 -0.1159 -0.3038
 1790BOLB   GL442952  24.272   6.507  14.788 -0.0104  0.0712 -0.0667
 1790BOLB   C1C42953  24.224   6.996  14.940  0.0258 -0.2258 -0.2684
 1790BOLB   C2C42954  23.988   7.353  14.998  0.2227 -0.2423 -0.2860
 1790BOLB   C3C42955  23.841   7.483  15.422 -0.1148 -0.0929 -0.1087
 1790BOLB   C4C42956  23.768   7.472  15.814  0.1506  0.1155 -0.0175
 1790BOLB   C1D42957  23.837   6.683  14.852 -0.0448 -0.1630  0.2085
 1790BOLB   C2D42958  23.714   7.035  14.729 -0.0874  0.0590  0.0204
 1790BOLB   C3D42959  23.420   7.328  14.673 -0.5132 -0.1844  0.0042
 1790BOLB   C4D42960  23.044   7.620  14.707 -0.2517 -0.4037  0.0630
 1791BOLB   NC142961  24.188  17.719  15.712  0.1180  0.1326  0.0691
 1791BOLB   PO142962  24.505  17.961  15.880  0.2384  0.0332 -0.4144
 1791BOLB   GL142963  24.879  17.739  15.675  0.3400  0.2397  0.1515
 1791BOLB   GL242964  25.071  17.843  15.396 -0.2758 -0.2470 -0.1430
 1791BOLB   C1A42965  25.169  17.406  15.392  0.2293  0.0155  0.1031
 1791BOLB   C2A42966  25.458  17.447  15.024  0.2072 -0.1130  0.1965
 1791BOLB   C3A42967  25.743  17.748  14.740  0.1268 -0.1029 -0.3274
 1791BOLB   C4A42968  25.825  18.158  14.497 -0.0896  0.1020  0.1789
 1791BOLB   C1B42969  25.401  17.796  15.633 -0.0332  0.0244  0.2623
 1791BOLB   C2B42970  25.813  17.772  15.771  0.0828 -0.0288 -0.1497
 1791BOLB   C3B42971  26.178  17.648  15.504 -0.0016  0.1738  0.3027
 1791BOLB   C4B42972  26.463  17.912  15.340 -0.2035  0.1276  0.1013
 1791BOLB   NC242973  27.302  19.782  13.524 -0.1494  0.0650 -0.3097
 1791BOLB   PO242974  27.232  19.427  13.142 -0.2589  0.2842 -0.0314
 1791BOLB   GL342975  26.967  19.319  13.411 -0.0116 -0.3573 -0.2099
 1791BOLB   GL442976  26.827  18.959  13.498 -0.2640  0.1670 -0.0150
 1791BOLB   C1C42977  26.676  19.396  13.667 -0.0688  0.0484 -0.1589
 1791BOLB   C2C42978  26.437  19.281  13.978  0.1743 -0.2272  0.1922
 1791BOLB   C3C42979  26.063  18.915  14.093 -0.1718  0.0615  0.1352
 1791BOLB   C4C42980  25.767  18.618  14.365 -0.0870 -0.0077 -0.0817
 1791BOLB   C1D42981  26.818  18.985  13.992  0.2327  0.2791  0.2179
 1791BOLB   C2D42982  26.964  18.603  14.054  0.0748  0.2445 -0.1813
 1791BOLB   C3D42983  26.778  18.269  14.297  0.1780  0.4641  0.0809
 1791BOLB   C4D42984  26.338  18.134  14.360 -0.3169 -0.0030  0.0498
 1792BOLB   NC142985  23.341   9.829  16.661  0.1500 -0.3407  0.1040
 1792BOLB   PO142986  23.357   9.673  16.324 -0.0971  0.0179  0.0713
 1792BOLB   GL142987  23.306   9.456  15.994  0.2143 -0.1429  0.0657
 1792BOLB   GL242988  23.584   9.237  16.083  0.1149 -0.0928  0.0389
 1792BOLB   C1A42989  23.154   9.105  15.673 -0.0168 -0.1355 -0.2244
 1792BOLB   C2A42990  23.307   8.689  15.715 -0.3276  0.0145 -0.0551
 1792BOLB   C3A42991  23.183   8.352  16.066  0.2008 -0.1192 -0.2866
 1792BOLB   C4A42992  23.038   8.006  15.883 -0.1388 -0.1272 -0.0792
 1792BOLB   C1B42993  23.361   8.983  16.193  0.0405 -0.1089 -0.0607
 1792BOLB   C2B42994  22.984   8.831  16.108 -0.0347 -0.0998 -0.0391
 1792BOLB   C3B42995  22.700   8.447  15.962  0.2835 -0.1353  0.0205
 1792BOLB   C4B42996  22.534   8.140  16.216 -0.1302  0.0173 -0.2394
 1792BOLB   NC242997  23.606   5.625  16.059 -0.0517  0.0055  0.3157
 1792BOLB   PO242998  24.048   5.409  15.977  0.0771  0.0833 -0.0399
 1792BOLB   GL342999  23.812   5.871  15.681  0.2213 -0.1717  0.1990
 1792BOLB   GL443000  23.957   6.146  15.585  0.1507  0.3160 -0.0432
 1792BOLB   C1C43001  23.465   6.181  15.660  0.0379  0.0483  0.2219
 1792BOLB   C2C43002  23.387   6.643  15.628  0.1222 -0.1623 -0.1846
 1792BOLB   C3C43003  23.259   7.142  15.697  0.2606  0.1924  0.3365
 1792BOLB   C4C43004  23.028   7.509  15.861  0.2287 -0.1734 -0.1758
 1792BOLB   C1D43005  24.079   6.510  15.794 -0.2003 -0.3278 -0.0712
 1792BOLB   C2D43006  23.922   7.043  15.714 -0.0503 -0.1820 -0.0351
 1792BOLB   C3D43007  24.211   7.449  15.715 -0.3574 -0.2950 -0.0531
 1792BOLB   C4D43008  24.613   7.502  15.830  0.0916 -0.0391  0.4079
 1793BOLB   NC143009  24.485  13.362  15.648 -0.4496 -0.1695  0.0215
 1793BOLB   PO143010  24.695  13.048  15.755 -0.1878 -0.0163 -0.0541
 1793BOLB   GL143011  25.045  13.274  15.571  0.2076 -0.1676 -0.0930
 1793BOLB   GL243012  25.080  12.897  15.473  0.1309  0.3436 -0.0380
 1793BOLB   C1A43013  25.180  13.282  15.094 -0.1638 -0.0957  0.1023
 1793BOLB   C2A43014  25.374  13.523  14.761 -0.3332 -0.1035 -0.3358
 1793BOLB   C3A43015  25.411  13.830  14.406 -0.0486  0.5186  0.2078
 1793BOLB   C4A43016  25.750  14.085  14.162 -0.1224  0.3861 -0.5075
 1793BOLB   C1B43017  25.386  12.817  15.090  0.1028  0.1764 -0.1960
 1793BOLB   C2B43018  25.780  12.665  14.994 -0.3962  0.2582 -0.1599
 1793BOLB   C3B43019  26.137  12.434  14.944  0.2354  0.0871 -0.0218
 1793BOLB   C4B43020  26.314  12.035  14.979 -0.1159  0.1698  0.1723
 1793BOLB   NC243021  27.852  15.005  12.833 -0.2744  0.1268  0.0731
 1793BOLB   PO243022  27.781  14.705  13.117  0.1899  0.1698  0.1981
 1793BOLB   GL343023  27.448  14.647  13.402  0.0839  0.0710 -0.0523
 1793BOLB   GL443024  27.330  14.288  13.231  0.0562  0.0737  0.0474
 1793BOLB   C1C43025  27.058  14.574  13.728  0.0821  0.0261  0.3733
 1793BOLB   C2C43026  26.758  14.496  14.054  0.0152 -0.1451 -0.0014
 1793BOLB   C3C43027  26.510  14.326  14.043 -0.0676  0.2062  0.2245
 1793BOLB   C4C43028  26.202  14.116  14.196 -0.0701  0.3620  0.0592
 1793BOLB   C1D43029  26.921  14.479  13.199 -0.0989  0.1894 -0.3249
 1793BOLB   C2D43030  26.582  14.693  13.532  0.0000  0.0901  0.2243
 1793BOLB   C3D43031  26.187  14.745  13.777 -0.1503  0.2296 -0.3123
 1793BOLB   C4D43032  25.893  14.533  13.977 -0.2309 -0.0316  0.1556
 1794BOLB   NC143033  21.783  23.271  15.889  0.4954  0.0733  0.0590
 1794BOLB   PO143034  22.032  23.003  16.104  0.0225 -0.0391 -0.2410
 1794BOLB   GL143035  22.399  23.076  16.166  0.2406  0.1256  0.2829
 1794BOLB   GL243036  22.567  22.834  16.419 -0.1784 -0.0679  0.1017
 1794BOLB   C1A43037  22.605  23.376  15.998  0.1553 -0.0673  0.5278
 1794BOLB   C2A43038  22.724  23.857  16.045 -0.4619 -0.0666 -0.0562
 1794BOLB   C3A43039  22.987  24.098  15.979  0.3442  0.0280  0.0733
 1794BOLB   C4A43040  23.391  24.188  15.796 -0.0562 -0.1858  0.1744
 1794BOLB   C1B43041  22.895  23.170  16.421 -0.1718  0.1711  0.3424
 1794BOLB   C2B43042  23.343  23.358  16.374  0.4145 -0.3024  0.0513
 1794BOLB   C3B43043  23.708  23.592  16.391 -0.1014  0.1891  0.1739
 1794BOLB   C4B43044  24.165  23.516  16.264  0.1826 -0.2182 -0.1500
 1794BOLB   NC243045  23.969  25.505  13.769 -0.1160 -0.0375  0.1471
 1794BOLB   PO243046  24.376  25.331  13.927 -0.2136  0.0038  0.1155
 1794BOLB   GL343047  24.378  25.285  14.440  0.1896  0.1447  0.1585
 1794BOLB   GL443048  24.485  24.982  14.539 -0.1976 -0.1013  0.0068
 1794BOLB   C1C43049  24.004  25.067  14.693  0.2302  0.2714  0.1614
 1794BOLB   C2C43050  23.652  24.918  14.779  0.2125 -0.2990 -0.3917
 1794BOLB   C3C43051  23.576  24.491  14.967  0.1386  0.0012  0.0644
 1794BOLB   C4C43052  23.603  24.235  15.385 -0.0397  0.1150 -0.1046
 1794BOLB   C1D43053  24.252  24.666  14.430  0.0035 -0.1185  0.2006
 1794BOLB   C2D43054  23.776  24.581  14.324 -0.0747 -0.0681 -0.1355
 1794BOLB   C3D43055  23.348  24.626  14.449  0.0851 -0.1119 -0.0055
 1794BOLB   C4D43056  23.136  24.344  14.551 -0.1423  0.1537 -0.0096
 1795BOLB   NC143057  24.447  19.359  17.243 -0.0104  0.0218 -0.1151
 1795BOLB   PO143058  24.135  19.668  17.077  0.0717  0.0514  0.1617
 1795BOLB   GL143059  24.361  19.965  16.861 -0.2746 -0.1535 -0.1187
 1795BOLB   GL243060  24.596  20.114  16.895 -0.3156  0.2187  0.1122
 1795BOLB   C1A43061  24.342  20.049  16.464  0.1482  0.1063  0.1643
 1795BOLB   C2A43062  24.581  20.099  16.227 -0.0258  0.3906  0.4694
 1795BOLB   C3A43063  24.852  20.120  15.909  0.0485  0.2951  0.0491
 1795BOLB   C4A43064  25.232  20.199  15.732  0.0585 -0.0820 -0.2551
 1795BOLB   C1B43065  24.917  20.196  16.601 -0.1904  0.0772 -0.0152
 1795BOLB   C2B43066  25.082  20.553  16.291  0.0098  0.2352 -0.1139
 1795BOLB   C3B43067  25.327  20.838  16.167  0.2956  0.0578  0.4906
 1795BOLB   C4B43068  25.349  20.811  15.643  0.0558 -0.0975  0.0042
 1795BOLB   NC243069  27.092  22.226  15.871 -0.2384 -0.0163 -0.4616
 1795BOLB   PO243070  26.862  22.271  16.279  0.1639 -0.0004  0.0904
 1795BOLB   GL343071  26.597  21.908  16.383 -0.3652  0.0405  0.1564
 1795BOLB   GL443072  26.230  22.108  16.300  0.1283 -0.1994 -0.0676
 1795BOLB   C1C43073  26.381  21.454  16.407 -0.3129 -0.2961 -0.1801
 1795BOLB   C2C43074  26.069  21.106  16.326  0.4176 -0.0455  0.1602
 1795BOLB   C3C43075  25.819  20.875  16.123 -0.1086  0.4899  0.3304
 1795BOLB   C4C43076  25.592  20.477  15.956  0.2085  0.1981 -0.0799
 1795BOLB   C1D43077  25.959  21.795  16.527  0.0521 -0.0635  0.1340
 1795BOLB   C2D43078  25.798  21.459  16.501 -0.1537 -0.0370 -0.1915
 1795BOLB   C3D43079  25.565  21.174  16.795 -0.2376  0.0124  0.0964
 1795BOLB   C4D43080  25.508  20.887  17.226 -0.2722 -0.0671 -0.0402
 1796BOLB   NC143081  26.280  12.437  17.464 -0.0735 -0.0055  0.1856
 1796BOLB   PO143082  26.445  12.262  17.109 -0.0422  0.2113 -0.2685
 1796BOLB   GL143083  26.544  12.578  16.748 -0.0921  0.0131  0.1271
 1796BOLB   GL243084  26.900  12.538  16.783 -0.1972 -0.0048  0.0195
 1796BOLB   C1A43085  26.635  12.936  16.535 -0.1698 -0.1563  0.0600
 1796BOLB   C2A43086  26.602  13.300  16.469  0.3145  0.1051 -0.2233
 1796BOLB   C3A43087  26.698  13.721  16.358 -0.1261 -0.1530  0.0460
 1796BOLB   C4A43088  26.880  13.908  16.003  0.1973 -0.0953 -0.3479
 1796BOLB   C1B43089  27.134  12.712  16.511 -0.2905  0.3616  0.1516
 1796BOLB   C2B43090  27.208  13.061  16.208  0.0357 -0.1846  0.0325
 1796BOLB   C3B43091  27.047  13.479  16.077  0.0732  0.2944 -0.0311
 1796BOLB   C4B43092  27.311  13.739  15.722  0.0910  0.1076  0.1337
 1796BOLB   NC243093  29.071  14.886  14.205 -0.1245  0.1174 -0.6415
 1796BOLB   PO243094  28.650  14.792  14.388  0.1351  0.4449  0.0420
 1796BOLB   GL343095  28.254  14.527  14.584 -0.4248  0.0485 -0.5425
 1796BOLB   GL443096  28.323  14.151  14.553  0.1722 -0.0225  0.1255
 1796BOLB   C1C43097  28.037  14.483  14.989 -0.0909 -0.2070 -0.1680
 1796BOLB   C2C43098  27.579  14.642  15.112  0.0175 -0.0480  0.0334
 1796BOLB   C3C43099  27.400  14.490  15.456 -0.1975 -0.3628 -0.2178
 1796BOLB   C4C43100  27.111  14.220  15.665  0.4831  0.0897  0.0797
 1796BOLB   C1D43101  28.079  13.798  14.487  0.1175 -0.1815 -0.0889
 1796BOLB   C2D43102  27.798  13.434  14.382  0.0397 -0.1078 -0.3425
 1796BOLB   C3D43103  27.487  13.095  14.371 -0.1672  0.0296 -0.1698
 1796BOLB   C4D43104  27.117  12.916  14.416  0.1292  0.3446 -0.3711
 1797BOLB   NC143105  24.537  16.991  15.299  0.0680  0.1471 -0.2257
 1797BOLB   PO143106  24.232  16.759  15.524  0.2352 -0.2965  0.1545
 1797BOLB   GL143107  24.674  16.719  15.690  0.3206  0.3185 -0.0487
 1797BOLB   GL243108  24.658  16.572  16.077 -0.3892  0.3547 -0.0863
 1797BOLB   C1A43109  25.091  16.901  15.717  0.2010  0.1862 -0.3127
 1797BOLB   C2A43110  25.449  16.881  15.430  0.1823  0.0378 -0.1984
 1797BOLB   C3A43111  25.800  16.581  15.306  0.1821 -0.1071  0.4085
 1797BOLB   C4A43112  26.101  16.327  15.386  0.1876  0.0246  0.0415
 1797BOLB   C1B43113  25.150  16.477  16.021 -0.0456 -0.1654 -0.2281
 1797BOLB   C2B43114  25.382  16.495  15.737  0.0460 -0.0351 -0.5268
 1797BOLB   C3B43115  25.452  16.256  15.398 -0.0700  0.1347 -0.2122
 1797BOLB   C4B43116  25.731  16.125  15.133 -0.0578  0.5559  0.2198
 1797BOLB   NC243117  27.709  17.153  13.626 -0.1940  0.1535 -0.2242
 1797BOLB   PO243118  27.941  16.914  13.829  0.2486 -0.0652  0.1310
 1797BOLB   GL343119  27.664  16.821  14.041  0.1383 -0.0506 -0.0471
 1797BOLB   GL443120  27.439  17.007  14.092 -0.2688 -0.2154 -0.0509
 1797BOLB   C1C43121  27.565  16.656  14.456 -0.3216  0.0160 -0.0048
 1797BOLB   C2C43122  27.274  16.570  14.798 -0.1052 -0.2417 -0.2438
 1797BOLB   C3C43123  26.889  16.574  15.018  0.2058  0.1605 -0.0009
 1797BOLB   C4C43124  26.470  16.377  15.264  0.0441 -0.1863  0.0856
 1797BOLB   C1D43125  27.048  16.844  14.319  0.1780  0.0180  0.3392
 1797BOLB   C2D43126  26.810  16.664  14.484  0.0874  0.0613 -0.1218
 1797BOLB   C3D43127  26.367  16.478  14.340  0.0384  0.0520 -0.3669
 1797BOLB   C4D43128  25.978  16.404  14.314  0.0315 -0.1949  0.0931
 1798BOLB   NC143129  25.917   8.628  15.371  0.1090 -0.2480  0.0904
 1798BOLB   PO143130  25.908   8.364  15.813 -0.2496 -0.0291 -0.3973
 1798BOLB   GL143131  25.467   8.290  15.915  0.2036 -0.1784  0.0151
 1798BOLB   GL243132  25.159   8.224  15.790 -0.0951  0.2133  0.1167
 1798BOLB   C1A43133  25.177   8.671  15.940 -0.0554  0.1653  0.1309
 1798BOLB   C2A43134  24.894   8.737  15.603  0.0166  0.1230 -0.0937
 1798BOLB   C3A43135  24.722   8.465  15.200 -0.1924  0.1278  0.1675
 1798BOLB   C4A43136  24.472   8.041  15.105  0.1118 -0.0358 -0.0340
 1798BOLB   C1B43137  25.200   8.340  15.320 -0.2639  0.2320 -0.2635
 1798BOLB   C2B43138  25.129   8.657  14.990  0.0943  0.2038 -0.1072
 1798BOLB   C3B43139  24.798   8.839  14.837 -0.1110 -0.1155  0.4364
 1798BOLB   C4B43140  24.493   9.054  14.722 -0.1060  0.0781  0.0416
 1798BOLB   NC243141  25.933   7.444  16.107  0.1379  0.2355 -0.3855
 1798BOLB   PO243142  25.740   7.651  16.441  0.2215 -0.1216 -0.1751
 1798BOLB   GL343143  25.315   7.519  16.376 -0.1684  0.3202  0.0005
 1798BOLB   GL443144  25.161   7.528  16.743 -0.0560 -0.2290  0.2124
 1798BOLB   C1C43145  25.077   7.334  16.079  0.2479  0.0875  0.3294
 1798BOLB   C2C43146  24.909   7.136  15.676 -0.0736 -0.0983 -0.4343
 1798BOLB   C3C43147  24.603   7.221  15.305 -0.0443 -0.1072 -0.2242
 1798BOLB   C4C43148  24.369   7.558  15.205 -0.0341 -0.2112 -0.3405
 1798BOLB   C1D43149  24.836   7.671  16.429 -0.0555 -0.2369  0.1940
 1798BOLB   C2D43150  24.951   7.838  16.055  0.0149  0.0512 -0.0969
 1798BOLB   C3D43151  25.078   7.740  15.671  0.2393 -0.0272 -0.0609
 1798BOLB   C4D43152  24.947   7.902  15.227  0.1273  0.0022 -0.0134
 1799BOLB   NC143153  24.361  11.735  15.236  0.2972  0.1324  0.0844
 1799BOLB   PO143154  24.057  12.117  15.097 -0.0643 -0.1886 -0.0670
 1799BOLB   GL143155  24.112  12.212  14.637  0.0953  0.2224  0.2860
 1799BOLB   GL243156  23.890  12.096  14.546 -0.2708  0.2996 -0.1412
 1799BOLB   C1A43157  24.348  12.005  14.307  0.0667 -0.0382 -0.4751
 1799BOLB   C2A43158  24.535  11.867  13.923 -0.2778 -0.1431  0.0865
 1799BOLB   C3A43159  24.428  11.512  13.683 -0.0480  0.0649  0.1700
 1799BOLB   C4A43160  24.535  11.202  13.376  0.1500  0.1859 -0.0713
 1799BOLB   C1B43161  23.973  12.087  14.035  0.0173  0.0512  0.0432
 1799BOLB   C2B43162  24.244  12.122  13.642 -0.3738  0.0183  0.0381
 1799BOLB   C3B43163  24.587  11.968  13.319 -0.0244 -0.2788 -0.1170
 1799BOLB   C4B43164  24.756  11.951  12.919  0.1780  0.2087 -0.1176
 1799BOLB   NC243165  26.396  10.490  11.776  0.0828  0.2442 -0.2539
 1799BOLB   PO243166  26.361  10.398  12.222  0.2282  0.2288  0.2264
 1799BOLB   GL343167  25.895  10.581  12.073 -0.1691  0.2133 -0.3609
 1799BOLB   GL443168  25.651  10.241  11.917  0.3800  0.5201 -0.2101
 1799BOLB   C1C43169  25.443  10.661  12.123 -0.2320  0.0474  0.0244
 1799BOLB   C2C43170  25.114  10.832  12.357 -0.1451  0.4588  0.2405
 1799BOLB   C3C43171  24.767  10.898  12.690 -0.0041 -0.3277 -0.4435
 1799BOLB   C4C43172  24.491  10.865  12.967  0.1075  0.0182 -0.1970
 1799BOLB   C1D43173  25.741  10.203  12.409 -0.1445  0.1150  0.0118
 1799BOLB   C2D43174  25.881  10.503  12.682 -0.2153  0.1041  0.3939
 1799BOLB   C3D43175  25.969  11.019  12.876  0.0736  0.0346  0.0565
 1799BOLB   C4D43176  25.584  11.333  12.908  0.0015  0.0420 -0.0103
 1800BOLB   NC143177  25.762   8.546  13.874  0.2720 -0.0387  0.2372
 1800BOLB   PO143178  26.015   8.819  14.163  0.4769  0.0223 -0.3130
 1800BOLB   GL143179  25.707   9.017  14.374 -0.0817  0.0908 -0.4001
 1800BOLB   GL243180  25.824   9.349  14.395 -0.2126 -0.0711 -0.2259
 1800BOLB   C1A43181  25.278   9.003  14.583  0.0284 -0.0782 -0.0385
 1800BOLB   C2A43182  24.909   9.108  14.382 -0.1699  0.2207 -0.1918
 1800BOLB   C3A43183  24.676   8.748  14.303 -0.0772  0.1253  0.0871
 1800BOLB   C4A43184  24.475   8.605  14.020  0.0254  0.2065  0.0649
 1800BOLB   C1B43185  25.735   9.832  14.328  0.0578  0.1012  0.0912
 1800BOLB   C2B43186  25.930  10.201  14.569  0.0455 -0.2880  0.2054
 1800BOLB   C3B43187  26.084  10.571  14.744  0.1920 -0.1910 -0.0088
 1800BOLB   C4B43188  26.054  10.933  14.938 -0.0033 -0.2715 -0.1641
 1800BOLB   NC243189  25.012   7.318  13.177  0.1642 -0.2970 -0.2427
 1800BOLB   PO243190  24.988   7.599  12.845 -0.2983  0.2248  0.2650
 1800BOLB   GL343191  24.579   7.849  12.971 -0.4643 -0.0182  0.0052
 1800BOLB   GL443192  24.701   7.696  13.332 -0.2549  0.1032  0.3001
 1800BOLB   C1C43193  24.259   8.229  12.823 -0.3155 -0.1906 -0.0184
 1800BOLB   C2C43194  23.992   8.322  13.217 -0.0125 -0.0449  0.1377
 1800BOLB   C3C43195  24.125   8.681  13.437 -0.0462 -0.2065  0.1256
 1800BOLB   C4C43196  24.411   8.657  13.697 -0.0423  0.2842 -0.0451
 1800BOLB   C1D43197  24.695   7.811  13.806 -0.0085 -0.1631 -0.0044
 1800BOLB   C2D43198  24.766   7.828  14.201  0.5452  0.1794 -0.0104
 1800BOLB   C3D43199  24.630   7.874  14.621 -0.1019 -0.1904 -0.1903
 1800BOLB   C4D43200  24.806   7.557  14.921 -0.3727  0.0792 -0.0885
 1801BOLB   NC143201  23.885  13.107  15.162 -0.2322  0.0240 -0.0511
 1801BOLB   PO143202  24.265  13.156  15.113  0.2440  0.3347 -0.0234
 1801BOLB   GL143203  24.570  13.033  14.822  0.2082  0.1012 -0.2525
 1801BOLB   GL243204  24.484  12.676  14.754 -0.0064  0.2344 -0.3180
 1801BOLB   C1A43205  24.984  12.985  14.677 -0.1015 -0.0492 -0.0847
 1801BOLB   C2A43206  25.314  13.178  14.450 -0.0074  0.0070 -0.5465
 1801BOLB   C3A43207  25.303  13.332  13.983  0.0941  0.0875  0.1813
 1801BOLB   C4A43208  25.294  13.440  13.498  0.0714 -0.3085 -0.0588
 1801BOLB   C1B43209  24.680  12.616  14.436  0.0087 -0.1432 -0.1265
 1801BOLB   C2B43210  25.113  12.632  14.246  0.1199  0.0831 -0.0052
 1801BOLB   C3B43211  25.278  12.486  13.779 -0.0964 -0.0318 -0.2527
 1801BOLB   C4B43212  25.435  12.400  13.428  0.0592 -0.2243  0.0824
 1801BOLB   NC243213  26.216  12.889  10.871  0.1103  0.0744 -0.0985
 1801BOLB   PO243214  26.262  12.846  11.276  0.1261 -0.1897  0.3759
 1801BOLB   GL343215  25.934  12.867  11.636 -0.3092 -0.0413 -0.1711
 1801BOLB   GL443216  25.681  13.055  11.567 -0.0864  0.4059 -0.0167
 1801BOLB   C1C43217  25.802  12.985  12.057  0.1774  0.0654  0.0659
 1801BOLB   C2C43218  25.427  13.011  12.351  0.1261  0.0837  0.5151
 1801BOLB   C3C43219  25.092  13.140  12.743  0.0399 -0.2475  0.2349
 1801BOLB   C4C43220  25.206  13.228  13.149 -0.0215  0.2481  0.2268
 1801BOLB   C1D43221  25.449  13.305  11.770 -0.1487  0.0652  0.1415
 1801BOLB   C2D43222  25.506  13.614  12.047  0.0320  0.2299  0.0873
 1801BOLB   C3D43223  25.414  13.651  12.501 -0.0650  0.0032  0.2375
 1801BOLB   C4D43224  25.347  13.581  12.882 -0.1041 -0.1576 -0.0553
 1802BOLB   NC143225  23.436  12.815  15.117 -0.2499 -0.1228  0.0201
 1802BOLB   PO143226  23.227  12.688  14.699  0.0265 -0.4753  0.0363
 1802BOLB   GL143227  23.566  12.572  14.446  0.0732 -0.3040 -0.1697
 1802BOLB   GL243228  23.571  12.586  14.153 -0.1116  0.2807 -0.1239
 1802BOLB   C1A43229  24.038  12.509  14.268  0.0326 -0.5107  0.2782
 1802BOLB   C2A43230  24.384  12.439  14.024  0.0935  0.0333  0.1461
 1802BOLB   C3A43231  24.762  12.294  13.649 -0.2547 -0.1965 -0.1673
 1802BOLB   C4A43232  25.067  12.064  13.495  0.0155 -0.0509  0.1082
 1802BOLB   C1B43233  23.759  12.557  13.800  0.1414 -0.1869  0.1239
 1802BOLB   C2B43234  24.136  12.657  13.537  0.4237 -0.3313 -0.0037
 1802BOLB   C3B43235  24.511  12.691  13.532  0.1702  0.2602 -0.0638
 1802BOLB   C4B43236  24.771  12.403  13.157  0.0222 -0.1430 -0.1220
 1802BOLB   NC243237  26.889  12.074  12.289  0.3479  0.2293 -0.2349
 1802BOLB   PO243238  26.748  11.819  12.044 -0.1323 -0.0824  0.3503
 1802BOLB   GL343239  26.350  11.552  12.224 -0.1742  0.0824  0.1206
 1802BOLB   GL443240  26.167  11.756  11.915 -0.0612  0.0441 -0.0405
 1802BOLB   C1C43241  26.083  11.351  12.489 -0.0973 -0.0212 -0.1834
 1802BOLB   C2C43242  25.985  11.598  12.806  0.0837  0.3652 -0.2990
 1802BOLB   C3C43243  25.789  11.657  13.175  0.2213  0.0277  0.1759
 1802BOLB   C4C43244  25.469  11.937  13.359 -0.0221  0.2520 -0.2031
 1802BOLB   C1D43245  25.873  11.930  12.233  0.1998 -0.0389 -0.2051
 1802BOLB   C2D43246  25.679  11.969  12.626 -0.1767 -0.0141 -0.0442
 1802BOLB   C3D43247  25.718  12.249  12.988  0.1329 -0.0831  0.0476
 1802BOLB   C4D43248  26.010  12.553  13.023  0.1423 -0.4837  0.0773
 1803BOLB   NC143249  23.056  20.066  17.764 -0.1009 -0.0973  0.3211
 1803BOLB   PO143250  23.486  20.191  17.699 -0.1027 -0.0662  0.0663
 1803BOLB   GL143251  23.878  20.310  17.494 -0.0710 -0.1103 -0.0474
 1803BOLB   GL243252  24.142  20.094  17.407 -0.1369  0.2954 -0.1248
 1803BOLB   C1A43253  24.173  20.639  17.428  0.1655  0.1892  0.3785
 1803BOLB   C2A43254  24.465  20.829  17.382  0.0080 -0.0593 -0.0944
 1803BOLB   C3A43255  24.918  21.036  17.473 -0.1583  0.1997 -0.0940
 1803BOLB   C4A43256  25.207  21.162  17.558 -0.1847 -0.0935  0.1507
 1803BOLB   C1B43257  24.487  20.300  17.296  0.1618  0.1418  0.3508
 1803BOLB   C2B43258  24.902  20.614  17.137  0.0907  0.0312  0.3495
 1803BOLB   C3B43259  25.322  20.456  16.803  0.1656  0.0756  0.1608
 1803BOLB   C4B43260  25.627  20.669  16.539  0.1067 -0.2208  0.1564
 1803BOLB   NC243261  26.657  22.875  16.453  0.1257 -0.0088  0.2731
 1803BOLB   PO243262  26.901  23.008  16.760  0.0084 -0.0150  0.1588
 1803BOLB   GL343263  26.421  22.816  16.904  0.0744 -0.0680  0.2112
 1803BOLB   GL443264  26.137  22.870  16.649  0.0938 -0.1042  0.0847
 1803BOLB   C1C43265  26.191  22.466  16.957 -0.0366  0.1354  0.1012
 1803BOLB   C2C43266  25.974  22.064  17.154  0.3977 -0.2654  0.0996
 1803BOLB   C3C43267  25.754  21.749  17.069 -0.0479  0.0879 -0.1870
 1803BOLB   C4C43268  25.569  21.375  17.289 -0.1450 -0.0888  0.1739
 1803BOLB   C1D43269  25.941  22.512  16.567 -0.1628  0.0710  0.0343
 1803BOLB   C2D43270  25.788  22.177  16.728  0.0403 -0.2248 -0.4186
 1803BOLB   C3D43271  25.494  21.944  16.583  0.1507  0.2421 -0.4778
 1803BOLB   C4D43272  25.094  21.994  16.581  0.2601 -0.1072 -0.4171
 1804BOLB   NC143273  22.019  22.655  16.487  0.0306 -0.4047  0.0284
 1804BOLB   PO143274  22.281  22.578  16.831  0.3423 -0.1184  0.1804
 1804BOLB   GL143275  22.716  22.619  16.868  0.0560  0.1895  0.2247
 1804BOLB   GL243276  22.586  22.987  16.910  0.1107 -0.0554  0.1802
 1804BOLB   C1A43277  23.047  22.893  16.998  0.2196  0.0790  0.1696
 1804BOLB   C2A43278  23.509  23.150  16.837 -0.1851 -0.1862 -0.0217
 1804BOLB   C3A43279  23.846  23.184  16.669  0.1010 -0.0107  0.4975
 1804BOLB   C4A43280  24.214  23.177  16.631  0.5326  0.0470  0.0910
 1804BOLB   C1B43281  22.739  23.343  16.866 -0.0426 -0.4088 -0.0367
 1804BOLB   C2B43282  23.138  23.509  17.010  0.0881 -0.2748 -0.0926
 1804BOLB   C3B43283  23.617  23.634  16.941 -0.0783  0.0404 -0.0979
 1804BOLB   C4B43284  23.993  23.651  16.758  0.0442  0.1375 -0.2772
 1804BOLB   NC243285  25.721  24.083  16.560  0.2858  0.0033 -0.0570
 1804BOLB   PO243286  25.871  24.237  16.135  0.1875 -0.0696  0.2879
 1804BOLB   GL343287  25.487  24.263  16.163 -0.3092 -0.0172  0.1302
 1804BOLB   GL443288  25.318  24.230  15.926 -0.0937 -0.1341  0.3098
 1804BOLB   C1C43289  25.230  23.803  16.235 -0.2156  0.1861  0.0175
 1804BOLB   C2C43290  24.992  23.762  16.661 -0.1335  0.0986 -0.0860
 1804BOLB   C3C43291  24.571  23.588  16.821  0.3015 -0.2832 -0.0476
 1804BOLB   C4C43292  24.551  23.165  16.614 -0.2621 -0.2053  0.0341
 1804BOLB   C1D43293  24.923  24.270  16.180 -0.0692 -0.2504 -0.1288
 1804BOLB   C2D43294  24.532  23.960  16.207  0.5577  0.0548  0.0031
 1804BOLB   C3D43295  24.708  23.574  16.230 -0.0193 -0.4001  0.0185
 1804BOLB   C4D43296  25.084  23.251  16.249  0.2180  0.2456 -0.2932
 1805BOLB   NC143297  23.008  19.790  15.067 -0.1793 -0.2941 -0.2040
 1805BOLB   PO143298  22.680  19.873  14.749  0.1711  0.0693  0.0404
 1805BOLB   GL143299  23.003  20.165  14.513 -0.0899  0.2000  0.1075
 1805BOLB   GL243300  23.128  20.072  14.315  0.0789  0.2878 -0.4639
 1805BOLB   C1A43301  23.328  20.511  14.513 -0.1009 -0.2973  0.0347
 1805BOLB   C2A43302  23.577  20.635  14.348  0.1558 -0.1620 -0.2107
 1805BOLB   C3A43303  23.993  20.487  14.172  0.0742 -0.2870 -0.0142
 1805BOLB   C4A43304  24.342  20.394  13.965 -0.2806 -0.1117  0.4413
 1805BOLB   C1B43305  23.209  20.155  13.922  0.0530 -0.1650  0.2904
 1805BOLB   C2B43306  23.529  20.418  13.901 -0.0194  0.0854 -0.0074
 1805BOLB   C3B43307  23.996  20.561  13.653  0.2010  0.0222  0.0906
 1805BOLB   C4B43308  24.091  20.303  13.359 -0.3786  0.0169  0.0790
 1805BOLB   NC243309  26.278  20.379  12.440  0.1098 -0.0824  0.0057
 1805BOLB   PO243310  25.933  20.260  12.686  0.0351 -0.0338  0.2076
 1805BOLB   GL343311  25.733  20.691  12.984 -0.1514 -0.1060 -0.2521
 1805BOLB   GL443312  25.602  20.495  13.032 -0.1564  0.3307 -0.1024
 1805BOLB   C1C43313  25.456  21.018  13.093 -0.0653  0.0042  0.2723
 1805BOLB   C2C43314  24.966  20.999  13.237  0.0738  0.0203 -0.0135
 1805BOLB   C3C43315  24.639  20.884  13.417  0.2894  0.1178  0.0109
 1805BOLB   C4C43316  24.502  20.603  13.579 -0.0166 -0.2157  0.0297
 1805BOLB   C1D43317  25.394  20.722  13.451 -0.0576 -0.1178  0.3165
 1805BOLB   C2D43318  25.022  20.664  13.559 -0.0318  0.1968 -0.1588
 1805BOLB   C3D43319  24.848  20.459  13.920  0.1552  0.2450  0.1868
 1805BOLB   C4D43320  24.781  20.126  14.190  0.0722  0.2418  0.0444
 1806BOLB   NC143321  25.152  14.192  16.355 -0.0053  0.1973  0.3992
 1806BOLB   PO143322  25.190  13.798  16.237  0.1997 -0.0480 -0.1599
 1806BOLB   GL143323  25.589  13.958  16.200 -0.1866  0.1143 -0.1279
 1806BOLB   GL243324  25.677  14.226  16.443 -0.1341 -0.0632 -0.2376
 1806BOLB   C1A43325  25.849  14.131  15.887 -0.0514 -0.0548 -0.0884
 1806BOLB   C2A43326  26.035  14.410  15.640 -0.1614 -0.0066  0.0660
 1806BOLB   C3A43327  26.373  14.621  15.379  0.2359 -0.2458 -0.3001
 1806BOLB   C4A43328  26.544  14.913  15.063 -0.1917  0.5038 -0.0118
 1806BOLB   C1B43329  26.082  14.415  16.225  0.0261  0.0413  0.1179
 1806BOLB   C2B43330  26.367  14.692  15.889 -0.0817 -0.0337  0.0692
 1806BOLB   C3B43331  26.649  14.937  15.702 -0.2153  0.2434  0.0213
 1806BOLB   C4B43332  26.684  15.224  15.450 -0.2214 -0.1019  0.1812
 1806BOLB   NC243333  28.229  14.847  13.286 -0.0772  0.3908 -0.0033
 1806BOLB   PO243334  28.350  15.204  13.533 -0.2676  0.1506  0.0974
 1806BOLB   GL343335  27.962  15.305  13.713  0.3206 -0.0653 -0.0357
 1806BOLB   GL443336  27.554  15.423  13.683 -0.1990  0.1465 -0.1975
 1806BOLB   C1C43337  27.790  15.218  14.091  0.1701  0.0771 -0.0259
 1806BOLB   C2C43338  27.514  15.192  14.364  0.3230  0.0032 -0.4460
 1806BOLB   C3C43339  27.174  15.324  14.597  0.1042 -0.2687 -0.1600
 1806BOLB   C4C43340  26.839  15.187  14.892 -0.0062  0.1904  0.1008
 1806BOLB   C1D43341  27.215  15.348  13.935 -0.0376 -0.1096 -0.3189
 1806BOLB   C2D43342  26.890  15.259  14.214  0.4265  0.1581 -0.2317
 1806BOLB   C3D43343  26.502  15.205  14.441 -0.3054  0.0464  0.1957
 1806BOLB   C4D43344  26.114  15.373  14.622  0.1590 -0.0375 -0.1207
 1807BOLB   NC143345  24.370  12.612  15.619  0.0922 -0.1309  0.0458
 1807BOLB   PO143346  24.723  12.427  15.924 -0.4574  0.1804  0.3803
 1807BOLB   GL143347  24.889  12.403  15.485 -0.1507  0.2226 -0.0237
 1807BOLB   GL243348  25.161  12.217  15.589  0.1741 -0.1569 -0.1840
 1807BOLB   C1A43349  24.930  12.601  15.024 -0.1413  0.0965 -0.1866
 1807BOLB   C2A43350  25.206  12.449  14.744  0.2058 -0.3123 -0.1230
 1807BOLB   C3A43351  25.520  12.768  14.580 -0.4725  0.1101  0.3710
 1807BOLB   C4A43352  25.791  13.149  14.362 -0.0609  0.2743  0.1121
 1807BOLB   C1B43353  25.400  12.313  15.162  0.0091 -0.1540  0.0210
 1807BOLB   C2B43354  25.746  12.177  14.785  0.0245 -0.0762 -0.2073
 1807BOLB   C3B43355  25.872  12.398  14.522 -0.5605 -0.2126  0.1234
 1807BOLB   C4B43356  25.998  12.770  14.581 -0.2755 -0.0931 -0.0547
 1807BOLB   NC243357  27.558  13.686  12.282  0.1734  0.3245 -0.0763
 1807BOLB   PO243358  27.298  13.524  12.577  0.0344  0.1511  0.0358
 1807BOLB   GL343359  26.939  13.645  12.926 -0.2093  0.0483 -0.0133
 1807BOLB   GL443360  26.869  13.992  12.819 -0.0980  0.1265  0.1518
 1807BOLB   C1C43361  26.736  13.574  13.297  0.1040 -0.1820  0.1909
 1807BOLB   C2C43362  26.378  13.725  13.613  0.1087  0.0273  0.2349
 1807BOLB   C3C43363  25.982  13.816  13.705 -0.2088  0.0100 -0.3874
 1807BOLB   C4C43364  25.749  13.581  13.991  0.0076 -0.2098 -0.1523
 1807BOLB   C1D43365  26.642  14.323  12.654  0.1884  0.2572  0.4254
 1807BOLB   C2D43366  26.398  14.666  12.910 -0.0649  0.0633 -0.2508
 1807BOLB   C3D43367  26.127  14.606  13.259 -0.0635 -0.2223 -0.0767
 1807BOLB   C4D43368  25.770  14.659  13.397  0.0038  0.3005  0.1815
 1808BOLB   NC143369  23.854  19.862  16.039  0.1317  0.1976  0.0042
 1808BOLB   PO143370  23.723  19.471  15.814  0.1315  0.0027 -0.0855
 1808BOLB   GL143371  24.151  19.471  15.635  0.1666 -0.1474 -0.0780
 1808BOLB   GL243372  23.965  19.490  15.349 -0.0152 -0.0712 -0.2102
 1808BOLB   C1A43373  24.687  19.722  15.590 -0.1730  0.1605 -0.1060
 1808BOLB   C2A43374  25.092  19.710  15.516 -0.0472 -0.0913 -0.3694
 1808BOLB   C3A43375  25.539  19.739  15.647  0.1014 -0.2783 -0.4251
 1808BOLB   C4A43376  25.806  19.441  16.006  0.0481 -0.2651 -0.6166
 1808BOLB   C1B43377  24.436  19.573  15.095 -0.2663  0.3094 -0.1485
 1808BOLB   C2B43378  24.862  19.707  15.089 -0.0719  0.0326  0.3455
 1808BOLB   C3B43379  25.308  19.767  15.061 -0.0009 -0.3099 -0.2153
 1808BOLB   C4B43380  25.739  19.911  15.088 -0.0705 -0.1385 -0.5531
 1808BOLB   NC243381  28.087  20.448  16.521 -0.3699  0.1493  0.3747
 1808BOLB   PO243382  27.849  20.789  16.593 -0.0316 -0.0128  0.1898
 1808BOLB   GL343383  27.536  20.420  16.482  0.2439  0.3655 -0.0486
 1808BOLB   GL443384  27.690  20.084  16.566 -0.1021  0.1981 -0.3711
 1808BOLB   C1C43385  27.173  20.348  16.442 -0.0058 -0.2697 -0.0580
 1808BOLB   C2C43386  26.846  20.006  16.381 -0.0542 -0.1683 -0.1056
 1808BOLB   C3C43387  26.529  19.748  16.261 -0.1989 -0.0346  0.4619
 1808BOLB   C4C43388  26.232  19.570  16.046 -0.2596 -0.0860  0.3031
 1808BOLB   C1D43389  27.397  19.843  16.351 -0.3176  0.0418  0.1472
 1808BOLB   C2D43390  27.192  19.666  15.983 -0.1099 -0.2276 -0.1229
 1808BOLB   C3D43391  27.068  19.215  15.834 -0.0759 -0.1543  0.2548
 1808BOLB   C4D43392  27.096  18.853  15.772 -0.1226 -0.1181 -0.0134
 1809BOLB   NC143393  23.871  13.896  14.839 -0.2475  0.1079 -0.0154
 1809BOLB   PO143394  23.966  13.512  14.872  0.0802  0.1307 -0.0546
 1809BOLB   GL143395  24.401  13.515  14.622  0.0736  0.1045 -0.2519
 1809BOLB   GL243396  24.177  13.810  14.506 -0.0124  0.0080 -0.1937
 1809BOLB   C1A43397  24.680  13.213  14.323 -0.2129 -0.0048  0.0135
 1809BOLB   C2A43398  24.820  13.008  14.148 -0.1578 -0.2026 -0.0848
 1809BOLB   C3A43399  24.942  12.840  13.813  0.0067  0.0077 -0.0891
 1809BOLB   C4A43400  25.002  12.781  13.315  0.1145  0.2769  0.0109
 1809BOLB   C1B43401  24.511  14.014  14.673 -0.1999  0.0929 -0.0617
 1809BOLB   C2B43402  24.917  14.098  14.608 -0.1529 -0.0921 -0.3069
 1809BOLB   C3B43403  25.245  14.262  14.379 -0.2289 -0.1231  0.0448
 1809BOLB   C4B43404  25.703  14.461  14.439  0.0213  0.0215 -0.1041
 1809BOLB   NC243405  27.117  12.987  12.342  0.1267  0.0230 -0.2557
 1809BOLB   PO243406  27.143  12.541  12.340 -0.0703  0.0816  0.0782
 1809BOLB   GL343407  26.729  12.580  12.470  0.1785  0.1547 -0.3291
 1809BOLB   GL443408  26.586  12.509  12.201 -0.3344  0.0824 -0.1782
 1809BOLB   C1C43409  26.466  12.685  12.830  0.0112 -0.0472 -0.1367
 1809BOLB   C2C43410  26.157  12.999  12.896  0.1723  0.0397 -0.2617
 1809BOLB   C3C43411  25.804  13.022  13.116 -0.3257 -0.0388 -0.2331
 1809BOLB   C4C43412  25.444  12.787  13.073 -0.2349  0.0345  0.1360
 1809BOLB   C1D43413  26.078  12.557  12.055  0.0610  0.1071 -0.0444
 1809BOLB   C2D43414  25.730  12.485  12.245 -0.1452  0.1764 -0.1506
 1809BOLB   C3D43415  25.323  12.286  12.255  0.0274  0.1781 -0.2292
 1809BOLB   C4D43416  24.938  12.218  12.445  0.3904 -0.3552  0.1792
 1810BOLB   NC143417  23.824  16.068  14.405  0.1410 -0.1423 -0.2394
 1810BOLB   PO143418  23.602  16.350  14.377  0.0107 -0.1481 -0.3433
 1810BOLB   GL143419  23.956  16.542  14.096 -0.1131 -0.0758  0.0269
 1810BOLB   GL243420  24.076  16.588  14.328 -0.2995 -0.0088 -0.2607
 1810BOLB   C1A43421  24.075  16.755  13.717  0.2731  0.2479  0.0924
 1810BOLB   C2A43422  24.292  16.891  13.404 -0.0576 -0.0106  0.3576
 1810BOLB   C3A43423  24.721  17.066  13.309 -0.0484 -0.0207 -0.2049
 1810BOLB   C4A43424  25.071  17.201  13.183  0.0523 -0.1532  0.1718
 1810BOLB   C1B43425  24.538  16.514  14.379  0.0443  0.2601 -0.3208
 1810BOLB   C2B43426  24.935  16.644  14.121  0.1257  0.3375  0.2926
 1810BOLB   C3B43427  25.374  16.528  13.928 -0.0631  0.1909 -0.0253
 1810BOLB   C4B43428  25.796  16.524  13.820 -0.0376 -0.0180 -0.0610
 1810BOLB   NC243429  27.844  17.995  13.205  0.0320  0.1473 -0.1740
 1810BOLB   PO243430  27.314  17.830  13.058  0.0837 -0.2234  0.0107
 1810BOLB   GL343431  27.149  17.534  13.298  0.1533  0.0637 -0.0860
 1810BOLB   GL443432  27.178  17.324  13.563  0.2580 -0.0203 -0.0456
 1810BOLB   C1C43433  26.706  17.386  13.492 -0.3357 -0.0957 -0.0711
 1810BOLB   C2C43434  26.234  17.267  13.422 -0.2231 -0.0326  0.2213
 1810BOLB   C3C43435  25.925  17.125  13.207  0.0588  0.5735  0.0826
 1810BOLB   C4C43436  25.502  17.146  13.115 -0.2010 -0.0603 -0.1504
 1810BOLB   C1D43437  26.897  17.027  13.853 -0.1187  0.2558 -0.3916
 1810BOLB   C2D43438  26.493  16.880  14.065 -0.1080  0.3467 -0.3394
 1810BOLB   C3D43439  26.229  16.855  13.809  0.1018 -0.1580 -0.1811
 1810BOLB   C4D43440  25.848  17.044  13.697 -0.1939 -0.0935  0.1631
 1811BOLB   NC143441  23.599  18.013  14.989 -0.0251 -0.0162 -0.1096
 1811BOLB   PO143442  23.863  17.650  14.951  0.6758  0.4812  0.0721
 1811BOLB   GL143443  24.198  17.890  14.787  0.1064  0.0372 -0.0695
 1811BOLB   GL243444  24.397  17.692  14.818 -0.2766  0.0615 -0.0655
 1811BOLB   C1A43445  24.495  18.063  14.522 -0.0551  0.0414 -0.1207
 1811BOLB   C2A43446  24.624  18.199  14.139  0.0358 -0.1466  0.0352
 1811BOLB   C3A43447  24.981  18.208  13.814 -0.0453 -0.0825 -0.3712
 1811BOLB   C4A43448  25.217  18.220  13.533 -0.0650  0.0037 -0.1847
 1811BOLB   C1B43449  24.759  17.872  14.960 -0.0779  0.0747 -0.1452
 1811BOLB   C2B43450  25.231  17.909  14.971 -0.1168  0.0659  0.3069
 1811BOLB   C3B43451  25.558  18.220  15.005  0.1744 -0.2189 -0.1539
 1811BOLB   C4B43452  25.410  18.472  14.717  0.1190 -0.2488 -0.1730
 1811BOLB   NC243453  27.313  18.938  13.320 -0.0658 -0.1600  0.1376
 1811BOLB   PO243454  27.530  18.474  13.309  0.0261 -0.0895 -0.0067
 1811BOLB   GL343455  27.135  18.350  13.152 -0.1244 -0.2113 -0.0500
 1811BOLB   GL443456  27.037  18.458  13.466  0.0276  0.1126  0.1957
 1811BOLB   C1C43457  26.787  18.033  13.292 -0.2444 -0.1373  0.0526
 1811BOLB   C2C43458  26.447  17.838  13.433 -0.0798  0.1056  0.1185
 1811BOLB   C3C43459  26.126  18.076  13.368  0.0662 -0.2590  0.1811
 1811BOLB   C4C43460  25.672  18.021  13.449 -0.1873  0.1264  0.1122
 1811BOLB   C1D43461  26.900  18.201  13.791  0.0957 -0.0676  0.1323
 1811BOLB   C2D43462  26.483  17.988  13.876  0.0193 -0.3205  0.0761
 1811BOLB   C3D43463  26.054  17.816  13.757  0.1199 -0.0630 -0.0983
 1811BOLB   C4D43464  25.893  17.722  14.117  0.0085 -0.2306  0.1950
 1812BOLB   NC143465  23.182  18.149  14.546  0.0011  0.1119 -0.1351
 1812BOLB   PO143466  23.391  17.687  14.635  0.1745  0.1626  0.0718
 1812BOLB   GL143467  23.628  17.592  14.160  0.2633  0.0433  0.0367
 1812BOLB   GL243468  23.644  17.243  14.098 -0.2140 -0.1105 -0.0978
 1812BOLB   C1A43469  23.838  17.744  13.750 -0.0427  0.0812  0.2478
 1812BOLB   C2A43470  24.029  17.815  13.422 -0.1293  0.0638 -0.1998
 1812BOLB   C3A43471  24.333  17.903  13.256 -0.4190  0.0886  0.2877
 1812BOLB   C4A43472  24.472  18.210  13.039 -0.1366 -0.0679 -0.2183
 1812BOLB   C1B43473  24.014  17.227  13.913 -0.2573 -0.0230 -0.2075
 1812BOLB   C2B43474  24.495  17.277  13.795 -0.2800 -0.3732  0.0312
 1812BOLB   C3B43475  24.999  17.329  13.731  0.2129  0.0972 -0.1500
 1812BOLB   C4B43476  25.354  17.164  13.642 -0.2146  0.1752 -0.0140
 1812BOLB   NC243477  26.080  18.042  11.134 -0.1537 -0.0596 -0.1426
 1812BOLB   PO243478  25.956  18.183  11.558  0.0035  0.0143 -0.3067
 1812BOLB   GL343479  25.839  17.898  11.889 -0.1007 -0.1667 -0.1912
 1812BOLB   GL443480  26.073  17.575  11.881 -0.2902  0.0853  0.0058
 1812BOLB   C1C43481  25.393  17.911  12.034 -0.0051  0.6849  0.0997
 1812BOLB   C2C43482  24.919  17.963  12.151  0.1064  0.0054  0.2051
 1812BOLB   C3C43483  24.679  18.238  12.382  0.1729 -0.3731  0.1475
 1812BOLB   C4C43484  24.535  18.324  12.698 -0.3569  0.0133  0.0883
 1812BOLB   C1D43485  25.581  17.425  11.693 -0.1318 -0.2633 -0.2310
 1812BOLB   C2D43486  25.145  17.547  11.773  0.2284 -0.4772 -0.3104
 1812BOLB   C3D43487  24.781  17.438  11.994 -0.0607  0.0825 -0.0490
 1812BOLB   C4D43488  24.670  17.557  12.373  0.0609 -0.0853  0.2895
 1813BOLB   NC143489  21.692  21.939  16.220 -0.2106  0.2291  0.5000
 1813BOLB   PO143490  21.999  22.325  16.126  0.0299 -0.1307  0.1439
 1813BOLB   GL143491  22.417  22.436  16.276  0.1868  0.1317  0.2944
 1813BOLB   GL243492  22.539  22.131  16.365  0.3522  0.1271  0.2663
 1813BOLB   C1A43493  22.856  22.483  16.137  0.1585  0.2004 -0.3269
 1813BOLB   C2A43494  23.151  22.592  15.944  0.0077  0.0075 -0.0418
 1813BOLB   C3A43495  23.529  22.812  15.797  0.2029  0.1795  0.0848
 1813BOLB   C4A43496  23.859  23.042  15.646  0.0075  0.2470  0.0363
 1813BOLB   C1B43497  22.930  22.244  16.549  0.3163 -0.1696 -0.0240
 1813BOLB   C2B43498  23.236  22.586  16.679  0.0349 -0.0967 -0.0551
 1813BOLB   C3B43499  23.496  22.883  16.347  0.1730  0.1517  0.2758
 1813BOLB   C4B43500  23.931  23.029  16.179  0.0249 -0.0878 -0.0417
 1813BOLB   NC243501  25.459  24.980  15.678  0.1425  0.1560  0.1607
 1813BOLB   PO243502  25.172  25.248  15.991 -0.0557 -0.1454 -0.0029
 1813BOLB   GL343503  24.718  25.017  15.897 -0.0200 -0.2166  0.0121
 1813BOLB   GL443504  24.687  24.701  16.119 -0.1570 -0.1781  0.0725
 1813BOLB   C1C43505  24.406  24.650  15.671 -0.0780  0.2285 -0.2388
 1813BOLB   C2C43506  24.321  24.285  15.761 -0.1050 -0.1015 -0.4663
 1813BOLB   C3C43507  24.312  23.742  15.790  0.3182  0.2385  0.0619
 1813BOLB   C4C43508  24.205  23.371  15.712 -0.2395  0.2015 -0.3373
 1813BOLB   C1D43509  24.337  24.425  16.272  0.2358  0.1263 -0.3054
 1813BOLB   C2D43510  23.950  24.456  16.481  0.1651  0.1007 -0.1973
 1813BOLB   C3D43511  23.735  24.112  16.740  0.2501  0.3466 -0.1298
 1813BOLB   C4D43512  23.913  24.021  17.142 -0.0789  0.4934  0.1740
 1814BOLB   NC143513  22.984  16.144  13.529 -0.4352  0.0375 -0.0041
 1814BOLB   PO143514  23.272  15.911  13.409  0.1350 -0.1323 -0.0385
 1814BOLB   GL143515  23.600  15.830  13.248 -0.3223  0.1493  0.3105
 1814BOLB   GL243516  23.719  15.441  13.230 -0.1172  0.3308 -0.3746
 1814BOLB   C1A43517  23.822  15.962  12.929 -0.0773 -0.1963 -0.1540
 1814BOLB   C2A43518  24.242  16.168  12.875  0.1800  0.3950  0.1983
 1814BOLB   C3A43519  24.609  16.142  12.847 -0.0733  0.2506  0.1295
 1814BOLB   C4A43520  24.871  16.056  12.498 -0.0748  0.0106 -0.1749
 1814BOLB   C1B43521  23.850  15.466  12.784  0.0465 -0.0722  0.1872
 1814BOLB   C2B43522  24.196  15.445  12.439 -0.2494  0.4318  0.1588
 1814BOLB   C3B43523  24.587  15.271  12.200  0.3714  0.2401 -0.1499
 1814BOLB   C4B43524  25.026  15.080  12.046 -0.1101 -0.2350 -0.0447
 1814BOLB   NC243525  26.722  15.118  11.301 -0.1749 -0.0746 -0.0344
 1814BOLB   PO243526  26.758  15.434  11.595  0.1856 -0.0662 -0.0315
 1814BOLB   GL343527  26.544  15.307  11.923 -0.0326  0.0846  0.0956
 1814BOLB   GL443528  26.525  15.126  12.076 -0.0577  0.2817 -0.2867
 1814BOLB   C1C43529  26.101  15.497  12.086 -0.1192  0.2319  0.1013
 1814BOLB   C2C43530  25.800  15.362  12.254 -0.1612 -0.2636  0.0659
 1814BOLB   C3C43531  25.381  15.382  12.221  0.3583 -0.0271 -0.0213
 1814BOLB   C4C43532  25.032  15.672  12.265 -0.0249 -0.0458 -0.0195
 1814BOLB   C1D43533  26.042  15.012  11.997  0.0946 -0.0602  0.1540
 1814BOLB   C2D43534  25.629  14.970  12.043 -0.1961 -0.0222  0.3659
 1814BOLB   C3D43535  25.354  14.634  11.997 -0.3104  0.0438  0.0613
 1814BOLB   C4D43536  24.965  14.517  12.147 -0.2894 -0.0503  0.0303
 1815BOLB   NC143537  25.514   9.076  16.452 -0.0884 -0.0500 -0.1741
 1815BOLB   PO143538  25.877   9.228  16.293 -0.2131 -0.1225  0.0726
 1815BOLB   GL143539  25.441   9.238  15.914 -0.1964  0.2051 -0.1072
 1815BOLB   GL243540  25.551   9.254  15.556  0.0828  0.2385  0.2717
 1815BOLB   C1A43541  25.078   9.160  15.666 -0.3315  0.0927  0.0046
 1815BOLB   C2A43542  24.846   9.570  15.469 -0.0849  0.1008 -0.2496
 1815BOLB   C3A43543  24.792   9.533  14.995 -0.0175 -0.0926  0.1197
 1815BOLB   C4A43544  25.101   9.452  14.695  0.1637 -0.2377 -0.1877
 1815BOLB   C1B43545  25.498   9.609  15.331  0.2429 -0.1167  0.0514
 1815BOLB   C2B43546  25.157   9.866  15.217 -0.2243  0.0333 -0.1419
 1815BOLB   C3B43547  25.026  10.241  15.328  0.0064 -0.0628  0.1321
 1815BOLB   C4B43548  24.984  10.630  15.118 -0.1415 -0.0903 -0.3904
 1815BOLB   NC243549  25.352   7.786  14.041 -0.1611 -0.1373  0.1337
 1815BOLB   PO243550  25.548   7.778  14.443 -0.1848 -0.0071 -0.1769
 1815BOLB   GL343551  25.234   8.121  14.548 -0.2075 -0.0240  0.0722
 1815BOLB   GL443552  25.081   8.173  14.779 -0.2325  0.0561  0.2169
 1815BOLB   C1C43553  25.069   8.484  14.417  0.1179 -0.0020  0.4324
 1815BOLB   C2C43554  25.221   8.755  14.160 -0.1179 -0.0279  0.2213
 1815BOLB   C3C43555  25.369   9.121  13.921 -0.1297  0.0006 -0.0307
 1815BOLB   C4C43556  25.325   9.448  14.286  0.0595 -0.0970 -0.1861
 1815BOLB   C1D43557  24.662   8.403  14.713 -0.4962  0.1367  0.2356
 1815BOLB   C2D43558  24.330   8.644  14.606  0.1005  0.3992  0.1175
 1815BOLB   C3D43559  24.095   8.849  14.312 -0.1262 -0.0343 -0.0141
 1815BOLB   C4D43560  24.139   9.019  13.899 -0.4224 -0.0494 -0.0245
 1816BOLB   NC143561  25.713  13.886  18.087  0.2603 -0.0347 -0.3293
 1816BOLB   PO143562  25.721  13.847  17.664 -0.0755  0.0174 -0.2051
 1816BOLB   GL143563  25.890  14.264  17.689  0.2399  0.0329 -0.1056
 1816BOLB   GL243564  25.698  14.437  17.605 -0.0623 -0.1402  0.1020
 1816BOLB   C1A43565  26.099  14.738  17.735 -0.0342  0.1641 -0.0942
 1816BOLB   C2A43566  26.370  14.964  17.641 -0.1240  0.1739 -0.0581
 1816BOLB   C3A43567  26.659  15.250  17.436 -0.1279 -0.1798 -0.1319
 1816BOLB   C4A43568  26.880  15.550  17.195  0.3177 -0.4459  0.0154
 1816BOLB   C1B43569  25.857  14.608  17.272 -0.0385 -0.4450 -0.3217
 1816BOLB   C2B43570  26.287  14.835  17.202 -0.3017  0.2927  0.0898
 1816BOLB   C3B43571  26.568  15.016  16.978  0.3281  0.5133 -0.2111
 1816BOLB   C4B43572  26.863  15.136  16.709 -0.1316 -0.0251  0.1277
 1816BOLB   NC243573  28.689  16.490  15.967 -0.0990 -0.0993 -0.0198
 1816BOLB   PO243574  29.005  16.167  16.150 -0.1587  0.0863 -0.2131
 1816BOLB   GL343575  28.817  16.065  16.518 -0.2649  0.0057 -0.0893
 1816BOLB   GL443576  28.787  16.096  16.829 -0.1033  0.1967  0.3941
 1816BOLB   C1C43577  28.384  15.885  16.594 -0.3858 -0.1231  0.2305
 1816BOLB   C2C43578  27.983  15.924  16.458  0.2616 -0.0519  0.1218
 1816BOLB   C3C43579  27.477  15.716  16.595 -0.1682  0.1473  0.2140
 1816BOLB   C4C43580  27.146  15.519  16.815  0.1730 -0.1619 -0.0758
 1816BOLB   C1D43581  28.767  15.627  16.763 -0.2610  0.1956 -0.1778
 1816BOLB   C2D43582  28.569  15.330  16.612  0.0232 -0.1704  0.1158
 1816BOLB   C3D43583  28.493  15.101  16.335  0.1622 -0.0058 -0.1807
 1816BOLB   C4D43584  28.167  15.007  15.982 -0.0289 -0.1582 -0.0635
 1817BOLB   NC143585  24.412  14.585  15.431  0.1735  0.1876 -0.1960
 1817BOLB   PO143586  24.604  14.206  15.326 -0.1201 -0.0816  0.2091
 1817BOLB   GL143587  24.942  14.387  15.101  0.0072  0.3181 -0.2428
 1817BOLB   GL243588  25.199  14.291  15.320 -0.1635 -0.3074  0.2403
 1817BOLB   C1A43589  25.016  14.608  14.698 -0.1301  0.2269 -0.1321
 1817BOLB   C2A43590  25.266  14.736  14.309 -0.1389  0.0392  0.1468
 1817BOLB   C3A43591  25.432  14.644  13.988  0.0770 -0.5054 -0.0450
 1817BOLB   C4A43592  25.571  14.244  13.704  0.0060 -0.3238 -0.1806
 1817BOLB   C1B43593  25.457  14.474  15.033  0.1597 -0.1669 -0.0236
 1817BOLB   C2B43594  25.922  14.643  14.943  0.0918  0.4305 -0.2034
 1817BOLB   C3B43595  26.153  14.866  14.661  0.3250 -0.1350 -0.2689
 1817BOLB   C4B43596  26.280  14.703  14.274  0.3513 -0.2280  0.1739
 1817BOLB   NC243597  26.897  14.402  10.959  0.2598  0.0669 -0.0545
 1817BOLB   PO243598  26.617  14.613  11.295 -0.3420  0.0006  0.0841
 1817BOLB   GL343599  26.452  14.435  11.726  0.0914  0.3421 -0.1847
 1817BOLB   GL443600  26.122  14.311  11.778  0.0668 -0.0175 -0.0994
 1817BOLB   C1C43601  26.305  14.631  12.119 -0.2597  0.0434 -0.0396
 1817BOLB   C2C43602  26.150  14.544  12.516 -0.0065  0.1498 -0.0759
 1817BOLB   C3C43603  26.050  14.310  12.807 -0.0218 -0.1699 -0.0224
 1817BOLB   C4C43604  25.812  14.195  13.279 -0.5144 -0.1047 -0.0426
 1817BOLB   C1D43605  25.848  14.445  12.108 -0.2970  0.0424  0.2136
 1817BOLB   C2D43606  25.573  14.378  12.398  0.0505 -0.0562 -0.1052
 1817BOLB   C3D43607  25.170  14.440  12.623 -0.3104 -0.1934 -0.0070
 1817BOLB   C4D43608  24.822  14.762  12.619  0.2601  0.0824  0.2855
 1818BOLB   NC143609  23.531  20.399  16.987  0.2323  0.0614 -0.1449
 1818BOLB   PO143610  23.237  20.796  17.017 -0.1837  0.1294 -0.1277
 1818BOLB   GL143611  23.449  21.083  16.861  0.1433 -0.0386  0.0906
 1818BOLB   GL243612  23.319  21.472  16.739  0.1230  0.1456 -0.0002
 1818BOLB   C1A43613  23.848  21.251  16.678  0.0754  0.3825  0.2017
 1818BOLB   C2A43614  24.200  21.546  16.641  0.1224 -0.0593 -0.0046
 1818BOLB   C3A43615  24.469  21.919  16.565  0.2546 -0.0546  0.1587
 1818BOLB   C4A43616  24.740  22.304  16.499  0.1161  0.1653 -0.2223
 1818BOLB   C1B43617  23.665  21.727  16.813 -0.1018  0.2690 -0.0851
 1818BOLB   C2B43618  23.981  21.985  16.688 -0.1207  0.1198 -0.2296
 1818BOLB   C3B43619  24.269  22.287  16.802  0.4215 -0.3740 -0.2767
 1818BOLB   C4B43620  24.487  22.716  16.866 -0.1517  0.0118  0.0226
 1818BOLB   NC243621  26.092  24.358  17.398  0.0814 -0.1341 -0.0792
 1818BOLB   PO243622  26.002  24.141  17.014 -0.1774 -0.2177 -0.2937
 1818BOLB   GL343623  25.718  23.719  16.971  0.0082  0.1287 -0.0412
 1818BOLB   GL443624  25.476  23.586  16.596 -0.0696  0.3078  0.1056
 1818BOLB   C1C43625  25.272  23.586  17.069  0.1372  0.4324  0.3625
 1818BOLB   C2C43626  24.979  23.325  16.913  0.0953 -0.2489 -0.0130
 1818BOLB   C3C43627  25.058  23.006  16.695 -0.3594 -0.3468 -0.0135
 1818BOLB   C4C43628  24.903  22.679  16.569  0.0610  0.1071  0.1178
 1818BOLB   C1D43629  25.520  23.217  16.767  0.2390 -0.1085  0.3214
 1818BOLB   C2D43630  25.543  22.779  16.782 -0.1486  0.2029  0.4783
 1818BOLB   C3D43631  25.446  22.420  16.518  0.4431 -0.1153 -0.1956
 1818BOLB   C4D43632  25.267  22.220  16.117 -0.2438  0.0191  0.3121
 1819BOLB   NC143633  23.405  15.506  13.701  0.0878 -0.0030 -0.1231
 1819BOLB   PO143634  23.432  15.046  13.948 -0.1153  0.1671 -0.0232
 1819BOLB   GL143635  23.740  15.028  13.550  0.1553  0.0826 -0.1273
 1819BOLB   GL243636  23.876  15.306  13.754 -0.0421 -0.0554 -0.0617
 1819BOLB   C1A43637  23.853  14.967  13.124 -0.1371  0.2117 -0.0359
 1819BOLB   C2A43638  24.213  15.011  12.856 -0.0080  0.2235 -0.0830
 1819BOLB   C3A43639  24.584  15.198  12.764  0.0773 -0.1302  0.2092
 1819BOLB   C4A43640  25.054  15.230  12.578  0.0468  0.0744  0.1960
 1819BOLB   C1B43641  24.222  15.355  13.442  0.0347 -0.1896 -0.0427
 1819BOLB   C2B43642  24.687  15.469  13.435 -0.0927  0.1742  0.1940
 1819BOLB   C3B43643  24.983  15.664  13.232  0.2313 -0.0368  0.1352
 1819BOLB   C4B43644  25.027  16.106  13.047  0.0590 -0.1428  0.0821
 1819BOLB   NC243645  27.290  15.599  12.399 -0.1123 -0.2469  0.0329
 1819BOLB   PO243646  27.090  15.162  12.169 -0.1940  0.0190  0.2561
 1819BOLB   GL343647  26.844  15.223  12.445 -0.1914  0.1166 -0.1313
 1819BOLB   GL443648  26.736  15.484  12.461 -0.2614  0.1194  0.0565
 1819BOLB   C1C43649  26.344  15.164  12.543 -0.3088 -0.0218  0.0299
 1819BOLB   C2C43650  26.011  15.036  12.545  0.0247 -0.2745 -0.1881
 1819BOLB   C3C43651  25.666  14.810  12.521 -0.0894 -0.0092 -0.0288
 1819BOLB   C4C43652  25.300  14.899  12.445 -0.1857 -0.0002 -0.0588
 1819BOLB   C1D43653  26.481  15.724  12.302 -0.1223  0.0792 -0.1347
 1819BOLB   C2D43654  26.188  15.986  12.493  0.0570  0.1833  0.0053
 1819BOLB   C3D43655  25.795  16.294  12.436  0.3572  0.1637  0.0218
 1819BOLB   C4D43656  25.865  16.753  12.340  0.1294  0.0032 -0.0346
 1820BOLB   NC143657  24.157  18.104  16.224 -0.2968 -0.1568 -0.1887
 1820BOLB   PO143658  24.259  17.577  16.208 -0.1163  0.2014  0.0709
 1820BOLB   GL143659  24.698  17.543  16.273 -0.0070  0.2414  0.2029
 1820BOLB   GL243660  24.940  17.310  16.017  0.2179  0.1140  0.1884
 1820BOLB   C1A43661  25.124  17.819  16.112  0.2337  0.3048 -0.0788
 1820BOLB   C2A43662  25.463  18.076  16.107 -0.2344  0.2054  0.2595
 1820BOLB   C3A43663  25.898  18.170  16.130  0.0675 -0.1992  0.0290
 1820BOLB   C4A43664  26.179  18.468  16.173  0.2140 -0.1443  0.2268
 1820BOLB   C1B43665  25.347  17.286  15.820  0.0974 -0.2085 -0.1394
 1820BOLB   C2B43666  25.715  17.335  15.496 -0.0798  0.0099  0.0087
 1820BOLB   C3B43667  25.744  17.722  15.269 -0.0621 -0.3773 -0.1898
 1820BOLB   C4B43668  25.965  18.029  15.101  0.1425 -0.0278  0.2602
 1820BOLB   NC243669  27.701  20.467  15.465  0.3017  0.1092 -0.2837
 1820BOLB   PO243670  27.850  20.080  15.654 -0.0418  0.0518 -0.2023
 1820BOLB   GL343671  27.549  19.861  15.736 -0.2562 -0.1214  0.1302
 1820BOLB   GL443672  27.344  20.217  15.823 -0.4259  0.1018  0.2031
 1820BOLB   C1C43673  27.033  19.931  15.590  0.1039 -0.0355  0.1152
 1820BOLB   C2C43674  26.753  19.603  15.771 -0.2713  0.1349  0.0882
 1820BOLB   C3C43675  26.609  19.214  16.040  0.0419  0.0744  0.0864
 1820BOLB   C4C43676  26.567  18.741  16.084  0.3189  0.5983  0.0089
 1820BOLB   C1D43677  26.848  20.245  15.918 -0.0512 -0.1125 -0.2311
 1820BOLB   C2D43678  26.394  20.098  15.857  0.2832 -0.0170  0.1535
 1820BOLB   C3D43679  26.072  19.966  15.639  0.1394  0.3355  0.1569
 1820BOLB   C4D43680  25.997  19.631  15.453  0.0607  0.1751  0.1021
 1821BOLB   NC143681  20.021   8.231  16.633 -0.0989 -0.0005  0.0187
 1821BOLB   PO143682  20.148   8.331  17.048 -0.2279  0.4103 -0.0067
 1821BOLB   GL143683  20.491   8.101  17.228 -0.1891 -0.2021 -0.1808
 1821BOLB   GL243684  20.685   8.182  17.512  0.2700  0.0328  0.2629
 1821BOLB   C1A43685  20.879   7.775  17.245 -0.1040  0.0416 -0.3031
 1821BOLB   C2A43686  21.368   7.805  17.108  0.2156 -0.0413  0.3292
 1821BOLB   C3A43687  21.800   7.480  17.056  0.0321  0.0978 -0.1179
 1821BOLB   C4A43688  22.111   7.121  17.070 -0.1847  0.0349  0.3494
 1821BOLB   C1B43689  20.934   8.318  17.147  0.0627 -0.4585 -0.3245
 1821BOLB   C2B43690  21.071   8.039  16.807  0.2928  0.1003 -0.2856
 1821BOLB   C3B43691  21.260   7.711  16.644 -0.0646  0.0713 -0.3110
 1821BOLB   C4B43692  21.378   7.247  16.652 -0.0744  0.0290 -0.1852
 1821BOLB   NC243693  24.301   5.707  16.327  0.0324 -0.1149  0.0331
 1821BOLB   PO243694  23.930   5.609  16.523  0.2154 -0.0953  0.3136
 1821BOLB   GL343695  23.736   6.010  16.531 -0.1340 -0.3204  0.1885
 1821BOLB   GL443696  23.790   6.115  16.105 -0.0222  0.1863 -0.2753
 1821BOLB   C1C43697  23.330   6.208  16.479 -0.0704  0.1849 -0.2084
 1821BOLB   C2C43698  23.052   6.607  16.581  0.1100 -0.3676 -0.3740
 1821BOLB   C3C43699  22.527   6.698  16.480 -0.2012  0.2026 -0.1998
 1821BOLB   C4C43700  22.343   6.803  16.842  0.0621 -0.4011 -0.2973
 1821BOLB   C1D43701  23.604   6.478  16.120  0.3016  0.4706  0.4329
 1821BOLB   C2D43702  23.356   6.901  16.077  0.0966  0.0307  0.0487
 1821BOLB   C3D43703  23.141   7.238  16.230 -0.0134  0.3471 -0.0148
 1821BOLB   C4D43704  22.808   7.584  16.267  0.0361  0.0098  0.1165
 1822BOLB   NC143705  21.939  10.293  17.767  0.1118  0.0195 -0.0101
 1822BOLB   PO143706  21.976   9.737  17.885 -0.0821 -0.2227 -0.2143
 1822BOLB   GL143707  22.115   9.313  17.956 -0.2073 -0.1325  0.0555
 1822BOLB   GL243708  21.850   9.164  17.859  0.2027 -0.1039 -0.0117
 1822BOLB   C1A43709  22.229   8.850  17.923  0.0716 -0.1452 -0.0233
 1822BOLB   C2A43710  22.327   8.425  17.699  0.0118 -0.0418  0.2635
 1822BOLB   C3A43711  22.250   7.990  17.629  0.2317 -0.1264  0.1981
 1822BOLB   C4A43712  22.099   7.560  17.493 -0.3192  0.1934 -0.0263
 1822BOLB   C1B43713  21.942   8.850  17.486 -0.1579 -0.3550  0.0044
 1822BOLB   C2B43714  21.914   8.397  17.402  0.1456  0.0420  0.0849
 1822BOLB   C3B43715  21.734   7.955  17.444 -0.1862 -0.0861 -0.0918
 1822BOLB   C4B43716  21.475   7.569  17.556 -0.0765 -0.2287 -0.1412
 1822BOLB   NC243717  23.275   5.577  18.293 -0.0703 -0.2525 -0.3404
 1822BOLB   PO243718  23.139   5.603  17.859 -0.0773 -0.2442  0.3919
 1822BOLB   GL343719  23.217   6.056  18.019 -0.3374  0.3283 -0.1389
 1822BOLB   GL443720  23.476   6.122  18.332  0.0589 -0.0461  0.2274
 1822BOLB   C1C43721  22.909   6.308  18.068  0.0818 -0.0241 -0.0509
 1822BOLB   C2C43722  22.473   6.586  17.897 -0.6280 -0.1297  0.1866
 1822BOLB   C3C43723  22.084   6.856  17.638 -0.0670  0.4295 -0.2519
 1822BOLB   C4C43724  21.896   7.223  17.623  0.2924  0.0875 -0.1265
 1822BOLB   C1D43725  23.133   6.383  18.575 -0.1346 -0.1898 -0.1298
 1822BOLB   C2D43726  22.763   6.624  18.548  0.3498 -0.0352  0.0487
 1822BOLB   C3D43727  22.360   6.645  18.391  0.2288 -0.0105 -0.0890
 1822BOLB   C4D43728  22.094   6.844  18.138  0.3368 -0.1496 -0.1694
 1823DPPE   NH343729   2.958  21.294  18.281  0.2693 -0.0649 -0.0242
 1823DPPE   PO443730   3.395  21.484  18.238  0.1462  0.2169 -0.1671
 1823DPPE   GL143731   3.729  21.219  18.202 -0.1916 -0.4613  0.0562
 1823DPPE   GL243732   3.801  20.834  18.159  0.0107 -0.3895  0.0771
 1823DPPE   C1A43733   4.144  21.156  18.060  0.2329  0.0397  0.1191
 1823DPPE   C2A43734   4.407  21.279  18.372  0.1015 -0.5480  0.2367
 1823DPPE   C3A43735   4.729  21.044  18.625  0.1353 -0.2895 -0.2123
 1823DPPE   C4A43736   5.020  20.737  18.762 -0.4679 -0.0722 -0.1802
 1823DPPE   C1B43737   3.713  20.561  18.447 -0.1978 -0.2792  0.1596
 1823DPPE   C2B43738   3.608  20.473  18.842 -0.0266 -0.1482  0.3887
 1823DPPE   C3B43739   3.412  20.046  18.985 -0.0090  0.0424 -0.4272
 1823DPPE   C4B43740   3.604  19.545  19.038 -0.1977 -0.0431 -0.1184
 1824DPPE   NH343741   8.386  17.168  22.184 -0.1365 -0.0007 -0.2460
 1824DPPE   PO443742   8.297  16.775  22.332  0.0519  0.2297 -0.1289
 1824DPPE   GL143743   8.491  16.730  21.934 -0.1415  0.2300  0.3044
 1824DPPE   GL243744   8.731  16.986  21.803  0.2529  0.0072 -0.0310
 1824DPPE   C1A43745   8.321  16.800  21.595  0.0238 -0.2532 -0.2419
 1824DPPE   C2A43746   8.167  16.546  21.282 -0.0862  0.1066 -0.1342
 1824DPPE   C3A43747   8.190  16.404  20.828 -0.0218 -0.1631 -0.2486
 1824DPPE   C4A43748   8.086  16.372  20.447  0.0073  0.1121  0.4109
 1824DPPE   C1B43749   8.540  17.280  21.572 -0.3098 -0.3521 -0.2441
 1824DPPE   C2B43750   8.075  17.336  21.310 -0.2225  0.0046  0.3386
 1824DPPE   C3B43751   7.616  17.214  21.043 -0.0749 -0.0327 -0.1299
 1824DPPE   C4B43752   7.387  16.883  20.963 -0.2718  0.0515 -0.1845
 1825DPPE   NH343753   3.649  15.751  21.170  0.0020 -0.0092  0.0795
 1825DPPE   PO443754   3.498  15.754  20.674 -0.1293 -0.1466  0.2245
 1825DPPE   GL143755   3.695  15.919  20.422 -0.1185  0.0778 -0.1081
 1825DPPE   GL243756   3.538  16.285  20.384  0.4214 -0.4522  0.2416
 1825DPPE   C1A43757   3.677  15.720  19.991 -0.0639  0.0284 -0.3520
 1825DPPE   C2A43758   3.744  15.438  19.723  0.1252  0.0501 -0.2210
 1825DPPE   C3A43759   4.004  15.268  19.564  0.5213 -0.1136  0.0700
 1825DPPE   C4A43760   3.976  15.040  19.161  0.1073 -0.0132  0.1349
 1825DPPE   C1B43761   3.472  16.155  20.013 -0.1532  0.0542  0.3003
 1825DPPE   C2B43762   3.414  16.252  19.582 -0.1000 -0.1186 -0.0718
 1825DPPE   C3B43763   3.511  16.492  19.282 -0.1063  0.0155 -0.1395
 1825DPPE   C4B43764   3.856  16.509  19.044 -0.1101  0.1281 -0.1987
 1826DPPE   NH343765   8.437  18.360  22.096  0.1865 -0.3378 -0.1076
 1826DPPE   PO443766   8.134  17.990  22.169  0.4206 -0.0421  0.3736
 1826DPPE   GL143767   8.100  18.186  21.829  0.2004  0.0986  0.2275
 1826DPPE   GL243768   7.966  18.043  21.590 -0.3492  0.0359 -0.0463
 1826DPPE   C1A43769   8.346  18.283  21.437  0.4472  0.1027 -0.1244
 1826DPPE   C2A43770   8.067  18.060  21.123 -0.0630 -0.1774 -0.0734
 1826DPPE   C3A43771   7.636  18.076  21.171  0.2950  0.1106 -0.0423
 1826DPPE   C4A43772   7.225  18.246  21.280 -0.2940  0.0462  0.1361
 1826DPPE   C1B43773   7.930  18.498  21.458 -0.2314 -0.2088 -0.0485
 1826DPPE   C2B43774   7.533  18.742  21.274  0.2203 -0.0244  0.3346
 1826DPPE   C3B43775   7.208  19.008  21.343  0.0787 -0.1254 -0.1197
 1826DPPE   C4B43776   6.999  19.396  21.318 -0.2828 -0.1069 -0.1348
 1827DPPE   NH343777   6.638  22.151  22.178  0.2085  0.3452  0.1330
 1827DPPE   PO443778   6.329  21.902  22.089  0.2240 -0.0077  0.1155
 1827DPPE   GL143779   6.267  21.525  21.870 -0.0799 -0.1181  0.4298
 1827DPPE   GL243780   6.227  21.626  21.544  0.0105  0.0557  0.1839
 1827DPPE   C1A43781   6.196  21.013  21.927 -0.0991 -0.2128 -0.0657
 1827DPPE   C2A43782   6.267  20.701  21.576  0.0006  0.0627 -0.0278
 1827DPPE   C3A43783   5.974  20.479  21.276 -0.2927  0.0209 -0.0486
 1827DPPE   C4A43784   5.953  20.314  20.931  0.1683 -0.0386  0.0027
 1827DPPE   C1B43785   6.005  21.198  21.508 -0.0987  0.0820 -0.1461
 1827DPPE   C2B43786   5.737  20.916  21.367  0.0632  0.1808 -0.0960
 1827DPPE   C3B43787   5.305  20.839  21.272 -0.1094  0.2163 -0.1122
 1827DPPE   C4B43788   4.968  20.671  21.198 -0.0274  0.1956 -0.3554
 1828DPPE   NH343789   3.123  14.032  18.595  0.1723  0.1311  0.0360
 1828DPPE   PO443790   3.404  13.782  18.546  0.2455 -0.0152  0.1421
 1828DPPE   GL143791   3.710  14.000  18.521  0.3136  0.3230 -0.1740
 1828DPPE   GL243792   3.921  14.081  18.763  0.0325  0.1835 -0.1243
 1828DPPE   C1A43793   3.945  14.334  18.323  0.2823  0.3835 -0.1582
 1828DPPE   C2A43794   3.820  14.783  18.218  0.2462  0.1388 -0.0886
 1828DPPE   C3A43795   3.793  15.141  18.547 -0.0293 -0.2315  0.0063
 1828DPPE   C4A43796   3.811  15.528  18.635 -0.0217  0.1691 -0.3041
 1828DPPE   C1B43797   4.245  14.284  18.736 -0.1453  0.3493 -0.1797
 1828DPPE   C2B43798   4.599  14.366  18.627  0.0945  0.2416  0.1212
 1828DPPE   C3B43799   4.914  14.633  18.780 -0.2976 -0.1589  0.1573
 1828DPPE   C4B43800   5.293  14.590  18.912  0.2320  0.0983 -0.0043
 1829DPPE   NH343801   4.071  13.215  19.920  0.3513  0.3429 -0.1974
 1829DPPE   PO443802   4.199  13.674  19.969 -0.0948 -0.0348  0.0113
 1829DPPE   GL143803   4.583  13.882  19.728 -0.1124 -0.1418 -0.0080
 1829DPPE   GL243804   4.697  14.033  19.471  0.3269 -0.1995  0.1362
 1829DPPE   C1A43805   4.962  14.224  19.868 -0.2801 -0.0535 -0.2232
 1829DPPE   C2A43806   5.372  14.472  19.802  0.1312  0.0217  0.1387
 1829DPPE   C3A43807   5.523  14.509  19.461 -0.1515  0.1434 -0.0344
 1829DPPE   C4A43808   5.608  14.227  19.139  0.1342 -0.0009  0.3219
 1829DPPE   C1B43809   5.046  14.333  19.386  0.0779  0.0053 -0.1088
 1829DPPE   C2B43810   4.979  14.881  19.261  0.3962  0.1218 -0.1117
 1829DPPE   C3B43811   4.897  15.175  19.549 -0.0768 -0.0483 -0.1772
 1829DPPE   C4B43812   4.857  15.493  19.804 -0.2801  0.2347  0.2885
 1830DPPE   NH343813   4.153  21.679  20.924  0.1362 -0.2226 -0.2351
 1830DPPE   PO443814   3.949  21.337  20.810 -0.1230  0.3771  0.0018
 1830DPPE   GL143815   4.267  21.172  20.656  0.0754  0.0832 -0.1578
 1830DPPE   GL243816   4.434  21.238  20.944 -0.0978 -0.1434 -0.0681
 1830DPPE   C1A43817   4.514  20.959  20.444 -0.1080 -0.0567  0.0763
 1830DPPE   C2A43818   4.807  20.941  20.281  0.0797 -0.2506 -0.0282
 1830DPPE   C3A43819   5.273  20.900  20.221  0.1513 -0.0411 -0.1139
 1830DPPE   C4A43820   5.617  21.008  20.474 -0.1585  0.1825 -0.0181
 1830DPPE   C1B43821   4.906  21.044  20.784 -0.1942 -0.0877  0.1109
 1830DPPE   C2B43822   5.248  20.711  20.786 -0.1044 -0.1832 -0.0446
 1830DPPE   C3B43823   5.657  20.694  20.946  0.0113 -0.2682  0.1526
 1830DPPE   C4B43824   6.085  20.960  21.000  0.2413 -0.4392 -0.0928
 1831DPPE   NH343825   3.075  15.438  20.640 -0.0722  0.2894 -0.1722
 1831DPPE   PO443826   3.495  15.210  20.953 -0.2261  0.2673 -0.0402
 1831DPPE   GL143827   3.821  15.406  20.679  0.0759 -0.0520 -0.2092
 1831DPPE   GL243828   3.980  15.676  20.791 -0.0356 -0.0981  0.2148
 1831DPPE   C1A43829   4.105  15.683  20.257  0.0051 -0.1825  0.0551
 1831DPPE   C2A43830   4.344  15.591  19.822  0.1289  0.0352 -0.0915
 1831DPPE   C3A43831   4.476  15.674  19.347 -0.4631 -0.1684 -0.1132
 1831DPPE   C4A43832   4.584  15.704  18.885  0.0335 -0.0348  0.0605
 1831DPPE   C1B43833   4.171  16.071  20.668 -0.0854  0.0070  0.3628
 1831DPPE   C2B43834   4.525  16.404  20.717  0.2928  0.2034  0.3032
 1831DPPE   C3B43835   4.802  16.606  20.492  0.0847  0.0214 -0.0846
 1831DPPE   C4B43836   5.022  16.926  20.312 -0.0927 -0.3424 -0.1160
 1832DPPE   NH343837   3.114  21.211  17.563 -0.2721  0.1585  0.0604
 1832DPPE   PO443838   3.333  21.060  17.873 -0.0939  0.1814  0.2796
 1832DPPE   GL143839   3.621  20.936  17.591  0.0581 -0.2869  0.2590
 1832DPPE   GL243840   3.613  20.637  17.508 -0.0802 -0.0007 -0.0412
 1832DPPE   C1A43841   4.074  20.828  17.661  0.1421 -0.0082 -0.0163
 1832DPPE   C2A43842   4.200  20.633  17.352 -0.2819 -0.0109 -0.0144
 1832DPPE   C3A43843   4.382  20.355  17.051 -0.1662 -0.1430  0.0400
 1832DPPE   C4A43844   4.353  19.995  16.787 -0.2672 -0.1874 -0.1878
 1832DPPE   C1B43845   3.846  20.258  17.463 -0.2739  0.2448  0.2928
 1832DPPE   C2B43846   4.094  20.058  17.255 -0.4034  0.4755  0.0156
 1832DPPE   C3B43847   4.504  19.763  17.277 -0.1468  0.1465 -0.3488
 1832DPPE   C4B43848   4.627  19.347  17.348 -0.1153  0.1131  0.0426
 1833DPPE   NH343849   4.075  21.688  20.416 -0.1908  0.5996 -0.2667
 1833DPPE   PO443850   3.879  21.610  19.932 -0.2061  0.2975 -0.2146
 1833DPPE   GL143851   4.196  21.377  19.660  0.0710  0.0006  0.1712
 1833DPPE   GL243852   4.123  21.386  19.391 -0.2073  0.1488  0.0200
 1833DPPE   C1A43853   4.666  21.267  19.535  0.1125  0.0572  0.2844
 1833DPPE   C2A43854   4.957  20.915  19.620 -0.0227 -0.3988  0.1199
 1833DPPE   C3A43855   5.430  21.057  19.716  0.2953  0.1102 -0.1596
 1833DPPE   C4A43856   5.629  21.309  20.057 -0.0676 -0.2652 -0.0334
 1833DPPE   C1B43857   4.199  21.323  18.969 -0.0107 -0.2696  0.2312
 1833DPPE   C2B43858   4.141  20.977  18.598  0.5477 -0.1266  0.0076
 1833DPPE   C3B43859   4.219  20.691  18.336  0.0340  0.3037  0.0430
 1833DPPE   C4B43860   3.983  20.384  18.016  0.2114  0.2837  0.1219
 1834DPPE   NH343861   7.050  20.023  22.836 -0.2572  0.2162  0.2786
 1834DPPE   PO443862   7.293  20.333  22.703 -0.0711 -0.2914  0.0525
 1834DPPE   GL143863   7.053  20.294  22.398 -0.2741 -0.2716 -0.3210
 1834DPPE   GL243864   7.341  20.287  22.199 -0.2977 -0.0982 -0.2674
 1834DPPE   C1A43865   6.844  20.007  22.130 -0.1088  0.1381 -0.4906
 1834DPPE   C2A43866   6.753  19.901  21.749  0.0694  0.0793 -0.1257
 1834DPPE   C3A43867   6.793  19.863  21.324  0.3731  0.0183  0.0276
 1834DPPE   C4A43868   6.662  20.124  20.972  0.1226 -0.1144  0.1424
 1834DPPE   C1B43869   7.173  20.261  21.797  0.3425  0.0331  0.0585
 1834DPPE   C2B43870   7.252  20.210  21.353  0.1846  0.4263  0.0538
 1834DPPE   C3B43871   7.179  20.092  20.935  0.0707 -0.0309 -0.0497
 1834DPPE   C4B43872   7.170  20.078  20.537 -0.2862 -0.0044  0.0031
 1835DPPE   NH343873   7.176  14.960  22.053  0.2991 -0.1205  0.1150
 1835DPPE   PO443874   6.940  14.716  21.802  0.0456  0.2645  0.1338
 1835DPPE   GL143875   6.754  14.990  21.543 -0.0084  0.1299  0.2415
 1835DPPE   GL243876   6.921  15.217  21.600 -0.4105  0.0411  0.1283
 1835DPPE   C1A43877   6.438  15.289  21.369 -0.1347  0.2441  0.1038
 1835DPPE   C2A43878   6.325  15.657  21.402  0.0660  0.0110  0.2518
 1835DPPE   C3A43879   6.224  15.940  21.007 -0.0693  0.0474 -0.2248
 1835DPPE   C4A43880   6.263  16.279  20.743 -0.1346 -0.0031 -0.1351
 1835DPPE   C1B43881   6.926  15.464  21.308  0.1036 -0.0224 -0.3031
 1835DPPE   C2B43882   6.764  15.644  20.947 -0.1808 -0.0250  0.1508
 1835DPPE   C3B43883   6.663  15.894  20.661  0.0045 -0.1288  0.1451
 1835DPPE   C4B43884   6.690  16.268  20.518  0.1335  0.1267 -0.0653
 1836DPPE   NH343885   2.699  15.840  18.090  0.1499  0.1626 -0.0027
 1836DPPE   PO443886   2.745  16.249  18.406  0.1450  0.2109 -0.3512
 1836DPPE   GL143887   3.047  16.459  18.247  0.2266  0.1063 -0.0470
 1836DPPE   GL243888   3.027  16.773  18.147  0.0259  0.0229  0.3275
 1836DPPE   C1A43889   3.446  16.627  18.389 -0.1242  0.3029  0.2197
 1836DPPE   C2A43890   3.922  16.597  18.545  0.0311 -0.0973  0.1148
 1836DPPE   C3A43891   4.220  16.727  18.822 -0.1197  0.1828  0.1873
 1836DPPE   C4A43892   4.760  16.655  18.885 -0.2776  0.0117 -0.0191
 1836DPPE   C1B43893   3.156  17.068  17.859  0.0095 -0.2050  0.2825
 1836DPPE   C2B43894   3.508  17.286  17.613 -0.0157 -0.2834  0.0111
 1836DPPE   C3B43895   3.429  17.798  17.625 -0.3867  0.1116  0.0021
 1836DPPE   C4B43896   3.720  18.198  17.644  0.4014 -0.0992  0.0393
 1837DPPE   NH343897   2.536  16.327  19.249  0.1127  0.1983  0.4236
 1837DPPE   PO443898   2.616  16.094  18.886 -0.2665 -0.0057 -0.1696
 1837DPPE   GL143899   2.915  16.376  18.830 -0.0832  0.0619  0.2055
 1837DPPE   GL243900   3.184  16.245  18.668  0.2475 -0.1174 -0.1573
 1837DPPE   C1A43901   3.200  16.766  18.780 -0.2213 -0.3708 -0.0687
 1837DPPE   C2A43902   3.306  17.124  18.619  0.2272  0.2061  0.1026
 1837DPPE   C3A43903   3.253  17.484  18.284  0.1753  0.2624 -0.0279
 1837DPPE   C4A43904   3.629  17.673  18.078 -0.2126  0.2340 -0.0384
 1837DPPE   C1B43905   3.594  16.211  18.637  0.2237  0.0264 -0.3281
 1837DPPE   C2B43906   3.909  15.995  18.774 -0.1968 -0.2915 -0.2587
 1837DPPE   C3B43907   4.209  16.052  19.097  0.0129  0.0289  0.0203
 1837DPPE   C4B43908   4.656  16.118  19.193 -0.0905 -0.1856 -0.0264
 1838DPPE   NH343909   3.791  22.335  20.765 -0.1111 -0.1168  0.0119
 1838DPPE   PO443910   4.185  22.173  20.747  0.1078  0.0555 -0.2620
 1838DPPE   GL143911   4.444  21.921  20.677  0.0017  0.1485  0.1889
 1838DPPE   GL243912   4.575  21.786  20.361  0.2331  0.0743 -0.0097
 1838DPPE   C1A43913   4.771  21.617  20.758 -0.2687  0.1218  0.3414
 1838DPPE   C2A43914   5.123  21.379  20.485 -0.3968  0.1959 -0.2143
 1838DPPE   C3A43915   5.526  21.481  20.574 -0.4417  0.3055  0.1101
 1838DPPE   C4A43916   5.674  21.614  21.056 -0.2139 -0.1647 -0.1818
 1838DPPE   C1B43917   4.520  21.462  20.033  0.1416  0.2834  0.1056
 1838DPPE   C2B43918   4.471  21.000  19.896 -0.0409  0.0054  0.0548
 1838DPPE   C3B43919   4.700  20.611  19.919 -0.6285  0.4409 -0.1083
 1838DPPE   C4B43920   4.599  20.224  19.941  0.1636  0.0522 -0.2385
 1839DPPE   NH343921   8.794  16.947  22.375 -0.2291  0.1418 -0.4505
 1839DPPE   PO443922   8.988  17.291  22.226  0.0471 -0.0158  0.2610
 1839DPPE   GL143923   8.797  17.528  21.887 -0.4056 -0.1427  0.2575
 1839DPPE   GL243924   8.560  17.758  21.929  0.0831 -0.1673 -0.0414
 1839DPPE   C1A43925   8.861  17.642  21.441  0.1350  0.0216  0.1367
 1839DPPE   C2A43926   8.998  17.814  20.992  0.2643  0.2307 -0.0555
 1839DPPE   C3A43927   9.265  17.567  20.823 -0.0750  0.0499 -0.0358
 1839DPPE   C4A43928   9.729  17.673  20.646 -0.2439 -0.1457  0.0494
 1839DPPE   C1B43929   8.386  17.751  21.475 -0.0006 -0.1809 -0.4125
 1839DPPE   C2B43930   8.420  17.531  21.089 -0.2376 -0.2983  0.0630
 1839DPPE   C3B43931   8.682  17.345  20.841  0.2199  0.2122  0.0702
 1839DPPE   C4B43932   8.636  16.927  20.646 -0.0978  0.1957 -0.2100
 1840DPPE   NH343933   4.826  11.710  18.599  0.2977 -0.0598 -0.2076
 1840DPPE   PO443934   4.956  11.357  18.849 -0.2080 -0.0626  0.0297
 1840DPPE   GL143935   5.312  11.466  18.652  0.0145 -0.1555  0.0453
 1840DPPE   GL243936   5.330  11.412  18.345 -0.0371  0.0615  0.1156
 1840DPPE   C1A43937   5.767  11.766  18.579 -0.2755 -0.2407 -0.3076
 1840DPPE   C2A43938   5.760  12.173  18.395  0.2495 -0.0889 -0.3386
 1840DPPE   C3A43939   5.760  12.385  18.057 -0.0203  0.1263 -0.0267
 1840DPPE   C4A43940   5.958  12.619  17.839  0.0175  0.0911  0.0285
 1840DPPE   C1B43941   5.606  11.610  18.044 -0.1162 -0.2516  0.3060
 1840DPPE   C2B43942   5.986  11.877  18.076  0.0723  0.3041 -0.1330
 1840DPPE   C3B43943   6.354  11.743  17.900 -0.0600  0.0881 -0.0012
 1840DPPE   C4B43944   6.581  11.520  17.653 -0.1431 -0.1494 -0.0819
 1841DPPE   NH343945   7.961  15.478  21.844 -0.2140  0.1929  0.3410
 1841DPPE   PO443946   7.576  15.258  21.639 -0.0184  0.1281 -0.2182
 1841DPPE   GL143947   7.617  15.009  21.273 -0.0629  0.0090  0.0786
 1841DPPE   GL243948   7.268  15.092  21.270 -0.2868 -0.2537 -0.3738
 1841DPPE   C1A43949   7.528  14.850  20.876  0.1682 -0.0810 -0.4905
 1841DPPE   C2A43950   7.258  14.876  20.633  0.0405  0.1283 -0.2302
 1841DPPE   C3A43951   7.145  14.878  20.255  0.0831  0.1979  0.2156
 1841DPPE   C4A43952   7.027  15.215  19.967 -0.0104  0.1364  0.1754
 1841DPPE   C1B43953   6.967  15.073  20.995  0.1285  0.0863 -0.0202
 1841DPPE   C2B43954   6.548  15.000  21.006  0.1077 -0.2155  0.2865
 1841DPPE   C3B43955   6.235  14.721  21.072 -0.1152  0.1373  0.0369
 1841DPPE   C4B43956   6.086  14.385  21.209  0.0069  0.0149 -0.1654
 1842DPPE   NH343957   5.692  18.723  18.524 -0.0209 -0.1777 -0.3895
 1842DPPE   PO443958   5.610  19.157  18.344 -0.1340  0.0692  0.0995
 1842DPPE   GL143959   5.285  19.051  18.651  0.1767  0.0440 -0.4561
 1842DPPE   GL243960   5.046  18.916  18.619 -0.0926  0.2759 -0.0090
 1842DPPE   C1A43961   5.001  19.235  18.987  0.0157  0.0220  0.2408
 1842DPPE   C2A43962   4.605  19.427  19.087 -0.3808  0.1742 -0.0454
 1842DPPE   C3A43963   4.223  19.755  19.115 -0.0326 -0.0643  0.1450
 1842DPPE   C4A43964   3.911  20.202  19.147  0.0477 -0.0723  0.1144
 1842DPPE   C1B43965   4.976  19.413  18.454 -0.0943  0.0747  0.1100
 1842DPPE   C2B43966   4.909  19.688  18.799  0.2559  0.2318  0.1443
 1842DPPE   C3B43967   4.964  19.778  19.202 -0.2092  0.1727  0.0007
 1842DPPE   C4B43968   4.940  20.053  19.589 -0.2985 -0.1118  0.3105
 1843DPPE   NH343969   6.192  14.169  18.568 -0.0469  0.0097  0.1171
 1843DPPE   PO443970   6.590  13.861  18.576 -0.0088  0.0140  0.3407
 1843DPPE   GL143971   6.138  13.651  18.612  0.0373  0.0447  0.0294
 1843DPPE   GL243972   5.828  13.891  18.827 -0.4251  0.0636 -0.2025
 1843DPPE   C1A43973   5.797  13.388  18.449  0.2212 -0.2994 -0.0502
 1843DPPE   C2A43974   5.362  13.198  18.346  0.0362 -0.1945  0.0428
 1843DPPE   C3A43975   4.900  13.242  18.394  0.3438 -0.1290 -0.0256
 1843DPPE   C4A43976   4.606  13.437  18.182  0.4081 -0.1810  0.1091
 1843DPPE   C1B43977   5.384  13.929  18.785  0.0908 -0.1285  0.1127
 1843DPPE   C2B43978   4.858  14.065  18.991  0.2276  0.0931 -0.2231
 1843DPPE   C3B43979   4.573  14.424  19.143  0.0536 -0.1232 -0.0216
 1843DPPE   C4B43980   4.500  14.774  18.925  0.0916 -0.0782 -0.1635
 1844DPPE   NH343981   5.938  18.017  17.810  0.1756 -0.0703  0.0837
 1844DPPE   PO443982   5.959  17.736  18.164  0.2400  0.0260  0.0921
 1844DPPE   GL143983   5.680  17.665  18.624 -0.0401  0.0532  0.0551
 1844DPPE   GL243984   5.434  17.880  18.656  0.4971 -0.2835  0.0265
 1844DPPE   C1A43985   5.457  17.544  19.002 -0.1404 -0.2659  0.0201
 1844DPPE   C2A43986   5.256  17.337  19.266  0.2698 -0.3361 -0.3309
 1844DPPE   C3A43987   5.172  17.355  19.712  0.1700 -0.1441 -0.0820
 1844DPPE   C4A43988   5.197  17.398  20.122  0.3546  0.0436  0.1248
 1844DPPE   C1B43989   4.995  17.852  18.771  0.0556  0.0264 -0.0810
 1844DPPE   C2B43990   4.564  17.824  18.949 -0.0661 -0.3052 -0.2798
 1844DPPE   C3B43991   4.235  18.129  18.971  0.2787 -0.0122 -0.0842
 1844DPPE   C4B43992   4.371  18.516  19.095 -0.2646 -0.1459 -0.0262
 1845DPPE   NH343993   6.184  16.762  18.395 -0.2211  0.0698  0.0237
 1845DPPE   PO443994   5.926  16.772  18.801  0.0304 -0.0873 -0.1470
 1845DPPE   GL143995   6.065  16.760  19.137 -0.2253 -0.2775 -0.0394
 1845DPPE   GL243996   5.973  16.411  19.140 -0.2492  0.2403 -0.0194
 1845DPPE   C1A43997   5.942  16.980  19.669 -0.0704 -0.0847 -0.1291
 1845DPPE   C2A43998   5.540  17.056  19.998  0.0300 -0.1848  0.2719
 1845DPPE   C3A43999   5.543  16.919  20.430  0.1213 -0.0703 -0.0337
 1845DPPE   C4A44000   5.282  16.528  20.579 -0.0926 -0.2854  0.0205
 1845DPPE   C1B44001   5.709  16.568  19.482  0.0271 -0.2070  0.0413
 1845DPPE   C2B44002   5.633  16.532  19.979  0.1106  0.0471  0.1245
 1845DPPE   C3B44003   5.588  16.314  20.316 -0.0581  0.2318  0.0439
 1845DPPE   C4B44004   5.796  16.014  20.676 -0.1713 -0.2871  0.1489
 1846DPPE   NH344005   5.217  17.609  17.913 -0.0358 -0.1906 -0.2586
 1846DPPE   PO444006   5.287  17.525  18.380 -0.0079 -0.0693  0.1487
 1846DPPE   GL144007   4.957  17.824  18.307 -0.0253  0.2045 -0.1908
 1846DPPE   GL244008   4.644  17.648  18.259 -0.2000  0.1312 -0.2913
 1846DPPE   C1A44009   4.634  18.152  18.564 -0.0592  0.0118  0.0724
 1846DPPE   C2A44010   4.590  18.600  18.609 -0.0730  0.1374 -0.0133
 1846DPPE   C3A44011   4.454  19.027  18.705  0.0578  0.1308 -0.2895
 1846DPPE   C4A44012   4.446  19.499  18.557  0.1131 -0.1652 -0.0050
 1846DPPE   C1B44013   4.609  17.460  18.590 -0.2909 -0.1494  0.0449
 1846DPPE   C2B44014   4.461  17.194  18.863 -0.1457  0.0230  0.2735
 1846DPPE   C3B44015   4.550  16.994  19.223 -0.1039  0.0707  0.0224
 1846DPPE   C4B44016   4.359  16.520  19.255 -0.2406  0.0992 -0.0730
 1847DPPE   NH344017   5.717  17.295  18.241 -0.0662 -0.0894 -0.2759
 1847DPPE   PO444018   5.506  17.106  18.054 -0.1006  0.0163  0.0579
 1847DPPE   GL144019   5.106  17.141  18.170  0.1992  0.4983 -0.2735
 1847DPPE   GL244020   4.896  16.963  18.068  0.0990  0.2302 -0.2583
 1847DPPE   C1A44021   4.941  17.048  18.545  0.1715 -0.2704  0.2452
 1847DPPE   C2A44022   4.965  17.313  18.901  0.1316 -0.0322 -0.3162
 1847DPPE   C3A44023   4.837  17.496  19.130  0.0930 -0.1309  0.1053
 1847DPPE   C4A44024   4.744  17.461  19.423 -0.1596 -0.1228  0.1101
 1847DPPE   C1B44025   4.589  17.187  18.132 -0.1807  0.0702  0.1150
 1847DPPE   C2B44026   4.212  17.392  18.343 -0.0973  0.0156  0.0950
 1847DPPE   C3B44027   3.973  17.179  18.536  0.6192 -0.1261 -0.0995
 1847DPPE   C4B44028   3.701  16.918  18.832  0.2530  0.1046  0.2682
 1848DPPE   NH344029   6.428  19.513  18.195  0.1755 -0.4048  0.1181
 1848DPPE   PO444030   6.229  19.916  18.398  0.1645  0.4078 -0.0263
 1848DPPE   GL144031   5.796  20.084  18.401  0.1347 -0.0364  0.0692
 1848DPPE   GL244032   5.588  20.312  18.586 -0.4467  0.2926  0.1526
 1848DPPE   C1A44033   5.413  20.131  18.086 -0.0737  0.3211 -0.2848
 1848DPPE   C2A44034   4.938  20.298  17.883 -0.3953 -0.2773  0.0915
 1848DPPE   C3A44035   4.548  20.462  17.853  0.0430 -0.1077  0.0190
 1848DPPE   C4A44036   4.504  20.823  17.938 -0.1812  0.0983  0.1001
 1848DPPE   C1B44037   5.564  20.854  18.708  0.2266  0.0390  0.2350
 1848DPPE   C2B44038   5.678  21.292  18.634  0.0987 -0.4234 -0.0512
 1848DPPE   C3B44039   5.832  21.564  18.705  0.1518 -0.2623 -0.4392
 1848DPPE   C4B44040   5.902  21.801  19.034 -0.2429  0.1865 -0.0536
 1849DPPE   NH344041   6.401  13.653  18.171  0.0923 -0.0559  0.2901
 1849DPPE   PO444042   6.175  13.888  18.103 -0.0792 -0.0471 -0.1245
 1849DPPE   GL144043   5.746  13.875  18.290  0.1192 -0.1469 -0.0976
 1849DPPE   GL244044   5.665  14.189  18.359 -0.3416  0.1113  0.0628
 1849DPPE   C1A44045   5.337  13.692  18.351  0.1478  0.1193 -0.2080
 1849DPPE   C2A44046   5.076  13.587  18.107 -0.1579 -0.1135  0.3598
 1849DPPE   C3A44047   4.972  13.165  17.882 -0.0595  0.1444  0.0013
 1849DPPE   C4A44048   4.715  12.774  17.662  0.1014 -0.2011  0.1739
 1849DPPE   C1B44049   5.296  14.014  18.025  0.1169 -0.2224 -0.2519
 1849DPPE   C2B44050   4.859  13.997  17.980 -0.0049 -0.2249  0.0024
 1849DPPE   C3B44051   4.593  13.775  17.832  0.0975  0.1580  0.0160
 1849DPPE   C4B44052   4.130  13.624  17.924  0.2584  0.1564 -0.0951
 1850DPPE   NH344053   6.104  16.546  17.677  0.2125  0.3064  0.0371
 1850DPPE   PO444054   5.850  16.660  18.081 -0.0987 -0.0596  0.1011
 1850DPPE   GL144055   5.498  16.712  18.523 -0.7102  0.0828  0.0793
 1850DPPE   GL244056   5.220  16.538  18.580 -0.0157  0.1346  0.1725
 1850DPPE   C1A44057   5.240  16.901  18.885  0.2970 -0.0440 -0.2240
 1850DPPE   C2A44058   5.025  16.937  19.309  0.0833 -0.0329 -0.0499
 1850DPPE   C3A44059   4.693  16.984  19.695  0.2844 -0.0702 -0.0834
 1850DPPE   C4A44060   4.727  17.252  20.015  0.1803  0.1771 -0.0405
 1850DPPE   C1B44061   4.801  16.571  18.395  0.0335 -0.1032 -0.2472
 1850DPPE   C2B44062   4.413  16.848  18.426 -0.1239 -0.3722 -0.2140
 1850DPPE   C3B44063   4.103  16.858  18.146  0.0994 -0.0553 -0.0860
 1850DPPE   C4B44064   3.818  16.491  18.103 -0.0714 -0.1741 -0.1192
 1851DPPE   NH344065   5.839  16.070  17.874 -0.2676  0.3296  0.2772
 1851DPPE   PO444066   5.637  16.166  18.230  0.1709  0.1121  0.1786
 1851DPPE   GL144067   5.222  16.040  18.314 -0.0463 -0.0261  0.3354
 1851DPPE   GL244068   5.192  15.593  18.343 -0.0113  0.2802  0.2065
 1851DPPE   C1A44069   4.749  16.096  18.047 -0.2717 -0.1327 -0.1883
 1851DPPE   C2A44070   4.350  16.074  17.879  0.0377  0.2619  0.1409
 1851DPPE   C3A44071   4.217  15.820  17.594 -0.3936  0.1815  0.1383
 1851DPPE   C4A44072   4.106  15.483  17.311 -0.0203 -0.4054  0.5563
 1851DPPE   C1B44073   4.847  15.290  18.508  0.3062 -0.0294  0.2528
 1851DPPE   C2B44074   4.779  15.145  18.882  0.1487 -0.2686  0.0262
 1851DPPE   C3B44075   4.529  15.116  19.279  0.1097  0.3368  0.1537
 1851DPPE   C4B44076   4.421  15.070  19.807  0.0267  0.1673  0.1217
 1852DPPE   NH344077   5.964  18.673  18.067  0.2838 -0.0607  0.0952
 1852DPPE   PO444078   5.849  18.262  18.368 -0.0533 -0.0164  0.4410
 1852DPPE   GL144079   5.660  18.313  18.801  0.0327  0.1629  0.0562
 1852DPPE   GL244080   5.392  18.510  18.980 -0.2908  0.0750  0.0242
 1852DPPE   C1A44081   5.512  18.036  19.151 -0.1153 -0.1944  0.1830
 1852DPPE   C2A44082   5.117  17.937  19.263  0.1983 -0.0433  0.0698
 1852DPPE   C3A44083   4.963  17.794  19.743 -0.0884 -0.1637  0.1535
 1852DPPE   C4A44084   4.848  17.793  20.148  0.0343  0.2252  0.0484
 1852DPPE   C1B44085   5.208  18.407  19.337  0.2021  0.1610 -0.0305
 1852DPPE   C2B44086   5.142  18.254  19.774  0.3518  0.0221 -0.0694
 1852DPPE   C3B44087   5.097  18.230  20.295  0.2476  0.0185  0.0400
 1852DPPE   C4B44088   4.666  18.349  20.392 -0.0710 -0.1578  0.1541
 1853DPPE   NH344089   5.674  19.421  19.010 -0.0591  0.1690  0.0068
 1853DPPE   PO444090   6.165  19.500  18.941  0.2562  0.0980  0.1364
 1853DPPE   GL144091   5.975  19.205  19.317  0.1257 -0.1061  0.1340
 1853DPPE   GL244092   5.666  19.201  19.472 -0.0903  0.1646  0.5266
 1853DPPE   C1A44093   6.026  19.007  19.686  0.1515  0.1481  0.0675
 1853DPPE   C2A44094   5.919  18.782  20.024 -0.1013  0.3088 -0.0518
 1853DPPE   C3A44095   5.907  18.800  20.381  0.1021 -0.1724  0.0484
 1853DPPE   C4A44096   5.890  18.741  20.725  0.2325 -0.1437 -0.1542
 1853DPPE   C1B44097   5.515  19.073  19.844 -0.1184  0.1747  0.0132
 1853DPPE   C2B44098   5.565  19.123  20.288 -0.1037  0.2289 -0.1577
 1853DPPE   C3B44099   5.821  19.276  20.597 -0.2756 -0.1273  0.2134
 1853DPPE   C4B44100   6.093  19.440  20.951  0.1065 -0.1514  0.0466
 1854DPPE   NH344101   6.330  19.963  17.870 -0.0366 -0.1530 -0.0934
 1854DPPE   PO444102   6.213  19.543  17.746  0.1402  0.1591  0.2427
 1854DPPE   GL144103   6.003  19.732  17.386 -0.0991  0.2246 -0.4048
 1854DPPE   GL244104   5.745  19.754  17.569  0.2457 -0.1510  0.2770
 1854DPPE   C1A44105   6.001  19.790  16.950 -0.4089  0.2831 -0.3271
 1854DPPE   C2A44106   5.718  19.785  16.613  0.0875 -0.2326 -0.1565
 1854DPPE   C3A44107   5.238  19.770  16.590  0.0817  0.0844  0.1277
 1854DPPE   C4A44108   4.898  19.816  16.400 -0.1819  0.3728 -0.0386
 1854DPPE   C1B44109   5.330  19.812  17.648 -0.0991  0.0164 -0.1537
 1854DPPE   C2B44110   4.821  19.881  17.654  0.2289  0.2934  0.3363
 1854DPPE   C3B44111   4.520  19.537  17.812  0.0006  0.1990  0.0336
 1854DPPE   C4B44112   4.157  19.484  18.059  0.0195 -0.0729 -0.0211
 1855DPPE   NH344113   6.716  17.322  18.281  0.3104  0.5228  0.1121
 1855DPPE   PO444114   6.228  17.239  18.323 -0.2736  0.1113  0.2879
 1855DPPE   GL144115   6.033  17.253  18.681  0.0140  0.3898  0.2394
 1855DPPE   GL244116   5.641  17.166  18.759 -0.0465 -0.0852 -0.1287
 1855DPPE   C1A44117   5.979  17.510  19.102 -0.2174 -0.2735  0.2414
 1855DPPE   C2A44118   5.768  17.638  19.413  0.0938 -0.1761  0.0570
 1855DPPE   C3A44119   5.424  17.836  19.624 -0.0519 -0.0177 -0.0276
 1855DPPE   C4A44120   5.378  17.820  20.005  0.1634 -0.1660 -0.4689
 1855DPPE   C1B44121   5.690  17.152  19.225 -0.1444  0.1260  0.2395
 1855DPPE   C2B44122   5.506  17.003  19.501  0.1460 -0.1019 -0.1168
 1855DPPE   C3B44123   5.188  16.734  19.748  0.3125 -0.0524 -0.0758
 1855DPPE   C4B44124   5.099  16.389  19.953  0.0747  0.0044 -0.0615
 1856DPPE   NH344125   6.908  18.088  18.336  0.2273  0.5868  0.0868
 1856DPPE   PO444126   7.036  18.197  18.736 -0.0058  0.1009  0.1617
 1856DPPE   GL144127   7.152  18.219  19.070  0.1262 -0.0165 -0.0301
 1856DPPE   GL244128   7.050  18.528  19.112  0.0558  0.2266  0.0686
 1856DPPE   C1A44129   7.228  18.197  19.505 -0.1241 -0.1616  0.2759
 1856DPPE   C2A44130   7.225  18.287  19.939 -0.0197  0.2686 -0.1882
 1856DPPE   C3A44131   7.037  18.312  20.333  0.2792 -0.1209  0.3142
 1856DPPE   C4A44132   6.890  18.181  20.707  0.1400 -0.0145 -0.0339
 1856DPPE   C1B44133   6.819  18.450  19.559  0.2752  0.1010  0.1574
 1856DPPE   C2B44134   6.702  18.182  19.882  0.3324 -0.5706 -0.1408
 1856DPPE   C3B44135   6.553  18.036  20.279 -0.3590  0.1182 -0.2065
 1856DPPE   C4B44136   6.680  17.717  20.694 -0.0806 -0.3787 -0.3042
 1857DPPE   NH344137   5.908  19.521  18.477  0.2467  0.2380  0.0963
 1857DPPE   PO444138   5.831  19.740  18.049  0.2067  0.4388 -0.0965
 1857DPPE   GL144139   5.450  19.623  18.133  0.3277  0.1475 -0.2911
 1857DPPE   GL244140   5.416  19.529  18.531  0.0100 -0.2766 -0.0200
 1857DPPE   C1A44141   5.052  19.779  18.141 -0.1284  0.0602 -0.2538
 1857DPPE   C2A44142   4.537  19.927  18.076 -0.0909  0.0800  0.0553
 1857DPPE   C3A44143   4.423  20.268  18.330  0.1612 -0.2470 -0.2965
 1857DPPE   C4A44144   4.747  20.646  18.346 -0.0589 -0.0544 -0.1731
 1857DPPE   C1B44145   5.225  19.976  18.594 -0.1584  0.0331  0.0020
 1857DPPE   C2B44146   4.864  20.232  18.577 -0.2871  0.0612 -0.4594
 1857DPPE   C3B44147   4.570  20.548  18.848 -0.1421 -0.4578 -0.0689
 1857DPPE   C4B44148   4.658  20.896  19.142  0.3215 -0.3838 -0.3151
 1858DPPE   NH344149   5.522  17.970  18.184 -0.2777 -0.1139 -0.0675
 1858DPPE   PO444150   5.567  18.386  17.902 -0.2343  0.0482  0.1048
 1858DPPE   GL144151   5.347  18.520  17.553  0.0251 -0.1833 -0.1115
 1858DPPE   GL244152   5.112  18.716  17.692  0.1505 -0.3064 -0.0848
 1858DPPE   C1A44153   5.149  18.525  17.161  0.0779  0.3997  0.0068
 1858DPPE   C2A44154   5.115  18.537  16.843 -0.2718  0.0052 -0.1549
 1858DPPE   C3A44155   4.940  18.927  16.591  0.1492  0.0339  0.4400
 1858DPPE   C4A44156   5.081  19.308  16.439  0.1660  0.0221  0.0175
 1858DPPE   C1B44157   4.799  18.931  17.570 -0.1966  0.1084  0.1874
 1858DPPE   C2B44158   4.431  19.068  17.681  0.0126  0.1877  0.0306
 1858DPPE   C3B44159   4.128  19.406  17.397 -0.0626  0.0914 -0.2336
 1858DPPE   C4B44160   4.161  19.490  17.020  0.2970 -0.0185  0.1190
 1859DPPE   NH344161   6.298  18.872  18.982  0.0271  0.2659  0.0304
 1859DPPE   PO444162   5.995  19.047  18.704  0.2117 -0.3174 -0.1471
 1859DPPE   GL144163   5.745  18.880  19.019 -0.2275  0.0400  0.1500
 1859DPPE   GL244164   5.820  18.681  19.151  0.0924 -0.2781  0.1909
 1859DPPE   C1A44165   5.330  18.963  19.259 -0.0509 -0.0986  0.0113
 1859DPPE   C2A44166   5.223  19.395  19.439 -0.1067 -0.0533  0.1834
 1859DPPE   C3A44167   4.799  19.527  19.638  0.0799 -0.3115 -0.0874
 1859DPPE   C4A44168   4.326  19.546  19.604  0.3272  0.0117  0.0918
 1859DPPE   C1B44169   5.641  18.641  19.555 -0.1967 -0.1060  0.0308
 1859DPPE   C2B44170   5.445  18.598  19.996 -0.0169  0.3081 -0.0720
 1859DPPE   C3B44171   5.209  18.768  20.312 -0.0538  0.0779 -0.2229
 1859DPPE   C4B44172   5.101  19.137  20.500  0.0815 -0.0147  0.0942
 1860DPPE   NH344173   5.637  15.569  18.071  0.1069 -0.2510 -0.2363
 1860DPPE   PO444174   5.642  15.261  18.370  0.0019 -0.1832 -0.2606
 1860DPPE   GL144175   5.387  14.933  18.449 -0.1044  0.1767  0.1988
 1860DPPE   GL244176   5.483  14.630  18.455 -0.1106  0.1029 -0.0967
 1860DPPE   C1A44177   4.998  14.851  18.326  0.1963 -0.0815 -0.2157
 1860DPPE   C2A44178   4.620  14.844  18.407 -0.2335  0.0022 -0.0225
 1860DPPE   C3A44179   4.236  14.724  18.535 -0.1467  0.0919 -0.0029
 1860DPPE   C4A44180   3.872  14.611  18.864  0.1934  0.0706 -0.2860
 1860DPPE   C1B44181   5.148  14.328  18.447  0.0509 -0.2571  0.2270
 1860DPPE   C2B44182   4.936  13.988  18.518 -0.0781 -0.1113  0.2566
 1860DPPE   C3B44183   4.614  13.888  18.398  0.0191  0.0766 -0.4008
 1860DPPE   C4B44184   4.179  13.859  18.428  0.1436 -0.0750  0.0369
 1861DPPE   NH344185  13.371   9.390  17.575 -0.1183 -0.0302  0.0815
 1861DPPE   PO444186  13.249   8.943  17.565 -0.4915 -0.1658 -0.1647
 1861DPPE   GL144187  13.290   8.608  17.580 -0.0229  0.1387  0.1600
 1861DPPE   GL244188  13.306   8.598  17.902 -0.0007  0.4044  0.2100
 1861DPPE   C1A44189  13.348   8.236  17.363  0.0699 -0.0350 -0.0595
 1861DPPE   C2A44190  13.275   8.004  16.973  0.1742 -0.0430  0.2400
 1861DPPE   C3A44191  12.971   7.812  16.781 -0.0437  0.2019  0.0691
 1861DPPE   C4A44192  12.851   7.372  16.711 -0.1665  0.0854  0.2126
 1861DPPE   C1B44193  13.557   8.269  17.950  0.0053 -0.2365  0.1170
 1861DPPE   C2B44194  13.874   8.081  18.095 -0.0847 -0.3161 -0.1735
 1861DPPE   C3B44195  14.221   7.885  17.885  0.0483  0.3534 -0.2190
 1861DPPE   C4B44196  14.634   7.714  17.931  0.2711  0.0155  0.1105
 1862DPPE   NH344197  17.803  16.822  23.191  0.0317  0.0922  0.0286
 1862DPPE   PO444198  17.398  16.565  23.071  0.0935 -0.0716  0.0367
 1862DPPE   GL144199  17.307  16.593  22.641 -0.3171 -0.0540  0.0432
 1862DPPE   GL244200  16.900  16.758  22.531  0.5029  0.0288 -0.0549
 1862DPPE   C1A44201  17.264  16.535  22.161  0.1388 -0.2807  0.2010
 1862DPPE   C2A44202  17.120  16.724  21.765 -0.0768  0.1671 -0.1920
 1862DPPE   C3A44203  16.702  16.687  21.547  0.2399  0.1781  0.0194
 1862DPPE   C4A44204  16.303  16.780  21.625 -0.0524  0.0209 -0.1189
 1862DPPE   C1B44205  16.758  16.789  22.113  0.0627 -0.0940  0.0830
 1862DPPE   C2B44206  16.701  17.190  21.771 -0.1553  0.0124 -0.3001
 1862DPPE   C3B44207  16.444  17.192  21.391  0.1844  0.3840 -0.0828
 1862DPPE   C4B44208  16.363  17.336  20.977 -0.1070  0.0401 -0.0506
 1863DPPE   NH344209  12.635  20.555  22.885  0.2356 -0.2177 -0.1406
 1863DPPE   PO444210  12.231  20.419  22.778 -0.1437  0.2947  0.0838
 1863DPPE   GL144211  12.322  20.099  22.592 -0.0508 -0.3525 -0.0004
 1863DPPE   GL244212  12.063  20.265  22.282  0.1635 -0.1856 -0.0109
 1863DPPE   C1A44213  12.341  19.886  22.184 -0.1670 -0.1738  0.1018
 1863DPPE   C2A44214  12.066  19.794  21.851 -0.0614 -0.0795  0.1625
 1863DPPE   C3A44215  12.141  19.573  21.460  0.1586 -0.1243  0.0662
 1863DPPE   C4A44216  12.061  19.758  20.954  0.1622  0.2649 -0.0107
 1863DPPE   C1B44217  12.353  20.241  21.897  0.0085 -0.0576  0.1479
 1863DPPE   C2B44218  12.491  20.139  21.583 -0.1589  0.0967 -0.0701
 1863DPPE   C3B44219  12.523  19.988  21.245 -0.1850  0.0478 -0.0409
 1863DPPE   C4B44220  12.289  20.329  20.903  0.2579  0.0795  0.2614
 1864DPPE   NH344221  23.235  12.475  19.137  0.2098 -0.1263 -0.2232
 1864DPPE   PO444222  22.986  12.358  18.789 -0.1234  0.1505  0.1133
 1864DPPE   GL144223  22.729  12.558  18.495  0.1513 -0.1551  0.2727
 1864DPPE   GL244224  22.491  12.193  18.538  0.0437 -0.1441 -0.1314
 1864DPPE   C1A44225  22.544  12.963  18.281 -0.3695 -0.2680 -0.1548
 1864DPPE   C2A44226  22.119  13.144  18.434 -0.1334  0.3130 -0.0616
 1864DPPE   C3A44227  21.727  13.113  18.313 -0.2257 -0.0201 -0.1046
 1864DPPE   C4A44228  21.271  12.953  18.374  0.2388  0.0321 -0.0488
 1864DPPE   C1B44229  22.210  12.631  18.628  0.0839 -0.5961  0.0101
 1864DPPE   C2B44230  21.717  12.624  18.682  0.3160 -0.1912 -0.1595
 1864DPPE   C3B44231  21.312  12.637  18.767  0.2120  0.1631 -0.0187
 1864DPPE   C4B44232  20.936  12.684  18.956  0.0484 -0.2471  0.1075
 1865DPPE   NH344233  12.968  26.980  21.445  0.1051  0.1309 -0.0523
 1865DPPE   PO444234  13.330  26.722  21.446  0.1012  0.1669  0.3777
 1865DPPE   GL144235  13.026  26.406  21.272  0.2941 -0.1994 -0.1082
 1865DPPE   GL244236  12.633  26.557  21.395  0.0797  0.0653  0.2256
 1865DPPE   C1A44237  12.861  26.081  21.041 -0.1267 -0.0272  0.3303
 1865DPPE   C2A44238  12.742  25.801  20.756 -0.1176 -0.2918 -0.1756
 1865DPPE   C3A44239  12.828  25.824  20.257 -0.3992 -0.5286  0.0443
 1865DPPE   C4A44240  13.128  25.935  19.920  0.1366 -0.1055  0.1101
 1865DPPE   C1B44241  12.211  26.564  21.567 -0.1639 -0.2263 -0.0324
 1865DPPE   C2B44242  11.873  26.297  21.738 -0.0980 -0.0245 -0.5085
 1865DPPE   C3B44243  11.809  26.148  22.105  0.2211  0.1101  0.0331
 1865DPPE   C4B44244  11.750  26.362  22.479 -0.0301 -0.2608  0.1380
 1866DPPE   NH344245  12.654  28.150  18.029  0.2019 -0.0379  0.0324
 1866DPPE   PO444246  12.701  28.061  17.608  0.0486  0.1905  0.1569
 1866DPPE   GL144247  12.523  27.690  17.889 -0.0694  0.0557  0.0327
 1866DPPE   GL244248  12.434  27.676  18.282  0.1788 -0.1378 -0.1374
 1866DPPE   C1A44249  12.311  27.204  17.736 -0.3461  0.0167 -0.0040
 1866DPPE   C2A44250  12.286  26.830  17.589  0.2676 -0.0475 -0.4158
 1866DPPE   C3A44251  12.404  26.376  17.603 -0.1419 -0.1759  0.0194
 1866DPPE   C4A44252  12.296  26.122  17.946  0.2392  0.2201 -0.0540
 1866DPPE   C1B44253  12.530  27.203  18.236 -0.0819  0.0533 -0.1056
 1866DPPE   C2B44254  12.634  26.876  18.440  0.1376  0.1961 -0.0685
 1866DPPE   C3B44255  12.693  26.755  18.885  0.0475  0.4166 -0.1822
 1866DPPE   C4B44256  12.873  26.673  19.256 -0.0396 -0.0226 -0.1855
 1867DPPE   NH344257  11.500  15.356  23.121 -0.1157 -0.0954 -0.4343
 1867DPPE   PO444258  11.859  15.119  23.068  0.0318 -0.0085  0.2522
 1867DPPE   GL144259  11.716  15.361  22.586  0.1110  0.3308  0.1120
 1867DPPE   GL244260  11.514  15.254  22.584  0.0374  0.0185 -0.1255
 1867DPPE   C1A44261  11.875  15.446  22.289 -0.4975  0.3275 -0.1383
 1867DPPE   C2A44262  12.077  15.328  21.987  0.1003  0.1240  0.2592
 1867DPPE   C3A44263  12.149  15.499  21.685 -0.0112 -0.1719  0.1927
 1867DPPE   C4A44264  12.264  15.909  21.394  0.3638 -0.4569 -0.3280
 1867DPPE   C1B44265  11.415  15.463  22.175  0.1029  0.1834  0.0365
 1867DPPE   C2B44266  11.598  15.352  21.737 -0.0104 -0.2360  0.2448
 1867DPPE   C3B44267  11.712  15.376  21.306  0.1834  0.1061 -0.1414
 1867DPPE   C4B44268  11.825  15.540  20.845 -0.2025 -0.0743 -0.1661
 1868DPPE   NH344269  19.237  12.917  22.751 -0.1009  0.5637 -0.0118
 1868DPPE   PO444270  18.869  13.290  22.569  0.0468  0.0678  0.0792
 1868DPPE   GL144271  18.717  13.313  22.138  0.5011 -0.2297  0.1846
 1868DPPE   GL244272  18.368  13.379  22.210 -0.0354  0.0720  0.1868
 1868DPPE   C1A44273  18.716  13.279  21.696 -0.0728  0.0955  0.1824
 1868DPPE   C2A44274  19.035  13.302  21.288 -0.2214 -0.0081 -0.1942
 1868DPPE   C3A44275  19.246  13.580  21.026 -0.1777  0.1364 -0.0463
 1868DPPE   C4A44276  18.958  13.839  20.779 -0.1587  0.0074 -0.2860
 1868DPPE   C1B44277  18.268  13.328  21.720  0.1599  0.0141  0.0965
 1868DPPE   C2B44278  18.101  13.181  21.302 -0.0195  0.1879  0.0472
 1868DPPE   C3B44279  18.092  13.189  20.870  0.2312 -0.1797 -0.1369
 1868DPPE   C4B44280  18.026  13.276  20.506 -0.0904 -0.1030 -0.2570
 1869DPPE   NH344281  19.844  14.491  22.747  0.1499 -0.0431  0.1336
 1869DPPE   PO444282  19.563  14.486  22.505  0.2558  0.1215 -0.3700
 1869DPPE   GL144283  19.271  14.447  22.075  0.0877  0.0597  0.0433
 1869DPPE   GL244284  19.092  14.791  22.081  0.1585  0.0038 -0.3127
 1869DPPE   C1A44285  19.004  14.280  21.776 -0.0251 -0.0434 -0.2463
 1869DPPE   C2A44286  18.931  14.019  21.466  0.4410  0.1938  0.3703
 1869DPPE   C3A44287  18.663  13.643  21.290  0.0293 -0.0312 -0.1103
 1869DPPE   C4A44288  18.639  13.512  20.847 -0.3304 -0.0776 -0.5284
 1869DPPE   C1B44289  19.114  14.752  21.625  0.0425 -0.0818  0.1795
 1869DPPE   C2B44290  19.064  14.649  21.279 -0.4166 -0.1550  0.0226
 1869DPPE   C3B44291  19.177  14.367  20.924  0.0492 -0.0248  0.1716
 1869DPPE   C4B44292  19.309  14.423  20.506 -0.2434 -0.1075 -0.0083
 1870DPPE   NH344293  19.625  23.575  21.207 -0.1791  0.0825 -0.0808
 1870DPPE   PO444294  19.235  23.851  21.345 -0.0666  0.0378  0.3387
 1870DPPE   GL144295  19.100  23.685  21.060  0.1760  0.3262 -0.0157
 1870DPPE   GL244296  18.911  23.849  20.852 -0.1332 -0.2986 -0.3956
 1870DPPE   C1A44297  18.705  23.424  20.956  0.1278 -0.2134  0.1785
 1870DPPE   C2A44298  18.472  23.401  20.606  0.1366 -0.4057  0.0025
 1870DPPE   C3A44299  18.300  23.522  20.183 -0.0523  0.0569  0.4578
 1870DPPE   C4A44300  18.084  23.298  19.823  0.2085 -0.3518  0.0283
 1870DPPE   C1B44301  18.867  23.842  20.329 -0.0108  0.6008 -0.0207
 1870DPPE   C2B44302  18.550  23.942  20.092  0.1300 -0.0676  0.0296
 1870DPPE   C3B44303  18.221  24.361  20.063  0.0782 -0.0944  0.2286
 1870DPPE   C4B44304  18.175  24.747  20.012  0.2707  0.0870  0.3261
 1871DPPE   NH344305  11.860  27.578  19.520 -0.0803 -0.3090 -0.1734
 1871DPPE   PO444306  11.606  27.701  19.201  0.1460  0.1069  0.1450
 1871DPPE   GL144307  11.373  27.403  19.362  0.1688  0.0468  0.0567
 1871DPPE   GL244308  11.049  27.336  19.144  0.0033  0.0401 -0.1081
 1871DPPE   C1A44309  11.137  26.981  19.483 -0.0329  0.1605 -0.2319
 1871DPPE   C2A44310  11.233  26.659  19.245  0.2744 -0.0137  0.2916
 1871DPPE   C3A44311  11.320  26.236  19.127  0.0521  0.2459  0.1497
 1871DPPE   C4A44312  11.444  25.815  19.261  0.1569  0.0173  0.2873
 1871DPPE   C1B44313  10.858  26.955  19.066 -0.2069 -0.3437 -0.1948
 1871DPPE   C2B44314  10.735  26.700  19.420  0.1176  0.0605 -0.1170
 1871DPPE   C3B44315  10.788  26.241  19.583  0.1947 -0.0952  0.0534
 1871DPPE   C4B44316  11.267  26.078  19.633  0.0702  0.1549  0.0336
 1872DPPE   NH344317  18.519  24.735  21.290  0.2616 -0.1381 -0.1082
 1872DPPE   PO444318  18.087  24.765  21.409  0.2404  0.0855 -0.1509
 1872DPPE   GL144319  17.900  24.555  21.049  0.2393  0.0541 -0.0812
 1872DPPE   GL244320  17.679  24.292  21.063 -0.3837 -0.0676  0.3127
 1872DPPE   C1A44321  17.951  24.260  20.695  0.2987 -0.0889  0.0450
 1872DPPE   C2A44322  18.048  23.974  20.333 -0.2337  0.1755  0.4467
 1872DPPE   C3A44323  18.066  23.884  19.830  0.0654 -0.1400 -0.0581
 1872DPPE   C4A44324  17.772  23.710  19.566 -0.0867  0.1292 -0.1243
 1872DPPE   C1B44325  17.427  24.338  20.812  0.1369 -0.2310  0.1163
 1872DPPE   C2B44326  17.518  23.954  20.524  0.0713 -0.0637  0.1678
 1872DPPE   C3B44327  17.844  23.642  20.546 -0.0382  0.0707 -0.2358
 1872DPPE   C4B44328  18.072  23.381  20.853 -0.0859 -0.2511 -0.1005
 1873DPPE   NH344329   8.427  21.846  22.924  0.0699  0.1349 -0.2489
 1873DPPE   PO444330   8.858  22.019  22.954 -0.2143  0.1964 -0.2235
 1873DPPE   GL144331   9.078  22.052  22.643  0.0437 -0.0253  0.1583
 1873DPPE   GL244332   8.912  22.196  22.387  0.1785 -0.5256 -0.4447
 1873DPPE   C1A44333   9.234  21.934  22.163 -0.1242  0.1832 -0.2739
 1873DPPE   C2A44334   9.385  21.605  21.876 -0.0117 -0.0495 -0.1050
 1873DPPE   C3A44335   9.613  21.519  21.452 -0.0612 -0.1329  0.1216
 1873DPPE   C4A44336   9.500  21.480  20.880  0.0333 -0.1537 -0.1701
 1873DPPE   C1B44337   8.647  22.179  22.045 -0.1285 -0.4405  0.1172
 1873DPPE   C2B44338   8.355  22.430  21.692  0.2609  0.3945  0.1024
 1873DPPE   C3B44339   8.273  22.779  21.517 -0.2145  0.4175  0.2371
 1873DPPE   C4B44340   8.220  22.960  21.129  0.0442 -0.4268 -0.1559
 1874DPPE   NH344341  17.944  19.125  23.238 -0.1178  0.0551  0.0339
 1874DPPE   PO444342  17.608  18.860  23.325  0.0413  0.1489 -0.1077
 1874DPPE   GL144343  17.783  18.717  22.890 -0.0158 -0.1507 -0.3072
 1874DPPE   GL244344  17.458  18.694  22.732 -0.3610  0.2771 -0.1054
 1874DPPE   C1A44345  17.917  18.498  22.379  0.0806 -0.0841  0.2348
 1874DPPE   C2A44346  18.093  18.591  22.040 -0.0201  0.1898  0.0377
 1874DPPE   C3A44347  17.919  18.739  21.695 -0.2256 -0.2379  0.3758
 1874DPPE   C4A44348  17.714  18.888  21.355  0.1335  0.0613  0.2099
 1874DPPE   C1B44349  17.151  19.012  22.654 -0.1642 -0.0509  0.0501
 1874DPPE   C2B44350  16.893  19.124  22.241  0.0696  0.0111 -0.1898
 1874DPPE   C3B44351  16.830  19.030  21.865  0.3621 -0.1355  0.1366
 1874DPPE   C4B44352  16.748  18.888  21.426  0.3767 -0.3841  0.0897
 1875DPPE   NH344353  13.987   7.577  20.592 -0.4232  0.0821 -0.1813
 1875DPPE   PO444354  13.579   7.412  20.848 -0.0894  0.0631 -0.0647
 1875DPPE   GL144355  13.573   7.906  20.652 -0.0593  0.1318 -0.0156
 1875DPPE   GL244356  13.359   8.003  20.316 -0.1831  0.1813 -0.4846
 1875DPPE   C1A44357  13.827   8.140  20.348  0.1190  0.0500  0.1332
 1875DPPE   C2A44358  14.221   8.101  20.126  0.0772 -0.1973 -0.2412
 1875DPPE   C3A44359  14.472   8.288  19.724  0.1823  0.0033  0.3048
 1875DPPE   C4A44360  14.406   8.299  19.230 -0.1338 -0.1569 -0.0399
 1875DPPE   C1B44361  12.964   8.208  20.093  0.3807 -0.0912  0.1140
 1875DPPE   C2B44362  12.592   8.518  20.124 -0.0927 -0.0163  0.1867
 1875DPPE   C3B44363  12.304   8.735  20.441  0.1764 -0.0752 -0.0758
 1875DPPE   C4B44364  12.222   9.159  20.295 -0.1688 -0.2953 -0.0329
 1876DPPE   NH344365  16.134  28.160  18.431  0.3162  0.2233 -0.1005
 1876DPPE   PO444366  16.269  28.294  18.014 -0.0132 -0.2196  0.1053
 1876DPPE   GL144367  16.145  27.802  18.035  0.0526 -0.0152 -0.3826
 1876DPPE   GL244368  16.198  27.553  17.670 -0.4848 -0.1348  0.2890
 1876DPPE   C1A44369  15.872  27.492  18.066 -0.0490  0.1391 -0.2154
 1876DPPE   C2A44370  15.406  27.485  18.100 -0.2073  0.1185  0.1259
 1876DPPE   C3A44371  15.024  27.343  18.272  0.2206  0.0569  0.1791
 1876DPPE   C4A44372  14.870  27.484  18.709  0.1123 -0.3541  0.1834
 1876DPPE   C1B44373  16.617  27.668  17.882  0.0986  0.0064  0.1378
 1876DPPE   C2B44374  16.886  27.189  18.004  0.2536  0.0340 -0.5174
 1876DPPE   C3B44375  17.116  26.923  18.212  0.0515  0.0948 -0.2929
 1876DPPE   C4B44376  17.232  26.946  18.631  0.0722  0.0381 -0.0620
 1877DPPE   NH344377  13.183   6.729  19.438 -0.1486 -0.0240 -0.2936
 1877DPPE   PO444378  13.552   6.843  19.661 -0.0406 -0.4871 -0.1296
 1877DPPE   GL144379  13.543   7.180  19.291  0.2524  0.3409 -0.2077
 1877DPPE   GL244380  13.818   7.013  19.071  0.2994  0.1636 -0.3981
 1877DPPE   C1A44381  13.488   7.378  18.781 -0.2225  0.0239 -0.0434
 1877DPPE   C2A44382  13.426   7.131  18.465 -0.0566  0.0015 -0.0754
 1877DPPE   C3A44383  13.565   7.312  18.094 -0.0527 -0.1638 -0.0405
 1877DPPE   C4A44384  13.600   7.693  17.839  0.1394 -0.1249 -0.0366
 1877DPPE   C1B44385  14.222   7.231  19.030 -0.0683  0.0229  0.2552
 1877DPPE   C2B44386  14.694   7.052  18.990 -0.0874 -0.0721 -0.0200
 1877DPPE   C3B44387  14.977   7.144  18.661  0.1264  0.2014  0.1359
 1877DPPE   C4B44388  15.382   7.230  18.464  0.3087  0.0427 -0.2694
 1878DPPE   NH344389  19.132  20.134  22.044  0.1293 -0.0140  0.1143
 1878DPPE   PO444390  19.011  20.127  22.385 -0.1062  0.0886  0.1073
 1878DPPE   GL144391  18.637  20.119  22.096  0.0794 -0.1733 -0.2264
 1878DPPE   GL244392  18.653  19.732  22.143  0.5237 -0.3222 -0.3892
 1878DPPE   C1A44393  18.231  19.921  21.978  0.1141 -0.0747  0.0008
 1878DPPE   C2A44394  18.105  19.899  21.521 -0.1115  0.0818  0.3666
 1878DPPE   C3A44395  18.418  19.857  21.176 -0.0854  0.0202  0.1929
 1878DPPE   C4A44396  18.579  19.590  20.770 -0.1774  0.1960 -0.1338
 1878DPPE   C1B44397  18.531  19.619  21.669 -0.1151 -0.0705  0.0936
 1878DPPE   C2B44398  18.524  19.363  21.246 -0.2590  0.2046 -0.0120
 1878DPPE   C3B44399  18.598  18.919  21.071  0.1514 -0.1225  0.1371
 1878DPPE   C4B44400  18.838  18.561  20.901 -0.0649 -0.4597 -0.0505
 1879DPPE   NH344401   7.207  24.961  20.844  0.0916 -0.2751  0.0960
 1879DPPE   PO444402   7.316  25.233  20.595 -0.2043 -0.0113 -0.2163
 1879DPPE   GL144403   7.712  25.190  20.608 -0.1351 -0.1481 -0.1532
 1879DPPE   GL244404   7.728  24.917  20.760  0.0355 -0.0742  0.0915
 1879DPPE   C1A44405   7.939  25.616  20.591 -0.1358  0.3706  0.2708
 1879DPPE   C2A44406   8.357  25.837  20.411 -0.2346 -0.0200 -0.3622
 1879DPPE   C3A44407   8.640  25.892  20.115  0.3051 -0.0589  0.3452
 1879DPPE   C4A44408   8.798  25.861  19.718  0.1057 -0.2162 -0.1494
 1879DPPE   C1B44409   7.846  24.516  20.583  0.0750  0.5103  0.5678
 1879DPPE   C2B44410   8.099  24.104  20.713 -0.0222  0.1790 -0.4108
 1879DPPE   C3B44411   8.541  23.941  20.492  0.0599 -0.0212  0.2830
 1879DPPE   C4B44412   8.829  23.599  20.594  0.5764 -0.0586 -0.2077
 1880DPPE   NH344413  13.929   6.256  18.922 -0.1281 -0.0306 -0.1262
 1880DPPE   PO444414  13.512   6.543  19.158  0.0878 -0.1154  0.0969
 1880DPPE   GL144415  13.237   6.890  18.980 -0.2574  0.0162 -0.4701
 1880DPPE   GL244416  12.861   6.819  18.885 -0.1293 -0.0791  0.1394
 1880DPPE   C1A44417  13.097   7.290  19.142  0.0653 -0.1031 -0.2076
 1880DPPE   C2A44418  13.263   7.717  19.239 -0.1796  0.1696  0.0323
 1880DPPE   C3A44419  13.450   8.137  19.516 -0.2378 -0.0956 -0.3754
 1880DPPE   C4A44420  13.697   8.181  19.800 -0.0804 -0.2920 -0.2668
 1880DPPE   C1B44421  13.001   6.923  18.391 -0.2514 -0.2439  0.3911
 1880DPPE   C2B44422  13.302   6.674  18.184 -0.1312  0.1986 -0.3135
 1880DPPE   C3B44423  13.726   6.725  18.111 -0.0125  0.1983 -0.2100
 1880DPPE   C4B44424  14.159   6.890  18.051  0.1064  0.1942  0.3755
 1881DPPE   NH344425  10.699  28.139  17.854  0.1685 -0.1178  0.1107
 1881DPPE   PO444426  10.996  27.924  17.634  0.0482  0.2032 -0.1438
 1881DPPE   GL144427  11.246  27.602  17.587  0.1104 -0.1325  0.2082
 1881DPPE   GL244428  11.447  27.446  17.333  0.1996 -0.0759  0.0859
 1881DPPE   C1A44429  11.459  27.209  17.781  0.3729  0.1591  0.0994
 1881DPPE   C2A44430  11.517  26.929  18.099 -0.1404 -0.0515  0.4186
 1881DPPE   C3A44431  11.320  26.519  18.382 -0.3385  0.0457  0.1922
 1881DPPE   C4A44432  11.110  26.494  18.776  0.1576  0.1013 -0.1096
 1881DPPE   C1B44433  11.366  27.004  17.249 -0.1765 -0.3773  0.0872
 1881DPPE   C2B44434  11.508  26.606  17.105 -0.4027  0.1225  0.0823
 1881DPPE   C3B44435  11.637  26.387  16.764  0.1139 -0.1762  0.0850
 1881DPPE   C4B44436  11.603  26.004  16.963  0.0078  0.2313 -0.1914
 1882DPPE   NH344437   6.782  26.187  18.305  0.1150 -0.2298  0.0357
 1882DPPE   PO444438   6.880  26.084  18.643 -0.1464 -0.1086 -0.3384
 1882DPPE   GL144439   7.320  25.952  18.630 -0.2360  0.1541  0.1282
 1882DPPE   GL244440   7.335  26.029  18.332  0.0172  0.1925  0.2590
 1882DPPE   C1A44441   7.692  25.868  18.796 -0.1529 -0.1989  0.2524
 1882DPPE   C2A44442   7.816  25.545  19.074 -0.0868  0.0608  0.0100
 1882DPPE   C3A44443   7.644  25.320  19.403  0.0515 -0.2088 -0.2160
 1882DPPE   C4A44444   7.682  24.981  19.650 -0.0083  0.2214 -0.1717
 1882DPPE   C1B44445   7.831  25.963  18.358 -0.0229  0.5304  0.1771
 1882DPPE   C2B44446   8.192  26.120  18.632 -0.0148 -0.0823 -0.0416
 1882DPPE   C3B44447   8.488  26.290  18.882 -0.0875 -0.1433  0.1461
 1882DPPE   C4B44448   8.590  26.486  19.231 -0.2167  0.3562  0.1969
 1883DPPE   NH344449  19.319  22.717  21.083  0.2597 -0.1529 -0.0147
 1883DPPE   PO444450  19.690  23.089  21.091 -0.0041  0.3653 -0.0658
 1883DPPE   GL144451  19.344  23.171  20.758 -0.2671 -0.0778 -0.2914
 1883DPPE   GL244452  19.045  22.983  20.722 -0.0569  0.0358 -0.1442
 1883DPPE   C1A44453  19.151  23.447  20.550 -0.2798 -0.2305 -0.1755
 1883DPPE   C2A44454  18.862  23.341  20.251  0.3058  0.0047 -0.1869
 1883DPPE   C3A44455  18.574  23.066  20.151  0.1253  0.0760 -0.3044
 1883DPPE   C4A44456  18.238  22.854  20.068  0.1444  0.3918  0.0701
 1883DPPE   C1B44457  18.900  22.712  20.358 -0.2649  0.0246  0.4987
 1883DPPE   C2B44458  19.023  22.240  20.357 -0.2861 -0.4512 -0.2843
 1883DPPE   C3B44459  19.213  21.896  20.166  0.0340 -0.1276  0.0827
 1883DPPE   C4B44460  19.046  21.543  20.047  0.2585  0.0449  0.2444
 1884DPPE   NH344461  16.160  13.379  22.906 -0.1994  0.2718  0.0900
 1884DPPE   PO444462  16.253  12.941  22.852  0.2513 -0.0740 -0.0310
 1884DPPE   GL144463  16.245  12.954  22.405 -0.2442  0.0372  0.0317
 1884DPPE   GL244464  16.386  12.662  22.164  0.3786 -0.0960 -0.0763
 1884DPPE   C1A44465  16.213  13.095  22.004 -0.4402  0.2779 -0.3651
 1884DPPE   C2A44466  16.237  13.390  21.732 -0.0723  0.1362 -0.0136
 1884DPPE   C3A44467  16.030  13.577  21.387  0.3277 -0.3505 -0.1642
 1884DPPE   C4A44468  15.831  14.017  21.237 -0.1265  0.1998  0.0753
 1884DPPE   C1B44469  15.936  12.388  22.165  0.2517  0.2441 -0.2402
 1884DPPE   C2B44470  15.460  12.318  22.192  0.2564 -0.1685  0.1775
 1884DPPE   C3B44471  15.085  12.539  22.166 -0.0156 -0.1043 -0.0407
 1884DPPE   C4B44472  14.745  12.803  22.060  0.0217  0.1676  0.3595
 1885DPPE   NH344473  21.514  17.726  22.039 -0.0809  0.2453  0.0268
 1885DPPE   PO444474  21.296  17.894  21.765 -0.1210 -0.2662  0.3683
 1885DPPE   GL144475  20.954  17.608  21.620  0.0313 -0.2357  0.2861
 1885DPPE   GL244476  20.826  17.897  21.467 -0.0087 -0.0261  0.1030
 1885DPPE   C1A44477  20.780  17.311  21.390  0.2718 -0.0301  0.0741
 1885DPPE   C2A44478  20.402  17.366  21.001 -0.1596 -0.0865  0.2142
 1885DPPE   C3A44479  20.045  17.366  20.740 -0.2192  0.0254 -0.0979
 1885DPPE   C4A44480  19.679  17.444  20.434  0.1572  0.3279 -0.0796
 1885DPPE   C1B44481  20.429  17.938  21.196  0.0409 -0.1024  0.1684
 1885DPPE   C2B44482  19.996  17.801  21.255 -0.0578  0.1691  0.0587
 1885DPPE   C3B44483  19.898  17.831  20.859  0.3238  0.0540  0.1328
 1885DPPE   C4B44484  19.787  17.951  20.429  0.0358 -0.1291  0.0504
 1886DPPE   NH344485  21.488  12.025  21.015 -0.3161 -0.1274 -0.1198
 1886DPPE   PO444486  21.577  12.121  20.676  0.1837  0.2333 -0.0669
 1886DPPE   GL144487  21.639  12.306  20.225  0.3339 -0.0876  0.1854
 1886DPPE   GL244488  21.323  12.176  20.138 -0.0878 -0.2794  0.2297
 1886DPPE   C1A44489  21.675  12.542  19.738  0.0998 -0.3369 -0.0720
 1886DPPE   C2A44490  21.816  12.947  19.657 -0.0403  0.1467 -0.0534
 1886DPPE   C3A44491  21.827  13.108  19.358  0.1504 -0.2231  0.0618
 1886DPPE   C4A44492  21.932  13.423  19.170  0.2599 -0.0945 -0.2727
 1886DPPE   C1B44493  20.849  12.283  20.113 -0.1755 -0.1482  0.3411
 1886DPPE   C2B44494  20.448  12.567  20.147 -0.3198  0.1171 -0.1599
 1886DPPE   C3B44495  20.241  12.996  20.130 -0.2551 -0.0668  0.0719
 1886DPPE   C4B44496  19.886  13.222  19.986  0.1863  0.1212 -0.1527
 1887DPPE   NH344497  13.037  16.789  23.448 -0.0700 -0.0185  0.1281
 1887DPPE   PO444498  13.130  16.403  23.310 -0.2149 -0.0759  0.0402
 1887DPPE   GL144499  12.954  16.353  22.882 -0.1945 -0.0952 -0.0209
 1887DPPE   GL244500  12.665  16.140  22.753  0.0112  0.1405 -0.1673
 1887DPPE   C1A44501  13.072  16.414  22.497 -0.1044  0.1324  0.1922
 1887DPPE   C2A44502  13.030  16.439  22.037 -0.0236 -0.0953 -0.2636
 1887DPPE   C3A44503  12.981  16.192  21.780  0.0489 -0.0877 -0.5806
 1887DPPE   C4A44504  13.151  16.147  21.438  0.2022  0.2591 -0.0492
 1887DPPE   C1B44505  12.759  16.125  22.295 -0.0216 -0.0607  0.1853
 1887DPPE   C2B44506  12.689  15.802  21.983  0.0139 -0.3676  0.1264
 1887DPPE   C3B44507  12.747  15.819  21.520  0.1860 -0.1488  0.2009
 1887DPPE   C4B44508  12.626  15.775  21.082 -0.2029 -0.0315 -0.0908
 1888DPPE   NH344509  12.437   6.518  19.094  0.2427 -0.1066 -0.0242
 1888DPPE   PO444510  12.634   6.547  19.478 -0.0463 -0.2712  0.1571
 1888DPPE   GL144511  12.711   6.931  19.409 -0.0449 -0.0807 -0.1229
 1888DPPE   GL244512  12.622   7.280  19.536 -0.3008 -0.0477  0.0109
 1888DPPE   C1A44513  12.617   7.240  19.018  0.0274  0.1893 -0.2082
 1888DPPE   C2A44514  12.775   7.659  19.043  0.3642  0.0072  0.0480
 1888DPPE   C3A44515  13.064   8.025  18.906  0.2083 -0.1371 -0.0051
 1888DPPE   C4A44516  13.449   8.350  19.018  0.0552 -0.1044 -0.4678
 1888DPPE   C1B44517  12.864   7.603  19.536  0.2792 -0.2543 -0.1164
 1888DPPE   C2B44518  12.972   8.118  19.616 -0.3150  0.2137 -0.0293
 1888DPPE   C3B44519  12.684   8.490  19.642 -0.0582  0.2615  0.1945
 1888DPPE   C4B44520  12.260   8.494  19.799 -0.0195  0.0162  0.0354
 1889DPPE   NH344521   7.706  22.337  22.386 -0.2574 -0.1222 -0.0755
 1889DPPE   PO444522   7.502  22.023  22.611 -0.0100  0.0905 -0.3192
 1889DPPE   GL144523   7.749  21.863  22.195 -0.1952 -0.1638 -0.1400
 1889DPPE   GL244524   7.943  22.062  22.000 -0.1635 -0.0732 -0.0455
 1889DPPE   C1A44525   7.723  21.598  21.779  0.2066 -0.1362 -0.0232
 1889DPPE   C2A44526   7.699  21.118  21.712  0.1488  0.2726  0.0416
 1889DPPE   C3A44527   7.858  20.935  21.341  0.2809  0.0024 -0.0613
 1889DPPE   C4A44528   8.238  20.764  21.287 -0.1626  0.0164  0.2519
 1889DPPE   C1B44529   8.005  22.013  21.562  0.0384  0.1004  0.1703
 1889DPPE   C2B44530   8.092  21.637  21.344 -0.1687 -0.2262 -0.2279
 1889DPPE   C3B44531   8.208  21.309  21.136  0.1391 -0.1436 -0.5210
 1889DPPE   C4B44532   8.317  21.150  20.763  0.1657 -0.0857  0.1151
 1890DPPE   NH344533  18.889   9.515  20.581  0.2402  0.0753 -0.0492
 1890DPPE   PO444534  19.361   9.534  20.547  0.0169 -0.1518  0.1124
 1890DPPE   GL144535  19.173  10.000  20.375  0.1019 -0.4036  0.1935
 1890DPPE   GL244536  18.846   9.983  20.436 -0.4870  0.2371 -0.1865
 1890DPPE   C1A44537  19.142  10.302  20.039  0.3323 -0.0166 -0.3211
 1890DPPE   C2A44538  19.096  10.310  19.562  0.1151  0.2889 -0.2631
 1890DPPE   C3A44539  18.803  10.217  19.112  0.1140 -0.4656  0.0262
 1890DPPE   C4A44540  18.574  10.479  18.815  0.1591  0.1148 -0.0008
 1890DPPE   C1B44541  18.667  10.345  20.234  0.0756  0.1760 -0.0968
 1890DPPE   C2B44542  18.859  10.761  20.074 -0.0910  0.1269 -0.0341
 1890DPPE   C3B44543  19.148  11.096  20.228  0.0447  0.3968 -0.0187
 1890DPPE   C4B44544  19.389  11.472  20.173 -0.0863  0.2878  0.1776
 1891DPPE   NH344545  19.482  24.067  20.963 -0.0793 -0.1050 -0.0037
 1891DPPE   PO444546  19.708  24.076  20.535 -0.2288  0.0772  0.1012
 1891DPPE   GL144547  19.570  23.983  20.172  0.0588 -0.0956 -0.2221
 1891DPPE   GL244548  19.741  23.923  19.979  0.4911  0.1241 -0.0719
 1891DPPE   C1A44549  19.220  23.886  19.906 -0.2245 -0.2578  0.1505
 1891DPPE   C2A44550  18.957  23.766  19.582 -0.2119  0.3073 -0.3120
 1891DPPE   C3A44551  18.785  23.470  19.256  0.3017  0.2730 -0.0590
 1891DPPE   C4A44552  18.885  23.545  18.852 -0.0284 -0.1594 -0.0009
 1891DPPE   C1B44553  19.560  23.673  19.689  0.0982  0.1545  0.0893
 1891DPPE   C2B44554  19.365  23.417  19.513  0.0173 -0.0739  0.1895
 1891DPPE   C3B44555  19.216  23.014  19.442 -0.0475  0.0268 -0.2895
 1891DPPE   C4B44556  19.268  22.659  19.280  0.2181 -0.0709  0.3504
 1892DPPE   NH344557  20.805  21.771  20.033 -0.0558  0.1705 -0.0500
 1892DPPE   PO444558  20.919  22.226  20.221 -0.1899 -0.1307  0.1470
 1892DPPE   GL144559  20.552  22.196  20.194  0.0515 -0.1516  0.0022
 1892DPPE   GL244560  20.318  21.899  20.102 -0.1240 -0.1321 -0.3545
 1892DPPE   C1A44561  20.241  22.541  20.054  0.1080  0.2124  0.1665
 1892DPPE   C2A44562  19.859  22.770  20.039 -0.2782  0.1230  0.0513
 1892DPPE   C3A44563  19.654  23.053  19.742  0.1635  0.0920 -0.1858
 1892DPPE   C4A44564  19.664  23.089  19.251 -0.0537 -0.0406 -0.2827
 1892DPPE   C1B44565  20.161  21.736  19.772 -0.2219 -0.2276 -0.1989
 1892DPPE   C2B44566  19.799  21.750  19.584  0.0861  0.4367 -0.3001
 1892DPPE   C3B44567  19.568  21.662  19.223  0.0190  0.1973 -0.0032
 1892DPPE   C4B44568  19.058  21.758  19.264 -0.0527  0.2034 -0.1948
 1893DPPE   NH344569   8.419  15.922  22.723 -0.0592 -0.4643 -0.0764
 1893DPPE   PO444570   8.681  16.029  22.379 -0.3144  0.1100 -0.0124
 1893DPPE   GL144571   8.679  15.961  21.900  0.1849  0.0237  0.2139
 1893DPPE   GL244572   8.520  15.749  21.819 -0.1752 -0.1609 -0.0222
 1893DPPE   C1A44573   8.714  15.996  21.481 -0.0794  0.2703  0.1165
 1893DPPE   C2A44574   8.450  16.028  21.089 -0.0171  0.2780 -0.0531
 1893DPPE   C3A44575   8.306  15.951  20.636  0.0065  0.1486  0.2375
 1893DPPE   C4A44576   8.164  15.921  20.261  0.2576  0.3488  0.0523
 1893DPPE   C1B44577   8.430  15.535  21.362  0.1902 -0.1394  0.1558
 1893DPPE   C2B44578   8.523  15.546  20.882 -0.1768 -0.0872  0.2514
 1893DPPE   C3B44579   8.383  15.478  20.428  0.0106 -0.1875 -0.2158
 1893DPPE   C4B44580   8.015  15.220  20.225  0.1278  0.1453  0.0891
 1894DPPE   NH344581  22.515  13.423  20.325  0.2989  0.0491 -0.5109
 1894DPPE   PO444582  22.273  13.027  20.097  0.0441  0.0288 -0.0741
 1894DPPE   GL144583  22.171  13.408  19.922  0.1593  0.0379  0.2716
 1894DPPE   GL244584  22.197  13.772  20.046  0.2172 -0.1970 -0.1216
 1894DPPE   C1A44585  22.035  13.706  19.595  0.2253  0.0247 -0.2580
 1894DPPE   C2A44586  21.768  14.014  19.291 -0.0464 -0.2100  0.0843
 1894DPPE   C3A44587  21.528  14.304  19.079  0.1618 -0.1495  0.0507
 1894DPPE   C4A44588  21.134  14.326  18.972  0.1342  0.1408  0.1087
 1894DPPE   C1B44589  21.761  13.853  20.010  0.1162  0.1941  0.0369
 1894DPPE   C2B44590  21.480  13.898  19.756  0.0085 -0.0096 -0.0878
 1894DPPE   C3B44591  21.135  13.660  19.745 -0.0005  0.1352  0.2851
 1894DPPE   C4B44592  20.666  13.801  19.638 -0.2909  0.1879  0.0643
 1895DPPE   NH344593  21.377  12.580  20.659 -0.2883  0.1055 -0.0238
 1895DPPE   PO444594  21.160  12.387  20.987  0.2206  0.0108  0.1132
 1895DPPE   GL144595  20.838  12.549  20.757 -0.0526  0.1681  0.1811
 1895DPPE   GL244596  20.882  12.651  20.449  0.2627  0.0063  0.4993
 1895DPPE   C1A44597  20.464  12.583  20.642 -0.0076  0.2496  0.0443
 1895DPPE   C2A44598  20.128  12.468  20.734 -0.1271  0.1292 -0.1677
 1895DPPE   C3A44599  19.783  12.539  20.737 -0.0987 -0.1824 -0.2475
 1895DPPE   C4A44600  19.456  12.671  20.757  0.0823  0.2122  0.1091
 1895DPPE   C1B44601  20.896  12.766  19.967 -0.1048  0.2927 -0.1242
 1895DPPE   C2B44602  20.621  12.475  19.656  0.0346 -0.0739 -0.0836
 1895DPPE   C3B44603  20.196  12.252  19.731 -0.2894 -0.2540  0.0338
 1895DPPE   C4B44604  19.844  11.962  19.902  0.1349 -0.3203 -0.1330
 1896DPPE   NH344605   5.650  23.681  21.052 -0.2849  0.1806  0.0994
 1896DPPE   PO444606   5.540  23.253  21.122  0.1419 -0.1151  0.0513
 1896DPPE   GL144607   5.630  23.044  20.657 -0.1631 -0.1553 -0.0963
 1896DPPE   GL244608   5.550  22.719  20.538 -0.0631  0.0152  0.1352
 1896DPPE   C1A44609   6.004  22.943  20.423 -0.2117  0.0740  0.1810
 1896DPPE   C2A44610   5.987  22.983  19.921 -0.0553  0.1289  0.2445
 1896DPPE   C3A44611   6.109  23.105  19.373  0.1362  0.2183  0.1576
 1896DPPE   C4A44612   6.488  22.973  19.171  0.6018 -0.1617  0.0937
 1896DPPE   C1B44613   5.837  22.542  20.675  0.2631 -0.1598 -0.2185
 1896DPPE   C2B44614   6.356  22.490  20.660  0.2900  0.2349  0.0246
 1896DPPE   C3B44615   6.683  22.702  20.534  0.1681  0.0895 -0.2570
 1896DPPE   C4B44616   6.926  23.036  20.649  0.2437  0.0962 -0.1325
 1897DPPE   NH344617  20.864  19.747  21.496 -0.1857  0.1137 -0.1241
 1897DPPE   PO444618  21.005  19.328  21.462  0.0833 -0.1234 -0.0174
 1897DPPE   GL144619  20.935  19.609  20.995 -0.1631 -0.0240  0.0043
 1897DPPE   GL244620  20.617  19.871  21.038 -0.0144  0.2245 -0.2473
 1897DPPE   C1A44621  20.843  19.514  20.561 -0.0613  0.1302 -0.0703
 1897DPPE   C2A44622  20.758  19.418  20.194  0.3345 -0.0011 -0.0351
 1897DPPE   C3A44623  20.944  19.100  19.823 -0.3027 -0.2068  0.2115
 1897DPPE   C4A44624  20.842  18.912  19.434  0.0298 -0.3364 -0.3088
 1897DPPE   C1B44625  20.428  19.893  20.716  0.1046  0.0321 -0.1821
 1897DPPE   C2B44626  20.009  19.851  20.358 -0.0075 -0.1882  0.0278
 1897DPPE   C3B44627  19.663  20.005  19.960 -0.2260  0.0110 -0.3131
 1897DPPE   C4B44628  19.533  19.706  19.573 -0.0434 -0.3734 -0.1597
 1898DPPE   NH344629  15.785  26.085  21.412  0.2099 -0.0861 -0.0587
 1898DPPE   PO444630  16.098  25.839  21.457 -0.0374  0.2666 -0.2182
 1898DPPE   GL144631  16.210  25.959  20.950  0.0331 -0.2334 -0.1111
 1898DPPE   GL244632  16.411  26.176  20.786 -0.0068  0.3169  0.0043
 1898DPPE   C1A44633  15.962  25.928  20.541 -0.1831 -0.0949 -0.2271
 1898DPPE   C2A44634  16.267  25.977  20.136  0.0446 -0.0315  0.1893
 1898DPPE   C3A44635  16.276  25.802  19.684 -0.1378 -0.3729 -0.0224
 1898DPPE   C4A44636  16.494  25.913  19.343  0.0970 -0.1040 -0.0348
 1898DPPE   C1B44637  16.406  25.701  20.538  0.2669  0.3024  0.1303
 1898DPPE   C2B44638  16.464  25.294  20.466 -0.1790 -0.1962 -0.0889
 1898DPPE   C3B44639  16.292  24.961  20.414  0.0624 -0.0302 -0.0899
 1898DPPE   C4B44640  15.881  24.801  20.202 -0.1639  0.0046  0.1721
 1899DPPE   NH344641  12.275  13.980  22.815 -0.1883 -0.0343 -0.1478
 1899DPPE   PO444642  12.039  14.219  22.616 -0.0742 -0.2813 -0.0322
 1899DPPE   GL144643  12.099  14.083  22.258  0.0832  0.1248 -0.0152
 1899DPPE   GL244644  11.871  13.879  22.211 -0.2839  0.0897  0.0045
 1899DPPE   C1A44645  12.210  14.342  21.882  0.0741  0.0456  0.2869
 1899DPPE   C2A44646  12.178  14.579  21.406  0.1306  0.0653  0.0445
 1899DPPE   C3A44647  12.108  14.548  20.992 -0.0934 -0.0730 -0.2215
 1899DPPE   C4A44648  11.715  14.524  20.765  0.0250 -0.4196  0.1295
 1899DPPE   C1B44649  12.013  13.892  21.777  0.0967 -0.0607  0.0063
 1899DPPE   C2B44650  12.213  13.973  21.525 -0.1645  0.1452  0.1359
 1899DPPE   C3B44651  12.423  14.164  21.114  0.3125  0.2754  0.0829
 1899DPPE   C4B44652  12.567  14.127  20.618  0.0319 -0.4124  0.0007
 1900DPPE   NH344653  19.254  10.398  21.171  0.4893 -0.2280  0.1840
 1900DPPE   PO444654  18.800  10.257  21.299  0.0669 -0.0389  0.0772
 1900DPPE   GL144655  18.591  10.222  20.882 -0.1970 -0.0161  0.1020
 1900DPPE   GL244656  18.871  10.393  20.783 -0.2423 -0.2381  0.2309
 1900DPPE   C1A44657  18.266  10.381  20.790  0.0285 -0.3481  0.0705
 1900DPPE   C2A44658  18.142  10.409  20.398  0.1630 -0.1218  0.0684
 1900DPPE   C3A44659  18.316  10.777  20.128  0.1072 -0.0220  0.0239
 1900DPPE   C4A44660  18.425  10.903  19.783  0.1211 -0.1397 -0.3088
 1900DPPE   C1B44661  18.640  10.722  20.529  0.0633  0.1832 -0.0232
 1900DPPE   C2B44662  18.496  11.188  20.500  0.1061  0.0098  0.1208
 1900DPPE   C3B44663  18.111  11.329  20.477  0.0413  0.2558  0.1212
 1900DPPE   C4B44664  17.847  11.536  20.275 -0.1669  0.2041 -0.0623
 1901DPPE   NH344665  10.672  23.168  23.181 -0.3029  0.0385 -0.1033
 1901DPPE   PO444666  10.520  23.356  22.741  0.4622  0.0932  0.2048
 1901DPPE   GL144667  10.288  23.602  22.550  0.0882 -0.0409 -0.1435
 1901DPPE   GL244668  10.432  23.592  22.213 -0.0748  0.3898 -0.1489
 1901DPPE   C1A44669   9.876  23.649  22.326  0.1705 -0.1157  0.1574
 1901DPPE   C2A44670   9.735  23.536  21.884  0.2953 -0.1230 -0.3642
 1901DPPE   C3A44671   9.987  23.267  21.614  0.0502 -0.0298  0.1593
 1901DPPE   C4A44672  10.184  22.870  21.539 -0.0172 -0.1442  0.2578
 1901DPPE   C1B44673  10.253  23.966  22.210  0.0567 -0.0429 -0.3474
 1901DPPE   C2B44674   9.868  24.107  22.209  0.0947 -0.2456 -0.2316
 1901DPPE   C3B44675   9.494  23.961  22.124 -0.1342  0.1204 -0.0028
 1901DPPE   C4B44676   9.198  23.921  22.430  0.2834  0.2905 -0.1686
 1902DPPE   NH344677   9.178  17.676  22.547  0.1286  0.0926 -0.1976
 1902DPPE   PO444678   9.570  17.958  22.675 -0.0614  0.0293  0.2825
 1902DPPE   GL144679   9.786  18.278  22.360  0.4129 -0.5017  0.0676
 1902DPPE   GL244680   9.639  18.223  21.975 -0.0439  0.0938 -0.0273
 1902DPPE   C1A44681  10.016  18.592  22.121 -0.2054 -0.4967 -0.1998
 1902DPPE   C2A44682   9.837  18.783  21.809 -0.3882 -0.2880  0.0291
 1902DPPE   C3A44683   9.684  18.699  21.473 -0.0623 -0.1780  0.1614
 1902DPPE   C4A44684   9.640  18.608  21.025 -0.3243  0.0183  0.1413
 1902DPPE   C1B44685   9.528  18.112  21.498 -0.1858 -0.0801 -0.0951
 1902DPPE   C2B44686   9.480  18.001  21.030 -0.1873 -0.1734  0.0720
 1902DPPE   C3B44687   9.282  18.024  20.562 -0.1085  0.0502  0.0789
 1902DPPE   C4B44688   9.004  18.127  20.180  0.0447  0.0502 -0.2660
 1903DPPE   NH344689  11.903  14.658  22.821  0.0411 -0.1001  0.1906
 1903DPPE   PO444690  11.557  14.325  22.745 -0.1332  0.1943  0.1021
 1903DPPE   GL144691  11.533  14.247  22.319  0.2656 -0.1028 -0.1038
 1903DPPE   GL244692  11.349  14.229  22.188  0.0075 -0.0482 -0.1759
 1903DPPE   C1A44693  11.622  14.506  21.846 -0.1010  0.3323  0.0627
 1903DPPE   C2A44694  11.757  14.273  21.426  0.4698 -0.5070 -0.0951
 1903DPPE   C3A44695  11.811  14.121  21.075 -0.1479  0.2078 -0.2553
 1903DPPE   C4A44696  11.674  13.726  20.848  0.0007 -0.3265 -0.2748
 1903DPPE   C1B44697  11.551  14.027  21.842  0.0221  0.1825  0.1076
 1903DPPE   C2B44698  11.333  13.815  21.536  0.2031  0.0438  0.0052
 1903DPPE   C3B44699  11.189  13.586  21.157 -0.0195 -0.1164  0.4668
 1903DPPE   C4B44700  11.166  13.327  20.896 -0.0336 -0.2813 -0.1540
 1904DPPE   NH344701  14.591  23.536  22.225  0.2364  0.4134  0.2307
 1904DPPE   PO444702  14.869  23.871  22.037  0.3510 -0.0475 -0.2117
 1904DPPE   GL144703  14.897  23.689  21.712  0.0048  0.1959 -0.1032
 1904DPPE   GL244704  15.164  23.626  21.684  0.1050 -0.3454  0.1651
 1904DPPE   C1A44705  14.780  23.496  21.354 -0.0747  0.4449  0.0835
 1904DPPE   C2A44706  14.634  23.242  21.259 -0.1440  0.1369  0.0028
 1904DPPE   C3A44707  14.508  23.006  20.925  0.3472  0.2156  0.1289
 1904DPPE   C4A44708  14.669  22.676  20.627 -0.0992 -0.0420  0.1378
 1904DPPE   C1B44709  15.338  23.531  21.275  0.1878 -0.1910  0.1306
 1904DPPE   C2B44710  15.014  23.515  20.916  0.0902  0.1449 -0.0887
 1904DPPE   C3B44711  14.801  23.551  20.485  0.4114  0.1316 -0.2419
 1904DPPE   C4B44712  14.853  23.619  20.030 -0.0263 -0.2092  0.1489
 1905DPPE   NH344713  18.190   9.181  21.208 -0.0360  0.1412 -0.0163
 1905DPPE   PO444714  17.981   9.564  21.570  0.1938  0.1521 -0.1065
 1905DPPE   GL144715  17.815   9.586  21.107 -0.1512  0.0675  0.1681
 1905DPPE   GL244716  17.934   9.325  20.837 -0.1021 -0.1372  0.0946
 1905DPPE   C1A44717  17.569   9.661  20.839 -0.1546 -0.5022  0.2346
 1905DPPE   C2A44718  17.454   9.780  20.330  0.0711  0.3820 -0.3319
 1905DPPE   C3A44719  17.436   9.789  19.777 -0.0759  0.0931 -0.1256
 1905DPPE   C4A44720  17.441   9.867  19.377 -0.2162  0.1255  0.1724
 1905DPPE   C1B44721  17.674   9.287  20.433  0.2236 -0.0804 -0.1966
 1905DPPE   C2B44722  17.542   9.302  20.039  0.1890 -0.1995 -0.2359
 1905DPPE   C3B44723  17.336   9.240  19.670  0.0205  0.2361  0.1696
 1905DPPE   C4B44724  17.071   9.275  19.323 -0.1166  0.1214  0.3457
 1906DPPE   NH344725  18.466  10.557  21.636 -0.0278 -0.1263 -0.0703
 1906DPPE   PO444726  18.102  10.447  21.728 -0.0076  0.0017  0.2440
 1906DPPE   GL144727  17.968  10.638  21.386  0.1772  0.0866  0.4076
 1906DPPE   GL244728  18.086  10.996  21.274 -0.1164  0.0076  0.1252
 1906DPPE   C1A44729  17.824  10.464  21.005  0.2328  0.0323  0.2104
 1906DPPE   C2A44730  17.667  10.439  20.559 -0.0872  0.3152 -0.3209
 1906DPPE   C3A44731  17.427  10.340  20.172  0.1821 -0.2988  0.1122
 1906DPPE   C4A44732  17.470  10.399  19.769  0.4209 -0.2063 -0.1934
 1906DPPE   C1B44733  18.288  11.260  21.002  0.0443 -0.0914  0.3200
 1906DPPE   C2B44734  18.166  11.671  20.864 -0.0675 -0.1475  0.1738
 1906DPPE   C3B44735  18.196  11.938  20.490 -0.0055  0.1603 -0.1666
 1906DPPE   C4B44736  18.096  12.025  20.114 -0.0448  0.0736 -0.0483
 1907DPPE   NH344737  14.320  27.020  20.826 -0.0857 -0.1215 -0.0607
 1907DPPE   PO444738  13.909  26.771  20.780 -0.4659  0.1735 -0.0451
 1907DPPE   GL144739  13.655  26.431  20.479  0.1879 -0.0925 -0.1000
 1907DPPE   GL244740  13.464  26.645  20.410 -0.2791 -0.0609 -0.1468
 1907DPPE   C1A44741  13.474  26.076  20.271  0.1893 -0.0311 -0.0730
 1907DPPE   C2A44742  13.625  26.063  19.833  0.3155 -0.3808 -0.1577
 1907DPPE   C3A44743  13.713  26.390  19.580 -0.3619 -0.1061  0.0586
 1907DPPE   C4A44744  13.769  26.818  19.443  0.0736  0.0901  0.2821
 1907DPPE   C1B44745  13.305  26.447  19.976  0.0381  0.1487  0.4420
 1907DPPE   C2B44746  13.275  26.232  19.506 -0.2519  0.2057 -0.0110
 1907DPPE   C3B44747  12.962  26.196  19.178 -0.2807  0.1995  0.2798
 1907DPPE   C4B44748  12.726  26.151  18.849 -0.1777  0.1364 -0.3262
 1908DPPE   NH344749  21.055  13.105  21.346 -0.0822 -0.1750 -0.3905
 1908DPPE   PO444750  20.828  12.730  21.267 -0.0204 -0.0145  0.4067
 1908DPPE   GL144751  20.543  13.053  21.318  0.1028  0.1198 -0.0490
 1908DPPE   GL244752  20.516  13.079  21.000  0.0841  0.0717  0.1646
 1908DPPE   C1A44753  20.084  13.042  21.344  0.1477  0.1501 -0.2431
 1908DPPE   C2A44754  20.002  12.899  21.046 -0.0461 -0.1084  0.0765
 1908DPPE   C3A44755  20.144  12.963  20.610 -0.2583  0.2339 -0.2674
 1908DPPE   C4A44756  20.541  13.146  20.500 -0.0308 -0.1844  0.0698
 1908DPPE   C1B44757  20.200  13.381  20.845  0.3300 -0.0991 -0.3151
 1908DPPE   C2B44758  19.822  13.675  20.460  0.0227  0.2701 -0.1708
 1908DPPE   C3B44759  19.487  13.692  20.128  0.1846  0.1193  0.2884
 1908DPPE   C4B44760  19.167  13.900  19.765 -0.3934 -0.0559  0.0715
 1909DPPE   NH344761  11.856  10.389  22.431 -0.2743  0.1321 -0.1712
 1909DPPE   PO444762  12.088  10.004  22.427  0.2473 -0.0086  0.1860
 1909DPPE   GL144763  12.301   9.821  22.068  0.2946 -0.1652 -0.0806
 1909DPPE   GL244764  12.077   9.634  21.808  0.0229  0.3023 -0.1787
 1909DPPE   C1A44765  12.681   9.848  21.754  0.1359 -0.0587 -0.0141
 1909DPPE   C2A44766  12.851  10.041  21.406  0.1989 -0.0578 -0.1457
 1909DPPE   C3A44767  13.184  10.157  21.071 -0.0613  0.0497 -0.1135
 1909DPPE   C4A44768  13.470  10.245  20.721 -0.0825 -0.2988  0.1522
 1909DPPE   C1B44769  11.912   9.623  21.408  0.4168  0.0424  0.2303
 1909DPPE   C2B44770  11.755   9.842  21.002 -0.1939 -0.1308 -0.0286
 1909DPPE   C3B44771  11.626  10.018  20.689 -0.2823 -0.0340 -0.2099
 1909DPPE   C4B44772  11.471  10.357  20.391  0.1360 -0.1420  0.1239
 1910DPPE   NH344773  10.972   7.464  20.089  0.0896  0.3661 -0.4362
 1910DPPE   PO444774  10.860   7.181  19.732  0.1372 -0.3447 -0.0323
 1910DPPE   GL144775  11.118   7.510  19.591  0.1726 -0.1273  0.0192
 1910DPPE   GL244776  11.296   7.375  19.310 -0.0639 -0.0056  0.1494
 1910DPPE   C1A44777  11.314   7.921  19.455 -0.0425 -0.0047 -0.0428
 1910DPPE   C2A44778  11.784   7.889  19.510  0.1933 -0.2839  0.0714
 1910DPPE   C3A44779  12.200   7.856  19.653  0.0992 -0.0252 -0.2711
 1910DPPE   C4A44780  12.584   7.992  19.868  0.0001  0.2153  0.0598
 1910DPPE   C1B44781  11.192   7.459  18.948 -0.0673  0.0443  0.0891
 1910DPPE   C2B44782  11.064   7.700  18.589  0.0282  0.0749 -0.0915
 1910DPPE   C3B44783  11.018   7.924  18.161  0.2149 -0.0623 -0.2200
 1910DPPE   C4B44784  10.686   7.823  17.902  0.1043 -0.0186  0.1703
 1911DPPE   NH344785  16.619  20.368  22.922  0.1274  0.1098  0.0514
 1911DPPE   PO444786  16.727  20.060  23.158 -0.2973  0.4599 -0.0649
 1911DPPE   GL144787  16.426  19.899  22.752 -0.0263  0.2396  0.3954
 1911DPPE   GL244788  16.168  19.745  22.831  0.1316 -0.1497  0.3846
 1911DPPE   C1A44789  16.312  19.831  22.284 -0.1468 -0.1919  0.0142
 1911DPPE   C2A44790  16.335  19.684  21.853  0.1462 -0.1515  0.0519
 1911DPPE   C3A44791  15.936  19.348  21.758 -0.0867  0.0898 -0.1015
 1911DPPE   C4A44792  15.634  19.102  21.505 -0.0387 -0.2074  0.0842
 1911DPPE   C1B44793  15.825  19.852  22.426 -0.0857 -0.2010  0.0703
 1911DPPE   C2B44794  15.808  19.803  22.009  0.1090  0.1317  0.2861
 1911DPPE   C3B44795  15.806  19.850  21.489  0.0107  0.3011  0.2034
 1911DPPE   C4B44796  15.661  20.324  21.359  0.1704 -0.1881 -0.1828
 1912DPPE   NH344797   8.968  14.355  22.096 -0.2415 -0.1229  0.1299
 1912DPPE   PO444798   8.880  14.579  21.780 -0.1432 -0.0552  0.3186
 1912DPPE   GL144799   8.754  14.640  21.501 -0.0415  0.3622  0.1221
 1912DPPE   GL244800   8.440  14.476  21.582 -0.2897 -0.0050 -0.2651
 1912DPPE   C1A44801   8.351  14.713  21.139 -0.0451  0.3743 -0.0632
 1912DPPE   C2A44802   7.933  14.628  21.055 -0.1509  0.2016  0.1985
 1912DPPE   C3A44803   7.484  14.405  21.061  0.0271  0.3921  0.1400
 1912DPPE   C4A44804   7.080  14.578  21.128  0.0721 -0.1653  0.1025
 1912DPPE   C1B44805   8.603  14.251  21.191  0.0381 -0.2460 -0.0274
 1912DPPE   C2B44806   8.336  14.148  20.846  0.1181  0.0077 -0.4130
 1912DPPE   C3B44807   7.918  14.161  20.783  0.4521 -0.0113  0.0346
 1912DPPE   C4B44808   7.597  13.941  21.186 -0.3342  0.2134 -0.2744
 1913DPPE   NH344809  20.363  18.759  22.444  0.1333  0.4068 -0.2656
 1913DPPE   PO444810  20.561  18.353  22.531 -0.0702 -0.3035 -0.1032
 1913DPPE   GL144811  20.332  18.313  22.144  0.0157  0.2239 -0.2694
 1913DPPE   GL244812  20.388  18.448  21.829  0.1637  0.4212 -0.1722
 1913DPPE   C1A44813  19.864  18.347  21.883 -0.3634  0.2798 -0.0026
 1913DPPE   C2A44814  19.718  18.227  21.455  0.0006 -0.0857 -0.1563
 1913DPPE   C3A44815  19.553  18.034  21.101  0.2433 -0.1799  0.5533
 1913DPPE   C4A44816  19.377  17.711  20.800 -0.0983  0.0292  0.2100
 1913DPPE   C1B44817  20.217  18.136  21.591 -0.2267 -0.1976 -0.1941
 1913DPPE   C2B44818  20.404  17.636  21.599 -0.4886 -0.0447 -0.0579
 1913DPPE   C3B44819  20.110  17.395  21.760 -0.1449  0.0430 -0.1362
 1913DPPE   C4B44820  19.941  16.907  21.773 -0.1588  0.3683  0.3771
 1914DPPE   NH344821  13.533  21.900  22.660  0.2392 -0.1992  0.2237
 1914DPPE   PO444822  13.888  21.893  22.683 -0.1751 -0.0978  0.1819
 1914DPPE   GL144823  13.932  21.729  22.322  0.4122  0.0680 -0.2818
 1914DPPE   GL244824  13.633  21.618  22.224 -0.0448  0.0748 -0.0372
 1914DPPE   C1A44825  14.301  21.520  22.064 -0.0969 -0.0967  0.0386
 1914DPPE   C2A44826  14.401  21.290  21.666 -0.0483 -0.2719  0.1991
 1914DPPE   C3A44827  14.722  21.244  21.325  0.1177 -0.1552 -0.1006
 1914DPPE   C4A44828  14.756  21.330  20.878  0.3983 -0.1565 -0.2117
 1914DPPE   C1B44829  13.833  21.512  21.888  0.2150 -0.2078 -0.1519
 1914DPPE   C2B44830  13.844  21.158  21.682 -0.1556  0.2492 -0.0791
 1914DPPE   C3B44831  14.119  21.003  21.336 -0.0514 -0.2023  0.4001
 1914DPPE   C4B44832  14.367  20.764  21.175 -0.1497 -0.1247 -0.0812
 1915DPPE   NH344833  17.102  24.631  22.023  0.0726 -0.0332 -0.1466
 1915DPPE   PO444834  16.949  24.194  22.030 -0.5385 -0.1127 -0.1017
 1915DPPE   GL144835  16.808  23.846  21.673  0.2765  0.1918 -0.1372
 1915DPPE   GL244836  16.393  23.909  21.567 -0.0736  0.2096  0.2008
 1915DPPE   C1A44837  16.896  23.571  21.467 -0.3314  0.1762 -0.1377
 1915DPPE   C2A44838  17.009  23.545  21.136  0.1525  0.3771 -0.0572
 1915DPPE   C3A44839  16.954  23.413  20.720  0.0638  0.2461 -0.1034
 1915DPPE   C4A44840  16.832  23.124  20.338  0.1081 -0.0893  0.1837
 1915DPPE   C1B44841  16.107  23.613  21.297 -0.1511 -0.3351 -0.0006
 1915DPPE   C2B44842  16.061  23.209  21.238 -0.1215 -0.1518 -0.0265
 1915DPPE   C3B44843  15.923  23.096  20.728 -0.1056  0.1938 -0.2250
 1915DPPE   C4B44844  15.898  22.849  20.314 -0.1036  0.1546 -0.3520
 1916DPPE   NH344845  14.861  26.566  21.497 -0.1764  0.1778 -0.1508
 1916DPPE   PO444846  14.594  26.297  21.312  0.0518  0.2147  0.0870
 1916DPPE   GL144847  14.727  26.285  20.895 -0.0868 -0.0765  0.2549
 1916DPPE   GL244848  14.609  26.539  20.697  0.0113 -0.1688  0.0068
 1916DPPE   C1A44849  14.880  26.186  20.472  0.1714  0.0477  0.0902
 1916DPPE   C2A44850  14.891  26.078  20.119  0.0245 -0.3702 -0.1768
 1916DPPE   C3A44851  14.597  25.896  19.712 -0.1462 -0.0220  0.1481
 1916DPPE   C4A44852  14.777  25.819  19.357 -0.0461 -0.1897 -0.1568
 1916DPPE   C1B44853  14.338  26.224  20.599 -0.2570 -0.1551  0.0351
 1916DPPE   C2B44854  14.333  25.829  20.476  0.0843  0.0873 -0.3025
 1916DPPE   C3B44855  14.493  25.614  20.120  0.0661 -0.1707 -0.1951
 1916DPPE   C4B44856  14.846  25.474  19.887  0.3907 -0.1590  0.0546
 1917DPPE   NH344857  10.730   6.689  19.179  0.0465 -0.0928 -0.0858
 1917DPPE   PO444858  10.524   6.901  19.481 -0.2040  0.1421 -0.1255
 1917DPPE   GL144859  10.585   7.405  19.339 -0.1698 -0.0448 -0.3581
 1917DPPE   GL244860  10.351   7.553  19.238 -0.0520  0.3358 -0.0655
 1917DPPE   C1A44861  10.890   7.735  19.201 -0.0166  0.0134  0.0386
 1917DPPE   C2A44862  10.851   8.101  19.494  0.1025  0.0373  0.0120
 1917DPPE   C3A44863  11.125   8.395  19.464  0.3421 -0.1111  0.2454
 1917DPPE   C4A44864  11.544   8.357  19.291  0.2953  0.2186 -0.0306
 1917DPPE   C1B44865  10.184   7.826  18.980  0.2240  0.1387 -0.0221
 1917DPPE   C2B44866   9.802   8.121  18.966 -0.1742 -0.2252  0.0079
 1917DPPE   C3B44867   9.702   8.459  19.214  0.3702 -0.0243  0.3065
 1917DPPE   C4B44868   9.700   8.762  19.220 -0.2236  0.2979  0.0125
 1918DPPE   NH344869   8.323  13.715  22.007  0.1712  0.1739 -0.0219
 1918DPPE   PO444870   8.576  13.414  22.263 -0.0694  0.2682  0.1400
 1918DPPE   GL144871   8.349  13.135  22.056  0.3479 -0.2107 -0.0498
 1918DPPE   GL244872   8.036  13.215  21.948  0.3584  0.0521  0.0945
 1918DPPE   C1A44873   8.400  12.750  21.845 -0.0046 -0.0089  0.1011
 1918DPPE   C2A44874   8.511  12.581  21.394 -0.2201  0.0728  0.1086
 1918DPPE   C3A44875   8.804  12.371  21.122  0.0356  0.1165 -0.1353
 1918DPPE   C4A44876   8.831  11.926  21.135  0.1989  0.0952  0.4256
 1918DPPE   C1B44877   8.195  13.130  21.520 -0.0861  0.0234  0.0151
 1918DPPE   C2B44878   8.240  13.089  21.130 -0.1860  0.1579 -0.1021
 1918DPPE   C3B44879   8.382  12.928  20.869  0.1892  0.0967  0.1715
 1918DPPE   C4B44880   8.804  12.826  20.856 -0.0408 -0.0998  0.1223
 1919DPPE   NH344881  14.450  19.021  23.370 -0.1116  0.0680 -0.1388
 1919DPPE   PO444882  14.051  18.641  23.323 -0.0473 -0.0277 -0.0395
 1919DPPE   GL144883  14.346  18.740  22.960  0.1866 -0.1205 -0.1993
 1919DPPE   GL244884  14.179  18.461  22.868  0.1505  0.0338 -0.0530
 1919DPPE   C1A44885  14.281  19.131  22.649  0.0252  0.2753 -0.0217
 1919DPPE   C2A44886  14.042  19.452  22.370  0.0438 -0.0210  0.0643
 1919DPPE   C3A44887  13.797  19.319  22.116  0.1602 -0.0212  0.0438
 1919DPPE   C4A44888  13.362  19.370  22.127 -0.0411  0.0588  0.2275
 1919DPPE   C1B44889  14.336  18.272  22.495 -0.0059  0.0187  0.0091
 1919DPPE   C2B44890  14.416  18.109  22.081  0.1213  0.2243  0.0345
 1919DPPE   C3B44891  14.274  18.145  21.648  0.1468 -0.1699 -0.0081
 1919DPPE   C4B44892  14.254  18.275  21.353 -0.0729 -0.2720  0.2129
 1920DPPE   NH344893  17.005  22.050  23.386  0.0032  0.1238  0.3064
 1920DPPE   PO444894  16.962  21.897  22.926 -0.1860 -0.0464 -0.0912
 1920DPPE   GL144895  17.054  21.846  22.470 -0.0687  0.3348 -0.0924
 1920DPPE   GL244896  17.299  22.006  22.209  0.1294  0.1635 -0.0637
 1920DPPE   C1A44897  17.103  21.561  22.112  0.1140 -0.0970  0.0161
 1920DPPE   C2A44898  17.046  21.256  21.769 -0.3514  0.0450 -0.0204
 1920DPPE   C3A44899  16.924  20.779  21.695  0.0650  0.2173 -0.2913
 1920DPPE   C4A44900  17.146  20.436  21.960  0.2106  0.1228 -0.1507
 1920DPPE   C1B44901  16.949  21.978  21.910  0.1885  0.0586  0.0174
 1920DPPE   C2B44902  16.766  21.963  21.588  0.3327 -0.1619  0.1626
 1920DPPE   C3B44903  16.413  21.857  21.385 -0.1172  0.0779  0.0200
 1920DPPE   C4B44904  16.141  21.828  21.067  0.1446  0.1524 -0.2237
 1921DPPE   NH344905   8.438  19.861  22.839  0.0397  0.0005  0.0970
 1921DPPE   PO444906   8.590  19.476  22.601 -0.0308 -0.2133  0.3731
 1921DPPE   GL144907   8.686  19.449  22.171 -0.3133 -0.1874  0.0816
 1921DPPE   GL244908   8.568  19.179  22.005  0.0230  0.0703 -0.3374
 1921DPPE   C1A44909   9.030  19.440  21.910  0.1956 -0.1038 -0.2655
 1921DPPE   C2A44910   9.429  19.646  21.849 -0.1995  0.2210  0.0337
 1921DPPE   C3A44911   9.938  19.609  21.703 -0.1748 -0.1715  0.1652
 1921DPPE   C4A44912  10.160  19.603  21.346  0.0212 -0.0767  0.1578
 1921DPPE   C1B44913   8.788  19.007  21.686  0.0505  0.4385 -0.0881
 1921DPPE   C2B44914   8.775  18.696  21.453 -0.0022  0.0426  0.1925
 1921DPPE   C3B44915   8.621  18.715  21.062  0.1059 -0.0236 -0.1810
 1921DPPE   C4B44916   8.283  18.438  20.852 -0.0014 -0.0883  0.2760
 1922DPPE   NH344917  17.513  17.439  23.745  0.1371  0.1084 -0.0864
 1922DPPE   PO444918  17.838  17.566  23.527  0.1009  0.1215  0.0867
 1922DPPE   GL144919  17.707  17.821  23.112 -0.4749  0.0695  0.2267
 1922DPPE   GL244920  17.457  17.746  22.844  0.3662 -0.0363 -0.0689
 1922DPPE   C1A44921  17.490  18.279  23.023  0.0193  0.0495 -0.2046
 1922DPPE   C2A44922  17.106  18.446  23.005 -0.3047 -0.1219 -0.1918
 1922DPPE   C3A44923  16.873  18.594  22.603 -0.0840  0.2581  0.0019
 1922DPPE   C4A44924  16.605  18.669  22.263 -0.1331  0.0288 -0.1453
 1922DPPE   C1B44925  17.710  18.003  22.609 -0.2977 -0.2917 -0.0737
 1922DPPE   C2B44926  17.959  17.928  22.157 -0.0758  0.4273 -0.0542
 1922DPPE   C3B44927  18.211  18.164  21.722  0.0740  0.2466 -0.1637
 1922DPPE   C4B44928  18.098  18.263  21.236 -0.0685 -0.0395 -0.0918
 1923DPPE   NH344929  14.938  12.764  22.747 -0.0514 -0.0033  0.3873
 1923DPPE   PO444930  14.761  13.182  22.811 -0.1360 -0.0015 -0.5404
 1923DPPE   GL144931  14.586  13.344  22.472  0.2130 -0.2375  0.1043
 1923DPPE   GL244932  14.781  13.259  22.257 -0.0399 -0.1397 -0.3283
 1923DPPE   C1A44933  14.485  13.615  22.099  0.2907  0.2768  0.0230
 1923DPPE   C2A44934  14.302  13.697  21.744  0.0213  0.5222  0.0284
 1923DPPE   C3A44935  14.155  13.610  21.282 -0.0066 -0.0728  0.1065
 1923DPPE   C4A44936  14.250  13.418  20.898 -0.1275  0.0819  0.0023
 1923DPPE   C1B44937  14.812  13.247  21.828  0.2178 -0.0140 -0.3921
 1923DPPE   C2B44938  15.088  13.184  21.462 -0.2066 -0.2825  0.1258
 1923DPPE   C3B44939  15.215  13.260  21.106  0.0271  0.2445 -0.0540
 1923DPPE   C4B44940  15.472  13.019  20.873 -0.4001 -0.2087  0.3740
 1924DPPE   NH344941  15.032  20.407  23.101 -0.1650  0.1306 -0.1689
 1924DPPE   PO444942  15.248  20.800  22.956  0.0256  0.0766 -0.0670
 1924DPPE   GL144943  15.030  20.633  22.586 -0.2614 -0.0185 -0.2231
 1924DPPE   GL244944  14.938  20.798  22.293  0.0619 -0.2712  0.3383
 1924DPPE   C1A44945  14.811  20.324  22.467 -0.1135  0.1111  0.0090
 1924DPPE   C2A44946  14.495  20.028  22.352 -0.2587 -0.1393  0.0770
 1924DPPE   C3A44947  14.215  19.793  22.026 -0.0823  0.2012  0.0642
 1924DPPE   C4A44948  14.212  19.484  21.757  0.0077  0.1134 -0.0461
 1924DPPE   C1B44949  14.697  20.527  22.016 -0.2788 -0.0651 -0.0699
 1924DPPE   C2B44950  14.787  20.196  21.889 -0.0469  0.0622  0.5035
 1924DPPE   C3B44951  14.586  19.910  21.694  0.1672 -0.0936 -0.3145
 1924DPPE   C4B44952  14.631  19.698  21.289 -0.1855 -0.1362  0.2344
 1925DPPE   NH344953  12.263  24.746  22.064 -0.1434 -0.0369  0.2113
 1925DPPE   PO444954  12.212  24.346  22.083  0.0612  0.1950 -0.0774
 1925DPPE   GL144955  12.299  24.371  21.685  0.0186 -0.0535  0.0186
 1925DPPE   GL244956  12.536  24.607  21.519  0.0864  0.5041 -0.0905
 1925DPPE   C1A44957  12.013  24.396  21.449  0.0988  0.0385  0.1049
 1925DPPE   C2A44958  11.997  24.533  21.056  0.0061 -0.2523  0.3810
 1925DPPE   C3A44959  11.827  24.894  20.757 -0.1019 -0.1166 -0.2614
 1925DPPE   C4A44960  11.912  25.199  20.514 -0.1219  0.1254  0.0061
 1925DPPE   C1B44961  12.481  24.492  21.112 -0.0827  0.0261 -0.0388
 1925DPPE   C2B44962  12.377  24.381  20.688  0.0157 -0.0607 -0.1560
 1925DPPE   C3B44963  12.116  24.043  20.644  0.3863  0.4629 -0.4171
 1925DPPE   C4B44964  12.291  23.585  20.638  0.0702 -0.0913  0.0278
 1926DPPE   NH344965  20.048  11.464  21.487 -0.1223 -0.0234  0.4923
 1926DPPE   PO444966  20.109  11.078  21.229  0.0935 -0.0119  0.0891
 1926DPPE   GL144967  19.790  11.253  20.942 -0.0094 -0.2906 -0.1158
 1926DPPE   GL244968  19.586  11.686  20.963  0.0259 -0.1840 -0.0348
 1926DPPE   C1A44969  19.395  11.223  20.689  0.0289  0.3113  0.2176
 1926DPPE   C2A44970  18.981  11.454  20.606 -0.1562 -0.1642  0.3493
 1926DPPE   C3A44971  18.639  11.655  20.711 -0.1292 -0.1920 -0.1854
 1926DPPE   C4A44972  18.541  11.929  21.141 -0.0856 -0.1702 -0.0866
 1926DPPE   C1B44973  19.449  11.838  20.567  0.0220 -0.1143  0.3686
 1926DPPE   C2B44974  19.241  12.027  20.187 -0.0784 -0.3001 -0.3128
 1926DPPE   C3B44975  19.455  12.249  19.783 -0.0745  0.0897  0.1307
 1926DPPE   C4B44976  19.742  12.397  19.526  0.2316 -0.0090  0.0711
 1927DPPE   NH344977  19.274  20.717  22.060 -0.1484 -0.2845  0.0907
 1927DPPE   PO444978  19.473  20.502  21.923 -0.4606  0.0569  0.0408
 1927DPPE   GL144979  19.096  20.455  21.619  0.0576  0.1383 -0.1653
 1927DPPE   GL244980  18.815  20.491  21.770 -0.1868 -0.3196 -0.1020
 1927DPPE   C1A44981  19.130  20.275  21.225 -0.1691 -0.1274 -0.1009
 1927DPPE   C2A44982  19.500  20.249  20.922  0.0614  0.0869 -0.0347
 1927DPPE   C3A44983  19.733  19.885  20.756 -0.4072  0.1178 -0.0367
 1927DPPE   C4A44984  19.870  19.389  20.750 -0.2538  0.1406  0.1560
 1927DPPE   C1B44985  18.704  20.075  21.565 -0.3530 -0.2384  0.0956
 1927DPPE   C2B44986  18.903  19.858  21.255 -0.1284  0.3630 -0.2393
 1927DPPE   C3B44987  18.861  20.040  20.874  0.1601  0.0322 -0.1521
 1927DPPE   C4B44988  18.738  20.148  20.322 -0.1343 -0.1356  0.0395
 1928DPPE   NH344989   7.070  20.819  22.602 -0.3029  0.2525  0.0575
 1928DPPE   PO444990   6.902  21.227  22.503  0.0949 -0.1298 -0.0192
 1928DPPE   GL144991   6.732  20.891  22.250 -0.1633  0.3125 -0.2808
 1928DPPE   GL244992   6.566  20.808  22.462 -0.3563  0.2630  0.2868
 1928DPPE   C1A44993   6.632  20.562  21.953  0.2300 -0.2085 -0.1789
 1928DPPE   C2A44994   6.371  20.223  21.746  0.1865  0.2806  0.0627
 1928DPPE   C3A44995   6.280  19.962  21.464 -0.1056 -0.2233  0.0616
 1928DPPE   C4A44996   6.236  19.905  21.063 -0.2173  0.0299  0.1922
 1928DPPE   C1B44997   6.473  20.338  22.432 -0.0844  0.0181 -0.0081
 1928DPPE   C2B44998   6.379  20.052  22.752 -0.2188  0.3165  0.2285
 1928DPPE   C3B44999   6.298  19.628  23.003  0.1083  0.2103 -0.0814
 1928DPPE   C4B45000   6.096  19.287  23.087  0.5720 -0.0212  0.3599
 1929DPPE   NH345001  11.949   7.653  21.175 -0.2458  0.1335  0.0658
 1929DPPE   PO445002  12.345   8.012  21.053  0.2273 -0.1813  0.3180
 1929DPPE   GL145003  12.185   8.293  20.757  0.0005 -0.3011 -0.2282
 1929DPPE   GL245004  12.024   8.061  20.513 -0.2720 -0.0066  0.0060
 1929DPPE   C1A45005  11.897   8.517  20.689  0.1309  0.3267  0.1306
 1929DPPE   C2A45006  11.474   8.693  20.376  0.1936  0.0088  0.1386
 1929DPPE   C3A45007  11.047   8.928  20.268  0.0780 -0.1718  0.2451
 1929DPPE   C4A45008  10.556   9.141  20.256 -0.2068  0.0553 -0.1403
 1929DPPE   C1B45009  11.965   8.334  20.231 -0.2461 -0.1064  0.0236
 1929DPPE   C2B45010  11.917   8.788  20.100  0.1435 -0.1222 -0.0979
 1929DPPE   C3B45011  11.765   9.079  19.887 -0.2963 -0.0088  0.0931
 1929DPPE   C4B45012  11.650   9.276  19.428  0.1664  0.0204 -0.1693
 1930DPPE   NH345013  15.205  16.200  23.149 -0.0653 -0.1095 -0.0819
 1930DPPE   PO445014  15.542  16.517  23.258  0.1496  0.1045 -0.1343
 1930DPPE   GL145015  15.671  16.655  22.888  0.0948 -0.0768  0.4268
 1930DPPE   GL245016  15.987  16.497  22.861  0.1707 -0.2683 -0.2307
 1930DPPE   C1A45017  15.743  16.845  22.512  0.1247  0.3385  0.3714
 1930DPPE   C2A45018  15.955  16.915  22.059  0.2410 -0.0690  0.0019
 1930DPPE   C3A45019  16.232  17.204  21.872  0.0011  0.5048 -0.0705
 1930DPPE   C4A45020  16.477  17.635  21.735 -0.1061 -0.1779  0.1865
 1930DPPE   C1B45021  16.386  16.651  22.610 -0.1947 -0.0903 -0.0906
 1930DPPE   C2B45022  16.419  17.065  22.324 -0.0743  0.0449 -0.0244
 1930DPPE   C3B45023  16.674  17.375  22.232  0.2308  0.3716 -0.1643
 1930DPPE   C4B45024  16.908  17.648  21.864  0.1522  0.1469  0.1350
 1931DPPE   NH345025  15.053  16.720  23.358  0.0567 -0.0596 -0.2609
 1931DPPE   PO445026  14.641  16.689  23.458  0.0036  0.2105  0.0110
 1931DPPE   GL145027  14.432  16.820  23.000 -0.0666  0.1153 -0.3524
 1931DPPE   GL245028  14.285  16.570  22.861 -0.0701 -0.0686  0.1216
 1931DPPE   C1A45029  14.633  16.858  22.663 -0.0150  0.1613  0.2302
 1931DPPE   C2A45030  14.701  16.881  22.218  0.2824  0.0020  0.1826
 1931DPPE   C3A45031  14.948  16.785  21.899 -0.1180  0.1267  0.0521
 1931DPPE   C4A45032  14.865  16.816  21.476  0.0291 -0.0951  0.0470
 1931DPPE   C1B45033  14.110  16.371  22.508 -0.1298  0.1341 -0.1062
 1931DPPE   C2B45034  14.030  16.430  22.024  0.1080 -0.1561 -0.1624
 1931DPPE   C3B45035  14.071  16.332  21.565 -0.1229 -0.2261  0.0255
 1931DPPE   C4B45036  14.513  16.141  21.474  0.0080  0.0493 -0.0408
 1932DPPE   NH345037  16.024  17.689  23.315  0.0956 -0.1011 -0.0396
 1932DPPE   PO445038  15.795  17.394  23.167  0.2911  0.0479  0.3051
 1932DPPE   GL145039  15.601  17.254  22.747 -0.1221  0.2368  0.2028
 1932DPPE   GL245040  15.317  17.122  22.698 -0.4005 -0.2186 -0.1145
 1932DPPE   C1A45041  15.497  17.162  22.229 -0.2951  0.1620  0.0144
 1932DPPE   C2A45042  15.209  17.161  21.936 -0.0072 -0.1796 -0.0686
 1932DPPE   C3A45043  15.217  17.195  21.468  0.1595  0.1565 -0.1868
 1932DPPE   C4A45044  15.528  17.045  21.192  0.0044  0.0564 -0.3166
 1932DPPE   C1B45045  15.165  17.467  22.399 -0.0560 -0.0058 -0.0333
 1932DPPE   C2B45046  15.376  17.629  21.991  0.1268  0.0434 -0.2920
 1932DPPE   C3B45047  15.327  17.771  21.593  0.1667  0.1463  0.0814
 1932DPPE   C4B45048  15.520  17.501  21.293 -0.0133  0.0152  0.1646
 1933DPPE   NH345049  18.832   7.727  19.195  0.0950  0.0334  0.0040
 1933DPPE   PO445050  18.631   8.059  19.458  0.1735  0.2389 -0.1680
 1933DPPE   GL145051  18.535   8.260  19.165 -0.0347 -0.0378 -0.1183
 1933DPPE   GL245052  18.256   8.062  19.051 -0.2390 -0.1701 -0.0436
 1933DPPE   C1A45053  18.641   8.511  18.823 -0.3321 -0.0926 -0.0591
 1933DPPE   C2A45054  18.484   8.703  18.453 -0.0197 -0.0174  0.0456
 1933DPPE   C3A45055  18.206   8.921  18.115 -0.2618 -0.0536 -0.0643
 1933DPPE   C4A45056  18.093   9.302  18.013  0.1409  0.1458 -0.1895
 1933DPPE   C1B45057  18.237   8.144  18.604  0.1787 -0.1386  0.0372
 1933DPPE   C2B45058  18.275   8.397  18.112 -0.1378 -0.0337  0.3158
 1933DPPE   C3B45059  18.085   8.649  17.730  0.1701  0.0222  0.1061
 1933DPPE   C4B45060  17.876   8.780  17.345 -0.0545  0.1514 -0.1984
 1934DPPE   NH345061  16.089  17.276  23.620  0.2018  0.0836 -0.1784
 1934DPPE   PO445062  16.316  17.317  23.257  0.2904  0.0176 -0.0560
 1934DPPE   GL145063  16.254  17.580  22.857 -0.3055 -0.2615 -0.3890
 1934DPPE   GL245064  16.558  17.785  22.648 -0.2716 -0.0385  0.2033
 1934DPPE   C1A45065  16.078  17.387  22.558  0.1120  0.2377  0.0697
 1934DPPE   C2A45066  15.920  17.484  22.065  0.0861  0.0611 -0.1199
 1934DPPE   C3A45067  15.698  17.266  21.744  0.0794  0.0186  0.0055
 1934DPPE   C4A45068  15.850  16.922  21.579  0.0131  0.1709 -0.1574
 1934DPPE   C1B45069  16.362  17.700  22.269 -0.0930 -0.1000  0.1725
 1934DPPE   C2B45070  16.086  17.935  21.988  0.0710  0.1631 -0.1881
 1934DPPE   C3B45071  16.033  18.311  21.768  0.2893 -0.0220 -0.3781
 1934DPPE   C4B45072  15.820  18.616  21.655  0.4255  0.1089  0.0246
 1935DPPE   NH345073  15.201   9.317  21.930  0.0235  0.2159 -0.2251
 1935DPPE   PO445074  15.312   8.904  21.739  0.0311 -0.1192 -0.2399
 1935DPPE   GL145075  15.267   9.268  21.463  0.3559  0.0691 -0.2021
 1935DPPE   GL245076  15.409   9.562  21.469  0.1433 -0.3885 -0.0445
 1935DPPE   C1A45077  14.897   9.569  21.264  0.3051  0.2233 -0.1904
 1935DPPE   C2A45078  14.928   9.826  20.829 -0.4260 -0.0574 -0.1652
 1935DPPE   C3A45079  15.058  10.071  20.481 -0.0161 -0.0928  0.1432
 1935DPPE   C4A45080  15.089  10.169  20.018  0.2122  0.0798  0.0270
 1935DPPE   C1B45081  15.487   9.656  21.007 -0.1329 -0.1969 -0.1606
 1935DPPE   C2B45082  15.302   9.497  20.586 -0.2874 -0.0575  0.1954
 1935DPPE   C3B45083  14.893   9.524  20.269 -0.2210  0.1568 -0.0670
 1935DPPE   C4B45084  14.578   9.371  20.054  0.2266  0.2217 -0.0628
 1936DPPE   NH345085   7.305  21.584  22.409  0.1136  0.0473 -0.1624
 1936DPPE   PO445086   6.901  21.689  22.255  0.3669 -0.1933 -0.0024
 1936DPPE   GL145087   6.771  21.732  21.839 -0.0969  0.0787 -0.2558
 1936DPPE   GL245088   6.595  21.980  21.636  0.3788 -0.0715 -0.2217
 1936DPPE   C1A45089   6.785  21.375  21.506 -0.1937  0.0208 -0.1964
 1936DPPE   C2A45090   7.043  21.079  21.261  0.1141  0.2014 -0.0054
 1936DPPE   C3A45091   7.349  20.898  21.122  0.2834  0.1833  0.0993
 1936DPPE   C4A45092   7.558  20.542  21.071 -0.2533 -0.1613 -0.1082
 1936DPPE   C1B45093   6.917  21.820  21.283  0.0707  0.0330  0.1356
 1936DPPE   C2B45094   6.951  21.476  20.975 -0.0587 -0.2074 -0.1931
 1936DPPE   C3B45095   6.796  21.463  20.539  0.0063  0.0018 -0.0303
 1936DPPE   C4B45096   6.801  21.386  20.076 -0.1495  0.0516  0.2431
 1937DPPE   NH345097  11.902  17.509  23.356 -0.0488  0.0809  0.1130
 1937DPPE   PO445098  11.992  17.946  23.157  0.3616  0.2192  0.1936
 1937DPPE   GL145099  12.159  17.898  22.766 -0.0054 -0.1088  0.0043
 1937DPPE   GL245100  12.101  17.583  22.502 -0.0484  0.3533 -0.4624
 1937DPPE   C1A45101  12.385  18.030  22.353 -0.1104  0.1210  0.2447
 1937DPPE   C2A45102  12.430  17.807  21.976 -0.2589  0.0252  0.0564
 1937DPPE   C3A45103  12.310  17.682  21.505 -0.0462  0.1090  0.1040
 1937DPPE   C4A45104  12.474  17.504  21.193  0.1002  0.3331 -0.1616
 1937DPPE   C1B45105  12.004  17.550  22.096  0.0897 -0.0419  0.0753
 1937DPPE   C2B45106  11.813  17.483  21.585  0.2524 -0.0854  0.0168
 1937DPPE   C3B45107  11.440  17.573  21.249 -0.1408  0.0208 -0.0119
 1937DPPE   C4B45108  11.170  17.709  20.870 -0.1769 -0.2811  0.1647
 1938DPPE   NH345109  19.444  15.560  22.574  0.0775  0.2347  0.4251
 1938DPPE   PO445110  18.986  15.525  22.476 -0.0858  0.2308  0.1480
 1938DPPE   GL145111  19.000  15.618  22.030 -0.1248  0.1103  0.1578
 1938DPPE   GL245112  19.147  15.385  21.976  0.2888  0.0490  0.1808
 1938DPPE   C1A45113  18.789  15.879  21.691  0.2808  0.1116  0.1112
 1938DPPE   C2A45114  18.986  16.010  21.304 -0.1659 -0.2602  0.1049
 1938DPPE   C3A45115  18.677  16.108  20.940 -0.2805  0.1111  0.1695
 1938DPPE   C4A45116  18.320  16.114  20.593  0.0232  0.1510  0.2913
 1938DPPE   C1B45117  18.892  15.361  21.607  0.0830  0.3596  0.1377
 1938DPPE   C2B45118  18.812  15.548  21.261  0.1908  0.1318  0.1729
 1938DPPE   C3B45119  18.702  15.556  20.884 -0.0313 -0.0224 -0.2149
 1938DPPE   C4B45120  18.749  15.282  20.602 -0.0415  0.0991 -0.1392
 1939DPPE   NH345121  15.791  11.775  22.967 -0.0909  0.0243 -0.2450
 1939DPPE   PO445122  16.060  12.151  22.965  0.0347  0.0996 -0.1945
 1939DPPE   GL145123  16.117  11.919  22.515  0.2237 -0.1667  0.0056
 1939DPPE   GL245124  16.315  12.126  22.290  0.1391  0.0864 -0.4031
 1939DPPE   C1A45125  15.802  11.776  22.206 -0.1607  0.0865 -0.0835
 1939DPPE   C2A45126  15.795  11.400  21.958  0.0674  0.4083  0.1012
 1939DPPE   C3A45127  15.676  11.355  21.518 -0.0558 -0.1071 -0.3019
 1939DPPE   C4A45128  15.789  11.718  21.277  0.0521  0.0758  0.1111
 1939DPPE   C1B45129  16.320  12.182  21.823  0.2498 -0.2021  0.0165
 1939DPPE   C2B45130  16.277  12.638  21.657  0.1585  0.1787 -0.3323
 1939DPPE   C3B45131  16.059  12.978  21.536  0.0317 -0.0778 -0.1981
 1939DPPE   C4B45132  15.898  13.155  21.108  0.1754  0.4379 -0.0949
 1940DPPE   NH345133   9.776  13.961  22.377 -0.3330 -0.2384  0.2371
 1940DPPE   PO445134   9.520  14.411  22.287 -0.0369 -0.2086  0.0707
 1940DPPE   GL145135   9.453  14.202  21.939 -0.0363  0.4493 -0.2396
 1940DPPE   GL245136   9.386  14.534  21.644  0.2236  0.0583 -0.1261
 1940DPPE   C1A45137   9.540  13.992  21.629  0.0995 -0.1659 -0.1853
 1940DPPE   C2A45138   9.425  13.762  21.297  0.0523 -0.1738 -0.1173
 1940DPPE   C3A45139   9.474  13.427  20.973 -0.1772  0.0643  0.5350
 1940DPPE   C4A45140   9.428  13.083  20.916 -0.0476  0.1228  0.0142
 1940DPPE   C1B45141   9.671  14.404  21.244  0.3844  0.1979 -0.1143
 1940DPPE   C2B45142   9.935  14.579  20.947  0.1639  0.0454 -0.2585
 1940DPPE   C3B45143  10.272  14.578  20.745  0.1055 -0.0118  0.1008
 1940DPPE   C4B45144  10.733  14.547  20.691  0.0577  0.1777 -0.0000
 1941DPPE   NH345145  17.466  26.137  21.170 -0.0766  0.4386 -0.1845
 1941DPPE   PO445146  17.487  25.725  21.035  0.4027 -0.4421 -0.1496
 1941DPPE   GL145147  17.363  25.307  20.933  0.0666 -0.0243 -0.3213
 1941DPPE   GL245148  17.591  25.070  20.996 -0.0840 -0.5773  0.1402
 1941DPPE   C1A45149  17.075  25.075  20.728  0.0255  0.2318 -0.2161
 1941DPPE   C2A45150  16.888  25.012  20.347  0.1075  0.0783 -0.1088
 1941DPPE   C3A45151  16.629  25.094  20.011  0.1368  0.3009 -0.0395
 1941DPPE   C4A45152  16.610  25.368  19.615 -0.4238 -0.4567 -0.1378
 1941DPPE   C1B45153  17.715  24.783  20.702 -0.0608 -0.1934  0.0301
 1941DPPE   C2B45154  17.703  24.416  20.287  0.2213 -0.3139  0.0034
 1941DPPE   C3B45155  17.687  24.210  19.889 -0.1436 -0.2073 -0.4531
 1941DPPE   C4B45156  18.061  24.339  19.554 -0.1014 -0.0296 -0.1956
 1942DPPE   NH345157  15.152  15.417  23.207  0.4062 -0.0231  0.0255
 1942DPPE   PO445158  15.437  15.773  23.235 -0.1605  0.2113  0.2955
 1942DPPE   GL145159  15.348  15.734  22.785 -0.1499 -0.2381 -0.2073
 1942DPPE   GL245160  15.010  15.529  22.658 -0.1711  0.2995  0.2623
 1942DPPE   C1A45161  15.266  15.812  22.304 -0.2404 -0.2311  0.2674
 1942DPPE   C2A45162  15.136  15.824  21.877 -0.2004 -0.1360 -0.1440
 1942DPPE   C3A45163  15.201  15.675  21.477  0.0521  0.0518 -0.3349
 1942DPPE   C4A45164  15.258  15.679  21.053 -0.2205 -0.0322  0.2979
 1942DPPE   C1B45165  14.921  15.421  22.266 -0.1023 -0.2301  0.1316
 1942DPPE   C2B45166  14.906  15.398  21.803  0.1356  0.0655  0.1149
 1942DPPE   C3B45167  14.846  15.058  21.547  0.4846 -0.1440 -0.0107
 1942DPPE   C4B45168  14.971  14.769  21.126 -0.0711 -0.3006 -0.0894
 1943DPPE   NH345169  15.152  25.394  21.921 -0.0329 -0.0014  0.0707
 1943DPPE   PO445170  15.334  25.001  21.733 -0.1166  0.1133 -0.2048
 1943DPPE   GL145171  15.238  24.832  21.385 -0.0983  0.0574 -0.2988
 1943DPPE   GL245172  15.062  24.635  21.428  0.1116  0.3041 -0.2144
 1943DPPE   C1A45173  15.509  24.640  21.077 -0.2133 -0.1822 -0.3014
 1943DPPE   C2A45174  15.797  24.329  21.006  0.0638  0.0816  0.2812
 1943DPPE   C3A45175  15.976  23.986  20.769  0.0410  0.1562 -0.1035
 1943DPPE   C4A45176  16.227  23.774  20.475  0.1206  0.2330  0.0363
 1943DPPE   C1B45177  14.762  24.901  21.198  0.4773 -0.1434  0.3059
 1943DPPE   C2B45178  14.420  25.061  21.003  0.0989 -0.1229 -0.0357
 1943DPPE   C3B45179  14.084  25.336  20.960  0.1929 -0.1563 -0.3881
 1943DPPE   C4B45180  13.838  25.545  21.274  0.1538  0.3314 -0.2172
 1944DPPE   NH345181  13.599  16.224  23.381 -0.1932 -0.0590 -0.0137
 1944DPPE   PO445182  13.923  15.994  23.413 -0.2256 -0.4684  0.0473
 1944DPPE   GL145183  14.097  16.151  22.970  0.5615 -0.0160  0.1493
 1944DPPE   GL245184  14.365  15.979  22.858 -0.4361  0.0402  0.0339
 1944DPPE   C1A45185  13.858  15.948  22.631 -0.0138 -0.1007  0.4113
 1944DPPE   C2A45186  13.891  15.584  22.422 -0.2235 -0.0451  0.1517
 1944DPPE   C3A45187  13.990  15.226  22.287 -0.2942  0.1315  0.0543
 1944DPPE   C4A45188  13.690  14.856  22.370  0.0492  0.1917  0.0181
 1944DPPE   C1B45189  14.354  15.959  22.439 -0.0657 -0.3452  0.1416
 1944DPPE   C2B45190  14.097  15.977  22.179 -0.2529  0.0445 -0.1117
 1944DPPE   C3B45191  14.193  15.863  21.779  0.0611 -0.1580 -0.3129
 1944DPPE   C4B45192  14.215  15.821  21.301  0.1424  0.0889  0.1083
 1945DPPE   NH345193  18.703  23.038  21.614  0.3635 -0.1916 -0.1490
 1945DPPE   PO445194  19.039  22.635  21.467  0.1449  0.2444  0.2097
 1945DPPE   GL145195  18.829  22.434  21.045 -0.0910  0.2112 -0.2237
 1945DPPE   GL245196  18.704  22.607  20.811 -0.1567  0.4324  0.2155
 1945DPPE   C1A45197  18.683  22.112  20.713 -0.4309 -0.1236 -0.1739
 1945DPPE   C2A45198  18.760  21.797  20.396  0.0578 -0.0299  0.1850
 1945DPPE   C3A45199  18.783  21.895  19.836  0.0038  0.2460 -0.4017
 1945DPPE   C4A45200  18.571  21.864  19.465 -0.0355 -0.0236 -0.0826
 1945DPPE   C1B45201  18.412  22.893  20.669 -0.6323 -0.0851 -0.1692
 1945DPPE   C2B45202  18.043  23.033  20.508  0.1200  0.1051  0.0845
 1945DPPE   C3B45203  17.651  23.082  20.615  0.1658  0.0830  0.0277
 1945DPPE   C4B45204  17.452  23.421  20.810  0.1066  0.2425 -0.1674
 1946DPPE   NH345205  12.089  28.076  18.418  0.3575 -0.1191 -0.0298
 1946DPPE   PO445206  12.276  27.832  18.765  0.0536  0.2299 -0.0120
 1946DPPE   GL145207  12.715  27.663  18.722 -0.1285  0.0563 -0.0341
 1946DPPE   GL245208  12.723  27.366  18.806  0.1101  0.1834  0.1056
 1946DPPE   C1A45209  12.923  27.487  18.314 -0.1007 -0.1698 -0.2113
 1946DPPE   C2A45210  13.342  27.353  18.187 -0.0290 -0.2492 -0.0662
 1946DPPE   C3A45211  13.796  27.280  18.318 -0.0055 -0.2142 -0.0058
 1946DPPE   C4A45212  14.054  26.947  18.452 -0.2540 -0.0963  0.4350
 1946DPPE   C1B45213  12.653  27.128  19.154  0.0776 -0.0418  0.0178
 1946DPPE   C2B45214  12.392  26.795  19.251 -0.1081 -0.0695  0.1115
 1946DPPE   C3B45215  12.044  26.578  19.474  0.2222 -0.3205  0.0470
 1946DPPE   C4B45216  11.676  26.249  19.472 -0.0224  0.0493  0.1162
 1947DPPE   NH345217  15.564  14.103  22.877 -0.3555 -0.0956  0.1601
 1947DPPE   PO445218  15.740  13.698  22.950 -0.2235 -0.0967  0.3129
 1947DPPE   GL145219  15.926  13.905  22.518  0.7430 -0.0018 -0.2382
 1947DPPE   GL245220  16.159  14.090  22.308 -0.4278 -0.0655  0.2459
 1947DPPE   C1A45221  15.730  14.274  22.325  0.1184 -0.0235  0.0308
 1947DPPE   C2A45222  15.880  14.333  21.956 -0.0270 -0.0118  0.1073
 1947DPPE   C3A45223  15.734  14.420  21.571 -0.0023 -0.0854 -0.1995
 1947DPPE   C4A45224  15.563  14.613  21.284 -0.0569 -0.0238  0.0035
 1947DPPE   C1B45225  15.995  13.826  21.982  0.0351  0.0737 -0.1006
 1947DPPE   C2B45226  15.706  13.761  21.676  0.1038 -0.3280 -0.1833
 1947DPPE   C3B45227  15.537  13.581  21.349  0.0639 -0.0479  0.0142
 1947DPPE   C4B45228  15.576  13.548  20.819  0.2108  0.2258  0.0718
 1948DPPE   NH345229  18.133  15.502  22.772  0.1668  0.1194  0.1518
 1948DPPE   PO445230  18.458  15.775  22.730  0.0870 -0.0578 -0.1188
 1948DPPE   GL145231  18.519  15.676  22.384  0.2013 -0.0531 -0.0640
 1948DPPE   GL245232  18.219  15.386  22.309  0.0779  0.1234 -0.1040
 1948DPPE   C1A45233  18.443  15.574  21.988 -0.2278  0.1803 -0.0298
 1948DPPE   C2A45234  18.281  15.393  21.652 -0.0545 -0.1766 -0.0023
 1948DPPE   C3A45235  18.315  15.352  21.233  0.0134 -0.0567  0.4219
 1948DPPE   C4A45236  18.129  15.175  20.843 -0.0078  0.1869 -0.2986
 1948DPPE   C1B45237  17.875  15.531  21.926 -0.1167  0.2656  0.0210
 1948DPPE   C2B45238  17.889  15.635  21.443  0.0590  0.1147  0.0345
 1948DPPE   C3B45239  18.050  15.742  21.027 -0.4056  0.0732  0.0812
 1948DPPE   C4B45240  17.878  15.685  20.534  0.1968 -0.1532  0.0858
 1949DPPE   NH345241  20.207  20.023  21.961 -0.0504 -0.0804 -0.1705
 1949DPPE   PO445242  20.494  20.180  21.621  0.0610 -0.3163 -0.0152
 1949DPPE   GL145243  20.336  19.776  21.483 -0.1783  0.2829 -0.0754
 1949DPPE   GL245244  20.537  19.403  21.267  0.1425 -0.1469  0.0363
 1949DPPE   C1A45245  20.143  19.700  21.095  0.1647  0.2003  0.0391
 1949DPPE   C2A45246  20.345  19.395  20.764 -0.1004 -0.1624  0.1005
 1949DPPE   C3A45247  20.463  19.053  20.440 -0.4306 -0.0367 -0.4211
 1949DPPE   C4A45248  20.464  18.958  20.045  0.1418 -0.1017  0.0430
 1949DPPE   C1B45249  20.134  19.247  21.294 -0.3028  0.1700 -0.2860
 1949DPPE   C2B45250  19.755  19.062  21.185 -0.0759  0.1361  0.1263
 1949DPPE   C3B45251  19.406  19.202  20.975 -0.1163  0.3692  0.0531
 1949DPPE   C4B45252  19.424  19.345  20.570 -0.2169 -0.2655 -0.1401
 1950DPPE   NH345253  12.840  14.758  22.960  0.1810  0.3889 -0.2537
 1950DPPE   PO445254  12.607  14.371  22.986  0.0830  0.2578 -0.0198
 1950DPPE   GL145255  12.388  14.566  22.606 -0.2406 -0.3078 -0.0472
 1950DPPE   GL245256  12.569  14.223  22.501  0.0678  0.3988 -0.3786
 1950DPPE   C1A45257  12.408  14.696  22.285 -0.1501 -0.1593 -0.0057
 1950DPPE   C2A45258  12.390  14.867  21.863  0.2691 -0.0017 -0.0559
 1950DPPE   C3A45259  12.544  14.887  21.480  0.2754  0.0789  0.3462
 1950DPPE   C4A45260  12.456  15.032  21.029 -0.1881  0.0288 -0.1780
 1950DPPE   C1B45261  12.632  14.283  22.098  0.0840  0.1853  0.2420
 1950DPPE   C2B45262  12.586  14.350  21.593  0.3796 -0.0331 -0.0486
 1950DPPE   C3B45263  12.675  14.547  21.113  0.4447 -0.1516  0.1578
 1950DPPE   C4B45264  12.840  14.748  20.790  0.1266 -0.1453 -0.1371
 1951DPPE   NH345265  16.720   8.626  21.390  0.1452 -0.0566  0.1642
 1951DPPE   PO445266  16.792   8.426  21.053  0.2978 -0.0478 -0.3045
 1951DPPE   GL145267  16.929   8.681  20.710  0.0354 -0.1251  0.2322
 1951DPPE   GL245268  16.941   8.948  21.072 -0.0821 -0.0265  0.0433
 1951DPPE   C1A45269  16.761   8.907  20.312  0.1514  0.0969  0.0435
 1951DPPE   C2A45270  16.502   8.843  19.989 -0.2951 -0.2912 -0.1087
 1951DPPE   C3A45271  16.125   8.671  19.931 -0.1001 -0.2042 -0.0432
 1951DPPE   C4A45272  15.715   8.709  19.715 -0.2876  0.0844  0.0320
 1951DPPE   C1B45273  16.661   9.061  20.861  0.1932 -0.1675 -0.2696
 1951DPPE   C2B45274  16.539   9.340  20.540  0.3269 -0.3626 -0.0307
 1951DPPE   C3B45275  16.500   9.331  20.161  0.0929  0.1770  0.1560
 1951DPPE   C4B45276  16.331   9.493  19.765  0.1325  0.0809 -0.0823
 1952DPPE   NH345277  10.825  18.677  22.780 -0.1814 -0.1936 -0.1329
 1952DPPE   PO445278  10.443  18.322  22.765  0.1233 -0.2142 -0.1058
 1952DPPE   GL145279  10.305  18.269  22.278 -0.1657  0.1153  0.0605
 1952DPPE   GL245280  10.457  17.880  22.267 -0.5124  0.1993  0.1527
 1952DPPE   C1A45281  10.204  18.205  21.810 -0.3591  0.0545  0.2805
 1952DPPE   C2A45282  10.042  18.312  21.474 -0.1698  0.4269 -0.1092
 1952DPPE   C3A45283  10.040  18.247  21.044 -0.3253 -0.1771 -0.0062
 1952DPPE   C4A45284   9.801  18.205  20.613  0.0016  0.0912 -0.1680
 1952DPPE   C1B45285  10.750  18.021  21.922 -0.0466  0.1841 -0.2033
 1952DPPE   C2B45286  10.811  18.309  21.502 -0.2930 -0.0865  0.3155
 1952DPPE   C3B45287  10.681  18.604  21.226  0.1094 -0.4756  0.0211
 1952DPPE   C4B45288  10.429  18.563  20.941  0.0589 -0.1222 -0.1522
 1953DPPE   NH345289  22.016  12.282  20.647  0.0627  0.2168  0.1151
 1953DPPE   PO445290  22.233  12.196  20.219 -0.2174 -0.1209  0.2549
 1953DPPE   GL145291  21.991  12.006  19.957 -0.0398 -0.0957 -0.3154
 1953DPPE   GL245292  22.179  11.743  19.731  0.0195  0.2322  0.2902
 1953DPPE   C1A45293  21.593  11.977  19.803  0.0874 -0.0380  0.1117
 1953DPPE   C2A45294  21.174  12.144  19.696 -0.3677 -0.0164  0.1322
 1953DPPE   C3A45295  20.919  12.220  19.288 -0.0644  0.3229  0.2753
 1953DPPE   C4A45296  20.503  12.426  18.913  0.1229  0.0667  0.1654
 1953DPPE   C1B45297  21.814  11.503  19.720 -0.1479  0.0385  0.2128
 1953DPPE   C2B45298  21.245  11.555  19.644  0.0095 -0.2399  0.1488
 1953DPPE   C3B45299  20.824  11.820  19.702  0.2485  0.1448  0.1082
 1953DPPE   C4B45300  20.517  11.891  20.088 -0.1730  0.0557  0.0572
 1954DPPE   NH345301  21.561  19.906  20.797  0.0078  0.1886  0.1395
 1954DPPE   PO445302  21.933  19.681  20.705 -0.1546 -0.0964 -0.1092
 1954DPPE   GL145303  21.653  19.452  20.467  0.0415 -0.1996  0.0007
 1954DPPE   GL245304  21.334  19.630  20.429 -0.0510 -0.2237  0.0124
 1954DPPE   C1A45305  21.629  18.993  20.304 -0.0459  0.0861  0.0858
 1954DPPE   C2A45306  21.469  18.677  20.436  0.0303  0.0028  0.1227
 1954DPPE   C3A45307  21.100  18.513  20.585 -0.2251  0.1386 -0.1220
 1954DPPE   C4A45308  20.813  18.726  20.697 -0.0349  0.2069 -0.1698
 1954DPPE   C1B45309  21.312  19.348  20.133 -0.0755  0.2034 -0.1407
 1954DPPE   C2B45310  21.591  19.221  19.868  0.1403  0.1445  0.3065
 1954DPPE   C3B45311  21.883  19.387  19.573  0.1549  0.0035 -0.1254
 1954DPPE   C4B45312  21.781  19.241  19.109 -0.1293 -0.0921  0.3593
 1955DPPE   NH345313  18.537   9.818  21.190  0.0404 -0.0742 -0.1231
 1955DPPE   PO445314  18.398   9.528  20.866  0.0263 -0.0999 -0.2634
 1955DPPE   GL145315  18.257   9.449  20.453  0.1750  0.0667 -0.1795
 1955DPPE   GL245316  18.517   9.403  20.255  0.2419 -0.1140 -0.0486
 1955DPPE   C1A45317  18.011   9.532  19.987 -0.0301 -0.4083  0.1895
 1955DPPE   C2A45318  17.944   9.939  19.709 -0.1396 -0.0369  0.0443
 1955DPPE   C3A45319  17.939  10.358  19.917 -0.2068 -0.0908  0.0837
 1955DPPE   C4A45320  17.750  10.730  20.097  0.2277  0.0529  0.2264
 1955DPPE   C1B45321  18.527   9.507  19.872  0.4051 -0.0994 -0.3629
 1955DPPE   C2B45322  18.264   9.628  19.520 -0.1815  0.0887 -0.1072
 1955DPPE   C3B45323  18.054   9.921  19.249 -0.1130 -0.0983  0.0413
 1955DPPE   C4B45324  17.826   9.990  19.020 -0.3808  0.3464 -0.0931
 1956DPPE   NH345325  14.218  26.059  21.884 -0.2294  0.0558  0.1722
 1956DPPE   PO445326  14.683  25.921  21.697 -0.3145  0.1850 -0.2474
 1956DPPE   GL145327  14.792  25.829  21.349 -0.1240  0.1933 -0.3024
 1956DPPE   GL245328  14.695  25.406  21.271 -0.0434 -0.1416 -0.0072
 1956DPPE   C1A45329  14.970  25.753  20.936 -0.2770  0.1038  0.0938
 1956DPPE   C2A45330  14.953  25.680  20.499  0.1660 -0.3139 -0.0856
 1956DPPE   C3A45331  15.098  25.273  20.275 -0.2806 -0.0577 -0.3615
 1956DPPE   C4A45332  14.971  25.006  19.983 -0.0765  0.1574  0.0883
 1956DPPE   C1B45333  14.592  25.462  20.707  0.0173  0.2151 -0.0767
 1956DPPE   C2B45334  14.147  25.372  20.458  0.3379 -0.0682  0.1094
 1956DPPE   C3B45335  13.862  25.176  20.215 -0.0240  0.3147 -0.3630
 1956DPPE   C4B45336  13.452  25.083  19.975  0.2349 -0.3646  0.3343
 1957DPPE   NH345337  19.614  19.037  22.872 -0.2630 -0.2186  0.1206
 1957DPPE   PO445338  19.334  19.296  22.971  0.1004 -0.2388  0.0896
 1957DPPE   GL145339  18.963  19.196  22.704  0.1452 -0.0108 -0.4096
 1957DPPE   GL245340  18.641  19.394  22.572 -0.2546  0.1148 -0.2843
 1957DPPE   C1A45341  18.707  18.928  22.549  0.1212 -0.1648  0.0620
 1957DPPE   C2A45342  18.569  18.723  22.239  0.3779  0.0467  0.2387
 1957DPPE   C3A45343  18.523  18.566  21.802  0.4398 -0.2345  0.2860
 1957DPPE   C4A45344  18.504  18.506  21.420 -0.1849 -0.1000 -0.3621
 1957DPPE   C1B45345  18.400  19.285  22.214  0.2375 -0.0026 -0.1652
 1957DPPE   C2B45346  18.288  19.035  21.900 -0.1203  0.0339  0.0797
 1957DPPE   C3B45347  18.247  19.003  21.408 -0.0896  0.3882 -0.1665
 1957DPPE   C4B45348  18.116  18.751  21.095 -0.0851 -0.0391 -0.1249
 1958DPPE   NH345349  20.424  22.103  20.655 -0.2726 -0.2000  0.2320
 1958DPPE   PO445350  20.445  21.742  20.915  0.0192  0.0652 -0.2886
 1958DPPE   GL145351  20.300  21.607  20.570 -0.1780  0.0789  0.2384
 1958DPPE   GL245352  20.408  21.308  20.489  0.1887 -0.1405  0.0406
 1958DPPE   C1A45353  19.964  21.439  20.238  0.0208 -0.1665  0.0949
 1958DPPE   C2A45354  19.585  21.604  19.989 -0.1687  0.1619 -0.5610
 1958DPPE   C3A45355  19.317  21.861  19.666 -0.1855  0.0623  0.0251
 1958DPPE   C4A45356  19.405  22.116  19.368 -0.1552  0.0041 -0.0207
 1958DPPE   C1B45357  20.248  21.041  20.246  0.1641 -0.3137  0.0719
 1958DPPE   C2B45358  20.055  21.010  19.822  0.2880  0.1570 -0.1784
 1958DPPE   C3B45359  19.632  21.217  19.601 -0.8255 -0.3209 -0.1063
 1958DPPE   C4B45360  19.684  21.168  19.225 -0.5309  0.0196  0.2837
 1959DPPE   NH345361  20.350  15.735  22.259 -0.2502 -0.2692 -0.0778
 1959DPPE   PO445362  20.036  15.738  22.569  0.0668 -0.2202 -0.0198
 1959DPPE   GL145363  19.893  15.808  22.148  0.0936  0.3095 -0.1132
 1959DPPE   GL245364  20.081  16.042  21.998  0.0015  0.2802 -0.0367
 1959DPPE   C1A45365  19.610  15.726  21.766 -0.2029  0.2218  0.0094
 1959DPPE   C2A45366  19.306  15.738  21.579 -0.1430  0.1008 -0.0095
 1959DPPE   C3A45367  19.294  15.599  21.112 -0.1058  0.0697 -0.1723
 1959DPPE   C4A45368  19.180  15.404  20.808 -0.1120 -0.3326  0.0689
 1959DPPE   C1B45369  20.007  15.936  21.559 -0.1385 -0.3105 -0.1123
 1959DPPE   C2B45370  19.793  15.708  21.279 -0.2701  0.1977 -0.1647
 1959DPPE   C3B45371  19.647  15.241  21.071 -0.0420 -0.1579  0.2076
 1959DPPE   C4B45372  19.530  14.967  20.854 -0.3228 -0.1210 -0.3890
 1960DPPE   NH345373  13.090  12.338  22.922  0.2562  0.0995  0.0963
 1960DPPE   PO445374  13.530  12.446  23.048 -0.0589  0.1781  0.3239
 1960DPPE   GL145375  13.585  12.558  22.583  0.1691  0.0950 -0.1989
 1960DPPE   GL245376  13.823  12.631  22.471 -0.1447 -0.2803  0.0710
 1960DPPE   C1A45377  13.472  12.466  22.100 -0.0220  0.0852  0.2933
 1960DPPE   C2A45378  13.458  12.252  21.722 -0.0855  0.3512  0.0896
 1960DPPE   C3A45379  13.528  12.080  21.363  0.2421 -0.0707  0.4623
 1960DPPE   C4A45380  13.480  11.640  21.163 -0.4131 -0.0324 -0.3017
 1960DPPE   C1B45381  13.941  12.765  22.014 -0.0330  0.1359 -0.3125
 1960DPPE   C2B45382  13.806  12.671  21.612  0.1060  0.0470  0.1808
 1960DPPE   C3B45383  13.545  12.598  21.203  0.2142 -0.1124 -0.1394
 1960DPPE   C4B45384  13.541  12.362  20.831 -0.1973 -0.1112 -0.0557
 1961DPPE   NH345385  18.750  11.077  21.707 -0.0321  0.0482  0.1460
 1961DPPE   PO445386  18.360  11.056  21.784  0.1098  0.0993  0.1249
 1961DPPE   GL145387  18.191  11.441  21.548  0.0306  0.1950 -0.0737
 1961DPPE   GL245388  18.531  11.398  21.375 -0.3255 -0.2772  0.0643
 1961DPPE   C1A45389  18.050  11.815  21.327  0.0567  0.2601  0.0690
 1961DPPE   C2A45390  18.072  12.177  20.961  0.3545  0.1655  0.4547
 1961DPPE   C3A45391  18.419  12.479  20.769 -0.0453  0.0114  0.1403
 1961DPPE   C4A45392  18.710  12.660  20.528 -0.0180 -0.0646 -0.0158
 1961DPPE   C1B45393  18.794  11.223  21.021 -0.0890 -0.3302 -0.2024
 1961DPPE   C2B45394  18.990  10.987  20.771  0.2490  0.0062  0.1964
 1961DPPE   C3B45395  19.293  10.695  20.532  0.1367  0.3694  0.3694
 1961DPPE   C4B45396  19.658  10.523  20.181  0.0824 -0.1856 -0.2122
 1962DPPE   NH345397  11.003  15.675  23.013  0.1795 -0.0607 -0.1978
 1962DPPE   PO445398  10.541  15.927  22.957 -0.2470  0.0983  0.1138
 1962DPPE   GL145399  10.708  16.008  22.487 -0.0688 -0.4792  0.0712
 1962DPPE   GL245400  10.551  15.826  22.364 -0.5169 -0.0853  0.0527
 1962DPPE   C1A45401  10.686  16.369  22.113  0.1761  0.2393  0.2046
 1962DPPE   C2A45402  10.433  16.400  21.766  0.0221 -0.1646 -0.2461
 1962DPPE   C3A45403  10.631  16.372  21.374  0.3491 -0.0380  0.2993
 1962DPPE   C4A45404  10.500  16.606  20.965  0.1418 -0.2501  0.4671
 1962DPPE   C1B45405  10.587  15.919  21.967  0.0750 -0.1209 -0.2436
 1962DPPE   C2B45406  10.890  16.136  21.731 -0.0547 -0.2524  0.2402
 1962DPPE   C3B45407  11.088  16.086  21.340  0.0944 -0.1550  0.4335
 1962DPPE   C4B45408  11.338  16.081  20.977 -0.0390  0.0384  0.1655
 1963DPPE   NH345409  11.085  10.450  22.501 -0.6359  0.1615 -0.0257
 1963DPPE   PO445410  11.021  10.915  22.391  0.0125 -0.1452 -0.2148
 1963DPPE   GL145411  10.912  11.129  22.094  0.0492  0.1257 -0.0683
 1963DPPE   GL245412  10.850  11.437  22.185 -0.3134  0.1000  0.1651
 1963DPPE   C1A45413  10.811  11.280  21.679  0.4561 -0.1426  0.0791
 1963DPPE   C2A45414  10.397  11.167  21.455 -0.2738  0.1768  0.0781
 1963DPPE   C3A45415  10.003  10.899  21.461  0.1560 -0.0083  0.1013
 1963DPPE   C4A45416   9.603  11.007  21.562  0.0989  0.0974  0.4940
 1963DPPE   C1B45417  10.485  11.547  21.956 -0.1709 -0.1458 -0.0880
 1963DPPE   C2B45418  10.115  11.639  21.633  0.1331  0.5445  0.0575
 1963DPPE   C3B45419  10.020  11.468  21.221  0.2299  0.3631 -0.0224
 1963DPPE   C4B45420   9.774  11.184  21.066  0.1979  0.0205  0.1449
 1964DPPE   NH345421  14.584  11.420  22.680  0.2062 -0.3232  0.2635
 1964DPPE   PO445422  14.162  11.428  22.700  0.2515  0.0934  0.3537
 1964DPPE   GL145423  14.157  11.618  22.339  0.2489  0.0388 -0.1800
 1964DPPE   GL245424  13.878  11.575  22.211 -0.3505 -0.1385 -0.2934
 1964DPPE   C1A45425  14.338  11.449  22.047 -0.1371  0.1009 -0.0018
 1964DPPE   C2A45426  14.430  11.553  21.602  0.0853  0.0883 -0.6133
 1964DPPE   C3A45427  14.555  11.585  21.153 -0.0612 -0.2706 -0.0572
 1964DPPE   C4A45428  14.901  11.538  20.806  0.2391  0.4960  0.2204
 1964DPPE   C1B45429  13.997  11.711  21.905 -0.1250  0.0654 -0.0835
 1964DPPE   C2B45430  13.922  11.753  21.526 -0.0891 -0.0740  0.0017
 1964DPPE   C3B45431  14.048  11.436  21.284 -0.2516  0.3515  0.2590
 1964DPPE   C4B45432  13.889  11.413  20.855  0.0357  0.1067  0.0672
 1965DPPE   NH345433  17.000  16.627  23.598 -0.2379  0.0832 -0.1268
 1965DPPE   PO445434  16.863  16.419  23.151  0.3988 -0.0455  0.0796
 1965DPPE   GL145435  16.904  16.338  22.792 -0.2202 -0.1167 -0.0882
 1965DPPE   GL245436  16.916  15.967  22.777  0.0888 -0.0595  0.2789
 1965DPPE   C1A45437  16.828  16.262  22.316 -0.1318  0.0521  0.3581
 1965DPPE   C2A45438  16.724  16.323  21.918 -0.0164  0.0675  0.0569
 1965DPPE   C3A45439  16.649  16.112  21.511 -0.1929  0.1209 -0.0172
 1965DPPE   C4A45440  16.406  16.012  21.106 -0.2016  0.1473  0.0835
 1965DPPE   C1B45441  16.463  15.993  22.599  0.0243 -0.1538  0.0752
 1965DPPE   C2B45442  16.170  16.111  22.382  0.3107  0.1261  0.4067
 1965DPPE   C3B45443  15.935  16.319  22.159  0.1410  0.1130 -0.0012
 1965DPPE   C4B45444  15.845  16.435  21.726  0.3541  0.0381 -0.0862
 1966DPPE   NH345445   8.628  13.931  22.331  0.0733 -0.0183 -0.1589
 1966DPPE   PO445446   8.851  13.856  21.948  0.1943 -0.1716  0.1573
 1966DPPE   GL145447   8.882  13.565  21.770  0.1830  0.0586  0.1083
 1966DPPE   GL245448   8.578  13.457  21.612 -0.0959  0.1462 -0.0111
 1966DPPE   C1A45449   8.961  13.156  21.773 -0.1958 -0.2043 -0.3982
 1966DPPE   C2A45450   8.848  12.698  21.836  0.0009  0.0582 -0.1723
 1966DPPE   C3A45451   8.913  12.258  21.688 -0.1441  0.1425 -0.1656
 1966DPPE   C4A45452   9.149  11.833  21.649  0.0916  0.0158  0.0825
 1966DPPE   C1B45453   8.561  13.509  21.231  0.3569 -0.0005 -0.4872
 1966DPPE   C2B45454   8.188  13.754  21.094  0.0229  0.4885  0.2695
 1966DPPE   C3B45455   7.869  13.450  21.120  0.0419 -0.1162 -0.1276
 1966DPPE   C4B45456   7.469  13.419  20.920  0.2525 -0.0802  0.2342
 1967DPPE   NH345457  17.618  13.783  22.772  0.1445 -0.1349 -0.0205
 1967DPPE   PO445458  17.802  14.177  22.894  0.0558  0.3548  0.2858
 1967DPPE   GL145459  17.996  14.201  22.544  0.0044  0.0712  0.0224
 1967DPPE   GL245460  17.646  14.173  22.399 -0.2458 -0.1138 -0.2441
 1967DPPE   C1A45461  18.175  14.380  22.253 -0.2722 -0.1184  0.0226
 1967DPPE   C2A45462  18.324  14.363  21.838 -0.0410 -0.1144  0.0820
 1967DPPE   C3A45463  18.644  14.466  21.486  0.1833 -0.0367  0.0431
 1967DPPE   C4A45464  18.685  14.193  21.040 -0.0487  0.1814 -0.0071
 1967DPPE   C1B45465  17.605  14.445  22.009  0.1484 -0.2289 -0.1564
 1967DPPE   C2B45466  17.728  14.602  21.651 -0.0557 -0.0354 -0.0416
 1967DPPE   C3B45467  17.740  14.608  21.214 -0.0888  0.2108 -0.1214
 1967DPPE   C4B45468  17.464  14.348  20.985 -0.2120  0.0445  0.0446
 1968DPPE   NH345469  17.914  24.255  21.510 -0.0140 -0.3438 -0.5299
 1968DPPE   PO445470  18.328  24.018  21.585 -0.3098 -0.3909 -0.1613
 1968DPPE   GL145471  18.062  23.886  21.279  0.0890 -0.0811  0.1634
 1968DPPE   GL245472  18.338  23.705  21.111 -0.0022 -0.0347  0.0563
 1968DPPE   C1A45473  17.629  23.760  21.141  0.1148  0.0075 -0.0313
 1968DPPE   C2A45474  17.254  23.971  21.120 -0.1557 -0.3118  0.1698
 1968DPPE   C3A45475  16.963  23.908  20.755 -0.1124 -0.0010 -0.2308
 1968DPPE   C4A45476  16.761  23.809  20.377 -0.0306 -0.3507  0.2453
 1968DPPE   C1B45477  18.450  23.869  20.654 -0.0928 -0.1143 -0.0367
 1968DPPE   C2B45478  18.428  24.225  20.507 -0.0598  0.0004  0.4004
 1968DPPE   C3B45479  18.204  24.640  20.491 -0.0300 -0.0377  0.1015
 1968DPPE   C4B45480  18.128  25.041  20.474 -0.0342 -0.0887 -0.2598
 1969DPPE   NH345481  14.430   8.718  21.884  0.3770  0.2342 -0.0141
 1969DPPE   PO445482  14.293   9.101  21.937  0.1640  0.0315 -0.0633
 1969DPPE   GL145483  14.146   9.333  21.453  0.2570  0.0305 -0.1860
 1969DPPE   GL245484  14.437   9.342  21.338 -0.3915 -0.2486 -0.0287
 1969DPPE   C1A45485  14.046   9.035  21.014  0.0798 -0.1112 -0.0715
 1969DPPE   C2A45486  14.062   9.028  20.526  0.1748  0.1504 -0.0651
 1969DPPE   C3A45487  13.778   8.772  20.185  0.0271  0.0589  0.2143
 1969DPPE   C4A45488  13.472   8.997  19.860 -0.0908 -0.0554 -0.1936
 1969DPPE   C1B45489  14.247   9.561  21.010  0.3751 -0.0817 -0.0531
 1969DPPE   C2B45490  14.027   9.550  20.655  0.2549 -0.2734  0.1373
 1969DPPE   C3B45491  13.772   9.754  20.363  0.0986  0.2908 -0.1125
 1969DPPE   C4B45492  13.667  10.046  20.232  0.0851  0.0285 -0.0152
 1970DPPE   NH345493  16.249  10.609  22.177  0.3899 -0.2059 -0.1032
 1970DPPE   PO445494  16.359  10.937  22.270  0.1206 -0.2702 -0.2358
 1970DPPE   GL145495  16.182  11.048  21.976 -0.0523 -0.0640 -0.2557
 1970DPPE   GL245496  16.006  10.796  21.716  0.5658 -0.3773 -0.1653
 1970DPPE   C1A45497  16.173  11.277  21.621  0.1651  0.1705 -0.3591
 1970DPPE   C2A45498  16.361  11.636  21.456 -0.0233  0.1486 -0.1243
 1970DPPE   C3A45499  16.210  11.987  21.298  0.0405 -0.2055  0.0009
 1970DPPE   C4A45500  15.815  12.052  20.876 -0.2593 -0.3522  0.2732
 1970DPPE   C1B45501  15.709  10.872  21.376  0.0780  0.2044  0.1591
 1970DPPE   C2B45502  15.658  11.159  21.069  0.2743 -0.0602 -0.1706
 1970DPPE   C3B45503  15.738  11.409  20.750  0.1006  0.1345  0.0539
 1970DPPE   C4B45504  15.695  11.227  20.332  0.1826 -0.0761 -0.1606
 1971DPPE   NH345505  13.908  13.139  22.601 -0.2663  0.0991 -0.0377
 1971DPPE   PO445506  14.280  12.963  22.750 -0.2512 -0.1617 -0.2525
 1971DPPE   GL145507  14.419  12.894  22.482  0.0175 -0.1668  0.1246
 1971DPPE   GL245508  14.365  12.581  22.292 -0.0466  0.3509  0.0001
 1971DPPE   C1A45509  14.345  13.094  22.077  0.0197  0.0967  0.0348
 1971DPPE   C2A45510  14.411  12.994  21.665  0.0082 -0.1168 -0.0177
 1971DPPE   C3A45511  14.629  12.926  21.365  0.0909 -0.3385 -0.0275
 1971DPPE   C4A45512  14.812  12.801  21.053 -0.0616  0.0010 -0.1341
 1971DPPE   C1B45513  14.360  12.529  21.969 -0.2218  0.1836 -0.2249
 1971DPPE   C2B45514  14.456  12.444  21.567 -0.0134  0.0137 -0.0367
 1971DPPE   C3B45515  14.497  12.371  21.188 -0.1099  0.3325 -0.0538
 1971DPPE   C4B45516  14.424  12.198  20.753 -0.0547 -0.1120  0.0252
 1972DPPE   NH345517  16.253  14.697  23.080  0.0618  0.0904 -0.1701
 1972DPPE   PO445518  16.537  14.476  22.853  0.0033  0.2827  0.3004
 1972DPPE   GL145519  16.901  14.588  22.555  0.0133 -0.2565  0.1493
 1972DPPE   GL245520  17.225  14.661  22.626  0.2055  0.0048 -0.1128
 1972DPPE   C1A45521  17.157  14.401  22.176  0.2675 -0.1521 -0.1794
 1972DPPE   C2A45522  17.175  14.374  21.684 -0.1279  0.2209 -0.3148
 1972DPPE   C3A45523  17.289  14.740  21.354  0.0016 -0.2353 -0.0116
 1972DPPE   C4A45524  17.204  15.015  21.076 -0.3030  0.3591  0.1145
 1972DPPE   C1B45525  17.264  14.856  22.188 -0.0191  0.0193  0.0166
 1972DPPE   C2B45526  17.277  15.036  21.822  0.0794 -0.1593 -0.3178
 1972DPPE   C3B45527  17.292  15.323  21.458 -0.3218 -0.1117  0.1906
 1972DPPE   C4B45528  17.399  15.570  21.126  0.0084 -0.0294 -0.2567
 1973DPPE   NH345529  19.517  24.519  20.592 -0.2076  0.0016  0.0877
 1973DPPE   PO445530  19.978  24.762  20.556  0.2722  0.0449 -0.0026
 1973DPPE   GL145531  19.654  24.859  20.221  0.0907  0.0798  0.0694
 1973DPPE   GL245532  19.439  24.617  20.110 -0.1004 -0.0660  0.1258
 1973DPPE   C1A45533  19.446  25.047  19.796 -0.1443  0.0243 -0.4426
 1973DPPE   C2A45534  19.090  25.221  19.693  0.2059 -0.0363 -0.0620
 1973DPPE   C3A45535  18.989  25.411  19.345  0.0188 -0.1138 -0.0398
 1973DPPE   C4A45536  18.779  25.369  18.988 -0.1561  0.1892 -0.1143
 1973DPPE   C1B45537  19.425  24.278  19.764  0.0391  0.0718 -0.1197
 1973DPPE   C2B45538  19.429  23.987  19.391 -0.1768 -0.2914  0.2434
 1973DPPE   C3B45539  19.203  23.806  19.107 -0.0007 -0.2422  0.0315
 1973DPPE   C4B45540  19.196  23.249  19.012 -0.1242 -0.2126 -0.1451
 1974DPPE   NH345541  10.373  13.450  22.698 -0.2400 -0.1273  0.1677
 1974DPPE   PO445542  10.048  13.537  22.498  0.1432  0.1345  0.2416
 1974DPPE   GL145543   9.766  13.404  22.182 -0.0693  0.0294  0.0317
 1974DPPE   GL245544   9.516  13.652  22.051  0.1524 -0.2533 -0.0713
 1974DPPE   C1A45545   9.443  13.150  22.006  0.2187  0.2696  0.1476
 1974DPPE   C2A45546   9.655  12.703  21.749 -0.2989  0.1187 -0.2600
 1974DPPE   C3A45547   9.755  12.520  21.400  0.0780  0.0629  0.3281
 1974DPPE   C4A45548   9.744  12.239  21.040  0.1515  0.0300  0.2680
 1974DPPE   C1B45549   9.378  13.461  21.682  0.3031  0.0620 -0.0768
 1974DPPE   C2B45550   9.135  13.373  21.301  0.1054 -0.1140 -0.2745
 1974DPPE   C3B45551   9.011  13.362  20.904  0.0132 -0.2681 -0.0880
 1974DPPE   C4B45552   9.105  13.043  20.481  0.1145 -0.2812 -0.1810
 1975DPPE   NH345553  14.760   7.078  20.379  0.3912  0.1407 -0.0013
 1975DPPE   PO445554  14.587   7.586  20.423  0.1578 -0.0293 -0.0350
 1975DPPE   GL145555  14.774   7.454  19.978 -0.0476  0.2773 -0.0133
 1975DPPE   GL245556  14.535   7.269  19.744 -0.0444 -0.0145 -0.1610
 1975DPPE   C1A45557  15.196   7.552  19.806 -0.0728  0.1750 -0.2060
 1975DPPE   C2A45558  15.315   7.663  19.448  0.0399  0.1031  0.1712
 1975DPPE   C3A45559  15.345   8.126  19.155  0.0995 -0.1610  0.1499
 1975DPPE   C4A45560  15.538   8.270  18.740 -0.2408  0.3482  0.1680
 1975DPPE   C1B45561  14.770   7.404  19.369  0.0981 -0.0820 -0.3088
 1975DPPE   C2B45562  14.841   7.854  19.351  0.1648 -0.0525  0.2892
 1975DPPE   C3B45563  14.863   8.150  19.063  0.0816  0.1280 -0.1011
 1975DPPE   C4B45564  14.832   8.476  18.876  0.1807  0.0994 -0.1168
 1976DPPE   NH345565  12.800  25.007  21.833  0.1924 -0.0997 -0.0440
 1976DPPE   PO445566  12.716  24.538  22.008 -0.0778 -0.2721 -0.0058
 1976DPPE   GL145567  12.733  24.177  21.840 -0.0205 -0.1212  0.1978
 1976DPPE   GL245568  12.966  24.278  21.622 -0.2146 -0.0058  0.1136
 1976DPPE   C1A45569  12.481  24.038  21.453  0.0147  0.1697  0.0418
 1976DPPE   C2A45570  12.145  23.981  21.141 -0.1320  0.0231 -0.0380
 1976DPPE   C3A45571  11.752  24.078  20.979  0.1120 -0.1846 -0.0579
 1976DPPE   C4A45572  11.513  24.474  21.045  0.0106  0.0868  0.1496
 1976DPPE   C1B45573  13.228  24.472  21.297 -0.1360 -0.0753  0.4320
 1976DPPE   C2B45574  13.521  24.373  20.889 -0.0569  0.2540 -0.0020
 1976DPPE   C3B45575  13.548  24.055  20.624 -0.2083  0.2868 -0.0864
 1976DPPE   C4B45576  13.982  23.821  20.718  0.0882  0.2755 -0.3466
 1977DPPE   NH345577  17.816  21.675  22.753  0.0995  0.0903  0.0940
 1977DPPE   PO445578  18.034  22.113  22.698  0.0099 -0.1068  0.0005
 1977DPPE   GL145579  17.836  21.869  22.272 -0.1216 -0.2111  0.0248
 1977DPPE   GL245580  18.054  21.707  22.131 -0.3792 -0.5327 -0.1865
 1977DPPE   C1A45581  17.581  21.781  21.904  0.0293 -0.1091  0.2724
 1977DPPE   C2A45582  17.291  21.742  21.517 -0.0829  0.4019 -0.1852
 1977DPPE   C3A45583  17.213  21.637  21.132 -0.5316 -0.4431  0.3977
 1977DPPE   C4A45584  17.354  21.383  20.733 -0.1579 -0.1593 -0.2301
 1977DPPE   C1B45585  17.890  21.378  21.907 -0.1496 -0.0100  0.1211
 1977DPPE   C2B45586  17.533  21.216  21.624 -0.1268  0.3471  0.4194
 1977DPPE   C3B45587  17.211  21.161  21.245 -0.0220  0.0382 -0.2577
 1977DPPE   C4B45588  17.295  20.846  20.930  0.2703  0.1631  0.5375
 1978DPPE   NH345589  20.142  11.687  21.045 -0.0683  0.0641  0.2967
 1978DPPE   PO445590  20.179  12.099  21.341 -0.1551  0.3322  0.0310
 1978DPPE   GL145591  19.845  12.216  21.126  0.1941  0.1422  0.3190
 1978DPPE   GL245592  19.491  12.104  21.178  0.0876  0.2063  0.1071
 1978DPPE   C1A45593  19.692  12.579  21.256  0.1889 -0.3095  0.1365
 1978DPPE   C2A45594  19.527  13.017  21.229 -0.3323 -0.0655  0.2423
 1978DPPE   C3A45595  19.479  13.335  21.633 -0.0891  0.0682 -0.0382
 1978DPPE   C4A45596  19.083  13.660  21.784 -0.1089 -0.0123  0.0193
 1978DPPE   C1B45597  19.160  12.408  21.095 -0.2262 -0.1199 -0.6425
 1978DPPE   C2B45598  19.046  12.791  20.997  0.0046  0.0210  0.2316
 1978DPPE   C3B45599  19.132  13.195  20.725  0.3058  0.0256  0.1739
 1978DPPE   C4B45600  19.197  13.410  20.480  0.0313 -0.0630 -0.1023
 1979DPPE   NH345601  15.277  11.038  23.080  0.0068  0.2374  0.1877
 1979DPPE   PO445602  15.044  11.364  22.873  0.1223  0.2044 -0.2832
 1979DPPE   GL145603  15.129  11.565  22.440  0.0944 -0.1578 -0.0833
 1979DPPE   GL245604  15.396  11.455  22.258  0.0613  0.0286  0.0188
 1979DPPE   C1A45605  15.035  12.007  22.164 -0.3161  0.0075 -0.0823
 1979DPPE   C2A45606  14.922  12.107  21.695  0.0305  0.0176 -0.1598
 1979DPPE   C3A45607  14.900  11.987  21.326  0.0960  0.1121 -0.3357
 1979DPPE   C4A45608  14.845  12.095  20.937  0.1973 -0.2533 -0.2662
 1979DPPE   C1B45609  15.409  11.747  21.882 -0.4799 -0.1383 -0.1138
 1979DPPE   C2B45610  15.408  11.871  21.516 -0.0047 -0.0538  0.0018
 1979DPPE   C3B45611  15.371  12.151  21.164 -0.0287 -0.0116 -0.1126
 1979DPPE   C4B45612  15.188  12.485  20.858  0.1684  0.3037  0.1422
 1980DPPE   NH345613  22.232  16.670  20.874  0.0641 -0.0451  0.2655
 1980DPPE   PO445614  22.217  17.104  20.630 -0.2206 -0.1539  0.0070
 1980DPPE   GL145615  21.914  17.217  20.377  0.0811 -0.0234  0.0137
 1980DPPE   GL245616  21.922  16.952  20.250 -0.0640  0.4103 -0.0678
 1980DPPE   C1A45617  21.582  17.493  20.196 -0.2592 -0.0177  0.0596
 1980DPPE   C2A45618  21.344  17.990  20.150  0.2029  0.0882  0.0081
 1980DPPE   C3A45619  20.975  18.206  20.090  0.4862 -0.0109 -0.1257
 1980DPPE   C4A45620  20.591  18.322  20.283 -0.1248 -0.0398 -0.2367
 1980DPPE   C1B45621  21.680  16.795  20.000 -0.0539  0.3592 -0.0886
 1980DPPE   C2B45622  21.565  16.545  19.784  0.1393 -0.2348  0.1174
 1980DPPE   C3B45623  21.258  16.331  19.756 -0.0420 -0.0528  0.4474
 1980DPPE   C4B45624  20.977  15.853  19.705 -0.0704  0.2540 -0.1770
 1981DPPE   NH345625  10.804  20.876  22.905  0.1213  0.2945 -0.0057
 1981DPPE   PO445626  10.643  20.496  22.964 -0.2170 -0.0756  0.3246
 1981DPPE   GL145627  10.791  20.351  22.503  0.0781  0.0799 -0.1873
 1981DPPE   GL245628  10.526  20.155  22.473  0.0086  0.2065 -0.1148
 1981DPPE   C1A45629  10.921  20.361  22.072 -0.1178 -0.0896  0.2219
 1981DPPE   C2A45630  11.080  20.592  21.786 -0.0637  0.3386  0.0530
 1981DPPE   C3A45631  11.103  20.687  21.388 -0.1857 -0.1446 -0.1052
 1981DPPE   C4A45632  11.387  20.523  21.029 -0.1330  0.1629 -0.1449
 1981DPPE   C1B45633  10.446  20.316  22.047  0.1310  0.0386 -0.1252
 1981DPPE   C2B45634  10.364  20.158  21.591  0.2835 -0.0169  0.2691
 1981DPPE   C3B45635  10.633  19.853  21.255 -0.0406 -0.0744  0.1766
 1981DPPE   C4B45636  10.910  19.707  20.947  0.0120 -0.4825 -0.1862
 1982DPPE   NH345637  14.259  16.379  23.379  0.2674 -0.0296 -0.1226
 1982DPPE   PO445638  14.765  16.252  23.400 -0.1017  0.0958 -0.1125
 1982DPPE   GL145639  14.785  16.458  22.997  0.3279  0.1831  0.0327
 1982DPPE   GL245640  15.047  16.623  22.781 -0.5494 -0.2233 -0.0977
 1982DPPE   C1A45641  14.630  16.377  22.490 -0.2591 -0.0194 -0.0827
 1982DPPE   C2A45642  14.538  16.317  22.090  0.0476  0.1787  0.1646
 1982DPPE   C3A45643  14.459  16.573  21.813  0.1036  0.0257  0.2383
 1982DPPE   C4A45644  14.478  16.588  21.303 -0.2602 -0.1280 -0.0253
 1982DPPE   C1B45645  15.284  16.774  22.399  0.0795  0.2215 -0.0491
 1982DPPE   C2B45646  15.486  16.649  22.037 -0.0272 -0.1241 -0.0623
 1982DPPE   C3B45647  15.381  16.673  21.619 -0.3357 -0.3120  0.1528
 1982DPPE   C4B45648  15.180  16.601  21.140  0.3132  0.2348 -0.5361
 1983DPPE   NH345649   9.331  22.972  22.801 -0.1106  0.1590 -0.1902
 1983DPPE   PO445650   9.622  22.759  22.479 -0.1083 -0.1032  0.1047
 1983DPPE   GL145651   9.686  22.650  22.142  0.0680  0.0590 -0.0205
 1983DPPE   GL245652   9.691  22.846  21.866 -0.2575 -0.1939  0.2154
 1983DPPE   C1A45653   9.530  22.308  21.883 -0.0358  0.0852  0.1993
 1983DPPE   C2A45654   9.780  22.055  21.581 -0.2114  0.0157 -0.1173
 1983DPPE   C3A45655   9.798  21.946  21.195  0.1237  0.1275  0.1607
 1983DPPE   C4A45656  10.103  21.986  20.844  0.0166  0.0994  0.0859
 1983DPPE   C1B45657   9.749  22.613  21.562 -0.2682  0.4336  0.0365
 1983DPPE   C2B45658   9.510  22.327  21.131 -0.1248  0.3966  0.0175
 1983DPPE   C3B45659   9.326  21.910  21.033 -0.2531 -0.1367 -0.1223
 1983DPPE   C4B45660   9.171  21.644  21.270 -0.0913  0.3885 -0.1585
 1984DPPE   NH345661  20.580  16.785  22.078  0.5469 -0.2294 -0.0550
 1984DPPE   PO445662  20.349  16.740  22.400  0.2308 -0.0297 -0.0064
 1984DPPE   GL145663  20.136  16.527  22.032 -0.3375  0.2898 -0.3110
 1984DPPE   GL245664  19.787  16.456  22.101  0.4029  0.0611 -0.1398
 1984DPPE   C1A45665  20.057  16.451  21.554  0.2165 -0.1025  0.1403
 1984DPPE   C2A45666  19.815  16.552  21.266 -0.2310  0.0104 -0.0816
 1984DPPE   C3A45667  19.731  16.453  20.959  0.1688 -0.0976 -0.0866
 1984DPPE   C4A45668  19.903  16.445  20.550  0.0695  0.2029  0.0331
 1984DPPE   C1B45669  19.610  16.312  21.762 -0.0017  0.1729 -0.1271
 1984DPPE   C2B45670  19.538  16.122  21.364 -0.1027  0.2219 -0.3051
 1984DPPE   C3B45671  19.279  16.344  21.101  0.0712  0.2143 -0.3213
 1984DPPE   C4B45672  19.128  16.530  20.695 -0.1356  0.0132  0.0492
 1985DPPE   NH345673  13.556  27.964  18.658 -0.0945 -0.2509 -0.1628
 1985DPPE   PO445674  13.978  28.096  18.771  0.1028  0.1055  0.0713
 1985DPPE   GL145675  14.004  27.689  18.576 -0.2159  0.0493 -0.0341
 1985DPPE   GL245676  14.135  27.824  18.283  0.2846 -0.2174  0.1558
 1985DPPE   C1A45677  14.100  27.208  18.843  0.1600  0.1173  0.3211
 1985DPPE   C2A45678  13.967  26.850  18.993 -0.1535 -0.2545 -0.1935
 1985DPPE   C3A45679  14.011  26.423  19.217  0.0341  0.1698  0.1295
 1985DPPE   C4A45680  13.988  26.033  18.969  0.1071 -0.5709  0.0396
 1985DPPE   C1B45681  14.375  27.500  18.274  0.2842  0.0453 -0.1707
 1985DPPE   C2B45682  14.592  27.153  18.357  0.0891 -0.5364 -0.2119
 1985DPPE   C3B45683  14.938  27.002  18.576 -0.1841  0.1717  0.0112
 1985DPPE   C4B45684  15.279  26.692  18.494  0.0907 -0.0821  0.5018
 1986DPPE   NH345685  15.587  22.210  22.541 -0.0558 -0.2116  0.0232
 1986DPPE   PO445686  15.399  21.989  22.776 -0.2285 -0.2120  0.0331
 1986DPPE   GL145687  15.500  21.698  22.441  0.3994  0.0459  0.5127
 1986DPPE   GL245688  15.884  21.802  22.442 -0.1865 -0.1721 -0.1682
 1986DPPE   C1A45689  15.637  21.343  22.133  0.1224  0.1007  0.0432
 1986DPPE   C2A45690  15.768  21.256  21.720 -0.0538 -0.0520  0.0874
 1986DPPE   C3A45691  16.016  20.975  21.405 -0.1465 -0.1711  0.1632
 1986DPPE   C4A45692  16.116  20.492  21.165 -0.0854  0.3301  0.0983
 1986DPPE   C1B45693  16.379  21.673  22.244  0.3194 -0.2025  0.0615
 1986DPPE   C2B45694  16.642  21.587  21.882  0.2297 -0.3055 -0.1647
 1986DPPE   C3B45695  16.803  21.427  21.370 -0.0390  0.0979 -0.1298
 1986DPPE   C4B45696  16.770  21.171  21.008  0.0728 -0.0304 -0.2174
 1987DPPE   NH345697  14.012  13.986  22.816 -0.1790 -0.1435  0.0616
 1987DPPE   PO445698  13.733  13.698  22.867 -0.0792 -0.3525 -0.1739
 1987DPPE   GL145699  13.442  13.628  22.557  0.3087 -0.1900  0.4002
 1987DPPE   GL245700  13.112  13.793  22.562  0.0649 -0.1001 -0.2287
 1987DPPE   C1A45701  13.258  13.478  22.172  0.0411  0.1108  0.2627
 1987DPPE   C2A45702  13.416  13.549  21.736  0.3352 -0.0128 -0.1301
 1987DPPE   C3A45703  13.550  13.619  21.331  0.0803  0.0087 -0.0949
 1987DPPE   C4A45704  13.738  13.475  21.053  0.2333 -0.1228  0.1448
 1987DPPE   C1B45705  12.984  13.909  22.197  0.1225  0.0478  0.0690
 1987DPPE   C2B45706  12.954  13.895  21.724 -0.5590  0.1526 -0.0432
 1987DPPE   C3B45707  12.937  14.012  21.327 -0.0651 -0.1059 -0.0573
 1987DPPE   C4B45708  13.033  14.176  20.887 -0.4159 -0.1647 -0.0452
 1988DPPE   NH345709  14.706  10.616  22.337 -0.0138  0.4011 -0.1627
 1988DPPE   PO445710  15.136  10.587  22.320  0.3239 -0.2114 -0.1291
 1988DPPE   GL145711  15.093  10.618  21.957 -0.1089 -0.1831 -0.0271
 1988DPPE   GL245712  14.887  10.308  21.886  0.3877 -0.1122  0.3667
 1988DPPE   C1A45713  15.015  10.595  21.523 -0.2831 -0.0180  0.0613
 1988DPPE   C2A45714  14.840  10.749  21.083 -0.2881  0.3339  0.0527
 1988DPPE   C3A45715  14.792  11.008  20.747 -0.4292 -0.1263 -0.0172
 1988DPPE   C4A45716  14.423  11.319  20.693 -0.0609 -0.2849 -0.0333
 1988DPPE   C1B45717  14.579  10.467  21.624  0.4288  0.2225  0.1906
 1988DPPE   C2B45718  14.417  10.585  21.236 -0.1091 -0.2605  0.0675
 1988DPPE   C3B45719  14.152  10.865  21.427  0.0034  0.2836  0.0246
 1988DPPE   C4B45720  13.737  11.065  21.227 -0.0077  0.1245 -0.3026
 1989DPPE   NH345721  13.243  17.652  23.177  0.0728 -0.1854  0.0474
 1989DPPE   PO445722  13.124  17.234  23.119  0.0920  0.2406 -0.1010
 1989DPPE   GL145723  13.044  16.864  22.828 -0.1575  0.2017  0.0694
 1989DPPE   GL245724  13.328  16.768  22.706 -0.3380 -0.0648  0.3591
 1989DPPE   C1A45725  12.695  16.724  22.489 -0.0332  0.1685 -0.1009
 1989DPPE   C2A45726  12.744  16.860  22.032 -0.0468 -0.1941  0.1179
 1989DPPE   C3A45727  12.806  16.875  21.633  0.1436  0.1105 -0.0377
 1989DPPE   C4A45728  13.171  16.645  21.511 -0.1288  0.0616  0.0914
 1989DPPE   C1B45729  13.243  16.838  22.277  0.1850 -0.1744 -0.0364
 1989DPPE   C2B45730  13.276  16.977  21.847 -0.0248  0.4358 -0.0030
 1989DPPE   C3B45731  13.416  17.286  21.580  0.1287  0.0726  0.3717
 1989DPPE   C4B45732  13.810  17.515  21.255  0.1517  0.1456 -0.2485
 1990DPPE   NH345733  14.992   8.510  21.793  0.1148  0.3458 -0.4968
 1990DPPE   PO445734  14.677   8.428  21.402 -0.2433 -0.0354 -0.1805
 1990DPPE   GL145735  14.520   8.506  21.097  0.1933 -0.0529 -0.0086
 1990DPPE   GL245736  14.705   8.340  20.884 -0.1068  0.0040  0.2980
 1990DPPE   C1A45737  14.476   8.776  20.784  0.0062  0.2545  0.1789
 1990DPPE   C2A45738  14.727   8.875  20.446 -0.0257 -0.2153  0.3883
 1990DPPE   C3A45739  14.996   8.947  20.182  0.0032 -0.0886 -0.0451
 1990DPPE   C4A45740  15.376   8.670  20.115  0.2761 -0.1993 -0.5113
 1990DPPE   C1B45741  14.497   8.284  20.508  0.2007  0.1082 -0.2591
 1990DPPE   C2B45742  14.341   8.631  20.212  0.2116 -0.2221 -0.0623
 1990DPPE   C3B45743  14.221   9.061  20.067 -0.1596 -0.1073  0.3297
 1990DPPE   C4B45744  14.307   9.320  19.662  0.0262 -0.0397 -0.0884
 1991DPPE   NH345745  10.404  21.682  22.817 -0.1225 -0.0500 -0.0564
 1991DPPE   PO445746  10.025  21.566  22.996 -0.1117  0.2069  0.1958
 1991DPPE   GL145747   9.984  21.408  22.650 -0.2457  0.1077  0.0659
 1991DPPE   GL245748   9.836  21.478  22.410 -0.4136 -0.0406 -0.2143
 1991DPPE   C1A45749  10.297  21.406  22.239 -0.0723 -0.1962  0.0292
 1991DPPE   C2A45750  10.362  21.155  21.840  0.1072  0.2422 -0.3332
 1991DPPE   C3A45751  10.288  21.172  21.323  0.1041  0.0523 -0.2646
 1991DPPE   C4A45752  10.377  20.981  20.939 -0.1607  0.0723 -0.1415
 1991DPPE   C1B45753   9.905  21.582  21.942  0.1777  0.5763  0.2263
 1991DPPE   C2B45754  10.092  21.574  21.563  0.1914  0.1324 -0.1813
 1991DPPE   C3B45755  10.372  21.703  21.173  0.3344 -0.1283  0.0999
 1991DPPE   C4B45756  10.628  22.107  20.942 -0.2120 -0.1556  0.1303
 1992DPPE   NH345757  18.881  15.673  22.969  0.0578 -0.4047  0.1362
 1992DPPE   PO445758  18.794  16.062  23.026  0.1184  0.0492  0.0509
 1992DPPE   GL145759  18.760  16.104  22.554  0.0626  0.2265 -0.1008
 1992DPPE   GL245760  18.463  16.355  22.496  0.0249 -0.1089 -0.2256
 1992DPPE   C1A45761  18.961  16.186  22.108  0.0725 -0.1515 -0.2840
 1992DPPE   C2A45762  19.067  16.308  21.616  0.0370  0.0229 -0.1952
 1992DPPE   C3A45763  18.847  16.506  21.352 -0.0939 -0.2251 -0.0799
 1992DPPE   C4A45764  18.519  16.585  21.052 -0.1156 -0.1343  0.0228
 1992DPPE   C1B45765  18.311  16.764  22.338 -0.0213 -0.1013  0.1085
 1992DPPE   C2B45766  18.239  17.228  22.229 -0.2797 -0.3453  0.0121
 1992DPPE   C3B45767  17.873  17.418  21.857 -0.0045  0.1136  0.1869
 1992DPPE   C4B45768  18.096  17.654  21.585  0.1521  0.0792  0.0930
 1993DPPE   NH345769  15.606  19.242  23.166  0.1365 -0.0280 -0.0604
 1993DPPE   PO445770  15.333  18.871  23.252  0.2812  0.1440  0.0349
 1993DPPE   GL145771  15.306  18.602  22.897 -0.0157  0.0764  0.0436
 1993DPPE   GL245772  15.323  18.266  22.900  0.2537  0.3473 -0.1198
 1993DPPE   C1A45773  15.094  18.690  22.475  0.1965 -0.0388 -0.0528
 1993DPPE   C2A45774  14.969  18.839  21.990  0.2728  0.0600 -0.0629
 1993DPPE   C3A45775  15.124  18.717  21.487  0.0841  0.0747  0.0119
 1993DPPE   C4A45776  14.801  18.554  21.195  0.3991 -0.2058 -0.2650
 1993DPPE   C1B45777  15.193  18.185  22.426 -0.2920  0.1353 -0.3499
 1993DPPE   C2B45778  14.837  18.369  22.112 -0.0647  0.3268 -0.1797
 1993DPPE   C3B45779  14.768  18.408  21.670  0.2868  0.0260 -0.4521
 1993DPPE   C4B45780  14.736  18.087  21.416  0.1710  0.1405  0.0245
 1994DPPE   NH345781  12.195  28.007  17.498 -0.0462 -0.0880  0.0336
 1994DPPE   PO445782  12.049  27.929  17.904 -0.0551  0.1326 -0.2759
 1994DPPE   GL145783  11.923  27.575  18.225 -0.2882 -0.0309  0.0279
 1994DPPE   GL245784  12.070  27.407  18.564 -0.0337  0.1337  0.2483
 1994DPPE   C1A45785  12.025  27.079  18.156  0.1634  0.1348  0.1714
 1994DPPE   C2A45786  12.021  26.606  18.133 -0.2871 -0.0605 -0.4680
 1994DPPE   C3A45787  11.858  26.338  17.805  0.1274  0.0813  0.1414
 1994DPPE   C4A45788  11.467  26.281  17.999 -0.2804  0.1437  0.1738
 1994DPPE   C1B45789  12.255  27.144  18.750 -0.1683 -0.0264 -0.0772
 1994DPPE   C2B45790  12.222  26.711  18.711  0.2514 -0.0591 -0.0798
 1994DPPE   C3B45791  12.423  26.415  18.558 -0.2960 -0.1238 -0.0040
 1994DPPE   C4B45792  12.227  26.072  18.442  0.2911  0.0978 -0.0133
 1995DPPE   NH345793  19.879  22.781  20.773  0.3714  0.3197  0.0380
 1995DPPE   PO445794  19.772  22.380  20.967 -0.0535 -0.4745 -0.1177
 1995DPPE   GL145795  19.433  22.337  20.744  0.3529  0.0660 -0.2209
 1995DPPE   GL245796  19.450  22.551  20.581  0.1719  0.2988  0.0389
 1995DPPE   C1A45797  19.134  22.019  20.801 -0.0709 -0.0509 -0.1502
 1995DPPE   C2A45798  19.098  21.631  20.775 -0.1253  0.1272 -0.0071
 1995DPPE   C3A45799  19.269  21.502  20.487  0.0231 -0.4476 -0.0953
 1995DPPE   C4A45800  19.542  21.191  20.365  0.1221 -0.2225  0.2901
 1995DPPE   C1B45801  19.446  22.440  20.171  0.0151  0.0660  0.1700
 1995DPPE   C2B45802  19.130  22.309  19.831 -0.1401  0.2685 -0.0793
 1995DPPE   C3B45803  18.915  22.300  19.441  0.0375 -0.1131  0.2299
 1995DPPE   C4B45804  18.677  22.275  19.065 -0.1299  0.1273  0.1360
 1996DPPE   NH345805  13.361  19.266  22.948 -0.0724 -0.0360 -0.1808
 1996DPPE   PO445806  13.444  18.801  22.988 -0.2848  0.1277  0.0700
 1996DPPE   GL145807  13.744  18.885  22.780 -0.1543  0.1251  0.0433
 1996DPPE   GL245808  13.750  19.149  22.628  0.1104  0.1704  0.2604
 1996DPPE   C1A45809  14.011  18.728  22.449  0.0306  0.0425 -0.0044
 1996DPPE   C2A45810  13.989  18.914  21.892 -0.0713  0.0201  0.2286
 1996DPPE   C3A45811  13.910  18.972  21.479  0.3934 -0.1789 -0.0981
 1996DPPE   C4A45812  13.717  19.163  21.140 -0.2702  0.1803  0.1743
 1996DPPE   C1B45813  13.487  18.898  22.302 -0.0538 -0.1994  0.0457
 1996DPPE   C2B45814  13.490  19.004  21.842 -0.1483  0.4945  0.6053
 1996DPPE   C3B45815  13.306  18.963  21.401  0.0261  0.2198 -0.0222
 1996DPPE   C4B45816  12.983  19.138  21.206  0.2190 -0.0084 -0.1252
 1997DPPE   NH345817   6.601  25.589  16.859 -0.3469  0.0928  0.3764
 1997DPPE   PO445818   6.445  25.137  16.811 -0.0038 -0.1771 -0.0109
 1997DPPE   GL145819   6.534  24.807  17.076 -0.2509 -0.0533 -0.2090
 1997DPPE   GL245820   6.684  24.638  16.808 -0.2847  0.1371  0.1619
 1997DPPE   C1A45821   6.813  24.631  17.492 -0.0344  0.0819 -0.0080
 1997DPPE   C2A45822   7.050  24.416  17.802 -0.0240  0.3367  0.0330
 1997DPPE   C3A45823   7.246  24.533  18.273  0.1093  0.1722 -0.2281
 1997DPPE   C4A45824   7.625  24.758  18.596  0.4851  0.3071 -0.1555
 1997DPPE   C1B45825   7.048  24.490  16.599  0.1565 -0.2895  0.1083
 1997DPPE   C2B45826   7.386  24.677  16.692 -0.0752 -0.0813  0.0427
 1997DPPE   C3B45827   7.737  24.821  16.944  0.3691  0.0606  0.1757
 1997DPPE   C4B45828   8.027  24.663  17.170 -0.0281 -0.0008 -0.1322
 1998DPPE   NH345829   9.388  16.805  22.283 -0.0053 -0.1511 -0.0839
 1998DPPE   PO445830   9.719  16.942  22.617 -0.0206 -0.1276  0.0072
 1998DPPE   GL145831   9.939  17.057  22.265 -0.2015 -0.1131 -0.1363
 1998DPPE   GL245832  10.121  17.277  22.358  0.1374 -0.4260  0.0006
 1998DPPE   C1A45833   9.810  17.307  21.892 -0.2242  0.2003  0.1779
 1998DPPE   C2A45834   9.499  17.267  21.762  0.0947  0.0525 -0.0173
 1998DPPE   C3A45835   9.095  17.239  21.523  0.3513 -0.4050 -0.0011
 1998DPPE   C4A45836   9.113  17.238  21.126  0.0270 -0.2292 -0.2029
 1998DPPE   C1B45837  10.269  17.146  21.885  0.0234 -0.0628  0.3437
 1998DPPE   C2B45838  10.176  17.307  21.514 -0.1332 -0.1121 -0.0019
 1998DPPE   C3B45839  10.443  17.203  21.029  0.2582  0.0006 -0.4284
 1998DPPE   C4B45840  10.412  17.351  20.642 -0.0336  0.0618  0.1276
 1999DPPE   NH345841  20.904  18.346  21.729  0.0460  0.3153 -0.1484
 1999DPPE   PO445842  20.744  18.689  22.040  0.3644 -0.0222 -0.1710
 1999DPPE   GL145843  20.724  18.779  21.605 -0.1324 -0.1426 -0.4028
 1999DPPE   GL245844  20.552  19.051  21.582  0.1650 -0.1653 -0.0765
 1999DPPE   C1A45845  20.599  18.605  21.247  0.0542  0.1235 -0.0419
 1999DPPE   C2A45846  20.408  18.506  20.804 -0.0091  0.2338  0.1572
 1999DPPE   C3A45847  20.187  18.596  20.464 -0.0672  0.4037 -0.2798
 1999DPPE   C4A45848  19.777  18.509  20.286  0.1467 -0.1172 -0.2912
 1999DPPE   C1B45849  20.194  18.847  21.689 -0.0224 -0.2949  0.3081
 1999DPPE   C2B45850  20.099  18.649  21.352 -0.0359 -0.1477  0.2299
 1999DPPE   C3B45851  19.993  18.254  21.050 -0.4014 -0.1660  0.1436
 1999DPPE   C4B45852  19.841  18.315  20.747 -0.3121  0.2864  0.1956
 2000DPPE   NH345853  10.103  22.902  22.293 -0.0092 -0.3684  0.3440
 2000DPPE   PO445854  10.479  23.031  22.386  0.0261  0.3038  0.2555
 2000DPPE   GL145855  10.746  22.914  22.094  0.0604  0.3887 -0.1535
 2000DPPE   GL245856  10.954  22.706  22.206  0.1915 -0.1480  0.4166
 2000DPPE   C1A45857  10.696  22.819  21.648  0.0773  0.1606  0.0345
 2000DPPE   C2A45858  10.775  22.887  21.282  0.2472 -0.0118  0.2026
 2000DPPE   C3A45859  10.601  23.080  20.990 -0.2322 -0.1236  0.0624
 2000DPPE   C4A45860  10.589  23.240  20.536  0.0823  0.1779 -0.2769
 2000DPPE   C1B45861  11.193  22.641  21.782 -0.3477  0.3584  0.0946
 2000DPPE   C2B45862  11.115  22.426  21.470 -0.0828 -0.0870 -0.0030
 2000DPPE   C3B45863  11.410  22.653  21.156  0.1371  0.4038 -0.1103
 2000DPPE   C4B45864  11.556  22.745  20.755  0.0584  0.4033 -0.0868
 2001DPPE   NH345865  11.295  19.000  22.740 -0.1263  0.3031 -0.0848
 2001DPPE   PO445866  11.647  19.381  22.779  0.0915  0.0227 -0.1636
 2001DPPE   GL145867  11.612  19.787  22.631 -0.1530  0.0627  0.1288
 2001DPPE   GL245868  11.766  20.103  22.699 -0.3850 -0.2614  0.0284
 2001DPPE   C1A45869  11.752  19.861  22.220  0.1721  0.1256  0.1985
 2001DPPE   C2A45870  11.649  19.446  22.026 -0.2694  0.0272 -0.0502
 2001DPPE   C3A45871  11.718  19.432  21.616 -0.2168  0.1459 -0.0609
 2001DPPE   C4A45872  11.516  19.021  21.415  0.1973  0.0711  0.0414
 2001DPPE   C1B45873  11.412  20.242  22.413  0.0334 -0.0285  0.0383
 2001DPPE   C2B45874  11.352  20.062  22.049  0.0516 -0.0985 -0.2524
 2001DPPE   C3B45875  11.478  19.838  21.791  0.1395 -0.0061  0.0723
 2001DPPE   C4B45876  11.727  19.928  21.365 -0.2572  0.3011 -0.0348
 2002DPPE   NH345877  19.235  16.142  23.277  0.2935 -0.1281  0.0340
 2002DPPE   PO445878  19.568  16.290  22.990 -0.3190  0.1164  0.0424
 2002DPPE   GL145879  19.251  16.478  22.724 -0.1635  0.1288  0.0310
 2002DPPE   GL245880  19.316  16.466  22.395 -0.1314  0.2294  0.0934
 2002DPPE   C1A45881  18.898  16.654  22.626  0.1511 -0.1393  0.0055
 2002DPPE   C2A45882  18.791  16.783  22.270  0.0093  0.0979 -0.1811
 2002DPPE   C3A45883  18.662  16.821  21.746  0.1002 -0.0217  0.3061
 2002DPPE   C4A45884  18.653  16.985  21.287 -0.0858  0.0518  0.2470
 2002DPPE   C1B45885  19.195  16.644  21.956  0.1263  0.0942 -0.0586
 2002DPPE   C2B45886  19.497  16.793  21.621 -0.2887 -0.0163  0.2717
 2002DPPE   C3B45887  19.739  17.079  21.374  0.1119 -0.0453 -0.3721
 2002DPPE   C4B45888  19.628  17.421  21.192  0.1358  0.1989  0.0045
 2003DPPE   NH345889   8.402   7.189  20.582  0.3421 -0.1349  0.2226
 2003DPPE   PO445890   8.581   7.606  20.427  0.2288  0.1589  0.3194
 2003DPPE   GL145891   8.770   7.890  20.105 -0.2779  0.2084 -0.5202
 2003DPPE   GL245892   8.994   8.058  20.246  0.2200  0.1696 -0.3047
 2003DPPE   C1A45893   9.010   8.024  19.716  0.0818 -0.0812  0.0547
 2003DPPE   C2A45894   8.921   8.228  19.399 -0.2091  0.0504  0.0319
 2003DPPE   C3A45895   8.863   8.616  19.191 -0.1015 -0.0261  0.0443
 2003DPPE   C4A45896   8.746   8.936  18.810 -0.0173 -0.2165 -0.0071
 2003DPPE   C1B45897   8.987   8.445  19.988  0.0659 -0.2290  0.2069
 2003DPPE   C2B45898   8.700   8.609  19.699  0.1269  0.3172 -0.1392
 2003DPPE   C3B45899   8.490   8.928  19.281 -0.0813  0.1309  0.0014
 2003DPPE   C4B45900   8.349   9.360  19.065 -0.0967 -0.2248 -0.2034
 2004DPPE   NH345901  12.272  21.849  23.169  0.0129  0.2399  0.0067
 2004DPPE   PO445902  11.922  21.670  22.942 -0.2625  0.3096 -0.0500
 2004DPPE   GL145903  11.728  21.590  22.604  0.0496 -0.1050 -0.0894
 2004DPPE   GL245904  11.538  21.326  22.527  0.0965  0.1086 -0.0668
 2004DPPE   C1A45905  11.728  21.612  22.133 -0.0154 -0.0105 -0.3767
 2004DPPE   C2A45906  11.589  21.675  21.725 -0.1220  0.2170  0.0662
 2004DPPE   C3A45907  11.877  21.764  21.478 -0.1523 -0.2562  0.0760
 2004DPPE   C4A45908  12.116  21.743  21.081 -0.1403  0.4099  0.0747
 2004DPPE   C1B45909  11.595  21.073  22.174  0.2082  0.2178  0.0587
 2004DPPE   C2B45910  11.445  20.943  21.838 -0.0086  0.2274 -0.0200
 2004DPPE   C3B45911  11.399  21.201  21.500  0.1412 -0.0896 -0.3074
 2004DPPE   C4B45912  11.422  21.018  21.131  0.1392 -0.2646 -0.0445
 2005DPPE   NH345913  13.020  27.444  20.752  0.1643 -0.1781  0.2672
 2005DPPE   PO445914  13.313  27.210  21.134 -0.0713  0.0893  0.1235
 2005DPPE   GL145915  12.949  26.930  20.836  0.1702  0.1082 -0.0735
 2005DPPE   GL245916  12.714  26.634  20.866  0.0559 -0.4128 -0.1465
 2005DPPE   C1A45917  12.953  26.603  20.422 -0.0093 -0.2119 -0.2336
 2005DPPE   C2A45918  13.036  26.185  20.522 -0.1070  0.3090 -0.0706
 2005DPPE   C3A45919  13.252  25.714  20.599 -0.0067 -0.2757  0.4554
 2005DPPE   C4A45920  13.013  25.350  20.546  0.0036 -0.0068  0.2064
 2005DPPE   C1B45921  12.462  26.306  20.763 -0.2119  0.2691 -0.1621
 2005DPPE   C2B45922  12.307  25.984  20.301 -0.1660 -0.1528 -0.1815
 2005DPPE   C3B45923  12.382  25.501  20.305 -0.0851  0.4048  0.0604
 2005DPPE   C4B45924  12.304  25.048  20.288 -0.4468 -0.2464 -0.0302
 2006DPPE   NH345925   9.540   7.174  19.508  0.2886  0.1020 -0.2689
 2006DPPE   PO445926   9.777   7.217  19.888  0.1449 -0.0564 -0.0046
 2006DPPE   GL145927   9.862   7.572  19.724 -0.1862  0.1953  0.0289
 2006DPPE   GL245928  10.212   7.802  19.770  0.1288  0.2955  0.0315
 2006DPPE   C1A45929   9.812   7.680  19.306 -0.3354 -0.1885 -0.0277
 2006DPPE   C2A45930   9.861   7.404  18.954 -0.2086 -0.3372  0.1708
 2006DPPE   C3A45931   9.727   7.406  18.532 -0.1871 -0.0264 -0.0188
 2006DPPE   C4A45932   9.943   7.170  18.195  0.3014 -0.0190  0.1903
 2006DPPE   C1B45933  10.228   8.049  19.407 -0.2873  0.2228 -0.0115
 2006DPPE   C2B45934  10.179   8.450  19.157  0.0401  0.0751  0.0266
 2006DPPE   C3B45935  10.281   8.843  19.233  0.3318 -0.1877  0.0927
 2006DPPE   C4B45936  10.286   9.304  19.133 -0.1607 -0.2290  0.0735
 2007DPPE   NH345937  18.342   7.430  20.010  0.0595 -0.2013 -0.0842
 2007DPPE   PO445938  18.066   7.788  19.964  0.0758  0.0575 -0.0005
 2007DPPE   GL145939  17.865   8.157  19.838  0.3213 -0.2529 -0.1046
 2007DPPE   GL245940  17.628   8.152  20.087 -0.1468  0.1518  0.1732
 2007DPPE   C1A45941  17.847   8.532  19.483 -0.1525  0.0746  0.1563
 2007DPPE   C2A45942  17.789   8.795  19.195 -0.0065  0.1128  0.2971
 2007DPPE   C3A45943  17.752   9.100  18.716  0.1181  0.1069  0.2429
 2007DPPE   C4A45944  17.838   9.365  18.410  0.2456 -0.1507 -0.4517
 2007DPPE   C1B45945  17.263   8.307  19.814  0.1232 -0.2592  0.0580
 2007DPPE   C2B45946  16.935   8.400  19.611 -0.3740 -0.1952 -0.0055
 2007DPPE   C3B45947  16.594   8.457  19.559 -0.2323  0.2939 -0.0051
 2007DPPE   C4B45948  16.216   8.163  19.698 -0.0510  0.1516  0.2534
 2008DPPE   NH345949  20.570   8.734  18.284 -0.1079  0.2487  0.0465
 2008DPPE   PO445950  20.502   9.085  18.440 -0.2048  0.0126 -0.0302
 2008DPPE   GL145951  20.233   9.376  18.525 -0.1288  0.2090  0.1043
 2008DPPE   GL245952  20.139   9.337  18.178  0.0993 -0.1156 -0.1793
 2008DPPE   C1A45953  19.723   9.398  18.594  0.0029 -0.0483 -0.1696
 2008DPPE   C2A45954  19.389   9.607  18.540  0.1267  0.1668 -0.2574
 2008DPPE   C3A45955  19.127   9.850  18.255 -0.1330 -0.0540 -0.2958
 2008DPPE   C4A45956  18.813  10.048  17.907 -0.2343  0.0348 -0.1149
 2008DPPE   C1B45957  19.891   9.761  18.309 -0.1509  0.2103  0.2686
 2008DPPE   C2B45958  20.087   9.982  18.615  0.0199  0.1383  0.3346
 2008DPPE   C3B45959  20.213  10.277  18.930 -0.2486  0.1003  0.0009
 2008DPPE   C4B45960  20.155  10.437  19.350 -0.0363  0.0913 -0.2270
 2009DPPE   NH345961   9.182  20.352  22.849 -0.0008  0.2041  0.0070
 2009DPPE   PO445962   8.775  20.409  22.766  0.0764 -0.0233  0.1798
 2009DPPE   GL145963   8.846  20.070  22.481 -0.1288  0.0472  0.2326
 2009DPPE   GL245964   8.469  19.923  22.306  0.2212 -0.4728 -0.1028
 2009DPPE   C1A45965   8.857  19.913  22.045 -0.0985  0.1561  0.0649
 2009DPPE   C2A45966   9.161  19.986  21.686 -0.1922  0.0170 -0.1430
 2009DPPE   C3A45967   9.225  19.957  21.223 -0.1933  0.5486  0.1797
 2009DPPE   C4A45968   9.139  20.395  21.013 -0.0424 -0.0240  0.2623
 2009DPPE   C1B45969   8.349  19.714  21.927 -0.1592  0.1559 -0.1474
 2009DPPE   C2B45970   8.568  19.681  21.558 -0.0448  0.1870 -0.1051
 2009DPPE   C3B45971   8.849  19.564  21.466 -0.0796  0.1161 -0.4808
 2009DPPE   C4B45972   9.306  19.489  21.395 -0.0194 -0.1072  0.0378
 2010DPPE   NH345973  12.158  11.533  22.471 -0.0928 -0.0640  0.1728
 2010DPPE   PO445974  12.343  11.846  22.697 -0.1826  0.0231 -0.0683
 2010DPPE   GL145975  12.178  11.909  22.183  0.0109 -0.2130 -0.1641
 2010DPPE   GL245976  11.874  12.133  22.062  0.3541  0.2726  0.3898
 2010DPPE   C1A45977  12.103  11.726  21.753  0.0038 -0.1004  0.2375
 2010DPPE   C2A45978  12.217  11.763  21.336  0.1631  0.0352  0.1644
 2010DPPE   C3A45979  12.109  11.765  20.921  0.0127 -0.0801 -0.0471
 2010DPPE   C4A45980  12.012  11.936  20.554 -0.2398  0.0152  0.3100
 2010DPPE   C1B45981  11.752  12.429  21.763  0.0396 -0.0753 -0.0256
 2010DPPE   C2B45982  11.493  12.353  21.277 -0.0501  0.4274 -0.2138
 2010DPPE   C3B45983  11.187  12.606  21.065 -0.0033 -0.1573 -0.1213
 2010DPPE   C4B45984  11.095  12.883  20.676  0.1718 -0.2403 -0.1715
 2011DPPE   NH345985  22.155  15.205  20.746  0.0575 -0.1341  0.3802
 2011DPPE   PO445986  22.053  15.604  20.990  0.2232  0.2953  0.0453
 2011DPPE   GL145987  21.960  15.657  20.632 -0.0846  0.1397 -0.2675
 2011DPPE   GL245988  22.065  15.952  20.529  0.1783 -0.0541  0.1474
 2011DPPE   C1A45989  21.745  15.559  20.205 -0.2694  0.1946  0.1801
 2011DPPE   C2A45990  21.662  15.303  19.845  0.1647  0.0280 -0.0305
 2011DPPE   C3A45991  21.793  14.889  19.735 -0.1016  0.2695  0.1144
 2011DPPE   C4A45992  21.876  14.595  19.353  0.2065 -0.0089  0.3639
 2011DPPE   C1B45993  21.598  15.965  20.507  0.2240  0.0260 -0.2944
 2011DPPE   C2B45994  21.210  16.249  20.697 -0.1910 -0.1474  0.2137
 2011DPPE   C3B45995  20.812  16.506  20.611  0.0611  0.3600  0.0695
 2011DPPE   C4B45996  20.392  16.523  20.852 -0.0975  0.0648  0.0736
 2012DPPE   NH345997  13.887  18.207  23.222  0.5457 -0.0189 -0.0145
 2012DPPE   PO445998  13.485  18.148  23.210 -0.2070  0.3367 -0.2241
 2012DPPE   GL145999  13.648  18.370  22.839  0.1366  0.0274  0.0386
 2012DPPE   GL246000  13.846  18.093  22.728 -0.2148 -0.1524 -0.1181
 2012DPPE   C1A46001  13.611  18.401  22.396  0.0757  0.0904  0.1471
 2012DPPE   C2A46002  13.953  18.438  22.067 -0.4087 -0.1847  0.0154
 2012DPPE   C3A46003  13.918  18.492  21.686 -0.0437 -0.2328  0.6125
 2012DPPE   C4A46004  13.770  18.569  21.171  0.1904 -0.2527 -0.3998
 2012DPPE   C1B46005  13.937  18.006  22.319  0.3241 -0.1446  0.5547
 2012DPPE   C2B46006  13.853  17.817  21.906  0.0164 -0.1921 -0.0725
 2012DPPE   C3B46007  13.813  18.072  21.457  0.4552 -0.0638 -0.1746
 2012DPPE   C4B46008  13.535  18.074  21.104 -0.0705  0.0011  0.0118
 2013DPPE   NH346009  18.608  19.510  23.626 -0.3146  0.1953 -0.1264
 2013DPPE   PO446010  18.333  19.434  23.382  0.0647  0.3545 -0.2894
 2013DPPE   GL146011  18.399  19.147  22.918 -0.2895 -0.2237 -0.1626
 2013DPPE   GL246012  18.110  19.309  22.665  0.1202  0.3039  0.0500
 2013DPPE   C1A46013  18.253  18.750  22.677  0.3093  0.2100  0.1040
 2013DPPE   C2A46014  18.147  18.346  22.791 -0.1202  0.1988  0.2905
 2013DPPE   C3A46015  18.290  17.972  22.781  0.2025  0.0982 -0.2248
 2013DPPE   C4A46016  18.021  17.598  22.647 -0.1001 -0.1166 -0.3232
 2013DPPE   C1B46017  17.867  19.020  22.472 -0.0513  0.0047 -0.1219
 2013DPPE   C2B46018  17.523  18.939  22.156  0.0200 -0.0060  0.3382
 2013DPPE   C3B46019  17.189  18.675  22.074 -0.0083 -0.1909  0.3425
 2013DPPE   C4B46020  16.936  18.493  21.760 -0.2873  0.0711  0.1864
 2014DPPE   NH346021  14.037   6.730  19.372 -0.0276  0.3252 -0.2836
 2014DPPE   PO446022  14.316   6.387  19.234  0.0163 -0.2112  0.1230
 2014DPPE   GL146023  14.448   6.649  18.741  0.0136 -0.0270  0.0456
 2014DPPE   GL246024  14.107   6.625  18.645 -0.0602 -0.2211 -0.1842
 2014DPPE   C1A46025  14.564   6.908  18.406 -0.0649 -0.2904 -0.0027
 2014DPPE   C2A46026  14.571   7.341  18.450  0.1018  0.1034  0.1400
 2014DPPE   C3A46027  14.696   7.519  18.874  0.0400 -0.1936  0.1643
 2014DPPE   C4A46028  15.189   7.683  19.001  0.1961 -0.2085  0.0203
 2014DPPE   C1B46029  13.972   7.053  18.490 -0.0330  0.0155 -0.1775
 2014DPPE   C2B46030  14.050   7.353  18.257 -0.1453  0.0392 -0.1201
 2014DPPE   C3B46031  14.225   7.379  17.843  0.1614  0.2903  0.0548
 2014DPPE   C4B46032  14.510   7.422  17.557 -0.0856 -0.0770  0.3607
 2015DPPE   NH346033  15.528  27.443  20.093  0.0694 -0.1199 -0.1023
 2015DPPE   PO446034  15.901  27.267  20.209  0.2589  0.0357  0.0720
 2015DPPE   GL146035  15.708  26.870  20.367  0.2341  0.3220 -0.0845
 2015DPPE   GL246036  15.447  27.032  20.531 -0.0486 -0.2211  0.0490
 2015DPPE   C1A46037  15.499  26.502  20.278 -0.1937 -0.0995  0.3432
 2015DPPE   C2A46038  15.311  26.185  19.915  0.1239 -0.0406  0.0688
 2015DPPE   C3A46039  15.247  25.755  19.780 -0.0162 -0.0104 -0.1941
 2015DPPE   C4A46040  15.153  25.548  19.448  0.0635 -0.0528 -0.0158
 2015DPPE   C1B46041  15.326  26.621  20.740 -0.0966 -0.0276 -0.1990
 2015DPPE   C2B46042  15.335  26.083  20.612  0.4686 -0.3948  0.1312
 2015DPPE   C3B46043  15.470  25.767  20.279  0.0878  0.2950  0.0588
 2015DPPE   C4B46044  15.820  25.726  20.018 -0.0941 -0.1778  0.1694
 2016DPPE   NH346045  21.425  16.142  21.782  0.1026 -0.1027 -0.2688
 2016DPPE   PO446046  21.230  15.692  21.802 -0.0491 -0.1340 -0.0026
 2016DPPE   GL146047  21.150  15.763  21.377  0.3276 -0.0577 -0.0158
 2016DPPE   GL246048  21.191  15.577  21.113 -0.0922  0.0899 -0.0892
 2016DPPE   C1A46049  20.879  15.982  21.060 -0.1535  0.2541 -0.2985
 2016DPPE   C2A46050  20.610  16.018  20.777  0.0006 -0.0620  0.0638
 2016DPPE   C3A46051  20.358  16.164  20.467  0.2585 -0.1735 -0.1745
 2016DPPE   C4A46052  20.248  16.540  20.211 -0.1769 -0.1598  0.0622
 2016DPPE   C1B46053  21.031  15.732  20.652 -0.4469  0.1433 -0.0445
 2016DPPE   C2B46054  20.989  15.979  20.252 -0.1908 -0.1958  0.2488
 2016DPPE   C3B46055  20.682  16.236  20.063  0.1402  0.0514 -0.2181
 2016DPPE   C4B46056  20.558  16.175  19.639  0.0247 -0.2991  0.4780
 2017DPPE   NH346057  14.940  27.581  19.823 -0.0683 -0.0285 -0.0819
 2017DPPE   PO446058  15.111  27.685  19.413 -0.1413  0.0832 -0.3279
 2017DPPE   GL146059  14.810  27.427  19.331 -0.1733  0.2055 -0.1052
 2017DPPE   GL246060  14.610  27.200  19.587  0.0560  0.0024  0.0337
 2017DPPE   C1A46061  14.584  27.241  18.981 -0.1579 -0.0325  0.0110
 2017DPPE   C2A46062  14.520  26.826  18.776 -0.2863 -0.2987 -0.0312
 2017DPPE   C3A46063  14.673  26.561  18.625 -0.0216 -0.1896  0.0027
 2017DPPE   C4A46064  14.924  26.367  18.426  0.2817  0.1510  0.4810
 2017DPPE   C1B46065  14.785  26.818  19.693 -0.0509  0.0536  0.3920
 2017DPPE   C2B46066  14.729  26.348  19.487 -0.0106  0.0397  0.3142
 2017DPPE   C3B46067  14.432  26.119  19.242  0.0006 -0.0602  0.1949
 2017DPPE   C4B46068  14.322  25.657  19.067  0.0018  0.2392  0.0459
 2018DPPE   NH346069  17.090  26.932  20.902 -0.1812  0.0029 -0.0113
 2018DPPE   PO446070  17.249  26.542  20.899  0.2533  0.1661  0.0610
 2018DPPE   GL146071  17.190  26.184  20.639 -0.1176  0.5480 -0.1579
 2018DPPE   GL246072  17.476  25.951  20.613  0.0117 -0.2241  0.0194
 2018DPPE   C1A46073  16.850  26.007  20.449 -0.1590  0.0618 -0.3247
 2018DPPE   C2A46074  16.711  26.027  19.975  0.1324 -0.2898 -0.2227
 2018DPPE   C3A46075  16.391  26.364  19.835 -0.1645  0.0454 -0.0907
 2018DPPE   C4A46076  16.186  26.317  19.424 -0.0267 -0.4694  0.0949
 2018DPPE   C1B46077  17.691  25.744  20.291 -0.2779 -0.2071 -0.1122
 2018DPPE   C2B46078  17.759  25.379  19.983 -0.0131  0.4092  0.1017
 2018DPPE   C3B46079  17.999  25.158  19.675 -0.1414 -0.4412 -0.0708
 2018DPPE   C4B46080  18.308  24.895  19.359 -0.1245 -0.0237 -0.2221
 2019DPPE   NH346081   8.090  21.437  22.963 -0.1980  0.4187 -0.0418
 2019DPPE   PO446082   8.474  21.364  22.747  0.0230 -0.1396  0.0420
 2019DPPE   GL146083   8.513  21.251  22.344 -0.2692 -0.2864 -0.1753
 2019DPPE   GL246084   8.264  21.276  22.131 -0.0102  0.1802  0.0543
 2019DPPE   C1A46085   8.676  21.138  21.979  0.0818  0.2735  0.1630
 2019DPPE   C2A46086   8.786  21.312  21.567 -0.0200 -0.4727 -0.2021
 2019DPPE   C3A46087   8.646  21.565  21.237  0.0746  0.1560  0.1675
 2019DPPE   C4A46088   8.361  21.892  21.066 -0.3042  0.2814  0.0182
 2019DPPE   C1B46089   8.285  21.675  21.937  0.3480 -0.0025  0.0156
 2019DPPE   C2B46090   8.471  21.920  21.546 -0.1690  0.2377 -0.1065
 2019DPPE   C3B46091   8.768  22.235  21.459 -0.1768 -0.1153 -0.2183
 2019DPPE   C4B46092   8.812  22.556  21.605 -0.2761 -0.0508  0.0978
 2020DPPE   NH346093   7.782  20.140  22.575 -0.1061 -0.0110 -0.0705
 2020DPPE   PO446094   7.926  19.797  22.450  0.1117 -0.1349  0.2706
 2020DPPE   GL146095   7.882  19.564  22.125 -0.1370  0.1539 -0.0529
 2020DPPE   GL246096   7.759  19.169  22.065  0.1505  0.0895 -0.2349
 2020DPPE   C1A46097   7.609  19.648  21.763 -0.2963 -0.0787  0.3944
 2020DPPE   C2A46098   7.672  20.072  21.607  0.2091  0.1307  0.0908
 2020DPPE   C3A46099   7.590  20.443  21.675  0.1368 -0.0418  0.0242
 2020DPPE   C4A46100   7.349  20.713  21.589  0.0723  0.1421  0.0094
 2020DPPE   C1B46101   7.415  19.153  21.719  0.1151 -0.0194 -0.0824
 2020DPPE   C2B46102   7.115  18.696  21.693 -0.0288 -0.0623  0.3063
 2020DPPE   C3B46103   6.834  18.391  21.528  0.1611 -0.2902  0.1204
 2020DPPE   C4B46104   6.641  18.145  21.207  0.1112  0.0999  0.3808
 2021DPPE   NH346105  10.759  19.913  22.846 -0.2172 -0.0008  0.0264
 2021DPPE   PO446106  10.265  19.956  22.844  0.1037  0.2260  0.0806
 2021DPPE   GL146107  10.257  19.667  22.523  0.1063  0.0698 -0.3054
 2021DPPE   GL246108  10.538  19.540  22.417  0.0621 -0.0450 -0.0058
 2021DPPE   C1A46109  10.249  19.689  22.066  0.1112 -0.2034  0.0756
 2021DPPE   C2A46110  10.459  19.623  21.782  0.1116  0.2065 -0.2197
 2021DPPE   C3A46111  10.750  19.449  21.455  0.0369  0.0019 -0.0639
 2021DPPE   C4A46112  10.663  19.274  21.075  0.1898  0.2560  0.2785
 2021DPPE   C1B46113  10.788  19.794  22.095  0.4592  0.2951  0.0527
 2021DPPE   C2B46114  10.809  19.987  21.751 -0.1227 -0.2398 -0.3303
 2021DPPE   C3B46115  10.840  20.252  21.497 -0.0928  0.0558  0.1259
 2021DPPE   C4B46116  11.050  20.166  21.123 -0.0389 -0.2543  0.0407
 2022DPPE   NH346117  15.862  20.000  23.250  0.0450 -0.2750 -0.0358
 2022DPPE   PO446118  15.550  20.254  23.045 -0.0088 -0.0203 -0.2799
 2022DPPE   GL146119  15.540  20.460  22.717 -0.0760 -0.3726  0.0742
 2022DPPE   GL246120  15.696  20.698  22.732 -0.1047 -0.3455  0.2376
 2022DPPE   C1A46121  15.804  20.371  22.287  0.0014  0.0614 -0.2918
 2022DPPE   C2A46122  15.623  20.253  21.871 -0.0340  0.0561  0.1121
 2022DPPE   C3A46123  15.357  19.976  21.629 -0.3311  0.4316 -0.0565
 2022DPPE   C4A46124  15.069  19.689  21.521 -0.0514  0.0507  0.4170
 2022DPPE   C1B46125  15.424  20.866  22.266  0.0096 -0.1345  0.1071
 2022DPPE   C2B46126  15.229  21.097  21.845 -0.0519  0.0643 -0.1297
 2022DPPE   C3B46127  15.291  21.164  21.393 -0.1758 -0.0717 -0.1345
 2022DPPE   C4B46128  15.297  21.710  21.338 -0.0789  0.4200  0.1383
 2023DPPE   NH346129   6.354  22.616  22.135  0.0237  0.1855 -0.1451
 2023DPPE   PO446130   6.751  22.647  22.215 -0.0421 -0.0029 -0.0635
 2023DPPE   GL146131   6.777  22.450  21.804 -0.1789 -0.0620 -0.0259
 2023DPPE   GL246132   6.585  22.441  21.444 -0.0277 -0.1175 -0.2085
 2023DPPE   C1A46133   7.068  22.384  21.524  0.2288 -0.1588  0.0128
 2023DPPE   C2A46134   7.267  22.310  21.121  0.3828  0.2156 -0.0743
 2023DPPE   C3A46135   7.612  22.315  20.945  0.0589 -0.2411  0.0961
 2023DPPE   C4A46136   7.902  22.016  21.014  0.0860  0.1501 -0.1459
 2023DPPE   C1B46137   6.724  22.222  21.084  0.0843 -0.1234  0.1878
 2023DPPE   C2B46138   6.575  22.040  20.687  0.0289  0.0279  0.0975
 2023DPPE   C3B46139   6.248  21.749  20.533 -0.1856  0.0039  0.0367
 2023DPPE   C4B46140   5.785  21.745  20.264 -0.0139 -0.1880 -0.0649
 2024DPPE   NH346141  17.851   8.387  20.733 -0.0630  0.1661 -0.6115
 2024DPPE   PO446142  18.063   8.864  20.776 -0.2769 -0.0309 -0.0838
 2024DPPE   GL146143  17.925   8.924  20.338 -0.2476  0.0285  0.0162
 2024DPPE   GL246144  18.216   8.971  20.141  0.0779 -0.0133  0.2368
 2024DPPE   C1A46145  17.738   8.808  19.977 -0.1880 -0.1173 -0.1273
 2024DPPE   C2A46146  17.364   8.789  19.590 -0.0397 -0.2377  0.1433
 2024DPPE   C3A46147  17.360   8.439  19.322 -0.0033 -0.1073 -0.1143
 2024DPPE   C4A46148  17.693   8.219  19.126  0.1429 -0.1168  0.1940
 2024DPPE   C1B46149  18.263   8.944  19.728  0.1193 -0.1758  0.0864
 2024DPPE   C2B46150  18.329   8.706  19.323  0.1162  0.2137 -0.1115
 2024DPPE   C3B46151  18.146   8.531  19.009 -0.5114 -0.1382 -0.2388
 2024DPPE   C4B46152  18.002   8.622  18.530  0.0972 -0.1005  0.2655
 2025DPPE   NH346153  11.738  18.393  23.236  0.1838  0.3447  0.2324
 2025DPPE   PO446154  12.219  18.443  22.965 -0.1482  0.1967 -0.2906
 2025DPPE   GL146155  12.191  18.516  22.533  0.1162  0.2425  0.0576
 2025DPPE   GL246156  12.363  18.769  22.568 -0.1635  0.0850 -0.1990
 2025DPPE   C1A46157  12.082  18.522  22.053  0.3933  0.0699  0.1453
 2025DPPE   C2A46158  12.219  18.742  21.579 -0.0933  0.1499 -0.0360
 2025DPPE   C3A46159  12.514  18.850  21.204  0.0737  0.2199 -0.3816
 2025DPPE   C4A46160  12.372  19.343  21.124 -0.3752  0.2628 -0.1933
 2025DPPE   C1B46161  12.614  18.529  22.267  0.3526  0.0105 -0.0997
 2025DPPE   C2B46162  12.457  18.331  21.812  0.2348 -0.1499  0.0226
 2025DPPE   C3B46163  12.518  18.146  21.487  0.0601 -0.1208  0.1377
 2025DPPE   C4B46164  12.638  18.265  21.077 -0.3100 -0.3337  0.0821
 2026DPPE   NH346165  16.877  14.978  22.865  0.6736  0.1011 -0.0225
 2026DPPE   PO446166  16.506  15.118  23.115  0.0342  0.3582  0.0693
 2026DPPE   GL146167  16.529  15.295  22.708  0.0789  0.0222 -0.0630
 2026DPPE   GL246168  16.573  15.532  22.641 -0.1289 -0.0720  0.0174
 2026DPPE   C1A46169  16.586  15.083  22.389 -0.0495  0.1190 -0.1387
 2026DPPE   C2A46170  16.811  14.838  22.059  0.1741  0.1853  0.1011
 2026DPPE   C3A46171  16.885  14.774  21.596  0.0632 -0.2626  0.0329
 2026DPPE   C4A46172  16.730  14.609  21.220  0.2398  0.0744 -0.3835
 2026DPPE   C1B46173  16.754  15.715  22.265  0.1594 -0.1039 -0.1156
 2026DPPE   C2B46174  16.743  15.762  21.899  0.2620 -0.0789  0.0157
 2026DPPE   C3B46175  16.494  15.585  21.451  0.0071  0.0221 -0.0503
 2026DPPE   C4B46176  16.160  15.427  21.307  0.0832  0.5273  0.1538
 2027DPPE   NH346177  19.280  10.149  21.640 -0.0475 -0.3014  0.0683
 2027DPPE   PO446178  18.959  10.540  21.675 -0.0181 -0.0629  0.0912
 2027DPPE   GL146179  19.076  10.913  21.367  0.1712  0.2532  0.1017
 2027DPPE   GL246180  18.899  10.733  21.155  0.0387  0.1581 -0.0467
 2027DPPE   C1A46181  19.256  11.249  21.211  0.1481 -0.3391  0.0247
 2027DPPE   C2A46182  19.038  11.683  21.169 -0.3748  0.1183 -0.1689
 2027DPPE   C3A46183  19.010  11.954  20.804 -0.2148  0.2449 -0.2825
 2027DPPE   C4A46184  18.736  12.128  20.448  0.0086 -0.0559  0.1431
 2027DPPE   C1B46185  18.517  10.779  21.021  0.1993  0.1191 -0.1893
 2027DPPE   C2B46186  18.124  10.858  20.726  0.2632  0.2510  0.3012
 2027DPPE   C3B46187  17.726  10.955  20.506 -0.2426 -0.1379  0.0899
 2027DPPE   C4B46188  17.529  11.217  20.085  0.0777 -0.2341  0.0341
 2028DPPE   NH346189  21.423  18.407  21.639  0.0334  0.0806 -0.0308
 2028DPPE   PO446190  21.491  18.668  21.238  0.0868 -0.0087 -0.1585
 2028DPPE   GL146191  21.088  18.472  21.265 -0.1001 -0.1176  0.2772
 2028DPPE   GL246192  21.288  18.159  21.197 -0.2402  0.1958  0.2535
 2028DPPE   C1A46193  20.886  18.331  20.984  0.0283  0.0246  0.0163
 2028DPPE   C2A46194  20.756  18.142  20.690 -0.1637 -0.0459  0.0927
 2028DPPE   C3A46195  20.725  17.813  20.301  0.1906 -0.2449 -0.0681
 2028DPPE   C4A46196  20.520  17.591  19.894 -0.2121 -0.1612 -0.2334
 2028DPPE   C1B46197  21.159  17.864  20.872  0.0533  0.2006  0.0720
 2028DPPE   C2B46198  21.176  17.610  20.495  0.0157  0.0282  0.1863
 2028DPPE   C3B46199  21.102  17.576  20.009 -0.3470  0.3092 -0.1067
 2028DPPE   C4B46200  20.966  17.817  19.695 -0.2697  0.2836 -0.3184
 2029DPPE   NH346201   5.189  14.064  21.016  0.1363  0.1983 -0.0007
 2029DPPE   PO446202   5.606  13.890  21.125 -0.1956 -0.4524  0.1050
 2029DPPE   GL146203   5.860  14.160  20.828 -0.0705  0.3794  0.2865
 2029DPPE   GL246204   5.911  14.026  20.481 -0.2561 -0.0475  0.0008
 2029DPPE   C1A46205   6.164  14.445  20.665  0.1209 -0.1588  0.2034
 2029DPPE   C2A46206   6.188  14.437  20.174  0.2965  0.1165 -0.0566
 2029DPPE   C3A46207   6.202  14.793  19.770  0.0080  0.1570  0.0822
 2029DPPE   C4A46208   5.981  14.847  19.400  0.0237  0.2928  0.1678
 2029DPPE   C1B46209   6.302  13.771  20.308  0.1205  0.3299 -0.3289
 2029DPPE   C2B46210   6.812  13.711  20.272 -0.1221 -0.0370 -0.0973
 2029DPPE   C3B46211   6.967  13.559  20.611 -0.1759 -0.0195 -0.1080
 2029DPPE   C4B46212   6.916  13.444  21.013  0.0779  0.1479  0.4009
 2030DPPE   NH346213   6.976  25.293  16.573  0.0269  0.0137  0.0575
 2030DPPE   PO446214   7.008  25.774  16.673 -0.0869 -0.1955  0.2608
 2030DPPE   GL146215   7.237  25.561  17.017  0.3247  0.0530 -0.4157
 2030DPPE   GL246216   7.448  25.258  16.919  0.0302  0.2658  0.4069
 2030DPPE   C1A46217   7.140  25.262  17.316 -0.2526  0.0551  0.4557
 2030DPPE   C2A46218   7.154  24.953  17.607 -0.0002  0.3511  0.2320
 2030DPPE   C3A46219   6.890  24.874  18.025  0.1497 -0.1393  0.0278
 2030DPPE   C4A46220   6.788  24.584  18.367  0.3277 -0.2244  0.0740
 2030DPPE   C1B46221   7.854  25.334  16.879  0.3154  0.0087 -0.1916
 2030DPPE   C2B46222   7.954  25.537  16.482 -0.0742 -0.0047 -0.2670
 2030DPPE   C3B46223   8.153  25.823  16.107  0.1602 -0.0941 -0.5288
 2030DPPE   C4B46224   8.560  26.060  16.070  0.2537 -0.0978 -0.2157
 2031DPPE   NH346225  22.338  10.686  19.757 -0.0234  0.2121 -0.0951
 2031DPPE   PO446226  22.273  10.887  19.354 -0.0372  0.0544 -0.0090
 2031DPPE   GL146227  21.861  10.860  19.124  0.0501 -0.1940 -0.1717
 2031DPPE   GL246228  21.464  10.890  19.026 -0.2837  0.1658 -0.0740
 2031DPPE   C1A46229  21.804  11.216  18.787  0.2045  0.1749  0.0167
 2031DPPE   C2A46230  21.534  11.464  18.639 -0.3690 -0.0334 -0.0199
 2031DPPE   C3A46231  21.371  11.775  18.608  0.2337  0.1628  0.2806
 2031DPPE   C4A46232  21.509  12.166  18.584 -0.2394  0.2749  0.2553
 2031DPPE   C1B46233  21.245  11.072  18.665 -0.0140 -0.0324  0.0200
 2031DPPE   C2B46234  21.014  11.400  18.819  0.0019  0.4417 -0.1633
 2031DPPE   C3B46235  20.885  11.839  18.775 -0.0008  0.5127 -0.0025
 2031DPPE   C4B46236  20.930  12.180  18.723 -0.0760  0.1119  0.0225
 2032DPPE   NH346237  14.155  16.890  23.537 -0.3405 -0.0358  0.0759
 2032DPPE   PO446238  13.933  16.693  23.186  0.1028  0.3532  0.3979
 2032DPPE   GL146239  13.699  16.432  22.847 -0.1420  0.4035 -0.1331
 2032DPPE   GL246240  13.456  16.194  22.829 -0.0958 -0.1203  0.1175
 2032DPPE   C1A46241  13.579  16.351  22.379 -0.4322  0.1763  0.2878
 2032DPPE   C2A46242  13.640  16.148  22.008 -0.0163 -0.2165 -0.0142
 2032DPPE   C3A46243  13.682  15.982  21.600  0.0632  0.0909  0.1247
 2032DPPE   C4A46244  13.640  15.697  21.184 -0.2725 -0.1903 -0.0521
 2032DPPE   C1B46245  13.391  15.846  22.494 -0.1444  0.0378  0.1757
 2032DPPE   C2B46246  13.370  15.747  22.037  0.0618 -0.0679 -0.1897
 2032DPPE   C3B46247  13.259  15.669  21.628  0.0017  0.0968  0.2499
 2032DPPE   C4B46248  13.100  15.666  21.189 -0.0121  0.1394  0.1786
 2033DPPE   NH346249   9.780  20.912  22.745  0.0027  0.0792  0.4581
 2033DPPE   PO446250   9.320  20.848  22.983 -0.1952  0.3037 -0.2262
 2033DPPE   GL146251   9.245  20.750  22.492  0.0656  0.0371 -0.3483
 2033DPPE   GL246252   8.942  20.824  22.321 -0.1170 -0.2644 -0.4300
 2033DPPE   C1A46253   9.432  21.035  22.054 -0.1577  0.1990 -0.1269
 2033DPPE   C2A46254   9.346  21.111  21.628 -0.1164 -0.1168  0.2866
 2033DPPE   C3A46255   9.304  21.206  21.208  0.3496  0.0474 -0.2144
 2033DPPE   C4A46256   9.334  20.981  20.771 -0.1388  0.0292  0.0967
 2033DPPE   C1B46257   9.076  21.297  22.196 -0.1009  0.0986  0.0695
 2033DPPE   C2B46258   8.774  21.666  22.029  0.1516 -0.1525 -0.1179
 2033DPPE   C3B46259   8.911  21.832  21.743 -0.2131  0.2816 -0.0818
 2033DPPE   C4B46260   9.290  21.995  21.612 -0.0460  0.1199 -0.1436
 2034DPPE   NH346261  11.616  13.796  22.654  0.1774  0.0581 -0.0556
 2034DPPE   PO446262  11.940  13.564  22.569 -0.0193 -0.1421 -0.0424
 2034DPPE   GL146263  12.044  13.401  22.164 -0.0065  0.0303 -0.0253
 2034DPPE   GL246264  12.144  13.071  22.212 -0.2115 -0.2997 -0.1745
 2034DPPE   C1A46265  12.196  13.423  21.737 -0.0944  0.0306  0.0227
 2034DPPE   C2A46266  12.054  13.169  21.342 -0.2013 -0.0403  0.3379
 2034DPPE   C3A46267  12.164  12.929  21.040  0.0627  0.1672 -0.1129
 2034DPPE   C4A46268  11.980  12.970  20.569  0.1239 -0.2220  0.0011
 2034DPPE   C1B46269  11.861  13.043  21.886  0.2355  0.0571 -0.2244
 2034DPPE   C2B46270  11.667  12.864  21.547  0.0499 -0.0709  0.1264
 2034DPPE   C3B46271  11.674  12.790  21.059 -0.0928 -0.2248  0.0478
 2034DPPE   C4B46272  11.499  12.652  20.707  0.0128  0.0184 -0.1765
 2035DPPE   NH346273  15.034  18.509  23.400 -0.0877 -0.1915  0.2264
 2035DPPE   PO446274  14.887  18.649  23.106 -0.0833 -0.1233  0.0040
 2035DPPE   GL146275  14.767  19.003  22.882  0.0325  0.1327  0.0535
 2035DPPE   GL246276  15.225  19.112  22.743  0.3109 -0.1377  0.2756
 2035DPPE   C1A46277  14.817  19.474  22.768  0.1587 -0.0828  0.4550
 2035DPPE   C2A46278  14.463  19.633  22.601  0.3345  0.0530  0.0251
 2035DPPE   C3A46279  14.064  20.033  22.618  0.0534  0.0132 -0.2948
 2035DPPE   C4A46280  13.728  20.328  22.406 -0.0209 -0.3350  0.1263
 2035DPPE   C1B46281  15.489  18.970  22.397 -0.3250  0.2860  0.2535
 2035DPPE   C2B46282  15.504  19.061  22.021 -0.0197  0.0377 -0.1845
 2035DPPE   C3B46283  15.384  19.486  21.900 -0.2147  0.1580  0.0946
 2035DPPE   C4B46284  15.307  19.859  22.100  0.0723 -0.2462  0.1562
 2036DPPE   NH346285   8.528  14.850  21.992 -0.0189 -0.1562 -0.1520
 2036DPPE   PO446286   8.406  15.301  22.089  0.1271 -0.2446  0.2515
 2036DPPE   GL146287   8.451  15.216  21.661  0.0956  0.1702  0.0622
 2036DPPE   GL246288   8.182  15.036  21.468 -0.4091  0.1458  0.1363
 2036DPPE   C1A46289   8.698  15.134  21.244 -0.1038  0.1722 -0.0492
 2036DPPE   C2A46290   8.950  15.265  20.959 -0.0566  0.0133 -0.0427
 2036DPPE   C3A46291   9.319  15.243  20.768 -0.0330 -0.0896  0.0631
 2036DPPE   C4A46292   9.452  15.405  20.358 -0.0012 -0.2771  0.2197
 2036DPPE   C1B46293   8.132  15.149  21.058  0.1413 -0.2478 -0.1093
 2036DPPE   C2B46294   8.003  15.423  20.754  0.0940  0.0798 -0.0196
 2036DPPE   C3B46295   7.746  15.612  20.391  0.2474 -0.0087  0.0282
 2036DPPE   C4B46296   7.731  15.603  19.984  0.0181 -0.0454 -0.1643
 2037DPPE   NH346297  11.089  14.505  22.590 -0.2880  0.0418  0.1542
 2037DPPE   PO446298  10.763  14.735  22.479 -0.1156 -0.0117 -0.0395
 2037DPPE   GL146299  10.612  14.766  22.079  0.0924 -0.0211 -0.4907
 2037DPPE   GL246300  10.358  14.550  21.870  0.0819  0.3349  0.2202
 2037DPPE   C1A46301  10.719  14.814  21.692  0.1939  0.2234  0.2010
 2037DPPE   C2A46302  10.907  15.059  21.398 -0.1324  0.1246 -0.0313
 2037DPPE   C3A46303  11.262  15.205  21.281 -0.0796 -0.0765 -0.0589
 2037DPPE   C4A46304  11.508  15.133  20.871 -0.2357  0.3264  0.3356
 2037DPPE   C1B46305  10.724  14.272  21.622 -0.0836  0.0648 -0.3862
 2037DPPE   C2B46306  10.879  14.048  21.281  0.2303 -0.2073 -0.1690
 2037DPPE   C3B46307  10.715  14.041  20.843 -0.1719  0.4428 -0.2649
 2037DPPE   C4B46308  10.296  14.085  20.795  0.1530 -0.2336 -0.0821
 2038DPPE   NH346309   4.978  23.186  21.153 -0.1031  0.3847 -0.1821
 2038DPPE   PO446310   5.046  22.765  20.855 -0.3515 -0.0314  0.0929
 2038DPPE   GL146311   5.303  22.351  20.815  0.3890  0.0196 -0.0367
 2038DPPE   GL246312   5.525  22.281  20.870 -0.0268  0.1967 -0.1073
 2038DPPE   C1A46313   5.595  22.177  20.417 -0.4065 -0.2742 -0.0744
 2038DPPE   C2A46314   5.694  22.143  19.999  0.1790 -0.2901 -0.0495
 2038DPPE   C3A46315   5.939  22.541  19.698 -0.1677 -0.1074  0.3712
 2038DPPE   C4A46316   5.597  22.821  19.584 -0.0025 -0.2331  0.0780
 2038DPPE   C1B46317   5.857  22.002  20.784 -0.1079 -0.1802 -0.0573
 2038DPPE   C2B46318   6.153  21.592  21.006 -0.1200  0.1742 -0.4353
 2038DPPE   C3B46319   6.462  21.289  21.041 -0.2572 -0.2178  0.0728
 2038DPPE   C4B46320   6.526  20.931  21.255  0.0416  0.0156  0.1984
 2039DPPE   NH346321  17.018  13.339  22.759  0.0411  0.1237 -0.1022
 2039DPPE   PO446322  16.582  13.302  22.588 -0.1938  0.2755 -0.0629
 2039DPPE   GL146323  16.238  13.468  22.456  0.2272 -0.0477  0.1058
 2039DPPE   GL246324  16.400  13.582  22.200  0.0047  0.0413  0.1715
 2039DPPE   C1A46325  15.941  13.422  22.218 -0.0270 -0.0087  0.0027
 2039DPPE   C2A46326  15.772  13.300  21.848  0.0229 -0.0761  0.0066
 2039DPPE   C3A46327  15.562  13.049  21.472  0.0834  0.3060  0.2619
 2039DPPE   C4A46328  15.366  12.777  21.316 -0.3447 -0.0666 -0.0720
 2039DPPE   C1B46329  16.486  13.930  21.941  0.0646 -0.2373 -0.1099
 2039DPPE   C2B46330  16.244  14.146  21.598  0.2451 -0.1044 -0.1610
 2039DPPE   C3B46331  16.212  14.401  21.255  0.0373  0.0355  0.3689
 2039DPPE   C4B46332  16.295  14.521  20.921 -0.0821 -0.0010 -0.0203
 2040DPPE   NH346333  10.076  17.995  22.650 -0.2424 -0.2475  0.0970
 2040DPPE   PO446334  10.212  17.717  22.640  0.1845  0.0122  0.0449
 2040DPPE   GL146335   9.929  17.744  22.235 -0.1354 -0.0345  0.0919
 2040DPPE   GL246336   9.689  17.796  22.155  0.1000  0.0391 -0.2301
 2040DPPE   C1A46337  10.248  17.669  21.907 -0.1992 -0.1139  0.1846
 2040DPPE   C2A46338  10.416  17.801  21.508  0.3660 -0.2665 -0.1612
 2040DPPE   C3A46339  10.538  18.076  21.186  0.1270 -0.4631 -0.2193
 2040DPPE   C4A46340  10.898  18.144  20.749  0.1773 -0.1378 -0.1069
 2040DPPE   C1B46341   9.844  17.829  21.730  0.1087 -0.1420  0.1145
 2040DPPE   C2B46342   9.907  17.762  21.313 -0.0027  0.0448 -0.0890
 2040DPPE   C3B46343  10.145  17.655  20.962 -0.1725  0.3832  0.1971
 2040DPPE   C4B46344  10.601  17.692  20.946  0.0624  0.3190  0.0430
 2041DPPE   NH346345  12.866   9.260  22.230 -0.3671 -0.1493  0.3533
 2041DPPE   PO446346  13.154   9.060  22.187 -0.2919 -0.0490  0.1170
 2041DPPE   GL146347  13.310   9.466  22.051  0.2542  0.1499  0.1417
 2041DPPE   GL246348  13.182   9.710  22.183  0.0434 -0.1116  0.2286
 2041DPPE   C1A46349  13.618   9.722  21.732 -0.0066  0.1375 -0.2706
 2041DPPE   C2A46350  13.946   9.986  21.707  0.0393  0.3095  0.1431
 2041DPPE   C3A46351  14.278  10.205  21.847 -0.0655 -0.0621 -0.2254
 2041DPPE   C4A46352  14.204  10.696  21.905  0.0816  0.0269 -0.0968
 2041DPPE   C1B46353  13.527  10.133  22.100  0.2711  0.0865 -0.0567
 2041DPPE   C2B46354  13.810  10.487  21.918  0.1418 -0.2173 -0.2692
 2041DPPE   C3B46355  13.711  10.852  21.688 -0.2581 -0.1672  0.0899
 2041DPPE   C4B46356  13.873  11.253  21.684  0.0034  0.1889  0.0857
 2042DPPE   NH346357   7.528  24.036  22.151 -0.2486 -0.1603 -0.2202
 2042DPPE   PO446358   7.524  24.476  22.017 -0.0604  0.0649 -0.1950
 2042DPPE   GL146359   7.946  24.487  21.778 -0.0932  0.1896 -0.2836
 2042DPPE   GL246360   7.983  24.730  21.443 -0.0082  0.1799  0.3564
 2042DPPE   C1A46361   8.236  24.283  21.502  0.3860  0.0803 -0.1612
 2042DPPE   C2A46362   8.650  24.299  21.370 -0.1578  0.0941  0.0594
 2042DPPE   C3A46363   8.949  24.205  21.054 -0.0206 -0.2815 -0.3106
 2042DPPE   C4A46364   9.087  24.050  20.662 -0.0835  0.0307 -0.4214
 2042DPPE   C1B46365   8.132  25.010  21.099  0.1957  0.1344  0.0190
 2042DPPE   C2B46366   8.292  24.789  20.596  0.1556  0.0626  0.0762
 2042DPPE   C3B46367   8.328  24.378  20.405  0.2294 -0.0961  0.0688
 2042DPPE   C4B46368   8.687  24.311  20.102  0.2184  0.0298  0.1587
 2043DPPE   NH346369  16.824  10.137  21.652 -0.2421 -0.0323 -0.1436
 2043DPPE   PO446370  16.865   9.742  21.788 -0.1031  0.0557  0.1985
 2043DPPE   GL146371  16.587   9.746  21.355  0.0637 -0.2762  0.0267
 2043DPPE   GL246372  16.344  10.010  21.208 -0.0620 -0.2316 -0.1720
 2043DPPE   C1A46373  16.363   9.414  21.071  0.0254 -0.1299 -0.2542
 2043DPPE   C2A46374  16.048   9.596  20.866  0.1897  0.2144 -0.3419
 2043DPPE   C3A46375  15.748   9.825  20.570 -0.0956 -0.2425 -0.0437
 2043DPPE   C4A46376  15.459   9.802  20.136 -0.1146 -0.0555 -0.0551
 2043DPPE   C1B46377  16.139  10.142  20.810  0.0824  0.1583 -0.3324
 2043DPPE   C2B46378  16.336  10.144  20.343  0.0229  0.2030 -0.2065
 2043DPPE   C3B46379  16.348  10.451  20.065 -0.0385  0.0387  0.0906
 2043DPPE   C4B46380  16.339  10.423  19.673 -0.1964  0.1028  0.1753
 2044DPPE   NH346381  22.212  19.606  20.174  0.3632  0.0579 -0.3740
 2044DPPE   PO446382  22.435  19.867  19.818  0.1604 -0.2592  0.1476
 2044DPPE   GL146383  21.986  19.894  19.753  0.2113  0.0209  0.0356
 2044DPPE   GL246384  21.740  19.821  19.940 -0.1435 -0.4209  0.0040
 2044DPPE   C1A46385  21.560  20.125  19.592 -0.0492  0.0546 -0.0518
 2044DPPE   C2A46386  21.429  20.451  19.335  0.2323 -0.0892 -0.1499
 2044DPPE   C3A46387  21.073  20.398  19.157  0.1127  0.0390 -0.1648
 2044DPPE   C4A46388  20.779  20.223  18.864 -0.1238 -0.3821  0.2418
 2044DPPE   C1B46389  21.313  19.806  19.864  0.1247 -0.1487  0.0602
 2044DPPE   C2B46390  20.862  19.692  19.807 -0.0030 -0.1055 -0.1750
 2044DPPE   C3B46391  20.508  19.402  19.741 -0.2663  0.3368  0.1616
 2044DPPE   C4B46392  20.324  19.142  19.450  0.0325  0.0047 -0.2748
 2045DPPE   NH346393  21.944  12.702  20.348 -0.4470  0.3599  0.0513
 2045DPPE   PO446394  21.781  12.970  20.797  0.1147  0.3451  0.0516
 2045DPPE   GL146395  21.510  13.010  20.480 -0.0702  0.0672  0.0670
 2045DPPE   GL246396  21.364  12.814  20.230  0.2226  0.0576 -0.2444
 2045DPPE   C1A46397  21.550  13.328  20.125 -0.2015  0.1993 -0.1304
 2045DPPE   C2A46398  21.584  13.367  19.692 -0.1600  0.0349  0.1498
 2045DPPE   C3A46399  21.389  13.557  19.316  0.3153  0.2240 -0.0114
 2045DPPE   C4A46400  21.159  13.723  18.876  0.0042 -0.1929  0.0605
 2045DPPE   C1B46401  21.319  12.948  19.800  0.4476 -0.1378 -0.3245
 2045DPPE   C2B46402  21.003  13.146  19.633  0.4020  0.0998 -0.1991
 2045DPPE   C3B46403  20.725  12.919  19.437  0.1408  0.2336 -0.1394
 2045DPPE   C4B46404  20.403  12.750  19.241  0.3574  0.2591 -0.1760
 2046DPPE   NH346405  21.281  14.411  22.123  0.1004 -0.1999  0.1037
 2046DPPE   PO446406  20.836  14.281  21.928 -0.0213  0.1456 -0.1542
 2046DPPE   GL146407  20.608  14.432  21.778 -0.0915  0.2155 -0.2459
 2046DPPE   GL246408  20.203  14.453  21.819  0.4469 -0.3854  0.0385
 2046DPPE   C1A46409  20.495  14.497  21.369  0.2421 -0.0476  0.1529
 2046DPPE   C2A46410  20.249  14.369  21.089  0.4857 -0.0626  0.2447
 2046DPPE   C3A46411  20.217  14.478  20.682 -0.0958 -0.0075 -0.1638
 2046DPPE   C4A46412  19.913  14.243  20.342 -0.3447 -0.3090  0.0633
 2046DPPE   C1B46413  20.007  14.698  21.436  0.0983 -0.2000 -0.2457
 2046DPPE   C2B46414  20.054  14.793  21.045 -0.3154 -0.2347  0.4605
 2046DPPE   C3B46415  20.267  14.964  20.569 -0.2205 -0.0067  0.2458
 2046DPPE   C4B46416  20.245  15.180  20.221 -0.2754  0.0101 -0.1640
 2047DPPE   NH346417  20.974  10.731  20.343  0.1990  0.2556 -0.0319
 2047DPPE   PO446418  20.692  10.434  20.209  0.0971 -0.0002 -0.0407
 2047DPPE   GL146419  20.445  10.616  19.824 -0.0419  0.1647  0.0220
 2047DPPE   GL246420  20.289  10.914  19.848 -0.2242  0.1504 -0.5381
 2047DPPE   C1A46421  20.504  10.815  19.419  0.1921  0.1867 -0.0416
 2047DPPE   C2A46422  20.532  11.198  19.225 -0.4589  0.0397 -0.1143
 2047DPPE   C3A46423  20.307  11.636  19.097 -0.2198  0.0457  0.2706
 2047DPPE   C4A46424  20.131  11.981  18.798 -0.0024 -0.2496  0.2942
 2047DPPE   C1B46425  20.219  11.208  19.644 -0.0785  0.2237 -0.2534
 2047DPPE   C2B46426  19.916  11.391  19.437 -0.0680 -0.0188 -0.0883
 2047DPPE   C3B46427  19.511  11.425  19.218 -0.1063 -0.0020 -0.2302
 2047DPPE   C4B46428  19.310  11.491  18.820 -0.1172  0.0565 -0.0802
 2048DPPE   NH346429  12.530  23.011  22.602  0.1543  0.4461 -0.1788
 2048DPPE   PO446430  12.339  22.524  22.554 -0.1075 -0.2681 -0.1161
 2048DPPE   GL146431  12.373  22.336  22.179 -0.0960 -0.2171  0.1693
 2048DPPE   GL246432  12.681  22.226  22.005 -0.2913  0.0235 -0.1553
 2048DPPE   C1A46433  12.203  22.072  21.790 -0.0863 -0.3029  0.0632
 2048DPPE   C2A46434  12.265  22.132  21.381  0.1606 -0.0626 -0.0170
 2048DPPE   C3A46435  12.495  21.973  21.226 -0.0071  0.0170 -0.0130
 2048DPPE   C4A46436  12.695  21.685  21.091  0.1218 -0.2038  0.2526
 2048DPPE   C1B46437  12.698  21.871  21.689  0.1482  0.0425  0.3048
 2048DPPE   C2B46438  12.476  21.565  21.506  0.0430  0.6127 -0.0752
 2048DPPE   C3B46439  12.211  21.260  21.716  0.1644 -0.2456 -0.0202
 2048DPPE   C4B46440  11.846  21.250  21.789 -0.0000 -0.1516 -0.1395
 2049DPPE   NH346441  14.041  10.937  22.778  0.1279 -0.1723  0.2675
 2049DPPE   PO446442  13.610  11.088  22.625 -0.1976 -0.3927 -0.0332
 2049DPPE   GL146443  13.458  11.346  22.319 -0.0726  0.0856 -0.0274
 2049DPPE   GL246444  13.284  11.622  22.243  0.1680  0.0296 -0.1425
 2049DPPE   C1A46445  13.374  11.218  21.905 -0.2973  0.0323  0.0432
 2049DPPE   C2A46446  13.355  11.175  21.544  0.1471 -0.0194 -0.1134
 2049DPPE   C3A46447  13.258  11.189  21.028  0.1113  0.2104 -0.3115
 2049DPPE   C4A46448  13.499  11.012  20.798 -0.0024  0.3159 -0.0412
 2049DPPE   C1B46449  13.025  11.840  22.062 -0.0063  0.0475 -0.1451
 2049DPPE   C2B46450  12.748  11.857  21.874 -0.0011 -0.0169  0.0657
 2049DPPE   C3B46451  12.654  11.767  21.541 -0.4664  0.0824  0.0403
 2049DPPE   C4B46452  12.736  11.964  21.088  0.0753 -0.2225 -0.1562
 2050DPPE   NH346453  10.564  12.845  22.247  0.0447  0.1045  0.2357
 2050DPPE   PO446454  10.138  13.016  22.520 -0.0469 -0.0236 -0.0351
 2050DPPE   GL146455  10.010  12.930  22.145  0.1930 -0.1854  0.1425
 2050DPPE   GL246456  10.218  12.764  21.875 -0.0448  0.0224 -0.0322
 2050DPPE   C1A46457   9.873  13.117  21.764 -0.4835  0.0727 -0.0713
 2050DPPE   C2A46458   9.530  13.039  21.400  0.1641  0.2290 -0.2330
 2050DPPE   C3A46459   9.126  12.783  21.377 -0.2986  0.3017  0.1373
 2050DPPE   C4A46460   8.764  13.103  21.299  0.0159  0.0971 -0.2157
 2050DPPE   C1B46461  10.199  12.757  21.422  0.0691 -0.1246 -0.0700
 2050DPPE   C2B46462  10.292  12.453  21.186 -0.0932  0.1899  0.2696
 2050DPPE   C3B46463  10.749  12.354  21.130  0.2652  0.0392 -0.0998
 2050DPPE   C4B46464  11.096  12.073  21.171 -0.1920  0.1895  0.0697
 2051DPPE   NH346465  16.467  19.678  23.317 -0.0554  0.1327 -0.3418
 2051DPPE   PO446466  16.915  19.429  23.302 -0.0988  0.2087 -0.0936
 2051DPPE   GL146467  16.663  19.436  22.851  0.0198 -0.5187 -0.1871
 2051DPPE   GL246468  16.791  19.593  22.563 -0.0211 -0.1209 -0.1826
 2051DPPE   C1A46469  16.337  19.308  22.541 -0.0744 -0.0166  0.2174
 2051DPPE   C2A46470  16.421  19.295  22.138 -0.0154  0.1994  0.1207
 2051DPPE   C3A46471  16.391  19.215  21.647  0.1313  0.2099 -0.3185
 2051DPPE   C4A46472  16.143  19.037  21.363 -0.0276 -0.1425  0.2079
 2051DPPE   C1B46473  16.759  19.696  22.176  0.1675 -0.1488 -0.2015
 2051DPPE   C2B46474  16.854  19.499  21.816 -0.0173  0.1341  0.1432
 2051DPPE   C3B46475  16.890  19.352  21.360  0.0708  0.1374 -0.0509
 2051DPPE   C4B46476  16.577  19.182  21.029  0.5531 -0.0423 -0.0200
 2052DPPE   NH346477  14.026  15.521  23.250 -0.1499  0.2761  0.0298
 2052DPPE   PO446478  14.235  15.320  22.917 -0.0497 -0.3119  0.2480
 2052DPPE   GL146479  14.414  15.517  22.607 -0.1003 -0.2875 -0.0796
 2052DPPE   GL246480  14.574  15.220  22.580  0.0275  0.0305 -0.0729
 2052DPPE   C1A46481  14.383  15.498  22.130 -0.2205  0.0079  0.1033
 2052DPPE   C2A46482  14.363  15.350  21.754 -0.0821 -0.3042  0.0288
 2052DPPE   C3A46483  14.386  15.288  21.310 -0.1398 -0.3538  0.3583
 2052DPPE   C4A46484  14.504  15.030  20.956  0.0675  0.1135 -0.0333
 2052DPPE   C1B46485  14.596  14.915  22.183 -0.1283 -0.2013 -0.0591
 2052DPPE   C2B46486  14.585  14.712  21.822  0.0177  0.2311  0.2838
 2052DPPE   C3B46487  14.458  14.745  21.434  0.2614 -0.0406  0.2695
 2052DPPE   C4B46488  14.346  14.561  20.998 -0.0550 -0.0149  0.1109
 2053DPPE   NH346489  21.087  12.973  20.737 -0.0973  0.2928 -0.0684
 2053DPPE   PO446490  21.268  13.244  20.932 -0.2266  0.0447  0.1520
 2053DPPE   GL146491  21.366  13.489  20.585 -0.4272 -0.0048 -0.3356
 2053DPPE   GL246492  21.661  13.509  20.730  0.0108  0.0747  0.0570
 2053DPPE   C1A46493  21.363  13.837  20.204  0.2099  0.0276 -0.0000
 2053DPPE   C2A46494  21.009  14.129  20.161  0.1366  0.0605 -0.2301
 2053DPPE   C3A46495  20.563  14.166  20.076 -0.0891  0.0669  0.2779
 2053DPPE   C4A46496  20.275  14.152  19.832 -0.0214  0.0954  0.2850
 2053DPPE   C1B46497  21.607  13.996  20.829 -0.2235 -0.0632 -0.1473
 2053DPPE   C2B46498  21.160  14.314  20.915  0.1656 -0.0140  0.1183
 2053DPPE   C3B46499  20.727  14.580  20.981  0.1726 -0.3500 -0.0430
 2053DPPE   C4B46500  20.535  14.962  21.054  0.1896  0.1924 -0.0126
 2054DPPE   NH346501   7.648   7.522  18.557 -0.1322 -0.1327  0.2369
 2054DPPE   PO446502   7.701   7.867  18.696 -0.2005 -0.0618 -0.0121
 2054DPPE   GL146503   8.124   8.089  18.610  0.1394 -0.0677  0.0355
 2054DPPE   GL246504   8.309   7.880  18.471 -0.1539  0.4944 -0.2992
 2054DPPE   C1A46505   8.368   8.385  18.252  0.3314  0.0448 -0.1702
 2054DPPE   C2A46506   8.282   8.683  17.864 -0.0507 -0.0299 -0.0149
 2054DPPE   C3A46507   8.323   9.121  17.817  0.0181  0.1137  0.1585
 2054DPPE   C4A46508   8.367   9.404  17.381  0.2497 -0.0478 -0.0282
 2054DPPE   C1B46509   8.750   7.950  18.668 -0.2333  0.0035  0.1898
 2054DPPE   C2B46510   9.003   7.846  19.036  0.0617 -0.1223  0.2533
 2054DPPE   C3B46511   9.379   8.111  19.256 -0.2616  0.3961 -0.0841
 2054DPPE   C4B46512   9.727   8.150  19.605  0.3174  0.2548 -0.2612
 2055DPPE   NH346513  13.592  27.512  20.308 -0.1709  0.0899 -0.1119
 2055DPPE   PO446514  13.137  27.636  20.155 -0.2462  0.1708  0.0866
 2055DPPE   GL146515  12.773  27.430  20.061  0.3077 -0.1951 -0.2240
 2055DPPE   GL246516  12.825  27.149  20.362  0.0561  0.2158 -0.0027
 2055DPPE   C1A46517  12.323  27.207  19.978 -0.4851  0.0002 -0.0179
 2055DPPE   C2A46518  12.048  26.823  19.956  0.0816 -0.1671 -0.3742
 2055DPPE   C3A46519  11.728  26.624  19.971  0.1549 -0.2083 -0.2069
 2055DPPE   C4A46520  11.325  26.557  19.719 -0.0667 -0.1516 -0.1908
 2055DPPE   C1B46521  12.475  26.804  20.328  0.0973  0.4059 -0.1381
 2055DPPE   C2B46522  12.126  26.457  20.356 -0.1607  0.0027  0.1000
 2055DPPE   C3B46523  11.793  26.207  20.214  0.1030 -0.0925  0.0493
 2055DPPE   C4B46524  11.398  25.804  20.198 -0.1522 -0.0664  0.1812
 2056DPPE   NH346525  19.542  19.474  22.552  0.1476  0.2375  0.3147
 2056DPPE   PO446526  19.459  19.796  22.233  0.0314 -0.1449  0.1700
 2056DPPE   GL146527  19.203  19.545  21.904  0.1797  0.0170 -0.1958
 2056DPPE   GL246528  19.111  19.395  22.173  0.0152 -0.0532 -0.0623
 2056DPPE   C1A46529  18.993  19.449  21.595  0.0859 -0.3726  0.0641
 2056DPPE   C2A46530  19.006  19.299  21.126 -0.1356  0.0072 -0.2107
 2056DPPE   C3A46531  18.943  19.267  20.720 -0.1123  0.0963 -0.2621
 2056DPPE   C4A46532  18.937  19.539  20.411 -0.0069 -0.4201 -0.0058
 2056DPPE   C1B46533  18.890  19.094  22.131 -0.1114  0.0311 -0.0022
 2056DPPE   C2B46534  18.983  18.783  22.009  0.4001  0.0968  0.1047
 2056DPPE   C3B46535  18.956  18.601  21.596 -0.2350 -0.0853  0.1189
 2056DPPE   C4B46536  19.137  18.773  21.189 -0.0545  0.4051 -0.0686
 2057DPPE   NH346537   7.626   8.584  20.878  0.0744  0.1014 -0.0187
 2057DPPE   PO446538   7.526   8.334  20.584 -0.1548 -0.0559  0.1664
 2057DPPE   GL146539   7.650   8.670  20.266 -0.2463  0.0130  0.2916
 2057DPPE   GL246540   7.419   8.913  20.303 -0.0400  0.1741 -0.0376
 2057DPPE   C1A46541   7.804   8.860  19.823 -0.0921 -0.0905  0.0216
 2057DPPE   C2A46542   8.095   8.638  19.492  0.0917 -0.0147 -0.2647
 2057DPPE   C3A46543   8.315   8.287  19.356 -0.0387 -0.1665 -0.2897
 2057DPPE   C4A46544   8.537   8.190  19.054  0.1754  0.1896 -0.0769
 2057DPPE   C1B46545   7.429   9.184  20.003  0.0493 -0.4834 -0.0525
 2057DPPE   C2B46546   7.235   9.560  19.944  0.2507 -0.0854  0.3774
 2057DPPE   C3B46547   7.170  10.058  19.923  0.2134 -0.0340  0.1719
 2057DPPE   C4B46548   7.067  10.264  20.158  0.2118 -0.1310 -0.3077
 2058DPPE   NH346549  10.501   9.222  21.928  0.1480  0.2102 -0.2947
 2058DPPE   PO446550  10.242   8.964  22.108  0.2220 -0.4385  0.1029
 2058DPPE   GL146551  10.011   9.221  22.220  0.2254 -0.0071 -0.1366
 2058DPPE   GL246552   9.914   9.298  22.633  0.0490  0.2643 -0.1251
 2058DPPE   C1A46553   9.887   9.663  22.185  0.1188 -0.0214 -0.0372
 2058DPPE   C2A46554  10.027  10.020  22.052  0.2315 -0.0262  0.1392
 2058DPPE   C3A46555  10.271  10.254  21.829 -0.2046 -0.0884 -0.1408
 2058DPPE   C4A46556  10.355  10.598  21.651  0.1001  0.1386  0.0641
 2058DPPE   C1B46557   9.722   9.734  22.608  0.0268 -0.1047  0.2589
 2058DPPE   C2B46558   9.858  10.176  22.469 -0.0590 -0.0996 -0.1311
 2058DPPE   C3B46559   9.716  10.474  22.281  0.3144  0.1124 -0.0922
 2058DPPE   C4B46560   9.934  10.572  21.931  0.4126 -0.0396  0.0412
 2059DPPE   NH346561   9.753  19.834  22.671 -0.1498 -0.0733  0.3964
 2059DPPE   PO446562   9.278  19.799  22.604 -0.0031  0.2415 -0.0532
 2059DPPE   GL146563   9.414  19.970  22.241 -0.1018  0.1096 -0.2381
 2059DPPE   GL246564   9.370  20.273  22.316 -0.0676  0.1791  0.0017
 2059DPPE   C1A46565   9.808  20.068  21.932  0.0479 -0.3607 -0.0729
 2059DPPE   C2A46566   9.624  20.015  21.491 -0.1756  0.0895  0.0058
 2059DPPE   C3A46567   9.665  19.804  21.218  0.0361  0.4246  0.2995
 2059DPPE   C4A46568   9.955  19.500  20.919  0.2204 -0.1682  0.2763
 2059DPPE   C1B46569   9.014  20.358  22.113 -0.0555 -0.0956  0.0093
 2059DPPE   C2B46570   8.927  20.677  21.837  0.2607  0.0831  0.0342
 2059DPPE   C3B46571   8.564  20.794  21.641 -0.1239  0.1755  0.1229
 2059DPPE   C4B46572   8.260  21.179  21.604 -0.2812  0.0491 -0.1111
 2060DPPE   NH346573  20.748  23.443  17.838 -0.2304 -0.1793 -0.0854
 2060DPPE   PO446574  20.543  23.457  18.159  0.2459 -0.4835 -0.0695
 2060DPPE   GL146575  20.500  23.876  17.992 -0.1704  0.0970 -0.2263
 2060DPPE   GL246576  20.362  23.846  17.695  0.3563  0.0129  0.0802
 2060DPPE   C1A46577  20.283  24.226  18.191  0.2702 -0.0024 -0.1284
 2060DPPE   C2A46578  20.013  24.684  18.250 -0.1503  0.0985  0.0496
 2060DPPE   C3A46579  19.949  25.015  18.572 -0.3130 -0.0269 -0.0749
 2060DPPE   C4A46580  19.888  25.063  19.000  0.0429 -0.0034 -0.0525
 2060DPPE   C1B46581  19.887  24.028  17.741  0.5183  0.0633 -0.3605
 2060DPPE   C2B46582  19.731  24.232  18.139  0.2904 -0.1837  0.2877
 2060DPPE   C3B46583  19.473  24.527  18.192 -0.0810 -0.1521 -0.0184
 2060DPPE   C4B46584  19.561  24.837  18.412  0.0412  0.1410 -0.3057
 2061DPPE   NH346585   6.700   8.755  17.570  0.0519  0.2320 -0.2179
 2061DPPE   PO446586   6.512   8.721  17.990  0.0227  0.0309  0.0564
 2061DPPE   GL146587   6.898   8.954  18.149  0.0553 -0.1390 -0.1175
 2061DPPE   GL246588   7.142   9.020  17.917  0.0468 -0.5110  0.1598
 2061DPPE   C1A46589   6.964   9.420  18.200 -0.0478 -0.0205  0.1289
 2061DPPE   C2A46590   7.085   9.801  18.520  0.5475  0.1448  0.3609
 2061DPPE   C3A46591   7.376   9.919  18.857 -0.0091  0.2605  0.1307
 2061DPPE   C4A46592   7.496   9.950  19.293  0.1331 -0.0981 -0.0421
 2061DPPE   C1B46593   7.470   9.157  18.166  0.2195  0.2291 -0.0619
 2061DPPE   C2B46594   7.866   9.162  18.306 -0.1590  0.0880 -0.1315
 2061DPPE   C3B46595   8.172   9.405  18.173 -0.1985  0.0907  0.1374
 2061DPPE   C4B46596   8.431   9.595  17.844 -0.0691 -0.1989 -0.0612
 2062DPPE   NH346597  19.605  20.276  22.316  0.2133 -0.0000  0.1646
 2062DPPE   PO446598  20.011  20.472  22.044  0.1629  0.1485 -0.3867
 2062DPPE   GL146599  19.830  20.212  21.682  0.1282 -0.2387  0.2375
 2062DPPE   GL246600  19.632  20.028  21.840 -0.1502 -0.0599  0.1814
 2062DPPE   C1A46601  19.903  20.076  21.334 -0.1517  0.0236 -0.1580
 2062DPPE   C2A46602  20.165  20.216  20.980  0.3739  0.1270 -0.0511
 2062DPPE   C3A46603  20.024  20.316  20.607 -0.4823  0.1435  0.1299
 2062DPPE   C4A46604  19.666  20.250  20.419 -0.0816 -0.0562  0.2869
 2062DPPE   C1B46605  19.395  19.830  21.456  0.2155 -0.4196 -0.0867
 2062DPPE   C2B46606  19.287  19.793  20.973 -0.2525 -0.1827 -0.0394
 2062DPPE   C3B46607  19.214  20.022  20.557 -0.3744 -0.0485  0.0413
 2062DPPE   C4B46608  19.225  19.874  20.154  0.1820 -0.0090 -0.1010
 2063DPPE   NH346609   8.715   8.532  21.353 -0.1782 -0.0960 -0.0226
 2063DPPE   PO446610   8.364   8.221  21.187 -0.0452 -0.0088 -0.2896
 2063DPPE   GL146611   8.397   8.655  20.901  0.3292 -0.3177  0.0967
 2063DPPE   GL246612   8.729   8.620  20.794  0.2172 -0.2779  0.3084
 2063DPPE   C1A46613   8.338   8.933  20.501  0.1575  0.0422  0.3072
 2063DPPE   C2A46614   8.441   9.208  20.242  0.0147  0.1254  0.0061
 2063DPPE   C3A46615   8.687   9.534  20.014  0.1349  0.0418  0.1704
 2063DPPE   C4A46616   8.950   9.778  19.808  0.3288 -0.0117  0.0105
 2063DPPE   C1B46617   9.117   8.804  20.535 -0.2973  0.1770 -0.0550
 2063DPPE   C2B46618   9.455   8.759  20.149 -0.3380  0.1124  0.2679
 2063DPPE   C3B46619   9.808   8.680  19.783 -0.5063  0.0651  0.1582
 2063DPPE   C4B46620  10.228   8.498  19.804 -0.0901  0.0455 -0.0397
 2064DPPE   NH346621  23.262  13.461  19.255 -0.2967 -0.0986  0.0568
 2064DPPE   PO446622  22.808  13.481  19.348  0.1796  0.1254  0.2801
 2064DPPE   GL146623  22.394  13.448  19.224 -0.0887  0.0388 -0.1453
 2064DPPE   GL246624  22.432  13.681  19.105 -0.2557 -0.0701 -0.0712
 2064DPPE   C1A46625  22.244  13.081  18.999 -0.0374  0.0081  0.0491
 2064DPPE   C2A46626  21.851  13.055  18.848 -0.3859  0.1179 -0.0939
 2064DPPE   C3A46627  21.532  13.362  18.752 -0.0553 -0.1253 -0.0020
 2064DPPE   C4A46628  21.502  13.597  18.399 -0.1168 -0.2401  0.1892
 2064DPPE   C1B46629  22.118  13.999  18.964 -0.1730  0.2520  0.3282
 2064DPPE   C2B46630  22.001  14.448  18.881 -0.1242 -0.1104  0.0577
 2064DPPE   C3B46631  21.726  14.465  18.618  0.0346  0.0545  0.0279
 2064DPPE   C4B46632  21.664  14.591  18.154  0.1362  0.0455  0.1440
 2065DPPE   NH346633  23.271  15.166  19.163 -0.0888 -0.0643  0.2326
 2065DPPE   PO446634  23.226  15.144  19.593  0.2780 -0.1924 -0.0215
 2065DPPE   GL146635  22.830  15.202  19.495 -0.3482 -0.1478  0.1157
 2065DPPE   GL246636  22.618  15.028  19.641  0.0009 -0.1147  0.0138
 2065DPPE   C1A46637  22.629  15.548  19.503 -0.1765 -0.3059  0.0123
 2065DPPE   C2A46638  22.283  15.527  19.309  0.1157 -0.1675  0.0031
 2065DPPE   C3A46639  21.812  15.649  19.283 -0.1292  0.1058  0.1065
 2065DPPE   C4A46640  21.544  15.801  19.515 -0.0917 -0.2439  0.0836
 2065DPPE   C1B46641  22.188  15.039  19.475 -0.0038 -0.0597 -0.1075
 2065DPPE   C2B46642  21.785  15.217  19.354 -0.1004  0.1223 -0.2276
 2065DPPE   C3B46643  21.519  15.301  19.005 -0.1788 -0.3181  0.1675
 2065DPPE   C4B46644  21.435  15.712  18.944  0.1511  0.1213 -0.1109
 2066DPPE   NH346645  14.182  12.500  22.740 -0.1151  0.1940  0.0071
 2066DPPE   PO446646  14.643  12.355  22.664  0.1029 -0.1832 -0.0772
 2066DPPE   GL146647  14.603  12.128  22.353  0.2057 -0.1940 -0.3702
 2066DPPE   GL246648  14.656  11.740  22.332 -0.1832 -0.0018 -0.2690
 2066DPPE   C1A46649  14.504  12.080  21.943 -0.0189 -0.0176  0.0047
 2066DPPE   C2A46650  14.361  11.966  21.442 -0.1741 -0.1118  0.1369
 2066DPPE   C3A46651  14.261  11.970  21.163 -0.0323  0.1388  0.2836
 2066DPPE   C4A46652  13.871  11.940  20.942 -0.2900 -0.2351  0.2374
 2066DPPE   C1B46653  14.846  11.626  21.963  0.0630  0.1780 -0.0985
 2066DPPE   C2B46654  15.010  11.573  21.566 -0.2985  0.2401 -0.0868
 2066DPPE   C3B46655  15.243  11.529  21.171  0.1910 -0.0452 -0.1329
 2066DPPE   C4B46656  15.320  11.785  20.866  0.0249  0.1453  0.5216
 2067DPPE   NH346657  18.273  14.954  22.928 -0.0470 -0.0269 -0.2192
 2067DPPE   PO446658  18.120  14.589  22.920 -0.0775  0.0717 -0.3296
 2067DPPE   GL146659  17.865  14.728  22.539 -0.0030 -0.0426  0.0760
 2067DPPE   GL246660  18.157  14.859  22.445  0.1221 -0.3770 -0.1767
 2067DPPE   C1A46661  17.763  14.947  22.141  0.0688 -0.0763 -0.2862
 2067DPPE   C2A46662  17.791  15.115  21.690 -0.1202  0.1385  0.2373
 2067DPPE   C3A46663  17.880  15.081  21.293  0.1606 -0.2415 -0.1886
 2067DPPE   C4A46664  17.666  15.172  20.911  0.2282 -0.2245  0.0261
 2067DPPE   C1B46665  18.210  14.894  22.016 -0.1961 -0.2410 -0.0150
 2067DPPE   C2B46666  18.189  14.779  21.525  0.0104  0.1369 -0.0155
 2067DPPE   C3B46667  18.289  14.622  21.113 -0.0193  0.3181  0.2385
 2067DPPE   C4B46668  18.246  14.663  20.617  0.3689 -0.0897 -0.0630
 2068DPPE   NH346669  13.475  26.759  20.927  0.0118  0.0123 -0.1758
 2068DPPE   PO446670  13.398  27.129  20.657 -0.1540 -0.1070 -0.2636
 2068DPPE   GL146671  13.259  27.127  20.186 -0.1460 -0.0568  0.0145
 2068DPPE   GL246672  13.474  27.005  19.971 -0.2476 -0.3554 -0.0371
 2068DPPE   C1A46673  12.943  26.843  19.965 -0.0648 -0.0600 -0.0874
 2068DPPE   C2A46674  12.547  26.789  19.779 -0.2272 -0.1413  0.4551
 2068DPPE   C3A46675  12.356  26.438  19.867  0.2358  0.3278  0.0323
 2068DPPE   C4A46676  12.743  26.288  20.034  0.0622  0.4429  0.2483
 2068DPPE   C1B46677  13.854  26.612  20.021  0.3011  0.0322 -0.2047
 2068DPPE   C2B46678  14.005  26.221  20.224  0.1170  0.0816  0.1529
 2068DPPE   C3B46679  13.902  25.771  20.123 -0.3150 -0.4048 -0.0992
 2068DPPE   C4B46680  13.546  25.559  20.101 -0.0491 -0.1281  0.3353
 2069DPPE   NH346681  11.736   9.801  22.098  0.3043  0.2880  0.1869
 2069DPPE   PO446682  11.467  10.070  22.369  0.2203 -0.2214  0.0822
 2069DPPE   GL146683  11.669  10.305  21.952 -0.1844  0.0869  0.0964
 2069DPPE   GL246684  11.975  10.214  21.882  0.1159  0.0565 -0.0673
 2069DPPE   C1A46685  11.323  10.391  21.587 -0.0935  0.1007  0.0538
 2069DPPE   C2A46686  11.059  10.506  21.276  0.0531  0.0547 -0.0627
 2069DPPE   C3A46687  10.954  10.213  20.868 -0.1115 -0.0087 -0.0577
 2069DPPE   C4A46688  11.099   9.938  20.571 -0.0861 -0.1520 -0.0838
 2069DPPE   C1B46689  12.196  10.086  21.602  0.0533  0.1257 -0.3424
 2069DPPE   C2B46690  12.261  10.328  21.291 -0.0213 -0.4187 -0.0285
 2069DPPE   C3B46691  12.333  10.745  21.239  0.2698  0.1664 -0.0533
 2069DPPE   C4B46692  12.723  10.974  20.989  0.2629  0.0784  0.0031
 2070DPPE   NH346693  18.106  28.222  17.273 -0.0090 -0.0930 -0.2660
 2070DPPE   PO446694  17.731  28.123  17.362  0.2623  0.3358 -0.1480
 2070DPPE   GL146695  17.889  27.684  17.403 -0.0673 -0.2737  0.3440
 2070DPPE   GL246696  18.175  27.666  17.386 -0.5459  0.3152 -0.0368
 2070DPPE   C1A46697  17.948  27.231  17.464  0.1104 -0.0021  0.0455
 2070DPPE   C2A46698  17.725  26.794  17.377 -0.0351  0.1987 -0.3372
 2070DPPE   C3A46699  17.656  26.397  17.636 -0.3543  0.0505  0.0520
 2070DPPE   C4A46700  17.996  26.110  17.734  0.1678 -0.1218 -0.0666
 2070DPPE   C1B46701  18.571  27.534  17.247 -0.1604  0.0222  0.2535
 2070DPPE   C2B46702  19.036  27.378  17.429  0.0248  0.0293 -0.2239
 2070DPPE   C3B46703  19.183  27.107  17.665 -0.1450  0.0008 -0.2706
 2070DPPE   C4B46704  19.607  27.191  18.007  0.0582  0.0553  0.1995
 2071DPPE   NH346705  12.874  19.345  23.060  0.2786 -0.0438 -0.3555
 2071DPPE   PO446706  12.762  18.894  22.963  0.3210  0.0106  0.0139
 2071DPPE   GL146707  13.044  18.826  22.628 -0.0874  0.2937 -0.3534
 2071DPPE   GL246708  13.233  18.599  22.566 -0.0739  0.0008  0.2248
 2071DPPE   C1A46709  12.869  19.001  22.262  0.3059  0.1011 -0.3263
 2071DPPE   C2A46710  12.908  19.204  22.009  0.1596 -0.0803  0.0083
 2071DPPE   C3A46711  13.148  19.368  21.658  0.2172  0.0590  0.3175
 2071DPPE   C4A46712  13.284  19.510  21.196  0.5132 -0.1122  0.0407
 2071DPPE   C1B46713  13.081  18.449  22.265  0.4060 -0.2130 -0.1435
 2071DPPE   C2B46714  13.070  18.617  21.890  0.2809  0.0251  0.0446
 2071DPPE   C3B46715  12.664  18.832  21.836 -0.2224 -0.2310  0.1439
 2071DPPE   C4B46716  12.469  19.166  21.535 -0.4465 -0.4696  0.1231
 2072DPPE   NH346717  11.173  14.750  23.157  0.0445  0.2244 -0.0301
 2072DPPE   PO446718  11.414  14.830  22.838  0.2576  0.1011  0.0451
 2072DPPE   GL146719  11.462  14.750  22.445  0.1829  0.1018  0.1229
 2072DPPE   GL246720  11.148  14.685  22.121 -0.2806  0.4314 -0.3105
 2072DPPE   C1A46721  11.619  14.963  22.062  0.0634  0.0222 -0.3279
 2072DPPE   C2A46722  11.914  14.899  21.715  0.3716  0.1272 -0.1945
 2072DPPE   C3A46723  12.079  15.078  21.405  0.2042 -0.3002  0.0061
 2072DPPE   C4A46724  12.232  15.420  21.169 -0.2701 -0.1519 -0.0658
 2072DPPE   C1B46725  11.166  14.395  21.726 -0.1912  0.1383  0.1374
 2072DPPE   C2B46726  11.288  14.278  21.343 -0.3109 -0.1235  0.1277
 2072DPPE   C3B46727  11.373  14.199  20.883  0.0079  0.0310  0.3836
 2072DPPE   C4B46728  11.124  13.830  20.732 -0.2609 -0.2098  0.0067
 2073DPPE   NH346729  17.356  20.772  22.836  0.1101 -0.3090  0.0104
 2073DPPE   PO446730  17.614  20.485  22.602  0.2015  0.1200  0.1516
 2073DPPE   GL146731  17.619  20.180  22.393 -0.0002  0.1240  0.0514
 2073DPPE   GL246732  17.356  19.916  22.397  0.2553 -0.0590  0.1707
 2073DPPE   C1A46733  17.642  19.834  22.047  0.0886 -0.0690  0.2200
 2073DPPE   C2A46734  17.661  19.628  21.591 -0.3752 -0.0723  0.1461
 2073DPPE   C3A46735  17.452  19.429  21.280  0.1002  0.5493  0.0105
 2073DPPE   C4A46736  17.252  19.030  21.057 -0.0075  0.2258 -0.0410
 2073DPPE   C1B46737  17.147  19.897  21.961  0.0899 -0.1399 -0.0849
 2073DPPE   C2B46738  17.196  19.857  21.578 -0.0775 -0.1404  0.1994
 2073DPPE   C3B46739  17.395  19.920  21.145 -0.0760 -0.2577  0.0345
 2073DPPE   C4B46740  17.804  20.064  21.161 -0.3932  0.2581 -0.3000
 2074DPPE   NH346741  12.819  22.380  22.489 -0.0417 -0.2884  0.2303
 2074DPPE   PO446742  12.972  22.809  22.483 -0.4440  0.2102  0.0912
 2074DPPE   GL146743  12.727  22.769  22.137 -0.2027  0.2907 -0.0007
 2074DPPE   GL246744  12.390  22.875  22.117 -0.2454 -0.0191  0.1679
 2074DPPE   C1A46745  12.698  22.914  21.770 -0.2544  0.2935 -0.1439
 2074DPPE   C2A46746  12.778  22.917  21.384 -0.0807 -0.0701  0.0367
 2074DPPE   C3A46747  12.991  22.825  21.065 -0.4015  0.1805  0.1083
 2074DPPE   C4A46748  13.161  22.564  20.750  0.2116  0.0201  0.0653
 2074DPPE   C1B46749  12.293  22.536  21.725 -0.0206  0.1255  0.2706
 2074DPPE   C2B46750  11.939  22.535  21.389  0.0230  0.2171  0.1609
 2074DPPE   C3B46751  11.971  22.674  21.019  0.0675 -0.0801  0.0515
 2074DPPE   C4B46752  11.989  23.024  20.685  0.3974  0.1051 -0.1272
 2075DPPE   NH346753  18.921  12.271  22.774  0.0688  0.0889 -0.2854
 2075DPPE   PO446754  18.590  12.161  22.311 -0.3048  0.0949  0.0809
 2075DPPE   GL146755  18.569  12.215  21.806 -0.3111  0.0564  0.2347
 2075DPPE   GL246756  18.352  11.906  21.776 -0.0736 -0.2742  0.0721
 2075DPPE   C1A46757  18.246  12.299  21.413 -0.0595  0.0167 -0.1458
 2075DPPE   C2A46758  17.830  12.513  21.481  0.0871 -0.0180  0.0366
 2075DPPE   C3A46759  17.612  12.695  21.096  0.0500  0.0426  0.0246
 2075DPPE   C4A46760  17.530  12.431  20.737  0.0876 -0.0640  0.0200
 2075DPPE   C1B46761  18.742  11.837  21.589  0.0319 -0.0155 -0.1497
 2075DPPE   C2B46762  18.971  12.148  21.494  0.0800  0.1985 -0.3004
 2075DPPE   C3B46763  19.315  12.385  21.555  0.3627 -0.2765  0.2380
 2075DPPE   C4B46764  19.251  12.764  21.528 -0.0315 -0.2262 -0.2696
 2076DPPE   NH346765  14.332  28.170  18.039  0.1080 -0.1692  0.2059
 2076DPPE   PO446766  13.954  28.156  17.950 -0.1141 -0.0148 -0.0367
 2076DPPE   GL146767  14.342  27.715  17.815  0.0495  0.2096 -0.0281
 2076DPPE   GL246768  14.354  27.544  17.505  0.1332  0.0619 -0.2650
 2076DPPE   C1A46769  14.063  27.388  17.915  0.1275  0.3449 -0.4262
 2076DPPE   C2A46770  14.046  27.097  17.544  0.2727 -0.1159 -0.0314
 2076DPPE   C3A46771  13.706  26.863  17.403 -0.1822 -0.2819 -0.2432
 2076DPPE   C4A46772  13.229  26.952  17.344  0.0114  0.0935  0.0948
 2076DPPE   C1B46773  14.540  27.267  17.804  0.0319  0.0003 -0.2037
 2076DPPE   C2B46774  14.840  27.040  17.972  0.2394  0.1674  0.1438
 2076DPPE   C3B46775  15.094  26.747  18.037 -0.1410 -0.1688  0.1007
 2076DPPE   C4B46776  15.388  26.301  18.120 -0.1816  0.1892  0.1339
 2077DPPE   NH346777  13.720  23.088  22.754  0.1623  0.1317 -0.0079
 2077DPPE   PO446778  13.740  23.263  22.378 -0.0238  0.1472  0.2452
 2077DPPE   GL146779  13.889  23.201  21.943 -0.0371 -0.1542  0.0988
 2077DPPE   GL246780  13.567  23.357  21.837  0.1092  0.4636 -0.1712
 2077DPPE   C1A46781  13.833  23.137  21.490  0.1823 -0.0261  0.2665
 2077DPPE   C2A46782  13.655  23.290  21.042 -0.0474 -0.2768 -0.0485
 2077DPPE   C3A46783  13.342  23.372  20.737 -0.1255 -0.0607  0.0196
 2077DPPE   C4A46784  13.066  23.341  20.530  0.0999  0.1100  0.1002
 2077DPPE   C1B46785  13.224  23.315  21.594 -0.1322  0.1895  0.0825
 2077DPPE   C2B46786  13.157  23.347  21.195  0.0914  0.1140  0.2213
 2077DPPE   C3B46787  12.826  23.437  20.942  0.0949  0.1961 -0.1293
 2077DPPE   C4B46788  12.617  23.772  21.003 -0.2595  0.1504 -0.0703
 2078DPPE   NH346789  17.187  11.036  22.138 -0.0918  0.1097  0.1307
 2078DPPE   PO446790  17.677  10.982  21.946 -0.0045  0.2841  0.0281
 2078DPPE   GL146791  17.428  10.938  21.603 -0.0915  0.0260 -0.1428
 2078DPPE   GL246792  17.106  11.052  21.599  0.1884 -0.2053 -0.2274
 2078DPPE   C1A46793  17.546  10.951  21.212  0.0214 -0.0091 -0.3275
 2078DPPE   C2A46794  17.375  10.791  20.854  0.0065 -0.0273 -0.0081
 2078DPPE   C3A46795  17.083  10.558  20.740  0.0355  0.2270  0.0690
 2078DPPE   C4A46796  16.684  10.356  20.720  0.1700  0.1132  0.2943
 2078DPPE   C1B46797  17.244  11.282  21.210  0.2136 -0.1125  0.3104
 2078DPPE   C2B46798  16.956  11.153  20.942 -0.3041  0.0846  0.2565
 2078DPPE   C3B46799  16.714  11.441  20.651 -0.0131 -0.2994  0.1937
 2078DPPE   C4B46800  16.690  11.678  20.232 -0.1945  0.0194 -0.0498
 2079DPPE   NH346801  11.257  22.145  22.739  0.0900  0.0499 -0.1134
 2079DPPE   PO446802  10.911  21.918  22.787 -0.0720  0.1097  0.1504
 2079DPPE   GL146803  11.114  21.618  22.478  0.3830 -0.1460  0.1782
 2079DPPE   GL246804  11.332  21.777  22.381 -0.0646  0.0726  0.0746
 2079DPPE   C1A46805  11.237  21.473  22.003 -0.2402 -0.1581 -0.0200
 2079DPPE   C2A46806  11.099  21.579  21.636  0.0289 -0.4009 -0.0660
 2079DPPE   C3A46807  11.150  21.565  21.222 -0.1158 -0.0616 -0.0565
 2079DPPE   C4A46808  11.438  21.846  20.913 -0.0538  0.1412 -0.0871
 2079DPPE   C1B46809  11.163  22.005  22.069  0.0750  0.0694  0.2052
 2079DPPE   C2B46810  10.894  22.064  21.845  0.0671  0.0108  0.0365
 2079DPPE   C3B46811  10.550  22.392  21.950  0.0871 -0.3214  0.1872
 2079DPPE   C4B46812  10.128  22.444  21.869  0.0786 -0.1107 -0.1139
 2080DPPE   NH346813  21.452  10.057  18.692  0.1649 -0.2950 -0.1845
 2080DPPE   PO446814  21.470  10.348  19.012  0.2795 -0.1155  0.0405
 2080DPPE   GL146815  21.060  10.349  18.952  0.0483  0.0106  0.0578
 2080DPPE   GL246816  21.073  10.619  19.239  0.1111 -0.1146 -0.1877
 2080DPPE   C1A46817  20.621  10.423  19.118 -0.0821 -0.0209  0.2248
 2080DPPE   C2A46818  20.267  10.855  18.986  0.2817 -0.4223 -0.1844
 2080DPPE   C3A46819  19.978  11.219  18.978 -0.2315  0.3188  0.2941
 2080DPPE   C4A46820  19.913  11.548  18.616  0.0014  0.2915 -0.3109
 2080DPPE   C1B46821  20.823  10.885  18.955 -0.0050  0.2499  0.0232
 2080DPPE   C2B46822  20.622  11.070  18.530 -0.0229  0.1508 -0.0248
 2080DPPE   C3B46823  20.373  10.913  18.282 -0.1838  0.1312  0.0839
 2080DPPE   C4B46824  20.297  10.660  17.808  0.1221  0.1374  0.1042
 2081DPPE   NH346825   6.390  25.146  20.652 -0.2528 -0.4200  0.1297
 2081DPPE   PO446826   6.851  25.093  20.524  0.0771 -0.1365 -0.0859
 2081DPPE   GL146827   7.064  24.747  20.354  0.1205  0.2106  0.3533
 2081DPPE   GL246828   7.411  24.658  20.437  0.0118 -0.3473  0.0368
 2081DPPE   C1A46829   7.101  24.520  20.004 -0.0963  0.1161 -0.1887
 2081DPPE   C2A46830   6.708  24.110  19.834 -0.1157  0.1538  0.0190
 2081DPPE   C3A46831   6.427  24.027  19.473 -0.0592 -0.3093  0.1783
 2081DPPE   C4A46832   6.156  24.327  19.280 -0.2279  0.1045 -0.2879
 2081DPPE   C1B46833   7.720  24.839  20.271 -0.2265 -0.1138  0.3087
 2081DPPE   C2B46834   8.068  25.035  19.901  0.3056 -0.2997  0.2262
 2081DPPE   C3B46835   8.268  25.035  19.608  0.1555 -0.2328  0.1339
 2081DPPE   C4B46836   8.785  24.871  19.498 -0.2198  0.0428  0.0673
 2082DPPE   NH346837  18.235  12.465  22.104  0.0256  0.0326 -0.0009
 2082DPPE   PO446838  17.929  12.715  22.439 -0.0341  0.0620  0.1133
 2082DPPE   GL146839  17.866  12.861  22.088 -0.0895  0.2811 -0.2509
 2082DPPE   GL246840  18.074  12.963  22.016 -0.3299  0.0524  0.2858
 2082DPPE   C1A46841  17.690  13.002  21.626 -0.1237  0.1865  0.5023
 2082DPPE   C2A46842  17.599  13.250  21.246 -0.0358 -0.1085 -0.0321
 2082DPPE   C3A46843  17.526  13.239  20.870  0.4846  0.1418  0.1297
 2082DPPE   C4A46844  17.644  12.921  20.634  0.1264  0.2276 -0.0920
 2082DPPE   C1B46845  17.795  13.315  21.976  0.1371 -0.1435 -0.1070
 2082DPPE   C2B46846  17.760  13.548  21.599  0.0958 -0.0120 -0.0009
 2082DPPE   C3B46847  17.771  13.673  21.147  0.1089 -0.1638 -0.4625
 2082DPPE   C4B46848  17.734  13.666  20.742 -0.2778  0.1234 -0.2815
 2083DPPE   NH346849  11.784   7.069  20.213 -0.2111 -0.1520  0.3256
 2083DPPE   PO446850  11.443   7.334  20.419  0.0533  0.3023 -0.0635
 2083DPPE   GL146851  11.146   7.735  20.439  0.1130  0.3802 -0.2231
 2083DPPE   GL246852  10.751   7.620  20.552 -0.0280  0.1567  0.2399
 2083DPPE   C1A46853  10.916   8.110  20.478 -0.2129 -0.0858  0.0890
 2083DPPE   C2A46854  11.092   8.310  20.244 -0.2549 -0.1425 -0.0217
 2083DPPE   C3A46855  11.295   8.601  19.915  0.1353 -0.1538  0.0074
 2083DPPE   C4A46856  11.317   8.838  19.579  0.0960  0.1384 -0.1249
 2083DPPE   C1B46857  10.391   7.974  20.545 -0.0676 -0.1042  0.0724
 2083DPPE   C2B46858  10.434   8.399  20.320  0.1622 -0.0218 -0.2915
 2083DPPE   C3B46859  10.659   8.671  20.492  0.1541  0.2580  0.0993
 2083DPPE   C4B46860  10.707   8.943  20.774  0.0219 -0.1104 -0.0203
 2084DPPE   NH346861  13.471  16.772  23.185 -0.0380 -0.0200  0.0303
 2084DPPE   PO446862  13.593  17.190  23.336  0.0217  0.4010 -0.3276
 2084DPPE   GL146863  13.596  17.292  22.955 -0.2360  0.2393  0.0214
 2084DPPE   GL246864  13.814  16.995  22.841 -0.2874 -0.0156  0.7254
 2084DPPE   C1A46865  13.518  17.211  22.498 -0.0213  0.0307  0.1362
 2084DPPE   C2A46866  13.713  17.355  22.098 -0.3405 -0.0766  0.1629
 2084DPPE   C3A46867  13.934  17.311  21.723 -0.1491  0.0515 -0.2592
 2084DPPE   C4A46868  13.817  16.908  21.512 -0.3571 -0.4270  0.4023
 2084DPPE   C1B46869  13.769  16.800  22.431  0.1805 -0.1034  0.2488
 2084DPPE   C2B46870  13.673  16.835  22.109 -0.2815 -0.0369  0.1625
 2084DPPE   C3B46871  13.559  16.518  21.749  0.1340 -0.0929 -0.2305
 2084DPPE   C4B46872  13.586  16.410  21.341 -0.0027 -0.1319  0.3167
 2085DPPE   NH346873  11.988  20.875  22.974  0.2631 -0.0938  0.0845
 2085DPPE   PO446874  12.406  21.033  22.899 -0.4063 -0.2146  0.1244
 2085DPPE   GL146875  12.266  20.837  22.520 -0.1931 -0.3269 -0.2324
 2085DPPE   GL246876  12.442  20.650  22.347 -0.1381  0.0231  0.2352
 2085DPPE   C1A46877  12.084  20.933  22.152  0.1488 -0.1635  0.1944
 2085DPPE   C2A46878  12.011  20.669  21.813  0.3207  0.0027 -0.0594
 2085DPPE   C3A46879  11.581  20.549  21.537 -0.2073  0.1323 -0.2032
 2085DPPE   C4A46880  11.340  20.203  21.528 -0.0483  0.0737  0.0028
 2085DPPE   C1B46881  12.479  20.840  21.883 -0.0083  0.0737 -0.0947
 2085DPPE   C2B46882  12.145  20.921  21.373  0.3280 -0.1957  0.0336
 2085DPPE   C3B46883  11.852  20.667  21.128 -0.0883  0.0120 -0.2916
 2085DPPE   C4B46884  11.803  20.240  20.966 -0.1460  0.0445 -0.1947
 2086DPPE   NH346885  14.641  15.587  23.086 -0.0387 -0.0159 -0.1505
 2086DPPE   PO446886  14.837  15.880  22.989 -0.2670  0.2172  0.0828
 2086DPPE   GL146887  14.866  15.981  22.667  0.1790  0.5091  0.1739
 2086DPPE   GL246888  15.142  16.191  22.606 -0.1816  0.1014 -0.1294
 2086DPPE   C1A46889  14.800  15.909  22.261  0.3459 -0.2611  0.0915
 2086DPPE   C2A46890  14.654  15.842  21.855 -0.1094  0.1069  0.1351
 2086DPPE   C3A46891  14.695  15.708  21.307  0.0499  0.0067 -0.1722
 2086DPPE   C4A46892  14.856  15.470  21.159 -0.3904 -0.2852 -0.1837
 2086DPPE   C1B46893  15.048  16.315  22.180 -0.5469  0.1002 -0.0737
 2086DPPE   C2B46894  14.950  16.280  21.748  0.1089  0.1851  0.1054
 2086DPPE   C3B46895  14.998  16.112  21.233 -0.2000  0.0892  0.0366
 2086DPPE   C4B46896  14.574  16.109  21.009 -0.0212  0.3279  0.2719
 2087DPPE   NH346897  12.694  16.165  23.289 -0.1034 -0.1555 -0.2223
 2087DPPE   PO446898  12.252  16.316  23.090 -0.0030 -0.0144  0.1207
 2087DPPE   GL146899  12.257  16.594  22.684  0.1591  0.1427  0.0800
 2087DPPE   GL246900  11.989  16.853  22.559 -0.1360  0.1222 -0.0002
 2087DPPE   C1A46901  12.280  16.698  22.203 -0.0945  0.0170 -0.0416
 2087DPPE   C2A46902  12.318  16.767  21.720  0.2641 -0.0393 -0.2568
 2087DPPE   C3A46903  12.488  16.753  21.290 -0.2167  0.1186  0.2208
 2087DPPE   C4A46904  12.534  17.061  20.988  0.1228  0.3301 -0.0685
 2087DPPE   C1B46905  11.787  17.029  22.250 -0.1329 -0.0976 -0.1036
 2087DPPE   C2B46906  11.872  17.055  21.840 -0.1358  0.0150 -0.1630
 2087DPPE   C3B46907  11.623  17.064  21.367 -0.0458 -0.0987 -0.2153
 2087DPPE   C4B46908  11.439  17.106  20.999  0.3524  0.1941 -0.1970
 2088DPPE   NH346909  11.273  11.828  22.273 -0.0720 -0.1029 -0.3790
 2088DPPE   PO446910  11.689  11.672  22.267 -0.1079  0.0894 -0.2756
 2088DPPE   GL146911  11.583  11.740  21.831 -0.1073  0.0089  0.1840
 2088DPPE   GL246912  11.393  11.593  21.719 -0.3680 -0.1215  0.1747
 2088DPPE   C1A46913  11.689  11.946  21.480 -0.1640  0.2044 -0.0241
 2088DPPE   C2A46914  11.551  11.878  21.110  0.6116  0.2823 -0.0180
 2088DPPE   C3A46915  11.478  12.117  20.737  0.2814 -0.0934  0.1814
 2088DPPE   C4A46916  11.657  12.240  20.409 -0.1111 -0.2175 -0.1033
 2088DPPE   C1B46917  11.244  11.660  21.419  0.1016  0.0085 -0.0644
 2088DPPE   C2B46918  11.153  11.581  20.979 -0.1131 -0.1792 -0.0290
 2088DPPE   C3B46919  11.037  11.831  20.708  0.2051  0.1451 -0.0929
 2088DPPE   C4B46920  10.977  12.236  20.724 -0.0889 -0.3108 -0.3455
 2089DPPE   NH346921  19.785   9.458  20.263 -0.1948  0.2436  0.0193
 2089DPPE   PO446922  19.684   9.955  20.383 -0.1930  0.2851  0.2636
 2089DPPE   GL146923  19.504   9.944  19.929 -0.0956  0.0603 -0.2059
 2089DPPE   GL246924  19.610   9.725  19.863 -0.1784  0.2503  0.0872
 2089DPPE   C1A46925  19.500   9.998  19.475  0.1469  0.3968  0.2572
 2089DPPE   C2A46926  19.776  10.104  19.189  0.0327  0.1625  0.3451
 2089DPPE   C3A46927  19.849  10.600  19.057  0.0459 -0.0543  0.1805
 2089DPPE   C4A46928  19.836  10.913  19.404  0.1402 -0.3767 -0.1484
 2089DPPE   C1B46929  19.109   9.675  19.899 -0.3020 -0.1954  0.4300
 2089DPPE   C2B46930  18.810   9.982  19.892  0.0435 -0.0004  0.2107
 2089DPPE   C3B46931  18.382   9.989  19.927 -0.1197 -0.0087  0.0939
 2089DPPE   C4B46932  18.082   9.899  20.274 -0.5676 -0.1148  0.1967
 2090DPPE   NH346933  19.022  21.571  22.363  0.0323 -0.3248 -0.2490
 2090DPPE   PO446934  18.932  21.186  22.204 -0.1030  0.1812  0.0058
 2090DPPE   GL146935  18.880  21.230  21.729  0.0681  0.2339 -0.2466
 2090DPPE   GL246936  18.861  21.591  21.715  0.0360 -0.1975 -0.3268
 2090DPPE   C1A46937  19.017  20.962  21.433  0.0329 -0.0856  0.0981
 2090DPPE   C2A46938  19.387  20.742  21.181 -0.0123  0.2097  0.0525
 2090DPPE   C3A46939  19.667  20.638  21.295 -0.0162  0.3799  0.0859
 2090DPPE   C4A46940  19.881  20.644  20.986 -0.0592 -0.4141  0.1175
 2090DPPE   C1B46941  18.964  21.466  21.244 -0.1386  0.1280 -0.1810
 2090DPPE   C2B46942  18.652  21.183  21.136  0.1767 -0.0898 -0.0037
 2090DPPE   C3B46943  18.334  20.955  21.009 -0.0292  0.1439  0.4682
 2090DPPE   C4B46944  18.103  20.965  20.749  0.3507  0.0988 -0.2998
 2091DPPE   NH346945  12.447   5.816  18.640 -0.0850 -0.1943 -0.1095
 2091DPPE   PO446946  12.203   6.188  18.720  0.4525  0.1157 -0.1979
 2091DPPE   GL146947  12.077   6.495  18.447 -0.1797  0.1125 -0.4168
 2091DPPE   GL246948  12.395   6.729  18.597 -0.0113  0.1420  0.1611
 2091DPPE   C1A46949  12.076   6.772  18.037 -0.1438 -0.2938 -0.2644
 2091DPPE   C2A46950  12.218   7.181  17.715  0.0262 -0.0475 -0.2651
 2091DPPE   C3A46951  12.077   7.247  17.324 -0.6143  0.0386 -0.1422
 2091DPPE   C4A46952  11.919   7.418  16.894 -0.0492 -0.0939 -0.3249
 2091DPPE   C1B46953  12.195   7.139  18.820  0.0717  0.3060 -0.0704
 2091DPPE   C2B46954  11.856   7.518  18.897 -0.2473  0.2768  0.0699
 2091DPPE   C3B46955  11.572   7.739  19.086 -0.2724 -0.0780  0.0075
 2091DPPE   C4B46956  11.246   7.964  18.953 -0.0386 -0.0694 -0.0624
 2092DPPE   NH346957  22.864  19.040  18.967  0.0917 -0.3232 -0.0343
 2092DPPE   PO446958  22.638  19.351  19.335 -0.1422  0.0217  0.1003
 2092DPPE   GL146959  22.274  19.602  19.367 -0.0713 -0.2263  0.1659
 2092DPPE   GL246960  22.257  19.659  19.026 -0.0344 -0.0317 -0.2331
 2092DPPE   C1A46961  21.764  19.751  19.279  0.4333 -0.2983  0.0514
 2092DPPE   C2A46962  21.312  19.910  19.256  0.0347  0.0131  0.1208
 2092DPPE   C3A46963  20.946  19.820  19.090 -0.2023 -0.3080  0.2396
 2092DPPE   C4A46964  20.465  19.745  18.906 -0.3525 -0.0907 -0.0793
 2092DPPE   C1B46965  22.117  19.656  18.670  0.1051  0.3278 -0.1453
 2092DPPE   C2B46966  21.810  19.656  18.271 -0.0470 -0.1164  0.1226
 2092DPPE   C3B46967  21.367  19.733  18.343  0.0473 -0.3904 -0.1247
 2092DPPE   C4B46968  21.102  19.877  18.546 -0.0090  0.2134  0.1572
 2093DPPE   NH346969  16.037  23.968  22.010  0.3846 -0.1482  0.1544
 2093DPPE   PO446970  16.175  24.344  21.862  0.2996  0.0152 -0.0473
 2093DPPE   GL146971  16.107  24.374  21.515  0.3759 -0.0428  0.0205
 2093DPPE   GL246972  15.913  24.147  21.509 -0.0543  0.1884 -0.1340
 2093DPPE   C1A46973  16.248  24.162  21.154 -0.0558 -0.1015 -0.2153
 2093DPPE   C2A46974  16.462  24.112  20.699 -0.1534  0.3410 -0.2462
 2093DPPE   C3A46975  16.640  24.318  20.348 -0.2131  0.2127  0.0703
 2093DPPE   C4A46976  16.644  24.532  19.993 -0.2125 -0.1153  0.0318
 2093DPPE   C1B46977  15.743  23.877  21.204 -0.2127  0.0864  0.0737
 2093DPPE   C2B46978  15.701  23.537  20.947  0.1013 -0.2201 -0.1323
 2093DPPE   C3B46979  15.431  23.438  20.635 -0.3031  0.1264  0.0240
 2093DPPE   C4B46980  15.286  23.482  20.205 -0.1422  0.2299  0.2130
 2094DPPE   NH346981  10.406  19.192  22.782 -0.0274 -0.3603  0.2873
 2094DPPE   PO446982   9.958  19.304  22.679 -0.1655  0.0564  0.0416
 2094DPPE   GL146983   9.977  19.185  22.231  0.3242 -0.1638  0.2501
 2094DPPE   GL246984  10.321  19.147  22.183 -0.0151 -0.0668  0.1130
 2094DPPE   C1A46985   9.738  19.222  21.884  0.0556  0.4479  0.0552
 2094DPPE   C2A46986   9.757  19.210  21.401 -0.0966 -0.2339 -0.0850
 2094DPPE   C3A46987   9.556  19.110  21.143 -0.2343  0.0692 -0.1382
 2094DPPE   C4A46988   9.396  19.151  20.745 -0.0093  0.0350  0.1312
 2094DPPE   C1B46989  10.722  19.255  22.045 -0.2903 -0.2310 -0.0976
 2094DPPE   C2B46990  11.040  19.432  21.845  0.0029  0.0505 -0.1721
 2094DPPE   C3B46991  11.134  19.787  21.424  0.0121 -0.0836  0.1509
 2094DPPE   C4B46992  11.399  19.853  20.990  0.2429 -0.1350 -0.1440
 2095DPPE   NH346993  16.957  16.911  23.141  0.1708  0.0363 -0.0357
 2095DPPE   PO446994  16.795  17.375  23.295  0.3271 -0.0472 -0.1051
 2095DPPE   GL146995  16.937  17.728  22.896 -0.0523 -0.2343  0.2415
 2095DPPE   GL246996  17.033  17.465  22.645 -0.2657  0.2822  0.0192
 2095DPPE   C1A46997  16.986  18.116  22.583  0.0689 -0.6151  0.2612
 2095DPPE   C2A46998  16.957  18.122  22.156  0.0048 -0.1288 -0.3986
 2095DPPE   C3A46999  17.193  18.031  21.775 -0.1680 -0.3478 -0.3510
 2095DPPE   C4A47000  17.313  17.997  21.377  0.1426  0.3348  0.2147
 2095DPPE   C1B47001  17.260  17.802  22.388 -0.0244 -0.1600 -0.0495
 2095DPPE   C2B47002  17.433  18.255  22.255  0.2983  0.0814  0.1361
 2095DPPE   C3B47003  17.595  18.392  21.909  0.1497  0.2033  0.3034
 2095DPPE   C4B47004  17.612  18.340  21.451 -0.0800 -0.0911  0.0859
 2096DPPE   NH347005  21.727  15.247  21.188 -0.1498 -0.1698  0.0325
 2096DPPE   PO447006  21.894  14.859  21.012  0.1269  0.0773 -0.2755
 2096DPPE   GL147007  21.718  14.816  20.648  0.2039  0.1264  0.0201
 2096DPPE   GL247008  21.870  15.009  20.424  0.0729 -0.3159  0.0547
 2096DPPE   C1A47009  21.419  15.111  20.349 -0.1046  0.0347 -0.1515
 2096DPPE   C2A47010  21.076  15.009  20.061 -0.2285 -0.0489 -0.1052
 2096DPPE   C3A47011  21.040  14.584  19.899 -0.0201 -0.0248 -0.1934
 2096DPPE   C4A47012  20.910  14.208  19.657  0.1112 -0.2926  0.1609
 2096DPPE   C1B47013  21.667  14.698  20.203 -0.1160  0.0075 -0.0647
 2096DPPE   C2B47014  21.763  14.401  19.894  0.1150 -0.3278  0.0083
 2096DPPE   C3B47015  22.009  14.162  19.654  0.0070 -0.2184  0.0775
 2096DPPE   C4B47016  22.301  14.252  19.343 -0.5965  0.1669  0.0064
 2097DPPE   NH347017  22.131  17.046  21.194  0.0875  0.0541 -0.0073
 2097DPPE   PO447018  21.847  17.280  21.340 -0.0018  0.3148 -0.1543
 2097DPPE   GL147019  21.565  17.299  21.138 -0.0568  0.2287 -0.1844
 2097DPPE   GL247020  21.598  17.455  20.781 -0.1413  0.1895  0.2720
 2097DPPE   C1A47021  21.105  17.325  21.008  0.0246 -0.4413  0.0497
 2097DPPE   C2A47022  20.801  17.451  20.796  0.0940 -0.1991  0.0674
 2097DPPE   C3A47023  20.388  17.769  20.705  0.1004 -0.1152  0.2370
 2097DPPE   C4A47024  20.225  18.106  20.533 -0.0573  0.0249 -0.1644
 2097DPPE   C1B47025  21.441  17.153  20.601 -0.1367 -0.4401  0.2544
 2097DPPE   C2B47026  21.364  16.996  20.263  0.1752 -0.3226 -0.0567
 2097DPPE   C3B47027  21.234  16.974  19.742 -0.1032  0.0537 -0.4677
 2097DPPE   C4B47028  20.973  17.182  19.424  0.2215 -0.2797  0.0713
 2098DPPE   NH347029   8.610  22.417  23.316 -0.3411 -0.0631 -0.1334
 2098DPPE   PO447030   8.611  22.714  22.900  0.0451  0.2313  0.0867
 2098DPPE   GL147031   8.793  23.068  22.564  0.3795 -0.0445 -0.1033
 2098DPPE   GL247032   9.133  23.245  22.400 -0.2422 -0.0204  0.3486
 2098DPPE   C1A47033   8.667  23.351  22.206 -0.2849  0.2379  0.1084
 2098DPPE   C2A47034   8.799  23.486  21.911  0.2551  0.0860  0.0705
 2098DPPE   C3A47035   8.583  23.764  21.658  0.1489 -0.1772  0.1372
 2098DPPE   C4A47036   8.476  23.374  21.485  0.0404 -0.1327 -0.0668
 2098DPPE   C1B47037   9.256  23.493  22.218 -0.0258  0.0255  0.1579
 2098DPPE   C2B47038   9.292  23.607  21.683 -0.1258 -0.2020 -0.1955
 2098DPPE   C3B47039   9.556  23.983  21.623  0.0917 -0.0975  0.0227
 2098DPPE   C4B47040   9.918  24.189  21.346 -0.0760 -0.1947 -0.2030
 2099DPPE   NH347041  10.054  14.835  22.237  0.2676 -0.1938  0.0274
 2099DPPE   PO447042  10.071  14.415  22.334 -0.0474 -0.0847  0.1165
 2099DPPE   GL147043   9.837  14.501  21.889 -0.1493 -0.2844 -0.0044
 2099DPPE   GL247044   9.853  14.851  21.762  0.1246  0.1363  0.2012
 2099DPPE   C1A47045  10.056  14.523  21.465 -0.1275  0.1664 -0.0427
 2099DPPE   C2A47046  10.409  14.299  21.246  0.0481 -0.1376  0.1721
 2099DPPE   C3A47047  10.859  14.567  21.258  0.2417  0.3183  0.0615
 2099DPPE   C4A47048  11.212  14.721  21.043 -0.3787  0.2024 -0.1014
 2099DPPE   C1B47049   9.661  14.872  21.375 -0.0035 -0.0122  0.1233
 2099DPPE   C2B47050   9.465  14.698  20.906 -0.1180  0.1266 -0.2514
 2099DPPE   C3B47051   9.383  14.432  20.554 -0.1517  0.0325 -0.0234
 2099DPPE   C4B47052   9.350  14.373  20.131 -0.0538 -0.2294 -0.3078
 2100DPPE   NH347053  17.960  20.850  22.745 -0.3916  0.2756 -0.1591
 2100DPPE   PO447054  17.636  21.173  22.779 -0.1811 -0.2055 -0.2643
 2100DPPE   GL147055  17.629  20.987  22.398 -0.0312 -0.0086 -0.1331
 2100DPPE   GL247056  17.240  20.849  22.200 -0.8190 -0.2601 -0.2125
 2100DPPE   C1A47057  17.887  20.859  22.027 -0.0473 -0.2859 -0.0380
 2100DPPE   C2A47058  18.004  20.861  21.666  0.0731 -0.1040  0.1187
 2100DPPE   C3A47059  18.016  21.094  21.391 -0.2809 -0.0271 -0.2319
 2100DPPE   C4A47060  17.701  21.164  20.993  0.1826  0.1257 -0.2060
 2100DPPE   C1B47061  17.448  20.760  21.778  0.1151 -0.1628  0.0598
 2100DPPE   C2B47062  17.569  20.662  21.325  0.1370 -0.0881 -0.0653
 2100DPPE   C3B47063  17.688  20.561  20.908 -0.3178  0.1624 -0.3256
 2100DPPE   C4B47064  17.573  20.426  20.500 -0.2339  0.0428  0.0948
 2101DPPE   NH347065  17.398   6.667  16.948  0.0693  0.0508 -0.1107
 2101DPPE   PO447066  17.301   6.801  17.384 -0.3534  0.1199 -0.1895
 2101DPPE   GL147067  16.937   6.998  17.577  0.1222 -0.0745  0.1016
 2101DPPE   GL247068  16.981   7.150  17.891 -0.0478  0.4697  0.0129
 2101DPPE   C1A47069  16.789   7.552  17.662 -0.0701 -0.0130  0.1505
 2101DPPE   C2A47070  16.550   7.968  17.677  0.1917 -0.1285  0.0389
 2101DPPE   C3A47071  16.143   8.059  17.395 -0.1522 -0.4685  0.0762
 2101DPPE   C4A47072  15.758   8.226  17.265 -0.1527  0.2665 -0.0256
 2101DPPE   C1B47073  16.998   7.417  18.239 -0.0020 -0.0412 -0.1623
 2101DPPE   C2B47074  17.047   7.674  18.577  0.0469  0.1275 -0.2862
 2101DPPE   C3B47075  17.108   7.710  19.062  0.0815  0.0701 -0.1897
 2101DPPE   C4B47076  17.194   7.968  19.383  0.1186 -0.0312  0.0132
 2102DPPE   NH347077  14.425  27.826  20.388  0.2979 -0.1256 -0.0594
 2102DPPE   PO447078  14.578  27.360  20.520 -0.1845  0.3869 -0.0296
 2102DPPE   GL147079  14.802  27.036  20.480 -0.1571 -0.3070  0.0133
 2102DPPE   GL247080  15.008  27.073  20.179 -0.1001  0.1602  0.0447
 2102DPPE   C1A47081  14.743  26.667  20.234 -0.0368  0.2302 -0.0879
 2102DPPE   C2A47082  14.468  26.484  20.044 -0.0387 -0.0333 -0.0717
 2102DPPE   C3A47083  14.286  26.696  19.691  0.2026 -0.1069 -0.5531
 2102DPPE   C4A47084  14.222  27.060  19.364  0.0991  0.1101 -0.1455
 2102DPPE   C1B47085  15.265  26.803  19.877  0.0636  0.1080 -0.0932
 2102DPPE   C2B47086  15.123  26.594  19.433 -0.2488 -0.0473 -0.1274
 2102DPPE   C3B47087  14.880  26.472  19.025 -0.0119 -0.1443 -0.0539
 2102DPPE   C4B47088  14.699  26.110  18.812  0.1776 -0.0162 -0.1787
 2103DPPE   NH347089  16.602  25.163  21.191  0.0285 -0.0948  0.0962
 2103DPPE   PO447090  16.567  24.741  21.305  0.1057  0.2439  0.2055
 2103DPPE   GL147091  16.238  24.631  21.069 -0.0059  0.1995  0.1549
 2103DPPE   GL247092  15.990  24.764  21.175  0.2456 -0.3997 -0.0718
 2103DPPE   C1A47093  16.129  24.502  20.717  0.0460  0.0717 -0.0103
 2103DPPE   C2A47094  15.663  24.489  20.503  0.0431  0.1855  0.0530
 2103DPPE   C3A47095  15.219  24.381  20.752 -0.1499 -0.4441 -0.0628
 2103DPPE   C4A47096  14.937  24.474  21.003  0.2655  0.3041 -0.1132
 2103DPPE   C1B47097  15.903  24.944  20.736 -0.0883  0.1382 -0.0053
 2103DPPE   C2B47098  15.524  25.003  20.599 -0.0101 -0.2504 -0.1265
 2103DPPE   C3B47099  15.316  24.751  20.294  0.0066 -0.1010  0.0358
 2103DPPE   C4B47100  15.183  24.360  20.251  0.0145  0.0095 -0.0515
 2104DPPE   NH347101  11.622   6.561  19.501 -0.2108  0.0553  0.0950
 2104DPPE   PO447102  11.931   6.975  19.745  0.1303 -0.0039 -0.0283
 2104DPPE   GL147103  11.751   7.060  19.329 -0.2883 -0.1412  0.1650
 2104DPPE   GL247104  11.852   7.424  19.369 -0.2708  0.0536 -0.1345
 2104DPPE   C1A47105  11.611   7.092  18.932  0.1024  0.0794  0.2497
 2104DPPE   C2A47106  11.255   7.000  18.719  0.0433 -0.2798 -0.2775
 2104DPPE   C3A47107  10.961   7.034  18.598  0.0990 -0.2382  0.2619
 2104DPPE   C4A47108  10.650   7.311  18.804 -0.1983  0.0431 -0.0101
 2104DPPE   C1B47109  12.202   7.604  19.232  0.1291 -0.2661  0.0735
 2104DPPE   C2B47110  12.366   7.580  18.778  0.0507 -0.2646  0.2319
 2104DPPE   C3B47111  12.637   7.854  18.557 -0.4951 -0.0204  0.0406
 2104DPPE   C4B47112  12.966   8.029  18.383  0.2112 -0.3557 -0.0934
 2105DPPE   NH347113  18.572  19.915  22.580  0.0695  0.2974 -0.2091
 2105DPPE   PO447114  18.254  20.272  22.759 -0.0922  0.1909  0.2803
 2105DPPE   GL147115  18.066  20.491  22.414  0.0806 -0.2694  0.1692
 2105DPPE   GL247116  18.311  20.633  22.238  0.2939  0.3059 -0.3834
 2105DPPE   C1A47117  17.853  20.340  21.938 -0.0917 -0.1978 -0.0705
 2105DPPE   C2A47118  17.507  20.259  21.611  0.1106  0.0112  0.1403
 2105DPPE   C3A47119  17.031  20.345  21.448  0.3405  0.1737 -0.1964
 2105DPPE   C4A47120  16.698  20.251  21.254 -0.2577  0.2320  0.1730
 2105DPPE   C1B47121  18.328  20.470  21.794 -0.0840 -0.0597 -0.0171
 2105DPPE   C2B47122  18.282  20.374  21.432 -0.2063  0.0509  0.1794
 2105DPPE   C3B47123  18.343  20.325  20.994 -0.0793  0.4094 -0.3300
 2105DPPE   C4B47124  18.152  20.443  20.594  0.4295  0.1898  0.0329
 2106DPPE   NH347125  13.793  27.017  21.244 -0.0923 -0.0092 -0.1608
 2106DPPE   PO447126  13.767  26.515  21.375 -0.0957 -0.0268  0.3631
 2106DPPE   GL147127  13.610  26.286  21.115  0.1031  0.0870  0.0297
 2106DPPE   GL247128  13.796  26.074  20.897  0.1127  0.0242 -0.0521
 2106DPPE   C1A47129  13.359  25.944  21.040 -0.1013  0.3028 -0.1643
 2106DPPE   C2A47130  13.085  25.539  21.113 -0.1337 -0.0938  0.0630
 2106DPPE   C3A47131  12.679  25.260  20.991  0.0974  0.0604 -0.0806
 2106DPPE   C4A47132  12.327  25.188  20.800 -0.2700  0.0234  0.0886
 2106DPPE   C1B47133  13.728  25.667  20.667 -0.1063  0.2526  0.3151
 2106DPPE   C2B47134  13.454  25.277  20.764  0.0775 -0.1204  0.1953
 2106DPPE   C3B47135  13.362  25.028  20.472  0.0239  0.3420 -0.1098
 2106DPPE   C4B47136  13.306  24.610  20.491  0.2880  0.0770  0.2009
 2107DPPE   NH347137  23.409  12.879  19.860  0.0271 -0.1901  0.1519
 2107DPPE   PO447138  23.072  12.600  19.643 -0.0025 -0.2587 -0.1508
 2107DPPE   GL147139  22.713  12.485  19.463 -0.1936 -0.0442 -0.1961
 2107DPPE   GL247140  22.804  12.271  19.411  0.0355  0.4483  0.1543
 2107DPPE   C1A47141  22.223  12.605  19.330  0.3942 -0.1032  0.2394
 2107DPPE   C2A47142  21.854  12.651  19.164  0.0971 -0.2484 -0.1664
 2107DPPE   C3A47143  21.506  12.869  19.115  0.0948 -0.2201 -0.2515
 2107DPPE   C4A47144  21.177  13.130  19.101 -0.4719  0.0975 -0.3349
 2107DPPE   C1B47145  22.322  12.112  19.411 -0.0114  0.0734 -0.0417
 2107DPPE   C2B47146  21.820  12.129  19.418 -0.0275  0.0612 -0.2038
 2107DPPE   C3B47147  21.448  12.362  19.244  0.1186 -0.2576  0.3432
 2107DPPE   C4B47148  21.102  12.658  19.477  0.1084  0.0505 -0.2134
 2108DPPE   NH347149  12.687  17.217  23.352  0.2964 -0.0557 -0.0146
 2108DPPE   PO447150  12.236  17.022  23.172 -0.1760  0.2203  0.0306
 2108DPPE   GL147151  12.397  17.163  22.808 -0.0424  0.0619 -0.0923
 2108DPPE   GL247152  12.671  17.194  22.823  0.1487  0.1618  0.3291
 2108DPPE   C1A47153  12.457  17.157  22.308  0.3148  0.1356 -0.2822
 2108DPPE   C2A47154  12.343  17.268  21.862 -0.0313  0.1145  0.2921
 2108DPPE   C3A47155  12.140  17.107  21.415  0.1549 -0.1606  0.2470
 2108DPPE   C4A47156  11.883  16.766  21.084 -0.1820  0.2734  0.0747
 2108DPPE   C1B47157  12.962  17.269  22.491 -0.1590  0.1602  0.0530
 2108DPPE   C2B47158  13.240  17.435  22.174  0.1343  0.1081 -0.1441
 2108DPPE   C3B47159  13.279  17.692  21.886  0.0385  0.0018  0.2188
 2108DPPE   C4B47160  13.370  17.759  21.455  0.1564  0.2373  0.1573
 2109DPPE   NH347161  13.760  19.088  23.262 -0.0939  0.0109 -0.4138
 2109DPPE   PO447162  13.754  19.573  23.069 -0.0981 -0.0580  0.1040
 2109DPPE   GL147163  13.634  19.805  22.761  0.1767  0.0617 -0.2418
 2109DPPE   GL247164  13.369  20.102  22.663  0.1652 -0.0075 -0.1060
 2109DPPE   C1A47165  13.714  19.837  22.297  0.0809 -0.3451  0.0265
 2109DPPE   C2A47166  13.709  20.165  21.930  0.0927  0.0938 -0.0078
 2109DPPE   C3A47167  13.654  20.041  21.437  0.3592  0.1178 -0.0338
 2109DPPE   C4A47168  13.574  20.006  21.050  0.4104  0.1809 -0.3255
 2109DPPE   C1B47169  13.216  19.875  22.446  0.2408  0.0151 -0.0363
 2109DPPE   C2B47170  13.318  19.845  21.949  0.0181  0.0311 -0.0236
 2109DPPE   C3B47171  13.498  19.674  21.690  0.1878 -0.2389  0.0297
 2109DPPE   C4B47172  13.780  19.485  21.536  0.0723  0.0708  0.1285
 2110DPPE   NH347173  17.502   9.509  21.549  0.3273 -0.1604 -0.2001
 2110DPPE   PO447174  17.316   9.940  21.685  0.1516  0.0952  0.0354
 2110DPPE   GL147175  17.136   9.894  21.270  0.1000  0.2404 -0.0411
 2110DPPE   GL247176  16.896  10.149  21.118  0.1676 -0.1437 -0.0469
 2110DPPE   C1A47177  16.941   9.678  20.988  0.0193  0.5988  0.0644
 2110DPPE   C2A47178  16.546   9.808  20.771 -0.1144  0.2785  0.1759
 2110DPPE   C3A47179  16.184   9.684  20.417  0.0160  0.2882  0.0820
 2110DPPE   C4A47180  15.968   9.466  20.092  0.0334 -0.1468 -0.1052
 2110DPPE   C1B47181  16.497  10.439  21.163 -0.0476 -0.0238 -0.0742
 2110DPPE   C2B47182  16.214  10.867  21.244  0.2061 -0.0075  0.2901
 2110DPPE   C3B47183  16.177  11.299  21.106  0.2668 -0.0775  0.0505
 2110DPPE   C4B47184  16.151  11.640  20.862 -0.1484  0.1428  0.1882
 2111DPPE   NH347185  11.386  18.036  22.929 -0.1674 -0.2283  0.2312
 2111DPPE   PO447186  11.375  18.512  22.864 -0.1284 -0.1771 -0.0440
 2111DPPE   GL147187  11.255  18.432  22.493  0.2046  0.1844  0.0196
 2111DPPE   GL247188  11.542  18.570  22.397  0.2668 -0.3989 -0.0329
 2111DPPE   C1A47189  11.070  18.461  22.102  0.0359 -0.0458  0.1056
 2111DPPE   C2A47190  10.901  18.805  21.843 -0.0690  0.3671  0.3074
 2111DPPE   C3A47191  10.668  18.980  21.561  0.1413  0.0086 -0.0569
 2111DPPE   C4A47192  10.237  19.156  21.635  0.1887 -0.1381  0.3868
 2111DPPE   C1B47193  11.602  18.303  22.016 -0.1344 -0.0407  0.0818
 2111DPPE   C2B47194  11.330  18.437  21.612 -0.0045 -0.4504  0.0119
 2111DPPE   C3B47195  11.206  18.684  21.322 -0.0873  0.1976  0.1002
 2111DPPE   C4B47196  11.143  19.085  21.119 -0.2430  0.1344 -0.0442
 2112DPPE   NH347197   8.772  18.444  22.521  0.0512  0.2899  0.0035
 2112DPPE   PO447198   8.716  18.009  22.365 -0.4728 -0.0722 -0.1166
 2112DPPE   GL147199   8.926  18.130  22.062 -0.3387  0.0868 -0.0892
 2112DPPE   GL247200   9.172  17.824  22.078 -0.0736  0.0070 -0.1327
 2112DPPE   C1A47201   8.911  18.182  21.605 -0.0844 -0.3221 -0.1397
 2112DPPE   C2A47202   8.740  18.212  21.149 -0.2276  0.1669  0.0033
 2112DPPE   C3A47203   8.880  18.254  20.743  0.1954 -0.0794 -0.3349
 2112DPPE   C4A47204   9.193  18.517  20.466  0.1250 -0.0203 -0.1441
 2112DPPE   C1B47205   9.302  17.716  21.712 -0.0816 -0.3416  0.0046
 2112DPPE   C2B47206   9.540  17.459  21.310  0.2353  0.2987 -0.1135
 2112DPPE   C3B47207   9.938  17.227  21.100  0.1623  0.0633 -0.0844
 2112DPPE   C4B47208  10.017  16.833  20.921 -0.2129 -0.0738 -0.0403
 2113DPPE   NH347209  13.099   8.372  21.149 -0.4002 -0.3824 -0.1148
 2113DPPE   PO447210  13.111   8.722  21.495 -0.0601  0.1020  0.5575
 2113DPPE   GL147211  13.185   9.049  21.655  0.1406 -0.0215  0.0889
 2113DPPE   GL247212  13.506   9.018  21.832 -0.2116 -0.2197  0.3191
 2113DPPE   C1A47213  13.105   9.398  21.617  0.2278  0.0027 -0.1506
 2113DPPE   C2A47214  13.200   9.667  21.261 -0.0637  0.0955 -0.0416
 2113DPPE   C3A47215  13.362   9.746  20.882 -0.1004 -0.0403 -0.2042
 2113DPPE   C4A47216  13.060  10.003  20.548  0.2783 -0.2339 -0.0577
 2113DPPE   C1B47217  13.680   9.258  21.431 -0.1749  0.1076 -0.2593
 2113DPPE   C2B47218  13.803   9.620  21.162  0.0261 -0.2100  0.3192
 2113DPPE   C3B47219  13.732  10.104  21.211 -0.0175  0.3561  0.0434
 2113DPPE   C4B47220  13.852  10.438  21.381 -0.4667  0.2457  0.2649
 2114DPPE   NH347221  11.249   8.659  21.517 -0.3627  0.1034  0.0925
 2114DPPE   PO447222  11.576   8.375  21.432  0.2906  0.1163  0.2064
 2114DPPE   GL147223  11.620   8.732  21.128  0.0636 -0.4727 -0.1251
 2114DPPE   GL247224  11.929   8.689  21.144 -0.1309 -0.0730 -0.1314
 2114DPPE   C1A47225  11.423   8.893  20.833 -0.0133  0.2626  0.1912
 2114DPPE   C2A47226  11.161   9.172  20.718  0.0027 -0.1107 -0.0010
 2114DPPE   C3A47227  10.894   9.383  20.562 -0.2771  0.1321 -0.1744
 2114DPPE   C4A47228  10.983   9.633  20.190 -0.3809 -0.3530 -0.1482
 2114DPPE   C1B47229  12.028   8.987  20.766  0.2479  0.0956  0.0467
 2114DPPE   C2B47230  11.758   9.058  20.481 -0.1743 -0.3392 -0.0561
 2114DPPE   C3B47231  11.462   9.239  20.256  0.0441 -0.0480  0.0238
 2114DPPE   C4B47232  11.401   9.473  19.831 -0.2160  0.1212  0.0755
 2115DPPE   NH347233  11.858  12.006  22.599 -0.0261  0.4026  0.0648
 2115DPPE   PO447234  11.520  12.231  22.495  0.0756  0.1833  0.1960
 2115DPPE   GL147235  11.318  12.333  22.061 -0.1530 -0.1633 -0.0793
 2115DPPE   GL247236  11.239  12.107  21.874 -0.0484 -0.1696 -0.1736
 2115DPPE   C1A47237  11.183  12.723  21.773 -0.4685 -0.3281 -0.1299
 2115DPPE   C2A47238  11.095  12.981  21.337  0.0595 -0.2143  0.1842
 2115DPPE   C3A47239  10.768  12.845  21.064  0.2089 -0.0319  0.1381
 2115DPPE   C4A47240  10.295  12.863  20.968 -0.1111  0.0889  0.0219
 2115DPPE   C1B47241  11.047  12.240  21.619  0.1568  0.0376  0.0763
 2115DPPE   C2B47242  10.728  12.672  21.551 -0.1738  0.0506 -0.3009
 2115DPPE   C3B47243  10.587  13.016  21.649  0.4186 -0.0708  0.2350
 2115DPPE   C4B47244  10.320  13.329  21.548 -0.1751 -0.1721  0.0007
 2116DPPE   NH347245  10.309   8.789  21.646  0.2871 -0.2244  0.1203
 2116DPPE   PO447246  10.725   8.652  21.611 -0.0288 -0.1705 -0.2608
 2116DPPE   GL147247  10.908   8.626  21.191 -0.0228  0.1084 -0.2252
 2116DPPE   GL247248  11.133   8.997  21.204  0.3484  0.4358  0.1084
 2116DPPE   C1A47249  11.010   8.445  20.805 -0.2607 -0.2560 -0.1895
 2116DPPE   C2A47250  11.321   8.373  20.761 -0.2492  0.2413 -0.1571
 2116DPPE   C3A47251  11.537   8.177  20.410  0.0272  0.1189  0.1935
 2116DPPE   C4A47252  11.526   8.140  19.919  0.1669 -0.2417  0.2576
 2116DPPE   C1B47253  10.873   9.398  21.080 -0.1147 -0.2756 -0.3271
 2116DPPE   C2B47254  10.680   9.796  20.885  0.0590  0.1166 -0.1220
 2116DPPE   C3B47255  10.631   9.952  20.459  0.0574  0.0013 -0.1171
 2116DPPE   C4B47256  10.500   9.656  20.198 -0.3204 -0.2581  0.2157
 2117DPPE   NH347257  10.339   7.239  19.824  0.0842  0.3597  0.0372
 2117DPPE   PO447258  10.527   7.287  20.211 -0.3891 -0.2197 -0.1531
 2117DPPE   GL147259  10.428   7.605  20.215  0.0162 -0.2485 -0.0364
 2117DPPE   GL247260  10.095   7.573  20.185  0.0868  0.0547 -0.0432
 2117DPPE   C1A47261  10.623   8.030  20.055  0.0954 -0.1643  0.2309
 2117DPPE   C2A47262  10.728   8.475  19.898 -0.1376 -0.0146 -0.0066
 2117DPPE   C3A47263  10.832   8.870  19.761 -0.0986  0.0381  0.2309
 2117DPPE   C4A47264  10.801   9.371  19.819  0.0321 -0.1654  0.0271
 2117DPPE   C1B47265  10.021   8.021  20.205 -0.1025  0.0989 -0.0707
 2117DPPE   C2B47266   9.904   8.391  20.402 -0.0383  0.1359 -0.1824
 2117DPPE   C3B47267  10.011   8.858  20.212  0.1853 -0.0448 -0.0177
 2117DPPE   C4B47268  10.072   9.347  20.192 -0.3022  0.0546 -0.3277
 2118DPPE   NH347269  17.288  27.570  19.737 -0.1357 -0.5033 -0.0245
 2118DPPE   PO447270  17.127  27.775  19.360 -0.0493  0.2725 -0.4125
 2118DPPE   GL147271  16.949  27.504  19.054 -0.0473 -0.0218  0.1928
 2118DPPE   GL247272  16.897  27.194  19.065  0.2507  0.2549 -0.1712
 2118DPPE   C1A47273  16.929  27.346  18.547 -0.0390  0.1549 -0.3381
 2118DPPE   C2A47274  17.057  27.607  18.213  0.0052  0.0385 -0.1202
 2118DPPE   C3A47275  17.203  27.536  17.757 -0.0975  0.0942  0.0125
 2118DPPE   C4A47276  17.653  27.576  17.800  0.2096  0.2537  0.1035
 2118DPPE   C1B47277  17.044  26.874  19.198 -0.0037  0.1433 -0.3949
 2118DPPE   C2B47278  17.149  26.550  18.901  0.1182 -0.0304 -0.0832
 2118DPPE   C3B47279  17.314  26.152  18.737  0.1166  0.0008 -0.1370
 2118DPPE   C4B47280  17.664  25.881  18.707  0.1433 -0.1191  0.0584
 2119DPPE   NH347281   5.380  11.426  20.640 -0.1184  0.1404 -0.0078
 2119DPPE   PO447282   5.317  11.702  20.314 -0.0817  0.3592 -0.3740
 2119DPPE   GL147283   5.778  11.761  20.463  0.0464  0.0383  0.1623
 2119DPPE   GL247284   5.963  11.917  20.734  0.0698  0.0788  0.0875
 2119DPPE   C1A47285   6.189  11.895  20.335 -0.0851 -0.1162  0.0575
 2119DPPE   C2A47286   6.269  12.221  20.003  0.2431  0.2007  0.1451
 2119DPPE   C3A47287   6.492  12.160  19.597  0.2818 -0.3590  0.0025
 2119DPPE   C4A47288   6.758  12.173  19.364 -0.2949  0.0135  0.0785
 2119DPPE   C1B47289   6.433  12.217  20.786  0.1809 -0.1021  0.3085
 2119DPPE   C2B47290   6.857  12.429  20.689  0.0939 -0.0108  0.1271
 2119DPPE   C3B47291   7.215  12.413  20.466  0.3696 -0.0261 -0.0221
 2119DPPE   C4B47292   7.367  12.506  20.022  0.1409 -0.2039 -0.3037
 2120DPPE   NH347293  17.168  23.178  22.339  0.0935 -0.0070 -0.2496
 2120DPPE   PO447294  17.367  22.727  22.349 -0.0275 -0.0469  0.2106
 2120DPPE   GL147295  17.521  22.885  21.935  0.3203  0.1366  0.2682
 2120DPPE   GL247296  17.837  22.698  21.895 -0.1326 -0.0260 -0.1214
 2120DPPE   C1A47297  17.829  22.991  21.490  0.0685  0.1856 -0.0409
 2120DPPE   C2A47298  17.680  22.957  21.086 -0.2841  0.0978 -0.0073
 2120DPPE   C3A47299  17.581  22.525  20.901  0.2798 -0.2720  0.0366
 2120DPPE   C4A47300  17.852  22.235  21.026 -0.4384 -0.0350 -0.1428
 2120DPPE   C1B47301  17.494  22.364  21.857  0.4985  0.0903 -0.3257
 2120DPPE   C2B47302  17.113  22.320  21.506  0.1975 -0.0293 -0.0748
 2120DPPE   C3B47303  16.884  22.109  21.147 -0.0120  0.2378  0.2355
 2120DPPE   C4B47304  16.800  21.673  20.830 -0.0390  0.0041  0.0610
 2121DPPE   NH347305  16.159  23.236  22.246  0.1241 -0.0374  0.4843
 2121DPPE   PO447306  15.865  23.558  22.184 -0.2122 -0.3374 -0.0094
 2121DPPE   GL147307  16.033  23.481  21.796 -0.4412  0.2072  0.1967
 2121DPPE   GL247308  16.096  23.106  21.744  0.3688  0.1775 -0.2568
 2121DPPE   C1A47309  16.441  23.427  21.541 -0.2123 -0.2377  0.2117
 2121DPPE   C2A47310  16.619  23.212  21.186 -0.2302 -0.1040 -0.0782
 2121DPPE   C3A47311  16.623  23.055  20.811  0.1794  0.0759 -0.2280
 2121DPPE   C4A47312  16.423  22.761  20.670  0.2904  0.3317  0.1231
 2121DPPE   C1B47313  15.661  22.906  21.398  0.0464  0.2179 -0.0620
 2121DPPE   C2B47314  15.518  22.988  21.012 -0.3100 -0.0231  0.3077
 2121DPPE   C3B47315  15.474  22.956  20.631 -0.3162 -0.2169  0.3780
 2121DPPE   C4B47316  15.184  22.573  20.510 -0.2034  0.0062 -0.0518
 2122DPPE   NH347317  16.495  17.829  23.211 -0.4329 -0.0642  0.1030
 2122DPPE   PO447318  16.155  18.190  23.349 -0.0561 -0.0159  0.1644
 2122DPPE   GL147319  16.084  18.130  23.000  0.1586 -0.0876 -0.5200
 2122DPPE   GL247320  15.843  18.290  22.891  0.0211 -0.0094  0.1242
 2122DPPE   C1A47321  16.390  18.320  22.772 -0.0066  0.2139  0.1105
 2122DPPE   C2A47322  16.547  18.218  22.389 -0.0791 -0.3542  0.0397
 2122DPPE   C3A47323  16.452  18.339  21.905 -0.0716 -0.0504 -0.3551
 2122DPPE   C4A47324  16.376  18.535  21.417 -0.3820  0.1878 -0.1759
 2122DPPE   C1B47325  15.596  18.479  22.496  0.0318  0.0177  0.0614
 2122DPPE   C2B47326  15.280  18.503  22.033 -0.1833 -0.1234  0.0408
 2122DPPE   C3B47327  15.275  18.311  21.639  0.1999 -0.0496  0.3312
 2122DPPE   C4B47328  15.168  18.165  21.338  0.0748 -0.1167 -0.1503
 2123DPPE   NH347329  12.926  11.184  22.836  0.4649  0.1333  0.1180
 2123DPPE   PO447330  13.077  10.947  22.502  0.0435 -0.1245 -0.2018
 2123DPPE   GL147331  12.942  11.224  22.200  0.0155 -0.0143  0.1048
 2123DPPE   GL247332  12.935  10.901  21.986  0.3169 -0.1535 -0.1194
 2123DPPE   C1A47333  12.879  11.409  21.843 -0.1034  0.1614  0.2652
 2123DPPE   C2A47334  12.854  11.031  21.488 -0.1433 -0.2254  0.1620
 2123DPPE   C3A47335  12.924  10.587  21.377  0.0714 -0.2543 -0.0259
 2123DPPE   C4A47336  12.693  10.436  21.065  0.0828  0.4377 -0.0173
 2123DPPE   C1B47337  13.231  10.711  21.790  0.4082  0.0633 -0.0636
 2123DPPE   C2B47338  13.384  10.736  21.361 -0.0916 -0.0285  0.2379
 2123DPPE   C3B47339  13.175  10.640  20.965 -0.1092 -0.0254 -0.0012
 2123DPPE   C4B47340  12.861  10.605  20.583  0.1012 -0.0451 -0.1112
 2124DPPE   NH347341  14.146  24.224  22.021 -0.0004  0.0508 -0.1013
 2124DPPE   PO447342  14.372  24.016  22.223 -0.1803 -0.2837 -0.0339
 2124DPPE   GL147343  14.271  23.642  21.796  0.1122 -0.2213  0.0732
 2124DPPE   GL247344  14.415  23.919  21.670 -0.0411 -0.2833 -0.0049
 2124DPPE   C1A47345  14.230  23.404  21.494 -0.2622  0.0417  0.1843
 2124DPPE   C2A47346  14.228  23.455  21.038  0.1790  0.3319  0.1260
 2124DPPE   C3A47347  14.354  23.408  20.678  0.0411  0.2680 -0.1526
 2124DPPE   C4A47348  14.373  23.162  20.460  0.1916  0.3689 -0.3288
 2124DPPE   C1B47349  14.276  23.908  21.294  0.2354 -0.0665 -0.0571
 2124DPPE   C2B47350  14.455  24.013  20.913  0.0702 -0.0904  0.2024
 2124DPPE   C3B47351  14.774  24.139  20.592 -0.2213  0.0149 -0.0789
 2124DPPE   C4B47352  15.120  23.892  20.412 -0.0423 -0.1218  0.0421
 2125DPPE   NH347353  16.260   6.412  18.997 -0.2323 -0.0818 -0.1039
 2125DPPE   PO447354  16.682   6.771  19.242 -0.1003  0.0142  0.0011
 2125DPPE   GL147355  16.803   7.317  19.383 -0.3981 -0.1823 -0.0828
 2125DPPE   GL247356  16.499   7.352  19.317 -0.2072 -0.0914 -0.0686
 2125DPPE   C1A47357  16.719   7.816  19.351 -0.0154  0.0592 -0.2990
 2125DPPE   C2A47358  16.757   8.193  19.151  0.1399  0.1893  0.0488
 2125DPPE   C3A47359  16.597   8.521  18.876 -0.3878  0.3466  0.1624
 2125DPPE   C4A47360  16.363   8.881  18.769  0.0723 -0.1988  0.0495
 2125DPPE   C1B47361  16.589   7.576  19.748 -0.2260  0.0366 -0.2286
 2125DPPE   C2B47362  16.239   7.640  19.812 -0.0065 -0.0297  0.2118
 2125DPPE   C3B47363  15.786   7.801  19.859 -0.0686  0.0233  0.1844
 2125DPPE   C4B47364  15.715   8.072  19.492 -0.0606 -0.1179 -0.0901
 2126DPPE   NH347365  21.718  20.457  20.126 -0.1947 -0.2767 -0.3600
 2126DPPE   PO447366  21.588  20.389  20.545 -0.1655  0.2370  0.0496
 2126DPPE   GL147367  21.295  20.237  20.246  0.1311  0.1624  0.0902
 2126DPPE   GL247368  21.075  20.423  20.348 -0.0876 -0.0302  0.1309
 2126DPPE   C1A47369  20.929  19.942  20.212  0.0092 -0.2204 -0.1154
 2126DPPE   C2A47370  20.488  19.873  20.229 -0.1542 -0.0486 -0.4079
 2126DPPE   C3A47371  20.247  19.442  20.217 -0.0279  0.0266 -0.0321
 2126DPPE   C4A47372  19.936  19.033  20.323  0.1808  0.1894 -0.2286
 2126DPPE   C1B47373  20.704  20.445  20.639 -0.0153 -0.1974  0.2173
 2126DPPE   C2B47374  20.319  20.706  20.652 -0.2978 -0.0869 -0.2030
 2126DPPE   C3B47375  19.882  20.786  20.393  0.2016  0.1031 -0.1742
 2126DPPE   C4B47376  19.458  20.752  20.480  0.0624 -0.0270 -0.2700
 2127DPPE   NH347377  17.152  26.988  20.288 -0.2026 -0.1242  0.0698
 2127DPPE   PO447378  17.471  26.854  20.612  0.2798  0.1899 -0.0929
 2127DPPE   GL147379  17.301  26.562  20.269 -0.0791  0.0171 -0.0233
 2127DPPE   GL247380  17.427  26.583  19.982  0.3109 -0.2262  0.1497
 2127DPPE   C1A47381  17.203  26.112  20.166 -0.3124 -0.0533 -0.1719
 2127DPPE   C2A47382  17.365  25.778  19.866  0.2079  0.0427  0.0688
 2127DPPE   C3A47383  17.583  25.590  19.567  0.1051 -0.0881 -0.3751
 2127DPPE   C4A47384  17.907  25.754  19.205  0.0680 -0.0745  0.1271
 2127DPPE   C1B47385  17.662  26.215  20.102 -0.1214  0.0430  0.0572
 2127DPPE   C2B47386  18.038  25.928  19.977  0.2545  0.0208  0.3388
 2127DPPE   C3B47387  18.110  25.659  19.640  0.0312 -0.1923 -0.3023
 2127DPPE   C4B47388  18.379  25.765  19.173  0.2241 -0.0368  0.2559
 2128DPPE   NH347389   7.837   7.821  20.110  0.3239  0.1480  0.2071
 2128DPPE   PO447390   7.773   7.732  19.726 -0.1422  0.4702  0.0319
 2128DPPE   GL147391   8.067   8.121  19.790 -0.3055 -0.0018 -0.1919
 2128DPPE   GL247392   7.981   8.304  19.986 -0.0184  0.2719  0.0708
 2128DPPE   C1A47393   8.451   8.190  19.902 -0.3440  0.3881  0.2426
 2128DPPE   C2A47394   8.618   8.403  20.284 -0.2209  0.0234 -0.1425
 2128DPPE   C3A47395   8.732   8.829  20.232 -0.0757  0.1014 -0.2131
 2128DPPE   C4A47396   8.998   8.981  19.871 -0.0117  0.1880 -0.3884
 2128DPPE   C1B47397   8.293   8.680  20.054 -0.0014 -0.1589  0.0297
 2128DPPE   C2B47398   8.373   9.003  19.783 -0.1033  0.2165 -0.0804
 2128DPPE   C3B47399   8.373   9.445  19.596  0.3013  0.0950 -0.1979
 2128DPPE   C4B47400   8.453   9.876  19.734 -0.1291  0.0553  0.1320
 2129DPPE   NH347401  14.211  22.292  22.625  0.1346 -0.1666 -0.1881
 2129DPPE   PO447402  13.783  22.493  22.659 -0.2544  0.2916  0.0500
 2129DPPE   GL147403  13.751  22.265  22.367 -0.1556  0.0210  0.0350
 2129DPPE   GL247404  13.713  22.470  22.096 -0.2331  0.0133  0.0963
 2129DPPE   C1A47405  13.669  22.036  21.938 -0.1370 -0.1800  0.1790
 2129DPPE   C2A47406  13.551  22.010  21.496 -0.0735 -0.0526 -0.3551
 2129DPPE   C3A47407  13.773  21.886  21.187 -0.4015 -0.0841  0.1947
 2129DPPE   C4A47408  14.134  21.880  20.911 -0.2386 -0.0981 -0.2992
 2129DPPE   C1B47409  13.537  22.863  21.859 -0.1640  0.3277  0.0865
 2129DPPE   C2B47410  13.349  22.867  21.464 -0.0108  0.0190  0.1434
 2129DPPE   C3B47411  13.470  22.749  21.084 -0.0511  0.1598 -0.0411
 2129DPPE   C4B47412  13.666  22.672  20.583  0.2086  0.0065 -0.0357
 2130DPPE   NH347413  11.240  13.042  22.411  0.1817 -0.2683  0.0241
 2130DPPE   PO447414  11.129  12.670  22.403 -0.0513  0.2723  0.3060
 2130DPPE   GL147415  10.814  12.404  22.068  0.0010 -0.3026  0.1848
 2130DPPE   GL247416  10.837  12.087  22.147 -0.0222 -0.0439 -0.1152
 2130DPPE   C1A47417  10.513  12.253  21.705 -0.3083 -0.0859 -0.0866
 2130DPPE   C2A47418  10.433  12.008  21.436  0.0682 -0.2842  0.0677
 2130DPPE   C3A47419  10.125  11.966  21.218 -0.0611  0.0243 -0.0764
 2130DPPE   C4A47420   9.915  11.813  20.869 -0.1878 -0.2176  0.0421
 2130DPPE   C1B47421  10.835  11.814  21.738 -0.2857 -0.2761 -0.1187
 2130DPPE   C2B47422  10.652  11.595  21.317  0.0875 -0.1110 -0.1486
 2130DPPE   C3B47423  10.506  11.422  20.986 -0.1060  0.1443  0.2723
 2130DPPE   C4B47424  10.574  11.537  20.608  0.1195 -0.4298  0.1155
 2131DPPE   NH347425   7.692  23.341  22.585 -0.1494 -0.3368 -0.0753
 2131DPPE   PO447426   7.354  23.564  22.324 -0.0729  0.1332  0.1182
 2131DPPE   GL147427   7.616  23.493  22.049  0.2035 -0.0681  0.1917
 2131DPPE   GL247428   7.807  23.213  22.152 -0.4964 -0.2944  0.0197
 2131DPPE   C1A47429   7.833  23.633  21.759 -0.1731  0.0594  0.3283
 2131DPPE   C2A47430   8.055  23.760  21.478 -0.3437 -0.2818  0.1881
 2131DPPE   C3A47431   8.326  23.781  21.228 -0.0495 -0.0159  0.0043
 2131DPPE   C4A47432   8.508  24.006  20.998  0.1179 -0.2303  0.1045
 2131DPPE   C1B47433   7.964  23.110  21.724 -0.0618  0.1282 -0.0668
 2131DPPE   C2B47434   7.748  23.257  21.328 -0.1209  0.0319  0.1116
 2131DPPE   C3B47435   7.972  23.438  21.003 -0.0744 -0.2277 -0.2207
 2131DPPE   C4B47436   8.241  23.584  20.764  0.0193  0.3034  0.1040
 2132DPPE   NH347437   7.367  20.744  23.023  0.0233  0.1552 -0.0310
 2132DPPE   PO447438   7.559  21.046  22.510  0.3292 -0.1580  0.0332
 2132DPPE   GL147439   7.351  21.033  22.225  0.2651  0.0783 -0.0089
 2132DPPE   GL247440   7.170  20.727  22.042 -0.2128 -0.2994 -0.2464
 2132DPPE   C1A47441   7.242  21.257  21.759 -0.3846 -0.0707 -0.1821
 2132DPPE   C2A47442   7.197  21.605  21.650  0.3301 -0.0857 -0.0865
 2132DPPE   C3A47443   7.339  22.085  21.745  0.0921 -0.0798  0.0356
 2132DPPE   C4A47444   7.404  22.480  21.849  0.3449  0.0421  0.1696
 2132DPPE   C1B47445   6.917  20.943  21.743 -0.2793 -0.1113  0.0258
 2132DPPE   C2B47446   6.913  20.632  21.489 -0.0007  0.0247 -0.0879
 2132DPPE   C3B47447   6.992  20.562  21.062 -0.1420  0.0567  0.2364
 2132DPPE   C4B47448   6.935  20.472  20.683 -0.4050  0.3987 -0.0734
 2133DPPE   NH347449  18.407  16.356  23.009  0.1148 -0.0092 -0.2867
 2133DPPE   PO447450  18.105  15.966  23.059 -0.4832 -0.1490 -0.0546
 2133DPPE   GL147451  18.034  16.022  22.597 -0.0393  0.0533  0.2117
 2133DPPE   GL247452  18.033  15.849  22.423  0.1808 -0.1983 -0.6424
 2133DPPE   C1A47453  17.983  16.342  22.342 -0.0083 -0.2920  0.0151
 2133DPPE   C2A47454  17.984  16.528  21.883 -0.2946  0.0353  0.0131
 2133DPPE   C3A47455  17.726  16.499  21.547 -0.1773 -0.1383 -0.1007
 2133DPPE   C4A47456  17.427  16.763  21.291 -0.0414  0.1112  0.2547
 2133DPPE   C1B47457  18.326  16.040  22.142 -0.0415 -0.0756  0.0414
 2133DPPE   C2B47458  18.484  16.325  21.826  0.0396  0.1897 -0.1345
 2133DPPE   C3B47459  18.223  16.536  21.436  0.1082 -0.0622 -0.1197
 2133DPPE   C4B47460  17.911  16.786  21.192  0.0211 -0.1873 -0.3523
 2134DPPE   NH347461  20.713  13.726  21.965 -0.1844  0.0997  0.4388
 2134DPPE   PO447462  20.911  13.391  21.799 -0.0918 -0.1796 -0.2708
 2134DPPE   GL147463  20.780  13.504  21.397  0.2008 -0.0756 -0.2309
 2134DPPE   GL247464  20.433  13.596  21.289  0.0855  0.2886 -0.4185
 2134DPPE   C1A47465  20.709  13.556  20.901  0.3262  0.0914 -0.0160
 2134DPPE   C2A47466  20.984  13.719  20.472  0.3373 -0.2265  0.0126
 2134DPPE   C3A47467  20.847  13.400  20.143  0.0530 -0.1375 -0.3978
 2134DPPE   C4A47468  20.578  13.321  19.803  0.2917 -0.3343  0.0643
 2134DPPE   C1B47469  20.265  13.925  20.957  0.0773 -0.0200  0.1581
 2134DPPE   C2B47470  19.897  14.136  20.808  0.1657 -0.0084  0.1399
 2134DPPE   C3B47471  19.667  14.510  21.066  0.1112 -0.0005  0.0432
 2134DPPE   C4B47472  19.557  14.842  21.337 -0.0043 -0.3225 -0.0910
 2135DPPE   NH347473   5.891  23.089  21.428  0.1595  0.0141 -0.1359
 2135DPPE   PO447474   6.065  23.560  21.250 -0.1283  0.0997 -0.2658
 2135DPPE   GL147475   6.251  23.135  21.063 -0.2591 -0.0517 -0.0133
 2135DPPE   GL247476   6.066  22.841  20.988  0.1500  0.2090  0.1291
 2135DPPE   C1A47477   6.431  23.118  20.647  0.0022  0.2953 -0.1074
 2135DPPE   C2A47478   6.661  23.282  20.299 -0.2141 -0.1032  0.2487
 2135DPPE   C3A47479   7.012  23.196  20.178 -0.1465 -0.3540 -0.0698
 2135DPPE   C4A47480   7.278  22.905  19.865 -0.0876  0.0690  0.2102
 2135DPPE   C1B47481   6.496  22.712  21.060 -0.1998  0.0462 -0.0730
 2135DPPE   C2B47482   6.976  22.715  21.133 -0.0835 -0.2889  0.1212
 2135DPPE   C3B47483   7.299  22.680  20.783  0.2249  0.0631 -0.1883
 2135DPPE   C4B47484   7.399  22.818  20.403  0.3866  0.0219  0.1688
 2136DPPE   NH347485  21.305  22.736  18.388 -0.5636 -0.3360 -0.3495
 2136DPPE   PO447486  21.448  22.847  17.948 -0.3089 -0.0346 -0.0407
 2136DPPE   GL147487  20.939  22.646  18.021  0.0170  0.2245 -0.0555
 2136DPPE   GL247488  20.850  22.532  18.476  0.5040 -0.3184  0.0990
 2136DPPE   C1A47489  20.532  22.416  18.074  0.1494 -0.0388  0.3336
 2136DPPE   C2A47490  20.176  22.358  17.943  0.1848 -0.2387  0.0447
 2136DPPE   C3A47491  19.760  22.184  18.216 -0.2197 -0.5523  0.1550
 2136DPPE   C4A47492  19.306  22.231  17.932 -0.1063  0.3761 -0.1198
 2136DPPE   C1B47493  20.508  22.652  18.760  0.1215 -0.2110  0.0416
 2136DPPE   C2B47494  20.120  22.539  19.013  0.0936  0.2085  0.1528
 2136DPPE   C3B47495  19.755  22.463  19.229  0.1851  0.0522  0.0061
 2136DPPE   C4B47496  19.655  22.469  19.689  0.2994 -0.0478 -0.1944
 2137DPPE   NH347497  18.259  22.595  22.161 -0.0192 -0.6035 -0.1121
 2137DPPE   PO447498  18.243  22.215  22.229 -0.0936 -0.0549  0.0266
 2137DPPE   GL147499  17.969  22.217  21.845 -0.0362 -0.1038 -0.0690
 2137DPPE   GL247500  17.985  22.421  21.483 -0.0873  0.0513 -0.0948
 2137DPPE   C1A47501  17.701  22.054  21.476  0.3088  0.0932  0.1195
 2137DPPE   C2A47502  17.417  22.086  21.176 -0.0454  0.3879  0.1590
 2137DPPE   C3A47503  17.103  22.502  21.043  0.1064  0.1394  0.0186
 2137DPPE   C4A47504  16.816  22.719  21.204  0.1487  0.2489 -0.0834
 2137DPPE   C1B47505  17.586  22.544  21.412  0.1566  0.1251  0.1334
 2137DPPE   C2B47506  17.269  22.823  21.431 -0.0656  0.1663  0.1185
 2137DPPE   C3B47507  17.214  23.095  21.106  0.3623  0.0543 -0.1597
 2137DPPE   C4B47508  17.171  22.964  20.678 -0.1252  0.1565  0.1489
 2138DPPE   NH347509  14.931  21.180  22.803  0.4057  0.3520 -0.2688
 2138DPPE   PO447510  14.617  21.529  22.785 -0.1557  0.1678  0.0928
 2138DPPE   GL147511  14.609  21.291  22.373  0.0369 -0.2106  0.0010
 2138DPPE   GL247512  14.506  20.916  22.480  0.0046 -0.1139 -0.1468
 2138DPPE   C1A47513  14.751  21.249  21.957  0.4085 -0.0580 -0.0325
 2138DPPE   C2A47514  14.816  20.887  21.682 -0.0180 -0.1268  0.2657
 2138DPPE   C3A47515  14.846  20.783  21.221  0.0986  0.2051  0.2323
 2138DPPE   C4A47516  14.768  20.735  20.819 -0.1163 -0.4284  0.0076
 2138DPPE   C1B47517  14.284  20.591  22.346  0.1848 -0.0458  0.1333
 2138DPPE   C2B47518  14.225  20.338  22.047  0.2020  0.0597 -0.0021
 2138DPPE   C3B47519  14.127  20.074  21.647 -0.0843  0.0185  0.2020
 2138DPPE   C4B47520  14.141  19.747  21.364 -0.0526 -0.0705 -0.1102
 2139DPPE   NH347521  10.539  21.241  23.140 -0.1172  0.0626 -0.1973
 2139DPPE   PO447522  10.281  20.977  22.908  0.2689  0.2055 -0.1402
 2139DPPE   GL147523  10.224  20.946  22.447 -0.0467  0.0285  0.0337
 2139DPPE   GL247524  10.417  20.756  22.474  0.1332 -0.2727 -0.2232
 2139DPPE   C1A47525   9.994  21.065  22.162  0.0085  0.3880 -0.0824
 2139DPPE   C2A47526   9.861  21.126  21.724  0.0574  0.0720  0.0452
 2139DPPE   C3A47527   9.663  20.860  21.394 -0.0194  0.0042 -0.5059
 2139DPPE   C4A47528   9.834  20.851  21.020  0.1515 -0.1162  0.1005
 2139DPPE   C1B47529  10.610  20.801  22.205 -0.0317 -0.0531 -0.0249
 2139DPPE   C2B47530  10.541  20.689  21.667  0.1523  0.2729 -0.1181
 2139DPPE   C3B47531  10.379  20.573  21.250  0.0122 -0.0341 -0.1847
 2139DPPE   C4B47532  10.523  20.226  21.006  0.3128 -0.1473 -0.2701
 2140DPPE   NH347533  12.413  23.780  22.213  0.2991 -0.3278 -0.1231
 2140DPPE   PO447534  11.920  23.680  22.218 -0.1245  0.7302 -0.1291
 2140DPPE   GL147535  11.722  24.073  22.072 -0.2303 -0.0370  0.0346
 2140DPPE   GL247536  11.721  24.352  21.951  0.1352 -0.1551 -0.0468
 2140DPPE   C1A47537  11.344  23.992  21.824  0.3240 -0.2493  0.1080
 2140DPPE   C2A47538  11.009  23.762  21.695 -0.0648 -0.1405  0.1470
 2140DPPE   C3A47539  10.564  23.775  21.535  0.5544  0.0336 -0.0891
 2140DPPE   C4A47540  10.223  23.708  21.794  0.2300  0.0557 -0.3448
 2140DPPE   C1B47541  11.440  24.413  21.641  0.0286  0.4304 -0.1143
 2140DPPE   C2B47542  11.209  24.654  21.456 -0.0556 -0.0232 -0.2320
 2140DPPE   C3B47543  10.862  24.910  21.255  0.2489 -0.0186  0.0333
 2140DPPE   C4B47544  10.526  25.136  20.990 -0.1509 -0.1544 -0.1327
 2141DPPE   NH347545  10.052  15.976  22.640  0.0881 -0.0876 -0.0421
 2141DPPE   PO447546   9.703  15.630  22.726 -0.1139 -0.0247 -0.0240
 2141DPPE   GL147547   9.802  15.702  22.285  0.0471  0.3398 -0.1975
 2141DPPE   GL247548   9.628  15.766  22.082  0.1286 -0.0720 -0.0763
 2141DPPE   C1A47549  10.104  15.847  21.853 -0.2403 -0.1001  0.1337
 2141DPPE   C2A47550  10.345  15.916  21.486 -0.1562  0.2889 -0.0597
 2141DPPE   C3A47551  10.561  15.899  21.109  0.1272  0.2144 -0.1601
 2141DPPE   C4A47552  10.472  16.170  20.772 -0.0424  0.1677  0.2691
 2141DPPE   C1B47553   9.709  15.908  21.644  0.2103  0.1065  0.1103
 2141DPPE   C2B47554   9.468  15.678  21.262 -0.0157  0.0795  0.0206
 2141DPPE   C3B47555   9.370  15.280  21.301 -0.1468 -0.2514 -0.0950
 2141DPPE   C4B47556   9.138  14.853  21.215 -0.0689  0.0132 -0.4527
 2142DPPE   NH347557  12.362   8.766  21.562  0.1298 -0.0962 -0.0511
 2142DPPE   PO447558  12.252   9.041  21.844 -0.0238 -0.1447 -0.0079
 2142DPPE   GL147559  12.190   9.180  21.430  0.3310 -0.0751  0.0514
 2142DPPE   GL247560  11.881   9.150  21.287  0.0004 -0.2567 -0.0694
 2142DPPE   C1A47561  12.253   9.360  21.022 -0.5056 -0.0686 -0.2670
 2142DPPE   C2A47562  11.968   9.515  20.661  0.2266  0.2126  0.1361
 2142DPPE   C3A47563  11.962   9.611  20.268  0.2077  0.0501  0.1175
 2142DPPE   C4A47564  11.869   9.594  19.782  0.0005  0.1299  0.1813
 2142DPPE   C1B47565  11.636   9.342  20.978 -0.2076  0.0287 -0.3903
 2142DPPE   C2B47566  11.319   9.671  21.052 -0.0069  0.1663  0.3191
 2142DPPE   C3B47567  10.933   9.897  21.368  0.0787 -0.4360 -0.0420
 2142DPPE   C4B47568  10.505   9.941  21.412  0.1553  0.0379 -0.0644
 2143DPPE   NH347569  15.568  18.431  23.309  0.1490 -0.0110  0.3673
 2143DPPE   PO447570  15.656  17.927  23.199 -0.1593  0.1200 -0.2078
 2143DPPE   GL147571  15.780  17.771  22.821 -0.0599  0.4035 -0.0192
 2143DPPE   GL247572  15.430  17.800  22.700  0.1284  0.0034 -0.1217
 2143DPPE   C1A47573  16.063  18.002  22.525  0.0320 -0.2548  0.1918
 2143DPPE   C2A47574  16.086  18.393  22.259 -0.1085 -0.0571  0.0768
 2143DPPE   C3A47575  16.171  18.776  22.481  0.2691 -0.0526 -0.0553
 2143DPPE   C4A47576  16.453  18.839  22.712 -0.2491 -0.0599  0.1922
 2143DPPE   C1B47577  15.627  17.898  22.280 -0.2434 -0.0594 -0.0386
 2143DPPE   C2B47578  15.634  18.102  21.974 -0.1068  0.1491  0.0487
 2143DPPE   C3B47579  15.760  17.947  21.569  0.0655  0.2524 -0.0025
 2143DPPE   C4B47580  16.104  17.552  21.459 -0.1471 -0.1322  0.0309
 2144DPPE   NH347581  13.330  22.702  22.839  0.0034  0.1341 -0.4717
 2144DPPE   PO447582  13.285  22.372  22.636 -0.6361  0.1735  0.1075
 2144DPPE   GL147583  13.226  22.450  22.193 -0.0849 -0.4134  0.0079
 2144DPPE   GL247584  13.263  22.127  22.147  0.0143  0.1350  0.0450
 2144DPPE   C1A47585  13.033  22.553  21.786  0.3052  0.2111 -0.0997
 2144DPPE   C2A47586  12.809  22.398  21.505 -0.2279 -0.0876  0.0704
 2144DPPE   C3A47587  12.569  22.534  21.117 -0.1245  0.1248  0.1168
 2144DPPE   C4A47588  12.295  22.347  20.893 -0.1134  0.2165 -0.2047
 2144DPPE   C1B47589  13.130  22.082  21.785  0.3028  0.0400  0.2946
 2144DPPE   C2B47590  13.070  21.854  21.350 -0.2297  0.0344  0.0625
 2144DPPE   C3B47591  13.194  21.694  21.019 -0.1518 -0.0840 -0.1410
 2144DPPE   C4B47592  13.332  21.260  20.923  0.0339 -0.3919  0.1548
 2145DPPE   NH347593  20.678  12.242  21.154  0.0419 -0.0552  0.2477
 2145DPPE   PO447594  20.609  11.966  20.966 -0.0738  0.3659 -0.1524
 2145DPPE   GL147595  20.413  12.074  20.610 -0.0530  0.3346  0.2114
 2145DPPE   GL247596  20.020  12.007  20.694 -0.0668  0.0455  0.2563
 2145DPPE   C1A47597  20.139  12.236  20.322 -0.1237  0.0786  0.0563
 2145DPPE   C2A47598  19.736  12.254  20.292 -0.3503  0.1608 -0.0024
 2145DPPE   C3A47599  19.420  12.510  20.293 -0.2928  0.1359  0.1440
 2145DPPE   C4A47600  19.172  12.389  20.512 -0.1768 -0.0909  0.0049
 2145DPPE   C1B47601  20.036  11.710  20.289 -0.0459 -0.1758  0.1556
 2145DPPE   C2B47602  19.830  11.442  19.928 -0.0491 -0.1274  0.1040
 2145DPPE   C3B47603  19.480  11.243  19.717 -0.0730  0.0319 -0.0233
 2145DPPE   C4B47604  19.297  10.783  19.831 -0.0763 -0.4370  0.3164
 2146DPPE   NH347605  18.704  21.980  22.465  0.0977 -0.1974  0.1567
 2146DPPE   PO447606  19.013  21.994  22.122  0.0516 -0.0019 -0.0725
 2146DPPE   GL147607  18.893  22.080  21.673  0.2685 -0.1418 -0.0503
 2146DPPE   GL247608  18.516  21.952  21.804  0.0404  0.3260  0.2201
 2146DPPE   C1A47609  18.814  21.966  21.253 -0.0907  0.0857  0.2415
 2146DPPE   C2A47610  18.608  21.663  20.889  0.2642 -0.1181  0.1398
 2146DPPE   C3A47611  18.583  21.326  20.637  0.0596  0.0104 -0.0606
 2146DPPE   C4A47612  18.641  20.833  20.626 -0.3242  0.0124  0.2524
 2146DPPE   C1B47613  18.119  21.773  21.607  0.2713 -0.0111 -0.4545
 2146DPPE   C2B47614  17.863  21.584  21.409 -0.3562  0.0169  0.2456
 2146DPPE   C3B47615  17.747  21.694  20.951 -0.2205 -0.4081 -0.0388
 2146DPPE   C4B47616  17.483  21.855  20.749  0.6000  0.1774 -0.0505
 2147DPPE   NH347617   8.433  20.813  22.655 -0.0072  0.0517  0.2024
 2147DPPE   PO447618   8.242  20.412  22.623 -0.1012  0.2437  0.2000
 2147DPPE   GL147619   8.562  20.476  22.354 -0.0359  0.2073  0.2471
 2147DPPE   GL247620   8.337  20.722  22.134 -0.2540 -0.2706  0.0514
 2147DPPE   C1A47621   8.544  20.262  21.921  0.0283 -0.1527 -0.0450
 2147DPPE   C2A47622   8.787  20.331  21.515  0.1537  0.1002 -0.1080
 2147DPPE   C3A47623   8.621  20.483  21.125 -0.2759 -0.0889 -0.2291
 2147DPPE   C4A47624   8.515  20.680  20.783  0.1367 -0.1210  0.2398
 2147DPPE   C1B47625   8.054  20.574  21.792 -0.2006  0.0889  0.0924
 2147DPPE   C2B47626   8.179  20.169  21.553  0.1278  0.0883 -0.2332
 2147DPPE   C3B47627   8.034  19.713  21.503 -0.0317  0.0153  0.1419
 2147DPPE   C4B47628   8.288  19.282  21.633 -0.0373 -0.0843  0.1058
 2148DPPE   NH347629  17.513  12.887  22.802 -0.4366  0.1282  0.1921
 2148DPPE   PO447630  17.500  13.277  22.665  0.2052 -0.0277  0.3401
 2148DPPE   GL147631  17.436  13.017  22.249 -0.0580 -0.0711  0.1395
 2148DPPE   GL247632  17.441  12.729  22.313 -0.1191  0.0381  0.1642
 2148DPPE   C1A47633  17.264  12.960  21.873 -0.2046  0.2397  0.3572
 2148DPPE   C2A47634  17.204  12.950  21.409  0.0954 -0.0413 -0.0078
 2148DPPE   C3A47635  16.925  13.189  21.115 -0.2006 -0.6167 -0.0046
 2148DPPE   C4A47636  17.067  13.342  20.707  0.1372 -0.0290  0.3639
 2148DPPE   C1B47637  17.446  12.501  21.851 -0.0891  0.0302  0.1174
 2148DPPE   C2B47638  17.224  12.419  21.440 -0.0087  0.0421 -0.2873
 2148DPPE   C3B47639  17.097  12.579  21.076 -0.1284 -0.3413  0.1330
 2148DPPE   C4B47640  17.123  12.668  20.622 -0.1422 -0.1307 -0.3666
 2149DPPE   NH347641  21.420  20.838  20.406  0.3568 -0.2068 -0.0289
 2149DPPE   PO447642  21.652  20.933  20.075 -0.0317  0.1154 -0.1212
 2149DPPE   GL147643  21.303  20.616  19.862  0.1371  0.1468 -0.0230
 2149DPPE   GL247644  20.974  20.748  20.005  0.2308  0.2321 -0.1875
 2149DPPE   C1A47645  21.079  20.257  19.788  0.0614  0.1436  0.3371
 2149DPPE   C2A47646  20.613  20.096  19.791 -0.0146  0.0318 -0.1687
 2149DPPE   C3A47647  20.231  19.799  19.782  0.0067  0.2968  0.1618
 2149DPPE   C4A47648  20.003  19.459  19.739 -0.1044  0.1219 -0.4052
 2149DPPE   C1B47649  20.539  20.532  20.146 -0.0955 -0.1159  0.1376
 2149DPPE   C2B47650  20.141  20.297  20.066 -0.0043  0.0485  0.0342
 2149DPPE   C3B47651  19.822  20.499  19.891  0.1683 -0.1090 -0.1160
 2149DPPE   C4B47652  19.503  20.891  19.995 -0.5085  0.0871 -0.2042
 2150DPPE   NH347653  14.004  22.844  22.386 -0.1068 -0.0264  0.1501
 2150DPPE   PO447654  14.336  23.125  22.280  0.1776  0.1871  0.2735
 2150DPPE   GL147655  14.354  22.939  21.898 -0.1220  0.0717 -0.1231
 2150DPPE   GL247656  14.564  23.170  21.857 -0.2080  0.0118 -0.1184
 2150DPPE   C1A47657  14.288  22.878  21.447  0.1799 -0.0425  0.0764
 2150DPPE   C2A47658  14.003  22.859  21.024  0.0187 -0.2559 -0.0561
 2150DPPE   C3A47659  13.909  23.144  20.545 -0.0427 -0.0006  0.1208
 2150DPPE   C4A47660  13.879  23.530  20.368 -0.1067 -0.0094 -0.2569
 2150DPPE   C1B47661  14.772  22.813  21.547  0.0655 -0.0766 -0.1676
 2150DPPE   C2B47662  14.744  22.519  21.245 -0.2352  0.1671  0.0837
 2150DPPE   C3B47663  14.371  22.460  20.992 -0.1358 -0.3108  0.1278
 2150DPPE   C4B47664  14.156  22.527  20.659  0.1460  0.1599  0.0411
 2151DPPE   NH347665   5.651  24.451  20.464 -0.1654  0.1890  0.0373
 2151DPPE   PO447666   6.159  24.336  20.402  0.1465 -0.0707 -0.2283
 2151DPPE   GL147667   6.520  24.068  20.335  0.1368  0.1781  0.1563
 2151DPPE   GL247668   6.805  24.292  20.312  0.1067 -0.1432 -0.0591
 2151DPPE   C1A47669   6.828  23.796  20.215 -0.1641  0.2338  0.2055
 2151DPPE   C2A47670   7.154  23.850  19.909  0.1875 -0.2328  0.0820
 2151DPPE   C3A47671   7.566  23.765  20.016 -0.2284  0.2777 -0.1756
 2151DPPE   C4A47672   7.800  23.647  20.471 -0.1021 -0.0439 -0.3234
 2151DPPE   C1B47673   6.960  24.035  20.675  0.2118  0.1506 -0.1306
 2151DPPE   C2B47674   7.077  23.839  20.976 -0.2503 -0.0929  0.2278
 2151DPPE   C3B47675   7.337  23.567  21.072 -0.0623 -0.0795  0.4315
 2151DPPE   C4B47676   7.736  23.863  21.124  0.2156  0.2176  0.1160
 2152DPPE   NH347677  17.960  25.397  21.234 -0.0697 -0.1407  0.1173
 2152DPPE   PO447678  18.359  25.550  20.968 -0.0625 -0.2095 -0.1271
 2152DPPE   GL147679  17.971  25.510  20.756  0.2622 -0.4214  0.0040
 2152DPPE   GL247680  18.078  25.568  20.412  0.1069 -0.2091  0.3286
 2152DPPE   C1A47681  17.716  25.303  20.564  0.1349  0.1410  0.0689
 2152DPPE   C2A47682  17.365  25.323  20.275 -0.1764  0.1127  0.1788
 2152DPPE   C3A47683  16.984  25.592  20.225 -0.0693  0.0234  0.1149
 2152DPPE   C4A47684  16.508  25.550  20.057 -0.2911 -0.0298 -0.2276
 2152DPPE   C1B47685  18.312  25.395  20.016 -0.1696  0.2273 -0.1421
 2152DPPE   C2B47686  18.570  25.125  19.826  0.0502  0.1513  0.1244
 2152DPPE   C3B47687  18.810  24.915  19.426  0.1502  0.3244 -0.0991
 2152DPPE   C4B47688  18.915  24.815  19.033 -0.1667  0.0481  0.0857
 2153DPPE   NH347689  10.198   6.341  18.616 -0.1138 -0.0185  0.0592
 2153DPPE   PO447690   9.932   6.427  18.273 -0.2540 -0.1108  0.2067
 2153DPPE   GL147691  10.160   6.832  18.470  0.0466 -0.3411  0.3571
 2153DPPE   GL247692  10.159   6.976  18.799  0.0980 -0.1018 -0.1105
 2153DPPE   C1A47693  10.498   7.063  18.227  0.0987  0.1276 -0.1011
 2153DPPE   C2A47694  10.802   7.410  18.261  0.0404 -0.1859 -0.0162
 2153DPPE   C3A47695  11.192   7.393  18.205 -0.0129 -0.1303  0.0373
 2153DPPE   C4A47696  11.625   7.399  18.459 -0.1260  0.0739  0.0771
 2153DPPE   C1B47697  10.249   7.356  18.561 -0.0626  0.0309  0.0664
 2153DPPE   C2B47698  10.152   7.751  18.474 -0.1795 -0.0209 -0.1980
 2153DPPE   C3B47699  10.283   8.004  18.192  0.0463  0.0165 -0.2873
 2153DPPE   C4B47700  10.542   8.306  18.163  0.0910 -0.1011  0.4060
 2154DPPE   NH347701  10.195  16.861  22.650  0.1712  0.0915 -0.1790
 2154DPPE   PO447702   9.893  16.455  22.479  0.1349  0.0120  0.2998
 2154DPPE   GL147703   9.796  16.615  22.074  0.0836  0.3179 -0.2983
 2154DPPE   GL247704   9.528  16.384  22.017  0.1941 -0.1268 -0.0916
 2154DPPE   C1A47705   9.950  16.819  21.774  0.2197 -0.1425  0.2454
 2154DPPE   C2A47706   9.613  16.883  21.378  0.4020  0.0608 -0.3554
 2154DPPE   C3A47707   9.491  16.607  21.029 -0.0832 -0.2398  0.0837
 2154DPPE   C4A47708   9.062  16.743  20.828 -0.1643  0.2324  0.2541
 2154DPPE   C1B47709   9.675  16.451  21.616  0.1033 -0.1787  0.3027
 2154DPPE   C2B47710   9.676  16.156  21.227 -0.2570  0.1095 -0.1047
 2154DPPE   C3B47711   9.595  15.938  20.850 -0.1471  0.1445  0.0470
 2154DPPE   C4B47712   9.268  15.769  20.649  0.3829 -0.2282 -0.0694
 2155DPPE   NH347713  15.789  27.904  19.083  0.1486 -0.1309  0.4148
 2155DPPE   PO447714  16.013  28.149  18.894 -0.1815  0.1238  0.2792
 2155DPPE   GL147715  16.228  27.676  18.977  0.1248 -0.1931  0.1189
 2155DPPE   GL247716  16.457  27.426  18.806  0.2254  0.0968  0.0331
 2155DPPE   C1A47717  16.131  27.117  19.152 -0.2468  0.0480 -0.1078
 2155DPPE   C2A47718  15.937  26.679  19.217  0.2298  0.1580  0.3186
 2155DPPE   C3A47719  15.675  26.425  19.408  0.1463 -0.2381  0.1165
 2155DPPE   C4A47720  15.283  26.111  19.298  0.0619  0.0591 -0.1932
 2155DPPE   C1B47721  16.358  27.368  18.399 -0.0254  0.1078 -0.0092
 2155DPPE   C2B47722  16.305  27.206  17.969 -0.3706 -0.0735  0.1782
 2155DPPE   C3B47723  16.053  27.005  17.738  0.1829  0.0105 -0.2067
 2155DPPE   C4B47724  16.087  26.946  17.192  0.2923 -0.1208 -0.1543
 2156DPPE   NH347725  13.205   7.327  20.286 -0.1379 -0.2449 -0.0143
 2156DPPE   PO447726  13.526   7.531  20.333  0.0701  0.3738  0.1423
 2156DPPE   GL147727  13.844   7.690  20.002 -0.0616 -0.2245 -0.1576
 2156DPPE   GL247728  14.207   7.573  20.075 -0.0020 -0.0410 -0.2056
 2156DPPE   C1A47729  13.924   7.723  19.703  0.0433 -0.0401 -0.3637
 2156DPPE   C2A47730  14.072   8.068  19.547 -0.0921  0.0237  0.0487
 2156DPPE   C3A47731  13.917   8.391  19.233 -0.3306 -0.0436 -0.0229
 2156DPPE   C4A47732  13.984   8.717  18.927  0.3305 -0.2470 -0.0707
 2156DPPE   C1B47733  14.411   7.736  19.728 -0.1693 -0.0222 -0.3059
 2156DPPE   C2B47734  14.361   7.696  19.240 -0.0348  0.0635  0.2129
 2156DPPE   C3B47735  14.175   7.648  18.812 -0.0211  0.4383  0.0317
 2156DPPE   C4B47736  14.330   7.796  18.365  0.3508  0.2726 -0.5520
 2157DPPE   NH347737  16.054   9.807  21.959 -0.0725 -0.0206  0.1157
 2157DPPE   PO447738  15.999   9.593  21.591  0.1449 -0.2116 -0.0880
 2157DPPE   GL147739  15.888   9.917  21.458  0.1344 -0.1424  0.0755
 2157DPPE   GL247740  15.670  10.048  21.690  0.1115  0.0484 -0.2135
 2157DPPE   C1A47741  15.711  10.114  21.093 -0.1917  0.0969 -0.1149
 2157DPPE   C2A47742  15.323  10.173  20.903 -0.1143 -0.1010  0.0079
 2157DPPE   C3A47743  14.948  10.549  20.654  0.2071  0.2503 -0.1802
 2157DPPE   C4A47744  14.654  10.459  20.417  0.0725 -0.0332 -0.0515
 2157DPPE   C1B47745  15.514  10.376  21.471  0.2684  0.5381 -0.0045
 2157DPPE   C2B47746  15.370  10.673  21.066  0.0787  0.0108  0.1569
 2157DPPE   C3B47747  15.471  10.618  20.581 -0.0293 -0.0842 -0.2877
 2157DPPE   C4B47748  15.482  10.369  20.268  0.1273  0.0505  0.2645
 2158DPPE   NH347749  17.030   6.616  17.898 -0.1037  0.2383 -0.0990
 2158DPPE   PO447750  16.923   6.452  18.379  0.0146  0.0188 -0.0303
 2158DPPE   GL147751  16.436   6.540  18.405  0.0448  0.0412  0.1441
 2158DPPE   GL247752  16.409   6.818  18.701  0.1952 -0.4572  0.2023
 2158DPPE   C1A47753  16.058   6.809  18.328 -0.4042  0.1304  0.0019
 2158DPPE   C2A47754  15.858   7.047  18.565  0.0232  0.0585 -0.2065
 2158DPPE   C3A47755  15.612   7.161  18.900  0.1970 -0.2194  0.0424
 2158DPPE   C4A47756  15.266   7.215  19.059 -0.1644 -0.1969  0.0145
 2158DPPE   C1B47757  16.559   7.234  18.720  0.0215  0.0623 -0.2211
 2158DPPE   C2B47758  16.703   7.569  18.864 -0.2155  0.0442  0.3618
 2158DPPE   C3B47759  16.694   8.055  18.664 -0.2828 -0.0925 -0.0905
 2158DPPE   C4B47760  16.250   8.062  18.721 -0.3387 -0.4603  0.1535
 2159DPPE   NH347761  14.971  21.779  22.509  0.0159 -0.0249  0.2958
 2159DPPE   PO447762  14.987  22.284  22.579  0.4125  0.0718  0.1238
 2159DPPE   GL147763  14.728  22.202  22.143 -0.0361 -0.0417  0.1729
 2159DPPE   GL247764  14.799  22.528  22.035  0.0989  0.1153  0.0506
 2159DPPE   C1A47765  14.730  21.935  21.778 -0.0231  0.0151  0.2469
 2159DPPE   C2A47766  14.636  21.907  21.357  0.0509  0.1454  0.2420
 2159DPPE   C3A47767  14.628  21.841  20.957 -0.0426  0.0803 -0.1028
 2159DPPE   C4A47768  14.545  22.124  20.691  0.0358  0.0220 -0.0347
 2159DPPE   C1B47769  14.488  22.356  21.691  0.1579 -0.1486  0.0626
 2159DPPE   C2B47770  14.163  22.260  21.376  0.2974  0.0286  0.0375
 2159DPPE   C3B47771  13.826  22.364  21.002 -0.2385 -0.0097 -0.0146
 2159DPPE   C4B47772  13.790  22.124  20.691  0.0323 -0.2795 -0.1824
 2160DPPE   NH347773  21.467  19.165  21.285 -0.0830  0.0179 -0.1460
 2160DPPE   PO447774  21.430  19.426  20.976  0.0836  0.0373 -0.0685
 2160DPPE   GL147775  21.086  19.155  20.918 -0.1830 -0.0559 -0.2527
 2160DPPE   GL247776  20.941  18.985  21.125  0.2446  0.1674 -0.0210
 2160DPPE   C1A47777  21.070  19.067  20.468  0.0479 -0.2083  0.1907
 2160DPPE   C2A47778  20.955  18.753  20.162 -0.0977  0.1190  0.0737
 2160DPPE   C3A47779  20.654  18.534  19.835 -0.0346  0.0534 -0.0811
 2160DPPE   C4A47780  20.458  18.122  19.807  0.0417 -0.0238  0.0494
 2160DPPE   C1B47781  20.490  19.006  20.966 -0.0568  0.0669  0.2157
 2160DPPE   C2B47782  20.040  18.925  20.837  0.1077 -0.2543  0.2057
 2160DPPE   C3B47783  19.654  18.833  20.692  0.0417  0.2384  0.0981
 2160DPPE   C4B47784  19.283  18.851  20.581 -0.4157 -0.1946 -0.1015
 2161DPPE   NH347785  10.545  14.294  22.629 -0.1364 -0.2373  0.2431
 2161DPPE   PO447786  10.306  14.002  22.476  0.1197 -0.0980 -0.1520
 2161DPPE   GL147787  10.227  13.876  22.101  0.1565  0.1944 -0.0758
 2161DPPE   GL247788  10.058  14.045  21.869 -0.1133  0.2257  0.0188
 2161DPPE   C1A47789   9.959  13.608  21.776  0.1557  0.3397 -0.1164
 2161DPPE   C2A47790   9.844  13.469  21.392  0.0542 -0.0601  0.2900
 2161DPPE   C3A47791   9.892  13.147  21.058  0.0264 -0.3397  0.0431
 2161DPPE   C4A47792   9.808  12.783  20.975  0.0501  0.0006  0.0246
 2161DPPE   C1B47793   9.987  14.002  21.436  0.0983  0.1688  0.4930
 2161DPPE   C2B47794   9.815  13.894  21.004  0.1048 -0.0607  0.1014
 2161DPPE   C3B47795   9.377  14.069  20.857 -0.1178 -0.1393  0.1734
 2161DPPE   C4B47796   9.087  14.367  21.001 -0.0903 -0.1697 -0.1450
 2162DPPE   NH347797  15.405  10.248  22.070 -0.0430 -0.1139 -0.2449
 2162DPPE   PO447798  15.876  10.271  22.082  0.1634  0.0250  0.2733
 2162DPPE   GL147799  16.114  10.274  21.701  0.1812 -0.1168 -0.2897
 2162DPPE   GL247800  16.432  10.467  21.639 -0.2459  0.2023 -0.0932
 2162DPPE   C1A47801  15.988  10.440  21.293  0.0320  0.2294 -0.0131
 2162DPPE   C2A47802  15.850  10.577  20.907 -0.2380  0.0896  0.0989
 2162DPPE   C3A47803  15.888  10.925  20.717  0.0634  0.0020 -0.1018
 2162DPPE   C4A47804  16.279  11.145  20.671 -0.1236 -0.0503  0.0117
 2162DPPE   C1B47805  16.539  10.761  21.558 -0.1316 -0.2816 -0.0870
 2162DPPE   C2B47806  16.605  11.191  21.354 -0.0975 -0.0103  0.1706
 2162DPPE   C3B47807  16.673  11.574  21.147 -0.2795 -0.3011 -0.0143
 2162DPPE   C4B47808  16.598  11.886  20.839  0.1293 -0.0105 -0.1982
 2163DPPE   NH347809  14.511  18.195  23.155  0.0709 -0.0124 -0.4478
 2163DPPE   PO447810  14.321  17.834  23.427  0.1091  0.0132  0.0012
 2163DPPE   GL147811  14.310  17.729  23.045  0.2258  0.1051 -0.1402
 2163DPPE   GL247812  14.422  17.497  22.954 -0.1313 -0.2341  0.2193
 2163DPPE   C1A47813  14.301  17.827  22.664 -0.1544 -0.1451 -0.0526
 2163DPPE   C2A47814  14.324  17.645  22.217  0.0999  0.2180  0.0507
 2163DPPE   C3A47815  14.353  17.633  21.766  0.4479  0.0638 -0.1493
 2163DPPE   C4A47816  14.377  17.671  21.314  0.0018 -0.0198  0.1317
 2163DPPE   C1B47817  14.610  17.463  22.620 -0.4199 -0.0976 -0.1208
 2163DPPE   C2B47818  14.740  17.363  22.193 -0.2388  0.1234 -0.0349
 2163DPPE   C3B47819  14.644  17.151  21.756  0.2231  0.1300  0.0238
 2163DPPE   C4B47820  14.391  17.063  21.497 -0.0957  0.3465 -0.2176
 2164DPPE   NH347821  22.026  16.107  21.025 -0.2538 -0.2173  0.1221
 2164DPPE   PO447822  22.378  16.224  20.767  0.2385  0.2599 -0.2446
 2164DPPE   GL147823  21.892  16.378  20.667  0.1992  0.2589 -0.0263
 2164DPPE   GL247824  21.636  16.405  20.927  0.2696  0.4369 -0.4157
 2164DPPE   C1A47825  21.612  16.542  20.461  0.1337  0.3022 -0.2152
 2164DPPE   C2A47826  21.160  16.584  20.232 -0.0656  0.2443  0.0296
 2164DPPE   C3A47827  20.784  16.700  20.030  0.2386 -0.0633 -0.0202
 2164DPPE   C4A47828  20.685  17.162  19.822 -0.2287  0.1628  0.1419
 2164DPPE   C1B47829  21.262  16.734  20.926 -0.2241 -0.0159 -0.2960
 2164DPPE   C2B47830  21.032  16.919  20.639  0.1853 -0.3856  0.2336
 2164DPPE   C3B47831  20.819  17.132  20.336 -0.0480 -0.1048  0.1207
 2164DPPE   C4B47832  20.523  17.394  20.425  0.0209 -0.2777 -0.0922
 2165DPPE   NH347833  15.378  10.956  22.534  0.0092 -0.1175 -0.0409
 2165DPPE   PO447834  14.871  10.980  22.600 -0.0460  0.1828  0.1339
 2165DPPE   GL147835  14.881  11.103  22.190  0.1865  0.0256  0.1000
 2165DPPE   GL247836  14.613  11.089  21.862 -0.0519 -0.0618  0.2749
 2165DPPE   C1A47837  15.088  11.101  21.826 -0.0242  0.0048  0.0516
 2165DPPE   C2A47838  15.257  11.106  21.436 -0.0615 -0.1997  0.3413
 2165DPPE   C3A47839  15.184  11.075  21.010 -0.0698 -0.1757  0.1792
 2165DPPE   C4A47840  15.269  11.254  20.651  0.1620 -0.1498  0.2758
 2165DPPE   C1B47841  14.736  11.107  21.469  0.1929 -0.1871  0.0587
 2165DPPE   C2B47842  14.449  11.114  21.095 -0.0618  0.2891 -0.1760
 2165DPPE   C3B47843  14.116  10.967  20.902 -0.1408  0.0778  0.1363
 2165DPPE   C4B47844  13.806  10.660  20.959 -0.2746 -0.0801 -0.3027
 2166DPPE   NH347845  13.193   5.991  18.320  0.2784 -0.1409 -0.0915
 2166DPPE   PO447846  12.754   5.959  18.246 -0.2712 -0.0768 -0.2034
 2166DPPE   GL147847  12.875   6.301  18.106  0.1346  0.1132  0.0571
 2166DPPE   GL247848  12.706   6.565  18.211 -0.0355 -0.3533 -0.1501
 2166DPPE   C1A47849  12.870   6.504  17.734 -0.1394 -0.1033  0.0755
 2166DPPE   C2A47850  12.902   6.957  17.517  0.0902 -0.2069  0.0525
 2166DPPE   C3A47851  12.721   7.071  17.101  0.0663 -0.3102  0.4613
 2166DPPE   C4A47852  12.367   7.236  16.696  0.0154  0.2935  0.0464
 2166DPPE   C1B47853  12.644   6.891  18.037  0.2674  0.1476  0.0730
 2166DPPE   C2B47854  12.820   7.246  17.964  0.0662 -0.3613  0.2539
 2166DPPE   C3B47855  12.918   7.601  18.158  0.1569  0.3461  0.0155
 2166DPPE   C4B47856  13.372   7.725  18.252  0.2549  0.4406  0.2103
 2167DPPE   NH347857  12.622  10.686  22.450  0.2143  0.0348  0.0395
 2167DPPE   PO447858  12.521  11.211  22.591  0.0538 -0.0037  0.0208
 2167DPPE   GL147859  12.483  11.139  22.155 -0.1778  0.1617  0.0804
 2167DPPE   GL247860  12.314  11.264  22.055  0.3805 -0.1375  0.3548
 2167DPPE   C1A47861  12.496  10.825  21.833 -0.0199 -0.0875  0.0635
 2167DPPE   C2A47862  12.686  10.458  21.826 -0.3375 -0.0522  0.2856
 2167DPPE   C3A47863  13.069  10.252  21.875  0.4246  0.1261  0.2332
 2167DPPE   C4A47864  13.411  10.207  21.575 -0.2745  0.1807  0.0403
 2167DPPE   C1B47865  12.392  11.253  21.594  0.2100 -0.1965  0.2192
 2167DPPE   C2B47866  12.189  11.297  21.229  0.1586 -0.0240 -0.0292
 2167DPPE   C3B47867  12.310  11.365  20.758 -0.3232  0.3903  0.1293
 2167DPPE   C4B47868  12.789  11.500  20.531 -0.0846  0.1653 -0.2395
 2168DPPE   NH347869  16.457  22.925  22.581 -0.2933 -0.0002 -0.1840
 2168DPPE   PO447870  16.581  23.379  22.519 -0.2677  0.2769 -0.2261
 2168DPPE   GL147871  16.604  23.087  21.994  0.0448 -0.0442  0.0109
 2168DPPE   GL247872  16.421  22.801  22.121 -0.1481 -0.2285  0.1806
 2168DPPE   C1A47873  16.527  22.850  21.639 -0.0133 -0.1673  0.0412
 2168DPPE   C2A47874  16.359  22.760  21.266  0.1246  0.1048 -0.1924
 2168DPPE   C3A47875  16.066  22.691  21.040  0.2161 -0.1368  0.1446
 2168DPPE   C4A47876  15.916  22.264  21.048 -0.3640 -0.0058  0.0742
 2168DPPE   C1B47877  16.090  22.657  21.691  0.0855  0.3209 -0.2071
 2168DPPE   C2B47878  15.734  22.434  21.487  0.2427  0.2334 -0.1489
 2168DPPE   C3B47879  15.494  22.149  21.228 -0.3919  0.2050 -0.0297
 2168DPPE   C4B47880  15.477  21.877  20.957  0.0463  0.0819  0.0885
 2169DPPE   NH347881  23.415  12.602  17.554  0.1328 -0.0685 -0.3027
 2169DPPE   PO447882  23.309  12.306  17.891  0.0610  0.0006 -0.1568
 2169DPPE   GL147883  22.934  12.394  18.032 -0.1889 -0.0001 -0.3539
 2169DPPE   GL247884  22.973  12.733  17.834 -0.0003  0.0482  0.1237
 2169DPPE   C1A47885  22.443  12.446  17.968  0.2034 -0.0201  0.1166
 2169DPPE   C2A47886  21.946  12.491  17.979  0.0525  0.0003 -0.3323
 2169DPPE   C3A47887  21.569  12.610  18.092  0.0030  0.0868  0.3251
 2169DPPE   C4A47888  21.261  12.453  18.269  0.2976 -0.1390  0.2934
 2169DPPE   C1B47889  22.679  13.146  17.837 -0.3346  0.0981  0.0868
 2169DPPE   C2B47890  22.405  13.418  18.145 -0.1473 -0.2452 -0.1354
 2169DPPE   C3B47891  21.981  13.628  18.196 -0.0251 -0.0757  0.2538
 2169DPPE   C4B47892  21.523  13.504  17.917  0.1041  0.3468 -0.1317
 2170DPPE   NH347893  17.110  11.951  22.932 -0.2500 -0.0733  0.0997
 2170DPPE   PO447894  17.320  12.123  22.638 -0.2575 -0.1457 -0.1184
 2170DPPE   GL147895  17.099  12.324  22.344  0.1156  0.2192 -0.0926
 2170DPPE   GL247896  16.851  12.174  22.337  0.3508  0.2237  0.0350
 2170DPPE   C1A47897  16.878  12.545  21.945  0.1083  0.1240  0.0125
 2170DPPE   C2A47898  16.786  12.655  21.486  0.0646 -0.2897  0.1493
 2170DPPE   C3A47899  16.377  12.730  21.153 -0.5236 -0.1693  0.1681
 2170DPPE   C4A47900  16.200  12.421  20.846  0.1417 -0.0594 -0.0191
 2170DPPE   C1B47901  16.792  12.081  21.827 -0.1155  0.0048 -0.3535
 2170DPPE   C2B47902  16.702  11.976  21.469  0.1880  0.2097  0.1035
 2170DPPE   C3B47903  16.644  12.335  21.152 -0.2032 -0.1329 -0.0999
 2170DPPE   C4B47904  16.660  12.566  20.779 -0.1356  0.1133 -0.0333
 2171DPPE   NH347905  21.563  10.869  20.443  0.0500 -0.2377 -0.0068
 2171DPPE   PO447906  21.268  11.166  20.379  0.4884 -0.3219 -0.1026
 2171DPPE   GL147907  21.050  11.148  19.971 -0.0861 -0.1092 -0.0635
 2171DPPE   GL247908  20.842  10.903  19.785 -0.1738  0.0421 -0.2717
 2171DPPE   C1A47909  20.658  11.339  19.803 -0.1131 -0.2374  0.1575
 2171DPPE   C2A47910  20.350  11.398  20.069  0.1837 -0.0221 -0.0986
 2171DPPE   C3A47911  19.969  11.216  20.389  0.0634 -0.0705 -0.5209
 2171DPPE   C4A47912  19.791  10.989  20.102  0.1031  0.2288  0.2440
 2171DPPE   C1B47913  20.957  11.166  19.467 -0.0396 -0.2896  0.0488
 2171DPPE   C2B47914  21.284  11.299  19.197  0.0636 -0.2511 -0.0169
 2171DPPE   C3B47915  21.654  11.400  19.183  0.2438 -0.1454  0.1108
 2171DPPE   C4B47916  22.004  11.641  19.229  0.2755 -0.0127 -0.2872
 2172DPPE   NH347917  13.662  11.737  22.625 -0.1591 -0.0122 -0.0551
 2172DPPE   PO447918  13.900  12.115  22.636 -0.1991  0.2283  0.1567
 2172DPPE   GL147919  13.924  12.126  22.227  0.0680 -0.1695 -0.0135
 2172DPPE   GL247920  13.625  11.962  22.141  0.0904 -0.1032 -0.0412
 2172DPPE   C1A47921  14.030  12.163  21.784 -0.0351 -0.3127  0.2703
 2172DPPE   C2A47922  13.950  12.327  21.320 -0.0142 -0.2059  0.1598
 2172DPPE   C3A47923  14.075  12.570  21.068 -0.0604 -0.1143  0.2641
 2172DPPE   C4A47924  14.342  12.897  20.946 -0.0812  0.0857 -0.0855
 2172DPPE   C1B47925  13.512  11.690  21.788  0.3065  0.1075  0.0889
 2172DPPE   C2B47926  13.155  11.824  21.544  0.4087  0.1951  0.1446
 2172DPPE   C3B47927  12.989  11.521  21.326 -0.2493 -0.1295  0.3674
 2172DPPE   C4B47928  12.670  11.431  21.110  0.0108 -0.0375  0.0785
 2173DPPE   NH347929  10.425  13.350  22.168  0.3546 -0.2430 -0.0541
 2173DPPE   PO447930  10.790  13.264  22.403  0.1339 -0.1843 -0.1533
 2173DPPE   GL147931  10.948  13.390  22.110 -0.0720 -0.0828 -0.0376
 2173DPPE   GL247932  10.977  13.161  21.953  0.0610  0.2918  0.2332
 2173DPPE   C1A47933  10.864  13.487  21.589  0.1738  0.3374 -0.0890
 2173DPPE   C2A47934  10.703  13.456  21.184 -0.3803  0.1009  0.1298
 2173DPPE   C3A47935  10.753  13.486  20.793 -0.2629  0.0384  0.0574
 2173DPPE   C4A47936  10.637  13.651  20.424  0.2724  0.1109  0.2643
 2173DPPE   C1B47937  11.251  13.302  21.748 -0.1008  0.0025  0.1984
 2173DPPE   C2B47938  11.514  13.283  21.287  0.1221  0.2107  0.0912
 2173DPPE   C3B47939  11.639  13.226  20.779  0.1176 -0.0726 -0.0738
 2173DPPE   C4B47940  11.539  13.111  20.418 -0.3699  0.2004  0.0661
 2174DPPE   NH347941   6.842  24.628  20.817 -0.0965 -0.0101  0.1368
 2174DPPE   PO447942   6.840  24.604  21.225 -0.0472 -0.0212 -0.0099
 2174DPPE   GL147943   7.092  24.335  21.112 -0.2116 -0.1820  0.3532
 2174DPPE   GL247944   7.347  24.484  20.890  0.0040 -0.0142 -0.1404
 2174DPPE   C1A47945   7.358  24.102  21.339 -0.0642 -0.0929  0.0795
 2174DPPE   C2A47946   7.392  23.708  21.590  0.2387 -0.0052  0.1094
 2174DPPE   C3A47947   7.362  23.325  21.598  0.0683  0.0525  0.1191
 2174DPPE   C4A47948   7.525  22.980  21.935  0.1770  0.3273 -0.0269
 2174DPPE   C1B47949   7.720  24.302  21.075 -0.2059 -0.0897 -0.0696
 2174DPPE   C2B47950   8.274  24.438  21.048 -0.0047 -0.1534  0.1741
 2174DPPE   C3B47951   8.721  24.526  20.854  0.0288  0.0669  0.5403
 2174DPPE   C4B47952   8.761  24.650  20.468  0.0354  0.1387 -0.1123
 2175DPPE   NH347953  19.197   8.138  18.412  0.2580  0.0098 -0.3449
 2175DPPE   PO447954  18.916   8.114  18.100 -0.0401 -0.3451  0.0807
 2175DPPE   GL147955  18.710   8.236  17.674  0.0888 -0.0732 -0.1766
 2175DPPE   GL247956  18.831   8.497  17.529  0.1377 -0.1825 -0.2790
 2175DPPE   C1A47957  18.421   8.153  17.276 -0.0949  0.0935 -0.2966
 2175DPPE   C2A47958  18.336   8.055  16.928 -0.1251 -0.2043 -0.1927
 2175DPPE   C3A47959  18.068   8.010  16.538 -0.0351 -0.2937  0.1193
 2175DPPE   C4A47960  17.834   7.713  16.489  0.0059  0.1727 -0.1575
 2175DPPE   C1B47961  18.520   8.822  17.496  0.0303  0.1977 -0.0726
 2175DPPE   C2B47962  18.365   9.209  17.633 -0.1720  0.3672  0.0158
 2175DPPE   C3B47963  17.889   9.248  17.593 -0.1227 -0.1374  0.0352
 2175DPPE   C4B47964  17.547   9.292  17.456 -0.0334 -0.0989 -0.2126
 2176DPPE   NH347965  17.012  19.978  22.769 -0.2004 -0.1308  0.3806
 2176DPPE   PO447966  17.011  20.430  22.649 -0.2203  0.0869  0.0096
 2176DPPE   GL147967  16.699  20.198  22.363  0.0490  0.1774 -0.1344
 2176DPPE   GL247968  16.393  20.328  22.389 -0.2716  0.1468  0.1015
 2176DPPE   C1A47969  16.689  20.274  21.894  0.0323 -0.0876  0.2200
 2176DPPE   C2A47970  16.716  20.012  21.676 -0.0201 -0.0571 -0.1107
 2176DPPE   C3A47971  16.519  19.681  21.440 -0.1349 -0.0827  0.1595
 2176DPPE   C4A47972  16.201  19.584  21.197 -0.1054 -0.3614  0.2840
 2176DPPE   C1B47973  16.166  20.184  21.995  0.0734 -0.1880  0.1080
 2176DPPE   C2B47974  16.239  20.172  21.593 -0.1414  0.0623 -0.0609
 2176DPPE   C3B47975  16.489  20.582  21.515  0.2891  0.0380 -0.2043
 2176DPPE   C4B47976  16.518  21.034  21.537 -0.0351 -0.0334 -0.2541
 2177DPPE   NH347977  21.650  14.143  21.807 -0.2164 -0.0698 -0.0858
 2177DPPE   PO447978  21.326  14.251  21.682  0.0558  0.0287 -0.0044
 2177DPPE   GL147979  20.978  14.130  21.386  0.1204  0.0474 -0.1868
 2177DPPE   GL247980  20.743  13.983  21.578 -0.1224 -0.2815 -0.1648
 2177DPPE   C1A47981  20.672  14.061  21.106 -0.1354  0.2237  0.0935
 2177DPPE   C2A47982  20.631  14.075  20.680 -0.0530  0.0950 -0.2001
 2177DPPE   C3A47983  20.664  14.471  20.456 -0.0506  0.0314  0.0160
 2177DPPE   C4A47984  20.727  14.829  20.360  0.1609  0.0303  0.1163
 2177DPPE   C1B47985  20.280  14.014  21.463  0.1248 -0.1352  0.1562
 2177DPPE   C2B47986  19.899  14.157  21.439 -0.0194  0.2476 -0.2788
 2177DPPE   C3B47987  19.604  14.478  21.736 -0.3328 -0.0804 -0.0266
 2177DPPE   C4B47988  19.543  14.851  21.849  0.0526 -0.0039 -0.0144
 2178DPPE   NH347989  17.358  15.487  23.076 -0.2028  0.2820 -0.1550
 2178DPPE   PO447990  17.683  15.620  22.807  0.2410 -0.3575 -0.4219
 2178DPPE   GL147991  17.315  15.875  22.463  0.4730 -0.0538 -0.1250
 2178DPPE   GL247992  17.550  16.167  22.445 -0.0329 -0.0831  0.1105
 2178DPPE   C1A47993  17.204  16.042  22.082 -0.1639 -0.0614 -0.1511
 2178DPPE   C2A47994  17.182  16.196  21.768 -0.1454 -0.0853  0.0933
 2178DPPE   C3A47995  17.365  16.143  21.431 -0.0692 -0.2831 -0.2480
 2178DPPE   C4A47996  17.682  16.001  21.191 -0.1573 -0.1067 -0.1361
 2178DPPE   C1B47997  17.655  15.905  22.088  0.1161 -0.0798 -0.0121
 2178DPPE   C2B47998  17.685  15.998  21.771  0.3172  0.0943  0.2875
 2178DPPE   C3B47999  18.095  16.078  21.633  0.2374 -0.0452  0.4392
 2178DPPE   C4B48000  18.369  15.861  21.408  0.3854 -0.0490  0.4324
 2179DPPE   NH348001  12.743  12.228  23.356  0.1131  0.1446  0.0479
 2179DPPE   PO448002  12.750  12.694  23.059  0.1492  0.3649  0.0976
 2179DPPE   GL148003  12.799  12.560  22.561  0.3005  0.0419  0.0154
 2179DPPE   GL248004  13.110  12.645  22.385  0.1840 -0.2147 -0.1574
 2179DPPE   C1A48005  12.648  12.818  22.189 -0.3240 -0.0167  0.2454
 2179DPPE   C2A48006  12.662  12.940  21.767 -0.0124 -0.0910 -0.0316
 2179DPPE   C3A48007  12.505  13.007  21.376 -0.2078  0.1534  0.0949
 2179DPPE   C4A48008  12.564  13.338  21.072 -0.0352  0.0507  0.0969
 2179DPPE   C1B48009  13.008  12.365  22.073  0.1861  0.3272 -0.1087
 2179DPPE   C2B48010  12.887  12.325  21.580  0.0182  0.0538 -0.2358
 2179DPPE   C3B48011  13.083  12.326  21.112 -0.0318  0.4346 -0.0448
 2179DPPE   C4B48012  13.095  12.549  20.752  0.1313 -0.0771 -0.0250
 2180DPPE   NH348013  18.935  20.954  22.615 -0.0675  0.0250  0.1217
 2180DPPE   PO448014  18.562  21.240  22.574  0.1786 -0.0459  0.0296
 2180DPPE   GL148015  18.394  21.096  22.159  0.2411  0.0120 -0.1109
 2180DPPE   GL248016  18.580  20.883  21.936 -0.1098 -0.0733  0.2380
 2180DPPE   C1A48017  18.350  21.312  21.687  0.2363 -0.1099  0.0787
 2180DPPE   C2A48018  18.434  21.565  21.313 -0.1409  0.1563  0.0664
 2180DPPE   C3A48019  18.190  21.406  20.958  0.3200 -0.1484 -0.2914
 2180DPPE   C4A48020  17.858  21.379  20.577 -0.0596 -0.1737  0.2159
 2180DPPE   C1B48021  18.533  20.815  21.522  0.2403  0.0833 -0.3203
 2180DPPE   C2B48022  18.717  20.690  21.107 -0.3129  0.1912 -0.0164
 2180DPPE   C3B48023  19.026  20.528  20.825 -0.0055  0.0733  0.0432
 2180DPPE   C4B48024  19.034  20.543  20.346  0.1558 -0.3040  0.1705
 2181DPPE   NH348025  15.388   5.606  16.296 -0.0133  0.0351  0.0262
 2181DPPE   PO448026  15.666   5.970  16.223 -0.0929  0.0872 -0.2298
 2181DPPE   GL148027  15.551   6.289  16.591  0.1075 -0.0775  0.4643
 2181DPPE   GL248028  15.646   6.349  16.946 -0.2322  0.0291  0.1513
 2181DPPE   C1A48029  15.350   6.709  16.727 -0.0439 -0.1136 -0.0864
 2181DPPE   C2A48030  15.541   6.943  16.963  0.2984  0.0370 -0.0823
 2181DPPE   C3A48031  15.486   7.331  16.985  0.1365 -0.0384 -0.2218
 2181DPPE   C4A48032  15.151   7.736  16.922  0.0005 -0.2450  0.1719
 2181DPPE   C1B48033  15.358   6.581  17.304 -0.0997  0.2423 -0.2252
 2181DPPE   C2B48034  15.159   6.893  17.356  0.2303  0.0765 -0.2017
 2181DPPE   C3B48035  14.953   7.049  17.700  0.2833 -0.1552 -0.3256
 2181DPPE   C4B48036  14.777   7.274  18.030  0.1855  0.0282  0.1400
 2182DPPE   NH348037  15.766  25.028  21.534  0.0185  0.1391  0.1106
 2182DPPE   PO448038  16.135  25.248  21.328  0.0603 -0.0446 -0.2543
 2182DPPE   GL148039  16.165  25.382  20.894 -0.0463 -0.1007 -0.0527
 2182DPPE   GL248040  15.825  25.661  21.006  0.2223  0.2855  0.0291
 2182DPPE   C1A48041  15.974  25.415  20.441  0.4655 -0.3489  0.2987
 2182DPPE   C2A48042  15.634  25.304  20.132 -0.0625  0.0015  0.0256
 2182DPPE   C3A48043  15.548  25.340  19.724  0.0059  0.1813  0.1020
 2182DPPE   C4A48044  15.611  25.428  19.234  0.2451  0.0198  0.0617
 2182DPPE   C1B48045  15.440  25.592  20.793 -0.4277 -0.1129 -0.3852
 2182DPPE   C2B48046  15.150  25.285  20.817 -0.0094 -0.1843 -0.2532
 2182DPPE   C3B48047  15.006  24.886  20.746  0.1254 -0.0264  0.2349
 2182DPPE   C4B48048  14.852  24.610  20.552 -0.0093  0.0651  0.2367
 2183DPPE   NH348049  18.450  12.912  22.341  0.1201  0.3072 -0.1793
 2183DPPE   PO448050  19.006  12.784  22.322  0.1887  0.2700  0.0026
 2183DPPE   GL148051  18.777  12.679  21.991  0.3011  0.1855  0.4181
 2183DPPE   GL248052  18.545  12.873  21.876 -0.0310  0.0532 -0.0666
 2183DPPE   C1A48053  18.767  12.610  21.513  0.4477 -0.0744 -0.0470
 2183DPPE   C2A48054  18.606  12.721  21.123  0.2666  0.4668 -0.2419
 2183DPPE   C3A48055  18.615  13.058  20.837  0.0454  0.1271 -0.1869
 2183DPPE   C4A48056  18.660  13.213  20.397  0.2502 -0.0143 -0.1701
 2183DPPE   C1B48057  18.230  12.756  21.512 -0.3155 -0.1417 -0.1769
 2183DPPE   C2B48058  18.121  12.715  21.058 -0.2129 -0.4359  0.0628
 2183DPPE   C3B48059  18.202  12.872  20.460 -0.1175  0.1630 -0.1490
 2183DPPE   C4B48060  18.395  12.989  19.996 -0.0830 -0.1999 -0.0556
 2184DPPE   NH348061   5.454  12.590  20.625  0.0392  0.2111  0.1346
 2184DPPE   PO448062   5.542  13.056  20.731  0.2072  0.0919  0.1108
 2184DPPE   GL148063   5.705  12.915  20.418  0.1669 -0.0616 -0.1411
 2184DPPE   GL248064   5.425  13.149  20.195  0.4043  0.0174  0.0346
 2184DPPE   C1A48065   5.771  12.913  19.912  0.0605  0.0444 -0.1091
 2184DPPE   C2A48066   5.620  12.706  19.604  0.0701 -0.0967  0.0953
 2184DPPE   C3A48067   5.444  12.665  19.196  0.0387  0.1490  0.1082
 2184DPPE   C4A48068   5.445  12.420  18.771 -0.3030  0.0162  0.1215
 2184DPPE   C1B48069   5.556  13.372  19.853 -0.1511 -0.0441 -0.0606
 2184DPPE   C2B48070   5.526  13.367  19.395 -0.1886 -0.1218  0.1078
 2184DPPE   C3B48071   5.804  13.067  19.281  0.0919  0.0811  0.0205
 2184DPPE   C4B48072   5.947  12.700  19.172  0.0564  0.0466 -0.2726
 2185DPPE   NH348073   9.384  15.297  22.224  0.0734  0.3436  0.0998
 2185DPPE   PO448074   9.729  15.199  22.438  0.1371  0.0267  0.2110
 2185DPPE   GL148075  10.109  15.275  21.966  0.2898  0.4508 -0.0914
 2185DPPE   GL248076   9.787  15.364  21.874  0.3275 -0.3812 -0.3275
 2185DPPE   C1A48077  10.283  15.023  21.559  0.5314  0.2063  0.1931
 2185DPPE   C2A48078  10.311  14.900  21.170 -0.0496  0.2458  0.0481
 2185DPPE   C3A48079  10.545  15.049  20.880  0.0525  0.3173 -0.2656
 2185DPPE   C4A48080  11.027  15.105  20.790  0.1149 -0.4040 -0.1728
 2185DPPE   C1B48081   9.918  15.334  21.415 -0.1111  0.0479  0.0518
 2185DPPE   C2B48082   9.761  15.236  20.973  0.0601 -0.0321 -0.1699
 2185DPPE   C3B48083   9.782  15.525  20.698  0.0354 -0.2355  0.0365
 2185DPPE   C4B48084   9.754  15.879  20.365  0.1733 -0.0900 -0.3187
 2186DPPE   NH348085  22.400  16.923  20.071  0.0004  0.0013 -0.0377
 2186DPPE   PO448086  22.426  16.598  20.389 -0.0676 -0.2318 -0.2373
 2186DPPE   GL148087  22.134  16.495  20.167 -0.0136  0.0774 -0.1814
 2186DPPE   GL248088  22.348  16.310  19.926 -0.0178  0.1827 -0.1860
 2186DPPE   C1A48089  21.796  16.253  20.127  0.0052 -0.2450 -0.0130
 2186DPPE   C2A48090  21.504  15.967  20.014  0.1113 -0.3325  0.1673
 2186DPPE   C3A48091  21.244  15.596  20.016 -0.4592 -0.1214  0.0652
 2186DPPE   C4A48092  20.857  15.338  19.794 -0.2478 -0.1102 -0.0663
 2186DPPE   C1B48093  22.372  16.083  19.541 -0.0517 -0.0558 -0.1082
 2186DPPE   C2B48094  22.161  15.998  19.264 -0.1517  0.2166  0.2223
 2186DPPE   C3B48095  22.129  16.052  19.000 -0.2628 -0.2173  0.1424
 2186DPPE   C4B48096  22.209  16.217  18.635 -0.0376 -0.1028 -0.1132
 2187DPPE   NH348097  10.376   6.401  17.274 -0.3081  0.0923  0.1327
 2187DPPE   PO448098  10.698   6.421  17.668  0.0431 -0.2637  0.2461
 2187DPPE   GL148099  10.919   6.854  17.493  0.2399 -0.1705  0.0747
 2187DPPE   GL248100  10.799   6.963  17.153 -0.0267 -0.0791  0.2222
 2187DPPE   C1A48101  11.176   7.310  17.543  0.1173 -0.1549  0.3274
 2187DPPE   C2A48102  11.560   7.469  17.451 -0.0211  0.0960  0.1723
 2187DPPE   C3A48103  11.650   7.886  17.487 -0.0473 -0.1981 -0.1721
 2187DPPE   C4A48104  11.662   8.219  17.732  0.2115 -0.1138  0.0982
 2187DPPE   C1B48105  10.731   7.381  17.198 -0.1590  0.0026 -0.1815
 2187DPPE   C2B48106  10.840   7.713  17.431 -0.0248 -0.0274 -0.0398
 2187DPPE   C3B48107  11.170   8.060  17.449 -0.1045 -0.1674 -0.4040
 2187DPPE   C4B48108  11.245   8.491  17.578 -0.1735  0.0914 -0.0339
 2188DPPE   NH348109  17.093  22.356  22.564  0.2187  0.1165 -0.0000
 2188DPPE   PO448110  16.711  22.416  22.721 -0.3637  0.2816  0.1023
 2188DPPE   GL148111  16.503  22.296  22.291  0.0933 -0.1927  0.2820
 2188DPPE   GL248112  16.164  22.257  22.216 -0.2037  0.0351  0.0826
 2188DPPE   C1A48113  16.563  22.370  21.831  0.5307 -0.0453  0.0490
 2188DPPE   C2A48114  16.263  22.314  21.410  0.4480  0.3206 -0.1133
 2188DPPE   C3A48115  16.476  22.369  20.970  0.1398 -0.0731 -0.0015
 2188DPPE   C4A48116  16.239  22.285  20.501  0.0481  0.0330  0.0346
 2188DPPE   C1B48117  16.177  21.978  21.800  0.0906 -0.2482 -0.2719
 2188DPPE   C2B48118  15.852  21.782  21.486 -0.1555  0.1004 -0.3003
 2188DPPE   C3B48119  15.828  21.380  21.224  0.2337  0.1567 -0.0373
 2188DPPE   C4B48120  15.690  21.020  21.061  0.2458 -0.1071  0.2187
 2189DPPE   NH348121  20.802  14.907  21.830 -0.0610  0.0778 -0.1584
 2189DPPE   PO448122  20.737  15.232  22.227 -0.1293 -0.0595 -0.1081
 2189DPPE   GL148123  20.366  15.253  21.846  0.0471  0.1283  0.0560
 2189DPPE   GL248124  20.183  15.493  21.781  0.1702  0.3963 -0.2143
 2189DPPE   C1A48125  20.248  15.207  21.368 -0.2786  0.1205  0.1473
 2189DPPE   C2A48126  20.142  15.313  20.989 -0.1105 -0.0184  0.1474
 2189DPPE   C3A48127  20.067  15.592  20.716  0.1526  0.0538 -0.3108
 2189DPPE   C4A48128  20.339  15.675  20.385  0.2915 -0.0532  0.1093
 2189DPPE   C1B48129  19.863  15.318  21.694 -0.4444  0.2451  0.0492
 2189DPPE   C2B48130  19.378  15.255  21.554 -0.1469 -0.1823 -0.0538
 2189DPPE   C3B48131  19.124  15.137  21.216  0.0909 -0.0568  0.1782
 2189DPPE   C4B48132  19.106  14.899  20.855 -0.0247 -0.1104 -0.0491
 2190DPPE   NH348133  11.901  17.289  22.864  0.1788 -0.0619 -0.0990
 2190DPPE   PO448134  11.690  17.709  22.726  0.4399 -0.2548  0.1434
 2190DPPE   GL148135  11.669  17.893  22.387  0.1437  0.3140  0.1091
 2190DPPE   GL248136  11.886  18.024  22.302  0.1948 -0.3736  0.1233
 2190DPPE   C1A48137  11.591  17.786  21.945  0.0497 -0.1507 -0.2432
 2190DPPE   C2A48138  11.561  18.003  21.547  0.1127 -0.3265  0.0579
 2190DPPE   C3A48139  11.411  18.029  21.139  0.0286 -0.0159  0.1761
 2190DPPE   C4A48140  11.392  18.398  20.780  0.2533 -0.1449 -0.0119
 2190DPPE   C1B48141  12.019  18.048  21.790 -0.0783 -0.0515 -0.1429
 2190DPPE   C2B48142  12.016  18.008  21.293  0.2434 -0.0061 -0.2879
 2190DPPE   C3B48143  12.341  17.941  20.999  0.1493 -0.1422  0.1363
 2190DPPE   C4B48144  12.603  17.896  20.761 -0.0888 -0.3851  0.1254
 2191DPPE   NH348145   6.144  22.186  21.679 -0.0579 -0.1967 -0.0913
 2191DPPE   PO448146   6.122  22.684  21.645 -0.2240  0.1080  0.0242
 2191DPPE   GL148147   6.412  22.936  21.593 -0.0424 -0.0413 -0.2445
 2191DPPE   GL248148   6.699  22.948  21.840  0.3010 -0.2531 -0.1579
 2191DPPE   C1A48149   6.644  23.229  21.305  0.1001 -0.1215 -0.0298
 2191DPPE   C2A48150   6.896  23.360  21.061  0.2040  0.1282  0.0425
 2191DPPE   C3A48151   6.929  23.516  20.632  0.0954  0.1833 -0.1372
 2191DPPE   C4A48152   7.292  23.712  20.442  0.0001  0.2389  0.0660
 2191DPPE   C1B48153   7.128  22.890  21.609 -0.1240  0.0199 -0.3924
 2191DPPE   C2B48154   7.503  22.807  21.421  0.1209 -0.0799 -0.1587
 2191DPPE   C3B48155   7.699  22.778  21.120 -0.1064  0.1531 -0.0686
 2191DPPE   C4B48156   7.723  22.961  20.717 -0.0354  0.2438  0.2411
 2192DPPE   NH348157  13.062  11.648  22.667 -0.3571  0.0723  0.0877
 2192DPPE   PO448158  12.833  12.053  22.620 -0.1783 -0.2911  0.1780
 2192DPPE   GL148159  12.580  12.160  22.283  0.1846  0.3665 -0.1510
 2192DPPE   GL248160  12.317  12.332  22.331 -0.1913  0.0799 -0.0779
 2192DPPE   C1A48161  12.412  12.212  21.797  0.2180 -0.0029  0.3420
 2192DPPE   C2A48162  12.427  12.214  21.398  0.1403  0.1706 -0.2349
 2192DPPE   C3A48163  12.507  12.427  21.075 -0.3617 -0.1163 -0.0537
 2192DPPE   C4A48164  12.375  12.603  20.688 -0.1227 -0.1346  0.3044
 2192DPPE   C1B48165  12.218  12.621  22.033  0.0743 -0.2042 -0.0657
 2192DPPE   C2B48166  12.206  12.645  21.555  0.0784 -0.2493 -0.1041
 2192DPPE   C3B48167  12.013  12.432  21.305  0.1232  0.0679 -0.1049
 2192DPPE   C4B48168  11.880  12.388  20.890 -0.0670  0.3280  0.1956
 2193DPPE   NH348169  12.303  19.002  23.090  0.2358  0.0472  0.1691
 2193DPPE   PO448170  12.471  19.258  22.742 -0.5001 -0.2153 -0.1186
 2193DPPE   GL148171  12.095  19.156  22.643 -0.1166  0.0007 -0.1889
 2193DPPE   GL248172  12.011  19.454  22.420  0.0622 -0.2885  0.4156
 2193DPPE   C1A48173  12.085  19.033  22.168 -0.1443  0.3388 -0.1826
 2193DPPE   C2A48174  12.074  19.146  21.814  0.1258  0.0163 -0.2819
 2193DPPE   C3A48175  11.979  19.076  21.370 -0.2526 -0.4520  0.2374
 2193DPPE   C4A48176  11.666  19.392  21.109  0.3175  0.1274 -0.0358
 2193DPPE   C1B48177  12.421  19.417  22.111 -0.1256 -0.2865 -0.0543
 2193DPPE   C2B48178  12.545  19.587  21.822  0.1926 -0.0047  0.0173
 2193DPPE   C3B48179  12.773  19.579  21.433 -0.0832 -0.1904 -0.1559
 2193DPPE   C4B48180  12.723  19.598  20.843  0.0625  0.2762  0.2966
 2194DPPE   NH348181   9.464  16.472  22.738 -0.1008 -0.2634  0.2396
 2194DPPE   PO448182   9.163  16.395  22.470  0.1302 -0.0688 -0.1166
 2194DPPE   GL148183   8.952  16.591  22.027 -0.0128  0.2296 -0.0579
 2194DPPE   GL248184   9.215  16.748  21.754  0.3863  0.0806 -0.1208
 2194DPPE   C1A48185   8.870  16.413  21.663 -0.0971  0.1780 -0.0900
 2194DPPE   C2A48186   8.718  16.506  21.227  0.1373  0.0642 -0.2917
 2194DPPE   C3A48187   8.690  16.432  20.785 -0.2934 -0.0982 -0.1652
 2194DPPE   C4A48188   8.550  16.252  20.319 -0.2132 -0.4306  0.0538
 2194DPPE   C1B48189   9.084  16.798  21.378  0.0103  0.0079 -0.2436
 2194DPPE   C2B48190   8.687  16.994  21.190 -0.0064  0.0052 -0.1502
 2194DPPE   C3B48191   8.340  16.974  21.047  0.0743 -0.0524 -0.1309
 2194DPPE   C4B48192   7.962  16.890  20.883  0.0115  0.1275  0.3235
 2195DPPE   NH348193  14.037   8.458  21.255  0.0314 -0.3472 -0.2883
 2195DPPE   PO448194  13.602   8.492  21.341 -0.2096  0.1463 -0.1872
 2195DPPE   GL148195  13.443   8.908  21.178 -0.0494  0.1655 -0.0235
 2195DPPE   GL248196  13.256   8.830  21.007 -0.1753 -0.0382 -0.1648
 2195DPPE   C1A48197  13.236   9.284  20.978  0.1312  0.2766 -0.0778
 2195DPPE   C2A48198  13.128   9.356  20.597 -0.0092 -0.4339  0.1043
 2195DPPE   C3A48199  12.761   9.367  20.430  0.1058 -0.0787  0.0807
 2195DPPE   C4A48200  12.414   9.567  20.525 -0.3088 -0.0126  0.0825
 2195DPPE   C1B48201  13.070   8.876  20.603 -0.1197  0.0618 -0.3069
 2195DPPE   C2B48202  13.072   8.985  20.185  0.2509 -0.3342  0.0140
 2195DPPE   C3B48203  12.897   9.140  19.769  0.2320  0.0707 -0.0641
 2195DPPE   C4B48204  13.202   9.273  19.569 -0.1529 -0.0070  0.3652
 2196DPPE   NH348205  11.741   9.202  21.845  0.0063 -0.0533 -0.0871
 2196DPPE   PO448206  11.392   9.513  21.871 -0.0369 -0.2801 -0.0194
 2196DPPE   GL148207  11.260   9.852  21.705 -0.1880 -0.0167  0.2269
 2196DPPE   GL248208  11.565   9.947  21.625  0.1458  0.0157  0.0390
 2196DPPE   C1A48209  11.329  10.106  21.204 -0.0262 -0.1563  0.3729
 2196DPPE   C2A48210  11.524  10.413  20.980 -0.0216 -0.0054 -0.0272
 2196DPPE   C3A48211  11.916  10.433  20.862 -0.1675 -0.2185 -0.0710
 2196DPPE   C4A48212  12.196  10.804  20.742  0.0093 -0.0189  0.0512
 2196DPPE   C1B48213  11.753  10.193  21.389 -0.0877 -0.1936 -0.2133
 2196DPPE   C2B48214  11.876  10.623  21.386 -0.3702 -0.0349 -0.2487
 2196DPPE   C3B48215  11.801  10.962  21.057  0.0449  0.0120  0.2908
 2196DPPE   C4B48216  11.326  11.072  21.102  0.0149  0.1421  0.1694
 2197DPPE   NH348217  17.834  20.043  22.793 -0.0850 -0.1163  0.0259
 2197DPPE   PO448218  17.538  19.748  22.833 -0.1232  0.0146  0.0522
 2197DPPE   GL148219  17.701  19.485  22.377 -0.0522  0.4029  0.1724
 2197DPPE   GL248220  17.375  19.458  22.387  0.0291  0.0064 -0.3808
 2197DPPE   C1A48221  17.820  19.311  21.981 -0.1706  0.1172  0.0289
 2197DPPE   C2A48222  18.088  19.405  21.665  0.3827 -0.1717 -0.2358
 2197DPPE   C3A48223  17.984  19.543  21.187 -0.0738  0.3964 -0.0017
 2197DPPE   C4A48224  18.067  19.652  20.875  0.0309 -0.1072  0.1001
 2197DPPE   C1B48225  17.320  19.404  21.997  0.0491  0.2324 -0.0263
 2197DPPE   C2B48226  17.231  19.132  21.674  0.0429  0.1432  0.1758
 2197DPPE   C3B48227  17.325  18.695  21.566  0.2663  0.0544 -0.1570
 2197DPPE   C4B48228  17.123  18.489  21.242  0.3647  0.0104  0.0176
 2198DPPE   NH348229  15.984  28.101  17.669 -0.0345 -0.0271  0.0474
 2198DPPE   PO448230  15.942  27.929  17.259  0.1295 -0.0063 -0.1746
 2198DPPE   GL148231  15.802  27.477  17.389 -0.2224  0.0985 -0.0527
 2198DPPE   GL248232  15.717  27.280  17.250  0.1055  0.3689  0.2620
 2198DPPE   C1A48233  15.568  27.139  17.775 -0.0692 -0.2617 -0.1355
 2198DPPE   C2A48234  15.545  26.996  18.197  0.1909 -0.0701  0.0954
 2198DPPE   C3A48235  15.948  26.861  18.209 -0.3046 -0.0141 -0.0826
 2198DPPE   C4A48236  16.216  26.645  18.416  0.0134  0.1074  0.0560
 2198DPPE   C1B48237  15.353  27.240  17.313  0.2493 -0.1275  0.0901
 2198DPPE   C2B48238  15.150  26.982  17.572  0.1883  0.0010 -0.2199
 2198DPPE   C3B48239  14.762  26.727  17.637 -0.3275  0.1195 -0.0716
 2198DPPE   C4B48240  14.308  26.721  17.430  0.4068  0.3016 -0.1024
 2199DPPE   NH348241  13.081  15.546  23.311 -0.0705  0.2268 -0.4046
 2199DPPE   PO448242  13.065  15.920  23.081  0.1084  0.0199 -0.2315
 2199DPPE   GL148243  12.917  15.715  22.663  0.0576 -0.2701  0.3234
 2199DPPE   GL248244  12.559  15.625  22.553 -0.2675  0.1796 -0.0312
 2199DPPE   C1A48245  12.982  15.541  22.276  0.0587 -0.1166  0.0151
 2199DPPE   C2A48246  13.038  15.381  21.961  0.0744 -0.1185 -0.1074
 2199DPPE   C3A48247  13.027  15.112  21.627 -0.1725  0.1725 -0.0305
 2199DPPE   C4A48248  13.087  14.775  21.386  0.0007  0.1248  0.0430
 2199DPPE   C1B48249  12.256  15.761  22.278  0.0203  0.0389  0.4394
 2199DPPE   C2B48250  12.216  15.916  21.895 -0.1370  0.3561 -0.0830
 2199DPPE   C3B48251  12.026  16.255  21.715  0.2469  0.0771 -0.0982
 2199DPPE   C4B48252  11.794  16.614  21.517 -0.1774 -0.0377 -0.2868
 2200DPPE   NH348253   6.378  25.711  17.556  0.1156 -0.0614  0.2761
 2200DPPE   PO448254   6.688  25.936  17.771  0.1163 -0.2133  0.0862
 2200DPPE   GL148255   7.142  25.871  17.766 -0.1542  0.1052 -0.2781
 2200DPPE   GL248256   7.279  25.897  17.460 -0.2362 -0.1010  0.1043
 2200DPPE   C1A48257   7.591  25.989  17.929 -0.1874 -0.1481  0.0526
 2200DPPE   C2A48258   8.087  26.068  17.906 -0.1865 -0.0093 -0.0787
 2200DPPE   C3A48259   8.503  26.253  17.923 -0.1026 -0.3368  0.2440
 2200DPPE   C4A48260   8.740  26.605  17.705 -0.0635 -0.0832 -0.1842
 2200DPPE   C1B48261   7.731  26.061  17.383  0.0517  0.0830 -0.2580
 2200DPPE   C2B48262   7.981  25.720  17.430 -0.1784 -0.3105  0.0796
 2200DPPE   C3B48263   8.256  25.373  17.468  0.0294 -0.2411 -0.2751
 2200DPPE   C4B48264   8.692  25.392  17.297 -0.0786  0.0994  0.3286
 2201DPPE   NH348265  16.679  12.617  22.560  0.0338 -0.2705  0.0212
 2201DPPE   PO448266  17.060  12.818  22.608  0.0196  0.1537  0.1488
 2201DPPE   GL148267  16.925  12.896  22.278 -0.2558  0.0315 -0.1787
 2201DPPE   GL248268  16.949  13.309  22.252 -0.2328  0.1476 -0.0872
 2201DPPE   C1A48269  16.678  13.027  21.921 -0.1827 -0.1097  0.1341
 2201DPPE   C2A48270  16.568  13.121  21.466  0.1355  0.0867 -0.0131
 2201DPPE   C3A48271  16.378  13.259  21.168  0.0894 -0.0795  0.3529
 2201DPPE   C4A48272  16.295  13.104  20.779 -0.1850  0.0513  0.3244
 2201DPPE   C1B48273  16.751  13.540  21.887  0.2774 -0.1066  0.3320
 2201DPPE   C2B48274  16.566  13.743  21.475  0.1198 -0.1229  0.0762
 2201DPPE   C3B48275  16.300  13.896  21.199 -0.0797 -0.2109  0.0536
 2201DPPE   C4B48276  16.287  14.047  20.822 -0.4290  0.0617 -0.0558
 2202DPPE   NH348277  20.135  13.625  22.700 -0.2985 -0.1753  0.0542
 2202DPPE   PO448278  19.817  13.475  22.323 -0.3018  0.1756  0.1601
 2202DPPE   GL148279  19.677  13.703  21.987 -0.1643 -0.3175  0.0732
 2202DPPE   GL248280  19.452  13.879  21.959  0.0695 -0.2027 -0.2054
 2202DPPE   C1A48281  19.867  13.721  21.576 -0.0091  0.2813 -0.1660
 2202DPPE   C2A48282  19.853  13.470  21.257 -0.3186 -0.0800 -0.0350
 2202DPPE   C3A48283  19.691  13.393  20.840  0.1302 -0.1743 -0.2171
 2202DPPE   C4A48284  19.631  13.089  20.433  0.3422 -0.0890  0.1577
 2202DPPE   C1B48285  19.421  14.006  21.565 -0.0792  0.2701 -0.3502
 2202DPPE   C2B48286  19.538  13.990  21.069 -0.3872 -0.2711 -0.0458
 2202DPPE   C3B48287  19.427  13.893  20.638  0.2151 -0.3806  0.1621
 2202DPPE   C4B48288  19.129  13.993  20.317 -0.0885 -0.3604 -0.1276
 2203DPPE   NH348289  14.120  21.456  22.718  0.0201  0.2327 -0.2995
 2203DPPE   PO448290  13.783  21.260  23.009 -0.1537  0.2041 -0.0737
 2203DPPE   GL148291  13.711  21.132  22.527 -0.0993 -0.1825  0.0195
 2203DPPE   GL248292  13.991  21.157  22.338  0.0394 -0.0911 -0.4423
 2203DPPE   C1A48293  13.824  20.761  22.233  0.3075  0.0059  0.2140
 2203DPPE   C2A48294  13.818  20.649  21.798  0.4544  0.1784 -0.1273
 2203DPPE   C3A48295  13.754  20.735  21.390  0.2074  0.1124 -0.0305
 2203DPPE   C4A48296  14.012  20.454  21.209  0.0093 -0.0902 -0.1404
 2203DPPE   C1B48297  14.310  20.992  22.066  0.0452  0.3739 -0.1931
 2203DPPE   C2B48298  14.359  20.741  21.708 -0.1333  0.0475  0.0117
 2203DPPE   C3B48299  14.582  20.416  21.492  0.1859 -0.2493 -0.2126
 2203DPPE   C4B48300  14.447  20.191  21.176  0.0516 -0.3377 -0.0078
 2204DPPE   NH348301  20.977   9.942  19.862  0.0154 -0.0989  0.0590
 2204DPPE   PO448302  20.684   9.945  19.440 -0.1554 -0.0996 -0.2194
 2204DPPE   GL148303  20.181   9.951  19.486 -0.0961  0.2722 -0.2920
 2204DPPE   GL248304  19.937   9.658  19.438 -0.2711  0.0701 -0.1036
 2204DPPE   C1A48305  19.875  10.104  19.700  0.0273  0.0796 -0.0009
 2204DPPE   C2A48306  19.642  10.435  19.537  0.0516 -0.2852 -0.0422
 2204DPPE   C3A48307  19.278  10.812  19.324 -0.0747 -0.4514 -0.0748
 2204DPPE   C4A48308  19.084  11.171  19.163  0.0162 -0.0626  0.1996
 2204DPPE   C1B48309  19.570   9.690  19.015  0.1525 -0.2877  0.1810
 2204DPPE   C2B48310  19.220   9.887  19.041 -0.3650 -0.0078  0.0776
 2204DPPE   C3B48311  19.015  10.068  18.697 -0.1180 -0.2470  0.0469
 2204DPPE   C4B48312  18.554  10.208  18.472  0.1122 -0.0899  0.2971
 2205DPPE   NH348313  17.278  17.494  23.270  0.2484  0.3074  0.0091
 2205DPPE   PO448314  17.375  16.993  23.373 -0.1664  0.0171  0.2524
 2205DPPE   GL148315  17.367  17.025  22.898  0.1100 -0.2088  0.0434
 2205DPPE   GL248316  17.638  17.175  22.797  0.1696  0.1215 -0.0782
 2205DPPE   C1A48317  17.280  17.049  22.418 -0.0742 -0.1079  0.0096
 2205DPPE   C2A48318  17.156  17.145  22.065  0.4594  0.1667  0.1411
 2205DPPE   C3A48319  17.261  17.261  21.632  0.1158  0.1282 -0.0844
 2205DPPE   C4A48320  17.080  17.583  21.431  0.0837 -0.4380 -0.0296
 2205DPPE   C1B48321  17.592  17.470  22.415 -0.3038  0.3771 -0.2948
 2205DPPE   C2B48322  17.396  17.532  22.000  0.0508 -0.1902 -0.0735
 2205DPPE   C3B48323  17.555  17.670  21.625 -0.0466  0.2774  0.3654
 2205DPPE   C4B48324  17.746  17.940  21.705  0.1154  0.1435  0.0134
 2206DPPE   NH348325  11.368  21.624  22.923 -0.3726 -0.4069  0.0817
 2206DPPE   PO448326  11.102  21.260  22.856  0.1550 -0.1299 -0.1600
 2206DPPE   GL148327  11.106  21.085  22.487  0.1170  0.2267  0.1500
 2206DPPE   GL248328  10.961  21.147  22.198 -0.2842 -0.3995  0.0251
 2206DPPE   C1A48329  11.258  20.747  22.303  0.0849  0.2414  0.2883
 2206DPPE   C2A48330  11.524  20.499  22.014 -0.0784  0.1611 -0.0374
 2206DPPE   C3A48331  11.805  20.216  21.799 -0.1227 -0.1728  0.2631
 2206DPPE   C4A48332  12.041  20.275  21.419 -0.4155  0.0198 -0.0770
 2206DPPE   C1B48333  10.887  21.127  21.840 -0.0954  0.0027  0.4586
 2206DPPE   C2B48334  10.764  21.085  21.468  0.4464  0.1853 -0.0832
 2206DPPE   C3B48335  10.715  21.319  21.084  0.2559  0.1655 -0.0575
 2206DPPE   C4B48336  10.840  21.698  20.810 -0.0212  0.1503 -0.1104
 2207DPPE   NH348337   4.917  12.552  19.518  0.1852 -0.3173  0.0052
 2207DPPE   PO448338   4.942  12.675  20.001 -0.0592  0.1394  0.2351
 2207DPPE   GL148339   5.438  12.523  20.118  0.2120  0.0627  0.1931
 2207DPPE   GL248340   5.468  12.182  20.164 -0.1609 -0.1237 -0.1353
 2207DPPE   C1A48341   5.931  12.504  20.222  0.1234  0.1388 -0.2491
 2207DPPE   C2A48342   6.159  12.833  20.190 -0.0642 -0.1003  0.1646
 2207DPPE   C3A48343   6.045  13.272  20.227  0.1572  0.0661  0.0428
 2207DPPE   C4A48344   5.781  13.592  20.347  0.3741  0.0322  0.0934
 2207DPPE   C1B48345   5.760  12.140  19.880  0.1250  0.0164  0.0292
 2207DPPE   C2B48346   5.931  12.220  19.416 -0.0355 -0.0649  0.4907
 2207DPPE   C3B48347   6.340  12.381  19.210 -0.0902 -0.0832 -0.0172
 2207DPPE   C4B48348   6.570  12.371  18.773  0.0644 -0.0512  0.2622
 2208DPPE   NH348349  20.412  23.996  15.812  0.2374  0.4814  0.3351
 2208DPPE   PO448350  20.234  24.321  15.622 -0.0464  0.0424 -0.1738
 2208DPPE   GL148351  20.272  24.471  16.064 -0.0519 -0.2539  0.2045
 2208DPPE   GL248352  20.609  24.638  16.192  0.3463 -0.1764  0.0394
 2208DPPE   C1A48353  20.084  24.589  16.498 -0.2095 -0.1837 -0.0690
 2208DPPE   C2A48354  19.799  24.695  16.848  0.0054  0.1047  0.1660
 2208DPPE   C3A48355  19.605  24.929  17.356 -0.1441 -0.0182 -0.2531
 2208DPPE   C4A48356  19.490  24.607  17.688  0.1903 -0.2877  0.2395
 2208DPPE   C1B48357  20.859  24.864  16.553  0.1733 -0.0043  0.1934
 2208DPPE   C2B48358  21.378  24.881  16.828 -0.3321 -0.2761  0.3967
 2208DPPE   C3B48359  21.745  25.096  16.859  0.0151 -0.0886 -0.2362
 2208DPPE   C4B48360  22.010  25.469  16.739  0.3522  0.2888  0.1099
 2209DPPE   NH348361   9.293  18.224  22.379  0.2472 -0.0549 -0.0430
 2209DPPE   PO448362   9.146  18.753  22.465 -0.1634 -0.0503  0.0914
 2209DPPE   GL148363   9.333  18.672  22.180  0.1484 -0.3703  0.0472
 2209DPPE   GL248364   9.311  18.968  22.023 -0.0039 -0.2173  0.0921
 2209DPPE   C1A48365   9.256  18.482  21.742  0.2653 -0.1138 -0.2203
 2209DPPE   C2A48366   9.191  18.431  21.235  0.0175 -0.0860 -0.0174
 2209DPPE   C3A48367   9.102  18.756  20.895 -0.1176  0.1749  0.0458
 2209DPPE   C4A48368   8.893  19.115  20.644  0.1375 -0.0864 -0.0412
 2209DPPE   C1B48369   9.275  19.029  21.610  0.2766 -0.2076  0.0149
 2209DPPE   C2B48370   9.016  19.062  21.233 -0.1420  0.0658  0.1232
 2209DPPE   C3B48371   8.552  19.224  21.175 -0.0181  0.2005 -0.0790
 2209DPPE   C4B48372   8.414  19.325  20.925  0.0378  0.0793 -0.4643
 2210DPPE   NH348373  18.277   6.860  19.274 -0.0736  0.0176  0.2465
 2210DPPE   PO448374  18.035   6.934  18.924 -0.1701  0.1275 -0.3893
 2210DPPE   GL148375  18.090   7.361  18.664 -0.1508 -0.0888 -0.0136
 2210DPPE   GL248376  17.962   7.621  18.889  0.0358  0.0371  0.2869
 2210DPPE   C1A48377  18.177   7.670  18.384 -0.3372  0.0080 -0.2142
 2210DPPE   C2A48378  17.968   8.023  18.075  0.0272 -0.0451  0.0566
 2210DPPE   C3A48379  17.768   8.468  18.081  0.0480  0.0338 -0.0703
 2210DPPE   C4A48380  17.704   8.928  18.169  0.1429 -0.1561 -0.2788
 2210DPPE   C1B48381  17.598   7.808  18.856  0.0392  0.0715  0.0646
 2210DPPE   C2B48382  17.313   8.157  18.848  0.0498  0.2938 -0.0364
 2210DPPE   C3B48383  17.114   8.417  18.851  0.0813 -0.2191  0.3271
 2210DPPE   C4B48384  16.930   8.743  19.281 -0.0811  0.0956  0.0930
 2211DPPE   NH348385  18.760  24.049  21.272 -0.4533 -0.1268 -0.0157
 2211DPPE   PO448386  18.855  24.400  20.922  0.1500  0.1166 -0.1097
 2211DPPE   GL148387  18.810  24.502  20.416  0.0214 -0.0842  0.1551
 2211DPPE   GL248388  19.040  24.390  20.162  0.0236 -0.1064 -0.0609
 2211DPPE   C1A48389  18.681  24.863  20.234 -0.0799  0.0720  0.0150
 2211DPPE   C2A48390  18.822  25.427  20.118 -0.1201 -0.0633 -0.1594
 2211DPPE   C3A48391  18.681  25.637  19.725 -0.0400 -0.0114 -0.0153
 2211DPPE   C4A48392  18.855  25.885  19.363 -0.0081 -0.0752  0.0054
 2211DPPE   C1B48393  19.041  24.631  19.785  0.1724  0.0824 -0.2419
 2211DPPE   C2B48394  19.378  24.695  19.461  0.1293  0.1379 -0.2717
 2211DPPE   C3B48395  19.402  24.953  19.238 -0.0762  0.0558  0.0228
 2211DPPE   C4B48396  19.329  25.011  18.837  0.1528 -0.1135 -0.1752
 2212DPPE   NH348397   8.885  15.618  22.178 -0.2041  0.0586  0.3680
 2212DPPE   PO448398   8.869  15.231  22.114  0.0595 -0.0167  0.0189
 2212DPPE   GL148399   8.928  15.463  21.750 -0.3047  0.2776  0.0320
 2212DPPE   GL248400   9.219  15.585  21.792  0.1597  0.0176  0.2203
 2212DPPE   C1A48401   8.956  15.555  21.343 -0.0144 -0.1241 -0.1086
 2212DPPE   C2A48402   8.942  15.831  21.047  0.0584 -0.3408  0.0723
 2212DPPE   C3A48403   8.795  15.844  20.605  0.0879 -0.0803  0.1636
 2212DPPE   C4A48404   8.764  15.855  20.178 -0.4479  0.1008 -0.3058
 2212DPPE   C1B48405   9.173  15.930  21.630 -0.0246  0.1264 -0.0262
 2212DPPE   C2B48406   9.171  16.257  21.306 -0.1179  0.0157  0.1159
 2212DPPE   C3B48407   9.150  16.208  20.859 -0.1525  0.0297 -0.0966
 2212DPPE   C4B48408   9.430  16.406  20.553  0.0600 -0.1048 -0.1295
 2213DPPE   NH348409  16.603   8.000  21.366  0.1014 -0.0626  0.1799
 2213DPPE   PO448410  16.358   8.243  21.267  0.1687 -0.2033 -0.3761
 2213DPPE   GL148411  16.031   8.385  21.125 -0.0296 -0.0172 -0.1650
 2213DPPE   GL248412  16.220   8.743  21.140  0.3524  0.0268  0.1910
 2213DPPE   C1A48413  15.943   8.427  20.720 -0.0076  0.2901 -0.1822
 2213DPPE   C2A48414  15.801   8.687  20.369 -0.0752  0.0588  0.2393
 2213DPPE   C3A48415  15.730   8.969  20.086  0.0234  0.0361 -0.2037
 2213DPPE   C4A48416  15.423   9.193  20.036  0.0056 -0.1569 -0.1054
 2213DPPE   C1B48417  16.121   9.054  20.783  0.2596  0.2279 -0.0794
 2213DPPE   C2B48418  15.704   9.188  20.555  0.2528 -0.2294  0.0031
 2213DPPE   C3B48419  15.254   8.942  20.554  0.4287 -0.1253 -0.5432
 2213DPPE   C4B48420  14.985   8.748  20.844 -0.2264 -0.0414  0.0034
 2214DPPE   NH348421  15.879   9.830  22.455 -0.2396  0.1182 -0.2271
 2214DPPE   PO448422  15.515   9.770  22.130  0.0979  0.1473 -0.1485
 2214DPPE   GL148423  15.184   9.874  21.833 -0.1651  0.0132  0.3810
 2214DPPE   GL248424  14.853   9.689  21.768  0.1385 -0.4032  0.4700
 2214DPPE   C1A48425  15.089   9.981  21.385 -0.2750 -0.3254  0.0006
 2214DPPE   C2A48426  14.850  10.251  21.149  0.0049  0.2147 -0.2163
 2214DPPE   C3A48427  14.537  10.258  20.859 -0.2051 -0.1484 -0.0790
 2214DPPE   C4A48428  14.205  10.502  20.693 -0.0046 -0.2702 -0.2726
 2214DPPE   C1B48429  14.601   9.922  21.418 -0.0186  0.1212 -0.1457
 2214DPPE   C2B48430  14.255  10.011  21.272 -0.1978  0.1081 -0.2951
 2214DPPE   C3B48431  14.030  10.055  20.799 -0.1224  0.1875 -0.0533
 2214DPPE   C4B48432  14.215   9.982  20.402  0.1778  0.3002  0.2074
 2215DPPE   NH348433  10.907  22.818  22.666  0.0864 -0.0868  0.0682
 2215DPPE   PO448434  10.871  22.408  22.626 -0.0415  0.0397  0.0688
 2215DPPE   GL148435  10.765  22.028  22.335 -0.0245  0.2750 -0.1199
 2215DPPE   GL248436  10.620  21.776  22.401  0.2315  0.0011 -0.2111
 2215DPPE   C1A48437  10.398  21.931  22.009  0.0410  0.2227  0.2263
 2215DPPE   C2A48438  10.389  22.004  21.608 -0.5360 -0.1086  0.2818
 2215DPPE   C3A48439  10.596  22.354  21.456 -0.0168 -0.2242 -0.0079
 2215DPPE   C4A48440  10.860  22.544  20.990  0.2276 -0.1671  0.1578
 2215DPPE   C1B48441  10.741  21.564  22.118  0.1251 -0.0708 -0.2223
 2215DPPE   C2B48442  10.598  21.547  21.616 -0.1304  0.0910 -0.0168
 2215DPPE   C3B48443  10.841  21.884  21.347 -0.1423 -0.0449 -0.1488
 2215DPPE   C4B48444  11.051  22.125  21.146  0.1747  0.1017  0.2127
 2216DPPE   NH348445  11.041  16.665  22.998  0.2868 -0.1474  0.2488
 2216DPPE   PO448446  10.710  16.809  22.902  0.2164 -0.3319 -0.0378
 2216DPPE   GL148447  10.879  16.490  22.559 -0.2089 -0.0598 -0.1679
 2216DPPE   GL248448  11.109  16.620  22.513 -0.1095  0.0913  0.0918
 2216DPPE   C1A48449  11.155  16.456  22.064 -0.2956  0.2126 -0.0095
 2216DPPE   C2A48450  11.348  16.828  21.742 -0.2146  0.1273 -0.0190
 2216DPPE   C3A48451  11.167  17.269  21.528 -0.1770  0.0502 -0.1155
 2216DPPE   C4A48452  10.881  17.303  21.145  0.0918 -0.4973 -0.3258
 2216DPPE   C1B48453  11.253  16.956  22.188  0.0702  0.1032  0.1672
 2216DPPE   C2B48454  11.374  17.338  22.029  0.0632 -0.2665 -0.0197
 2216DPPE   C3B48455  11.128  17.720  21.780  0.1809  0.0030  0.3830
 2216DPPE   C4B48456  11.000  17.814  21.332  0.1371  0.1882  0.1669
 2217DPPE   NH348457  12.508  18.035  23.134 -0.6513 -0.2418 -0.1259
 2217DPPE   PO448458  12.379  17.598  23.118 -0.1460  0.0788  0.1169
 2217DPPE   GL148459  12.689  17.750  22.802 -0.0508  0.1957  0.1214
 2217DPPE   GL248460  12.601  17.631  22.497 -0.1676 -0.0272  0.2500
 2217DPPE   C1A48461  12.798  18.058  22.528  0.1652 -0.3221 -0.1350
 2217DPPE   C2A48462  12.843  18.078  22.098  0.3236  0.0628 -0.0351
 2217DPPE   C3A48463  12.910  18.027  21.680 -0.1192  0.0075 -0.0571
 2217DPPE   C4A48464  12.907  17.841  21.254 -0.2315 -0.1938 -0.1673
 2217DPPE   C1B48465  12.758  17.439  22.073 -0.0587  0.1095 -0.2160
 2217DPPE   C2B48466  12.821  17.382  21.639 -0.1080 -0.0421  0.0436
 2217DPPE   C3B48467  12.936  17.265  21.207  0.2017 -0.0978 -0.1771
 2217DPPE   C4B48468  12.853  17.498  20.862 -0.1011  0.0228 -0.0881
 2218DPPE   NH348469  20.872  19.180  21.932  0.0764 -0.0655  0.0501
 2218DPPE   PO448470  20.520  19.546  21.941  0.2772  0.0304 -0.1509
 2218DPPE   GL148471  20.119  19.320  21.798  0.0322  0.0191  0.0528
 2218DPPE   GL248472  19.885  19.618  21.662 -0.0540 -0.1896  0.0452
 2218DPPE   C1A48473  19.774  19.077  21.679  0.2511 -0.1050 -0.1135
 2218DPPE   C2A48474  19.615  18.722  21.614 -0.1635  0.0665  0.2284
 2218DPPE   C3A48475  19.615  18.615  21.163  0.0870 -0.1746  0.1237
 2218DPPE   C4A48476  19.389  18.473  20.904 -0.0522  0.0116 -0.1625
 2218DPPE   C1B48477  19.724  19.520  21.291 -0.1538  0.3826  0.1728
 2218DPPE   C2B48478  19.434  19.346  21.474 -0.0569 -0.2120 -0.1525
 2218DPPE   C3B48479  19.218  19.052  21.656 -0.3369 -0.0887  0.2483
 2218DPPE   C4B48480  18.737  19.020  21.678  0.0726  0.2030  0.0937
 2219DPPE   NH348481  20.402   9.508  19.440 -0.0021  0.2913 -0.0183
 2219DPPE   PO448482  20.086   9.256  19.241  0.1559 -0.0177 -0.0785
 2219DPPE   GL148483  19.674   9.174  19.099 -0.1691 -0.2131  0.2143
 2219DPPE   GL248484  19.578   9.343  19.424 -0.1514  0.0587 -0.1711
 2219DPPE   C1A48485  19.231   9.257  19.012 -0.3831 -0.1002  0.1937
 2219DPPE   C2A48486  18.830   9.537  19.104 -0.0493  0.0205 -0.0107
 2219DPPE   C3A48487  18.461   9.569  19.068  0.1102 -0.0660  0.0647
 2219DPPE   C4A48488  18.056   9.574  18.827  0.3150  0.3294  0.0399
 2219DPPE   C1B48489  19.295   9.562  19.460 -0.0640  0.0116 -0.5033
 2219DPPE   C2B48490  18.942   9.837  19.449  0.2358 -0.0705 -0.1137
 2219DPPE   C3B48491  18.524  10.041  19.457 -0.1879  0.2767  0.0011
 2219DPPE   C4B48492  18.339  10.391  19.263 -0.0794  0.2311  0.1257
 2220DPPE   NH348493  16.210  13.878  23.225  0.3153 -0.1035  0.2041
 2220DPPE   PO448494  16.129  14.229  22.994  0.2793 -0.1478 -0.0668
 2220DPPE   GL148495  16.108  14.517  22.640 -0.1973  0.0684 -0.1151
 2220DPPE   GL248496  16.213  14.883  22.642  0.1472 -0.1545 -0.2389
 2220DPPE   C1A48497  16.377  14.636  22.243 -0.5029 -0.1287  0.0045
 2220DPPE   C2A48498  16.349  14.710  21.758 -0.1746 -0.2068  0.0373
 2220DPPE   C3A48499  16.399  15.026  21.453 -0.0967  0.1248  0.3202
 2220DPPE   C4A48500  16.455  14.975  21.092 -0.0123 -0.0189 -0.2397
 2220DPPE   C1B48501  15.949  14.775  22.265  0.2335  0.2218  0.0009
 2220DPPE   C2B48502  15.601  14.756  22.069  0.0046  0.2420  0.1305
 2220DPPE   C3B48503  15.295  14.921  21.699 -0.1600 -0.1620  0.1214
 2220DPPE   C4B48504  15.270  15.173  21.202 -0.0346 -0.0108 -0.1880
 2221DPPE   NH348505  14.915  22.946  22.280 -0.1790  0.0301 -0.4869
 2221DPPE   PO448506  14.616  22.629  22.453  0.1408  0.2610  0.1665
 2221DPPE   GL148507  14.268  22.528  22.115 -0.3089 -0.2647  0.0693
 2221DPPE   GL248508  14.212  22.311  22.151 -0.0754 -0.0561 -0.3331
 2221DPPE   C1A48509  13.967  22.582  21.730  0.0547  0.1569  0.0757
 2221DPPE   C2A48510  13.596  22.461  21.478  0.1604  0.0044  0.0648
 2221DPPE   C3A48511  13.253  22.321  21.195  0.2947  0.4442 -0.2500
 2221DPPE   C4A48512  12.830  22.196  20.813  0.0585  0.1176 -0.0736
 2221DPPE   C1B48513  14.181  21.999  21.905 -0.0774 -0.0282 -0.3629
 2221DPPE   C2B48514  14.170  21.742  21.514  0.0113  0.2480 -0.0131
 2221DPPE   C3B48515  14.310  21.496  21.220  0.1858  0.0513  0.2152
 2221DPPE   C4B48516  14.240  21.414  20.778 -0.1960 -0.0103 -0.2073
 2222DPPE   NH348517  17.450  28.232  19.008 -0.0774 -0.3605  0.0609
 2222DPPE   PO448518  17.601  28.140  18.554  0.1817 -0.2075 -0.1787
 2222DPPE   GL148519  17.438  27.687  18.456  0.1839 -0.0623 -0.1820
 2222DPPE   GL248520  17.628  27.354  18.575  0.2670  0.3072  0.4036
 2222DPPE   C1A48521  17.389  27.282  18.125  0.1317 -0.3318 -0.0838
 2222DPPE   C2A48522  17.466  27.066  17.723 -0.3415  0.4083 -0.2178
 2222DPPE   C3A48523  17.249  26.681  17.356 -0.2493  0.1149 -0.0599
 2222DPPE   C4A48524  17.284  26.276  17.322 -0.2810  0.3172  0.0027
 2222DPPE   C1B48525  17.757  27.032  18.423 -0.0137  0.2889  0.1114
 2222DPPE   C2B48526  17.574  26.735  18.247 -0.0766  0.0232 -0.0238
 2222DPPE   C3B48527  17.436  26.324  18.094 -0.1131  0.0031  0.1082
 2222DPPE   C4B48528  17.185  25.934  18.177 -0.0981 -0.1820 -0.1251
 2223DPPE   NH348529  11.971  22.968  22.374  0.0549  0.1084  0.2713
 2223DPPE   PO448530  12.252  23.302  22.353 -0.0960 -0.1358 -0.0205
 2223DPPE   GL148531  12.246  23.390  21.948  0.2493 -0.1199  0.2244
 2223DPPE   GL248532  12.146  23.794  21.763  0.2972 -0.2328  0.0429
 2223DPPE   C1A48533  11.883  23.462  21.542  0.0254  0.1096  0.4519
 2223DPPE   C2A48534  11.467  23.468  21.565 -0.2056  0.0797  0.1263
 2223DPPE   C3A48535  11.059  23.297  21.343 -0.1873  0.0472 -0.5040
 2223DPPE   C4A48536  10.745  23.545  21.166  0.0046  0.1134  0.0570
 2223DPPE   C1B48537  11.761  23.977  21.529 -0.0278  0.0259 -0.2262
 2223DPPE   C2B48538  11.327  23.958  21.258 -0.1835  0.0070 -0.3039
 2223DPPE   C3B48539  11.176  24.117  20.891  0.0860 -0.1538  0.1974
 2223DPPE   C4B48540  11.116  24.500  20.760 -0.0816  0.1739  0.1567
 2224DPPE   NH348541  13.088  18.490  23.132 -0.2772 -0.2354 -0.1060
 2224DPPE   PO448542  12.995  18.064  23.120  0.0041  0.2646  0.2808
 2224DPPE   GL148543  13.236  18.016  22.777  0.0819  0.1421  0.1777
 2224DPPE   GL248544  13.184  17.647  22.667 -0.0625 -0.1321 -0.4950
 2224DPPE   C1A48545  13.347  17.972  22.287  0.0221  0.2367  0.1504
 2224DPPE   C2A48546  13.529  18.208  21.902 -0.1579 -0.0164 -0.1986
 2224DPPE   C3A48547  13.332  18.340  21.481 -0.1393 -0.0822 -0.2254
 2224DPPE   C4A48548  12.867  18.487  21.445 -0.2481  0.1980 -0.0313
 2224DPPE   C1B48549  13.552  17.667  22.605 -0.0142 -0.1402 -0.4249
 2224DPPE   C2B48550  13.965  17.430  22.646 -0.1032 -0.0895  0.2181
 2224DPPE   C3B48551  14.146  17.127  22.324  0.0272 -0.2439 -0.1271
 2224DPPE   C4B48552  14.233  16.975  21.949  0.0602  0.0546 -0.0076
 2225DPPE   NH348553  14.853  14.601  23.093  0.0517 -0.0779  0.0695
 2225DPPE   PO448554  15.221  14.583  22.849 -0.1099 -0.2798  0.1269
 2225DPPE   GL148555  15.248  14.245  22.485  0.0596  0.1629  0.2687
 2225DPPE   GL248556  15.344  13.883  22.494 -0.0934 -0.1372 -0.3416
 2225DPPE   C1A48557  15.326  14.101  22.006  0.2550  0.2261  0.1304
 2225DPPE   C2A48558  15.300  14.078  21.523  0.3166 -0.3855 -0.1045
 2225DPPE   C3A48559  15.300  14.033  21.015  0.0490  0.0834 -0.1055
 2225DPPE   C4A48560  14.933  14.329  20.875 -0.0353 -0.1998  0.0977
 2225DPPE   C1B48561  15.477  13.636  22.196  0.1649  0.1237 -0.2892
 2225DPPE   C2B48562  15.251  13.530  21.753  0.2103  0.2322 -0.0254
 2225DPPE   C3B48563  15.033  13.735  21.259 -0.0658  0.1526 -0.1759
 2225DPPE   C4B48564  14.718  13.702  20.914  0.2488  0.2064  0.1714
 2226DPPE   NH348565  10.224  14.689  22.730  0.1507  0.1600  0.0318
 2226DPPE   PO448566  10.327  15.006  22.660  0.1687 -0.4999  0.1748
 2226DPPE   GL148567  10.748  15.225  22.445 -0.1436 -0.1070  0.0536
 2226DPPE   GL248568  11.121  15.100  22.335  0.2097 -0.0596 -0.0155
 2226DPPE   C1A48569  10.794  15.428  22.037  0.0149 -0.2796  0.1212
 2226DPPE   C2A48570  10.786  15.541  21.585 -0.0471 -0.2150 -0.2279
 2226DPPE   C3A48571  10.419  15.427  21.237 -0.0632  0.4606 -0.2571
 2226DPPE   C4A48572  10.084  15.826  21.070  0.0684  0.0421  0.0239
 2226DPPE   C1B48573  11.129  15.058  21.817 -0.0723 -0.0206  0.0387
 2226DPPE   C2B48574  11.405  14.871  21.564  0.4434  0.0245  0.0979
 2226DPPE   C3B48575  11.695  14.786  21.207  0.2432  0.1672 -0.0286
 2226DPPE   C4B48576  11.958  15.020  20.950  0.2996 -0.0226 -0.1171
 2227DPPE   NH348577  12.688   8.296  20.835 -0.1852  0.2012  0.2770
 2227DPPE   PO448578  12.404   8.584  21.144 -0.0228  0.2777 -0.1001
 2227DPPE   GL148579  12.749   8.840  21.200 -0.0477 -0.0545 -0.1098
 2227DPPE   GL248580  12.725   9.097  21.402 -0.1121  0.0210 -0.2985
 2227DPPE   C1A48581  12.745   9.241  20.923 -0.2510 -0.3320 -0.0581
 2227DPPE   C2A48582  12.856   9.686  20.901 -0.2192  0.2647  0.3659
 2227DPPE   C3A48583  12.657  10.017  20.793 -0.0177 -0.0240 -0.0088
 2227DPPE   C4A48584  12.433  10.362  20.692 -0.2236 -0.0677 -0.0834
 2227DPPE   C1B48585  12.639   9.521  21.378 -0.1240  0.0466  0.0522
 2227DPPE   C2B48586  12.329   9.801  21.210 -0.2408 -0.2794  0.1246
 2227DPPE   C3B48587  12.194   9.977  20.786 -0.1109  0.2290 -0.1121
 2227DPPE   C4B48588  12.010  10.126  20.393 -0.0211 -0.2009 -0.1410
 2228DPPE   NH348589  13.421  25.528  22.058 -0.4217 -0.4420 -0.0250
 2228DPPE   PO448590  13.348  25.157  21.889  0.0659 -0.1475 -0.1886
 2228DPPE   GL148591  13.257  24.953  21.482 -0.2280 -0.1655 -0.1834
 2228DPPE   GL248592  13.057  25.087  21.345  0.1728 -0.0428 -0.0365
 2228DPPE   C1A48593  13.546  24.846  21.205 -0.5347  0.1829 -0.1524
 2228DPPE   C2A48594  13.799  24.875  20.858 -0.0182 -0.0243 -0.1057
 2228DPPE   C3A48595  14.134  24.882  20.610  0.4042 -0.1054  0.1170
 2228DPPE   C4A48596  14.554  25.039  20.447  0.2106 -0.2210 -0.1118
 2228DPPE   C1B48597  12.942  24.843  20.965  0.1256 -0.0668 -0.3505
 2228DPPE   C2B48598  12.722  24.877  20.603  0.0335  0.0063 -0.2052
 2228DPPE   C3B48599  12.935  24.966  20.219 -0.1031  0.0594 -0.4200
 2228DPPE   C4B48600  13.179  24.562  20.001  0.0319 -0.0848 -0.1886
 2229DPPE   NH348601  18.595  13.743  22.550 -0.2696  0.0391  0.2118
 2229DPPE   PO448602  18.117  13.684  22.565 -0.2394 -0.1946  0.3603
 2229DPPE   GL148603  17.785  13.602  22.344 -0.0771 -0.1771 -0.0577
 2229DPPE   GL248604  17.407  13.642  22.358 -0.1965 -0.0499  0.3495
 2229DPPE   C1A48605  17.668  13.874  21.982 -0.0313  0.1457 -0.2776
 2229DPPE   C2A48606  17.898  14.100  21.672  0.3036 -0.2256 -0.3511
 2229DPPE   C3A48607  17.997  14.198  21.219 -0.0065 -0.1568  0.0387
 2229DPPE   C4A48608  17.997  14.262  20.851  0.2529 -0.0556 -0.0345
 2229DPPE   C1B48609  17.348  13.456  21.900 -0.2260  0.2150 -0.0353
 2229DPPE   C2B48610  17.153  13.449  21.469 -0.1788 -0.1070 -0.1513
 2229DPPE   C3B48611  16.907  13.658  21.147 -0.0245 -0.1695  0.0438
 2229DPPE   C4B48612  16.631  13.689  20.852  0.1182  0.0522 -0.1661
 2230DPPE   NH348613  13.403  14.077  23.038  0.3134  0.0217  0.0363
 2230DPPE   PO448614  13.111  14.338  23.023 -0.0819 -0.4438 -0.1442
 2230DPPE   GL148615  13.110  14.292  22.559  0.1928 -0.1512 -0.3177
 2230DPPE   GL248616  12.926  14.615  22.397  0.0016  0.0443 -0.0652
 2230DPPE   C1A48617  13.355  14.459  22.177  0.0299  0.0579  0.5013
 2230DPPE   C2A48618  13.487  14.843  21.815  0.2535 -0.0778 -0.2350
 2230DPPE   C3A48619  13.472  15.190  21.420 -0.1743  0.3079 -0.1303
 2230DPPE   C4A48620  13.484  15.254  20.996 -0.0832  0.0513  0.2624
 2230DPPE   C1B48621  12.981  14.651  21.898  0.0979 -0.1204 -0.2095
 2230DPPE   C2B48622  13.141  14.389  21.680  0.2561  0.2530 -0.0335
 2230DPPE   C3B48623  13.373  14.172  21.542  0.0893  0.0159  0.2727
 2230DPPE   C4B48624  13.465  14.099  21.142  0.0317 -0.0558  0.0808
 2231DPPE   NH348625  20.000  18.360  22.531  0.0311 -0.0330  0.1911
 2231DPPE   PO448626  19.898  18.694  22.672 -0.1679  0.2096 -0.2109
 2231DPPE   GL148627  19.597  18.766  22.409 -0.0234 -0.2273  0.0447
 2231DPPE   GL248628  19.341  19.012  22.389  0.2380 -0.0092 -0.1316
 2231DPPE   C1A48629  19.414  18.527  22.134 -0.4660  0.0906  0.0646
 2231DPPE   C2A48630  19.342  18.316  21.843 -0.2380 -0.0015  0.2176
 2231DPPE   C3A48631  19.182  18.127  21.519 -0.0164 -0.3898  0.0436
 2231DPPE   C4A48632  19.081  18.089  21.081 -0.1020 -0.2957  0.0537
 2231DPPE   C1B48633  19.046  18.581  22.501  0.1305 -0.1433  0.1633
 2231DPPE   C2B48634  18.613  18.371  22.615 -0.1229 -0.0315  0.0504
 2231DPPE   C3B48635  18.445  18.185  22.344  0.4492  0.1276 -0.0851
 2231DPPE   C4B48636  18.475  17.664  22.069  0.0393  0.0217 -0.0624
 2232DPPE   NH348637  15.360  23.690  22.132  0.0427 -0.3040 -0.0117
 2232DPPE   PO448638  15.059  23.367  22.094 -0.0238 -0.0679  0.2594
 2232DPPE   GL148639  15.247  23.151  21.862 -0.2317  0.1080 -0.1991
 2232DPPE   GL248640  15.580  23.300  21.711  0.0314 -0.1295 -0.1649
 2232DPPE   C1A48641  15.141  23.091  21.366 -0.1821 -0.2586 -0.2175
 2232DPPE   C2A48642  14.974  22.929  20.980 -0.0501 -0.0639 -0.1118
 2232DPPE   C3A48643  15.024  23.139  20.593  0.1776 -0.1270 -0.1565
 2232DPPE   C4A48644  14.882  23.102  20.152 -0.1446 -0.3703  0.1400
 2232DPPE   C1B48645  15.688  22.845  21.909  0.1404  0.0102 -0.1117
 2232DPPE   C2B48646  15.741  22.298  21.957  0.2417  0.2762  0.4319
 2232DPPE   C3B48647  15.600  21.844  21.977 -0.0272 -0.1405 -0.2282
 2232DPPE   C4B48648  15.124  21.639  21.823  0.0905 -0.0437  0.2411
 2233DPPE   NH348649  12.136  19.691  22.857  0.0954 -0.0324 -0.0468
 2233DPPE   PO448650  12.475  19.642  23.197 -0.1421 -0.1682 -0.1808
 2233DPPE   GL148651  12.791  19.770  22.769 -0.1847 -0.0899 -0.0189
 2233DPPE   GL248652  12.799  20.052  22.671 -0.2615  0.2204  0.1312
 2233DPPE   C1A48653  12.765  19.694  22.297  0.0672 -0.0702 -0.1858
 2233DPPE   C2A48654  12.826  19.979  21.896 -0.0633  0.0263  0.1468
 2233DPPE   C3A48655  13.004  20.091  21.448 -0.3102 -0.3508 -0.2236
 2233DPPE   C4A48656  12.993  19.986  21.112  0.1557  0.3232 -0.0786
 2233DPPE   C1B48657  12.931  20.254  22.311  0.0865 -0.1625  0.2582
 2233DPPE   C2B48658  12.842  20.562  22.004  0.1302  0.0436 -0.0301
 2233DPPE   C3B48659  12.840  20.701  21.597 -0.0299 -0.5098 -0.1325
 2233DPPE   C4B48660  12.612  20.529  21.319 -0.0122  0.0143  0.0464
 2234DPPE   NH348661  16.102  16.420  23.312  0.0263  0.1460 -0.1927
 2234DPPE   PO448662  16.262  16.105  23.183 -0.0160  0.0217 -0.0028
 2234DPPE   GL148663  15.903  15.944  22.917 -0.0967 -0.2373  0.1610
 2234DPPE   GL248664  15.598  16.138  22.888 -0.1219 -0.0042 -0.2878
 2234DPPE   C1A48665  15.761  15.799  22.413  0.0025  0.1195  0.1189
 2234DPPE   C2A48666  15.811  15.707  21.971 -0.0694 -0.2793  0.0625
 2234DPPE   C3A48667  16.125  15.521  21.793 -0.4250 -0.0709  0.0286
 2234DPPE   C4A48668  16.332  15.201  21.903  0.3049 -0.3246 -0.0815
 2234DPPE   C1B48669  15.568  16.380  22.470 -0.0021  0.0899  0.0637
 2234DPPE   C2B48670  15.496  16.150  22.012  0.2555  0.1271  0.1416
 2234DPPE   C3B48671  15.400  16.122  21.550  0.0407 -0.2917  0.0277
 2234DPPE   C4B48672  15.612  16.217  21.206 -0.4584  0.3502 -0.1216
 2235DPPE   NH348673  16.957   7.666  20.636 -0.0905 -0.0837 -0.2200
 2235DPPE   PO448674  17.145   7.768  20.169 -0.0118 -0.0038  0.1124
 2235DPPE   GL148675  16.892   8.006  19.960 -0.1158  0.2783 -0.0107
 2235DPPE   GL248676  16.605   7.871  20.141  0.0030 -0.6375 -0.0522
 2235DPPE   C1A48677  16.744   8.366  20.071  0.1580 -0.4236  0.1643
 2235DPPE   C2A48678  16.510   8.419  20.411 -0.2008 -0.0598  0.1848
 2235DPPE   C3A48679  16.293   8.662  20.458  0.1779  0.0896  0.0932
 2235DPPE   C4A48680  16.132   9.036  20.321 -0.1312 -0.1210 -0.0663
 2235DPPE   C1B48681  16.147   8.058  20.234  0.3257  0.0487 -0.0988
 2235DPPE   C2B48682  15.758   8.305  20.064  0.1825  0.1065 -0.0575
 2235DPPE   C3B48683  15.372   8.270  19.773 -0.5095  0.1458 -0.0722
 2235DPPE   C4B48684  15.054   8.300  19.542  0.0476  0.0699  0.3974
 2236DPPE   NH348685  13.329  23.602  22.260  0.2917 -0.1401  0.0166
 2236DPPE   PO448686  13.566  23.806  22.133  0.1437  0.0819  0.0031
 2236DPPE   GL148687  13.830  23.803  21.735  0.1529 -0.2366  0.0209
 2236DPPE   GL248688  13.909  24.009  21.637 -0.1411 -0.3767  0.1456
 2236DPPE   C1A48689  13.600  23.671  21.362 -0.3050  0.1780 -0.0542
 2236DPPE   C2A48690  13.344  23.786  20.972 -0.0480 -0.0348  0.0888
 2236DPPE   C3A48691  13.108  23.838  20.661 -0.4450  0.0501  0.1694
 2236DPPE   C4A48692  12.642  23.881  20.529 -0.1608 -0.0679 -0.2319
 2236DPPE   C1B48693  13.816  24.085  21.190  0.1569  0.0706  0.4432
 2236DPPE   C2B48694  14.016  24.322  20.844  0.3177  0.3138  0.2308
 2236DPPE   C3B48695  13.890  24.457  20.497  0.4047 -0.3307 -0.3756
 2236DPPE   C4B48696  13.739  24.682  20.166 -0.2778  0.0071 -0.1538
 2237DPPE   NH348697  21.259  23.879  17.290 -0.2883 -0.1493  0.5581
 2237DPPE   PO448698  20.807  23.777  17.427  0.0930 -0.0712 -0.3049
 2237DPPE   GL148699  20.604  24.090  17.343 -0.0338 -0.1417 -0.5375
 2237DPPE   GL248700  20.582  24.316  17.632  0.0185 -0.3388  0.0761
 2237DPPE   C1A48701  20.640  24.531  17.187  0.2056 -0.0764 -0.3155
 2237DPPE   C2A48702  20.920  24.976  17.094 -0.0564  0.0856 -0.0970
 2237DPPE   C3A48703  21.199  25.194  17.397 -0.2619  0.2261  0.2149
 2237DPPE   C4A48704  21.575  25.291  17.678  0.2815 -0.0756  0.0223
 2237DPPE   C1B48705  20.401  24.763  17.837  0.2361 -0.0179 -0.1883
 2237DPPE   C2B48706  20.334  25.223  17.784  0.1503  0.1516  0.0717
 2237DPPE   C3B48707  20.509  25.568  17.908 -0.0992 -0.1553 -0.1751
 2237DPPE   C4B48708  20.464  25.878  18.325 -0.0144 -0.3073  0.0303
 2238DPPE   NH348709  11.850  11.207  22.149 -0.0799 -0.1556 -0.3219
 2238DPPE   PO448710  11.879  10.705  22.037 -0.1689 -0.1248 -0.1044
 2238DPPE   GL148711  11.500  10.822  21.914 -0.1905  0.0473 -0.0276
 2238DPPE   GL248712  11.172  10.580  21.985 -0.0324  0.0443  0.3382
 2238DPPE   C1A48713  11.379  11.081  21.598 -0.1144  0.1366 -0.3522
 2238DPPE   C2A48714  11.624  11.403  21.304 -0.3060  0.0095 -0.0793
 2238DPPE   C3A48715  11.707  11.448  20.873  0.2124  0.0866 -0.1091
 2238DPPE   C4A48716  11.918  11.457  20.513 -0.0517  0.0286  0.1278
 2238DPPE   C1B48717  10.933  10.780  21.673  0.0657 -0.2269  0.1062
 2238DPPE   C2B48718  10.828  11.033  21.252  0.4161 -0.3592 -0.3163
 2238DPPE   C3B48719  10.779  10.985  20.881  0.3878 -0.3273  0.1936
 2238DPPE   C4B48720  10.794  11.033  20.497  0.3194 -0.0536  0.1287
 2239DPPE   NH348721  19.246   8.438  17.857 -0.3777 -0.0423 -0.1798
 2239DPPE   PO448722  19.418   8.740  17.565 -0.3482 -0.3569  0.0888
 2239DPPE   GL148723  19.071   8.876  17.795  0.4666 -0.2753 -0.1066
 2239DPPE   GL248724  19.169   9.185  18.046  0.0586  0.0342  0.0520
 2239DPPE   C1A48725  18.708   9.081  18.013 -0.1774 -0.0714 -0.2082
 2239DPPE   C2A48726  18.518   9.242  18.344  0.3770 -0.4167  0.0148
 2239DPPE   C3A48727  18.261   9.093  18.692  0.0635 -0.1278  0.1061
 2239DPPE   C4A48728  18.161   9.207  19.194 -0.0887  0.0441  0.0535
 2239DPPE   C1B48729  19.266   9.093  18.512  0.1670 -0.1969  0.1061
 2239DPPE   C2B48730  18.966   8.888  18.706 -0.0439  0.2191  0.1285
 2239DPPE   C3B48731  18.647   9.017  19.002  0.0170 -0.4139 -0.0067
 2239DPPE   C4B48732  18.598   9.222  19.446  0.0022 -0.0418  0.2438
 2240DPPE   NH348733  12.327  25.607  22.413 -0.2269 -0.1235 -0.2471
 2240DPPE   PO448734  12.564  25.396  22.065 -0.2860  0.2211 -0.1533
 2240DPPE   GL148735  12.244  25.266  21.848  0.0081  0.0176  0.0171
 2240DPPE   GL248736  12.420  25.238  21.572 -0.5748  0.0624 -0.1135
 2240DPPE   C1A48737  11.828  25.389  21.657  0.5213  0.3064  0.1938
 2240DPPE   C2A48738  11.493  25.447  21.346 -0.0205 -0.1871  0.3413
 2240DPPE   C3A48739  11.248  25.682  20.888 -0.0898  0.3551  0.0858
 2240DPPE   C4A48740  11.002  26.035  20.712 -0.0565 -0.1562 -0.0174
 2240DPPE   C1B48741  12.171  24.954  21.433  0.0253 -0.0868  0.0295
 2240DPPE   C2B48742  11.726  24.921  21.358 -0.1534 -0.1304  0.1760
 2240DPPE   C3B48743  11.351  25.019  21.149  0.2159  0.1716 -0.2390
 2240DPPE   C4B48744  11.344  24.980  20.712 -0.0614  0.4880  0.1819
 2241DPPE   NH348745  17.182  11.708  22.390  0.2219  0.2476  0.1684
 2241DPPE   PO448746  17.038  11.348  22.542 -0.0488  0.2399 -0.0866
 2241DPPE   GL148747  16.665  11.310  22.168  0.0314 -0.2791 -0.0304
 2241DPPE   GL248748  16.691  11.107  21.924 -0.0584  0.3732 -0.0060
 2241DPPE   C1A48749  16.389  11.615  21.942  0.3193 -0.0609 -0.1769
 2241DPPE   C2A48750  16.023  11.781  21.752 -0.2503  0.0404 -0.0581
 2241DPPE   C3A48751  15.808  12.146  21.674  0.0066  0.1849  0.3159
 2241DPPE   C4A48752  15.396  12.349  21.650  0.0129 -0.1708  0.1378
 2241DPPE   C1B48753  16.873  11.542  21.696 -0.1735  0.2056  0.0928
 2241DPPE   C2B48754  17.223  11.789  21.402  0.1064  0.3511  0.1489
 2241DPPE   C3B48755  17.146  11.734  20.904  0.0545  0.1386  0.0508
 2241DPPE   C4B48756  17.138  11.737  20.466  0.1792 -0.5251 -0.0430
 2242DPPE   NH348757  17.735  26.982  20.187  0.2834  0.1508 -0.1660
 2242DPPE   PO448758  17.556  27.136  19.767  0.2761 -0.1872  0.1549
 2242DPPE   GL148759  17.444  26.742  19.484  0.0392 -0.0603 -0.0099
 2242DPPE   GL248760  17.539  26.797  19.200 -0.1991  0.0982  0.0993
 2242DPPE   C1A48761  17.373  26.311  19.281 -0.0713 -0.1479  0.0212
 2242DPPE   C2A48762  17.382  25.866  19.192  0.0813 -0.0730 -0.1681
 2242DPPE   C3A48763  17.507  25.525  19.068 -0.1992 -0.0726 -0.2949
 2242DPPE   C4A48764  17.601  25.186  19.191  0.1168  0.0924 -0.2629
 2242DPPE   C1B48765  17.658  26.593  18.768 -0.0860  0.0948 -0.0923
 2242DPPE   C2B48766  17.777  26.286  18.490 -0.0024  0.2145  0.3868
 2242DPPE   C3B48767  17.886  25.991  18.285  0.1313  0.0056  0.0321
 2242DPPE   C4B48768  17.866  25.528  18.335 -0.0012  0.1839 -0.0207
 2243DPPE   NH348769  18.393  17.186  23.484 -0.1987 -0.1115  0.0577
 2243DPPE   PO448770  18.377  16.762  23.349  0.1307 -0.0225 -0.2028
 2243DPPE   GL148771  18.362  16.827  22.888 -0.0390 -0.1734  0.3378
 2243DPPE   GL248772  18.029  16.846  22.781 -0.2373 -0.1697 -0.2179
 2243DPPE   C1A48773  18.585  17.250  22.646 -0.1763  0.1512  0.2039
 2243DPPE   C2A48774  18.607  17.625  22.543  0.1391  0.0772  0.0480
 2243DPPE   C3A48775  18.838  17.918  22.378  0.2557  0.0157  0.0049
 2243DPPE   C4A48776  18.923  18.251  22.115 -0.0007  0.0566  0.4563
 2243DPPE   C1B48777  17.734  16.874  22.443 -0.5571 -0.2201  0.2074
 2243DPPE   C2B48778  17.623  16.820  21.961  0.0282 -0.0180  0.2677
 2243DPPE   C3B48779  17.711  17.019  21.609  0.0010  0.0013  0.1048
 2243DPPE   C4B48780  17.967  17.282  21.335  0.0663  0.1346 -0.2712
 2244DPPE   NH348781  11.679  23.345  22.498 -0.6394 -0.3319  0.0116
 2244DPPE   PO448782  11.478  22.934  22.409  0.0662  0.0468  0.0064
 2244DPPE   GL148783  11.468  22.971  22.060 -0.0797  0.0133 -0.1319
 2244DPPE   GL248784  11.623  23.140  21.967 -0.4307  0.3295 -0.1196
 2244DPPE   C1A48785  11.168  23.117  21.792 -0.1240 -0.0898 -0.0363
 2244DPPE   C2A48786  10.733  23.347  21.735  0.0418 -0.1633 -0.1412
 2244DPPE   C3A48787  10.417  23.279  21.417 -0.2546  0.1150 -0.0365
 2244DPPE   C4A48788  10.103  23.130  21.115  0.1445 -0.1941 -0.1111
 2244DPPE   C1B48789  12.055  22.985  21.726 -0.2433  0.0889  0.2641
 2244DPPE   C2B48790  12.229  22.952  21.355  0.0651 -0.2285 -0.0725
 2244DPPE   C3B48791  12.415  22.977  20.950  0.3073 -0.0014 -0.1823
 2244DPPE   C4B48792  12.590  23.256  20.523  0.0936 -0.0307  0.4917
 2245DPPE   NH348793  11.534  12.798  22.773  0.2688 -0.0614 -0.0945
 2245DPPE   PO448794  11.723  13.144  22.546  0.2051  0.1635  0.1036
 2245DPPE   GL148795  11.564  13.452  22.240 -0.1879 -0.1444  0.1354
 2245DPPE   GL248796  11.336  13.719  22.219  0.3930 -0.0398  0.1687
 2245DPPE   C1A48797  11.706  13.498  21.806  0.0335 -0.1250  0.4139
 2245DPPE   C2A48798  11.808  13.684  21.335 -0.2477 -0.0876 -0.2527
 2245DPPE   C3A48799  12.152  13.679  21.111  0.2533 -0.1589 -0.0288
 2245DPPE   C4A48800  12.175  13.448  20.774  0.6308  0.0129 -0.1225
 2245DPPE   C1B48801  10.925  13.854  21.953  0.1381 -0.1606  0.3396
 2245DPPE   C2B48802  10.457  13.845  21.582 -0.2371 -0.0207  0.2396
 2245DPPE   C3B48803  10.288  13.733  21.149  0.0332  0.1189  0.1356
 2245DPPE   C4B48804  10.241  13.458  20.867  0.0408 -0.1740  0.0730
 2246DPPE   NH348805  14.228  19.895  23.310 -0.2222  0.1646 -0.1356
 2246DPPE   PO448806  14.625  20.157  23.176  0.0968  0.1905 -0.1915
 2246DPPE   GL148807  14.782  19.973  22.816 -0.0215  0.4072  0.0287
 2246DPPE   GL248808  15.164  20.092  22.729  0.0446 -0.0709  0.1127
 2246DPPE   C1A48809  14.946  19.831  22.388 -0.0039 -0.1761 -0.3500
 2246DPPE   C2A48810  14.712  19.640  22.096 -0.1026  0.0409 -0.2502
 2246DPPE   C3A48811  14.746  19.387  21.771  0.1708 -0.0916  0.1009
 2246DPPE   C4A48812  15.123  19.207  21.614 -0.0546  0.1418 -0.0130
 2246DPPE   C1B48813  15.317  20.312  22.335 -0.0890 -0.2921  0.1393
 2246DPPE   C2B48814  15.188  20.519  21.949 -0.1265  0.1113 -0.1538
 2246DPPE   C3B48815  15.147  20.467  21.604  0.3920  0.3515 -0.0546
 2246DPPE   C4B48816  14.973  20.140  21.333  0.2201  0.1650  0.2782
 2247DPPE   NH348817  13.149  13.430  22.900 -0.1108  0.0641  0.0186
 2247DPPE   PO448818  13.498  13.258  22.949 -0.3104 -0.2107 -0.1082
 2247DPPE   GL148819  13.316  13.122  22.523  0.2630  0.0976  0.0481
 2247DPPE   GL248820  13.557  13.017  22.262  0.0288 -0.1551  0.1808
 2247DPPE   C1A48821  13.114  12.936  22.027  0.0993  0.3356  0.1661
 2247DPPE   C2A48822  13.133  12.725  21.676  0.1289  0.1300  0.0660
 2247DPPE   C3A48823  13.016  12.799  21.290 -0.0078 -0.0096 -0.2023
 2247DPPE   C4A48824  12.767  12.869  20.938 -0.0475 -0.0653  0.0762
 2247DPPE   C1B48825  13.572  13.067  21.859 -0.0208  0.1756  0.0879
 2247DPPE   C2B48826  13.424  13.112  21.439  0.1456 -0.0516 -0.0334
 2247DPPE   C3B48827  13.397  13.125  21.039 -0.2579  0.1292 -0.0574
 2247DPPE   C4B48828  13.228  13.277  20.583  0.0867  0.0394 -0.2075
 2248DPPE   NH348829  14.310  14.429  22.866  0.0340 -0.2920 -0.2847
 2248DPPE   PO448830  13.909  14.546  22.902 -0.0576 -0.1184 -0.0565
 2248DPPE   GL148831  13.680  14.347  22.657  0.1642  0.0957  0.0559
 2248DPPE   GL248832  13.561  14.143  22.567 -0.2016  0.0536  0.0025
 2248DPPE   C1A48833  13.831  14.343  22.162  0.1425  0.0399 -0.1254
 2248DPPE   C2A48834  13.798  14.506  21.692  0.0345  0.6302  0.1755
 2248DPPE   C3A48835  13.540  14.586  21.360  0.0286  0.0968 -0.1636
 2248DPPE   C4A48836  13.295  14.541  21.017  0.2948  0.0946  0.1407
 2248DPPE   C1B48837  13.503  13.904  22.180  0.0597  0.0411  0.0711
 2248DPPE   C2B48838  13.703  13.959  21.858  0.0724  0.2367 -0.0668
 2248DPPE   C3B48839  13.895  13.945  21.492  0.0085 -0.2052 -0.2050
 2248DPPE   C4B48840  13.885  13.891  20.992  0.3662 -0.3283  0.0955
 2249DPPE   NH348841   3.265  20.802  20.034 -0.1793  0.0853 -0.0319
 2249DPPE   PO448842   3.500  21.188  20.003  0.2056  0.3071  0.1648
 2249DPPE   GL148843   3.783  21.016  19.804 -0.0467 -0.1122 -0.0377
 2249DPPE   GL248844   3.811  20.701  19.797 -0.3376 -0.0653  0.2752
 2249DPPE   C1A48845   4.226  20.880  19.493  0.0288 -0.2263  0.0890
 2249DPPE   C2A48846   4.577  20.495  19.457 -0.1726 -0.0931 -0.1333
 2249DPPE   C3A48847   5.034  20.493  19.296  0.1768  0.1245 -0.2233
 2249DPPE   C4A48848   5.232  20.257  18.981  0.4384 -0.1745  0.2124
 2249DPPE   C1B48849   4.218  20.548  19.979  0.1582  0.3236 -0.1941
 2249DPPE   C2B48850   4.432  20.527  20.356 -0.3669  0.5157 -0.0129
 2249DPPE   C3B48851   4.747  20.579  20.761  0.1147  0.1019  0.1541
 2249DPPE   C4B48852   4.949  20.219  20.866 -0.0597 -0.1849 -0.0708
 2250DPPE   NH348853  20.121  21.518  21.243  0.0532 -0.2497  0.0602
 2250DPPE   PO448854  20.366  21.211  21.030 -0.0557 -0.2151  0.0316
 2250DPPE   GL148855  19.982  21.228  20.788 -0.4675 -0.0352  0.3359
 2250DPPE   GL248856  19.771  21.531  20.698 -0.0110  0.1765  0.1100
 2250DPPE   C1A48857  19.513  21.174  20.922 -0.0402  0.3507  0.2222
 2250DPPE   C2A48858  19.062  21.022  20.797 -0.2329  0.4510  0.0582
 2250DPPE   C3A48859  19.050  21.073  20.428 -0.1983 -0.0711  0.3841
 2250DPPE   C4A48860  18.668  21.128  20.187 -0.0246  0.0230  0.0395
 2250DPPE   C1B48861  19.829  21.946  20.370  0.1713 -0.2055  0.3815
 2250DPPE   C2B48862  19.881  22.106  20.012 -0.0005  0.0346  0.1617
 2250DPPE   C3B48863  20.131  22.218  19.717 -0.0247  0.1673 -0.0053
 2250DPPE   C4B48864  20.120  22.633  19.546 -0.1913  0.0001  0.0579
 2251DPPE   NH348865  19.168   7.728  17.714 -0.2539  0.1155  0.2576
 2251DPPE   PO448866  18.746   7.667  17.702 -0.1392  0.1065 -0.1646
 2251DPPE   GL148867  18.334   7.798  17.630  0.1387 -0.1131 -0.3742
 2251DPPE   GL248868  18.020   7.538  17.543  0.1481 -0.3423 -0.0230
 2251DPPE   C1A48869  18.092   8.172  17.623  0.3322  0.1450 -0.2033
 2251DPPE   C2A48870  17.551   8.286  17.600  0.1383  0.2521  0.0979
 2251DPPE   C3A48871  17.101   8.260  17.873  0.1264 -0.0495  0.0381
 2251DPPE   C4A48872  16.817   7.877  18.125 -0.1012  0.0382  0.2290
 2251DPPE   C1B48873  17.705   7.822  17.708 -0.0254  0.2630 -0.1473
 2251DPPE   C2B48874  17.478   7.958  18.001 -0.1000  0.0067  0.1652
 2251DPPE   C3B48875  17.522   7.657  18.357 -0.3860  0.0372  0.0703
 2251DPPE   C4B48876  17.303   7.295  18.677 -0.1090 -0.0027  0.1877
 2252DPPE   NH348877  14.298  13.474  22.871  0.0243  0.1019 -0.1195
 2252DPPE   PO448878  14.488  13.895  22.928  0.0381 -0.0665  0.3116
 2252DPPE   GL148879  14.325  13.861  22.486 -0.2342  0.2962  0.3443
 2252DPPE   GL248880  14.085  13.577  22.474  0.1675 -0.2165  0.4804
 2252DPPE   C1A48881  14.256  14.091  22.082  0.2184  0.0568 -0.0541
 2252DPPE   C2A48882  14.211  14.275  21.691  0.2491 -0.2734 -0.1214
 2252DPPE   C3A48883  14.012  14.340  21.214  0.2046  0.0235  0.0239
 2252DPPE   C4A48884  13.761  14.394  20.807 -0.0609 -0.3076 -0.1038
 2252DPPE   C1B48885  13.897  13.464  22.045 -0.1369  0.1189  0.0165
 2252DPPE   C2B48886  13.930  13.238  21.568 -0.1026 -0.2610  0.2399
 2252DPPE   C3B48887  13.895  13.027  21.227 -0.0571 -0.2397  0.3846
 2252DPPE   C4B48888  13.808  13.082  20.751 -0.1915  0.2089 -0.0802
 2253DPPE   NH348889  15.853  15.473  23.144  0.1167  0.2117  0.0137
 2253DPPE   PO448890  16.006  15.157  23.023  0.0355  0.0470  0.0411
 2253DPPE   GL148891  16.116  15.511  22.725 -0.0866 -0.0624  0.4385
 2253DPPE   GL248892  15.863  15.402  22.593  0.1143  0.1636 -0.1272
 2253DPPE   C1A48893  16.283  15.633  22.234 -0.0421 -0.3066 -0.0495
 2253DPPE   C2A48894  16.268  16.025  21.874  0.0059  0.1428 -0.1602
 2253DPPE   C3A48895  16.060  16.078  21.530 -0.0658 -0.0462 -0.3056
 2253DPPE   C4A48896  16.152  16.427  21.291 -0.0383 -0.0947 -0.0566
 2253DPPE   C1B48897  16.004  15.267  22.247 -0.2849  0.0449  0.2717
 2253DPPE   C2B48898  15.905  15.074  21.798  0.3338 -0.2298  0.2314
 2253DPPE   C3B48899  15.819  15.022  21.394  0.0004  0.1106 -0.0584
 2253DPPE   C4B48900  15.830  15.198  20.987 -0.2426 -0.0286 -0.1700
 2254DPPE   NH348901  20.795  16.472  22.436  0.0326  0.1916 -0.2978
 2254DPPE   PO448902  21.043  16.533  21.975 -0.2046  0.1877  0.1101
 2254DPPE   GL148903  20.818  16.623  21.654  0.1271  0.4034  0.0132
 2254DPPE   GL248904  20.569  16.852  21.611 -0.0245 -0.0233  0.0015
 2254DPPE   C1A48905  20.890  16.619  21.310  0.1156 -0.1668 -0.2782
 2254DPPE   C2A48906  20.655  16.851  21.081 -0.1518 -0.3307  0.0268
 2254DPPE   C3A48907  20.459  16.976  20.655 -0.1101 -0.1757  0.1006
 2254DPPE   C4A48908  20.108  17.081  20.357 -0.4722  0.1933 -0.0312
 2254DPPE   C1B48909  20.246  16.960  21.397 -0.3415 -0.2101 -0.2681
 2254DPPE   C2B48910  20.062  16.926  21.011  0.4024 -0.0862  0.1405
 2254DPPE   C3B48911  19.730  17.005  20.801 -0.1312 -0.1328 -0.1017
 2254DPPE   C4B48912  19.378  16.836  20.943  0.0388  0.1355  0.0515
 2255DPPE   NH348913  14.801  17.603  23.213 -0.2099  0.1176  0.1584
 2255DPPE   PO448914  15.020  18.021  23.193 -0.0692 -0.1330 -0.1168
 2255DPPE   GL148915  14.844  17.934  22.781 -0.2662 -0.0449 -0.2006
 2255DPPE   GL248916  14.763  18.346  22.716  0.0037 -0.0856 -0.0772
 2255DPPE   C1A48917  14.724  17.896  22.379 -0.2307 -0.4012 -0.1402
 2255DPPE   C2A48918  14.868  17.818  21.947  0.2387 -0.1806 -0.1116
 2255DPPE   C3A48919  14.800  17.567  21.564 -0.2639 -0.4728 -0.1782
 2255DPPE   C4A48920  14.802  17.298  21.244  0.0251 -0.0378  0.2094
 2255DPPE   C1B48921  14.569  18.681  22.378 -0.2751  0.1455 -0.6175
 2255DPPE   C2B48922  14.391  18.587  21.970 -0.2839  0.2134  0.2513
 2255DPPE   C3B48923  14.571  18.856  21.637  0.0101 -0.1383 -0.0889
 2255DPPE   C4B48924  14.407  19.190  21.398 -0.3588 -0.2056  0.1127
 2256DPPE   NH348925  16.688  14.030  23.014 -0.3114 -0.1130  0.0191
 2256DPPE   PO448926  16.666  13.649  23.007  0.0296 -0.1309  0.3890
 2256DPPE   GL148927  16.805  13.782  22.548 -0.2427  0.0453  0.1780
 2256DPPE   GL248928  16.718  14.120  22.424 -0.3852 -0.0268  0.0009
 2256DPPE   C1A48929  17.051  13.838  22.108  0.2707 -0.0794 -0.3222
 2256DPPE   C2A48930  17.115  13.840  21.720  0.2547 -0.1600  0.0783
 2256DPPE   C3A48931  17.369  13.931  21.235  0.1999  0.2391 -0.0315
 2256DPPE   C4A48932  17.311  13.882  20.930  0.2929 -0.2524  0.0902
 2256DPPE   C1B48933  16.686  14.339  22.043 -0.0122  0.2250  0.1625
 2256DPPE   C2B48934  16.697  14.241  21.629  0.3633  0.1915 -0.1865
 2256DPPE   C3B48935  16.942  14.166  21.271 -0.2944 -0.0972  0.0260
 2256DPPE   C4B48936  16.788  14.150  20.873  0.0952 -0.0047 -0.2050
 2257DPPE   NH348937  15.351   6.554  18.805  0.3057 -0.0358  0.0836
 2257DPPE   PO448938  15.803   6.432  18.775 -0.2029 -0.2904 -0.2623
 2257DPPE   GL148939  15.892   6.750  19.111  0.0013  0.2628 -0.0839
 2257DPPE   GL248940  15.785   7.041  19.325 -0.1924  0.0776  0.3334
 2257DPPE   C1A48941  16.180   7.094  19.052 -0.0619 -0.2028 -0.0133
 2257DPPE   C2A48942  16.195   7.557  18.870 -0.3560  0.1500  0.1035
 2257DPPE   C3A48943  15.858   7.747  18.904 -0.0698 -0.0323  0.2050
 2257DPPE   C4A48944  15.520   7.711  18.631 -0.2466 -0.0980 -0.1205
 2257DPPE   C1B48945  15.921   7.492  19.380  0.0480 -0.2661  0.1081
 2257DPPE   C2B48946  16.100   7.877  19.303 -0.3434  0.1816  0.0237
 2257DPPE   C3B48947  16.043   8.269  19.181  0.0358 -0.1112 -0.0928
 2257DPPE   C4B48948  16.195   8.629  19.299  0.0966  0.3337 -0.4948
 2258DPPE   NH348949   5.266  23.578  18.756 -0.0091 -0.0188  0.0381
 2258DPPE   PO448950   5.099  23.707  19.111 -0.0884 -0.0875 -0.1597
 2258DPPE   GL148951   5.504  23.737  19.376 -0.1570  0.0854 -0.3381
 2258DPPE   GL248952   5.622  23.615  19.785 -0.0127 -0.2162 -0.0707
 2258DPPE   C1A48953   6.015  23.823  19.240  0.3716 -0.2661 -0.0213
 2258DPPE   C2A48954   6.323  23.942  18.955 -0.2545 -0.0127 -0.1030
 2258DPPE   C3A48955   6.511  24.322  18.745  0.0276 -0.2436 -0.1413
 2258DPPE   C4A48956   6.650  24.726  18.827 -0.1179  0.0665 -0.0717
 2258DPPE   C1B48957   5.685  23.289  19.563  0.1501 -0.2660  0.1470
 2258DPPE   C2B48958   5.778  23.384  19.154  0.1169 -0.2457 -0.2160
 2258DPPE   C3B48959   6.107  23.323  18.855 -0.0647  0.0448  0.0266
 2258DPPE   C4B48960   6.166  23.625  18.535 -0.2339 -0.1449  0.0784
 2259DPPE   NH348961  14.743  24.404  21.824 -0.4514  0.1478  0.3003
 2259DPPE   PO448962  14.341  24.576  21.750 -0.1889 -0.2565  0.1408
 2259DPPE   GL148963  14.509  24.557  21.358 -0.2453  0.0128  0.1124
 2259DPPE   GL248964  14.615  24.222  21.362  0.0931 -0.0610  0.0378
 2259DPPE   C1A48965  14.452  24.484  20.879 -0.0367  0.0563  0.0334
 2259DPPE   C2A48966  14.416  24.470  20.467 -0.1561  0.0514 -0.0302
 2259DPPE   C3A48967  14.301  24.156  20.266 -0.2116 -0.0640  0.1931
 2259DPPE   C4A48968  14.382  23.734  20.255 -0.0542  0.2645 -0.0574
 2259DPPE   C1B48969  14.839  23.969  21.214 -0.2062 -0.1300 -0.2856
 2259DPPE   C2B48970  15.277  24.003  21.077 -0.1071 -0.1232  0.1910
 2259DPPE   C3B48971  15.489  23.956  20.745  0.0702 -0.0568 -0.1306
 2259DPPE   C4B48972  15.639  24.052  20.369  0.2750  0.4501 -0.0449
 2260DPPE   NH348973  18.047  11.214  22.176 -0.0103 -0.0906  0.2510
 2260DPPE   PO448974  18.105  11.620  22.358 -0.3701  0.3723  0.3313
 2260DPPE   GL148975  17.826  11.670  21.915 -0.0635 -0.0080  0.0997
 2260DPPE   GL248976  17.886  12.031  21.819  0.0824 -0.1256 -0.3198
 2260DPPE   C1A48977  17.606  11.486  21.474  0.0428  0.0448  0.0942
 2260DPPE   C2A48978  17.700  11.462  21.096 -0.1648 -0.2542  0.4595
 2260DPPE   C3A48979  17.603  11.412  20.771 -0.3259 -0.2074 -0.1019
 2260DPPE   C4A48980  17.294  11.298  20.522  0.1152 -0.0307 -0.0732
 2260DPPE   C1B48981  17.633  12.019  21.429 -0.2148 -0.1126 -0.0430
 2260DPPE   C2B48982  17.386  12.115  21.088  0.1825 -0.2642 -0.1031
 2260DPPE   C3B48983  17.154  12.198  20.784 -0.1799 -0.0498 -0.0829
 2260DPPE   C4B48984  16.782  12.142  20.457 -0.0069  0.1774 -0.1263
 2261DPPE   NH348985  10.651  17.774  22.832  0.0161  0.2431 -0.0694
 2261DPPE   PO448986  11.074  17.685  22.642  0.0283 -0.0593  0.0426
 2261DPPE   GL148987  10.777  17.426  22.428 -0.1004 -0.1814  0.2108
 2261DPPE   GL248988  10.637  17.100  22.363  0.0666 -0.1094 -0.3151
 2261DPPE   C1A48989  10.689  17.474  22.014 -0.1922 -0.0871  0.0048
 2261DPPE   C2A48990  10.642  17.234  21.598  0.0358 -0.4134 -0.1652
 2261DPPE   C3A48991  10.379  16.849  21.418  0.0386  0.3355 -0.1109
 2261DPPE   C4A48992  10.137  16.380  21.263 -0.1810 -0.1588  0.0272
 2261DPPE   C1B48993  10.801  16.860  22.042 -0.0742  0.1782  0.2580
 2261DPPE   C2B48994  10.881  16.749  21.588 -0.1319 -0.0587 -0.0413
 2261DPPE   C3B48995  10.891  16.771  21.218 -0.0208  0.1490 -0.3229
 2261DPPE   C4B48996  10.919  16.884  20.847  0.0924 -0.0461  0.0170
 2262DPPE   NH348997  11.804  16.109  22.993 -0.0642 -0.1527 -0.0388
 2262DPPE   PO448998  11.488  15.797  22.896 -0.3665 -0.2333 -0.1729
 2262DPPE   GL148999  11.587  15.927  22.453  0.2394 -0.0238  0.1468
 2262DPPE   GL249000  11.330  16.162  22.435 -0.1102 -0.1082 -0.1394
 2262DPPE   C1A49001  11.747  15.873  22.037 -0.1835 -0.0099 -0.0762
 2262DPPE   C2A49002  11.732  15.850  21.521 -0.0722  0.3685  0.0105
 2262DPPE   C3A49003  11.795  16.153  21.259 -0.1082  0.1636 -0.1598
 2262DPPE   C4A49004  12.140  16.321  21.149 -0.2256  0.1532  0.2420
 2262DPPE   C1B49005  11.075  15.909  22.148 -0.0014 -0.0668 -0.2260
 2262DPPE   C2B49006  11.312  15.750  21.788 -0.2007 -0.1625  0.0246
 2262DPPE   C3B49007  11.304  15.657  21.320 -0.1580 -0.0018  0.2515
 2262DPPE   C4B49008  10.903  15.554  21.100 -0.1694 -0.1771  0.0599
 2263DPPE   NH349009  15.522  15.148  22.891 -0.0740  0.0894  0.4655
 2263DPPE   PO449010  15.015  15.091  22.909  0.1711  0.2373  0.0778
 2263DPPE   GL149011  15.154  15.025  22.541  0.0491 -0.0630  0.2356
 2263DPPE   GL249012  15.138  14.775  22.321  0.1160 -0.2055  0.1673
 2263DPPE   C1A49013  15.438  15.240  22.237  0.4140  0.1358 -0.1069
 2263DPPE   C2A49014  15.492  15.385  21.756  0.3777 -0.1578  0.0471
 2263DPPE   C3A49015  15.763  15.695  21.464 -0.1589 -0.0933  0.2788
 2263DPPE   C4A49016  15.792  15.715  21.073 -0.0970  0.0997  0.3114
 2263DPPE   C1B49017  15.028  14.543  22.046 -0.1378  0.1379 -0.1420
 2263DPPE   C2B49018  15.026  14.545  21.606 -0.0216  0.0819  0.1638
 2263DPPE   C3B49019  14.763  14.256  21.382  0.0527  0.1447 -0.3434
 2263DPPE   C4B49020  14.414  14.054  21.159 -0.0313  0.1040 -0.0085
 2264DPPE   NH349021  13.138   7.622  20.725  0.0691 -0.2401 -0.0829
 2264DPPE   PO449022  13.084   8.049  20.744 -0.0085  0.4253 -0.1416
 2264DPPE   GL149023  13.190   8.404  20.633 -0.3135 -0.0226 -0.2135
 2264DPPE   GL249024  13.515   8.412  20.812  0.0185  0.1148  0.0305
 2264DPPE   C1A49025  13.311   8.508  20.341  0.4510 -0.3321 -0.0650
 2264DPPE   C2A49026  13.342   8.554  19.872  0.4284  0.1440  0.0960
 2264DPPE   C3A49027  13.617   8.657  19.553  0.1563  0.0913  0.2932
 2264DPPE   C4A49028  13.532   8.883  19.116  0.1320 -0.3401  0.4021
 2264DPPE   C1B49029  13.599   8.804  20.620  0.0683  0.2092  0.1391
 2264DPPE   C2B49030  13.525   9.164  20.379  0.1500 -0.0050  0.0862
 2264DPPE   C3B49031  13.274   9.427  20.087 -0.0919 -0.2949 -0.0083
 2264DPPE   C4B49032  13.443   9.717  19.821  0.0802  0.1001  0.0177
 2265DPPE   NH349033   7.011  25.578  20.467 -0.2061 -0.2526  0.1360
 2265DPPE   PO449034   6.788  25.905  20.385 -0.4706 -0.3114 -0.0453
 2265DPPE   GL149035   7.136  25.843  20.028 -0.0973  0.0530 -0.1131
 2265DPPE   GL249036   7.168  25.464  20.044  0.1416 -0.0221 -0.4513
 2265DPPE   C1A49037   7.506  25.630  19.815 -0.2409 -0.0969  0.1650
 2265DPPE   C2A49038   7.811  25.374  20.117 -0.2039  0.0828 -0.3419
 2265DPPE   C3A49039   8.158  25.231  20.389  0.3101 -0.3329 -0.1706
 2265DPPE   C4A49040   8.421  25.395  20.710  0.0148  0.0090 -0.1563
 2265DPPE   C1B49041   7.125  25.271  19.624  0.1845  0.1985 -0.1513
 2265DPPE   C2B49042   7.176  24.846  19.570  0.3699  0.1250 -0.0253
 2265DPPE   C3B49043   7.070  24.449  19.534 -0.0002 -0.0887  0.0728
 2265DPPE   C4B49044   7.327  24.180  19.559  0.1345  0.1972  0.3316
 2266DPPE   NH349045  13.124  24.232  22.109 -0.0279 -0.1057  0.0436
 2266DPPE   PO449046  12.960  23.869  22.342 -0.1316 -0.0436 -0.2146
 2266DPPE   GL149047  12.909  23.768  22.018  0.0025 -0.1427  0.0755
 2266DPPE   GL249048  13.196  23.875  21.741  0.2218  0.0434 -0.0856
 2266DPPE   C1A49049  12.631  23.618  21.625 -0.2612  0.2833 -0.1971
 2266DPPE   C2A49050  12.441  23.394  21.300 -0.3562  0.2961 -0.2512
 2266DPPE   C3A49051  12.134  23.406  21.065 -0.4617  0.1813  0.0983
 2266DPPE   C4A49052  11.765  23.614  20.825  0.2703  0.2118 -0.0770
 2266DPPE   C1B49053  13.040  23.773  21.402 -0.1343  0.0476 -0.0321
 2266DPPE   C2B49054  12.982  24.163  21.052 -0.1806  0.3188  0.1703
 2266DPPE   C3B49055  12.931  24.337  20.710 -0.0975  0.0791 -0.2117
 2266DPPE   C4B49056  12.778  24.451  20.371 -0.3692  0.1422  0.3123
 2267DPPE   NH349057  22.878  14.088  19.942  0.0373 -0.0465 -0.0900
 2267DPPE   PO449058  22.629  13.913  20.221 -0.0224 -0.1424 -0.1702
 2267DPPE   GL149059  22.385  14.288  20.013 -0.3072 -0.2071 -0.2134
 2267DPPE   GL249060  22.096  14.238  20.208  0.2996 -0.0455 -0.1162
 2267DPPE   C1A49061  22.202  14.620  19.785 -0.0001  0.3482  0.3290
 2267DPPE   C2A49062  22.250  14.875  19.944 -0.1108  0.1957  0.3875
 2267DPPE   C3A49063  22.208  15.364  19.827 -0.1046 -0.1805  0.1576
 2267DPPE   C4A49064  21.998  15.680  19.698 -0.1751  0.1945  0.0047
 2267DPPE   C1B49065  21.665  14.204  20.361 -0.4814 -0.1520  0.0460
 2267DPPE   C2B49066  21.251  14.485  20.430  0.0920 -0.0473  0.0167
 2267DPPE   C3B49067  21.120  14.777  20.681 -0.1247 -0.3102 -0.0314
 2267DPPE   C4B49068  20.988  15.114  21.006 -0.1687 -0.0330 -0.1589
 2268DPPE   NH349069  16.427   9.483  21.842 -0.1453 -0.2794  0.3474
 2268DPPE   PO449070  16.189   9.104  21.884  0.7225 -0.2144 -0.1278
 2268DPPE   GL149071  16.055   9.115  21.397 -0.2516  0.1913 -0.1018
 2268DPPE   GL249072  15.760   8.797  21.339 -0.1257 -0.0626 -0.2738
 2268DPPE   C1A49073  15.691   9.231  21.148  0.1622 -0.1011 -0.1270
 2268DPPE   C2A49074  15.304   9.174  20.972 -0.0641  0.1275 -0.0315
 2268DPPE   C3A49075  14.875   9.273  20.690  0.1595 -0.0991  0.0281
 2268DPPE   C4A49076  14.524   9.318  20.692 -0.1468  0.2039  0.2619
 2268DPPE   C1B49077  15.587   8.679  20.972  0.0049 -0.0657 -0.0026
 2268DPPE   C2B49078  15.387   8.489  20.695  0.0783 -0.0089  0.2764
 2268DPPE   C3B49079  15.115   8.318  20.425  0.0643  0.0579 -0.1149
 2268DPPE   C4B49080  14.895   8.454  20.109 -0.2492  0.0037 -0.3110
 2269DPPE   NH349081  12.147  22.046  22.602 -0.1043  0.3401  0.0586
 2269DPPE   PO449082  11.763  22.159  22.809  0.0903  0.1806  0.2638
 2269DPPE   GL149083  11.736  22.194  22.366 -0.2527  0.1584  0.0625
 2269DPPE   GL249084  11.895  22.514  22.286 -0.0227  0.2069 -0.1841
 2269DPPE   C1A49085  11.636  22.150  21.994 -0.3466 -0.0335 -0.2429
 2269DPPE   C2A49086  11.531  22.201  21.543 -0.0710 -0.1837 -0.0863
 2269DPPE   C3A49087  11.775  22.103  21.149 -0.1351 -0.0254  0.0595
 2269DPPE   C4A49088  11.900  22.102  20.700  0.1793  0.0373  0.2518
 2269DPPE   C1B49089  11.677  22.564  21.828  0.1849 -0.0658  0.2382
 2269DPPE   C2B49090  11.611  22.933  21.546  0.0084 -0.2251  0.1654
 2269DPPE   C3B49091  11.491  23.186  21.130 -0.0196 -0.2066  0.1275
 2269DPPE   C4B49092  11.274  23.578  20.952 -0.0404  0.1851 -0.2429
 2270DPPE   NH349093  23.374  16.034  19.444 -0.2224 -0.4471  0.0689
 2270DPPE   PO449094  23.453  15.598  19.424  0.0866 -0.0322  0.1097
 2270DPPE   GL149095  23.021  15.674  19.247  0.0768 -0.0220  0.0092
 2270DPPE   GL249096  22.879  15.367  19.039 -0.0330 -0.0309 -0.0364
 2270DPPE   C1A49097  22.767  15.890  19.076  0.4245 -0.1464  0.3903
 2270DPPE   C2A49098  22.378  15.643  18.859 -0.0248 -0.1595 -0.0474
 2270DPPE   C3A49099  22.015  15.300  18.925  0.2667 -0.2892 -0.0606
 2270DPPE   C4A49100  22.004  14.960  18.977  0.0718  0.0219 -0.3311
 2270DPPE   C1B49101  22.494  15.141  19.109 -0.2965 -0.0434 -0.0844
 2270DPPE   C2B49102  22.410  14.713  19.172  0.0312  0.0495 -0.1786
 2270DPPE   C3B49103  22.726  14.379  19.063  0.2096 -0.1586 -0.0607
 2270DPPE   C4B49104  22.544  14.146  18.709  0.0405 -0.0904 -0.0901
 2271DPPE   NH349105  14.857  13.736  22.643  0.0128  0.3353 -0.1172
 2271DPPE   PO449106  14.699  14.232  22.648  0.1187  0.1066  0.0094
 2271DPPE   GL149107  14.646  14.323  22.320  0.4054  0.0612  0.1852
 2271DPPE   GL249108  14.311  14.488  22.364  0.0916 -0.4032  0.3066
 2271DPPE   C1A49109  14.690  14.150  21.864  0.4969 -0.3717 -0.1501
 2271DPPE   C2A49110  14.781  13.745  21.655 -0.0344 -0.2430 -0.1963
 2271DPPE   C3A49111  14.675  13.433  21.363  0.0154 -0.0381  0.1452
 2271DPPE   C4A49112  14.680  13.233  20.855 -0.0522 -0.2184 -0.2297
 2271DPPE   C1B49113  14.146  14.755  22.064  0.2045  0.1316 -0.0034
 2271DPPE   C2B49114  13.943  15.046  21.844 -0.2112  0.1171 -0.0095
 2271DPPE   C3B49115  13.942  14.918  21.454  0.1246 -0.1238  0.0432
 2271DPPE   C4B49116  13.999  14.887  21.125 -0.1775 -0.1219  0.3435
 2272DPPE   NH349117  17.867   8.825  21.213  0.1311 -0.1679  0.2418
 2272DPPE   PO449118  17.812   9.082  21.502 -0.1083  0.1339  0.1825
 2272DPPE   GL149119  17.464   9.202  21.147  0.0202  0.0223 -0.2354
 2272DPPE   GL249120  17.591   8.964  20.809  0.0881  0.0134  0.2330
 2272DPPE   C1A49121  17.204   9.316  20.761 -0.4935  0.0779 -0.4458
 2272DPPE   C2A49122  17.138   9.276  20.287 -0.1119 -0.0492 -0.0202
 2272DPPE   C3A49123  17.020   9.519  19.972  0.0744  0.1169 -0.0075
 2272DPPE   C4A49124  16.918   9.800  19.583 -0.0064  0.0752 -0.0815
 2272DPPE   C1B49125  17.425   8.728  20.470 -0.0012 -0.2524 -0.0088
 2272DPPE   C2B49126  17.155   8.816  20.055  0.0643 -0.1007 -0.3102
 2272DPPE   C3B49127  16.856   8.977  19.686 -0.3801 -0.1938 -0.1405
 2272DPPE   C4B49128  16.453   8.973  19.529 -0.0187 -0.3875 -0.0729
 2273DPPE   NH349129   6.058   9.132  19.316  0.1769  0.3089  0.1078
 2273DPPE   PO449130   6.306   9.113  18.979 -0.2365  0.1307 -0.2876
 2273DPPE   GL149131   6.563   9.396  18.878  0.2155  0.1184  0.2000
 2273DPPE   GL249132   6.932   9.227  18.681 -0.0128 -0.2138  0.3146
 2273DPPE   C1A49133   6.914   9.606  19.065 -0.0863  0.3043  0.1395
 2273DPPE   C2A49134   7.294   9.527  19.385  0.1807 -0.1914 -0.0244
 2273DPPE   C3A49135   7.653   9.576  19.648 -0.2239 -0.0984 -0.0071
 2273DPPE   C4A49136   7.969   9.316  19.908  0.1094 -0.0455 -0.0657
 2273DPPE   C1B49137   7.148   8.993  18.570  0.2476 -0.1228 -0.1405
 2273DPPE   C2B49138   7.559   8.907  18.662 -0.0430  0.1331  0.3299
 2273DPPE   C3B49139   8.079   9.049  18.765  0.3404 -0.0358 -0.1169
 2273DPPE   C4B49140   8.329   8.594  18.759  0.0246  0.0042 -0.1302
 2274DPPE   NH349141  12.266   6.085  18.181 -0.2844 -0.2374 -0.1389
 2274DPPE   PO449142  11.741   6.070  18.241  0.1428  0.2204  0.2146
 2274DPPE   GL149143  11.698   6.456  18.081 -0.0820  0.2150  0.1311
 2274DPPE   GL249144  11.566   6.604  18.506  0.2853  0.1837  0.4078
 2274DPPE   C1A49145  11.728   6.665  17.667  0.0734  0.1913 -0.1372
 2274DPPE   C2A49146  12.084   6.673  17.404  0.1962  0.1894 -0.0174
 2274DPPE   C3A49147  12.546   6.532  17.242 -0.0637 -0.1206 -0.0567
 2274DPPE   C4A49148  12.961   6.576  17.194  0.0616 -0.0305  0.4099
 2274DPPE   C1B49149  11.819   6.923  18.459  0.1131  0.0256  0.1054
 2274DPPE   C2B49150  12.201   7.191  18.308  0.1217  0.1006  0.1501
 2274DPPE   C3B49151  12.611   7.274  18.413  0.0490 -0.2394 -0.0446
 2274DPPE   C4B49152  13.017   7.495  18.680 -0.1049 -0.0495  0.0311
 2275DPPE   NH349153  15.084  20.016  23.490  0.4313  0.2076 -0.1148
 2275DPPE   PO449154  15.396  19.683  23.313 -0.2376 -0.2099 -0.3109
 2275DPPE   GL149155  15.265  19.669  22.927 -0.1769  0.2589  0.2443
 2275DPPE   GL249156  15.647  19.679  22.853  0.1763 -0.2201 -0.1035
 2275DPPE   C1A49157  15.357  19.531  22.514  0.2103 -0.3461 -0.0892
 2275DPPE   C2A49158  15.096  19.273  22.244 -0.0655 -0.1057  0.1909
 2275DPPE   C3A49159  14.758  19.151  22.330  0.1106  0.1097  0.2272
 2275DPPE   C4A49160  14.459  19.092  22.059 -0.0688 -0.0019 -0.0136
 2275DPPE   C1B49161  15.841  19.401  22.644 -0.0895 -0.2939  0.3993
 2275DPPE   C2B49162  15.813  19.374  22.284  0.0476 -0.0623 -0.1346
 2275DPPE   C3B49163  15.968  18.954  22.050  0.1998  0.0582 -0.0054
 2275DPPE   C4B49164  16.269  18.789  21.880 -0.0239  0.0254 -0.3960
 2276DPPE   NH349165  19.751  16.779  22.491  0.0736 -0.0223 -0.0174
 2276DPPE   PO449166  19.674  17.119  22.866  0.0978 -0.2342  0.1810
 2276DPPE   GL149167  19.577  17.343  22.452  0.5136  0.1657  0.0638
 2276DPPE   GL249168  19.269  17.603  22.467 -0.1386 -0.2222  0.2718
 2276DPPE   C1A49169  19.458  17.490  22.025 -0.0659 -0.1058 -0.1001
 2276DPPE   C2A49170  19.281  17.298  21.712 -0.2457 -0.0195 -0.0619
 2276DPPE   C3A49171  19.211  17.167  21.312 -0.1136  0.1783  0.2116
 2276DPPE   C4A49172  19.081  17.294  20.935  0.1179  0.5253  0.0021
 2276DPPE   C1B49173  18.974  17.424  22.274  0.1968 -0.1018 -0.1598
 2276DPPE   C2B49174  18.880  17.283  21.946 -0.0960  0.3378  0.1504
 2276DPPE   C3B49175  18.415  17.289  21.786 -0.0622  0.2248  0.0224
 2276DPPE   C4B49176  18.201  16.968  21.809  0.1475 -0.1122 -0.0807
 2277DPPE   NH349177  21.272  21.183  19.957  0.4437 -0.2336 -0.1129
 2277DPPE   PO449178  21.164  21.636  19.730  0.1193  0.2518 -0.1941
 2277DPPE   GL149179  20.967  21.225  19.569  0.0798  0.1049  0.1343
 2277DPPE   GL249180  20.983  21.264  19.297  0.0805  0.2736 -0.0381
 2277DPPE   C1A49181  20.937  20.784  19.519  0.0299  0.0272  0.1517
 2277DPPE   C2A49182  20.606  20.466  19.268 -0.1367  0.1428  0.0353
 2277DPPE   C3A49183  20.238  20.210  19.111 -0.0574  0.0919 -0.2281
 2277DPPE   C4A49184  19.883  19.923  19.078  0.1870  0.2137  0.1707
 2277DPPE   C1B49185  20.606  21.110  19.166 -0.2328 -0.1268  0.1497
 2277DPPE   C2B49186  20.295  21.211  18.903 -0.0887  0.0764  0.1844
 2277DPPE   C3B49187  20.265  21.615  18.654  0.0030 -0.1294 -0.0224
 2277DPPE   C4B49188  19.959  21.715  18.298 -0.3398  0.0319  0.0655
 2278DPPE   NH349189   8.202  22.742  22.678 -0.0221 -0.1079  0.4366
 2278DPPE   PO449190   7.784  22.838  22.508 -0.2140  0.0895 -0.2525
 2278DPPE   GL149191   8.204  22.798  22.198 -0.2138  0.1943 -0.0300
 2278DPPE   GL249192   8.144  22.512  22.162 -0.2985 -0.0845 -0.1546
 2278DPPE   C1A49193   8.627  22.849  21.944  0.3191  0.1280 -0.0366
 2278DPPE   C2A49194   8.825  23.053  21.488  0.3290 -0.0117  0.0682
 2278DPPE   C3A49195   8.945  23.414  21.430 -0.0041 -0.0110  0.1487
 2278DPPE   C4A49196   8.826  23.730  21.147 -0.2096  0.2678 -0.2510
 2278DPPE   C1B49197   7.892  22.607  21.789  0.2293  0.2261 -0.1028
 2278DPPE   C2B49198   7.664  22.321  21.454  0.0941 -0.3797 -0.0584
 2278DPPE   C3B49199   7.545  21.843  21.327  0.1282  0.0012 -0.0146
 2278DPPE   C4B49200   7.644  21.420  21.278 -0.0287  0.0009 -0.1183
 2279DPPE   NH349201   8.633  19.014  22.471 -0.0400  0.1903  0.0612
 2279DPPE   PO449202   8.300  18.743  22.369  0.0535 -0.0355 -0.0775
 2279DPPE   GL149203   8.120  18.726  21.973 -0.0140  0.1811 -0.0254
 2279DPPE   GL249204   8.277  18.790  21.789  0.1748  0.0167  0.1005
 2279DPPE   C1A49205   7.873  19.042  21.618  0.0559  0.1832  0.2980
 2279DPPE   C2A49206   7.867  19.272  21.377  0.1815 -0.0922  0.1444
 2279DPPE   C3A49207   7.982  19.500  21.094 -0.2180 -0.0612 -0.4101
 2279DPPE   C4A49208   8.312  19.764  21.100 -0.0640  0.0342  0.1415
 2279DPPE   C1B49209   8.292  18.813  21.409 -0.1273  0.1667  0.2158
 2279DPPE   C2B49210   8.110  18.935  21.102 -0.0840 -0.0070 -0.1774
 2279DPPE   C3B49211   7.852  18.645  20.863  0.4065 -0.2229 -0.0418
 2279DPPE   C4B49212   7.368  18.536  20.862 -0.2690 -0.0520 -0.4258
 2280DPPE   NH349213  18.347  23.281  22.450  0.0555 -0.2887  0.3967
 2280DPPE   PO449214  18.275  23.078  22.032  0.0592  0.1347 -0.1617
 2280DPPE   GL149215  18.321  22.764  21.633 -0.3516 -0.1152 -0.1319
 2280DPPE   GL249216  18.571  22.497  21.581 -0.2228  0.3326  0.0060
 2280DPPE   C1A49217  18.154  22.695  21.104 -0.3196  0.1192 -0.2297
 2280DPPE   C2A49218  18.181  22.387  20.742 -0.1713  0.1925  0.0273
 2280DPPE   C3A49219  18.462  22.446  20.427 -0.1607 -0.4517 -0.0892
 2280DPPE   C4A49220  18.586  22.364  20.069  0.2630  0.2436  0.3200
 2280DPPE   C1B49221  18.407  22.215  21.242  0.0124  0.0262  0.1167
 2280DPPE   C2B49222  18.185  21.914  21.142  0.1303 -0.2415  0.0816
 2280DPPE   C3B49223  18.215  21.852  20.681  0.4758  0.0754 -0.1823
 2280DPPE   C4B49224  18.235  21.487  20.263  0.0594  0.0574 -0.3384
 2281DPPE   NH349225  22.061  18.230  20.359 -0.2977 -0.0676  0.1712
 2281DPPE   PO449226  22.271  18.496  20.232 -0.1038  0.4398 -0.1855
 2281DPPE   GL149227  21.805  18.541  20.103  0.0214  0.3369  0.0815
 2281DPPE   GL249228  21.684  18.280  19.850 -0.1299 -0.0654 -0.2311
 2281DPPE   C1A49229  21.376  18.672  19.893  0.0102 -0.0441 -0.2529
 2281DPPE   C2A49230  21.280  18.530  19.553 -0.0269  0.0087  0.1771
 2281DPPE   C3A49231  21.378  17.930  19.433  0.1423  0.1436  0.1933
 2281DPPE   C4A49232  21.388  17.449  19.644  0.1261 -0.1270  0.2796
 2281DPPE   C1B49233  21.767  18.289  19.432 -0.1814 -0.0701  0.4899
 2281DPPE   C2B49234  21.716  18.040  19.086  0.0766  0.4285  0.0301
 2281DPPE   C3B49235  21.398  17.795  18.890 -0.0255  0.1474  0.2905
 2281DPPE   C4B49236  21.127  17.783  18.504  0.0961 -0.0378 -0.3434
 2282DPPE   NH349237  15.258  28.312  18.229  0.3280 -0.0302  0.0575
 2282DPPE   PO449238  15.576  28.166  18.596 -0.0823 -0.1217 -0.1064
 2282DPPE   GL149239  15.681  27.815  18.621 -0.4922 -0.2063  0.1412
 2282DPPE   GL249240  15.913  27.743  18.572 -0.1359 -0.2188 -0.0919
 2282DPPE   C1A49241  15.440  27.418  18.827 -0.1825 -0.0364  0.1928
 2282DPPE   C2A49242  15.208  27.124  19.051  0.2531 -0.1527 -0.0707
 2282DPPE   C3A49243  14.877  26.968  19.232 -0.1511  0.4966  0.1262
 2282DPPE   C4A49244  14.545  26.732  19.278 -0.1243 -0.1405  0.1686
 2282DPPE   C1B49245  15.881  27.270  18.654 -0.0757 -0.1572 -0.2833
 2282DPPE   C2B49246  15.755  26.912  18.720  0.0008  0.0157 -0.1014
 2282DPPE   C3B49247  15.742  26.537  18.496  0.3277 -0.0069 -0.1375
 2282DPPE   C4B49248  15.884  26.349  18.025  0.1369 -0.1369 -0.1555
 2283DPPE   NH349249  20.031  23.739  20.423 -0.1918  0.2036 -0.1971
 2283DPPE   PO449250  20.211  23.393  20.400  0.1447 -0.1967  0.1952
 2283DPPE   GL149251  19.788  23.202  20.408  0.0632  0.0354 -0.1578
 2283DPPE   GL249252  19.597  23.410  20.274  0.2006  0.0789  0.0812
 2283DPPE   C1A49253  19.401  22.957  20.298  0.1255 -0.0398 -0.2409
 2283DPPE   C2A49254  19.207  22.863  19.934  0.2737  0.0305  0.0479
 2283DPPE   C3A49255  18.846  22.778  19.705 -0.2667  0.1543 -0.1875
 2283DPPE   C4A49256  18.444  23.077  19.535 -0.1340 -0.0742  0.0382
 2283DPPE   C1B49257  19.285  23.419  20.060  0.1950  0.2238  0.1932
 2283DPPE   C2B49258  18.917  23.319  19.770 -0.1455  0.1853 -0.0363
 2283DPPE   C3B49259  18.552  23.479  19.743  0.3728 -0.0203 -0.0179
 2283DPPE   C4B49260  18.211  23.541  19.395  0.1241 -0.0760 -0.0936
 2284DPPE   NH349261  16.215  28.007  19.387 -0.3273 -0.0770 -0.5751
 2284DPPE   PO449262  16.044  27.663  19.507 -0.0951  0.3187  0.0929
 2284DPPE   GL149263  16.050  27.300  19.673  0.1900 -0.0844  0.1052
 2284DPPE   GL249264  15.782  27.115  19.708 -0.1430 -0.1834  0.3422
 2284DPPE   C1A49265  16.125  26.822  19.637  0.2773  0.0663  0.0476
 2284DPPE   C2A49266  15.794  26.621  19.816  0.1570 -0.0273  0.0811
 2284DPPE   C3A49267  15.860  26.119  19.786 -0.3849  0.0283 -0.1577
 2284DPPE   C4A49268  15.785  25.765  19.555  0.1100 -0.0361 -0.0370
 2284DPPE   C1B49269  15.539  26.920  19.379 -0.0687 -0.1238 -0.2783
 2284DPPE   C2B49270  15.423  26.618  19.016 -0.1140  0.0646 -0.1832
 2284DPPE   C3B49271  15.273  26.272  18.795 -0.0658 -0.2894 -0.3226
 2284DPPE   C4B49272  15.065  25.813  18.948  0.1674  0.0912 -0.1154
 2285DPPE   NH349273  11.243  19.407  22.463  0.0835  0.3046  0.0312
 2285DPPE   PO449274  10.869  19.323  22.767  0.3954  0.1468  0.1791
 2285DPPE   GL149275  10.837  19.011  22.463  0.1156  0.0735  0.0461
 2285DPPE   GL249276  11.160  18.972  22.254 -0.1593  0.4266 -0.1405
 2285DPPE   C1A49277  10.597  18.723  22.192  0.0311 -0.0006 -0.1801
 2285DPPE   C2A49278  10.376  18.667  21.750  0.2426  0.3678 -0.1888
 2285DPPE   C3A49279  10.171  18.760  21.363  0.1468 -0.2204  0.1529
 2285DPPE   C4A49280  10.047  18.952  21.037  0.1450 -0.0958 -0.0937
 2285DPPE   C1B49281  11.425  19.035  21.941 -0.0308  0.3223  0.2101
 2285DPPE   C2B49282  11.689  18.741  21.782  0.2147  0.1756  0.3587
 2285DPPE   C3B49283  11.835  18.428  21.517  0.0375 -0.1967  0.1471
 2285DPPE   C4B49284  12.128  18.476  21.166  0.1818  0.2447 -0.2424
 2286DPPE   NH349285  16.654  24.299  21.644 -0.1170 -0.2249  0.0149
 2286DPPE   PO449286  17.122  24.476  21.566  0.3114  0.1378 -0.1011
 2286DPPE   GL149287  16.927  24.334  21.227  0.0261  0.0225  0.1331
 2286DPPE   GL249288  16.754  24.052  21.231 -0.1980 -0.3073  0.1173
 2286DPPE   C1A49289  16.850  24.358  20.814 -0.1880  0.2810 -0.0113
 2286DPPE   C2A49290  17.093  24.602  20.550 -0.1866 -0.1209  0.1444
 2286DPPE   C3A49291  17.397  24.847  20.235 -0.2603  0.2255  0.0889
 2286DPPE   C4A49292  17.769  24.945  20.161 -0.3419  0.1580  0.4246
 2286DPPE   C1B49293  16.522  23.725  21.078  0.0295 -0.0896 -0.2465
 2286DPPE   C2B49294  16.389  23.461  20.787 -0.4102  0.0534  0.1057
 2286DPPE   C3B49295  16.306  23.251  20.436 -0.0796 -0.0527  0.1164
 2286DPPE   C4B49296  16.210  23.269  20.075  0.1395 -0.0162  0.0405
 2287DPPE   NH349297  13.345  21.547  23.007 -0.0207 -0.0007  0.2142
 2287DPPE   PO449298  13.346  21.438  22.566 -0.0116 -0.1038 -0.0601
 2287DPPE   GL149299  13.164  21.617  22.211 -0.1509  0.3124 -0.0431
 2287DPPE   GL249300  12.780  21.567  22.030 -0.0899 -0.0531 -0.0768
 2287DPPE   C1A49301  13.290  21.601  21.742  0.0144 -0.1985 -0.2160
 2287DPPE   C2A49302  13.564  21.522  21.420  0.0486  0.3500  0.0286
 2287DPPE   C3A49303  13.870  21.410  21.222  0.0383 -0.1759 -0.0829
 2287DPPE   C4A49304  13.868  21.161  20.948  0.1953 -0.3159  0.0672
 2287DPPE   C1B49305  12.786  21.194  21.665 -0.0534  0.0891 -0.1907
 2287DPPE   C2B49306  12.616  21.169  21.272 -0.0792  0.1146 -0.2889
 2287DPPE   C3B49307  12.286  21.292  21.097 -0.0141  0.0509 -0.1056
 2287DPPE   C4B49308  11.845  21.330  21.283  0.3080  0.2159 -0.1442
 2288DPPE   NH349309  21.115  22.593  19.951 -0.0366 -0.0238 -0.0568
 2288DPPE   PO449310  21.103  22.651  19.549 -0.1158  0.1485 -0.3049
 2288DPPE   GL149311  20.824  22.389  19.346  0.1547 -0.2089 -0.1434
 2288DPPE   GL249312  20.607  22.591  19.293  0.1423 -0.0830  0.1699
 2288DPPE   C1A49313  20.861  22.273  18.940 -0.0929 -0.1187  0.1085
 2288DPPE   C2A49314  20.537  22.023  18.827  0.2549  0.3683  0.1274
 2288DPPE   C3A49315  20.134  22.193  18.558  0.1157  0.0898 -0.0853
 2288DPPE   C4A49316  19.838  22.531  18.573  0.0792 -0.1720  0.0448
 2288DPPE   C1B49317  20.333  22.134  19.280 -0.1176 -0.2082  0.2007
 2288DPPE   C2B49318  20.149  21.758  19.173  0.2002  0.2809 -0.2163
 2288DPPE   C3B49319  20.133  21.389  19.319 -0.1061  0.1002  0.0625
 2288DPPE   C4B49320  20.152  20.952  19.290  0.3186  0.1709  0.0499
 2289DPPE   NH349321  11.027  17.144  22.770  0.0237 -0.0912  0.1031
 2289DPPE   PO449322  11.477  16.926  22.844  0.1901 -0.1326 -0.1031
 2289DPPE   GL149323  11.610  16.577  22.418 -0.1602 -0.1456 -0.3176
 2289DPPE   GL249324  11.848  16.308  22.516 -0.0197  0.1072 -0.0110
 2289DPPE   C1A49325  11.659  16.492  22.009 -0.0704  0.2842  0.2350
 2289DPPE   C2A49326  11.424  16.270  21.647  0.2473  0.0238 -0.2297
 2289DPPE   C3A49327  11.367  16.537  21.275  0.0294  0.2790  0.2018
 2289DPPE   C4A49328  11.376  16.622  20.897  0.0106 -0.0068  0.1037
 2289DPPE   C1B49329  12.152  16.239  22.299 -0.1126  0.2120  0.1446
 2289DPPE   C2B49330  12.484  16.347  21.935 -0.0662  0.0361  0.0868
 2289DPPE   C3B49331  12.522  16.313  21.548 -0.0821  0.0184  0.1509
 2289DPPE   C4B49332  12.649  16.280  21.240 -0.0644  0.2743  0.1423
 2290DPPE   NH349333  14.951  22.745  22.787  0.0058 -0.2254 -0.2259
 2290DPPE   PO449334  15.383  22.796  22.519  0.1418  0.1672 -0.0815
 2290DPPE   GL149335  15.293  22.545  22.171 -0.3370 -0.0993  0.2050
 2290DPPE   GL249336  15.218  22.116  22.172 -0.1453 -0.1051 -0.0471
 2290DPPE   C1A49337  15.276  22.670  21.645  0.2326 -0.0027  0.0618
 2290DPPE   C2A49338  15.285  22.590  21.235  0.0679 -0.0074 -0.2701
 2290DPPE   C3A49339  15.461  22.509  20.911  0.0137  0.0618 -0.1702
 2290DPPE   C4A49340  15.798  22.487  20.631 -0.0396  0.0125 -0.1002
 2290DPPE   C1B49341  15.085  22.272  21.786  0.2335 -0.1577 -0.0439
 2290DPPE   C2B49342  15.083  22.216  21.425 -0.0804  0.0441  0.3432
 2290DPPE   C3B49343  14.963  22.261  20.885  0.0938 -0.1369 -0.1273
 2290DPPE   C4B49344  14.992  22.022  20.414 -0.4836  0.2124 -0.3552
 2291DPPE   NH349345  13.400  26.250  21.579 -0.1666  0.1841  0.0894
 2291DPPE   PO449346  13.190  26.031  21.910  0.0785 -0.3793  0.2045
 2291DPPE   GL149347  12.837  25.925  21.508 -0.0644  0.1763 -0.4014
 2291DPPE   GL249348  12.581  26.082  21.505  0.1076 -0.3073 -0.2559
 2291DPPE   C1A49349  12.525  25.709  21.173  0.2085 -0.0975  0.0068
 2291DPPE   C2A49350  12.219  25.727  20.906 -0.1975 -0.3027  0.1399
 2291DPPE   C3A49351  11.913  25.785  20.515 -0.1532 -0.4757  0.0862
 2291DPPE   C4A49352  11.920  25.496  20.125 -0.1415 -0.0630 -0.0065
 2291DPPE   C1B49353  12.265  26.172  21.204 -0.1941 -0.3533  0.0580
 2291DPPE   C2B49354  11.880  26.369  21.257 -0.0227 -0.0377 -0.2519
 2291DPPE   C3B49355  11.618  26.485  20.996  0.1570  0.1158 -0.0225
 2291DPPE   C4B49356  11.238  26.474  20.785 -0.1442  0.0431  0.0428
 2292DPPE   NH349357  17.611  10.501  21.810 -0.0453  0.2436 -0.0589
 2292DPPE   PO449358  17.182  10.514  21.784 -0.1904  0.1575  0.0559
 2292DPPE   GL149359  17.146  10.549  21.424 -0.3040  0.0861 -0.3381
 2292DPPE   GL249360  17.363  10.480  21.262  0.0414  0.2468 -0.1619
 2292DPPE   C1A49361  16.939  10.726  21.218 -0.1777 -0.0144 -0.4307
 2292DPPE   C2A49362  16.588  10.888  20.934 -0.0602 -0.2195  0.0582
 2292DPPE   C3A49363  16.286  10.589  20.620 -0.1115  0.1654 -0.0021
 2292DPPE   C4A49364  15.949  10.383  20.352 -0.2408  0.1114  0.0251
 2292DPPE   C1B49365  17.343  10.159  20.919  0.0497  0.2435  0.1243
 2292DPPE   C2B49366  17.022  10.037  20.590 -0.0936 -0.0833 -0.1457
 2292DPPE   C3B49367  16.792   9.783  20.358 -0.0655 -0.2530  0.0789
 2292DPPE   C4B49368  16.602   9.906  19.950 -0.0282 -0.0364 -0.2285
 2293DPPE   NH349369  19.527  17.609  22.915  0.2493 -0.0055  0.1578
 2293DPPE   PO449370  19.767  18.000  22.876 -0.2518 -0.3418  0.3087
 2293DPPE   GL149371  19.698  17.861  22.458 -0.3508 -0.1062  0.0239
 2293DPPE   GL249372  19.895  17.961  22.277  0.1944 -0.0343 -0.1674
 2293DPPE   C1A49373  19.401  18.006  22.191  0.3438 -0.2463 -0.0991
 2293DPPE   C2A49374  18.987  17.800  21.929 -0.1500 -0.0920  0.1397
 2293DPPE   C3A49375  18.716  17.999  21.570  0.1688  0.4593  0.0529
 2293DPPE   C4A49376  18.586  18.103  21.144  0.1942 -0.1117  0.1345
 2293DPPE   C1B49377  19.877  17.820  21.854  0.2272  0.3425 -0.0114
 2293DPPE   C2B49378  19.441  17.735  21.513 -0.2534  0.2241  0.0970
 2293DPPE   C3B49379  19.050  17.609  21.339  0.1017 -0.3241 -0.1176
 2293DPPE   C4B49380  18.635  17.511  21.398 -0.2632 -0.3790 -0.0978
 2294DPPE   NH349381  23.648  14.603  18.926 -0.2547  0.2762 -0.0016
 2294DPPE   PO449382  23.413  14.917  18.738 -0.2379  0.1086 -0.2654
 2294DPPE   GL149383  23.013  15.060  18.624  0.0237 -0.3330  0.2444
 2294DPPE   GL249384  22.842  14.889  18.894 -0.1270 -0.0651  0.3873
 2294DPPE   C1A49385  22.793  15.422  18.484  0.0936 -0.1495 -0.3074
 2294DPPE   C2A49386  22.440  15.260  18.328 -0.0741  0.4704  0.3491
 2294DPPE   C3A49387  22.144  15.368  18.430  0.3448  0.0622 -0.0179
 2294DPPE   C4A49388  21.823  15.689  18.651  0.3326 -0.1915 -0.2682
 2294DPPE   C1B49389  22.440  14.868  18.688  0.2709 -0.0134  0.0355
 2294DPPE   C2B49390  22.113  14.830  18.410 -0.0464 -0.1249 -0.0899
 2294DPPE   C3B49391  22.132  14.456  18.302 -0.0530 -0.0603  0.1653
 2294DPPE   C4B49392  21.972  14.016  18.450  0.1019  0.0743  0.2115
 2295DPPE   NH349393  10.186  20.426  22.732  0.1622 -0.1696 -0.2861
 2295DPPE   PO449394   9.689  20.368  22.690 -0.0942  0.2848  0.2818
 2295DPPE   GL149395   9.724  20.581  22.324 -0.0476 -0.0605 -0.0138
 2295DPPE   GL249396  10.041  20.548  22.200 -0.1401 -0.4812  0.0705
 2295DPPE   C1A49397   9.571  20.468  21.844  0.2422 -0.1416  0.1027
 2295DPPE   C2A49398   9.370  20.459  21.440  0.0492  0.0587 -0.1818
 2295DPPE   C3A49399   9.019  20.768  21.315 -0.1911  0.0178  0.1396
 2295DPPE   C4A49400   8.720  21.006  21.187 -0.3109 -0.1614 -0.2305
 2295DPPE   C1B49401  10.016  20.655  21.782  0.1317  0.0269  0.3974
 2295DPPE   C2B49402   9.926  20.453  21.431 -0.0204 -0.0573  0.2162
 2295DPPE   C3B49403   9.652  20.346  21.061 -0.3902  0.0711  0.0001
 2295DPPE   C4B49404   9.508  20.118  20.702 -0.1557  0.3006  0.2077
 2296DPPE   NH349405  17.615  14.670  22.990 -0.2975  0.0410 -0.0468
 2296DPPE   PO449406  17.326  14.967  23.069 -0.1495  0.1824 -0.1943
 2296DPPE   GL149407  17.312  15.153  22.602 -0.1523  0.1186  0.1371
 2296DPPE   GL249408  17.012  15.397  22.546 -0.2937 -0.0381  0.1481
 2296DPPE   C1A49409  17.471  15.340  22.248 -0.1990  0.0091  0.1443
 2296DPPE   C2A49410  17.233  15.603  21.883 -0.1783  0.2640  0.3941
 2296DPPE   C3A49411  17.028  15.745  21.391  0.0580 -0.0461  0.2565
 2296DPPE   C4A49412  16.864  15.783  20.991  0.0338 -0.1147  0.1456
 2296DPPE   C1B49413  16.996  15.283  22.139 -0.3905 -0.1400  0.5213
 2296DPPE   C2B49414  16.833  15.276  21.667  0.4744  0.1011  0.2513
 2296DPPE   C3B49415  16.793  15.262  21.215 -0.1941 -0.2016  0.0275
 2296DPPE   C4B49416  16.497  15.464  20.966  0.1100 -0.2478 -0.2146
 2297DPPE   NH349417  15.835  12.668  23.009 -0.0568 -0.1818 -0.0973
 2297DPPE   PO449418  15.742  13.078  23.000  0.0288  0.0094 -0.2122
 2297DPPE   GL149419  15.818  13.047  22.580 -0.0151 -0.2210 -0.0988
 2297DPPE   GL249420  15.634  13.369  22.603 -0.2026  0.0568 -0.2842
 2297DPPE   C1A49421  15.726  12.944  22.176 -0.0742  0.2176 -0.0614
 2297DPPE   C2A49422  15.753  12.684  21.840  0.0710  0.1868  0.0334
 2297DPPE   C3A49423  15.847  12.577  21.325 -0.1354 -0.0050  0.2396
 2297DPPE   C4A49424  15.669  12.572  20.836  0.0263 -0.2085 -0.1519
 2297DPPE   C1B49425  15.299  13.225  22.291 -0.0428  0.0503  0.0014
 2297DPPE   C2B49426  15.277  12.981  21.917 -0.1235 -0.0387 -0.0757
 2297DPPE   C3B49427  15.009  12.704  21.655 -0.0632  0.3022 -0.0727
 2297DPPE   C4B49428  15.002  12.458  21.341 -0.0612  0.0096 -0.0284
 2298DPPE   NH349429   2.954  14.961  19.679  0.0630 -0.1477 -0.2196
 2298DPPE   PO449430   3.213  14.674  19.545 -0.3084  0.2107  0.0249
 2298DPPE   GL149431   3.610  14.501  19.302  0.2013  0.1833 -0.1082
 2298DPPE   GL249432   3.751  14.669  19.370  0.0016  0.1256 -0.1711
 2298DPPE   C1A49433   4.030  14.220  19.217 -0.3218  0.0849 -0.0327
 2298DPPE   C2A49434   4.362  13.909  18.979  0.3122 -0.2245  0.1302
 2298DPPE   C3A49435   4.693  13.567  18.769  0.0462 -0.0236  0.2138
 2298DPPE   C4A49436   4.624  13.135  18.780  0.1646 -0.1739 -0.3637
 2298DPPE   C1B49437   4.221  14.675  19.485  0.0602 -0.1096 -0.0031
 2298DPPE   C2B49438   4.674  14.573  19.658 -0.0278 -0.0082 -0.2805
 2298DPPE   C3B49439   4.970  14.770  19.789 -0.1703 -0.1154  0.1442
 2298DPPE   C4B49440   5.122  15.122  20.047 -0.0474 -0.1055 -0.3373
 2299DPPE   NH349441  20.794  15.734  22.046  0.0924 -0.0550  0.2039
 2299DPPE   PO449442  20.583  16.150  22.096 -0.3797  0.0631 -0.2270
 2299DPPE   GL149443  20.506  15.889  21.698  0.0716  0.2604  0.1146
 2299DPPE   GL249444  20.861  16.087  21.644 -0.2342 -0.1889  0.2323
 2299DPPE   C1A49445  20.465  15.715  21.310  0.0577 -0.0460  0.0072
 2299DPPE   C2A49446  20.634  15.529  21.002 -0.0022 -0.2694  0.3864
 2299DPPE   C3A49447  20.594  15.370  20.679 -0.0538  0.1353  0.4223
 2299DPPE   C4A49448  20.767  15.371  20.422  0.0993  0.1877  0.2581
 2299DPPE   C1B49449  20.525  16.230  21.296 -0.0390  0.1353 -0.0158
 2299DPPE   C2B49450  20.109  16.097  21.031 -0.1688 -0.5082  0.2315
 2299DPPE   C3B49451  19.705  15.981  20.817 -0.2723 -0.2133  0.0365
 2299DPPE   C4B49452  19.225  15.943  20.780 -0.0764 -0.1380  0.0331
 2300DPPE   NH349453   3.987  22.348  19.611  0.1004  0.3245 -0.2100
 2300DPPE   PO449454   4.312  22.654  19.643  0.1535 -0.3032  0.0313
 2300DPPE   GL149455   4.602  22.330  19.839 -0.1526 -0.1693 -0.3073
 2300DPPE   GL249456   4.942  22.541  19.632  0.2069  0.2452 -0.2434
 2300DPPE   C1A49457   4.840  22.299  20.266  0.0503 -0.1627 -0.0829
 2300DPPE   C2A49458   5.013  22.030  20.564  0.0185 -0.1268  0.0567
 2300DPPE   C3A49459   5.223  21.724  20.840  0.0020  0.0197 -0.0569
 2300DPPE   C4A49460   5.302  21.315  20.980 -0.3478  0.3825  0.2369
 2300DPPE   C1B49461   4.849  22.159  19.394  0.1065  0.1895 -0.2371
 2300DPPE   C2B49462   5.119  21.859  19.393 -0.0224  0.0785  0.1473
 2300DPPE   C3B49463   5.104  21.516  19.635 -0.0535  0.0624 -0.1022
 2300DPPE   C4B49464   4.988  21.281  19.944  0.1541  0.2335  0.1069
 2301DPPE   NH349465  12.843  13.941  23.000  0.2221  0.1721 -0.0924
 2301DPPE   PO449466  12.556  13.636  23.001  0.0412  0.3940 -0.1693
 2301DPPE   GL149467  12.653  13.610  22.554 -0.0662  0.1934 -0.0943
 2301DPPE   GL249468  12.416  13.755  22.379 -0.0025  0.0660  0.2468
 2301DPPE   C1A49469  12.810  13.335  22.226  0.3473 -0.0236  0.1936
 2301DPPE   C2A49470  12.957  13.355  21.768  0.0649 -0.1910  0.4886
 2301DPPE   C3A49471  13.061  13.391  21.260  0.3634 -0.0665  0.3013
 2301DPPE   C4A49472  13.246  13.725  20.938 -0.0928 -0.1889 -0.1854
 2301DPPE   C1B49473  12.581  13.681  21.899  0.3548 -0.0107 -0.1765
 2301DPPE   C2B49474  12.622  13.671  21.398  0.0211 -0.1790 -0.3929
 2301DPPE   C3B49475  12.740  13.744  20.917  0.0410  0.1944  0.1262
 2301DPPE   C4B49476  12.821  13.623  20.486  0.2352 -0.1140  0.0946
 2302DPPE   NH349477  19.317  14.080  22.578 -0.0078 -0.4050 -0.0022
 2302DPPE   PO449478  18.852  14.151  22.757  0.0755  0.3426  0.1703
 2302DPPE   GL149479  18.845  14.176  22.383 -0.2863  0.1959 -0.4923
 2302DPPE   GL249480  18.742  13.962  22.138 -0.3970 -0.0565 -0.1041
 2302DPPE   C1A49481  18.715  14.507  22.122  0.0727  0.0673 -0.1493
 2302DPPE   C2A49482  18.670  14.853  21.849 -0.0097  0.2095  0.2794
 2302DPPE   C3A49483  18.645  15.017  21.398  0.0373  0.0914  0.1332
 2302DPPE   C4A49484  18.578  15.004  21.007 -0.1438 -0.1619  0.2925
 2302DPPE   C1B49485  18.601  13.866  21.805  0.0488  0.1091  0.1770
 2302DPPE   C2B49486  18.348  13.965  21.510 -0.1619  0.0066 -0.0724
 2302DPPE   C3B49487  18.318  13.904  21.008  0.1253  0.1286 -0.0739
 2302DPPE   C4B49488  18.200  13.784  20.696 -0.1629  0.0342  0.0966
 2303DPPE   NH349489   9.983  22.490  22.674  0.0691 -0.0331  0.3497
 2303DPPE   PO449490   9.553  22.374  22.791 -0.2405  0.2975  0.0898
 2303DPPE   GL149491   9.367  22.339  22.370  0.1373  0.0898  0.0406
 2303DPPE   GL249492   9.126  22.649  22.426 -0.0618 -0.0611  0.3303
 2303DPPE   C1A49493   9.087  22.440  21.949  0.0376 -0.0480  0.0953
 2303DPPE   C2A49494   9.259  22.666  21.548  0.0779 -0.2588 -0.2068
 2303DPPE   C3A49495   9.583  22.871  21.217 -0.0848  0.1434  0.0448
 2303DPPE   C4A49496   9.725  23.034  20.853 -0.1983 -0.0764  0.3384
 2303DPPE   C1B49497   9.191  22.934  22.019  0.0573 -0.0394 -0.1658
 2303DPPE   C2B49498   9.363  23.136  21.618  0.0583 -0.1355 -0.2084
 2303DPPE   C3B49499   9.436  23.426  21.213  0.4435  0.1118 -0.0157
 2303DPPE   C4B49500   9.221  23.549  20.900 -0.1414  0.5042 -0.3041
 2304DPPE   NH349501  12.630  15.690  23.201  0.0152 -0.2083  0.0451
 2304DPPE   PO449502  12.732  15.370  22.963  0.0542 -0.1785  0.1303
 2304DPPE   GL149503  12.996  15.228  22.666 -0.0641  0.0755 -0.0218
 2304DPPE   GL249504  12.836  15.107  22.494 -0.0629 -0.0307  0.2524
 2304DPPE   C1A49505  13.380  15.312  22.537 -0.0679 -0.0882  0.1016
 2304DPPE   C2A49506  13.501  15.267  22.127 -0.1646 -0.1782 -0.0470
 2304DPPE   C3A49507  13.701  15.512  21.806  0.0683  0.0976 -0.2216
 2304DPPE   C4A49508  13.919  15.437  21.544 -0.2019  0.0921 -0.1331
 2304DPPE   C1B49509  12.527  15.251  22.194  0.4253 -0.1614 -0.1136
 2304DPPE   C2B49510  12.583  15.295  21.749  0.4013 -0.2279  0.2514
 2304DPPE   C3B49511  12.699  15.389  21.344 -0.1912 -0.2659 -0.1336
 2304DPPE   C4B49512  12.934  15.175  21.073 -0.0995 -0.0202  0.0321
 2305DPPE   NH349513  16.046  21.069  23.199  0.0093  0.0876 -0.0190
 2305DPPE   PO449514  16.214  20.739  22.863 -0.0816 -0.0946  0.7241
 2305DPPE   GL149515  16.476  20.789  22.487 -0.2518  0.2746 -0.0583
 2305DPPE   GL249516  16.728  20.683  22.292 -0.0280 -0.0474 -0.0143
 2305DPPE   C1A49517  16.501  21.088  22.288  0.0138  0.0851 -0.0730
 2305DPPE   C2A49518  16.219  21.218  21.989  0.0960 -0.0751 -0.2409
 2305DPPE   C3A49519  16.235  21.457  21.602 -0.1898  0.0939 -0.0019
 2305DPPE   C4A49520  16.346  21.377  21.205  0.0701  0.1280 -0.2639
 2305DPPE   C1B49521  16.338  20.662  22.022  0.0781 -0.1416 -0.3718
 2305DPPE   C2B49522  15.957  20.593  21.799  0.1224  0.0495 -0.0582
 2305DPPE   C3B49523  15.548  20.745  21.566  0.1139  0.0239 -0.0797
 2305DPPE   C4B49524  15.323  20.711  21.100  0.0258  0.0843  0.0720
 2306DPPE   NH349525  13.343  20.965  22.879 -0.2013  0.0904 -0.0498
 2306DPPE   PO449526  13.172  20.580  22.837 -0.0584  0.2751 -0.0550
 2306DPPE   GL149527  13.355  20.658  22.429  0.0035 -0.0905 -0.0187
 2306DPPE   GL249528  13.254  21.010  22.314 -0.1157  0.0678  0.2461
 2306DPPE   C1A49529  13.344  20.581  22.040 -0.0314  0.0083  0.1201
 2306DPPE   C2A49530  13.378  20.430  21.676  0.1923 -0.0681  0.0542
 2306DPPE   C3A49531  13.341  20.442  21.269 -0.3655  0.1114  0.1679
 2306DPPE   C4A49532  13.452  20.718  20.888 -0.2243 -0.1409 -0.2685
 2306DPPE   C1B49533  13.241  21.056  21.829 -0.2646  0.1746 -0.2123
 2306DPPE   C2B49534  13.224  21.139  21.427 -0.1517  0.0878 -0.1479
 2306DPPE   C3B49535  12.997  20.881  21.118 -0.0777 -0.2587  0.0397
 2306DPPE   C4B49536  12.916  20.510  20.974  0.2566  0.2112  0.0757
 2307DPPE   NH349537  16.230  27.146  20.618  0.1082 -0.1423  0.1256
 2307DPPE   PO449538  16.654  26.992  20.538  0.0103  0.3568 -0.2201
 2307DPPE   GL149539  16.669  26.875  20.122  0.1775 -0.1178 -0.1150
 2307DPPE   GL249540  16.802  26.496  20.160  0.0228  0.0337 -0.1349
 2307DPPE   C1A49541  16.589  26.876  19.713 -0.2282 -0.0386 -0.0583
 2307DPPE   C2A49542  16.530  26.833  19.167 -0.0537  0.1297 -0.0603
 2307DPPE   C3A49543  16.645  26.910  18.681 -0.2353  0.1757  0.3388
 2307DPPE   C4A49544  16.670  26.746  18.227  0.3369  0.0190  0.0565
 2307DPPE   C1B49545  16.869  26.465  19.737  0.0281  0.1447 -0.1665
 2307DPPE   C2B49546  17.069  26.129  19.579 -0.0853  0.0401  0.1880
 2307DPPE   C3B49547  16.963  25.760  19.565 -0.2419  0.1727  0.3187
 2307DPPE   C4B49548  16.772  25.517  19.164 -0.0365 -0.2070 -0.1889
 2308DPPE   NH349549  15.296  21.912  17.954  0.2045 -0.0052 -0.0685
 2308DPPE   PO449550  15.194  22.312  17.753 -0.0411  0.0357 -0.0294
 2308DPPE   GL149551  15.224  22.422  18.210 -0.2345 -0.0324 -0.4616
 2308DPPE   GL249552  15.128  22.623  18.421 -0.0599  0.1812  0.0440
 2308DPPE   C1A49553  15.170  22.102  18.556  0.0688 -0.2115  0.2483
 2308DPPE   C2A49554  15.178  22.006  18.952 -0.3159  0.1038  0.2425
 2308DPPE   C3A49555  15.163  22.067  19.374 -0.1900 -0.0403  0.0087
 2308DPPE   C4A49556  15.017  22.012  19.767 -0.0409 -0.0645 -0.1835
 2308DPPE   C1B49557  15.023  22.607  18.849 -0.1444 -0.2245  0.0912
 2308DPPE   C2B49558  14.802  22.747  19.213  0.0292  0.1361 -0.3114
 2308DPPE   C3B49559  14.798  22.952  19.612  0.1106 -0.2347  0.1560
 2308DPPE   C4B49560  14.616  23.353  19.666 -0.1688 -0.5625  0.2594
 2309DPPE   NH349561   9.747  21.883  18.875 -0.4350  0.1018  0.0031
 2309DPPE   PO449562   9.575  21.463  18.854 -0.2005 -0.0745  0.3671
 2309DPPE   GL149563   9.858  21.511  19.267  0.2162  0.0890 -0.0242
 2309DPPE   GL249564  10.137  21.646  19.067  0.3907 -0.1053  0.2347
 2309DPPE   C1A49565   9.838  21.624  19.672  0.0007  0.0872  0.1302
 2309DPPE   C2A49566  10.000  21.632  20.051 -0.0297  0.0528 -0.1398
 2309DPPE   C3A49567   9.886  21.681  20.532 -0.0045  0.0602  0.0119
 2309DPPE   C4A49568   9.961  21.473  20.991 -0.1515  0.3659  0.0901
 2309DPPE   C1B49569  10.469  21.788  19.347 -0.0021 -0.4441 -0.1709
 2309DPPE   C2B49570  10.420  21.831  19.691 -0.1078  0.1152  0.2038
 2309DPPE   C3B49571  10.465  21.857  20.089  0.2399 -0.1721 -0.0515
 2309DPPE   C4B49572  10.506  21.902  20.531  0.2272  0.1121 -0.0961
 2310DPPE   NH349573   9.594  17.236  18.591 -0.1842 -0.1907 -0.2192
 2310DPPE   PO449574   9.264  17.051  18.409  0.2774 -0.1786 -0.0643
 2310DPPE   GL149575   9.087  17.117  18.777  0.1045  0.2946 -0.1690
 2310DPPE   GL249576   8.764  17.058  18.680 -0.3032 -0.1169 -0.1562
 2310DPPE   C1A49577   8.906  17.411  19.064 -0.0745  0.1552 -0.2816
 2310DPPE   C2A49578   8.802  17.650  19.424  0.2990  0.0688 -0.0784
 2310DPPE   C3A49579   8.774  17.856  19.820 -0.0523  0.2878 -0.1564
 2310DPPE   C4A49580   8.627  17.648  20.104 -0.3881  0.2496  0.3595
 2310DPPE   C1B49581   8.862  16.976  19.255 -0.0635  0.0920 -0.3301
 2310DPPE   C2B49582   8.921  17.202  19.703  0.0342 -0.1495 -0.1273
 2310DPPE   C3B49583   8.810  17.192  20.132  0.0648 -0.0506 -0.0467
 2310DPPE   C4B49584   9.076  17.282  20.503  0.0762  0.3073 -0.3428
 2311DPPE   NH349585   8.121  23.260  19.067 -0.2929 -0.0150 -0.1859
 2311DPPE   PO449586   8.255  23.663  18.973 -0.2610  0.1984 -0.0353
 2311DPPE   GL149587   8.208  23.965  19.267 -0.0393 -0.0669 -0.0386
 2311DPPE   GL249588   8.203  23.759  19.518  0.4418  0.2904  0.0941
 2311DPPE   C1A49589   8.414  24.233  19.605 -0.1500  0.0086 -0.1598
 2311DPPE   C2A49590   8.496  24.618  19.769 -0.3026 -0.0483  0.3771
 2311DPPE   C3A49591   8.548  24.950  20.102  0.3129  0.1355  0.0108
 2311DPPE   C4A49592   8.805  25.315  20.314  0.2005 -0.1497 -0.3931
 2311DPPE   C1B49593   7.860  24.047  19.702 -0.0129  0.2424  0.1308
 2311DPPE   C2B49594   7.597  24.321  19.959 -0.0982 -0.0575  0.3163
 2311DPPE   C3B49595   7.347  24.145  20.306 -0.1609 -0.0492  0.2870
 2311DPPE   C4B49596   7.499  24.073  20.690 -0.0948 -0.0865  0.0825
 2312DPPE   NH349597  18.020  13.335  17.951  0.0343 -0.0418  0.3071
 2312DPPE   PO449598  17.722  13.552  18.124 -0.0132 -0.0883 -0.1682
 2312DPPE   GL149599  17.628  13.675  18.562 -0.2562 -0.0057  0.0906
 2312DPPE   GL249600  17.414  14.004  18.588 -0.1126 -0.1761 -0.0400
 2312DPPE   C1A49601  17.688  13.537  19.009  0.0145  0.1100  0.2454
 2312DPPE   C2A49602  17.740  13.569  19.412  0.1877  0.1010  0.1507
 2312DPPE   C3A49603  17.799  13.565  19.885 -0.1660  0.0913  0.0996
 2312DPPE   C4A49604  17.870  13.705  20.252 -0.0411  0.0769 -0.2124
 2312DPPE   C1B49605  17.501  14.086  19.023 -0.0525 -0.3135 -0.0552
 2312DPPE   C2B49606  17.520  14.140  19.439 -0.2040  0.1801  0.1271
 2312DPPE   C3B49607  17.565  14.161  20.018 -0.1267  0.0296  0.1353
 2312DPPE   C4B49608  17.562  14.042  20.466  0.2898 -0.0508 -0.1481
 2313DPPE   NH349609  13.086  10.621  17.998 -0.0418 -0.0086 -0.2222
 2313DPPE   PO449610  12.717  10.809  18.033 -0.1015 -0.0455 -0.1636
 2313DPPE   GL149611  12.865  10.904  18.365  0.0056  0.0137 -0.3654
 2313DPPE   GL249612  12.856  11.227  18.577  0.1819  0.3232 -0.0138
 2313DPPE   C1A49613  13.037  10.813  18.901  0.1798  0.1219  0.0365
 2313DPPE   C2A49614  13.019  10.668  19.349  0.1349 -0.0818 -0.1615
 2313DPPE   C3A49615  13.229  10.706  19.795  0.0072  0.1180 -0.1881
 2313DPPE   C4A49616  13.089  11.001  20.283  0.1494 -0.0216  0.0519
 2313DPPE   C1B49617  12.780  11.311  19.086  0.0079  0.0646  0.0173
 2313DPPE   C2B49618  12.811  11.219  19.473 -0.2111  0.2850  0.6552
 2313DPPE   C3B49619  12.842  11.133  19.857 -0.0538  0.0755  0.3349
 2313DPPE   C4B49620  12.805  10.654  20.048 -0.0796  0.3034 -0.1069
 2314DPPE   NH349621  16.167  10.520  18.031 -0.1623  0.0833  0.2870
 2314DPPE   PO449622  15.734  10.484  17.931 -0.2858 -0.0472  0.3907
 2314DPPE   GL149623  15.952  10.159  18.291  0.0504  0.0090  0.0463
 2314DPPE   GL249624  16.082   9.964  18.172  0.1328  0.1298 -0.3733
 2314DPPE   C1A49625  15.891  10.130  18.738  0.1341  0.4714 -0.1060
 2314DPPE   C2A49626  15.667   9.857  19.056  0.1558  0.2875  0.3118
 2314DPPE   C3A49627  15.609   9.707  19.347 -0.2708 -0.1849 -0.1604
 2314DPPE   C4A49628  15.533   9.522  19.683 -0.5885 -0.0925  0.0373
 2314DPPE   C1B49629  16.179   9.559  18.384  0.0661  0.1579 -0.0629
 2314DPPE   C2B49630  16.118   9.370  18.753  0.1941 -0.1925  0.1901
 2314DPPE   C3B49631  15.907   9.021  18.968  0.3524  0.1597  0.0944
 2314DPPE   C4B49632  15.548   8.829  18.675 -0.2456 -0.1297  0.1109
 2315DPPE   NH349633   7.543  13.350  18.162  0.2775  0.0795 -0.1337
 2315DPPE   PO449634   7.264  13.640  18.342  0.2504 -0.0272  0.3404
 2315DPPE   GL149635   6.983  13.538  18.794  0.1034 -0.3731  0.2664
 2315DPPE   GL249636   7.081  13.299  18.983  0.0473 -0.0103 -0.0154
 2315DPPE   C1A49637   6.573  13.399  19.003 -0.1804 -0.0342  0.2046
 2315DPPE   C2A49638   6.084  13.484  19.160  0.2126 -0.0871 -0.1056
 2315DPPE   C3A49639   5.649  13.436  18.916  0.1657  0.0558 -0.0303
 2315DPPE   C4A49640   5.161  13.413  18.771 -0.0903  0.2228 -0.1887
 2315DPPE   C1B49641   6.901  13.177  19.401 -0.0657 -0.0031  0.0621
 2315DPPE   C2B49642   6.982  13.400  19.785  0.0259 -0.2360 -0.3499
 2315DPPE   C3B49643   7.261  13.642  20.079 -0.3160  0.2740  0.3646
 2315DPPE   C4B49644   7.407  13.522  20.415 -0.0201  0.0081 -0.1182
 2316DPPE   NH349645  14.810  12.746  17.953  0.1421 -0.0830  0.2222
 2316DPPE   PO449646  14.978  12.583  18.321 -0.0012 -0.0899 -0.0759
 2316DPPE   GL149647  14.964  12.429  18.692  0.1760  0.2731  0.1591
 2316DPPE   GL249648  15.240  12.289  18.774  0.0533 -0.0830  0.2630
 2316DPPE   C1A49649  14.814  12.413  19.126  0.2987  0.2176 -0.0088
 2316DPPE   C2A49650  14.842  12.301  19.476 -0.1849 -0.0471  0.4533
 2316DPPE   C3A49651  14.908  12.219  19.862 -0.0104 -0.1499 -0.1733
 2316DPPE   C4A49652  14.950  12.174  20.349 -0.0174  0.1733  0.0343
 2316DPPE   C1B49653  15.319  12.262  19.186  0.1276  0.1603 -0.0155
 2316DPPE   C2B49654  15.357  12.089  19.573  0.0585  0.0076 -0.0557
 2316DPPE   C3B49655  15.428  12.185  20.031 -0.3468  0.1058 -0.0173
 2316DPPE   C4B49656  15.397  12.158  20.538  0.2714 -0.0318  0.0043
 2317DPPE   NH349657  15.021  19.814  18.222 -0.1900  0.2783  0.1936
 2317DPPE   PO449658  15.059  20.170  18.484  0.0158  0.0907  0.1781
 2317DPPE   GL149659  14.981  20.345  18.843 -0.0449  0.2349  0.1024
 2317DPPE   GL249660  15.114  20.014  19.087 -0.1363  0.1239  0.0055
 2317DPPE   C1A49661  14.797  20.381  19.223 -0.2026 -0.0436  0.0489
 2317DPPE   C2A49662  14.717  20.391  19.631 -0.1806  0.0137  0.0019
 2317DPPE   C3A49663  14.843  20.341  20.033  0.0083  0.2356  0.1509
 2317DPPE   C4A49664  14.810  20.493  20.403 -0.0014  0.3047  0.0130
 2317DPPE   C1B49665  15.168  20.030  19.579  0.0083  0.2461  0.0783
 2317DPPE   C2B49666  15.277  20.093  20.060  0.0278  0.0598 -0.2759
 2317DPPE   C3B49667  15.250  20.269  20.474 -0.2984 -0.1472  0.0319
 2317DPPE   C4B49668  15.326  20.238  20.961 -0.1031 -0.2334 -0.2306
 2318DPPE   NH349669  12.923  17.403  18.154 -0.0928  0.0707  0.1229
 2318DPPE   PO449670  12.545  17.565  18.439 -0.1078  0.1965  0.1656
 2318DPPE   GL149671  12.597  17.745  18.801  0.0408  0.0461 -0.0370
 2318DPPE   GL249672  12.825  17.561  19.016 -0.1172  0.0239 -0.0624
 2318DPPE   C1A49673  12.418  17.718  19.278 -0.1580 -0.2393 -0.1197
 2318DPPE   C2A49674  12.460  17.703  19.714  0.0713  0.0696  0.0497
 2318DPPE   C3A49675  12.430  17.704  20.179  0.0471 -0.0353 -0.2371
 2318DPPE   C4A49676  12.247  17.594  20.583  0.1332  0.4127  0.1532
 2318DPPE   C1B49677  12.841  17.432  19.462 -0.3286  0.1605  0.2832
 2318DPPE   C2B49678  12.566  17.192  19.736 -0.2081 -0.0213  0.1342
 2318DPPE   C3B49679  12.479  17.222  20.050  0.2627  0.0164 -0.1144
 2318DPPE   C4B49680  12.564  17.199  20.509 -0.1361  0.1906 -0.2202
 2319DPPE   NH349681   8.192  10.859  18.429 -0.0024 -0.0611  0.1020
 2319DPPE   PO449682   8.483  10.545  18.172 -0.0263 -0.1886  0.2283
 2319DPPE   GL149683   8.059  10.359  18.256 -0.2033 -0.0953  0.1882
 2319DPPE   GL249684   7.807  10.569  18.128  0.1167 -0.2542 -0.0739
 2319DPPE   C1A49685   7.655  10.058  18.365  0.2385 -0.0561 -0.0436
 2319DPPE   C2A49686   7.444   9.703  18.238 -0.4171 -0.1583  0.0973
 2319DPPE   C3A49687   7.270   9.640  17.809  0.2055  0.0988 -0.2715
 2319DPPE   C4A49688   6.886   9.426  17.600  0.1683 -0.2158 -0.1546
 2319DPPE   C1B49689   7.313  10.640  18.069 -0.0589 -0.3260  0.4031
 2319DPPE   C2B49690   6.858  10.641  18.175 -0.1041  0.2082  0.0364
 2319DPPE   C3B49691   6.417  10.670  18.015  0.2059 -0.2971  0.2806
 2319DPPE   C4B49692   5.885  10.586  18.100 -0.0922  0.1361  0.1735
 2320DPPE   NH349693  17.987  21.118  17.905  0.0318 -0.2474  0.2030
 2320DPPE   PO449694  18.106  20.797  17.888 -0.0526  0.0724 -0.1164
 2320DPPE   GL149695  18.403  20.942  18.127 -0.1695 -0.1080 -0.0269
 2320DPPE   GL249696  18.276  21.294  18.372  0.1079  0.1166  0.1586
 2320DPPE   C1A49697  18.811  21.100  18.231 -0.0766  0.2301  0.2644
 2320DPPE   C2A49698  19.154  21.317  17.979  0.0578 -0.3339  0.0632
 2320DPPE   C3A49699  19.507  21.762  17.928  0.4027  0.1489 -0.1863
 2320DPPE   C4A49700  19.848  21.980  17.700  0.0725 -0.1113  0.0207
 2320DPPE   C1B49701  18.475  21.208  18.721 -0.0806 -0.1540  0.3953
 2320DPPE   C2B49702  18.869  21.389  18.757  0.0680  0.0634  0.1211
 2320DPPE   C3B49703  19.281  21.584  18.795  0.0752 -0.0019 -0.0937
 2320DPPE   C4B49704  19.723  21.477  18.769  0.5093 -0.0186 -0.0344
 2321DPPE   NH349705  15.634  16.585  18.590 -0.0299  0.1478  0.5981
 2321DPPE   PO449706  15.590  17.068  18.577  0.1144  0.1371  0.3180
 2321DPPE   GL149707  15.378  17.011  19.039  0.0425  0.2007 -0.2161
 2321DPPE   GL249708  15.534  16.753  19.001 -0.0556  0.2517 -0.0582
 2321DPPE   C1A49709  15.151  16.811  19.281  0.3019 -0.3277  0.0936
 2321DPPE   C2A49710  15.151  16.631  19.775  0.1250  0.0180  0.4231
 2321DPPE   C3A49711  15.198  16.697  20.146  0.1377  0.1653  0.0842
 2321DPPE   C4A49712  15.244  16.648  20.617 -0.2870 -0.2669  0.0097
 2321DPPE   C1B49713  15.568  16.693  19.519  0.1545 -0.2073 -0.0660
 2321DPPE   C2B49714  15.620  16.630  19.892 -0.2433 -0.1477  0.0044
 2321DPPE   C3B49715  15.696  16.663  20.353  0.4962 -0.0412 -0.2278
 2321DPPE   C4B49716  15.674  16.657  20.851 -0.2339 -0.1905 -0.2677
 2322DPPE   NH349717  12.684  14.087  17.813  0.0049  0.2529 -0.0668
 2322DPPE   PO449718  12.907  13.705  17.881 -0.0668  0.0881 -0.0004
 2322DPPE   GL149719  12.866  13.789  18.332 -0.3837 -0.0362 -0.1933
 2322DPPE   GL249720  13.144  13.808  18.573 -0.0134  0.1452  0.1310
 2322DPPE   C1A49721  12.728  13.997  18.749  0.2714 -0.1182 -0.3777
 2322DPPE   C2A49722  12.766  14.028  19.245  0.1863 -0.0639 -0.0612
 2322DPPE   C3A49723  12.807  13.949  19.641  0.2096 -0.1097 -0.4694
 2322DPPE   C4A49724  12.727  13.885  20.069 -0.0223 -0.1128 -0.2918
 2322DPPE   C1B49725  13.200  13.989  18.974 -0.0230 -0.0947  0.1868
 2322DPPE   C2B49726  13.284  13.936  19.411  0.0112  0.1822  0.3786
 2322DPPE   C3B49727  13.449  13.897  19.866 -0.2405 -0.1880 -0.0134
 2322DPPE   C4B49728  13.249  13.795  20.293  0.1794  0.1894  0.4375
 2323DPPE   NH349729  18.935  18.782  18.385 -0.0792  0.1359 -0.0362
 2323DPPE   PO449730  18.627  18.915  18.538  0.1452 -0.2535 -0.2770
 2323DPPE   GL149731  18.664  18.879  18.947  0.1877  0.1431  0.0626
 2323DPPE   GL249732  18.613  18.626  19.090 -0.2930  0.1697  0.1486
 2323DPPE   C1A49733  18.836  19.138  19.167  0.2647  0.2377  0.1980
 2323DPPE   C2A49734  19.033  19.052  19.525 -0.1326 -0.0630 -0.3634
 2323DPPE   C3A49735  18.668  18.936  19.834  0.0803  0.0407 -0.1003
 2323DPPE   C4A49736  18.530  19.127  20.279 -0.0104  0.2234 -0.1693
 2323DPPE   C1B49737  18.326  18.771  19.327 -0.1073  0.0361 -0.1792
 2323DPPE   C2B49738  18.216  18.688  19.808  0.0273 -0.0207 -0.0205
 2323DPPE   C3B49739  18.330  18.648  20.206 -0.0486 -0.0583  0.2055
 2323DPPE   C4B49740  18.447  18.704  20.640  0.5034  0.2603 -0.1111
 2324DPPE   NH349741  13.019  21.390  18.471 -0.1026  0.1371 -0.0583
 2324DPPE   PO449742  12.951  21.714  18.122 -0.1007 -0.4024 -0.0461
 2324DPPE   GL149743  13.029  21.952  18.448 -0.1929  0.0626 -0.1091
 2324DPPE   GL249744  13.042  22.338  18.576 -0.0092 -0.0353 -0.0801
 2324DPPE   C1A49745  12.902  22.015  18.919  0.0555  0.1269  0.2210
 2324DPPE   C2A49746  12.833  22.095  19.327 -0.2092 -0.2445  0.0334
 2324DPPE   C3A49747  12.802  22.186  19.793 -0.1186  0.0897 -0.1225
 2324DPPE   C4A49748  12.850  22.131  20.197  0.0552  0.0108  0.0746
 2324DPPE   C1B49749  12.898  22.527  19.053 -0.3515  0.2184  0.0388
 2324DPPE   C2B49750  12.941  22.535  19.487  0.0845 -0.2072 -0.1150
 2324DPPE   C3B49751  12.843  22.714  19.943  0.2723  0.0947 -0.1130
 2324DPPE   C4B49752  12.952  22.754  20.308 -0.1508 -0.2785 -0.2152
 2325DPPE   NH349753  15.690  21.621  18.066 -0.0899  0.0284  0.0465
 2325DPPE   PO449754  15.790  21.300  18.230  0.0528  0.2510  0.0231
 2325DPPE   GL149755  15.723  21.396  18.607  0.0380 -0.4381  0.1463
 2325DPPE   GL249756  15.607  21.733  18.548  0.0282  0.0616  0.2868
 2325DPPE   C1A49757  15.565  21.453  19.040 -0.1649  0.2771 -0.0750
 2325DPPE   C2A49758  15.478  21.654  19.445  0.1783 -0.5280  0.1584
 2325DPPE   C3A49759  15.349  21.628  19.901  0.1516 -0.4863  0.0248
 2325DPPE   C4A49760  15.480  21.667  20.379 -0.0101 -0.2858 -0.0268
 2325DPPE   C1B49761  15.705  22.008  18.900 -0.3054  0.2284 -0.0822
 2325DPPE   C2B49762  15.686  22.091  19.224 -0.1082 -0.1106 -0.2989
 2325DPPE   C3B49763  15.537  22.191  19.619 -0.1013 -0.0979 -0.0048
 2325DPPE   C4B49764  15.306  22.252  20.087  0.0971 -0.1648  0.2469
 2326DPPE   NH349765  16.782  19.249  18.734  0.2237  0.0560 -0.1680
 2326DPPE   PO449766  16.807  19.663  19.013 -0.1027 -0.2179 -0.0055
 2326DPPE   GL149767  16.933  20.023  19.259 -0.4734  0.0875  0.0319
 2326DPPE   GL249768  17.117  20.336  19.291 -0.1729  0.1163 -0.1340
 2326DPPE   C1A49769  16.665  20.136  19.693  0.1608 -0.2672  0.0719
 2326DPPE   C2A49770  16.607  20.210  20.170  0.0945 -0.0241  0.0798
 2326DPPE   C3A49771  16.625  20.230  20.615 -0.1133 -0.1661  0.1581
 2326DPPE   C4A49772  16.774  20.662  20.872 -0.0430  0.3450 -0.1002
 2326DPPE   C1B49773  17.228  20.634  19.734  0.0571 -0.3835  0.0937
 2326DPPE   C2B49774  17.474  20.569  20.048 -0.0052  0.1351 -0.1797
 2326DPPE   C3B49775  17.897  20.326  20.183  0.2573  0.0456  0.3065
 2326DPPE   C4B49776  18.096  20.073  20.184  0.0348  0.0525  0.0748
 2327DPPE   NH349777  15.751  15.977  18.500  0.2849  0.3815 -0.0415
 2327DPPE   PO449778  15.388  16.208  18.402 -0.3101  0.0528 -0.2719
 2327DPPE   GL149779  15.400  16.160  18.851 -0.0269  0.0252 -0.0568
 2327DPPE   GL249780  15.216  16.391  18.961  0.0738  0.3049 -0.0965
 2327DPPE   C1A49781  15.437  15.824  19.191 -0.2105 -0.0284 -0.1550
 2327DPPE   C2A49782  15.497  15.730  19.633  0.3012  0.0676  0.1254
 2327DPPE   C3A49783  15.539  15.756  20.116 -0.0875 -0.1595  0.3698
 2327DPPE   C4A49784  15.529  15.752  20.585 -0.1165 -0.2327  0.3110
 2327DPPE   C1B49785  15.306  16.255  19.491  0.1003 -0.2463  0.1220
 2327DPPE   C2B49786  15.337  16.170  19.939  0.0060 -0.1206  0.0497
 2327DPPE   C3B49787  15.335  16.186  20.454 -0.3323  0.0234  0.0734
 2327DPPE   C4B49788  15.266  16.154  20.846  0.0718 -0.2379 -0.1866
 2328DPPE   NH349789   8.730  15.377  17.980  0.0052  0.0605 -0.2909
 2328DPPE   PO449790   8.413  15.185  18.316 -0.0177  0.2487 -0.1771
 2328DPPE   GL149791   8.506  15.234  18.796  0.2316 -0.3448  0.0999
 2328DPPE   GL249792   8.546  15.541  18.886 -0.3303  0.2105 -0.0719
 2328DPPE   C1A49793   8.432  15.183  19.217 -0.0018 -0.1283  0.1849
 2328DPPE   C2A49794   8.480  15.345  19.636  0.0923 -0.3981 -0.4837
 2328DPPE   C3A49795   8.208  15.524  19.908 -0.0340  0.1241 -0.0913
 2328DPPE   C4A49796   8.028  15.740  19.646 -0.2747  0.2586 -0.0437
 2328DPPE   C1B49797   8.814  15.673  19.173 -0.2138  0.3238 -0.0923
 2328DPPE   C2B49798   8.899  15.651  19.627 -0.1073 -0.3719 -0.2659
 2328DPPE   C3B49799   8.879  15.401  19.940  0.0927 -0.1392  0.1796
 2328DPPE   C4B49800   8.968  15.400  20.398 -0.2804  0.0189  0.1797
 2329DPPE   NH349801   8.365  12.556  18.996  0.1204  0.0963 -0.0726
 2329DPPE   PO449802   7.937  12.360  18.718  0.1819 -0.0803  0.1467
 2329DPPE   GL149803   8.004  12.191  19.161 -0.3001 -0.1122 -0.0929
 2329DPPE   GL249804   7.746  12.253  19.254  0.0433  0.0031 -0.2260
 2329DPPE   C1A49805   8.122  12.235  19.577  0.1423  0.1094 -0.2026
 2329DPPE   C2A49806   8.191  12.539  19.823  0.0415  0.0167  0.1447
 2329DPPE   C3A49807   7.908  12.443  20.183 -0.1226  0.2397  0.1857
 2329DPPE   C4A49808   7.704  12.166  20.434  0.0893 -0.0539  0.2843
 2329DPPE   C1B49809   7.597  12.260  19.636  0.0151  0.0119 -0.1072
 2329DPPE   C2B49810   7.341  11.917  19.590 -0.0468 -0.0056 -0.0195
 2329DPPE   C3B49811   7.111  11.573  19.826  0.2696 -0.0401  0.1059
 2329DPPE   C4B49812   7.169  11.391  20.186 -0.1518 -0.1684  0.1849
 2330DPPE   NH349813  16.640  11.358  17.889 -0.1446  0.0582  0.2031
 2330DPPE   PO449814  16.327  10.992  18.001  0.4612  0.1116 -0.1653
 2330DPPE   GL149815  16.107  10.913  18.356 -0.2536 -0.2963 -0.3474
 2330DPPE   GL249816  16.095  11.111  18.595  0.1532 -0.2486 -0.0372
 2330DPPE   C1A49817  16.197  10.533  18.712  0.0180 -0.2112  0.3142
 2330DPPE   C2A49818  16.124  10.335  19.156 -0.0449 -0.2936  0.2483
 2330DPPE   C3A49819  15.961  10.095  19.464 -0.3490  0.1568  0.2337
 2330DPPE   C4A49820  16.025   9.991  19.851  0.3240 -0.0446 -0.1167
 2330DPPE   C1B49821  16.153  11.196  18.994  0.1343 -0.0787 -0.0320
 2330DPPE   C2B49822  16.193  11.121  19.484  0.0464  0.4090  0.0160
 2330DPPE   C3B49823  16.261  10.878  19.800 -0.0502  0.1963 -0.1386
 2330DPPE   C4B49824  16.094  10.875  20.275  0.1654  0.1837 -0.0409
 2331DPPE   NH349825  13.194  17.731  18.729  0.0158 -0.1019  0.1557
 2331DPPE   PO449826  13.042  17.290  18.658 -0.2398 -0.0324  0.0645
 2331DPPE   GL149827  13.182  17.185  19.006  0.0196 -0.0741  0.0803
 2331DPPE   GL249828  13.267  17.511  19.179 -0.1575 -0.0646  0.2082
 2331DPPE   C1A49829  13.126  16.974  19.393 -0.0704 -0.3075 -0.0723
 2331DPPE   C2A49830  13.070  17.156  19.808  0.1885  0.4655  0.1423
 2331DPPE   C3A49831  13.073  17.058  20.244 -0.0292 -0.1379  0.3060
 2331DPPE   C4A49832  13.006  17.060  20.697  0.1312 -0.1829  0.0353
 2331DPPE   C1B49833  13.322  17.575  19.609  0.0010  0.2113  0.0784
 2331DPPE   C2B49834  13.461  17.541  20.039  0.1439 -0.0408  0.4369
 2331DPPE   C3B49835  13.323  17.497  20.534  0.1602  0.0683 -0.1528
 2331DPPE   C4B49836  13.362  17.417  20.954 -0.0036  0.3137  0.2184
 2332DPPE   NH349837   9.544  13.031  18.701 -0.1374 -0.1430 -0.1930
 2332DPPE   PO449838   9.731  12.658  18.595 -0.1605 -0.2930 -0.3462
 2332DPPE   GL149839   9.942  12.568  18.980 -0.0036 -0.1408 -0.0019
 2332DPPE   GL249840   9.636  12.686  19.132 -0.0239  0.2734 -0.1924
 2332DPPE   C1A49841  10.021  12.541  19.438 -0.1679  0.2003 -0.1461
 2332DPPE   C2A49842   9.992  12.582  19.796  0.0378 -0.0999  0.3046
 2332DPPE   C3A49843   9.869  12.677  20.205  0.1462 -0.0769 -0.1859
 2332DPPE   C4A49844  10.067  12.992  20.544  0.0330  0.1105 -0.2701
 2332DPPE   C1B49845   9.507  12.911  19.326 -0.3263 -0.1473  0.0598
 2332DPPE   C2B49846   9.655  12.953  19.629 -0.3310 -0.0187  0.0009
 2332DPPE   C3B49847   9.555  13.047  20.019  0.3248  0.0968 -0.1984
 2332DPPE   C4B49848   9.619  13.118  20.483  0.0827 -0.0307  0.0222
 2333DPPE   NH349849  17.933  23.712  17.305 -0.0496 -0.1743  0.1341
 2333DPPE   PO449850  18.329  23.539  17.417  0.1753  0.0987 -0.0357
 2333DPPE   GL149851  18.560  23.736  17.674 -0.1841 -0.0122  0.0695
 2333DPPE   GL249852  18.851  23.742  17.399  0.0428  0.0559 -0.4782
 2333DPPE   C1A49853  18.866  23.568  17.863 -0.0295  0.1657  0.1282
 2333DPPE   C2A49854  19.131  23.668  18.199 -0.0863  0.4429  0.2553
 2333DPPE   C3A49855  19.350  23.616  18.681 -0.0889  0.2043  0.0918
 2333DPPE   C4A49856  19.632  23.568  19.131 -0.1970  0.2878  0.1062
 2333DPPE   C1B49857  19.124  23.907  17.046  0.1907 -0.0081 -0.3399
 2333DPPE   C2B49858  19.497  23.925  16.793 -0.0369 -0.3572 -0.0869
 2333DPPE   C3B49859  19.670  24.205  16.350  0.2983 -0.0530 -0.1074
 2333DPPE   C4B49860  19.692  24.628  16.167  0.0090 -0.1185 -0.1060
 2334DPPE   NH349861  17.686  16.611  18.739  0.2233 -0.3578 -0.0142
 2334DPPE   PO449862  17.609  16.981  18.946  0.0262 -0.0548 -0.1629
 2334DPPE   GL149863  17.403  16.629  19.141 -0.1180  0.1705 -0.0796
 2334DPPE   GL249864  17.082  16.606  19.146  0.1368 -0.0649 -0.2980
 2334DPPE   C1A49865  17.577  16.423  19.538 -0.1355 -0.0695 -0.1891
 2334DPPE   C2A49866  17.856  16.378  19.900 -0.0050  0.1594 -0.0711
 2334DPPE   C3A49867  18.208  16.385  20.174 -0.0133  0.1491 -0.2837
 2334DPPE   C4A49868  18.522  16.681  20.570 -0.1211 -0.2147  0.2010
 2334DPPE   C1B49869  17.042  16.465  19.610  0.1857  0.3063  0.2236
 2334DPPE   C2B49870  17.083  16.588  20.020 -0.3836  0.1867 -0.0998
 2334DPPE   C3B49871  16.986  16.904  20.364  0.0617  0.0368 -0.1473
 2334DPPE   C4B49872  17.198  16.979  20.772 -0.2339  0.1296 -0.1544
 2335DPPE   NH349873  19.612  14.735  18.475  0.0752  0.0087  0.2220
 2335DPPE   PO449874  19.997  14.913  18.281 -0.1551  0.4711 -0.0855
 2335DPPE   GL149875  20.401  14.929  18.267  0.2053  0.2097  0.0436
 2335DPPE   GL249876  20.601  14.812  18.023 -0.0091 -0.0144  0.1849
 2335DPPE   C1A49877  20.683  14.928  18.608  0.0624 -0.0271 -0.0242
 2335DPPE   C2A49878  20.762  15.171  18.924 -0.4127 -0.2191  0.2423
 2335DPPE   C3A49879  21.149  14.984  19.026  0.1851 -0.3976 -0.3221
 2335DPPE   C4A49880  21.506  14.862  19.185 -0.0337  0.0930 -0.0028
 2335DPPE   C1B49881  20.788  14.516  18.226 -0.0198 -0.2890 -0.0469
 2335DPPE   C2B49882  20.731  14.156  18.358 -0.0543  0.3983  0.0149
 2335DPPE   C3B49883  20.770  13.699  18.460 -0.1588 -0.0911 -0.2498
 2335DPPE   C4B49884  20.969  13.302  18.661  0.1346 -0.1322 -0.1318
 2336DPPE   NH349885  12.378  12.387  18.219  0.1838  0.0183 -0.0614
 2336DPPE   PO449886  12.058  12.715  18.296 -0.1278  0.3342 -0.1610
 2336DPPE   GL149887  12.221  12.708  18.641  0.1428 -0.1140 -0.0939
 2336DPPE   GL249888  12.397  12.386  18.694  0.3146 -0.0197  0.0842
 2336DPPE   C1A49889  12.220  12.780  19.031 -0.0511 -0.0889 -0.1535
 2336DPPE   C2A49890  12.313  12.648  19.416 -0.0178 -0.0189  0.1339
 2336DPPE   C3A49891  12.246  12.544  19.834  0.0329 -0.2738 -0.0657
 2336DPPE   C4A49892  12.165  12.284  20.236  0.2106 -0.0139  0.0547
 2336DPPE   C1B49893  12.446  12.206  19.174 -0.3573  0.2125  0.2887
 2336DPPE   C2B49894  12.442  12.119  19.634 -0.1180 -0.2286  0.0494
 2336DPPE   C3B49895  12.441  11.931  20.063 -0.2896 -0.0173  0.0344
 2336DPPE   C4B49896  12.545  12.123  20.501  0.0981 -0.2266 -0.0281
 2337DPPE   NH349897   8.940  20.891  18.738 -0.1767  0.0491  0.0151
 2337DPPE   PO449898   9.371  20.954  18.752  0.1806 -0.3572  0.2946
 2337DPPE   GL149899   9.327  20.789  19.133  0.1391 -0.3705 -0.0184
 2337DPPE   GL249900   9.594  21.099  19.194  0.0082 -0.0256 -0.0281
 2337DPPE   C1A49901   9.379  20.815  19.550 -0.1202  0.0001  0.1497
 2337DPPE   C2A49902   9.341  21.058  19.910 -0.0974  0.0080 -0.2209
 2337DPPE   C3A49903   9.321  21.314  20.332  0.0152 -0.2016 -0.0468
 2337DPPE   C4A49904   9.306  21.752  20.503  0.2950 -0.1358 -0.1950
 2337DPPE   C1B49905   9.422  21.358  19.524 -0.2499 -0.2384 -0.3736
 2337DPPE   C2B49906   9.033  21.465  19.818  0.0298  0.2908  0.0471
 2337DPPE   C3B49907   8.787  21.298  20.256  0.1794  0.0231 -0.1350
 2337DPPE   C4B49908   8.841  21.062  20.649 -0.0391 -0.1840  0.0301
 2338DPPE   NH349909  18.339  18.540  18.677  0.1117 -0.1974  0.1214
 2338DPPE   PO449910  18.250  18.224  18.902  0.1704 -0.1777  0.3512
 2338DPPE   GL149911  18.370  18.238  19.242  0.1017 -0.0246  0.0794
 2338DPPE   GL249912  18.117  18.180  19.524  0.1432 -0.1531 -0.0592
 2338DPPE   C1A49913  18.638  18.397  19.626  0.1407 -0.1216  0.1335
 2338DPPE   C2A49914  18.669  18.366  19.994 -0.2300 -0.0213  0.0606
 2338DPPE   C3A49915  18.550  18.282  20.463  0.1311  0.1132  0.0656
 2338DPPE   C4A49916  18.203  18.189  20.771 -0.2143  0.1394  0.0597
 2338DPPE   C1B49917  18.263  18.168  19.896  0.1100 -0.1577  0.2427
 2338DPPE   C2B49918  18.345  17.771  20.157  0.0201 -0.0419  0.0718
 2338DPPE   C3B49919  18.453  17.657  20.502  0.0932  0.2052  0.0593
 2338DPPE   C4B49920  18.661  17.660  20.905 -0.1093  0.4073 -0.0254
 2339DPPE   NH349921  17.194  18.605  19.170  0.0597 -0.0704  0.0872
 2339DPPE   PO449922  17.385  18.190  19.172 -0.5460  0.1934 -0.0738
 2339DPPE   GL149923  17.513  18.359  19.496 -0.3440  0.0269  0.3187
 2339DPPE   GL249924  17.725  18.406  19.710 -0.1800  0.2212  0.0784
 2339DPPE   C1A49925  17.216  18.428  19.792  0.2139 -0.1848  0.0228
 2339DPPE   C2A49926  17.298  18.432  20.230 -0.0512 -0.0750 -0.1258
 2339DPPE   C3A49927  17.608  18.266  20.419 -0.1648  0.1052  0.1658
 2339DPPE   C4A49928  18.058  18.124  20.338  0.1502 -0.0294  0.1190
 2339DPPE   C1B49929  17.629  18.026  20.029  0.1113 -0.1436  0.2987
 2339DPPE   C2B49930  17.724  17.712  20.310  0.0258 -0.2293 -0.1111
 2339DPPE   C3B49931  17.865  17.638  20.736 -0.7289 -0.1558  0.2848
 2339DPPE   C4B49932  18.216  17.779  21.043  0.4244  0.1465 -0.1473
 2340DPPE   NH349933  14.320   9.420  17.906  0.1295 -0.0286  0.1542
 2340DPPE   PO449934  14.210   9.185  17.518 -0.1137  0.1860 -0.5770
 2340DPPE   GL149935  14.312   8.746  17.698  0.0336 -0.2277  0.2767
 2340DPPE   GL249936  14.450   8.873  17.995 -0.2278  0.2155  0.1689
 2340DPPE   C1A49937  14.255   8.304  17.677 -0.1189 -0.0603  0.2088
 2340DPPE   C2A49938  13.915   8.075  17.431 -0.0641  0.2801  0.1685
 2340DPPE   C3A49939  13.909   7.954  17.034  0.3328  0.2164  0.1968
 2340DPPE   C4A49940  13.669   7.805  16.609 -0.0094  0.1055 -0.0521
 2340DPPE   C1B49941  14.691   8.552  17.906 -0.5395  0.0516  0.3194
 2340DPPE   C2B49942  14.736   8.207  17.727 -0.0333 -0.1729  0.0120
 2340DPPE   C3B49943  14.868   7.912  17.489 -0.1185  0.3607  0.2484
 2340DPPE   C4B49944  15.015   7.485  17.330  0.1188 -0.0027  0.2504
 2341DPPE   NH349945  17.967  22.256  17.830 -0.1079 -0.1604  0.0501
 2341DPPE   PO449946  17.683  21.957  18.083 -0.5451  0.2829 -0.1258
 2341DPPE   GL149947  17.952  21.849  18.405  0.1927 -0.2107  0.1568
 2341DPPE   GL249948  17.870  21.895  18.614  0.5011  0.0924  0.1663
 2341DPPE   C1A49949  18.385  21.708  18.579  0.1463  0.1056  0.3805
 2341DPPE   C2A49950  18.683  21.794  18.894  0.0420 -0.4743  0.0485
 2341DPPE   C3A49951  19.102  22.069  18.822 -0.2895  0.1556  0.1126
 2341DPPE   C4A49952  19.460  22.381  18.840  0.0018 -0.2657  0.1637
 2341DPPE   C1B49953  17.793  22.178  18.997  0.1344  0.0468  0.1308
 2341DPPE   C2B49954  17.997  22.285  19.406  0.1179  0.0717  0.0499
 2341DPPE   C3B49955  18.023  22.399  19.937  0.1657 -0.0876  0.1530
 2341DPPE   C4B49956  17.857  22.583  20.384 -0.2291 -0.3843  0.2775
 2342DPPE   NH349957  18.079  17.335  18.902 -0.2620  0.1700 -0.0352
 2342DPPE   PO449958  18.417  17.378  18.763 -0.0190 -0.1830 -0.0452
 2342DPPE   GL149959  18.578  17.082  18.988 -0.0001 -0.2698 -0.1028
 2342DPPE   GL249960  18.876  16.983  18.940  0.0005 -0.1387 -0.3628
 2342DPPE   C1A49961  18.791  16.746  19.312  0.1908  0.0383 -0.1916
 2342DPPE   C2A49962  19.096  16.737  19.683 -0.0429 -0.2176  0.0831
 2342DPPE   C3A49963  19.379  17.077  19.833  0.0723 -0.0881  0.0512
 2342DPPE   C4A49964  19.710  17.497  19.924  0.0125  0.0933 -0.0715
 2342DPPE   C1B49965  19.039  17.215  19.410  0.1381  0.1438  0.0100
 2342DPPE   C2B49966  19.033  17.511  19.418  0.0539  0.1877 -0.3477
 2342DPPE   C3B49967  19.210  17.605  19.802  0.0664 -0.0134 -0.0577
 2342DPPE   C4B49968  19.284  17.718  20.260 -0.1670 -0.0865 -0.0567
 2343DPPE   NH349969  16.257  14.635  18.060 -0.1271 -0.0306 -0.0765
 2343DPPE   PO449970  16.447  14.786  18.433 -0.1146 -0.1186  0.0939
 2343DPPE   GL149971  16.196  14.857  18.821 -0.0606 -0.2099 -0.0232
 2343DPPE   GL249972  16.076  15.238  18.972  0.1227 -0.0110  0.0520
 2343DPPE   C1A49973  16.279  14.737  19.279  0.3469 -0.0545 -0.0445
 2343DPPE   C2A49974  16.371  14.754  19.717 -0.1430 -0.2351 -0.0236
 2343DPPE   C3A49975  16.333  14.653  20.097  0.1953 -0.0880 -0.2106
 2343DPPE   C4A49976  16.344  14.801  20.476 -0.1561 -0.2267  0.0243
 2343DPPE   C1B49977  16.223  15.222  19.392  0.3267  0.0223 -0.1540
 2343DPPE   C2B49978  16.160  15.227  19.814  0.0787  0.1258 -0.0521
 2343DPPE   C3B49979  16.166  15.157  20.184  0.2439  0.1811 -0.1652
 2343DPPE   C4B49980  16.194  15.248  20.638 -0.0985 -0.1836 -0.1156
 2344DPPE   NH349981   8.747  11.171  18.897  0.1325 -0.1534  0.0546
 2344DPPE   PO449982   8.561  11.569  18.844 -0.1681 -0.2553  0.0222
 2344DPPE   GL149983   8.630  11.617  19.252  0.2780 -0.1830 -0.1086
 2344DPPE   GL249984   8.931  11.738  19.356 -0.0619  0.0847  0.0671
 2344DPPE   C1A49985   8.404  11.587  19.537 -0.1816  0.1316 -0.0560
 2344DPPE   C2A49986   8.384  11.526  19.929  0.0721  0.0242 -0.0063
 2344DPPE   C3A49987   8.151  11.580  20.332 -0.2459  0.0093  0.0017
 2344DPPE   C4A49988   7.930  11.790  20.604  0.0853 -0.3007 -0.1821
 2344DPPE   C1B49989   8.853  11.415  19.621 -0.1898 -0.1482 -0.0871
 2344DPPE   C2B49990   8.902  11.019  19.851  0.0775  0.1251 -0.0021
 2344DPPE   C3B49991   8.767  10.622  19.837  0.0000  0.4378 -0.1408
 2344DPPE   C4B49992   8.765  10.215  19.912  0.0734 -0.0454 -0.0244
 2345DPPE   NH349993  18.936  15.759  17.948  0.0579  0.1390 -0.2659
 2345DPPE   PO449994  19.065  15.899  18.343 -0.2106  0.3074  0.0713
 2345DPPE   GL149995  19.128  16.101  18.727 -0.3114 -0.2098  0.0475
 2345DPPE   GL249996  19.328  16.388  18.682 -0.0848  0.0246  0.0622
 2345DPPE   C1A49997  19.412  16.011  19.024  0.1857 -0.0731  0.0179
 2345DPPE   C2A49998  19.542  15.816  19.360 -0.3384  0.0911  0.0595
 2345DPPE   C3A49999  19.667  15.930  19.891  0.1344  0.2586 -0.3709
 2345DPPE   C4A50000  19.909  15.972  20.350  0.1178  0.4194  0.2063
 2345DPPE   C1B50001  19.686  16.492  18.964  0.0373  0.0795 -0.1712
 2345DPPE   C2B50002  20.215  16.550  19.203  0.1725 -0.0654  0.1892
 2345DPPE   C3B50003  20.469  16.941  19.385 -0.0152 -0.1201 -0.0732
 2345DPPE   C4B50004  20.520  17.382  19.450  0.0241  0.0455 -0.1610
 2346DPPE   NH350005   6.860  21.016  18.973 -0.0094  0.1274  0.1659
 2346DPPE   PO450006   6.924  21.477  18.898  0.2066  0.0049 -0.0142
 2346DPPE   GL150007   6.649  21.516  19.203 -0.1546  0.3608  0.1613
 2346DPPE   GL250008   6.453  21.125  19.220  0.2625  0.0883 -0.0776
 2346DPPE   C1A50009   6.323  21.540  19.448  0.1256 -0.0301 -0.1103
 2346DPPE   C2A50010   5.856  21.600  19.473 -0.1774  0.0576 -0.1487
 2346DPPE   C3A50011   5.586  21.665  19.749 -0.2108 -0.1398  0.0422
 2346DPPE   C4A50012   5.326  21.714  20.107  0.2693  0.0287  0.0336
 2346DPPE   C1B50013   6.181  20.963  19.481 -0.0010  0.0427  0.2350
 2346DPPE   C2B50014   5.909  21.030  19.713  0.0153  0.0731  0.1949
 2346DPPE   C3B50015   5.937  20.903  20.076  0.2143 -0.4995 -0.1564
 2346DPPE   C4B50016   6.067  20.680  20.423  0.0447  0.1208  0.1931
 2347DPPE   NH350017  11.430  12.092  18.386  0.1010  0.1977 -0.1605
 2347DPPE   PO450018  11.275  11.732  18.271  0.1905 -0.0978  0.4234
 2347DPPE   GL150019  11.280  11.700  18.695 -0.0343  0.0412  0.0836
 2347DPPE   GL250020  11.152  11.984  18.792 -0.1736  0.4024  0.3825
 2347DPPE   C1A50021  11.265  11.499  19.057  0.1108 -0.3300  0.0089
 2347DPPE   C2A50022  11.330  11.239  19.366  0.0194  0.0297 -0.0130
 2347DPPE   C3A50023  11.296  11.208  19.805  0.1135 -0.0175 -0.0301
 2347DPPE   C4A50024  11.261  10.916  20.116  0.1783 -0.0446 -0.5027
 2347DPPE   C1B50025  11.036  11.925  19.201  0.1315 -0.1149  0.0271
 2347DPPE   C2B50026  10.870  11.959  19.580 -0.0265 -0.0598 -0.1711
 2347DPPE   C3B50027  10.824  11.858  20.008 -0.1199  0.0437  0.0742
 2347DPPE   C4B50028  10.716  11.986  20.330 -0.2682 -0.0470 -0.0405
 2348DPPE   NH350029  13.179  12.088  18.265 -0.0643 -0.0627 -0.3419
 2348DPPE   PO450030  12.707  12.031  18.373 -0.1804 -0.1606 -0.1232
 2348DPPE   GL150031  12.409  11.891  18.738  0.1829  0.2500 -0.0503
 2348DPPE   GL250032  12.505  11.642  18.831 -0.0199 -0.2146  0.1496
 2348DPPE   C1A50033  12.082  11.853  19.113  0.0314  0.0235  0.0018
 2348DPPE   C2A50034  11.898  11.851  19.547  0.2125 -0.1489 -0.2082
 2348DPPE   C3A50035  12.101  11.644  19.765 -0.0053  0.3843 -0.0545
 2348DPPE   C4A50036  12.164  11.390  20.098  0.1028 -0.1565  0.1096
 2348DPPE   C1B50037  12.596  11.762  19.263 -0.5579  0.0370  0.2813
 2348DPPE   C2B50038  12.616  11.641  19.673 -0.0986  0.1705  0.3888
 2348DPPE   C3B50039  12.618  11.472  20.094  0.1008 -0.0039 -0.4162
 2348DPPE   C4B50040  12.631  11.034  20.419  0.2503 -0.1099 -0.1704
 2349DPPE   NH350041   7.839  22.376  18.597 -0.0311  0.1016 -0.0425
 2349DPPE   PO450042   7.502  22.545  18.684 -0.1662 -0.0629 -0.3186
 2349DPPE   GL150043   7.102  22.595  18.563 -0.2595  0.3278 -0.0671
 2349DPPE   GL250044   6.840  22.417  18.684 -0.0211 -0.0034 -0.2193
 2349DPPE   C1A50045   6.769  22.620  18.270  0.0139 -0.0646  0.2798
 2349DPPE   C2A50046   6.349  22.818  18.342  0.5024  0.1992 -0.1849
 2349DPPE   C3A50047   6.433  23.025  18.628  0.2541  0.0204 -0.1450
 2349DPPE   C4A50048   6.586  23.432  18.690 -0.4005  0.2922  0.2464
 2349DPPE   C1B50049   6.468  22.495  18.701  0.1572 -0.0432 -0.0436
 2349DPPE   C2B50050   6.066  22.291  18.603  0.0795  0.1936 -0.2646
 2349DPPE   C3B50051   5.640  22.061  18.552  0.0255  0.3405  0.0055
 2349DPPE   C4B50052   5.346  21.679  18.590 -0.2564  0.0147 -0.0391
 2350DPPE   NH350053  18.942  16.357  18.223 -0.1713  0.1426 -0.4317
 2350DPPE   PO450054  18.628  16.447  18.214  0.3134 -0.1579  0.4084
 2350DPPE   GL150055  18.896  16.562  18.655  0.1728  0.2225  0.2668
 2350DPPE   GL250056  18.842  16.402  18.927 -0.0550 -0.2278 -0.2548
 2350DPPE   C1A50057  19.242  16.740  19.053 -0.2815 -0.1461 -0.0320
 2350DPPE   C2A50058  19.545  16.788  19.404  0.0227  0.3217 -0.0473
 2350DPPE   C3A50059  19.923  16.724  19.557 -0.0500 -0.0362  0.0148
 2350DPPE   C4A50060  20.322  16.620  19.751  0.1653 -0.3080 -0.0952
 2350DPPE   C1B50061  19.167  16.370  19.340 -0.3309 -0.1439  0.0546
 2350DPPE   C2B50062  19.496  16.353  19.684 -0.1060 -0.2133 -0.0520
 2350DPPE   C3B50063  19.755  16.443  20.029 -0.2548 -0.1697 -0.0875
 2350DPPE   C4B50064  19.792  16.846  20.017 -0.1655  0.0639  0.0345
 2351DPPE   NH350065  17.771  21.483  18.140  0.3885  0.4031  0.0887
 2351DPPE   PO450066  17.790  21.585  17.780  0.1877  0.1054 -0.3309
 2351DPPE   GL150067  18.215  21.607  17.993 -0.1333 -0.1671 -0.1468
 2351DPPE   GL250068  18.306  21.881  17.916  0.2014  0.0269 -0.0222
 2351DPPE   C1A50069  18.674  21.559  18.178 -0.0332  0.1918  0.1325
 2351DPPE   C2A50070  19.129  21.802  18.296  0.2108  0.3706 -0.0143
 2351DPPE   C3A50071  19.468  21.902  18.532  0.0545 -0.0671  0.2357
 2351DPPE   C4A50072  19.801  22.013  18.931  0.2176 -0.0414 -0.0052
 2351DPPE   C1B50073  18.416  22.158  18.230  0.1694  0.0257 -0.1790
 2351DPPE   C2B50074  18.771  22.132  18.468 -0.2113  0.1961 -0.3121
 2351DPPE   C3B50075  19.176  22.295  18.397  0.2240 -0.2137  0.2301
 2351DPPE   C4B50076  19.410  22.665  18.301  0.3733  0.0507 -0.1056
 2352DPPE   NH350077   9.301  20.006  18.375  0.2095  0.1931  0.2266
 2352DPPE   PO450078   9.688  19.958  18.617  0.1006  0.2251  0.0167
 2352DPPE   GL150079   9.569  19.668  19.072 -0.2839 -0.1132  0.1978
 2352DPPE   GL250080   9.408  19.363  18.949  0.0365 -0.0042 -0.1347
 2352DPPE   C1A50081   9.578  19.645  19.494  0.4496  0.1592  0.5750
 2352DPPE   C2A50082   9.450  19.959  19.760 -0.2032 -0.0500 -0.0182
 2352DPPE   C3A50083   9.591  20.317  19.653 -0.2404  0.1309 -0.0551
 2352DPPE   C4A50084   9.785  20.684  19.853  0.0547  0.0738 -0.2173
 2352DPPE   C1B50085   9.438  19.248  19.280  0.0543  0.1558  0.1137
 2352DPPE   C2B50086   9.453  19.173  19.731 -0.2808 -0.0472  0.0725
 2352DPPE   C3B50087   9.432  18.915  20.066 -0.1482 -0.1306 -0.0229
 2352DPPE   C4B50088   9.555  18.463  20.108  0.2662  0.0069  0.0219
 2353DPPE   NH350089  12.672  24.412  18.038 -0.1690 -0.1030  0.0346
 2353DPPE   PO450090  12.829  24.092  18.202  0.0844  0.3500 -0.1124
 2353DPPE   GL150091  12.820  24.396  18.490 -0.2322 -0.0547 -0.0873
 2353DPPE   GL250092  12.834  24.767  18.490 -0.1344 -0.0631 -0.2389
 2353DPPE   C1A50093  13.176  24.532  18.801 -0.1892 -0.0392  0.1252
 2353DPPE   C2A50094  13.264  24.756  19.226  0.1094  0.0963  0.1028
 2353DPPE   C3A50095  13.124  24.516  19.545  0.1697 -0.0973 -0.1627
 2353DPPE   C4A50096  12.684  24.634  19.808  0.2217 -0.1727  0.0602
 2353DPPE   C1B50097  13.077  25.031  18.899  0.2678 -0.1923 -0.0905
 2353DPPE   C2B50098  13.293  25.303  19.282  0.4641  0.0010 -0.0734
 2353DPPE   C3B50099  13.686  25.538  19.600 -0.0954 -0.0760 -0.0082
 2353DPPE   C4B50100  14.035  25.341  19.724  0.3517 -0.2928  0.1983
 2354DPPE   NH350101  11.909  20.080  18.427 -0.0944  0.0196 -0.0063
 2354DPPE   PO450102  11.383  20.332  18.387 -0.1626  0.1246  0.0750
 2354DPPE   GL150103  11.311  20.291  18.810 -0.4162 -0.0630  0.1042
 2354DPPE   GL250104  11.585  20.160  18.856 -0.0378  0.2802  0.1412
 2354DPPE   C1A50105  11.229  20.506  19.191  0.2631 -0.1574  0.0232
 2354DPPE   C2A50106  11.071  20.595  19.602  0.2130 -0.2230 -0.3856
 2354DPPE   C3A50107  10.986  20.681  19.991  0.1394 -0.1272 -0.3135
 2354DPPE   C4A50108  11.178  20.739  20.455  0.1514  0.3074  0.1319
 2354DPPE   C1B50109  11.608  20.282  19.322 -0.1860  0.4288 -0.0509
 2354DPPE   C2B50110  11.528  20.323  19.760 -0.2321  0.1635 -0.0925
 2354DPPE   C3B50111  11.533  20.405  20.259 -0.2888  0.2625 -0.4027
 2354DPPE   C4B50112  11.375  20.216  20.626  0.0261  0.3202  0.2993
 2355DPPE   NH350113  15.532  13.768  18.409 -0.4121  0.1128 -0.1327
 2355DPPE   PO450114  15.978  13.920  18.488  0.2619 -0.2742 -0.3775
 2355DPPE   GL150115  16.199  13.930  18.873  0.0966  0.1887 -0.2350
 2355DPPE   GL250116  16.233  13.827  19.169  0.0424 -0.5472 -0.2779
 2355DPPE   C1A50117  16.031  14.344  19.130  0.2601  0.1211  0.1726
 2355DPPE   C2A50118  16.004  14.386  19.584 -0.1022 -0.1071  0.1469
 2355DPPE   C3A50119  16.019  14.241  20.005  0.1736 -0.0258 -0.4276
 2355DPPE   C4A50120  16.067  14.378  20.493 -0.1102  0.1159  0.0780
 2355DPPE   C1B50121  16.104  13.934  19.613 -0.1926 -0.1035 -0.2343
 2355DPPE   C2B50122  16.235  13.771  19.991 -0.1254 -0.0867  0.2402
 2355DPPE   C3B50123  16.198  13.752  20.447 -0.2018  0.4223  0.1899
 2355DPPE   C4B50124  16.031  13.605  20.862 -0.0080  0.1083 -0.2250
 2356DPPE   NH350125  16.601  24.560  18.385 -0.1703  0.0622 -0.0213
 2356DPPE   PO450126  16.656  24.138  18.222 -0.0971 -0.0640 -0.6193
 2356DPPE   GL150127  16.600  24.180  18.678 -0.2948 -0.2002  0.0850
 2356DPPE   GL250128  16.565  23.946  18.799  0.2627  0.0543 -0.0057
 2356DPPE   C1A50129  16.386  24.287  19.166  0.0603  0.1644  0.5383
 2356DPPE   C2A50130  16.649  24.309  19.532 -0.0473  0.0778 -0.0716
 2356DPPE   C3A50131  17.096  24.224  19.466 -0.0138 -0.0770 -0.1427
 2356DPPE   C4A50132  17.531  24.135  19.398  0.2028 -0.1774 -0.0462
 2356DPPE   C1B50133  16.741  23.957  19.156  0.0598  0.1443  0.1893
 2356DPPE   C2B50134  16.781  23.660  19.544  0.0986  0.2178 -0.0922
 2356DPPE   C3B50135  16.390  23.476  19.589 -0.3108  0.1497  0.2893
 2356DPPE   C4B50136  16.052  23.385  19.297 -0.0432  0.2254 -0.1967
 2357DPPE   NH350137   8.003  14.274  18.463  0.4724 -0.0802 -0.4008
 2357DPPE   PO450138   8.492  14.208  18.562  0.1252  0.2552 -0.2847
 2357DPPE   GL150139   8.359  14.396  18.889  0.0883 -0.1356  0.2293
 2357DPPE   GL250140   8.362  14.757  19.081 -0.1815  0.3263  0.0975
 2357DPPE   C1A50141   8.451  14.135  19.292  0.1258 -0.1099 -0.0617
 2357DPPE   C2A50142   8.146  13.992  19.715  0.0737  0.2391  0.0296
 2357DPPE   C3A50143   8.080  14.243  20.080  0.0443 -0.1401 -0.1279
 2357DPPE   C4A50144   8.217  14.440  20.471  0.2564 -0.0168  0.2546
 2357DPPE   C1B50145   8.207  14.830  19.533 -0.2693  0.0091 -0.1871
 2357DPPE   C2B50146   8.340  14.923  19.888  0.2307 -0.0734  0.0886
 2357DPPE   C3B50147   8.599  15.062  20.209 -0.1242  0.1989  0.1761
 2357DPPE   C4B50148   8.514  15.091  20.700  0.0785 -0.0874  0.2846
 2358DPPE   NH350149   9.475  10.657  19.036 -0.4351  0.1424  0.0524
 2358DPPE   PO450150   9.131  10.852  18.833 -0.2138  0.2229  0.0814
 2358DPPE   GL150151   8.707  10.690  19.129 -0.0637  0.0798  0.0852
 2358DPPE   GL250152   8.578  11.087  19.357 -0.5212 -0.1190 -0.1127
 2358DPPE   C1A50153   8.845  10.394  19.411  0.0201  0.0246 -0.0854
 2358DPPE   C2A50154   8.768  10.073  19.378  0.1892 -0.2703 -0.1072
 2358DPPE   C3A50155   8.670   9.672  19.303 -0.1440  0.3146  0.0230
 2358DPPE   C4A50156   8.777   9.217  19.519  0.1537 -0.1461  0.0515
 2358DPPE   C1B50157   8.377  11.053  19.721 -0.3756 -0.1594  0.0710
 2358DPPE   C2B50158   8.295  11.052  20.153 -0.0613 -0.3672 -0.1725
 2358DPPE   C3B50159   8.124  10.702  20.402 -0.1255 -0.2323 -0.0815
 2358DPPE   C4B50160   8.168  10.404  20.626 -0.0124 -0.1571 -0.1568
 2359DPPE   NH350161  14.538   8.943  17.262  0.1399 -0.0862  0.4741
 2359DPPE   PO450162  14.742   9.125  17.580  0.0508  0.2711  0.1017
 2359DPPE   GL150163  15.048   8.843  17.572  0.3282 -0.1436  0.0843
 2359DPPE   GL250164  14.941   8.650  17.461 -0.1040  0.2605 -0.1869
 2359DPPE   C1A50165  15.529   8.690  17.446 -0.0889  0.2010  0.2504
 2359DPPE   C2A50166  15.987   8.738  17.247  0.1402 -0.1275  0.1518
 2359DPPE   C3A50167  16.136   8.753  16.859 -0.0542  0.0182  0.0698
 2359DPPE   C4A50168  16.076   8.999  16.466 -0.0021 -0.2968  0.0158
 2359DPPE   C1B50169  15.151   8.430  17.939  0.0153 -0.1965 -0.1363
 2359DPPE   C2B50170  15.474   8.207  18.146  0.1647  0.1980  0.1088
 2359DPPE   C3B50171  15.857   8.440  18.235 -0.2872 -0.1693 -0.0184
 2359DPPE   C4B50172  15.965   8.570  18.752  0.0736 -0.5401 -0.1434
 2360DPPE   NH350173  12.202  20.603  18.075 -0.1476  0.1535 -0.0269
 2360DPPE   PO450174  12.258  20.429  18.453 -0.2730 -0.1874  0.1135
 2360DPPE   GL150175  12.434  20.359  18.813  0.0520  0.1035 -0.2784
 2360DPPE   GL250176  12.692  20.543  18.998  0.1004 -0.3067 -0.1216
 2360DPPE   C1A50177  12.465  20.039  19.219 -0.4213 -0.1218  0.4817
 2360DPPE   C2A50178  12.430  20.020  19.500  0.2645  0.0112  0.1490
 2360DPPE   C3A50179  12.436  20.170  19.879  0.2205  0.1495  0.0150
 2360DPPE   C4A50180  12.408  20.247  20.197 -0.0941  0.1290  0.1178
 2360DPPE   C1B50181  12.577  20.548  19.410 -0.1875 -0.0195  0.4087
 2360DPPE   C2B50182  12.454  20.685  19.758  0.0280  0.0035 -0.2038
 2360DPPE   C3B50183  12.461  20.779  20.187 -0.3657  0.0575  0.2654
 2360DPPE   C4B50184  12.421  20.783  20.599 -0.0192  0.0005  0.0359
 2361DPPE   NH350185  14.580  18.152  18.797  0.0305  0.0756 -0.1862
 2361DPPE   PO450186  14.780  17.729  18.794  0.0027 -0.3189 -0.2129
 2361DPPE   GL150187  14.603  17.793  19.112  0.4100  0.0542  0.2529
 2361DPPE   GL250188  14.385  17.723  19.200 -0.1665 -0.2706 -0.2687
 2361DPPE   C1A50189  14.692  17.960  19.573 -0.2867 -0.0348 -0.1899
 2361DPPE   C2A50190  14.824  18.076  19.886 -0.4120  0.0282 -0.5845
 2361DPPE   C3A50191  14.765  18.166  20.324  0.1322  0.0112 -0.2888
 2361DPPE   C4A50192  14.579  18.362  20.666 -0.0369 -0.0440  0.0403
 2361DPPE   C1B50193  14.238  17.758  19.645 -0.0341  0.2323  0.0200
 2361DPPE   C2B50194  14.406  17.838  20.060  0.0635 -0.1263 -0.0563
 2361DPPE   C3B50195  14.387  17.832  20.539  0.2403  0.1734 -0.2628
 2361DPPE   C4B50196  14.545  17.892  20.910  0.0868  0.1596  0.0854
 2362DPPE   NH350197  17.500  20.960  18.039  0.0648 -0.6649 -0.1069
 2362DPPE   PO450198  17.349  21.321  18.336 -0.0529 -0.1011  0.2421
 2362DPPE   GL150199  17.529  21.582  18.597 -0.0083 -0.2309  0.0553
 2362DPPE   GL250200  17.382  21.908  18.788  0.0331  0.0937  0.0448
 2362DPPE   C1A50201  17.750  21.704  19.047 -0.2721 -0.0176  0.1604
 2362DPPE   C2A50202  18.039  21.678  19.416  0.1256  0.2346  0.0103
 2362DPPE   C3A50203  18.125  21.880  19.722 -0.0598  0.2639 -0.2678
 2362DPPE   C4A50204  18.271  22.010  20.159  0.1284  0.2338 -0.1253
 2362DPPE   C1B50205  17.270  21.947  19.141  0.1721  0.2654  0.1346
 2362DPPE   C2B50206  17.585  21.974  19.469 -0.0081  0.0593  0.0891
 2362DPPE   C3B50207  17.622  21.964  20.003 -0.0766 -0.0624  0.0262
 2362DPPE   C4B50208  17.629  22.138  20.402 -0.2602 -0.3433 -0.1348
 2363DPPE   NH350209  11.957  15.022  18.344  0.0743 -0.1948  0.0320
 2363DPPE   PO450210  11.473  15.121  18.299  0.0027  0.1579  0.2357
 2363DPPE   GL150211  11.601  15.154  18.741 -0.1528  0.2589 -0.1662
 2363DPPE   GL250212  11.868  15.020  18.906 -0.0496 -0.2529 -0.2804
 2363DPPE   C1A50213  11.412  15.222  19.115 -0.1005 -0.0874 -0.2250
 2363DPPE   C2A50214  11.442  15.149  19.654 -0.3760  0.2432 -0.0118
 2363DPPE   C3A50215  11.491  14.964  20.134  0.1216 -0.0814  0.1600
 2363DPPE   C4A50216  11.401  14.867  20.488 -0.0791 -0.0744 -0.1067
 2363DPPE   C1B50217  11.917  14.985  19.336 -0.1607 -0.0929 -0.0458
 2363DPPE   C2B50218  11.932  15.013  19.796 -0.4862  0.0374 -0.2229
 2363DPPE   C3B50219  11.991  14.793  20.249 -0.1283 -0.0190  0.0675
 2363DPPE   C4B50220  12.440  14.819  20.522 -0.1235 -0.1139 -0.1139
 2364DPPE   NH350221  15.979  23.385  18.400 -0.1937  0.1030 -0.1862
 2364DPPE   PO450222  16.384  23.267  18.347  0.3012 -0.0211  0.1343
 2364DPPE   GL150223  16.413  23.466  18.707 -0.2835  0.0213  0.1173
 2364DPPE   GL250224  16.550  23.172  18.825  0.2394 -0.4923  0.2272
 2364DPPE   C1A50225  16.374  23.630  19.052  0.0131 -0.1356 -0.2649
 2364DPPE   C2A50226  16.194  23.893  19.354 -0.0198  0.0102  0.1665
 2364DPPE   C3A50227  16.315  24.007  19.765 -0.1420  0.3727 -0.0262
 2364DPPE   C4A50228  16.767  23.981  19.941  0.3273 -0.2654  0.0365
 2364DPPE   C1B50229  16.383  23.006  19.205  0.3424  0.1277  0.4044
 2364DPPE   C2B50230  16.217  22.900  19.582  0.2859 -0.3112  0.0877
 2364DPPE   C3B50231  15.948  22.891  19.802  0.1549 -0.0562 -0.3600
 2364DPPE   C4B50232  15.630  22.595  19.916  0.1971  0.0580  0.4206
 2365DPPE   NH350233  12.544  11.512  18.333  0.0428 -0.0954  0.1885
 2365DPPE   PO450234  12.119  11.463  18.442  0.2825 -0.1817  0.2246
 2365DPPE   GL150235  12.046  11.288  18.853 -0.0085  0.0225  0.0786
 2365DPPE   GL250236  11.769  11.416  19.050 -0.1457  0.0479  0.2301
 2365DPPE   C1A50237  12.191  11.181  19.185 -0.0424 -0.0231  0.2337
 2365DPPE   C2A50238  12.323  11.209  19.604 -0.1135  0.2098  0.4720
 2365DPPE   C3A50239  12.310  10.872  19.920 -0.1950  0.1203  0.1543
 2365DPPE   C4A50240  12.364  10.530  20.206 -0.2791 -0.1756  0.3952
 2365DPPE   C1B50241  11.819  11.346  19.428  0.0464  0.0828 -0.0317
 2365DPPE   C2B50242  11.782  11.086  19.712 -0.1371 -0.0686  0.1201
 2365DPPE   C3B50243  11.731  11.101  20.221  0.0150 -0.1577  0.0988
 2365DPPE   C4B50244  11.680  10.823  20.569 -0.0243 -0.1991 -0.0945
 2366DPPE   NH350245   7.409  21.632  18.668 -0.1022 -0.2765 -0.0076
 2366DPPE   PO450246   6.984  21.852  18.554  0.4951 -0.1202  0.1847
 2366DPPE   GL150247   6.612  21.969  18.713  0.2297  0.0639 -0.2561
 2366DPPE   GL250248   6.302  21.739  18.755 -0.3268  0.1482  0.5108
 2366DPPE   C1A50249   6.380  22.125  19.078  0.0511  0.1618  0.2409
 2366DPPE   C2A50250   6.129  22.018  19.410  0.0320 -0.2157  0.4919
 2366DPPE   C3A50251   5.696  22.146  19.488  0.1143 -0.1015 -0.0481
 2366DPPE   C4A50252   5.311  22.348  19.426  0.2080 -0.0717 -0.0623
 2366DPPE   C1B50253   6.050  21.850  18.388 -0.1098 -0.2042  0.0101
 2366DPPE   C2B50254   5.982  21.928  17.968  0.3453  0.0021  0.0833
 2366DPPE   C3B50255   5.686  22.303  17.680  0.0239 -0.0533  0.0624
 2366DPPE   C4B50256   5.195  22.213  17.607 -0.0442 -0.0509 -0.2667
 2367DPPE   NH350257  13.726  18.450  18.600 -0.1721 -0.2433  0.0563
 2367DPPE   PO450258  13.375  18.214  18.675 -0.1017 -0.0079  0.0145
 2367DPPE   GL150259  13.112  18.128  19.016  0.0679 -0.1683  0.3864
 2367DPPE   GL250260  13.021  18.447  19.149  0.1198  0.1365  0.3057
 2367DPPE   C1A50261  13.000  17.920  19.362 -0.0792 -0.0280  0.2737
 2367DPPE   C2A50262  12.926  17.957  19.793  0.2931  0.1390  0.2419
 2367DPPE   C3A50263  12.902  17.593  19.955 -0.1010 -0.3099  0.2441
 2367DPPE   C4A50264  12.896  17.573  20.371 -0.2966  0.3677  0.0708
 2367DPPE   C1B50265  13.009  18.449  19.592 -0.1447 -0.2216  0.0060
 2367DPPE   C2B50266  13.026  18.445  20.087 -0.0326 -0.1857  0.2805
 2367DPPE   C3B50267  13.033  18.437  20.599 -0.0641  0.0212  0.2829
 2367DPPE   C4B50268  13.076  18.692  21.029 -0.0094  0.3041 -0.0957
 2368DPPE   NH350269  11.935  13.590  18.241  0.1272  0.0402 -0.1797
 2368DPPE   PO450270  12.070  13.210  17.972 -0.1908  0.0255  0.4385
 2368DPPE   GL150271  12.272  13.208  18.476  0.4407 -0.1193 -0.1245
 2368DPPE   GL250272  12.589  13.038  18.622  0.1222  0.1839  0.1527
 2368DPPE   C1A50273  12.103  13.291  18.839  0.3347  0.1067  0.0235
 2368DPPE   C2A50274  12.072  13.225  19.240 -0.0250 -0.2821 -0.2519
 2368DPPE   C3A50275  12.089  13.136  19.715 -0.4164  0.2362  0.2845
 2368DPPE   C4A50276  11.932  13.076  20.089 -0.0680 -0.1364  0.1515
 2368DPPE   C1B50277  12.565  13.213  19.031 -0.2354 -0.1345  0.3025
 2368DPPE   C2B50278  12.584  13.119  19.452 -0.0954  0.1812 -0.3778
 2368DPPE   C3B50279  12.520  12.951  19.801  0.0995 -0.0456 -0.1962
 2368DPPE   C4B50280  12.348  12.883  20.264 -0.0758  0.3019 -0.2870
 2369DPPE   NH350281  13.039  15.662  18.557 -0.5546  0.0382  0.0890
 2369DPPE   PO450282  12.580  15.771  18.526  0.2755 -0.6468 -0.2485
 2369DPPE   GL150283  12.675  15.716  18.934 -0.0533  0.2535  0.2633
 2369DPPE   GL250284  12.704  15.942  19.185  0.0378  0.2665 -0.2141
 2369DPPE   C1A50285  12.748  15.457  19.223  0.4167  0.3727  0.3151
 2369DPPE   C2A50286  12.787  15.358  19.695 -0.0610  0.0930 -0.1396
 2369DPPE   C3A50287  12.906  15.356  20.166  0.0998  0.1351  0.1600
 2369DPPE   C4A50288  12.823  15.224  20.529  0.4291  0.0756 -0.2639
 2369DPPE   C1B50289  12.613  15.767  19.581  0.0656 -0.2118 -0.0114
 2369DPPE   C2B50290  12.697  15.776  20.047 -0.0659  0.0171  0.1311
 2369DPPE   C3B50291  12.613  15.749  20.542 -0.0322  0.0108  0.1076
 2369DPPE   C4B50292  12.210  15.873  20.847  0.1001  0.2861 -0.0180
 2370DPPE   NH350293   8.897  19.384  18.330  0.3147 -0.0571  0.0169
 2370DPPE   PO450294   8.989  19.463  18.793  0.1329 -0.0432  0.0698
 2370DPPE   GL150295   9.049  19.645  19.231 -0.0398 -0.0374 -0.0476
 2370DPPE   GL250296   9.193  19.947  19.359 -0.3297  0.2847 -0.0638
 2370DPPE   C1A50297   9.065  19.616  19.714  0.1347 -0.0004 -0.2905
 2370DPPE   C2A50298   8.992  19.883  20.111 -0.0362  0.0915  0.0947
 2370DPPE   C3A50299   9.142  19.870  20.524  0.3117  0.2652  0.0926
 2370DPPE   C4A50300   9.279  19.622  20.874  0.1396 -0.0946 -0.0965
 2370DPPE   C1B50301   9.173  20.328  19.434 -0.0029 -0.0648  0.1976
 2370DPPE   C2B50302   9.167  20.462  19.908 -0.3326  0.2636  0.3423
 2370DPPE   C3B50303   9.422  20.669  20.252  0.0677  0.2566  0.0923
 2370DPPE   C4B50304   9.604  20.576  20.572 -0.0600  0.3520 -0.2239
 2371DPPE   NH350305  15.575  22.705  18.055 -0.3422  0.1726  0.3850
 2371DPPE   PO450306  15.725  22.141  17.962  0.0809 -0.0133 -0.0116
 2371DPPE   GL150307  15.668  22.224  18.405 -0.1003 -0.0584  0.1235
 2371DPPE   GL250308  15.997  22.348  18.534  0.0630  0.0787  0.1210
 2371DPPE   C1A50309  15.463  22.420  18.693 -0.2058  0.0022  0.2294
 2371DPPE   C2A50310  15.402  22.499  19.209 -0.0396  0.1009 -0.0069
 2371DPPE   C3A50311  15.210  22.555  19.599 -0.0579  0.0161 -0.0609
 2371DPPE   C4A50312  15.051  22.694  19.902 -0.0410 -0.1001 -0.2811
 2371DPPE   C1B50313  15.941  22.470  18.982  0.2613  0.1801  0.2361
 2371DPPE   C2B50314  15.961  22.492  19.404 -0.0624  0.2571  0.0095
 2371DPPE   C3B50315  16.093  22.359  19.754  0.0267  0.0687 -0.1306
 2371DPPE   C4B50316  16.263  22.099  20.005  0.0764  0.1752  0.1249
 2372DPPE   NH350317  10.395  10.868  18.909 -0.2564 -0.1179 -0.0251
 2372DPPE   PO450318  10.595  11.131  18.541 -0.0606  0.0860 -0.2418
 2372DPPE   GL150319  10.634  11.358  18.952 -0.0836 -0.0054 -0.1609
 2372DPPE   GL250320  10.828  11.091  19.086  0.0839 -0.1146  0.1780
 2372DPPE   C1A50321  10.777  11.510  19.313  0.0001  0.2161  0.2335
 2372DPPE   C2A50322  10.877  11.466  19.768  0.0284 -0.0777  0.0118
 2372DPPE   C3A50323  11.031  11.387  20.278 -0.0405 -0.0340  0.0100
 2372DPPE   C4A50324  11.311  11.254  20.574  0.2565  0.0240  0.1729
 2372DPPE   C1B50325  10.884  10.960  19.609 -0.4830 -0.0694  0.4708
 2372DPPE   C2B50326  10.737  11.023  20.023 -0.1117 -0.0132  0.2330
 2372DPPE   C3B50327  10.523  11.375  20.131 -0.2781  0.0707  0.4574
 2372DPPE   C4B50328  10.166  11.359  20.172  0.1686  0.2244 -0.2959
 2373DPPE   NH350329   9.293  13.449  18.673 -0.0555  0.2521 -0.0321
 2373DPPE   PO450330   9.107  13.122  18.875  0.2796 -0.0779 -0.1030
 2373DPPE   GL150331   9.305  13.368  19.241 -0.1027  0.1695 -0.0465
 2373DPPE   GL250332   9.032  13.559  19.149 -0.0242 -0.2397  0.0766
 2373DPPE   C1A50333   9.335  13.414  19.633  0.2575 -0.1021  0.0947
 2373DPPE   C2A50334   9.399  13.476  20.057 -0.1003  0.1166 -0.0178
 2373DPPE   C3A50335   9.252  13.601  20.503 -0.2135 -0.0315 -0.2805
 2373DPPE   C4A50336   8.925  13.916  20.873  0.3209 -0.0226 -0.0161
 2373DPPE   C1B50337   8.926  13.785  19.550  0.1025  0.0758 -0.0524
 2373DPPE   C2B50338   8.831  13.665  19.911 -0.0849 -0.3738 -0.2179
 2373DPPE   C3B50339   8.756  13.546  20.274 -0.2198  0.0620 -0.3666
 2373DPPE   C4B50340   8.505  13.278  20.529 -0.3509 -0.1178  0.1149
 2374DPPE   NH350341  18.615  16.120  18.619  0.3587  0.0478  0.1555
 2374DPPE   PO450342  18.572  15.774  18.392 -0.0452 -0.0856  0.0705
 2374DPPE   GL150343  18.749  15.634  18.856  0.0795 -0.0924 -0.1465
 2374DPPE   GL250344  18.467  15.468  18.998 -0.0713 -0.2609  0.4514
 2374DPPE   C1A50345  18.927  15.891  19.180 -0.1621 -0.0561  0.3060
 2374DPPE   C2A50346  19.164  15.919  19.612  0.0706 -0.3961  0.1934
 2374DPPE   C3A50347  19.151  15.733  19.995 -0.2215  0.2616  0.3265
 2374DPPE   C4A50348  18.963  15.686  20.429 -0.0031  0.0866  0.1508
 2374DPPE   C1B50349  18.459  15.716  19.316  0.3788 -0.4093 -0.0610
 2374DPPE   C2B50350  18.697  15.744  19.609  0.0982 -0.5279 -0.0458
 2374DPPE   C3B50351  18.682  16.006  20.095 -0.1868 -0.1185  0.0823
 2374DPPE   C4B50352  18.792  16.285  20.382 -0.2579 -0.3051  0.1078
 2375DPPE   NH350353  10.879  21.544  18.379 -0.0546  0.0109  0.5255
 2375DPPE   PO450354  10.819  22.015  18.364  0.4113  0.0539  0.2712
 2375DPPE   GL150355  10.829  22.042  18.797 -0.0074 -0.0078 -0.2573
 2375DPPE   GL250356  10.983  22.428  18.822 -0.0610  0.1199  0.0328
 2375DPPE   C1A50357  10.896  21.954  19.191 -0.1451 -0.2335 -0.0487
 2375DPPE   C2A50358  10.954  21.954  19.604 -0.1559 -0.2239 -0.0767
 2375DPPE   C3A50359  11.016  22.033  20.066  0.0170  0.0354 -0.0619
 2375DPPE   C4A50360  11.003  22.073  20.530 -0.2871 -0.0056  0.0609
 2375DPPE   C1B50361  11.035  22.502  19.238  0.0209 -0.1485 -0.1202
 2375DPPE   C2B50362  11.070  22.506  19.648 -0.1962  0.0691  0.3286
 2375DPPE   C3B50363  11.193  22.483  20.146 -0.1912  0.0919 -0.1925
 2375DPPE   C4B50364  11.169  22.568  20.543 -0.0624 -0.0053 -0.0984
 2376DPPE   NH350365  12.722  24.983  18.023 -0.1345 -0.0164  0.1898
 2376DPPE   PO450366  12.933  24.771  17.836 -0.0557 -0.2233  0.3862
 2376DPPE   GL150367  13.140  25.167  17.779  0.1725 -0.0593 -0.0389
 2376DPPE   GL250368  12.970  25.408  17.885  0.1239 -0.0191 -0.2843
 2376DPPE   C1A50369  13.458  25.439  17.845 -0.0701  0.1346 -0.0267
 2376DPPE   C2A50370  13.619  25.770  18.166  0.2816  0.0955 -0.1852
 2376DPPE   C3A50371  13.689  26.192  18.442  0.4340  0.1084  0.2505
 2376DPPE   C4A50372  13.728  26.517  18.686  0.1974  0.0885 -0.2533
 2376DPPE   C1B50373  12.983  25.717  17.537 -0.2368  0.2527  0.2093
 2376DPPE   C2B50374  13.042  26.125  17.370  0.1741  0.0631  0.1311
 2376DPPE   C3B50375  12.777  26.247  17.816  0.1707  0.1121  0.1344
 2376DPPE   C4B50376  12.557  26.538  18.053  0.1627 -0.0830  0.0960
 2377DPPE   NH350377  15.369  18.580  18.624  0.0841  0.0786  0.1412
 2377DPPE   PO450378  15.103  18.319  18.868  0.5001  0.1600  0.3474
 2377DPPE   GL150379  14.815  18.249  19.218 -0.1573 -0.1152  0.0027
 2377DPPE   GL250380  14.402  18.276  19.337 -0.0622  0.1812  0.4611
 2377DPPE   C1A50381  14.796  18.543  19.603 -0.0932 -0.4474 -0.0395
 2377DPPE   C2A50382  14.954  18.558  19.936 -0.3561 -0.0193 -0.0291
 2377DPPE   C3A50383  14.990  18.580  20.333  0.3504  0.0567 -0.1840
 2377DPPE   C4A50384  14.866  18.718  20.751  0.0064 -0.0867 -0.0381
 2377DPPE   C1B50385  14.339  18.451  19.786  0.1691 -0.1569  0.3080
 2377DPPE   C2B50386  14.223  18.351  20.260 -0.0082  0.1498  0.1727
 2377DPPE   C3B50387  14.127  18.232  20.657 -0.3169  0.2507  0.2195
 2377DPPE   C4B50388  14.048  18.060  20.977 -0.1099 -0.0724 -0.0027
 2378DPPE   NH350389   7.518  20.140  18.771 -0.2903  0.0574  0.3415
 2378DPPE   PO450390   7.326  19.682  18.877  0.0685 -0.0442 -0.0275
 2378DPPE   GL150391   7.383  19.459  19.211  0.0298  0.3195  0.0356
 2378DPPE   GL250392   7.182  19.550  19.405  0.2261  0.0250 -0.3564
 2378DPPE   C1A50393   7.594  19.532  19.694  0.1551  0.1230  0.0571
 2378DPPE   C2A50394   7.575  19.451  20.087 -0.1708 -0.2774 -0.0486
 2378DPPE   C3A50395   7.441  19.082  20.402 -0.4600 -0.2282  0.0906
 2378DPPE   C4A50396   7.218  19.075  20.721  0.2183  0.1126 -0.0127
 2378DPPE   C1B50397   7.119  19.368  19.767 -0.0246  0.1431 -0.2100
 2378DPPE   C2B50398   6.845  19.263  20.106 -0.2928  0.1003 -0.0061
 2378DPPE   C3B50399   6.658  19.357  20.422  0.0745 -0.1249 -0.0964
 2378DPPE   C4B50400   6.290  19.568  20.490  0.1764 -0.1102  0.0435
 2379DPPE   NH350401  12.637  17.066  18.431 -0.0718  0.3098 -0.2454
 2379DPPE   PO450402  12.320  16.765  18.548  0.1431  0.5881 -0.4411
 2379DPPE   GL150403  12.335  16.391  18.834  0.2112  0.1789 -0.0875
 2379DPPE   GL250404  12.272  16.114  18.822  0.0091 -0.0047  0.2761
 2379DPPE   C1A50405  12.395  16.396  19.282  0.0705  0.0056 -0.4110
 2379DPPE   C2A50406  12.373  16.271  19.764  0.1780  0.2323  0.2918
 2379DPPE   C3A50407  12.443  16.262  20.206  0.1204  0.0897  0.2634
 2379DPPE   C4A50408  12.378  16.327  20.657 -0.0626 -0.1633  0.1510
 2379DPPE   C1B50409  12.236  15.938  19.229 -0.4141  0.0276  0.3108
 2379DPPE   C2B50410  12.143  15.931  19.550  0.1771  0.1607  0.1911
 2379DPPE   C3B50411  12.139  15.833  20.019  0.3433 -0.0353  0.3914
 2379DPPE   C4B50412  12.151  15.795  20.353 -0.3474  0.1789  0.3281
 2380DPPE   NH350413   7.383  17.855  18.904 -0.1522  0.0051  0.3800
 2380DPPE   PO450414   7.631  17.646  18.527 -0.0925 -0.2493 -0.0795
 2380DPPE   GL150415   7.814  17.459  18.773 -0.1734 -0.0737 -0.3084
 2380DPPE   GL250416   7.867  17.653  19.033 -0.2743  0.4006 -0.3000
 2380DPPE   C1A50417   7.883  17.160  19.188  0.1037  0.0052  0.1888
 2380DPPE   C2A50418   7.905  17.116  19.704  0.1826 -0.3247  0.1459
 2380DPPE   C3A50419   7.818  17.121  20.122 -0.1547 -0.0309 -0.2130
 2380DPPE   C4A50420   7.914  17.306  20.519 -0.1941 -0.0182  0.1344
 2380DPPE   C1B50421   7.871  17.558  19.474  0.1255 -0.0263  0.3021
 2380DPPE   C2B50422   7.610  17.482  19.888 -0.2012 -0.0244  0.1332
 2380DPPE   C3B50423   7.415  17.450  20.227 -0.0396  0.3306 -0.0435
 2380DPPE   C4B50424   7.359  17.339  20.641  0.3611 -0.1921  0.0394
 2381DPPE   NH350425  18.056  24.479  17.760 -0.0589 -0.0867 -0.0070
 2381DPPE   PO450426  17.773  24.091  17.967  0.2094 -0.0296 -0.1987
 2381DPPE   GL150427  18.198  24.201  18.102 -0.4293 -0.0407  0.0837
 2381DPPE   GL250428  18.381  24.013  18.093 -0.0387  0.2508  0.1106
 2381DPPE   C1A50429  18.288  24.325  18.626 -0.2676 -0.3549 -0.1198
 2381DPPE   C2A50430  18.458  24.540  19.001  0.0856 -0.0000  0.0537
 2381DPPE   C3A50431  18.583  24.452  19.325 -0.1771  0.4740  0.0259
 2381DPPE   C4A50432  18.488  24.572  19.731 -0.5646  0.2320 -0.0219
 2381DPPE   C1B50433  18.706  24.039  18.345 -0.1285  0.1351 -0.1339
 2381DPPE   C2B50434  18.970  24.026  18.657 -0.1632  0.1920 -0.0815
 2381DPPE   C3B50435  18.910  24.171  18.974  0.2039  0.5130  0.0563
 2381DPPE   C4B50436  19.066  24.313  19.279 -0.1294  0.2134 -0.1068
 2382DPPE   NH350437   8.693  23.853  18.726 -0.1302  0.5614  0.2077
 2382DPPE   PO450438   8.722  23.838  19.162  0.2893  0.2146 -0.2801
 2382DPPE   GL150439   8.769  24.242  19.250  0.0595  0.0647 -0.0377
 2382DPPE   GL250440   8.567  24.635  19.130  0.0317 -0.0452 -0.1569
 2382DPPE   C1A50441   9.074  24.484  19.405  0.0259 -0.1639 -0.2501
 2382DPPE   C2A50442   9.071  24.597  19.855  0.4363  0.1157 -0.1236
 2382DPPE   C3A50443   9.115  24.998  20.100 -0.4143 -0.1736 -0.1053
 2382DPPE   C4A50444   9.287  25.292  20.317 -0.2669  0.0842 -0.3103
 2382DPPE   C1B50445   8.139  24.603  19.280  0.0360 -0.1019  0.2882
 2382DPPE   C2B50446   7.967  24.576  19.643  0.0132 -0.0304  0.2773
 2382DPPE   C3B50447   8.068  24.459  20.021 -0.0488 -0.1857 -0.0966
 2382DPPE   C4B50448   7.892  24.151  20.252 -0.2175 -0.1244 -0.1310
 2383DPPE   NH350449   6.613  18.510  18.860  0.2574 -0.0319  0.0646
 2383DPPE   PO450450   6.746  18.864  18.839  0.3244 -0.1743  0.0837
 2383DPPE   GL150451   6.743  18.851  19.293  0.3458 -0.0738 -0.0117
 2383DPPE   GL250452   6.951  19.055  19.363 -0.2275  0.2984  0.0099
 2383DPPE   C1A50453   6.506  18.850  19.737  0.0788  0.4062 -0.1089
 2383DPPE   C2A50454   6.485  18.796  20.240  0.2122 -0.2126 -0.3525
 2383DPPE   C3A50455   6.466  18.601  20.711 -0.3595 -0.3513  0.2196
 2383DPPE   C4A50456   6.397  18.216  20.819 -0.1137  0.0752 -0.1268
 2383DPPE   C1B50457   6.972  18.832  19.813 -0.2065 -0.0357  0.0008
 2383DPPE   C2B50458   7.095  18.778  20.225 -0.0603 -0.4056  0.1045
 2383DPPE   C3B50459   6.968  18.682  20.589 -0.3130 -0.0476  0.0076
 2383DPPE   C4B50460   6.926  18.543  21.015 -0.0698  0.0240  0.0468
 2384DPPE   NH350461  16.412  19.798  18.821  0.2466 -0.1927 -0.2922
 2384DPPE   PO450462  16.298  19.295  18.661 -0.2398  0.0796  0.0929
 2384DPPE   GL150463  16.405  19.341  19.113  0.2414  0.2079 -0.0471
 2384DPPE   GL250464  16.509  19.125  19.243  0.2752  0.1056  0.0515
 2384DPPE   C1A50465  16.432  19.578  19.498  0.1613  0.0959 -0.0905
 2384DPPE   C2A50466  16.479  19.623  19.940  0.1039 -0.0953 -0.3238
 2384DPPE   C3A50467  16.488  19.548  20.410 -0.3689 -0.1173 -0.0155
 2384DPPE   C4A50468  16.555  19.639  20.840 -0.0211  0.0880  0.1728
 2384DPPE   C1B50469  16.408  19.026  19.638 -0.0896  0.2300  0.2081
 2384DPPE   C2B50470  16.464  19.164  20.103 -0.0456  0.1166 -0.0306
 2384DPPE   C3B50471  16.691  19.031  20.461  0.1131  0.2927  0.1302
 2384DPPE   C4B50472  16.815  18.793  20.855 -0.0294  0.1021 -0.0323
 2385DPPE   NH350473  16.061  17.908  19.125  0.0052 -0.1610  0.0960
 2385DPPE   PO450474  15.754  17.718  18.908 -0.1305 -0.0055  0.0188
 2385DPPE   GL150475  15.635  17.723  19.380  0.0378 -0.0172  0.2629
 2385DPPE   GL250476  15.463  17.407  19.387 -0.0022 -0.1596 -0.1819
 2385DPPE   C1A50477  15.924  17.521  19.758  0.1661 -0.0256 -0.2390
 2385DPPE   C2A50478  15.772  17.548  20.156  0.1718 -0.5467 -0.0140
 2385DPPE   C3A50479  15.787  17.581  20.548  0.3410 -0.1564 -0.3771
 2385DPPE   C4A50480  15.847  17.439  20.893 -0.1256  0.0818 -0.1485
 2385DPPE   C1B50481  15.534  17.226  19.839  0.1741 -0.2196  0.0558
 2385DPPE   C2B50482  15.522  17.087  20.241 -0.0359  0.0769 -0.1085
 2385DPPE   C3B50483  15.530  17.145  20.628 -0.0960  0.1302  0.3215
 2385DPPE   C4B50484  15.375  17.491  20.792  0.1479 -0.1830 -0.0415
 2386DPPE   NH350485  13.834  13.880  18.314 -0.2158  0.2172  0.0968
 2386DPPE   PO450486  13.646  13.482  18.250  0.0613 -0.0793 -0.0775
 2386DPPE   GL150487  13.279  13.358  18.374  0.0580 -0.2226 -0.0479
 2386DPPE   GL250488  13.125  12.990  18.556 -0.1871  0.0829 -0.2974
 2386DPPE   C1A50489  12.858  13.446  18.702 -0.0375  0.0632 -0.2528
 2386DPPE   C2A50490  13.002  13.527  19.192  0.1769  0.0470 -0.0471
 2386DPPE   C3A50491  13.015  13.488  19.597 -0.1811 -0.2963  0.1575
 2386DPPE   C4A50492  12.977  13.375  20.071  0.0551  0.1720 -0.1019
 2386DPPE   C1B50493  13.045  13.007  18.994 -0.0253 -0.2182 -0.2792
 2386DPPE   C2B50494  13.113  13.093  19.412  0.2976  0.1684  0.2813
 2386DPPE   C3B50495  13.075  12.946  19.832 -0.5093 -0.2350 -0.0304
 2386DPPE   C4B50496  12.875  12.867  20.250 -0.1946  0.0469 -0.0405
 2387DPPE   NH350497   8.385  23.455  18.092 -0.0626 -0.2072 -0.2669
 2387DPPE   PO450498   8.229  23.628  18.486 -0.1270  0.3483 -0.2035
 2387DPPE   GL150499   7.894  23.740  18.209 -0.0943  0.0023  0.2710
 2387DPPE   GL250500   7.695  24.097  18.335  0.2986  0.1168 -0.1287
 2387DPPE   C1A50501   7.456  23.648  18.131  0.0016  0.0477  0.0323
 2387DPPE   C2A50502   7.074  23.495  18.167 -0.1744 -0.0193  0.0287
 2387DPPE   C3A50503   6.653  23.416  18.049 -0.1551  0.1334 -0.0495
 2387DPPE   C4A50504   6.336  23.310  17.698 -0.0223 -0.0457 -0.0460
 2387DPPE   C1B50505   7.464  24.265  18.691  0.2115  0.2730  0.1880
 2387DPPE   C2B50506   6.998  24.327  18.857  0.0712 -0.0718 -0.0995
 2387DPPE   C3B50507   6.745  24.285  19.201 -0.4147  0.4178  0.1053
 2387DPPE   C4B50508   6.901  23.980  19.377  0.0937  0.0770  0.1958
 2388DPPE   NH350509   8.528  20.645  18.763  0.0595  0.0998 -0.0926
 2388DPPE   PO450510   8.185  20.959  18.805 -0.0586  0.0783 -0.0396
 2388DPPE   GL150511   8.178  20.988  19.159 -0.1539  0.3113  0.1841
 2388DPPE   GL250512   8.326  20.849  19.441 -0.1631  0.2158  0.1394
 2388DPPE   C1A50513   8.014  21.222  19.597 -0.3516  0.1762  0.2090
 2388DPPE   C2A50514   7.740  21.060  19.896 -0.1237 -0.3597 -0.1668
 2388DPPE   C3A50515   7.434  20.913  20.107 -0.3548  0.1108 -0.4459
 2388DPPE   C4A50516   7.370  20.684  20.562 -0.1574 -0.0419 -0.0051
 2388DPPE   C1B50517   8.131  20.763  19.875  0.0423  0.0502  0.1046
 2388DPPE   C2B50518   7.852  20.698  20.277 -0.0296 -0.0838  0.1811
 2388DPPE   C3B50519   8.002  20.614  20.720  0.0405 -0.5181  0.0393
 2388DPPE   C4B50520   8.171  20.277  20.957 -0.3226 -0.1650 -0.1817
 2389DPPE   NH350521   8.182  17.723  18.515 -0.0893  0.2235 -0.0322
 2389DPPE   PO450522   8.366  17.335  18.355  0.2300  0.1631  0.3457
 2389DPPE   GL150523   8.300  17.373  18.804 -0.1518  0.1238  0.1342
 2389DPPE   GL250524   8.512  17.614  18.867 -0.2962 -0.0007 -0.2932
 2389DPPE   C1A50525   8.356  17.026  19.139 -0.1342  0.1312 -0.2562
 2389DPPE   C2A50526   8.470  17.254  19.516 -0.0832  0.1907  0.3029
 2389DPPE   C3A50527   8.314  17.220  20.013  0.0745 -0.0762  0.3493
 2389DPPE   C4A50528   8.465  17.327  20.470  0.2048  0.0642  0.2721
 2389DPPE   C1B50529   8.307  17.601  19.260  0.1605 -0.1123  0.2543
 2389DPPE   C2B50530   8.278  17.753  19.632 -0.1961  0.2463 -0.2848
 2389DPPE   C3B50531   8.128  17.659  19.944  0.0017 -0.2720  0.1902
 2389DPPE   C4B50532   8.095  17.726  20.386 -0.0145 -0.1769  0.0048
 2390DPPE   NH350533  18.309  12.141  17.932  0.0716 -0.1093 -0.1030
 2390DPPE   PO450534  18.217  11.793  18.099  0.1741  0.0219  0.0833
 2390DPPE   GL150535  18.464  11.565  18.403  0.0662  0.1465 -0.1953
 2390DPPE   GL250536  18.258  11.327  18.537  0.0300  0.1089 -0.2773
 2390DPPE   C1A50537  18.723  11.441  18.855 -0.0265 -0.0547  0.2733
 2390DPPE   C2A50538  18.550  11.290  19.255  0.1078  0.2946 -0.1047
 2390DPPE   C3A50539  18.496  11.323  19.665 -0.1819 -0.1118  0.2002
 2390DPPE   C4A50540  18.684  11.241  20.045  0.2111  0.3238  0.2036
 2390DPPE   C1B50541  18.110  11.364  18.964  0.0318 -0.2419  0.0882
 2390DPPE   C2B50542  18.030  11.303  19.371 -0.0862  0.3092  0.2918
 2390DPPE   C3B50543  17.837  11.208  19.717 -0.0460  0.1590 -0.2894
 2390DPPE   C4B50544  18.138  11.249  19.977 -0.0182  0.0874 -0.0415
 2391DPPE   NH350545  17.106  20.601  18.861  0.3372  0.0637 -0.1184
 2391DPPE   PO450546  16.958  21.037  18.637  0.1363 -0.2348  0.0989
 2391DPPE   GL150547  16.816  21.021  19.158 -0.2025 -0.1190 -0.2580
 2391DPPE   GL250548  17.134  20.847  19.289  0.0813 -0.0086  0.3297
 2391DPPE   C1A50549  16.852  21.124  19.595  0.1101 -0.0437 -0.0968
 2391DPPE   C2A50550  16.954  21.154  19.966  0.0602  0.0720  0.3103
 2391DPPE   C3A50551  17.264  21.021  20.276 -0.1453  0.5084  0.1769
 2391DPPE   C4A50552  17.716  20.915  20.395 -0.2351 -0.0390  0.3239
 2391DPPE   C1B50553  17.387  21.111  19.670  0.5016 -0.1769 -0.0397
 2391DPPE   C2B50554  17.672  21.035  19.919  0.1504  0.1362 -0.4095
 2391DPPE   C3B50555  18.079  20.932  19.997 -0.1403 -0.2127  0.0329
 2391DPPE   C4B50556  18.260  20.840  20.260 -0.0578  0.2377  0.2366
 2392DPPE   NH350557   6.501  15.126  18.694 -0.0499  0.0140  0.0328
 2392DPPE   PO450558   6.950  15.227  18.639 -0.0633 -0.1268 -0.1497
 2392DPPE   GL150559   7.029  15.243  19.085 -0.2867 -0.0572  0.2575
 2392DPPE   GL250560   6.736  15.246  19.224  0.0495  0.0545  0.2017
 2392DPPE   C1A50561   7.288  15.385  19.390  0.3396  0.1416  0.0578
 2392DPPE   C2A50562   7.275  15.632  19.819 -0.0115 -0.0678  0.2770
 2392DPPE   C3A50563   7.283  15.599  20.229  0.1420  0.0671 -0.0224
 2392DPPE   C4A50564   7.364  15.365  20.633  0.1467  0.1632 -0.0976
 2392DPPE   C1B50565   6.539  15.127  19.628  0.2408 -0.0054  0.0590
 2392DPPE   C2B50566   6.481  15.186  20.009  0.0843 -0.1999 -0.0410
 2392DPPE   C3B50567   6.359  15.318  20.464 -0.0007  0.1885  0.1633
 2392DPPE   C4B50568   6.227  15.446  20.857  0.0205  0.0134  0.1393
 2393DPPE   NH350569  16.106  24.300  18.371 -0.2530 -0.1457  0.3536
 2393DPPE   PO450570  15.743  23.898  18.268  0.2075 -0.2122 -0.0953
 2393DPPE   GL150571  15.603  24.074  18.564 -0.1885 -0.0076 -0.1023
 2393DPPE   GL250572  15.674  24.357  18.625 -0.0638 -0.1878 -0.0456
 2393DPPE   C1A50573  15.369  24.060  18.880 -0.1114  0.0632 -0.1290
 2393DPPE   C2A50574  15.295  24.270  19.248  0.3324 -0.1120  0.2723
 2393DPPE   C3A50575  15.539  24.428  19.584  0.1477 -0.1309  0.1379
 2393DPPE   C4A50576  15.587  24.384  19.996  0.0820 -0.3467 -0.0238
 2393DPPE   C1B50577  15.603  24.523  18.940  0.3541 -0.1368 -0.1824
 2393DPPE   C2B50578  15.708  24.865  19.223  0.1237  0.2140 -0.1190
 2393DPPE   C3B50579  15.791  24.905  19.656  0.0237  0.2506 -0.2440
 2393DPPE   C4B50580  15.422  24.900  19.896  0.0323  0.0817 -0.1812
 2394DPPE   NH350581  12.323   9.393  17.721  0.2056  0.0468 -0.0447
 2394DPPE   PO450582  11.903   9.507  17.471  0.3493 -0.0152  0.0338
 2394DPPE   GL150583  11.775   9.132  17.215 -0.0459  0.2021  0.0113
 2394DPPE   GL250584  11.955   9.151  16.937 -0.3267  0.0789  0.0394
 2394DPPE   C1A50585  11.396   8.945  17.262 -0.1238 -0.0650  0.0205
 2394DPPE   C2A50586  10.941   8.925  17.356 -0.2241 -0.0061 -0.1456
 2394DPPE   C3A50587  10.556   8.864  17.397 -0.1046 -0.2557  0.2055
 2394DPPE   C4A50588  10.186   8.996  17.070  0.2528  0.1488  0.0730
 2394DPPE   C1B50589  12.051   8.704  17.044  0.0504 -0.2669  0.6099
 2394DPPE   C2B50590  12.119   8.258  17.141  0.0627 -0.3726  0.2548
 2394DPPE   C3B50591  12.033   7.893  17.178  0.1941 -0.3601  0.1595
 2394DPPE   C4B50592  12.365   7.628  17.019 -0.1382  0.0443 -0.0787
 2395DPPE   NH350593  15.416  12.319  18.221 -0.5010 -0.1374 -0.0715
 2395DPPE   PO450594  15.063  12.073  18.342 -0.1643  0.1838  0.2258
 2395DPPE   GL150595  14.890  11.920  18.705  0.0162 -0.0914  0.0737
 2395DPPE   GL250596  14.517  11.970  18.745  0.2557  0.1093 -0.4653
 2395DPPE   C1A50597  14.956  11.834  19.091  0.1086 -0.1264 -0.0397
 2395DPPE   C2A50598  14.945  11.777  19.565 -0.3263  0.0723  0.1688
 2395DPPE   C3A50599  15.033  11.725  20.014  0.0563  0.0625 -0.0958
 2395DPPE   C4A50600  15.185  11.650  20.360  0.0193  0.3309 -0.0407
 2395DPPE   C1B50601  14.479  12.019  19.164 -0.1041 -0.0823 -0.1897
 2395DPPE   C2B50602  14.459  11.975  19.535 -0.1122 -0.0275 -0.0153
 2395DPPE   C3B50603  14.527  11.847  19.935  0.1138  0.0389 -0.1234
 2395DPPE   C4B50604  14.569  11.797  20.390 -0.2035  0.3692  0.0978
 2396DPPE   NH350605  11.230  14.191  17.625 -0.5713  0.3949 -0.0536
 2396DPPE   PO450606  11.288  14.276  18.068  0.1869 -0.0711 -0.2826
 2396DPPE   GL150607  11.359  14.398  18.469  0.1216  0.0381  0.1784
 2396DPPE   GL250608  11.523  14.703  18.610 -0.2181 -0.2431  0.3435
 2396DPPE   C1A50609  11.143  14.241  18.858  0.1867 -0.1930  0.1044
 2396DPPE   C2A50610  11.223  14.290  19.226 -0.1883 -0.1898  0.1448
 2396DPPE   C3A50611  11.292  14.170  19.663 -0.1376  0.1540  0.1431
 2396DPPE   C4A50612  11.261  14.161  20.012 -0.0828 -0.1650 -0.0470
 2396DPPE   C1B50613  11.518  14.637  18.938 -0.0275  0.1272 -0.1187
 2396DPPE   C2B50614  11.587  14.596  19.309 -0.1794  0.0364 -0.2308
 2396DPPE   C3B50615  11.647  14.566  19.752 -0.1479 -0.3877 -0.0460
 2396DPPE   C4B50616  11.602  14.491  20.188 -0.1007 -0.0003 -0.1745
 2397DPPE   NH350617  12.981  10.142  17.845  0.2298 -0.1875  0.0894
 2397DPPE   PO450618  13.381  10.262  17.777  0.0836  0.0576 -0.0174
 2397DPPE   GL150619  13.336  10.127  18.232  0.0812  0.0899 -0.1999
 2397DPPE   GL250620  13.225  10.427  18.517 -0.2530  0.3171 -0.1411
 2397DPPE   C1A50621  13.223   9.936  18.659 -0.1791  0.4154  0.0090
 2397DPPE   C2A50622  13.300   9.809  19.153 -0.1137  0.1999 -0.0296
 2397DPPE   C3A50623  12.965   9.633  19.371  0.2051  0.0136 -0.4091
 2397DPPE   C4A50624  12.906   9.608  19.732  0.0824  0.0905 -0.1814
 2397DPPE   C1B50625  13.129  10.272  18.988  0.1550  0.2765  0.0588
 2397DPPE   C2B50626  12.970  10.123  19.440  0.0836 -0.0637 -0.2783
 2397DPPE   C3B50627  13.216  10.208  19.894  0.1884 -0.1993 -0.0966
 2397DPPE   C4B50628  13.351  10.522  20.241 -0.0870  0.1201  0.0486
 2398DPPE   NH350629  12.287  25.219  17.877  0.0708  0.1504  0.3129
 2398DPPE   PO450630  11.947  25.437  17.743 -0.2396 -0.0394  0.1280
 2398DPPE   GL150631  11.968  25.649  18.056  0.0686  0.1096  0.1517
 2398DPPE   GL250632  12.186  25.693  18.111 -0.2503  0.1714 -0.1010
 2398DPPE   C1A50633  11.777  25.982  18.321  0.3118  0.0868  0.2338
 2398DPPE   C2A50634  11.739  26.334  18.660  0.0285 -0.0171  0.1502
 2398DPPE   C3A50635  11.691  26.582  18.946  0.0575 -0.0240  0.1792
 2398DPPE   C4A50636  11.672  26.857  19.302  0.0209  0.0131 -0.0130
 2398DPPE   C1B50637  12.609  25.789  17.874 -0.0988  0.1581  0.1579
 2398DPPE   C2B50638  13.146  25.886  17.979  0.1555 -0.1195  0.3092
 2398DPPE   C3B50639  13.322  26.291  17.947 -0.0712  0.0321  0.0984
 2398DPPE   C4B50640  13.407  26.717  17.825 -0.2833  0.0679  0.0403
 2399DPPE   NH350641   9.579  16.705  18.333 -0.0121  0.1730  0.2083
 2399DPPE   PO450642  10.008  16.887  18.398 -0.0664  0.0196 -0.2502
 2399DPPE   GL150643   9.768  16.759  18.781  0.0828 -0.1074  0.0353
 2399DPPE   GL250644   9.503  16.798  18.822  0.0226 -0.0046  0.1119
 2399DPPE   C1A50645   9.850  16.778  19.284 -0.1631 -0.0362  0.1663
 2399DPPE   C2A50646   9.903  16.786  19.680 -0.0300 -0.5185  0.3398
 2399DPPE   C3A50647  10.018  16.732  20.147 -0.2375 -0.0519  0.2552
 2399DPPE   C4A50648  10.145  16.739  20.494  0.1516 -0.5885  0.1812
 2399DPPE   C1B50649   9.357  16.971  19.178  0.1977  0.1068  0.0387
 2399DPPE   C2B50650   9.338  16.980  19.590 -0.1454  0.1300 -0.1422
 2399DPPE   C3B50651   9.278  17.157  20.028  0.0628  0.0890  0.1307
 2399DPPE   C4B50652   9.559  17.435  20.286  0.1715 -0.2167 -0.3845
 2400DPPE   NH350653  16.635  12.943  18.220 -0.0492  0.1093  0.1017
 2400DPPE   PO450654  16.281  12.726  18.063 -0.1750  0.1768 -0.0833
 2400DPPE   GL150655  16.309  12.704  18.563  0.1146 -0.0664  0.1507
 2400DPPE   GL250656  16.524  13.014  18.716 -0.1230 -0.1872  0.2261
 2400DPPE   C1A50657  16.106  12.512  18.907 -0.0258 -0.2113  0.1592
 2400DPPE   C2A50658  16.229  12.444  19.354 -0.1880 -0.1494 -0.1664
 2400DPPE   C3A50659  16.324  12.473  19.821 -0.1475 -0.0425 -0.4867
 2400DPPE   C4A50660  16.419  12.429  20.289  0.0251  0.1083 -0.0591
 2400DPPE   C1B50661  16.574  12.888  19.142  0.2392 -0.0618  0.1024
 2400DPPE   C2B50662  16.475  12.893  19.585 -0.1338  0.2676  0.0228
 2400DPPE   C3B50663  16.568  12.887  20.061 -0.2290  0.0607 -0.2696
 2400DPPE   C4B50664  16.755  13.000  20.446 -0.2749  0.0421  0.0151
 2401DPPE   NH350665   9.087  21.353  18.557 -0.0629  0.3579 -0.0730
 2401DPPE   PO450666   9.274  21.795  18.667  0.0611 -0.0554 -0.0391
 2401DPPE   GL150667   9.263  21.804  19.191 -0.2109  0.0518  0.2161
 2401DPPE   GL250668   8.967  21.652  19.366  0.2091 -0.2182  0.4027
 2401DPPE   C1A50669   9.419  21.872  19.571  0.0769 -0.1323 -0.0551
 2401DPPE   C2A50670   9.539  21.774  20.061 -0.2367  0.2565  0.0631
 2401DPPE   C3A50671   9.660  22.077  20.317 -0.3349 -0.3523  0.2464
 2401DPPE   C4A50672   9.676  22.123  20.748  0.1201 -0.1365  0.2342
 2401DPPE   C1B50673   9.007  21.977  19.758 -0.0569 -0.0139 -0.0223
 2401DPPE   C2B50674   8.844  21.802  20.181  0.0595  0.0134  0.1460
 2401DPPE   C3B50675   8.672  21.714  20.610 -0.1452 -0.2462  0.2034
 2401DPPE   C4B50676   9.023  21.473  20.849  0.3774 -0.2530 -0.1389
 2402DPPE   NH350677  15.980  24.586  17.125 -0.2589 -0.0650 -0.2248
 2402DPPE   PO450678  15.660  24.410  17.295  0.2065 -0.2478  0.2328
 2402DPPE   GL150679  15.606  24.837  17.028 -0.2343 -0.3120  0.0033
 2402DPPE   GL250680  15.574  24.744  16.792  0.0328  0.1045 -0.6140
 2402DPPE   C1A50681  15.432  25.212  16.968  0.1693  0.0275 -0.2015
 2402DPPE   C2A50682  15.411  25.688  17.032  0.1432 -0.0200  0.0423
 2402DPPE   C3A50683  15.345  26.142  16.804  0.1779 -0.1197 -0.4071
 2402DPPE   C4A50684  15.346  26.548  16.777  0.0645 -0.0288 -0.2110
 2402DPPE   C1B50685  15.403  24.963  16.406  0.1299  0.0504 -0.1726
 2402DPPE   C2B50686  15.407  25.322  16.123 -0.0882  0.0863  0.0509
 2402DPPE   C3B50687  15.312  25.716  16.090 -0.1075 -0.0853  0.1654
 2402DPPE   C4B50688  15.557  26.035  16.199  0.1819 -0.0746 -0.3515
 2403DPPE   NH350689  11.476  25.424  18.069 -0.0177  0.0692 -0.0012
 2403DPPE   PO450690  11.119  25.214  18.189 -0.0527  0.3639  0.1258
 2403DPPE   GL150691  10.917  25.573  18.215 -0.2800  0.0468  0.1145
 2403DPPE   GL250692  11.282  25.752  18.383  0.1997 -0.0032 -0.0347
 2403DPPE   C1A50693  10.527  25.822  18.218 -0.0082  0.3339  0.2569
 2403DPPE   C2A50694  10.129  25.923  18.066 -0.1097 -0.3929 -0.1355
 2403DPPE   C3A50695   9.757  25.914  17.885  0.0679  0.1488  0.1323
 2403DPPE   C4A50696   9.450  25.709  17.726 -0.0654 -0.0077  0.2438
 2403DPPE   C1B50697  11.431  25.906  18.731  0.0403  0.2254 -0.2257
 2403DPPE   C2B50698  11.806  25.978  18.952  0.4075  0.4329 -0.3456
 2403DPPE   C3B50699  12.161  26.287  19.054  0.1889  0.0221  0.0012
 2403DPPE   C4B50700  12.527  26.365  19.369 -0.5201  0.2011 -0.0736
 2404DPPE   NH350701  14.703  11.768  18.193 -0.0478  0.1385 -0.0377
 2404DPPE   PO450702  14.752  11.458  17.872 -0.3652  0.0464 -0.0620
 2404DPPE   GL150703  14.816  11.265  18.320 -0.1070  0.2049  0.1708
 2404DPPE   GL250704  14.933  11.459  18.553 -0.0578  0.0778 -0.0485
 2404DPPE   C1A50705  15.132  10.913  18.543 -0.1511 -0.1492 -0.1883
 2404DPPE   C2A50706  15.305  10.856  18.950  0.0502  0.3242 -0.2255
 2404DPPE   C3A50707  15.116  10.581  19.111 -0.1022  0.2111  0.0753
 2404DPPE   C4A50708  14.995  10.079  19.113 -0.0107  0.2338  0.1150
 2404DPPE   C1B50709  15.092  11.355  18.844  0.0823 -0.0713  0.0238
 2404DPPE   C2B50710  15.162  11.261  19.259  0.2615 -0.0104 -0.4092
 2404DPPE   C3B50711  15.216  11.156  19.630 -0.0679 -0.1493 -0.0057
 2404DPPE   C4B50712  15.281  11.263  20.071  0.0004 -0.0265  0.2827
 2405DPPE   NH350713  19.357  14.043  18.200 -0.0485  0.1266  0.1578
 2405DPPE   PO450714  19.054  13.879  18.521  0.1224  0.1109 -0.0363
 2405DPPE   GL150715  19.231  13.498  18.752  0.3431 -0.1436 -0.1913
 2405DPPE   GL250716  19.039  13.231  18.778 -0.0795  0.4936  0.0945
 2405DPPE   C1A50717  19.475  13.337  18.970  0.2403 -0.2039  0.1589
 2405DPPE   C2A50718  19.791  13.310  19.226 -0.0045 -0.1225 -0.2884
 2405DPPE   C3A50719  20.097  13.136  19.494  0.2322  0.0557 -0.1510
 2405DPPE   C4A50720  20.148  12.734  19.669 -0.0083  0.2152  0.0965
 2405DPPE   C1B50721  19.033  13.293  19.275  0.3681  0.0673  0.0989
 2405DPPE   C2B50722  19.045  13.412  19.652 -0.0405  0.1043  0.0256
 2405DPPE   C3B50723  18.947  13.586  20.057  0.3000  0.2126  0.0987
 2405DPPE   C4B50724  18.629  13.781  20.423 -0.2574 -0.0940 -0.0769
 2406DPPE   NH350725   7.717  21.059  18.983  0.3097  0.0902 -0.2064
 2406DPPE   PO450726   7.356  21.186  18.841  0.1496  0.1607  0.2552
 2406DPPE   GL150727   7.176  21.293  19.272  0.0772  0.1979  0.1827
 2406DPPE   GL250728   6.977  21.194  19.425  0.4484 -0.0990  0.0774
 2406DPPE   C1A50729   6.933  21.724  19.588 -0.0244  0.1724  0.0383
 2406DPPE   C2A50730   6.614  21.890  19.576  0.0989  0.0872  0.0377
 2406DPPE   C3A50731   6.376  22.279  19.830  0.0153  0.1880  0.0220
 2406DPPE   C4A50732   6.180  22.144  20.278 -0.3480  0.2026  0.0234
 2406DPPE   C1B50733   6.652  21.215  19.638  0.0137 -0.0618  0.2294
 2406DPPE   C2B50734   6.306  21.299  19.843  0.1911 -0.1021 -0.2045
 2406DPPE   C3B50735   6.193  21.323  20.260  0.2004  0.1111  0.1238
 2406DPPE   C4B50736   5.958  21.327  20.618  0.0876 -0.0936 -0.2596
 2407DPPE   NH350737  17.823  18.275  19.127 -0.0515  0.1339  0.0136
 2407DPPE   PO450738  17.590  18.594  18.883 -0.5620 -0.1690  0.0546
 2407DPPE   GL150739  17.681  18.831  19.339 -0.1164  0.1192 -0.0082
 2407DPPE   GL250740  17.498  19.058  19.499 -0.0358  0.0859  0.1516
 2407DPPE   C1A50741  17.969  19.039  19.623 -0.0850  0.2477  0.0343
 2407DPPE   C2A50742  18.041  19.172  19.946  0.5360 -0.3010 -0.1243
 2407DPPE   C3A50743  18.077  19.057  20.431  0.1471  0.0506  0.0771
 2407DPPE   C4A50744  18.217  19.202  20.914  0.0420  0.1758  0.2973
 2407DPPE   C1B50745  17.446  18.894  19.868  0.0542  0.1906 -0.3118
 2407DPPE   C2B50746  17.749  18.762  20.208 -0.1777 -0.0916 -0.1321
 2407DPPE   C3B50747  17.954  18.608  20.585 -0.0970 -0.0543  0.1401
 2407DPPE   C4B50748  17.689  18.462  20.983  0.2557  0.1691  0.1783
 2408DPPE   NH350749  12.478   9.939  18.266 -0.1892 -0.2889 -0.0287
 2408DPPE   PO450750  12.719   9.564  18.077 -0.1290 -0.0391 -0.0094
 2408DPPE   GL150751  12.597   9.255  18.241  0.1177 -0.1270 -0.0323
 2408DPPE   GL250752  12.356   9.058  18.153 -0.1784 -0.2735 -0.0397
 2408DPPE   C1A50753  12.692   8.901  18.459  0.3331  0.2819 -0.1494
 2408DPPE   C2A50754  12.719   8.437  18.582 -0.0644 -0.0770 -0.1773
 2408DPPE   C3A50755  12.495   8.130  18.927 -0.1154 -0.0844 -0.0029
 2408DPPE   C4A50756  12.577   7.966  19.364  0.1366 -0.1713  0.0104
 2408DPPE   C1B50757  12.302   8.653  18.448  0.3930  0.0594 -0.0678
 2408DPPE   C2B50758  12.248   8.291  18.533 -0.2996 -0.2758 -0.3362
 2408DPPE   C3B50759  11.965   8.093  18.780 -0.0219 -0.0955 -0.0295
 2408DPPE   C4B50760  11.596   7.892  18.647  0.1492 -0.1980  0.1798
 2409DPPE   NH350761  10.353  16.310  18.333 -0.0719 -0.1583  0.0446
 2409DPPE   PO450762  10.071  16.417  18.595 -0.4258  0.1838  0.1910
 2409DPPE   GL150763   9.937  16.097  18.920 -0.2869 -0.5641  0.1591
 2409DPPE   GL250764  10.190  16.091  19.013  0.0509 -0.0049  0.2066
 2409DPPE   C1A50765  10.000  16.292  19.413 -0.0800  0.1469 -0.0595
 2409DPPE   C2A50766  10.057  16.133  19.848 -0.3101 -0.1574 -0.2797
 2409DPPE   C3A50767  10.213  16.267  20.356 -0.1584  0.0806  0.3687
 2409DPPE   C4A50768   9.984  16.307  20.713 -0.1289 -0.2008 -0.2787
 2409DPPE   C1B50769  10.161  15.793  19.336 -0.2548  0.0512  0.0194
 2409DPPE   C2B50770  10.208  15.675  19.715  0.0270  0.2150 -0.0012
 2409DPPE   C3B50771  10.164  15.754  20.157  0.3511 -0.1248 -0.2178
 2409DPPE   C4B50772  10.208  15.752  20.592  0.1560 -0.0943 -0.0539
 2410DPPE   NH350773  12.702  17.047  18.936  0.2027  0.3045 -0.1367
 2410DPPE   PO450774  12.282  17.246  18.766  0.0728 -0.0103  0.1482
 2410DPPE   GL150775  12.188  16.844  19.031  0.3615 -0.0834  0.0495
 2410DPPE   GL250776  11.927  16.644  18.967 -0.0602  0.0887  0.0054
 2410DPPE   C1A50777  12.237  16.833  19.497  0.2544  0.0289 -0.0302
 2410DPPE   C2A50778  12.224  16.678  19.939  0.1611 -0.2649 -0.3828
 2410DPPE   C3A50779  12.162  16.636  20.311 -0.0730 -0.0209 -0.0775
 2410DPPE   C4A50780  12.173  16.805  20.724 -0.2117  0.0025  0.3485
 2410DPPE   C1B50781  11.933  16.464  19.410 -0.1232  0.0096  0.4534
 2410DPPE   C2B50782  11.881  16.335  19.881  0.0604 -0.1072 -0.2911
 2410DPPE   C3B50783  11.914  16.264  20.355 -0.0694 -0.0090  0.2510
 2410DPPE   C4B50784  11.786  16.325  20.784 -0.3088  0.0577 -0.0152
 2411DPPE   NH350785  16.494  13.895  18.443  0.1482 -0.0027 -0.0598
 2411DPPE   PO450786  16.561  14.302  18.293 -0.0777 -0.2150  0.1850
 2411DPPE   GL150787  16.526  14.350  18.660 -0.1631 -0.1707 -0.2455
 2411DPPE   GL250788  16.778  14.626  18.829  0.0713 -0.2793 -0.0238
 2411DPPE   C1A50789  16.505  14.260  19.044 -0.0391  0.1708  0.3473
 2411DPPE   C2A50790  16.495  14.234  19.423 -0.2613 -0.0708 -0.2143
 2411DPPE   C3A50791  16.482  14.182  19.887  0.2117 -0.0523 -0.2278
 2411DPPE   C4A50792  16.477  14.161  20.319 -0.1325 -0.0482  0.1623
 2411DPPE   C1B50793  16.757  14.640  19.340 -0.2288 -0.0238  0.0535
 2411DPPE   C2B50794  16.844  14.679  19.792 -0.0316  0.1279  0.1299
 2411DPPE   C3B50795  16.818  14.667  20.272  0.1811  0.1200  0.2539
 2411DPPE   C4B50796  16.767  14.652  20.711 -0.0825  0.3710  0.1673
 2412DPPE   NH350797   7.462  15.046  18.803 -0.2161  0.1820  0.0674
 2412DPPE   PO450798   7.461  15.305  18.540 -0.0163 -0.1624  0.0745
 2412DPPE   GL150799   7.425  15.534  18.908  0.0569 -0.1230 -0.1006
 2412DPPE   GL250800   7.230  15.849  18.985 -0.1674  0.0579 -0.0969
 2412DPPE   C1A50801   7.661  15.779  19.191 -0.0027  0.0913 -0.2022
 2412DPPE   C2A50802   7.599  15.967  19.651 -0.2288 -0.2198 -0.3796
 2412DPPE   C3A50803   7.468  16.050  20.062 -0.3282  0.0622  0.0973
 2412DPPE   C4A50804   7.656  16.110  20.515  0.0214 -0.0165  0.0071
 2412DPPE   C1B50805   7.087  15.956  19.335  0.1994  0.1216  0.0562
 2412DPPE   C2B50806   6.831  15.657  19.585 -0.1749 -0.2941 -0.0944
 2412DPPE   C3B50807   6.417  15.613  19.758  0.1732 -0.1254 -0.1760
 2412DPPE   C4B50808   6.084  15.675  19.960 -0.0825 -0.0629 -0.2233
 2413DPPE   NH350809   9.747  18.249  18.199  0.0450 -0.2096  0.0635
 2413DPPE   PO450810  10.146  18.381  18.464 -0.0660  0.1196  0.3686
 2413DPPE   GL150811   9.985  18.315  18.817  0.2321  0.1029 -0.3821
 2413DPPE   GL250812  10.090  18.522  19.018  0.1571  0.1566  0.0695
 2413DPPE   C1A50813   9.954  18.067  19.226 -0.1965 -0.0707 -0.1162
 2413DPPE   C2A50814  10.202  17.930  19.622 -0.2457 -0.0988  0.1080
 2413DPPE   C3A50815  10.388  17.760  19.973 -0.1416 -0.4947  0.0730
 2413DPPE   C4A50816  10.633  17.809  20.471  0.0028  0.0341  0.0563
 2413DPPE   C1B50817  10.065  18.507  19.453  0.1987  0.2745  0.5283
 2413DPPE   C2B50818  10.286  18.433  19.812 -0.4231  0.0884 -0.2304
 2413DPPE   C3B50819  10.196  18.539  20.191  0.1079 -0.0576  0.0156
 2413DPPE   C4B50820  10.054  18.638  20.582  0.1075 -0.1131 -0.1437
 2414DPPE   NH350821  12.409  22.961  17.980  0.0995  0.0419 -0.1791
 2414DPPE   PO450822  12.368  23.345  18.058 -0.1739  0.0753 -0.1242
 2414DPPE   GL150823  12.422  23.525  18.341  0.2957  0.0537  0.1629
 2414DPPE   GL250824  12.222  23.685  18.600  0.2032 -0.0131  0.0548
 2414DPPE   C1A50825  12.671  23.689  18.722 -0.0720  0.0767 -0.1159
 2414DPPE   C2A50826  12.977  23.626  19.055 -0.0434 -0.0120 -0.2039
 2414DPPE   C3A50827  13.030  23.638  19.500  0.0689  0.0461 -0.2139
 2414DPPE   C4A50828  12.947  23.719  19.968  0.0445 -0.2759 -0.2571
 2414DPPE   C1B50829  12.361  23.660  19.071  0.3238 -0.2149 -0.1761
 2414DPPE   C2B50830  12.602  23.876  19.312  0.0299 -0.1316  0.1345
 2414DPPE   C3B50831  12.746  24.133  19.640  0.2923  0.0572 -0.1849
 2414DPPE   C4B50832  12.626  24.097  20.078  0.0366 -0.2121  0.1992
 2415DPPE   NH350833  16.401  24.443  17.922 -0.3313  0.0576 -0.4526
 2415DPPE   PO450834  16.230  24.757  18.087 -0.0031 -0.0686  0.1194
 2415DPPE   GL150835  16.059  24.862  18.472 -0.0391 -0.1773 -0.3435
 2415DPPE   GL250836  16.306  24.771  18.710 -0.1821  0.2238  0.3034
 2415DPPE   C1A50837  16.016  25.157  18.761  0.1298  0.2354 -0.0731
 2415DPPE   C2A50838  15.822  25.597  18.755 -0.1408  0.0837 -0.0577
 2415DPPE   C3A50839  15.623  25.843  18.948 -0.1607  0.0603 -0.0706
 2415DPPE   C4A50840  15.792  26.294  18.925 -0.1318 -0.4054  0.0447
 2415DPPE   C1B50841  16.089  24.673  19.025 -0.3291  0.4443 -0.2335
 2415DPPE   C2B50842  16.122  24.537  19.518 -0.2095 -0.0505 -0.0881
 2415DPPE   C3B50843  16.165  24.435  19.940 -0.1059  0.0169 -0.0237
 2415DPPE   C4B50844  16.105  24.267  20.332 -0.2781  0.1194  0.1130
 2416DPPE   NH350845   5.753  15.465  18.830  0.2808 -0.3192 -0.0039
 2416DPPE   PO450846   5.915  15.076  18.821 -0.1920  0.1655 -0.3914
 2416DPPE   GL150847   5.549  14.982  19.030  0.0975  0.1574 -0.2908
 2416DPPE   GL250848   5.321  15.180  18.901 -0.1176  0.3592 -0.0954
 2416DPPE   C1A50849   5.375  15.019  19.488  0.0194  0.2548  0.1979
 2416DPPE   C2A50850   5.589  14.924  19.813 -0.1690  0.0775 -0.1969
 2416DPPE   C3A50851   5.721  14.610  20.126  0.0283  0.1349 -0.2435
 2416DPPE   C4A50852   5.658  14.549  20.563 -0.2540  0.3999 -0.3766
 2416DPPE   C1B50853   5.160  15.664  18.814  0.1089  0.0098  0.0228
 2416DPPE   C2B50854   4.942  16.066  18.705  0.0630  0.1855  0.1212
 2416DPPE   C3B50855   4.516  16.203  18.725  0.2651 -0.2611  0.1666
 2416DPPE   C4B50856   4.283  16.322  18.365  0.0235  0.3302 -0.2135
 2417DPPE   NH350857  17.420  22.242  18.389 -0.1609  0.1090 -0.0935
 2417DPPE   PO450858  17.448  22.516  18.029 -0.0101  0.1068 -0.1273
 2417DPPE   GL150859  17.792  22.775  18.120  0.3229  0.1805  0.2961
 2417DPPE   GL250860  17.848  22.867  18.377  0.1511 -0.2982  0.0934
 2417DPPE   C1A50861  18.273  22.739  18.189 -0.1108 -0.0100  0.0383
 2417DPPE   C2A50862  18.451  22.551  18.622  0.1537 -0.0937  0.1951
 2417DPPE   C3A50863  18.261  22.152  18.750  0.0781 -0.0292  0.3394
 2417DPPE   C4A50864  18.273  21.957  19.099 -0.2108 -0.2298 -0.0192
 2417DPPE   C1B50865  18.030  22.812  18.735 -0.0284  0.1203  0.1512
 2417DPPE   C2B50866  18.164  22.692  19.191  0.0320 -0.2455 -0.0489
 2417DPPE   C3B50867  17.916  22.778  19.637  0.0896 -0.3852  0.0531
 2417DPPE   C4B50868  17.743  22.895  20.039 -0.0075  0.3664 -0.1615
 2418DPPE   NH350869   9.551  23.740  19.036 -0.1480 -0.4458 -0.0215
 2418DPPE   PO450870   9.372  23.322  19.148 -0.0288  0.0286  0.3090
 2418DPPE   GL150871   9.207  23.593  19.426  0.2593  0.0840 -0.1180
 2418DPPE   GL250872   8.920  23.520  19.486  0.1481  0.4106  0.0900
 2418DPPE   C1A50873   9.168  23.943  19.620  0.0174  0.0329 -0.2016
 2418DPPE   C2A50874   9.306  24.170  19.911 -0.0150  0.1633 -0.0941
 2418DPPE   C3A50875   9.344  24.276  20.294  0.2822  0.4607 -0.1507
 2418DPPE   C4A50876   9.317  24.652  20.431  0.1367  0.0013 -0.2404
 2418DPPE   C1B50877   9.148  23.460  19.871  0.0260 -0.1854  0.0665
 2418DPPE   C2B50878   9.070  23.288  20.293 -0.1428  0.1383 -0.0344
 2418DPPE   C3B50879   9.133  23.117  20.707  0.0204  0.2271 -0.1759
 2418DPPE   C4B50880   9.082  23.005  21.062 -0.1877  0.0855 -0.3375
 2419DPPE   NH350881  10.373  18.058  18.813  0.2617  0.0277 -0.1385
 2419DPPE   PO450882  10.649  18.175  18.440  0.2413 -0.1178 -0.0974
 2419DPPE   GL150883  10.948  18.171  18.834  0.4499 -0.0740  0.1151
 2419DPPE   GL250884  10.803  17.856  18.984 -0.2772 -0.0727  0.0137
 2419DPPE   C1A50885  11.017  18.347  19.236 -0.1223  0.1152  0.0916
 2419DPPE   C2A50886  11.136  18.245  19.564  0.0093  0.1880  0.3058
 2419DPPE   C3A50887  11.088  18.355  19.951 -0.0743 -0.2918  0.3105
 2419DPPE   C4A50888  11.034  18.462  20.361  0.2032 -0.0202 -0.3960
 2419DPPE   C1B50889  10.799  17.953  19.363  0.2787  0.1533 -0.1566
 2419DPPE   C2B50890  10.693  18.081  19.751 -0.2023 -0.1216  0.0962
 2419DPPE   C3B50891  10.652  18.229  20.160 -0.3215  0.2263 -0.0977
 2419DPPE   C4B50892  10.380  18.213  20.568 -0.0169 -0.0957 -0.2274
 2420DPPE   NH350893  11.480  23.362  18.181 -0.0314 -0.2388 -0.3837
 2420DPPE   PO450894  11.276  23.398  18.706 -0.0025  0.1454  0.0410
 2420DPPE   GL150895  11.150  23.396  19.113 -0.0870  0.1667 -0.1312
 2420DPPE   GL250896  10.977  23.668  19.325  0.1325 -0.2843  0.3775
 2420DPPE   C1A50897  11.338  23.446  19.527  0.4891 -0.1652  0.2580
 2420DPPE   C2A50898  11.254  23.621  19.872 -0.0212  0.0323  0.1638
 2420DPPE   C3A50899  11.241  23.881  20.065 -0.0989 -0.0081 -0.0875
 2420DPPE   C4A50900  11.155  24.202  20.330 -0.1697 -0.1041 -0.1668
 2420DPPE   C1B50901  11.030  24.123  19.505 -0.0658 -0.0254 -0.1129
 2420DPPE   C2B50902  11.171  24.432  19.839  0.0502  0.0929 -0.1873
 2420DPPE   C3B50903  11.176  24.752  20.165 -0.2113  0.0733  0.1017
 2420DPPE   C4B50904  11.003  25.129  20.368 -0.2073  0.0084 -0.1185
 2421DPPE   NH350905  10.583  13.969  18.226 -0.0519 -0.4077  0.3482
 2421DPPE   PO450906  10.733  14.423  18.328 -0.0535  0.2563 -0.1439
 2421DPPE   GL150907  10.582  14.311  18.750 -0.0280 -0.2349 -0.3654
 2421DPPE   GL250908  10.617  13.974  18.744 -0.0401 -0.1781  0.0981
 2421DPPE   C1A50909  10.693  14.345  19.230 -0.0729 -0.4187 -0.0056
 2421DPPE   C2A50910  10.778  14.305  19.664  0.1203  0.0398  0.1872
 2421DPPE   C3A50911  10.713  14.113  20.016  0.1118  0.1921 -0.3779
 2421DPPE   C4A50912  10.858  14.073  20.372 -0.0386  0.1535  0.2370
 2421DPPE   C1B50913  10.871  13.914  19.163 -0.2408 -0.0257  0.0461
 2421DPPE   C2B50914  10.948  13.748  19.652  0.0647  0.1452 -0.0498
 2421DPPE   C3B50915  10.782  13.532  19.913 -0.0727 -0.1882 -0.3589
 2421DPPE   C4B50916  11.039  13.286  20.329  0.1357 -0.0191  0.2475
 2422DPPE   NH350917  14.095  12.215  18.392  0.1691 -0.3368 -0.0780
 2422DPPE   PO450918  14.173  11.792  18.215  0.1083  0.3307 -0.0793
 2422DPPE   GL150919  14.034  11.730  18.722 -0.1239  0.3764 -0.1475
 2422DPPE   GL250920  14.006  11.977  18.851 -0.1116  0.1352  0.1061
 2422DPPE   C1A50921  14.178  11.527  19.127 -0.2291 -0.1612 -0.6622
 2422DPPE   C2A50922  14.201  11.497  19.587 -0.1894  0.1600  0.1661
 2422DPPE   C3A50923  14.242  11.374  20.019  0.1750 -0.0242  0.3095
 2422DPPE   C4A50924  13.941  11.306  20.363  0.2399 -0.0573  0.0503
 2422DPPE   C1B50925  13.942  11.993  19.425  0.0735  0.2183 -0.0254
 2422DPPE   C2B50926  14.055  11.884  19.852 -0.2536  0.3633  0.2308
 2422DPPE   C3B50927  14.081  11.839  20.203 -0.1648 -0.2112 -0.2123
 2422DPPE   C4B50928  14.160  11.734  20.607  0.0245 -0.0082 -0.1879
 2423DPPE   NH350929  14.433  23.346  18.069 -0.0701  0.0875 -0.1180
 2423DPPE   PO450930  14.194  23.783  18.103 -0.0395 -0.1803 -0.5845
 2423DPPE   GL150931  14.360  23.876  18.454 -0.0673 -0.0638  0.2143
 2423DPPE   GL250932  14.211  24.241  18.491  0.2140 -0.2619 -0.3385
 2423DPPE   C1A50933  14.391  23.966  18.820 -0.3934 -0.0533 -0.2375
 2423DPPE   C2A50934  14.413  24.146  19.144  0.0121 -0.1130  0.2322
 2423DPPE   C3A50935  14.455  24.374  19.521  0.1661  0.2234 -0.0666
 2423DPPE   C4A50936  14.607  24.526  19.906 -0.0640 -0.2505 -0.0255
 2423DPPE   C1B50937  14.034  24.357  18.772  0.1249 -0.1086  0.0680
 2423DPPE   C2B50938  14.098  24.556  19.218  0.1190 -0.0647 -0.3616
 2423DPPE   C3B50939  14.230  24.835  19.594  0.0548  0.2057 -0.2685
 2423DPPE   C4B50940  14.459  25.108  19.899  0.1431  0.3728  0.1637
 2424DPPE   NH350941  17.348  11.873  17.930 -0.2519  0.0031 -0.0841
 2424DPPE   PO450942  16.991  11.662  18.100 -0.1563  0.0745 -0.1609
 2424DPPE   GL150943  17.027  11.601  18.623  0.2710 -0.0622  0.2667
 2424DPPE   GL250944  17.275  11.809  18.855 -0.3067 -0.2027 -0.2518
 2424DPPE   C1A50945  16.957  11.490  19.031  0.1105  0.2356 -0.0200
 2424DPPE   C2A50946  16.958  11.316  19.375  0.1601  0.1944  0.2997
 2424DPPE   C3A50947  17.218  11.317  19.749 -0.0442  0.0427 -0.0513
 2424DPPE   C4A50948  17.049  11.330  20.050 -0.1280  0.0718  0.0068
 2424DPPE   C1B50949  17.337  11.774  19.302  0.2642  0.0264 -0.0894
 2424DPPE   C2B50950  17.650  11.655  19.623  0.1005  0.1477 -0.3074
 2424DPPE   C3B50951  18.139  11.656  19.693 -0.0303 -0.3132  0.1234
 2424DPPE   C4B50952  18.385  11.612  20.159 -0.1039  0.2203  0.2848
 2425DPPE   NH350953  16.042  11.395  18.126  0.0884  0.1993 -0.1882
 2425DPPE   PO450954  16.030  11.810  18.090 -0.1867  0.0762 -0.2004
 2425DPPE   GL150955  16.046  11.657  18.643  0.0503  0.3869 -0.1152
 2425DPPE   GL250956  16.408  11.578  18.839 -0.2229 -0.1668 -0.3779
 2425DPPE   C1A50957  15.917  11.587  19.125  0.1371 -0.1306 -0.0602
 2425DPPE   C2A50958  15.947  11.660  19.563  0.0424 -0.0184  0.1516
 2425DPPE   C3A50959  16.234  11.403  19.912  0.2368  0.0983  0.1894
 2425DPPE   C4A50960  16.169  11.513  20.285  0.4004  0.2596  0.1510
 2425DPPE   C1B50961  16.476  11.494  19.350 -0.2519 -0.0883 -0.2724
 2425DPPE   C2B50962  16.673  11.489  19.726 -0.2279 -0.1099 -0.3765
 2425DPPE   C3B50963  16.637  11.136  20.120 -0.1343 -0.1241 -0.2329
 2425DPPE   C4B50964  16.906  10.956  20.421  0.1212  0.0397  0.3404
 2426DPPE   NH350965  10.845  23.663  18.807  0.1083 -0.0741 -0.1011
 2426DPPE   PO450966  10.743  23.257  18.910 -0.2330  0.1533  0.1399
 2426DPPE   GL150967  10.718  23.285  19.283 -0.0314  0.1748 -0.0903
 2426DPPE   GL250968  10.399  23.316  19.499 -0.1770 -0.1912  0.0060
 2426DPPE   C1A50969  10.863  23.295  19.734 -0.1463 -0.1048 -0.0546
 2426DPPE   C2A50970  10.934  23.338  20.065  0.1525  0.2292  0.1604
 2426DPPE   C3A50971  11.040  23.509  20.455  0.0568  0.0460 -0.0559
 2426DPPE   C4A50972  10.856  23.793  20.653  0.1005  0.0303 -0.0651
 2426DPPE   C1B50973  10.135  23.507  19.823  0.4212 -0.0717  0.0736
 2426DPPE   C2B50974  10.000  23.694  20.197 -0.3015  0.0911  0.1379
 2426DPPE   C3B50975  10.000  23.919  20.594  0.0472 -0.0313 -0.0226
 2426DPPE   C4B50976  10.197  24.199  20.937  0.1413  0.2694  0.2946
 2427DPPE   NH350977  17.639  20.148  18.125 -0.0351  0.0662 -0.1353
 2427DPPE   PO450978  17.804  20.587  18.201 -0.0679  0.1619 -0.0488
 2427DPPE   GL150979  17.891  20.929  18.429  0.0062  0.3644 -0.3304
 2427DPPE   GL250980  17.758  21.151  18.655 -0.1234  0.2951  0.0495
 2427DPPE   C1A50981  18.142  20.892  18.865  0.0767 -0.1567  0.4175
 2427DPPE   C2A50982  18.474  20.936  19.168  0.2911  0.0785  0.0366
 2427DPPE   C3A50983  18.878  20.739  19.312 -0.0749  0.2595 -0.0909
 2427DPPE   C4A50984  19.293  20.844  19.479  0.4432  0.1863  0.0649
 2427DPPE   C1B50985  18.039  21.412  18.808 -0.7130  0.3540  0.3410
 2427DPPE   C2B50986  18.350  21.457  19.125  0.0200  0.1724  0.0832
 2427DPPE   C3B50987  18.732  21.368  19.352 -0.0624 -0.1611 -0.1391
 2427DPPE   C4B50988  19.104  21.369  19.594  0.0481  0.2230 -0.1631
 2428DPPE   NH350989  16.071  20.535  18.811  0.1632  0.0797  0.1188
 2428DPPE   PO450990  16.044  20.132  18.759 -0.3708 -0.0607  0.0495
 2428DPPE   GL150991  16.054  20.227  19.213  0.0436 -0.1327  0.0314
 2428DPPE   GL250992  16.397  20.070  19.243  0.3576 -0.2421 -0.0759
 2428DPPE   C1A50993  16.264  20.384  19.591 -0.1349 -0.4618 -0.0357
 2428DPPE   C2A50994  16.149  20.507  20.005 -0.1506  0.0792 -0.0818
 2428DPPE   C3A50995  16.181  20.564  20.265 -0.2671 -0.2819 -0.2267
 2428DPPE   C4A50996  16.206  20.527  20.678  0.0749 -0.1830 -0.2854
 2428DPPE   C1B50997  16.024  19.885  19.546  0.2121 -0.1217 -0.1478
 2428DPPE   C2B50998  16.127  19.962  20.067 -0.0827  0.0033 -0.1414
 2428DPPE   C3B50999  16.155  19.982  20.447  0.0849 -0.0683 -0.0714
 2428DPPE   C4B51000  16.271  20.042  20.904  0.2326  0.3160  0.0082
 2429DPPE   NH351001   9.286  12.544  18.789  0.1762 -0.1935 -0.2541
 2429DPPE   PO451002   9.599  12.225  18.824  0.3426  0.1308  0.0455
 2429DPPE   GL151003   9.590  12.184  19.260  0.2077 -0.2381  0.3085
 2429DPPE   GL251004   9.895  12.044  19.350 -0.1939 -0.1099 -0.1836
 2429DPPE   C1A51005   9.578  12.337  19.645  0.0080 -0.0314  0.2242
 2429DPPE   C2A51006   9.414  12.562  20.040 -0.0200 -0.0495 -0.1836
 2429DPPE   C3A51007   9.373  12.516  20.559 -0.0710  0.0369  0.0660
 2429DPPE   C4A51008   9.280  12.595  20.988  0.0359 -0.1325  0.1352
 2429DPPE   C1B51009   9.956  11.950  19.732  0.3729  0.0421 -0.0108
 2429DPPE   C2B51010   9.722  12.132  20.121 -0.3128  0.2315  0.1785
 2429DPPE   C3B51011   9.818  12.203  20.477 -0.1758 -0.1487 -0.0402
 2429DPPE   C4B51012  10.025  12.456  20.682 -0.0924 -0.0874 -0.2381
 2430DPPE   NH351013  18.044  23.643  17.840  0.0004 -0.3255 -0.2332
 2430DPPE   PO451014  18.158  24.018  17.599  0.2614 -0.1122  0.0624
 2430DPPE   GL151015  18.579  24.199  17.602  0.2577  0.1766  0.1696
 2430DPPE   GL251016  18.590  24.423  17.764 -0.1575  0.1958 -0.1296
 2430DPPE   C1A51017  18.928  24.092  17.860  0.1944  0.2136 -0.3732
 2430DPPE   C2A51018  19.197  24.136  18.167  0.0775  0.0443  0.1380
 2430DPPE   C3A51019  19.565  24.124  18.566 -0.0673  0.1734 -0.1183
 2430DPPE   C4A51020  19.853  24.011  18.846  0.0201 -0.4679 -0.0538
 2430DPPE   C1B51021  18.994  24.635  17.828 -0.0303 -0.3096 -0.3867
 2430DPPE   C2B51022  19.113  24.976  18.168 -0.1694  0.1413 -0.1298
 2430DPPE   C3B51023  19.288  25.317  18.385  0.1460 -0.0785  0.0595
 2430DPPE   C4B51024  19.671  25.420  18.597 -0.1718  0.2381 -0.2774
 2431DPPE   NH351025  17.016  23.899  18.571 -0.0159 -0.1181 -0.0268
 2431DPPE   PO451026  17.444  23.897  18.620  0.2169  0.3424 -0.1621
 2431DPPE   GL151027  17.455  24.094  18.902 -0.5042 -0.2179  0.0452
 2431DPPE   GL251028  17.125  24.213  18.935 -0.0363 -0.1076 -0.1506
 2431DPPE   C1A51029  17.800  24.439  19.115  0.0313 -0.1856  0.1096
 2431DPPE   C2A51030  17.775  24.783  19.453 -0.2705  0.0037 -0.1708
 2431DPPE   C3A51031  17.423  25.061  19.660 -0.2708 -0.1260 -0.0649
 2431DPPE   C4A51032  17.153  25.280  19.790 -0.2693 -0.1364 -0.1535
 2431DPPE   C1B51033  16.755  24.591  19.051  0.0125 -0.1326  0.0154
 2431DPPE   C2B51034  16.555  24.754  19.337  0.1254 -0.0195 -0.1835
 2431DPPE   C3B51035  16.328  24.972  19.669  0.0242  0.0321  0.1268
 2431DPPE   C4B51036  16.048  25.286  19.866  0.0163  0.0369 -0.3062
 2432DPPE   NH351037  17.441  15.142  18.534 -0.1801  0.0879  0.2038
 2432DPPE   PO451038  17.990  14.878  18.484 -0.1252 -0.0875 -0.2854
 2432DPPE   GL151039  18.187  14.780  18.811 -0.0704  0.0625  0.1332
 2432DPPE   GL251040  18.466  14.851  18.885  0.0082  0.0088 -0.0015
 2432DPPE   C1A51041  18.211  14.937  19.265 -0.0851 -0.0041  0.1136
 2432DPPE   C2A51042  18.470  15.211  19.623 -0.0337 -0.0573 -0.1403
 2432DPPE   C3A51043  18.707  15.386  20.043  0.3414 -0.1172  0.1147
 2432DPPE   C4A51044  18.936  15.100  20.179  0.1911 -0.0620  0.0592
 2432DPPE   C1B51045  18.674  14.649  19.259  0.0787  0.0938  0.1774
 2432DPPE   C2B51046  18.801  14.795  19.767  0.1282 -0.2975 -0.0979
 2432DPPE   C3B51047  18.951  14.606  20.230 -0.1763 -0.0776  0.1344
 2432DPPE   C4B51048  18.760  14.703  20.634 -0.0015  0.2009  0.1842
 2433DPPE   NH351049  10.385  14.707  18.537 -0.0971 -0.2248 -0.1019
 2433DPPE   PO451050  10.238  14.375  18.237  0.2731  0.1683 -0.1855
 2433DPPE   GL151051  10.087  14.213  18.612 -0.3425  0.3250 -0.1588
 2433DPPE   GL251052   9.773  14.257  18.724 -0.2873 -0.0282  0.0212
 2433DPPE   C1A51053  10.169  14.441  19.078 -0.0924  0.1709 -0.1532
 2433DPPE   C2A51054  10.236  14.487  19.532 -0.2293  0.2502 -0.1271
 2433DPPE   C3A51055  10.225  14.224  19.940  0.0755  0.0224 -0.0945
 2433DPPE   C4A51056  10.209  13.975  20.344  0.1897  0.1540  0.0916
 2433DPPE   C1B51057   9.749  14.165  19.149  0.0136 -0.1687 -0.0100
 2433DPPE   C2B51058   9.929  13.955  19.579 -0.0184  0.0229  0.3126
 2433DPPE   C3B51059   9.849  13.948  19.998  0.0610 -0.0737  0.1729
 2433DPPE   C4B51060   9.582  13.940  20.321  0.0775 -0.0486 -0.0265
 2434DPPE   NH351061  19.545  13.918  18.661  0.0452 -0.1548  0.1359
 2434DPPE   PO451062  19.535  13.575  18.218  0.1540  0.1301 -0.0353
 2434DPPE   GL151063  19.843  13.464  18.579  0.0944  0.0624  0.2317
 2434DPPE   GL251064  20.242  13.493  18.632 -0.1280 -0.1522 -0.0476
 2434DPPE   C1A51065  19.946  13.064  18.831 -0.1819  0.1153  0.0125
 2434DPPE   C2A51066  19.911  12.755  19.059  0.1081 -0.0562 -0.0581
 2434DPPE   C3A51067  20.135  12.308  19.212  0.0609  0.4114  0.3357
 2434DPPE   C4A51068  20.509  12.017  19.295  0.1034  0.2461 -0.0473
 2434DPPE   C1B51069  20.257  13.605  19.113  0.4037 -0.0440 -0.1103
 2434DPPE   C2B51070  20.327  13.984  19.300  0.0088 -0.2888  0.0666
 2434DPPE   C3B51071  20.457  14.318  19.401  0.1471  0.1717  0.3782
 2434DPPE   C4B51072  20.553  14.563  19.691 -0.1797  0.1463  0.1032
 2435DPPE   NH351073  15.762  14.513  18.013  0.0080  0.3929 -0.1583
 2435DPPE   PO451074  15.725  14.146  18.154  0.0536 -0.0930 -0.0083
 2435DPPE   GL151075  15.624  14.288  18.640  0.0600  0.4276 -0.0304
 2435DPPE   GL251076  15.653  13.964  18.957  0.1236 -0.0929  0.1749
 2435DPPE   C1A51077  15.506  14.467  19.068  0.0427  0.0427 -0.1444
 2435DPPE   C2A51078  15.426  14.467  19.458  0.1079  0.1443  0.1782
 2435DPPE   C3A51079  15.498  14.316  19.736  0.1636  0.3069 -0.3032
 2435DPPE   C4A51080  15.491  14.239  20.155 -0.1490  0.0925 -0.0554
 2435DPPE   C1B51081  15.696  13.965  19.355 -0.3468  0.2477 -0.1690
 2435DPPE   C2B51082  15.696  13.860  19.888  0.0356 -0.0497  0.3325
 2435DPPE   C3B51083  15.692  13.786  20.366 -0.0900  0.3310 -0.0983
 2435DPPE   C4B51084  15.747  14.014  20.697  0.2204 -0.4098  0.0759
 2436DPPE   NH351085   8.949  12.109  18.350  0.0958 -0.1451 -0.2613
 2436DPPE   PO451086   8.980  12.153  18.700  0.0594  0.2434  0.1293
 2436DPPE   GL151087   8.943  12.231  19.125  0.3827 -0.2785  0.1327
 2436DPPE   GL251088   8.677  12.226  19.348 -0.2053 -0.1301  0.0141
 2436DPPE   C1A51089   9.127  12.137  19.540  0.1620 -0.3186  0.2724
 2436DPPE   C2A51090   9.142  12.147  19.958 -0.0997  0.0790  0.1955
 2436DPPE   C3A51091   9.294  12.009  20.361  0.1164 -0.3268  0.0313
 2436DPPE   C4A51092   9.395  12.030  20.726 -0.0655  0.0370 -0.2821
 2436DPPE   C1B51093   8.622  11.991  19.756  0.0478  0.2506  0.0904
 2436DPPE   C2B51094   8.732  11.857  20.220  0.1394 -0.3156 -0.3910
 2436DPPE   C3B51095   8.899  11.659  20.652  0.0893 -0.0697  0.1908
 2436DPPE   C4B51096   8.974  11.166  20.801  0.1521 -0.1244  0.0083
 2437DPPE   NH351097  12.653  20.036  18.485 -0.4540 -0.1154  0.1091
 2437DPPE   PO451098  12.347  19.776  18.418  0.3414 -0.2172 -0.1691
 2437DPPE   GL151099  12.245  19.819  18.813  0.2712 -0.1921 -0.0954
 2437DPPE   GL251100  12.040  20.029  18.873  0.2360  0.2746  0.0261
 2437DPPE   C1A51101  12.316  19.516  19.224 -0.2715  0.1736 -0.0747
 2437DPPE   C2A51102  12.312  19.576  19.731  0.1152  0.1509  0.0773
 2437DPPE   C3A51103  12.276  19.771  20.161  0.4400  0.1730  0.1477
 2437DPPE   C4A51104  12.396  19.928  20.576  0.3730  0.0742  0.1785
 2437DPPE   C1B51105  11.887  19.868  19.305 -0.1959  0.0513 -0.0383
 2437DPPE   C2B51106  11.925  19.961  19.738 -0.0215  0.0707  0.2945
 2437DPPE   C3B51107  11.913  20.093  20.103 -0.2854 -0.2138  0.2458
 2437DPPE   C4B51108  11.892  20.005  20.524  0.0519  0.0453  0.1284
 2438DPPE   NH351109   8.621  12.926  18.683 -0.3308  0.0000  0.1777
 2438DPPE   PO451110   8.757  12.575  18.709 -0.2489  0.0918  0.0582
 2438DPPE   GL151111   8.854  12.806  19.178 -0.4736 -0.0826  0.0701
 2438DPPE   GL251112   9.129  12.612  19.350  0.0302 -0.0765 -0.1114
 2438DPPE   C1A51113   8.668  12.671  19.542 -0.3056 -0.0133 -0.0739
 2438DPPE   C2A51114   8.843  12.538  19.921 -0.4489 -0.1364  0.0579
 2438DPPE   C3A51115   8.923  12.393  20.317 -0.2268  0.0415  0.0660
 2438DPPE   C4A51116   8.562  12.463  20.639  0.0076  0.0892  0.1493
 2438DPPE   C1B51117   9.144  12.930  19.667  0.0695  0.0235 -0.0170
 2438DPPE   C2B51118   8.979  13.011  19.982  0.2326  0.2040 -0.0258
 2438DPPE   C3B51119   8.625  12.820  20.227  0.0725 -0.2066 -0.1570
 2438DPPE   C4B51120   8.240  12.783  20.318 -0.1253 -0.3429 -0.0342
 2439DPPE   NH351121  16.034  14.476  18.454  0.1560  0.2916  0.2964
 2439DPPE   PO451122  15.746  14.801  18.414  0.1111  0.4279  0.2837
 2439DPPE   GL151123  15.661  14.892  18.816 -0.1525 -0.0856  0.2856
 2439DPPE   GL251124  15.336  14.922  18.963  0.1284 -0.1286 -0.1039
 2439DPPE   C1A51125  15.803  14.790  19.257 -0.0702 -0.0214 -0.3305
 2439DPPE   C2A51126  15.874  14.867  19.699 -0.2798  0.1130  0.1478
 2439DPPE   C3A51127  15.827  14.706  20.135 -0.0579 -0.0413 -0.2577
 2439DPPE   C4A51128  15.812  14.896  20.582  0.0369 -0.0511  0.0732
 2439DPPE   C1B51129  15.285  14.993  19.440  0.1673  0.3006  0.0760
 2439DPPE   C2B51130  15.373  14.808  19.976 -0.3051 -0.0316 -0.3273
 2439DPPE   C3B51131  15.350  14.789  20.370 -0.0904 -0.1252  0.0440
 2439DPPE   C4B51132  15.367  14.710  20.854 -0.1021  0.1188  0.1833
 2440DPPE   NH351133  13.846   8.970  17.759  0.0856 -0.1239 -0.2515
 2440DPPE   PO451134  13.533   9.038  17.930 -0.2179  0.0473 -0.2307
 2440DPPE   GL151135  13.670   8.710  18.189 -0.4857  0.3484  0.2732
 2440DPPE   GL251136  13.998   8.625  18.051  0.2801  0.1430  0.0511
 2440DPPE   C1A51137  13.936   8.446  18.490  0.0663  0.0013  0.2771
 2440DPPE   C2A51138  13.948   8.172  18.776  0.2314  0.1890 -0.1118
 2440DPPE   C3A51139  13.778   7.926  19.066  0.0168 -0.1024  0.1011
 2440DPPE   C4A51140  13.819   7.585  19.261 -0.1406 -0.1194  0.1495
 2440DPPE   C1B51141  14.354   8.457  18.222  0.1062  0.1840 -0.1845
 2440DPPE   C2B51142  14.723   8.250  18.282 -0.2162  0.2851  0.0626
 2440DPPE   C3B51143  15.026   7.944  18.048 -0.1097  0.0779 -0.2201
 2440DPPE   C4B51144  15.120   7.529  17.880 -0.0745 -0.1535  0.0112
 2441DPPE   NH351145  14.618  10.982  17.976  0.1870 -0.1668 -0.0738
 2441DPPE   PO451146  14.168  11.219  17.937 -0.2372  0.0063 -0.4348
 2441DPPE   GL151147  14.283  11.157  18.327  0.0390 -0.1123  0.0345
 2441DPPE   GL251148  14.395  11.444  18.552  0.1062  0.2478 -0.2711
 2441DPPE   C1A51149  14.524  10.913  18.606  0.0867  0.2791  0.2390
 2441DPPE   C2A51150  14.750  11.001  19.001  0.1334  0.3487 -0.1787
 2441DPPE   C3A51151  14.862  10.868  19.482  0.3255  0.0679 -0.0249
 2441DPPE   C4A51152  14.904  10.630  19.843 -0.2424  0.0626 -0.2622
 2441DPPE   C1B51153  14.598  11.537  18.922  0.0644 -0.2237  0.0834
 2441DPPE   C2B51154  14.713  11.444  19.324 -0.1540 -0.0687 -0.0618
 2441DPPE   C3B51155  14.786  11.287  19.803  0.1557 -0.2197  0.2222
 2441DPPE   C4B51156  14.824  11.334  20.308 -0.0580  0.1761  0.0056
 2442DPPE   NH351157   9.142  19.990  18.850  0.0205  0.0199  0.2776
 2442DPPE   PO451158   9.416  20.400  18.696  0.0123  0.0122 -0.2610
 2442DPPE   GL151159   9.539  20.300  19.039  0.1417  0.0904  0.1613
 2442DPPE   GL251160   9.814  20.549  19.016  0.2491  0.0715  0.2001
 2442DPPE   C1A51161   9.802  20.098  19.294 -0.0800 -0.1029  0.0272
 2442DPPE   C2A51162   9.982  19.896  19.735 -0.1019  0.1969  0.1579
 2442DPPE   C3A51163  10.029  19.822  20.109  0.0444  0.4401  0.0464
 2442DPPE   C4A51164   9.914  19.934  20.490  0.0517  0.3470  0.1663
 2442DPPE   C1B51165   9.858  20.723  19.354 -0.2597  0.1627 -0.3601
 2442DPPE   C2B51166   9.859  21.114  19.594  0.2304 -0.1744  0.2183
 2442DPPE   C3B51167   9.863  21.128  20.032  0.2433 -0.3362 -0.0572
 2442DPPE   C4B51168   9.845  21.173  20.503  0.0464 -0.2398  0.0195
 2443DPPE   NH351169  18.778  12.021  17.929  0.1860 -0.0576  0.1363
 2443DPPE   PO451170  18.977  12.325  17.862  0.0927 -0.0280 -0.2469
 2443DPPE   GL151171  19.203  12.055  18.282  0.2867 -0.3093 -0.2068
 2443DPPE   GL251172  18.998  11.812  18.344  0.0078 -0.1263 -0.1682
 2443DPPE   C1A51173  19.511  12.003  18.559 -0.1372  0.0942  0.1895
 2443DPPE   C2A51174  19.695  11.823  18.999  0.1520 -0.1936 -0.2183
 2443DPPE   C3A51175  19.954  11.906  19.374  0.1487 -0.1261 -0.0189
 2443DPPE   C4A51176  20.231  11.752  19.638 -0.1607 -0.1022 -0.1807
 2443DPPE   C1B51177  19.209  11.562  18.247 -0.0908  0.0124  0.2287
 2443DPPE   C2B51178  19.383  11.225  18.146 -0.0332  0.1459  0.1555
 2443DPPE   C3B51179  19.595  11.116  18.521 -0.1240 -0.0601  0.3817
 2443DPPE   C4B51180  19.496  11.005  18.895  0.4974  0.5402 -0.0982
 2444DPPE   NH351181   8.977  10.413  18.781  0.0640  0.0845  0.2925
 2444DPPE   PO451182   9.389  10.195  18.823  0.0159 -0.1040 -0.1462
 2444DPPE   GL151183   9.379  10.206  19.256  0.1197  0.2115 -0.1746
 2444DPPE   GL251184   9.484   9.869  19.290 -0.3320 -0.1308 -0.1600
 2444DPPE   C1A51185   9.409  10.109  19.742  0.3345  0.1373 -0.0711
 2444DPPE   C2A51186   9.453  10.021  20.121 -0.3619 -0.0917 -0.0397
 2444DPPE   C3A51187   9.565   9.947  20.539 -0.2265  0.0855  0.2129
 2444DPPE   C4A51188   9.316  10.025  20.871  0.3240 -0.1585 -0.1733
 2444DPPE   C1B51189   9.194   9.561  19.422 -0.1194  0.0772  0.1200
 2444DPPE   C2B51190   9.300   9.094  19.528  0.0138 -0.1649  0.5171
 2444DPPE   C3B51191   9.350   8.589  19.634  0.1438 -0.0405 -0.0719
 2444DPPE   C4B51192   9.478   8.251  20.002  0.3607 -0.1438  0.1955
 2445DPPE   NH351193  12.174  11.969  18.266  0.1939  0.1199 -0.1195
 2445DPPE   PO451194  11.931  12.281  17.976 -0.0898  0.2475 -0.1059
 2445DPPE   GL151195  11.909  12.242  18.554 -0.1119  0.0243  0.1061
 2445DPPE   GL251196  11.800  11.948  18.704  0.0038  0.0578  0.2407
 2445DPPE   C1A51197  11.940  12.369  19.000  0.1307  0.4147  0.2690
 2445DPPE   C2A51198  11.897  12.321  19.440 -0.1042  0.4426 -0.1750
 2445DPPE   C3A51199  11.779  12.245  19.811  0.2784 -0.2373 -0.1947
 2445DPPE   C4A51200  11.864  11.869  20.124  0.1138 -0.0105  0.1447
 2445DPPE   C1B51201  11.598  11.934  19.146  0.3466 -0.3296 -0.2076
 2445DPPE   C2B51202  11.438  11.694  19.529  0.0469 -0.1341 -0.0692
 2445DPPE   C3B51203  11.407  11.675  19.952  0.1393 -0.0664  0.1699
 2445DPPE   C4B51204  11.446  11.715  20.361 -0.3990 -0.0425  0.0350
 2446DPPE   NH351205  11.588  13.919  17.855  0.2596  0.2985 -0.0173
 2446DPPE   PO451206  11.397  13.743  18.259  0.0560  0.0065  0.0668
 2446DPPE   GL151207  11.539  13.862  18.627 -0.0981  0.0015  0.0239
 2446DPPE   GL251208  11.833  13.720  18.777  0.1772 -0.0779  0.0760
 2446DPPE   C1A51209  11.354  13.825  19.061 -0.0498  0.3647  0.1393
 2446DPPE   C2A51210  11.411  13.643  19.493 -0.0869  0.3815  0.1057
 2446DPPE   C3A51211  11.329  13.678  19.915 -0.2890  0.1330  0.0378
 2446DPPE   C4A51212  11.214  13.741  20.230 -0.1305 -0.1992 -0.1919
 2446DPPE   C1B51213  11.823  13.650  19.185  0.1044  0.2058 -0.1032
 2446DPPE   C2B51214  12.041  13.589  19.519  0.0469  0.0154  0.0570
 2446DPPE   C3B51215  11.981  13.553  19.920  0.1583 -0.1128  0.0738
 2446DPPE   C4B51216  11.679  13.553  20.302 -0.3793  0.1904 -0.2275
 2447DPPE   NH351217  13.347  13.851  18.117  0.1250  0.2049 -0.3928
 2447DPPE   PO451218  13.070  14.249  18.293  0.1775 -0.0894 -0.1842
 2447DPPE   GL151219  12.944  14.420  18.698  0.0833 -0.0880 -0.1371
 2447DPPE   GL251220  12.891  14.764  18.791 -0.2878 -0.0291  0.1230
 2447DPPE   C1A51221  12.997  14.432  19.157 -0.2001 -0.2670  0.0991
 2447DPPE   C2A51222  13.145  14.401  19.563  0.1176  0.1069  0.0549
 2447DPPE   C3A51223  13.146  14.286  20.019 -0.0490  0.1968 -0.0299
 2447DPPE   C4A51224  13.008  14.213  20.405  0.0557  0.1547  0.0194
 2447DPPE   C1B51225  12.985  14.931  19.124  0.0064 -0.1846 -0.1247
 2447DPPE   C2B51226  12.931  14.818  19.486 -0.1128  0.0430  0.0929
 2447DPPE   C3B51227  13.076  14.808  19.852 -0.1427  0.0995  0.0810
 2447DPPE   C4B51228  13.062  14.689  20.323 -0.1412  0.0485  0.1020
 2448DPPE   NH351229   8.096  12.836  18.611  0.1539 -0.0761 -0.3055
 2448DPPE   PO451230   7.772  12.614  18.230  0.0245  0.2089 -0.2179
 2448DPPE   GL151231   7.622  12.941  18.543 -0.0891 -0.0110 -0.0960
 2448DPPE   GL251232   7.720  13.223  18.653  0.0599  0.0208 -0.0479
 2448DPPE   C1A51233   7.353  12.822  18.993 -0.1345 -0.2343  0.0288
 2448DPPE   C2A51234   7.323  12.663  19.337 -0.1331 -0.0372  0.1154
 2448DPPE   C3A51235   7.113  12.477  19.594  0.0012  0.1493  0.1249
 2448DPPE   C4A51236   6.996  12.198  19.872 -0.0912 -0.1389 -0.4097
 2448DPPE   C1B51237   7.538  13.484  18.847  0.6760  0.1509 -0.1984
 2448DPPE   C2B51238   7.325  13.673  19.214 -0.1920  0.1413  0.3006
 2448DPPE   C3B51239   7.022  13.739  19.483  0.0884  0.0565 -0.0246
 2448DPPE   C4B51240   6.657  13.903  19.756 -0.3513  0.0878  0.3096
 2449DPPE   NH351241  14.381  10.251  17.892 -0.0900 -0.1439 -0.0914
 2449DPPE   PO451242  14.678  10.495  18.112  0.0326  0.1622 -0.4078
 2449DPPE   GL151243  14.755  10.376  18.436  0.0153 -0.0960 -0.1598
 2449DPPE   GL251244  14.687  10.021  18.593 -0.1986 -0.2169  0.1103
 2449DPPE   C1A51245  14.675  10.436  18.889  0.0426 -0.0215  0.2372
 2449DPPE   C2A51246  14.466  10.517  19.361 -0.0873  0.3730 -0.1030
 2449DPPE   C3A51247  14.447  10.388  19.805 -0.2434  0.2917  0.0031
 2449DPPE   C4A51248  14.250  10.496  20.168  0.1024 -0.2281 -0.1137
 2449DPPE   C1B51249  14.564   9.962  18.991  0.3051 -0.2219  0.3245
 2449DPPE   C2B51250  14.488   9.609  19.242  0.2761 -0.0702  0.0402
 2449DPPE   C3B51251  14.614   9.681  19.633 -0.3037 -0.0252  0.2837
 2449DPPE   C4B51252  14.589   9.987  20.008  0.1612  0.2622 -0.2521
 2450DPPE   NH351253  15.673  11.497  17.811  0.0710  0.1430  0.0012
 2450DPPE   PO451254  15.731  11.116  17.655  0.0731 -0.3326 -0.1122
 2450DPPE   GL151255  15.691  10.990  18.136  0.1311  0.0738  0.0344
 2450DPPE   GL251256  15.528  10.771  18.280 -0.0725 -0.2294  0.0308
 2450DPPE   C1A51257  15.542  11.221  18.520  0.0156  0.0838 -0.2573
 2450DPPE   C2A51258  15.554  11.294  19.015  0.4269  0.1270  0.1740
 2450DPPE   C3A51259  15.684  11.174  19.447 -0.2226 -0.1493  0.1591
 2450DPPE   C4A51260  15.850  11.163  19.847 -0.2416  0.1160 -0.1633
 2450DPPE   C1B51261  15.673  10.748  18.614 -0.2316 -0.2235  0.0487
 2450DPPE   C2B51262  15.874  10.795  19.064 -0.3743  0.5575 -0.0248
 2450DPPE   C3B51263  15.878  10.714  19.517 -0.3005 -0.3569  0.3689
 2450DPPE   C4B51264  15.850  10.596  19.898 -0.1545  0.2399 -0.1711
 2451DPPE   NH351265   9.986  24.042  18.924  0.1452  0.1540  0.1197
 2451DPPE   PO451266   9.665  24.000  18.543  0.1626 -0.1390 -0.1845
 2451DPPE   GL151267   9.555  24.370  18.911 -0.0145  0.1641  0.3319
 2451DPPE   GL251268   9.532  24.166  19.275  0.0001 -0.2941 -0.0649
 2451DPPE   C1A51269   9.529  24.758  19.270  0.0392 -0.3526  0.1328
 2451DPPE   C2A51270   9.865  24.982  19.558 -0.1755  0.0423 -0.2636
 2451DPPE   C3A51271  10.097  25.058  19.800 -0.1408  0.2177 -0.0240
 2451DPPE   C4A51272  10.151  25.414  20.015 -0.0915 -0.1112  0.1911
 2451DPPE   C1B51273   9.681  24.379  19.574 -0.1068  0.3428 -0.1604
 2451DPPE   C2B51274   9.641  24.649  19.951 -0.0169 -0.0656  0.0736
 2451DPPE   C3B51275   9.691  25.001  20.281  0.2713  0.1000  0.0222
 2451DPPE   C4B51276  10.050  25.260  20.525 -0.1143 -0.0006  0.5049
 2452DPPE   NH351277  12.080  19.362  18.300 -0.2104 -0.0010  0.0335
 2452DPPE   PO451278  11.830  18.971  18.276 -0.0801  0.1286  0.1096
 2452DPPE   GL151279  12.088  19.006  18.728  0.4482  0.0983 -0.2527
 2452DPPE   GL251280  11.876  18.874  18.970 -0.1689  0.4019 -0.0473
 2452DPPE   C1A51281  12.264  18.988  19.224 -0.5901  0.0315  0.2586
 2452DPPE   C2A51282  12.175  19.073  19.653 -0.0753 -0.3048 -0.1699
 2452DPPE   C3A51283  12.279  19.211  20.157 -0.0225  0.2019  0.3353
 2452DPPE   C4A51284  12.172  19.479  20.545  0.2827  0.0872  0.2347
 2452DPPE   C1B51285  11.854  18.839  19.411  0.1388  0.1090 -0.3030
 2452DPPE   C2B51286  11.741  18.897  19.842  0.2158 -0.1256  0.1859
 2452DPPE   C3B51287  11.821  19.076  20.377 -0.0438  0.2636 -0.1544
 2452DPPE   C4B51288  11.763  18.877  20.894 -0.3696 -0.0260 -0.3546
 2453DPPE   NH351289  10.964  23.063  18.488  0.0248  0.2391 -0.0940
 2453DPPE   PO451290  11.229  22.888  18.301 -0.0018 -0.0303 -0.0107
 2453DPPE   GL151291  11.385  22.744  18.603 -0.0754 -0.0237  0.0042
 2453DPPE   GL251292  11.201  22.884  18.952 -0.1176  0.1021  0.1441
 2453DPPE   C1A51293  11.532  22.555  18.947  0.2478  0.0407 -0.1041
 2453DPPE   C2A51294  11.501  22.549  19.426 -0.1286 -0.1430 -0.3606
 2453DPPE   C3A51295  11.589  22.676  19.785  0.1069  0.1445 -0.0165
 2453DPPE   C4A51296  11.751  22.863  20.221 -0.0873 -0.1205 -0.0262
 2453DPPE   C1B51297  11.146  22.945  19.391 -0.0851  0.2820 -0.0636
 2453DPPE   C2B51298  11.264  22.947  19.995  0.0079 -0.0764 -0.1398
 2453DPPE   C3B51299  11.203  23.058  20.509 -0.1207  0.0206 -0.1750
 2453DPPE   C4B51300  11.079  23.064  20.897  0.3212  0.1105  0.5446
 2454DPPE   NH351301  14.739  13.922  18.390  0.3365 -0.1969 -0.0770
 2454DPPE   PO451302  15.153  14.112  18.375  0.1186 -0.2343  0.2012
 2454DPPE   GL151303  15.206  14.016  18.741  0.2914  0.0525  0.0714
 2454DPPE   GL251304  15.114  14.216  18.887  0.4894 -0.0001  0.1845
 2454DPPE   C1A51305  14.900  13.746  19.105 -0.1644  0.2392  0.2378
 2454DPPE   C2A51306  14.850  13.624  19.454 -0.2382 -0.2018 -0.2105
 2454DPPE   C3A51307  14.817  13.502  19.950  0.2915  0.4458  0.2156
 2454DPPE   C4A51308  14.799  13.521  20.395 -0.1847  0.2579 -0.3748
 2454DPPE   C1B51309  15.189  14.060  19.290  0.1806  0.0948 -0.1011
 2454DPPE   C2B51310  15.193  13.926  19.729  0.2352  0.0440  0.2904
 2454DPPE   C3B51311  15.140  13.811  20.199  0.1031 -0.0170 -0.1998
 2454DPPE   C4B51312  15.183  13.818  20.622 -0.1959 -0.0062  0.1320
 2455DPPE   NH351313  15.288  15.325  18.521 -0.4452  0.0554  0.2442
 2455DPPE   PO451314  15.306  15.729  18.496 -0.1728 -0.1374 -0.0020
 2455DPPE   GL151315  15.012  15.783  18.842 -0.0774  0.2038 -0.0899
 2455DPPE   GL251316  15.010  15.499  18.941 -0.0742 -0.0796 -0.1124
 2455DPPE   C1A51317  15.001  15.923  19.250 -0.0044 -0.1667 -0.0399
 2455DPPE   C2A51318  14.999  15.860  19.678 -0.1720  0.0848 -0.0746
 2455DPPE   C3A51319  15.058  15.761  20.135 -0.1669  0.1181  0.0913
 2455DPPE   C4A51320  14.945  15.905  20.633  0.1869 -0.0505  0.2393
 2455DPPE   C1B51321  15.046  15.435  19.351 -0.2183  0.2111  0.1470
 2455DPPE   C2B51322  15.151  15.281  19.841 -0.2136 -0.2363 -0.1776
 2455DPPE   C3B51323  15.288  15.290  20.244  0.0409  0.1921 -0.4116
 2455DPPE   C4B51324  15.346  15.270  20.709  0.0244 -0.0821 -0.3276
 2456DPPE   NH351325  10.017  23.560  18.364 -0.4349  0.0606 -0.1098
 2456DPPE   PO451326  10.322  23.709  18.672 -0.0596  0.1008  0.0208
 2456DPPE   GL151327  10.437  23.736  19.117  0.0543  0.2282  0.2316
 2456DPPE   GL251328  10.669  24.057  19.111  0.1162 -0.0334 -0.1793
 2456DPPE   C1A51329  10.569  23.807  19.597  0.1794  0.0026  0.0589
 2456DPPE   C2A51330  10.801  23.949  19.888 -0.2685  0.0423  0.1408
 2456DPPE   C3A51331  10.718  24.370  20.115  0.3112  0.2289 -0.5362
 2456DPPE   C4A51332  10.735  24.623  20.431 -0.1236 -0.0382 -0.0822
 2456DPPE   C1B51333  10.577  24.317  19.496 -0.0538 -0.0610  0.3029
 2456DPPE   C2B51334  10.223  24.528  19.700 -0.0739 -0.0162  0.0534
 2456DPPE   C3B51335  10.174  24.597  20.141 -0.1692  0.0369 -0.4026
 2456DPPE   C4B51336  10.255  24.647  20.589  0.0717 -0.1106 -0.0118
 2457DPPE   NH351337  11.181  24.869  17.810 -0.1294  0.3195  0.1082
 2457DPPE   PO451338  11.588  25.104  17.722 -0.0209 -0.0623 -0.1805
 2457DPPE   GL151339  11.640  25.430  17.384  0.3427 -0.0492  0.0018
 2457DPPE   GL251340  11.363  25.613  17.325 -0.0078 -0.2231 -0.0551
 2457DPPE   C1A51341  11.777  25.474  16.916 -0.0162 -0.2092 -0.1017
 2457DPPE   C2A51342  11.487  25.762  16.561 -0.2579 -0.1609  0.2286
 2457DPPE   C3A51343  11.302  25.952  16.210 -0.0582  0.1081  0.1005
 2457DPPE   C4A51344  11.410  26.265  15.899  0.3031 -0.1363  0.3036
 2457DPPE   C1B51345  11.186  25.597  16.946 -0.0143 -0.1132 -0.0048
 2457DPPE   C2B51346  10.993  25.822  16.727 -0.2170 -0.0708  0.0338
 2457DPPE   C3B51347  10.584  25.901  16.562 -0.1758 -0.0129 -0.1701
 2457DPPE   C4B51348  10.233  25.720  16.734  0.1306  0.1397  0.2238
 2458DPPE   NH351349  18.370  12.477  18.614 -0.0883  0.0810  0.0948
 2458DPPE   PO451350  18.076  12.261  18.517 -0.2416 -0.1361 -0.0474
 2458DPPE   GL151351  18.137  12.115  18.928  0.0497  0.3003  0.1025
 2458DPPE   GL251352  18.311  11.858  18.803 -0.1615 -0.1715  0.1160
 2458DPPE   C1A51353  18.145  12.188  19.342 -0.2552 -0.0327 -0.1482
 2458DPPE   C2A51354  18.373  12.211  19.684 -0.1062 -0.1153 -0.1972
 2458DPPE   C3A51355  18.647  12.072  19.932  0.1923  0.0533 -0.1230
 2458DPPE   C4A51356  18.860  11.686  19.999  0.1864 -0.0056 -0.3005
 2458DPPE   C1B51357  18.628  12.032  19.045 -0.1576  0.2891 -0.1590
 2458DPPE   C2B51358  18.613  12.453  19.301  0.1138  0.1629  0.0467
 2458DPPE   C3B51359  18.755  12.547  19.745  0.0453  0.2054  0.1285
 2458DPPE   C4B51360  18.915  12.440  20.126 -0.0969  0.1934 -0.0438
 2459DPPE   NH351361  13.368  20.064  18.079  0.0231  0.1245 -0.0141
 2459DPPE   PO451362  13.114  20.319  18.273  0.1980  0.1190  0.2387
 2459DPPE   GL151363  13.267  20.347  18.646  0.1476 -0.3110 -0.0142
 2459DPPE   GL251364  13.014  20.186  18.865 -0.0316  0.1410  0.6256
 2459DPPE   C1A51365  13.424  20.344  19.064 -0.0855  0.1664 -0.2390
 2459DPPE   C2A51366  13.435  20.430  19.512  0.0868  0.0857  0.0372
 2459DPPE   C3A51367  13.409  20.465  19.959  0.0779 -0.0359 -0.2145
 2459DPPE   C4A51368  13.376  20.586  20.399  0.0930 -0.0478  0.0030
 2459DPPE   C1B51369  12.993  20.178  19.239 -0.0153  0.0191 -0.0900
 2459DPPE   C2B51370  12.977  20.221  19.602 -0.0400  0.0964  0.0538
 2459DPPE   C3B51371  12.890  20.374  20.093  0.1512 -0.0488  0.0632
 2459DPPE   C4B51372  12.803  20.317  20.520  0.4175  0.0150  0.0568
 2460DPPE   NH351373  17.860  24.993  17.980  0.1856 -0.0518  0.1124
 2460DPPE   PO451374  17.635  25.091  17.853 -0.2411  0.2251 -0.1153
 2460DPPE   GL151375  17.512  25.489  17.954 -0.2108  0.0812 -0.0122
 2460DPPE   GL251376  17.372  25.426  18.248 -0.2299 -0.4127 -0.1280
 2460DPPE   C1A51377  17.435  25.909  17.726 -0.2366 -0.4075 -0.3350
 2460DPPE   C2A51378  17.035  25.975  17.688 -0.1378  0.1253  0.2171
 2460DPPE   C3A51379  16.856  26.242  17.970 -0.3271 -0.2762  0.2460
 2460DPPE   C4A51380  17.033  26.482  18.393  0.4929 -0.3643 -0.3042
 2460DPPE   C1B51381  17.282  25.610  18.579 -0.0014  0.1172  0.1428
 2460DPPE   C2B51382  17.094  25.739  18.867  0.1769  0.0299 -0.2614
 2460DPPE   C3B51383  16.918  26.020  19.076  0.2410  0.0259 -0.2693
 2460DPPE   C4B51384  16.700  26.349  19.264  0.3477  0.2837  0.2234
 2461DPPE   NH351385  18.354  23.955  17.123 -0.0965  0.1791 -0.1928
 2461DPPE   PO451386  18.154  24.346  17.216 -0.1371 -0.1213  0.2056
 2461DPPE   GL151387  18.460  24.592  17.303  0.0687 -0.1111 -0.0742
 2461DPPE   GL251388  18.692  24.300  17.093 -0.3679  0.1479 -0.2444
 2461DPPE   C1A51389  18.792  24.768  17.367 -0.3041  0.0384  0.1787
 2461DPPE   C2A51390  19.083  25.100  17.646 -0.0137  0.2350 -0.2104
 2461DPPE   C3A51391  19.413  25.290  17.795 -0.1642 -0.1043 -0.0159
 2461DPPE   C4A51392  19.780  25.275  17.980  0.3254  0.2740  0.0918
 2461DPPE   C1B51393  19.023  24.343  17.418 -0.3427  0.0399 -0.2186
 2461DPPE   C2B51394  19.368  24.062  17.547 -0.2738  0.0728 -0.3501
 2461DPPE   C3B51395  19.395  23.642  17.771 -0.0554  0.1540 -0.1850
 2461DPPE   C4B51396  19.249  23.202  17.623 -0.1010  0.0212  0.0981
 2462DPPE   NH351397  11.035  20.006  18.456 -0.4381 -0.2727 -0.0320
 2462DPPE   PO451398  11.459  19.865  18.241  0.0875 -0.0353 -0.0953
 2462DPPE   GL151399  11.639  19.671  18.669  0.1545  0.0690  0.1519
 2462DPPE   GL251400  11.836  19.457  18.814  0.3296  0.1955 -0.0253
 2462DPPE   C1A51401  11.445  19.753  19.105  0.1334 -0.1600  0.4136
 2462DPPE   C2A51402  11.457  19.751  19.654  0.1297 -0.1847  0.0135
 2462DPPE   C3A51403  11.404  19.900  20.040  0.3676 -0.5381  0.1340
 2462DPPE   C4A51404  11.256  19.775  20.472 -0.3471 -0.0874 -0.0459
 2462DPPE   C1B51405  11.910  19.339  19.264  0.1769 -0.2472  0.3507
 2462DPPE   C2B51406  11.822  19.381  19.674  0.3201 -0.2016  0.1181
 2462DPPE   C3B51407  11.798  19.500  20.178  0.0294  0.0234  0.0097
 2462DPPE   C4B51408  11.666  19.548  20.653 -0.0038 -0.1273 -0.1454
 2463DPPE   NH351409  17.909  11.750  18.496  0.1311 -0.0582  0.1987
 2463DPPE   PO451410  17.475  11.562  18.422 -0.1184 -0.0678 -0.0803
 2463DPPE   GL151411  17.443  11.328  18.821  0.1228 -0.2388 -0.0979
 2463DPPE   GL251412  17.159  11.090  18.944 -0.0580 -0.3843 -0.0246
 2463DPPE   C1A51413  17.488  11.230  19.280  0.0577 -0.2755 -0.0346
 2463DPPE   C2A51414  17.447  10.851  19.527 -0.1134  0.2230 -0.0182
 2463DPPE   C3A51415  17.238  10.882  19.872 -0.3502  0.3136  0.1009
 2463DPPE   C4A51416  17.330  10.780  20.303  0.2145 -0.3806 -0.2465
 2463DPPE   C1B51417  17.109  10.824  19.147 -0.0147  0.0657 -0.2759
 2463DPPE   C2B51418  17.032  10.547  19.424  0.3584  0.1413  0.0287
 2463DPPE   C3B51419  16.966  10.265  19.724 -0.3894  0.0894 -0.0754
 2463DPPE   C4B51420  17.065  10.014  19.986  0.1210  0.0075 -0.1496
 2464DPPE   NH351421  14.733  22.499  17.939 -0.1977  0.0848 -0.0354
 2464DPPE   PO451422  14.363  22.471  17.986 -0.1882 -0.3445  0.2650
 2464DPPE   GL151423  14.551  22.358  18.408 -0.2825 -0.0038 -0.0241
 2464DPPE   GL251424  14.669  22.568  18.436 -0.1842 -0.1190  0.3283
 2464DPPE   C1A51425  14.695  22.082  18.728 -0.0743  0.0851  0.2362
 2464DPPE   C2A51426  14.727  22.253  19.197  0.0160 -0.0146  0.2999
 2464DPPE   C3A51427  14.713  22.420  19.700  0.2568  0.0091  0.3160
 2464DPPE   C4A51428  14.772  22.334  20.177 -0.2068  0.4016  0.3817
 2464DPPE   C1B51429  14.513  22.558  18.884  0.1537  0.1954  0.2543
 2464DPPE   C2B51430  14.305  22.664  19.192 -0.0129  0.2829  0.1072
 2464DPPE   C3B51431  14.275  22.726  19.660  0.2707  0.0338 -0.2253
 2464DPPE   C4B51432  14.427  22.699  20.052  0.4126 -0.1664 -0.1385
 2465DPPE   NH351433  15.212  24.889  17.475 -0.1962 -0.0170 -0.2201
 2465DPPE   PO451434  15.344  24.870  17.883  0.0296 -0.2344  0.2971
 2465DPPE   GL151435  15.139  25.146  18.005  0.0590  0.2931 -0.0399
 2465DPPE   GL251436  15.122  25.106  18.301  0.1602  0.0872 -0.1865
 2465DPPE   C1A51437  15.137  25.545  18.014 -0.6355  0.2276 -0.0134
 2465DPPE   C2A51438  15.056  26.003  17.942 -0.2593  0.0434 -0.0823
 2465DPPE   C3A51439  15.060  26.355  17.784  0.1175 -0.3363  0.1467
 2465DPPE   C4A51440  15.130  26.542  17.331 -0.0504 -0.2307  0.2033
 2465DPPE   C1B51441  14.767  25.351  18.227  0.2133  0.1467  0.3217
 2465DPPE   C2B51442  14.522  25.752  18.112  0.0659  0.4124  0.1793
 2465DPPE   C3B51443  14.545  26.144  18.047 -0.2210  0.1790  0.1836
 2465DPPE   C4B51444  14.358  26.371  17.770 -0.2157 -0.0558 -0.0644
 2466DPPE   NH351445  13.303  12.547  18.242  0.2344 -0.0298 -0.1297
 2466DPPE   PO451446  13.661  12.400  18.268 -0.1553  0.0319  0.0123
 2466DPPE   GL151447  13.674  12.352  18.639  0.4051  0.2432  0.2480
 2466DPPE   GL251448  13.523  12.638  18.685 -0.2427  0.0093  0.3505
 2466DPPE   C1A51449  13.757  12.382  19.095  0.1508  0.1379 -0.0074
 2466DPPE   C2A51450  13.869  12.483  19.535 -0.0498 -0.0852  0.1753
 2466DPPE   C3A51451  13.850  12.330  20.009  0.0688 -0.1962 -0.1500
 2466DPPE   C4A51452  13.873  12.244  20.432 -0.2261 -0.0852  0.0572
 2466DPPE   C1B51453  13.611  12.869  19.153  0.1277  0.0641  0.3932
 2466DPPE   C2B51454  13.629  12.951  19.542  0.0465  0.0665 -0.3048
 2466DPPE   C3B51455  13.695  12.976  19.893  0.0758 -0.0207  0.0046
 2466DPPE   C4B51456  13.628  12.707  20.386 -0.1094  0.3939  0.0661
 2467DPPE   NH351457  11.486  12.493  18.125 -0.1196  0.0286 -0.1809
 2467DPPE   PO451458  11.349  12.917  18.222  0.0457 -0.2632  0.4571
 2467DPPE   GL151459  11.538  12.694  18.555  0.0843 -0.0968  0.1767
 2467DPPE   GL251460  11.506  12.493  18.700  0.1410  0.0445  0.0064
 2467DPPE   C1A51461  11.750  12.859  18.895  0.1399 -0.0031 -0.0653
 2467DPPE   C2A51462  11.801  12.797  19.335  0.2287 -0.1762 -0.2671
 2467DPPE   C3A51463  11.755  12.733  19.757  0.0711  0.0343  0.0976
 2467DPPE   C4A51464  11.817  12.634  20.159 -0.2168  0.1891 -0.0886
 2467DPPE   C1B51465  11.451  12.421  19.230  0.0102 -0.0938 -0.2123
 2467DPPE   C2B51466  11.378  12.183  19.476  0.2087 -0.0078 -0.3774
 2467DPPE   C3B51467  11.317  12.146  19.933  0.2965 -0.0356 -0.1290
 2467DPPE   C4B51468  11.177  12.183  20.287  0.1698  0.1474 -0.3801
 2468DPPE   NH351469  10.085  24.058  18.276  0.1066 -0.2293 -0.0249
 2468DPPE   PO451470  10.383  24.180  18.607  0.0866 -0.2961  0.4522
 2468DPPE   GL151471  10.385  24.536  18.937  0.5579 -0.2638  0.0849
 2468DPPE   GL251472  10.001  24.502  19.143 -0.1974  0.3452  0.0215
 2468DPPE   C1A51473  10.557  24.755  19.262  0.1187  0.2297 -0.1960
 2468DPPE   C2A51474  10.510  25.105  19.578 -0.0210  0.1823  0.2485
 2468DPPE   C3A51475  10.637  25.331  19.845 -0.0215  0.0822  0.1727
 2468DPPE   C4A51476  10.610  25.599  20.071  0.0565  0.0331  0.0806
 2468DPPE   C1B51477  10.058  24.920  19.103  0.2972 -0.2354 -0.0412
 2468DPPE   C2B51478  10.155  25.312  19.293 -0.2224  0.1421  0.1419
 2468DPPE   C3B51479  10.299  25.594  19.558  0.1088  0.0019  0.0841
 2468DPPE   C4B51480  10.299  25.937  19.792 -0.0404 -0.2544 -0.2140
 2469DPPE   NH351481   8.776  17.570  18.391  0.2057  0.0526  0.0068
 2469DPPE   PO451482   9.262  17.578  18.481  0.0925  0.2038 -0.1911
 2469DPPE   GL151483   9.396  17.505  18.947  0.0540 -0.0525 -0.0185
 2469DPPE   GL251484   9.728  17.670  18.938  0.0448 -0.4146 -0.2524
 2469DPPE   C1A51485   9.273  17.415  19.386  0.0484  0.0319  0.1322
 2469DPPE   C2A51486   9.263  17.548  19.797 -0.1328  0.0359  0.2757
 2469DPPE   C3A51487   9.149  17.636  20.160 -0.0227  0.3400  0.0012
 2469DPPE   C4A51488   8.854  17.718  20.521  0.0524  0.1403 -0.0471
 2469DPPE   C1B51489  10.100  17.622  19.182 -0.0633  0.2690 -0.2594
 2469DPPE   C2B51490  10.499  17.508  19.416 -0.0915 -0.3914 -0.2851
 2469DPPE   C3B51491  10.671  17.367  19.844  0.0211 -0.3414  0.0530
 2469DPPE   C4B51492  10.637  17.363  20.196  0.3182  0.0897  0.0475
 2470DPPE   NH351493  11.909  24.636  18.400 -0.0724  0.0619 -0.1720
 2470DPPE   PO451494  12.308  24.842  18.181 -0.1541  0.0533  0.0500
 2470DPPE   GL151495  12.398  25.010  18.559 -0.4000  0.0971  0.2578
 2470DPPE   GL251496  12.279  25.317  18.429 -0.1266 -0.0263 -0.1858
 2470DPPE   C1A51497  12.607  25.304  18.841  0.2913 -0.0854 -0.1959
 2470DPPE   C2A51498  12.868  25.667  18.905  0.3608 -0.0446 -0.1761
 2470DPPE   C3A51499  13.282  25.831  19.033  0.1183 -0.1364 -0.3245
 2470DPPE   C4A51500  13.523  25.666  18.814 -0.2572  0.3053 -0.0233
 2470DPPE   C1B51501  12.151  25.628  18.709  0.0938  0.2705  0.3962
 2470DPPE   C2B51502  12.319  25.835  18.940 -0.1782  0.1521  0.0339
 2470DPPE   C3B51503  12.481  25.868  19.243  0.0805 -0.0290 -0.2642
 2470DPPE   C4B51504  12.560  25.858  19.746  0.0046  0.0183 -0.0423
 2471DPPE   NH351505  18.117  15.742  18.637  0.3820  0.1268  0.3566
 2471DPPE   PO451506  17.873  15.357  18.361  0.0597  0.0470 -0.1352
 2471DPPE   GL151507  17.921  15.323  18.926 -0.0281  0.1428  0.0141
 2471DPPE   GL251508  17.767  15.150  18.964 -0.2810 -0.0496  0.1468
 2471DPPE   C1A51509  17.947  15.526  19.320 -0.1765 -0.0354  0.1963
 2471DPPE   C2A51510  18.064  15.585  19.738  0.1114 -0.1916  0.2119
 2471DPPE   C3A51511  17.910  15.426  20.057  0.0718  0.0672 -0.1184
 2471DPPE   C4A51512  18.193  15.195  20.335 -0.1025  0.6904 -0.0441
 2471DPPE   C1B51513  17.708  15.071  19.408  0.0666  0.0793  0.2035
 2471DPPE   C2B51514  17.852  14.926  19.889 -0.1422  0.1541 -0.1977
 2471DPPE   C3B51515  17.697  14.982  20.356 -0.1558  0.0643 -0.1161
 2471DPPE   C4B51516  17.503  15.333  20.398 -0.1522  0.0452 -0.0779
 2472DPPE   NH351517   5.944  16.283  18.604 -0.0847 -0.1033 -0.1491
 2472DPPE   PO451518   5.897  15.821  18.531  0.0328 -0.3106  0.0596
 2472DPPE   GL151519   5.533  16.080  18.810 -0.1180  0.0042 -0.4252
 2472DPPE   GL251520   5.543  16.369  18.939  0.1907  0.0337  0.0307
 2472DPPE   C1A51521   5.267  16.027  19.111 -0.1209 -0.2040 -0.1802
 2472DPPE   C2A51522   5.085  15.581  19.303  0.0523  0.1610 -0.0379
 2472DPPE   C3A51523   5.307  15.494  19.649  0.1522  0.3787  0.1572
 2472DPPE   C4A51524   5.459  15.479  20.055  0.2888  0.3434 -0.0192
 2472DPPE   C1B51525   5.234  16.528  19.266 -0.6295 -0.0821  0.1937
 2472DPPE   C2B51526   4.833  16.460  19.548 -0.0196 -0.1237 -0.2612
 2472DPPE   C3B51527   4.344  16.505  19.768 -0.3350  0.3744 -0.1659
 2472DPPE   C4B51528   3.982  16.263  20.105  0.1114 -0.0741  0.1543
 2473DPPE   NH351529   7.600  11.970  18.754  0.0021 -0.0494 -0.0173
 2473DPPE   PO451530   7.269  12.107  18.981 -0.2400 -0.0368 -0.0597
 2473DPPE   GL151531   7.095  11.708  19.053  0.1184 -0.2274  0.0585
 2473DPPE   GL251532   7.253  11.509  18.824  0.0225 -0.1464  0.0969
 2473DPPE   C1A51533   6.772  11.497  19.144  0.2942  0.0657  0.1334
 2473DPPE   C2A51534   6.485  11.398  19.004  0.3744 -0.0345 -0.0225
 2473DPPE   C3A51535   6.326  11.137  18.762  0.3198 -0.1915 -0.3861
 2473DPPE   C4A51536   6.295  10.838  18.449  0.0154  0.1668  0.2345
 2473DPPE   C1B51537   7.208  11.196  18.916 -0.3209  0.0112  0.0515
 2473DPPE   C2B51538   7.243  10.762  19.021  0.0986  0.0707  0.4716
 2473DPPE   C3B51539   7.534  10.419  19.085  0.0895  0.2344 -0.2974
 2473DPPE   C4B51540   7.870  10.369  19.246 -0.1092 -0.0376 -0.0128
 2474DPPE   NH351541  17.303  24.111  18.058  0.0131 -0.1902  0.2144
 2474DPPE   PO451542  17.047  24.452  17.931 -0.1708  0.2199 -0.0878
 2474DPPE   GL151543  17.237  24.815  18.203  0.4155  0.1283  0.5304
 2474DPPE   GL251544  17.467  24.923  18.308 -0.1446 -0.0128  0.1508
 2474DPPE   C1A51545  17.062  25.092  18.494  0.0145 -0.1114 -0.1983
 2474DPPE   C2A51546  17.110  25.266  18.948  0.2434  0.0441 -0.1353
 2474DPPE   C3A51547  16.971  25.015  19.333 -0.2128 -0.0893  0.0433
 2474DPPE   C4A51548  16.902  24.811  19.676  0.4115  0.0672 -0.2679
 2474DPPE   C1B51549  17.554  25.197  18.636  0.0978  0.1261 -0.2155
 2474DPPE   C2B51550  17.926  25.401  18.830  0.0228  0.3735 -0.0018
 2474DPPE   C3B51551  18.061  25.318  19.195 -0.4217  0.1269 -0.3154
 2474DPPE   C4B51552  18.488  25.357  19.409 -0.0279  0.2689 -0.0860
 2475DPPE   NH351553  18.234  16.091  18.101 -0.1156 -0.3673  0.0649
 2475DPPE   PO451554  18.153  16.256  18.462 -0.1708 -0.1365  0.0472
 2475DPPE   GL151555  18.072  16.276  18.907 -0.0596  0.1715 -0.5704
 2475DPPE   GL251556  18.354  16.114  19.048 -0.3209  0.2435  0.1827
 2475DPPE   C1A51557  18.094  16.304  19.422  0.0132  0.0350 -0.1612
 2475DPPE   C2A51558  18.237  16.056  19.729  0.1830 -0.1110  0.0327
 2475DPPE   C3A51559  18.217  15.899  20.151  0.3771 -0.0492  0.3421
 2475DPPE   C4A51560  18.415  15.638  20.441  0.3944 -0.2079  0.2679
 2475DPPE   C1B51561  18.636  16.174  19.407 -0.0994 -0.0111 -0.0606
 2475DPPE   C2B51562  18.782  16.295  19.723 -0.0923 -0.4905 -0.0696
 2475DPPE   C3B51563  19.115  16.305  20.020  0.1513 -0.1771  0.2419
 2475DPPE   C4B51564  19.346  16.074  20.302 -0.1504 -0.0717  0.0359
 2476DPPE   NH351565  15.005  19.126  18.824 -0.1809 -0.0345  0.1453
 2476DPPE   PO451566  14.584  19.207  18.813 -0.0071 -0.2946  0.3259
 2476DPPE   GL151567  14.742  19.484  19.175 -0.2500  0.4689  0.0591
 2476DPPE   GL251568  15.081  19.475  19.279  0.1633 -0.1749  0.0374
 2476DPPE   C1A51569  14.571  19.379  19.542 -0.5291  0.1078  0.1588
 2476DPPE   C2A51570  14.501  19.465  19.955  0.2242  0.1867  0.1474
 2476DPPE   C3A51571  14.572  19.504  20.351  0.2823  0.1441  0.1567
 2476DPPE   C4A51572  14.521  19.686  20.751 -0.1416 -0.0206  0.1832
 2476DPPE   C1B51573  15.034  19.592  19.709  0.0568  0.1892 -0.1710
 2476DPPE   C2B51574  15.076  19.547  20.128 -0.0461  0.3176  0.1590
 2476DPPE   C3B51575  15.131  19.729  20.563 -0.3402  0.1333  0.5041
 2476DPPE   C4B51576  15.130  19.790  20.997  0.3119  0.1911 -0.3158
 2477DPPE   NH351577   6.128  19.975  18.901  0.0292 -0.0273  0.4033
 2477DPPE   PO451578   5.790  19.861  18.850 -0.0844  0.0055 -0.3613
 2477DPPE   GL151579   6.005  19.757  19.366  0.1855 -0.1018 -0.2469
 2477DPPE   GL251580   5.871  19.939  19.730  0.0726  0.2518  0.0400
 2477DPPE   C1A51581   5.999  19.490  19.784 -0.1943 -0.0913 -0.0520
 2477DPPE   C2A51582   6.179  19.190  20.118 -0.3006  0.0648 -0.0491
 2477DPPE   C3A51583   6.279  19.097  20.562  0.0474  0.3530  0.2991
 2477DPPE   C4A51584   6.625  19.048  20.859 -0.3044  0.0366 -0.1368
 2477DPPE   C1B51585   5.475  20.065  20.081  0.2613 -0.0584 -0.2331
 2477DPPE   C2B51586   5.257  20.069  20.506  0.1294  0.1697  0.1534
 2477DPPE   C3B51587   5.442  20.183  20.899  0.3501  0.4119 -0.0832
 2477DPPE   C4B51588   5.430  20.325  21.303  0.1758 -0.1913  0.0384
 2478DPPE   NH351589  13.822  10.984  18.323  0.0681 -0.1736 -0.2227
 2478DPPE   PO451590  13.807  11.384  18.386 -0.1785  0.2094  0.0045
 2478DPPE   GL151591  13.810  11.261  18.840 -0.2501 -0.0763  0.0061
 2478DPPE   GL251592  14.124  11.093  18.931 -0.0847 -0.3029 -0.2609
 2478DPPE   C1A51593  13.850  11.135  19.256  0.2300  0.1012  0.0052
 2478DPPE   C2A51594  13.862  11.093  19.640  0.0129 -0.0647  0.2720
 2478DPPE   C3A51595  14.019  10.945  20.077  0.1328  0.1225  0.5188
 2478DPPE   C4A51596  13.825  10.628  20.448 -0.0120 -0.0243  0.0927
 2478DPPE   C1B51597  14.359  11.088  19.378  0.3810  0.3797 -0.0316
 2478DPPE   C2B51598  14.480  10.885  19.806  0.3925 -0.1512  0.3254
 2478DPPE   C3B51599  14.692  10.884  20.174  0.0403 -0.0247 -0.3061
 2478DPPE   C4B51600  14.347  10.914  20.423  0.0740  0.0509  0.1525
 2479DPPE   NH351601  10.100  12.088  18.853 -0.0202 -0.1473  0.2303
 2479DPPE   PO451602  10.290  11.694  18.782 -0.0460 -0.0146  0.0686
 2479DPPE   GL151603  10.206  11.639  19.212 -0.1607  0.0320 -0.4672
 2479DPPE   GL251604  10.281  11.260  19.309 -0.1169  0.0303  0.3037
 2479DPPE   C1A51605  10.377  11.585  19.731  0.0778 -0.0168 -0.2954
 2479DPPE   C2A51606  10.199  11.860  20.207 -0.2684  0.2208  0.1192
 2479DPPE   C3A51607  10.318  12.009  20.629 -0.2119 -0.2338  0.0720
 2479DPPE   C4A51608  10.601  11.935  20.958  0.0227 -0.1118 -0.3454
 2479DPPE   C1B51609  10.365  11.058  19.609 -0.0369 -0.2050  0.0252
 2479DPPE   C2B51610  10.242  10.887  20.016 -0.4826 -0.2351  0.0246
 2479DPPE   C3B51611  10.316  10.988  20.481  0.1433  0.1344 -0.2716
 2479DPPE   C4B51612  10.290  10.993  20.967 -0.1423  0.0517 -0.0434
 2480DPPE   NH351613  12.868  11.320  18.023 -0.3027  0.1993 -0.0827
 2480DPPE   PO451614  13.261  11.038  18.095 -0.0982 -0.1459  0.4433
 2480DPPE   GL151615  13.359  11.124  18.529  0.2159 -0.0339 -0.1268
 2480DPPE   GL251616  13.541  10.834  18.714 -0.1894  0.0896  0.0172
 2480DPPE   C1A51617  13.309  11.227  19.011 -0.4187 -0.2347 -0.1883
 2480DPPE   C2A51618  13.337  11.117  19.439 -0.2897 -0.5079  0.0372
 2480DPPE   C3A51619  13.445  11.238  19.841 -0.2086  0.1934  0.0795
 2480DPPE   C4A51620  13.549  11.119  20.192  0.3051  0.3008 -0.1706
 2480DPPE   C1B51621  13.469  10.733  19.133  0.1823 -0.0549 -0.2978
 2480DPPE   C2B51622  13.433  10.412  19.399  0.1146  0.2845 -0.0457
 2480DPPE   C3B51623  13.727  10.102  19.560 -0.0818  0.1104 -0.2948
 2480DPPE   C4B51624  14.020  10.176  19.885  0.0072 -0.1389  0.1997
 2481DPPE   NH351625  15.953   9.480  17.485 -0.0284 -0.2792  0.0742
 2481DPPE   PO451626  15.790   9.684  17.911  0.2494  0.1279 -0.2037
 2481DPPE   GL151627  15.714   9.213  17.860 -0.4005 -0.2107 -0.1693
 2481DPPE   GL251628  15.415   9.131  17.662 -0.0407  0.0877 -0.2765
 2481DPPE   C1A51629  15.949   8.920  17.701 -0.1514 -0.1215  0.0272
 2481DPPE   C2A51630  16.183   8.670  17.885  0.1714  0.0468  0.1030
 2481DPPE   C3A51631  16.394   8.481  17.513 -0.3504 -0.1989 -0.0066
 2481DPPE   C4A51632  16.849   8.350  17.438 -0.1651 -0.1122 -0.1930
 2481DPPE   C1B51633  15.406   8.885  18.029  0.4414 -0.0444  0.2301
 2481DPPE   C2B51634  15.188   8.596  18.464 -0.1012  0.2504  0.3503
 2481DPPE   C3B51635  15.122   8.107  18.512 -0.3126  0.0958 -0.0580
 2481DPPE   C4B51636  15.036   7.644  18.470 -0.1518 -0.1875  0.1662
 2482DPPE   NH351637  17.221  17.440  18.849  0.7433 -0.4913  0.1448
 2482DPPE   PO451638  17.661  17.607  18.869 -0.3419 -0.3027 -0.0365
 2482DPPE   GL151639  17.724  17.363  19.316  0.0230 -0.0130  0.0424
 2482DPPE   GL251640  18.086  17.286  19.387 -0.0748 -0.1238 -0.0173
 2482DPPE   C1A51641  17.755  17.320  19.753 -0.1046 -0.1289 -0.1337
 2482DPPE   C2A51642  17.901  17.290  20.246  0.0091  0.1659  0.0924
 2482DPPE   C3A51643  18.175  17.284  20.687 -0.3719 -0.0419 -0.0923
 2482DPPE   C4A51644  18.276  17.070  20.969  0.0070 -0.2628 -0.1293
 2482DPPE   C1B51645  18.502  17.198  19.433  0.0626 -0.0423 -0.1394
 2482DPPE   C2B51646  18.695  17.061  19.757 -0.2984  0.1285 -0.0194
 2482DPPE   C3B51647  18.949  17.297  20.144  0.2103 -0.0949  0.2036
 2482DPPE   C4B51648  19.219  17.272  20.422  0.0659 -0.1284 -0.1591
 2483DPPE   NH351649  16.427  17.054  19.096  0.0273  0.0041  0.0415
 2483DPPE   PO451650  16.344  16.620  19.004 -0.3264  0.1172  0.2215
 2483DPPE   GL151651  16.662  16.627  19.411  0.4827  0.1188 -0.2113
 2483DPPE   GL251652  16.775  16.896  19.496 -0.1251  0.3643  0.1060
 2483DPPE   C1A51653  16.566  16.505  19.908  0.1587  0.1751 -0.0938
 2483DPPE   C2A51654  16.646  16.567  20.311 -0.0400 -0.3162  0.2672
 2483DPPE   C3A51655  16.876  16.604  20.719 -0.0418  0.2285 -0.0989
 2483DPPE   C4A51656  16.930  16.414  21.119 -0.0774  0.0738 -0.0440
 2483DPPE   C1B51657  16.824  16.948  19.840 -0.1836 -0.2394  0.0331
 2483DPPE   C2B51658  16.827  17.317  20.077 -0.2661  0.2059 -0.2673
 2483DPPE   C3B51659  16.806  17.441  20.495  0.2525 -0.1899  0.2931
 2483DPPE   C4B51660  16.932  17.414  20.907 -0.2013 -0.0672 -0.2451
 2484DPPE   NH351661   8.887  13.925  18.685  0.2302 -0.2323 -0.3164
 2484DPPE   PO451662   8.729  13.533  18.615 -0.1340 -0.0696  0.0448
 2484DPPE   GL151663   8.669  13.249  19.033  0.0443  0.2329 -0.1001
 2484DPPE   GL251664   8.352  13.024  19.135 -0.1838  0.0093 -0.1628
 2484DPPE   C1A51665   8.719  13.231  19.462  0.0213  0.0120 -0.3196
 2484DPPE   C2A51666   8.448  13.360  19.826  0.1053  0.2059 -0.1846
 2484DPPE   C3A51667   8.264  13.731  20.125  0.0276  0.1336  0.0267
 2484DPPE   C4A51668   8.315  13.798  20.500  0.2796 -0.2477 -0.0840
 2484DPPE   C1B51669   8.240  13.001  19.578 -0.1271 -0.1251 -0.1870
 2484DPPE   C2B51670   7.924  12.962  19.918 -0.3881 -0.2664  0.2539
 2484DPPE   C3B51671   7.660  12.904  20.359  0.0632 -0.2063 -0.0835
 2484DPPE   C4B51672   7.357  12.966  20.699 -0.1197  0.3300 -0.3957
 2485DPPE   NH351673  15.454  23.609  17.981 -0.0871 -0.1155  0.0829
 2485DPPE   PO451674  15.057  23.360  17.897  0.1231 -0.1536  0.0838
 2485DPPE   GL151675  14.989  23.329  18.307  0.5291  0.0162 -0.0858
 2485DPPE   GL251676  14.834  23.058  18.367 -0.0353 -0.0816 -0.1351
 2485DPPE   C1A51677  15.287  23.452  18.611  0.0852  0.3792  0.0446
 2485DPPE   C2A51678  15.300  23.502  19.047  0.0371  0.0683 -0.1976
 2485DPPE   C3A51679  15.529  23.318  19.311 -0.1513  0.2094 -0.2007
 2485DPPE   C4A51680  15.839  23.382  19.760  0.2029 -0.0722 -0.0737
 2485DPPE   C1B51681  14.853  23.081  18.823 -0.1267 -0.2708 -0.1770
 2485DPPE   C2B51682  14.601  23.172  19.175 -0.2726  0.0566  0.2873
 2485DPPE   C3B51683  14.261  23.124  19.447  0.0132 -0.0620 -0.2867
 2485DPPE   C4B51684  14.051  23.520  19.497 -0.0571  0.0125  0.3067
 2486DPPE   NH351685   9.308  11.858  18.959  0.0156 -0.0734 -0.4134
 2486DPPE   PO451686   9.104  11.434  19.047 -0.1020  0.1866  0.0293
 2486DPPE   GL151687   9.177  11.160  19.275  0.2503  0.5735  0.1995
 2486DPPE   GL251688   9.156  10.842  19.394  0.1538 -0.3548  0.0535
 2486DPPE   C1A51689   9.339  11.211  19.692 -0.1129  0.3693 -0.0664
 2486DPPE   C2A51690   9.327  11.008  20.123 -0.0434  0.0641  0.0823
 2486DPPE   C3A51691   8.982  10.779  20.346 -0.1788  0.1649  0.3078
 2486DPPE   C4A51692   8.951  10.311  20.515 -0.2960 -0.1866 -0.1139
 2486DPPE   C1B51693   9.225  10.588  19.718  0.0279 -0.0035  0.2735
 2486DPPE   C2B51694   9.300  10.452  20.141  0.2334  0.4411 -0.1746
 2486DPPE   C3B51695   9.570  10.568  20.412 -0.3958 -0.2758  0.2411
 2486DPPE   C4B51696   9.916  10.771  20.691  0.0724 -0.1740  0.4352
 2487DPPE   NH351697  16.821   9.954  17.558 -0.2103 -0.1937  0.1779
 2487DPPE   PO451698  16.363   9.817  17.751  0.0007  0.2563 -0.1605
 2487DPPE   GL151699  16.661   9.468  17.886 -0.1796 -0.4087 -0.1149
 2487DPPE   GL251700  16.282   9.313  17.851  0.2533 -0.1115 -0.0242
 2487DPPE   C1A51701  16.715   9.021  17.931  0.0896 -0.3133  0.0131
 2487DPPE   C2A51702  16.753   8.603  17.919  0.1329 -0.2500  0.3213
 2487DPPE   C3A51703  16.825   8.338  18.331 -0.0686 -0.0246  0.1232
 2487DPPE   C4A51704  17.170   8.099  18.380  0.0166 -0.1097  0.0371
 2487DPPE   C1B51705  16.418   9.093  17.506  0.2185 -0.1261 -0.0150
 2487DPPE   C2B51706  16.641   8.886  17.297  0.1591  0.3701 -0.2080
 2487DPPE   C3B51707  17.073   8.783  17.518 -0.2591 -0.1212  0.3169
 2487DPPE   C4B51708  17.426   8.827  17.641 -0.1355  0.0891  0.2376
 2488DPPE   NH351709  11.467  20.794  18.622 -0.1015  0.3101 -0.0784
 2488DPPE   PO451710  11.778  20.617  18.373 -0.2771 -0.2867 -0.1642
 2488DPPE   GL151711  11.931  20.582  18.819  0.0760  0.0243 -0.0745
 2488DPPE   GL251712  11.702  20.783  19.101 -0.0914 -0.0480  0.0758
 2488DPPE   C1A51713  12.140  20.442  19.227 -0.1914 -0.0656  0.6003
 2488DPPE   C2A51714  12.032  20.423  19.633 -0.0214 -0.0008 -0.2358
 2488DPPE   C3A51715  11.992  20.578  20.079 -0.0666  0.2038 -0.1955
 2488DPPE   C4A51716  11.939  20.503  20.550 -0.1144 -0.0160  0.4052
 2488DPPE   C1B51717  11.620  20.740  19.538  0.0612  0.1595 -0.0128
 2488DPPE   C2B51718  11.588  20.840  19.992 -0.2860 -0.2725  0.1050
 2488DPPE   C3B51719  11.657  20.884  20.366 -0.3209 -0.0627 -0.1499
 2488DPPE   C4B51720  11.636  20.888  20.714 -0.0219 -0.0307  0.2788
 2489DPPE   NH351721  13.294  19.391  18.241  0.3318 -0.1554 -0.0951
 2489DPPE   PO451722  12.793  19.451  18.332 -0.1535 -0.0037 -0.3719
 2489DPPE   GL151723  12.798  19.639  18.744 -0.3622  0.2060 -0.2670
 2489DPPE   GL251724  13.166  19.632  18.977  0.1933  0.0737 -0.0911
 2489DPPE   C1A51725  12.774  19.706  19.239  0.3579 -0.0013 -0.0146
 2489DPPE   C2A51726  12.886  19.701  19.641 -0.2292 -0.1034  0.0549
 2489DPPE   C3A51727  12.929  19.851  19.995 -0.0438  0.1197 -0.0125
 2489DPPE   C4A51728  12.801  19.784  20.386 -0.1944  0.0363  0.0141
 2489DPPE   C1B51729  13.337  19.834  19.383  0.0630  0.0915 -0.3489
 2489DPPE   C2B51730  13.388  19.912  19.829 -0.0244  0.2709 -0.1966
 2489DPPE   C3B51731  13.216  20.090  20.315 -0.0133  0.1447 -0.2069
 2489DPPE   C4B51732  13.311  20.190  20.680  0.1619  0.3879 -0.2629
 2490DPPE   NH351733  16.698  23.644  18.210 -0.1435 -0.0585  0.1664
 2490DPPE   PO451734  16.254  23.792  18.275 -0.0667 -0.0511  0.1290
 2490DPPE   GL151735  16.055  23.782  18.682  0.3194  0.0712 -0.1068
 2490DPPE   GL251736  16.062  24.139  18.822  0.1680  0.1655  0.0254
 2490DPPE   C1A51737  15.778  23.704  19.008 -0.2598 -0.0180  0.0029
 2490DPPE   C2A51738  15.701  23.780  19.314 -0.1745 -0.0020 -0.0154
 2490DPPE   C3A51739  15.367  23.875  19.546 -0.0114 -0.0075  0.1076
 2490DPPE   C4A51740  15.267  23.970  19.950  0.0540  0.0055 -0.1408
 2490DPPE   C1B51741  15.856  24.229  19.267 -0.2818  0.3894  0.1648
 2490DPPE   C2B51742  15.815  24.042  19.730  0.5376  0.0690 -0.1529
 2490DPPE   C3B51743  15.960  23.760  20.084  0.0357 -0.0119  0.0856
 2490DPPE   C4B51744  15.766  23.349  20.304  0.1121 -0.2322  0.0877
 2491DPPE   NH351745  16.961  17.129  18.535 -0.3119  0.0594 -0.0713
 2491DPPE   PO451746  16.922  17.071  19.053  0.0049  0.0509 -0.4307
 2491DPPE   GL151747  17.215  17.106  19.233  0.1758 -0.3716 -0.2422
 2491DPPE   GL251748  17.240  17.395  19.395  0.2257 -0.0067 -0.0244
 2491DPPE   C1A51749  17.365  16.885  19.646  0.0499  0.1995  0.1825
 2491DPPE   C2A51750  17.434  16.934  20.055 -0.1340 -0.0589 -0.3172
 2491DPPE   C3A51751  17.555  17.030  20.434 -0.0102  0.0544 -0.0084
 2491DPPE   C4A51752  17.818  16.984  20.776 -0.2278  0.0179 -0.2062
 2491DPPE   C1B51753  17.227  17.333  19.787  0.2028  0.1632 -0.2034
 2491DPPE   C2B51754  17.314  17.407  20.212 -0.1252  0.0299  0.0183
 2491DPPE   C3B51755  17.385  17.453  20.696 -0.1411  0.0036 -0.4391
 2491DPPE   C4B51756  17.512  17.278  21.078  0.0691  0.2058 -0.1140
 2492DPPE   NH351757   6.840  20.456  19.057  0.1662  0.1535  0.5485
 2492DPPE   PO451758   6.411  20.288  19.142  0.1004 -0.0939 -0.1514
 2492DPPE   GL151759   6.127  20.268  19.313  0.3382 -0.2053 -0.1140
 2492DPPE   GL251760   5.762  20.231  19.179 -0.2181  0.0661  0.1984
 2492DPPE   C1A51761   5.819  20.476  19.606 -0.1802  0.2041 -0.1244
 2492DPPE   C2A51762   5.329  20.444  19.704  0.2809  0.0044  0.0312
 2492DPPE   C3A51763   5.086  20.315  19.981  0.3523  0.2098 -0.2617
 2492DPPE   C4A51764   4.954  20.492  20.362  0.2539  0.1573 -0.2536
 2492DPPE   C1B51765   5.396  20.027  19.361 -0.0661 -0.0086  0.0166
 2492DPPE   C2B51766   5.349  19.760  19.726 -0.0575 -0.0900  0.1041
 2492DPPE   C3B51767   5.536  19.520  20.018 -0.0997  0.0581  0.3123
 2492DPPE   C4B51768   5.886  19.601  20.213 -0.1017  0.1082 -0.3064
 2493DPPE   NH351769   8.640  19.784  18.941  0.2518  0.1099  0.0147
 2493DPPE   PO451770   8.590  20.150  18.848  0.0792 -0.1130  0.0314
 2493DPPE   GL151771   8.669  20.209  19.237  0.2644  0.3566  0.0143
 2493DPPE   GL251772   8.680  20.552  19.214 -0.3056 -0.0393  0.0864
 2493DPPE   C1A51773   8.650  19.999  19.612  0.2771  0.0757  0.0875
 2493DPPE   C2A51774   8.370  19.874  19.882  0.1397 -0.2492  0.0495
 2493DPPE   C3A51775   8.188  19.853  20.200  0.3205  0.1148  0.1070
 2493DPPE   C4A51776   8.065  19.838  20.667 -0.1378 -0.1800 -0.1951
 2493DPPE   C1B51777   8.638  20.493  19.725 -0.0796 -0.2286 -0.1656
 2493DPPE   C2B51778   8.568  20.330  20.122  0.0698 -0.1039  0.2811
 2493DPPE   C3B51779   8.833  20.295  20.345 -0.2900  0.1460  0.0982
 2493DPPE   C4B51780   9.046  20.427  20.553  0.3113  0.2273  0.0467
 2494DPPE   NH351781  12.328  14.503  17.895 -0.1719  0.1901 -0.1019
 2494DPPE   PO451782  12.408  14.938  18.069  0.2217  0.3445  0.0527
 2494DPPE   GL151783  12.508  14.713  18.476  0.0398  0.0282  0.1952
 2494DPPE   GL251784  12.379  14.926  18.674  0.3187  0.0873  0.2710
 2494DPPE   C1A51785  12.449  14.436  18.857 -0.1654  0.0801  0.1371
 2494DPPE   C2A51786  12.526  14.523  19.376 -0.0240  0.0255  0.0786
 2494DPPE   C3A51787  12.550  14.427  19.730 -0.0788  0.1046 -0.2319
 2494DPPE   C4A51788  12.584  14.426  20.180  0.4520 -0.1655 -0.0311
 2494DPPE   C1B51789  12.485  15.027  19.069 -0.0520  0.2704 -0.2438
 2494DPPE   C2B51790  12.382  15.019  19.561 -0.1331 -0.0571  0.0860
 2494DPPE   C3B51791  12.378  14.855  19.976 -0.1261 -0.1786  0.1860
 2494DPPE   C4B51792  12.686  14.962  20.078 -0.1327  0.0627  0.1246
 2495DPPE   NH351793   9.932  19.531  18.563 -0.0372  0.0080 -0.0263
 2495DPPE   PO451794  10.280  19.375  18.629 -0.0121 -0.3264  0.0517
 2495DPPE   GL151795  10.395  19.484  19.016 -0.0301 -0.1342  0.2338
 2495DPPE   GL251796  10.491  19.753  19.201  0.2003 -0.3200 -0.4162
 2495DPPE   C1A51797  10.449  19.324  19.535 -0.0387  0.0508 -0.0683
 2495DPPE   C2A51798  10.404  19.506  19.986  0.1681 -0.1539  0.1073
 2495DPPE   C3A51799  10.302  19.535  20.417  0.2509 -0.2689  0.3986
 2495DPPE   C4A51800  10.420  19.679  20.841  0.0957  0.3359 -0.2691
 2495DPPE   C1B51801  10.556  19.912  19.740 -0.2762 -0.1369 -0.0190
 2495DPPE   C2B51802  10.489  20.000  20.184 -0.2946  0.2045  0.4961
 2495DPPE   C3B51803  10.342  20.133  20.532 -0.1166  0.1051 -0.2058
 2495DPPE   C4B51804  10.062  19.951  20.990 -0.0324 -0.0724 -0.1144
 2496DPPE   NH351805  11.150  15.973  18.130 -0.0581  0.2119 -0.0837
 2496DPPE   PO451806  10.663  15.893  18.297  0.0819 -0.0315 -0.0270
 2496DPPE   GL151807  10.533  15.862  18.724  0.2145 -0.1043 -0.0813
 2496DPPE   GL251808  10.708  15.517  18.761  0.0982 -0.1307 -0.1282
 2496DPPE   C1A51809  10.629  15.721  19.189  0.0020 -0.3886 -0.1624
 2496DPPE   C2A51810  10.784  15.587  19.634  0.0794  0.0836 -0.3745
 2496DPPE   C3A51811  10.793  15.472  20.129 -0.3586  0.2554 -0.1758
 2496DPPE   C4A51812  10.727  15.471  20.627  0.0641  0.2281 -0.2168
 2496DPPE   C1B51813  10.849  15.296  19.095  0.1013  0.2479 -0.4711
 2496DPPE   C2B51814  11.008  15.172  19.464 -0.0233  0.1739  0.2464
 2496DPPE   C3B51815  11.018  15.050  19.840  0.0274  0.0724 -0.0294
 2496DPPE   C4B51816  10.935  14.996  20.318  0.1696 -0.1054  0.1730
 2497DPPE   NH351817  11.885  17.579  18.591  0.4091  0.1879  0.2047
 2497DPPE   PO451818  11.538  17.755  18.726 -0.0053 -0.2321 -0.1780
 2497DPPE   GL151819  11.396  17.560  19.059  0.0015  0.5149 -0.0801
 2497DPPE   GL251820  11.283  17.835  19.268 -0.0193  0.1216  0.2740
 2497DPPE   C1A51821  11.461  17.357  19.477 -0.1586 -0.0233 -0.0528
 2497DPPE   C2A51822  11.512  17.424  19.959 -0.0592 -0.3292 -0.0481
 2497DPPE   C3A51823  11.152  17.281  20.145 -0.0831 -0.0344 -0.0972
 2497DPPE   C4A51824  11.006  17.297  20.591  0.0835  0.1923 -0.1375
 2497DPPE   C1B51825  11.496  17.814  19.687 -0.1032  0.2943  0.4024
 2497DPPE   C2B51826  11.465  17.980  20.085 -0.0019 -0.0981 -0.1326
 2497DPPE   C3B51827  11.548  17.972  20.501 -0.0630 -0.4711  0.0244
 2497DPPE   C4B51828  11.799  17.946  20.865  0.1429 -0.1342 -0.2028
 2498DPPE   NH351829   8.834  21.655  18.924 -0.0540  0.1089  0.1552
 2498DPPE   PO451830   8.545  21.897  19.014 -0.3385 -0.3067  0.0532
 2498DPPE   GL151831   8.548  21.903  19.435 -0.1714 -0.1539  0.1450
 2498DPPE   GL251832   8.578  21.741  19.725  0.1322 -0.2249 -0.0754
 2498DPPE   C1A51833   8.576  22.206  19.792 -0.0326  0.0387  0.0287
 2498DPPE   C2A51834   8.543  22.279  20.249 -0.2678  0.0675  0.0169
 2498DPPE   C3A51835   8.630  22.449  20.685 -0.1268 -0.1595 -0.1039
 2498DPPE   C4A51836   8.554  22.499  21.102 -0.1922 -0.0122 -0.2236
 2498DPPE   C1B51837   8.378  21.766  20.155  0.1477 -0.0497 -0.0015
 2498DPPE   C2B51838   8.182  21.657  20.482  0.1793  0.2247  0.3161
 2498DPPE   C3B51839   7.782  21.502  20.789  0.3356 -0.0731 -0.2307
 2498DPPE   C4B51840   7.427  21.601  20.878 -0.0432  0.2139  0.4234
 2499DPPE   NH351841  12.456  13.662  18.119  0.1467 -0.2838  0.0194
 2499DPPE   PO451842  12.189  13.981  18.120  0.0891 -0.1498  0.0466
 2499DPPE   GL151843  12.221  13.939  18.511 -0.0358  0.2203  0.0563
 2499DPPE   GL251844  12.356  13.695  18.632  0.0833  0.2867  0.0541
 2499DPPE   C1A51845  12.171  14.095  19.002  0.2172  0.1121 -0.1118
 2499DPPE   C2A51846  12.249  14.075  19.414 -0.2680  0.2786  0.2368
 2499DPPE   C3A51847  12.292  13.945  19.806 -0.1347  0.1242 -0.3374
 2499DPPE   C4A51848  12.266  13.886  20.316  0.0729 -0.0276  0.0977
 2499DPPE   C1B51849  12.378  13.677  19.114  0.0318 -0.0881  0.0197
 2499DPPE   C2B51850  12.545  13.580  19.416 -0.3809 -0.4339 -0.0425
 2499DPPE   C3B51851  12.508  13.503  19.763  0.1274 -0.2045  0.4082
 2499DPPE   C4B51852  12.459  13.362  20.180  0.0939  0.1147  0.0682
 2500DPPE   NH351853   9.992  17.911  18.513  0.2985  0.2322 -0.2513
 2500DPPE   PO451854  10.060  17.428  18.397  0.3031 -0.0282  0.1952
 2500DPPE   GL151855  10.089  17.248  18.869  0.3741 -0.1004 -0.0363
 2500DPPE   GL251856   9.781  17.203  19.015 -0.1446  0.0829 -0.1873
 2500DPPE   C1A51857  10.214  17.079  19.329  0.1423  0.2337  0.1331
 2500DPPE   C2A51858  10.187  17.212  19.771  0.1003 -0.0531 -0.2566
 2500DPPE   C3A51859  10.107  17.328  20.114  0.0970 -0.0914  0.0929
 2500DPPE   C4A51860   9.986  17.188  20.561  0.0500  0.0698  0.0111
 2500DPPE   C1B51861   9.773  17.295  19.419 -0.3913  0.2047 -0.0525
 2500DPPE   C2B51862   9.704  17.163  19.883  0.0784 -0.0373 -0.2140
 2500DPPE   C3B51863   9.608  16.954  20.364 -0.0604  0.0916  0.2605
 2500DPPE   C4B51864   9.500  17.063  20.815 -0.4147  0.0978  0.1722
 2501DPPE   NH351865  12.647  22.919  17.541 -0.4585 -0.0583 -0.0491
 2501DPPE   PO451866  12.870  23.105  17.931  0.1535 -0.2591  0.3005
 2501DPPE   GL151867  12.773  23.190  18.343 -0.0577  0.0633 -0.3296
 2501DPPE   GL251868  13.012  23.473  18.499 -0.2705  0.1818 -0.0894
 2501DPPE   C1A51869  12.752  23.221  18.836  0.1114 -0.0258  0.2033
 2501DPPE   C2A51870  12.658  23.364  19.317  0.1038 -0.2056 -0.0195
 2501DPPE   C3A51871  12.502  23.555  19.689  0.0114 -0.3473  0.0220
 2501DPPE   C4A51872  12.337  23.689  20.105 -0.0595  0.1712 -0.0207
 2501DPPE   C1B51873  13.245  23.227  18.912 -0.0420  0.0322 -0.1308
 2501DPPE   C2B51874  13.053  23.086  19.284  0.2101 -0.2962  0.2207
 2501DPPE   C3B51875  12.994  23.155  19.746  0.1041  0.2022  0.1716
 2501DPPE   C4B51876  12.651  23.292  20.057 -0.1180 -0.0651  0.1568
 2502DPPE   NH351877  13.516  21.475  18.375  0.1954 -0.1377 -0.2518
 2502DPPE   PO451878  13.716  21.137  18.418 -0.0599 -0.0502 -0.2593
 2502DPPE   GL151879  13.611  21.246  18.818 -0.3286 -0.0291  0.1297
 2502DPPE   GL251880  13.854  21.472  18.799 -0.1229 -0.0938  0.2198
 2502DPPE   C1A51881  13.606  21.379  19.249 -0.1207  0.1022  0.0353
 2502DPPE   C2A51882  13.663  21.516  19.682  0.2657 -0.0468  0.1033
 2502DPPE   C3A51883  13.637  21.501  20.125 -0.0219 -0.2633 -0.0665
 2502DPPE   C4A51884  13.761  21.532  20.640 -0.2333  0.3060  0.2966
 2502DPPE   C1B51885  14.112  21.496  19.226 -0.2718 -0.0221  0.3947
 2502DPPE   C2B51886  14.151  21.641  19.550  0.0504 -0.3655  0.1790
 2502DPPE   C3B51887  14.105  21.645  19.992 -0.1182  0.4621 -0.4715
 2502DPPE   C4B51888  14.153  21.778  20.426 -0.1578  0.0274 -0.1244
 2503DPPE   NH351889   7.314  12.282  18.147 -0.1390 -0.0368  0.2132
 2503DPPE   PO451890   6.980  12.470  18.168  0.1441 -0.2485  0.0724
 2503DPPE   GL151891   6.971  12.114  18.540 -0.1056  0.0297  0.0912
 2503DPPE   GL251892   6.830  11.878  18.340  0.2730  0.2031  0.0322
 2503DPPE   C1A51893   6.678  11.936  18.861 -0.0455 -0.0429 -0.3074
 2503DPPE   C2A51894   6.391  11.902  19.180 -0.1413  0.2349 -0.0797
 2503DPPE   C3A51895   6.434  11.645  19.448  0.2062 -0.1369 -0.1762
 2503DPPE   C4A51896   6.217  11.313  19.519  0.1689 -0.2345  0.2665
 2503DPPE   C1B51897   6.855  11.545  18.546 -0.0658  0.1355 -0.1977
 2503DPPE   C2B51898   6.702  11.110  18.324 -0.1301  0.0150 -0.2459
 2503DPPE   C3B51899   6.419  11.201  18.044 -0.2179  0.1652  0.1257
 2503DPPE   C4B51900   6.026  10.979  17.859 -0.1125 -0.1282 -0.1529
 2504DPPE   NH351901  15.861  24.509  17.751 -0.0194  0.0448  0.1096
 2504DPPE   PO451902  15.698  24.552  18.138 -0.0872  0.0246 -0.1550
 2504DPPE   GL151903  15.559  24.854  18.427 -0.0164 -0.2056  0.1557
 2504DPPE   GL251904  15.653  25.181  18.307 -0.0173 -0.1708 -0.2490
 2504DPPE   C1A51905  15.458  25.035  18.789 -0.0881 -0.0591  0.0702
 2504DPPE   C2A51906  15.169  25.132  19.037  0.0648 -0.0297 -0.1038
 2504DPPE   C3A51907  14.774  25.347  19.200 -0.0164  0.4370  0.0312
 2504DPPE   C4A51908  14.497  25.338  19.504  0.1848 -0.0380  0.0092
 2504DPPE   C1B51909  15.778  25.597  18.227  0.3752  0.3590 -0.0471
 2504DPPE   C2B51910  15.634  25.905  17.934  0.0810 -0.2595 -0.0673
 2504DPPE   C3B51911  15.592  26.249  17.648 -0.0809 -0.2485 -0.0299
 2504DPPE   C4B51912  15.544  26.664  17.730 -0.2149  0.1302  0.6385
 2505DPPE   NH351913  17.242  18.391  18.600 -0.0807 -0.4142  0.2488
 2505DPPE   PO451914  16.795  18.660  18.817 -0.0692  0.1210  0.0559
 2505DPPE   GL151915  16.636  18.606  19.230  0.4081 -0.0421 -0.0449
 2505DPPE   GL251916  16.793  18.614  19.564  0.0590 -0.2629 -0.2671
 2505DPPE   C1A51917  16.326  18.531  19.679  0.0890 -0.1708  0.1330
 2505DPPE   C2A51918  16.252  18.660  20.068  0.0128  0.2806 -0.1681
 2505DPPE   C3A51919  16.367  18.692  20.552  0.2710  0.1586  0.3181
 2505DPPE   C4A51920  16.282  18.724  20.975  0.1995 -0.2007  0.1489
 2505DPPE   C1B51921  16.831  18.752  20.011  0.1610 -0.1300 -0.2768
 2505DPPE   C2B51922  17.076  18.792  20.409  0.0142 -0.0044  0.2969
 2505DPPE   C3B51923  17.465  18.796  20.633  0.1927 -0.1743 -0.1333
 2505DPPE   C4B51924  17.731  19.050  20.827 -0.0929 -0.0041  0.0518
 2506DPPE   NH351925  13.719  15.347  18.270 -0.1366  0.0067  0.0769
 2506DPPE   PO451926  14.069  15.554  18.336  0.1855  0.3843 -0.0036
 2506DPPE   GL151927  13.866  15.473  18.803 -0.2361  0.2820 -0.2415
 2506DPPE   GL251928  13.562  15.572  18.745  0.2816  0.1048 -0.0326
 2506DPPE   C1A51929  13.817  15.316  19.335  0.1341 -0.1512  0.0247
 2506DPPE   C2A51930  13.784  15.192  19.725 -0.0666  0.1361 -0.2164
 2506DPPE   C3A51931  13.847  15.166  20.172 -0.2000  0.0392  0.2053
 2506DPPE   C4A51932  13.774  15.089  20.616 -0.2374 -0.1319  0.0013
 2506DPPE   C1B51933  13.638  15.786  19.204  0.3763 -0.0146  0.0251
 2506DPPE   C2B51934  13.673  15.679  19.693  0.2138  0.2342  0.1920
 2506DPPE   C3B51935  13.669  15.620  20.156  0.1477  0.3236 -0.0740
 2506DPPE   C4B51936  13.546  15.669  20.599  0.3246  0.1905  0.1970
 2507DPPE   NH351937  19.457  15.433  17.737 -0.0354 -0.0378 -0.1414
 2507DPPE   PO451938  19.408  15.592  18.109 -0.1012 -0.2723 -0.2740
 2507DPPE   GL151939  19.442  15.664  18.627 -0.0631  0.0803  0.0299
 2507DPPE   GL251940  19.230  15.546  18.829  0.1343  0.0525  0.1208
 2507DPPE   C1A51941  19.798  15.584  19.016  0.1094 -0.2975  0.2389
 2507DPPE   C2A51942  19.879  15.209  19.373  0.0524 -0.3070 -0.2181
 2507DPPE   C3A51943  20.193  15.189  19.755  0.1181 -0.2492  0.3070
 2507DPPE   C4A51944  20.533  15.022  19.837  0.1638 -0.2611  0.0054
 2507DPPE   C1B51945  19.362  15.380  19.277  0.1175 -0.1079  0.0201
 2507DPPE   C2B51946  19.644  15.467  19.683 -0.1781 -0.1264  0.2642
 2507DPPE   C3B51947  20.038  15.666  19.528  0.0699 -0.3848 -0.0099
 2507DPPE   C4B51948  20.346  15.900  19.219  0.0134 -0.0619  0.0083
 2508DPPE   NH351949   8.299  21.805  18.592  0.0005  0.1008  0.0566
 2508DPPE   PO451950   8.112  22.121  18.919  0.3841 -0.2910 -0.2413
 2508DPPE   GL151951   8.046  22.066  19.263 -0.0465  0.2047 -0.0387
 2508DPPE   GL251952   8.135  21.732  19.330  0.2622  0.2534  0.1121
 2508DPPE   C1A51953   7.785  22.079  19.611  0.1525  0.0537 -0.1262
 2508DPPE   C2A51954   7.895  22.238  19.995  0.0042  0.0078 -0.2980
 2508DPPE   C3A51955   8.050  22.255  20.360  0.2549 -0.1986 -0.3443
 2508DPPE   C4A51956   8.224  22.064  20.661 -0.0545 -0.1318 -0.0512
 2508DPPE   C1B51957   8.033  21.695  19.698  0.1073  0.1010 -0.1303
 2508DPPE   C2B51958   7.771  21.662  20.035  0.0020 -0.2522 -0.2723
 2508DPPE   C3B51959   7.524  21.819  20.406  0.1085  0.0915 -0.1749
 2508DPPE   C4B51960   7.440  22.253  20.446 -0.3210  0.0267 -0.2058
 2509DPPE   NH351961  10.782  11.604  18.502 -0.2558 -0.1665  0.3008
 2509DPPE   PO451962  10.835  12.024  18.348 -0.1841  0.0553 -0.0607
 2509DPPE   GL151963  10.659  12.064  18.748 -0.0272  0.0654 -0.0456
 2509DPPE   GL251964  10.556  12.018  19.083  0.2218 -0.0775 -0.1499
 2509DPPE   C1A51965  10.959  12.420  18.985 -0.0369 -0.3299  0.1150
 2509DPPE   C2A51966  10.923  12.442  19.441 -0.2047 -0.1801 -0.0771
 2509DPPE   C3A51967  10.817  12.373  19.910  0.0606  0.0294 -0.1897
 2509DPPE   C4A51968  10.775  12.513  20.235 -0.0247 -0.0544  0.1130
 2509DPPE   C1B51969  10.396  12.168  19.497 -0.1102  0.0073  0.2296
 2509DPPE   C2B51970  10.402  12.142  19.802 -0.0044  0.3101  0.1801
 2509DPPE   C3B51971  10.297  12.397  20.233 -0.1703 -0.1233  0.0441
 2509DPPE   C4B51972  10.508  12.518  20.724 -0.1582 -0.2539 -0.2128
 2510DPPE   NH351973  17.730  17.710  18.365  0.2374 -0.2983  0.0353
 2510DPPE   PO451974  18.089  17.799  18.680 -0.0464 -0.2314  0.0207
 2510DPPE   GL151975  18.310  17.751  19.050  0.1190 -0.1534  0.0575
 2510DPPE   GL251976  18.062  17.788  19.234 -0.4839 -0.1077 -0.0966
 2510DPPE   C1A51977  18.577  17.850  19.427  0.3355  0.3030  0.0999
 2510DPPE   C2A51978  18.672  17.616  19.849  0.0240 -0.4812 -0.1802
 2510DPPE   C3A51979  18.843  17.852  20.160  0.0405 -0.2036 -0.1882
 2510DPPE   C4A51980  18.923  17.932  20.623 -0.2242  0.2805  0.2252
 2510DPPE   C1B51981  18.115  17.694  19.665  0.0832  0.0443 -0.1208
 2510DPPE   C2B51982  18.235  17.297  19.859 -0.2124  0.2084 -0.0789
 2510DPPE   C3B51983  18.390  17.030  20.181  0.4252 -0.1394 -0.1044
 2510DPPE   C4B51984  18.676  17.237  20.541  0.1306  0.2779 -0.2956
 2511DPPE   NH351985  15.262  15.482  17.995  0.0413  0.0430  0.0898
 2511DPPE   PO451986  15.705  15.477  18.247  0.0667  0.1245 -0.1774
 2511DPPE   GL151987  15.715  15.528  18.744 -0.0666 -0.0661 -0.1769
 2511DPPE   GL251988  15.972  15.722  18.963 -0.2357  0.0966 -0.1387
 2511DPPE   C1A51989  15.574  15.335  19.168 -0.1223  0.0970 -0.1725
 2511DPPE   C2A51990  15.728  15.311  19.515 -0.0442  0.0637  0.0885
 2511DPPE   C3A51991  15.701  15.319  19.982  0.2087 -0.3819  0.3467
 2511DPPE   C4A51992  15.761  15.388  20.412  0.1674  0.1466  0.0201
 2511DPPE   C1B51993  15.964  15.778  19.420 -0.0070  0.0700  0.2969
 2511DPPE   C2B51994  15.978  15.741  19.790 -0.1977  0.0703 -0.2160
 2511DPPE   C3B51995  16.030  15.710  20.176  0.0344  0.1232 -0.0367
 2511DPPE   C4B51996  16.078  15.750  20.704  0.0209 -0.3776 -0.1053
 2512DPPE   NH351997  11.035  24.829  18.537  0.1209  0.0255  0.0154
 2512DPPE   PO451998  10.770  24.522  18.649  0.1070  0.3383  0.0381
 2512DPPE   GL151999  11.019  24.570  18.976  0.0043  0.1131 -0.1918
 2512DPPE   GL252000  11.178  24.261  19.008 -0.0286 -0.2693 -0.1273
 2512DPPE   C1A52001  10.994  24.628  19.356 -0.1450  0.0186 -0.2444
 2512DPPE   C2A52002  10.747  24.692  19.795 -0.1503  0.1367 -0.2084
 2512DPPE   C3A52003  10.541  24.900  20.055 -0.0424 -0.1876 -0.1939
 2512DPPE   C4A52004  10.480  25.081  20.433 -0.1369 -0.1898  0.1476
 2512DPPE   C1B52005  11.493  24.452  19.417  0.2931 -0.0265  0.0044
 2512DPPE   C2B52006  11.526  24.812  19.673 -0.1519 -0.2478  0.0868
 2512DPPE   C3B52007  11.507  25.334  19.608  0.0641 -0.0740 -0.1078
 2512DPPE   C4B52008  11.675  25.787  19.707  0.0024 -0.3175  0.2257
 2513DPPE   NH352009   9.300  24.303  18.467 -0.0318  0.0957 -0.0427
 2513DPPE   PO452010   9.279  24.747  18.424  0.1586  0.1213 -0.0537
 2513DPPE   GL152011   9.234  25.181  18.705 -0.1694  0.1763 -0.0600
 2513DPPE   GL252012   9.464  25.459  18.688  0.0325 -0.1706  0.0431
 2513DPPE   C1A52013   9.098  25.340  19.098  0.2338 -0.0990 -0.0843
 2513DPPE   C2A52014   8.778  25.488  19.310  0.0526 -0.0826  0.1047
 2513DPPE   C3A52015   8.397  25.533  19.477  0.0706  0.3623 -0.1313
 2513DPPE   C4A52016   7.975  25.807  19.483 -0.2660 -0.0051  0.3231
 2513DPPE   C1B52017   9.193  25.818  18.796  0.1376 -0.3336  0.2135
 2513DPPE   C2B52018   9.014  26.274  18.690 -0.1031 -0.5968  0.1679
 2513DPPE   C3B52019   8.683  26.639  18.524 -0.1041  0.0078  0.1870
 2513DPPE   C4B52020   8.730  26.931  18.127  0.1116 -0.0163 -0.1838
 2514DPPE   NH352021   8.853  17.078  18.066  0.0612  0.2296 -0.0857
 2514DPPE   PO452022   8.382  16.850  18.158  0.0641  0.3571 -0.0410
 2514DPPE   GL152023   8.487  16.620  18.576 -0.0868  0.0705 -0.0621
 2514DPPE   GL252024   8.196  16.466  18.657  0.1064 -0.2351 -0.1554
 2514DPPE   C1A52025   8.641  16.632  18.907  0.3278 -0.0496  0.2468
 2514DPPE   C2A52026   8.603  16.579  19.326 -0.1914 -0.0212 -0.1048
 2514DPPE   C3A52027   8.640  16.811  19.686 -0.2293  0.0711 -0.3309
 2514DPPE   C4A52028   8.613  16.727  20.168 -0.0974 -0.1427 -0.0693
 2514DPPE   C1B52029   8.178  16.550  19.079 -0.1570 -0.2787 -0.2763
 2514DPPE   C2B52030   8.148  16.734  19.502  0.0228  0.1153  0.0652
 2514DPPE   C3B52031   8.063  16.730  19.993 -0.0529 -0.0589  0.2243
 2514DPPE   C4B52032   8.136  16.862  20.408 -0.1085  0.0139 -0.0962
 2515DPPE   NH352033  18.098  13.845  18.116  0.1962 -0.0527 -0.1286
 2515DPPE   PO452034  18.443  13.548  18.055 -0.4647 -0.0412  0.2547
 2515DPPE   GL152035  18.278  13.491  18.514 -0.2378 -0.0148 -0.2557
 2515DPPE   GL252036  18.031  13.418  18.519  0.3586  0.1692  0.0491
 2515DPPE   C1A52037  18.192  13.453  19.022 -0.0417  0.0353 -0.2594
 2515DPPE   C2A52038  18.467  13.484  19.375 -0.1301  0.0198  0.0334
 2515DPPE   C3A52039  18.573  13.462  19.808  0.0775  0.2479  0.0830
 2515DPPE   C4A52040  18.287  13.455  20.131  0.0965  0.0943 -0.0470
 2515DPPE   C1B52041  17.937  13.106  18.790 -0.2002  0.0790 -0.1612
 2515DPPE   C2B52042  17.938  13.121  19.254  0.1213 -0.0121 -0.2907
 2515DPPE   C3B52043  18.029  13.145  19.702  0.1189  0.1981 -0.3974
 2515DPPE   C4B52044  17.880  13.028  20.096  0.1071 -0.2470 -0.4596
 2516DPPE   NH352045  13.831  11.572  17.929 -0.1627  0.1621  0.0770
 2516DPPE   PO452046  13.644  11.941  18.100  0.0574  0.1369 -0.1045
 2516DPPE   GL152047  13.552  11.911  18.526 -0.1596  0.0637  0.1314
 2516DPPE   GL252048  13.482  11.605  18.647 -0.0652 -0.0968  0.0900
 2516DPPE   C1A52049  13.398  12.021  18.951 -0.2543 -0.3688 -0.3706
 2516DPPE   C2A52050  13.500  12.076  19.441 -0.0515  0.0073  0.1684
 2516DPPE   C3A52051  13.546  12.031  19.841  0.3456 -0.1363 -0.2598
 2516DPPE   C4A52052  13.407  12.084  20.174  0.1008  0.2985  0.0016
 2516DPPE   C1B52053  13.700  11.657  19.101 -0.0475  0.0070  0.2529
 2516DPPE   C2B52054  13.684  11.606  19.505 -0.0809 -0.0461 -0.3162
 2516DPPE   C3B52055  13.677  11.598  20.032 -0.1420 -0.0351  0.0944
 2516DPPE   C4B52056  13.576  11.740  20.480  0.0912  0.4135  0.1787
 2517DPPE   NH352057  12.622  22.058  18.198  0.1373  0.0029  0.1186
 2517DPPE   PO452058  12.264  22.211  18.097 -0.0688 -0.2137  0.1825
 2517DPPE   GL152059  12.173  22.266  18.472 -0.1969  0.0532 -0.2409
 2517DPPE   GL252060  12.167  22.667  18.369 -0.1429  0.0045 -0.0916
 2517DPPE   C1A52061  11.996  22.187  18.851  0.4163 -0.1044 -0.1156
 2517DPPE   C2A52062  11.880  22.221  19.265  0.1430 -0.2472  0.4240
 2517DPPE   C3A52063  11.938  22.257  19.591 -0.1456 -0.0758 -0.1880
 2517DPPE   C4A52064  11.949  22.344  20.002  0.0613 -0.4013 -0.0303
 2517DPPE   C1B52065  11.957  22.694  18.678 -0.1182 -0.1032 -0.4623
 2517DPPE   C2B52066  12.038  22.692  19.174  0.3485  0.1198  0.0664
 2517DPPE   C3B52067  12.037  22.750  19.502  0.5889  0.4060  0.1001
 2517DPPE   C4B52068  12.095  22.774  19.888  0.0162  0.2324  0.1634
 2518DPPE   NH352069  12.109  18.615  18.407 -0.0586  0.1060 -0.1212
 2518DPPE   PO452070  12.513  18.380  18.260  0.1978  0.1767  0.2319
 2518DPPE   GL152071  12.361  18.321  18.694 -0.0102  0.1201  0.4033
 2518DPPE   GL252072  12.562  18.332  18.799  0.0100 -0.3129 -0.0985
 2518DPPE   C1A52073  12.187  18.053  18.982  0.0601  0.1457 -0.1707
 2518DPPE   C2A52074  12.079  17.949  19.499 -0.4821  0.0031  0.2861
 2518DPPE   C3A52075  11.976  18.063  19.898  0.1374 -0.2397 -0.0735
 2518DPPE   C4A52076  12.097  18.085  20.310 -0.0031 -0.0211 -0.2645
 2518DPPE   C1B52077  12.634  18.134  19.157  0.1553  0.3678 -0.2170
 2518DPPE   C2B52078  12.517  18.212  19.573  0.1411 -0.4165  0.0838
 2518DPPE   C3B52079  12.520  18.229  19.992 -0.1913  0.1937 -0.2364
 2518DPPE   C4B52080  12.785  18.028  20.263  0.0335 -0.2404 -0.0050
 2519DPPE   NH352081   8.469  19.322  18.605  0.1042 -0.1483 -0.3720
 2519DPPE   PO452082   8.758  18.995  18.610 -0.1782  0.1077 -0.1104
 2519DPPE   GL152083   8.967  19.014  19.028 -0.1842  0.1322  0.0465
 2519DPPE   GL252084   9.130  18.758  19.039 -0.1467  0.0582 -0.0334
 2519DPPE   C1A52085   8.977  19.153  19.344  0.2474 -0.1578 -0.1012
 2519DPPE   C2A52086   8.965  19.016  19.707  0.1383  0.2256  0.3090
 2519DPPE   C3A52087   8.904  19.047  20.152  0.0293 -0.0042 -0.0481
 2519DPPE   C4A52088   9.185  19.359  20.237 -0.0107 -0.3653 -0.0922
 2519DPPE   C1B52089   9.277  18.730  19.515 -0.1480 -0.2907  0.3872
 2519DPPE   C2B52090   9.080  18.579  19.950  0.2349 -0.4028 -0.2650
 2519DPPE   C3B52091   8.743  18.559  20.221  0.3588  0.3985 -0.2104
 2519DPPE   C4B52092   8.647  18.674  20.563  0.5412  0.0225  0.0508
 2520DPPE   NH352093   6.901  17.722  18.817 -0.2719  0.0135  0.2840
 2520DPPE   PO452094   6.516  17.491  18.710  0.0325  0.3030  0.1689
 2520DPPE   GL152095   6.548  17.438  19.136  0.3500  0.0244 -0.1607
 2520DPPE   GL252096   6.310  17.164  19.235 -0.0271 -0.0664 -0.0695
 2520DPPE   C1A52097   6.805  17.288  19.461  0.1300  0.0611 -0.0669
 2520DPPE   C2A52098   6.941  17.266  19.834  0.1173 -0.1167  0.0594
 2520DPPE   C3A52099   6.989  17.191  20.291  0.0282  0.0190 -0.0637
 2520DPPE   C4A52100   6.965  16.824  20.343  0.2924  0.0349 -0.1357
 2520DPPE   C1B52101   6.154  17.426  19.623 -0.2371 -0.0122 -0.2314
 2520DPPE   C2B52102   5.821  17.448  19.931 -0.2166 -0.2188 -0.1492
 2520DPPE   C3B52103   5.642  17.459  20.329 -0.0654 -0.1292 -0.2351
 2520DPPE   C4B52104   5.854  17.332  20.663 -0.0166  0.1959 -0.2037
 2521DPPE   NH352105  11.493  24.330  18.538  0.3386  0.0973  0.0292
 2521DPPE   PO452106  11.487  24.656  18.719 -0.0024  0.2325 -0.0450
 2521DPPE   GL152107  11.340  24.948  18.934  0.1008  0.0358 -0.2201
 2521DPPE   GL252108  11.464  24.903  19.180  0.1753  0.3850 -0.0923
 2521DPPE   C1A52109  11.258  25.374  19.103  0.1176  0.1249  0.1108
 2521DPPE   C2A52110  10.991  25.800  19.012  0.0545 -0.0953 -0.0154
 2521DPPE   C3A52111  10.803  26.012  18.768 -0.2144  0.2971 -0.0617
 2521DPPE   C4A52112  10.630  26.340  18.826  0.1512  0.3688  0.1703
 2521DPPE   C1B52113  11.050  25.095  19.475 -0.4188 -0.1121 -0.2018
 2521DPPE   C2B52114  11.147  25.421  19.955 -0.0443  0.1399 -0.0743
 2521DPPE   C3B52115  10.971  25.622  20.403 -0.0589 -0.1449  0.0061
 2521DPPE   C4B52116  10.940  25.310  20.804  0.0841 -0.1224 -0.2741
 2522DPPE   NH352117   8.240  14.757  18.567  0.0892 -0.2789  0.2541
 2522DPPE   PO452118   7.756  14.779  18.458 -0.1918  0.1101 -0.0176
 2522DPPE   GL152119   7.842  14.636  18.856  0.1870  0.2819 -0.1936
 2522DPPE   GL252120   7.866  14.891  19.080 -0.1154 -0.0984 -0.0489
 2522DPPE   C1A52121   7.986  14.412  19.303  0.2288  0.0935 -0.0002
 2522DPPE   C2A52122   7.947  14.481  19.653  0.3398  0.0873  0.3200
 2522DPPE   C3A52123   7.878  14.721  20.061 -0.2376 -0.2981  0.0160
 2522DPPE   C4A52124   7.803  14.887  20.504  0.2860  0.2427 -0.2842
 2522DPPE   C1B52125   7.547  14.899  19.435  0.3239 -0.0789  0.0870
 2522DPPE   C2B52126   7.380  14.787  19.789  0.2591  0.2711 -0.2631
 2522DPPE   C3B52127   7.472  14.482  20.006 -0.3315  0.1966 -0.4194
 2522DPPE   C4B52128   7.671  14.439  20.401 -0.3888 -0.1115 -0.0945
 2523DPPE   NH352129  16.314  18.841  18.874  0.0380  0.1013 -0.1483
 2523DPPE   PO452130  15.862  18.835  18.722  0.3608  0.1043  0.0404
 2523DPPE   GL152131  15.975  19.102  19.135  0.2522  0.2443 -0.0397
 2523DPPE   GL252132  16.057  18.898  19.279  0.0906  0.2164 -0.0762
 2523DPPE   C1A52133  15.904  19.407  19.473 -0.1516 -0.2649 -0.0657
 2523DPPE   C2A52134  16.037  19.427  19.829  0.0449  0.2737  0.3765
 2523DPPE   C3A52135  15.920  19.471  20.296  0.0845  0.1034 -0.0916
 2523DPPE   C4A52136  16.052  19.583  20.677 -0.0222 -0.0162 -0.1941
 2523DPPE   C1B52137  15.923  18.922  19.625  0.0700 -0.1039 -0.0058
 2523DPPE   C2B52138  15.894  19.008  20.081 -0.0195 -0.1597 -0.0760
 2523DPPE   C3B52139  15.934  18.997  20.533 -0.2698  0.0305  0.1442
 2523DPPE   C4B52140  15.855  19.015  20.949  0.1591  0.0933  0.0842
 2524DPPE   NH352141  11.301  18.140  18.500 -0.0057 -0.0424 -0.1358
 2524DPPE   PO452142  11.059  18.587  18.342  0.2900  0.4571  0.0418
 2524DPPE   GL152143  11.042  18.686  18.802 -0.0742 -0.0154  0.2661
 2524DPPE   GL252144  11.089  19.027  18.855  0.0447 -0.0934  0.1347
 2524DPPE   C1A52145  11.274  18.799  19.220  0.0327  0.1542  0.0629
 2524DPPE   C2A52146  11.232  18.757  19.648 -0.0125  0.1571  0.1091
 2524DPPE   C3A52147  11.238  18.767  20.078 -0.0148  0.0660  0.4314
 2524DPPE   C4A52148  11.322  18.847  20.589 -0.0911 -0.1291  0.0493
 2524DPPE   C1B52149  11.431  19.206  19.077 -0.3694 -0.1330 -0.0226
 2524DPPE   C2B52150  11.384  19.243  19.486  0.1520  0.0597  0.0481
 2524DPPE   C3B52151  11.381  19.235  19.871  0.5599 -0.2593  0.0641
 2524DPPE   C4B52152  11.363  19.363  20.278 -0.4296  0.1216  0.0438
 2525DPPE   NH352153  11.597  11.404  18.506 -0.0879 -0.2665 -0.2567
 2525DPPE   PO452154  11.146  11.249  18.492 -0.2198 -0.0272  0.0507
 2525DPPE   GL152155  11.258  11.014  18.765 -0.0827  0.3286  0.1471
 2525DPPE   GL252156  11.482  11.013  18.894 -0.1112 -0.1577  0.0883
 2525DPPE   C1A52157  11.215  10.781  19.241 -0.4351 -0.0855  0.0348
 2525DPPE   C2A52158  11.363  10.721  19.533  0.0920 -0.2609 -0.2200
 2525DPPE   C3A52159  11.623  10.520  19.737  0.1608 -0.0467  0.0659
 2525DPPE   C4A52160  11.828  10.605  20.098  0.0232 -0.1075  0.1163
 2525DPPE   C1B52161  11.787  10.908  19.213  0.0836 -0.0801 -0.0552
 2525DPPE   C2B52162  12.149  10.722  19.467  0.0886  0.0940  0.1300
 2525DPPE   C3B52163  12.132  10.371  19.745 -0.3543  0.1086 -0.0858
 2525DPPE   C4B52164  12.205  10.066  19.884  0.1978 -0.0232  0.1106
 2526DPPE   NH352165  10.240  24.648  18.508  0.0579  0.2333  0.2417
 2526DPPE   PO452166  10.196  24.976  18.183 -0.2807  0.1281 -0.0889
 2526DPPE   GL152167  10.230  25.389  18.289 -0.2226 -0.0453  0.1904
 2526DPPE   GL252168   9.903  25.489  18.320 -0.1421 -0.1309 -0.2996
 2526DPPE   C1A52169  10.155  25.781  18.544 -0.0246 -0.0186 -0.2980
 2526DPPE   C2A52170  10.172  26.104  18.707  0.0089 -0.3066  0.0974
 2526DPPE   C3A52171   9.973  26.430  18.957  0.0357 -0.2683 -0.1875
 2526DPPE   C4A52172   9.762  26.713  19.057  0.0229  0.3447  0.1173
 2526DPPE   C1B52173   9.646  25.877  18.437  0.2753 -0.0268 -0.0664
 2526DPPE   C2B52174   9.690  26.028  18.879 -0.0440 -0.1527  0.0098
 2526DPPE   C3B52175   9.572  26.116  19.109  0.0924  0.2404 -0.1027
 2526DPPE   C4B52176   9.176  26.362  19.163 -0.3420  0.1561  0.2474
 2527DPPE   NH352177  14.070  19.337  18.799 -0.0830  0.0392 -0.3288
 2527DPPE   PO452178  14.210  19.655  18.849 -0.0120 -0.2423  0.1271
 2527DPPE   GL152179  14.204  19.593  19.248 -0.0839  0.1597 -0.1155
 2527DPPE   GL252180  14.125  19.280  19.286  0.0671  0.0379  0.1185
 2527DPPE   C1A52181  14.237  19.770  19.601  0.0108 -0.1763 -0.3476
 2527DPPE   C2A52182  14.187  19.796  20.060  0.0813 -0.0103 -0.1902
 2527DPPE   C3A52183  14.119  19.785  20.577 -0.0577  0.1139  0.2544
 2527DPPE   C4A52184  14.149  19.936  20.936  0.1156  0.2235  0.0346
 2527DPPE   C1B52185  14.143  19.208  19.716 -0.1648  0.0257 -0.1170
 2527DPPE   C2B52186  14.121  19.229  20.160  0.1394 -0.1947 -0.2707
 2527DPPE   C3B52187  14.131  19.312  20.596  0.0655  0.1074  0.1567
 2527DPPE   C4B52188  14.151  19.376  21.034  0.3244 -0.2094  0.2075
 2528DPPE   NH352189  15.708  20.885  18.672 -0.0298 -0.4104  0.0021
 2528DPPE   PO452190  16.099  21.029  18.564  0.0479 -0.2605 -0.2542
 2528DPPE   GL152191  16.264  21.258  18.931  0.2036  0.3324 -0.1477
 2528DPPE   GL252192  16.566  21.381  18.862  0.2308 -0.2370  0.1629
 2528DPPE   C1A52193  16.384  21.324  19.381  0.0537  0.0215 -0.0388
 2528DPPE   C2A52194  16.438  21.423  19.769  0.0662 -0.0510  0.0302
 2528DPPE   C3A52195  16.239  21.604  20.290  0.0097  0.1222  0.0334
 2528DPPE   C4A52196  15.986  21.894  20.576  0.1670  0.2941 -0.1601
 2528DPPE   C1B52197  16.779  21.550  19.266  0.1720  0.0284 -0.0396
 2528DPPE   C2B52198  17.021  21.667  19.539  0.0019  0.0468  0.2326
 2528DPPE   C3B52199  17.250  21.564  19.971 -0.0709  0.3646  0.3711
 2528DPPE   C4B52200  17.550  21.440  20.232  0.2692  0.1016 -0.1592
 2529DPPE   NH352201   8.927  14.445  18.605 -0.3030 -0.0468  0.0154
 2529DPPE   PO452202   8.717  14.846  18.547 -0.3329  0.0494  0.4010
 2529DPPE   GL152203   8.901  14.963  18.898  0.0876 -0.1360 -0.1442
 2529DPPE   GL252204   9.050  15.120  18.922 -0.1005 -0.2702 -0.1589
 2529DPPE   C1A52205   9.176  14.668  19.208  0.3533 -0.3838 -0.1553
 2529DPPE   C2A52206   9.358  14.551  19.656  0.1119 -0.0666 -0.0465
 2529DPPE   C3A52207   9.588  14.869  20.040 -0.2177  0.2406  0.2013
 2529DPPE   C4A52208   9.565  14.893  20.450 -0.2571  0.0062  0.1528
 2529DPPE   C1B52209   8.900  15.178  19.384  0.1510 -0.1342  0.0855
 2529DPPE   C2B52210   8.686  14.805  19.525  0.0796 -0.1691 -0.0261
 2529DPPE   C3B52211   8.466  14.463  19.760 -0.2055 -0.0714 -0.1598
 2529DPPE   C4B52212   8.669  14.122  19.956  0.0376  0.0650 -0.1053
 2530DPPE   NH352213  14.514  15.364  18.125  0.0653  0.4876 -0.1893
 2530DPPE   PO452214  14.898  15.138  18.241  0.0113 -0.0185  0.2518
 2530DPPE   GL152215  14.838  14.993  18.673  0.0435  0.3655 -0.0069
 2530DPPE   GL252216  14.870  14.616  18.795 -0.2259  0.1083  0.1570
 2530DPPE   C1A52217  14.708  15.004  19.147 -0.2066 -0.1203 -0.1792
 2530DPPE   C2A52218  14.781  15.026  19.620 -0.0325  0.0750 -0.2278
 2530DPPE   C3A52219  14.938  14.895  20.097 -0.2373  0.4005 -0.5777
 2530DPPE   C4A52220  14.892  14.844  20.622  0.1103 -0.1318 -0.0358
 2530DPPE   C1B52221  15.023  14.593  19.267  0.0317 -0.2755 -0.4103
 2530DPPE   C2B52222  15.017  14.585  19.643  0.2357 -0.0194  0.0401
 2530DPPE   C3B52223  15.010  14.366  20.022 -0.2768  0.1000 -0.0499
 2530DPPE   C4B52224  15.014  14.385  20.365  0.2968 -0.1406  0.2754
 2531DPPE   NH352225   6.809  19.414  19.038 -0.0513  0.0230  0.0899
 2531DPPE   PO452226   6.476  19.221  19.222 -0.0484  0.2958 -0.1852
 2531DPPE   GL152227   6.418  19.300  19.593  0.1411  0.3264  0.0742
 2531DPPE   GL252228   6.688  19.414  19.615 -0.0588  0.0540  0.0645
 2531DPPE   C1A52229   6.418  19.628  20.042  0.2211  0.1070  0.1026
 2531DPPE   C2A52230   6.318  20.032  20.183 -0.0128  0.2693  0.3165
 2531DPPE   C3A52231   6.126  20.041  20.465  0.3142 -0.1841  0.1502
 2531DPPE   C4A52232   5.822  19.831  20.722 -0.1547  0.0871 -0.1462
 2531DPPE   C1B52233   6.840  19.749  19.815 -0.1699 -0.1786 -0.2144
 2531DPPE   C2B52234   6.809  19.999  20.280  0.3108  0.1801 -0.2688
 2531DPPE   C3B52235   6.719  19.818  20.599  0.1823 -0.1804  0.0013
 2531DPPE   C4B52236   6.595  19.568  20.968 -0.1972 -0.0999  0.0476
 2532DPPE   NH352237  15.851  13.155  18.064  0.2120 -0.1326 -0.1218
 2532DPPE   PO452238  15.732  12.719  18.110 -0.1908  0.0976  0.0768
 2532DPPE   GL152239  15.500  12.751  18.484  0.1292  0.2894 -0.1516
 2532DPPE   GL252240  15.658  12.593  18.648  0.2018 -0.1139 -0.2706
 2532DPPE   C1A52241  15.297  12.768  18.913  0.0232 -0.1944 -0.0453
 2532DPPE   C2A52242  15.168  12.721  19.325 -0.2067  0.0855 -0.0666
 2532DPPE   C3A52243  15.255  12.602  19.748  0.3287  0.2007  0.2190
 2532DPPE   C4A52244  15.264  12.584  20.232 -0.1003  0.3767  0.2433
 2532DPPE   C1B52245  15.670  12.533  19.156  0.0592  0.0800  0.0569
 2532DPPE   C2B52246  15.731  12.524  19.599  0.0405  0.3583 -0.0097
 2532DPPE   C3B52247  15.770  12.542  20.031  0.2181 -0.1902  0.2561
 2532DPPE   C4B52248  15.878  12.331  20.452  0.1596  0.0289 -0.0998
 2533DPPE   NH352249  11.541  18.496  18.080  0.0529 -0.2127  0.2589
 2533DPPE   PO452250  11.747  18.199  18.345  0.0709  0.2611  0.2807
 2533DPPE   GL152251  11.842  18.361  18.769  0.0384  0.1103  0.3433
 2533DPPE   GL252252  11.466  18.337  18.934 -0.0874  0.0211  0.0794
 2533DPPE   C1A52253  12.164  18.475  19.195  0.0369  0.0423 -0.0886
 2533DPPE   C2A52254  12.173  18.547  19.715  0.1298 -0.0474 -0.0271
 2533DPPE   C3A52255  12.189  18.621  20.161  0.1221  0.2418 -0.0466
 2533DPPE   C4A52256  12.248  18.907  20.599 -0.1285 -0.1206  0.2423
 2533DPPE   C1B52257  11.671  18.329  19.360 -0.1251 -0.3009 -0.6030
 2533DPPE   C2B52258  11.580  18.391  19.805  0.1835  0.3140  0.1129
 2533DPPE   C3B52259  11.606  18.554  20.243 -0.1033  0.1056  0.3736
 2533DPPE   C4B52260  11.834  18.425  20.609 -0.0830 -0.4118 -0.0164
 2534DPPE   NH352261  10.343  24.884  17.709 -0.2455 -0.1806  0.0981
 2534DPPE   PO452262  10.798  24.974  17.430 -0.1569 -0.0782 -0.1883
 2534DPPE   GL152263  10.761  25.530  17.287 -0.2181  0.0014  0.2470
 2534DPPE   GL252264  10.705  25.683  17.650 -0.3213 -0.0869  0.2169
 2534DPPE   C1A52265  10.556  25.969  17.180  0.1875  0.5170 -0.0810
 2534DPPE   C2A52266  10.172  26.179  16.969  0.0382 -0.1423  0.2662
 2534DPPE   C3A52267  10.137  26.376  16.601 -0.0779 -0.1072 -0.0013
 2534DPPE   C4A52268  10.302  26.180  16.175 -0.0275  0.0707  0.4417
 2534DPPE   C1B52269  10.644  26.077  17.773  0.0560  0.1229 -0.1813
 2534DPPE   C2B52270  10.439  26.501  17.880 -0.0466 -0.1390  0.1853
 2534DPPE   C3B52271  10.123  26.799  17.767  0.1651  0.0177  0.1220
 2534DPPE   C4B52272   9.977  26.827  17.431  0.0428 -0.0529  0.1275
 2535DPPE   NH352273  13.915  16.836  18.549 -0.0217 -0.1343 -0.1928
 2535DPPE   PO452274  13.608  16.990  18.658 -0.1196 -0.1604  0.4284
 2535DPPE   GL152275  13.639  16.892  19.087  0.1954 -0.3792  0.3132
 2535DPPE   GL252276  13.636  17.141  19.299  0.1339 -0.3092 -0.2322
 2535DPPE   C1A52277  13.791  16.682  19.516  0.0234  0.3315 -0.2052
 2535DPPE   C2A52278  13.769  16.587  19.956  0.1225  0.0689  0.1427
 2535DPPE   C3A52279  13.790  16.479  20.377 -0.0902 -0.3191  0.4235
 2535DPPE   C4A52280  13.777  16.543  20.819  0.1064  0.2170 -0.1952
 2535DPPE   C1B52281  13.574  17.093  19.748  0.1485  0.2547  0.0926
 2535DPPE   C2B52282  13.577  17.031  20.158  0.2147 -0.1522 -0.3457
 2535DPPE   C3B52283  13.564  17.038  20.679  0.1595  0.1661  0.1350
 2535DPPE   C4B52284  13.495  16.961  21.133  0.1703 -0.0840  0.2388
 2536DPPE   NH352285   7.250  18.673  18.624  0.1687 -0.1034  0.0358
 2536DPPE   PO452286   7.679  18.878  18.593  0.1435  0.0842 -0.0054
 2536DPPE   GL152287   7.648  18.825  19.067 -0.0515 -0.0142  0.1104
 2536DPPE   GL252288   7.836  18.821  19.278  0.0303 -0.2987 -0.0374
 2536DPPE   C1A52289   7.421  18.987  19.508  0.1356  0.1790  0.3871
 2536DPPE   C2A52290   7.494  18.890  19.943 -0.0589 -0.0670 -0.0467
 2536DPPE   C3A52291   7.908  18.898  20.198  0.2748  0.0872  0.0161
 2536DPPE   C4A52292   8.202  19.009  20.564 -0.0064  0.0936 -0.2381
 2536DPPE   C1B52293   7.665  18.472  19.581  0.0056  0.0520  0.0704
 2536DPPE   C2B52294   7.690  18.423  20.039 -0.0387  0.0358 -0.0024
 2536DPPE   C3B52295   7.563  18.539  20.385  0.0053 -0.1432  0.0026
 2536DPPE   C4B52296   7.465  18.172  20.620 -0.2365  0.0759 -0.0788
 2537DPPE   NH352297  12.903  16.232  18.800 -0.1708  0.0413  0.2288
 2537DPPE   PO452298  12.824  16.633  18.582  0.0980 -0.0853  0.0249
 2537DPPE   GL152299  12.877  16.612  19.126  0.0240  0.3059 -0.0118
 2537DPPE   GL252300  12.693  16.776  19.328  0.1260 -0.0345  0.0085
 2537DPPE   C1A52301  12.848  16.282  19.496  0.3873  0.0054  0.0798
 2537DPPE   C2A52302  12.894  16.262  19.898 -0.1198  0.2806  0.3774
 2537DPPE   C3A52303  12.891  16.242  20.299  0.1081  0.0711 -0.0966
 2537DPPE   C4A52304  12.911  16.136  20.834 -0.0692 -0.1262  0.0858
 2537DPPE   C1B52305  12.757  16.744  19.750  0.0966  0.1190 -0.2302
 2537DPPE   C2B52306  12.687  16.717  20.162 -0.0885  0.1021  0.1578
 2537DPPE   C3B52307  12.697  16.690  20.520  0.4409  0.4588  0.0121
 2537DPPE   C4B52308  12.745  16.617  20.896  0.1018  0.0935  0.0491
 2538DPPE   NH352309   7.058  21.992  18.994  0.2134 -0.1015  0.0944
 2538DPPE   PO452310   7.479  22.102  18.899 -0.2344  0.3573  0.0055
 2538DPPE   GL152311   7.140  22.497  19.078  0.4541 -0.1359 -0.4049
 2538DPPE   GL252312   6.806  22.415  19.205 -0.1583  0.1926 -0.2100
 2538DPPE   C1A52313   6.955  22.921  19.359  0.0241 -0.0094  0.0317
 2538DPPE   C2A52314   6.711  23.141  19.698 -0.1784 -0.2277 -0.1437
 2538DPPE   C3A52315   6.311  23.347  19.886 -0.0329 -0.0806  0.0306
 2538DPPE   C4A52316   6.151  23.674  19.692  0.1698 -0.0694 -0.2985
 2538DPPE   C1B52317   7.039  22.444  19.599  0.2498  0.0263 -0.1072
 2538DPPE   C2B52318   7.133  22.407  20.020  0.3038  0.3202 -0.3821
 2538DPPE   C3B52319   6.903  22.224  20.382 -0.1600  0.0381  0.2124
 2538DPPE   C4B52320   7.133  21.945  20.692  0.0357 -0.1931 -0.2163
 2539DPPE   NH352321  10.104  11.246  18.827 -0.1116  0.1774 -0.0052
 2539DPPE   PO452322   9.787  11.708  18.810  0.1675 -0.0132 -0.0983
 2539DPPE   GL152323   9.759  11.559  19.228 -0.0097 -0.0699  0.1458
 2539DPPE   GL252324   9.528  11.612  19.356 -0.0957  0.0617 -0.0336
 2539DPPE   C1A52325   9.905  11.447  19.624  0.2197 -0.3218 -0.0936
 2539DPPE   C2A52326   9.773  11.620  20.043 -0.2578 -0.0887  0.0930
 2539DPPE   C3A52327   9.823  11.655  20.411 -0.3610  0.0769 -0.5520
 2539DPPE   C4A52328  10.104  11.403  20.715  0.0417  0.1683  0.2289
 2539DPPE   C1B52329   9.396  11.744  19.710 -0.2023  0.0336  0.1287
 2539DPPE   C2B52330   9.231  11.517  20.049 -0.0383  0.2456 -0.0084
 2539DPPE   C3B52331   9.283  11.445  20.421 -0.1666 -0.0822 -0.0772
 2539DPPE   C4B52332   9.495  11.555  20.809  0.0114  0.0232 -0.0365
 2540DPPE   NH352333  13.218  19.856  18.496  0.1120 -0.0394 -0.3739
 2540DPPE   PO452334  13.675  19.763  18.440  0.2524  0.0789 -0.2206
 2540DPPE   GL152335  13.587  19.869  18.891  0.4013 -0.0127  0.3062
 2540DPPE   GL252336  13.756  19.621  19.137 -0.1955  0.1462 -0.2201
 2540DPPE   C1A52337  13.820  20.137  19.226  0.1058  0.3609  0.0767
 2540DPPE   C2A52338  13.788  20.097  19.685  0.2107  0.0685 -0.0629
 2540DPPE   C3A52339  13.814  20.187  20.095  0.0454  0.2211 -0.0577
 2540DPPE   C4A52340  13.800  20.196  20.606 -0.2250 -0.2812  0.0475
 2540DPPE   C1B52341  13.774  19.534  19.510 -0.0751 -0.2522  0.2643
 2540DPPE   C2B52342  13.735  19.582  19.886 -0.2720  0.0214  0.1152
 2540DPPE   C3B52343  13.712  19.771  20.338 -0.0092  0.0470 -0.1701
 2540DPPE   C4B52344  13.729  19.594  20.844 -0.2154  0.0947  0.1278
 2541DPPE   NH352345  11.440  10.852  18.304  0.4362 -0.1590  0.1903
 2541DPPE   PO452346  11.800  10.611  18.236  0.4567  0.3610 -0.2794
 2541DPPE   GL152347  11.747  10.332  18.587  0.0379 -0.0515  0.1284
 2541DPPE   GL252348  11.584  10.538  18.918 -0.2236  0.0947  0.3986
 2541DPPE   C1A52349  11.533   9.989  18.904 -0.3688 -0.0995 -0.0206
 2541DPPE   C2A52350  11.361   9.620  18.906  0.0128  0.2734 -0.3053
 2541DPPE   C3A52351  11.361   9.181  18.938  0.0845 -0.1178 -0.0594
 2541DPPE   C4A52352  11.543   8.863  19.132  0.0070  0.2050  0.2569
 2541DPPE   C1B52353  11.824  10.437  19.300  0.0370  0.1569  0.0560
 2541DPPE   C2B52354  11.809  10.023  19.474  0.3058  0.0064 -0.2796
 2541DPPE   C3B52355  11.491   9.749  19.382 -0.1895 -0.0749  0.1607
 2541DPPE   C4B52356  11.131   9.466  19.354  0.0301 -0.0856  0.2356
 2542DPPE   NH352357  17.197  21.748  18.236 -0.3478 -0.0499  0.0364
 2542DPPE   PO452358  16.948  21.573  18.544  0.0213  0.2690  0.0435
 2542DPPE   GL152359  17.139  21.500  18.927 -0.0421 -0.0324  0.0735
 2542DPPE   GL252360  17.366  21.207  18.939  0.1511 -0.0793 -0.3313
 2542DPPE   C1A52361  17.423  21.474  19.339 -0.1041  0.1028  0.3738
 2542DPPE   C2A52362  17.682  21.511  19.744  0.1793  0.2255  0.0241
 2542DPPE   C3A52363  18.004  21.426  19.832 -0.0621  0.0908  0.3991
 2542DPPE   C4A52364  18.509  21.512  19.805  0.1254 -0.2600 -0.4489
 2542DPPE   C1B52365  17.768  21.194  19.169 -0.1988  0.2396  0.0123
 2542DPPE   C2B52366  18.060  20.998  19.519  0.1331  0.0486 -0.2437
 2542DPPE   C3B52367  18.495  20.923  19.665 -0.2367  0.0638 -0.1206
 2542DPPE   C4B52368  18.952  20.968  19.832  0.0236 -0.2442 -0.1388
 2543DPPE   NH352369  11.874  16.942  18.603  0.1848  0.0833 -0.0793
 2543DPPE   PO452370  11.686  17.176  18.799 -0.0617  0.1728  0.2601
 2543DPPE   GL152371  11.753  17.131  19.166  0.0511  0.1301 -0.0819
 2543DPPE   GL252372  11.759  16.912  19.439  0.3173 -0.3854 -0.1265
 2543DPPE   C1A52373  11.988  17.453  19.483 -0.2921 -0.2864 -0.3035
 2543DPPE   C2A52374  11.992  17.512  19.924  0.0882 -0.2014 -0.3352
 2543DPPE   C3A52375  11.810  17.598  20.298 -0.1258 -0.1341 -0.3045
 2543DPPE   C4A52376  11.544  17.481  20.677 -0.4168  0.3464  0.1530
 2543DPPE   C1B52377  11.883  17.026  19.806  0.2111 -0.2058  0.3178
 2543DPPE   C2B52378  11.996  17.112  20.208 -0.1102  0.0406 -0.0337
 2543DPPE   C3B52379  11.946  17.241  20.793 -0.1000 -0.0713 -0.1304
 2543DPPE   C4B52380  11.976  17.535  21.096 -0.1874  0.1762 -0.0120
 2544DPPE   NH352381  14.893  17.136  18.736 -0.2941 -0.2614 -0.1822
 2544DPPE   PO452382  14.541  17.329  18.962  0.2563 -0.1163  0.0615
 2544DPPE   GL152383  14.501  17.303  19.448 -0.0109  0.1176  0.0507
 2544DPPE   GL252384  14.140  17.091  19.441 -0.0233 -0.1959 -0.0817
 2544DPPE   C1A52385  14.388  17.274  19.876 -0.4560  0.1932  0.3547
 2544DPPE   C2A52386  14.409  17.304  20.369  0.0157 -0.1084  0.2098
 2544DPPE   C3A52387  14.430  17.321  20.789 -0.1760  0.0580 -0.2004
 2544DPPE   C4A52388  14.283  17.290  21.084 -0.0323 -0.0945  0.0473
 2544DPPE   C1B52389  14.199  16.834  19.814 -0.4337 -0.0142 -0.1193
 2544DPPE   C2B52390  14.084  16.926  20.184  0.1244  0.1025 -0.2000
 2544DPPE   C3B52391  14.182  16.924  20.644  0.0878 -0.1279 -0.3007
 2544DPPE   C4B52392  14.050  16.827  21.082  0.3459 -0.4898  0.0026
 2545DPPE   NH352393  17.020  14.355  17.984  0.0752 -0.1681  0.0168
 2545DPPE   PO452394  16.978  13.947  18.327 -0.0859  0.0723 -0.2536
 2545DPPE   GL152395  16.841  13.986  18.764 -0.0596 -0.0095 -0.0132
 2545DPPE   GL252396  17.023  14.202  18.939  0.2428 -0.0615 -0.1385
 2545DPPE   C1A52397  16.723  13.799  19.077 -0.1795 -0.0533 -0.0632
 2545DPPE   C2A52398  16.813  13.752  19.495 -0.1205  0.1319  0.4262
 2545DPPE   C3A52399  16.798  13.738  19.940 -0.3233  0.1890 -0.2044
 2545DPPE   C4A52400  16.644  13.606  20.284  0.1155  0.2556  0.1418
 2545DPPE   C1B52401  17.061  14.202  19.336  0.0324 -0.3939  0.2182
 2545DPPE   C2B52402  16.992  14.215  19.740 -0.0259 -0.0697 -0.2452
 2545DPPE   C3B52403  17.119  14.196  20.143 -0.1206 -0.0711  0.0868
 2545DPPE   C4B52404  17.016  13.915  20.449  0.1529  0.0845  0.3779
 2546DPPE   NH352405  15.546  19.919  18.674 -0.2016  0.0914 -0.3164
 2546DPPE   PO452406  15.341  19.574  18.835 -0.1009  0.2075 -0.2615
 2546DPPE   GL152407  15.545  19.687  19.189 -0.1663  0.2288  0.1050
 2546DPPE   GL252408  15.563  20.056  19.279  0.4517 -0.3143 -0.1314
 2546DPPE   C1A52409  15.538  19.729  19.621  0.2550 -0.3048  0.0154
 2546DPPE   C2A52410  15.687  19.792  20.034  0.0844 -0.3079  0.1946
 2546DPPE   C3A52411  15.662  19.838  20.475  0.2887 -0.2374  0.2509
 2546DPPE   C4A52412  15.745  20.004  20.915  0.1768 -0.1206 -0.1066
 2546DPPE   C1B52413  15.745  20.245  19.664 -0.1220  0.2588 -0.2279
 2546DPPE   C2B52414  15.703  20.343  20.023 -0.0920  0.1005  0.1475
 2546DPPE   C3B52415  15.802  20.327  20.462 -0.3120 -0.1280  0.1808
 2546DPPE   C4B52416  15.726  20.524  20.913  0.2483 -0.0489 -0.0025
 2547DPPE   NH352417  17.491  12.626  18.123  0.0788 -0.0750 -0.2169
 2547DPPE   PO452418  17.748  12.562  18.368  0.3362  0.0582  0.0989
 2547DPPE   GL152419  17.885  12.647  18.687 -0.1359  0.1331 -0.0754
 2547DPPE   GL252420  17.524  12.744  18.865 -0.1642  0.0549 -0.3005
 2547DPPE   C1A52421  18.026  12.642  19.131 -0.1148  0.3764  0.2080
 2547DPPE   C2A52422  18.092  12.641  19.566 -0.2808  0.0158 -0.3578
 2547DPPE   C3A52423  18.031  12.535  20.012  0.0519 -0.1430 -0.0502
 2547DPPE   C4A52424  18.373  12.413  20.271 -0.1464 -0.3305 -0.0049
 2547DPPE   C1B52425  17.536  12.770  19.330 -0.1421  0.3891  0.0030
 2547DPPE   C2B52426  17.655  12.687  19.781 -0.2148 -0.0165  0.2223
 2547DPPE   C3B52427  17.554  12.592  20.154  0.0249 -0.1476 -0.3341
 2547DPPE   C4B52428  17.950  12.420  20.481 -0.0653 -0.2147 -0.2057
 2548DPPE   NH352429  16.966  10.442  17.685  0.0061  0.0823  0.3489
 2548DPPE   PO452430  16.641  10.264  17.907  0.1845 -0.3470 -0.1052
 2548DPPE   GL152431  16.621   9.957  18.197  0.2482  0.0982  0.0333
 2548DPPE   GL252432  16.504  10.196  18.412 -0.3643 -0.1044 -0.0755
 2548DPPE   C1A52433  16.690   9.718  18.524  0.2016 -0.2247  0.0804
 2548DPPE   C2A52434  16.575   9.596  18.875  0.0983  0.0139  0.2298
 2548DPPE   C3A52435  16.715   9.148  18.992 -0.3584 -0.2922 -0.2074
 2548DPPE   C4A52436  16.895   8.866  18.618  0.2119 -0.0667  0.1736
 2548DPPE   C1B52437  16.397  10.077  18.787 -0.0410  0.2233 -0.2995
 2548DPPE   C2B52438  16.120   9.836  19.054  0.1512  0.1067 -0.0161
 2548DPPE   C3B52439  16.119   9.436  19.247 -0.0075  0.0693 -0.1098
 2548DPPE   C4B52440  15.969   9.130  19.570 -0.1343  0.0487 -0.0746
 2549DPPE   NH352441  16.539  21.211  18.367 -0.3128  0.2096 -0.1531
 2549DPPE   PO452442  16.516  20.803  18.776  0.0685  0.2685  0.2440
 2549DPPE   GL152443  16.326  20.766  19.200  0.0230  0.0235 -0.1269
 2549DPPE   GL252444  16.520  20.530  19.186  0.1280  0.0431 -0.2248
 2549DPPE   C1A52445  16.291  20.858  19.674 -0.1485  0.0882 -0.0008
 2549DPPE   C2A52446  16.172  21.049  19.967  0.1603  0.2064  0.3036
 2549DPPE   C3A52447  16.352  21.118  20.388  0.0019  0.0116  0.2159
 2549DPPE   C4A52448  16.439  21.361  20.720 -0.0973 -0.0847  0.1378
 2549DPPE   C1B52449  16.776  20.609  19.566  0.0676 -0.0378  0.1948
 2549DPPE   C2B52450  16.737  20.684  19.926  0.2717 -0.2662  0.2251
 2549DPPE   C3B52451  16.802  20.807  20.344 -0.1075  0.2463  0.0606
 2549DPPE   C4B52452  16.876  21.257  20.458  0.2346  0.1593  0.2647
 2550DPPE   NH352453   6.802  13.472  18.313 -0.0998  0.0484 -0.2594
 2550DPPE   PO452454   7.100  13.174  18.446  0.3479 -0.0587  0.0087
 2550DPPE   GL152455   6.846  12.852  18.517  0.1044  0.2187  0.2994
 2550DPPE   GL252456   6.970  12.638  18.660  0.2678  0.1500 -0.1673
 2550DPPE   C1A52457   6.519  12.840  18.813  0.1693 -0.2525  0.1678
 2550DPPE   C2A52458   6.279  13.010  19.170 -0.4544 -0.2496 -0.2179
 2550DPPE   C3A52459   6.168  12.956  19.560 -0.1019  0.3642 -0.2077
 2550DPPE   C4A52460   6.149  12.601  19.723  0.2092 -0.0419  0.3696
 2550DPPE   C1B52461   6.887  12.693  19.111  0.1720  0.1670  0.0877
 2550DPPE   C2B52462   6.642  12.688  19.443 -0.1041 -0.0037  0.1240
 2550DPPE   C3B52463   6.683  12.632  19.842 -0.1128 -0.0099 -0.1547
 2550DPPE   C4B52464   6.950  12.726  20.208  0.3325 -0.0225  0.1359
 2551DPPE   NH352465  16.228  22.801  18.458 -0.2602 -0.1324  0.0609
 2551DPPE   PO452466  15.866  22.907  18.360 -0.2279 -0.5005 -0.1679
 2551DPPE   GL152467  15.759  22.837  18.690  0.1526 -0.1312  0.2265
 2551DPPE   GL252468  15.984  22.966  18.862 -0.1374 -0.0384 -0.1223
 2551DPPE   C1A52469  15.479  22.917  18.863 -0.2332 -0.2630  0.2880
 2551DPPE   C2A52470  15.214  23.001  19.159  0.2416  0.0748  0.0280
 2551DPPE   C3A52471  15.088  23.303  19.479  0.0144 -0.2621  0.1252
 2551DPPE   C4A52472  15.206  23.468  19.724  0.4363  0.2916  0.4035
 2551DPPE   C1B52473  15.855  22.925  19.173  0.4811 -0.0401  0.0216
 2551DPPE   C2B52474  15.627  22.840  19.461 -0.0276  0.0686  0.1605
 2551DPPE   C3B52475  15.418  23.024  19.712  0.1261  0.2080 -0.2338
 2551DPPE   C4B52476  15.394  22.967  20.157 -0.1933 -0.1517  0.0000
 2552DPPE   NH352477  16.775  12.598  17.821 -0.1185 -0.0874 -0.0333
 2552DPPE   PO452478  17.106  12.307  17.999 -0.1871  0.2977  0.0159
 2552DPPE   GL152479  16.982  12.546  18.285  0.1595  0.1509 -0.1903
 2552DPPE   GL252480  17.247  12.486  18.573  0.2672  0.2201 -0.0014
 2552DPPE   C1A52481  16.743  12.493  18.676 -0.2762  0.1550 -0.0926
 2552DPPE   C2A52482  16.649  12.384  19.155  0.0336 -0.0579 -0.1402
 2552DPPE   C3A52483  16.716  12.328  19.554  0.0335  0.3916  0.0322
 2552DPPE   C4A52484  16.715  12.209  19.921 -0.1671 -0.1849 -0.1295
 2552DPPE   C1B52485  17.162  12.338  19.036 -0.3780 -0.0275 -0.0173
 2552DPPE   C2B52486  17.220  12.339  19.387 -0.1490  0.0702 -0.4199
 2552DPPE   C3B52487  17.226  12.322  19.764  0.2341 -0.2241 -0.1933
 2552DPPE   C4B52488  17.245  12.223  20.161  0.1771 -0.2068 -0.0977
 2553DPPE   NH352489  16.535  25.115  17.781  0.1018  0.3431  0.0158
 2553DPPE   PO452490  16.714  24.798  17.957 -0.0746  0.0507  0.2063
 2553DPPE   GL152491  16.575  25.045  18.307  0.2501  0.1907 -0.2004
 2553DPPE   GL252492  16.368  25.285  18.196  0.1611  0.0250  0.0045
 2553DPPE   C1A52493  16.613  25.183  18.723  0.0994  0.1487  0.0934
 2553DPPE   C2A52494  16.348  25.189  19.165  0.0732  0.0450  0.0025
 2553DPPE   C3A52495  16.230  25.538  19.271  0.0474  0.0181  0.0487
 2553DPPE   C4A52496  16.074  25.849  19.117 -0.1457  0.0650  0.2186
 2553DPPE   C1B52497  16.222  25.538  18.444 -0.1359 -0.0077 -0.0945
 2553DPPE   C2B52498  16.311  25.544  18.763  0.0550  0.3452  0.3279
 2553DPPE   C3B52499  16.480  25.925  18.823 -0.0482 -0.2747 -0.4677
 2553DPPE   C4B52500  16.698  26.333  18.721  0.0999  0.0676 -0.1834
 2554DPPE   NH352501  18.548  14.041  17.929 -0.3575  0.1830 -0.0216
 2554DPPE   PO452502  18.500  13.881  18.378 -0.0256  0.1531 -0.2897
 2554DPPE   GL152503  18.596  13.881  18.861  0.2621  0.1588  0.2429
 2554DPPE   GL252504  18.704  13.568  18.935 -0.1298 -0.1473 -0.0972
 2554DPPE   C1A52505  18.497  14.020  19.196 -0.1819 -0.1274 -0.3136
 2554DPPE   C2A52506  18.642  13.949  19.625 -0.0050 -0.1686 -0.0235
 2554DPPE   C3A52507  18.656  14.126  19.980  0.0670  0.1252 -0.1482
 2554DPPE   C4A52508  18.588  14.299  20.442 -0.0813 -0.0336 -0.1294
 2554DPPE   C1B52509  18.991  13.805  19.280  0.0480  0.4305  0.0016
 2554DPPE   C2B52510  19.360  13.657  19.399  0.2681 -0.1141 -0.0614
 2554DPPE   C3B52511  19.583  13.532  19.673  0.0654  0.1404  0.0294
 2554DPPE   C4B52512  19.390  13.202  19.957 -0.2728 -0.2065  0.0414
 2555DPPE   NH352513  10.804  13.404  17.542  0.1467 -0.1777  0.1074
 2555DPPE   PO452514  10.606  13.431  17.990 -0.1533 -0.4075 -0.0054
 2555DPPE   GL152515  10.779  13.494  18.452  0.0330  0.0331 -0.2364
 2555DPPE   GL252516  10.558  13.194  18.503 -0.2131 -0.0057  0.1863
 2555DPPE   C1A52517  10.938  13.459  18.861 -0.1672 -0.0678  0.0094
 2555DPPE   C2A52518  10.924  13.402  19.206 -0.2118  0.0804 -0.2224
 2555DPPE   C3A52519  11.097  13.262  19.615  0.0926 -0.0482 -0.0991
 2555DPPE   C4A52520  10.886  12.923  19.838  0.1778  0.0212  0.0514
 2555DPPE   C1B52521  10.379  13.311  18.901 -0.0034  0.2273 -0.1485
 2555DPPE   C2B52522  10.145  13.017  19.074 -0.3400  0.2770  0.0896
 2555DPPE   C3B52523  10.180  13.005  19.507  0.0021 -0.3029  0.1194
 2555DPPE   C4B52524  10.099  13.150  19.855  0.4773 -0.0287  0.1068
 2556DPPE   NH352525  13.901  14.450  18.464 -0.3223 -0.3072  0.0982
 2556DPPE   PO452526  13.591  14.282  18.159 -0.1146  0.0426 -0.0689
 2556DPPE   GL152527  13.494  14.156  18.635  0.1586  0.0227  0.1970
 2556DPPE   GL252528  13.598  13.826  18.741 -0.1408 -0.2763 -0.0395
 2556DPPE   C1A52529  13.517  14.378  19.125  0.0128 -0.0101 -0.0574
 2556DPPE   C2A52530  13.631  14.263  19.552 -0.0231  0.3020 -0.5825
 2556DPPE   C3A52531  13.705  14.303  20.087  0.0341  0.2451  0.3046
 2556DPPE   C4A52532  13.495  14.186  20.499 -0.1282  0.2358  0.2031
 2556DPPE   C1B52533  13.736  13.860  19.232 -0.0078  0.0371 -0.2107
 2556DPPE   C2B52534  13.941  13.851  19.609  0.2195 -0.0347 -0.1536
 2556DPPE   C3B52535  13.860  13.771  20.085 -0.1044 -0.0960 -0.0081
 2556DPPE   C4B52536  13.839  13.808  20.536 -0.0493 -0.0260 -0.4885
 2557DPPE   NH352537  11.721  10.039  18.126  0.2519 -0.0577  0.0298
 2557DPPE   PO452538  12.030  10.183  18.248 -0.0351 -0.0161  0.0083
 2557DPPE   GL152539  12.038   9.850  18.563  0.2358  0.0059 -0.4349
 2557DPPE   GL252540  11.717   9.702  18.500  0.0200  0.1534 -0.0742
 2557DPPE   C1A52541  12.274   9.607  18.819 -0.0979 -0.1077  0.0844
 2557DPPE   C2A52542  12.452   9.233  18.708  0.1469  0.0446 -0.0586
 2557DPPE   C3A52543  12.493   8.795  18.875  0.0400  0.2315  0.0334
 2557DPPE   C4A52544  12.376   8.561  19.160 -0.0364  0.0680 -0.0341
 2557DPPE   C1B52545  11.775   9.402  18.836 -0.0710  0.3242  0.3307
 2557DPPE   C2B52546  11.994   9.133  19.114 -0.1548 -0.1928 -0.1901
 2557DPPE   C3B52547  12.004   8.795  19.436 -0.2527  0.2837 -0.0556
 2557DPPE   C4B52548  11.789   8.566  19.631  0.0369  0.2628  0.3904
 2558DPPE   NH352549  14.939  14.550  18.244  0.1378 -0.0063 -0.1225
 2558DPPE   PO452550  14.406  14.337  18.243  0.1117 -0.1664 -0.1224
 2558DPPE   GL152551  14.402  14.453  18.705 -0.0659  0.0362 -0.2995
 2558DPPE   GL252552  14.577  14.141  18.854 -0.0058  0.1631 -0.0766
 2558DPPE   C1A52553  14.437  14.577  19.106 -0.1878  0.1353  0.1833
 2558DPPE   C2A52554  14.537  14.624  19.527  0.4720 -0.0814 -0.1734
 2558DPPE   C3A52555  14.491  14.617  19.984 -0.1869 -0.0364  0.0553
 2558DPPE   C4A52556  14.505  14.546  20.407 -0.0437  0.0544 -0.2819
 2558DPPE   C1B52557  14.674  14.179  19.206 -0.0977  0.1903 -0.1152
 2558DPPE   C2B52558  14.726  14.146  19.636  0.1640 -0.2189  0.1994
 2558DPPE   C3B52559  14.636  14.059  20.043 -0.3351  0.2161 -0.0048
 2558DPPE   C4B52560  14.750  14.013  20.461  0.0764 -0.0937 -0.0538
 2559DPPE   NH352561  12.798  20.559  18.533  0.2798 -0.1356  0.3487
 2559DPPE   PO452562  12.655  21.013  18.453 -0.2340 -0.0602  0.0036
 2559DPPE   GL152563  12.566  21.013  18.866  0.3878 -0.2268  0.0341
 2559DPPE   GL252564  12.347  20.885  19.045  0.0640  0.0689 -0.1388
 2559DPPE   C1A52565  12.654  21.075  19.344  0.2261  0.1355  0.0107
 2559DPPE   C2A52566  12.612  21.163  19.856 -0.0916 -0.2681  0.1833
 2559DPPE   C3A52567  12.633  21.231  20.360  0.0130 -0.0992  0.0021
 2559DPPE   C4A52568  12.746  21.316  20.737 -0.1887 -0.1160 -0.0815
 2559DPPE   C1B52569  12.155  20.937  19.363 -0.1588 -0.2902 -0.2443
 2559DPPE   C2B52570  12.127  21.058  19.845 -0.1055  0.1562 -0.1861
 2559DPPE   C3B52571  12.111  21.062  20.313  0.1182  0.0816  0.2168
 2559DPPE   C4B52572  12.048  21.090  20.738 -0.2344  0.2065  0.0197
 2560DPPE   NH352573  18.479  14.710  18.436 -0.2643 -0.0447  0.0268
 2560DPPE   PO452574  18.830  14.985  18.520 -0.2495  0.1603  0.1847
 2560DPPE   GL152575  18.909  15.168  18.866  0.2896  0.1607 -0.0447
 2560DPPE   GL252576  19.040  15.032  19.080  0.2174 -0.1566  0.0942
 2560DPPE   C1A52577  18.824  15.378  19.303  0.1963 -0.1835 -0.1730
 2560DPPE   C2A52578  19.123  15.303  19.736 -0.1716  0.2483  0.1293
 2560DPPE   C3A52579  19.354  15.319  20.105  0.0554 -0.2182  0.0879
 2560DPPE   C4A52580  19.467  15.641  20.448 -0.1521 -0.1637 -0.1148
 2560DPPE   C1B52581  19.174  14.779  19.461 -0.0544  0.0189  0.6211
 2560DPPE   C2B52582  19.292  14.810  19.903  0.0452 -0.5682  0.1317
 2560DPPE   C3B52583  19.390  14.923  20.392 -0.1387 -0.0774 -0.0103
 2560DPPE   C4B52584  19.756  14.672  20.543 -0.4368 -0.1323  0.0401
 2561DPPE   NH352585  10.886  19.207  18.438  0.0573 -0.1836 -0.0450
 2561DPPE   PO452586  11.028  19.504  18.238  0.5945 -0.0559 -0.2215
 2561DPPE   GL152587  11.016  19.605  18.734  0.1213  0.1691 -0.0716
 2561DPPE   GL252588  10.980  19.913  18.972  0.1069 -0.1594 -0.1200
 2561DPPE   C1A52589  11.020  19.493  19.196 -0.1354  0.3320  0.0844
 2561DPPE   C2A52590  10.960  19.565  19.615  0.1971  0.1459  0.3959
 2561DPPE   C3A52591  10.963  19.572  19.977  0.2370 -0.1264  0.1599
 2561DPPE   C4A52592  10.775  19.619  20.354 -0.0080 -0.0347 -0.1055
 2561DPPE   C1B52593  11.112  19.987  19.404  0.0509 -0.3070  0.2037
 2561DPPE   C2B52594  11.040  20.141  19.794  0.0001 -0.0668 -0.1450
 2561DPPE   C3B52595  10.993  20.211  20.220  0.0066 -0.0971 -0.3737
 2561DPPE   C4B52596  10.877  20.168  20.610  0.2304 -0.0068 -0.1958
 2562DPPE   NH352597  15.471  10.077  18.012 -0.1269  0.1502 -0.3331
 2562DPPE   PO452598  15.272   9.638  17.946 -0.0697  0.1687  0.1742
 2562DPPE   GL152599  15.589   9.532  18.313 -0.0547  0.0873 -0.2367
 2562DPPE   GL252600  15.613   9.752  18.546 -0.0120  0.1183  0.2157
 2562DPPE   C1A52601  15.800   9.132  18.360  0.0937 -0.0141 -0.4048
 2562DPPE   C2A52602  16.085   8.969  18.255  0.0243  0.3224  0.1256
 2562DPPE   C3A52603  16.472   8.704  18.351  0.0635  0.3006  0.2514
 2562DPPE   C4A52604  16.374   8.280  18.177 -0.0096  0.1850  0.2085
 2562DPPE   C1B52605  15.501   9.371  18.763  0.0315 -0.2174  0.2653
 2562DPPE   C2B52606  15.468   9.254  19.246 -0.1820 -0.0485 -0.2779
 2562DPPE   C3B52607  15.473   9.076  19.568 -0.0493  0.1987  0.3465
 2562DPPE   C4B52608  15.145   8.802  19.650 -0.0077  0.2795 -0.0620
 2563DPPE   NH352609  15.401  13.399  17.904 -0.0610 -0.2681  0.0450
 2563DPPE   PO452610  15.090  13.586  18.171  0.4278 -0.0714  0.0755
 2563DPPE   GL152611  15.072  13.558  18.600 -0.1803  0.1603  0.0861
 2563DPPE   GL252612  15.002  13.320  18.803 -0.1231  0.1397  0.2161
 2563DPPE   C1A52613  15.351  13.619  19.040  0.0944  0.1626 -0.1037
 2563DPPE   C2A52614  15.398  13.519  19.496  0.1491 -0.2068  0.3272
 2563DPPE   C3A52615  15.391  13.467  19.898  0.0188 -0.1302 -0.0853
 2563DPPE   C4A52616  15.277  13.331  20.407  0.2365 -0.1748  0.2447
 2563DPPE   C1B52617  14.963  13.176  19.248 -0.0114  0.1378  0.0926
 2563DPPE   C2B52618  15.097  13.110  19.620  0.4119 -0.0512 -0.2395
 2563DPPE   C3B52619  15.009  13.039  20.048  0.0820 -0.0382  0.0916
 2563DPPE   C4B52620  15.039  12.850  20.574  0.2146  0.1981 -0.3775
 2564DPPE   NH352621  19.380  18.235  17.479 -0.0307  0.1701  0.2021
 2564DPPE   PO452622  19.498  18.222  17.893 -0.2948  0.1309 -0.3331
 2564DPPE   GL152623  19.758  18.347  18.192  0.1501 -0.1634  0.2851
 2564DPPE   GL252624  19.859  18.642  18.120  0.2400 -0.0288 -0.1583
 2564DPPE   C1A52625  19.739  18.402  18.688 -0.0148  0.1916 -0.2127
 2564DPPE   C2A52626  20.039  18.494  19.042  0.4232  0.1167  0.1552
 2564DPPE   C3A52627  20.012  18.793  19.325  0.1727 -0.3962  0.0801
 2564DPPE   C4A52628  19.961  18.992  19.779  0.1279  0.1004 -0.0349
 2564DPPE   C1B52629  20.221  18.492  18.452 -0.0167 -0.2593  0.2579
 2564DPPE   C2B52630  20.489  18.477  18.791 -0.5307 -0.1708  0.4556
 2564DPPE   C3B52631  20.753  18.584  19.057 -0.2262  0.2042 -0.1017
 2564DPPE   C4B52632  21.182  18.513  19.087 -0.1471  0.1616 -0.0035
 2565DPPE   NH352633   6.874  12.928  17.659 -0.0568 -0.1980 -0.0592
 2565DPPE   PO452634   6.808  12.932  18.023  0.1556 -0.1791  0.0166
 2565DPPE   GL152635   6.446  12.908  18.123 -0.0038  0.1469  0.2937
 2565DPPE   GL252636   6.391  13.163  18.393  0.0054 -0.2261  0.1922
 2565DPPE   C1A52637   6.190  12.600  18.403 -0.1501 -0.0044  0.3257
 2565DPPE   C2A52638   6.108  12.421  18.719  0.0428 -0.1482  0.2854
 2565DPPE   C3A52639   5.901  12.148  18.918  0.2140  0.2071  0.0175
 2565DPPE   C4A52640   5.526  12.147  19.179  0.3611  0.0981  0.1156
 2565DPPE   C1B52641   6.072  13.031  18.632  0.1773 -0.2001 -0.3689
 2565DPPE   C2B52642   5.613  12.965  18.776  0.0633 -0.3421 -0.1103
 2565DPPE   C3B52643   5.232  13.079  19.157  0.0396 -0.2304 -0.1133
 2565DPPE   C4B52644   4.825  13.353  19.274 -0.3130 -0.1413 -0.2641
 2566DPPE   NH352645  11.715  23.694  18.491  0.1972 -0.0778 -0.1472
 2566DPPE   PO452646  11.853  24.038  18.324 -0.0186  0.0008  0.1867
 2566DPPE   GL152647  11.942  24.131  18.764  0.0296  0.2580 -0.4145
 2566DPPE   GL252648  11.689  24.269  19.026  0.2011  0.3287 -0.0244
 2566DPPE   C1A52649  12.129  24.048  19.201 -0.0106  0.1339 -0.0950
 2566DPPE   C2A52650  12.158  24.001  19.612 -0.3245  0.1394  0.2163
 2566DPPE   C3A52651  12.138  24.165  20.091  0.0404 -0.1937 -0.2531
 2566DPPE   C4A52652  12.320  24.584  20.209  0.0270 -0.2643  0.0461
 2566DPPE   C1B52653  12.045  24.549  19.078 -0.0626 -0.2664 -0.0678
 2566DPPE   C2B52654  11.948  24.923  19.391 -0.3782  0.0992  0.3635
 2566DPPE   C3B52655  12.017  25.073  19.883 -0.1155  0.0215 -0.4359
 2566DPPE   C4B52656  11.848  24.773  20.214 -0.3219  0.1079 -0.2543
 2567DPPE   NH352657  10.039  20.308  18.599 -0.0640 -0.2115 -0.0930
 2567DPPE   PO452658  10.129  20.695  18.691 -0.0927  0.1884 -0.1166
 2567DPPE   GL152659  10.350  20.830  19.080  0.3441  0.0129  0.1116
 2567DPPE   GL252660  10.700  20.873  19.175 -0.2801 -0.2705 -0.0350
 2567DPPE   C1A52661  10.283  20.772  19.510  0.1584  0.0497  0.4063
 2567DPPE   C2A52662  10.238  20.858  19.940  0.1051 -0.1678 -0.2421
 2567DPPE   C3A52663  10.136  20.741  20.366  0.0200  0.0230 -0.0931
 2567DPPE   C4A52664  10.156  20.522  20.790  0.3123 -0.1295 -0.2948
 2567DPPE   C1B52665  10.746  20.959  19.635 -0.0788 -0.2259 -0.1522
 2567DPPE   C2B52666  10.639  21.036  20.169 -0.0406 -0.1395 -0.1034
 2567DPPE   C3B52667  10.767  21.114  20.500 -0.1269 -0.0678  0.1364
 2567DPPE   C4B52668  10.978  20.915  20.889  0.0349 -0.1030 -0.1342
 2568DPPE   NH352669   9.678  14.282  18.223  0.1738  0.1486 -0.0107
 2568DPPE   PO452670   9.354  14.126  18.520 -0.1506  0.2323 -0.0468
 2568DPPE   GL152671   9.328  13.965  18.976  0.3802  0.1809 -0.0903
 2568DPPE   GL252672   9.020  14.116  19.168  0.1302  0.2550 -0.3565
 2568DPPE   C1A52673   9.426  13.850  19.395  0.1253 -0.1236 -0.1237
 2568DPPE   C2A52674   9.359  13.888  19.836  0.1912 -0.4327 -0.1912
 2568DPPE   C3A52675   9.103  13.957  20.175 -0.1481 -0.0940  0.2921
 2568DPPE   C4A52676   8.747  14.044  20.463 -0.1421  0.1209 -0.2122
 2568DPPE   C1B52677   8.900  14.321  19.478 -0.0087  0.0628 -0.0889
 2568DPPE   C2B52678   8.922  14.524  19.890 -0.1739 -0.3213 -0.3041
 2568DPPE   C3B52679   8.895  14.555  20.329 -0.0059 -0.3434 -0.1892
 2568DPPE   C4B52680   8.661  14.553  20.700  0.1350  0.1183  0.2260
 2569DPPE   NH352681  15.618  18.613  19.083 -0.0299  0.1589  0.0971
 2569DPPE   PO452682  16.051  18.405  19.181  0.1206  0.2157  0.1355
 2569DPPE   GL152683  15.906  18.205  19.512  0.0105 -0.2278  0.3063
 2569DPPE   GL252684  15.766  18.335  19.579 -0.2060 -0.1027 -0.2063
 2569DPPE   C1A52685  15.758  17.997  19.934 -0.0121  0.0471  0.0794
 2569DPPE   C2A52686  15.762  18.049  20.297  0.0931  0.1510 -0.1383
 2569DPPE   C3A52687  15.708  18.037  20.752  0.1208 -0.1085  0.3668
 2569DPPE   C4A52688  15.539  18.000  21.123  0.2690  0.2408  0.1470
 2569DPPE   C1B52689  15.788  18.498  19.941 -0.3392 -0.0951 -0.1993
 2569DPPE   C2B52690  15.811  18.609  20.340 -0.0657  0.2927 -0.2616
 2569DPPE   C3B52691  15.863  18.499  20.739  0.0071 -0.0311 -0.0425
 2569DPPE   C4B52692  16.008  18.286  21.080 -0.1103 -0.1060 -0.2462
 2570DPPE   NH352693  13.359  11.576  18.147 -0.1138  0.0004 -0.0916
 2570DPPE   PO452694  13.016  11.617  18.353 -0.4706 -0.1111 -0.0279
 2570DPPE   GL152695  12.980  11.740  18.817  0.2266  0.3061 -0.0305
 2570DPPE   GL252696  12.891  11.961  18.904  0.3125  0.2161 -0.0054
 2570DPPE   C1A52697  13.149  11.655  19.228  0.0555  0.1700  0.2575
 2570DPPE   C2A52698  13.161  11.594  19.712  0.3801  0.1265  0.0633
 2570DPPE   C3A52699  13.146  11.578  20.121 -0.2069  0.0081  0.1478
 2570DPPE   C4A52700  13.259  11.374  20.512  0.1633 -0.1718 -0.0604
 2570DPPE   C1B52701  12.975  12.071  19.380  0.1218  0.2408  0.0349
 2570DPPE   C2B52702  12.985  12.038  19.883  0.0881 -0.1063  0.1047
 2570DPPE   C3B52703  12.897  11.967  20.226 -0.3042  0.2233 -0.1408
 2570DPPE   C4B52704  13.118  12.016  20.660 -0.1841  0.0044  0.0399
 2571DPPE   NH352705  13.982  22.623  18.378 -0.1881  0.4140 -0.1175
 2571DPPE   PO452706  13.645  22.954  18.191  0.2751  0.0297  0.1524
 2571DPPE   GL152707  13.599  23.153  18.579  0.0555 -0.0206  0.3762
 2571DPPE   GL252708  13.513  23.425  18.593  0.1145 -0.1604 -0.0336
 2571DPPE   C1A52709  13.746  23.340  19.030 -0.1152 -0.0058  0.3658
 2571DPPE   C2A52710  13.587  23.308  19.425  0.5910 -0.0592  0.0571
 2571DPPE   C3A52711  13.498  23.458  19.829  0.2083  0.0901 -0.0927
 2571DPPE   C4A52712  13.413  23.685  20.293  0.4820  0.0687  0.1756
 2571DPPE   C1B52713  13.473  23.758  18.914 -0.1431 -0.0551 -0.3281
 2571DPPE   C2B52714  13.505  23.839  19.377  0.2513 -0.1748  0.1208
 2571DPPE   C3B52715  13.638  23.905  19.800  0.2448 -0.3030 -0.1877
 2571DPPE   C4B52716  13.690  24.199  20.145 -0.0885  0.4067  0.0401
 2572DPPE   NH352717  11.029  16.227  18.506 -0.1298  0.0296 -0.3608
 2572DPPE   PO452718  11.039  15.816  18.608 -0.2629 -0.2161 -0.1575
 2572DPPE   GL152719  11.125  15.915  18.996 -0.1013 -0.3692  0.1169
 2572DPPE   GL252720  11.279  15.713  19.049 -0.3178  0.0584  0.1066
 2572DPPE   C1A52721  11.044  15.989  19.455 -0.1631 -0.0790  0.0359
 2572DPPE   C2A52722  11.034  15.974  19.886 -0.0244  0.3058 -0.0656
 2572DPPE   C3A52723  11.192  15.802  20.274  0.0263 -0.0538  0.1298
 2572DPPE   C4A52724  10.995  15.917  20.631  0.0663  0.0644 -0.2161
 2572DPPE   C1B52725  11.300  15.607  19.445  0.1497 -0.1830 -0.2654
 2572DPPE   C2B52726  11.229  15.488  19.901  0.1711  0.1657  0.0591
 2572DPPE   C3B52727  11.378  15.384  20.459  0.3122 -0.0137  0.1253
 2572DPPE   C4B52728  11.326  15.612  20.843 -0.0792 -0.1921  0.1007
 2573DPPE   NH352729  17.249  13.532  18.230 -0.1526  0.3418 -0.4022
 2573DPPE   PO452730  17.106  13.081  17.893  0.0105  0.0585 -0.0255
 2573DPPE   GL152731  17.067  13.118  18.372  0.4126 -0.3851  0.3003
 2573DPPE   GL252732  17.362  13.003  18.366  0.4553  0.0023  0.0663
 2573DPPE   C1A52733  17.049  12.922  18.735 -0.1497  0.0260  0.0069
 2573DPPE   C2A52734  17.040  12.785  19.209  0.0698  0.3006  0.0007
 2573DPPE   C3A52735  16.999  12.792  19.619 -0.0467  0.3867  0.2819
 2573DPPE   C4A52736  17.057  12.668  20.069 -0.0440  0.1888  0.1652
 2573DPPE   C1B52737  17.484  13.211  18.682  0.1393 -0.2269 -0.2622
 2573DPPE   C2B52738  17.390  13.180  19.070  0.1257  0.1436 -0.1006
 2573DPPE   C3B52739  17.282  13.194  19.561 -0.0558  0.0331 -0.0061
 2573DPPE   C4B52740  17.463  13.120  19.865 -0.0871  0.0425  0.1039
 2574DPPE   NH352741   9.985  21.147  18.868  0.2642  0.3410  0.1653
 2574DPPE   PO452742  10.341  21.336  18.593 -0.1727 -0.1052 -0.2281
 2574DPPE   GL152743  10.540  21.264  18.988 -0.0939 -0.1953 -0.1040
 2574DPPE   GL252744  10.796  21.482  18.895  0.0678  0.4885 -0.0989
 2574DPPE   C1A52745  10.330  21.342  19.377 -0.1207  0.4021  0.0177
 2574DPPE   C2A52746  10.374  21.344  19.866  0.0130 -0.0627  0.0748
 2574DPPE   C3A52747  10.332  21.356  20.343  0.0224  0.2039  0.0325
 2574DPPE   C4A52748  10.354  21.437  20.751 -0.0852  0.0720 -0.0878
 2574DPPE   C1B52749  10.903  21.500  19.257  0.0991  0.1084  0.1717
 2574DPPE   C2B52750  10.780  21.453  19.550 -0.2124  0.1385 -0.3517
 2574DPPE   C3B52751  10.842  21.519  19.935  0.1916  0.1258  0.1871
 2574DPPE   C4B52752  10.838  21.597  20.322  0.1563  0.0148  0.0896
 2575DPPE   NH352753  17.845  14.396  18.393  0.0390 -0.0570  0.2407
 2575DPPE   PO452754  18.217  14.345  18.198 -0.0549  0.1091  0.5239
 2575DPPE   GL152755  18.249  14.248  18.657  0.2968 -0.0195  0.3315
 2575DPPE   GL252756  18.059  13.991  18.654 -0.1911 -0.2834  0.0121
 2575DPPE   C1A52757  18.249  14.429  19.116 -0.1142  0.3378 -0.1581
 2575DPPE   C2A52758  18.355  14.426  19.607 -0.1067  0.0259 -0.1539
 2575DPPE   C3A52759  18.259  14.691  20.006  0.3873 -0.2452 -0.0408
 2575DPPE   C4A52760  18.543  14.843  20.223  0.2053 -0.0135 -0.0468
 2575DPPE   C1B52761  17.965  13.947  19.048  0.2656  0.1521 -0.2421
 2575DPPE   C2B52762  17.980  13.980  19.543  0.2981 -0.0639  0.2450
 2575DPPE   C3B52763  18.231  13.877  19.851  0.0928 -0.0209  0.1090
 2575DPPE   C4B52764  18.202  14.031  20.197 -0.2425 -0.1523  0.0981
 2576DPPE   NH352765   9.193  15.008  18.438  0.1912 -0.3281 -0.0197
 2576DPPE   PO452766   9.361  14.656  18.622 -0.1135  0.0150  0.0047
 2576DPPE   GL152767   9.626  14.756  18.948 -0.2075  0.1052  0.1721
 2576DPPE   GL252768   9.534  15.041  19.052 -0.0339  0.2219 -0.3302
 2576DPPE   C1A52769   9.758  14.615  19.350 -0.0352  0.2364 -0.1141
 2576DPPE   C2A52770   9.787  14.393  19.783  0.2045 -0.0901 -0.2171
 2576DPPE   C3A52771   9.896  14.387  20.237  0.0495 -0.4736 -0.2615
 2576DPPE   C4A52772   9.860  14.234  20.631  0.1367 -0.0191  0.1734
 2576DPPE   C1B52773   9.376  15.042  19.458  0.0730 -0.0322 -0.0250
 2576DPPE   C2B52774   9.151  14.985  19.899  0.1791  0.0124  0.1355
 2576DPPE   C3B52775   9.107  14.975  20.246 -0.0986  0.0750  0.0758
 2576DPPE   C4B52776   9.043  14.868  20.611 -0.3035 -0.2207 -0.1547
 2577DPPE   NH352777  14.011  13.142  18.027 -0.3973  0.5020 -0.2525
 2577DPPE   PO452778  14.419  13.047  18.293  0.0120 -0.3089 -0.2664
 2577DPPE   GL152779  14.504  13.269  18.796 -0.0833  0.0031 -0.0655
 2577DPPE   GL252780  14.529  13.598  18.870  0.1373  0.2806 -0.0922
 2577DPPE   C1A52781  14.506  13.278  19.304 -0.0585  0.0953 -0.1734
 2577DPPE   C2A52782  14.606  13.224  19.612 -0.0074 -0.0848 -0.1662
 2577DPPE   C3A52783  14.481  13.112  20.056  0.2650  0.3075 -0.2563
 2577DPPE   C4A52784  14.556  13.042  20.426 -0.2994 -0.0397 -0.2299
 2577DPPE   C1B52785  14.047  13.490  19.126  0.0261 -0.1612 -0.1770
 2577DPPE   C2B52786  14.048  13.389  19.553  0.3515  0.0720  0.0761
 2577DPPE   C3B52787  14.060  13.293  19.933 -0.1284  0.1758  0.1988
 2577DPPE   C4B52788  14.134  13.288  20.428  0.0400 -0.0437  0.1877
 2578DPPE   NH352789  14.066  17.267  18.938 -0.2312 -0.0722  0.3449
 2578DPPE   PO452790  14.105  16.755  19.032  0.1324  0.0143  0.0735
 2578DPPE   GL152791  14.286  16.488  19.253 -0.4213 -0.0039  0.0812
 2578DPPE   GL252792  14.273  16.454  19.466  0.1590 -0.0360 -0.1403
 2578DPPE   C1A52793  14.465  16.057  19.468 -0.2453  0.0438 -0.4967
 2578DPPE   C2A52794  14.533  15.883  19.940  0.1586 -0.1499  0.2589
 2578DPPE   C3A52795  14.493  15.894  20.429 -0.0608  0.0232 -0.0403
 2578DPPE   C4A52796  14.481  15.586  20.820 -0.0770  0.1176 -0.2996
 2578DPPE   C1B52797  14.362  16.405  19.852  0.1242 -0.0991 -0.0499
 2578DPPE   C2B52798  14.234  16.371  20.258  0.1156 -0.2769  0.3256
 2578DPPE   C3B52799  14.213  16.374  20.703 -0.4004  0.2247 -0.0268
 2578DPPE   C4B52800  14.117  16.249  21.101  0.0240 -0.3856  0.0070
 2579DPPE   NH352801  14.042  20.051  18.682  0.1777  0.1350  0.1385
 2579DPPE   PO452802  13.705  20.269  18.448 -0.0769  0.1602  0.0696
 2579DPPE   GL152803  13.827  20.467  18.844  0.1237  0.3055 -0.3883
 2579DPPE   GL252804  13.597  20.722  18.810  0.0678  0.4633 -0.2129
 2579DPPE   C1A52805  13.886  20.612  19.338  0.2626 -0.0543 -0.1294
 2579DPPE   C2A52806  13.853  20.619  19.781 -0.1867  0.0663  0.1390
 2579DPPE   C3A52807  13.938  20.654  20.235 -0.0161  0.3267 -0.0948
 2579DPPE   C4A52808  13.927  20.726  20.697 -0.0560 -0.3605  0.0766
 2579DPPE   C1B52809  13.504  20.925  19.190  0.0132  0.3410  0.0673
 2579DPPE   C2B52810  13.560  21.030  19.660 -0.3032 -0.2270 -0.1080
 2579DPPE   C3B52811  13.487  21.039  20.062 -0.0964  0.1488 -0.0687
 2579DPPE   C4B52812  13.607  21.084  20.527  0.1059  0.1707  0.1745
 2580DPPE   NH352813  15.819  19.352  18.714  0.3008  0.1507 -0.0452
 2580DPPE   PO452814  15.455  19.048  18.954  0.2535  0.0810 -0.2542
 2580DPPE   GL152815  15.467  19.040  19.354 -0.3993 -0.1873 -0.4002
 2580DPPE   GL252816  15.417  19.236  19.488  0.0600 -0.1688  0.1692
 2580DPPE   C1A52817  15.449  18.816  19.722 -0.2058 -0.2496  0.0307
 2580DPPE   C2A52818  15.437  18.845  20.234 -0.1867 -0.1732  0.0931
 2580DPPE   C3A52819  15.418  18.880  20.633  0.4017  0.0044  0.2443
 2580DPPE   C4A52820  15.340  19.039  21.057 -0.0694 -0.1154  0.0514
 2580DPPE   C1B52821  15.552  19.289  19.914  0.0217  0.1511  0.0150
 2580DPPE   C2B52822  15.419  19.339  20.399  0.0036 -0.1926  0.1973
 2580DPPE   C3B52823  15.509  19.461  20.846 -0.0225 -0.1584  0.1755
 2580DPPE   C4B52824  15.444  19.508  21.310 -0.1987  0.1512 -0.1634
 2581DPPE   NH352825  14.696  23.787  18.047  0.2007 -0.0157  0.0826
 2581DPPE   PO452826  15.076  23.890  17.765 -0.1965  0.2817  0.0498
 2581DPPE   GL152827  15.160  23.923  18.240  0.0270 -0.2705 -0.1325
 2581DPPE   GL252828  15.214  24.272  18.159 -0.0118  0.2224  0.1600
 2581DPPE   C1A52829  15.001  23.939  18.617 -0.2132 -0.0741 -0.0665
 2581DPPE   C2A52830  14.872  24.208  18.898  0.2657 -0.1329  0.0266
 2581DPPE   C3A52831  14.779  24.552  19.218  0.0664 -0.1534  0.0590
 2581DPPE   C4A52832  14.718  24.881  19.485  0.0026 -0.0681 -0.1040
 2581DPPE   C1B52833  15.140  24.478  18.512 -0.0131 -0.1447 -0.0627
 2581DPPE   C2B52834  15.118  24.654  18.867  0.2579  0.0972 -0.2560
 2581DPPE   C3B52835  15.247  24.724  19.266  0.2414 -0.0860 -0.1467
 2581DPPE   C4B52836  15.150  25.078  19.500 -0.3197  0.0672  0.0454
 2582DPPE   NH352837  17.459  24.349  18.449  0.1303 -0.2482 -0.0967
 2582DPPE   PO452838  17.028  24.364  18.429 -0.1120  0.2488 -0.1414
 2582DPPE   GL152839  17.264  24.697  18.719 -0.0767  0.1624  0.3585
 2582DPPE   GL252840  17.710  24.724  18.661 -0.1749 -0.3212  0.1341
 2582DPPE   C1A52841  17.307  24.675  19.211 -0.2777 -0.2022 -0.2557
 2582DPPE   C2A52842  17.411  24.562  19.702  0.0992 -0.0056  0.1868
 2582DPPE   C3A52843  17.151  24.471  20.087  0.1221  0.2122 -0.2700
 2582DPPE   C4A52844  17.110  24.142  20.318  0.0711 -0.0877 -0.1989
 2582DPPE   C1B52845  18.016  24.842  18.903 -0.1979 -0.1741 -0.3854
 2582DPPE   C2B52846  18.424  25.051  18.797  0.1489  0.0305 -0.0857
 2582DPPE   C3B52847  18.766  25.155  18.547  0.1259  0.2130 -0.2724
 2582DPPE   C4B52848  18.823  25.572  18.433  0.1857 -0.2370  0.0049
 2583DPPE   NH352849   7.245  14.881  18.354  0.0294  0.0777 -0.2401
 2583DPPE   PO452850   7.322  14.533  18.676  0.1626  0.1612  0.0012
 2583DPPE   GL152851   7.274  14.615  19.118 -0.2715  0.1113  0.1755
 2583DPPE   GL252852   7.033  14.396  19.066 -0.1624  0.1501 -0.4053
 2583DPPE   C1A52853   7.020  14.837  19.419 -0.2752  0.3791 -0.0854
 2583DPPE   C2A52854   6.881  14.722  19.840  0.1237 -0.0617 -0.1409
 2583DPPE   C3A52855   6.700  14.384  20.194  0.2967 -0.0580 -0.2682
 2583DPPE   C4A52856   6.540  14.222  20.454 -0.1612 -0.0524  0.1846
 2583DPPE   C1B52857   6.953  14.250  19.387  0.1057  0.0872  0.0388
 2583DPPE   C2B52858   7.088  14.208  19.869 -0.2167  0.0997 -0.2426
 2583DPPE   C3B52859   7.320  14.133  20.299 -0.3071 -0.0169 -0.3073
 2583DPPE   C4B52860   7.435  13.937  20.727  0.1558 -0.0967  0.2122
 2584DPPE   NH352861  11.045  14.843  18.374 -0.1294  0.1977  0.0398
 2584DPPE   PO452862  10.613  15.095  18.391 -0.1506 -0.1652  0.0564
 2584DPPE   GL152863  10.706  14.976  18.750 -0.0118  0.0477 -0.2276
 2584DPPE   GL252864  10.892  14.703  18.828 -0.1777 -0.1028  0.0637
 2584DPPE   C1A52865  10.548  14.852  19.133  0.2204  0.3088 -0.0207
 2584DPPE   C2A52866  10.612  14.837  19.525  0.0126  0.4584 -0.0891
 2584DPPE   C3A52867  10.558  14.680  19.964 -0.0396 -0.2713 -0.0739
 2584DPPE   C4A52868  10.465  14.400  20.345  0.0379  0.1580  0.0579
 2584DPPE   C1B52869  11.049  14.780  19.181  0.2073 -0.1342  0.1588
 2584DPPE   C2B52870  11.117  14.639  19.568  0.2193 -0.0426  0.2056
 2584DPPE   C3B52871  11.023  14.555  20.056  0.3409  0.0014 -0.1520
 2584DPPE   C4B52872  11.206  14.433  20.472 -0.0956  0.1216 -0.1064
 2585DPPE   NH352873  14.893  19.674  18.775  0.2874  0.0927 -0.2395
 2585DPPE   PO452874  14.595  19.902  18.542 -0.0247 -0.0923 -0.0785
 2585DPPE   GL152875  14.590  20.002  18.923 -0.0755 -0.0835 -0.0501
 2585DPPE   GL252876  14.413  20.204  19.009  0.1492  0.0770 -0.2037
 2585DPPE   C1A52877  14.734  19.946  19.367  0.1406  0.1915  0.1046
 2585DPPE   C2A52878  14.743  19.902  19.910 -0.1595 -0.3370  0.2415
 2585DPPE   C3A52879  14.732  20.003  20.379 -0.2908 -0.4441 -0.4283
 2585DPPE   C4A52880  14.797  20.213  20.800  0.2015  0.1343 -0.3338
 2585DPPE   C1B52881  14.320  20.191  19.367  0.0119 -0.1585  0.1998
 2585DPPE   C2B52882  14.276  20.281  19.893 -0.1994  0.1736 -0.0314
 2585DPPE   C3B52883  14.275  20.179  20.360 -0.1447 -0.0309 -0.0138
 2585DPPE   C4B52884  14.274  20.375  20.685  0.1543  0.1998  0.1987
 2586DPPE   NH352885   7.485  14.067  18.515 -0.1681  0.1072  0.0204
 2586DPPE   PO452886   7.784  13.732  18.320 -0.1773 -0.0948 -0.4290
 2586DPPE   GL152887   7.872  13.953  18.857  0.1209  0.1425 -0.0454
 2586DPPE   GL252888   7.553  14.188  19.016 -0.4271  0.3506  0.2997
 2586DPPE   C1A52889   7.816  13.863  19.337  0.3034 -0.0874 -0.1602
 2586DPPE   C2A52890   7.553  13.600  19.640  0.1355 -0.0443  0.1391
 2586DPPE   C3A52891   7.473  13.182  19.942 -0.1747 -0.0967  0.0893
 2586DPPE   C4A52892   7.153  13.169  20.202  0.0891 -0.0694  0.0818
 2586DPPE   C1B52893   7.464  14.132  19.552  0.0814 -0.2083 -0.4728
 2586DPPE   C2B52894   7.642  14.023  19.947  0.2366  0.2602 -0.1619
 2586DPPE   C3B52895   7.758  13.842  20.304  0.2214 -0.1345 -0.3230
 2586DPPE   C4B52896   7.886  13.699  20.652 -0.3648  0.4177  0.0076
 2587DPPE   NH352897  10.351  15.558  18.371  0.6000 -0.0598 -0.5058
 2587DPPE   PO452898   9.908  15.519  18.278 -0.4406  0.1468 -0.1972
 2587DPPE   GL152899   9.806  15.582  18.724 -0.1731  0.0972  0.1510
 2587DPPE   GL252900   9.592  15.824  18.733  0.2688 -0.0487  0.0432
 2587DPPE   C1A52901   9.810  15.469  19.135  0.0391 -0.0815 -0.0066
 2587DPPE   C2A52902   9.840  15.308  19.541  0.1071 -0.2398 -0.3886
 2587DPPE   C3A52903   9.814  15.304  19.926  0.5359  0.0307 -0.1784
 2587DPPE   C4A52904   9.993  15.322  20.248  0.3309 -0.1950 -0.0578
 2587DPPE   C1B52905   9.352  15.590  18.977  0.1884  0.0162 -0.1976
 2587DPPE   C2B52906   9.382  15.574  19.409  0.0144  0.3764 -0.3274
 2587DPPE   C3B52907   9.317  15.566  19.873  0.1703 -0.0351 -0.1624
 2587DPPE   C4B52908   9.259  15.876  20.161 -0.1353 -0.0372 -0.3712
 2588DPPE   NH352909   8.103  13.502  17.953  0.1761  0.2330 -0.1259
 2588DPPE   PO452910   8.267  13.282  18.322 -0.1941 -0.0057  0.1063
 2588DPPE   GL152911   8.265  13.374  18.743 -0.2256  0.1933  0.3334
 2588DPPE   GL252912   8.386  13.767  18.930 -0.1351  0.0145  0.0027
 2588DPPE   C1A52913   8.040  13.343  18.992 -0.3361  0.2650  0.1453
 2588DPPE   C2A52914   7.763  13.332  19.282  0.1682 -0.0275 -0.0862
 2588DPPE   C3A52915   7.370  13.148  19.477  0.1122 -0.0907 -0.0143
 2588DPPE   C4A52916   7.116  12.909  19.761  0.0414 -0.6253 -0.2491
 2588DPPE   C1B52917   8.265  13.645  19.351 -0.4367 -0.0561 -0.1053
 2588DPPE   C2B52918   7.995  13.488  19.681  0.1912  0.0103 -0.1525
 2588DPPE   C3B52919   7.910  13.345  20.242  0.1014 -0.1032 -0.1716
 2588DPPE   C4B52920   8.012  13.246  20.647 -0.0687  0.0963 -0.1113
 2589DPPE   NH352921  15.862  24.964  17.906  0.1126 -0.0144 -0.1072
 2589DPPE   PO452922  15.714  24.896  17.533  0.2523  0.0434 -0.1897
 2589DPPE   GL152923  15.648  25.299  17.449  0.2886  0.0739 -0.0137
 2589DPPE   GL252924  15.564  25.350  17.795 -0.1175 -0.0001  0.0401
 2589DPPE   C1A52925  15.570  25.760  17.479  0.5139  0.1596 -0.0406
 2589DPPE   C2A52926  15.246  26.015  17.412  0.3164  0.3082 -0.1650
 2589DPPE   C3A52927  14.927  26.127  17.065  0.2360 -0.2046  0.0477
 2589DPPE   C4A52928  14.667  26.586  17.105  0.0974 -0.2110 -0.0142
 2589DPPE   C1B52929  15.158  25.474  17.451 -0.2797 -0.2443 -0.2003
 2589DPPE   C2B52930  14.934  25.634  17.213  0.0602 -0.1072  0.1127
 2589DPPE   C3B52931  14.650  25.722  16.862  0.0185  0.0037 -0.2527
 2589DPPE   C4B52932  14.394  25.851  16.545 -0.0289 -0.0327 -0.1058
 2590DPPE   NH352933   9.795  13.793  18.565 -0.1318  0.0345  0.2194
 2590DPPE   PO452934   9.757  13.399  18.421 -0.0920  0.1196 -0.1437
 2590DPPE   GL152935   9.842  13.387  18.890  0.0451 -0.0422 -0.1267
 2590DPPE   GL252936  10.026  13.744  18.951 -0.1872  0.0092 -0.1669
 2590DPPE   C1A52937   9.829  13.359  19.306 -0.0464  0.0727 -0.2415
 2590DPPE   C2A52938   9.786  13.511  19.759 -0.1377 -0.5926 -0.0972
 2590DPPE   C3A52939   9.847  13.476  20.169  0.0089  0.1514 -0.2455
 2590DPPE   C4A52940   9.848  13.553  20.604 -0.1762  0.1746  0.0989
 2590DPPE   C1B52941  10.331  13.987  19.131  0.1024 -0.0114  0.1067
 2590DPPE   C2B52942  10.474  13.941  19.593  0.0673  0.1719 -0.0817
 2590DPPE   C3B52943  10.300  13.692  19.953  0.2097  0.0411  0.0764
 2590DPPE   C4B52944  10.312  13.361  20.243 -0.0524 -0.0813 -0.2433
 2591DPPE   NH352945  13.302  16.541  18.819  0.0502  0.3347 -0.0812
 2591DPPE   PO452946  13.383  16.101  18.738  0.1952 -0.0606  0.0545
 2591DPPE   GL152947  13.328  16.236  19.217  0.0900  0.1344 -0.2069
 2591DPPE   GL252948  13.404  16.481  19.284 -0.1304  0.0958  0.2127
 2591DPPE   C1A52949  13.475  16.144  19.627 -0.0131  0.3823  0.0795
 2591DPPE   C2A52950  13.481  16.095  20.095 -0.0291 -0.0447 -0.3003
 2591DPPE   C3A52951  13.400  16.129  20.597  0.0024  0.0287 -0.1641
 2591DPPE   C4A52952  13.410  16.108  20.991 -0.0213 -0.2074 -0.2337
 2591DPPE   C1B52953  13.305  16.603  19.654 -0.3722 -0.1982 -0.2999
 2591DPPE   C2B52954  13.193  16.631  20.031 -0.0738 -0.0633  0.4675
 2591DPPE   C3B52955  13.351  16.632  20.501  0.2544  0.1441  0.1562
 2591DPPE   C4B52956  13.225  16.564  20.916  0.1135  0.0470  0.2382
 2592DPPE   NH352957   7.374  17.240  18.545  0.0666 -0.1508  0.0686
 2592DPPE   PO452958   6.982  17.230  18.795 -0.3466 -0.0679  0.3162
 2592DPPE   GL152959   7.151  17.468  19.139 -0.2050  0.0713 -0.0561
 2592DPPE   GL252960   7.412  17.328  19.004  0.1924 -0.2663  0.0465
 2592DPPE   C1A52961   7.192  17.668  19.531 -0.1336  0.1008 -0.1034
 2592DPPE   C2A52962   7.029  17.773  19.972  0.1005  0.6196 -0.3145
 2592DPPE   C3A52963   7.072  17.831  20.412 -0.3119 -0.2237  0.0526
 2592DPPE   C4A52964   7.222  17.814  20.900 -0.1095  0.1300 -0.1083
 2592DPPE   C1B52965   7.486  17.250  19.433  0.3391 -0.1197  0.0541
 2592DPPE   C2B52966   7.440  17.054  19.773 -0.1952 -0.0710 -0.0543
 2592DPPE   C3B52967   7.388  16.865  20.102 -0.0554  0.0076 -0.0566
 2592DPPE   C4B52968   7.581  16.948  20.522 -0.3409  0.1227 -0.0790
 2593DPPE   NH352969   8.933  10.689  18.358 -0.2979  0.3468  0.1104
 2593DPPE   PO452970   8.641  10.747  18.594 -0.2029 -0.0039 -0.0895
 2593DPPE   GL152971   8.331  10.415  18.688  0.0670  0.1816  0.1159
 2593DPPE   GL252972   8.442  10.280  19.023  0.1614 -0.0680 -0.1671
 2593DPPE   C1A52973   8.008  10.152  18.771  0.0699 -0.0619 -0.1974
 2593DPPE   C2A52974   7.911   9.912  19.019  0.0271  0.5619  0.0497
 2593DPPE   C3A52975   7.835   9.511  19.166 -0.2694 -0.1743  0.0160
 2593DPPE   C4A52976   7.959   9.177  19.367  0.0178 -0.2411  0.1042
 2593DPPE   C1B52977   8.278  10.104  19.298 -0.1760 -0.1484 -0.1238
 2593DPPE   C2B52978   7.989   9.892  19.558  0.1179 -0.1250 -0.2600
 2593DPPE   C3B52979   7.764  10.115  19.807 -0.0293  0.0975 -0.1112
 2593DPPE   C4B52980   7.434  10.411  19.625  0.0206 -0.3245 -0.1363
 2594DPPE   NH352981  14.993  13.072  18.398  0.3106 -0.1529  0.4564
 2594DPPE   PO452982  15.385  13.187  18.353  0.0483  0.2200  0.1788
 2594DPPE   GL152983  15.500  13.188  18.835 -0.2041  0.1766  0.2896
 2594DPPE   GL252984  15.737  13.451  18.793 -0.1870 -0.0164  0.2632
 2594DPPE   C1A52985  15.582  13.081  19.300  0.4240 -0.2964 -0.0571
 2594DPPE   C2A52986  15.575  13.036  19.667 -0.0925 -0.1244  0.2556
 2594DPPE   C3A52987  15.535  13.002  20.090  0.3378 -0.1326  0.0741
 2594DPPE   C4A52988  15.678  12.842  20.445  0.1064  0.0023  0.0652
 2594DPPE   C1B52989  15.841  13.510  19.186  0.0503  0.2034 -0.1169
 2594DPPE   C2B52990  15.879  13.435  19.651  0.0518  0.2201 -0.1438
 2594DPPE   C3B52991  15.862  13.345  20.043 -0.0176  0.0871 -0.2227
 2594DPPE   C4B52992  15.837  13.308  20.463  0.2393 -0.1512 -0.1227
 2595DPPE   NH352993  13.877  21.254  17.916 -0.0139  0.1184  0.1289
 2595DPPE   PO452994  14.284  21.133  18.214  0.1805  0.1872 -0.0221
 2595DPPE   GL152995  14.199  21.009  18.665 -0.0754  0.2161  0.2751
 2595DPPE   GL252996  14.378  20.709  18.911 -0.2749 -0.0233 -0.4035
 2595DPPE   C1A52997  13.994  21.043  19.022  0.1258 -0.1069 -0.3442
 2595DPPE   C2A52998  14.034  21.084  19.515 -0.4304  0.2242  0.0939
 2595DPPE   C3A52999  13.958  21.202  19.950 -0.0529 -0.2445  0.3056
 2595DPPE   C4A53000  14.049  21.166  20.304  0.2596 -0.0862  0.0437
 2595DPPE   C1B53001  14.418  20.695  19.333 -0.4294 -0.0864 -0.1477
 2595DPPE   C2B53002  14.322  20.734  19.751 -0.1973 -0.2290 -0.0928
 2595DPPE   C3B53003  14.425  20.847  20.128 -0.1939  0.0155  0.0299
 2595DPPE   C4B53004  14.386  20.905  20.530  0.3803 -0.3282 -0.0411
 2596DPPE   NH353005  17.676  19.156  18.657 -0.1361 -0.0200 -0.0252
 2596DPPE   PO453006  17.571  19.157  18.957 -0.3938  0.1385  0.0520
 2596DPPE   GL153007  17.914  19.341  19.146  0.0082  0.2821 -0.2628
 2596DPPE   GL253008  18.274  19.285  19.037 -0.2110  0.1043  0.3859
 2596DPPE   C1A53009  17.908  19.503  19.524 -0.1542 -0.2861  0.1517
 2596DPPE   C2A53010  17.983  19.630  19.926 -0.4473 -0.0624 -0.1505
 2596DPPE   C3A53011  17.893  19.645  20.417  0.1435 -0.1464 -0.1688
 2596DPPE   C4A53012  17.684  20.005  20.686 -0.0704 -0.2775 -0.0770
 2596DPPE   C1B53013  18.402  19.300  19.515  0.1140  0.1192  0.3430
 2596DPPE   C2B53014  18.540  19.470  19.927 -0.0110  0.0161  0.0786
 2596DPPE   C3B53015  18.434  19.739  20.307 -0.0385 -0.1269 -0.2702
 2596DPPE   C4B53016  18.334  19.984  20.638 -0.1655 -0.0570  0.0470
 2597DPPE   NH353017  12.504  12.898  18.116  0.0527 -0.7169 -0.2407
 2597DPPE   PO453018  12.995  12.865  18.047 -0.0782 -0.2288  0.0237
 2597DPPE   GL153019  12.804  12.622  18.449 -0.1405 -0.3848  0.0574
 2597DPPE   GL253020  12.994  12.397  18.623  0.1411  0.2128 -0.2202
 2597DPPE   C1A53021  12.757  12.637  18.946 -0.1329  0.0783  0.2112
 2597DPPE   C2A53022  12.793  12.558  19.335 -0.2606 -0.2767  0.0002
 2597DPPE   C3A53023  12.803  12.510  19.710  0.0405 -0.0876  0.1155
 2597DPPE   C4A53024  12.678  12.417  20.144  0.0687  0.0321 -0.0194
 2597DPPE   C1B53025  13.237  12.495  19.045 -0.1450  0.1213  0.3203
 2597DPPE   C2B53026  13.364  12.537  19.433 -0.0793 -0.0711  0.1416
 2597DPPE   C3B53027  13.397  12.537  19.804  0.0866 -0.1069 -0.3057
 2597DPPE   C4B53028  13.192  12.490  20.137  0.0034 -0.1781  0.0816
 2598DPPE   NH353029   7.146  15.656  18.537 -0.0937 -0.2671  0.3328
 2598DPPE   PO453030   7.519  15.835  18.501 -0.0124  0.1379  0.1167
 2598DPPE   GL153031   7.899  15.946  18.743  0.1209  0.3131 -0.2866
 2598DPPE   GL253032   8.101  15.722  18.674  0.0557  0.1341  0.1716
 2598DPPE   C1A53033   8.222  15.982  19.063 -0.1239 -0.0726  0.0850
 2598DPPE   C2A53034   8.448  15.836  19.433  0.1272 -0.2057  0.0444
 2598DPPE   C3A53035   8.414  16.045  19.873 -0.0817 -0.0798  0.2161
 2598DPPE   C4A53036   8.398  16.424  19.795 -0.0468  0.2762  0.0202
 2598DPPE   C1B53037   8.053  15.537  19.070 -0.1754 -0.0069 -0.0184
 2598DPPE   C2B53038   7.967  15.277  19.425 -0.3099  0.1896  0.1197
 2598DPPE   C3B53039   7.825  15.166  19.774  0.0091 -0.0159 -0.0245
 2598DPPE   C4B53040   7.557  15.162  20.188  0.0729  0.2672  0.1930
 2599DPPE   NH353041  17.811  20.017  18.598 -0.3234 -0.1211  0.0260
 2599DPPE   PO453042  17.650  19.652  18.857  0.0391 -0.1116 -0.4060
 2599DPPE   GL153043  17.565  19.900  19.277  0.1735  0.2146  0.3222
 2599DPPE   GL253044  17.593  20.178  19.297  0.3601  0.0629  0.2158
 2599DPPE   C1A53045  17.573  19.768  19.691 -0.0746  0.0221 -0.1972
 2599DPPE   C2A53046  17.554  19.352  19.942 -0.3379 -0.0512 -0.1466
 2599DPPE   C3A53047  17.635  19.239  20.368  0.0386 -0.1240  0.1480
 2599DPPE   C4A53048  17.512  19.482  20.729 -0.0492 -0.0719  0.1157
 2599DPPE   C1B53049  17.209  20.119  19.688  0.0477 -0.2966  0.0858
 2599DPPE   C2B53050  17.085  20.274  20.069 -0.1875 -0.0469  0.1400
 2599DPPE   C3B53051  17.094  20.477  20.551 -0.0481  0.3903  0.1361
 2599DPPE   C4B53052  17.148  20.342  20.946 -0.0468 -0.1008 -0.2604
 2600DPPE   NH353053  13.654  23.650  18.165  0.2763  0.0840 -0.0357
 2600DPPE   PO453054  14.009  23.359  18.327  0.4983 -0.2754  0.3042
 2600DPPE   GL153055  14.091  23.534  18.650  0.5592 -0.0282  0.1603
 2600DPPE   GL253056  13.912  23.802  18.684  0.2477  0.1963  0.1038
 2600DPPE   C1A53057  14.277  23.542  19.044  0.0960 -0.0385 -0.2750
 2600DPPE   C2A53058  14.411  23.739  19.390  0.2447 -0.0079  0.0571
 2600DPPE   C3A53059  14.467  23.997  19.799 -0.0745 -0.1840 -0.1611
 2600DPPE   C4A53060  14.764  24.121  20.094 -0.0645 -0.0444  0.0915
 2600DPPE   C1B53061  13.867  23.986  19.062 -0.3653 -0.3357  0.0583
 2600DPPE   C2B53062  14.063  24.082  19.501 -0.0730 -0.5570  0.1922
 2600DPPE   C3B53063  14.069  24.359  19.870 -0.0748  0.1255  0.0454
 2600DPPE   C4B53064  14.178  24.808  20.109  0.2612 -0.1085  0.1678
 2601DPPE   NH353065  11.250  10.030  18.366  0.0534  0.1657 -0.0074
 2601DPPE   PO453066  11.216   9.951  17.908 -0.0072  0.0031  0.0214
 2601DPPE   GL153067  11.195   9.480  18.110  0.0855 -0.1409  0.0118
 2601DPPE   GL253068  11.453   9.332  18.249  0.3231  0.1708 -0.0135
 2601DPPE   C1A53069  11.008   9.054  18.326 -0.2188 -0.2088  0.1828
 2601DPPE   C2A53070  10.801   8.618  18.443 -0.2239 -0.0486  0.3461
 2601DPPE   C3A53071  10.754   8.098  18.561  0.1603 -0.1797  0.0958
 2601DPPE   C4A53072  10.595   7.818  18.717 -0.1656  0.1141 -0.0425
 2601DPPE   C1B53073  11.477   8.991  18.458 -0.0970 -0.0265 -0.1806
 2601DPPE   C2B53074  11.168   8.769  18.758 -0.0730 -0.0536  0.0903
 2601DPPE   C3B53075  11.012   8.450  18.954  0.0371 -0.6883 -0.4378
 2601DPPE   C4B53076  10.674   8.601  19.374 -0.0246 -0.1293 -0.0917
 2602DPPE   NH353077  17.519  24.528  17.888 -0.2854 -0.1608  0.0159
 2602DPPE   PO453078  17.838  24.581  18.177  0.0782 -0.1688  0.0504
 2602DPPE   GL153079  18.236  24.790  18.304  0.1578 -0.0639  0.0706
 2602DPPE   GL253080  18.109  25.015  18.424  0.1667 -0.1277 -0.1634
 2602DPPE   C1A53081  18.683  24.672  18.240  0.0800  0.2757  0.1186
 2602DPPE   C2A53082  18.967  24.577  18.460  0.2121 -0.3334 -0.0229
 2602DPPE   C3A53083  19.349  24.485  18.804 -0.1352 -0.0223 -0.0254
 2602DPPE   C4A53084  19.705  24.587  19.062 -0.0788 -0.0811 -0.0003
 2602DPPE   C1B53085  18.383  25.252  18.226  0.2759 -0.1880 -0.1710
 2602DPPE   C2B53086  18.391  25.591  17.931  0.1585 -0.0241 -0.1081
 2602DPPE   C3B53087  18.822  25.812  17.762  0.2667 -0.2352 -0.3835
 2602DPPE   C4B53088  19.246  26.173  17.793  0.0847  0.4031  0.1591
 2603DPPE   NH353089  16.130  15.217  18.451  0.2581 -0.2369 -0.4682
 2603DPPE   PO453090  16.114  15.600  18.477  0.0692  0.2046  0.0463
 2603DPPE   GL153091  16.510  15.551  18.746 -0.0732 -0.0942 -0.0233
 2603DPPE   GL253092  16.658  15.170  18.685 -0.3769 -0.0214 -0.1992
 2603DPPE   C1A53093  16.431  15.635  19.212  0.0420 -0.3153  0.2016
 2603DPPE   C2A53094  16.447  15.619  19.611 -0.1519 -0.0802 -0.2311
 2603DPPE   C3A53095  16.521  15.615  19.966  0.2044 -0.1877 -0.0364
 2603DPPE   C4A53096  16.530  15.635  20.424  0.0213  0.0244  0.4448
 2603DPPE   C1B53097  16.638  15.103  19.180  0.0866  0.2154 -0.1244
 2603DPPE   C2B53098  16.708  15.133  19.594 -0.0025 -0.1812  0.4789
 2603DPPE   C3B53099  16.659  15.131  20.039  0.0424  0.1868 -0.0123
 2603DPPE   C4B53100  16.655  15.180  20.556  0.1910 -0.2016 -0.0164
 2604DPPE   NH353101  13.133  22.753  18.191 -0.0090 -0.1745 -0.0657
 2604DPPE   PO453102  12.710  22.676  18.258 -0.0796 -0.1796  0.0431
 2604DPPE   GL153103  12.568  22.721  18.655  0.0311  0.2358  0.0972
 2604DPPE   GL253104  12.571  22.404  18.730  0.1893 -0.0715  0.1184
 2604DPPE   C1A53105  12.526  22.912  19.208  0.2655  0.1868  0.1690
 2604DPPE   C2A53106  12.497  22.949  19.678 -0.2673  0.0990  0.1025
 2604DPPE   C3A53107  12.434  22.879  20.299  0.2625  0.0595 -0.2563
 2604DPPE   C4A53108  12.106  22.593  20.460  0.1625 -0.1277 -0.1548
 2604DPPE   C1B53109  12.434  22.411  19.201  0.1578 -0.2195  0.2846
 2604DPPE   C2B53110  12.391  22.459  19.641 -0.0402  0.3686  0.2055
 2604DPPE   C3B53111  12.480  22.424  20.095  0.0361  0.1598  0.0152
 2604DPPE   C4B53112  12.555  22.417  20.482 -0.1322 -0.1544  0.0660
 2605DPPE   NH353113   6.369  16.090  18.612 -0.0219 -0.1500  0.3649
 2605DPPE   PO453114   6.820  16.055  18.692  0.2141  0.0273 -0.1826
 2605DPPE   GL153115   6.598  16.068  19.095  0.1010  0.2408  0.1475
 2605DPPE   GL253116   6.418  15.793  19.228  0.0663  0.1819 -0.1077
 2605DPPE   C1A53117   6.660  16.126  19.550 -0.0874 -0.3752 -0.1597
 2605DPPE   C2A53118   6.964  15.980  19.893 -0.0246  0.0798  0.0093
 2605DPPE   C3A53119   6.798  15.631  20.118  0.0289  0.3655 -0.0877
 2605DPPE   C4A53120   6.825  15.349  20.464  0.1000 -0.1698 -0.0282
 2605DPPE   C1B53121   6.187  16.119  19.458  0.0780  0.2968  0.1781
 2605DPPE   C2B53122   5.929  16.184  19.784  0.0765  0.0021  0.1047
 2605DPPE   C3B53123   6.027  16.093  20.218 -0.1633 -0.3516  0.3584
 2605DPPE   C4B53124   6.240  15.883  20.481 -0.2296  0.0877  0.0709
 2606DPPE   NH353125  18.250  19.260  18.516  0.2554 -0.0038 -0.0328
 2606DPPE   PO453126  18.368  19.584  18.301  0.2309  0.0255  0.2902
 2606DPPE   GL153127  18.660  19.808  18.504  0.1907  0.0719  0.0561
 2606DPPE   GL253128  19.026  19.814  18.474 -0.0345  0.2160  0.2717
 2606DPPE   C1A53129  18.907  20.184  18.706 -0.2031 -0.1337 -0.3383
 2606DPPE   C2A53130  19.200  20.503  18.874 -0.4525 -0.1583 -0.1138
 2606DPPE   C3A53131  19.411  20.821  19.013 -0.3625 -0.1099  0.0515
 2606DPPE   C4A53132  19.221  21.245  19.119  0.3749  0.1427 -0.2017
 2606DPPE   C1B53133  19.300  20.111  18.283  0.0205 -0.1737 -0.3065
 2606DPPE   C2B53134  19.513  20.269  18.602  0.1770 -0.1988  0.1706
 2606DPPE   C3B53135  19.746  20.391  19.051  0.2424  0.1856 -0.2672
 2606DPPE   C4B53136  19.759  20.633  19.335  0.3393  0.1013  0.2758
 2607DPPE   NH353137   6.071  20.439  18.747  0.2850  0.0430 -0.1725
 2607DPPE   PO453138   6.408  20.720  18.899 -0.0380 -0.1732 -0.1242
 2607DPPE   GL153139   6.079  20.943  18.863 -0.2295  0.1468  0.1265
 2607DPPE   GL253140   5.918  20.695  19.106  0.0153  0.3340 -0.2810
 2607DPPE   C1A53141   5.778  21.188  19.133 -0.0343 -0.0020  0.1291
 2607DPPE   C2A53142   5.464  21.574  19.114 -0.0762 -0.1934 -0.1361
 2607DPPE   C3A53143   5.444  22.048  19.027  0.1534  0.5682 -0.0035
 2607DPPE   C4A53144   5.147  22.281  18.800 -0.0266  0.0752 -0.0732
 2607DPPE   C1B53145   5.568  20.774  19.285  0.2713 -0.2430  0.1303
 2607DPPE   C2B53146   5.236  21.037  19.152  0.0154  0.3150  0.0334
 2607DPPE   C3B53147   4.975  21.383  19.062  0.0613  0.1270 -0.1125
 2607DPPE   C4B53148   4.972  21.837  18.869  0.3206 -0.0194 -0.0378
 2608DPPE   NH353149   9.381  22.228  18.930  0.2592  0.1449 -0.0941
 2608DPPE   PO453150   9.683  22.463  18.807  0.1812 -0.0459  0.3369
 2608DPPE   GL153151   9.739  22.447  19.252  0.1414 -0.0812 -0.0639
 2608DPPE   GL253152   9.784  22.629  19.578 -0.1022  0.1033 -0.0073
 2608DPPE   C1A53153   9.571  22.244  19.778  0.1652 -0.1546 -0.1015
 2608DPPE   C2A53154   9.251  22.210  20.125  0.1564 -0.0444 -0.0647
 2608DPPE   C3A53155   9.087  22.177  20.606 -0.2492  0.3334  0.0220
 2608DPPE   C4A53156   8.775  22.086  20.982 -0.0327 -0.0112 -0.2036
 2608DPPE   C1B53157   9.856  22.560  20.088 -0.0183 -0.1142 -0.0743
 2608DPPE   C2B53158   9.807  22.566  20.539  0.0209 -0.1558  0.0183
 2608DPPE   C3B53159   9.897  22.536  20.943  0.1940  0.3290  0.0970
 2608DPPE   C4B53160  10.108  22.321  21.235  0.0838 -0.1586 -0.0123
 2609DPPE   NH353161  10.847  24.045  18.508 -0.4029  0.0708 -0.0327
 2609DPPE   PO453162  11.276  23.875  18.642  0.2533  0.0324  0.0149
 2609DPPE   GL153163  11.426  23.799  19.008  0.1798 -0.1415  0.0335
 2609DPPE   GL253164  11.788  23.678  19.010 -0.1318  0.0461 -0.1142
 2609DPPE   C1A53165  11.483  23.950  19.326  0.3799 -0.1689  0.0366
 2609DPPE   C2A53166  11.606  24.066  19.767 -0.0293  0.1486  0.0883
 2609DPPE   C3A53167  11.665  24.240  20.189 -0.0349  0.2898  0.2740
 2609DPPE   C4A53168  11.630  24.430  20.596  0.2204  0.2016  0.1693
 2609DPPE   C1B53169  11.871  23.598  19.361  0.1119 -0.1546 -0.1200
 2609DPPE   C2B53170  11.820  23.647  19.795  0.1656  0.0448 -0.1259
 2609DPPE   C3B53171  11.773  23.768  20.214 -0.2498  0.2255 -0.1651
 2609DPPE   C4B53172  11.456  23.811  20.487  0.0333 -0.2164  0.1691
 2610DPPE   NH353173   7.254  16.620  18.313 -0.3714 -0.1034  0.0581
 2610DPPE   PO453174   6.974  16.907  18.398 -0.1482 -0.1520 -0.2522
 2610DPPE   GL153175   6.891  16.624  18.830 -0.1868 -0.1414  0.2689
 2610DPPE   GL253176   7.211  16.350  18.792 -0.0001 -0.1276  0.1705
 2610DPPE   C1A53177   7.002  16.470  19.244 -0.1430 -0.4065  0.2023
 2610DPPE   C2A53178   7.223  16.369  19.584  0.3071  0.1451 -0.2282
 2610DPPE   C3A53179   7.093  16.382  20.175 -0.1345 -0.0710 -0.1097
 2610DPPE   C4A53180   7.153  16.018  20.476 -0.0961 -0.1619 -0.0562
 2610DPPE   C1B53181   7.468  16.298  19.159  0.2509 -0.1302  0.0460
 2610DPPE   C2B53182   7.803  16.221  19.181  0.0864 -0.0276  0.0035
 2610DPPE   C3B53183   8.005  16.250  19.525 -0.0779  0.2039  0.2657
 2610DPPE   C4B53184   7.948  16.245  19.976  0.3084 -0.0135 -0.2160
 2611DPPE   NH353185   6.544  16.991  18.831 -0.0011 -0.4330 -0.2797
 2611DPPE   PO453186   6.382  16.523  18.815 -0.2120 -0.1916  0.0961
 2611DPPE   GL153187   6.485  16.498  19.228  0.0889 -0.0091 -0.3308
 2611DPPE   GL253188   6.609  16.772  19.350 -0.2753 -0.1570 -0.0888
 2611DPPE   C1A53189   6.295  16.584  19.723 -0.1899 -0.1868 -0.1178
 2611DPPE   C2A53190   6.109  16.601  20.053 -0.0467  0.0470 -0.3062
 2611DPPE   C3A53191   6.050  16.657  20.455  0.0220 -0.0949 -0.0506
 2611DPPE   C4A53192   5.746  16.491  20.715  0.1271  0.1031  0.2710
 2611DPPE   C1B53193   6.462  17.026  19.775 -0.0626  0.0369  0.1458
 2611DPPE   C2B53194   6.503  16.886  20.174 -0.1711  0.0331 -0.0461
 2611DPPE   C3B53195   6.481  17.155  20.558  0.1894 -0.3819 -0.2070
 2611DPPE   C4B53196   6.344  17.395  20.845 -0.1716 -0.0995 -0.2001
 2612DPPE   NH353197   8.424  12.063  18.931 -0.0899  0.4086  0.0039
 2612DPPE   PO453198   8.088  11.841  18.740  0.5156  0.0186  0.3995
 2612DPPE   GL153199   7.934  11.704  19.113 -0.1002  0.1104 -0.0873
 2612DPPE   GL253200   7.692  11.463  19.135  0.0103  0.2253 -0.0764
 2612DPPE   C1A53201   7.995  11.738  19.408 -0.0201 -0.0550 -0.0525
 2612DPPE   C2A53202   8.051  11.858  19.875  0.3177 -0.0226 -0.1107
 2612DPPE   C3A53203   8.211  12.044  20.158  0.0804  0.1774 -0.2223
 2612DPPE   C4A53204   8.419  12.350  20.198 -0.1660  0.4006  0.0909
 2612DPPE   C1B53205   7.266  11.367  19.376 -0.2028  0.1662 -0.4739
 2612DPPE   C2B53206   6.850  11.241  19.609 -0.0946  0.2049  0.1539
 2612DPPE   C3B53207   6.576  11.375  19.944 -0.2463 -0.0983  0.2120
 2612DPPE   C4B53208   6.722  11.509  20.398 -0.0626 -0.3128  0.1123
 2613DPPE   NH353209  15.286  10.955  17.802 -0.0021 -0.3805  0.0455
 2613DPPE   PO453210  15.170  10.573  17.980  0.1460  0.0509 -0.2098
 2613DPPE   GL153211  15.248  10.367  18.408 -0.2487  0.0269 -0.1168
 2613DPPE   GL253212  15.185   9.981  18.433  0.3696  0.2640  0.1207
 2613DPPE   C1A53213  15.395  10.233  18.843 -0.2987  0.3004 -0.0125
 2613DPPE   C2A53214  15.501  10.299  19.250  0.0159 -0.1969 -0.0147
 2613DPPE   C3A53215  15.376  10.748  19.498 -0.0695 -0.2561 -0.1653
 2613DPPE   C4A53216  15.360  10.761  19.958  0.1135  0.0636 -0.1485
 2613DPPE   C1B53217  15.142   9.699  18.806  0.0105 -0.0863 -0.1189
 2613DPPE   C2B53218  15.124   9.620  19.270  0.2298 -0.0209  0.1459
 2613DPPE   C3B53219  15.267   9.933  19.610  0.0559 -0.1783 -0.1095
 2613DPPE   C4B53220  15.529  10.203  19.788 -0.1207  0.2506  0.1996
 2614DPPE   NH353221   8.198  21.462  18.932  0.1833 -0.0624  0.0426
 2614DPPE   PO453222   7.858  21.640  18.866  0.3609  0.0182 -0.0692
 2614DPPE   GL153223   7.601  21.631  19.253 -0.2886 -0.0942 -0.1161
 2614DPPE   GL253224   7.385  21.898  19.354  0.3058  0.1998  0.1908
 2614DPPE   C1A53225   7.545  21.425  19.581  0.3095 -0.0023  0.0083
 2614DPPE   C2A53226   7.280  21.407  19.931 -0.1929 -0.0126 -0.0244
 2614DPPE   C3A53227   7.294  21.401  20.354 -0.0357 -0.0199  0.0073
 2614DPPE   C4A53228   7.298  21.170  20.702 -0.1378  0.0561 -0.3222
 2614DPPE   C1B53229   7.309  21.990  19.783 -0.2539  0.2493 -0.5238
 2614DPPE   C2B53230   7.019  21.833  20.181 -0.1264 -0.1461  0.1742
 2614DPPE   C3B53231   6.539  21.825  20.106  0.0755  0.5012 -0.0507
 2614DPPE   C4B53232   6.147  21.796  19.903 -0.3216  0.1338 -0.0819
 2615DPPE   NH353233  10.138  18.877  18.588  0.0082  0.0381 -0.0915
 2615DPPE   PO453234   9.754  19.078  18.630  0.1053 -0.1832  0.1320
 2615DPPE   GL153235   9.942  19.248  18.962  0.0711 -0.0286 -0.2592
 2615DPPE   GL253236  10.124  19.034  19.046  0.2195 -0.0499  0.1101
 2615DPPE   C1A53237  10.012  19.410  19.345  0.0572  0.0185  0.0573
 2615DPPE   C2A53238   9.948  19.386  19.708  0.3233  0.3307  0.0612
 2615DPPE   C3A53239   9.695  19.467  20.035 -0.2199 -0.0603 -0.0305
 2615DPPE   C4A53240   9.587  19.565  20.473  0.2763 -0.0142  0.0973
 2615DPPE   C1B53241  10.298  18.884  19.359  0.1096  0.3169 -0.1389
 2615DPPE   C2B53242  10.370  18.930  19.753 -0.0272  0.4664  0.3499
 2615DPPE   C3B53243  10.415  19.079  20.216  0.0926 -0.0017 -0.0716
 2615DPPE   C4B53244  10.412  19.145  20.677 -0.0360  0.1952  0.2963
 2616DPPE   NH353245  12.166  20.908  18.473 -0.0375 -0.0974 -0.0037
 2616DPPE   PO453246  11.774  21.145  18.457 -0.0949  0.1096 -0.1777
 2616DPPE   GL153247  11.939  21.143  18.841  0.0959  0.3506  0.1266
 2616DPPE   GL253248  12.175  21.383  18.736 -0.0421 -0.1783  0.1073
 2616DPPE   C1A53249  11.737  21.205  19.285  0.4082 -0.4758  0.1745
 2616DPPE   C2A53250  11.697  21.305  19.759 -0.1164  0.0435  0.3055
 2616DPPE   C3A53251  11.752  21.349  20.197  0.2576  0.0675  0.3025
 2616DPPE   C4A53252  11.746  21.494  20.548  0.1098  0.0073  0.1018
 2616DPPE   C1B53253  12.283  21.416  19.144 -0.2372  0.2305 -0.0192
 2616DPPE   C2B53254  12.313  21.434  19.588 -0.1530 -0.0042 -0.0122
 2616DPPE   C3B53255  12.307  21.537  20.110 -0.1231 -0.0459 -0.0669
 2616DPPE   C4B53256  12.270  21.526  20.597 -0.1392  0.0378 -0.1208
 2617DPPE   NH353257   8.208  20.442  19.109 -0.1266  0.1097 -0.1628
 2617DPPE   PO453258   8.223  20.024  19.206 -0.0459  0.0580 -0.4694
 2617DPPE   GL153259   8.029  19.941  19.539 -0.1857  0.1996 -0.0933
 2617DPPE   GL253260   8.063  20.255  19.601  0.3890  0.2125 -0.4446
 2617DPPE   C1A53261   7.763  19.924  19.925  0.1010 -0.2128 -0.4373
 2617DPPE   C2A53262   7.647  19.824  20.367 -0.0869 -0.2010 -0.0939
 2617DPPE   C3A53263   7.558  19.770  20.834  0.2075  0.3636 -0.2939
 2617DPPE   C4A53264   7.514  19.677  21.261 -0.1339 -0.0057 -0.1260
 2617DPPE   C1B53265   8.082  20.296  20.008  0.2633  0.0791  0.0040
 2617DPPE   C2B53266   8.253  20.241  20.473 -0.1957  0.1609  0.2548
 2617DPPE   C3B53267   8.573  20.068  20.735  0.1856 -0.1850 -0.3279
 2617DPPE   C4B53268   8.759  19.995  21.103 -0.3026  0.2203 -0.1336
 2618DPPE   NH353269   9.063  23.589  18.929  0.0542 -0.2515  0.2383
 2618DPPE   PO453270   9.134  24.136  18.881 -0.0953  0.5572  0.1567
 2618DPPE   GL153271   8.993  24.545  18.840  0.2043  0.0672  0.0309
 2618DPPE   GL253272   8.793  24.861  18.735  0.1534  0.0798 -0.2102
 2618DPPE   C1A53273   9.092  24.880  19.106  0.1775  0.0407  0.1084
 2618DPPE   C2A53274   9.284  25.057  19.578  0.2245  0.2385  0.0220
 2618DPPE   C3A53275   9.588  25.293  19.878  0.0466 -0.1988 -0.0087
 2618DPPE   C4A53276   9.742  25.636  20.237 -0.2264  0.0725 -0.0271
 2618DPPE   C1B53277   8.543  25.158  19.058  0.2041  0.1295  0.0701
 2618DPPE   C2B53278   8.211  25.208  19.156 -0.1416 -0.0968 -0.3000
 2618DPPE   C3B53279   7.875  24.949  18.999  0.1873 -0.1031  0.2151
 2618DPPE   C4B53280   7.558  24.664  19.271 -0.3313  0.0454 -0.0277
 2619DPPE   NH353281  13.539  20.683  18.276  0.3248 -0.0223 -0.3233
 2619DPPE   PO453282  13.220  20.855  18.323  0.0906 -0.5038 -0.0280
 2619DPPE   GL153283  13.193  21.018  18.725  0.2207  0.4144  0.1516
 2619DPPE   GL253284  13.065  20.827  18.859 -0.3757  0.0449 -0.0786
 2619DPPE   C1A53285  13.082  21.258  19.070 -0.4245 -0.2676 -0.2412
 2619DPPE   C2A53286  13.157  21.325  19.466 -0.4295 -0.0228  0.0689
 2619DPPE   C3A53287  13.071  21.301  19.866 -0.4535  0.0339 -0.0302
 2619DPPE   C4A53288  13.117  21.271  20.391  0.0867 -0.0354 -0.0780
 2619DPPE   C1B53289  13.090  20.698  19.292  0.2641  0.2266 -0.0030
 2619DPPE   C2B53290  12.984  20.699  19.683  0.1726  0.0037  0.0946
 2619DPPE   C3B53291  13.033  20.851  20.139  0.2057  0.1216 -0.0704
 2619DPPE   C4B53292  12.932  20.825  20.559  0.0448 -0.0322  0.0865
 2620DPPE   NH353293  17.390  19.791  18.418  0.0247 -0.0472  0.0040
 2620DPPE   PO453294  17.846  19.578  18.420  0.0322 -0.2349  0.2625
 2620DPPE   GL153295  18.168  19.670  18.750  0.1627  0.0787 -0.1522
 2620DPPE   GL253296  18.079  19.830  19.055  0.0127 -0.1658 -0.1250
 2620DPPE   C1A53297  18.570  19.807  19.129 -0.2869 -0.1383  0.2106
 2620DPPE   C2A53298  18.916  19.652  19.428 -0.2844  0.4491  0.1021
 2620DPPE   C3A53299  19.037  19.467  19.859 -0.5786  0.5481 -0.0071
 2620DPPE   C4A53300  19.107  19.185  20.105  0.1449 -0.0674  0.1935
 2620DPPE   C1B53301  18.080  19.971  19.425  0.1266  0.0363  0.0449
 2620DPPE   C2B53302  18.339  19.965  19.750  0.0932 -0.1521  0.0399
 2620DPPE   C3B53303  18.795  19.929  19.883 -0.0185  0.3599 -0.1185
 2620DPPE   C4B53304  19.127  19.997  19.642 -0.0906  0.4138 -0.3729
 2621DPPE   NH353305   7.741  19.313  18.840  0.0512 -0.1331  0.0384
 2621DPPE   PO453306   8.164  19.579  18.878 -0.0788 -0.1998  0.1560
 2621DPPE   GL153307   8.144  19.530  19.275  0.1049 -0.3110  0.0559
 2621DPPE   GL253308   7.938  19.283  19.380  0.1481 -0.0472  0.1308
 2621DPPE   C1A53309   8.084  19.527  19.775  0.0092 -0.1233 -0.2673
 2621DPPE   C2A53310   8.103  19.353  20.209 -0.0347  0.1251  0.0664
 2621DPPE   C3A53311   7.828  19.395  20.673  0.0020  0.1067 -0.3866
 2621DPPE   C4A53312   7.576  19.201  21.001  0.2492  0.1403 -0.0481
 2621DPPE   C1B53313   7.877  19.105  19.744 -0.2144 -0.1569  0.1496
 2621DPPE   C2B53314   8.107  18.668  19.799 -0.0785  0.1804 -0.0917
 2621DPPE   C3B53315   8.563  18.548  19.749  0.0700 -0.1202  0.0869
 2621DPPE   C4B53316   8.785  18.571  19.344  0.2667  0.0611  0.1620
 2622DPPE   NH353317  11.887  11.011  18.506  0.0028 -0.0042 -0.2895
 2622DPPE   PO453318  12.232  10.999  18.450  0.1952 -0.2666 -0.2456
 2622DPPE   GL153319  12.525  10.993  18.840  0.1758  0.3148  0.0043
 2622DPPE   GL253320  12.555  10.683  18.784 -0.0970  0.2407 -0.1348
 2622DPPE   C1A53321  12.553  10.872  19.313  0.0802  0.1755  0.1320
 2622DPPE   C2A53322  12.586  10.524  19.595  0.0445 -0.0588 -0.0442
 2622DPPE   C3A53323  12.705  10.133  19.844  0.0687  0.2771  0.2141
 2622DPPE   C4A53324  12.696  10.126  20.205 -0.1126  0.4898  0.3001
 2622DPPE   C1B53325  12.419  10.397  19.159  0.0602 -0.1455 -0.1814
 2622DPPE   C2B53326  12.462  10.076  19.397 -0.2870  0.2216  0.1922
 2622DPPE   C3B53327  12.387   9.710  19.619  0.0485  0.3184 -0.0612
 2622DPPE   C4B53328  12.506   9.577  20.004  0.0787  0.1794 -0.2058
 2623DPPE   NH353329  14.587   9.860  18.167 -0.1799  0.1007 -0.2555
 2623DPPE   PO453330  14.131   9.852  18.083  0.3506  0.1820  0.0520
 2623DPPE   GL153331  14.194   9.583  18.382 -0.1412 -0.1487  0.1920
 2623DPPE   GL253332  14.445   9.457  18.430  0.0788 -0.1440  0.0971
 2623DPPE   C1A53333  14.110   9.542  18.827 -0.0290  0.2006  0.3525
 2623DPPE   C2A53334  13.925   9.169  19.099 -0.0771  0.0037  0.0334
 2623DPPE   C3A53335  14.127   8.932  19.462 -0.2042  0.0217  0.0478
 2623DPPE   C4A53336  14.036   8.502  19.741  0.1363  0.1149  0.2507
 2623DPPE   C1B53337  14.639   9.351  18.838 -0.0866 -0.0514  0.0995
 2623DPPE   C2B53338  14.860   9.272  19.193  0.4766 -0.0626 -0.0747
 2623DPPE   C3B53339  14.968   9.280  19.630  0.4795  0.0549 -0.3112
 2623DPPE   C4B53340  15.081   9.541  19.861  0.0362 -0.0783 -0.0121
 2624DPPE   NH353341  16.820  13.472  17.760 -0.1944  0.2309  0.1932
 2624DPPE   PO453342  16.704  13.485  18.245 -0.0644 -0.1110  0.0849
 2624DPPE   GL153343  16.830  13.431  18.660  0.4407  0.0631 -0.3121
 2624DPPE   GL253344  17.140  13.579  18.744  0.1327  0.1826  0.2580
 2624DPPE   C1A53345  16.920  13.242  19.142  0.0326  0.1223  0.0291
 2624DPPE   C2A53346  16.830  13.242  19.650 -0.1759 -0.3379 -0.0901
 2624DPPE   C3A53347  16.954  13.221  19.982  0.0134 -0.1204 -0.0982
 2624DPPE   C4A53348  17.225  13.049  20.315  0.0362 -0.0618 -0.1451
 2624DPPE   C1B53349  17.205  13.632  19.129  0.3112 -0.0598 -0.0077
 2624DPPE   C2B53350  17.274  13.762  19.611  0.2507  0.2445 -0.3323
 2624DPPE   C3B53351  17.324  13.643  20.142 -0.0235  0.0041 -0.1235
 2624DPPE   C4B53352  17.523  13.398  20.423 -0.3478 -0.3353 -0.1092
 2625DPPE   NH353353  11.543  23.280  17.659 -0.1679  0.1968 -0.3259
 2625DPPE   PO453354  11.853  23.093  17.994 -0.0837 -0.0054 -0.1258
 2625DPPE   GL153355  11.999  23.291  18.435  0.3933 -0.2490 -0.2407
 2625DPPE   GL253356  11.765  23.234  18.685 -0.2494  0.0767 -0.1600
 2625DPPE   C1A53357  12.202  23.214  18.796 -0.2848  0.0252  0.1604
 2625DPPE   C2A53358  12.133  23.206  19.290  0.3552  0.1191 -0.0037
 2625DPPE   C3A53359  12.086  23.272  19.711 -0.2015  0.2574 -0.1540
 2625DPPE   C4A53360  12.112  23.210  20.149 -0.0430 -0.2605 -0.0845
 2625DPPE   C1B53361  11.689  23.018  19.025  0.1912  0.1372  0.1165
 2625DPPE   C2B53362  11.659  23.065  19.481 -0.1275  0.2377  0.0509
 2625DPPE   C3B53363  11.622  23.233  19.902  0.0589 -0.1105 -0.0943
 2625DPPE   C4B53364  11.601  23.312  20.365  0.4336  0.2813  0.3822
 2626DPPE   NH353365  12.170  21.733  17.909  0.0281 -0.2938 -0.3915
 2626DPPE   PO453366  12.516  21.587  18.330 -0.0682 -0.0794 -0.0639
 2626DPPE   GL153367  12.606  21.699  18.708 -0.1465 -0.3106  0.1139
 2626DPPE   GL253368  12.677  21.509  18.869  0.2263  0.3475 -0.2994
 2626DPPE   C1A53369  12.435  21.975  19.016 -0.1049  0.1176 -0.0857
 2626DPPE   C2A53370  12.287  21.961  19.521 -0.0348  0.0341 -0.0415
 2626DPPE   C3A53371  12.359  21.978  19.949 -0.0869  0.1843  0.1039
 2626DPPE   C4A53372  12.329  22.027  20.385 -0.3627  0.1900 -0.1050
 2626DPPE   C1B53373  12.751  21.624  19.259  0.0857  0.0459 -0.0085
 2626DPPE   C2B53374  12.758  21.669  19.669 -0.0053 -0.0738  0.0706
 2626DPPE   C3B53375  12.787  21.623  20.184 -0.3164  0.1770  0.1940
 2626DPPE   C4B53376  12.809  21.768  20.578  0.0131  0.4394 -0.1366
 2627DPPE   NH353377   9.425  23.031  18.636 -0.1126  0.1674  0.4921
 2627DPPE   PO453378   9.051  23.100  18.795 -0.0667 -0.0613 -0.0984
 2627DPPE   GL153379   8.983  23.024  19.308 -0.2807 -0.0423 -0.0080
 2627DPPE   GL253380   9.223  23.032  19.541  0.0414 -0.0422  0.3069
 2627DPPE   C1A53381   8.820  23.009  19.770 -0.3698  0.1345  0.0557
 2627DPPE   C2A53382   8.392  23.182  20.003  0.1244  0.0516 -0.0837
 2627DPPE   C3A53383   8.222  23.560  20.144 -0.0968  0.1715 -0.1352
 2627DPPE   C4A53384   8.328  23.918  19.979  0.0630  0.2073  0.0521
 2627DPPE   C1B53385   9.356  22.835  19.896  0.0047  0.0417  0.0252
 2627DPPE   C2B53386   9.320  22.664  20.319  0.1982  0.1294  0.3537
 2627DPPE   C3B53387   9.352  22.586  20.758 -0.0626 -0.0085  0.0438
 2627DPPE   C4B53388   9.018  22.485  21.134 -0.2304 -0.1622  0.0426
 2628DPPE   NH353389   8.317  18.778  18.451 -0.0228  0.1404  0.3538
 2628DPPE   PO453390   8.291  18.330  18.511  0.3933  0.1606 -0.0640
 2628DPPE   GL153391   8.567  18.106  18.726 -0.1134  0.1361 -0.2074
 2628DPPE   GL253392   8.367  18.080  18.961  0.0584 -0.1275 -0.3355
 2628DPPE   C1A53393   8.964  17.908  18.969 -0.1276  0.0041 -0.3722
 2628DPPE   C2A53394   9.227  17.856  19.238  0.2328 -0.1832 -0.1190
 2628DPPE   C3A53395   9.596  17.813  19.416  0.2617 -0.2092 -0.0588
 2628DPPE   C4A53396   9.752  17.655  19.849 -0.3310  0.0821  0.0050
 2628DPPE   C1B53397   8.601  18.093  19.426  0.1277  0.1456 -0.2926
 2628DPPE   C2B53398   9.103  18.246  19.550  0.3175  0.0008  0.0537
 2628DPPE   C3B53399   9.394  18.047  19.893 -0.1715 -0.1122 -0.4819
 2628DPPE   C4B53400   9.606  17.945  20.182  0.0309  0.0529 -0.3226
 2629DPPE   NH353401  16.763  17.489  19.297 -0.1601  0.4520 -0.2827
 2629DPPE   PO453402  16.274  17.469  19.247  0.0918  0.2181  0.1786
 2629DPPE   GL153403  16.407  17.401  19.640 -0.4328 -0.1351  0.0795
 2629DPPE   GL253404  16.360  17.111  19.687  0.1681  0.4180  0.1709
 2629DPPE   C1A53405  16.306  17.416  20.095  0.0792  0.0588 -0.0564
 2629DPPE   C2A53406  16.285  17.517  20.520  0.4510 -0.3426  0.3254
 2629DPPE   C3A53407  16.222  17.789  20.957 -0.4254 -0.2014  0.1207
 2629DPPE   C4A53408  16.316  18.048  21.449  0.0028  0.0363  0.1911
 2629DPPE   C1B53409  16.428  16.931  20.083  0.1057  0.1514 -0.0224
 2629DPPE   C2B53410  16.513  16.997  20.558 -0.1229 -0.2030  0.0477
 2629DPPE   C3B53411  16.650  16.926  21.033  0.0224 -0.0296  0.0243
 2629DPPE   C4B53412  17.013  17.110  21.265  0.3187  0.0936 -0.0713
 2630DPPE   NH353413  13.267  14.683  18.471 -0.0501 -0.1269 -0.0791
 2630DPPE   PO453414  13.289  15.200  18.515  0.2862  0.1095  0.1329
 2630DPPE   GL153415  13.220  15.357  18.995  0.2190  0.2762 -0.2370
 2630DPPE   GL253416  13.198  15.661  19.047  0.0007  0.1952 -0.1191
 2630DPPE   C1A53417  13.294  15.284  19.408 -0.1103  0.0836 -0.0043
 2630DPPE   C2A53418  13.335  15.215  19.780  0.2063  0.2419  0.0969
 2630DPPE   C3A53419  13.343  15.105  20.260  0.0871  0.1351  0.2373
 2630DPPE   C4A53420  13.233  14.984  20.697  0.0923  0.0112  0.0771
 2630DPPE   C1B53421  13.095  15.799  19.486  0.1980  0.2987 -0.0343
 2630DPPE   C2B53422  13.174  15.726  19.918  0.3243  0.0243  0.0012
 2630DPPE   C3B53423  13.155  15.789  20.297 -0.1240 -0.1181  0.0411
 2630DPPE   C4B53424  13.096  15.662  20.686  0.4813 -0.1589 -0.0417
 2631DPPE   NH353425  16.200  17.877  18.615 -0.1576 -0.2718  0.1839
 2631DPPE   PO453426  16.619  17.778  18.937 -0.1486 -0.2492 -0.1505
 2631DPPE   GL153427  16.535  17.934  19.334 -0.1761  0.1129  0.1311
 2631DPPE   GL253428  16.695  18.122  19.372  0.0351  0.2079  0.1026
 2631DPPE   C1A53429  16.291  17.991  19.698  0.3471  0.0818 -0.4184
 2631DPPE   C2A53430  16.202  17.936  20.075 -0.0284 -0.2805 -0.2560
 2631DPPE   C3A53431  16.228  18.222  20.395 -0.0402 -0.2524  0.2483
 2631DPPE   C4A53432  16.449  18.278  20.881 -0.2105 -0.0785 -0.2214
 2631DPPE   C1B53433  16.697  18.199  19.807 -0.1477 -0.3323  0.3119
 2631DPPE   C2B53434  16.729  18.318  20.268 -0.3344  0.0884  0.0956
 2631DPPE   C3B53435  16.927  18.358  20.628  0.0766 -0.2661 -0.0320
 2631DPPE   C4B53436  17.208  18.388  20.775 -0.3760 -0.4443 -0.3867
 2632DPPE   NH353437   9.426  11.365  18.672  0.2822 -0.0986 -0.0830
 2632DPPE   PO453438   9.586  11.182  19.000  0.0937 -0.1270  0.0029
 2632DPPE   GL153439   9.681  10.974  19.433 -0.2023 -0.0072 -0.0622
 2632DPPE   GL253440   9.680  10.699  19.502  0.1397  0.0694  0.1092
 2632DPPE   C1A53441   9.786  11.090  19.893  0.0270  0.4249 -0.3202
 2632DPPE   C2A53442   9.748  11.075  20.386  0.4349  0.0218  0.2365
 2632DPPE   C3A53443   9.462  11.049  20.704 -0.0063 -0.0869  0.2325
 2632DPPE   C4A53444   9.186  10.677  20.815 -0.0797  0.0885  0.0306
 2632DPPE   C1B53445   9.738  10.539  19.929 -0.2096  0.2358  0.0346
 2632DPPE   C2B53446  10.025  10.486  20.267 -0.1707  0.4301  0.2154
 2632DPPE   C3B53447  10.337  10.393  20.441  0.1374  0.1153  0.0692
 2632DPPE   C4B53448  10.611  10.552  20.741 -0.0230  0.1149  0.1013
 2633DPPE   NH353449  11.283  25.075  17.336 -0.3735  0.3695  0.0612
 2633DPPE   PO453450  11.128  25.378  17.699 -0.0271  0.0231 -0.1927
 2633DPPE   GL153451  11.303  25.803  17.777 -0.0551 -0.2557 -0.2422
 2633DPPE   GL253452  11.688  25.877  17.716  0.1165 -0.1429  0.1987
 2633DPPE   C1A53453  11.027  26.157  18.124 -0.1573 -0.0562 -0.2154
 2633DPPE   C2A53454  10.742  26.440  18.315 -0.2167 -0.0468  0.3149
 2633DPPE   C3A53455  10.334  26.522  18.422 -0.0243  0.0030  0.1696
 2633DPPE   C4A53456   9.973  26.387  18.364 -0.2409  0.2955  0.0805
 2633DPPE   C1B53457  11.431  26.243  17.439  0.0445 -0.2790  0.1421
 2633DPPE   C2B53458  11.465  26.679  17.592  0.0444  0.1421 -0.0163
 2633DPPE   C3B53459  11.777  26.907  17.513 -0.1094  0.0155 -0.1874
 2633DPPE   C4B53460  12.100  27.053  17.180  0.1095  0.1113 -0.0274
 2634DPPE   NH353461  14.358  24.275  18.045 -0.3607 -0.1492 -0.1747
 2634DPPE   PO453462  14.707  24.291  17.943  0.1460 -0.2632  0.1195
 2634DPPE   GL153463  14.706  24.315  18.373  0.1541  0.1621  0.0634
 2634DPPE   GL253464  14.689  24.694  18.359 -0.3514 -0.2110  0.0118
 2634DPPE   C1A53465  14.584  24.610  18.797  0.0727  0.0078  0.1922
 2634DPPE   C2A53466  14.499  24.964  19.063  0.3146 -0.2007  0.0548
 2634DPPE   C3A53467  14.186  25.140  19.195 -0.2560 -0.3523 -0.0764
 2634DPPE   C4A53468  13.784  25.059  19.366 -0.0886  0.1977  0.0742
 2634DPPE   C1B53469  14.780  25.056  18.687  0.2170 -0.2191  0.2386
 2634DPPE   C2B53470  14.977  25.402  18.680 -0.1965 -0.0201  0.3560
 2634DPPE   C3B53471  15.358  25.657  18.543 -0.0831  0.2561 -0.2601
 2634DPPE   C4B53472  15.636  26.034  18.413  0.0093 -0.2866 -0.4341
 2635DPPE   NH353473  16.792  16.617  18.582 -0.1537 -0.0486  0.0148
 2635DPPE   PO453474  16.821  16.038  18.517  0.2022  0.1640  0.0639
 2635DPPE   GL153475  16.917  15.851  18.923  0.2532 -0.2284  0.1706
 2635DPPE   GL253476  16.746  16.244  18.962  0.0999 -0.0567  0.2212
 2635DPPE   C1A53477  16.920  15.600  19.348  0.1229  0.0700  0.1849
 2635DPPE   C2A53478  16.978  15.580  19.795  0.1718 -0.0921 -0.0709
 2635DPPE   C3A53479  16.972  15.530  20.190 -0.2488  0.1434 -0.0769
 2635DPPE   C4A53480  17.096  15.438  20.639 -0.0989  0.1402 -0.3262
 2635DPPE   C1B53481  16.743  16.146  19.323  0.3196 -0.1622  0.3038
 2635DPPE   C2B53482  16.733  16.011  19.692 -0.1021  0.0722 -0.1920
 2635DPPE   C3B53483  16.889  16.087  20.169 -0.2821  0.0515 -0.0139
 2635DPPE   C4B53484  17.107  16.258  20.391 -0.1144  0.3776  0.3923
 2636DPPE   NH353485  16.618  15.291  18.222 -0.0155 -0.3700 -0.1667
 2636DPPE   PO453486  16.989  15.453  18.418  0.1011 -0.1916  0.1485
 2636DPPE   GL153487  17.113  15.322  18.872  0.1011  0.0336  0.2448
 2636DPPE   GL253488  17.355  15.590  18.947 -0.2751  0.1505  0.4361
 2636DPPE   C1A53489  17.220  15.107  19.275  0.1866 -0.0831 -0.0071
 2636DPPE   C2A53490  17.116  15.040  19.749 -0.1020 -0.2193  0.0459
 2636DPPE   C3A53491  17.077  15.055  20.219  0.0237  0.3360 -0.0705
 2636DPPE   C4A53492  17.249  14.952  20.580  0.3603  0.2285  0.2440
 2636DPPE   C1B53493  17.413  15.613  19.462  0.0065  0.0726 -0.0821
 2636DPPE   C2B53494  17.472  15.598  20.006  0.2481 -0.2796  0.0536
 2636DPPE   C3B53495  17.419  15.860  20.465  0.0721 -0.1415 -0.1233
 2636DPPE   C4B53496  17.254  16.049  20.861  0.1922 -0.2674  0.1336
 2637DPPE   NH353497   9.656  15.073  18.539  0.2861 -0.2406 -0.2862
 2637DPPE   PO453498   9.900  14.664  18.495  0.1261  0.0221 -0.2866
 2637DPPE   GL153499  10.100  14.924  18.877 -0.0774  0.1522  0.1576
 2637DPPE   GL253500  10.228  15.197  18.695 -0.0715 -0.1155  0.0686
 2637DPPE   C1A53501  10.066  14.985  19.208  0.2746  0.0689  0.0047
 2637DPPE   C2A53502  10.108  14.925  19.663  0.0655  0.0456 -0.0464
 2637DPPE   C3A53503  10.107  14.854  20.112 -0.0709  0.0948  0.0239
 2637DPPE   C4A53504  10.028  14.969  20.569 -0.4078  0.0963  0.0371
 2637DPPE   C1B53505  10.283  15.400  19.004 -0.0445 -0.1770  0.1714
 2637DPPE   C2B53506  10.391  15.339  19.371  0.1686 -0.3169  0.1476
 2637DPPE   C3B53507  10.491  15.195  19.805 -0.1455 -0.0124 -0.2616
 2637DPPE   C4B53508  10.451  15.164  20.347  0.2495 -0.0595 -0.0819
 2638DPPE   NH353509   9.499  25.184  18.267 -0.0107 -0.0491 -0.3987
 2638DPPE   PO453510   9.455  24.980  17.851  0.2305  0.1802  0.2594
 2638DPPE   GL153511   9.357  24.854  17.365 -0.0036  0.0400  0.3469
 2638DPPE   GL253512   9.604  24.733  17.102 -0.0897  0.0965  0.0681
 2638DPPE   C1A53513   9.004  25.084  17.072 -0.2964 -0.0224  0.1985
 2638DPPE   C2A53514   8.715  25.209  16.709 -0.1705 -0.0141  0.0792
 2638DPPE   C3A53515   8.469  25.640  16.575 -0.2034  0.1029  0.0866
 2638DPPE   C4A53516   8.414  26.095  16.599 -0.3831 -0.1818 -0.0604
 2638DPPE   C1B53517   9.671  24.563  16.689 -0.0276  0.1389  0.1707
 2638DPPE   C2B53518   9.629  24.850  16.352  0.2787  0.2143 -0.3173
 2638DPPE   C3B53519   9.331  24.782  15.955 -0.2585 -0.1930 -0.0202
 2638DPPE   C4B53520   9.380  24.854  15.617 -0.2712 -0.0584 -0.0977
 2639DPPE   NH353521  10.498  22.333  18.601  0.0153  0.1427  0.2150
 2639DPPE   PO453522  10.046  22.167  18.614  0.3444  0.0294 -0.1692
 2639DPPE   GL153523  10.097  22.198  19.062 -0.1530 -0.2284 -0.0036
 2639DPPE   GL253524  10.445  22.320  19.073 -0.0694  0.0216 -0.1565
 2639DPPE   C1A53525  10.037  22.071  19.473 -0.2289  0.0897 -0.1414
 2639DPPE   C2A53526  10.115  22.161  19.915 -0.1791 -0.0950 -0.6457
 2639DPPE   C3A53527  10.122  22.252  20.365  0.0182  0.2275 -0.0170
 2639DPPE   C4A53528  10.332  22.405  20.664 -0.0537  0.2484  0.0443
 2639DPPE   C1B53529  10.586  22.352  19.481 -0.3041 -0.3897 -0.0396
 2639DPPE   C2B53530  10.647  22.338  19.900 -0.3405  0.1296  0.0582
 2639DPPE   C3B53531  10.731  22.396  20.378  0.0928  0.0145 -0.0344
 2639DPPE   C4B53532  10.721  22.763  20.539 -0.1309 -0.0215  0.1505
 2640DPPE   NH353533  10.765   9.530  17.841  0.2924 -0.0019  0.1730
 2640DPPE   PO453534  11.118   9.621  17.522  0.1101  0.2011  0.1091
 2640DPPE   GL153535  10.983   9.433  17.192  0.0246 -0.1109  0.0195
 2640DPPE   GL253536  10.721   9.226  17.094 -0.1843  0.1521  0.3264
 2640DPPE   C1A53537  11.154   9.157  16.831 -0.1066 -0.0349 -0.1168
 2640DPPE   C2A53538  11.183   8.861  16.523  0.4088 -0.0349  0.1420
 2640DPPE   C3A53539  11.349   8.437  16.456 -0.1459  0.2698 -0.1273
 2640DPPE   C4A53540  11.289   8.121  16.105  0.1299  0.5508  0.0668
 2640DPPE   C1B53541  10.824   8.818  16.866 -0.0067  0.3522  0.1150
 2640DPPE   C2B53542  10.773   8.432  16.764  0.0481 -0.1204  0.1261
 2640DPPE   C3B53543  10.507   7.997  16.738  0.0305 -0.3950 -0.2575
 2640DPPE   C4B53544  10.068   8.011  16.781 -0.1602 -0.2274  0.0819
 2641DPPE   NH353545  10.128  22.669  18.753 -0.0765 -0.0845  0.3649
 2641DPPE   PO453546  10.579  22.828  18.653  0.0962 -0.3544  0.0247
 2641DPPE   GL153547  10.609  22.773  19.133 -0.1967 -0.1678 -0.2103
 2641DPPE   GL253548  10.242  22.789  19.337  0.1846 -0.3586 -0.2860
 2641DPPE   C1A53549  10.712  22.870  19.572  0.1389  0.1991  0.0816
 2641DPPE   C2A53550  10.754  22.866  20.030  0.1188 -0.1928 -0.0167
 2641DPPE   C3A53551  10.411  23.230  20.096 -0.1508 -0.0414 -0.0154
 2641DPPE   C4A53552  10.522  23.656  20.248  0.2129  0.1052  0.0325
 2641DPPE   C1B53553  10.290  22.685  19.726  0.0838 -0.2370 -0.0339
 2641DPPE   C2B53554  10.291  22.746  20.190 -0.3797  0.3112  0.0966
 2641DPPE   C3B53555  10.218  22.865  20.655  0.3288 -0.0561 -0.1703
 2641DPPE   C4B53556  10.336  22.695  21.070  0.0090 -0.1925  0.0693
 2642DPPE   NH353557  12.247  23.893  18.021 -0.0309 -0.3085  0.2808
 2642DPPE   PO453558  12.223  24.297  18.085 -0.0324  0.1597 -0.2608
 2642DPPE   GL153559  12.375  24.158  18.471  0.1815 -0.3777 -0.1272
 2642DPPE   GL253560  12.359  24.519  18.594  0.0809  0.2264  0.0803
 2642DPPE   C1A53561  12.567  24.154  18.874  0.1044  0.1448 -0.1459
 2642DPPE   C2A53562  12.621  24.360  19.252 -0.3133  0.0844 -0.1364
 2642DPPE   C3A53563  12.338  24.443  19.518  0.1880  0.4464 -0.0525
 2642DPPE   C4A53564  11.920  24.574  19.686 -0.1804  0.3854 -0.0954
 2642DPPE   C1B53565  12.597  24.672  18.906 -0.0054 -0.0931 -0.1284
 2642DPPE   C2B53566  12.791  24.801  19.385 -0.5235  0.0018 -0.0379
 2642DPPE   C3B53567  13.081  25.074  19.657 -0.0872  0.1267 -0.5067
 2642DPPE   C4B53568  13.060  25.437  20.062 -0.0747  0.0999 -0.1234
 2643DPPE   NH353569  15.360  20.551  18.577  0.1178 -0.0935 -0.0309
 2643DPPE   PO453570  15.604  20.344  18.887 -0.0500 -0.2395 -0.0672
 2643DPPE   GL153571  15.695  20.569  19.289  0.1049  0.2275  0.1547
 2643DPPE   GL253572  15.811  20.908  19.141  0.2775 -0.2250  0.0668
 2643DPPE   C1A53573  15.717  20.794  19.673  0.2781 -0.1791  0.4279
 2643DPPE   C2A53574  15.715  20.843  20.153 -0.3703  0.1020  0.0525
 2643DPPE   C3A53575  15.880  20.920  20.562 -0.1012  0.3035 -0.1161
 2643DPPE   C4A53576  16.187  21.009  20.953  0.1331  0.1270  0.0577
 2643DPPE   C1B53577  15.904  21.208  19.467  0.1948  0.0863  0.0818
 2643DPPE   C2B53578  15.824  21.356  19.884  0.2055 -0.3170  0.1172
 2643DPPE   C3B53579  15.804  21.328  20.268  0.0343 -0.3203  0.0364
 2643DPPE   C4B53580  15.910  21.412  20.741  0.2617  0.1280  0.0394
 2644DPPE   NH353581  14.249  18.662  19.040  0.0596 -0.1632 -0.2389
 2644DPPE   PO453582  14.722  18.628  18.791  0.0179 -0.2289 -0.1337
 2644DPPE   GL153583  14.710  18.868  19.197 -0.1837 -0.0183 -0.0925
 2644DPPE   GL253584  14.458  18.897  19.456 -0.0174 -0.0646  0.0358
 2644DPPE   C1A53585  14.919  19.019  19.514 -0.0927  0.1763 -0.6629
 2644DPPE   C2A53586  15.069  19.050  19.940  0.0213 -0.0242 -0.0003
 2644DPPE   C3A53587  14.914  19.054  20.371 -0.0180  0.1637 -0.1031
 2644DPPE   C4A53588  14.966  19.276  20.608  0.2278  0.4506 -0.2219
 2644DPPE   C1B53589  14.555  18.916  19.933  0.1969  0.1613  0.2819
 2644DPPE   C2B53590  14.458  18.857  20.452  0.1053  0.0153  0.0302
 2644DPPE   C3B53591  14.504  19.090  20.869 -0.0103  0.1050  0.1188
 2644DPPE   C4B53592  14.845  19.075  21.182 -0.3021  0.0991  0.2304
 2645DPPE   NH353593  17.749  25.222  17.377  0.2663  0.2742  0.1478
 2645DPPE   PO453594  17.721  24.779  17.508  0.0885  0.0366  0.0611
 2645DPPE   GL153595  18.117  24.929  17.549  0.0188  0.1800 -0.0250
 2645DPPE   GL253596  18.388  24.871  17.818  0.1531 -0.1423  0.1491
 2645DPPE   C1A53597  18.389  25.204  17.291  0.2179 -0.1059 -0.0088
 2645DPPE   C2A53598  18.727  25.454  17.416 -0.1453 -0.0070  0.0715
 2645DPPE   C3A53599  19.166  25.624  17.382  0.2139 -0.4981 -0.2322
 2645DPPE   C4A53600  19.495  25.494  17.335 -0.0926  0.3234  0.0069
 2645DPPE   C1B53601  18.603  25.126  17.841 -0.3842 -0.0116  0.1052
 2645DPPE   C2B53602  18.835  25.351  17.953  0.1623  0.1431 -0.1696
 2645DPPE   C3B53603  19.128  25.615  18.022 -0.1710 -0.3839 -0.3683
 2645DPPE   C4B53604  19.539  25.810  18.008 -0.0930  0.1444  0.1640
 2646DPPE   NH353605  10.888  10.767  18.251  0.0949  0.1093  0.0725
 2646DPPE   PO453606  10.727  10.391  18.372 -0.1962 -0.0153  0.2705
 2646DPPE   GL153607  10.754   9.879  18.467  0.0813 -0.0777 -0.0950
 2646DPPE   GL253608  10.921   9.736  18.656 -0.1093  0.0688  0.4530
 2646DPPE   C1A53609  10.582   9.380  18.515 -0.0275 -0.1656 -0.0853
 2646DPPE   C2A53610  10.396   9.070  18.473  0.0529  0.0148  0.3712
 2646DPPE   C3A53611  10.203   8.607  18.426 -0.1618  0.2871 -0.0662
 2646DPPE   C4A53612  10.274   8.253  18.690 -0.0478  0.0915 -0.1652
 2646DPPE   C1B53613  10.890   9.365  18.896  0.0612  0.0351 -0.0349
 2646DPPE   C2B53614  10.676   9.011  18.866  0.2686 -0.0584  0.0170
 2646DPPE   C3B53615  10.556   8.628  18.866  0.0471  0.3414 -0.2886
 2646DPPE   C4B53616  10.619   8.192  19.076  0.3285  0.1497  0.3991
 2647DPPE   NH353617  13.600  17.436  18.768  0.5719  0.1166 -0.1532
 2647DPPE   PO453618  13.728  17.807  18.535  0.3289 -0.1567 -0.2213
 2647DPPE   GL153619  13.591  17.928  18.977 -0.1065  0.2066  0.0365
 2647DPPE   GL253620  13.782  17.778  19.123  0.1444 -0.0729 -0.0912
 2647DPPE   C1A53621  13.479  18.071  19.462  0.1225  0.1603 -0.1292
 2647DPPE   C2A53622  13.362  18.127  19.932 -0.3233  0.3264 -0.0239
 2647DPPE   C3A53623  13.310  18.084  20.408 -0.1245 -0.0765  0.0581
 2647DPPE   C4A53624  13.094  17.900  20.806 -0.5407  0.1249  0.1366
 2647DPPE   C1B53625  13.875  17.520  19.474  0.2027  0.0779 -0.2159
 2647DPPE   C2B53626  13.914  17.538  19.931 -0.1700  0.2284 -0.1659
 2647DPPE   C3B53627  13.935  17.446  20.311 -0.3510 -0.0742  0.4389
 2647DPPE   C4B53628  13.922  17.357  20.731 -0.1957 -0.1242  0.3016
 2648DPPE   NH353629  10.271  10.544  18.009  0.1060  0.0050 -0.2576
 2648DPPE   PO453630  10.288  10.600  18.494 -0.1539  0.2388 -0.1376
 2648DPPE   GL153631  10.337  10.350  18.834 -0.0418 -0.0484 -0.2827
 2648DPPE   GL253632  10.583  10.207  18.834 -0.2554 -0.2244 -0.2097
 2648DPPE   C1A53633  10.348  10.169  19.265 -0.1348 -0.1670  0.2377
 2648DPPE   C2A53634  10.344   9.936  19.640  0.1071 -0.0616  0.0712
 2648DPPE   C3A53635  10.304   9.537  19.685  0.3583  0.2129  0.1415
 2648DPPE   C4A53636  10.364   9.082  19.763 -0.2504  0.0801  0.0502
 2648DPPE   C1B53637  10.287   9.804  18.907 -0.1710  0.0818  0.0474
 2648DPPE   C2B53638   9.996   9.782  19.258  0.0129  0.2121  0.1258
 2648DPPE   C3B53639   9.724   9.664  19.678 -0.1594  0.0584 -0.0759
 2648DPPE   C4B53640   9.774   9.207  19.829  0.0177  0.4559 -0.1681
 2649DPPE   NH353641  14.114  14.620  18.015 -0.0357 -0.0625  0.2698
 2649DPPE   PO453642  13.736  14.840  18.142 -0.1207 -0.2268 -0.3339
 2649DPPE   GL153643  13.768  14.895  18.671 -0.1036 -0.1530  0.1404
 2649DPPE   GL253644  14.011  14.744  18.852 -0.0043  0.1349  0.0788
 2649DPPE   C1A53645  13.506  14.930  19.115  0.0236 -0.2787 -0.2439
 2649DPPE   C2A53646  13.463  14.774  19.536 -0.1409  0.1079 -0.0488
 2649DPPE   C3A53647  13.542  14.788  19.982 -0.4726 -0.0094  0.1291
 2649DPPE   C4A53648  13.600  14.687  20.407 -0.0836  0.0113  0.0930
 2649DPPE   C1B53649  13.948  14.679  19.224 -0.1522  0.1425 -0.1857
 2649DPPE   C2B53650  13.979  14.670  19.739 -0.0249  0.3870 -0.3137
 2649DPPE   C3B53651  14.057  14.627  20.168 -0.1573 -0.0973  0.2752
 2649DPPE   C4B53652  14.092  14.714  20.595  0.0802  0.1089 -0.1678
 2650DPPE   NH353653  14.117  13.458  18.451  0.2451 -0.0895  0.0442
 2650DPPE   PO453654  14.276  13.888  18.564  0.1988 -0.0601  0.0404
 2650DPPE   GL153655  14.153  13.979  18.990 -0.2249  0.0310  0.0889
 2650DPPE   GL253656  14.014  14.220  18.902 -0.1916 -0.4140 -0.0523
 2650DPPE   C1A53657  14.364  13.818  19.379  0.1173 -0.0033  0.3139
 2650DPPE   C2A53658  14.341  13.684  19.814 -0.3181  0.3112 -0.0712
 2650DPPE   C3A53659  14.371  13.649  20.190 -0.1378  0.3116 -0.1917
 2650DPPE   C4A53660  14.338  13.717  20.546  0.0344  0.0411 -0.2017
 2650DPPE   C1B53661  14.158  14.296  19.411 -0.1192 -0.0745  0.1855
 2650DPPE   C2B53662  14.195  14.204  19.863 -0.2205  0.1760 -0.0982
 2650DPPE   C3B53663  14.159  14.138  20.284  0.0387 -0.1207 -0.0180
 2650DPPE   C4B53664  14.180  14.205  20.701  0.0476  0.1016 -0.1862
 2651DPPE   NH353665  17.407  20.829  18.498 -0.1892 -0.0303 -0.1191
 2651DPPE   PO453666  17.358  20.357  18.474  0.0067  0.4393 -0.2208
 2651DPPE   GL153667  17.638  20.477  18.823  0.0492 -0.0941 -0.2202
 2651DPPE   GL253668  17.561  20.721  19.015  0.0772 -0.1216  0.1375
 2651DPPE   C1A53669  17.988  20.490  19.090  0.2860 -0.3726  0.0602
 2651DPPE   C2A53670  18.135  20.470  19.555  0.0529 -0.0919 -0.1693
 2651DPPE   C3A53671  18.346  20.454  19.935  0.0973 -0.2960  0.2012
 2651DPPE   C4A53672  18.616  20.551  20.073 -0.1525 -0.1277 -0.2794
 2651DPPE   C1B53673  17.666  20.686  19.465 -0.0616  0.0130 -0.1756
 2651DPPE   C2B53674  17.704  20.277  19.729 -0.0286  0.5081 -0.3741
 2651DPPE   C3B53675  17.528  20.044  20.106  0.0494 -0.2472  0.0937
 2651DPPE   C4B53676  17.442  19.796  20.251 -0.1479  0.2064  0.0395
 2652DPPE   NH353677  14.913  24.713  17.873 -0.1383  0.2818 -0.3592
 2652DPPE   PO453678  14.760  24.659  17.433 -0.4038  0.0617 -0.2808
 2652DPPE   GL153679  14.731  25.081  17.376  0.1585  0.1551  0.0697
 2652DPPE   GL253680  14.704  25.108  17.672  0.4214 -0.2524  0.3590
 2652DPPE   C1A53681  14.515  25.394  17.217 -0.0949  0.1132  0.1720
 2652DPPE   C2A53682  14.367  25.688  17.429  0.2106 -0.1559  0.0060
 2652DPPE   C3A53683  13.862  25.666  17.462  0.1902 -0.0828  0.1743
 2652DPPE   C4A53684  13.457  25.910  17.594 -0.0261  0.1234  0.1550
 2652DPPE   C1B53685  14.749  25.585  17.749 -0.0807 -0.0587 -0.2405
 2652DPPE   C2B53686  14.670  26.046  17.582  0.2606  0.3697 -0.0552
 2652DPPE   C3B53687  14.420  26.184  17.323  0.0259  0.0134 -0.0517
 2652DPPE   C4B53688  14.330  26.305  16.792 -0.3324  0.0502 -0.4416
 2653DPPE   NH353689   8.533  22.975  19.134 -0.2352 -0.0963 -0.2769
 2653DPPE   PO453690   8.635  23.362  19.031  0.1880 -0.1293  0.1142
 2653DPPE   GL153691   8.445  23.314  19.501  0.1775  0.2810  0.2085
 2653DPPE   GL253692   8.147  23.246  19.554 -0.1579  0.1473  0.0590
 2653DPPE   C1A53693   8.623  23.563  19.856 -0.1642  0.0334  0.2048
 2653DPPE   C2A53694   8.873  23.794  20.070 -0.1444 -0.1859 -0.3659
 2653DPPE   C3A53695   9.289  23.731  20.324 -0.0381  0.0743 -0.3527
 2653DPPE   C4A53696   9.525  23.910  20.625  0.1064 -0.0677  0.2027
 2653DPPE   C1B53697   7.771  23.250  19.827 -0.1612  0.2573  0.1944
 2653DPPE   C2B53698   7.485  23.275  20.184 -0.1331  0.2612 -0.4055
 2653DPPE   C3B53699   7.347  23.267  20.658 -0.0271 -0.1063 -0.1890
 2653DPPE   C4B53700   7.340  23.080  21.047 -0.1664  0.0366 -0.2641
 2654DPPE   NH353701  17.199  23.580  18.201 -0.1120  0.2113 -0.0660
 2654DPPE   PO453702  17.403  23.396  18.511  0.2783  0.0461 -0.0391
 2654DPPE   GL153703  17.827  23.358  18.705  0.1711 -0.0828  0.1102
 2654DPPE   GL253704  18.024  23.687  18.649 -0.0560  0.1392  0.3011
 2654DPPE   C1A53705  18.191  23.197  19.042  0.2680  0.1392 -0.0292
 2654DPPE   C2A53706  17.826  23.201  19.396 -0.4628 -0.0098 -0.2902
 2654DPPE   C3A53707  17.581  23.319  19.866 -0.0404 -0.3405  0.0600
 2654DPPE   C4A53708  17.677  23.756  20.098  0.1466  0.0270 -0.0769
 2654DPPE   C1B53709  18.364  23.664  18.778  0.0438  0.1419 -0.1431
 2654DPPE   C2B53710  18.410  23.921  19.118 -0.0504 -0.1484  0.1387
 2654DPPE   C3B53711  18.535  24.021  19.595  0.2044 -0.0759 -0.1403
 2654DPPE   C4B53712  18.856  24.225  19.723  0.0122 -0.2598 -0.2225
 2655DPPE   NH353713   6.062  17.949  18.638 -0.2014  0.1623  0.3863
 2655DPPE   PO453714   6.521  18.058  18.659  0.1592 -0.0155  0.0443
 2655DPPE   GL153715   6.460  17.911  19.012  0.2880 -0.2565  0.3289
 2655DPPE   GL253716   6.723  18.041  19.186 -0.0032 -0.2735 -0.1137
 2655DPPE   C1A53717   6.253  17.831  19.350  0.0009 -0.2049  0.1728
 2655DPPE   C2A53718   6.170  17.927  19.765 -0.1099 -0.0889  0.2315
 2655DPPE   C3A53719   6.065  17.840  20.211  0.2073 -0.0776  0.4098
 2655DPPE   C4A53720   6.177  17.719  20.469  0.2131  0.3018  0.2263
 2655DPPE   C1B53721   6.736  17.790  19.455 -0.0944 -0.2969  0.0839
 2655DPPE   C2B53722   6.584  17.636  19.836 -0.0628 -0.0943  0.1391
 2655DPPE   C3B53723   6.380  17.374  20.157  0.0795  0.1594  0.0247
 2655DPPE   C4B53724   6.074  17.088  20.236  0.1172  0.4644  0.2439
 2656DPPE   NH353725  19.018  17.114  17.840 -0.1977  0.3493 -0.1134
 2656DPPE   PO453726  19.045  16.856  18.214 -0.1802  0.2861  0.0680
 2656DPPE   GL153727  19.190  16.961  18.582 -0.1956 -0.0358  0.1830
 2656DPPE   GL253728  19.430  16.895  18.645  0.4815  0.4341  0.1441
 2656DPPE   C1A53729  19.332  17.266  18.999  0.2303  0.2127  0.0672
 2656DPPE   C2A53730  19.544  17.264  19.400 -0.2615  0.0751  0.6076
 2656DPPE   C3A53731  20.007  17.213  19.449  0.1105 -0.1288 -0.0710
 2656DPPE   C4A53732  20.188  17.138  19.784 -0.0817  0.0046  0.0784
 2656DPPE   C1B53733  19.777  17.029  18.933  0.3348 -0.1006 -0.1237
 2656DPPE   C2B53734  20.137  17.245  18.893 -0.1916 -0.2725  0.2792
 2656DPPE   C3B53735  20.180  17.593  19.135 -0.0296  0.1836 -0.2385
 2656DPPE   C4B53736  20.106  17.716  19.579 -0.4836 -0.1428 -0.2257
 2657DPPE   NH353737  16.310  16.055  18.777  0.2908  0.1160  0.0357
 2657DPPE   PO453738  16.002  16.302  18.702 -0.1620  0.1534  0.0175
 2657DPPE   GL153739  15.824  16.310  19.122 -0.1009  0.2043 -0.4102
 2657DPPE   GL253740  16.175  16.192  19.222 -0.2452  0.0273 -0.2325
 2657DPPE   C1A53741  15.780  16.186  19.503 -0.2513 -0.1648  0.2032
 2657DPPE   C2A53742  15.878  16.185  19.865  0.2905  0.1049  0.2092
 2657DPPE   C3A53743  15.837  16.209  20.322  0.0468  0.2139  0.0767
 2657DPPE   C4A53744  15.940  16.222  20.796 -0.0994  0.0670  0.1487
 2657DPPE   C1B53745  16.304  16.155  19.648 -0.2532  0.1648 -0.1511
 2657DPPE   C2B53746  16.320  16.073  20.129  0.1012 -0.2343 -0.0709
 2657DPPE   C3B53747  16.407  16.110  20.455 -0.0539 -0.0743 -0.2144
 2657DPPE   C4B53748  16.708  16.132  20.654 -0.0167  0.0143 -0.4377
 2658DPPE   NH353749  17.080  14.395  18.495  0.2728  0.2580 -0.1421
 2658DPPE   PO453750  17.440  14.667  18.323  0.0063 -0.1303 -0.2289
 2658DPPE   GL153751  17.491  14.574  18.754 -0.2497 -0.0665  0.1680
 2658DPPE   GL253752  17.760  14.487  18.941  0.1874 -0.3833 -0.4429
 2658DPPE   C1A53753  17.329  14.626  19.288  0.1448 -0.1321  0.0515
 2658DPPE   C2A53754  17.417  14.567  19.708 -0.1773 -0.3498  0.1389
 2658DPPE   C3A53755  17.393  14.605  20.178  0.0857  0.0932 -0.0572
 2658DPPE   C4A53756  17.211  14.422  20.548  0.1886  0.0643 -0.0021
 2658DPPE   C1B53757  17.853  14.561  19.462  0.3534  0.1516 -0.1180
 2658DPPE   C2B53758  17.959  14.363  19.891 -0.1420  0.1090  0.0334
 2658DPPE   C3B53759  17.866  14.513  20.305  0.0401  0.1737 -0.1220
 2658DPPE   C4B53760  17.622  14.709  20.713  0.0150  0.0630 -0.0132
 2659DPPE   NH353761  13.941  15.949  18.615  0.0406  0.2860 -0.1984
 2659DPPE   PO453762  14.420  15.909  18.545  0.0805  0.2384 -0.0880
 2659DPPE   GL153763  14.527  15.715  18.748  0.0209 -0.1746 -0.1185
 2659DPPE   GL253764  14.443  15.313  18.625 -0.1688 -0.2604 -0.0731
 2659DPPE   C1A53765  14.500  15.579  19.146 -0.0909 -0.1308 -0.2869
 2659DPPE   C2A53766  14.589  15.485  19.574 -0.1481 -0.1475  0.0248
 2659DPPE   C3A53767  14.701  15.400  20.012 -0.1606  0.2808 -0.0499
 2659DPPE   C4A53768  14.733  15.450  20.393 -0.0038 -0.4602  0.0718
 2659DPPE   C1B53769  14.269  15.138  19.030 -0.1992 -0.3163  0.2378
 2659DPPE   C2B53770  14.283  15.061  19.535 -0.0127 -0.1309 -0.0432
 2659DPPE   C3B53771  14.286  15.048  19.893  0.0585  0.0391 -0.1459
 2659DPPE   C4B53772  14.369  15.026  20.261  0.1813 -0.0557 -0.4240
 2660DPPE   NH353773  11.602   9.980  17.561 -0.0117 -0.2765  0.1032
 2660DPPE   PO453774  11.604   9.618  17.855  0.0807 -0.1492 -0.1355
 2660DPPE   GL153775  11.509   9.208  17.706  0.0622 -0.1039 -0.0340
 2660DPPE   GL253776  11.160   9.136  17.741  0.0717  0.0693 -0.0288
 2660DPPE   C1A53777  11.838   8.805  17.641  0.0598  0.2720  0.2861
 2660DPPE   C2A53778  11.689   8.495  17.332  0.2202 -0.2501  0.0705
 2660DPPE   C3A53779  11.616   8.184  17.032 -0.0174 -0.1165  0.0838
 2660DPPE   C4A53780  11.576   7.749  17.027  0.2561  0.2084  0.2615
 2660DPPE   C1B53781  11.375   8.830  17.965 -0.0614  0.0869 -0.1577
 2660DPPE   C2B53782  11.211   8.478  18.124  0.1782 -0.2355  0.2084
 2660DPPE   C3B53783  11.188   8.246  18.509  0.4345 -0.0664 -0.0866
 2660DPPE   C4B53784  11.526   8.367  18.820  0.1557  0.0553 -0.0814
 2661DPPE   NH353785   5.906  14.830  18.392 -0.1469  0.2862  0.1328
 2661DPPE   PO453786   6.285  14.713  18.540 -0.1813  0.1310 -0.2276
 2661DPPE   GL153787   6.340  14.594  18.832 -0.4788  0.1151  0.1005
 2661DPPE   GL253788   6.312  14.856  19.062  0.3345  0.2807 -0.0418
 2661DPPE   C1A53789   6.153  14.400  19.240  0.0066 -0.0076 -0.3857
 2661DPPE   C2A53790   5.897  14.338  19.685 -0.2259  0.2133 -0.2669
 2661DPPE   C3A53791   5.753  14.051  19.992  0.1635  0.1855 -0.0701
 2661DPPE   C4A53792   5.407  14.160  20.193  0.3643 -0.0632 -0.0030
 2661DPPE   C1B53793   6.554  14.707  19.294 -0.3075  0.1524 -0.2352
 2661DPPE   C2B53794   6.497  14.396  19.644  0.0273  0.0619 -0.0113
 2661DPPE   C3B53795   6.244  14.028  19.885 -0.0118 -0.2923 -0.0496
 2661DPPE   C4B53796   6.076  13.591  19.789  0.2663  0.3611 -0.3177
 2662DPPE   NH353797   9.774  24.728  18.186  0.0812 -0.1380  0.2120
 2662DPPE   PO453798   9.768  24.512  18.516 -0.0167  0.2530 -0.0507
 2662DPPE   GL153799   9.740  24.886  18.644 -0.0420  0.1759 -0.1826
 2662DPPE   GL253800   9.953  25.054  18.553  0.0832 -0.0729  0.3205
 2662DPPE   C1A53801   9.603  25.177  19.049 -0.1947  0.0111  0.3206
 2662DPPE   C2A53802   9.561  25.567  19.205  0.0869 -0.1328  0.1411
 2662DPPE   C3A53803   9.212  25.767  19.324 -0.1701  0.0849 -0.1157
 2662DPPE   C4A53804   8.861  25.990  19.136  0.0330 -0.1336 -0.1382
 2662DPPE   C1B53805  10.038  25.343  18.816 -0.0319 -0.2290 -0.5938
 2662DPPE   C2B53806  10.007  25.679  19.035 -0.3355  0.3153  0.3416
 2662DPPE   C3B53807   9.971  25.952  19.344 -0.0789  0.0593 -0.0130
 2662DPPE   C4B53808   9.956  26.316  19.482 -0.1733  0.0928 -0.1000
 2663DPPE   NH353809  15.182  17.866  19.097  0.0257 -0.0499 -0.0230
 2663DPPE   PO453810  15.481  18.106  19.079  0.0175  0.1105 -0.1205
 2663DPPE   GL153811  15.315  18.349  19.500  0.2703  0.0073 -0.1028
 2663DPPE   GL253812  15.158  18.075  19.549  0.1515  0.0186  0.2471
 2663DPPE   C1A53813  15.337  18.294  20.036 -0.0803  0.0691 -0.0238
 2663DPPE   C2A53814  15.395  18.370  20.465 -0.1627 -0.1429 -0.2095
 2663DPPE   C3A53815  15.333  18.509  20.927 -0.1720  0.1581  0.0020
 2663DPPE   C4A53816  15.521  18.519  21.251 -0.2013 -0.1075 -0.0194
 2663DPPE   C1B53817  15.300  17.783  19.819 -0.1335  0.2254  0.2033
 2663DPPE   C2B53818  15.335  17.722  20.349 -0.1315 -0.2316  0.1333
 2663DPPE   C3B53819  15.235  17.944  20.697 -0.1662 -0.1909  0.0059
 2663DPPE   C4B53820  15.030  18.139  20.866 -0.0201 -0.1778 -0.0575
 2664DPPE   NH353821  10.662  25.234  17.887 -0.2461  0.2489  0.0237
 2664DPPE   PO453822  10.710  24.840  18.052 -0.0533  0.0282  0.2878
 2664DPPE   GL153823  10.663  25.142  18.386  0.2075 -0.2624 -0.0417
 2664DPPE   GL253824  10.483  25.087  18.715  0.1861  0.2112  0.3028
 2664DPPE   C1A53825  10.693  25.544  18.634 -0.1010 -0.4705  0.1561
 2664DPPE   C2A53826  10.490  25.540  18.932  0.0713 -0.1993 -0.1736
 2664DPPE   C3A53827  10.524  25.952  19.268 -0.0197  0.2231  0.0715
 2664DPPE   C4A53828  10.380  26.373  19.251  0.0840 -0.0826  0.3343
 2664DPPE   C1B53829  10.784  25.152  19.059  0.1746 -0.0280 -0.2380
 2664DPPE   C2B53830  10.799  25.524  19.356 -0.0168  0.0812 -0.2355
 2664DPPE   C3B53831  10.864  25.744  19.623  0.2005 -0.5060 -0.2709
 2664DPPE   C4B53832  10.977  26.025  20.024  0.1211 -0.1140  0.1624
 2665DPPE   NH353833  15.607  17.536  18.454 -0.0969 -0.0225  0.2080
 2665DPPE   PO453834  15.247  17.458  18.840 -0.1263  0.0408  0.2258
 2665DPPE   GL153835  14.945  17.336  19.222  0.0684  0.1021  0.0868
 2665DPPE   GL253836  14.982  17.553  19.453 -0.2050  0.2029 -0.0209
 2665DPPE   C1A53837  15.022  17.126  19.666  0.0790  0.1282  0.1465
 2665DPPE   C2A53838  15.080  17.193  20.079  0.1440 -0.4693  0.0083
 2665DPPE   C3A53839  14.991  17.158  20.538  0.0969  0.1815 -0.0745
 2665DPPE   C4A53840  15.121  17.092  20.949  0.0196  0.0036  0.4491
 2665DPPE   C1B53841  14.870  17.571  19.898  0.1202  0.0345  0.3167
 2665DPPE   C2B53842  14.837  17.594  20.327  0.6197 -0.1234 -0.2660
 2665DPPE   C3B53843  14.878  17.541  20.808 -0.2455 -0.1854  0.1633
 2665DPPE   C4B53844  15.042  17.707  21.160 -0.1573  0.0764 -0.1363
 2666DPPE   NH353845  12.933  18.539  18.498 -0.1704  0.1639 -0.4106
 2666DPPE   PO453846  12.561  18.777  18.690  0.0299  0.0943 -0.2629
 2666DPPE   GL153847  12.738  18.897  19.131 -0.1471 -0.2702  0.2489
 2666DPPE   GL253848  12.783  19.217  19.215 -0.0028  0.0744  0.2475
 2666DPPE   C1A53849  12.604  18.728  19.464 -0.0463 -0.0753 -0.0845
 2666DPPE   C2A53850  12.616  18.785  19.913  0.2002 -0.6295 -0.0773
 2666DPPE   C3A53851  12.792  18.774  20.326  0.2972 -0.4367 -0.1869
 2666DPPE   C4A53852  12.527  18.446  20.554  0.1299  0.1111  0.1781
 2666DPPE   C1B53853  12.623  19.204  19.692  0.1205  0.0219 -0.1537
 2666DPPE   C2B53854  12.795  19.344  20.157  0.0153 -0.0310 -0.2000
 2666DPPE   C3B53855  12.666  19.285  20.505  0.3269  0.4238 -0.0593
 2666DPPE   C4B53856  12.720  18.962  20.758  0.0433 -0.3166 -0.0318
 2667DPPE   NH353857   8.014  18.592  18.821  0.5517 -0.0958 -0.1119
 2667DPPE   PO453858   8.202  18.998  18.859 -0.1485  0.0524  0.3706
 2667DPPE   GL153859   8.449  19.052  19.250  0.0869  0.0293 -0.1904
 2667DPPE   GL253860   8.511  19.302  19.098 -0.2376  0.0481  0.2599
 2667DPPE   C1A53861   8.442  18.998  19.683 -0.0659 -0.3556 -0.0745
 2667DPPE   C2A53862   8.404  18.939  20.105  0.1004  0.0711  0.0775
 2667DPPE   C3A53863   8.212  18.546  20.270  0.0038  0.3689  0.0387
 2667DPPE   C4A53864   7.999  18.163  20.534  0.0615  0.2641  0.4230
 2667DPPE   C1B53865   8.591  19.492  19.580 -0.1924 -0.2051 -0.1491
 2667DPPE   C2B53866   8.620  19.457  20.035  0.1444  0.1354 -0.0005
 2667DPPE   C3B53867   8.642  19.692  20.434  0.0140  0.1114  0.0190
 2667DPPE   C4B53868   8.830  19.536  20.924 -0.0030 -0.1952 -0.1934
 2668DPPE   NH353869  12.942  19.155  18.758 -0.1777  0.1959 -0.0603
 2668DPPE   PO453870  13.281  18.843  18.708 -0.1498  0.0709  0.0400
 2668DPPE   GL153871  13.236  18.928  19.081 -0.1685  0.2945  0.2322
 2668DPPE   GL253872  13.374  19.147  19.197 -0.2992 -0.1441  0.2472
 2668DPPE   C1A53873  13.111  18.899  19.471 -0.0646  0.3507 -0.0602
 2668DPPE   C2A53874  13.160  18.975  19.981  0.2481  0.0993  0.1646
 2668DPPE   C3A53875  13.240  18.988  20.453  0.0559 -0.0143  0.1308
 2668DPPE   C4A53876  13.173  19.202  20.744 -0.0906  0.1761 -0.0143
 2668DPPE   C1B53877  13.250  19.361  19.498 -0.0371  0.0656 -0.3199
 2668DPPE   C2B53878  13.296  19.436  19.904 -0.0597 -0.2710 -0.0237
 2668DPPE   C3B53879  13.243  19.534  20.340 -0.0266  0.0934 -0.1785
 2668DPPE   C4B53880  13.164  19.731  20.739 -0.0464 -0.0888  0.1152
 2669DPPE   NH353881  11.223  22.292  18.447 -0.3173  0.0165  0.2799
 2669DPPE   PO453882  11.295  21.848  18.186 -0.3141  0.0364  0.3079
 2669DPPE   GL153883  11.478  21.749  18.478  0.0155 -0.2043  0.2045
 2669DPPE   GL253884  11.237  21.731  18.683  0.3571  0.5115 -0.0771
 2669DPPE   C1A53885  11.799  21.645  18.918 -0.0636 -0.0905 -0.2070
 2669DPPE   C2A53886  11.876  21.696  19.394 -0.4231 -0.3246 -0.4733
 2669DPPE   C3A53887  11.891  21.771  19.793  0.0497  0.0758 -0.0776
 2669DPPE   C4A53888  11.876  21.868  20.200 -0.1422 -0.0276  0.3699
 2669DPPE   C1B53889  11.323  22.080  19.098 -0.2350 -0.2114 -0.0850
 2669DPPE   C2B53890  11.447  22.078  19.484  0.2722  0.2343 -0.2997
 2669DPPE   C3B53891  11.510  22.092  19.966  0.3139  0.1478  0.2515
 2669DPPE   C4B53892  11.565  22.334  20.358  0.1489  0.0307  0.0334
 2670DPPE   NH353893  11.181  16.802  18.139  0.1723  0.0220  0.0010
 2670DPPE   PO453894  11.448  16.902  18.446 -0.1302  0.0612  0.0254
 2670DPPE   GL153895  11.276  16.902  18.819  0.0940  0.2727  0.3989
 2670DPPE   GL253896  11.030  16.613  18.949  0.2063 -0.0888 -0.3087
 2670DPPE   C1A53897  11.270  16.999  19.293 -0.1567  0.3025 -0.0238
 2670DPPE   C2A53898  11.379  16.949  19.731 -0.1890 -0.2353  0.1111
 2670DPPE   C3A53899  11.549  16.812  20.056 -0.2440 -0.1489 -0.2984
 2670DPPE   C4A53900  11.748  16.820  20.523  0.2757 -0.0439 -0.0793
 2670DPPE   C1B53901  10.934  16.535  19.419 -0.0518 -0.2043 -0.0077
 2670DPPE   C2B53902  10.761  16.398  19.908 -0.3396  0.0301 -0.1189
 2670DPPE   C3B53903  10.884  16.446  20.383  0.2753  0.0089  0.0956
 2670DPPE   C4B53904  10.988  16.407  20.752  0.1600  0.1691 -0.2249
 2671DPPE   NH353905  13.432  22.335  17.644  0.0893  0.0756  0.2568
 2671DPPE   PO453906  13.452  22.371  18.162 -0.0071 -0.0649 -0.0283
 2671DPPE   GL153907  13.531  22.454  18.583  0.1047  0.1733  0.1069
 2671DPPE   GL253908  13.677  22.722  18.714 -0.0650 -0.1964 -0.0394
 2671DPPE   C1A53909  13.378  22.231  18.905  0.0948  0.3152  0.0366
 2671DPPE   C2A53910  13.316  22.310  19.359 -0.1308 -0.0688 -0.0977
 2671DPPE   C3A53911  13.308  22.324  19.826  0.2323  0.5722  0.0775
 2671DPPE   C4A53912  13.278  22.251  20.345  0.1028  0.2148  0.0301
 2671DPPE   C1B53913  13.363  22.713  19.083  0.0384  0.0343 -0.1298
 2671DPPE   C2B53914  13.361  22.762  19.617  0.0721  0.1246  0.0685
 2671DPPE   C3B53915  13.385  22.976  20.013  0.2492 -0.0166 -0.1728
 2671DPPE   C4B53916  13.444  23.083  20.376 -0.0601 -0.0711 -0.1760
 2672DPPE   NH353917  13.254  21.590  17.794 -0.3690  0.1127  0.5929
 2672DPPE   PO453918  13.432  21.873  18.003  0.2146  0.0749  0.1676
 2672DPPE   GL153919  13.557  21.954  18.547 -0.1307 -0.1171  0.3472
 2672DPPE   GL253920  13.366  21.764  18.742  0.1477 -0.0977 -0.0813
 2672DPPE   C1A53921  13.752  21.907  18.997  0.1882  0.4370  0.0704
 2672DPPE   C2A53922  13.744  21.951  19.391 -0.2554 -0.2260  0.1511
 2672DPPE   C3A53923  13.809  21.974  19.778 -0.1537 -0.0722 -0.0566
 2672DPPE   C4A53924  13.729  21.980  20.234 -0.3483  0.1597 -0.4859
 2672DPPE   C1B53925  13.256  21.780  19.186  0.0866 -0.0435  0.0254
 2672DPPE   C2B53926  13.285  21.847  19.647  0.3986  0.1940  0.1147
 2672DPPE   C3B53927  13.214  21.831  20.099 -0.2378 -0.0284  0.2890
 2672DPPE   C4B53928  13.356  21.742  20.506 -0.1296  0.1476  0.1251
 2673DPPE   NH353929  14.220  17.737  18.667 -0.0006 -0.3303 -0.2344
 2673DPPE   PO453930  14.092  18.194  18.899 -0.0181 -0.3009  0.0509
 2673DPPE   GL153931  13.873  18.337  19.141 -0.0002  0.0982 -0.0817
 2673DPPE   GL253932  13.602  18.409  19.115  0.3452  0.0117  0.0043
 2673DPPE   C1A53933  13.905  18.246  19.533 -0.1548 -0.1657  0.3261
 2673DPPE   C2A53934  13.850  18.119  19.812  0.3256 -0.6234  0.1389
 2673DPPE   C3A53935  13.781  17.910  20.208 -0.3988 -0.2350 -0.0464
 2673DPPE   C4A53936  13.745  17.810  20.656  0.0950  0.3001  0.2070
 2673DPPE   C1B53937  13.461  18.536  19.590 -0.0963 -0.3541 -0.0504
 2673DPPE   C2B53938  13.530  18.603  19.933 -0.0856  0.0554 -0.4227
 2673DPPE   C3B53939  13.569  18.555  20.324 -0.2320 -0.0961 -0.0293
 2673DPPE   C4B53940  13.569  18.385  20.681  0.0347 -0.1375 -0.0093
 2674DPPE   NH353941   7.794  22.489  19.113 -0.1563  0.1864 -0.1598
 2674DPPE   PO453942   8.101  22.794  19.195 -0.0526 -0.1037 -0.1637
 2674DPPE   GL153943   7.771  22.938  19.309  0.1645 -0.1237 -0.0875
 2674DPPE   GL253944   7.468  22.613  19.494  0.0108  0.0867 -0.0021
 2674DPPE   C1A53945   7.468  23.186  19.435 -0.3343  0.5471  0.1784
 2674DPPE   C2A53946   7.157  23.373  19.221  0.2841  0.0283  0.4056
 2674DPPE   C3A53947   6.788  23.404  19.317  0.1778  0.3067  0.2569
 2674DPPE   C4A53948   6.459  23.580  19.260 -0.2093 -0.5724  0.3551
 2674DPPE   C1B53949   7.772  22.707  19.776  0.0390 -0.0637 -0.1678
 2674DPPE   C2B53950   7.795  22.847  20.113 -0.4157  0.1187  0.5086
 2674DPPE   C3B53951   7.941  23.130  20.330 -0.2482  0.2716 -0.2233
 2674DPPE   C4B53952   8.383  23.186  20.524  0.0563 -0.0013 -0.0818
 2675DPPE   NH353953  17.385  10.282  17.003 -0.1591 -0.1328 -0.0218
 2675DPPE   PO453954  17.296  10.125  17.492 -0.2274  0.1716  0.1598
 2675DPPE   GL153955  17.389   9.764  17.588  0.0884  0.0698 -0.0557
 2675DPPE   GL253956  17.100   9.583  17.672  0.2654  0.0966 -0.0061
 2675DPPE   C1A53957  17.550   9.536  17.914  0.1669  0.1708 -0.0729
 2675DPPE   C2A53958  17.384   9.430  18.256 -0.0456  0.3371  0.0146
 2675DPPE   C3A53959  16.899   9.329  18.314 -0.0241 -0.0973 -0.1961
 2675DPPE   C4A53960  16.562   9.205  18.477 -0.3781 -0.0472 -0.3129
 2675DPPE   C1B53961  17.177   9.190  17.816 -0.2205  0.1667 -0.3655
 2675DPPE   C2B53962  17.180   8.710  18.176  0.1985 -0.0764 -0.1613
 2675DPPE   C3B53963  17.503   8.568  18.540  0.0722 -0.0059  0.0101
 2675DPPE   C4B53964  17.756   8.185  18.535  0.2072 -0.1573 -0.0277
 2676DPPE   NH353965  16.938  18.200  18.961  0.1602 -0.0835  0.1137
 2676DPPE   PO453966  17.041  17.835  19.157 -0.1825 -0.0813 -0.2262
 2676DPPE   GL153967  17.126  17.933  19.625  0.0759  0.0386 -0.2187
 2676DPPE   GL253968  16.768  17.751  19.729 -0.0472 -0.3406  0.0737
 2676DPPE   C1A53969  17.119  17.985  20.070  0.0874  0.0314  0.1047
 2676DPPE   C2A53970  17.175  17.913  20.474 -0.0076 -0.2300 -0.0488
 2676DPPE   C3A53971  17.436  17.953  20.881 -0.0138 -0.0597  0.2409
 2676DPPE   C4A53972  17.765  17.828  21.215 -0.2453  0.1458  0.0139
 2676DPPE   C1B53973  16.664  17.800  20.178 -0.1001 -0.0655  0.1390
 2676DPPE   C2B53974  16.617  17.882  20.603 -0.0487  0.3618 -0.1081
 2676DPPE   C3B53975  16.866  17.939  20.964  0.2542 -0.1448  0.2103
 2676DPPE   C4B53976  16.801  18.079  21.416 -0.0822 -0.3836  0.3198
 2677DPPE   NH353977   9.590  10.001  18.418  0.3299 -0.2954  0.1025
 2677DPPE   PO453978   9.838  10.354  18.499 -0.2651 -0.0466  0.0360
 2677DPPE   GL153979   9.867  10.030  18.829  0.4820  0.0593  0.1591
 2677DPPE   GL253980   9.880  10.302  19.031  0.1888 -0.1209 -0.0286
 2677DPPE   C1A53981   9.944   9.436  18.793 -0.2617  0.1193  0.1487
 2677DPPE   C2A53982   9.964   9.036  18.802  0.4470  0.1378  0.0426
 2677DPPE   C3A53983   9.816   8.648  18.747  0.2316 -0.2992 -0.1561
 2677DPPE   C4A53984   9.792   8.322  18.512  0.1077  0.2556  0.0507
 2677DPPE   C1B53985   9.905  10.213  19.530  0.2574 -0.1865  0.1379
 2677DPPE   C2B53986   9.986  10.000  19.979  0.2386  0.0796  0.3077
 2677DPPE   C3B53987   9.994   9.925  20.340 -0.0207  0.3669  0.0239
 2677DPPE   C4B53988   9.898  10.247  20.690  0.1663  0.2096 -0.1162
 2678DPPE   NH353989  11.600  13.355  17.979 -0.0661  0.3127  0.1710
 2678DPPE   PO453990  11.130  13.315  18.035  0.3804  0.1373  0.1750
 2678DPPE   GL153991  11.271  13.321  18.496  0.2240  0.2884 -0.0193
 2678DPPE   GL253992  11.147  13.025  18.669 -0.3439 -0.3786  0.5338
 2678DPPE   C1A53993  11.585  13.287  18.833 -0.0739  0.0207 -0.3610
 2678DPPE   C2A53994  11.573  13.238  19.190  0.0649 -0.4551 -0.0510
 2678DPPE   C3A53995  11.639  13.206  19.574  0.0631 -0.0423  0.1980
 2678DPPE   C4A53996  11.459  13.087  19.938  0.3330 -0.0974 -0.2309
 2678DPPE   C1B53997  11.165  12.937  19.043 -0.0537  0.2489 -0.2155
 2678DPPE   C2B53998  11.302  12.787  19.555 -0.2371  0.1831 -0.3246
 2678DPPE   C3B53999  11.301  12.605  19.845 -0.1060 -0.0234  0.1717
 2678DPPE   C4B54000  11.225  12.744  20.238 -0.3707 -0.5245 -0.2746
 2679DPPE   NH354001   6.721  15.590  18.894  0.3011 -0.1891 -0.0060
 2679DPPE   PO454002   6.229  15.508  18.856 -0.0254 -0.1088 -0.1240
 2679DPPE   GL154003   6.073  15.372  19.180 -0.2014  0.1434  0.2893
 2679DPPE   GL254004   5.732  15.361  19.291  0.2262  0.1162  0.0538
 2679DPPE   C1A54005   6.009  15.240  19.717 -0.2682 -0.0631  0.3321
 2679DPPE   C2A54006   5.966  15.139  20.043  0.2083 -0.1721 -0.2736
 2679DPPE   C3A54007   6.023  14.963  20.390 -0.0139 -0.1489  0.3791
 2679DPPE   C4A54008   5.875  14.920  20.761 -0.0650  0.3107 -0.0827
 2679DPPE   C1B54009   5.759  15.685  19.621 -0.2327  0.1681 -0.1317
 2679DPPE   C2B54010   5.526  15.963  19.968  0.1063 -0.1205 -0.1969
 2679DPPE   C3B54011   5.376  15.844  20.388 -0.0503 -0.3445  0.2209
 2679DPPE   C4B54012   5.012  15.602  20.332 -0.2622 -0.1646 -0.2502
 2680DPPE   NH354013  14.203  24.996  17.568 -0.0646 -0.1603  0.0728
 2680DPPE   PO454014  14.443  24.805  17.938  0.0880  0.0039 -0.0701
 2680DPPE   GL154015  14.256  25.141  18.066 -0.2006 -0.0108  0.0964
 2680DPPE   GL254016  13.854  25.085  17.908 -0.3409  0.0285 -0.1655
 2680DPPE   C1A54017  14.094  25.513  18.006  0.0170  0.0653  0.1231
 2680DPPE   C2A54018  14.100  25.916  17.804  0.0293  0.3809  0.0667
 2680DPPE   C3A54019  13.908  26.182  17.528  0.4770 -0.2036  0.3048
 2680DPPE   C4A54020  13.483  26.389  17.454  0.0575 -0.0292 -0.2526
 2680DPPE   C1B54021  13.791  25.303  18.400  0.2412  0.3186  0.2030
 2680DPPE   C2B54022  14.092  25.699  18.491 -0.1536 -0.3815  0.2457
 2680DPPE   C3B54023  14.313  26.070  18.477  0.0453  0.0529  0.2213
 2680DPPE   C4B54024  14.214  26.461  18.683  0.3105  0.1405 -0.0538
 2681DPPE   NH354025   8.623  11.040  18.182 -0.1102 -0.2310 -0.0734
 2681DPPE   PO454026   8.479  11.274  18.435 -0.2051  0.1530 -0.3317
 2681DPPE   GL154027   8.156  11.329  18.808  0.0630  0.2698 -0.0313
 2681DPPE   GL254028   8.276  10.963  18.959  0.3106 -0.0954 -0.2182
 2681DPPE   C1A54029   8.077  11.256  19.290  0.0264  0.0127 -0.1096
 2681DPPE   C2A54030   7.847  11.234  19.652 -0.1250 -0.1173  0.1626
 2681DPPE   C3A54031   7.636  11.549  19.909 -0.0741 -0.0698  0.1746
 2681DPPE   C4A54032   7.496  11.904  20.091  0.0602 -0.0284  0.2482
 2681DPPE   C1B54033   8.266  10.648  19.282 -0.2885 -0.1905  0.1383
 2681DPPE   C2B54034   8.265  10.451  19.710 -0.2250 -0.0300  0.2023
 2681DPPE   C3B54035   8.129  10.277  20.099  0.0997 -0.2641 -0.0997
 2681DPPE   C4B54036   8.539  10.456  20.259  0.0603  0.1046  0.4384
 2682DPPE   NH354037  18.463  17.847  18.332  0.1247 -0.0827  0.1631
 2682DPPE   PO454038  18.867  17.869  18.354  0.1036  0.2147 -0.2011
 2682DPPE   GL154039  19.163  17.919  18.713 -0.0433 -0.2454 -0.0350
 2682DPPE   GL254040  19.125  17.691  18.997  0.3598  0.3211  0.2386
 2682DPPE   C1A54041  19.371  18.229  19.021 -0.4388  0.0655  0.2321
 2682DPPE   C2A54042  19.589  18.368  19.407 -0.0134 -0.2596  0.1799
 2682DPPE   C3A54043  19.752  18.476  19.748 -0.1003 -0.4344  0.2144
 2682DPPE   C4A54044  20.148  18.524  19.951  0.0665 -0.1865 -0.2144
 2682DPPE   C1B54045  19.430  17.771  19.349  0.1617 -0.0273  0.0682
 2682DPPE   C2B54046  19.630  17.938  19.638  0.1798  0.3618  0.2230
 2682DPPE   C3B54047  19.890  17.998  19.933 -0.1156  0.2033  0.1151
 2682DPPE   C4B54048  20.152  17.691  20.192  0.2987 -0.0408 -0.1335
 2683DPPE   NH354049   6.619  19.813  18.749 -0.0292 -0.0954 -0.0792
 2683DPPE   PO454050   7.018  20.142  18.723  0.0158 -0.0695  0.3241
 2683DPPE   GL154051   7.257  20.261  19.177  0.3129  0.1019  0.1532
 2683DPPE   GL254052   7.320  19.985  19.279  0.0353  0.2846 -0.1510
 2683DPPE   C1A54053   7.139  20.490  19.586  0.4497 -0.1700  0.1597
 2683DPPE   C2A54054   7.085  20.465  20.181  0.1882  0.2628  0.2506
 2683DPPE   C3A54055   6.996  20.879  20.403  0.1799 -0.0934 -0.0454
 2683DPPE   C4A54056   6.866  20.983  20.823 -0.0277 -0.1205  0.0200
 2683DPPE   C1B54057   7.262  19.970  19.649  0.4658  0.0086 -0.1385
 2683DPPE   C2B54058   7.232  19.862  20.086 -0.1807 -0.1632 -0.1191
 2683DPPE   C3B54059   7.177  19.613  20.416  0.0461  0.1891  0.2744
 2683DPPE   C4B54060   7.090  19.594  20.854  0.0653 -0.1000  0.0773
 2684DPPE   NH354061   8.289  16.373  18.165  0.1985 -0.0828 -0.2359
 2684DPPE   PO454062   8.677  16.256  18.097  0.1453  0.0559 -0.2377
 2684DPPE   GL154063   8.760  16.135  18.511 -0.1197  0.1848 -0.2380
 2684DPPE   GL254064   8.530  16.081  18.666 -0.0360 -0.0314 -0.2133
 2684DPPE   C1A54065   9.062  15.972  18.745  0.1651 -0.4143 -0.1098
 2684DPPE   C2A54066   9.256  16.037  19.191  0.2137 -0.1587  0.1423
 2684DPPE   C3A54067   9.679  15.940  19.316 -0.1982 -0.4307  0.2365
 2684DPPE   C4A54068   9.754  15.808  19.730 -0.4940  0.1515 -0.2307
 2684DPPE   C1B54069   8.714  16.158  19.088  0.1047  0.0816  0.2961
 2684DPPE   C2B54070   8.876  16.133  19.462 -0.1160  0.4530 -0.1097
 2684DPPE   C3B54071   9.218  16.030  19.697 -0.0001  0.0700 -0.0201
 2684DPPE   C4B54072   9.556  16.185  19.985 -0.3614 -0.3872 -0.0880
 2685DPPE   NH354073  14.571  20.427  18.522 -0.1226  0.0265 -0.0828
 2685DPPE   PO454074  14.912  20.652  18.346  0.2517 -0.0473 -0.1495
 2685DPPE   GL154075  14.853  20.824  18.736 -0.4704  0.0973  0.2706
 2685DPPE   GL254076  14.688  21.117  18.698  0.6701  0.1056 -0.0586
 2685DPPE   C1A54077  14.912  20.942  19.191  0.0325 -0.0782 -0.2180
 2685DPPE   C2A54078  14.887  20.889  19.584  0.0856  0.0050 -0.2098
 2685DPPE   C3A54079  14.879  20.965  19.972  0.2477  0.1081  0.1544
 2685DPPE   C4A54080  14.888  21.051  20.367 -0.0141  0.1451 -0.3027
 2685DPPE   C1B54081  14.500  21.191  19.034 -0.1022 -0.1869 -0.0789
 2685DPPE   C2B54082  14.508  21.254  19.424  0.1636 -0.0833  0.1933
 2685DPPE   C3B54083  14.520  21.230  19.793  0.2127 -0.0201 -0.1471
 2685DPPE   C4B54084  14.540  21.370  20.265  0.0780  0.3253 -0.0494
 2686DPPE   NH354085  18.316  20.434  18.147  0.1771  0.0296  0.3592
 2686DPPE   PO454086  18.248  20.052  18.205 -0.4581  0.1943  0.0150
 2686DPPE   GL154087  18.386  20.219  18.602  0.1910  0.2983 -0.2774
 2686DPPE   GL254088  18.150  20.514  18.591  0.1233 -0.1549  0.1423
 2686DPPE   C1A54089  18.437  20.313  19.097  0.1546 -0.1700  0.2492
 2686DPPE   C2A54090  18.603  20.271  19.450  0.1290 -0.2218  0.2075
 2686DPPE   C3A54091  18.854  20.394  19.699  0.0584  0.1717  0.1714
 2686DPPE   C4A54092  19.299  20.437  19.930 -0.1326  0.1952  0.0834
 2686DPPE   C1B54093  18.601  20.630  18.703  0.3818  0.0727 -0.0377
 2686DPPE   C2B54094  18.916  20.884  18.729  0.0212 -0.2397 -0.0516
 2686DPPE   C3B54095  19.322  21.131  18.623  0.0467  0.2002  0.1468
 2686DPPE   C4B54096  19.507  21.461  18.320  0.0158  0.3785  0.1810
 2687DPPE   NH354097  14.181   9.723  17.559  0.2816 -0.1451  0.0438
 2687DPPE   PO454098  13.838   9.440  17.791  0.0087 -0.2307  0.1928
 2687DPPE   GL154099  13.785   9.335  18.230 -0.3246  0.0775  0.0811
 2687DPPE   GL254100  14.050   9.065  18.275 -0.0568  0.2655  0.1495
 2687DPPE   C1A54101  13.678   9.078  18.575 -0.1914 -0.0576  0.1759
 2687DPPE   C2A54102  13.524   8.664  18.697  0.1110  0.0542  0.3431
 2687DPPE   C3A54103  13.489   8.131  18.556  0.1360  0.3449 -0.1644
 2687DPPE   C4A54104  13.783   7.765  18.521  0.1238 -0.1289 -0.1116
 2687DPPE   C1B54105  14.241   9.048  18.634  0.0315  0.1263  0.0263
 2687DPPE   C2B54106  14.443   8.907  19.010 -0.1533 -0.2070  0.2955
 2687DPPE   C3B54107  14.722   8.784  19.361 -0.2200 -0.1354  0.2197
 2687DPPE   C4B54108  14.682   8.850  19.880 -0.1389  0.1005  0.3154
 2688DPPE   NH354109  11.299  17.336  18.532 -0.0701 -0.1285 -0.2786
 2688DPPE   PO454110  10.942  17.168  18.395 -0.0213 -0.1400  0.1106
 2688DPPE   GL154111  10.876  17.379  18.760 -0.0334 -0.1691  0.1274
 2688DPPE   GL254112  10.595  17.150  19.011  0.0731 -0.2995 -0.2268
 2688DPPE   C1A54113  10.963  17.421  19.195  0.0437 -0.1878 -0.0541
 2688DPPE   C2A54114  11.035  17.625  19.651 -0.0634  0.1387  0.1906
 2688DPPE   C3A54115  10.957  17.792  20.019  0.1600  0.1407 -0.2183
 2688DPPE   C4A54116  11.109  17.767  20.404  0.0388 -0.2265  0.1611
 2688DPPE   C1B54117  10.766  16.983  19.286  0.1172 -0.1184 -0.1000
 2688DPPE   C2B54118  10.822  16.933  19.704  0.0414  0.1139 -0.3704
 2688DPPE   C3B54119  11.029  16.821  20.060 -0.0042 -0.0750  0.1162
 2688DPPE   C4B54120  11.214  16.856  20.418 -0.1551 -0.4312 -0.1240
 2689DPPE   NH354121  14.066  22.951  17.960  0.0386  0.1879 -0.0180
 2689DPPE   PO454122  14.388  22.893  18.221 -0.2231 -0.2696  0.0903
 2689DPPE   GL154123  14.388  22.973  18.596  0.0315 -0.1263 -0.1370
 2689DPPE   GL254124  14.500  23.371  18.589 -0.0907 -0.1290 -0.3102
 2689DPPE   C1A54125  14.106  23.056  18.881  0.1915  0.1766  0.0744
 2689DPPE   C2A54126  13.873  22.892  19.225 -0.0291 -0.0153  0.2299
 2689DPPE   C3A54127  13.824  22.986  19.659  0.0310 -0.3164  0.0568
 2689DPPE   C4A54128  14.091  23.162  19.951  0.1681 -0.0118 -0.3180
 2689DPPE   C1B54129  14.811  23.600  18.911  0.2890 -0.0964  0.3844
 2689DPPE   C2B54130  14.851  23.911  19.313 -0.0415 -0.1401 -0.2755
 2689DPPE   C3B54131  14.919  24.192  19.612  0.0738  0.0180  0.1059
 2689DPPE   C4B54132  15.089  24.585  19.760 -0.0933 -0.0252  0.4641
 2690DPPE   NH354133  12.144  15.904  18.359  0.0043  0.0081  0.1532
 2690DPPE   PO454134  11.888  15.478  18.249 -0.2965  0.2407  0.2788
 2690DPPE   GL154135  11.979  15.491  18.739  0.1456 -0.0963  0.2264
 2690DPPE   GL254136  12.267  15.456  18.882 -0.1263  0.5620  0.0911
 2690DPPE   C1A54137  11.825  15.588  19.156 -0.1575 -0.2659 -0.0755
 2690DPPE   C2A54138  11.813  15.524  19.527  0.0095 -0.1077 -0.0526
 2690DPPE   C3A54139  11.827  15.441  20.024  0.2001 -0.0925 -0.1653
 2690DPPE   C4A54140  11.841  15.179  20.470  0.1243 -0.4850 -0.2213
 2690DPPE   C1B54141  12.254  15.417  19.338  0.2222 -0.1141 -0.4121
 2690DPPE   C2B54142  12.317  15.420  19.791 -0.0537 -0.1513 -0.0977
 2690DPPE   C3B54143  12.364  15.303  20.173  0.4338  0.0667  0.0956
 2690DPPE   C4B54144  12.304  15.338  20.600 -0.0035 -0.1210  0.1416
 2691DPPE   NH354145  12.598   9.842  17.692  0.0593  0.0346 -0.2804
 2691DPPE   PO454146  12.174   9.829  17.887  0.2519 -0.1428 -0.3880
 2691DPPE   GL154147  11.986   9.472  18.118 -0.4119  0.1766 -0.1625
 2691DPPE   GL254148  11.881   9.181  17.994 -0.0615 -0.0542 -0.0504
 2691DPPE   C1A54149  12.015   9.196  18.482 -0.0362  0.0658  0.2537
 2691DPPE   C2A54150  11.896   8.832  18.669  0.3591  0.1929 -0.1570
 2691DPPE   C3A54151  11.900   8.571  19.001  0.3855 -0.0702  0.2329
 2691DPPE   C4A54152  12.011   8.225  19.228 -0.2625 -0.3342 -0.1307
 2691DPPE   C1B54153  11.905   8.821  18.138  0.3091  0.2168 -0.1954
 2691DPPE   C2B54154  11.677   8.367  18.245  0.0870 -0.3097 -0.1017
 2691DPPE   C3B54155  11.502   8.048  18.138 -0.2504 -0.2634  0.2078
 2691DPPE   C4B54156  11.290   7.713  17.778  0.0884 -0.0136  0.1205
 2692DPPE   NH354157  12.855  23.629  18.061 -0.4176  0.4479 -0.0555
 2692DPPE   PO454158  13.251  23.934  18.021  0.0755 -0.1522 -0.0427
 2692DPPE   GL154159  13.395  23.905  18.457  0.0009 -0.3548 -0.0998
 2692DPPE   GL254160  13.154  24.000  18.524  0.2199  0.1481  0.0644
 2692DPPE   C1A54161  13.545  24.213  18.663 -0.2263  0.1928 -0.2556
 2692DPPE   C2A54162  13.483  24.262  19.035 -0.0734 -0.2310  0.0957
 2692DPPE   C3A54163  13.662  24.383  19.379 -0.1372 -0.4995  0.0122
 2692DPPE   C4A54164  13.596  24.416  19.727  0.3477  0.1433 -0.2034
 2692DPPE   C1B54165  13.058  24.073  18.889  0.1145  0.1356  0.1576
 2692DPPE   C2B54166  13.104  24.096  19.280 -0.0017 -0.1034 -0.0349
 2692DPPE   C3B54167  13.204  24.079  19.698 -0.3666  0.2197  0.1523
 2692DPPE   C4B54168  13.204  24.152  20.257  0.1606 -0.0508 -0.0985
 2693DPPE   NH354169  18.680  17.987  18.803  0.3433  0.2637  0.1164
 2693DPPE   PO454170  18.667  18.311  18.377 -0.1764 -0.2633  0.0696
 2693DPPE   GL154171  18.944  18.398  18.802  0.0865 -0.0798 -0.0747
 2693DPPE   GL254172  18.890  18.195  19.160  0.0386 -0.1751 -0.1025
 2693DPPE   C1A54173  19.117  18.655  19.137 -0.3274 -0.1503 -0.0844
 2693DPPE   C2A54174  19.123  18.551  19.495  0.1983  0.0652 -0.0169
 2693DPPE   C3A54175  19.146  18.633  19.885 -0.2030 -0.0022 -0.0623
 2693DPPE   C4A54176  19.464  18.873  20.052 -0.2113  0.0666  0.0613
 2693DPPE   C1B54177  19.030  18.016  19.575  0.4209  0.2258  0.0718
 2693DPPE   C2B54178  19.211  18.118  19.919 -0.2281  0.0969  0.4170
 2693DPPE   C3B54179  19.263  18.406  20.323 -0.4287 -0.1594  0.1542
 2693DPPE   C4B54180  18.879  18.756  20.316  0.1030  0.0870  0.1717
 2694DPPE   NH354181  17.379  22.992  18.245  0.1155  0.0845 -0.0441
 2694DPPE   PO454182  17.181  22.708  18.421 -0.1675  0.0941 -0.1850
 2694DPPE   GL154183  17.374  22.493  18.811  0.2293 -0.0687  0.2203
 2694DPPE   GL254184  17.517  22.956  18.778 -0.5552 -0.0935 -0.0944
 2694DPPE   C1A54185  17.450  22.418  19.276 -0.1957 -0.0653  0.0822
 2694DPPE   C2A54186  17.604  22.389  19.715 -0.0861 -0.0773  0.0008
 2694DPPE   C3A54187  17.450  22.478  20.081 -0.0816  0.1176  0.2750
 2694DPPE   C4A54188  17.229  22.412  20.496 -0.0355 -0.1064  0.4425
 2694DPPE   C1B54189  17.656  22.844  19.129 -0.0162  0.0700  0.1355
 2694DPPE   C2B54190  17.455  22.911  19.551 -0.0194 -0.1980  0.0241
 2694DPPE   C3B54191  17.100  23.283  19.758  0.1184  0.0804 -0.1228
 2694DPPE   C4B54192  16.731  23.467  19.985  0.2675 -0.1619 -0.2052
 2695DPPE   NH354193   8.914  16.668  18.311 -0.0401 -0.2282  0.1337
 2695DPPE   PO454194   9.225  16.371  18.120 -0.1955  0.0662  0.1746
 2695DPPE   GL154195   9.265  16.383  18.556 -0.1774 -0.6239 -0.2844
 2695DPPE   GL254196   9.564  16.327  18.633 -0.1293 -0.1529 -0.0344
 2695DPPE   C1A54197   9.138  16.544  18.912  0.0818 -0.1330  0.2286
 2695DPPE   C2A54198   9.163  16.494  19.290 -0.1900 -0.0003  0.0131
 2695DPPE   C3A54199   9.087  16.513  19.718  0.1521 -0.2600 -0.0872
 2695DPPE   C4A54200   9.037  16.351  20.136 -0.1290  0.1778  0.2617
 2695DPPE   C1B54201   9.601  16.372  19.125  0.0681 -0.0879  0.3924
 2695DPPE   C2B54202   9.553  16.480  19.597 -0.2366  0.2805 -0.0902
 2695DPPE   C3B54203   9.523  16.667  19.957  0.0479 -0.0485 -0.0852
 2695DPPE   C4B54204   9.150  16.812  20.300 -0.0199  0.0312  0.4346
 2696DPPE   NH354205  18.796  13.467  18.420  0.0074  0.1802  0.0059
 2696DPPE   PO454206  19.168  13.113  18.312 -0.2661 -0.0089 -0.2172
 2696DPPE   GL154207  19.443  12.929  18.583  0.0986 -0.0241 -0.1405
 2696DPPE   GL254208  19.750  12.685  18.566 -0.3136 -0.0274  0.0522
 2696DPPE   C1A54209  19.439  12.846  19.019 -0.2701  0.2097 -0.2138
 2696DPPE   C2A54210  19.421  13.064  19.479 -0.1348 -0.4627 -0.1870
 2696DPPE   C3A54211  19.698  12.885  19.710 -0.2851 -0.1566 -0.0377
 2696DPPE   C4A54212  19.795  12.738  20.067 -0.0959  0.0202  0.0272
 2696DPPE   C1B54213  20.228  12.628  18.618  0.1581  0.0111 -0.0967
 2696DPPE   C2B54214  20.475  12.955  18.790  0.2422 -0.1670  0.2873
 2696DPPE   C3B54215  20.527  13.232  19.003  0.0506 -0.2200 -0.2757
 2696DPPE   C4B54216  20.803  13.493  19.332  0.1922  0.0485 -0.0761
 2697DPPE   NH354217  13.944  24.597  17.983 -0.0175 -0.2852  0.2161
 2697DPPE   PO454218  13.660  24.682  18.237 -0.1504  0.2297 -0.2276
 2697DPPE   GL154219  13.602  24.888  18.588  0.1560  0.1441 -0.1342
 2697DPPE   GL254220  13.691  24.720  18.936 -0.3261  0.0570  0.0691
 2697DPPE   C1A54221  13.598  25.176  18.901  0.1340  0.1940  0.1701
 2697DPPE   C2A54222  13.881  25.542  19.146 -0.0127  0.3440  0.2307
 2697DPPE   C3A54223  14.126  25.783  19.542 -0.1381  0.2547  0.2188
 2697DPPE   C4A54224  14.187  26.174  19.798  0.2847 -0.1320  0.3097
 2697DPPE   C1B54225  14.036  24.867  18.842 -0.1428 -0.1728  0.0748
 2697DPPE   C2B54226  14.317  25.280  18.666  0.0146 -0.0840  0.1609
 2697DPPE   C3B54227  14.601  25.665  18.678  0.2440  0.0852 -0.2036
 2697DPPE   C4B54228  14.858  25.861  18.425  0.0201  0.1223 -0.2031
 2698DPPE   NH354229   7.779  19.817  19.110  0.0373 -0.0540 -0.2141
 2698DPPE   PO454230   7.748  20.253  19.216 -0.1250  0.0354  0.3568
 2698DPPE   GL154231   7.555  20.680  19.311 -0.1260  0.1350 -0.1885
 2698DPPE   GL254232   7.860  20.756  19.425  0.3449 -0.1769 -0.0226
 2698DPPE   C1A54233   7.373  20.932  19.640  0.0755 -0.2318 -0.1645
 2698DPPE   C2A54234   7.008  20.835  19.838  0.0889 -0.1382  0.2664
 2698DPPE   C3A54235   6.549  20.994  20.154 -0.0393  0.0552  0.4029
 2698DPPE   C4A54236   6.466  21.010  20.571 -0.1408 -0.3781  0.3308
 2698DPPE   C1B54237   7.687  20.536  19.790  0.0187  0.1751  0.1499
 2698DPPE   C2B54238   7.559  20.324  20.219 -0.1098  0.0927  0.0095
 2698DPPE   C3B54239   7.669  20.231  20.704 -0.1188  0.2995  0.2037
 2698DPPE   C4B54240   7.819  20.085  21.174 -0.0468  0.2330  0.0996
 2699DPPE   NH354241  12.402  10.570  18.321  0.1218  0.1624 -0.2134
 2699DPPE   PO454242  12.774  10.341  18.308  0.1388  0.0158 -0.0203
 2699DPPE   GL154243  12.683  10.194  18.705  0.2353 -0.2656  0.1322
 2699DPPE   GL254244  12.282  10.237  18.708  0.2343 -0.3801 -0.1655
 2699DPPE   C1A54245  12.705   9.907  18.990 -0.0988 -0.2544  0.0706
 2699DPPE   C2A54246  12.490   9.397  19.215 -0.0612  0.2761  0.1708
 2699DPPE   C3A54247  12.661   9.008  19.323  0.1632 -0.1568 -0.2516
 2699DPPE   C4A54248  13.044   8.780  19.473 -0.0614 -0.0024  0.0749
 2699DPPE   C1B54249  12.056   9.996  19.053 -0.2957 -0.1239  0.0458
 2699DPPE   C2B54250  11.937   9.613  19.231  0.1810 -0.1017  0.0380
 2699DPPE   C3B54251  12.152   9.260  19.554  0.1206  0.3378  0.1381
 2699DPPE   C4B54252  12.441   8.958  19.787 -0.1435  0.2960  0.0067
 2700DPPE   NH354253  16.199  13.618  18.202 -0.1424  0.1300  0.0861
 2700DPPE   PO454254  16.367  13.244  17.953 -0.0712  0.0896  0.0409
 2700DPPE   GL154255  16.182  13.202  18.468  0.1616  0.0436  0.0197
 2700DPPE   GL254256  16.334  13.498  18.731 -0.0953  0.3701  0.2116
 2700DPPE   C1A54257  16.000  13.013  18.883  0.1229 -0.0965  0.0091
 2700DPPE   C2A54258  16.014  12.918  19.315  0.0069 -0.1038 -0.0803
 2700DPPE   C3A54259  15.986  12.918  19.762 -0.3382  0.2273 -0.2698
 2700DPPE   C4A54260  16.115  12.797  20.187 -0.0631  0.1158 -0.3014
 2700DPPE   C1B54261  16.321  13.318  19.175 -0.1048  0.1354 -0.0725
 2700DPPE   C2B54262  16.383  13.501  19.504  0.1181 -0.3851 -0.2645
 2700DPPE   C3B54263  16.429  13.355  19.866 -0.1502  0.1953  0.1045
 2700DPPE   C4B54264  16.315  13.241  20.244  0.1791 -0.2157  0.0567
 2701DPPE   NH354265   6.364  18.784  18.499  0.2861 -0.0651 -0.1438
 2701DPPE   PO454266   6.096  18.483  18.701  0.2170  0.0353 -0.0911
 2701DPPE   GL154267   6.097  18.190  19.089  0.0851 -0.3073 -0.0108
 2701DPPE   GL254268   6.309  18.398  19.296 -0.1515  0.0684  0.0771
 2701DPPE   C1A54269   5.871  18.188  19.434 -0.1625  0.0047 -0.0126
 2701DPPE   C2A54270   5.822  18.237  19.901 -0.0872 -0.1475 -0.3031
 2701DPPE   C3A54271   5.613  18.201  20.264  0.0596 -0.1724  0.1922
 2701DPPE   C4A54272   5.440  18.365  20.586 -0.3974  0.0379  0.0820
 2701DPPE   C1B54273   6.229  18.489  19.668  0.0284 -0.0956 -0.2322
 2701DPPE   C2B54274   6.231  18.402  20.113  0.2456  0.0198 -0.0522
 2701DPPE   C3B54275   6.045  18.311  20.489  0.3401  0.3621 -0.2839
 2701DPPE   C4B54276   5.837  18.298  20.895  0.2299 -0.3496 -0.1197
 2702DPPE   NH354277  10.914  20.493  18.233  0.1935 -0.1071 -0.2117
 2702DPPE   PO454278  10.561  20.258  18.460 -0.1233  0.1315  0.0727
 2702DPPE   GL154279  10.556  20.309  18.887  0.0522  0.0058 -0.0691
 2702DPPE   GL254280  10.285  20.336  19.115  0.0607  0.3539  0.1665
 2702DPPE   C1A54281  10.705  20.377  19.339  0.3586  0.1341  0.1575
 2702DPPE   C2A54282  10.566  20.491  19.838 -0.1520  0.3373 -0.0327
 2702DPPE   C3A54283  10.541  20.515  20.204  0.0394  0.1439  0.0777
 2702DPPE   C4A54284  10.614  20.660  20.536 -0.1827 -0.0401  0.0201
 2702DPPE   C1B54285  10.211  20.293  19.483  0.3271  0.0232  0.0800
 2702DPPE   C2B54286  10.088  20.322  19.940  0.0273  0.0668 -0.1359
 2702DPPE   C3B54287   9.760  20.207  20.145  0.2155 -0.0831  0.2563
 2702DPPE   C4B54288   9.371  20.175  20.239  0.0241 -0.0743 -0.0936
 2703DPPE   NH354289  14.345  21.530  18.507 -0.0428  0.1816 -0.0085
 2703DPPE   PO454290  14.719  21.612  18.290 -0.0351 -0.0045 -0.0898
 2703DPPE   GL154291  14.890  21.548  18.661  0.0027 -0.3159  0.3223
 2703DPPE   GL254292  15.201  21.533  18.780  0.2433  0.3315  0.2424
 2703DPPE   C1A54293  14.655  21.708  19.037  0.3276  0.2283 -0.0130
 2703DPPE   C2A54294  14.622  21.797  19.488  0.0785  0.0032 -0.4191
 2703DPPE   C3A54295  14.481  21.892  19.870 -0.1599 -0.0339  0.1967
 2703DPPE   C4A54296  14.609  21.876  20.234  0.1034  0.4919  0.1021
 2703DPPE   C1B54297  15.083  21.478  19.153  0.5276 -0.0763 -0.1177
 2703DPPE   C2B54298  14.998  21.365  19.631 -0.0990  0.1461  0.0641
 2703DPPE   C3B54299  14.864  21.529  19.934  0.2738 -0.0096 -0.1015
 2703DPPE   C4B54300  15.004  21.498  20.440 -0.0896 -0.0717  0.0750
 2704DPPE   NH354301  10.520  12.418  18.163  0.1143  0.2199  0.0362
 2704DPPE   PO454302  10.217  12.561  18.534  0.0905 -0.1336 -0.1173
 2704DPPE   GL154303  10.520  12.535  18.777  0.4233 -0.1979  0.0130
 2704DPPE   GL254304  10.674  12.739  18.642 -0.1349  0.1282 -0.2653
 2704DPPE   C1A54305  10.485  12.540  19.212 -0.0600 -0.1056 -0.1130
 2704DPPE   C2A54306  10.508  12.647  19.696  0.1952 -0.0244 -0.0821
 2704DPPE   C3A54307  10.438  12.898  20.103  0.2653  0.0520 -0.0175
 2704DPPE   C4A54308  10.645  12.982  20.560  0.0768  0.0003  0.3405
 2704DPPE   C1B54309  10.697  12.969  18.952 -0.0233 -0.1656 -0.0310
 2704DPPE   C2B54310  10.751  12.979  19.421  0.0306 -0.0940 -0.0201
 2704DPPE   C3B54311  10.591  13.297  19.512 -0.0851  0.3077 -0.0281
 2704DPPE   C4B54312  10.272  13.520  19.342  0.2556  0.0502 -0.1688
 2705DPPE   NH354313  13.730  10.963  17.847  0.3448 -0.0711 -0.2907
 2705DPPE   PO454314  14.096  10.695  18.016  0.1745 -0.0617  0.1453
 2705DPPE   GL154315  14.242  10.512  18.416 -0.2480 -0.0808 -0.0116
 2705DPPE   GL254316  14.290  10.206  18.401 -0.1204  0.3753 -0.1617
 2705DPPE   C1A54317  14.193  10.557  18.787  0.1982  0.1149  0.1037
 2705DPPE   C2A54318  13.956  10.661  19.150  0.0512  0.0272 -0.1475
 2705DPPE   C3A54319  13.995  10.632  19.495 -0.0823  0.1985  0.1634
 2705DPPE   C4A54320  13.714  10.607  19.839 -0.1945 -0.1318  0.2181
 2705DPPE   C1B54321  14.165  10.026  18.735  0.2259  0.2228 -0.1090
 2705DPPE   C2B54322  14.126  10.121  19.204 -0.1445 -0.1071  0.0764
 2705DPPE   C3B54323  14.362  10.055  19.448  0.2107  0.2247 -0.1554
 2705DPPE   C4B54324  14.800  10.138  19.536  0.0186 -0.3430 -0.0582
 2706DPPE   NH354325  16.988  22.682  17.985  0.1445  0.3141 -0.1323
 2706DPPE   PO454326  16.932  22.182  18.155 -0.1471  0.0502 -0.2995
 2706DPPE   GL154327  16.936  22.184  18.648 -0.0702  0.0799  0.3192
 2706DPPE   GL254328  16.766  21.924  18.855 -0.0972 -0.0712  0.1402
 2706DPPE   C1A54329  16.998  22.356  19.083 -0.0811  0.0651  0.5430
 2706DPPE   C2A54330  17.020  22.547  19.393 -0.1448 -0.0212 -0.2529
 2706DPPE   C3A54331  17.090  22.712  19.857 -0.0091  0.2388  0.1501
 2706DPPE   C4A54332  17.271  22.966  20.161 -0.0169  0.1552 -0.0090
 2706DPPE   C1B54333  16.738  22.050  19.381  0.4419  0.0763 -0.1133
 2706DPPE   C2B54334  17.103  22.149  19.664  0.0951  0.1352  0.0443
 2706DPPE   C3B54335  17.051  22.148  20.076 -0.1740  0.0009 -0.0141
 2706DPPE   C4B54336  17.164  21.824  20.398  0.0365 -0.2361  0.0150
 2707DPPE   NH354337   9.391  22.763  19.087 -0.2888  0.0796  0.2890
 2707DPPE   PO454338   9.801  22.915  19.070  0.1558 -0.0592  0.1706
 2707DPPE   GL154339   9.758  23.137  19.369  0.4138 -0.0322  0.1641
 2707DPPE   GL254340   9.636  23.340  19.634 -0.1265 -0.1623 -0.2276
 2707DPPE   C1A54341   9.997  23.040  19.804  0.0978 -0.1725 -0.1630
 2707DPPE   C2A54342   9.958  23.083  20.286  0.1220  0.3411  0.1782
 2707DPPE   C3A54343  10.117  23.338  20.559  0.0322 -0.0944  0.2717
 2707DPPE   C4A54344  10.381  23.612  20.840  0.3117  0.0068  0.0918
 2707DPPE   C1B54345   9.543  23.307  20.142 -0.0551  0.0024 -0.1833
 2707DPPE   C2B54346   9.624  23.468  20.575 -0.2850 -0.1472  0.1330
 2707DPPE   C3B54347   9.811  23.630  20.920  0.0753  0.1039 -0.0531
 2707DPPE   C4B54348  10.012  23.677  21.386  0.0823 -0.1592 -0.0465
 2708DPPE   NH354349   6.479  19.752  19.232  0.1635 -0.0749  0.3057
 2708DPPE   PO454350   6.848  19.920  19.210 -0.1252 -0.2541 -0.0962
 2708DPPE   GL154351   6.773  20.220  19.469  0.0557  0.4149 -0.0879
 2708DPPE   GL254352   6.626  20.639  19.489 -0.0023 -0.0136 -0.3396
 2708DPPE   C1A54353   6.715  20.410  19.930  0.0647  0.1705 -0.0049
 2708DPPE   C2A54354   6.541  20.522  20.403 -0.1789 -0.3032  0.1115
 2708DPPE   C3A54355   6.490  20.620  20.898 -0.1799 -0.0747 -0.0922
 2708DPPE   C4A54356   6.537  20.381  21.339 -0.3858 -0.1791  0.1275
 2708DPPE   C1B54357   6.312  20.608  19.753  0.1877 -0.1999 -0.2447
 2708DPPE   C2B54358   6.032  20.355  19.998  0.0774  0.1507  0.0660
 2708DPPE   C3B54359   5.638  20.548  20.192  0.1153 -0.3340 -0.1247
 2708DPPE   C4B54360   5.642  20.426  20.540 -0.3088 -0.2351  0.1106
 2709DPPE   NH354361  17.795  11.189  18.442  0.2925  0.0271  0.3332
 2709DPPE   PO454362  17.880  11.024  18.093 -0.0188 -0.0687  0.1017
 2709DPPE   GL154363  18.417  10.982  18.159 -0.0522 -0.0024 -0.1304
 2709DPPE   GL254364  18.697  11.008  17.839 -0.1931  0.1326 -0.1281
 2709DPPE   C1A54365  18.607  10.726  18.388  0.2124  0.1486 -0.1790
 2709DPPE   C2A54366  18.915  10.437  18.252  0.1099  0.2693 -0.5069
 2709DPPE   C3A54367  19.399  10.268  18.363  0.0950  0.2151  0.0593
 2709DPPE   C4A54368  19.649  10.144  18.657  0.0859  0.1863 -0.0294
 2709DPPE   C1B54369  19.019  10.930  18.101 -0.2872  0.1260 -0.1637
 2709DPPE   C2B54370  19.409  10.709  18.172 -0.0736 -0.1015  0.3988
 2709DPPE   C3B54371  19.609  10.635  18.619 -0.3324 -0.2401  0.0678
 2709DPPE   C4B54372  19.988  10.849  18.565  0.1546  0.1814  0.2846
 2710DPPE   NH354373  17.095  10.026  17.944 -0.0477 -0.1906  0.1104
 2710DPPE   PO454374  17.513  10.236  17.895  0.0155 -0.1278 -0.1007
 2710DPPE   GL154375  17.460  10.119  18.419 -0.3297  0.1554  0.1827
 2710DPPE   GL254376  17.609  10.197  18.647 -0.2135  0.3947 -0.2119
 2710DPPE   C1A54377  17.573   9.656  18.691 -0.3912 -0.0587  0.0499
 2710DPPE   C2A54378  17.555   9.428  19.107 -0.0075 -0.0964 -0.1400
 2710DPPE   C3A54379  17.775   9.488  19.509 -0.1019  0.0966  0.0620
 2710DPPE   C4A54380  17.784   9.098  19.528 -0.1429 -0.1251  0.0761
 2710DPPE   C1B54381  18.015  10.021  18.554 -0.2753  0.0612  0.1767
 2710DPPE   C2B54382  18.202   9.686  18.318  0.1277  0.1942 -0.1703
 2710DPPE   C3B54383  18.621   9.611  18.034  0.1130 -0.1357  0.2444
 2710DPPE   C4B54384  18.876   9.369  17.677  0.0890 -0.2783  0.2788
 2711DPPE   NH354385  19.719  13.079  18.180  0.3383  0.0561 -0.2183
 2711DPPE   PO454386  19.849  12.793  18.102  0.2620  0.0352  0.4296
 2711DPPE   GL154387  19.971  12.509  17.836  0.1801 -0.2276 -0.2368
 2711DPPE   GL254388  19.678  12.236  17.813  0.1225  0.0334  0.0975
 2711DPPE   C1A54389  20.194  12.173  17.767  0.2038  0.2957 -0.0823
 2711DPPE   C2A54390  20.363  11.999  17.326  0.0142  0.0313  0.2856
 2711DPPE   C3A54391  20.552  11.752  17.097 -0.2776  0.1956 -0.1728
 2711DPPE   C4A54392  20.711  11.511  16.707 -0.3142  0.2514 -0.1620
 2711DPPE   C1B54393  19.925  12.009  18.119 -0.1149  0.1685 -0.2035
 2711DPPE   C2B54394  20.227  11.721  18.122  0.0051  0.1113  0.0308
 2711DPPE   C3B54395  20.463  11.687  18.569 -0.0341 -0.0731  0.0308
 2711DPPE   C4B54396  20.503  12.125  18.486 -0.0394  0.3845  0.1770
 2712DPPE   NH354397  16.492  11.677  18.285 -0.0050 -0.2769  0.2054
 2712DPPE   PO454398  16.610  11.289  18.386  0.4303  0.1935  0.1842
 2712DPPE   GL154399  16.599  11.050  18.795 -0.0622 -0.2208  0.4690
 2712DPPE   GL254400  16.729  10.729  18.771  0.1700  0.1447 -0.1345
 2712DPPE   C1A54401  16.541  10.962  19.209  0.1969  0.4172  0.1824
 2712DPPE   C2A54402  16.701  10.962  19.650 -0.0764  0.1457 -0.2922
 2712DPPE   C3A54403  16.769  10.663  19.924 -0.0229  0.0008 -0.5445
 2712DPPE   C4A54404  16.873  10.412  20.217 -0.1194 -0.0942  0.0741
 2712DPPE   C1B54405  16.610  10.490  19.049  0.2742  0.0529  0.1392
 2712DPPE   C2B54406  16.696  10.222  19.284  0.3400 -0.2564  0.0528
 2712DPPE   C3B54407  16.461   9.832  19.429  0.0518  0.2607 -0.4152
 2712DPPE   C4B54408  16.593   9.464  19.342 -0.0926 -0.1305  0.3106
 2713DPPE   NH354409  11.916  25.099  18.130 -0.0494  0.1444  0.0877
 2713DPPE   PO454410  11.484  24.875  18.201 -0.4088  0.4031 -0.2149
 2713DPPE   GL154411  11.688  25.135  18.597  0.3123  0.0799  0.1384
 2713DPPE   GL254412  11.780  25.434  18.464  0.2401 -0.1163  0.1256
 2713DPPE   C1A54413  11.694  25.518  18.941  0.0667 -0.3184  0.0856
 2713DPPE   C2A54414  11.965  25.593  19.215  0.0277  0.3333 -0.4696
 2713DPPE   C3A54415  12.082  25.515  19.662  0.0026  0.3733 -0.0321
 2713DPPE   C4A54416  12.492  25.263  19.780  0.3284 -0.0545  0.0361
 2713DPPE   C1B54417  12.112  25.194  18.886 -0.1364  0.0953  0.0852
 2713DPPE   C2B54418  12.391  25.156  19.286 -0.1145  0.0063 -0.1460
 2713DPPE   C3B54419  12.742  25.467  19.349  0.0275  0.0205  0.2191
 2713DPPE   C4B54420  12.997  25.658  19.508 -0.0160  0.2130  0.1561
 2714DPPE   NH354421  15.598  11.973  17.577 -0.0105  0.0226 -0.0028
 2714DPPE   PO454422  15.357  11.896  17.945  0.1754 -0.2181  0.1709
 2714DPPE   GL154423  15.510  11.764  18.401  0.1021 -0.2543  0.2044
 2714DPPE   GL254424  15.681  12.068  18.572  0.1892  0.2830  0.1690
 2714DPPE   C1A54425  15.401  11.745  18.781  0.2292 -0.0193 -0.0245
 2714DPPE   C2A54426  15.434  11.705  19.204  0.0365  0.0856 -0.1208
 2714DPPE   C3A54427  15.439  11.600  19.597 -0.1177  0.4501 -0.0032
 2714DPPE   C4A54428  15.531  11.671  19.944 -0.2151  0.0238 -0.1521
 2714DPPE   C1B54429  15.815  12.062  18.920  0.3225 -0.1344 -0.0160
 2714DPPE   C2B54430  15.826  12.085  19.320 -0.2115 -0.1935 -0.1968
 2714DPPE   C3B54431  15.853  12.077  19.841 -0.3244 -0.1018  0.2899
 2714DPPE   C4B54432  15.778  11.885  20.322  0.1213  0.1723  0.0801
 2715DPPE   NH354433  18.533  12.565  17.674 -0.0718 -0.0872 -0.1380
 2715DPPE   PO454434  18.505  12.544  18.146 -0.0425 -0.3535 -0.3793
 2715DPPE   GL154435  18.990  12.486  18.407 -0.0253  0.3814  0.0907
 2715DPPE   GL254436  18.898  12.287  18.640 -0.1669  0.0110 -0.0159
 2715DPPE   C1A54437  19.366  12.476  18.778 -0.3234  0.0247 -0.5906
 2715DPPE   C2A54438  19.538  12.356  19.021  0.1714  0.0259 -0.0236
 2715DPPE   C3A54439  19.390  12.016  19.352  0.0524 -0.0900 -0.1437
 2715DPPE   C4A54440  19.383  11.747  19.689  0.1343  0.0061 -0.0213
 2715DPPE   C1B54441  19.123  12.010  18.927 -0.0140 -0.1580  0.0380
 2715DPPE   C2B54442  19.006  11.693  19.204  0.3647 -0.1657  0.2244
 2715DPPE   C3B54443  19.021  11.460  19.601  0.1995  0.1144  0.1771
 2715DPPE   C4B54444  18.932  11.056  19.652 -0.0689 -0.1582 -0.1492
 2716DPPE   NH354445   9.861  10.827  18.703 -0.0794 -0.0975 -0.1861
 2716DPPE   PO454446   9.969  10.785  19.080 -0.0891  0.1749  0.0263
 2716DPPE   GL154447  10.208  10.627  19.339 -0.0927  0.2271  0.0092
 2716DPPE   GL254448  10.634  10.658  19.288  0.0918  0.3393  0.1517
 2716DPPE   C1A54449  10.411  10.481  19.737  0.2375  0.1095  0.3763
 2716DPPE   C2A54450  10.601  10.291  20.020  0.0495  0.0511 -0.1951
 2716DPPE   C3A54451  10.784   9.983  19.937 -0.1969  0.0688  0.3052
 2716DPPE   C4A54452  11.077   9.913  19.651  0.0062 -0.1473 -0.0023
 2716DPPE   C1B54453  10.888  10.429  19.523 -0.1275  0.1702 -0.1077
 2716DPPE   C2B54454  11.052  10.517  19.953  0.1208 -0.0852  0.2372
 2716DPPE   C3B54455  11.021  10.402  20.333  0.2126 -0.0917  0.2419
 2716DPPE   C4B54456  11.170  10.651  20.763  0.1608 -0.2758  0.1817
 2717DPPE   NH354457  14.620  12.296  18.346 -0.0546 -0.0590  0.0407
 2717DPPE   PO454458  14.375  12.588  18.115 -0.2156 -0.0342  0.1774
 2717DPPE   GL154459  14.460  12.688  18.645 -0.1561  0.0742  0.2415
 2717DPPE   GL254460  14.326  12.420  18.857 -0.3859  0.0456  0.0099
 2717DPPE   C1A54461  14.623  12.846  19.050  0.1329 -0.1976 -0.4040
 2717DPPE   C2A54462  14.658  12.812  19.450 -0.0194  0.1754  0.1375
 2717DPPE   C3A54463  14.758  12.662  19.751  0.1560 -0.2064 -0.0919
 2717DPPE   C4A54464  14.693  12.626  20.097 -0.1528  0.0337  0.1540
 2717DPPE   C1B54465  14.347  12.470  19.313  0.0680 -0.2405 -0.1364
 2717DPPE   C2B54466  14.327  12.378  19.819 -0.0923 -0.2572  0.4442
 2717DPPE   C3B54467  14.400  12.288  20.279  0.2895 -0.1162 -0.0528
 2717DPPE   C4B54468  14.630  12.582  20.599 -0.0200 -0.0615  0.0078
 2718DPPE   NH354469  10.462  17.091  18.486 -0.0631  0.1966 -0.1077
 2718DPPE   PO454470  10.766  16.686  18.453  0.0036 -0.2864  0.1347
 2718DPPE   GL154471  10.606  16.494  18.762  0.1148  0.0423 -0.3974
 2718DPPE   GL254472  10.276  16.796  18.884 -0.0984 -0.0082  0.0216
 2718DPPE   C1A54473  10.659  16.218  19.148 -0.2229 -0.1636 -0.2651
 2718DPPE   C2A54474  10.588  16.108  19.527 -0.0446 -0.2797 -0.1596
 2718DPPE   C3A54475  10.565  15.948  19.955  0.2052 -0.4098 -0.2177
 2718DPPE   C4A54476  10.642  15.922  20.318 -0.0958  0.1873  0.0001
 2718DPPE   C1B54477  10.366  16.647  19.374  0.0615 -0.0182 -0.1647
 2718DPPE   C2B54478  10.355  16.652  19.770 -0.0504  0.2911  0.1635
 2718DPPE   C3B54479  10.504  16.788  20.107  0.1625 -0.3105 -0.1222
 2718DPPE   C4B54480  10.647  16.935  20.455  0.1604 -0.1429  0.0200
 2719DPPE   NH354481  10.862  10.667  18.770 -0.1783 -0.4662  0.2751
 2719DPPE   PO454482  11.204  10.474  18.577  0.0416 -0.2759  0.0131
 2719DPPE   GL154483  11.081  10.195  18.832  0.0172  0.2360 -0.0394
 2719DPPE   GL254484  11.069  10.360  19.102  0.1334  0.0613  0.1767
 2719DPPE   C1A54485  10.853   9.906  19.100 -0.0428 -0.0113  0.0116
 2719DPPE   C2A54486  10.663   9.637  19.365 -0.0343 -0.2371 -0.3656
 2719DPPE   C3A54487  10.723   9.143  19.356  0.0277 -0.2883 -0.2108
 2719DPPE   C4A54488  11.070   8.924  19.227  0.3649 -0.0636 -0.3463
 2719DPPE   C1B54489  11.330  10.248  19.391  0.0505 -0.0191  0.0233
 2719DPPE   C2B54490  11.460  10.096  19.878  0.1219 -0.3182 -0.1057
 2719DPPE   C3B54491  11.501   9.873  20.168  0.0398  0.1299 -0.3147
 2719DPPE   C4B54492  11.459   9.558  20.599 -0.3463  0.1183 -0.2454
 2720DPPE   NH354493  14.007  12.770  18.359 -0.1721 -0.0870  0.0684
 2720DPPE   PO454494  13.580  12.952  18.244  0.0945 -0.0258 -0.2651
 2720DPPE   GL154495  13.699  13.147  18.588 -0.0544  0.0735 -0.0252
 2720DPPE   GL254496  13.987  13.015  18.836  0.3405 -0.3184  0.1772
 2720DPPE   C1A54497  13.495  13.375  18.864 -0.1070  0.1025 -0.1366
 2720DPPE   C2A54498  13.532  13.384  19.270 -0.1367  0.2565 -0.1732
 2720DPPE   C3A54499  13.521  13.433  19.716  0.3689  0.4470  0.1189
 2720DPPE   C4A54500  13.635  13.357  20.234  0.0546  0.2282 -0.0582
 2720DPPE   C1B54501  14.118  12.953  19.222 -0.0709 -0.3795 -0.0340
 2720DPPE   C2B54502  14.162  12.847  19.609 -0.1126 -0.1230 -0.2592
 2720DPPE   C3B54503  14.099  12.744  20.053  0.1372 -0.0536 -0.2919
 2720DPPE   C4B54504  14.141  12.730  20.455 -0.2390 -0.0546  0.2757
 2721DPPE   NH354505  16.730  22.834  18.433  0.3964 -0.2322  0.0988
 2721DPPE   PO454506  16.869  23.289  18.472  0.1224  0.2330 -0.1434
 2721DPPE   GL154507  17.126  23.491  18.872 -0.1661  0.1001 -0.0008
 2721DPPE   GL254508  16.893  23.572  18.894 -0.3210 -0.1560 -0.1420
 2721DPPE   C1A54509  17.186  23.787  19.224 -0.1176  0.1815 -0.2054
 2721DPPE   C2A54510  17.265  23.805  19.699 -0.1097 -0.0309  0.1895
 2721DPPE   C3A54511  17.149  23.725  19.983 -0.0078  0.0250  0.1014
 2721DPPE   C4A54512  17.222  23.580  20.353 -0.2008  0.0159  0.0127
 2721DPPE   C1B54513  16.810  23.294  19.262 -0.1739 -0.1189 -0.0016
 2721DPPE   C2B54514  16.780  22.945  19.505  0.0182 -0.0694 -0.0250
 2721DPPE   C3B54515  16.642  22.934  19.960 -0.0310  0.2041  0.1763
 2721DPPE   C4B54516  16.311  22.741  20.114  0.0389  0.0200  0.2922
 2722DPPE   NH354517   8.453  21.318  18.084 -0.0281  0.0683 -0.1437
 2722DPPE   PO454518   8.578  21.315  18.589  0.0517  0.0363 -0.2603
 2722DPPE   GL154519   8.640  21.214  19.032  0.0244  0.0380  0.0965
 2722DPPE   GL254520   8.553  21.404  19.339  0.0102  0.1488  0.1533
 2722DPPE   C1A54521   8.860  21.019  19.359 -0.1745  0.0402 -0.1693
 2722DPPE   C2A54522   8.899  20.902  19.761 -0.0573  0.2255 -0.2810
 2722DPPE   C3A54523   8.651  20.875  20.094  0.0607 -0.0293  0.0294
 2722DPPE   C4A54524   8.316  20.722  20.344 -0.5455 -0.2507  0.1601
 2722DPPE   C1B54525   8.503  21.267  19.864  0.4639 -0.0341  0.1198
 2722DPPE   C2B54526   8.171  21.229  20.118 -0.4005 -0.2519 -0.0211
 2722DPPE   C3B54527   7.882  21.176  20.456 -0.2364 -0.0788  0.0330
 2722DPPE   C4B54528   7.798  21.028  20.867 -0.0123  0.0106  0.2216
 2723DPPE   NH354529  17.289  15.900  18.559 -0.0534 -0.2034  0.0157
 2723DPPE   PO454530  17.556  16.068  18.762 -0.1681 -0.1513  0.2596
 2723DPPE   GL154531  17.493  16.082  19.175  0.0401  0.1856  0.2877
 2723DPPE   GL254532  17.215  16.156  19.265 -0.3412 -0.0010  0.0591
 2723DPPE   C1A54533  17.786  15.989  19.623 -0.0200  0.1954 -0.1865
 2723DPPE   C2A54534  17.747  16.022  20.154 -0.0847  0.0352 -0.1820
 2723DPPE   C3A54535  17.847  16.196  20.591  0.3423  0.4794  0.1470
 2723DPPE   C4A54536  18.135  16.266  21.082  0.2025 -0.0449  0.4014
 2723DPPE   C1B54537  17.220  15.995  19.650 -0.1271  0.3491 -0.2506
 2723DPPE   C2B54538  17.367  16.205  19.975 -0.3074  0.1400  0.2453
 2723DPPE   C3B54539  17.534  16.489  20.371 -0.1497  0.1327 -0.0932
 2723DPPE   C4B54540  17.518  16.531  20.746 -0.1850 -0.1123  0.0456
 2724DPPE   NH354541  13.693  19.007  18.451 -0.1129 -0.1566  0.1331
 2724DPPE   PO454542  13.727  18.918  18.874  0.1400  0.0266  0.0761
 2724DPPE   GL154543  13.792  18.852  19.313 -0.0909  0.1267 -0.3619
 2724DPPE   GL254544  14.003  18.751  19.498  0.1179  0.2182  0.1125
 2724DPPE   C1A54545  13.577  18.999  19.678 -0.2040 -0.0550 -0.4107
 2724DPPE   C2A54546  13.654  19.084  20.077  0.3070  0.2177  0.0244
 2724DPPE   C3A54547  13.652  19.237  20.473  0.2420 -0.1363 -0.2244
 2724DPPE   C4A54548  13.554  18.840  20.755 -0.1046 -0.1573  0.1183
 2724DPPE   C1B54549  14.031  18.772  19.946 -0.2071  0.1972  0.1755
 2724DPPE   C2B54550  13.985  18.763  20.440 -0.0180  0.0414 -0.1823
 2724DPPE   C3B54551  14.135  18.753  20.792 -0.3541 -0.0731  0.1729
 2724DPPE   C4B54552  14.323  18.730  21.193  0.1061 -0.1760 -0.0707
 2725DPPE   NH354553   8.455  22.381  19.198  0.0087 -0.0116  0.2518
 2725DPPE   PO454554   8.861  22.629  19.059  0.0139  0.1827 -0.3510
 2725DPPE   GL154555   8.749  22.570  19.522  0.0965 -0.3359  0.0047
 2725DPPE   GL254556   8.438  22.749  19.564  0.0597 -0.0447  0.0621
 2725DPPE   C1A54557   8.895  22.559  19.960  0.5969  0.2201 -0.2637
 2725DPPE   C2A54558   8.740  22.905  20.366  0.0539  0.4015  0.2184
 2725DPPE   C3A54559   8.673  22.942  20.809  0.4043  0.2635  0.1285
 2725DPPE   C4A54560   8.638  23.330  21.012 -0.1979 -0.1055  0.0987
 2725DPPE   C1B54561   8.295  22.666  19.922 -0.2153  0.0721  0.2336
 2725DPPE   C2B54562   8.254  22.701  20.356  0.3474 -0.1839  0.1579
 2725DPPE   C3B54563   8.093  22.611  20.795  0.1028 -0.2026  0.0262
 2725DPPE   C4B54564   8.111  22.433  21.193  0.0015  0.0953 -0.2051
 2726DPPE   NH354565  15.836  17.226  19.027  0.1741 -0.1537 -0.1481
 2726DPPE   PO454566  15.981  16.886  18.858  0.1842 -0.1690 -0.4122
 2726DPPE   GL154567  15.997  16.824  19.310  0.0252  0.1969 -0.1402
 2726DPPE   GL254568  15.870  17.024  19.523 -0.2000 -0.0396 -0.0565
 2726DPPE   C1A54569  16.133  16.629  19.703  0.0662  0.3394 -0.1350
 2726DPPE   C2A54570  16.110  16.545  20.097  0.3014 -0.1209 -0.2447
 2726DPPE   C3A54571  16.151  16.609  20.486  0.1464 -0.2844  0.0175
 2726DPPE   C4A54572  16.386  16.519  20.863  0.0627  0.0208 -0.1045
 2726DPPE   C1B54573  15.975  17.030  19.983  0.3277 -0.0792 -0.0618
 2726DPPE   C2B54574  16.008  17.108  20.393 -0.2501  0.1365  0.1595
 2726DPPE   C3B54575  16.066  16.971  20.816 -0.0586  0.1307  0.0095
 2726DPPE   C4B54576  16.155  16.885  21.156 -0.1229 -0.0000  0.2964
 2727DPPE   NH354577  13.899  22.122  18.044 -0.1702  0.0932 -0.0655
 2727DPPE   PO454578  13.940  21.714  18.247 -0.3850 -0.0516 -0.0203
 2727DPPE   GL154579  14.121  21.956  18.557 -0.3794 -0.1707 -0.2409
 2727DPPE   GL254580  14.030  22.196  18.617  0.2505 -0.0330  0.0569
 2727DPPE   C1A54581  14.250  22.079  19.013 -0.0644 -0.0946 -0.0797
 2727DPPE   C2A54582  14.235  22.229  19.413 -0.0503  0.2508  0.0470
 2727DPPE   C3A54583  14.178  22.275  19.806  0.3100 -0.0682  1.0224
 2727DPPE   C4A54584  14.249  22.268  20.248 -0.0152 -0.0285 -0.3390
 2727DPPE   C1B54585  13.842  22.375  19.043 -0.1624 -0.0113  0.0706
 2727DPPE   C2B54586  13.793  22.450  19.539  0.0036 -0.0718  0.0359
 2727DPPE   C3B54587  13.753  22.536  19.916 -0.0027 -0.0593 -0.0829
 2727DPPE   C4B54588  13.936  22.756  20.126 -0.1866 -0.0989  0.1177
 2728DPPE   NH354589  10.518  18.532  18.769  0.0653 -0.1648  0.0122
 2728DPPE   PO454590  10.569  18.955  18.783  0.0655  0.2054  0.1093
 2728DPPE   GL154591  10.677  19.068  19.099  0.2798 -0.0680  0.1511
 2728DPPE   GL254592  10.741  18.746  19.197 -0.1942 -0.0643  0.0089
 2728DPPE   C1A54593  10.903  19.093  19.495 -0.0379 -0.1356 -0.0707
 2728DPPE   C2A54594  10.924  19.093  19.926  0.1489 -0.3896  0.0150
 2728DPPE   C3A54595  10.912  19.144  20.432  0.1249  0.0085 -0.0334
 2728DPPE   C4A54596  11.160  19.377  20.699 -0.1427  0.4422  0.3180
 2728DPPE   C1B54597  10.714  18.577  19.573  0.0171  0.0638 -0.3050
 2728DPPE   C2B54598  10.704  18.684  20.011  0.0889  0.1351  0.0124
 2728DPPE   C3B54599  10.600  18.684  20.465 -0.0843  0.3321  0.3802
 2728DPPE   C4B54600  10.886  18.707  20.740  0.4006  0.0822 -0.2010
 2729DPPE   NH354601  10.281  23.133  18.971  0.2043  0.1066 -0.1603
 2729DPPE   PO454602   9.973  23.514  18.982 -0.0037  0.4383  0.0307
 2729DPPE   GL154603   9.944  23.678  19.336 -0.0318 -0.0717 -0.0519
 2729DPPE   GL254604  10.086  24.015  19.466 -0.0310 -0.0125  0.1775
 2729DPPE   C1A54605   9.686  23.832  19.759  0.0998 -0.0058 -0.3074
 2729DPPE   C2A54606   9.818  24.156  20.153 -0.0727  0.0569 -0.0028
 2729DPPE   C3A54607   9.789  24.372  20.598 -0.0215  0.1384 -0.1896
 2729DPPE   C4A54608   9.761  24.704  20.886  0.4638 -0.0890  0.6484
 2729DPPE   C1B54609  10.286  24.066  19.905 -0.2267 -0.0464  0.3575
 2729DPPE   C2B54610  10.326  24.175  20.348 -0.0261 -0.1802 -0.0947
 2729DPPE   C3B54611  10.607  24.209  20.669  0.0522 -0.0180  0.1203
 2729DPPE   C4B54612  10.652  24.579  20.977  0.0016  0.0345  0.0772
 2730DPPE   NH354613  15.099   9.479  17.503  0.1432  0.2534 -0.0042
 2730DPPE   PO454614  14.662   9.743  17.659 -0.2705  0.0004 -0.4615
 2730DPPE   GL154615  14.772   9.430  18.068  0.1221 -0.2179 -0.0158
 2730DPPE   GL254616  15.011   9.201  17.995  0.1459  0.1765  0.0436
 2730DPPE   C1A54617  14.955   9.348  18.454 -0.0153 -0.1719 -0.1977
 2730DPPE   C2A54618  15.006   9.032  18.765 -0.2246 -0.0528  0.1050
 2730DPPE   C3A54619  15.177   8.789  19.106 -0.0165  0.0968 -0.0771
 2730DPPE   C4A54620  15.557   8.581  19.135 -0.1649  0.0945 -0.0193
 2730DPPE   C1B54621  14.908   8.907  18.151  0.1335 -0.2040  0.2562
 2730DPPE   C2B54622  14.612   8.793  18.502  0.2401 -0.0799  0.0632
 2730DPPE   C3B54623  14.366   8.472  18.749  0.1007  0.1478  0.2372
 2730DPPE   C4B54624  14.500   8.025  18.760 -0.0692 -0.1909  0.2025
 2731DPPE   NH354625   7.035  14.098  18.660 -0.0995 -0.1478 -0.0353
 2731DPPE   PO454626   6.712  14.367  18.586  0.2297 -0.1697  0.2342
 2731DPPE   GL154627   6.574  14.186  19.008  0.1243  0.1011 -0.1139
 2731DPPE   GL254628   6.716  13.837  19.103 -0.0402  0.0213 -0.1310
 2731DPPE   C1A54629   6.220  13.941  19.357  0.1999 -0.2838  0.2588
 2731DPPE   C2A54630   5.800  13.851  19.429 -0.0613  0.0440 -0.0668
 2731DPPE   C3A54631   5.421  13.865  19.497 -0.0609 -0.2350  0.1477
 2731DPPE   C4A54632   5.170  13.737  19.234 -0.0183 -0.0811  0.2664
 2731DPPE   C1B54633   6.557  13.521  19.490 -0.2036  0.0756  0.0841
 2731DPPE   C2B54634   6.542  13.156  19.818  0.0065  0.1166 -0.1725
 2731DPPE   C3B54635   6.558  13.250  20.241  0.0698 -0.0792  0.1496
 2731DPPE   C4B54636   6.736  13.068  20.532 -0.0881 -0.0086 -0.0336
 2732DPPE   NH354637  11.461  15.597  18.492 -0.1239  0.1743 -0.0808
 2732DPPE   PO454638  11.655  15.948  18.227 -0.3321  0.0466  0.0606
 2732DPPE   GL154639  11.522  16.068  18.654  0.0733  0.3341  0.3124
 2732DPPE   GL254640  11.465  16.431  18.779 -0.1494  0.0372 -0.0465
 2732DPPE   C1A54641  11.720  16.066  18.984  0.0186  0.1554 -0.5445
 2732DPPE   C2A54642  11.641  16.002  19.460  0.1181  0.1161 -0.4367
 2732DPPE   C3A54643  11.547  15.861  19.873 -0.1246 -0.0801 -0.0068
 2732DPPE   C4A54644  11.672  15.761  20.348  0.0036 -0.0299  0.3574
 2732DPPE   C1B54645  11.477  16.529  19.219  0.1923  0.0304 -0.3394
 2732DPPE   C2B54646  11.327  16.402  19.683  0.3037  0.1415 -0.1890
 2732DPPE   C3B54647  11.257  16.388  20.065 -0.1525 -0.0302 -0.1569
 2732DPPE   C4B54648  11.381  16.292  20.487  0.1636  0.1249  0.0472
 2733DPPE   NH354649  17.253  19.487  19.130  0.2147 -0.2180 -0.4000
 2733DPPE   PO454650  17.089  19.083  19.089 -0.1008 -0.1301  0.1344
 2733DPPE   GL154651  16.974  19.050  19.459 -0.2433 -0.2898  0.1672
 2733DPPE   GL254652  16.869  19.377  19.456 -0.2633  0.1695  0.4705
 2733DPPE   C1A54653  17.056  19.197  19.945  0.1960  0.2302 -0.1155
 2733DPPE   C2A54654  17.097  19.357  20.404  0.3150  0.1951  0.1638
 2733DPPE   C3A54655  17.011  19.429  20.834 -0.1026 -0.0337  0.1409
 2733DPPE   C4A54656  16.907  19.811  21.113  0.0109  0.3148  0.0402
 2733DPPE   C1B54657  16.907  19.722  19.664  0.1214 -0.1492  0.0032
 2733DPPE   C2B54658  16.922  19.814  19.974  0.2389  0.1150 -0.2392
 2733DPPE   C3B54659  16.962  19.878  20.354  0.2696 -0.0253  0.2798
 2733DPPE   C4B54660  17.167  19.938  20.717 -0.4177  0.2293  0.0123
 2734DPPE   NH354661  16.421  24.896  17.198  0.0166  0.3271  0.1344
 2734DPPE   PO454662  16.235  24.812  17.536  0.0259 -0.0801  0.1227
 2734DPPE   GL154663  16.133  25.229  17.504  0.0718  0.3451 -0.0820
 2734DPPE   GL254664  16.060  25.243  17.183 -0.0956  0.2489 -0.1892
 2734DPPE   C1A54665  16.001  25.659  17.686 -0.0201  0.1108  0.0830
 2734DPPE   C2A54666  16.007  26.077  17.543 -0.2846 -0.0505  0.3740
 2734DPPE   C3A54667  16.132  26.424  17.429 -0.3008 -0.2216 -0.0070
 2734DPPE   C4A54668  16.443  26.781  17.534 -0.1722 -0.1376  0.3922
 2734DPPE   C1B54669  15.925  25.627  17.043  0.0158 -0.1026  0.0497
 2734DPPE   C2B54670  15.823  26.078  17.039 -0.0439 -0.2517 -0.1956
 2734DPPE   C3B54671  15.653  26.394  17.182 -0.1463 -0.0800 -0.1749
 2734DPPE   C4B54672  15.516  26.798  17.162  0.1501 -0.0506 -0.4205
 2735DPPE   NH354673  16.216  21.517  18.490  0.2266  0.2173 -0.0219
 2735DPPE   PO454674  16.044  21.873  18.321 -0.1942 -0.1654 -0.1844
 2735DPPE   GL154675  16.219  21.909  18.751 -0.1141 -0.0346  0.0404
 2735DPPE   GL254676  16.035  21.659  18.983 -0.3519  0.0723  0.0621
 2735DPPE   C1A54677  16.323  22.066  19.128  0.1156 -0.0382  0.2743
 2735DPPE   C2A54678  16.327  21.869  19.557 -0.1369  0.4089  0.0673
 2735DPPE   C3A54679  16.654  21.890  19.826 -0.2459  0.1132 -0.1910
 2735DPPE   C4A54680  16.769  21.590  20.126 -0.1541 -0.1866 -0.2775
 2735DPPE   C1B54681  15.974  21.663  19.350 -0.3009  0.0241 -0.0082
 2735DPPE   C2B54682  15.887  21.855  19.883 -0.3474 -0.1508  0.3849
 2735DPPE   C3B54683  15.775  22.149  20.201 -0.1823  0.0645  0.1294
 2735DPPE   C4B54684  15.506  22.125  20.548  0.0463  0.1145  0.1589
 2736DPPE   NH354685  14.201  16.394  18.693  0.0095  0.1311  0.1179
 2736DPPE   PO454686  13.785  16.413  18.812  0.2939  0.1103  0.1388
 2736DPPE   GL154687  13.924  16.221  19.169 -0.1882  0.1217 -0.0590
 2736DPPE   GL254688  14.168  15.908  19.100  0.2940  0.3147 -0.0307
 2736DPPE   C1A54689  13.926  16.102  19.538  0.0333  0.0478  0.0127
 2736DPPE   C2A54690  14.075  15.947  19.933 -0.0094 -0.0793 -0.3028
 2736DPPE   C3A54691  13.904  15.987  20.403  0.0106 -0.5116 -0.0765
 2736DPPE   C4A54692  13.943  15.893  20.816  0.2769  0.2200  0.2974
 2736DPPE   C1B54693  14.165  15.663  19.520  0.1684  0.2508 -0.0510
 2736DPPE   C2B54694  14.193  15.520  20.090 -0.0347 -0.0295  0.0988
 2736DPPE   C3B54695  14.127  15.483  20.509  0.2862 -0.1109 -0.1325
 2736DPPE   C4B54696  13.996  15.407  20.934 -0.0094 -0.2100  0.2675
 2737DPPE   NH354697   8.076  16.995  18.574  0.0483 -0.1103  0.1973
 2737DPPE   PO454698   7.667  16.852  18.466 -0.1016 -0.1515  0.1186
 2737DPPE   GL154699   7.675  16.864  18.885 -0.1222  0.0585  0.1513
 2737DPPE   GL254700   7.320  16.873  18.916 -0.3451 -0.1460 -0.2971
 2737DPPE   C1A54701   7.612  16.756  19.336 -0.3940  0.0514 -0.0569
 2737DPPE   C2A54702   7.638  16.573  19.758 -0.1204 -0.1520 -0.0230
 2737DPPE   C3A54703   7.670  16.530  20.268 -0.0640  0.0850 -0.2268
 2737DPPE   C4A54704   7.358  16.542  20.555  0.2143  0.2010  0.2635
 2737DPPE   C1B54705   7.109  16.929  19.361  0.1438 -0.0002  0.3054
 2737DPPE   C2B54706   6.867  16.727  19.812 -0.2074  0.1329  0.1805
 2737DPPE   C3B54707   6.659  16.419  19.975  0.3925 -0.0420 -0.1507
 2737DPPE   C4B54708   6.508  16.055  20.099  0.1076 -0.2520 -0.1539
 2738DPPE   NH354709   7.723  11.505  18.608 -0.1457  0.2741 -0.0997
 2738DPPE   PO454710   7.386  11.765  18.328  0.1460 -0.3395 -0.0792
 2738DPPE   GL154711   7.317  11.367  18.330  0.1311 -0.0320  0.0119
 2738DPPE   GL254712   7.169  11.242  18.061 -0.2802  0.3236  0.4300
 2738DPPE   C1A54713   7.121  10.916  18.530 -0.1037 -0.2761 -0.1716
 2738DPPE   C2A54714   6.763  10.775  18.671  0.0415  0.2802 -0.2150
 2738DPPE   C3A54715   6.521  10.512  18.875  0.5458  0.2825  0.1456
 2738DPPE   C4A54716   6.484  10.269  19.342  0.0568  0.4382 -0.1096
 2738DPPE   C1B54717   6.888  11.148  17.814  0.0599 -0.0473 -0.0532
 2738DPPE   C2B54718   6.656  10.911  17.504  0.0648  0.1935  0.1544
 2738DPPE   C3B54719   6.316  10.822  17.428 -0.2310 -0.0655 -0.2594
 2738DPPE   C4B54720   5.915  10.578  17.549 -0.0542 -0.2411  0.3031
 2739DPPE   NH354721  14.922  16.222  18.563 -0.2357 -0.1567 -0.1615
 2739DPPE   PO454722  14.675  16.588  18.630 -0.0639  0.0598  0.1377
 2739DPPE   GL154723  14.764  16.695  18.980 -0.2225 -0.1073 -0.1744
 2739DPPE   GL254724  14.607  16.880  19.178  0.0669 -0.0427  0.1473
 2739DPPE   C1A54725  14.805  16.375  19.338  0.0701  0.1774  0.2674
 2739DPPE   C2A54726  14.841  16.301  19.787  0.1712 -0.3169  0.0159
 2739DPPE   C3A54727  14.858  16.236  20.215 -0.3106 -0.0741 -0.0677
 2739DPPE   C4A54728  14.776  16.364  20.690 -0.0135  0.1720  0.0785
 2739DPPE   C1B54729  14.634  16.821  19.532 -0.0029 -0.1830  0.0756
 2739DPPE   C2B54730  14.685  16.766  20.028  0.1039 -0.2585 -0.3563
 2739DPPE   C3B54731  14.656  16.820  20.404 -0.1856 -0.0587 -0.0901
 2739DPPE   C4B54732  14.688  16.834  20.892 -0.0686 -0.0649  0.1371
 2740DPPE   NH354733  13.877  10.288  18.055  0.1797 -0.0692  0.2516
 2740DPPE   PO454734  13.570  10.604  18.139 -0.3669  0.2963  0.0949
 2740DPPE   GL154735  13.777  10.420  18.551  0.0963 -0.3666 -0.1616
 2740DPPE   GL254736  13.762  10.032  18.453 -0.0909 -0.0226  0.0571
 2740DPPE   C1A54737  13.656  10.185  18.912  0.0978  0.3261  0.1157
 2740DPPE   C2A54738  13.774   9.821  19.131 -0.0287  0.2561  0.2049
 2740DPPE   C3A54739  14.013   9.710  19.518 -0.0860  0.2066  0.2939
 2740DPPE   C4A54740  14.167   9.721  19.994  0.0306  0.1174 -0.1077
 2740DPPE   C1B54741  13.623   9.642  18.675 -0.0012  0.3046  0.1332
 2740DPPE   C2B54742  13.425   9.353  19.051  0.4151  0.1647 -0.0583
 2740DPPE   C3B54743  13.716   9.308  19.520  0.0472  0.1570  0.2276
 2740DPPE   C4B54744  13.834   9.354  19.892 -0.2694 -0.6256 -0.0516
 2741DPPE   NH354745   7.908  18.049  18.735 -0.1162 -0.1181  0.1811
 2741DPPE   PO454746   7.584  18.364  18.937  0.0953 -0.1554  0.2520
 2741DPPE   GL154747   7.633  18.074  19.280  0.1975 -0.1503  0.0011
 2741DPPE   GL254748   8.006  18.007  19.343 -0.0846 -0.0696  0.0229
 2741DPPE   C1A54749   7.626  17.932  19.691  0.2551  0.1980  0.0685
 2741DPPE   C2A54750   7.690  17.919  20.158  0.1494 -0.0734  0.1053
 2741DPPE   C3A54751   7.660  17.735  20.630 -0.0888  0.0514  0.1455
 2741DPPE   C4A54752   7.957  17.619  20.941 -0.0138 -0.5013  0.2762
 2741DPPE   C1B54753   8.114  18.164  19.794 -0.2006 -0.1286  0.1307
 2741DPPE   C2B54754   8.438  18.130  20.040  0.1049  0.2088  0.3094
 2741DPPE   C3B54755   8.544  18.129  20.373 -0.0399  0.0025  0.2189
 2741DPPE   C4B54756   8.471  17.956  20.779  0.1679  0.1836  0.1013
 2742DPPE   NH354757  17.206  12.022  18.378  0.2565 -0.2251  0.0697
 2742DPPE   PO454758  17.579  12.120  18.681  0.0372 -0.0723 -0.2148
 2742DPPE   GL154759  17.666  12.052  19.081  0.1278 -0.1228 -0.1478
 2742DPPE   GL254760  17.671  12.273  19.170  0.1433  0.3483  0.0955
 2742DPPE   C1A54761  17.893  11.727  19.219  0.2224  0.2011  0.0146
 2742DPPE   C2A54762  18.243  11.713  19.264 -0.2825 -0.0953 -0.0777
 2742DPPE   C3A54763  18.620  11.802  19.471  0.0867  0.0977 -0.1870
 2742DPPE   C4A54764  18.987  12.085  19.587  0.1953 -0.0256  0.0737
 2742DPPE   C1B54765  17.709  12.270  19.529 -0.3038 -0.1455 -0.1035
 2742DPPE   C2B54766  17.630  12.091  19.893 -0.0386 -0.2463 -0.0957
 2742DPPE   C3B54767  17.639  12.035  20.379  0.0251  0.0694 -0.1456
 2742DPPE   C4B54768  17.712  11.913  20.690  0.3618 -0.1430  0.1738
 2743DPPE   NH354769  18.602  19.119  18.064 -0.0063  0.0183 -0.0986
 2743DPPE   PO454770  18.852  19.282  18.258  0.1922 -0.1214  0.3080
 2743DPPE   GL154771  19.152  19.269  18.509  0.0925  0.0416 -0.2424
 2743DPPE   GL254772  19.108  19.084  18.803  0.1130  0.0600  0.0050
 2743DPPE   C1A54773  19.535  19.266  18.751 -0.1974  0.3826  0.0679
 2743DPPE   C2A54774  19.898  19.463  18.771  0.2298  0.1354 -0.0644
 2743DPPE   C3A54775  20.021  19.852  18.603 -0.2999  0.1548 -0.1878
 2743DPPE   C4A54776  20.316  20.172  18.609 -0.0648  0.3305  0.3076
 2743DPPE   C1B54777  19.330  19.306  19.223 -0.2878  0.4114  0.0089
 2743DPPE   C2B54778  19.825  19.339  19.302 -0.0944  0.0077  0.2660
 2743DPPE   C3B54779  20.158  19.602  19.298  0.0396 -0.0002 -0.1080
 2743DPPE   C4B54780  20.501  19.842  19.399  0.1259 -0.1387 -0.1420
 2744DPPE   NH354781   8.781  24.658  18.220 -0.3727 -0.1076  0.1078
 2744DPPE   PO454782   8.747  24.272  18.510 -0.0022  0.2221  0.0964
 2744DPPE   GL154783   8.332  24.574  18.510  0.0950  0.0865 -0.0280
 2744DPPE   GL254784   8.194  24.459  18.252  0.0149 -0.1922 -0.0420
 2744DPPE   C1A54785   8.294  24.890  18.669  0.0006 -0.1507  0.1421
 2744DPPE   C2A54786   8.159  25.272  18.640 -0.0867 -0.0977 -0.1786
 2744DPPE   C3A54787   7.816  25.473  18.570  0.1146 -0.2602  0.2436
 2744DPPE   C4A54788   7.556  25.525  18.240 -0.2363  0.1557 -0.3280
 2744DPPE   C1B54789   7.838  24.533  18.161  0.1913 -0.2391 -0.0134
 2744DPPE   C2B54790   7.532  24.930  18.089  0.2396 -0.1910  0.0504
 2744DPPE   C3B54791   7.227  25.040  18.376  0.1721 -0.4095  0.0658
 2744DPPE   C4B54792   6.796  25.058  18.507  0.0559  0.1203  0.2980
 2745DPPE   NH354793  13.603   9.820  18.025 -0.1134  0.0801  0.3435
 2745DPPE   PO454794  13.209   9.671  17.952 -0.3043 -0.1944 -0.0679
 2745DPPE   GL154795  13.304   9.439  18.359 -0.0668  0.2976  0.0074
 2745DPPE   GL254796  13.060   9.522  18.426 -0.1038 -0.0421 -0.2596
 2745DPPE   C1A54797  13.204   9.009  18.549  0.5204  0.1726  0.0550
 2745DPPE   C2A54798  13.103   8.562  18.365 -0.0283  0.1469 -0.1527
 2745DPPE   C3A54799  12.866   8.370  18.054  0.1047 -0.0306  0.0554
 2745DPPE   C4A54800  12.602   8.076  18.068  0.1195  0.0131 -0.1129
 2745DPPE   C1B54801  12.945   9.452  18.886 -0.0329  0.1536  0.0762
 2745DPPE   C2B54802  13.024   9.033  19.044 -0.2268 -0.0231 -0.2210
 2745DPPE   C3B54803  13.072   8.657  18.886 -0.0970  0.0316  0.0184
 2745DPPE   C4B54804  12.812   8.366  19.199 -0.0589  0.1784 -0.1658
 2746DPPE   NH354805  16.586  21.856  18.297  0.1395  0.5327 -0.4283
 2746DPPE   PO454806  16.465  22.346  18.402  0.2270  0.1206 -0.0397
 2746DPPE   GL154807  16.543  22.406  18.880  0.1169  0.1453  0.1896
 2746DPPE   GL254808  16.669  22.718  18.987  0.0228  0.2910 -0.1508
 2746DPPE   C1A54809  16.520  22.496  19.386  0.4196  0.0627  0.1411
 2746DPPE   C2A54810  16.668  22.384  19.830 -0.0305 -0.2336  0.0648
 2746DPPE   C3A54811  16.687  22.429  20.295 -0.1079 -0.0731 -0.0841
 2746DPPE   C4A54812  16.627  21.970  20.466 -0.2465 -0.0690 -0.0250
 2746DPPE   C1B54813  17.150  22.915  19.100  0.0611  0.2120 -0.1843
 2746DPPE   C2B54814  17.338  23.285  19.208  0.0280 -0.3724  0.0040
 2746DPPE   C3B54815  17.665  23.574  19.081 -0.2256 -0.3021 -0.0796
 2746DPPE   C4B54816  17.877  23.943  19.130 -0.0111  0.0010 -0.3610
 2747DPPE   NH354817  16.075  12.324  18.295  0.1538  0.0426  0.3295
 2747DPPE   PO454818  16.557  12.214  18.144 -0.4627  0.0805  0.2629
 2747DPPE   GL154819  16.743  12.005  18.549 -0.1823  0.2079  0.0113
 2747DPPE   GL254820  16.419  12.047  18.684 -0.0644  0.2317 -0.2462
 2747DPPE   C1A54821  16.811  11.934  19.016 -0.1646  0.2049 -0.1388
 2747DPPE   C2A54822  16.820  11.874  19.418 -0.1888 -0.2837 -0.1363
 2747DPPE   C3A54823  17.117  11.864  19.772 -0.1152 -0.3266 -0.1470
 2747DPPE   C4A54824  17.292  11.741  20.022 -0.2066  0.0811 -0.2023
 2747DPPE   C1B54825  16.300  11.905  19.147  0.2293  0.2718  0.2858
 2747DPPE   C2B54826  16.340  12.011  19.506 -0.0385 -0.0417 -0.5043
 2747DPPE   C3B54827  16.334  11.899  19.973 -0.2081 -0.0066 -0.1440
 2747DPPE   C4B54828  16.254  11.998  20.459 -0.0432  0.3346  0.1772
 2748DPPE   NH354829  18.612  16.965  18.497  0.0097 -0.2520 -0.1834
 2748DPPE   PO454830  18.412  16.640  18.738 -0.1991  0.1455 -0.3328
 2748DPPE   GL154831  18.278  16.776  19.168  0.3231 -0.1740 -0.0957
 2748DPPE   GL254832  17.987  16.687  19.169  0.0743 -0.1053 -0.0817
 2748DPPE   C1A54833  18.364  16.693  19.720  0.1704  0.1709  0.0062
 2748DPPE   C2A54834  18.690  16.635  20.095 -0.0151 -0.1088  0.0934
 2748DPPE   C3A54835  19.044  16.839  20.205  0.0523 -0.0833  0.0593
 2748DPPE   C4A54836  19.416  16.603  20.300 -0.1717  0.0527 -0.1549
 2748DPPE   C1B54837  17.874  16.804  19.569 -0.1122 -0.1218  0.0010
 2748DPPE   C2B54838  17.961  16.872  19.891 -0.1056  0.0599 -0.1777
 2748DPPE   C3B54839  17.977  16.766  20.373  0.1320  0.3094  0.0326
 2748DPPE   C4B54840  18.056  16.574  20.752 -0.1677 -0.3404  0.1620
 2749DPPE   NH354841  10.580  20.895  18.637 -0.2035 -0.0479  0.0748
 2749DPPE   PO454842  10.982  21.028  18.498 -0.0652 -0.1062  0.1039
 2749DPPE   GL154843  11.146  21.113  18.864 -0.0992  0.2509 -0.0887
 2749DPPE   GL254844  11.430  21.309  18.807  0.1538 -0.2782  0.1575
 2749DPPE   C1A54845  11.203  21.105  19.363 -0.0420 -0.1259  0.1251
 2749DPPE   C2A54846  11.235  21.081  19.741  0.3574  0.0279 -0.1383
 2749DPPE   C3A54847  11.199  21.171  20.190  0.0240 -0.0321  0.1675
 2749DPPE   C4A54848  11.200  21.335  20.688 -0.0207 -0.0876  0.0711
 2749DPPE   C1B54849  11.353  21.554  19.105 -0.0650  0.2274 -0.1841
 2749DPPE   C2B54850  11.310  21.561  19.505 -0.3969  0.1009 -0.1415
 2749DPPE   C3B54851  11.360  21.645  19.977  0.1891 -0.1975  0.1886
 2749DPPE   C4B54852  11.391  21.820  20.420  0.1166 -0.5519  0.0426
 2750DPPE   NH354853  19.176  14.658  18.723 -0.0392 -0.1014 -0.0664
 2750DPPE   PO454854  19.255  14.360  18.537 -0.2443  0.3190 -0.1521
 2750DPPE   GL154855  19.666  14.383  18.825 -0.1385  0.3978  0.0125
 2750DPPE   GL254856  19.887  14.348  18.624 -0.2187 -0.1319 -0.0806
 2750DPPE   C1A54857  19.973  14.418  19.118  0.2544  0.0498 -0.2892
 2750DPPE   C2A54858  20.067  14.634  19.397 -0.2286  0.1045 -0.0443
 2750DPPE   C3A54859  20.375  14.894  19.384 -0.0644 -0.0083 -0.0422
 2750DPPE   C4A54860  20.750  15.089  19.410 -0.0513  0.1260  0.3479
 2750DPPE   C1B54861  20.335  14.493  18.772 -0.4684 -0.0391 -0.2068
 2750DPPE   C2B54862  20.692  14.519  19.018  0.1199  0.2913 -0.2092
 2750DPPE   C3B54863  20.982  14.645  19.381 -0.0699  0.4477  0.4172
 2750DPPE   C4B54864  21.312  15.006  19.602 -0.0116 -0.0234  0.1754
 2751DPPE   NH354865  11.745  14.123  18.268  0.0699  0.0487  0.1169
 2751DPPE   PO454866  12.068  14.451  18.307  0.0326  0.2177 -0.1113
 2751DPPE   GL154867  11.987  14.597  18.662  0.2128 -0.2703 -0.0366
 2751DPPE   GL254868  11.833  14.298  18.722  0.1540 -0.0179  0.0996
 2751DPPE   C1A54869  12.116  14.570  19.177  0.2634  0.0288 -0.0950
 2751DPPE   C2A54870  12.108  14.556  19.623  0.0516  0.1589  0.0970
 2751DPPE   C3A54871  12.126  14.355  20.007 -0.1721  0.2319 -0.0577
 2751DPPE   C4A54872  12.114  14.366  20.515  0.0585  0.0780 -0.0147
 2751DPPE   C1B54873  11.704  14.186  19.064  0.0541  0.3144  0.1770
 2751DPPE   C2B54874  11.742  14.071  19.499  0.2504  0.0783  0.0751
 2751DPPE   C3B54875  11.731  14.028  19.927  0.0503 -0.1324 -0.2748
 2751DPPE   C4B54876  11.659  14.011  20.376  0.0857 -0.1858 -0.1538
 2752DPPE   NH354877  18.491  13.022  17.866  0.1560  0.0561 -0.1602
 2752DPPE   PO454878  18.350  13.045  18.229  0.2632  0.1680  0.0174
 2752DPPE   GL154879  18.473  13.073  18.660 -0.0490  0.3211 -0.0198
 2752DPPE   GL254880  18.745  12.906  18.494 -0.0867 -0.2637 -0.0232
 2752DPPE   C1A54881  18.494  12.971  19.107 -0.1964  0.1725 -0.0364
 2752DPPE   C2A54882  18.704  12.985  19.557  0.0312  0.0790 -0.3024
 2752DPPE   C3A54883  18.877  13.089  19.965  0.1517 -0.0385  0.2053
 2752DPPE   C4A54884  19.162  12.893  20.341  0.3329 -0.1860 -0.1193
 2752DPPE   C1B54885  18.923  12.745  18.920 -0.1406  0.0397 -0.0165
 2752DPPE   C2B54886  19.068  12.401  19.180 -0.1285 -0.2402  0.1528
 2752DPPE   C3B54887  19.263  12.545  19.448  0.3873  0.3713 -0.3964
 2752DPPE   C4B54888  19.229  12.740  19.870  0.1451 -0.1831  0.2197
 2753DPPE   NH354889  14.953  21.151  18.253  0.1428 -0.3657  0.1717
 2753DPPE   PO454890  15.262  21.084  18.474  0.1769 -0.2067  0.0324
 2753DPPE   GL154891  15.340  21.007  18.957  0.1736 -0.3663  0.1871
 2753DPPE   GL254892  15.251  20.676  19.048  0.0374 -0.1489  0.0239
 2753DPPE   C1A54893  15.350  21.128  19.439  0.0228  0.2090 -0.0857
 2753DPPE   C2A54894  15.382  21.071  19.881  0.4454  0.3479  0.0559
 2753DPPE   C3A54895  15.335  21.210  20.178  0.0407  0.0713  0.0985
 2753DPPE   C4A54896  15.345  21.202  20.663  0.1398 -0.0393  0.2318
 2753DPPE   C1B54897  15.241  20.501  19.402 -0.2214  0.0683  0.0368
 2753DPPE   C2B54898  15.251  20.563  19.855 -0.0322  0.3505 -0.1026
 2753DPPE   C3B54899  15.261  20.713  20.244 -0.1869 -0.1115 -0.0684
 2753DPPE   C4B54900  15.408  20.714  20.603 -0.1315 -0.0486  0.2869
 2754DPPE   NH354901  18.796  14.370  18.321  0.1938  0.1630  0.1539
 2754DPPE   PO454902  18.765  14.306  18.673  0.2333 -0.1242  0.5791
 2754DPPE   GL154903  18.981  14.269  19.015  0.2890  0.0296 -0.2818
 2754DPPE   GL254904  19.182  14.080  18.967 -0.1649  0.1529  0.3579
 2754DPPE   C1A54905  18.966  14.271  19.379 -0.2538 -0.1003 -0.0957
 2754DPPE   C2A54906  19.094  14.389  19.833  0.1443  0.2389  0.0432
 2754DPPE   C3A54907  19.472  14.194  20.034  0.1510  0.1787 -0.5420
 2754DPPE   C4A54908  19.821  13.990  19.925  0.0985 -0.1304 -0.2482
 2754DPPE   C1B54909  19.473  14.289  19.282  0.1425 -0.1779  0.2537
 2754DPPE   C2B54910  19.661  14.216  19.550 -0.0972 -0.0949  0.0102
 2754DPPE   C3B54911  19.935  14.491  19.845 -0.1364 -0.2831  0.0109
 2754DPPE   C4B54912  20.240  14.590  20.197  0.3387 -0.1747 -0.3337
 2755DPPE   NH354913  13.088   9.207  17.972  0.2002  0.0151 -0.1204
 2755DPPE   PO454914  12.842   9.363  17.647  0.0136  0.2010 -0.4294
 2755DPPE   GL154915  12.640   8.925  17.691  0.4058 -0.0449 -0.2447
 2755DPPE   GL254916  12.770   8.815  17.505  0.2520 -0.1390  0.3639
 2755DPPE   C1A54917  12.430   8.633  17.930 -0.0526 -0.0679  0.0276
 2755DPPE   C2A54918  12.149   8.311  18.008  0.2068  0.0002  0.0928
 2755DPPE   C3A54919  11.950   7.978  18.176 -0.3602  0.0537 -0.1962
 2755DPPE   C4A54920  12.024   7.720  18.381 -0.0312 -0.1912 -0.1209
 2755DPPE   C1B54921  12.907   8.397  17.545  0.3581 -0.0295  0.1477
 2755DPPE   C2B54922  13.031   7.970  17.620  0.2037 -0.1677 -0.0560
 2755DPPE   C3B54923  13.173   7.511  17.689 -0.1562 -0.0949  0.0453
 2755DPPE   C4B54924  13.251   7.050  17.853  0.2440 -0.3981 -0.0742
 2756DPPE   NH354925  16.583  10.695  18.320 -0.1373 -0.2632  0.0023
 2756DPPE   PO454926  17.019  10.522  18.207  0.2537 -0.0813 -0.2008
 2756DPPE   GL154927  17.022  10.343  18.541  0.1534 -0.1024  0.0168
 2756DPPE   GL254928  17.183  10.467  18.815  0.3430  0.0482 -0.0108
 2756DPPE   C1A54929  16.857  10.081  18.802 -0.4542  0.0809  0.1814
 2756DPPE   C2A54930  17.050   9.691  18.980  0.1220 -0.1340  0.0028
 2756DPPE   C3A54931  17.213   9.288  18.779  0.1505  0.0398  0.3947
 2756DPPE   C4A54932  17.280   8.851  18.877  0.1472  0.0818 -0.2951
 2756DPPE   C1B54933  17.477  10.442  19.180  0.4410 -0.0460  0.1484
 2756DPPE   C2B54934  17.779  10.398  19.410  0.0769  0.0510  0.3117
 2756DPPE   C3B54935  17.943  10.719  19.438 -0.1540 -0.0765  0.2306
 2756DPPE   C4B54936  18.316  10.856  19.268  0.1450 -0.0569  0.2233
 2757DPPE   NH354937   9.301  18.505  18.264  0.0459 -0.1675 -0.0652
 2757DPPE   PO454938   9.595  18.565  18.633 -0.1727 -0.0919  0.1054
 2757DPPE   GL154939   9.602  18.621  19.004  0.1162 -0.3222 -0.2460
 2757DPPE   GL254940   9.703  18.801  19.079  0.0848 -0.3653 -0.2158
 2757DPPE   C1A54941   9.485  18.296  19.265 -0.2367 -0.0834 -0.1633
 2757DPPE   C2A54942   9.822  18.192  19.702  0.3181  0.2160  0.1271
 2757DPPE   C3A54943  10.025  18.091  20.037  0.2073 -0.1647  0.2710
 2757DPPE   C4A54944  10.109  17.821  20.394  0.0412 -0.1916 -0.2083
 2757DPPE   C1B54945   9.795  18.934  19.443 -0.0079 -0.1718  0.1706
 2757DPPE   C2B54946   9.877  18.758  19.805  0.0052  0.2032 -0.0117
 2757DPPE   C3B54947   9.923  19.005  20.154  0.0618  0.1049  0.0188
 2757DPPE   C4B54948   9.869  19.110  20.613 -0.3107  0.1203 -0.1895
 2758DPPE   NH354949   8.365  24.220  18.841  0.0700  0.3039 -0.1779
 2758DPPE   PO454950   8.106  24.080  18.597  0.1814  0.0101 -0.1827
 2758DPPE   GL154951   7.853  23.914  18.875 -0.0824  0.4137  0.3431
 2758DPPE   GL254952   7.580  23.782  18.751  0.1084 -0.0322  0.2189
 2758DPPE   C1A54953   7.676  23.983  19.184  0.0087 -0.0962 -0.1815
 2758DPPE   C2A54954   7.440  23.681  19.523  0.0377  0.1124 -0.1228
 2758DPPE   C3A54955   7.179  23.419  19.722  0.0721 -0.1045 -0.2223
 2758DPPE   C4A54956   6.717  23.595  19.752  0.3822  0.3161 -0.0157
 2758DPPE   C1B54957   7.269  23.826  19.043  0.3408 -0.1381 -0.0829
 2758DPPE   C2B54958   6.809  23.824  18.909  0.2216 -0.1306 -0.0079
 2758DPPE   C3B54959   6.622  23.936  18.466 -0.3772 -0.3750 -0.4058
 2758DPPE   C4B54960   6.137  24.117  18.362  0.0983  0.3031  0.0110
 2759DPPE   NH354961  13.197  24.468  18.168 -0.1553  0.2136 -0.1122
 2759DPPE   PO454962  13.218  24.937  18.237  0.0949 -0.0299 -0.0502
 2759DPPE   GL154963  13.088  25.285  18.406 -0.2349 -0.0193 -0.2270
 2759DPPE   GL254964  12.773  25.348  18.340  0.1663  0.1749  0.2922
 2759DPPE   C1A54965  13.159  25.749  18.502  0.0135  0.1319 -0.1067
 2759DPPE   C2A54966  13.168  26.184  18.665 -0.1029 -0.2366  0.4668
 2759DPPE   C3A54967  13.170  26.629  18.660 -0.3267  0.2595  0.1408
 2759DPPE   C4A54968  13.065  27.047  18.552  0.1122  0.0772  0.2323
 2759DPPE   C1B54969  12.651  25.755  18.471  0.1624  0.0284  0.1996
 2759DPPE   C2B54970  12.804  26.123  18.334 -0.0187  0.0007  0.2473
 2759DPPE   C3B54971  12.997  26.501  18.217 -0.2032 -0.0024  0.2302
 2759DPPE   C4B54972  13.001  26.918  18.030 -0.1327  0.3317 -0.0108
 2760DPPE   NH354973  23.515  15.606  18.269  0.1441 -0.0549 -0.0295
 2760DPPE   PO454974  23.658  15.142  18.348  0.1215 -0.4654 -0.1827
 2760DPPE   GL154975  23.189  15.167  18.151 -0.0478  0.2542  0.1461
 2760DPPE   GL254976  23.160  15.362  17.754 -0.1679  0.0667  0.0541
 2760DPPE   C1A54977  22.910  14.921  18.163  0.0849  0.2679  0.1446
 2760DPPE   C2A54978  22.513  14.681  17.877  0.2155 -0.1826 -0.4919
 2760DPPE   C3A54979  22.103  14.535  17.794  0.1635 -0.0138  0.0889
 2760DPPE   C4A54980  21.859  14.262  17.476 -0.0622  0.1584  0.0218
 2760DPPE   C1B54981  22.862  15.604  17.529 -0.2793 -0.1319 -0.1217
 2760DPPE   C2B54982  22.824  16.030  17.554 -0.1220 -0.1179  0.1189
 2760DPPE   C3B54983  22.647  16.328  17.375  0.3124 -0.2259 -0.0134
 2760DPPE   C4B54984  22.243  16.382  17.235  0.0331  0.3647 -0.0183
 2761DPPE   NH354985  21.464  21.497  19.333  0.4324  0.3115 -0.1708
 2761DPPE   PO454986  21.817  21.386  18.892 -0.0121 -0.0973 -0.4623
 2761DPPE   GL154987  21.426  21.204  18.914 -0.1190  0.1607 -0.0327
 2761DPPE   GL254988  21.526  20.848  19.033 -0.0733 -0.0984  0.2391
 2761DPPE   C1A54989  21.075  20.920  18.896 -0.1991 -0.1287 -0.2086
 2761DPPE   C2A54990  20.699  20.727  18.827 -0.0833 -0.1780  0.3384
 2761DPPE   C3A54991  20.245  20.666  18.836  0.2331  0.0685  0.0257
 2761DPPE   C4A54992  19.873  20.875  18.783 -0.1353 -0.1182  0.0093
 2761DPPE   C1B54993  21.458  20.511  18.787 -0.0783  0.3148 -0.0622
 2761DPPE   C2B54994  21.070  20.460  18.542 -0.2816  0.0911  0.1868
 2761DPPE   C3B54995  20.681  20.551  18.342  0.1659 -0.0335  0.2463
 2761DPPE   C4B54996  20.359  20.394  18.049 -0.0589 -0.2460 -0.4806
 2762DPPE   NH354997  23.623  15.182  17.892  0.0032  0.1584  0.1782
 2762DPPE   PO454998  23.630  15.643  17.803  0.1939  0.0213 -0.1214
 2762DPPE   GL154999  23.322  15.833  17.512  0.0219 -0.0272  0.0908
 2762DPPE   GL255000  23.298  15.842  17.118 -0.0000  0.3003  0.0359
 2762DPPE   C1A55001  23.181  16.288  17.347 -0.0562 -0.2993  0.2537
 2762DPPE   C2A55002  23.114  16.638  17.301  0.2251  0.0819  0.1138
 2762DPPE   C3A55003  22.828  16.992  17.300  0.1088 -0.0613 -0.0390
 2762DPPE   C4A55004  22.573  17.307  17.403 -0.0681  0.0757  0.4656
 2762DPPE   C1B55005  22.880  15.965  17.083  0.1036  0.0888 -0.1532
 2762DPPE   C2B55006  22.492  16.041  16.982 -0.0338 -0.1807  0.1325
 2762DPPE   C3B55007  22.138  16.201  16.655  0.2027 -0.2014 -0.2491
 2762DPPE   C4B55008  22.062  16.033  16.282  0.0239 -0.1933 -0.2593
 2763DPPE   NH355009  22.726  19.947  18.812 -0.1714 -0.1088 -0.2730
 2763DPPE   PO455010  22.737  19.519  18.849 -0.1540  0.0743  0.1100
 2763DPPE   GL155011  22.417  19.241  18.674  0.3568 -0.3173 -0.1400
 2763DPPE   GL255012  22.268  19.187  18.980 -0.1972  0.2283  0.1779
 2763DPPE   C1A55013  21.860  19.220  18.554 -0.3420 -0.0354  0.0510
 2763DPPE   C2A55014  21.524  19.098  18.236 -0.1948  0.0790 -0.3286
 2763DPPE   C3A55015  21.341  19.093  17.830  0.3185 -0.1617 -0.0211
 2763DPPE   C4A55016  21.338  18.823  17.498 -0.0272 -0.0128 -0.2830
 2763DPPE   C1B55017  22.156  18.806  18.780  0.2736  0.5075 -0.2756
 2763DPPE   C2B55018  22.304  18.468  18.507  0.2365  0.0264  0.4220
 2763DPPE   C3B55019  22.393  18.034  18.537  0.0378 -0.0645  0.1765
 2763DPPE   C4B55020  22.401  17.654  18.591  0.2832  0.1953 -0.0338
 2764DPPE   NH355021  22.789  12.970  19.343 -0.1508  0.0730 -0.0263
 2764DPPE   PO455022  23.075  12.855  18.901  0.0575  0.0867  0.0675
 2764DPPE   GL155023  22.740  13.161  18.812 -0.0531  0.0505 -0.0017
 2764DPPE   GL255024  22.906  13.440  18.822  0.0148  0.0354  0.0625
 2764DPPE   C1A55025  22.403  13.499  18.656  0.3386  0.0079 -0.1157
 2764DPPE   C2A55026  21.983  13.536  18.683 -0.4604 -0.1079 -0.1989
 2764DPPE   C3A55027  21.645  13.945  18.787  0.1981  0.2747  0.0669
 2764DPPE   C4A55028  21.385  14.097  18.538  0.0769  0.4045  0.0893
 2764DPPE   C1B55029  22.788  13.691  18.432  0.0411  0.1364 -0.0487
 2764DPPE   C2B55030  22.423  13.938  18.229  0.1613  0.2622  0.0085
 2764DPPE   C3B55031  22.131  14.054  17.919  0.4139  0.1314  0.1457
 2764DPPE   C4B55032  21.629  14.027  17.988  0.2705  0.1496 -0.0013
 2765DPPE   NH355033  23.871  15.316  17.102 -0.0823  0.1644  0.1521
 2765DPPE   PO455034  24.009  15.185  17.570 -0.2383 -0.0472  0.1064
 2765DPPE   GL155035  23.686  14.968  17.402  0.2472  0.0160 -0.1622
 2765DPPE   GL255036  23.479  15.224  17.360  0.3010 -0.1017 -0.0301
 2765DPPE   C1A55037  23.263  14.785  17.493  0.0233 -0.1139 -0.0904
 2765DPPE   C2A55038  22.884  15.008  17.523 -0.1104  0.4606 -0.2789
 2765DPPE   C3A55039  22.439  15.156  17.693 -0.0615  0.1505 -0.0700
 2765DPPE   C4A55040  22.061  15.121  17.991  0.1022 -0.0921 -0.0277
 2765DPPE   C1B55041  23.155  15.361  17.206  0.1112  0.0604 -0.2013
 2765DPPE   C2B55042  23.020  15.516  16.763 -0.0643 -0.1343  0.4931
 2765DPPE   C3B55043  22.760  15.725  16.561 -0.0216 -0.0737 -0.0227
 2765DPPE   C4B55044  22.605  16.150  16.425 -0.0886  0.1655  0.1606
 2766DPPE   NH355045  21.804  22.437  16.913  0.0511 -0.0612  0.1111
 2766DPPE   PO455046  21.655  22.080  17.264 -0.1620 -0.1095  0.1748
 2766DPPE   GL155047  21.376  22.394  17.291  0.2060 -0.0104  0.0239
 2766DPPE   GL255048  21.242  22.493  17.606  0.0578 -0.1893  0.3108
 2766DPPE   C1A55049  20.972  22.462  17.086  0.0902  0.1992 -0.2492
 2766DPPE   C2A55050  20.587  22.337  16.965  0.4157  0.1924 -0.0633
 2766DPPE   C3A55051  20.324  22.118  17.104  0.0857 -0.2496  0.0758
 2766DPPE   C4A55052  20.116  21.802  17.366  0.0198  0.1130  0.0904
 2766DPPE   C1B55053  20.959  22.200  17.749  0.0597  0.6056  0.2796
 2766DPPE   C2B55054  20.797  21.918  18.018  0.1240  0.0805 -0.0203
 2766DPPE   C3B55055  20.890  21.846  18.481  0.2864  0.1258  0.0974
 2766DPPE   C4B55056  21.183  21.736  18.723  0.3557  0.2181  0.0061
 2767DPPE   NH355057  22.899  17.564  19.456 -0.2388  0.1177  0.1420
 2767DPPE   PO455058  22.875  18.017  19.692 -0.1936 -0.1501  0.0794
 2767DPPE   GL155059  22.405  17.857  19.450 -0.1966  0.1310 -0.1021
 2767DPPE   GL255060  22.354  17.469  19.508 -0.1148  0.1776  0.0379
 2767DPPE   C1A55061  21.987  17.737  19.451  0.0791 -0.2353 -0.0830
 2767DPPE   C2A55062  21.799  17.381  19.354  0.1671 -0.2340 -0.2081
 2767DPPE   C3A55063  21.506  17.310  19.055  0.1068  0.0540 -0.0818
 2767DPPE   C4A55064  21.100  17.427  18.800  0.0816 -0.1740  0.1662
 2767DPPE   C1B55065  22.133  17.439  19.786  0.0867 -0.1174 -0.0619
 2767DPPE   C2B55066  21.795  17.229  19.804  0.0014  0.3556 -0.2072
 2767DPPE   C3B55067  21.663  16.917  19.465  0.2181 -0.0447 -0.1046
 2767DPPE   C4B55068  21.384  16.644  19.335 -0.0784 -0.0213  0.2904
 2768DPPE   NH355069  22.180  21.372  18.470  0.2758  0.0366  0.0331
 2768DPPE   PO455070  22.352  21.095  18.172 -0.3139  0.1966  0.0380
 2768DPPE   GL155071  21.982  20.917  18.241 -0.2883 -0.0394 -0.0141
 2768DPPE   GL255072  21.698  21.017  18.123  0.2637  0.2746  0.0331
 2768DPPE   C1A55073  21.807  20.512  18.396 -0.1429 -0.0554  0.0226
 2768DPPE   C2A55074  21.493  20.182  18.312  0.1993 -0.0768 -0.1386
 2768DPPE   C3A55075  21.112  20.029  18.074  0.2132 -0.0774 -0.1756
 2768DPPE   C4A55076  20.698  19.960  18.105  0.1224 -0.0475  0.1904
 2768DPPE   C1B55077  21.468  21.403  17.870 -0.4122 -0.2896 -0.0215
 2768DPPE   C2B55078  21.148  21.634  17.741 -0.0358  0.1861  0.2021
 2768DPPE   C3B55079  20.749  21.630  17.613 -0.1445 -0.0625 -0.0098
 2768DPPE   C4B55080  20.568  21.573  17.127  0.1895 -0.1971 -0.1997
 2769DPPE   NH355081  22.244  20.130  19.419  0.2427  0.0112  0.2008
 2769DPPE   PO455082  22.602  20.318  19.130 -0.2160 -0.2525 -0.1240
 2769DPPE   GL155083  22.232  20.201  18.898  0.2819 -0.2613 -0.3832
 2769DPPE   GL255084  21.882  20.237  18.804  0.0087 -0.0423  0.2815
 2769DPPE   C1A55085  22.227  20.101  18.517 -0.0098 -0.1295  0.1068
 2769DPPE   C2A55086  22.006  20.087  18.103 -0.1722 -0.1591 -0.1357
 2769DPPE   C3A55087  21.649  19.940  17.856  0.0010 -0.0826 -0.1037
 2769DPPE   C4A55088  21.441  19.542  17.902 -0.0142  0.1350  0.0040
 2769DPPE   C1B55089  21.680  20.004  18.744  0.2672  0.1004 -0.4811
 2769DPPE   C2B55090  21.589  19.645  18.824 -0.0278  0.1623  0.0142
 2769DPPE   C3B55091  21.341  19.472  19.092  0.1656 -0.1109  0.1106
 2769DPPE   C4B55092  21.237  19.394  19.573  0.1593 -0.1842 -0.0107
 2770DPPE   NH355093  23.221  16.368  18.444 -0.2397 -0.2068 -0.0655
 2770DPPE   PO455094  23.203  15.931  18.422 -0.1628  0.0004 -0.0358
 2770DPPE   GL155095  22.774  15.935  18.603 -0.1572 -0.1432 -0.0650
 2770DPPE   GL255096  22.724  16.283  18.646  0.0625  0.1860  0.0096
 2770DPPE   C1A55097  22.406  15.804  18.400  0.1605  0.0822  0.0228
 2770DPPE   C2A55098  21.992  15.890  18.260 -0.3158  0.0567  0.2245
 2770DPPE   C3A55099  21.726  16.170  18.026  0.1198 -0.3434 -0.3261
 2770DPPE   C4A55100  21.562  16.542  17.962 -0.1115 -0.0845 -0.0734
 2770DPPE   C1B55101  22.538  16.358  19.035 -0.3084  0.2377  0.4110
 2770DPPE   C2B55102  22.298  16.452  19.228  0.1979 -0.0482 -0.2201
 2770DPPE   C3B55103  21.865  16.418  19.209  0.1174 -0.1098 -0.3892
 2770DPPE   C4B55104  21.666  16.122  19.177 -0.2876  0.0723  0.0980
 2771DPPE   NH355105  22.323  10.860  16.440  0.1584  0.1026  0.0242
 2771DPPE   PO455106  22.145  11.050  16.092 -0.3519  0.0334 -0.1285
 2771DPPE   GL155107  21.876  11.241  16.308  0.0481  0.1666 -0.2074
 2771DPPE   GL255108  21.870  11.098  16.573  0.3545  0.1915  0.1244
 2771DPPE   C1A55109  21.745  11.633  16.240 -0.2417  0.0269  0.0530
 2771DPPE   C2A55110  21.723  12.039  16.392  0.1377  0.0189  0.1232
 2771DPPE   C3A55111  21.557  12.020  16.797  0.0704 -0.3124 -0.0268
 2771DPPE   C4A55112  21.331  12.023  17.225 -0.3921  0.0358  0.0239
 2771DPPE   C1B55113  21.852  11.557  16.741 -0.0782  0.0179  0.2036
 2771DPPE   C2B55114  22.121  12.023  16.708  0.0222  0.1045 -0.0220
 2771DPPE   C3B55115  22.424  12.501  16.665  0.0177 -0.4047 -0.0677
 2771DPPE   C4B55116  22.690  12.810  16.798 -0.0967 -0.4388 -0.2637
 2772DPPE   NH355117  23.368  16.136  17.977 -0.0675 -0.2126  0.1793
 2772DPPE   PO455118  23.465  16.507  18.005 -0.0362  0.1386  0.0454
 2772DPPE   GL155119  23.025  16.662  18.038  0.0892 -0.1099 -0.0321
 2772DPPE   GL255120  22.781  16.623  18.331  0.0988 -0.1333  0.3453
 2772DPPE   C1A55121  22.605  16.513  17.839 -0.0082 -0.0329  0.0614
 2772DPPE   C2A55122  22.334  16.121  17.760 -0.1661 -0.1154  0.3060
 2772DPPE   C3A55123  22.409  15.775  17.411  0.2558  0.2091  0.2767
 2772DPPE   C4A55124  22.620  15.555  17.013 -0.0425 -0.0138  0.1639
 2772DPPE   C1B55125  22.380  16.354  18.228  0.0659  0.1003  0.0364
 2772DPPE   C2B55126  21.930  16.544  18.306 -0.2447  0.0783 -0.2692
 2772DPPE   C3B55127  21.601  16.725  18.418 -0.0240 -0.0852 -0.0568
 2772DPPE   C4B55128  21.227  17.058  18.541 -0.2847 -0.5006 -0.2264
 2773DPPE   NH355129  23.388  16.994  17.981 -0.0963  0.1259 -0.2474
 2773DPPE   PO455130  23.284  16.917  18.382  0.2273  0.0395  0.1266
 2773DPPE   GL155131  22.840  17.120  18.331 -0.1973 -0.2591  0.1240
 2773DPPE   GL255132  22.978  17.257  18.133 -0.0762 -0.0072  0.1482
 2773DPPE   C1A55133  22.418  16.988  18.346  0.1040 -0.1499  0.0460
 2773DPPE   C2A55134  22.131  16.979  18.151 -0.4674  0.0005 -0.0959
 2773DPPE   C3A55135  21.802  16.927  17.818 -0.0355 -0.0006  0.0721
 2773DPPE   C4A55136  21.790  17.182  17.396  0.0459  0.0113 -0.1565
 2773DPPE   C1B55137  22.679  16.963  17.851 -0.2369 -0.0520  0.1297
 2773DPPE   C2B55138  22.281  16.943  17.620  0.1367  0.2608  0.2274
 2773DPPE   C3B55139  22.216  16.959  17.278  0.0721 -0.0900 -0.1888
 2773DPPE   C4B55140  21.974  16.671  16.919 -0.0224  0.1751 -0.0267
 2774DPPE   NH355141  22.266  22.050  19.126 -0.3071  0.2441  0.0776
 2774DPPE   PO455142  22.025  21.881  18.672  0.1763 -0.1428 -0.0159
 2774DPPE   GL155143  21.747  21.651  18.445 -0.0766  0.0705  0.1225
 2774DPPE   GL255144  21.639  21.921  18.197  0.3103 -0.1952  0.1765
 2774DPPE   C1A55145  21.392  21.348  18.394  0.0925 -0.0534  0.2610
 2774DPPE   C2A55146  21.244  20.910  18.380  0.0813 -0.0362  0.0339
 2774DPPE   C3A55147  21.154  20.570  18.063  0.2303  0.0545  0.2414
 2774DPPE   C4A55148  20.865  20.371  17.802  0.3033  0.0669 -0.0107
 2774DPPE   C1B55149  21.278  21.823  18.160 -0.0856 -0.0782 -0.0890
 2774DPPE   C2B55150  20.996  21.499  18.206 -0.2195 -0.0267 -0.2218
 2774DPPE   C3B55151  20.905  21.045  18.074  0.1137  0.1521  0.1088
 2774DPPE   C4B55152  20.518  20.878  17.911 -0.0087 -0.0648 -0.2034
 2775DPPE   NH355153  23.060  18.421  19.424 -0.0507  0.2681  0.1374
 2775DPPE   PO455154  22.884  18.867  19.441  0.2288 -0.3434 -0.1349
 2775DPPE   GL155155  22.419  18.861  19.344 -0.3358  0.3096  0.0492
 2775DPPE   GL255156  22.300  18.998  19.479  0.4301  0.1063 -0.1924
 2775DPPE   C1A55157  22.150  18.548  19.182  0.1687  0.1826 -0.0210
 2775DPPE   C2A55158  22.183  18.054  18.989 -0.1981 -0.1922 -0.2618
 2775DPPE   C3A55159  21.923  17.699  18.827  0.2536 -0.0412  0.2173
 2775DPPE   C4A55160  21.565  17.509  18.564 -0.3707 -0.0307  0.1346
 2775DPPE   C1B55161  21.861  18.851  19.510 -0.0894 -0.2090 -0.1087
 2775DPPE   C2B55162  21.408  18.954  19.286 -0.2548  0.3226 -0.0090
 2775DPPE   C3B55163  21.050  18.995  18.958  0.2774 -0.0549 -0.0561
 2775DPPE   C4B55164  20.847  18.990  18.605 -0.1619  0.1505 -0.1403
 2776DPPE   NH355165  23.851  13.357  17.181  0.1960  0.0507 -0.7457
 2776DPPE   PO455166  24.016  12.881  17.278  0.1931 -0.0038  0.2283
 2776DPPE   GL155167  23.530  12.983  17.155 -0.2266  0.0118  0.1618
 2776DPPE   GL255168  23.422  13.244  17.364 -0.1621 -0.1126  0.0257
 2776DPPE   C1A55169  23.040  12.964  17.099  0.3604  0.2731 -0.3739
 2776DPPE   C2A55170  22.683  13.148  17.314  0.1491  0.0746 -0.1277
 2776DPPE   C3A55171  22.295  13.072  17.539  0.3164 -0.1431  0.1546
 2776DPPE   C4A55172  22.059  13.053  17.935  0.0226 -0.2469 -0.0855
 2776DPPE   C1B55173  23.040  13.441  17.526 -0.5492 -0.0827  0.0441
 2776DPPE   C2B55174  22.519  13.542  17.659  0.0707  0.0246  0.2163
 2776DPPE   C3B55175  22.128  13.543  17.698  0.0389 -0.0254 -0.1188
 2776DPPE   C4B55176  21.788  13.716  17.466 -0.1581 -0.0645  0.1965
 2777DPPE   NH355177  18.822  20.354  17.357  0.3922  0.2558  0.0521
 2777DPPE   PO455178  18.528  20.502  17.661 -0.4592 -0.1570 -0.1090
 2777DPPE   GL155179  18.858  20.768  17.738 -0.1675  0.0406  0.2227
 2777DPPE   GL255180  19.003  20.893  17.433 -0.2721  0.0225  0.1307
 2777DPPE   C1A55181  19.276  20.669  17.862  0.3321 -0.0194  0.0457
 2777DPPE   C2A55182  19.645  20.439  18.043 -0.1881  0.2715  0.0572
 2777DPPE   C3A55183  19.815  20.114  18.244 -0.0870 -0.0149 -0.0070
 2777DPPE   C4A55184  20.194  19.798  18.093  0.1125 -0.2308  0.0222
 2777DPPE   C1B55185  19.432  21.045  17.514  0.0608 -0.2633  0.0903
 2777DPPE   C2B55186  19.710  21.437  17.596  0.1475  0.3307 -0.0186
 2777DPPE   C3B55187  20.036  21.277  17.834 -0.0295  0.0519 -0.0972
 2777DPPE   C4B55188  20.505  21.354  18.014  0.0539  0.3694 -0.1397
 2778DPPE   NH355189  19.945  18.136  17.715  0.0021 -0.0519 -0.1683
 2778DPPE   PO455190  19.849  18.517  17.659 -0.0657 -0.0676  0.0994
 2778DPPE   GL155191  20.288  18.447  17.934  0.3236  0.1926 -0.0238
 2778DPPE   GL255192  20.445  18.347  17.827  0.0234 -0.0394 -0.0910
 2778DPPE   C1A55193  20.646  18.516  18.271  0.1752  0.2776  0.0128
 2778DPPE   C2A55194  20.975  18.530  18.591 -0.1664  0.2740 -0.1128
 2778DPPE   C3A55195  21.360  18.829  18.621  0.0226  0.0592 -0.2260
 2778DPPE   C4A55196  21.709  18.587  18.967 -0.0056 -0.1373 -0.1010
 2778DPPE   C1B55197  20.857  18.366  17.762  0.2485 -0.3210 -0.2882
 2778DPPE   C2B55198  21.238  18.340  17.592 -0.0114 -0.0346 -0.1507
 2778DPPE   C3B55199  21.505  18.163  17.712  0.1282 -0.1073  0.0482
 2778DPPE   C4B55200  21.872  18.341  18.036 -0.1827 -0.2164 -0.2169
 2779DPPE   NH355201  19.554  17.018  18.182 -0.1632  0.1572  0.0511
 2779DPPE   PO455202  19.668  17.302  17.843  0.0887 -0.0636  0.2522
 2779DPPE   GL155203  20.121  17.181  18.006 -0.1783 -0.1459  0.2271
 2779DPPE   GL255204  20.366  16.911  18.003  0.2734 -0.1509  0.0359
 2779DPPE   C1A55205  20.575  17.345  17.951  0.1725  0.2509 -0.1115
 2779DPPE   C2A55206  20.982  17.139  17.723 -0.3543  0.2218 -0.0361
 2779DPPE   C3A55207  21.333  17.298  17.602  0.2044 -0.0019  0.2279
 2779DPPE   C4A55208  21.537  17.573  17.625 -0.3715 -0.0380 -0.0993
 2779DPPE   C1B55209  20.731  16.746  17.848 -0.3534 -0.1035 -0.2785
 2779DPPE   C2B55210  21.062  16.649  17.816 -0.1669 -0.4194 -0.3326
 2779DPPE   C3B55211  21.369  16.800  17.565 -0.3829  0.0627  0.3747
 2779DPPE   C4B55212  21.801  16.652  17.399  0.0703  0.0234  0.0437
 2780DPPE   NH355213  19.933  15.548  16.880 -0.1646  0.0558  0.1699
 2780DPPE   PO455214  20.185  15.768  17.193 -0.2654 -0.0558 -0.0192
 2780DPPE   GL155215  20.506  16.037  17.359 -0.2649 -0.0534 -0.1081
 2780DPPE   GL255216  20.591  16.385  17.275  0.1738 -0.2951 -0.2447
 2780DPPE   C1A55217  21.027  15.986  17.279 -0.1882  0.1842 -0.2134
 2780DPPE   C2A55218  21.345  15.876  17.138 -0.3353 -0.1135 -0.2718
 2780DPPE   C3A55219  21.623  15.490  17.245  0.3464 -0.1476 -0.4367
 2780DPPE   C4A55220  21.727  15.311  17.633  0.0311 -0.0668  0.0280
 2780DPPE   C1B55221  20.976  16.511  17.185  0.1012 -0.0609  0.2385
 2780DPPE   C2B55222  21.441  16.418  17.095 -0.1268  0.2646 -0.0989
 2780DPPE   C3B55223  21.843  16.203  17.032 -0.2178  0.1194  0.5112
 2780DPPE   C4B55224  21.947  15.784  16.992  0.0400  0.1446  0.0792
 2781DPPE   NH355225  19.795  13.876  17.878  0.0507  0.1568  0.2736
 2781DPPE   PO455226  19.852  13.982  18.280 -0.1055 -0.1039 -0.0222
 2781DPPE   GL155227  20.279  14.030  18.487  0.2585  0.1493 -0.1418
 2781DPPE   GL255228  20.126  13.946  18.831  0.1884  0.3129 -0.3169
 2781DPPE   C1A55229  20.595  14.012  18.878  0.0741  0.0842 -0.0068
 2781DPPE   C2A55230  20.837  13.958  19.206 -0.1713  0.1285 -0.0644
 2781DPPE   C3A55231  21.226  14.004  19.342 -0.0615  0.2574 -0.1235
 2781DPPE   C4A55232  21.388  14.356  19.580 -0.0230 -0.0473 -0.3406
 2781DPPE   C1B55233  19.847  13.894  19.210 -0.1352 -0.0406 -0.0036
 2781DPPE   C2B55234  20.059  13.675  19.665 -0.0302  0.3746 -0.1608
 2781DPPE   C3B55235  20.172  13.593  20.106 -0.2110  0.2363 -0.2070
 2781DPPE   C4B55236  20.505  13.740  20.305  0.0434  0.1707  0.2222
 2782DPPE   NH355237  18.971  15.429  18.422 -0.0753 -0.1229 -0.0778
 2782DPPE   PO455238  19.330  15.152  18.428 -0.1106  0.1376 -0.0214
 2782DPPE   GL155239  19.579  15.140  18.804 -0.1450  0.0044  0.0495
 2782DPPE   GL255240  19.905  15.176  18.751  0.0416  0.0171 -0.0587
 2782DPPE   C1A55241  19.653  14.785  19.183 -0.1671  0.1184 -0.1606
 2782DPPE   C2A55242  19.687  14.815  19.595  0.3130 -0.5332  0.1947
 2782DPPE   C3A55243  19.781  14.986  20.025 -0.2584 -0.2173 -0.1840
 2782DPPE   C4A55244  19.787  15.189  20.457  0.0374  0.0012 -0.1635
 2782DPPE   C1B55245  20.254  14.989  18.913 -0.1531  0.2213 -0.1928
 2782DPPE   C2B55246  20.299  15.380  19.175 -0.1233  0.1072  0.2069
 2782DPPE   C3B55247  20.513  15.553  19.520 -0.0877  0.1870  0.2260
 2782DPPE   C4B55248  20.464  15.751  19.884  0.1833  0.2292 -0.2667
 2783DPPE   NH355249  19.513  18.975  17.702  0.2340 -0.2253 -0.1627
 2783DPPE   PO455250  19.132  19.127  17.827  0.0521 -0.2641 -0.2739
 2783DPPE   GL155251  19.333  19.424  18.026  0.1804 -0.2137 -0.1631
 2783DPPE   GL255252  19.684  19.230  18.125  0.0211 -0.2078  0.2913
 2783DPPE   C1A55253  19.491  19.621  18.364 -0.0822  0.0114  0.2181
 2783DPPE   C2A55254  19.475  19.753  18.776 -0.3152 -0.0837  0.0411
 2783DPPE   C3A55255  19.291  19.979  19.037 -0.3099  0.0648 -0.0637
 2783DPPE   C4A55256  19.325  20.295  19.316 -0.2256  0.0796 -0.2029
 2783DPPE   C1B55257  20.036  19.341  18.304 -0.0306 -0.6378 -0.1489
 2783DPPE   C2B55258  20.366  19.399  18.575  0.1641 -0.1368  0.1723
 2783DPPE   C3B55259  20.834  19.459  18.801 -0.1974  0.1240  0.0892
 2783DPPE   C4B55260  21.196  19.352  18.593 -0.0617 -0.1678 -0.0684
 2784DPPE   NH355261  18.408  19.994  17.722  0.0774 -0.0540 -0.1537
 2784DPPE   PO455262  18.686  19.934  17.568 -0.1736 -0.0127  0.3144
 2784DPPE   GL155263  18.983  20.182  17.814 -0.2870 -0.0947  0.0256
 2784DPPE   GL255264  18.836  20.197  18.221  0.2339 -0.2392  0.4785
 2784DPPE   C1A55265  19.507  20.017  17.740  0.1779  0.1164 -0.1788
 2784DPPE   C2A55266  19.921  20.016  17.679  0.2074  0.2455 -0.0022
 2784DPPE   C3A55267  20.181  19.773  17.464 -0.2135  0.3546 -0.0012
 2784DPPE   C4A55268  20.343  19.675  17.093 -0.2173  0.1564  0.2216
 2784DPPE   C1B55269  18.957  20.569  18.276 -0.2513 -0.0537  0.0945
 2784DPPE   C2B55270  19.396  20.687  18.376  0.1395 -0.1253 -0.0593
 2784DPPE   C3B55271  19.668  20.946  18.305  0.0604  0.2164 -0.0613
 2784DPPE   C4B55272  19.992  21.232  18.429  0.1729  0.0261 -0.2848
 2785DPPE   NH355273  20.122  13.513  18.166  0.2234 -0.1252  0.0280
 2785DPPE   PO455274  20.261  13.602  17.797  0.2807 -0.3320 -0.1275
 2785DPPE   GL155275  20.363  13.477  17.477 -0.0315  0.0665 -0.1078
 2785DPPE   GL255276  20.209  13.167  17.363  0.1290 -0.2169 -0.2287
 2785DPPE   C1A55277  20.740  13.256  17.454 -0.0438  0.0354 -0.0986
 2785DPPE   C2A55278  20.974  12.988  17.340 -0.2455 -0.0102 -0.0851
 2785DPPE   C3A55279  21.337  12.696  17.320  0.0756 -0.1060 -0.2654
 2785DPPE   C4A55280  21.734  12.768  17.561  0.1331  0.1376 -0.4139
 2785DPPE   C1B55281  20.367  12.693  17.412  0.1140  0.0045 -0.0783
 2785DPPE   C2B55282  20.628  12.364  17.678  0.5703 -0.1960  0.0717
 2785DPPE   C3B55283  20.785  12.396  18.127 -0.0213  0.2848 -0.0096
 2785DPPE   C4B55284  20.761  12.701  18.452 -0.5776 -0.3350 -0.3198
 2786DPPE   NH355285  19.569  16.093  18.314  0.0657  0.1784  0.1367
 2786DPPE   PO455286  19.439  16.561  18.214 -0.1796  0.2219 -0.2397
 2786DPPE   GL155287  19.831  16.565  18.470  0.2200 -0.1079  0.3464
 2786DPPE   GL255288  19.963  16.883  18.413 -0.0292 -0.0737 -0.2642
 2786DPPE   C1A55289  20.149  16.544  18.714 -0.0647 -0.1936 -0.0796
 2786DPPE   C2A55290  20.495  16.827  18.920 -0.0542 -0.0547  0.1075
 2786DPPE   C3A55291  20.698  17.138  18.965  0.1690  0.0522 -0.0385
 2786DPPE   C4A55292  20.652  17.611  18.932 -0.0751 -0.1405 -0.2253
 2786DPPE   C1B55293  20.334  16.978  18.455 -0.0289 -0.0454  0.2640
 2786DPPE   C2B55294  20.775  17.010  18.396 -0.2144  0.1720  0.1014
 2786DPPE   C3B55295  21.116  16.697  18.298 -0.0448  0.0692 -0.1068
 2786DPPE   C4B55296  21.247  16.291  18.249 -0.1413 -0.2271 -0.0884
 2787DPPE   NH355297  19.205  17.651  17.871 -0.2436  0.1494 -0.3051
 2787DPPE   PO455298  19.510  17.743  17.576  0.1132  0.0270  0.2008
 2787DPPE   GL155299  19.772  17.741  18.084  0.0297  0.3675  0.0401
 2787DPPE   GL255300  20.194  17.915  18.115  0.0555  0.0663  0.2426
 2787DPPE   C1A55301  19.796  17.880  18.513 -0.1555 -0.1103 -0.1862
 2787DPPE   C2A55302  20.121  18.069  18.746 -0.3295 -0.1268 -0.0019
 2787DPPE   C3A55303  20.364  18.069  19.042 -0.3862 -0.0486 -0.1523
 2787DPPE   C4A55304  20.585  17.939  19.333  0.2199 -0.0346  0.0794
 2787DPPE   C1B55305  20.467  18.057  18.371 -0.0234 -0.0180  0.0188
 2787DPPE   C2B55306  20.765  18.086  18.661  0.1711 -0.4448  0.1007
 2787DPPE   C3B55307  20.983  18.020  19.086 -0.1620  0.0856  0.2002
 2787DPPE   C4B55308  21.034  17.586  19.244 -0.3026 -0.1291 -0.0056
 2788DPPE   NH355309  20.053  14.839  17.787  0.0343  0.2845 -0.2879
 2788DPPE   PO455310  19.960  15.274  17.796 -0.1242  0.2977 -0.0915
 2788DPPE   GL155311  20.294  15.380  18.207 -0.0736 -0.1058  0.3265
 2788DPPE   GL255312  20.465  15.750  18.170  0.1716 -0.1310 -0.1689
 2788DPPE   C1A55313  20.719  15.396  18.419  0.0931  0.0897  0.2760
 2788DPPE   C2A55314  21.096  15.575  18.625  0.1414  0.1296  0.6110
 2788DPPE   C3A55315  21.471  15.342  18.552  0.2546 -0.0289  0.0874
 2788DPPE   C4A55316  21.520  14.913  18.728 -0.1806 -0.1159 -0.1423
 2788DPPE   C1B55317  21.011  15.719  18.094 -0.1742  0.2936  0.0354
 2788DPPE   C2B55318  21.155  15.308  18.044 -0.2177  0.0655 -0.0442
 2788DPPE   C3B55319  21.120  14.940  18.360 -0.2106 -0.1577 -0.2828
 2788DPPE   C4B55320  21.185  14.556  18.536  0.4035 -0.2154 -0.3142
 2789DPPE   NH355321  19.933  17.046  17.530  0.0363  0.1475 -0.2685
 2789DPPE   PO455322  19.768  17.413  17.228 -0.1218  0.1739  0.1411
 2789DPPE   GL155323  20.279  17.387  17.362 -0.1112  0.2469  0.2151
 2789DPPE   GL255324  20.410  17.558  16.948  0.0512  0.0762  0.0899
 2789DPPE   C1A55325  20.686  17.421  17.403  0.4134  0.0472 -0.0436
 2789DPPE   C2A55326  20.972  17.623  17.725 -0.4827 -0.2284 -0.3192
 2789DPPE   C3A55327  21.307  17.803  18.029  0.1193  0.0684 -0.0947
 2789DPPE   C4A55328  21.696  17.860  18.136 -0.3733 -0.0789 -0.2910
 2789DPPE   C1B55329  20.720  17.816  16.953  0.0267 -0.2732 -0.2982
 2789DPPE   C2B55330  21.153  17.711  17.137 -0.3663  0.1052  0.2717
 2789DPPE   C3B55331  21.520  17.490  17.028  0.0730 -0.2805 -0.0785
 2789DPPE   C4B55332  21.855  17.318  16.824 -0.2195  0.0573 -0.1671
 2790DPPE   NH355333  20.218  16.590  17.605 -0.0731 -0.1063 -0.4095
 2790DPPE   PO455334  20.196  16.136  17.779 -0.0759 -0.2888 -0.1558
 2790DPPE   GL155335  20.595  16.230  17.794  0.0541  0.1606 -0.0016
 2790DPPE   GL255336  20.726  15.922  17.793 -0.1541 -0.1103  0.0181
 2790DPPE   C1A55337  20.782  16.306  18.105 -0.4020 -0.1201  0.0277
 2790DPPE   C2A55338  20.850  16.087  18.466 -0.1333 -0.0938 -0.1304
 2790DPPE   C3A55339  21.008  16.010  18.849  0.1807 -0.0417 -0.1295
 2790DPPE   C4A55340  21.021  16.072  19.282 -0.4640  0.0129  0.2272
 2790DPPE   C1B55341  21.175  16.022  17.791 -0.0065  0.1479 -0.0106
 2790DPPE   C2B55342  21.369  16.230  17.556 -0.6781  0.0545 -0.3322
 2790DPPE   C3B55343  21.854  16.130  17.536 -0.2464  0.0813  0.0792
 2790DPPE   C4B55344  22.051  16.521  17.797 -0.0280 -0.0356 -0.2695
 2791DPPE   NH355345  19.764  15.326  18.280  0.1515 -0.2411 -0.2183
 2791DPPE   PO455346  19.933  15.811  18.073 -0.1404  0.2480 -0.0221
 2791DPPE   GL155347  19.895  15.774  18.535  0.0883 -0.0845  0.3438
 2791DPPE   GL255348  19.863  16.077  18.721  0.1257 -0.0782 -0.0536
 2791DPPE   C1A55349  20.269  15.536  18.729 -0.0291 -0.3477 -0.1743
 2791DPPE   C2A55350  20.639  15.644  18.885 -0.0732 -0.0271 -0.0668
 2791DPPE   C3A55351  20.945  15.620  19.187 -0.1315 -0.0462 -0.1719
 2791DPPE   C4A55352  21.237  15.415  19.395 -0.1162 -0.2254  0.2689
 2791DPPE   C1B55353  19.926  16.050  19.090  0.3140 -0.3636 -0.0200
 2791DPPE   C2B55354  19.993  16.225  19.576  0.1647  0.0644  0.2096
 2791DPPE   C3B55355  20.175  16.096  19.952 -0.0133  0.0224 -0.1659
 2791DPPE   C4B55356  19.996  15.580  20.021 -0.0357  0.0716  0.2206
 2792DPPE   NH355357  19.765  16.358  17.898 -0.1256 -0.1490  0.4453
 2792DPPE   PO455358  19.861  16.756  17.930  0.1722 -0.0631 -0.2169
 2792DPPE   GL155359  20.273  16.498  18.162  0.2869 -0.2175 -0.1345
 2792DPPE   GL255360  20.170  16.178  18.283 -0.0666 -0.1995 -0.0714
 2792DPPE   C1A55361  20.597  16.559  18.475 -0.0062  0.3668 -0.3720
 2792DPPE   C2A55362  20.915  16.640  18.777 -0.2317 -0.2324 -0.0733
 2792DPPE   C3A55363  21.259  16.481  18.808  0.0044 -0.1514 -0.1378
 2792DPPE   C4A55364  21.649  16.267  18.612 -0.2929 -0.2378  0.3129
 2792DPPE   C1B55365  20.378  16.053  18.677 -0.3342 -0.2587  0.1622
 2792DPPE   C2B55366  20.587  16.275  18.895 -0.0818 -0.2837  0.3405
 2792DPPE   C3B55367  20.711  16.439  19.189  0.1075 -0.1594  0.1913
 2792DPPE   C4B55368  20.884  16.693  19.566  0.2486  0.0459  0.3382
 2793DPPE   NH355369  18.924  17.440  18.603 -0.0260  0.6350 -0.2985
 2793DPPE   PO455370  19.163  17.319  18.258  0.1596  0.1105  0.0082
 2793DPPE   GL155371  19.453  17.479  18.568  0.1274 -0.0936 -0.4071
 2793DPPE   GL255372  19.771  17.325  18.491 -0.1119 -0.0999  0.0285
 2793DPPE   C1A55373  19.692  17.633  18.916  0.0700  0.0812 -0.0915
 2793DPPE   C2A55374  19.856  17.980  19.176 -0.1135 -0.2604  0.3619
 2793DPPE   C3A55375  20.115  18.207  19.408  0.1180  0.2465 -0.0154
 2793DPPE   C4A55376  20.395  18.483  19.405  0.0080 -0.2161 -0.1239
 2793DPPE   C1B55377  20.211  17.545  18.483 -0.0550 -0.1473 -0.1704
 2793DPPE   C2B55378  20.716  17.539  18.397  0.1573  0.0375 -0.0794
 2793DPPE   C3B55379  21.082  17.351  18.178 -0.1238 -0.1285  0.2664
 2793DPPE   C4B55380  21.372  17.004  18.031 -0.0882 -0.1236 -0.1453
 2794DPPE   NH355381  19.198  18.302  18.318 -0.2774 -0.0360 -0.1062
 2794DPPE   PO455382  19.259  18.672  18.052 -0.0942  0.3881  0.1008
 2794DPPE   GL155383  19.471  18.859  18.342 -0.0673  0.0678 -0.1711
 2794DPPE   GL255384  19.354  18.672  18.613 -0.1708  0.0973  0.2122
 2794DPPE   C1A55385  19.927  18.881  18.547  0.0778  0.1079 -0.2632
 2794DPPE   C2A55386  20.195  18.973  18.846 -0.1973  0.1333  0.2228
 2794DPPE   C3A55387  20.514  19.030  18.964  0.1644  0.0417 -0.1598
 2794DPPE   C4A55388  20.701  19.360  19.252 -0.2512  0.0993  0.3388
 2794DPPE   C1B55389  19.640  18.849  18.969 -0.1170  0.2503  0.0427
 2794DPPE   C2B55390  19.565  18.880  19.469 -0.5198 -0.3861  0.2913
 2794DPPE   C3B55391  19.516  19.221  19.740  0.0314  0.0092  0.1371
 2794DPPE   C4B55392  19.718  19.500  20.157  0.2166 -0.0951 -0.1313
 2795DPPE   NH355393   2.612  16.820  17.605  0.0026  0.1852 -0.3026
 2795DPPE   PO455394   2.670  17.218  17.478  0.1830 -0.0408 -0.0221
 2795DPPE   GL155395   3.089  17.124  17.363 -0.0113 -0.1278  0.2999
 2795DPPE   GL255396   3.158  17.449  17.216 -0.0128 -0.0616  0.0338
 2795DPPE   C1A55397   3.527  17.104  17.182 -0.0569 -0.1203  0.3446
 2795DPPE   C2A55398   3.969  17.233  16.895 -0.0475  0.0347  0.0905
 2795DPPE   C3A55399   4.440  17.304  16.819 -0.0289 -0.1427 -0.0935
 2795DPPE   C4A55400   4.587  17.612  16.775  0.0881 -0.2215  0.1233
 2795DPPE   C1B55401   3.665  17.587  17.231 -0.1434  0.1672  0.0176
 2795DPPE   C2B55402   3.986  17.264  17.427  0.2666 -0.2943  0.2568
 2795DPPE   C3B55403   4.217  16.930  17.655 -0.0689  0.0051  0.1717
 2795DPPE   C4B55404   4.555  16.676  17.847 -0.1610 -0.1624 -0.1060
 2796DPPE   NH355405   7.093  18.603  13.895 -0.0928 -0.4094 -0.1289
 2796DPPE   PO455406   7.071  19.099  13.853 -0.2219 -0.1496 -0.1408
 2796DPPE   GL155407   6.824  18.906  14.142 -0.0716  0.1351  0.0537
 2796DPPE   GL255408   6.608  18.525  14.150  0.1831  0.0382 -0.0002
 2796DPPE   C1A55409   6.657  18.754  14.591 -0.0331  0.0956 -0.0188
 2796DPPE   C2A55410   6.896  18.715  15.006  0.2517  0.2241  0.0546
 2796DPPE   C3A55411   7.214  18.916  15.181 -0.3210 -0.2007 -0.0084
 2796DPPE   C4A55412   7.215  19.426  15.296  0.0856  0.2973 -0.0335
 2796DPPE   C1B55413   6.168  18.457  14.289  0.1417  0.0891 -0.1159
 2796DPPE   C2B55414   5.859  18.150  14.166  0.1844  0.0261 -0.0730
 2796DPPE   C3B55415   5.596  17.798  14.285  0.1896 -0.1100 -0.0559
 2796DPPE   C4B55416   5.653  17.368  14.533  0.1174 -0.1297 -0.1945
 2797DPPE   NH355417   4.894  22.040  15.199 -0.0234  0.1333  0.0116
 2797DPPE   PO455418   4.905  21.714  15.526 -0.2029 -0.2007  0.0128
 2797DPPE   GL155419   4.802  21.356  15.842  0.0782 -0.1467  0.0977
 2797DPPE   GL255420   4.949  21.095  15.614  0.0103 -0.0110  0.1832
 2797DPPE   C1A55421   4.715  21.054  16.089  0.0374  0.2954 -0.2984
 2797DPPE   C2A55422   4.943  20.670  16.278  0.2581  0.0221  0.1253
 2797DPPE   C3A55423   5.197  20.220  16.384 -0.1936 -0.1715 -0.0927
 2797DPPE   C4A55424   5.532  20.234  16.731  0.1112  0.0590  0.0155
 2797DPPE   C1B55425   5.354  21.022  15.586  0.2890  0.0551  0.2162
 2797DPPE   C2B55426   5.761  20.971  15.487  0.0877  0.0487 -0.1117
 2797DPPE   C3B55427   6.158  21.065  15.505  0.3118 -0.0949  0.1470
 2797DPPE   C4B55428   6.301  21.138  15.859  0.2970  0.0104  0.0079
 2798DPPE   NH355429   2.868  19.674  18.419  0.1233  0.3220 -0.1063
 2798DPPE   PO455430   2.803  19.689  18.017 -0.1253  0.0173 -0.0841
 2798DPPE   GL155431   3.194  19.964  18.122 -0.0074  0.0684  0.1352
 2798DPPE   GL255432   3.445  20.050  17.840  0.2625 -0.2744  0.0335
 2798DPPE   C1A55433   3.570  20.104  18.328 -0.1367 -0.1613 -0.1160
 2798DPPE   C2A55434   3.853  20.051  18.668  0.1640 -0.0460  0.2858
 2798DPPE   C3A55435   4.143  20.346  18.738  0.0408 -0.2115 -0.0733
 2798DPPE   C4A55436   4.052  20.654  19.034 -0.2378 -0.0447  0.1525
 2798DPPE   C1B55437   3.820  19.837  17.954 -0.1617 -0.2585 -0.0967
 2798DPPE   C2B55438   4.143  19.893  17.740  0.0292 -0.1461 -0.0094
 2798DPPE   C3B55439   4.528  20.198  17.493 -0.1224  0.2273 -0.0831
 2798DPPE   C4B55440   4.734  20.645  17.280  0.5201  0.4887 -0.3015
 2799DPPE   NH355441   3.626  12.794  17.995 -0.2011 -0.3681  0.0376
 2799DPPE   PO455442   3.325  12.887  17.669 -0.2686  0.0390 -0.2256
 2799DPPE   GL155443   3.656  13.059  17.486  0.1446  0.2140 -0.2772
 2799DPPE   GL255444   3.701  13.438  17.435  0.0717 -0.0470  0.1366
 2799DPPE   C1A55445   4.118  13.206  17.617 -0.1502  0.2838  0.1098
 2799DPPE   C2A55446   4.586  13.375  17.571  0.1571 -0.2181  0.0819
 2799DPPE   C3A55447   4.946  13.576  17.524 -0.0541  0.1135 -0.1572
 2799DPPE   C4A55448   5.338  13.856  17.576 -0.2847  0.0871  0.0664
 2799DPPE   C1B55449   3.942  13.207  17.066 -0.2563  0.3092  0.0090
 2799DPPE   C2B55450   4.210  13.210  16.723  0.3619  0.2134  0.0938
 2799DPPE   C3B55451   4.298  13.029  16.317 -0.1793  0.0744 -0.3118
 2799DPPE   C4B55452   4.504  12.772  15.844 -0.0076 -0.1576 -0.2316
 2800DPPE   NH355453   4.272  22.464  18.763  0.2006  0.0940  0.0576
 2800DPPE   PO455454   4.156  22.689  18.300  0.1957  0.1272 -0.0780
 2800DPPE   GL155455   4.602  22.463  18.390 -0.2536  0.1994 -0.1960
 2800DPPE   GL255456   4.796  22.136  18.293 -0.0795  0.3798  0.1466
 2800DPPE   C1A55457   4.957  22.576  18.467  0.0643 -0.1204 -0.3627
 2800DPPE   C2A55458   5.199  22.845  18.794 -0.0099 -0.1718 -0.0083
 2800DPPE   C3A55459   5.597  22.678  19.078 -0.1680 -0.1116 -0.2756
 2800DPPE   C4A55460   5.864  22.308  19.033 -0.0839  0.2324  0.0739
 2800DPPE   C1B55461   4.983  21.865  17.939 -0.1912  0.1279 -0.3028
 2800DPPE   C2B55462   4.998  21.606  17.676 -0.1562 -0.1812 -0.1110
 2800DPPE   C3B55463   5.137  21.339  17.276  0.1538  0.0717 -0.0796
 2800DPPE   C4B55464   5.000  21.155  17.011  0.2271 -0.1716  0.3019
 2801DPPE   NH355465   3.443  22.020  19.241  0.1927  0.1484  0.2865
 2801DPPE   PO455466   3.911  22.064  18.897 -0.4451 -0.2730 -0.0538
 2801DPPE   GL155467   4.227  21.805  18.928  0.0579  0.0372  0.1350
 2801DPPE   GL255468   4.468  21.987  18.712 -0.2229  0.2901 -0.3794
 2801DPPE   C1A55469   4.505  21.727  19.236 -0.0110 -0.0654  0.0049
 2801DPPE   C2A55470   4.526  21.781  19.650  0.3286 -0.1785  0.1149
 2801DPPE   C3A55471   4.875  21.968  19.889  0.0381 -0.2076  0.1046
 2801DPPE   C4A55472   5.158  22.186  19.863 -0.2862  0.2209 -0.1531
 2801DPPE   C1B55473   4.508  21.781  18.251  0.2071 -0.2226 -0.2673
 2801DPPE   C2B55474   4.648  21.489  18.002  0.0380  0.3911  0.0257
 2801DPPE   C3B55475   4.858  21.123  18.175  0.1827  0.0494 -0.2186
 2801DPPE   C4B55476   5.173  21.220  18.518 -0.0355  0.5172  0.1741
 2802DPPE   NH355477   4.116  11.617  16.042  0.1761 -0.0143 -0.3110
 2802DPPE   PO455478   4.130  12.068  15.882  0.1363 -0.1081  0.1176
 2802DPPE   GL155479   4.488  12.295  15.924 -0.1127  0.0797  0.1328
 2802DPPE   GL255480   4.700  12.220  16.148 -0.1366  0.1809  0.0070
 2802DPPE   C1A55481   4.929  12.498  15.796  0.1493  0.1048  0.2043
 2802DPPE   C2A55482   5.293  12.761  15.947  0.2703  0.4591  0.0634
 2802DPPE   C3A55483   5.416  13.157  15.827 -0.0888  0.0355  0.1875
 2802DPPE   C4A55484   5.632  13.572  15.921 -0.0466 -0.0674  0.1746
 2802DPPE   C1B55485   5.085  12.401  16.248 -0.1302 -0.2096 -0.0098
 2802DPPE   C2B55486   5.520  12.339  16.252  0.1685  0.2585 -0.3310
 2802DPPE   C3B55487   5.787  12.037  16.005  0.0643 -0.0964 -0.0765
 2802DPPE   C4B55488   6.043  11.936  15.623  0.0721 -0.0654 -0.2518
 2803DPPE   NH355489   3.283  20.674  16.712  0.1976  0.0721  0.2095
 2803DPPE   PO455490   3.227  20.404  16.355  0.1096 -0.0340 -0.2199
 2803DPPE   GL155491   3.507  20.043  16.466  0.0488  0.0761  0.1563
 2803DPPE   GL255492   3.879  20.002  16.340  0.1068  0.3731  0.0773
 2803DPPE   C1A55493   3.553  19.559  16.805  0.0724 -0.1849  0.2742
 2803DPPE   C2A55494   3.708  19.186  16.995  0.4693  0.0517  0.1574
 2803DPPE   C3A55495   3.500  18.838  17.288 -0.0352 -0.2973  0.1802
 2803DPPE   C4A55496   3.746  18.545  17.211  0.0309  0.0094  0.3251
 2803DPPE   C1B55497   4.069  19.602  16.492  0.1129 -0.0541  0.0685
 2803DPPE   C2B55498   4.112  19.226  16.617  0.3604 -0.2995  0.0244
 2803DPPE   C3B55499   3.967  18.874  16.600 -0.2473  0.0366 -0.1295
 2803DPPE   C4B55500   3.745  18.479  16.672  0.0522  0.0584  0.0907
 2804DPPE   NH355501   4.704  13.729  20.182  0.2612  0.0072  0.0378
 2804DPPE   PO455502   4.582  14.049  20.370 -0.1918 -0.1786 -0.1203
 2804DPPE   GL155503   4.916  14.355  20.344 -0.2287 -0.0052  0.2426
 2804DPPE   GL255504   4.743  14.675  20.487  0.0214  0.1884  0.2504
 2804DPPE   C1A55505   5.217  14.647  20.244  0.2249  0.1808  0.1307
 2804DPPE   C2A55506   5.481  14.975  20.317  0.2242 -0.0780  0.1544
 2804DPPE   C3A55507   5.592  15.231  20.442 -0.3583  0.1296 -0.0053
 2804DPPE   C4A55508   5.851  15.497  20.404  0.0627 -0.1477 -0.1582
 2804DPPE   C1B55509   4.841  15.101  20.436 -0.1842  0.0397 -0.3590
 2804DPPE   C2B55510   4.524  15.396  20.232  0.3195  0.0101  0.1407
 2804DPPE   C3B55511   4.631  15.843  20.098  0.0319  0.1923  0.1369
 2804DPPE   C4B55512   4.534  16.248  20.204  0.0143  0.0574  0.0181
 2805DPPE   NH355513   4.023  11.523  17.026  0.1654 -0.3814 -0.2582
 2805DPPE   PO455514   4.417  11.749  16.879  0.0305  0.3996 -0.2635
 2805DPPE   GL155515   4.763  11.945  17.008 -0.2423  0.0728  0.1456
 2805DPPE   GL255516   4.980  11.763  17.082  0.0443 -0.4203  0.2158
 2805DPPE   C1A55517   5.018  12.284  17.196 -0.1359  0.1460 -0.1477
 2805DPPE   C2A55518   5.002  12.688  17.328 -0.2032 -0.3997  0.5498
 2805DPPE   C3A55519   5.118  13.081  17.417 -0.2004 -0.1800  0.3971
 2805DPPE   C4A55520   5.383  13.398  17.370  0.1269 -0.0330  0.2232
 2805DPPE   C1B55521   5.293  11.988  16.804 -0.1895 -0.4702  0.3565
 2805DPPE   C2B55522   5.605  11.897  16.532 -0.0142  0.0296 -0.0945
 2805DPPE   C3B55523   6.004  12.117  16.460 -0.3851  0.2105  0.2165
 2805DPPE   C4B55524   6.412  12.167  16.352  0.1695 -0.2390 -0.0725
 2806DPPE   NH355525   8.335  16.291  22.184  0.2276 -0.2985 -0.1168
 2806DPPE   PO455526   8.039  15.977  21.829 -0.1072 -0.1488 -0.2115
 2806DPPE   GL155527   8.057  15.832  21.483  0.1002  0.1980  0.0572
 2806DPPE   GL255528   7.976  15.501  21.341 -0.1457  0.0391  0.3611
 2806DPPE   C1A55529   7.972  16.042  21.004 -0.4101  0.1956  0.0464
 2806DPPE   C2A55530   7.727  16.472  20.860 -0.0601  0.1727 -0.0610
 2806DPPE   C3A55531   7.710  16.742  21.286  0.2761 -0.0688 -0.1258
 2806DPPE   C4A55532   7.366  17.083  21.423  0.1812 -0.1595  0.2958
 2806DPPE   C1B55533   7.584  15.528  21.056 -0.1274 -0.0171 -0.0120
 2806DPPE   C2B55534   7.500  15.997  21.010 -0.0364 -0.2264  0.1207
 2806DPPE   C3B55535   7.197  16.136  20.991  0.0551 -0.3292  0.0181
 2806DPPE   C4B55536   6.710  16.140  21.090  0.1539 -0.2743 -0.0969
 2807DPPE   NH355537   4.326  20.801  14.280  0.1681  0.2055  0.2625
 2807DPPE   PO455538   4.677  20.487  14.340  0.2611 -0.3378 -0.1378
 2807DPPE   GL155539   4.730  20.450  14.756 -0.0610 -0.1758  0.0227
 2807DPPE   GL255540   4.812  20.630  15.028  0.0965  0.0758 -0.4552
 2807DPPE   C1A55541   4.813  20.113  15.060 -0.0114 -0.1971  0.2554
 2807DPPE   C2A55542   5.368  20.009  15.166 -0.2006  0.3077  0.0920
 2807DPPE   C3A55543   5.519  19.990  15.691 -0.1813 -0.0101 -0.4427
 2807DPPE   C4A55544   5.752  20.037  16.134  0.0781 -0.0763 -0.0493
 2807DPPE   C1B55545   5.152  20.467  15.295  0.1054 -0.1518 -0.0727
 2807DPPE   C2B55546   5.656  20.478  15.427 -0.0702 -0.3912  0.1325
 2807DPPE   C3B55547   6.006  20.414  15.309  0.1148  0.1954  0.1107
 2807DPPE   C4B55548   6.391  20.108  15.110 -0.0657  0.0281  0.0918
 2808DPPE   NH355549   3.835  21.355  15.807 -0.1410 -0.3482  0.1013
 2808DPPE   PO455550   3.701  21.018  15.961 -0.1133 -0.2693 -0.0059
 2808DPPE   GL155551   4.114  20.781  16.069  0.2152 -0.1015 -0.0870
 2808DPPE   GL255552   4.217  20.973  16.321 -0.0185  0.0307 -0.0769
 2808DPPE   C1A55553   4.488  20.611  15.858 -0.0343  0.2356  0.2401
 2808DPPE   C2A55554   4.873  20.596  15.804  0.1510 -0.1544  0.0078
 2808DPPE   C3A55555   5.362  20.556  15.854  0.0643 -0.0904  0.2190
 2808DPPE   C4A55556   5.595  20.563  16.233  0.2521 -0.0528  0.0031
 2808DPPE   C1B55557   4.460  20.574  16.429  0.0560 -0.2443  0.0405
 2808DPPE   C2B55558   4.444  20.208  16.211 -0.0814  0.0333 -0.1652
 2808DPPE   C3B55559   4.865  20.138  15.942  0.2444 -0.1044  0.1453
 2808DPPE   C4B55560   4.978  19.948  15.552 -0.1176  0.0267  0.0677
 2809DPPE   NH355561   3.140  20.146  16.797  0.2760 -0.1215 -0.0506
 2809DPPE   PO455562   3.164  20.171  17.314 -0.2559 -0.0552  0.0930
 2809DPPE   GL155563   3.543  19.842  17.288 -0.2236 -0.0957  0.1389
 2809DPPE   GL255564   3.583  19.540  17.450  0.0203  0.0256  0.1197
 2809DPPE   C1A55565   3.857  19.931  16.896  0.0473 -0.0450  0.1559
 2809DPPE   C2A55566   3.892  20.364  16.656 -0.1177 -0.4592  0.0049
 2809DPPE   C3A55567   4.162  20.784  16.794  0.0861 -0.0513 -0.2574
 2809DPPE   C4A55568   4.530  20.969  16.712 -0.1668 -0.1404  0.2902
 2809DPPE   C1B55569   3.785  19.269  17.727  0.0041 -0.0738  0.1056
 2809DPPE   C2B55570   3.923  19.111  18.150 -0.1614 -0.0512 -0.0722
 2809DPPE   C3B55571   4.136  18.852  18.312 -0.2447  0.2059  0.0226
 2809DPPE   C4B55572   4.095  18.404  18.463 -0.1270 -0.0382  0.2120
 2810DPPE   NH355573   3.054  15.789  18.985 -0.0135 -0.2344  0.0333
 2810DPPE   PO455574   3.137  15.563  19.352  0.0612  0.1347  0.3498
 2810DPPE   GL155575   3.537  15.736  19.414  0.1374 -0.0398  0.0905
 2810DPPE   GL255576   3.566  15.955  19.191 -0.1179  0.1156  0.0034
 2810DPPE   C1A55577   3.887  15.966  19.546 -0.1688  0.2166  0.0823
 2810DPPE   C2A55578   4.242  16.037  19.627  0.1705  0.0390 -0.0789
 2810DPPE   C3A55579   4.632  16.041  19.675  0.0454  0.3000  0.1554
 2810DPPE   C4A55580   5.098  15.981  19.626  0.1494 -0.1651  0.1696
 2810DPPE   C1B55581   3.939  15.632  19.115 -0.0175 -0.0961 -0.1002
 2810DPPE   C2B55582   4.253  15.369  18.830  0.1103 -0.0370 -0.2542
 2810DPPE   C3B55583   4.363  15.269  18.466 -0.1081 -0.2378  0.1421
 2810DPPE   C4B55584   4.576  15.118  18.034 -0.1622 -0.1611 -0.4019
 2811DPPE   NH355585   5.645  19.882  14.032 -0.1070  0.2658 -0.2186
 2811DPPE   PO455586   5.736  19.571  13.778 -0.2469  0.1037 -0.0310
 2811DPPE   GL155587   5.985  19.467  14.135 -0.2930  0.3358 -0.1459
 2811DPPE   GL255588   5.741  19.303  14.247  0.3087  0.0719  0.3972
 2811DPPE   C1A55589   6.039  19.420  14.603  0.0101 -0.0871 -0.2512
 2811DPPE   C2A55590   6.079  19.629  15.068 -0.1004 -0.1731 -0.0340
 2811DPPE   C3A55591   6.485  19.664  15.356  0.1706 -0.3718  0.2561
 2811DPPE   C4A55592   6.855  19.712  15.465 -0.0600  0.1826  0.0279
 2811DPPE   C1B55593   5.809  18.902  14.551 -0.0291 -0.1138 -0.0406
 2811DPPE   C2B55594   5.509  18.921  14.873  0.1255 -0.0644  0.3462
 2811DPPE   C3B55595   5.168  19.228  14.973  0.0706  0.0391 -0.0887
 2811DPPE   C4B55596   4.937  19.587  15.247 -0.1202 -0.3379  0.0359
 2812DPPE   NH355597   4.029  22.209  16.879 -0.1013  0.0150  0.1443
 2812DPPE   PO455598   4.489  22.222  16.908  0.5893 -0.0888  0.3371
 2812DPPE   GL155599   4.889  22.428  17.103 -0.1089  0.1726  0.3908
 2812DPPE   GL255600   5.001  22.784  17.162 -0.1334  0.0658 -0.0766
 2812DPPE   C1A55601   5.306  22.313  17.036  0.4002  0.0052 -0.0863
 2812DPPE   C2A55602   5.640  22.014  16.741  0.1955  0.0468  0.0802
 2812DPPE   C3A55603   5.800  21.703  16.663 -0.0518 -0.1173 -0.0136
 2812DPPE   C4A55604   6.013  21.321  16.806 -0.0123  0.2728 -0.1582
 2812DPPE   C1B55605   5.464  22.631  17.350  0.1591 -0.3499  0.0392
 2812DPPE   C2B55606   5.994  22.604  17.286  0.2139  0.1773  0.1291
 2812DPPE   C3B55607   6.319  22.751  16.934  0.1031 -0.1565 -0.0082
 2812DPPE   C4B55608   6.640  22.586  16.714  0.1854 -0.1870 -0.0137
 2813DPPE   NH355609   6.178  20.684  14.413 -0.5060 -0.0353 -0.0058
 2813DPPE   PO455610   6.446  21.055  14.311 -0.0978  0.2659 -0.0332
 2813DPPE   GL155611   6.508  20.829  14.756 -0.1750  0.2976  0.2204
 2813DPPE   GL255612   6.269  20.731  15.038 -0.1957 -0.0824  0.1594
 2813DPPE   C1A55613   6.724  20.483  14.974 -0.0201 -0.0017 -0.0403
 2813DPPE   C2A55614   6.751  20.247  15.395  0.2534  0.0584 -0.1743
 2813DPPE   C3A55615   6.513  20.199  15.817  0.1481 -0.0102  0.0627
 2813DPPE   C4A55616   6.351  20.566  15.708 -0.0998  0.0299 -0.2262
 2813DPPE   C1B55617   6.648  20.843  15.316  0.2477 -0.0509  0.1831
 2813DPPE   C2B55618   7.104  21.029  15.424 -0.0080 -0.0377 -0.1967
 2813DPPE   C3B55619   7.437  21.237  15.424  0.0042  0.1774  0.0333
 2813DPPE   C4B55620   7.733  21.156  15.156 -0.2655 -0.2258 -0.1607
 2814DPPE   NH355621   5.349  16.541  18.050  0.1768 -0.0489 -0.1273
 2814DPPE   PO455622   5.205  16.820  17.676  0.2314 -0.0286 -0.2191
 2814DPPE   GL155623   4.980  16.608  17.444 -0.0586  0.0359  0.3498
 2814DPPE   GL255624   5.181  16.374  17.357  0.0116  0.0540 -0.0810
 2814DPPE   C1A55625   4.539  16.636  17.310 -0.1091 -0.1382  0.0921
 2814DPPE   C2A55626   4.329  16.248  17.266 -0.0834  0.0652  0.3281
 2814DPPE   C3A55627   3.927  15.942  17.149  0.0865  0.1555  0.3114
 2814DPPE   C4A55628   3.614  15.489  17.125  0.1869  0.1188 -0.2626
 2814DPPE   C1B55629   4.891  16.306  17.053  0.0516 -0.1379 -0.1415
 2814DPPE   C2B55630   4.768  16.372  16.773  0.3646  0.3027 -0.2703
 2814DPPE   C3B55631   4.891  16.612  16.315 -0.2184  0.0835 -0.0852
 2814DPPE   C4B55632   4.808  16.916  16.047 -0.1635 -0.0174  0.0852
 2815DPPE   NH355633   6.344  20.464  17.802  0.0736  0.0694 -0.0182
 2815DPPE   PO455634   6.287  20.899  17.980  0.1122 -0.2581 -0.1343
 2815DPPE   GL155635   5.946  20.814  17.716 -0.1026  0.3907 -0.0543
 2815DPPE   GL255636   6.040  20.632  17.416 -0.0012  0.0457  0.2704
 2815DPPE   C1A55637   5.585  20.502  17.614  0.1292 -0.2094  0.0644
 2815DPPE   C2A55638   5.208  20.264  17.379  0.1395  0.0642  0.0203
 2815DPPE   C3A55639   4.998  20.014  16.994 -0.0115 -0.2159  0.1384
 2815DPPE   C4A55640   4.792  20.259  16.645 -0.0867  0.3628 -0.0293
 2815DPPE   C1B55641   5.682  20.636  17.041  0.0239 -0.2959 -0.2061
 2815DPPE   C2B55642   5.512  20.756  16.745 -0.2856  0.0756  0.2264
 2815DPPE   C3B55643   5.150  21.022  16.612  0.0210 -0.0085  0.2975
 2815DPPE   C4B55644   4.820  21.361  16.515  0.3212  0.0415  0.0120
 2816DPPE   NH355645   5.222  18.691  18.168 -0.3795 -0.0040 -0.1225
 2816DPPE   PO455646   5.306  18.356  18.402 -0.2986 -0.0081 -0.0445
 2816DPPE   GL155647   5.092  18.272  18.006 -0.3255 -0.1444  0.0156
 2816DPPE   GL255648   5.203  18.095  17.784 -0.1194 -0.0189 -0.3076
 2816DPPE   C1A55649   4.725  17.953  17.898  0.4341  0.0258  0.0293
 2816DPPE   C2A55650   4.442  17.930  17.545  0.0558  0.1058 -0.1515
 2816DPPE   C3A55651   4.538  18.109  17.129  0.0801  0.2264 -0.0655
 2816DPPE   C4A55652   4.783  18.151  16.847  0.4548 -0.3298  0.2167
 2816DPPE   C1B55653   4.767  18.319  17.535 -0.2543  0.2173  0.0935
 2816DPPE   C2B55654   4.547  18.608  17.240  0.0175  0.0018  0.2259
 2816DPPE   C3B55655   4.238  18.554  16.957  0.2737 -0.1246  0.1390
 2816DPPE   C4B55656   4.175  18.156  16.709 -0.2871  0.0610 -0.0353
 2817DPPE   NH355657   6.439  18.094  17.238 -0.0707 -0.0542 -0.0200
 2817DPPE   PO455658   5.971  18.242  17.295 -0.0378  0.2316 -0.2490
 2817DPPE   GL155659   5.760  18.489  16.983 -0.1588  0.1084  0.0730
 2817DPPE   GL255660   5.597  18.797  17.115  0.2237  0.2241 -0.0607
 2817DPPE   C1A55661   5.619  18.476  16.518  0.0028 -0.1173 -0.1197
 2817DPPE   C2A55662   5.547  18.557  16.090  0.0777  0.1502  0.2663
 2817DPPE   C3A55663   5.423  18.448  15.647 -0.0588  0.0656  0.3109
 2817DPPE   C4A55664   5.082  18.133  15.519 -0.3880 -0.1252 -0.1958
 2817DPPE   C1B55665   5.478  18.915  16.729  0.1761 -0.2255  0.1047
 2817DPPE   C2B55666   5.554  19.121  16.395  0.1018  0.1641  0.1208
 2817DPPE   C3B55667   5.555  19.482  16.197  0.0676 -0.1640 -0.1521
 2817DPPE   C4B55668   5.247  19.825  16.047  0.2163  0.0263  0.0489
 2818DPPE   NH355669   5.273  17.283  17.553  0.1693  0.2557  0.2344
 2818DPPE   PO455670   5.156  17.688  17.408  0.3416 -0.1628 -0.2244
 2818DPPE   GL155671   4.811  17.386  17.655  0.1990 -0.0102  0.3817
 2818DPPE   GL255672   4.735  17.053  17.603 -0.1240 -0.1578  0.0632
 2818DPPE   C1A55673   4.352  17.413  17.725  0.1065  0.0746  0.0257
 2818DPPE   C2A55674   3.906  17.286  17.920 -0.1021 -0.0193 -0.1396
 2818DPPE   C3A55675   3.611  16.955  18.033 -0.2273 -0.1273  0.0739
 2818DPPE   C4A55676   3.418  16.581  17.880  0.3206  0.0840 -0.3681
 2818DPPE   C1B55677   4.434  17.121  17.251 -0.0605  0.1367  0.0727
 2818DPPE   C2B55678   4.071  16.783  17.219 -0.1912  0.1914 -0.2693
 2818DPPE   C3B55679   3.768  16.386  17.123 -0.0721  0.1138  0.0678
 2818DPPE   C4B55680   3.793  16.272  16.747  0.3286 -0.1564  0.0689
 2819DPPE   NH355681   5.530  18.049  17.407  0.3880 -0.1053 -0.0996
 2819DPPE   PO455682   5.611  18.029  17.004 -0.0665 -0.2264  0.1745
 2819DPPE   GL155683   5.566  17.823  16.746  0.0986  0.2122  0.0594
 2819DPPE   GL255684   5.221  17.608  16.906 -0.0663  0.1715  0.0902
 2819DPPE   C1A55685   5.480  18.002  16.346 -0.2576 -0.1118 -0.1515
 2819DPPE   C2A55686   5.221  18.052  15.955  0.4871  0.0272  0.0075
 2819DPPE   C3A55687   4.798  18.236  15.889 -0.0794  0.2799  0.2006
 2819DPPE   C4A55688   4.227  18.180  15.852  0.0802 -0.0774 -0.2460
 2819DPPE   C1B55689   5.032  17.870  16.546  0.1375  0.0540  0.1115
 2819DPPE   C2B55690   5.100  18.313  16.401  0.2208 -0.0565  0.1262
 2819DPPE   C3B55691   4.992  18.597  16.137  0.0869  0.3855 -0.1681
 2819DPPE   C4B55692   5.004  18.715  15.717 -0.1624  0.0888  0.0881
 2820DPPE   NH355693   7.075  13.333  17.907 -0.2609 -0.1029 -0.2398
 2820DPPE   PO455694   6.640  13.359  17.836  0.1891  0.1996  0.2406
 2820DPPE   GL155695   6.428  13.197  17.544  0.1465 -0.3424 -0.3439
 2820DPPE   GL255696   6.335  12.950  17.627 -0.2204 -0.2020  0.1820
 2820DPPE   C1A55697   6.331  13.254  17.087  0.0909 -0.0486 -0.3069
 2820DPPE   C2A55698   6.164  13.189  16.715 -0.0370 -0.3122  0.0359
 2820DPPE   C3A55699   6.014  12.921  16.412 -0.1566 -0.0089 -0.2576
 2820DPPE   C4A55700   5.957  12.588  16.224 -0.0220 -0.3660 -0.1101
 2820DPPE   C1B55701   5.929  13.203  17.417  0.2665 -0.0187 -0.2014
 2820DPPE   C2B55702   5.772  13.210  17.084  0.3839  0.0083  0.5272
 2820DPPE   C3B55703   5.612  12.936  16.764 -0.2351  0.0778  0.0308
 2820DPPE   C4B55704   5.468  12.795  16.466 -0.0065  0.1388  0.0279
 2821DPPE   NH355705   6.600  21.562  18.420 -0.2396 -0.0707 -0.4407
 2821DPPE   PO455706   6.446  21.275  18.729  0.1327 -0.0802  0.1880
 2821DPPE   GL155707   6.146  21.368  18.398 -0.0785  0.0678 -0.0538
 2821DPPE   GL255708   6.258  21.375  18.060  0.0186  0.0807 -0.1100
 2821DPPE   C1A55709   5.748  21.500  18.111 -0.1844 -0.0868 -0.0352
 2821DPPE   C2A55710   5.266  21.467  18.102  0.1092 -0.0795 -0.0626
 2821DPPE   C3A55711   4.895  21.595  18.420  0.3314  0.0411  0.0085
 2821DPPE   C4A55712   4.579  21.531  18.725 -0.0608  0.2079 -0.1268
 2821DPPE   C1B55713   5.966  21.403  17.661  0.2874 -0.2254 -0.1106
 2821DPPE   C2B55714   5.818  21.078  17.358  0.3958 -0.0245 -0.4086
 2821DPPE   C3B55715   5.572  21.158  16.998 -0.0511  0.3767 -0.1685
 2821DPPE   C4B55716   5.358  21.440  16.774 -0.2488 -0.1320 -0.2315
 2822DPPE   NH355717   5.823  19.313  17.813  0.4434  0.1397 -0.0651
 2822DPPE   PO455718   6.143  19.046  17.664 -0.0495  0.0977 -0.0159
 2822DPPE   GL155719   5.889  19.227  17.316  0.1571  0.1319  0.0428
 2822DPPE   GL255720   5.533  19.220  17.418  0.3043  0.0662 -0.2050
 2822DPPE   C1A55721   5.720  19.361  16.938 -0.0307  0.1306  0.3157
 2822DPPE   C2A55722   5.238  19.390  16.926 -0.0816 -0.0070 -0.4065
 2822DPPE   C3A55723   4.858  19.531  16.886 -0.1253  0.1437 -0.1099
 2822DPPE   C4A55724   4.589  19.448  16.606  0.1165  0.0047 -0.1961
 2822DPPE   C1B55725   5.237  19.063  17.265 -0.0540  0.0683 -0.0428
 2822DPPE   C2B55726   4.885  18.937  17.092 -0.1810  0.2212 -0.2039
 2822DPPE   C3B55727   4.494  19.055  16.959 -0.0337 -0.0984  0.0671
 2822DPPE   C4B55728   4.100  18.930  17.314 -0.0174 -0.0851 -0.1434
 2823DPPE   NH355729   5.809  18.667  17.528  0.1022 -0.2048 -0.3865
 2823DPPE   PO455730   5.540  18.905  17.841 -0.4640  0.2929  0.2941
 2823DPPE   GL155731   5.276  19.173  17.952 -0.4968  0.1610 -0.1845
 2823DPPE   GL255732   4.883  19.037  18.062 -0.2459  0.0025 -0.0772
 2823DPPE   C1A55733   5.010  19.397  17.728  0.0860  0.2147 -0.2966
 2823DPPE   C2A55734   5.050  19.608  17.358  0.1444 -0.0808  0.1184
 2823DPPE   C3A55735   5.423  19.821  17.124 -0.0589 -0.2049  0.0462
 2823DPPE   C4A55736   5.701  20.140  17.252 -0.0675  0.0123  0.0563
 2823DPPE   C1B55737   4.572  18.666  18.000  0.1954  0.2270  0.0461
 2823DPPE   C2B55738   4.378  18.225  18.064 -0.1937  0.4365 -0.3298
 2823DPPE   C3B55739   4.159  17.882  18.047 -0.2697 -0.0466  0.1450
 2823DPPE   C4B55740   3.977  17.732  17.631 -0.0123 -0.1932 -0.4712
 2824DPPE   NH355741   5.914  15.217  17.389  0.0982 -0.0651  0.2897
 2824DPPE   PO455742   5.837  15.376  16.935  0.0260 -0.0236  0.2379
 2824DPPE   GL155743   5.498  15.289  16.702 -0.0107  0.1119  0.3961
 2824DPPE   GL255744   5.203  15.113  16.751 -0.0966  0.0403  0.0926
 2824DPPE   C1A55745   5.356  15.203  16.212  0.0130 -0.3478  0.0799
 2824DPPE   C2A55746   5.038  14.983  16.100 -0.0987 -0.0402  0.0548
 2824DPPE   C3A55747   5.136  14.680  15.878 -0.4281 -0.0641  0.0619
 2824DPPE   C4A55748   5.126  14.312  15.555 -0.0417 -0.0389  0.0305
 2824DPPE   C1B55749   4.806  15.132  17.063 -0.3921 -0.0731  0.2109
 2824DPPE   C2B55750   4.592  14.726  17.175 -0.1121 -0.3719  0.2385
 2824DPPE   C3B55751   4.592  14.355  17.148 -0.0172  0.0874 -0.0640
 2824DPPE   C4B55752   4.166  14.126  17.022 -0.1032  0.1521 -0.3458
 2825DPPE   NH355753   5.676  14.717  17.985  0.1587 -0.1646  0.1361
 2825DPPE   PO455754   5.860  15.111  17.899 -0.0729  0.0965 -0.0222
 2825DPPE   GL155755   5.390  15.154  17.759 -0.2261  0.0718 -0.0120
 2825DPPE   GL255756   5.122  15.193  17.985 -0.1837 -0.0437  0.0064
 2825DPPE   C1A55757   5.023  15.261  17.524  0.1927 -0.0233 -0.0858
 2825DPPE   C2A55758   4.552  15.270  17.514  0.0988 -0.1628  0.0400
 2825DPPE   C3A55759   4.200  14.958  17.698 -0.0856  0.0524 -0.1382
 2825DPPE   C4A55760   4.302  14.702  18.003 -0.0309 -0.0537  0.0476
 2825DPPE   C1B55761   5.013  14.802  17.816  0.2329  0.1320 -0.2760
 2825DPPE   C2B55762   4.692  14.543  17.668  0.1469 -0.1986 -0.1880
 2825DPPE   C3B55763   4.248  14.387  17.551 -0.5423  0.0331  0.2877
 2825DPPE   C4B55764   4.172  14.004  17.530 -0.0630  0.2558 -0.2335
 2826DPPE   NH355765   5.656  16.667  17.515 -0.1620  0.0340  0.1974
 2826DPPE   PO455766   5.550  16.347  17.643  0.0488 -0.3455 -0.2798
 2826DPPE   GL155767   5.151  16.146  17.749  0.1597 -0.0619 -0.1774
 2826DPPE   GL255768   5.214  15.754  17.853 -0.1036  0.0544 -0.0945
 2826DPPE   C1A55769   4.834  16.021  17.505  0.0582  0.3204 -0.0477
 2826DPPE   C2A55770   4.633  15.834  17.203  0.1773 -0.1834 -0.2913
 2826DPPE   C3A55771   4.512  15.505  16.927  0.0117 -0.0692  0.3459
 2826DPPE   C4A55772   4.311  15.123  17.058  0.2216  0.1822  0.0985
 2826DPPE   C1B55773   4.800  15.606  17.878  0.2008 -0.2202 -0.3086
 2826DPPE   C2B55774   4.401  15.562  17.940  0.1966 -0.2761 -0.2087
 2826DPPE   C3B55775   4.028  15.438  18.198  0.0373  0.1356  0.0256
 2826DPPE   C4B55776   3.528  15.480  18.187 -0.3025  0.2315 -0.1762
 2827DPPE   NH355777   6.230  17.397  17.197 -0.0125  0.3104 -0.0461
 2827DPPE   PO455778   6.085  17.713  17.403  0.1097 -0.2241  0.1725
 2827DPPE   GL155779   6.044  17.809  16.927  0.0731  0.3261 -0.0998
 2827DPPE   GL255780   6.145  18.072  16.823 -0.0142  0.3910 -0.0481
 2827DPPE   C1A55781   5.940  17.582  16.537  0.0093  0.2247 -0.0997
 2827DPPE   C2A55782   5.963  17.696  16.107  0.0172  0.0704  0.2301
 2827DPPE   C3A55783   6.098  17.763  15.662  0.0415  0.1162 -0.1336
 2827DPPE   C4A55784   6.129  17.605  15.246 -0.0237 -0.0252 -0.2613
 2827DPPE   C1B55785   5.996  18.088  16.384  0.0091 -0.1098 -0.0804
 2827DPPE   C2B55786   5.683  18.070  15.920 -0.0043 -0.2525  0.4330
 2827DPPE   C3B55787   5.749  18.004  15.443  0.3574  0.0055  0.1584
 2827DPPE   C4B55788   6.045  18.267  15.377 -0.1022 -0.3016 -0.0575
 2828DPPE   NH355789   5.471  15.981  17.323 -0.0240 -0.0813 -0.1065
 2828DPPE   PO455790   5.690  15.849  16.941  0.1652  0.1688  0.0520
 2828DPPE   GL155791   5.845  15.839  16.669  0.2429  0.0761 -0.3660
 2828DPPE   GL255792   6.190  15.780  16.773 -0.1814 -0.2912 -0.1678
 2828DPPE   C1A55793   5.653  15.946  16.280 -0.2031 -0.1348  0.2083
 2828DPPE   C2A55794   5.713  16.067  15.817  0.0244 -0.2946  0.0429
 2828DPPE   C3A55795   5.682  16.269  15.534 -0.2944  0.0077  0.1583
 2828DPPE   C4A55796   5.274  16.264  15.391 -0.2335 -0.1697  0.0503
 2828DPPE   C1B55797   6.152  15.792  16.268 -0.1050  0.3316  0.1273
 2828DPPE   C2B55798   6.147  15.673  15.867  0.6128 -0.1065  0.0959
 2828DPPE   C3B55799   5.985  15.814  15.454  0.0219  0.1563 -0.0630
 2828DPPE   C4B55800   6.168  16.021  15.081  0.1190 -0.0031  0.1499
 2829DPPE   NH355801   6.254  14.170  17.653  0.1342  0.2171 -0.1786
 2829DPPE   PO455802   6.605  13.910  17.828  0.5384 -0.4636 -0.0767
 2829DPPE   GL155803   6.214  13.655  17.593  0.3005 -0.1384 -0.4031
 2829DPPE   GL255804   6.072  13.478  17.833 -0.4442  0.0468  0.1989
 2829DPPE   C1A55805   5.829  13.658  17.350  0.0024  0.1951  0.2331
 2829DPPE   C2A55806   5.614  13.683  17.046  0.1425  0.1669 -0.2349
 2829DPPE   C3A55807   5.373  13.822  16.721  0.0149  0.2059  0.1287
 2829DPPE   C4A55808   4.961  13.606  16.510  0.1605 -0.5394  0.0567
 2829DPPE   C1B55809   6.005  13.119  18.066  0.1307 -0.4433 -0.3438
 2829DPPE   C2B55810   5.752  12.873  18.232 -0.2057  0.0171 -0.1632
 2829DPPE   C3B55811   5.394  12.659  18.332 -0.3218  0.0948  0.3300
 2829DPPE   C4B55812   5.269  12.150  18.137  0.0511 -0.1219 -0.0502
 2830DPPE   NH355813   5.678  17.537  17.114 -0.1266  0.0109  0.1131
 2830DPPE   PO455814   5.720  17.148  17.391 -0.0484 -0.1172  0.1565
 2830DPPE   GL155815   5.414  16.910  17.095  0.1063  0.2443 -0.2393
 2830DPPE   GL255816   5.052  17.094  17.111  0.1716 -0.0549  0.0760
 2830DPPE   C1A55817   5.174  16.697  16.794 -0.0869  0.2509 -0.0046
 2830DPPE   C2A55818   5.228  16.252  16.516 -0.0448  0.2534 -0.0260
 2830DPPE   C3A55819   5.274  16.206  16.051 -0.0876  0.1122  0.0157
 2830DPPE   C4A55820   5.190  15.897  15.699 -0.0973  0.0457 -0.1839
 2830DPPE   C1B55821   4.707  16.893  16.752  0.1254 -0.1102  0.3112
 2830DPPE   C2B55822   4.322  16.798  16.762  0.0979  0.0674 -0.0621
 2830DPPE   C3B55823   3.807  16.808  16.757  0.2436  0.1049 -0.0918
 2830DPPE   C4B55824   3.394  16.751  16.842  0.2015  0.0667  0.1126
 2831DPPE   NH355825   6.032  15.747  17.297  0.1947 -0.2203 -0.1821
 2831DPPE   PO455826   5.748  15.598  17.556 -0.1363 -0.2357  0.2509
 2831DPPE   GL155827   5.495  15.495  17.275 -0.0644  0.2859  0.0900
 2831DPPE   GL255828   5.458  15.190  17.247  0.0495 -0.0772 -0.3186
 2831DPPE   C1A55829   5.046  15.550  17.103  0.0581 -0.3135  0.2208
 2831DPPE   C2A55830   4.881  15.848  16.758  0.2903  0.0902  0.3063
 2831DPPE   C3A55831   4.770  16.134  16.364 -0.1203  0.3058  0.1856
 2831DPPE   C4A55832   4.508  16.358  16.074  0.0253 -0.1379  0.0761
 2831DPPE   C1B55833   5.130  14.775  17.345  0.2222 -0.2179 -0.2131
 2831DPPE   C2B55834   5.113  14.438  17.095 -0.0371 -0.0754  0.0776
 2831DPPE   C3B55835   5.195  14.056  17.065 -0.3535 -0.2445 -0.0936
 2831DPPE   C4B55836   4.987  13.624  17.022  0.1669  0.1207  0.0388
 2832DPPE   NH355837   6.362  20.878  18.449  0.0364  0.2548  0.2303
 2832DPPE   PO455838   6.165  20.425  18.264  0.1782  0.1111 -0.0999
 2832DPPE   GL155839   5.810  20.612  18.220  0.0380 -0.0524  0.1014
 2832DPPE   GL255840   5.860  20.863  18.276 -0.0040 -0.1462 -0.1828
 2832DPPE   C1A55841   5.390  20.644  18.222  0.3443 -0.2507 -0.1388
 2832DPPE   C2A55842   5.049  20.783  17.834  0.0476  0.1058 -0.0821
 2832DPPE   C3A55843   4.830  21.109  17.615 -0.1901  0.1332 -0.2080
 2832DPPE   C4A55844   4.413  21.268  17.584  0.1768  0.1568 -0.1948
 2832DPPE   C1B55845   5.553  21.055  18.030  0.2150 -0.0659  0.1959
 2832DPPE   C2B55846   5.380  21.156  17.672  0.1262 -0.3112 -0.0787
 2832DPPE   C3B55847   5.230  20.863  17.336 -0.4161 -0.0926  0.1304
 2832DPPE   C4B55848   5.090  20.601  16.960  0.0440  0.0974  0.0871
 2833DPPE   NH355849  13.463  24.745  17.752  0.0790  0.4695  0.1210
 2833DPPE   PO455850  13.831  24.617  17.441 -0.0020 -0.2320 -0.1162
 2833DPPE   GL155851  13.836  24.984  17.139 -0.0269  0.2452 -0.1510
 2833DPPE   GL255852  13.753  25.131  17.383  0.0912  0.1923  0.2608
 2833DPPE   C1A55853  14.132  25.199  16.883 -0.0500  0.0293 -0.2633
 2833DPPE   C2A55854  14.183  25.600  16.928 -0.3412 -0.1791  0.5265
 2833DPPE   C3A55855  13.994  25.962  17.077  0.2654  0.2918  0.1014
 2833DPPE   C4A55856  13.536  26.091  17.034  0.0792  0.0438 -0.3463
 2833DPPE   C1B55857  13.675  25.444  17.050 -0.0718  0.0712  0.1950
 2833DPPE   C2B55858  13.745  25.714  16.717 -0.0011 -0.3885  0.0198
 2833DPPE   C3B55859  13.848  26.186  16.607  0.0331 -0.1535  0.1110
 2833DPPE   C4B55860  14.077  26.603  16.511 -0.0543  0.2786 -0.4388
 2834DPPE   NH355861  15.575  18.037  12.240  0.0637  0.2555 -0.0578
 2834DPPE   PO455862  15.698  18.343  12.530  0.2443  0.0984 -0.1150
 2834DPPE   GL155863  15.710  18.244  13.019  0.3143  0.1844 -0.1252
 2834DPPE   GL255864  15.803  18.474  13.351  0.1618  0.2593 -0.0842
 2834DPPE   C1A55865  15.317  18.455  13.393 -0.0586  0.2620 -0.1440
 2834DPPE   C2A55866  15.023  18.275  13.683  0.0989  0.3614 -0.0277
 2834DPPE   C3A55867  14.891  17.936  13.934 -0.3819 -0.3045  0.0801
 2834DPPE   C4A55868  14.869  17.960  14.349 -0.0783  0.1182 -0.1884
 2834DPPE   C1B55869  15.656  18.453  13.806 -0.2845  0.3181  0.1448
 2834DPPE   C2B55870  15.763  18.066  14.090 -0.2067 -0.0391 -0.1405
 2834DPPE   C3B55871  15.718  17.940  14.451 -0.1426  0.0873 -0.3476
 2834DPPE   C4B55872  15.601  17.902  14.736  0.2416  0.0964 -0.4084
 2835DPPE   NH355873   9.431  13.753  13.396 -0.1623 -0.0164  0.0134
 2835DPPE   PO455874   9.706  13.975  13.084  0.1388 -0.0622  0.0204
 2835DPPE   GL155875   9.912  13.907  13.433 -0.3782  0.0722  0.0604
 2835DPPE   GL255876  10.048  13.608  13.548 -0.0216  0.2458  0.1642
 2835DPPE   C1A55877  10.289  14.102  13.611  0.0548  0.0200  0.3815
 2835DPPE   C2A55878  10.462  14.524  13.803  0.1514  0.1655 -0.0673
 2835DPPE   C3A55879  10.464  14.959  13.907 -0.0789  0.1157  0.2016
 2835DPPE   C4A55880  10.566  15.460  13.999 -0.2542  0.5421  0.1958
 2835DPPE   C1B55881  10.232  13.675  14.010  0.0975 -0.2653  0.1699
 2835DPPE   C2B55882  10.091  13.782  14.477 -0.1829 -0.0414  0.0720
 2835DPPE   C3B55883   9.931  14.074  14.903  0.0924  0.1915  0.0346
 2835DPPE   C4B55884   9.589  14.360  15.143 -0.0657 -0.0941 -0.0840
 2836DPPE   NH355885  20.476  22.717  15.266 -0.2100  0.2686  0.1856
 2836DPPE   PO455886  20.332  22.617  14.910  0.1862  0.3641 -0.0772
 2836DPPE   GL155887  20.254  22.335  15.153  0.1352  0.2025  0.1971
 2836DPPE   GL255888  20.434  22.086  15.232 -0.3635  0.0844 -0.2169
 2836DPPE   C1A55889  19.977  22.260  15.474 -0.1255  0.2789 -0.1032
 2836DPPE   C2A55890  19.770  22.355  15.770  0.2299 -0.3284  0.0335
 2836DPPE   C3A55891  19.508  22.312  16.138 -0.0490 -0.0323  0.1670
 2836DPPE   C4A55892  19.338  22.678  16.433 -0.3222  0.0797 -0.0361
 2836DPPE   C1B55893  20.404  22.230  15.689  0.0048  0.3464  0.0798
 2836DPPE   C2B55894  20.692  22.087  16.034 -0.0881 -0.1839 -0.2582
 2836DPPE   C3B55895  20.485  22.305  16.442  0.2351 -0.1605  0.1216
 2836DPPE   C4B55896  20.459  22.730  16.535 -0.1733 -0.0636  0.0986
 2837DPPE   NH355897  11.628   9.798  13.070  0.2165  0.0864 -0.0250
 2837DPPE   PO455898  11.479  10.139  13.191  0.3047 -0.0918 -0.2984
 2837DPPE   GL155899  11.813  10.039  13.479 -0.0070  0.2408  0.0832
 2837DPPE   GL255900  11.846   9.739  13.542  0.1297  0.0871  0.0123
 2837DPPE   C1A55901  12.208  10.132  13.676 -0.1390  0.0104 -0.1089
 2837DPPE   C2A55902  12.457  10.048  13.994  0.1452 -0.1759 -0.0834
 2837DPPE   C3A55903  12.435  10.053  14.440  0.2994  0.2118  0.1628
 2837DPPE   C4A55904  12.327  10.028  14.913 -0.0538 -0.1640 -0.1551
 2837DPPE   C1B55905  11.831   9.722  14.020  0.2142 -0.0298  0.0299
 2837DPPE   C2B55906  11.811   9.869  14.432  0.0199 -0.1298  0.0729
 2837DPPE   C3B55907  11.803   9.827  14.909  0.1870 -0.0084  0.1546
 2837DPPE   C4B55908  11.653   9.962  15.341  0.0318 -0.3098 -0.0779
 2838DPPE   NH355909  11.956   6.705  15.537  0.3282 -0.0052 -0.0240
 2838DPPE   PO455910  11.707   7.116  15.515  0.2823  0.0842  0.1909
 2838DPPE   GL155911  11.727   7.484  15.792  0.3171 -0.1049 -0.3663
 2838DPPE   GL255912  12.011   7.699  15.716 -0.3100  0.1502 -0.0238
 2838DPPE   C1A55913  11.631   7.638  16.124  0.0583  0.1927  0.0410
 2838DPPE   C2A55914  11.572   7.881  16.494 -0.2188  0.1394  0.2453
 2838DPPE   C3A55915  11.845   8.225  16.625  0.0411  0.1062 -0.0345
 2838DPPE   C4A55916  11.918   8.586  16.438  0.0757  0.2491  0.0064
 2838DPPE   C1B55917  12.185   7.801  16.104 -0.1049  0.0191 -0.1739
 2838DPPE   C2B55918  12.244   8.183  16.288 -0.1284 -0.2024  0.0144
 2838DPPE   C3B55919  12.409   8.606  16.206 -0.0095  0.2151 -0.1929
 2838DPPE   C4B55920  12.612   8.976  15.988  0.0643  0.1752  0.1996
 2839DPPE   NH355921  10.651  17.546  13.030 -0.0194  0.0585  0.1682
 2839DPPE   PO455922  10.685  17.003  12.944  0.3831 -0.0277  0.2816
 2839DPPE   GL155923  10.866  16.877  13.237 -0.1581 -0.3533 -0.1000
 2839DPPE   GL255924  10.954  17.244  13.317 -0.1109  0.1619 -0.2243
 2839DPPE   C1A55925  11.194  16.702  13.567  0.1247 -0.2552  0.1839
 2839DPPE   C2A55926  11.274  16.836  13.950 -0.0104 -0.2365 -0.1659
 2839DPPE   C3A55927  11.425  16.974  14.343 -0.0302 -0.3992 -0.0963
 2839DPPE   C4A55928  11.695  17.048  14.730 -0.1891  0.1755  0.5050
 2839DPPE   C1B55929  10.919  17.129  13.667  0.1394  0.0038 -0.0492
 2839DPPE   C2B55930  10.967  17.292  14.064 -0.1024  0.1181  0.0828
 2839DPPE   C3B55931  11.118  17.574  14.358 -0.2284  0.1942  0.0545
 2839DPPE   C4B55932  11.267  17.947  14.356 -0.0609 -0.2156  0.0168
 2840DPPE   NH355933  17.012  20.681  12.249 -0.0684  0.0826  0.0832
 2840DPPE   PO455934  17.391  20.720  12.528  0.0318  0.1214  0.0091
 2840DPPE   GL155935  17.617  20.782  12.819  0.0534 -0.4852 -0.2491
 2840DPPE   GL255936  17.930  20.578  12.868  0.1172 -0.1402  0.3059
 2840DPPE   C1A55937  17.425  20.487  13.183  0.0652  0.1922 -0.0827
 2840DPPE   C2A55938  17.499  20.230  13.430  0.1075  0.2173  0.0365
 2840DPPE   C3A55939  17.635  19.958  13.761 -0.0303  0.3076 -0.0926
 2840DPPE   C4A55940  17.534  19.968  14.219  0.0195  0.0987  0.1835
 2840DPPE   C1B55941  17.862  20.210  13.102  0.1129 -0.0198 -0.2771
 2840DPPE   C2B55942  17.825  19.745  13.198 -0.0161  0.0190 -0.2478
 2840DPPE   C3B55943  18.058  19.361  13.099  0.1600 -0.0450  0.0951
 2840DPPE   C4B55944  18.326  19.066  12.777  0.2867 -0.1180 -0.1533
 2841DPPE   NH355945  20.510  18.805  13.328  0.2875 -0.1690 -0.2744
 2841DPPE   PO455946  20.359  19.184  13.329 -0.0974 -0.1685 -0.1544
 2841DPPE   GL155947  20.069  19.057  13.617 -0.1196  0.1034  0.1751
 2841DPPE   GL255948  20.063  19.168  13.986 -0.1690 -0.1200  0.1912
 2841DPPE   C1A55949  19.666  18.864  13.733  0.1350  0.2543  0.2382
 2841DPPE   C2A55950  19.392  18.687  14.077  0.0918  0.1358 -0.3198
 2841DPPE   C3A55951  19.032  18.444  14.242  0.0597 -0.2473  0.0097
 2841DPPE   C4A55952  18.766  18.298  14.609 -0.2210 -0.1225  0.1888
 2841DPPE   C1B55953  19.640  19.091  14.214 -0.0662  0.0283 -0.1690
 2841DPPE   C2B55954  19.188  19.176  14.401  0.1652 -0.0105  0.1686
 2841DPPE   C3B55955  19.001  19.023  14.845  0.0640 -0.1620  0.1839
 2841DPPE   C4B55956  18.768  18.886  15.201  0.0919  0.0488  0.6159
 2842DPPE   NH355957  20.561   9.865  15.974  0.1443  0.1737 -0.0923
 2842DPPE   PO455958  20.277   9.520  16.041  0.3178  0.1716 -0.2167
 2842DPPE   GL155959  20.122   9.633  16.358 -0.1439 -0.0561 -0.2280
 2842DPPE   GL255960  19.817   9.448  16.499 -0.0971  0.1156 -0.0057
 2842DPPE   C1A55961  20.304   9.657  16.811 -0.2443  0.2050 -0.3115
 2842DPPE   C2A55962  20.225   9.994  17.126 -0.3620 -0.0248  0.4257
 2842DPPE   C3A55963  20.079  10.411  17.339 -0.2363  0.2319  0.1042
 2842DPPE   C4A55964  19.887  10.478  17.725  0.1224 -0.0149  0.1097
 2842DPPE   C1B55965  19.710   9.892  16.218 -0.0349 -0.3551  0.1001
 2842DPPE   C2B55966  19.913  10.345  16.252 -0.0425  0.3404  0.2362
 2842DPPE   C3B55967  19.980  10.786  16.370 -0.1406  0.0155 -0.0287
 2842DPPE   C4B55968  20.249  11.050  16.708  0.2522 -0.0891  0.1575
 2843DPPE   NH355969  11.247   6.158  18.297  0.3388 -0.3158  0.0119
 2843DPPE   PO455970  10.810   6.203  18.465  0.1972 -0.1743  0.1855
 2843DPPE   GL155971  10.989   6.610  18.338  0.2614  0.1287 -0.2340
 2843DPPE   GL255972  11.072   6.564  18.005  0.0116  0.0371  0.0687
 2843DPPE   C1A55973  11.364   6.941  18.228 -0.0740  0.0109 -0.0718
 2843DPPE   C2A55974  11.687   7.100  18.010  0.1436 -0.0342  0.0656
 2843DPPE   C3A55975  11.767   7.495  17.980  0.0781 -0.2917  0.0960
 2843DPPE   C4A55976  12.051   7.633  17.656 -0.1211  0.1040  0.0812
 2843DPPE   C1B55977  10.915   7.039  17.976  0.0378  0.0451 -0.1719
 2843DPPE   C2B55978  10.696   7.306  17.770 -0.2644 -0.0168  0.2471
 2843DPPE   C3B55979  10.455   7.526  17.625  0.1352 -0.0028 -0.3369
 2843DPPE   C4B55980  10.238   7.869  17.691 -0.0289  0.0017  0.3200
 2844DPPE   NH355981  17.440   9.944  13.143  0.0624  0.1683 -0.0937
 2844DPPE   PO455982  17.678   9.791  13.496  0.2193  0.0333 -0.3023
 2844DPPE   GL155983  17.579   9.914  13.924  0.1837 -0.0080  0.0629
 2844DPPE   GL255984  17.565   9.604  13.945  0.2062 -0.0639 -0.0688
 2844DPPE   C1A55985  17.518   9.828  14.372 -0.1166  0.0027  0.3657
 2844DPPE   C2A55986  17.238  10.011  14.681 -0.1277  0.3335 -0.1169
 2844DPPE   C3A55987  17.241  10.151  15.060  0.0576 -0.0160 -0.1739
 2844DPPE   C4A55988  17.443  10.404  15.272 -0.0531  0.3343 -0.0846
 2844DPPE   C1B55989  17.179   9.635  14.024  0.0566 -0.0221  0.0146
 2844DPPE   C2B55990  16.962   9.511  14.471  0.1041 -0.1812 -0.3281
 2844DPPE   C3B55991  16.919   9.232  14.681  0.0269 -0.1742 -0.0871
 2844DPPE   C4B55992  16.814   9.098  15.122  0.3434  0.0607  0.0145
 2845DPPE   NH355993   7.042  11.537  14.392  0.1658 -0.0269  0.0725
 2845DPPE   PO455994   7.596  11.453  14.213  0.1188  0.0353 -0.1739
 2845DPPE   GL155995   7.814  11.620  14.541  0.0270 -0.0240  0.0807
 2845DPPE   GL255996   7.975  11.436  14.556  0.0206  0.0676 -0.2732
 2845DPPE   C1A55997   7.957  11.627  15.031 -0.1333 -0.3516 -0.0215
 2845DPPE   C2A55998   7.784  11.846  15.442 -0.2810  0.1039  0.3843
 2845DPPE   C3A55999   7.702  12.081  15.907  0.0307 -0.0910 -0.1146
 2845DPPE   C4A56000   7.709  12.262  16.246  0.2140 -0.0790 -0.1570
 2845DPPE   C1B56001   7.997  11.143  14.935  0.0207 -0.0267 -0.1906
 2845DPPE   C2B56002   8.158  11.193  15.427 -0.0301  0.0393 -0.0525
 2845DPPE   C3B56003   8.303  11.041  15.810 -0.1162  0.0998 -0.2389
 2845DPPE   C4B56004   8.741  10.912  15.931 -0.3068 -0.4261 -0.1100
 2846DPPE   NH356005  18.089  15.361  12.786 -0.2351 -0.0291 -0.1363
 2846DPPE   PO456006  17.715  15.067  12.823 -0.1007 -0.3539  0.0374
 2846DPPE   GL156007  17.579  15.216  13.145  0.0525  0.2661 -0.0899
 2846DPPE   GL256008  17.800  15.522  13.205 -0.2951  0.1161 -0.1398
 2846DPPE   C1A56009  17.276  15.303  13.455 -0.0763 -0.0561 -0.4657
 2846DPPE   C2A56010  17.042  15.466  13.867 -0.1407 -0.1902  0.0248
 2846DPPE   C3A56011  16.751  15.765  13.946  0.0065  0.2461  0.2808
 2846DPPE   C4A56012  16.604  15.918  13.600  0.1599 -0.2304 -0.2134
 2846DPPE   C1B56013  17.737  15.739  13.553 -0.0174  0.2531  0.0923
 2846DPPE   C2B56014  17.533  16.020  13.893 -0.4296 -0.2983 -0.3634
 2846DPPE   C3B56015  17.111  16.028  14.144 -0.3033 -0.2192  0.0700
 2846DPPE   C4B56016  16.769  16.083  14.470  0.2251 -0.0405 -0.0115
 2847DPPE   NH356017  15.928  27.708  15.179 -0.1175 -0.2320  0.0278
 2847DPPE   PO456018  15.502  27.619  15.136 -0.1020 -0.0571  0.3708
 2847DPPE   GL156019  15.359  27.210  15.274  0.1697 -0.3502  0.1412
 2847DPPE   GL256020  15.434  27.090  15.675  0.2118 -0.1611 -0.3621
 2847DPPE   C1A56021  14.972  27.000  15.365 -0.0557  0.1050  0.0202
 2847DPPE   C2A56022  14.613  26.799  15.402  0.1580  0.2790  0.0140
 2847DPPE   C3A56023  14.270  26.614  15.146  0.1417 -0.1822 -0.0109
 2847DPPE   C4A56024  13.806  26.684  15.046 -0.2419  0.4217  0.0853
 2847DPPE   C1B56025  14.993  26.911  15.829 -0.1241 -0.1144  0.1121
 2847DPPE   C2B56026  14.595  26.597  15.902 -0.2813  0.0270  0.0505
 2847DPPE   C3B56027  14.176  26.708  15.933 -0.0780 -0.0548  0.1547
 2847DPPE   C4B56028  13.753  26.976  16.023 -0.0837 -0.1495  0.5116
 2848DPPE   NH356029  16.069   6.282  16.562  0.0528 -0.1313  0.4292
 2848DPPE   PO456030  16.357   6.433  16.196 -0.0045 -0.1922 -0.0828
 2848DPPE   GL156031  16.194   6.768  16.399  0.0149  0.2255 -0.0253
 2848DPPE   GL256032  15.921   6.735  16.689 -0.1146 -0.0592 -0.0969
 2848DPPE   C1A56033  15.912   7.125  16.348  0.1459 -0.1965  0.1853
 2848DPPE   C2A56034  15.623   7.510  16.410 -0.0639  0.0163  0.1785
 2848DPPE   C3A56035  15.499   7.878  16.461  0.1970  0.1478 -0.0061
 2848DPPE   C4A56036  15.276   8.197  16.289 -0.1265  0.3618  0.0286
 2848DPPE   C1B56037  15.535   6.900  16.347  0.2979  0.0178  0.1394
 2848DPPE   C2B56038  15.236   7.185  16.523  0.2905 -0.0817 -0.1702
 2848DPPE   C3B56039  14.985   7.066  16.922  0.2224 -0.1011 -0.2059
 2848DPPE   C4B56040  14.734   7.087  17.266  0.0493 -0.1276  0.0156
 2849DPPE   NH356041  13.143  27.799  19.644  0.2206 -0.1380  0.1681
 2849DPPE   PO456042  13.266  27.789  19.287  0.1813  0.1131 -0.0606
 2849DPPE   GL156043  13.229  27.375  19.339  0.1100  0.1744 -0.2755
 2849DPPE   GL256044  12.974  27.220  19.575 -0.1441  0.4899 -0.0546
 2849DPPE   C1A56045  13.186  27.037  19.069 -0.0450 -0.1783  0.0959
 2849DPPE   C2A56046  13.522  26.978  18.811 -0.0036  0.0873  0.0474
 2849DPPE   C3A56047  13.511  26.812  18.356 -0.1863 -0.4749 -0.1604
 2849DPPE   C4A56048  13.819  26.536  18.059  0.2146  0.2933 -0.0850
 2849DPPE   C1B56049  13.263  26.851  19.563  0.0638 -0.0466 -0.2428
 2849DPPE   C2B56050  13.420  26.597  19.230 -0.0599  0.3243 -0.0164
 2849DPPE   C3B56051  13.534  26.269  19.122 -0.0780  0.0074  0.4389
 2849DPPE   C4B56052  13.686  25.945  19.338  0.1070  0.1457  0.2866
 2850DPPE   NH356053  16.864  15.831  12.501 -0.3877  0.0885  0.1630
 2850DPPE   PO456054  17.316  15.690  12.333  0.1598 -0.0390 -0.0737
 2850DPPE   GL156055  17.188  15.330  12.673  0.0569  0.2128  0.0350
 2850DPPE   GL256056  17.116  15.554  12.869 -0.0684 -0.1575 -0.0069
 2850DPPE   C1A56057  17.090  15.121  13.055 -0.0311  0.2255  0.1307
 2850DPPE   C2A56058  16.893  14.984  13.521 -0.0773 -0.1264 -0.0899
 2850DPPE   C3A56059  16.713  15.095  13.916 -0.0400 -0.0612 -0.0261
 2850DPPE   C4A56060  16.598  15.280  14.292  0.1613 -0.0406 -0.0049
 2850DPPE   C1B56061  17.295  15.754  13.289 -0.4876 -0.1935  0.1922
 2850DPPE   C2B56062  17.194  15.822  13.603  0.0921  0.0084  0.2568
 2850DPPE   C3B56063  17.011  16.226  13.727  0.0800 -0.2408 -0.3272
 2850DPPE   C4B56064  16.743  16.501  13.853  0.1415 -0.0961  0.0188
 2851DPPE   NH356065  10.858   6.480  17.126 -0.0816 -0.1478 -0.0970
 2851DPPE   PO456066  10.468   6.564  16.789  0.2904 -0.2083 -0.0065
 2851DPPE   GL156067  10.326   6.873  17.095  0.1770  0.1159 -0.0587
 2851DPPE   GL256068  10.429   6.891  17.443 -0.0070 -0.2396 -0.1003
 2851DPPE   C1A56069  10.201   7.289  17.095  0.1573  0.1014 -0.3610
 2851DPPE   C2A56070  10.329   7.699  17.186  0.0068  0.1456 -0.1725
 2851DPPE   C3A56071  10.542   8.060  17.275 -0.0644 -0.0478 -0.1536
 2851DPPE   C4A56072  10.332   8.506  17.144 -0.0612  0.3667 -0.0772
 2851DPPE   C1B56073  10.266   7.080  17.813  0.2278  0.3105 -0.0274
 2851DPPE   C2B56074  10.291   7.481  18.066  0.0792 -0.0072  0.3156
 2851DPPE   C3B56075   9.936   7.723  18.037 -0.0349 -0.1209 -0.0808
 2851DPPE   C4B56076   9.540   7.560  17.964  0.2186 -0.3629 -0.3446
 2852DPPE   NH356077  15.695  26.741  14.532  0.1066  0.0208  0.2836
 2852DPPE   PO456078  15.421  27.139  14.402 -0.1744  0.0880 -0.2281
 2852DPPE   GL156079  15.244  26.793  14.778 -0.1394  0.1889 -0.0516
 2852DPPE   GL256080  15.165  26.494  14.638 -0.1756  0.2472  0.0353
 2852DPPE   C1A56081  14.896  26.555  15.028 -0.3272  0.0943  0.1603
 2852DPPE   C2A56082  14.601  26.252  15.016 -0.1528  0.0410 -0.1363
 2852DPPE   C3A56083  14.235  26.118  15.107 -0.0337 -0.1650  0.1579
 2852DPPE   C4A56084  14.196  25.611  15.259  0.1121 -0.5651  0.0305
 2852DPPE   C1B56085  14.739  26.218  14.543 -0.2288  0.0156 -0.0541
 2852DPPE   C2B56086  14.648  25.788  14.613  0.0271 -0.2655  0.0212
 2852DPPE   C3B56087  14.473  25.470  14.443 -0.3739 -0.1382 -0.5281
 2852DPPE   C4B56088  14.095  25.260  14.498 -0.2090  0.1238  0.1073
 2853DPPE   NH356089   8.781   7.124  16.664 -0.0873 -0.0183 -0.0730
 2853DPPE   PO456090   8.487   7.383  16.934 -0.0600 -0.1691  0.3638
 2853DPPE   GL156091   8.817   7.599  16.868  0.1758  0.1479  0.0068
 2853DPPE   GL256092   8.961   7.723  16.507  0.1189 -0.1143 -0.1890
 2853DPPE   C1A56093   9.079   7.669  17.212 -0.2569 -0.2658 -0.5856
 2853DPPE   C2A56094   9.398   7.844  17.122 -0.1208 -0.4824 -0.1479
 2853DPPE   C3A56095   9.448   7.881  16.697 -0.4166  0.0692  0.0746
 2853DPPE   C4A56096   9.645   7.616  16.286  0.0144  0.2636  0.3710
 2853DPPE   C1B56097   9.093   8.000  16.282 -0.3570 -0.3594 -0.1575
 2853DPPE   C2B56098   9.453   8.230  16.296  0.1094  0.0462 -0.2112
 2853DPPE   C3B56099   9.896   8.254  16.304  0.1387  0.1156 -0.0471
 2853DPPE   C4B56100  10.380   8.349  16.374  0.3998  0.0629 -0.2389
 2854DPPE   NH356101   7.708   7.724  17.772  0.2026 -0.0653  0.0262
 2854DPPE   PO456102   7.557   8.122  17.516  0.0903  0.0338  0.0899
 2854DPPE   GL156103   7.832   8.538  17.513  0.2461 -0.1340  0.0237
 2854DPPE   GL256104   7.562   8.877  17.391 -0.0534 -0.1164  0.0537
 2854DPPE   C1A56105   8.167   8.609  17.326  0.1859  0.1647 -0.0948
 2854DPPE   C2A56106   8.514   8.445  17.007  0.0046  0.1351 -0.0797
 2854DPPE   C3A56107   9.042   8.575  17.036  0.0329  0.1374 -0.2607
 2854DPPE   C4A56108   9.453   8.347  16.991 -0.0483  0.1310  0.2625
 2854DPPE   C1B56109   7.802   8.818  17.870  0.0636 -0.3697 -0.2863
 2854DPPE   C2B56110   7.952   8.636  18.308  0.2737 -0.4052 -0.2979
 2854DPPE   C3B56111   7.885   8.493  18.750 -0.0342  0.4460 -0.2421
 2854DPPE   C4B56112   7.701   8.772  19.178  0.0564  0.6060  0.2333
 2855DPPE   NH356113  19.837  10.759  14.552 -0.1582 -0.3697  0.1485
 2855DPPE   PO456114  19.437  10.549  14.367 -0.3363  0.2257  0.0456
 2855DPPE   GL156115  19.257  10.599  14.744  0.0816  0.2865 -0.1754
 2855DPPE   GL256116  19.025  10.442  14.953  0.5939  0.0954 -0.0899
 2855DPPE   C1A56117  19.196  10.949  15.053  0.1069  0.0227 -0.0551
 2855DPPE   C2A56118  19.074  11.011  15.346 -0.0051 -0.1932 -0.1643
 2855DPPE   C3A56119  18.817  11.187  15.720 -0.1735 -0.0482  0.0061
 2855DPPE   C4A56120  18.968  11.311  16.159 -0.1141  0.2341  0.0136
 2855DPPE   C1B56121  19.190  10.499  15.348 -0.1132  0.4586  0.1444
 2855DPPE   C2B56122  19.438  10.830  15.701 -0.0674  0.1934  0.2057
 2855DPPE   C3B56123  19.343  11.224  15.797 -0.1731  0.0536  0.2340
 2855DPPE   C4B56124  19.420  11.505  16.022  0.2430  0.1174  0.3089
 2856DPPE   NH356125  12.816  22.209  12.866 -0.1073 -0.2030  0.1058
 2856DPPE   PO456126  12.545  21.945  13.147  0.0048  0.2735 -0.1819
 2856DPPE   GL156127  12.882  21.727  13.271  0.1428  0.0172  0.2186
 2856DPPE   GL256128  13.197  21.797  13.228 -0.2651 -0.2936 -0.1207
 2856DPPE   C1A56129  13.030  21.643  13.696 -0.2284 -0.1293 -0.2812
 2856DPPE   C2A56130  13.228  21.398  13.991  0.0383  0.1202 -0.0298
 2856DPPE   C3A56131  13.519  21.177  14.287  0.2169 -0.3961 -0.1800
 2856DPPE   C4A56132  13.923  21.009  14.248 -0.1250 -0.1329  0.0672
 2856DPPE   C1B56133  13.475  21.484  13.444 -0.0769  0.0712  0.2694
 2856DPPE   C2B56134  13.568  21.167  13.777  0.0505  0.2450  0.0860
 2856DPPE   C3B56135  13.555  20.714  13.908  0.1948 -0.0923 -0.0208
 2856DPPE   C4B56136  13.429  20.586  14.343  0.1529 -0.2317 -0.3123
 2857DPPE   NH356137  19.383  16.727  12.788  0.1650  0.2186 -0.4560
 2857DPPE   PO456138  19.845  16.813  12.991 -0.0823  0.0776 -0.1314
 2857DPPE   GL156139  19.845  16.498  13.226  0.3324  0.0988  0.0162
 2857DPPE   GL256140  19.580  16.386  13.136  0.2519 -0.0037 -0.2187
 2857DPPE   C1A56141  19.788  16.695  13.631 -0.2024 -0.2992 -0.2217
 2857DPPE   C2A56142  19.920  16.809  14.034 -0.0141 -0.0266 -0.2096
 2857DPPE   C3A56143  19.659  16.684  14.411 -0.0680 -0.0605 -0.0731
 2857DPPE   C4A56144  19.495  16.836  14.865 -0.1796 -0.0818 -0.0145
 2857DPPE   C1B56145  19.418  16.157  13.584  0.0517 -0.0458 -0.0303
 2857DPPE   C2B56146  19.544  16.041  14.135  0.0681 -0.1471  0.1293
 2857DPPE   C3B56147  19.639  16.178  14.565 -0.1014 -0.0539  0.0336
 2857DPPE   C4B56148  19.522  16.323  15.024 -0.1772 -0.0253  0.2099
 2858DPPE   NH356149  20.827  21.163  14.916 -0.1268 -0.0835 -0.0598
 2858DPPE   PO456150  21.181  20.998  15.084 -0.1558 -0.0017 -0.2932
 2858DPPE   GL156151  20.951  20.735  15.266 -0.0935 -0.1506  0.4967
 2858DPPE   GL256152  20.622  20.970  15.362  0.1186 -0.0090 -0.0920
 2858DPPE   C1A56153  21.068  20.680  15.642 -0.0674  0.0957  0.3684
 2858DPPE   C2A56154  21.082  20.295  15.974 -0.0161  0.0756  0.0970
 2858DPPE   C3A56155  20.802  19.956  16.136  0.2534  0.0587  0.0325
 2858DPPE   C4A56156  20.534  19.738  16.086  0.2721 -0.3984 -0.0490
 2858DPPE   C1B56157  20.510  20.948  15.876 -0.1468 -0.1669  0.0752
 2858DPPE   C2B56158  20.340  20.978  16.299  0.2153 -0.0215  0.2762
 2858DPPE   C3B56159  20.052  20.795  16.535 -0.0590 -0.0752  0.0068
 2858DPPE   C4B56160  20.035  20.406  16.719 -0.1535  0.0263 -0.0153
 2859DPPE   NH356161  10.107  17.628  13.256  0.1091  0.0454  0.4466
 2859DPPE   PO456162  10.226  17.178  13.125 -0.2046  0.0804 -0.1780
 2859DPPE   GL156163  10.444  17.231  13.429 -0.1456 -0.0286  0.1658
 2859DPPE   GL256164  10.534  17.609  13.555 -0.2428 -0.3339  0.1205
 2859DPPE   C1A56165  10.438  17.051  13.817  0.1159  0.1298  0.0353
 2859DPPE   C2A56166  10.610  17.026  14.292 -0.2296  0.0326  0.0717
 2859DPPE   C3A56167  10.964  17.102  14.554  0.3391  0.1859  0.2371
 2859DPPE   C4A56168  11.172  17.213  14.809 -0.5862  0.0108  0.0699
 2859DPPE   C1B56169  10.509  17.496  14.029 -0.1127 -0.2869  0.0524
 2859DPPE   C2B56170  10.536  17.565  14.398  0.1253 -0.3475 -0.0874
 2859DPPE   C3B56171  10.593  17.450  14.792  0.1748 -0.0859 -0.0317
 2859DPPE   C4B56172  10.758  17.146  15.127 -0.3805 -0.2870  0.0935
 2860DPPE   NH356173  13.686  24.325  13.641  0.1641  0.1104  0.0981
 2860DPPE   PO456174  13.812  23.876  13.767 -0.1528 -0.1903  0.0266
 2860DPPE   GL156175  13.915  24.163  14.103 -0.4040 -0.0402  0.1270
 2860DPPE   GL256176  13.753  24.522  14.080  0.0255  0.2311 -0.1897
 2860DPPE   C1A56177  13.940  24.341  14.502 -0.0222  0.1024 -0.1900
 2860DPPE   C2A56178  13.608  24.504  14.751  0.6087  0.0997  0.1113
 2860DPPE   C3A56179  13.287  24.389  14.635 -0.0492  0.3009  0.3978
 2860DPPE   C4A56180  12.999  24.096  14.681 -0.0836  0.0854 -0.4721
 2860DPPE   C1B56181  13.669  24.792  14.317  0.1347 -0.1382  0.0615
 2860DPPE   C2B56182  13.547  25.128  14.566  0.0878  0.0161  0.3291
 2860DPPE   C3B56183  13.259  25.391  14.768 -0.0060  0.1763  0.2518
 2860DPPE   C4B56184  12.858  25.423  15.147  0.2889  0.1099  0.0109
 2861DPPE   NH356185   9.327  11.694  13.273 -0.1147 -0.3011  0.1642
 2861DPPE   PO456186   9.315  11.240  13.408 -0.0365  0.2523 -0.2307
 2861DPPE   GL156187   9.446  11.153  13.845 -0.3057 -0.3463 -0.2792
 2861DPPE   GL256188   9.316  11.417  13.970  0.0123  0.2319 -0.1308
 2861DPPE   C1A56189   9.602  11.149  14.243 -0.2629 -0.0487 -0.0410
 2861DPPE   C2A56190   9.392  11.043  14.682  0.1128 -0.1399 -0.3506
 2861DPPE   C3A56191   9.099  11.128  15.058 -0.1031  0.1099 -0.0676
 2861DPPE   C4A56192   8.752  11.096  15.363 -0.2867  0.1809  0.0487
 2861DPPE   C1B56193   9.572  11.740  14.254 -0.2558  0.1167  0.0926
 2861DPPE   C2B56194   9.837  11.832  14.525 -0.1789  0.2314  0.0736
 2861DPPE   C3B56195   9.955  11.814  14.940 -0.2615 -0.2225  0.1026
 2861DPPE   C4B56196  10.208  11.821  15.200 -0.0309  0.0198 -0.2312
 2862DPPE   NH356197  19.906  23.539  15.134  0.3167 -0.0115  0.2703
 2862DPPE   PO456198  20.198  23.168  15.156  0.2260  0.0562  0.2671
 2862DPPE   GL156199  20.015  22.889  15.325  0.0628 -0.2945 -0.0878
 2862DPPE   GL256200  19.877  22.652  15.055 -0.1487 -0.0302 -0.1505
 2862DPPE   C1A56201  19.967  22.776  15.657 -0.1429 -0.1783  0.0510
 2862DPPE   C2A56202  19.476  22.769  15.793  0.0707  0.1304 -0.0987
 2862DPPE   C3A56203  19.100  22.628  15.961 -0.0745  0.3128 -0.0166
 2862DPPE   C4A56204  18.967  22.441  16.250  0.2729  0.2157 -0.0049
 2862DPPE   C1B56205  19.590  22.469  15.307 -0.0990 -0.1672  0.0515
 2862DPPE   C2B56206  19.178  22.438  15.037 -0.0300 -0.0922 -0.1293
 2862DPPE   C3B56207  18.741  22.425  15.317  0.0853 -0.1403  0.0522
 2862DPPE   C4B56208  18.314  22.540  15.477  0.3016 -0.0837  0.1224
 2863DPPE   NH356209  21.786  10.668  16.111 -0.2383  0.0601 -0.0312
 2863DPPE   PO456210  21.542  10.244  16.272  0.2446 -0.0038  0.1660
 2863DPPE   GL156211  21.310  10.581  15.966  0.2419 -0.0184  0.0610
 2863DPPE   GL256212  20.973  10.582  15.909  0.2788 -0.2711  0.1586
 2863DPPE   C1A56213  21.231  10.990  16.123 -0.0409 -0.0331  0.1586
 2863DPPE   C2A56214  21.408  11.208  16.425 -0.1062  0.1877 -0.0733
 2863DPPE   C3A56215  21.257  11.737  16.461  0.0702 -0.0466  0.5603
 2863DPPE   C4A56216  20.846  11.905  16.320  0.1648 -0.2441  0.1067
 2863DPPE   C1B56217  20.710  10.482  16.323  0.0275 -0.3215 -0.1302
 2863DPPE   C2B56218  20.593  10.712  16.667 -0.0915  0.2371 -0.2703
 2863DPPE   C3B56219  20.761  11.042  16.935 -0.1779 -0.0526  0.0996
 2863DPPE   C4B56220  20.987  10.963  17.255 -0.0401  0.2787  0.0265
 2864DPPE   NH356221  20.444  10.365  15.160  0.0042 -0.3436 -0.0106
 2864DPPE   PO456222  20.348  10.106  15.498 -0.0640 -0.0074 -0.0739
 2864DPPE   GL156223  20.009  10.387  15.513  0.1156 -0.2369 -0.1365
 2864DPPE   GL256224  20.146  10.696  15.396  0.1181  0.1119  0.1924
 2864DPPE   C1A56225  19.890  10.672  15.784 -0.0458  0.1719 -0.2373
 2864DPPE   C2A56226  19.806  11.081  15.934  0.0477 -0.2722  0.1440
 2864DPPE   C3A56227  19.605  11.201  16.330 -0.0001  0.1618 -0.0185
 2864DPPE   C4A56228  19.376  11.416  16.656  0.0829 -0.4016 -0.0553
 2864DPPE   C1B56229  20.337  11.040  15.700  0.0067 -0.0264  0.2422
 2864DPPE   C2B56230  20.710  11.179  15.869  0.2923 -0.1695 -0.3088
 2864DPPE   C3B56231  21.012  11.478  16.132 -0.4934 -0.0411 -0.2525
 2864DPPE   C4B56232  21.183  11.910  15.960 -0.1308  0.2638  0.0133
 2865DPPE   NH356233   6.673  20.661  14.098  0.0540 -0.0119 -0.4570
 2865DPPE   PO456234   6.477  20.296  14.146 -0.1695  0.2173  0.0235
 2865DPPE   GL156235   6.565  20.017  14.601 -0.1577  0.3344  0.3052
 2865DPPE   GL256236   6.838  19.930  14.540 -0.1617 -0.0166 -0.0634
 2865DPPE   C1A56237   6.585  19.556  14.862  0.0456  0.0452  0.0361
 2865DPPE   C2A56238   6.284  19.199  15.073  0.1024  0.1912  0.0256
 2865DPPE   C3A56239   6.421  18.849  15.077 -0.1749  0.1202 -0.1074
 2865DPPE   C4A56240   6.505  18.385  15.169 -0.0512 -0.3796 -0.0352
 2865DPPE   C1B56241   6.872  19.961  15.009  0.0698  0.0052  0.3268
 2865DPPE   C2B56242   7.216  20.048  15.184 -0.1770 -0.1533  0.0429
 2865DPPE   C3B56243   7.745  20.077  15.127  0.0162  0.2022 -0.0750
 2865DPPE   C4B56244   8.281  19.997  15.320 -0.0909  0.3482 -0.2064
 2866DPPE   NH356245  20.227  19.507  13.655  0.0908  0.0095 -0.0607
 2866DPPE   PO456246  20.530  19.774  13.610  0.0274  0.0100 -0.2961
 2866DPPE   GL156247  20.231  19.868  14.036 -0.0292 -0.0721  0.3476
 2866DPPE   GL256248  20.223  19.596  14.242  0.0236 -0.2393 -0.0882
 2866DPPE   C1A56249  20.015  20.009  14.372  0.1696 -0.0576  0.1368
 2866DPPE   C2A56250  19.847  19.832  14.735  0.1031  0.0947 -0.5841
 2866DPPE   C3A56251  19.809  20.154  15.046 -0.0972  0.0513 -0.0255
 2866DPPE   C4A56252  19.628  20.505  15.348 -0.1549 -0.1394  0.1357
 2866DPPE   C1B56253  19.847  19.455  14.494  0.1799  0.0556 -0.1420
 2866DPPE   C2B56254  19.553  19.224  14.817 -0.3902  0.3556 -0.1713
 2866DPPE   C3B56255  19.440  18.810  15.034 -0.2357  0.0007 -0.3260
 2866DPPE   C4B56256  19.582  18.474  15.050  0.1208  0.1202 -0.0617
 2867DPPE   NH356257  20.303  20.937  14.257  0.0400 -0.2586 -0.1830
 2867DPPE   PO456258  20.590  21.230  14.458 -0.0268  0.1492  0.1311
 2867DPPE   GL156259  20.223  21.210  14.805 -0.1780  0.2036 -0.2633
 2867DPPE   GL256260  20.349  20.925  14.865 -0.1052 -0.0749 -0.2972
 2867DPPE   C1A56261  19.858  21.261  15.092  0.0362  0.4405  0.0448
 2867DPPE   C2A56262  19.417  21.081  14.981  0.2278  0.0511 -0.0104
 2867DPPE   C3A56263  19.216  20.909  14.675  0.3609 -0.1889 -0.1234
 2867DPPE   C4A56264  19.045  20.482  14.413 -0.1008 -0.2583 -0.1174
 2867DPPE   C1B56265  20.080  20.871  15.219 -0.3021 -0.5277  0.0797
 2867DPPE   C2B56266  20.081  20.673  15.622  0.4349 -0.1156 -0.0813
 2867DPPE   C3B56267  20.151  20.528  16.084  0.2765  0.0168 -0.3701
 2867DPPE   C4B56268  20.359  20.161  16.355  0.1272 -0.0870 -0.1778
 2868DPPE   NH356269   7.269  10.122  14.741  0.1713  0.1315  0.3293
 2868DPPE   PO456270   6.891  10.339  14.924  0.4579  0.1415 -0.0755
 2868DPPE   GL156271   7.115  10.548  15.197 -0.2678 -0.2120 -0.2182
 2868DPPE   GL256272   7.485  10.386  15.215  0.1494  0.5433 -0.2191
 2868DPPE   C1A56273   6.916  10.720  15.607  0.0846  0.1478 -0.0891
 2868DPPE   C2A56274   7.185  11.010  15.823  0.0564  0.2997  0.1329
 2868DPPE   C3A56275   7.514  11.128  16.116  0.6207 -0.2463 -0.1433
 2868DPPE   C4A56276   7.905  11.107  16.335  0.3526  0.1833  0.0973
 2868DPPE   C1B56277   7.412  10.523  15.578 -0.0003  0.1637  0.3024
 2868DPPE   C2B56278   7.187  10.560  16.035 -0.3078 -0.0516  0.2332
 2868DPPE   C3B56279   6.784  10.718  16.147  0.0975  0.0331 -0.2533
 2868DPPE   C4B56280   6.296  10.796  16.186 -0.3269 -0.2895 -0.2590
 2869DPPE   NH356281  20.526  12.222  14.328 -0.2170  0.2045  0.1038
 2869DPPE   PO456282  20.336  11.768  14.197 -0.0339  0.1081  0.1817
 2869DPPE   GL156283  20.252  11.949  14.658  0.1170 -0.0881  0.2290
 2869DPPE   GL256284  19.924  11.810  14.513  0.2306 -0.1415 -0.1858
 2869DPPE   C1A56285  20.280  12.454  14.853 -0.0812  0.5986  0.0817
 2869DPPE   C2A56286  20.138  12.822  14.916  0.1378 -0.1734 -0.0544
 2869DPPE   C3A56287  20.339  13.211  14.915 -0.0499 -0.0492 -0.1086
 2869DPPE   C4A56288  20.414  13.580  14.910  0.2407  0.0338  0.0429
 2869DPPE   C1B56289  19.879  12.331  14.618 -0.0359  0.3436  0.0108
 2869DPPE   C2B56290  19.773  12.809  14.564  0.0419 -0.2599 -0.3370
 2869DPPE   C3B56291  19.798  13.179  14.951 -0.0205 -0.3262 -0.2801
 2869DPPE   C4B56292  19.954  13.143  15.258 -0.2143 -0.3466 -0.3033
 2870DPPE   NH356293  15.637   8.981  13.688  0.0679  0.0614  0.1453
 2870DPPE   PO456294  15.663   8.744  13.970  0.2031  0.1564  0.0886
 2870DPPE   GL156295  15.447   9.158  14.099  0.2879 -0.0989  0.1203
 2870DPPE   GL256296  15.736   9.336  14.080 -0.2205 -0.0400  0.0572
 2870DPPE   C1A56297  15.160   9.428  14.206 -0.2606 -0.1131 -0.2077
 2870DPPE   C2A56298  14.785   9.621  14.370  0.0181 -0.2440 -0.2471
 2870DPPE   C3A56299  14.502   9.239  14.394  0.0084 -0.3564  0.2212
 2870DPPE   C4A56300  14.129   9.384  14.402 -0.1150 -0.0391  0.3568
 2870DPPE   C1B56301  15.680   9.728  14.160  0.2556 -0.1708 -0.0776
 2870DPPE   C2B56302  15.717  10.013  14.450 -0.2697  0.3925 -0.0533
 2870DPPE   C3B56303  15.805  10.436  14.570 -0.1711 -0.0165 -0.1158
 2870DPPE   C4B56304  16.119  10.656  14.679  0.1871 -0.0943 -0.3313
 2871DPPE   NH356305  11.386  18.723  12.925  0.3526 -0.2520 -0.4623
 2871DPPE   PO456306  10.939  18.855  12.837  0.0049 -0.2906  0.1485
 2871DPPE   GL156307  11.080  18.920  13.278  0.1939 -0.0174 -0.1013
 2871DPPE   GL256308  11.112  18.667  13.358  0.3126  0.0037 -0.1530
 2871DPPE   C1A56309  11.214  18.992  13.752 -0.0173  0.1614 -0.2293
 2871DPPE   C2A56310  11.519  18.938  14.094  0.3455 -0.2424 -0.0714
 2871DPPE   C3A56311  11.668  18.830  14.562  0.0303 -0.0351  0.2132
 2871DPPE   C4A56312  12.070  18.912  14.897  0.0338  0.0315 -0.1431
 2871DPPE   C1B56313  11.256  18.406  13.756 -0.0219  0.0448 -0.0575
 2871DPPE   C2B56314  11.419  18.463  14.119 -0.1388  0.3202 -0.3636
 2871DPPE   C3B56315  11.427  18.418  14.518  0.2383 -0.2117 -0.0073
 2871DPPE   C4B56316  11.261  18.201  14.922 -0.1177 -0.1044  0.0195
 2872DPPE   NH356317  18.351  21.957  12.715  0.1946  0.3397 -0.4487
 2872DPPE   PO456318  17.982  22.075  12.838 -0.4030 -0.0977 -0.0764
 2872DPPE   GL156319  18.046  22.303  13.227  0.0849 -0.1602  0.2870
 2872DPPE   GL256320  18.355  22.545  13.336 -0.0692 -0.3733 -0.2675
 2872DPPE   C1A56321  17.704  22.420  13.495 -0.1455  0.3803  0.0735
 2872DPPE   C2A56322  17.673  22.574  13.963  0.1370  0.1977  0.0542
 2872DPPE   C3A56323  17.765  22.480  14.387  0.1326 -0.2197 -0.2326
 2872DPPE   C4A56324  18.026  22.688  14.629  0.2376  0.0082  0.0740
 2872DPPE   C1B56325  18.149  22.617  13.746  0.2629 -0.0988 -0.0666
 2872DPPE   C2B56326  18.076  22.856  14.032  0.3946 -0.3168 -0.1759
 2872DPPE   C3B56327  17.892  23.107  14.354  0.3192  0.1152  0.0492
 2872DPPE   C4B56328  17.859  23.360  14.840 -0.6670  0.2754 -0.1598
 2873DPPE   NH356329   9.422   9.805  14.013  0.3220 -0.2831 -0.0546
 2873DPPE   PO456330   9.752   9.494  14.105  0.0131  0.0806 -0.0091
 2873DPPE   GL156331   9.686   9.796  14.459  0.0528 -0.2207  0.1391
 2873DPPE   GL256332   9.447   9.975  14.486 -0.2198 -0.0060 -0.0657
 2873DPPE   C1A56333   9.997   9.660  14.800 -0.4130  0.0210 -0.1270
 2873DPPE   C2A56334  10.375   9.989  14.941  0.1416  0.1444 -0.1688
 2873DPPE   C3A56335  10.735   9.995  15.070  0.0634  0.0825  0.1885
 2873DPPE   C4A56336  10.948  10.331  15.320  0.3399 -0.2487  0.1134
 2873DPPE   C1B56337   9.737  10.256  14.695  0.0506  0.1490  0.0880
 2873DPPE   C2B56338   9.766  10.629  14.985  0.1591 -0.2790 -0.3357
 2873DPPE   C3B56339   9.988  10.917  15.048 -0.1345  0.0066  0.0457
 2873DPPE   C4B56340  10.005  11.390  15.230  0.4062 -0.0912  0.0225
 2874DPPE   NH356341   9.233  15.111  13.120  0.5262 -0.0945  0.1396
 2874DPPE   PO456342   9.215  15.173  13.543 -0.0559 -0.0397 -0.0685
 2874DPPE   GL156343   9.236  15.299  14.013 -0.0183 -0.2853 -0.0985
 2874DPPE   GL256344   9.309  15.054  14.193  0.1460  0.1437 -0.3955
 2874DPPE   C1A56345   9.253  15.565  14.289  0.3069 -0.0375 -0.0413
 2874DPPE   C2A56346   9.453  15.427  14.713 -0.0586  0.2145 -0.1104
 2874DPPE   C3A56347   9.534  15.464  15.067  0.0745 -0.1681 -0.1972
 2874DPPE   C4A56348   9.265  15.611  15.401 -0.0453  0.2332 -0.1136
 2874DPPE   C1B56349   9.298  14.869  14.499 -0.0689  0.0389  0.2012
 2874DPPE   C2B56350   9.386  14.562  14.738  0.0994  0.0652 -0.0900
 2874DPPE   C3B56351   9.465  14.144  14.733  0.0886  0.0365  0.1143
 2874DPPE   C4B56352   9.620  13.699  14.604 -0.2908 -0.0894  0.2816
 2875DPPE   NH356353   9.373  18.913  13.432  0.3781  0.0211 -0.0035
 2875DPPE   PO456354   9.613  18.521  13.207 -0.0088  0.0454  0.2834
 2875DPPE   GL156355   9.973  18.544  13.579 -0.2751 -0.2665 -0.0027
 2875DPPE   GL256356  10.171  18.674  13.590 -0.1601  0.3140  0.1570
 2875DPPE   C1A56357  10.019  18.377  14.021 -0.1461 -0.1854 -0.2548
 2875DPPE   C2A56358  10.245  18.378  14.339  0.0617 -0.1351 -0.0302
 2875DPPE   C3A56359  10.360  18.463  14.795  0.0053 -0.1971  0.2758
 2875DPPE   C4A56360  10.163  18.375  15.160 -0.0894 -0.1808 -0.0895
 2875DPPE   C1B56361  10.117  18.895  14.054  0.0372  0.0269 -0.1325
 2875DPPE   C2B56362  10.024  18.878  14.496 -0.1141 -0.0191 -0.2136
 2875DPPE   C3B56363  10.133  18.868  14.911  0.1072 -0.2643  0.1832
 2875DPPE   C4B56364  10.006  18.879  15.292  0.0584  0.2274 -0.3468
 2876DPPE   NH356365  15.411  13.042  13.062  0.0789 -0.1477 -0.0451
 2876DPPE   PO456366  15.254  12.697  12.796 -0.4194 -0.1632 -0.1472
 2876DPPE   GL156367  15.208  12.389  13.192  0.0617 -0.1022  0.0723
 2876DPPE   GL256368  15.378  12.056  13.123  0.3321  0.2765 -0.0196
 2876DPPE   C1A56369  15.060  12.463  13.613  0.0454  0.2287 -0.1095
 2876DPPE   C2A56370  15.030  12.380  14.023 -0.0910  0.0619 -0.0632
 2876DPPE   C3A56371  15.340  12.259  14.335  0.1434  0.2634 -0.0760
 2876DPPE   C4A56372  15.603  11.882  14.600 -0.0040  0.2329  0.0034
 2876DPPE   C1B56373  15.553  12.205  13.541 -0.0821 -0.1407  0.0042
 2876DPPE   C2B56374  15.528  12.417  13.929 -0.0617  0.0771 -0.1448
 2876DPPE   C3B56375  15.340  12.753  14.192  0.0303  0.2340 -0.2443
 2876DPPE   C4B56376  15.274  12.748  14.634 -0.0112  0.0046 -0.2271
 2877DPPE   NH356377  17.491  22.261  12.914 -0.0583 -0.2918  0.0283
 2877DPPE   PO456378  17.048  22.521  12.874 -0.0621 -0.0127  0.0629
 2877DPPE   GL156379  17.104  22.357  13.282  0.1912  0.0693  0.0130
 2877DPPE   GL256380  16.786  22.271  13.276 -0.2574 -0.1493 -0.1017
 2877DPPE   C1A56381  17.045  21.908  13.455  0.0268 -0.0876 -0.1748
 2877DPPE   C2A56382  17.060  21.656  13.867  0.0280 -0.2685 -0.0760
 2877DPPE   C3A56383  16.998  21.512  14.318 -0.1168 -0.2849  0.0826
 2877DPPE   C4A56384  17.051  21.133  14.464 -0.2239  0.1430 -0.0683
 2877DPPE   C1B56385  16.726  22.312  13.745  0.1687 -0.1644  0.4719
 2877DPPE   C2B56386  16.490  22.194  14.146  0.0245 -0.3282  0.2905
 2877DPPE   C3B56387  16.178  22.089  14.442  0.2074 -0.1193 -0.4034
 2877DPPE   C4B56388  15.703  21.863  14.627  0.0907  0.1287 -0.0929
 2878DPPE   NH356389  18.700  20.189  12.576 -0.1771  0.0277  0.1377
 2878DPPE   PO456390  18.395  20.610  12.594 -0.1910  0.4193  0.1515
 2878DPPE   GL156391  18.477  20.712  12.992 -0.1048  0.2482  0.1254
 2878DPPE   GL256392  18.736  21.002  12.971 -0.0584 -0.0612  0.2077
 2878DPPE   C1A56393  18.475  20.855  13.466  0.5344  0.1736 -0.1034
 2878DPPE   C2A56394  18.152  20.771  13.797 -0.0549  0.0423 -0.0633
 2878DPPE   C3A56395  17.888  20.533  14.104 -0.0010  0.1691  0.0050
 2878DPPE   C4A56396  17.658  20.377  14.498  0.3739  0.0044  0.0488
 2878DPPE   C1B56397  19.044  20.955  13.208 -0.1285 -0.2264 -0.1025
 2878DPPE   C2B56398  19.374  20.868  13.523  0.1538  0.6123 -0.5264
 2878DPPE   C3B56399  19.471  21.156  13.872 -0.0788 -0.1425 -0.1598
 2878DPPE   C4B56400  19.286  21.231  14.209  0.1761 -0.0274  0.0768
 2879DPPE   NH356401  14.719   6.899  15.140  0.0016  0.3081 -0.1566
 2879DPPE   PO456402  15.228   6.985  15.148 -0.2006  0.1234  0.2542
 2879DPPE   GL156403  15.130   7.394  15.114  0.0161 -0.0952 -0.1900
 2879DPPE   GL256404  14.848   7.398  15.142 -0.5408 -0.1959  0.0895
 2879DPPE   C1A56405  15.113   7.867  15.011 -0.0108  0.1339 -0.0628
 2879DPPE   C2A56406  15.047   8.210  15.065 -0.1332  0.0272 -0.4345
 2879DPPE   C3A56407  15.000   8.716  15.081  0.0739 -0.1334 -0.0343
 2879DPPE   C4A56408  14.716   8.928  15.437  0.4917 -0.0587 -0.1074
 2879DPPE   C1B56409  14.537   7.484  15.534  0.1094 -0.0974  0.3597
 2879DPPE   C2B56410  14.308   7.722  15.846 -0.0001  0.3946  0.1475
 2879DPPE   C3B56411  14.260   8.129  15.795 -0.1251 -0.2537  0.2492
 2879DPPE   C4B56412  14.147   8.393  16.154 -0.1077 -0.0680  0.2305
 2880DPPE   NH356413  20.228  20.873  13.683  0.0811  0.0629  0.0392
 2880DPPE   PO456414  20.122  21.301  13.810  0.3461 -0.1424 -0.3270
 2880DPPE   GL156415  19.924  21.236  14.064 -0.0892 -0.1457 -0.0273
 2880DPPE   GL256416  19.870  20.877  14.011  0.0565 -0.0699 -0.2673
 2880DPPE   C1A56417  19.720  21.176  14.490  0.4534  0.1577 -0.0212
 2880DPPE   C2A56418  19.246  21.416  14.688 -0.0788  0.1310  0.0977
 2880DPPE   C3A56419  18.865  21.257  14.822 -0.0116  0.3061 -0.0904
 2880DPPE   C4A56420  18.469  21.280  14.747 -0.0186 -0.0357  0.3746
 2880DPPE   C1B56421  19.458  20.731  14.178 -0.0324 -0.0655  0.1352
 2880DPPE   C2B56422  19.035  20.778  14.045  0.1991 -0.1242  0.0391
 2880DPPE   C3B56423  18.576  20.644  14.030 -0.1449 -0.0314  0.1388
 2880DPPE   C4B56424  18.445  20.259  14.340 -0.3550  0.0619  0.3650
 2881DPPE   NH356425  11.644  21.858  13.052  0.1702  0.2053 -0.0055
 2881DPPE   PO456426  11.257  22.063  13.249 -0.3118  0.1456  0.0069
 2881DPPE   GL156427  11.335  22.047  13.609  0.1704  0.0601 -0.0188
 2881DPPE   GL256428  11.168  22.385  13.777  0.0658  0.1009 -0.0444
 2881DPPE   C1A56429  11.344  21.728  13.914 -0.0345  0.2157 -0.2280
 2881DPPE   C2A56430  11.493  21.683  14.311 -0.0946  0.0798  0.3173
 2881DPPE   C3A56431  11.663  21.572  14.772  0.2103  0.0717 -0.2516
 2881DPPE   C4A56432  11.727  21.436  15.171 -0.2204 -0.1766  0.1794
 2881DPPE   C1B56433  11.426  22.252  14.135  0.0555  0.1283 -0.0842
 2881DPPE   C2B56434  11.698  22.195  14.354 -0.0602  0.0362  0.2717
 2881DPPE   C3B56435  11.985  21.845  14.463  0.0152 -0.2513 -0.0121
 2881DPPE   C4B56436  12.172  21.754  14.845  0.1108 -0.4557 -0.1779
 2882DPPE   NH356437  13.060  23.500  13.894 -0.1595 -0.0496 -0.1168
 2882DPPE   PO456438  13.436  23.299  14.047 -0.4056  0.1160  0.0476
 2882DPPE   GL156439  13.270  23.078  14.234 -0.0808  0.1160 -0.1654
 2882DPPE   GL256440  12.943  23.035  14.094 -0.2155 -0.0382  0.1107
 2882DPPE   C1A56441  13.166  23.030  14.671  0.0013 -0.1236 -0.0728
 2882DPPE   C2A56442  12.985  22.678  14.888 -0.3293 -0.1849 -0.0915
 2882DPPE   C3A56443  12.820  22.315  14.798  0.0719 -0.2080 -0.3495
 2882DPPE   C4A56444  12.695  21.917  14.660  0.0494 -0.3936  0.1571
 2882DPPE   C1B56445  12.704  23.170  14.449  0.1804  0.1087  0.0458
 2882DPPE   C2B56446  12.266  23.120  14.577  0.4286 -0.1532 -0.1361
 2882DPPE   C3B56447  11.763  23.218  14.430 -0.0804 -0.2856 -0.0033
 2882DPPE   C4B56448  11.402  23.564  14.429 -0.0579 -0.1548  0.1141
 2883DPPE   NH356449  17.259  12.532  12.915 -0.1476 -0.5234 -0.0127
 2883DPPE   PO456450  16.926  12.801  12.937 -0.2405  0.0786 -0.1728
 2883DPPE   GL156451  16.774  12.577  13.253 -0.2869 -0.1212  0.3537
 2883DPPE   GL256452  16.887  12.733  13.510  0.1356  0.4585 -0.1940
 2883DPPE   C1A56453  16.481  12.432  13.545  0.1988  0.0558  0.3896
 2883DPPE   C2A56454  16.509  12.610  14.006 -0.0247 -0.2107 -0.0933
 2883DPPE   C3A56455  16.186  12.767  14.363 -0.1810 -0.1375  0.1073
 2883DPPE   C4A56456  16.239  12.926  14.716  0.2210  0.1407  0.1088
 2883DPPE   C1B56457  16.914  12.845  14.044 -0.3734 -0.0320  0.0623
 2883DPPE   C2B56458  16.600  12.986  14.321 -0.4462 -0.2130  0.0610
 2883DPPE   C3B56459  16.534  13.354  14.662  0.2023 -0.3425 -0.0049
 2883DPPE   C4B56460  16.254  13.732  14.606  0.1189  0.0073  0.0637
 2884DPPE   NH356461   8.691  18.677  13.506  0.2185 -0.4187  0.3109
 2884DPPE   PO456462   8.353  18.831  13.681 -0.1493  0.2745  0.0665
 2884DPPE   GL156463   8.235  18.980  14.033 -0.0714  0.0302  0.0742
 2884DPPE   GL256464   8.340  18.747  14.162  0.1241  0.0671 -0.1695
 2884DPPE   C1A56465   8.510  19.238  14.190 -0.0059 -0.0528  0.1926
 2884DPPE   C2A56466   8.680  19.388  14.684  0.1200  0.4811  0.2610
 2884DPPE   C3A56467   8.777  19.854  15.042  0.2823  0.1468 -0.0789
 2884DPPE   C4A56468   8.911  19.998  15.389  0.2477  0.1292  0.1734
 2884DPPE   C1B56469   8.367  18.912  14.595 -0.0028  0.1017  0.0212
 2884DPPE   C2B56470   8.139  19.186  14.913 -0.0065  0.0794  0.3624
 2884DPPE   C3B56471   8.152  19.351  15.442 -0.2504  0.0030  0.1611
 2884DPPE   C4B56472   7.848  19.661  15.489  0.0282 -0.2931  0.0438
 2885DPPE   NH356473  19.032  12.851  13.352 -0.0243 -0.1049 -0.2167
 2885DPPE   PO456474  19.381  13.037  13.205  0.2550  0.0653 -0.3368
 2885DPPE   GL156475  19.414  13.017  13.661 -0.2502 -0.1029 -0.0042
 2885DPPE   GL256476  19.563  12.930  13.866 -0.0552  0.0387 -0.2696
 2885DPPE   C1A56477  19.106  13.114  14.041  0.0524 -0.1480  0.4365
 2885DPPE   C2A56478  18.928  12.970  14.401 -0.0226  0.0643  0.0032
 2885DPPE   C3A56479  18.611  12.973  14.745  0.0480 -0.0246 -0.0438
 2885DPPE   C4A56480  18.463  13.231  15.020 -0.3381  0.0847 -0.0253
 2885DPPE   C1B56481  19.546  13.309  14.135 -0.0268  0.0438  0.0519
 2885DPPE   C2B56482  19.606  13.483  14.486 -0.0101  0.1068 -0.2527
 2885DPPE   C3B56483  19.845  13.578  14.705 -0.2132 -0.0346 -0.0102
 2885DPPE   C4B56484  20.041  13.893  14.891  0.5249  0.0519  0.0852
 2886DPPE   NH356485  14.806  14.681  12.697  0.0502  0.2126  0.0946
 2886DPPE   PO456486  14.628  15.074  12.730 -0.1584 -0.1125  0.0532
 2886DPPE   GL156487  14.170  14.884  12.868  0.3504 -0.0643  0.0866
 2886DPPE   GL256488  14.033  14.988  13.145 -0.2060  0.1766 -0.1402
 2886DPPE   C1A56489  13.948  14.535  13.039  0.0689 -0.1838 -0.6690
 2886DPPE   C2A56490  13.806  14.260  13.288 -0.3111  0.0313  0.1830
 2886DPPE   C3A56491  13.680  13.973  13.633  0.4255 -0.1565  0.0663
 2886DPPE   C4A56492  13.465  13.801  13.995  0.2043  0.1202 -0.2709
 2886DPPE   C1B56493  14.169  14.945  13.560  0.2729  0.0411 -0.1177
 2886DPPE   C2B56494  14.385  15.237  13.837  0.1982  0.1429 -0.1434
 2886DPPE   C3B56495  14.719  15.572  13.774 -0.0290 -0.3489  0.1452
 2886DPPE   C4B56496  15.003  15.791  14.066  0.3152 -0.1500 -0.1596
 2887DPPE   NH356497  19.180  10.736  13.931  0.0920 -0.0384 -0.1609
 2887DPPE   PO456498  18.705  10.800  13.671 -0.2933  0.1872 -0.1203
 2887DPPE   GL156499  18.849  11.216  14.054  0.1419 -0.1211 -0.0876
 2887DPPE   GL256500  18.716  11.215  14.319 -0.2968  0.0292 -0.1926
 2887DPPE   C1A56501  18.714  11.657  14.131 -0.1890  0.0942 -0.1547
 2887DPPE   C2A56502  18.775  11.968  14.464  0.2825  0.3714 -0.0462
 2887DPPE   C3A56503  18.836  12.033  14.889 -0.2868 -0.0318 -0.1536
 2887DPPE   C4A56504  18.882  12.110  15.377 -0.1114 -0.0234 -0.1484
 2887DPPE   C1B56505  18.376  11.193  14.482 -0.1982 -0.1167 -0.1632
 2887DPPE   C2B56506  17.882  11.161  14.530  0.0390 -0.0635 -0.0158
 2887DPPE   C3B56507  17.406  11.147  14.582 -0.1005  0.4095 -0.1522
 2887DPPE   C4B56508  17.028  10.860  14.530 -0.0473  0.0693 -0.1130
 2888DPPE   NH356509  16.129   8.974  13.805  0.1344 -0.1705  0.1368
 2888DPPE   PO456510  16.296   9.315  13.598 -0.3054  0.3106  0.3797
 2888DPPE   GL156511  16.322   9.341  14.122 -0.1287  0.1045  0.0070
 2888DPPE   GL256512  16.186   9.675  14.103  0.1102  0.0533 -0.1757
 2888DPPE   C1A56513  16.457   9.530  14.582 -0.2385 -0.1085 -0.4050
 2888DPPE   C2A56514  16.557   9.463  15.058  0.0457  0.0706  0.0265
 2888DPPE   C3A56515  16.736   9.720  15.362 -0.0911 -0.0416 -0.0599
 2888DPPE   C4A56516  16.860   9.770  15.789 -0.1532  0.0064 -0.3190
 2888DPPE   C1B56517  15.994   9.473  14.512 -0.1633  0.1434  0.2870
 2888DPPE   C2B56518  16.028   9.658  14.829  0.0260 -0.4763 -0.1026
 2888DPPE   C3B56519  16.197   9.717  15.183  0.2506  0.0616  0.0875
 2888DPPE   C4B56520  16.241   9.513  15.652 -0.2056 -0.0316  0.5016
 2889DPPE   NH356521   7.945  24.097  14.203 -0.2599  0.0345 -0.3313
 2889DPPE   PO456522   8.362  24.162  14.237  0.0103  0.2661  0.0001
 2889DPPE   GL156523   8.524  24.052  14.612 -0.0617 -0.0562 -0.0758
 2889DPPE   GL256524   8.850  24.028  14.575  0.0892  0.0642 -0.0453
 2889DPPE   C1A56525   8.613  23.803  14.948 -0.1854  0.2169  0.0016
 2889DPPE   C2A56526   8.568  23.784  15.424  0.0280 -0.0634 -0.0348
 2889DPPE   C3A56527   8.454  23.318  15.414  0.1435  0.2552  0.0909
 2889DPPE   C4A56528   8.388  22.940  15.570 -0.1323 -0.1756  0.0426
 2889DPPE   C1B56529   9.260  24.160  14.708  0.1024 -0.5118 -0.2056
 2889DPPE   C2B56530   9.618  24.210  14.925 -0.0834 -0.2124  0.1776
 2889DPPE   C3B56531  10.014  24.299  15.036 -0.0832 -0.0579  0.3723
 2889DPPE   C4B56532  10.252  24.594  15.163  0.1704 -0.0458  0.1612
 2890DPPE   NH356533   5.793  22.896  14.891 -0.0368  0.1434 -0.2040
 2890DPPE   PO456534   5.910  23.019  15.292  0.1505 -0.2856 -0.2102
 2890DPPE   GL156535   6.065  22.601  15.384  0.1359 -0.1504 -0.0766
 2890DPPE   GL256536   5.820  22.293  15.393 -0.1720  0.3976 -0.0242
 2890DPPE   C1A56537   6.298  22.234  15.581  0.1110 -0.2898  0.2818
 2890DPPE   C2A56538   6.332  21.920  15.823 -0.0730  0.1395  0.0282
 2890DPPE   C3A56539   6.406  21.608  15.714 -0.2316  0.0147  0.1745
 2890DPPE   C4A56540   6.633  21.359  15.514  0.0604 -0.0842  0.2603
 2890DPPE   C1B56541   5.712  21.881  15.544 -0.2540  0.0593 -0.1298
 2890DPPE   C2B56542   5.948  21.495  15.641  0.1053  0.0185 -0.3772
 2890DPPE   C3B56543   5.704  21.137  15.962  0.1130  0.1021 -0.0307
 2890DPPE   C4B56544   5.659  21.164  16.437  0.0134 -0.0339  0.1630
 2891DPPE   NH356545  13.173  15.009  12.537 -0.0484  0.0107  0.0134
 2891DPPE   PO456546  13.570  15.100  12.288  0.0959 -0.2729  0.3072
 2891DPPE   GL156547  13.749  15.195  12.632 -0.0213 -0.2752  0.0991
 2891DPPE   GL256548  13.616  15.080  12.827  0.0888  0.1194 -0.2399
 2891DPPE   C1A56549  13.994  15.457  12.971 -0.1807 -0.1361 -0.3906
 2891DPPE   C2A56550  14.180  15.866  13.223 -0.3850  0.0435  0.0331
 2891DPPE   C3A56551  14.404  16.035  13.562 -0.1084  0.1860  0.0083
 2891DPPE   C4A56552  14.702  16.105  13.894  0.0874  0.2033  0.2003
 2891DPPE   C1B56553  13.512  14.771  13.120 -0.0460  0.3373  0.1955
 2891DPPE   C2B56554  13.698  14.753  13.471  0.2579  0.0258 -0.3556
 2891DPPE   C3B56555  13.907  14.480  13.833 -0.0700  0.1379  0.1203
 2891DPPE   C4B56556  13.948  14.098  14.086  0.0330 -0.0138  0.2344
 2892DPPE   NH356557  16.264  13.273  12.879  0.2893  0.2709  0.1186
 2892DPPE   PO456558  16.493  12.971  13.077 -0.3226  0.0121  0.0008
 2892DPPE   GL156559  16.659  13.193  13.434 -0.0973 -0.1288  0.0870
 2892DPPE   GL256560  16.500  13.461  13.261  0.0737 -0.3856  0.2999
 2892DPPE   C1A56561  16.561  13.038  13.771 -0.0166  0.0959  0.0873
 2892DPPE   C2A56562  16.424  13.409  14.164  0.1893 -0.0714  0.1674
 2892DPPE   C3A56563  16.094  13.324  14.368  0.3420 -0.0284  0.0669
 2892DPPE   C4A56564  15.768  13.006  14.443 -0.3490 -0.0131  0.0427
 2892DPPE   C1B56565  16.347  13.516  13.633  0.3013 -0.2228 -0.0334
 2892DPPE   C2B56566  16.392  13.888  13.924  0.2408 -0.0672  0.1021
 2892DPPE   C3B56567  16.416  14.168  14.263 -0.0265 -0.1012 -0.0055
 2892DPPE   C4B56568  16.278  14.216  14.694  0.0834  0.0272 -0.0030
 2893DPPE   NH356569   8.952  15.588  13.692  0.2353 -0.1524 -0.0046
 2893DPPE   PO456570   8.612  16.014  13.759  0.3119 -0.0117 -0.0072
 2893DPPE   GL156571   8.794  16.256  14.190  0.2156 -0.0664  0.2914
 2893DPPE   GL256572   8.641  16.549  14.269  0.3261  0.2960 -0.0352
 2893DPPE   C1A56573   8.745  16.226  14.603 -0.1659  0.2916  0.0071
 2893DPPE   C2A56574   8.418  16.073  14.822  0.0323  0.1116  0.0294
 2893DPPE   C3A56575   8.401  15.906  15.294 -0.0092  0.0717  0.2158
 2893DPPE   C4A56576   8.417  15.654  15.780 -0.0314 -0.1880  0.2119
 2893DPPE   C1B56577   8.747  16.739  14.583  0.1429 -0.2421  0.0364
 2893DPPE   C2B56578   8.598  16.496  14.997 -0.0122  0.2001  0.1508
 2893DPPE   C3B56579   8.897  16.215  15.229 -0.1001 -0.1761 -0.1164
 2893DPPE   C4B56580   8.812  15.734  15.411  0.3554  0.0543 -0.1584
 2894DPPE   NH356581  17.708  16.417  12.644  0.1471  0.0829  0.1341
 2894DPPE   PO456582  17.806  16.736  12.948  0.0612  0.1370  0.3014
 2894DPPE   GL156583  17.820  16.724  13.416  0.0548  0.2812 -0.0807
 2894DPPE   GL256584  18.063  16.819  13.541 -0.1036 -0.0457 -0.0277
 2894DPPE   C1A56585  17.682  16.788  13.863 -0.0973 -0.1590  0.0175
 2894DPPE   C2A56586  17.408  17.081  14.193  0.0557  0.1238  0.0621
 2894DPPE   C3A56587  17.347  17.414  14.361  0.0684 -0.0823 -0.3529
 2894DPPE   C4A56588  17.082  17.592  14.653 -0.1429 -0.0296 -0.0978
 2894DPPE   C1B56589  18.196  16.638  13.936 -0.0485  0.0680  0.0146
 2894DPPE   C2B56590  18.334  16.802  14.305 -0.0405 -0.1227  0.4222
 2894DPPE   C3B56591  18.714  16.907  14.422  0.0308 -0.1195 -0.1045
 2894DPPE   C4B56592  18.973  17.214  14.282 -0.1932 -0.0677 -0.0614
 2895DPPE   NH356593  12.345  20.048  13.026  0.1624 -0.1632  0.0440
 2895DPPE   PO456594  12.244  20.535  13.030  0.2097  0.1016 -0.2079
 2895DPPE   GL156595  12.301  20.239  13.482  0.0272 -0.0673  0.1196
 2895DPPE   GL256596  12.113  20.256  13.736 -0.0925 -0.0501 -0.0922
 2895DPPE   C1A56597  12.492  19.865  13.629  0.0268 -0.1875 -0.0060
 2895DPPE   C2A56598  12.884  19.653  13.627  0.1888  0.0917 -0.1159
 2895DPPE   C3A56599  13.324  19.750  13.679  0.1628  0.3041  0.0913
 2895DPPE   C4A56600  13.694  19.907  13.446  0.1907 -0.2267 -0.0008
 2895DPPE   C1B56601  12.297  20.208  14.093 -0.0056 -0.1249  0.2909
 2895DPPE   C2B56602  12.466  20.095  14.428  0.0004  0.0165 -0.1078
 2895DPPE   C3B56603  12.815  19.736  14.546 -0.2694  0.1048 -0.1480
 2895DPPE   C4B56604  12.918  19.243  14.538 -0.2177 -0.2612 -0.0035
 2896DPPE   NH356605  14.012  12.696  12.741 -0.0766 -0.1397 -0.0939
 2896DPPE   PO456606  14.198  12.359  12.779 -0.3950 -0.2782  0.1306
 2896DPPE   GL156607  14.358  12.564  13.104 -0.0604 -0.1691  0.0700
 2896DPPE   GL256608  14.108  12.575  13.274 -0.0849 -0.0507 -0.0157
 2896DPPE   C1A56609  14.610  12.524  13.411 -0.3748 -0.0431  0.0640
 2896DPPE   C2A56610  14.573  12.594  13.840 -0.2514 -0.0971  0.1381
 2896DPPE   C3A56611  14.517  12.442  14.262  0.0343  0.0197  0.0402
 2896DPPE   C4A56612  14.858  12.456  14.468 -0.0641  0.2411 -0.0623
 2896DPPE   C1B56613  14.037  12.519  13.698  0.0184 -0.2159 -0.0114
 2896DPPE   C2B56614  14.052  12.464  14.148  0.0491 -0.3765  0.0142
 2896DPPE   C3B56615  14.051  12.310  14.614 -0.0201 -0.0260 -0.0504
 2896DPPE   C4B56616  13.667  12.198  14.968  0.0759 -0.2706  0.1836
 2897DPPE   NH356617  10.049   9.877  13.338  0.0621 -0.1510  0.2837
 2897DPPE   PO456618   9.980  10.388  13.523  0.0173  0.0602  0.1651
 2897DPPE   GL156619  10.142  10.416  13.859 -0.1112 -0.0684 -0.1870
 2897DPPE   GL256620  10.393  10.207  13.855 -0.2181  0.0905 -0.1846
 2897DPPE   C1A56621  10.383  10.693  14.221 -0.1433 -0.1811  0.3697
 2897DPPE   C2A56622  10.644  10.448  14.493  0.0420 -0.3622  0.1037
 2897DPPE   C3A56623  10.751   9.924  14.549 -0.2581  0.2339  0.1822
 2897DPPE   C4A56624  10.952   9.484  14.368 -0.0490 -0.1905  0.0059
 2897DPPE   C1B56625  10.765  10.145  14.069 -0.0111 -0.0435  0.4039
 2897DPPE   C2B56626  11.128  10.356  14.224 -0.1723  0.0989  0.0789
 2897DPPE   C3B56627  11.597  10.423  14.436  0.0687 -0.1786 -0.1644
 2897DPPE   C4B56628  11.967  10.303  14.590  0.1142 -0.0110 -0.2300
 2898DPPE   NH356629  20.561  22.194  14.732 -0.0820  0.3114  0.0556
 2898DPPE   PO456630  20.358  22.036  14.383 -0.0541 -0.1854  0.0775
 2898DPPE   GL156631  20.074  21.964  14.834 -0.4463 -0.2203 -0.0861
 2898DPPE   GL256632  20.289  21.716  14.929 -0.3017 -0.2520 -0.1748
 2898DPPE   C1A56633  19.695  22.090  15.006  0.1482 -0.0870  0.1681
 2898DPPE   C2A56634  19.267  21.996  15.143  0.2397 -0.2241  0.1480
 2898DPPE   C3A56635  18.932  21.864  15.363  0.2421  0.0301  0.1474
 2898DPPE   C4A56636  18.573  21.921  15.291 -0.2042 -0.0464  0.0892
 2898DPPE   C1B56637  20.084  21.690  15.233  0.0575  0.4221 -0.0768
 2898DPPE   C2B56638  19.644  21.676  15.481  0.0187 -0.1648  0.1427
 2898DPPE   C3B56639  19.378  22.037  15.717  0.1773  0.0232  0.1295
 2898DPPE   C4B56640  19.166  22.380  15.530 -0.0354 -0.1690 -0.0567
 2899DPPE   NH356641  21.163  12.740  14.261 -0.0222 -0.1293  0.0055
 2899DPPE   PO456642  20.755  12.594  14.041  0.0590  0.2439 -0.1187
 2899DPPE   GL156643  20.731  12.940  14.298  0.3831 -0.2804 -0.0975
 2899DPPE   GL256644  20.365  12.842  14.473 -0.1823 -0.2569 -0.1079
 2899DPPE   C1A56645  20.661  13.229  14.547  0.2198  0.1867 -0.0547
 2899DPPE   C2A56646  20.512  13.725  14.461  0.3609  0.0067  0.3014
 2899DPPE   C3A56647  20.484  14.070  14.760  0.0537 -0.6320  0.2345
 2899DPPE   C4A56648  20.355  14.055  15.257  0.2246  0.0479 -0.2216
 2899DPPE   C1B56649  20.048  13.177  14.523  0.3686  0.1537  0.0683
 2899DPPE   C2B56650  20.079  13.600  14.283 -0.1044  0.0435  0.0847
 2899DPPE   C3B56651  19.821  14.000  14.309  0.2109  0.1841 -0.1288
 2899DPPE   C4B56652  19.698  14.471  14.281 -0.0716 -0.1655  0.1906
 2900DPPE   NH356653   7.652  14.736  14.624 -0.0273  0.0152 -0.2119
 2900DPPE   PO456654   7.512  14.399  14.430 -0.2797  0.0794 -0.0638
 2900DPPE   GL156655   7.293  14.328  14.763  0.0039  0.2903 -0.1492
 2900DPPE   GL256656   7.132  14.629  14.745 -0.0552  0.0666 -0.2000
 2900DPPE   C1A56657   7.053  14.020  14.901 -0.0920  0.2468 -0.1860
 2900DPPE   C2A56658   7.013  13.525  14.935  0.3501  0.2454  0.2522
 2900DPPE   C3A56659   6.803  13.194  15.067  0.3035  0.0753  0.0710
 2900DPPE   C4A56660   6.459  12.928  15.028 -0.1060 -0.3081 -0.1071
 2900DPPE   C1B56661   6.708  14.897  14.799  0.0449 -0.2292 -0.1343
 2900DPPE   C2B56662   6.218  14.935  14.911  0.0348 -0.0843  0.0257
 2900DPPE   C3B56663   5.791  15.078  14.840 -0.3233 -0.0779 -0.0695
 2900DPPE   C4B56664   5.448  15.362  15.003  0.1809 -0.1110 -0.1088
 2901DPPE   NH356665  10.084  23.074  13.723 -0.1558 -0.0846 -0.2424
 2901DPPE   PO456666  10.503  23.131  13.804  0.2425 -0.1148 -0.1327
 2901DPPE   GL156667  10.496  23.033  14.248  0.3710 -0.0084 -0.1574
 2901DPPE   GL256668  10.259  23.137  14.271  0.2591 -0.0252 -0.0128
 2901DPPE   C1A56669  10.710  23.064  14.723 -0.0481 -0.3951  0.1131
 2901DPPE   C2A56670  10.812  23.190  15.176 -0.2199 -0.3569  0.1323
 2901DPPE   C3A56671  11.016  23.410  15.547 -0.0456 -0.0378  0.1203
 2901DPPE   C4A56672  11.001  23.626  15.877 -0.2060 -0.0072 -0.2448
 2901DPPE   C1B56673  10.008  22.920  14.576  0.2468  0.0766 -0.0304
 2901DPPE   C2B56674   9.631  22.671  14.599 -0.0499 -0.2899 -0.0557
 2901DPPE   C3B56675   9.579  22.301  14.875  0.0089 -0.0317  0.0955
 2901DPPE   C4B56676   9.583  22.253  15.413 -0.3118 -0.3091  0.1243
 2902DPPE   NH356677  14.011  16.353  12.434 -0.0397 -0.2180  0.0477
 2902DPPE   PO456678  13.859  16.729  12.267 -0.1080 -0.1044 -0.1830
 2902DPPE   GL156679  13.946  16.768  12.746 -0.1152  0.0719 -0.0194
 2902DPPE   GL256680  14.287  16.787  12.699  0.2630  0.1126  0.1917
 2902DPPE   C1A56681  13.798  16.980  13.183  0.5274  0.1975 -0.2109
 2902DPPE   C2A56682  13.517  17.163  13.389  0.0910  0.0220  0.0175
 2902DPPE   C3A56683  13.599  17.170  13.778  0.2935  0.0400 -0.1487
 2902DPPE   C4A56684  13.806  17.342  14.058 -0.0118 -0.2704  0.1369
 2902DPPE   C1B56685  14.349  16.944  13.182  0.0060 -0.4256 -0.2111
 2902DPPE   C2B56686  14.481  16.933  13.608 -0.1940 -0.0379  0.3432
 2902DPPE   C3B56687  14.541  16.967  13.940  0.1133  0.3116  0.0038
 2902DPPE   C4B56688  14.726  17.169  14.348  0.0010 -0.1054 -0.2440
 2903DPPE   NH356689  14.218  17.624  12.173 -0.0152 -0.1564  0.1699
 2903DPPE   PO456690  13.964  17.254  12.044 -0.1651 -0.0900 -0.1477
 2903DPPE   GL156691  14.264  17.236  12.442 -0.2397  0.0677  0.1165
 2903DPPE   GL256692  14.609  17.346  12.450 -0.2218  0.1452  0.2014
 2903DPPE   C1A56693  14.120  17.362  12.867  0.0217 -0.3043 -0.0641
 2903DPPE   C2A56694  14.015  17.694  13.094 -0.0711  0.1538 -0.0453
 2903DPPE   C3A56695  13.805  17.595  13.483  0.2178  0.1578 -0.0003
 2903DPPE   C4A56696  13.391  17.632  13.739 -0.1511  0.0107  0.1659
 2903DPPE   C1B56697  14.667  17.155  12.853 -0.1043  0.1595 -0.1694
 2903DPPE   C2B56698  14.839  17.186  13.268 -0.0514 -0.0122 -0.1285
 2903DPPE   C3B56699  14.992  16.965  13.589 -0.1354 -0.2189  0.0625
 2903DPPE   C4B56700  15.020  16.851  14.046 -0.0284  0.1649  0.2959
 2904DPPE   NH356701  16.017  16.404  12.559  0.3241  0.2908  0.2333
 2904DPPE   PO456702  15.930  16.216  12.303 -0.2480  0.0764 -0.0641
 2904DPPE   GL156703  15.866  15.899  12.665  0.0517  0.1582 -0.2805
 2904DPPE   GL256704  15.645  16.200  12.843 -0.0449 -0.1563  0.0923
 2904DPPE   C1A56705  15.428  15.724  12.753  0.0679 -0.0057 -0.2350
 2904DPPE   C2A56706  15.108  15.761  13.039 -0.1310 -0.3632 -0.1520
 2904DPPE   C3A56707  14.801  15.571  13.271  0.1038  0.2274 -0.0907
 2904DPPE   C4A56708  14.424  15.406  13.284 -0.1843  0.2110  0.2247
 2904DPPE   C1B56709  15.486  15.966  13.267 -0.0253 -0.3862 -0.1656
 2904DPPE   C2B56710  15.805  15.703  13.195  0.2785  0.1696  0.1459
 2904DPPE   C3B56711  15.848  15.471  13.663 -0.2591  0.0175 -0.0303
 2904DPPE   C4B56712  15.791  15.288  14.096 -0.2793 -0.1072 -0.1077
 2905DPPE   NH356713  19.030  27.202  15.950 -0.1430 -0.1317  0.1178
 2905DPPE   PO456714  19.345  27.005  15.606  0.1716 -0.1891  0.1892
 2905DPPE   GL156715  19.088  26.598  15.840  0.2057 -0.4479  0.2127
 2905DPPE   GL256716  18.973  26.282  15.897  0.0208 -0.1598  0.1270
 2905DPPE   C1A56717  19.376  26.306  16.213  0.0484 -0.5008 -0.1388
 2905DPPE   C2A56718  19.446  26.068  16.550  0.3701 -0.1104  0.1351
 2905DPPE   C3A56719  19.558  25.798  16.939 -0.0774 -0.1489 -0.2823
 2905DPPE   C4A56720  19.367  26.021  17.230  0.0972 -0.2491 -0.0114
 2905DPPE   C1B56721  18.678  25.992  16.181  0.0395 -0.0958  0.0355
 2905DPPE   C2B56722  18.654  25.660  16.592 -0.0000 -0.2005 -0.1197
 2905DPPE   C3B56723  18.832  25.400  16.930 -0.1847  0.0109 -0.0005
 2905DPPE   C4B56724  19.113  25.192  17.169  0.4433 -0.0152  0.1489
 2906DPPE   NH356725  14.716  15.822  12.298  0.1376 -0.2834 -0.0957
 2906DPPE   PO456726  14.982  16.086  12.432  0.1742  0.1473  0.0252
 2906DPPE   GL156727  15.044  16.445  12.701  0.2085 -0.1484 -0.3839
 2906DPPE   GL256728  14.801  16.691  12.622 -0.1574  0.0456  0.1505
 2906DPPE   C1A56729  15.214  16.416  13.110  0.1366 -0.0089 -0.0005
 2906DPPE   C2A56730  15.434  16.542  13.485 -0.0594 -0.1921 -0.4398
 2906DPPE   C3A56731  15.455  16.523  13.942 -0.0809  0.3035  0.1461
 2906DPPE   C4A56732  15.345  16.604  14.415  0.0348  0.1680  0.1582
 2906DPPE   C1B56733  14.680  16.643  12.973 -0.3682  0.3152 -0.1391
 2906DPPE   C2B56734  14.801  16.552  13.360  0.0174  0.2075 -0.0344
 2906DPPE   C3B56735  14.997  16.495  13.723 -0.2654 -0.1968  0.0520
 2906DPPE   C4B56736  14.899  16.371  14.239  0.0350  0.2603 -0.0354
 2907DPPE   NH356737  16.623  25.177  13.641  0.2922 -0.0970  0.1219
 2907DPPE   PO456738  17.125  25.269  13.748  0.1233  0.0607  0.0930
 2907DPPE   GL156739  16.873  24.990  14.013  0.1344  0.4087  0.2089
 2907DPPE   GL256740  16.709  25.126  14.326 -0.3669 -0.1556  0.3086
 2907DPPE   C1A56741  16.657  24.547  14.188  0.1409  0.3123 -0.2292
 2907DPPE   C2A56742  16.588  24.065  14.163 -0.0199  0.0615  0.1090
 2907DPPE   C3A56743  16.600  23.806  14.454  0.0027 -0.2293  0.1522
 2907DPPE   C4A56744  16.387  23.584  14.789  0.2592  0.0307  0.1018
 2907DPPE   C1B56745  16.702  25.319  14.719 -0.1650  0.1403 -0.0266
 2907DPPE   C2B56746  16.504  25.512  15.150  0.2326 -0.0519 -0.1009
 2907DPPE   C3B56747  16.530  25.820  15.427  0.0611  0.0158  0.2706
 2907DPPE   C4B56748  16.812  26.102  15.651  0.1185 -0.2387 -0.2485
 2908DPPE   NH356749   7.386  13.239  13.655 -0.0162  0.1079  0.1224
 2908DPPE   PO456750   7.862  13.186  13.625 -0.1635  0.1061  0.0096
 2908DPPE   GL156751   7.727  13.232  14.044 -0.2213 -0.0235  0.0383
 2908DPPE   GL256752   7.981  13.531  14.151 -0.0059  0.0381 -0.1309
 2908DPPE   C1A56753   7.738  13.155  14.497 -0.0934 -0.1725 -0.1387
 2908DPPE   C2A56754   7.748  13.459  14.834  0.2167  0.1181 -0.0256
 2908DPPE   C3A56755   7.489  13.719  15.083 -0.2949  0.2129 -0.0892
 2908DPPE   C4A56756   7.232  13.583  15.304 -0.0979 -0.1114 -0.0634
 2908DPPE   C1B56757   8.054  13.783  14.634  0.1009  0.1549  0.0958
 2908DPPE   C2B56758   8.248  13.845  15.139  0.1386  0.0938 -0.1956
 2908DPPE   C3B56759   8.312  14.095  15.453  0.3432 -0.1800 -0.0703
 2908DPPE   C4B56760   8.521  14.351  15.428 -0.2270 -0.1329 -0.1307
 2909DPPE   NH356761  11.181  13.134  12.944  0.3906  0.3047 -0.4208
 2909DPPE   PO456762  11.456  13.529  12.827 -0.0226 -0.4191 -0.0463
 2909DPPE   GL156763  11.404  13.594  13.144  0.2002 -0.1007 -0.2182
 2909DPPE   GL256764  11.410  13.928  13.233  0.1736 -0.1115  0.4062
 2909DPPE   C1A56765  11.467  13.755  13.663 -0.0264  0.0361  0.2123
 2909DPPE   C2A56766  11.526  13.803  14.089 -0.0254  0.0762 -0.1452
 2909DPPE   C3A56767  11.379  13.840  14.519  0.1136 -0.0022 -0.1938
 2909DPPE   C4A56768  11.039  14.139  14.524  0.2438  0.1469  0.1156
 2909DPPE   C1B56769  11.160  14.078  13.531 -0.0313  0.0256 -0.1753
 2909DPPE   C2B56770  10.878  14.238  13.820 -0.0006 -0.2096  0.2959
 2909DPPE   C3B56771  10.770  14.469  14.268 -0.0083 -0.1688 -0.0105
 2909DPPE   C4B56772  11.032  14.656  14.595  0.0803  0.1653  0.2508
 2910DPPE   NH356773  17.626  15.628  12.705 -0.4381  0.1660 -0.1370
 2910DPPE   PO456774  17.994  15.896  12.600 -0.2649  0.1657  0.2036
 2910DPPE   GL156775  18.114  15.874  12.974 -0.0501 -0.2750  0.1025
 2910DPPE   GL256776  18.267  15.575  13.180 -0.2282  0.1063  0.0168
 2910DPPE   C1A56777  18.062  16.110  13.316 -0.0538  0.2363  0.0361
 2910DPPE   C2A56778  18.065  16.218  13.712 -0.0923 -0.1938 -0.1540
 2910DPPE   C3A56779  18.034  15.854  13.970  0.0769  0.1940 -0.1462
 2910DPPE   C4A56780  17.686  15.724  14.354  0.1111 -0.2244 -0.5618
 2910DPPE   C1B56781  18.272  15.594  13.608  0.1789 -0.3033  0.0424
 2910DPPE   C2B56782  18.211  15.376  14.018  0.0128  0.0216  0.3096
 2910DPPE   C3B56783  18.204  15.515  14.378  0.0583  0.2843  0.1847
 2910DPPE   C4B56784  18.169  15.768  14.657  0.0097  0.2493  0.1582
 2911DPPE   NH356785  14.889  20.829  12.849  0.0287  0.2355 -0.2197
 2911DPPE   PO456786  15.131  21.146  12.940  0.2542 -0.1666  0.3413
 2911DPPE   GL156787  15.073  20.854  13.336 -0.2795  0.0434 -0.1474
 2911DPPE   GL256788  14.930  20.646  13.362 -0.0400 -0.2294  0.0208
 2911DPPE   C1A56789  15.263  20.803  13.705  0.1304 -0.0720 -0.1318
 2911DPPE   C2A56790  15.506  20.532  14.012  0.2338  0.3682 -0.0731
 2911DPPE   C3A56791  15.497  20.477  14.353  0.0985 -0.0145 -0.0565
 2911DPPE   C4A56792  15.487  20.185  14.762  0.4716 -0.2241 -0.1788
 2911DPPE   C1B56793  14.710  20.905  13.733 -0.1179 -0.0128  0.0097
 2911DPPE   C2B56794  14.701  20.907  14.145 -0.2849 -0.2135  0.0530
 2911DPPE   C3B56795  14.430  20.999  14.350  0.0387  0.2617  0.2368
 2911DPPE   C4B56796  14.344  21.257  14.535 -0.1621  0.0061 -0.1246
 2912DPPE   NH356797   8.454  20.065  13.290  0.2747  0.0459 -0.0740
 2912DPPE   PO456798   8.399  19.698  13.525 -0.0445 -0.3075 -0.0258
 2912DPPE   GL156799   8.767  19.810  13.825  0.3602  0.0096 -0.0235
 2912DPPE   GL256800   8.978  19.537  13.838  0.0482 -0.2120  0.1057
 2912DPPE   C1A56801   8.681  19.725  14.303  0.0222  0.5687 -0.0568
 2912DPPE   C2A56802   8.510  19.868  14.632  0.0425  0.3432 -0.0984
 2912DPPE   C3A56803   8.191  20.009  14.735 -0.1091 -0.1370  0.1253
 2912DPPE   C4A56804   7.778  20.150  14.644 -0.0455 -0.2082 -0.3855
 2912DPPE   C1B56805   9.182  19.387  14.293 -0.3121  0.3369 -0.0504
 2912DPPE   C2B56806   9.117  19.593  14.760  0.0742  0.5517 -0.1868
 2912DPPE   C3B56807   9.249  19.619  15.198 -0.2392 -0.3106  0.0378
 2912DPPE   C4B56808   9.030  19.555  15.588  0.3023  0.0513 -0.2704
 2913DPPE   NH356809  17.153   8.438  14.951  0.3705 -0.0408 -0.0724
 2913DPPE   PO456810  17.053   8.102  15.099 -0.2834 -0.0002  0.1185
 2913DPPE   GL156811  17.254   8.291  15.388  0.0300 -0.1419 -0.2883
 2913DPPE   GL256812  17.595   8.477  15.236 -0.0269 -0.2320  0.0108
 2913DPPE   C1A56813  17.371   8.569  15.749 -0.0536 -0.2480 -0.4016
 2913DPPE   C2A56814  17.255   8.603  16.197  0.0677  0.0858  0.1409
 2913DPPE   C3A56815  17.075   8.551  16.596 -0.0326 -0.1007  0.0558
 2913DPPE   C4A56816  16.868   8.724  16.884  0.0109 -0.0220 -0.2050
 2913DPPE   C1B56817  17.889   8.677  15.472  0.0092 -0.0718 -0.0023
 2913DPPE   C2B56818  17.826   8.922  15.812  0.3607 -0.1512  0.2567
 2913DPPE   C3B56819  17.381   9.040  16.064  0.1268 -0.1996 -0.0041
 2913DPPE   C4B56820  16.947   8.973  15.907  0.2858  0.0235 -0.0343
 2914DPPE   NH356821  12.657  16.375  12.432 -0.2878  0.3007  0.2574
 2914DPPE   PO456822  12.520  16.051  12.757  0.2134 -0.0852 -0.1529
 2914DPPE   GL156823  12.789  16.042  12.997 -0.1947 -0.1368 -0.0662
 2914DPPE   GL256824  12.647  15.814  13.252 -0.0795  0.5273  0.0275
 2914DPPE   C1A56825  13.082  16.266  13.227  0.3641  0.0306 -0.0377
 2914DPPE   C2A56826  13.278  16.474  13.387  0.0663 -0.3441 -0.0356
 2914DPPE   C3A56827  13.691  16.679  13.615  0.0982 -0.3149  0.2125
 2914DPPE   C4A56828  13.970  16.747  13.886 -0.3334  0.2213 -0.0441
 2914DPPE   C1B56829  12.834  16.025  13.576  0.0266  0.0122 -0.1663
 2914DPPE   C2B56830  13.248  15.891  13.776  0.3287 -0.1811 -0.0723
 2914DPPE   C3B56831  13.513  16.042  13.968  0.0808 -0.0521  0.0171
 2914DPPE   C4B56832  13.668  16.410  14.150  0.0842  0.0258 -0.1674
 2915DPPE   NH356833  14.399  10.300  12.880 -0.0086  0.4290  0.1887
 2915DPPE   PO456834  14.627  10.745  13.143 -0.3470  0.2199  0.1298
 2915DPPE   GL156835  15.001  10.699  13.432 -0.0190 -0.1829  0.1390
 2915DPPE   GL256836  15.356  10.523  13.444 -0.0898 -0.4072 -0.0766
 2915DPPE   C1A56837  15.124  10.640  13.918  0.1070  0.2678 -0.3196
 2915DPPE   C2A56838  14.979  10.266  14.189  0.0534  0.0352 -0.2720
 2915DPPE   C3A56839  14.719  10.045  14.685 -0.1681  0.1394  0.2658
 2915DPPE   C4A56840  14.614  10.114  15.020 -0.1010  0.0963 -0.1593
 2915DPPE   C1B56841  15.630  10.818  13.793  0.2545 -0.0255 -0.0011
 2915DPPE   C2B56842  15.461  11.074  14.123  0.1020 -0.2854 -0.0745
 2915DPPE   C3B56843  15.177  10.862  14.369 -0.0915 -0.0081  0.0444
 2915DPPE   C4B56844  14.818  10.731  14.345  0.2871 -0.3634  0.0985
 2916DPPE   NH356845  11.393  17.660  12.615 -0.1404  0.2025 -0.0395
 2916DPPE   PO456846  11.807  17.455  12.697 -0.1578  0.0151 -0.0822
 2916DPPE   GL156847  11.726  17.212  13.116  0.1189  0.3612  0.0523
 2916DPPE   GL256848  11.462  16.980  13.186  0.0108 -0.1309  0.0480
 2916DPPE   C1A56849  12.010  17.122  13.513  0.1229  0.3187  0.0672
 2916DPPE   C2A56850  12.187  17.252  13.799  0.0562  0.0111  0.0618
 2916DPPE   C3A56851  12.385  17.231  14.233  0.3029 -0.1084 -0.1504
 2916DPPE   C4A56852  12.761  17.126  14.267 -0.0344  0.1655  0.2206
 2916DPPE   C1B56853  11.400  17.185  13.527  0.2158 -0.2220  0.3842
 2916DPPE   C2B56854  11.690  17.159  13.872  0.1041  0.3219  0.0906
 2916DPPE   C3B56855  11.948  17.038  14.221  0.2561 -0.0263 -0.1490
 2916DPPE   C4B56856  12.305  16.785  14.450  0.2380 -0.1782 -0.1457
 2917DPPE   NH356857  19.975   9.977  15.150 -0.2380  0.1020 -0.1444
 2917DPPE   PO456858  19.996  10.451  14.963  0.2159 -0.3787 -0.2557
 2917DPPE   GL156859  20.120  10.903  14.948  0.1966 -0.1648 -0.1275
 2917DPPE   GL256860  20.486  10.814  14.939 -0.2977  0.0189  0.0346
 2917DPPE   C1A56861  19.932  11.178  15.234 -0.0984 -0.0401  0.0319
 2917DPPE   C2A56862  19.477  11.347  15.297  0.1412  0.1961  0.1721
 2917DPPE   C3A56863  19.153  11.521  15.383 -0.0002  0.0145 -0.2355
 2917DPPE   C4A56864  18.955  11.709  15.719  0.1937  0.1389  0.0579
 2917DPPE   C1B56865  20.432  11.174  15.220  0.0894 -0.1674  0.1371
 2917DPPE   C2B56866  20.292  11.520  15.480 -0.1179 -0.3195  0.1615
 2917DPPE   C3B56867  20.194  11.918  15.694 -0.2806  0.0680  0.0877
 2917DPPE   C4B56868  19.898  12.207  15.623  0.1375 -0.1112 -0.2207
 2918DPPE   NH356869  13.269   6.153  16.435 -0.1050  0.0575  0.1775
 2918DPPE   PO456870  13.046   6.364  16.153 -0.2504  0.2085 -0.0060
 2918DPPE   GL156871  13.071   6.702  16.446  0.1417 -0.2016 -0.0962
 2918DPPE   GL256872  12.929   6.557  16.617 -0.0307 -0.0185 -0.1078
 2918DPPE   C1A56873  13.130   6.972  16.795 -0.1045 -0.1010 -0.1800
 2918DPPE   C2A56874  13.279   7.063  17.246  0.3918 -0.0831  0.2597
 2918DPPE   C3A56875  13.614   7.303  17.578 -0.1862 -0.1785  0.1997
 2918DPPE   C4A56876  13.960   7.550  17.417 -0.1403 -0.2301 -0.1794
 2918DPPE   C1B56877  12.507   6.746  16.792  0.0611 -0.3084 -0.1876
 2918DPPE   C2B56878  12.091   6.855  16.959 -0.1923 -0.0634 -0.2178
 2918DPPE   C3B56879  11.611   6.952  16.865 -0.0895  0.2746  0.0734
 2918DPPE   C4B56880  11.502   7.233  16.461 -0.1514 -0.5999  0.0078
 2919DPPE   NH356881  16.717  19.187  12.532 -0.0531  0.1870  0.0717
 2919DPPE   PO456882  16.410  19.458  12.399 -0.2135 -0.0502  0.1773
 2919DPPE   GL156883  16.577  19.446  12.918  0.1644 -0.2220 -0.1650
 2919DPPE   GL256884  16.576  19.763  13.013  0.1333  0.1424  0.1173
 2919DPPE   C1A56885  16.616  19.401  13.386  0.1883 -0.0948  0.1737
 2919DPPE   C2A56886  16.690  19.696  13.802  0.0135 -0.2603 -0.1156
 2919DPPE   C3A56887  16.819  19.912  14.090 -0.1645  0.0181 -0.0186
 2919DPPE   C4A56888  16.820  20.173  14.379  0.2249 -0.2234 -0.2811
 2919DPPE   C1B56889  16.377  19.885  13.445  0.1814  0.1238 -0.2043
 2919DPPE   C2B56890  16.208  19.774  13.745  0.1316  0.0115  0.0421
 2919DPPE   C3B56891  16.310  19.725  14.159 -0.1363  0.0443 -0.0493
 2919DPPE   C4B56892  16.371  19.710  14.637  0.3953  0.0572  0.1343
 2920DPPE   NH356893  16.290  16.792  12.374 -0.1350  0.2727 -0.3891
 2920DPPE   PO456894  16.631  16.604  12.480  0.0387 -0.2655 -0.0859
 2920DPPE   GL156895  16.555  16.751  12.873  0.2055 -0.3610 -0.0737
 2920DPPE   GL256896  16.240  16.524  12.978 -0.0789  0.2237  0.1815
 2920DPPE   C1A56897  16.593  17.118  13.219  0.0246 -0.5317  0.1825
 2920DPPE   C2A56898  16.557  17.059  13.572  0.0384  0.0037  0.0903
 2920DPPE   C3A56899  16.537  16.983  13.994  0.1770  0.0731  0.1473
 2920DPPE   C4A56900  16.297  16.678  14.229  0.1660  0.0869 -0.0044
 2920DPPE   C1B56901  16.072  16.897  13.256  0.4473 -0.1213 -0.3796
 2920DPPE   C2B56902  16.034  17.137  13.804 -0.0587 -0.0711  0.1199
 2920DPPE   C3B56903  16.029  17.223  14.222  0.2942 -0.0744 -0.0348
 2920DPPE   C4B56904  16.023  17.068  14.592 -0.0256  0.0005  0.1587
 2921DPPE   NH356905  19.313  13.568  13.023 -0.2421 -0.2761 -0.1257
 2921DPPE   PO456906  19.537  13.904  13.126  0.2529  0.0967  0.0421
 2921DPPE   GL156907  19.590  13.700  13.499 -0.1513 -0.0201  0.0343
 2921DPPE   GL256908  19.691  13.449  13.651 -0.1351 -0.2788  0.2666
 2921DPPE   C1A56909  19.498  13.790  13.980 -0.0817  0.0392  0.1139
 2921DPPE   C2A56910  19.210  14.076  14.197 -0.1059 -0.0873  0.3593
 2921DPPE   C3A56911  19.062  14.246  14.560 -0.0435  0.0659  0.0819
 2921DPPE   C4A56912  19.257  14.414  14.826 -0.0782  0.1109  0.1208
 2921DPPE   C1B56913  19.984  13.760  13.819 -0.1779  0.3640  0.2035
 2921DPPE   C2B56914  20.233  14.121  14.019 -0.0232 -0.0208  0.0042
 2921DPPE   C3B56915  20.230  14.326  14.417  0.3580  0.3171 -0.0087
 2921DPPE   C4B56916  20.415  14.555  14.740  0.1230 -0.1179  0.0178
 2922DPPE   NH356917  10.740  18.422  13.085 -0.0524 -0.3332  0.0520
 2922DPPE   PO456918  11.067  18.281  13.010 -0.1143 -0.2315 -0.0387
 2922DPPE   GL156919  10.893  17.940  13.317  0.1477  0.1615  0.0694
 2922DPPE   GL256920  10.831  18.098  13.616 -0.2239  0.0845 -0.3452
 2922DPPE   C1A56921  11.087  17.636  13.617 -0.0600 -0.1417 -0.2408
 2922DPPE   C2A56922  11.418  17.547  13.927  0.2195 -0.3087 -0.0076
 2922DPPE   C3A56923  11.621  17.455  14.298 -0.0447 -0.0045  0.0881
 2922DPPE   C4A56924  11.560  17.575  14.638 -0.2617  0.0152  0.5116
 2922DPPE   C1B56925  10.835  17.883  13.958 -0.1944  0.0229  0.4883
 2922DPPE   C2B56926  10.852  18.234  14.181 -0.0328  0.0694  0.1464
 2922DPPE   C3B56927  10.830  18.405  14.618 -0.3384 -0.1277 -0.1306
 2922DPPE   C4B56928  10.820  18.367  15.120 -0.0287  0.0508  0.4344
 2923DPPE   NH356929  16.768  23.775  12.903  0.1536  0.0166 -0.0192
 2923DPPE   PO456930  16.462  23.793  13.089 -0.0483  0.2345 -0.2206
 2923DPPE   GL156931  16.470  23.518  13.453 -0.1826  0.0937 -0.0551
 2923DPPE   GL256932  16.798  23.550  13.680 -0.1565 -0.2461  0.0143
 2923DPPE   C1A56933  16.279  23.630  13.842  0.0770 -0.1397  0.0920
 2923DPPE   C2A56934  16.156  23.615  14.268  0.0212  0.0738  0.3151
 2923DPPE   C3A56935  15.916  23.576  14.531  0.0446  0.1845 -0.0101
 2923DPPE   C4A56936  15.790  23.780  14.807 -0.1034 -0.0439 -0.0912
 2923DPPE   C1B56937  16.749  23.585  14.058  0.2515 -0.1508 -0.0531
 2923DPPE   C2B56938  16.496  23.308  14.322 -0.1864  0.0089  0.1821
 2923DPPE   C3B56939  16.571  23.103  14.620 -0.1554  0.2569 -0.2065
 2923DPPE   C4B56940  16.545  22.802  14.909 -0.0816 -0.0973  0.1599
 2924DPPE   NH356941   9.773  17.368  12.890 -0.3188  0.0811  0.1804
 2924DPPE   PO456942   9.697  17.002  13.089 -0.2303 -0.2716 -0.1754
 2924DPPE   GL156943   9.810  17.217  13.447  0.1644 -0.3015  0.2055
 2924DPPE   GL256944  10.018  16.916  13.488  0.2466 -0.2259 -0.3294
 2924DPPE   C1A56945  10.014  17.373  13.863  0.2223  0.1635 -0.3810
 2924DPPE   C2A56946   9.976  17.407  14.311  0.4778  0.0550 -0.0927
 2924DPPE   C3A56947  10.146  17.557  14.735  0.3104 -0.1026  0.1058
 2924DPPE   C4A56948   9.923  17.501  15.043  0.1128 -0.1429 -0.0789
 2924DPPE   C1B56949  10.007  16.906  13.941 -0.0770  0.0150  0.0151
 2924DPPE   C2B56950  10.161  16.930  14.271  0.2902  0.0568  0.4525
 2924DPPE   C3B56951  10.295  17.014  14.699 -0.0883 -0.1309 -0.0082
 2924DPPE   C4B56952  10.257  17.184  15.140 -0.0198  0.1267  0.2061
 2925DPPE   NH356953  21.097  21.372  15.360 -0.1177  0.2493  0.0041
 2925DPPE   PO456954  20.748  21.637  15.284 -0.1296  0.0670  0.0200
 2925DPPE   GL156955  20.432  21.679  15.632  0.0782 -0.0140  0.3712
 2925DPPE   GL256956  20.364  21.363  15.532  0.2580  0.2500  0.3526
 2925DPPE   C1A56957  20.256  21.912  16.009  0.1474 -0.0425  0.0011
 2925DPPE   C2A56958  20.077  21.990  16.386  0.0128  0.0983 -0.1199
 2925DPPE   C3A56959  20.017  22.203  16.744 -0.4131  0.1722 -0.3581
 2925DPPE   C4A56960  20.044  22.584  17.002 -0.0715 -0.1797  0.1522
 2925DPPE   C1B56961  19.983  21.370  15.617 -0.2039 -0.0238  0.0642
 2925DPPE   C2B56962  19.493  21.198  15.683 -0.1243 -0.0112  0.1300
 2925DPPE   C3B56963  19.024  21.460  15.733  0.2053  0.0003  0.2968
 2925DPPE   C4B56964  18.689  21.689  15.726 -0.0330  0.1235  0.1255
 2926DPPE   NH356965  21.953  15.068  13.677 -0.3381 -0.1322 -0.3527
 2926DPPE   PO456966  22.118  15.459  13.889 -0.2447  0.1872  0.0363
 2926DPPE   GL156967  21.885  15.405  14.182  0.0409  0.1409  0.0393
 2926DPPE   GL256968  21.704  15.640  14.194 -0.0644 -0.1238  0.1548
 2926DPPE   C1A56969  21.872  15.366  14.623 -0.1395  0.2023 -0.0851
 2926DPPE   C2A56970  21.905  15.498  14.975 -0.0926  0.2144  0.0523
 2926DPPE   C3A56971  22.197  15.476  15.332 -0.0513  0.2788 -0.2805
 2926DPPE   C4A56972  22.556  15.435  15.695 -0.1739  0.1746 -0.0531
 2926DPPE   C1B56973  21.340  15.680  14.520  0.1750  0.1588 -0.0034
 2926DPPE   C2B56974  21.118  15.796  14.795  0.1131  0.0193 -0.1698
 2926DPPE   C3B56975  20.804  15.975  14.957  0.0898 -0.1641 -0.0275
 2926DPPE   C4B56976  20.507  16.078  15.298  0.0203 -0.1034 -0.1487
 2927DPPE   NH356977  17.144  21.834  12.417 -0.0568  0.0488  0.3554
 2927DPPE   PO456978  16.727  21.716  12.476  0.0484  0.2194  0.2062
 2927DPPE   GL156979  16.646  21.843  12.926 -0.1487  0.4319 -0.2306
 2927DPPE   GL256980  16.755  21.606  13.169  0.1075 -0.0702 -0.2608
 2927DPPE   C1A56981  16.222  21.874  13.201 -0.0794 -0.1375  0.1548
 2927DPPE   C2A56982  15.995  21.569  13.578 -0.1936  0.0240 -0.3955
 2927DPPE   C3A56983  16.236  21.521  13.939  0.0540  0.0529 -0.2316
 2927DPPE   C4A56984  16.600  21.684  14.028 -0.2856  0.4642 -0.1255
 2927DPPE   C1B56985  16.560  21.711  13.547 -0.1629  0.1450  0.1163
 2927DPPE   C2B56986  16.252  22.060  13.723 -0.0869  0.0860 -0.3101
 2927DPPE   C3B56987  15.979  22.322  13.968  0.0827 -0.2632 -0.0733
 2927DPPE   C4B56988  15.741  22.424  14.336  0.0831 -0.3828 -0.0295
 2928DPPE   NH356989  16.063   7.459  14.627 -0.0514 -0.1104  0.1608
 2928DPPE   PO456990  16.366   7.841  14.501  0.1378 -0.0949 -0.0234
 2928DPPE   GL156991  16.266   7.812  14.942  0.6072 -0.1197  0.0552
 2928DPPE   GL256992  16.077   7.560  15.101 -0.2336 -0.0094 -0.0139
 2928DPPE   C1A56993  16.168   8.014  15.409  0.1085  0.0035 -0.2501
 2928DPPE   C2A56994  16.026   8.184  15.771  0.0500 -0.0536  0.1120
 2928DPPE   C3A56995  15.613   8.300  15.972  0.1641  0.4791  0.0192
 2928DPPE   C4A56996  15.234   8.164  15.750 -0.2209  0.1575 -0.4162
 2928DPPE   C1B56997  16.024   7.598  15.527 -0.1661 -0.0612 -0.2163
 2928DPPE   C2B56998  15.690   7.797  15.706  0.0234  0.2835  0.0459
 2928DPPE   C3B56999  15.443   7.745  15.985  0.0085  0.1272  0.1876
 2928DPPE   C4B57000  15.401   7.335  16.003 -0.0298 -0.1765  0.1180
 2929DPPE   NH357001  16.051  14.040  12.059  0.2707  0.1947 -0.2072
 2929DPPE   PO457002  16.070  14.373  12.417 -0.2779 -0.3554 -0.0400
 2929DPPE   GL157003  16.018  14.557  12.853  0.0723  0.2633 -0.2016
 2929DPPE   GL257004  16.156  14.241  13.149 -0.0085  0.1812 -0.0336
 2929DPPE   C1A57005  16.358  14.744  13.097  0.2038 -0.0180  0.2937
 2929DPPE   C2A57006  16.539  15.072  13.104  0.0584 -0.2088 -0.1524
 2929DPPE   C3A57007  16.784  15.407  13.250 -0.0974 -0.4162  0.2158
 2929DPPE   C4A57008  16.810  15.818  13.152  0.0984  0.1971 -0.1099
 2929DPPE   C1B57009  16.159  14.463  13.452  0.0651  0.1823 -0.3892
 2929DPPE   C2B57010  16.302  14.380  13.763 -0.2062 -0.0646 -0.0502
 2929DPPE   C3B57011  16.095  14.521  14.170  0.3900 -0.3034 -0.0805
 2929DPPE   C4B57012  15.819  14.776  14.389  0.2289  0.2459 -0.0021
 2930DPPE   NH357013  21.260  11.080  14.688 -0.2421 -0.1790  0.2530
 2930DPPE   PO457014  21.043  11.308  14.537  0.2181  0.0028  0.1553
 2930DPPE   GL157015  21.039  11.474  14.911 -0.0713 -0.2644 -0.4107
 2930DPPE   GL257016  20.847  11.713  14.948 -0.1610  0.2403  0.3502
 2930DPPE   C1A57017  20.879  11.442  15.410  0.1338  0.0115 -0.1233
 2930DPPE   C2A57018  20.667  11.670  15.843  0.1153  0.3270  0.0287
 2930DPPE   C3A57019  20.452  11.538  16.220 -0.1866  0.1325  0.1430
 2930DPPE   C4A57020  20.066  11.267  16.305  0.1975  0.1313 -0.0812
 2930DPPE   C1B57021  20.410  11.908  15.150  0.0438 -0.0481 -0.1265
 2930DPPE   C2B57022  19.954  12.186  15.153 -0.1984  0.4052  0.0558
 2930DPPE   C3B57023  19.554  12.357  15.274  0.1058 -0.2078 -0.1659
 2930DPPE   C4B57024  19.225  12.524  15.269 -0.0342 -0.1511  0.0330
 2931DPPE   NH357025  21.663  18.126  13.802 -0.0802 -0.0044 -0.0287
 2931DPPE   PO457026  21.437  18.110  13.575  0.0163  0.2904 -0.1128
 2931DPPE   GL157027  21.080  18.178  13.933  0.1383  0.0223  0.0748
 2931DPPE   GL257028  20.941  17.852  13.908  0.0448 -0.0555  0.2349
 2931DPPE   C1A57029  20.814  18.141  14.292  0.1078  0.3137 -0.1529
 2931DPPE   C2A57030  20.466  18.062  14.623 -0.0194  0.2828 -0.1355
 2931DPPE   C3A57031  20.434  17.936  15.066  0.2123 -0.0783 -0.0362
 2931DPPE   C4A57032  20.084  17.874  15.453 -0.2367 -0.3298 -0.0323
 2931DPPE   C1B57033  21.094  17.666  14.205 -0.0856 -0.2921 -0.3960
 2931DPPE   C2B57034  21.063  17.815  14.663 -0.4733 -0.3137 -0.4733
 2931DPPE   C3B57035  20.975  17.720  15.125  0.2151 -0.2792  0.0195
 2931DPPE   C4B57036  20.835  18.113  15.359  0.2474 -0.0062 -0.0435
 2932DPPE   NH357037  13.936  18.939  12.681  0.1752 -0.1030  0.0131
 2932DPPE   PO457038  14.082  19.318  12.808  0.0589 -0.0967  0.1065
 2932DPPE   GL157039  14.004  19.348  13.168 -0.0251 -0.0599 -0.1376
 2932DPPE   GL257040  14.238  19.426  13.450 -0.0696  0.2785 -0.0148
 2932DPPE   C1A57041  13.952  18.999  13.472 -0.1851  0.0924 -0.3523
 2932DPPE   C2A57042  14.005  19.052  13.941 -0.1354 -0.0802 -0.0141
 2932DPPE   C3A57043  14.054  18.741  14.351  0.0243 -0.0742 -0.0854
 2932DPPE   C4A57044  13.812  18.314  14.350 -0.3583 -0.0138 -0.0555
 2932DPPE   C1B57045  13.980  19.575  13.775 -0.0549 -0.3718 -0.0571
 2932DPPE   C2B57046  13.614  19.655  14.156  0.0394 -0.2836 -0.2053
 2932DPPE   C3B57047  13.255  19.533  14.311 -0.0443 -0.0929 -0.1944
 2932DPPE   C4B57048  12.936  19.407  14.061  0.0181  0.2070  0.1262
 2933DPPE   NH357049  19.658  20.131  13.034 -0.4506  0.2047  0.3144
 2933DPPE   PO457050  19.420  20.005  12.698 -0.0432 -0.1544 -0.1364
 2933DPPE   GL157051  19.095  19.951  13.014  0.2449  0.2289  0.3493
 2933DPPE   GL257052  19.067  19.650  13.266 -0.0931  0.1381 -0.2132
 2933DPPE   C1A57053  18.917  20.106  13.380  0.4317 -0.0459  0.0264
 2933DPPE   C2A57054  18.834  20.542  13.568  0.1493 -0.1063 -0.2044
 2933DPPE   C3A57055  18.801  21.088  13.676 -0.0012  0.2563  0.0046
 2933DPPE   C4A57056  19.012  21.502  13.874 -0.1207  0.2033  0.3108
 2933DPPE   C1B57057  18.949  19.261  13.410 -0.2046 -0.2422 -0.1206
 2933DPPE   C2B57058  18.645  19.165  13.671 -0.2096  0.0604  0.0409
 2933DPPE   C3B57059  18.506  19.285  14.108 -0.0521  0.0120  0.0462
 2933DPPE   C4B57060  18.485  19.762  14.160  0.1452 -0.0930 -0.3110
 2934DPPE   NH357061   9.011  16.066  13.436  0.0583 -0.0291  0.0733
 2934DPPE   PO457062   9.406  16.174  13.204  0.1639 -0.2865 -0.1350
 2934DPPE   GL157063   9.856  16.180  13.483  0.0311  0.2438  0.1604
 2934DPPE   GL257064   9.901  16.415  13.790  0.0985 -0.0419 -0.1716
 2934DPPE   C1A57065  10.201  16.489  13.380 -0.2052 -0.0690 -0.0543
 2934DPPE   C2A57066  10.574  16.634  13.588 -0.2577 -0.2354  0.0875
 2934DPPE   C3A57067  10.728  16.628  13.925 -0.2570 -0.2369 -0.2008
 2934DPPE   C4A57068  10.989  16.663  14.304 -0.0996 -0.0517 -0.4610
 2934DPPE   C1B57069  10.236  16.401  13.898 -0.0878  0.1161 -0.1921
 2934DPPE   C2B57070  10.455  16.447  14.270  0.2333 -0.0016 -0.1386
 2934DPPE   C3B57071  10.577  16.596  14.594  0.1125 -0.2206  0.2272
 2934DPPE   C4B57072  10.834  16.745  14.846 -0.0291  0.2167 -0.0156
 2935DPPE   NH357073   4.463  22.765  16.870 -0.1492 -0.0496  0.0867
 2935DPPE   PO457074   4.797  23.045  16.713  0.0402  0.0849  0.2263
 2935DPPE   GL157075   5.113  22.795  16.605 -0.0586  0.0509 -0.2395
 2935DPPE   GL257076   5.356  22.822  16.808 -0.2152 -0.1119 -0.2012
 2935DPPE   C1A57077   5.390  22.354  16.500  0.0042  0.0651  0.0717
 2935DPPE   C2A57078   5.308  21.871  16.405 -0.1730 -0.2771  0.0479
 2935DPPE   C3A57079   5.297  21.453  16.319  0.1328 -0.1813 -0.2402
 2935DPPE   C4A57080   5.203  21.001  16.038 -0.2090 -0.1347 -0.1750
 2935DPPE   C1B57081   5.712  23.019  17.074 -0.0605 -0.0796  0.0947
 2935DPPE   C2B57082   6.123  23.091  17.260 -0.0202 -0.2059  0.0492
 2935DPPE   C3B57083   6.448  22.888  17.420  0.1712 -0.0258  0.1031
 2935DPPE   C4B57084   6.552  22.909  17.897 -0.1092  0.1546  0.0312
 2936DPPE   NH357085  11.731  22.352  13.181 -0.3650  0.1419  0.0671
 2936DPPE   PO457086  12.049  22.099  13.360  0.0973  0.1600 -0.0372
 2936DPPE   GL157087  12.367  21.984  13.603 -0.1250 -0.1405 -0.0507
 2936DPPE   GL257088  12.461  22.269  13.665 -0.1605  0.0728 -0.1221
 2936DPPE   C1A57089  12.708  21.909  13.945 -0.0748 -0.0637  0.2952
 2936DPPE   C2A57090  13.018  21.791  14.247  0.3969 -0.0243 -0.3295
 2936DPPE   C3A57091  13.181  21.892  14.750 -0.2037 -0.0275  0.4552
 2936DPPE   C4A57092  13.307  22.129  15.025  0.0038 -0.2633 -0.4227
 2936DPPE   C1B57093  12.520  22.420  14.110 -0.3276 -0.2254  0.1704
 2936DPPE   C2B57094  12.371  22.240  14.447 -0.0819 -0.2145 -0.1426
 2936DPPE   C3B57095  12.046  22.329  14.739  0.0203  0.3360  0.2917
 2936DPPE   C4B57096  11.658  22.132  14.845 -0.1146 -0.1663 -0.0251
 2937DPPE   NH357097  15.195  17.452  12.193  0.1234 -0.2012 -0.0126
 2937DPPE   PO457098  15.102  17.815  11.989 -0.1581  0.0911 -0.1780
 2937DPPE   GL157099  15.153  17.939  12.513 -0.1386 -0.2059  0.0080
 2937DPPE   GL257100  15.188  18.256  12.527  0.1930  0.0208  0.0157
 2937DPPE   C1A57101  14.821  17.676  12.794  0.0072  0.1125 -0.0832
 2937DPPE   C2A57102  14.574  17.613  13.125 -0.0882  0.0306  0.0753
 2937DPPE   C3A57103  14.347  17.474  13.388 -0.2287  0.1325  0.2850
 2937DPPE   C4A57104  14.027  17.175  13.575 -0.1058  0.0269 -0.2803
 2937DPPE   C1B57105  15.240  18.080  12.940 -0.1164 -0.2924  0.0795
 2937DPPE   C2B57106  15.055  17.872  13.267  0.0064  0.0899 -0.0075
 2937DPPE   C3B57107  14.840  17.733  13.488  0.2465 -0.0897 -0.1691
 2937DPPE   C4B57108  14.665  17.415  13.729  0.0943 -0.4109 -0.0492
 2938DPPE   NH357109   8.597  20.605  13.554 -0.2001  0.2172 -0.2249
 2938DPPE   PO457110   8.138  20.761  13.821 -0.1399  0.0409  0.2192
 2938DPPE   GL157111   8.222  20.704  14.246 -0.1119  0.2191  0.0535
 2938DPPE   GL257112   7.954  20.557  14.474  0.0102  0.2299  0.1542
 2938DPPE   C1A57113   8.404  20.450  14.572  0.1027  0.0038  0.1819
 2938DPPE   C2A57114   8.523  20.515  15.000  0.1420  0.4179 -0.2227
 2938DPPE   C3A57115   8.619  20.958  15.050  0.1525 -0.1427  0.1736
 2938DPPE   C4A57116   8.676  21.290  14.783 -0.0372  0.1351 -0.0788
 2938DPPE   C1B57117   7.985  20.683  14.818 -0.1345 -0.0506 -0.0567
 2938DPPE   C2B57118   8.130  20.786  15.192  0.0278 -0.5041 -0.1226
 2938DPPE   C3B57119   8.384  20.793  15.609 -0.2385 -0.1905  0.1112
 2938DPPE   C4B57120   8.217  20.596  15.978  0.0180  0.3848  0.1860
 2939DPPE   NH357121  19.894  19.190  13.094 -0.3209 -0.2887  0.0262
 2939DPPE   PO457122  19.460  19.032  12.774  0.2804  0.0034 -0.0592
 2939DPPE   GL157123  19.479  18.814  13.166  0.4441  0.0635 -0.1636
 2939DPPE   GL257124  19.255  18.857  13.383 -0.0072 -0.0494  0.0791
 2939DPPE   C1A57125  19.548  18.485  13.418  0.0913  0.3267 -0.2353
 2939DPPE   C2A57126  19.613  17.957  13.543  0.3739 -0.1875  0.0980
 2939DPPE   C3A57127  19.339  17.705  13.819  0.1722 -0.0291  0.2295
 2939DPPE   C4A57128  19.148  17.322  13.835 -0.1342 -0.0299  0.1499
 2939DPPE   C1B57129  19.085  18.698  13.761 -0.1239 -0.0633  0.0359
 2939DPPE   C2B57130  18.876  18.966  14.074 -0.0706 -0.0913  0.1670
 2939DPPE   C3B57131  18.710  18.838  14.483  0.1514 -0.0965  0.1646
 2939DPPE   C4B57132  18.465  18.761  14.835 -0.0586  0.1870 -0.0583
 2940DPPE   NH357133  16.949  10.913  13.232 -0.0843  0.0502 -0.0389
 2940DPPE   PO457134  17.169  10.468  13.388 -0.1710  0.3233 -0.0648
 2940DPPE   GL157135  16.953  10.728  13.692 -0.0293  0.3581  0.0891
 2940DPPE   GL257136  17.171  10.895  13.880  0.0604  0.0764 -0.0560
 2940DPPE   C1A57137  16.709  10.831  13.963  0.2715 -0.1405  0.3335
 2940DPPE   C2A57138  16.580  10.906  14.316 -0.1025 -0.0707 -0.1282
 2940DPPE   C3A57139  16.553  10.950  14.821  0.1195  0.0021  0.0874
 2940DPPE   C4A57140  16.729  10.793  15.254  0.2060  0.2359  0.0524
 2940DPPE   C1B57141  17.089  10.544  14.199  0.2607 -0.0877  0.4142
 2940DPPE   C2B57142  17.031  10.097  14.209 -0.4064 -0.0079  0.0762
 2940DPPE   C3B57143  16.629   9.916  14.314  0.2775  0.1969 -0.1470
 2940DPPE   C4B57144  16.330  10.050  14.567  0.0694 -0.0807 -0.1657
 2941DPPE   NH357145  14.460  24.625  13.451 -0.1235 -0.0734  0.0462
 2941DPPE   PO457146  14.870  24.425  13.236  0.0307 -0.1780  0.1087
 2941DPPE   GL157147  14.944  24.278  13.667 -0.2883  0.1780 -0.0907
 2941DPPE   GL257148  14.736  24.120  13.691  0.0658 -0.2073  0.0370
 2941DPPE   C1A57149  15.028  24.425  13.919  0.0586  0.1118  0.0224
 2941DPPE   C2A57150  14.957  24.711  14.307  0.0091 -0.0658  0.0856
 2941DPPE   C3A57151  14.853  25.020  14.667  0.1001  0.2013  0.0158
 2941DPPE   C4A57152  14.558  25.290  14.998 -0.3710 -0.1443 -0.1974
 2941DPPE   C1B57153  14.847  23.949  14.046 -0.2573 -0.0311 -0.0894
 2941DPPE   C2B57154  14.735  23.883  14.370 -0.1619  0.3671 -0.0913
 2941DPPE   C3B57155  14.728  23.635  14.606 -0.0197 -0.1307  0.3539
 2941DPPE   C4B57156  14.676  23.256  14.566  0.0198 -0.2188  0.1449
 2942DPPE   NH357157  16.069  25.762  13.931  0.0142 -0.3433  0.0592
 2942DPPE   PO457158  16.108  25.382  13.740  0.0890 -0.0609 -0.0466
 2942DPPE   GL157159  15.896  25.209  14.034 -0.0257  0.1030 -0.0347
 2942DPPE   GL257160  15.610  25.444  14.154  0.1239  0.2385  0.3019
 2942DPPE   C1A57161  15.743  24.848  14.251 -0.1070  0.0576 -0.0214
 2942DPPE   C2A57162  15.751  24.511  14.435 -0.2687  0.1936 -0.3077
 2942DPPE   C3A57163  15.521  24.280  14.711 -0.0048 -0.1300 -0.0064
 2942DPPE   C4A57164  15.367  24.191  14.986  0.2690  0.0537 -0.1406
 2942DPPE   C1B57165  15.326  25.208  14.474  0.1005  0.1155  0.2881
 2942DPPE   C2B57166  15.320  24.744  14.720  0.1123  0.1136 -0.0123
 2942DPPE   C3B57167  15.056  24.689  15.118  0.0014 -0.0287 -0.1368
 2942DPPE   C4B57168  14.988  24.518  15.455  0.3884 -0.1132 -0.1942
 2943DPPE   NH357169  12.054  19.189  12.073  0.2576  0.3058 -0.2251
 2943DPPE   PO457170  11.862  19.153  12.595 -0.2795  0.0644 -0.2050
 2943DPPE   GL157171  11.781  18.967  13.034 -0.1141 -0.0331 -0.0892
 2943DPPE   GL257172  12.000  19.167  13.235 -0.0804  0.0728 -0.0974
 2943DPPE   C1A57173  11.639  18.976  13.498 -0.2667  0.2906 -0.3398
 2943DPPE   C2A57174  11.601  19.306  13.722  0.0545 -0.2629 -0.1050
 2943DPPE   C3A57175  11.607  19.580  14.173 -0.2784 -0.4656  0.1860
 2943DPPE   C4A57176  11.974  19.800  14.388 -0.0710  0.0656 -0.0868
 2943DPPE   C1B57177  12.112  18.997  13.645  0.0887  0.1137  0.0255
 2943DPPE   C2B57178  11.980  19.180  14.058 -0.2884 -0.0845 -0.0996
 2943DPPE   C3B57179  11.970  19.282  14.446  0.3951  0.1614  0.1510
 2943DPPE   C4B57180  11.882  19.420  14.795  0.2915 -0.2317  0.0826
 2944DPPE   NH357181  18.629  17.844  12.792  0.0110 -0.0631 -0.0307
 2944DPPE   PO457182  18.579  18.236  12.813 -0.2057  0.0429 -0.0336
 2944DPPE   GL157183  18.443  18.009  13.237  0.1263 -0.1602 -0.3409
 2944DPPE   GL257184  18.407  17.630  13.374 -0.3158  0.0544 -0.0765
 2944DPPE   C1A57185  18.576  18.166  13.577  0.2060  0.2570 -0.1981
 2944DPPE   C2A57186  18.286  17.964  13.849 -0.3197  0.2743  0.1637
 2944DPPE   C3A57187  18.260  17.570  14.003  0.0406 -0.1646  0.0857
 2944DPPE   C4A57188  18.118  17.154  13.989  0.3117  0.0809 -0.0327
 2944DPPE   C1B57189  18.385  17.166  13.433  0.1882 -0.2749  0.2027
 2944DPPE   C2B57190  18.615  16.677  13.419 -0.1590 -0.0249 -0.1475
 2944DPPE   C3B57191  18.966  16.366  13.645 -0.0259 -0.3028  0.1604
 2944DPPE   C4B57192  19.226  16.380  14.037  0.1859 -0.1737 -0.0069
 2945DPPE   NH357193  22.046  10.751  18.166 -0.0519  0.1328  0.0879
 2945DPPE   PO457194  21.947  10.323  18.302 -0.2535  0.1252 -0.1015
 2945DPPE   GL157195  21.502  10.482  18.322  0.0130 -0.1148  0.0973
 2945DPPE   GL257196  21.522  10.592  18.580  0.0313  0.0985  0.1282
 2945DPPE   C1A57197  21.373  10.870  18.162 -0.2793 -0.1204  0.0890
 2945DPPE   C2A57198  21.063  11.243  18.212 -0.0672  0.3396 -0.0240
 2945DPPE   C3A57199  20.944  11.615  18.330 -0.2898 -0.1035 -0.0796
 2945DPPE   C4A57200  21.095  11.993  18.031 -0.1731  0.0654  0.1169
 2945DPPE   C1B57201  21.026  10.641  18.517  0.0123  0.0123 -0.2453
 2945DPPE   C2B57202  20.555  10.530  18.605 -0.3374  0.2679 -0.0732
 2945DPPE   C3B57203  20.243  10.456  18.394  0.5334  0.1954  0.1404
 2945DPPE   C4B57204  19.871  10.430  18.192 -0.1896  0.0723 -0.0078
 2946DPPE   NH357205   7.259  23.285  14.459 -0.0368 -0.0915  0.2318
 2946DPPE   PO457206   6.904  23.027  14.332  0.0160  0.0688  0.0502
 2946DPPE   GL157207   6.928  22.826  14.648 -0.0554  0.0288  0.2771
 2946DPPE   GL257208   6.747  22.773  14.864  0.1360  0.1225  0.0578
 2946DPPE   C1A57209   7.134  22.623  15.069 -0.2231 -0.1162  0.1411
 2946DPPE   C2A57210   7.601  22.478  15.160  0.0666 -0.2766  0.1887
 2946DPPE   C3A57211   7.832  22.201  15.355  0.0551  0.2286 -0.2117
 2946DPPE   C4A57212   7.963  22.134  15.836  0.0510  0.2593 -0.1302
 2946DPPE   C1B57213   6.637  22.593  15.343  0.1871 -0.1195  0.1004
 2946DPPE   C2B57214   6.509  22.710  15.707 -0.0979 -0.2242 -0.1088
 2946DPPE   C3B57215   6.121  22.635  15.965  0.1003  0.1743  0.0750
 2946DPPE   C4B57216   6.161  22.680  16.439  0.1596 -0.0541  0.1384
 2947DPPE   NH357217  13.474  28.273  17.965 -0.1339  0.1720  0.2052
 2947DPPE   PO457218  13.085  28.331  17.863  0.1497 -0.0719 -0.0920
 2947DPPE   GL157219  13.092  27.844  17.796 -0.0428  0.3013 -0.0228
 2947DPPE   GL257220  13.335  27.665  17.622  0.1024  0.1490  0.2649
 2947DPPE   C1A57221  12.843  27.372  17.669 -0.2777  0.4275 -0.3594
 2947DPPE   C2A57222  12.739  26.962  17.403  0.1171 -0.0597  0.0637
 2947DPPE   C3A57223  12.621  26.553  17.156  0.1340  0.0392  0.0866
 2947DPPE   C4A57224  12.521  26.131  17.178 -0.4207  0.1027  0.0521
 2947DPPE   C1B57225  13.536  27.277  17.679  0.0323 -0.0478  0.1116
 2947DPPE   C2B57226  13.791  26.999  17.917 -0.3982 -0.0565 -0.1856
 2947DPPE   C3B57227  14.250  26.889  18.017 -0.2255 -0.0704  0.3604
 2947DPPE   C4B57228  14.631  26.621  18.125  0.1670  0.1065 -0.0312
 2948DPPE   NH357229  12.614   8.998  13.059 -0.1325 -0.1954 -0.2703
 2948DPPE   PO457230  12.416   9.059  13.366 -0.0508 -0.0271  0.2515
 2948DPPE   GL157231  12.618   9.189  13.815  0.0060  0.1466 -0.0364
 2948DPPE   GL257232  12.618   9.524  13.961  0.1805 -0.2539 -0.0834
 2948DPPE   C1A57233  12.506   9.120  14.221 -0.1706 -0.0373 -0.0340
 2948DPPE   C2A57234  12.547   9.066  14.569 -0.1202  0.2564  0.1557
 2948DPPE   C3A57235  12.918   9.221  14.849  0.0338 -0.1076 -0.0051
 2948DPPE   C4A57236  13.394   9.074  14.841  0.0812 -0.5302  0.1298
 2948DPPE   C1B57237  12.868   9.783  14.051 -0.0263 -0.0522 -0.0964
 2948DPPE   C2B57238  13.064  10.009  14.431  0.0447  0.0097  0.2208
 2948DPPE   C3B57239  12.787  10.081  14.796  0.1067 -0.1474  0.0815
 2948DPPE   C4B57240  12.984  10.439  14.890 -0.0140  0.2503 -0.0352
 2949DPPE   NH357241  18.573  12.225  13.214  0.0496  0.1097  0.1518
 2949DPPE   PO457242  18.582  12.695  13.143  0.0867  0.0557  0.1787
 2949DPPE   GL157243  18.571  12.645  13.571  0.0783  0.2205 -0.0333
 2949DPPE   GL257244  18.810  12.521  13.731  0.2149 -0.0188  0.3463
 2949DPPE   C1A57245  18.629  12.872  14.019 -0.0811 -0.4053  0.2378
 2949DPPE   C2A57246  18.471  13.184  14.329  0.3526  0.2315  0.1751
 2949DPPE   C3A57247  18.353  13.526  14.374 -0.1825 -0.0933  0.1124
 2949DPPE   C4A57248  18.205  13.794  14.723 -0.0974  0.1921 -0.1168
 2949DPPE   C1B57249  18.936  12.490  14.140  0.0181 -0.1830 -0.3438
 2949DPPE   C2B57250  18.729  12.458  14.502 -0.0380 -0.2782 -0.0240
 2949DPPE   C3B57251  18.481  12.415  14.901  0.0882  0.3435 -0.0603
 2949DPPE   C4B57252  18.328  12.203  15.207  0.1312  0.1666 -0.0989
 2950DPPE   NH357253  20.058  20.024  13.591 -0.0794  0.2624  0.0024
 2950DPPE   PO457254  19.911  20.444  13.521  0.2022  0.1503 -0.1820
 2950DPPE   GL157255  19.673  20.422  13.833 -0.4746  0.0199  0.1734
 2950DPPE   GL257256  19.786  20.162  14.006  0.0853  0.3838  0.1450
 2950DPPE   C1A57257  19.279  20.377  13.810 -0.0038  0.0276 -0.0838
 2950DPPE   C2A57258  18.963  20.231  14.037  0.0451 -0.0482 -0.1382
 2950DPPE   C3A57259  18.943  19.764  14.215  0.0868 -0.2466  0.0680
 2950DPPE   C4A57260  18.845  19.520  14.522  0.0334  0.5308  0.0508
 2950DPPE   C1B57261  19.469  20.142  14.276 -0.0132  0.0243 -0.1496
 2950DPPE   C2B57262  19.260  20.098  14.578 -0.0048  0.0997 -0.2729
 2950DPPE   C3B57263  18.871  19.944  14.797  0.1135  0.0382 -0.0256
 2950DPPE   C4B57264  18.614  19.719  15.055  0.0596 -0.2112  0.1625
 2951DPPE   NH357265  15.519  21.450  12.793  0.2318 -0.1951  0.1914
 2951DPPE   PO457266  15.131  21.600  12.993  0.1475  0.2885 -0.2246
 2951DPPE   GL157267  15.357  21.315  13.350  0.2361 -0.3326  0.0301
 2951DPPE   GL257268  15.091  21.313  13.530 -0.0572  0.0413 -0.0648
 2951DPPE   C1A57269  15.621  21.297  13.717 -0.3488 -0.4276 -0.3432
 2951DPPE   C2A57270  15.750  21.159  14.135  0.2089  0.0935  0.4388
 2951DPPE   C3A57271  15.622  21.016  14.579 -0.0700 -0.3914 -0.0391
 2951DPPE   C4A57272  15.831  20.561  14.653 -0.2294 -0.2158 -0.2728
 2951DPPE   C1B57273  15.159  21.295  13.977  0.0134 -0.0865 -0.2564
 2951DPPE   C2B57274  15.269  20.948  14.167  0.4292 -0.1680 -0.2110
 2951DPPE   C3B57275  15.155  20.987  14.542  0.0703 -0.1661  0.0768
 2951DPPE   C4B57276  14.812  20.942  14.816  0.1305  0.0075 -0.1435
 2952DPPE   NH357277  22.229  15.838  14.207  0.2189  0.2178  0.0304
 2952DPPE   PO457278  22.498  15.870  14.517 -0.0780 -0.0623 -0.3192
 2952DPPE   GL157279  22.490  15.542  14.878 -0.0265 -0.2125  0.2518
 2952DPPE   GL257280  22.742  15.507  15.095  0.1662 -0.0922 -0.0959
 2952DPPE   C1A57281  22.197  15.104  15.027 -0.2224  0.1359 -0.1339
 2952DPPE   C2A57282  21.880  15.089  15.295 -0.2214 -0.1042  0.0767
 2952DPPE   C3A57283  21.484  14.864  15.460  0.2829  0.0916 -0.2269
 2952DPPE   C4A57284  21.126  14.864  15.187 -0.0581 -0.0205 -0.3532
 2952DPPE   C1B57285  22.625  15.855  15.433 -0.0005 -0.3435 -0.0215
 2952DPPE   C2B57286  22.561  16.300  15.584  0.5814  0.0650  0.1616
 2952DPPE   C3B57287  22.249  16.588  15.432  0.0261  0.2854  0.0095
 2952DPPE   C4B57288  22.050  16.920  15.173 -0.0493  0.0818  0.4240
 2953DPPE   NH357289   9.690  12.885  13.137 -0.3246 -0.1300 -0.1807
 2953DPPE   PO457290   9.493  12.719  13.563 -0.0977  0.3784 -0.2005
 2953DPPE   GL157291   9.431  12.913  13.931  0.0365 -0.1328 -0.0407
 2953DPPE   GL257292   9.222  13.163  13.963  0.2696  0.3141 -0.0136
 2953DPPE   C1A57293   9.261  12.736  14.315 -0.0628  0.3179 -0.1240
 2953DPPE   C2A57294   9.042  12.872  14.702 -0.2719  0.2420 -0.5299
 2953DPPE   C3A57295   8.758  12.992  15.010  0.1986  0.2688 -0.2054
 2953DPPE   C4A57296   8.474  13.277  14.892  0.1435 -0.1353 -0.0065
 2953DPPE   C1B57297   9.325  13.217  14.373 -0.1397 -0.0598 -0.3222
 2953DPPE   C2B57298   9.530  12.902  14.694 -0.0264 -0.0678  0.0894
 2953DPPE   C3B57299   9.705  12.781  14.997 -0.1053  0.2258 -0.0906
 2953DPPE   C4B57300   9.882  12.956  15.404  0.0756  0.5316  0.2297
 2954DPPE   NH357301  14.933  16.472  12.038 -0.0633 -0.1103 -0.3841
 2954DPPE   PO457302  14.481  16.314  12.190 -0.0473  0.2279  0.1504
 2954DPPE   GL157303  14.530  16.156  12.658  0.2212 -0.0858  0.0496
 2954DPPE   GL257304  14.204  16.008  12.742 -0.2032  0.0705  0.0871
 2954DPPE   C1A57305  14.763  16.110  13.044  0.2439  0.2288 -0.0212
 2954DPPE   C2A57306  15.021  16.068  13.443 -0.2675  0.1737  0.3192
 2954DPPE   C3A57307  15.265  16.034  13.756 -0.0504 -0.0800 -0.0206
 2954DPPE   C4A57308  15.386  16.140  14.198  0.0549 -0.0426  0.0906
 2954DPPE   C1B57309  14.226  16.417  13.012 -0.1367  0.1365 -0.2130
 2954DPPE   C2B57310  14.259  16.480  13.448  0.2574  0.4632  0.1933
 2954DPPE   C3B57311  14.436  16.465  13.859  0.0675 -0.0338 -0.1099
 2954DPPE   C4B57312  14.496  16.701  14.343  0.0108 -0.0041 -0.0343
 2955DPPE   NH357313  10.711  11.167  13.303  0.0345  0.1302 -0.1713
 2955DPPE   PO457314  11.079  11.018  13.229 -0.2509 -0.2286 -0.0868
 2955DPPE   GL157315  11.146  11.374  13.479 -0.1695 -0.1401 -0.0757
 2955DPPE   GL257316  11.018  11.129  13.731 -0.1233  0.0127 -0.4265
 2955DPPE   C1A57317  11.037  11.810  13.739 -0.0599 -0.1458  0.3764
 2955DPPE   C2A57318  11.138  11.996  14.112 -0.2803  0.1785 -0.0267
 2955DPPE   C3A57319  11.401  12.138  14.322  0.0518  0.1745 -0.1294
 2955DPPE   C4A57320  11.702  11.989  14.550 -0.5795 -0.2566  0.1437
 2955DPPE   C1B57321  11.162  11.388  14.047  0.0778 -0.1500 -0.1738
 2955DPPE   C2B57322  11.293  11.509  14.448  0.1509  0.1748 -0.1851
 2955DPPE   C3B57323  11.204  11.813  14.718  0.0265 -0.0743 -0.1690
 2955DPPE   C4B57324  11.089  11.902  15.134 -0.1024 -0.0931  0.0061
 2956DPPE   NH357325  20.708  17.490  13.054  0.0224 -0.0687 -0.0006
 2956DPPE   PO457326  21.097  17.575  13.483 -0.2121 -0.0712  0.4491
 2956DPPE   GL157327  20.840  17.246  13.838 -0.1875 -0.1345 -0.0112
 2956DPPE   GL257328  21.056  17.043  14.014 -0.0219 -0.3388  0.4740
 2956DPPE   C1A57329  20.565  17.406  14.164 -0.3108 -0.2527 -0.0853
 2956DPPE   C2A57330  20.332  17.778  14.190 -0.0626  0.3508 -0.0657
 2956DPPE   C3A57331  20.009  18.057  14.387 -0.1538 -0.1264  0.2487
 2956DPPE   C4A57332  19.682  18.356  14.497 -0.2269 -0.5376  0.1013
 2956DPPE   C1B57333  20.959  16.905  14.353  0.2871 -0.3406 -0.0022
 2956DPPE   C2B57334  20.668  16.706  14.677  0.2360 -0.2988  0.0492
 2956DPPE   C3B57335  20.557  16.436  14.923  0.0457  0.0593  0.2901
 2956DPPE   C4B57336  20.327  16.590  15.233  0.1339 -0.2725 -0.2624
 2957DPPE   NH357337  13.116   7.616  14.398  0.0250  0.1810 -0.1046
 2957DPPE   PO457338  12.809   7.364  14.666 -0.0565  0.0318  0.3548
 2957DPPE   GL157339  12.952   7.620  14.924 -0.1019  0.1700 -0.3019
 2957DPPE   GL257340  12.647   7.733  14.990 -0.0402 -0.0215 -0.1082
 2957DPPE   C1A57341  12.830   7.909  15.451  0.1478  0.1842  0.0477
 2957DPPE   C2A57342  12.888   8.363  15.373  0.1167  0.1070 -0.0308
 2957DPPE   C3A57343  13.110   8.777  15.230  0.1171 -0.0022  0.3567
 2957DPPE   C4A57344  13.187   9.254  15.269  0.1423  0.2844  0.1261
 2957DPPE   C1B57345  12.359   7.744  15.340 -0.3166 -0.2264 -0.2056
 2957DPPE   C2B57346  12.327   8.081  15.641 -0.0174 -0.0678  0.0704
 2957DPPE   C3B57347  12.522   8.420  15.769 -0.1754  0.1250  0.0585
 2957DPPE   C4B57348  12.674   8.760  15.472  0.0195 -0.2655  0.2323
 2958DPPE   NH357349  16.933  14.082  12.638  0.3362  0.0211  0.2084
 2958DPPE   PO457350  17.105  13.771  12.839  0.0182  0.1087  0.2425
 2958DPPE   GL157351  16.973  13.660  13.227  0.2291 -0.1862 -0.1057
 2958DPPE   GL257352  17.126  13.440  13.370 -0.0631 -0.3186 -0.2083
 2958DPPE   C1A57353  16.820  13.653  13.710 -0.1936  0.0794 -0.0182
 2958DPPE   C2A57354  16.800  13.732  14.152  0.0457  0.1974  0.2077
 2958DPPE   C3A57355  16.706  13.830  14.581 -0.3010 -0.2835 -0.0418
 2958DPPE   C4A57356  16.973  14.025  14.865 -0.1265  0.3804 -0.0142
 2958DPPE   C1B57357  17.127  13.245  13.747 -0.1524  0.1123  0.6701
 2958DPPE   C2B57358  17.125  13.334  14.096 -0.1332 -0.2958  0.0541
 2958DPPE   C3B57359  17.527  13.267  14.343 -0.3091 -0.4224 -0.0583
 2958DPPE   C4B57360  17.945  13.164  14.522 -0.2781  0.2285 -0.0631
 2959DPPE   NH357361  12.781  17.631  12.317  0.2232  0.0115 -0.0898
 2959DPPE   PO457362  12.854  17.614  12.733 -0.0032  0.2529  0.0061
 2959DPPE   GL157363  12.815  17.818  13.130 -0.1167 -0.0285  0.0076
 2959DPPE   GL257364  12.633  18.133  13.094 -0.3230 -0.0562  0.1119
 2959DPPE   C1A57365  12.414  17.809  13.467 -0.0338 -0.2295  0.3217
 2959DPPE   C2A57366  12.458  17.665  13.968 -0.1733  0.0102 -0.0352
 2959DPPE   C3A57367  12.750  17.626  14.175 -0.0084 -0.0300  0.2400
 2959DPPE   C4A57368  13.042  17.803  14.396 -0.2052  0.3998  0.1330
 2959DPPE   C1B57369  12.633  18.293  13.521  0.0865  0.1812  0.1701
 2959DPPE   C2B57370  12.536  18.598  13.856 -0.0383  0.0567 -0.0884
 2959DPPE   C3B57371  12.475  18.684  14.262 -0.0524  0.3310 -0.0249
 2959DPPE   C4B57372  12.464  18.903  14.651  0.0641  0.0060  0.1056
 2960DPPE   NH357373  15.158  23.097  12.413 -0.0036 -0.1027  0.3302
 2960DPPE   PO457374  15.038  23.206  12.795  0.2025  0.4154 -0.3724
 2960DPPE   GL157375  15.034  22.964  13.216  0.1576  0.0669 -0.1359
 2960DPPE   GL257376  15.257  23.023  13.382  0.0870 -0.1808  0.1234
 2960DPPE   C1A57377  14.907  22.664  13.516  0.0451  0.1442 -0.2170
 2960DPPE   C2A57378  14.820  22.614  13.947 -0.0001  0.1102  0.2062
 2960DPPE   C3A57379  14.950  22.853  14.399 -0.0870 -0.1981  0.1477
 2960DPPE   C4A57380  15.146  22.943  14.855  0.2103 -0.0754 -0.1259
 2960DPPE   C1B57381  15.184  23.111  13.844 -0.4326 -0.1894  0.1057
 2960DPPE   C2B57382  15.261  23.271  14.157  0.0758  0.3949  0.1667
 2960DPPE   C3B57383  15.164  23.528  14.419 -0.0459  0.1258 -0.0154
 2960DPPE   C4B57384  15.351  23.814  14.655  0.2675  0.2567 -0.4911
 2961DPPE   NH357385  11.081  16.799  12.792 -0.3772 -0.1585  0.3550
 2961DPPE   PO457386  11.225  16.399  12.947  0.1098 -0.3716 -0.2590
 2961DPPE   GL157387  11.329  16.224  13.338 -0.3951  0.1743  0.2588
 2961DPPE   GL257388  11.647  16.040  13.348  0.0080 -0.1136 -0.1047
 2961DPPE   C1A57389  11.382  16.273  13.751 -0.0273 -0.2251  0.2412
 2961DPPE   C2A57390  11.395  16.410  14.229 -0.2625  0.0470  0.0932
 2961DPPE   C3A57391  11.342  16.617  14.698 -0.0298 -0.1040 -0.0061
 2961DPPE   C4A57392  11.288  16.786  15.007  0.2750 -0.2578 -0.0017
 2961DPPE   C1B57393  11.978  16.147  13.675 -0.0895  0.3123  0.0309
 2961DPPE   C2B57394  12.125  16.345  14.110 -0.0263  0.0073 -0.2895
 2961DPPE   C3B57395  12.427  16.242  14.475 -0.1504 -0.0555 -0.0471
 2961DPPE   C4B57396  12.789  16.156  14.659 -0.0496  0.0445 -0.1654
 2962DPPE   NH357397  15.666  27.596  15.634  0.0915 -0.0645  0.1678
 2962DPPE   PO457398  15.319  27.799  15.958  0.0896  0.0014  0.1548
 2962DPPE   GL157399  15.443  27.422  16.087 -0.0023 -0.0649  0.0274
 2962DPPE   GL257400  15.601  27.444  16.389  0.1670 -0.1653  0.1832
 2962DPPE   C1A57401  15.211  27.049  16.334 -0.1793 -0.1882 -0.0317
 2962DPPE   C2A57402  15.216  26.648  16.242  0.0740 -0.0800 -0.1907
 2962DPPE   C3A57403  15.555  26.547  16.333  0.0217  0.0763 -0.0222
 2962DPPE   C4A57404  15.907  26.324  16.536 -0.0023  0.0494 -0.0185
 2962DPPE   C1B57405  15.711  27.025  16.403  0.4057 -0.1926  0.1168
 2962DPPE   C2B57406  15.851  26.794  16.702  0.2303  0.0320 -0.1317
 2962DPPE   C3B57407  16.098  26.503  16.920 -0.1268 -0.1801  0.1294
 2962DPPE   C4B57408  16.479  26.520  17.091  0.1872  0.0066  0.2375
 2963DPPE   NH357409   8.358  11.807  13.654 -0.1299 -0.0418  0.0353
 2963DPPE   PO457410   8.483  11.458  13.893 -0.0445 -0.0847  0.2901
 2963DPPE   GL157411   8.849  11.643  14.095  0.1265 -0.3484  0.0168
 2963DPPE   GL257412   9.058  11.774  13.823  0.1944  0.1385 -0.3683
 2963DPPE   C1A57413   9.115  11.869  14.440 -0.0488  0.0471 -0.1704
 2963DPPE   C2A57414   9.441  11.665  14.746  0.0065  0.2930 -0.1936
 2963DPPE   C3A57415   9.441  11.571  15.226  0.0115 -0.2108  0.1176
 2963DPPE   C4A57416   9.522  11.403  15.588  0.0977 -0.2370 -0.1933
 2963DPPE   C1B57417   9.181  12.179  14.103  0.1118 -0.3124 -0.0538
 2963DPPE   C2B57418   9.554  12.317  14.217  0.0547  0.0854 -0.1942
 2963DPPE   C3B57419   9.831  12.699  14.270  0.1266  0.0486  0.1974
 2963DPPE   C4B57420  10.023  12.861  14.642 -0.4397  0.2258  0.1230
 2964DPPE   NH357421  18.624  16.158  12.791 -0.1984  0.3073 -0.4256
 2964DPPE   PO457422  19.012  16.257  12.509  0.2605 -0.0300  0.3065
 2964DPPE   GL157423  19.087  16.274  12.958  0.0289  0.0834  0.0352
 2964DPPE   GL257424  19.111  16.588  13.198 -0.0448  0.0473  0.1354
 2964DPPE   C1A57425  19.150  15.924  13.195  0.2019 -0.0260  0.0008
 2964DPPE   C2A57426  18.997  15.856  13.646 -0.0492  0.0075  0.0682
 2964DPPE   C3A57427  18.672  15.782  13.836  0.0137 -0.4853 -0.2716
 2964DPPE   C4A57428  18.544  15.850  14.186  0.1417  0.1064  0.3127
 2964DPPE   C1B57429  19.094  16.878  13.576  0.0273  0.1059  0.0165
 2964DPPE   C2B57430  19.305  16.864  14.027  0.4277 -0.1901 -0.1454
 2964DPPE   C3B57431  19.198  16.621  14.545  0.2061  0.2185 -0.2149
 2964DPPE   C4B57432  19.154  16.223  14.630 -0.0629  0.0766 -0.0888
 2965DPPE   NH357433  14.341  16.792  12.180 -0.3130 -0.1213  0.0204
 2965DPPE   PO457434  14.773  17.011  12.163 -0.0609 -0.0996 -0.2963
 2965DPPE   GL157435  15.040  17.182  12.538 -0.2218 -0.0247 -0.0419
 2965DPPE   GL257436  15.257  16.891  12.771 -0.0598 -0.1762  0.0793
 2965DPPE   C1A57437  15.185  17.384  12.916 -0.1796  0.0707 -0.2811
 2965DPPE   C2A57438  15.237  17.426  13.362  0.0730 -0.2173 -0.0708
 2965DPPE   C3A57439  15.215  17.392  13.879  0.1784  0.0364 -0.2354
 2965DPPE   C4A57440  15.247  17.130  14.332  0.0302 -0.0513 -0.0792
 2965DPPE   C1B57441  15.316  16.911  13.147  0.0511 -0.1677 -0.0665
 2965DPPE   C2B57442  15.523  17.012  13.533  0.2674 -0.0273 -0.0168
 2965DPPE   C3B57443  15.551  17.046  13.972 -0.2144  0.1867 -0.0300
 2965DPPE   C4B57444  15.793  16.739  14.209 -0.1548 -0.0634  0.0985
 2966DPPE   NH357445  11.026   7.245  14.740 -0.0639  0.3691  0.0471
 2966DPPE   PO457446  10.957   7.452  15.145  0.2368  0.0895 -0.0652
 2966DPPE   GL157447  11.026   7.833  15.388  0.0619 -0.1621  0.0348
 2966DPPE   GL257448  11.054   7.712  15.762  0.3898 -0.1289 -0.2322
 2966DPPE   C1A57449  10.824   8.209  15.725 -0.1281  0.1928 -0.2329
 2966DPPE   C2A57450  10.821   8.252  16.209 -0.4017  0.4509 -0.0999
 2966DPPE   C3A57451  11.034   8.053  16.533  0.4496 -0.0417 -0.1584
 2966DPPE   C4A57452  11.135   7.945  16.980  0.1569  0.1249  0.0243
 2966DPPE   C1B57453  11.108   7.592  16.144 -0.1809 -0.0515 -0.1472
 2966DPPE   C2B57454  11.163   7.581  16.610  0.0877  0.1170 -0.2261
 2966DPPE   C3B57455  11.251   7.306  17.007 -0.3179 -0.0741 -0.1786
 2966DPPE   C4B57456  11.361   6.904  17.303 -0.1091  0.0096 -0.0148
 2967DPPE   NH357457  22.068  13.013  14.469  0.1323  0.2272 -0.1456
 2967DPPE   PO457458  21.668  12.754  14.415  0.0824  0.1984 -0.1446
 2967DPPE   GL157459  21.542  13.178  14.616 -0.1864  0.1350 -0.1086
 2967DPPE   GL257460  21.283  13.378  14.523  0.0860 -0.0013  0.2421
 2967DPPE   C1A57461  21.329  13.372  15.028  0.1491 -0.4233  0.0741
 2967DPPE   C2A57462  21.328  13.396  15.370  0.1895  0.2101  0.1250
 2967DPPE   C3A57463  21.358  13.444  15.802 -0.3467 -0.0169  0.2730
 2967DPPE   C4A57464  21.459  13.274  16.212  0.0489  0.0062 -0.1695
 2967DPPE   C1B57465  20.986  13.723  14.662 -0.1122  0.0011 -0.1541
 2967DPPE   C2B57466  20.931  14.035  14.964 -0.1073  0.2669 -0.3597
 2967DPPE   C3B57467  20.732  14.420  15.161 -0.1216  0.0067  0.4329
 2967DPPE   C4B57468  20.471  14.555  15.265  0.0341 -0.0216 -0.2481
 2968DPPE   NH357469  12.381  14.780  12.655  0.0169 -0.2130 -0.0799
 2968DPPE   PO457470  12.355  15.164  12.941 -0.0590 -0.4467 -0.0119
 2968DPPE   GL157471  12.444  15.273  13.336  0.1091 -0.1127 -0.1191
 2968DPPE   GL257472  12.769  15.291  13.287  0.3170  0.1356 -0.0903
 2968DPPE   C1A57473  12.336  15.386  13.738  0.1012  0.2400 -0.2319
 2968DPPE   C2A57474  12.242  15.296  14.182 -0.0667  0.3384 -0.0911
 2968DPPE   C3A57475  11.913  15.097  14.523 -0.0236 -0.0878 -0.0832
 2968DPPE   C4A57476  11.545  14.733  14.521  0.2747  0.0907  0.2621
 2968DPPE   C1B57477  12.839  15.570  13.713  0.3496  0.2975  0.0189
 2968DPPE   C2B57478  12.626  15.563  14.103 -0.0885 -0.3220 -0.2894
 2968DPPE   C3B57479  12.658  15.158  14.405  0.2538  0.0026 -0.1845
 2968DPPE   C4B57480  12.633  15.081  14.734  0.0847  0.1606  0.2213
 2969DPPE   NH357481   4.721  11.354  16.749  0.1832  0.1278 -0.1812
 2969DPPE   PO457482   4.485  11.464  16.451 -0.4764 -0.1293  0.0549
 2969DPPE   GL157483   4.879  11.788  16.517 -0.0988 -0.4934 -0.1451
 2969DPPE   GL257484   5.101  11.932  16.285 -0.1216  0.4179  0.0288
 2969DPPE   C1A57485   4.820  12.261  16.640 -0.2379  0.1959  0.1124
 2969DPPE   C2A57486   5.113  12.549  16.742  0.0962 -0.3311  0.0915
 2969DPPE   C3A57487   5.468  12.599  17.138 -0.1031 -0.3274  0.2179
 2969DPPE   C4A57488   5.930  12.589  17.194  0.0399 -0.0420  0.0302
 2969DPPE   C1B57489   5.492  11.663  16.097  0.1666  0.2512  0.2952
 2969DPPE   C2B57490   5.878  11.567  15.927  0.2752  0.2645 -0.1118
 2969DPPE   C3B57491   6.209  11.385  15.952 -0.0917 -0.2997 -0.0075
 2969DPPE   C4B57492   6.341  11.466  15.552  0.2872 -0.3354  0.3014
 2970DPPE   NH357493   8.310  18.353  13.333  0.2471 -0.2127  0.0229
 2970DPPE   PO457494   8.469  18.333  13.832  0.0745  0.5324 -0.2056
 2970DPPE   GL157495   8.654  18.263  14.248  0.2262  0.0669 -0.4694
 2970DPPE   GL257496   8.626  17.957  14.383 -0.0432  0.1393  0.1636
 2970DPPE   C1A57497   8.506  18.398  14.608 -0.3544  0.1218 -0.0049
 2970DPPE   C2A57498   8.400  18.268  15.107  0.0971  0.3413 -0.0305
 2970DPPE   C3A57499   8.673  18.360  15.380  0.2792  0.0040  0.1726
 2970DPPE   C4A57500   8.949  18.779  15.503  0.1679  0.1457 -0.0119
 2970DPPE   C1B57501   8.325  17.931  14.682 -0.2215  0.0103 -0.2400
 2970DPPE   C2B57502   7.963  18.033  14.742  0.0205  0.1110 -0.0786
 2970DPPE   C3B57503   7.874  18.154  15.093  0.0770 -0.0467 -0.1388
 2970DPPE   C4B57504   8.056  18.470  15.422 -0.0062  0.0996 -0.2809
 2971DPPE   NH357505  21.018  15.390  13.090  0.1352 -0.2207  0.1055
 2971DPPE   PO457506  20.593  15.513  12.834  0.1807  0.0538  0.1084
 2971DPPE   GL157507  20.509  15.512  13.289 -0.0420 -0.0271  0.0663
 2971DPPE   GL257508  20.632  15.204  13.477  0.1400 -0.0457 -0.1217
 2971DPPE   C1A57509  20.135  15.615  13.576  0.3584  0.1480 -0.2411
 2971DPPE   C2A57510  19.887  15.742  13.957 -0.0237  0.1857  0.0948
 2971DPPE   C3A57511  19.684  15.531  14.254  0.0346 -0.1597 -0.1042
 2971DPPE   C4A57512  19.697  15.369  14.686 -0.0941  0.0359 -0.1594
 2971DPPE   C1B57513  20.561  15.111  13.945  0.1571 -0.4293  0.2307
 2971DPPE   C2B57514  20.556  15.150  14.442  0.4659 -0.1026  0.0022
 2971DPPE   C3B57515  20.382  15.253  14.791  0.0387 -0.0265  0.1792
 2971DPPE   C4B57516  20.044  15.500  14.976 -0.0767  0.0515  0.0794
 2972DPPE   NH357517  10.679  11.869  12.945  0.0599 -0.1683 -0.0961
 2972DPPE   PO457518  10.239  11.876  12.952  0.0315 -0.0325 -0.3317
 2972DPPE   GL157519  10.464  11.927  13.401  0.2098  0.0102 -0.1092
 2972DPPE   GL257520  10.662  11.625  13.462 -0.5004  0.0864  0.1686
 2972DPPE   C1A57521  10.563  11.969  13.870 -0.4457  0.0770  0.1842
 2972DPPE   C2A57522  10.731  11.924  14.332  0.1859 -0.1412  0.2727
 2972DPPE   C3A57523  10.837  12.092  14.762  0.0035  0.2196  0.1339
 2972DPPE   C4A57524  10.567  12.219  15.135 -0.1036  0.3133  0.0931
 2972DPPE   C1B57525  10.657  11.483  13.905  0.0932 -0.2768 -0.2767
 2972DPPE   C2B57526  10.822  11.478  14.448 -0.1515  0.1855 -0.0214
 2972DPPE   C3B57527  10.971  11.223  14.819  0.1051 -0.0544  0.0103
 2972DPPE   C4B57528  10.854  11.314  15.312  0.0322 -0.2625  0.0131
 2973DPPE   NH357529   9.737  13.392  13.098  0.0266 -0.1784  0.0846
 2973DPPE   PO457530  10.162  13.297  13.105 -0.0903  0.1002 -0.1793
 2973DPPE   GL157531  10.391  13.216  13.487 -0.0652  0.2395 -0.1120
 2973DPPE   GL257532  10.584  12.970  13.617  0.0012  0.0017  0.1954
 2973DPPE   C1A57533  10.633  13.478  13.862 -0.1124 -0.1933 -0.2748
 2973DPPE   C2A57534  10.975  13.445  14.165 -0.1241  0.4434 -0.0132
 2973DPPE   C3A57535  10.987  13.498  14.636  0.0537 -0.1839  0.1317
 2973DPPE   C4A57536  11.113  13.449  15.030  0.3472  0.0712 -0.1186
 2973DPPE   C1B57537  10.733  12.961  14.003 -0.2292 -0.2194  0.1155
 2973DPPE   C2B57538  11.026  12.950  14.328  0.1130  0.0135 -0.0289
 2973DPPE   C3B57539  11.140  12.943  14.789  0.0004  0.0345  0.1024
 2973DPPE   C4B57540  10.819  12.615  15.018 -0.2812 -0.1695 -0.4368
 2974DPPE   NH357541  19.614  14.414  13.127  0.0837  0.1033 -0.3379
 2974DPPE   PO457542  19.805  14.769  13.207 -0.0737  0.2082  0.1324
 2974DPPE   GL157543  19.630  15.013  13.407  0.0841  0.0564  0.0721
 2974DPPE   GL257544  19.369  14.803  13.479 -0.1331 -0.0283 -0.0284
 2974DPPE   C1A57545  19.529  15.175  13.785  0.3382 -0.1238  0.0227
 2974DPPE   C2A57546  19.308  15.665  13.983 -0.0635  0.0252 -0.0763
 2974DPPE   C3A57547  19.059  15.955  14.213 -0.2281 -0.0581  0.0402
 2974DPPE   C4A57548  18.763  16.311  14.239  0.2473 -0.1837 -0.2746
 2974DPPE   C1B57549  19.159  14.821  13.837  0.0293  0.1454 -0.0738
 2974DPPE   C2B57550  19.170  14.590  14.188 -0.3335 -0.0039 -0.0660
 2974DPPE   C3B57551  19.382  14.745  14.509  0.0140 -0.1531 -0.5085
 2974DPPE   C4B57552  19.215  15.007  14.851 -0.1254  0.0967 -0.0806
 2975DPPE   NH357553   4.707  22.704  15.737 -0.3104  0.0964  0.1072
 2975DPPE   PO457554   5.170  22.726  15.623 -0.0987 -0.1707  0.0007
 2975DPPE   GL157555   5.450  22.360  15.673 -0.1361 -0.0169 -0.2124
 2975DPPE   GL257556   5.363  21.974  15.886 -0.2106  0.2176 -0.1445
 2975DPPE   C1A57557   5.802  22.264  15.917  0.0037  0.2890 -0.0960
 2975DPPE   C2A57558   5.904  22.270  16.401 -0.1489  0.2545  0.2384
 2975DPPE   C3A57559   6.127  22.105  16.858 -0.0216  0.1925  0.2675
 2975DPPE   C4A57560   6.237  21.688  17.078  0.1912 -0.0420 -0.0657
 2975DPPE   C1B57561   5.721  21.665  16.105 -0.5290  0.6371 -0.1536
 2975DPPE   C2B57562   6.093  21.492  16.184 -0.1864  0.0408  0.0042
 2975DPPE   C3B57563   6.157  21.054  16.328  0.2058 -0.1209 -0.2756
 2975DPPE   C4B57564   6.416  20.970  16.362  0.1492 -0.1614 -0.1376
 2976DPPE   NH357565  12.450  10.333  12.875 -0.0223 -0.0531  0.3275
 2976DPPE   PO457566  12.484  10.750  12.922 -0.3968 -0.4165  0.0031
 2976DPPE   GL157567  12.532  10.703  13.316  0.3448  0.1165  0.1096
 2976DPPE   GL257568  12.553  11.008  13.370  0.0296 -0.1764  0.0831
 2976DPPE   C1A57569  12.566  10.602  13.706 -0.0480  0.1249  0.0865
 2976DPPE   C2A57570  12.309  10.607  14.080  0.0457 -0.0574 -0.0539
 2976DPPE   C3A57571  11.963  10.272  14.109  0.2745 -0.0517 -0.2462
 2976DPPE   C4A57572  11.631  10.273  13.901 -0.1050  0.1697 -0.4357
 2976DPPE   C1B57573  12.450  11.516  13.402  0.2016 -0.1885 -0.2680
 2976DPPE   C2B57574  12.754  11.911  13.398 -0.0983  0.0474  0.0172
 2976DPPE   C3B57575  13.028  12.154  13.631 -0.1602 -0.1058  0.1318
 2976DPPE   C4B57576  13.251  12.060  13.986 -0.1714 -0.1899  0.1007
 2977DPPE   NH357577  12.065   8.756  13.591 -0.0427  0.0076  0.1542
 2977DPPE   PO457578  11.826   8.410  13.606  0.0176 -0.0184 -0.0628
 2977DPPE   GL157579  11.695   8.611  14.024 -0.0531  0.0995 -0.1751
 2977DPPE   GL257580  11.526   8.894  14.015 -0.1391  0.0864  0.1359
 2977DPPE   C1A57581  11.627   8.703  14.571 -0.0277  0.0672 -0.1621
 2977DPPE   C2A57582  11.466   8.741  14.984  0.1301  0.1501  0.1278
 2977DPPE   C3A57583  11.621   8.895  15.437 -0.3682 -0.2122  0.2916
 2977DPPE   C4A57584  11.670   9.136  15.871  0.2147  0.3469  0.1881
 2977DPPE   C1B57585  11.280   8.929  14.346  0.0676 -0.1013  0.1274
 2977DPPE   C2B57586  11.242   9.162  14.750  0.1977 -0.0690  0.4108
 2977DPPE   C3B57587  10.987   9.136  15.085  0.2234 -0.2798  0.0358
 2977DPPE   C4B57588  11.108   9.077  15.478  0.0390  0.0754 -0.1568
 2978DPPE   NH357589   6.553  23.703  14.822 -0.1566  0.1267  0.0412
 2978DPPE   PO457590   6.802  24.064  14.919 -0.1119 -0.1949  0.4647
 2978DPPE   GL157591   7.050  23.931  15.280 -0.0546  0.2931 -0.0336
 2978DPPE   GL257592   6.996  24.158  15.529  0.2939 -0.1235 -0.3425
 2978DPPE   C1A57593   7.469  23.862  15.460  0.1442 -0.0226 -0.0308
 2978DPPE   C2A57594   7.780  23.989  15.492 -0.0878 -0.0882 -0.4895
 2978DPPE   C3A57595   8.182  24.081  15.630  0.0425 -0.1357  0.1354
 2978DPPE   C4A57596   8.621  24.212  15.667 -0.0887 -0.2098  0.4027
 2978DPPE   C1B57597   7.024  23.838  15.851 -0.0901 -0.1748  0.0002
 2978DPPE   C2B57598   7.045  23.372  16.005  0.1680 -0.3106  0.2982
 2978DPPE   C3B57599   7.152  23.022  15.936 -0.0785 -0.0120  0.0186
 2978DPPE   C4B57600   7.075  22.689  15.803 -0.0531 -0.3415  0.4288
 2979DPPE   NH357601  17.485  26.042  14.879  0.0013 -0.3594  0.1648
 2979DPPE   PO457602  17.017  26.166  14.823  0.2640  0.0236 -0.0991
 2979DPPE   GL157603  17.019  25.925  15.174  0.2555 -0.0344 -0.0465
 2979DPPE   GL257604  17.164  26.239  15.359  0.1842  0.1424  0.0313
 2979DPPE   C1A57605  17.161  25.675  15.517 -0.0848  0.3148 -0.0460
 2979DPPE   C2A57606  17.000  25.237  15.651 -0.3281 -0.4752 -0.0902
 2979DPPE   C3A57607  16.863  25.066  15.917  0.0399 -0.1673 -0.1821
 2979DPPE   C4A57608  16.384  24.949  16.001  0.1922  0.2278 -0.0323
 2979DPPE   C1B57609  17.348  26.166  15.666 -0.1096 -0.0472  0.2437
 2979DPPE   C2B57610  17.239  25.903  15.966 -0.2129  0.0318 -0.1235
 2979DPPE   C3B57611  17.147  25.560  16.245 -0.0229 -0.0602 -0.3703
 2979DPPE   C4B57612  17.224  25.087  16.261 -0.0674 -0.2418  0.0644
 2980DPPE   NH357613  21.190  23.391  16.406 -0.0164  0.1705  0.1599
 2980DPPE   PO457614  21.211  22.885  16.413  0.0114 -0.4007  0.0671
 2980DPPE   GL157615  20.831  22.876  16.251 -0.0194  0.2903 -0.0227
 2980DPPE   GL257616  20.620  23.157  16.342  0.0610 -0.0434  0.1650
 2980DPPE   C1A57617  20.536  22.647  16.033  0.0710  0.3464  0.1232
 2980DPPE   C2A57618  20.143  22.487  16.122  0.1716  0.0338  0.1717
 2980DPPE   C3A57619  19.822  22.572  16.459 -0.1855 -0.4575  0.0501
 2980DPPE   C4A57620  19.535  22.473  16.930 -0.2018  0.2550  0.3039
 2980DPPE   C1B57621  20.198  23.063  16.110  0.1691  0.1241 -0.0951
 2980DPPE   C2B57622  19.716  23.138  16.136 -0.3298 -0.2215 -0.3632
 2980DPPE   C3B57623  19.313  23.230  16.226 -0.3923  0.1324  0.0211
 2980DPPE   C4B57624  19.352  23.733  16.342  0.0575 -0.0996  0.0069
 2981DPPE   NH357625   8.049  14.498  13.999 -0.2721 -0.0797 -0.2218
 2981DPPE   PO457626   8.450  14.402  13.901 -0.1553  0.0271 -0.3302
 2981DPPE   GL157627   8.481  14.416  14.280  0.3698  0.0693 -0.1387
 2981DPPE   GL257628   8.497  14.639  14.445 -0.3301 -0.0863  0.1951
 2981DPPE   C1A57629   8.413  14.151  14.538  0.1777 -0.1790 -0.0476
 2981DPPE   C2A57630   8.537  14.311  14.929  0.2102 -0.1580  0.1417
 2981DPPE   C3A57631   8.104  14.415  15.053  0.0698  0.1420  0.0972
 2981DPPE   C4A57632   7.722  14.188  15.023  0.0692  0.0652 -0.0131
 2981DPPE   C1B57633   8.835  14.624  14.704 -0.0245 -0.1782 -0.0883
 2981DPPE   C2B57634   8.988  14.417  15.052  0.1388  0.3341 -0.4158
 2981DPPE   C3B57635   9.140  14.193  15.372  0.1606  0.1713 -0.1708
 2981DPPE   C4B57636   9.346  13.896  15.328 -0.0482  0.1875 -0.0378
 2982DPPE   NH357637  12.281  21.069  12.959 -0.2148 -0.2493 -0.2648
 2982DPPE   PO457638  12.624  20.905  12.861 -0.2310 -0.1451 -0.0658
 2982DPPE   GL157639  12.658  20.877  13.341 -0.3051  0.0028  0.2057
 2982DPPE   GL257640  12.631  20.558  13.339 -0.2004  0.1793 -0.1675
 2982DPPE   C1A57641  12.805  21.161  13.694  0.0307 -0.0658 -0.0431
 2982DPPE   C2A57642  12.703  21.412  14.120  0.0709  0.3206 -0.2990
 2982DPPE   C3A57643  12.447  21.688  14.271 -0.2560 -0.2143 -0.1983
 2982DPPE   C4A57644  12.252  22.031  14.044  0.1653 -0.0063 -0.3121
 2982DPPE   C1B57645  12.509  20.606  13.766  0.3030  0.1210 -0.1329
 2982DPPE   C2B57646  12.382  21.000  13.969  0.0846 -0.1452  0.2156
 2982DPPE   C3B57647  12.341  21.511  13.819 -0.0828  0.1024  0.2969
 2982DPPE   C4B57648  11.892  21.600  13.984 -0.3450 -0.3678  0.1439
 2983DPPE   NH357649  22.167  19.770  15.349 -0.1366  0.3298  0.1855
 2983DPPE   PO457650  22.473  19.414  15.618 -0.0837  0.1286  0.0831
 2983DPPE   GL157651  22.271  19.348  16.064 -0.3592  0.0886  0.1825
 2983DPPE   GL257652  22.345  19.610  16.409 -0.1238 -0.1422  0.1353
 2983DPPE   C1A57653  21.857  19.327  16.211  0.1478 -0.0400  0.0877
 2983DPPE   C2A57654  21.487  19.421  16.300  0.1663  0.2680 -0.0076
 2983DPPE   C3A57655  21.262  19.781  16.051 -0.1796 -0.2841 -0.0294
 2983DPPE   C4A57656  21.352  19.988  15.749 -0.1955 -0.0494 -0.1017
 2983DPPE   C1B57657  22.243  19.331  16.759  0.0269  0.0607 -0.1814
 2983DPPE   C2B57658  22.071  18.963  16.984 -0.0347  0.0218  0.0008
 2983DPPE   C3B57659  21.925  18.699  17.277  0.2432  0.3302  0.0873
 2983DPPE   C4B57660  21.731  18.588  17.556 -0.1300 -0.1246 -0.0376
 2984DPPE   NH357661  12.382  15.584  12.641  0.3894 -0.0648 -0.1023
 2984DPPE   PO457662  12.714  15.188  12.582 -0.2302 -0.1560 -0.0858
 2984DPPE   GL157663  12.862  14.925  12.953 -0.0246  0.0790 -0.0176
 2984DPPE   GL257664  12.611  14.725  13.125 -0.2475  0.3034 -0.0178
 2984DPPE   C1A57665  13.076  14.730  13.347  0.0232  0.0032 -0.3052
 2984DPPE   C2A57666  13.217  14.878  13.713  0.0564  0.4201 -0.0049
 2984DPPE   C3A57667  13.602  14.832  14.023  0.1003 -0.2527 -0.0995
 2984DPPE   C4A57668  13.757  14.584  14.372  0.0447  0.1064 -0.0756
 2984DPPE   C1B57669  12.614  14.860  13.590  0.2953  0.0241 -0.1488
 2984DPPE   C2B57670  12.758  15.095  13.943 -0.0126  0.1423  0.5067
 2984DPPE   C3B57671  13.113  15.169  14.296 -0.2036 -0.0976  0.0490
 2984DPPE   C4B57672  13.074  15.328  14.758  0.1132 -0.0472  0.3663
 2985DPPE   NH357673  18.811  14.792  12.721  0.0944  0.1003  0.3482
 2985DPPE   PO457674  18.399  15.035  12.628  0.2155  0.0625 -0.1881
 2985DPPE   GL157675  18.128  14.984  13.078  0.0580  0.0996 -0.2557
 2985DPPE   GL257676  17.956  14.663  13.145  0.2188 -0.2344  0.3779
 2985DPPE   C1A57677  17.981  15.156  13.432  0.3929 -0.1867  0.1850
 2985DPPE   C2A57678  17.769  15.296  13.801 -0.3428 -0.2024 -0.0640
 2985DPPE   C3A57679  17.507  15.249  14.044 -0.2544 -0.0739  0.2060
 2985DPPE   C4A57680  17.219  15.587  14.308 -0.0474  0.0553 -0.1013
 2985DPPE   C1B57681  17.587  14.825  13.373 -0.1810  0.2679 -0.2844
 2985DPPE   C2B57682  17.674  14.671  13.807  0.1187 -0.0411 -0.2461
 2985DPPE   C3B57683  17.575  14.803  14.210 -0.0202 -0.3535 -0.0740
 2985DPPE   C4B57684  17.462  15.139  14.528 -0.0746  0.1358 -0.0291
 2986DPPE   NH357685  17.115  27.575  16.835  0.2453 -0.0538  0.1769
 2986DPPE   PO457686  16.720  27.756  16.607 -0.2593 -0.2212  0.0085
 2986DPPE   GL157687  16.281  27.529  16.569 -0.1593  0.0985  0.0414
 2986DPPE   GL257688  16.084  27.321  16.294  0.0263  0.4015  0.2175
 2986DPPE   C1A57689  15.956  27.417  16.769 -0.0671  0.2482  0.0065
 2986DPPE   C2A57690  15.489  27.169  16.798 -0.0884 -0.2785 -0.0057
 2986DPPE   C3A57691  15.076  26.956  16.869 -0.0401 -0.0261  0.0723
 2986DPPE   C4A57692  14.857  26.710  16.678 -0.0820  0.1393 -0.1803
 2986DPPE   C1B57693  16.333  27.036  16.576 -0.1269 -0.0388  0.2263
 2986DPPE   C2B57694  16.478  26.612  16.586  0.0556 -0.0925 -0.0737
 2986DPPE   C3B57695  16.627  26.216  16.724  0.3035 -0.0849 -0.0794
 2986DPPE   C4B57696  16.369  26.032  17.012  0.1956 -0.2312 -0.3384
 2987DPPE   NH357697  15.697   6.778  15.162 -0.0175 -0.0651 -0.1437
 2987DPPE   PO457698  15.926   6.984  14.772  0.4606 -0.3147 -0.1801
 2987DPPE   GL157699  15.694   7.274  15.131 -0.0410  0.0452 -0.0964
 2987DPPE   GL257700  15.493   7.275  15.456 -0.4036 -0.2867 -0.0595
 2987DPPE   C1A57701  15.556   7.664  15.181 -0.1641 -0.1046 -0.0976
 2987DPPE   C2A57702  15.505   8.118  15.321 -0.0631 -0.0667 -0.0031
 2987DPPE   C3A57703  15.435   8.492  15.426 -0.0761 -0.1301  0.1590
 2987DPPE   C4A57704  15.290   8.824  15.543  0.1608 -0.0058 -0.0573
 2987DPPE   C1B57705  15.177   7.673  15.500 -0.0412 -0.0425  0.0569
 2987DPPE   C2B57706  14.955   7.710  15.835 -0.1389 -0.1074  0.3020
 2987DPPE   C3B57707  14.667   7.843  16.181  0.1584  0.0540  0.1438
 2987DPPE   C4B57708  14.451   8.026  16.430 -0.0422  0.1739 -0.1338
 2988DPPE   NH357709  22.579  16.689  13.964 -0.4367 -0.0044 -0.0582
 2988DPPE   PO457710  22.286  16.918  14.118 -0.1246 -0.1873  0.0272
 2988DPPE   GL157711  21.896  17.093  14.378 -0.4331 -0.0687  0.2661
 2988DPPE   GL257712  21.682  17.396  14.374 -0.1486 -0.0102  0.1198
 2988DPPE   C1A57713  21.687  16.979  14.806  0.3159  0.0130 -0.0326
 2988DPPE   C2A57714  21.537  17.007  15.222 -0.0871 -0.2229  0.0837
 2988DPPE   C3A57715  21.205  16.835  15.422 -0.0180 -0.0420 -0.1077
 2988DPPE   C4A57716  20.782  16.565  15.546  0.0022 -0.1002 -0.2622
 2988DPPE   C1B57717  21.325  17.312  14.448  0.0579 -0.3848 -0.2507
 2988DPPE   C2B57718  20.942  17.349  14.582  0.1784  0.1334 -0.0248
 2988DPPE   C3B57719  20.602  17.170  14.664 -0.0170 -0.0904 -0.0583
 2988DPPE   C4B57720  20.327  16.966  14.927 -0.2661 -0.0253 -0.0111
 2989DPPE   NH357721  12.688   8.207  14.085 -0.0528 -0.1896 -0.1499
 2989DPPE   PO457722  13.092   8.065  14.098  0.0921  0.0100 -0.0811
 2989DPPE   GL157723  13.367   8.072  14.436 -0.0886  0.1704  0.1597
 2989DPPE   GL257724  13.313   7.993  14.726 -0.1130 -0.0922 -0.3211
 2989DPPE   C1A57725  13.870   8.216  14.490 -0.1674  0.3733  0.1850
 2989DPPE   C2A57726  14.192   8.495  14.624  0.0153 -0.0809 -0.1490
 2989DPPE   C3A57727  14.557   8.766  14.695  0.0090 -0.1303 -0.0355
 2989DPPE   C4A57728  14.646   9.090  14.955 -0.2969  0.1010 -0.0567
 2989DPPE   C1B57729  13.706   7.874  14.919  0.0353 -0.2509  0.0715
 2989DPPE   C2B57730  14.094   8.033  15.059  0.1441 -0.3657 -0.0627
 2989DPPE   C3B57731  14.428   7.912  15.301 -0.0569  0.1434  0.1010
 2989DPPE   C4B57732  14.797   8.019  15.484 -0.0379 -0.0268  0.2586
 2990DPPE   NH357733  16.623   8.417  14.292 -0.3647  0.1316  0.0823
 2990DPPE   PO457734  16.707   8.585  14.694 -0.4345  0.1499 -0.1653
 2990DPPE   GL157735  16.495   8.563  15.031  0.0964  0.1172  0.1197
 2990DPPE   GL257736  16.775   8.570  15.259  0.1302 -0.0730  0.1396
 2990DPPE   C1A57737  16.460   8.876  15.409 -0.2252  0.1446  0.1265
 2990DPPE   C2A57738  16.380   8.691  15.730  0.0929 -0.2328  0.3994
 2990DPPE   C3A57739  16.109   8.587  16.063 -0.0988 -0.3008 -0.3324
 2990DPPE   C4A57740  16.320   8.530  16.481 -0.3239 -0.1170  0.2171
 2990DPPE   C1B57741  17.059   8.773  15.423  0.0430  0.1830 -0.3475
 2990DPPE   C2B57742  17.440   9.052  15.465 -0.0235 -0.1360  0.0618
 2990DPPE   C3B57743  17.826   9.247  15.372  0.1161 -0.3076  0.1877
 2990DPPE   C4B57744  18.060   9.648  15.363 -0.0948  0.0983  0.2151
 2991DPPE   NH357745   7.967  12.702  13.714  0.1476 -0.2094 -0.0238
 2991DPPE   PO457746   7.484  12.818  13.947 -0.0090 -0.1939 -0.2387
 2991DPPE   GL157747   7.594  12.594  14.258  0.3669  0.0607  0.1499
 2991DPPE   GL257748   7.795  12.384  14.178  0.0851 -0.1328  0.0108
 2991DPPE   C1A57749   7.692  12.720  14.638  0.0967 -0.2624 -0.3119
 2991DPPE   C2A57750   7.471  12.512  15.060  0.2964  0.0817 -0.0038
 2991DPPE   C3A57751   7.657  12.471  15.545  0.1841 -0.1065 -0.2333
 2991DPPE   C4A57752   8.081  12.348  15.812 -0.0796  0.1115 -0.2645
 2991DPPE   C1B57753   8.114  12.495  14.520  0.2482 -0.0186  0.1941
 2991DPPE   C2B57754   8.425  12.353  14.925 -0.0949  0.1411  0.3160
 2991DPPE   C3B57755   8.728  12.502  15.009 -0.3216  0.0647 -0.1857
 2991DPPE   C4B57756   9.232  12.551  15.097 -0.1695  0.0255 -0.0164
 2992DPPE   NH357757   7.844  15.197  14.273  0.2415 -0.3099  0.2632
 2992DPPE   PO457758   8.091  14.826  14.380  0.1296 -0.0767  0.0212
 2992DPPE   GL157759   8.046  15.060  14.794  0.0832  0.0353  0.1996
 2992DPPE   GL257760   7.663  15.149  14.856  0.0530  0.0515 -0.2216
 2992DPPE   C1A57761   8.058  14.902  15.162  0.0484  0.1979 -0.3748
 2992DPPE   C2A57762   7.721  14.966  15.497 -0.4037 -0.0487  0.0423
 2992DPPE   C3A57763   7.379  15.240  15.520 -0.0845 -0.0028  0.2422
 2992DPPE   C4A57764   7.143  15.506  15.386  0.1162 -0.2037  0.0713
 2992DPPE   C1B57765   7.189  15.075  15.063 -0.0188 -0.1512 -0.2588
 2992DPPE   C2B57766   6.944  14.774  15.282  0.0428 -0.1819 -0.3584
 2992DPPE   C3B57767   6.995  14.374  15.351  0.1503  0.2604  0.1442
 2992DPPE   C4B57768   7.354  14.121  15.330  0.0033  0.0074  0.1893
 2993DPPE   NH357769  10.012  12.096  13.489  0.3493 -0.1493  0.1474
 2993DPPE   PO457770   9.797  12.376  13.309  0.3203  0.2312  0.0845
 2993DPPE   GL157771   9.943  12.496  13.754  0.3152  0.0890  0.0306
 2993DPPE   GL257772  10.368  12.492  13.866  0.1404 -0.0122 -0.0636
 2993DPPE   C1A57773  10.029  12.179  14.130  0.0960 -0.0162  0.0607
 2993DPPE   C2A57774  10.277  12.111  14.381 -0.3070  0.2826 -0.1220
 2993DPPE   C3A57775  10.424  12.394  14.709  0.2422  0.0740  0.0025
 2993DPPE   C4A57776  10.378  12.764  15.092  0.0360  0.3174  0.4544
 2993DPPE   C1B57777  10.407  12.705  14.274  0.0925  0.0347 -0.0326
 2993DPPE   C2B57778  10.595  12.928  14.670 -0.1315 -0.2480  0.2644
 2993DPPE   C3B57779  10.397  13.262  14.900  0.0902  0.0474 -0.0145
 2993DPPE   C4B57780  10.105  13.612  15.052 -0.0196 -0.3070 -0.2016
 2994DPPE   NH357781  14.727  14.130  12.670 -0.1039  0.2642  0.2036
 2994DPPE   PO457782  15.128  14.208  12.812 -0.0763  0.0012  0.0633
 2994DPPE   GL157783  14.876  14.327  13.127 -0.1217 -0.0299 -0.4941
 2994DPPE   GL257784  14.829  14.044  13.216 -0.1806  0.1055 -0.2863
 2994DPPE   C1A57785  14.757  14.535  13.634 -0.1027  0.0376  0.2302
 2994DPPE   C2A57786  14.633  14.827  13.913 -0.5383  0.2987  0.0742
 2994DPPE   C3A57787  14.683  14.901  14.265  0.1282 -0.2651 -0.1511
 2994DPPE   C4A57788  14.283  15.260  14.346 -0.3684  0.0995 -0.0843
 2994DPPE   C1B57789  14.677  13.981  13.703  0.0975  0.1574  0.2738
 2994DPPE   C2B57790  14.427  13.813  14.087  0.2007 -0.0597 -0.1665
 2994DPPE   C3B57791  14.164  13.802  14.459 -0.3006  0.0210 -0.0429
 2994DPPE   C4B57792  13.814  13.942  14.689  0.0822  0.1962  0.0021
 2995DPPE   NH357793   6.710  10.733  14.470  0.3328  0.0400  0.1977
 2995DPPE   PO457794   6.750  11.110  14.566 -0.1747  0.3019  0.0438
 2995DPPE   GL157795   6.922  11.395  14.901 -0.0699 -0.0420 -0.1174
 2995DPPE   GL257796   6.834  11.780  14.849  0.0575  0.5178  0.0340
 2995DPPE   C1A57797   7.009  11.588  15.321  0.3409  0.3282 -0.2713
 2995DPPE   C2A57798   6.904  11.731  15.796  0.1797  0.0357  0.2431
 2995DPPE   C3A57799   6.480  11.896  15.957  0.1207 -0.2335 -0.1413
 2995DPPE   C4A57800   6.274  12.346  15.700 -0.0067 -0.1214 -0.2559
 2995DPPE   C1B57801   7.043  12.147  14.909 -0.2513  0.2010  0.0259
 2995DPPE   C2B57802   7.186  12.513  14.637  0.2566 -0.2727 -0.2166
 2995DPPE   C3B57803   7.213  12.955  14.835  0.2190  0.3542 -0.2058
 2995DPPE   C4B57804   7.395  13.179  15.030  0.2559  0.0925  0.0114
 2996DPPE   NH357805  17.880  24.556  13.263  0.5435  0.1240  0.2906
 2996DPPE   PO457806  17.893  24.604  13.703 -0.1387  0.2153 -0.0707
 2996DPPE   GL157807  17.780  24.547  14.139  0.0033 -0.1582 -0.0622
 2996DPPE   GL257808  17.527  24.324  13.958 -0.1356 -0.3161  0.1339
 2996DPPE   C1A57809  17.608  24.528  14.436  0.2367 -0.0213 -0.2030
 2996DPPE   C2A57810  17.481  24.490  14.757  0.0881  0.0194  0.0348
 2996DPPE   C3A57811  17.600  24.132  14.996  0.0528  0.1802  0.2496
 2996DPPE   C4A57812  17.682  23.689  15.164 -0.2354  0.0549 -0.0016
 2996DPPE   C1B57813  17.505  24.078  14.379  0.4346 -0.0852 -0.1813
 2996DPPE   C2B57814  17.186  23.913  14.674 -0.2209 -0.7708 -0.1594
 2996DPPE   C3B57815  17.072  23.794  15.054  0.0278  0.1836  0.0174
 2996DPPE   C4B57816  16.876  23.743  15.456  0.0215  0.1577 -0.2202
 2997DPPE   NH357817  11.474  14.658  12.913  0.3235  0.0893  0.0962
 2997DPPE   PO457818  11.428  15.104  12.741  0.2421 -0.0351  0.1052
 2997DPPE   GL157819  11.634  15.198  13.233 -0.1590 -0.1715  0.0762
 2997DPPE   GL257820  11.999  15.381  13.205 -0.1353 -0.0036  0.2216
 2997DPPE   C1A57821  11.430  15.167  13.608 -0.0967  0.2493 -0.0935
 2997DPPE   C2A57822  11.288  15.221  13.964  0.1061  0.1711 -0.3003
 2997DPPE   C3A57823  11.390  15.215  14.367  0.1690  0.0799 -0.0039
 2997DPPE   C4A57824  11.510  15.167  14.867 -0.2708  0.1741 -0.2360
 2997DPPE   C1B57825  11.885  15.629  13.560 -0.2074  0.3349 -0.0948
 2997DPPE   C2B57826  12.060  15.756  13.975  0.2797  0.2875 -0.0082
 2997DPPE   C3B57827  12.195  15.760  14.390  0.3755 -0.5497 -0.0991
 2997DPPE   C4B57828  12.539  15.656  14.671 -0.1942  0.1187  0.2437
 2998DPPE   NH357829  17.096  18.959  12.158  0.2261  0.2633 -0.2029
 2998DPPE   PO457830  17.149  19.394  12.371  0.1578 -0.0879 -0.2333
 2998DPPE   GL157831  17.074  19.571  12.784 -0.0072  0.4792 -0.4210
 2998DPPE   GL257832  17.096  19.276  12.919 -0.0140 -0.3576  0.3936
 2998DPPE   C1A57833  17.278  19.918  12.934  0.1404 -0.0972 -0.0423
 2998DPPE   C2A57834  16.964  20.149  13.179 -0.2502  0.0304 -0.3197
 2998DPPE   C3A57835  16.812  20.261  13.543 -0.0359 -0.1200 -0.1631
 2998DPPE   C4A57836  16.458  20.392  13.839 -0.0846  0.0503 -0.0378
 2998DPPE   C1B57837  17.133  19.449  13.355  0.3001  0.2449  0.3375
 2998DPPE   C2B57838  17.118  19.879  13.535  0.0743 -0.0629  0.1236
 2998DPPE   C3B57839  17.197  20.200  13.861  0.0076  0.1498  0.2362
 2998DPPE   C4B57840  17.279  20.461  14.144 -0.1796  0.0268  0.2582
 2999DPPE   NH357841  19.207  22.221  13.028  0.0204 -0.1030  0.1191
 2999DPPE   PO457842  18.799  22.310  13.186  0.0899 -0.2983 -0.2581
 2999DPPE   GL157843  18.692  22.261  13.518  0.2689 -0.0760  0.1533
 2999DPPE   GL257844  18.706  22.540  13.671 -0.0240 -0.4853 -0.4073
 2999DPPE   C1A57845  18.297  22.071  13.683 -0.1196  0.1856 -0.2320
 2999DPPE   C2A57846  17.927  22.103  13.983  0.0862  0.1308 -0.0369
 2999DPPE   C3A57847  17.873  21.829  14.419  0.0881  0.2528  0.0477
 2999DPPE   C4A57848  17.943  21.325  14.522  0.0655  0.0551  0.0968
 2999DPPE   C1B57849  18.927  22.494  13.998  0.0693 -0.0224  0.1970
 2999DPPE   C2B57850  19.008  22.458  14.442  0.2289 -0.0818  0.2084
 2999DPPE   C3B57851  18.784  22.161  14.761 -0.0241  0.3685  0.1611
 2999DPPE   C4B57852  18.864  21.726  14.916  0.2579 -0.0709 -0.0366
 3000DPPE   NH357853  21.227  11.823  14.452 -0.0100 -0.3647  0.3045
 3000DPPE   PO457854  21.082  12.231  14.237  0.0676  0.2211 -0.2871
 3000DPPE   GL157855  20.839  12.507  14.582 -0.2689  0.0942 -0.2060
 3000DPPE   GL257856  20.782  12.272  14.800  0.1705  0.0824  0.0992
 3000DPPE   C1A57857  20.701  12.821  14.929  0.1024  0.1115  0.0407
 3000DPPE   C2A57858  20.880  13.213  15.002  0.1236 -0.0648 -0.0939
 3000DPPE   C3A57859  20.834  13.643  15.165  0.0794  0.1765  0.0969
 3000DPPE   C4A57860  21.253  13.870  15.289 -0.3559  0.0570 -0.3008
 3000DPPE   C1B57861  20.596  12.450  15.267  0.3088 -0.0186 -0.0831
 3000DPPE   C2B57862  20.558  12.557  15.645  0.1400 -0.1327 -0.0720
 3000DPPE   C3B57863  20.350  12.740  15.822  0.1873  0.0510  0.1365
 3000DPPE   C4B57864  19.990  12.930  16.135 -0.1800  0.0194  0.1834
 3001DPPE   NH357865   6.514  22.484  14.493 -0.0809  0.0548 -0.0263
 3001DPPE   PO457866   6.125  22.174  14.532 -0.1046 -0.0565  0.0530
 3001DPPE   GL157867   6.378  21.989  14.793  0.0391  0.0102  0.1705
 3001DPPE   GL257868   6.205  22.179  15.064 -0.1017  0.2576 -0.1515
 3001DPPE   C1A57869   6.597  21.715  15.102  0.0760  0.0047 -0.0136
 3001DPPE   C2A57870   6.683  21.977  15.470 -0.1167 -0.0201 -0.3785
 3001DPPE   C3A57871   6.764  22.293  15.854 -0.3493 -0.4469 -0.0117
 3001DPPE   C4A57872   6.607  22.541  16.139  0.4312  0.0123 -0.0002
 3001DPPE   C1B57873   6.137  21.843  15.281  0.2980 -0.6770 -0.0579
 3001DPPE   C2B57874   6.181  21.464  15.198 -0.0332 -0.4535  0.0660
 3001DPPE   C3B57875   6.499  21.258  15.017  0.1891  0.4700  0.1398
 3001DPPE   C4B57876   6.848  21.261  14.998  0.0556 -0.2078  0.2001
 3002DPPE   NH357877   4.823  10.575  17.133 -0.1509  0.3005  0.1442
 3002DPPE   PO457878   5.074  10.880  16.901 -0.3042  0.0296 -0.1046
 3002DPPE   GL157879   5.562  10.854  17.040  0.0371 -0.0979  0.1972
 3002DPPE   GL257880   5.489  10.689  17.305  0.1166 -0.0898  0.4845
 3002DPPE   C1A57881   5.883  11.006  17.174  0.4374 -0.0611 -0.1607
 3002DPPE   C2A57882   6.054  11.239  17.443 -0.3134 -0.1712 -0.2201
 3002DPPE   C3A57883   6.016  11.448  17.778  0.1483 -0.2337  0.1838
 3002DPPE   C4A57884   5.784  11.925  17.660 -0.2470 -0.1860 -0.0786
 3002DPPE   C1B57885   5.809  10.429  17.043 -0.1148  0.0061  0.0784
 3002DPPE   C2B57886   6.249  10.151  16.756  0.0703  0.0742 -0.0404
 3002DPPE   C3B57887   6.618  10.323  16.517 -0.0609 -0.0472 -0.0440
 3002DPPE   C4B57888   7.057  10.249  16.445  0.2269  0.2469 -0.3875
 3003DPPE   NH357889  20.891  23.527  18.680 -0.1316  0.0984  0.0632
 3003DPPE   PO457890  20.898  23.049  18.411  0.1062 -0.2659  0.0554
 3003DPPE   GL157891  20.555  22.899  18.256  0.0375 -0.0985  0.0708
 3003DPPE   GL257892  20.491  23.034  17.922 -0.1819 -0.1675 -0.3832
 3003DPPE   C1A57893  20.180  22.824  18.297  0.2072  0.0914 -0.1433
 3003DPPE   C2A57894  19.901  23.053  18.177  0.0135  0.1000  0.0638
 3003DPPE   C3A57895  19.891  23.426  18.463 -0.0965 -0.0310  0.2034
 3003DPPE   C4A57896  20.122  23.766  18.471  0.0392  0.0969 -0.2375
 3003DPPE   C1B57897  20.185  22.841  17.735 -0.4866  0.2227 -0.2172
 3003DPPE   C2B57898  20.154  22.505  17.513 -0.0888 -0.0795  0.0143
 3003DPPE   C3B57899  19.897  22.252  17.312 -0.0745 -0.0917  0.0562
 3003DPPE   C4B57900  19.626  21.884  16.974 -0.0358 -0.4129  0.0016
 3004DPPE   NH357901  11.687  16.145  12.896 -0.1465 -0.1889 -0.0668
 3004DPPE   PO457902  11.882  15.841  12.651  0.1434 -0.0381 -0.0490
 3004DPPE   GL157903  12.089  15.900  13.114  0.0037  0.1369  0.3038
 3004DPPE   GL257904  12.190  16.187  13.178  0.0444 -0.0280  0.2295
 3004DPPE   C1A57905  12.309  15.830  13.549 -0.0424  0.0696 -0.1020
 3004DPPE   C2A57906  12.438  16.005  13.897 -0.1535  0.0258  0.1754
 3004DPPE   C3A57907  12.755  16.002  14.127  0.1210  0.0361  0.1614
 3004DPPE   C4A57908  13.102  15.707  14.438 -0.2412 -0.0954 -0.0559
 3004DPPE   C1B57909  12.466  16.379  13.535 -0.1463  0.0909 -0.0377
 3004DPPE   C2B57910  12.806  16.526  13.644 -0.0063 -0.2922 -0.1095
 3004DPPE   C3B57911  13.106  16.337  13.858  0.3095  0.4664  0.0160
 3004DPPE   C4B57912  13.173  16.246  14.298 -0.0841  0.1258  0.1601
 3005DPPE   NH357913   8.482  10.912  13.867 -0.1418 -0.2355  0.2417
 3005DPPE   PO457914   9.032  10.676  13.961 -0.1070 -0.0993 -0.1627
 3005DPPE   GL157915   8.874  10.790  14.264  0.1996  0.0266  0.0896
 3005DPPE   GL257916   8.971  11.121  14.248 -0.0278  0.1715  0.0023
 3005DPPE   C1A57917   8.858  10.824  14.705 -0.1975  0.1847  0.1988
 3005DPPE   C2A57918   8.846  10.640  15.141  0.0451 -0.1963 -0.2796
 3005DPPE   C3A57919   8.366  10.742  15.321  0.0985  0.1965 -0.0052
 3005DPPE   C4A57920   7.932  10.628  15.312 -0.0872 -0.3317  0.0522
 3005DPPE   C1B57921   8.953  11.328  14.527  0.2030 -0.1484  0.1593
 3005DPPE   C2B57922   8.962  11.553  14.882 -0.3295 -0.5901 -0.2641
 3005DPPE   C3B57923   8.697  11.607  15.165 -0.2627  0.0571  0.1818
 3005DPPE   C4B57924   8.289  11.851  15.310 -0.0386 -0.2894  0.0787
 3006DPPE   NH357925   8.910  19.778  13.361  0.2887  0.0973 -0.2503
 3006DPPE   PO457926   8.843  20.204  13.543  0.0565  0.1802  0.1313
 3006DPPE   GL157927   9.146  20.438  13.791 -0.0332 -0.2811 -0.2521
 3006DPPE   GL257928   9.050  20.777  13.787 -0.0672  0.2373  0.1229
 3006DPPE   C1A57929   9.180  20.396  14.264 -0.0593 -0.2571  0.0533
 3006DPPE   C2A57930   9.510  20.482  14.685  0.1335  0.2486  0.0879
 3006DPPE   C3A57931   9.644  20.586  15.085 -0.0191 -0.2648 -0.3049
 3006DPPE   C4A57932   9.964  20.351  15.352 -0.1848 -0.0228 -0.0680
 3006DPPE   C1B57933   9.043  20.834  14.081  0.2163 -0.0951  0.1542
 3006DPPE   C2B57934   9.405  20.848  14.423 -0.1433 -0.0450 -0.0185
 3006DPPE   C3B57935   9.625  21.032  14.739  0.0263 -0.1413  0.1114
 3006DPPE   C4B57936   9.944  21.052  14.983  0.2318  0.1389 -0.0415
 3007DPPE   NH357937  14.476  13.355  12.613  0.0323 -0.1044 -0.2880
 3007DPPE   PO457938  14.378  13.766  12.632  0.4214 -0.2091 -0.1836
 3007DPPE   GL157939  14.451  13.845  12.980 -0.1941 -0.1171  0.2366
 3007DPPE   GL257940  14.385  14.214  13.154  0.0411 -0.2096 -0.1757
 3007DPPE   C1A57941  14.488  13.712  13.372  0.2131  0.0875  0.3429
 3007DPPE   C2A57942  14.462  13.441  13.733 -0.2366 -0.0950  0.1886
 3007DPPE   C3A57943  14.727  13.164  14.091 -0.0861 -0.0797  0.0399
 3007DPPE   C4A57944  15.057  12.943  13.858 -0.1893 -0.1976 -0.0456
 3007DPPE   C1B57945  14.460  14.575  13.272 -0.1792 -0.3124 -0.1856
 3007DPPE   C2B57946  14.674  14.968  13.427  0.1622  0.5476  0.2285
 3007DPPE   C3B57947  15.003  15.221  13.607  0.0152  0.4534  0.5740
 3007DPPE   C4B57948  15.187  15.597  13.574  0.0780  0.2651  0.3042
 3008DPPE   NH357949   7.596  20.379  13.601  0.2319 -0.0726 -0.0280
 3008DPPE   PO457950   7.304  19.928  13.745 -0.3698 -0.5383  0.3222
 3008DPPE   GL157951   7.435  19.851  14.148 -0.1027 -0.1373  0.1271
 3008DPPE   GL257952   7.399  20.095  14.316  0.1050 -0.1307 -0.0846
 3008DPPE   C1A57953   7.647  19.661  14.449  0.0924  0.5088  0.2188
 3008DPPE   C2A57954   7.839  19.639  14.844 -0.0800 -0.0280  0.0189
 3008DPPE   C3A57955   8.266  19.618  15.025  0.0345  0.0027  0.0579
 3008DPPE   C4A57956   8.581  19.425  15.154  0.2184 -0.0883 -0.1573
 3008DPPE   C1B57957   7.301  19.861  14.682  0.0248 -0.3398 -0.0439
 3008DPPE   C2B57958   7.376  19.470  14.834 -0.2655  0.2075 -0.1965
 3008DPPE   C3B57959   7.665  19.336  15.162  0.2802  0.0591 -0.2007
 3008DPPE   C4B57960   7.782  18.863  15.281 -0.1850 -0.3092  0.1488
 3009DPPE   NH357961   9.871  19.298  12.904 -0.2669  0.2277 -0.2134
 3009DPPE   PO457962   9.671  19.285  13.269  0.0088  0.3395 -0.1822
 3009DPPE   GL157963   9.697  19.179  13.685  0.0999 -0.1707 -0.0473
 3009DPPE   GL257964   9.398  19.216  13.858 -0.2771 -0.1987 -0.0555
 3009DPPE   C1A57965  10.078  19.411  13.904 -0.3756 -0.1347  0.1738
 3009DPPE   C2A57966  10.530  19.522  14.146  0.1455 -0.0867 -0.0207
 3009DPPE   C3A57967  10.751  19.754  14.573 -0.1117  0.1209 -0.1225
 3009DPPE   C4A57968  10.945  19.572  14.936 -0.0786  0.0945 -0.2717
 3009DPPE   C1B57969   9.646  19.212  14.208 -0.4410  0.0332 -0.0385
 3009DPPE   C2B57970   9.588  19.444  14.666 -0.2208  0.1764  0.4172
 3009DPPE   C3B57971   9.590  19.268  15.010 -0.1474  0.1875  0.0650
 3009DPPE   C4B57972   9.467  19.093  15.285  0.1285  0.0143  0.0361
 3010DPPE   NH357973   5.085  10.986  18.458 -0.0520 -0.1558  0.0865
 3010DPPE   PO457974   4.819  11.384  18.152 -0.1180  0.0813  0.2833
 3010DPPE   GL157975   5.068  11.525  17.742 -0.0076 -0.0898  0.0922
 3010DPPE   GL257976   5.209  11.855  17.687  0.0299 -0.2801  0.1430
 3010DPPE   C1A57977   5.465  11.376  17.573 -0.1037 -0.0890  0.0621
 3010DPPE   C2A57978   5.579  11.381  17.144 -0.0559 -0.1613 -0.1948
 3010DPPE   C3A57979   5.751  11.216  16.749 -0.1201  0.1463  0.0107
 3010DPPE   C4A57980   5.841  10.859  16.465 -0.1408 -0.2112 -0.1303
 3010DPPE   C1B57981   4.907  12.201  17.623  0.1713  0.4958  0.4819
 3010DPPE   C2B57982   5.082  12.603  17.925 -0.0176  0.0870  0.0092
 3010DPPE   C3B57983   4.908  12.755  18.189  0.1965  0.2092  0.2873
 3010DPPE   C4B57984   5.080  12.883  18.671  0.1493  0.1391  0.0503
 3011DPPE   NH357985  12.771  19.722  12.337 -0.1344 -0.1106  0.2685
 3011DPPE   PO457986  12.860  19.926  12.793  0.1821  0.0357  0.0878
 3011DPPE   GL157987  12.889  20.106  13.233  0.0316  0.0458 -0.1036
 3011DPPE   GL257988  13.088  20.417  13.249 -0.1415 -0.0646 -0.0463
 3011DPPE   C1A57989  12.892  20.184  13.721  0.3559  0.1524  0.0485
 3011DPPE   C2A57990  12.891  20.439  14.025  0.1249 -0.0967  0.3049
 3011DPPE   C3A57991  12.583  20.644  14.478  0.0541  0.0657 -0.3199
 3011DPPE   C4A57992  12.486  20.795  14.917  0.2679 -0.5648  0.1849
 3011DPPE   C1B57993  13.127  20.760  13.581 -0.4327  0.2707  0.1869
 3011DPPE   C2B57994  13.142  20.938  14.080  0.1040 -0.0789 -0.0273
 3011DPPE   C3B57995  13.018  20.940  14.584  0.0989  0.0540 -0.2056
 3011DPPE   C4B57996  13.192  21.098  15.006 -0.0845  0.0408  0.0646
 3012DPPE   NH357997   8.829  18.049  13.687 -0.0861 -0.1426 -0.0015
 3012DPPE   PO457998   8.593  17.801  13.561 -0.1872 -0.1080  0.0088
 3012DPPE   GL157999   8.679  17.513  13.800  0.0737 -0.2177 -0.0235
 3012DPPE   GL258000   8.886  17.300  13.771 -0.1032 -0.3590  0.0838
 3012DPPE   C1A58001   8.889  17.543  14.236  0.2574  0.0155 -0.2250
 3012DPPE   C2A58002   8.957  17.235  14.683 -0.1719  0.0123  0.0596
 3012DPPE   C3A58003   9.249  16.837  14.821 -0.1908 -0.0415  0.4402
 3012DPPE   C4A58004   9.147  16.328  14.830 -0.0027  0.0963 -0.3225
 3012DPPE   C1B58005   8.959  17.067  14.134  0.3053  0.1169  0.0109
 3012DPPE   C2B58006   9.155  16.646  14.322 -0.2562 -0.0500 -0.0955
 3012DPPE   C3B58007   9.296  16.196  14.370 -0.0585  0.1754 -0.3775
 3012DPPE   C4B58008   9.559  15.921  14.515  0.1117 -0.1367  0.0744
 3013DPPE   NH358009  14.939  23.409  13.265  0.5796 -0.0947  0.0645
 3013DPPE   PO458010  14.641  23.743  13.322  0.0183 -0.1319  0.4177
 3013DPPE   GL158011  14.682  23.553  13.744 -0.2277  0.0628 -0.0491
 3013DPPE   GL258012  14.370  23.484  13.780  0.2207  0.0631 -0.1894
 3013DPPE   C1A58013  14.753  23.218  14.048 -0.2145  0.0286 -0.0725
 3013DPPE   C2A58014  14.532  22.993  14.202  0.1612 -0.0052 -0.0714
 3013DPPE   C3A58015  14.342  22.776  14.595  0.0570 -0.0822 -0.0599
 3013DPPE   C4A58016  13.962  22.731  14.844  0.0702  0.0748  0.3673
 3013DPPE   C1B58017  14.365  23.557  14.222 -0.4180 -0.1173 -0.0095
 3013DPPE   C2B58018  14.134  23.855  14.373 -0.1244 -0.1199  0.1696
 3013DPPE   C3B58019  13.793  23.836  14.592  0.1980  0.0065 -0.3438
 3013DPPE   C4B58020  13.440  23.868  14.858  0.0110 -0.2145  0.1171
 3014DPPE   NH358021   7.406   8.253  16.215  0.0372  0.1306  0.2702
 3014DPPE   PO458022   7.507   8.234  16.661  0.4575 -0.1154 -0.1446
 3014DPPE   GL158023   7.738   8.642  16.563  0.3333  0.0440 -0.1501
 3014DPPE   GL258024   7.619   8.901  16.373  0.1295 -0.2997 -0.3480
 3014DPPE   C1A58025   8.157   8.736  16.798 -0.0918  0.1167 -0.1715
 3014DPPE   C2A58026   8.534   8.965  17.061  0.3881  0.1150  0.1877
 3014DPPE   C3A58027   8.880   9.072  17.246  0.2516  0.1129  0.1661
 3014DPPE   C4A58028   8.766   9.133  17.618  0.1299 -0.2231 -0.0403
 3014DPPE   C1B58029   7.736   9.363  16.540  0.2450  0.0818 -0.3496
 3014DPPE   C2B58030   7.655   9.535  16.888 -0.0549 -0.2340  0.3885
 3014DPPE   C3B58031   7.844   9.416  17.227  0.0110 -0.0144 -0.2719
 3014DPPE   C4B58032   8.022   9.068  17.315 -0.3391 -0.0851 -0.1691
 3015DPPE   NH358033  15.192  23.948  13.361  0.0027  0.0664  0.2500
 3015DPPE   PO458034  15.569  24.203  13.425  0.3042  0.2120 -0.0802
 3015DPPE   GL158035  15.873  24.208  13.719  0.0153 -0.2164 -0.1152
 3015DPPE   GL258036  15.859  23.995  13.849  0.2036  0.1124  0.0650
 3015DPPE   C1A58037  16.163  24.349  14.096 -0.0026 -0.2265 -0.2235
 3015DPPE   C2A58038  16.243  24.654  14.395 -0.0027 -0.0772 -0.2389
 3015DPPE   C3A58039  16.183  24.535  14.895  0.1096  0.1494  0.0341
 3015DPPE   C4A58040  15.826  24.298  15.091 -0.2218  0.1152  0.1603
 3015DPPE   C1B58041  15.519  24.343  14.040 -0.0671 -0.0522 -0.1872
 3015DPPE   C2B58042  15.224  24.151  14.287 -0.0254  0.0724 -0.3390
 3015DPPE   C3B58043  15.013  24.216  14.631  0.1743 -0.1726  0.3492
 3015DPPE   C4B58044  14.934  23.927  15.005  0.0894 -0.0676  0.0544
 3016DPPE   NH358045  22.464  12.528  14.956 -0.1821  0.0861 -0.0703
 3016DPPE   PO458046  22.448  12.993  14.909  0.1298  0.1255  0.1815
 3016DPPE   GL158047  22.009  13.151  14.943  0.2120  0.1604  0.4940
 3016DPPE   GL258048  21.920  13.376  14.798 -0.1509  0.1520 -0.0485
 3016DPPE   C1A58049  21.625  12.966  15.133  0.1483  0.0306 -0.2089
 3016DPPE   C2A58050  21.233  12.853  15.211  0.0229  0.2777 -0.2944
 3016DPPE   C3A58051  20.844  12.949  15.402 -0.2026 -0.1086  0.0800
 3016DPPE   C4A58052  20.464  12.995  15.397 -0.2648 -0.1733  0.1291
 3016DPPE   C1B58053  21.781  13.633  15.121  0.2087 -0.2253 -0.0019
 3016DPPE   C2B58054  21.740  13.952  15.513  0.0856 -0.0493 -0.1407
 3016DPPE   C3B58055  21.684  14.005  15.932 -0.4224  0.2716 -0.1830
 3016DPPE   C4B58056  21.801  13.663  16.327  0.1105 -0.1532  0.1863
 3017DPPE   NH358057  21.173  19.409  13.831  0.1363  0.0393 -0.1557
 3017DPPE   PO458058  21.341  19.394  14.290 -0.1385 -0.4694 -0.0418
 3017DPPE   GL158059  20.959  19.560  14.507 -0.1135 -0.3193  0.0814
 3017DPPE   GL258060  20.656  19.844  14.344 -0.3469 -0.0423  0.1774
 3017DPPE   C1A58061  20.905  19.624  15.013  0.0302  0.1478  0.2216
 3017DPPE   C2A58062  20.888  19.264  15.268 -0.0871 -0.1762  0.1931
 3017DPPE   C3A58063  21.042  18.879  15.100  0.3490 -0.1249 -0.1478
 3017DPPE   C4A58064  21.310  18.669  14.805  0.2331 -0.3597  0.2413
 3017DPPE   C1B58065  20.511  19.677  14.628  0.1312  0.1685 -0.0235
 3017DPPE   C2B58066  20.211  19.501  14.891  0.0939 -0.0406  0.0834
 3017DPPE   C3B58067  19.929  19.260  15.138  0.1957  0.0087  0.0825
 3017DPPE   C4B58068  19.845  18.919  15.358 -0.1220 -0.0898 -0.0289
 3018DPPE   NH358069  21.562  18.439  14.159 -0.1999  0.1478 -0.0795
 3018DPPE   PO458070  21.215  18.626  14.099  0.4320  0.0975  0.0564
 3018DPPE   GL158071  21.008  18.599  14.427  0.1118 -0.1068  0.0057
 3018DPPE   GL258072  21.261  18.261  14.486  0.0580  0.1728  0.3638
 3018DPPE   C1A58073  20.817  18.485  14.933  0.1757  0.0788  0.3124
 3018DPPE   C2A58074  20.471  18.418  15.218  0.0582  0.2412 -0.0159
 3018DPPE   C3A58075  20.111  18.373  15.457  0.0931 -0.0774 -0.0075
 3018DPPE   C4A58076  19.622  18.512  15.575 -0.1883  0.1233  0.0250
 3018DPPE   C1B58077  21.218  18.176  14.951  0.1073 -0.0744  0.0817
 3018DPPE   C2B58078  21.312  17.971  15.313  0.2353  0.2994  0.0033
 3018DPPE   C3B58079  21.253  17.566  15.563 -0.2237  0.0842  0.0989
 3018DPPE   C4B58080  21.533  17.228  15.637  0.4071 -0.0530  0.0117
 3019DPPE   NH358081  20.938  23.294  16.012 -0.0846 -0.0943 -0.1895
 3019DPPE   PO458082  20.822  23.718  15.986  0.1477 -0.2340  0.1049
 3019DPPE   GL158083  20.594  23.966  16.355  0.3486 -0.1640  0.2392
 3019DPPE   GL258084  20.221  24.085  16.417  0.0296  0.0126 -0.2186
 3019DPPE   C1A58085  20.314  23.562  16.604  0.1918  0.2513  0.1478
 3019DPPE   C2A58086  20.336  23.186  16.899 -0.2076 -0.0067 -0.1612
 3019DPPE   C3A58087  20.452  22.804  17.172  0.0934 -0.1162 -0.0706
 3019DPPE   C4A58088  20.658  22.593  17.507 -0.1196 -0.3073  0.2256
 3019DPPE   C1B58089  19.989  24.153  16.814  0.1858  0.4841 -0.0599
 3019DPPE   C2B58090  20.114  24.133  17.267  0.2313 -0.0187 -0.2084
 3019DPPE   C3B58091  20.099  24.534  17.526  0.0957 -0.1592 -0.3977
 3019DPPE   C4B58092  19.941  24.851  17.786  0.1102 -0.1589  0.2218
 3020DPPE   NH358093  11.811  12.569  12.885  0.0837  0.2074  0.0096
 3020DPPE   PO458094  12.027  12.176  12.968  0.2483  0.1836 -0.0584
 3020DPPE   GL158095  11.871  12.210  13.276  0.1192 -0.3938 -0.1018
 3020DPPE   GL258096  11.581  12.200  13.265 -0.0858 -0.1549 -0.2038
 3020DPPE   C1A58097  12.050  12.477  13.673  0.0520 -0.1786 -0.0501
 3020DPPE   C2A58098  12.270  12.462  13.960 -0.0304 -0.2347 -0.0594
 3020DPPE   C3A58099  12.433  12.723  14.268  0.1204  0.3988 -0.0270
 3020DPPE   C4A58100  12.300  12.760  14.692 -0.1352 -0.1186 -0.4407
 3020DPPE   C1B58101  11.496  12.324  13.751 -0.3426 -0.1130  0.1508
 3020DPPE   C2B58102  11.810  12.405  14.132 -0.0732  0.4962  0.0483
 3020DPPE   C3B58103  12.069  12.416  14.455 -0.1774 -0.2293 -0.1522
 3020DPPE   C4B58104  12.197  12.209  14.803 -0.2154  0.0495  0.1951
 3021DPPE   NH358105  11.777  20.847  13.035 -0.3646  0.0247 -0.2377
 3021DPPE   PO458106  11.868  21.235  13.116  0.2261  0.5049 -0.0735
 3021DPPE   GL158107  11.649  21.146  13.504 -0.0761  0.2848 -0.0537
 3021DPPE   GL258108  11.477  20.807  13.542 -0.0893 -0.0833 -0.5164
 3021DPPE   C1A58109  11.464  21.250  13.904  0.2992  0.0673 -0.3406
 3021DPPE   C2A58110  11.691  21.204  14.204  0.2444 -0.3897 -0.0735
 3021DPPE   C3A58111  12.177  21.303  14.338  0.1058  0.1159  0.2891
 3021DPPE   C4A58112  12.548  21.197  14.572 -0.3349  0.1994  0.0070
 3021DPPE   C1B58113  11.892  20.832  13.838 -0.0602 -0.1495 -0.1008
 3021DPPE   C2B58114  12.011  20.612  14.119  0.2314  0.6186 -0.1582
 3021DPPE   C3B58115  12.118  20.834  14.545  0.0354 -0.1974 -0.0864
 3021DPPE   C4B58116  12.013  20.730  14.896 -0.1737  0.4071  0.0135
 3022DPPE   NH358117   7.806  21.701  13.762 -0.0720  0.0771 -0.0356
 3022DPPE   PO458118   7.497  22.088  13.863 -0.2721 -0.0053 -0.1155
 3022DPPE   GL158119   7.468  22.295  14.231  0.1860  0.1165  0.2170
 3022DPPE   GL258120   7.309  22.002  14.358 -0.1440 -0.0571 -0.0199
 3022DPPE   C1A58121   7.687  22.239  14.681  0.2610 -0.3254 -0.2012
 3022DPPE   C2A58122   8.107  22.102  14.957 -0.2808 -0.0216  0.1745
 3022DPPE   C3A58123   8.239  21.730  15.008 -0.0127 -0.0639 -0.3163
 3022DPPE   C4A58124   8.415  21.423  15.247 -0.0313  0.2456 -0.1057
 3022DPPE   C1B58125   7.526  21.720  14.587 -0.3034 -0.0477 -0.0710
 3022DPPE   C2B58126   7.720  21.742  14.975 -0.0193 -0.1963 -0.2622
 3022DPPE   C3B58127   7.927  21.619  15.370 -0.0072 -0.4221 -0.0779
 3022DPPE   C4B58128   8.061  21.626  15.777 -0.1404  0.4519  0.0404
 3023DPPE   NH358129  17.380  13.351  12.957  0.0486  0.1579 -0.0568
 3023DPPE   PO458130  17.589  13.658  12.767 -0.4290  0.0306 -0.1574
 3023DPPE   GL158131  17.501  13.801  13.197 -0.0110  0.2154 -0.5186
 3023DPPE   GL258132  17.406  14.072  13.161  0.4310  0.2233  0.1186
 3023DPPE   C1A58133  17.430  13.634  13.641 -0.0387 -0.1481 -0.2878
 3023DPPE   C2A58134  17.319  13.792  14.057 -0.0336  0.1265  0.0444
 3023DPPE   C3A58135  17.182  13.659  14.466  0.0515 -0.0586  0.2210
 3023DPPE   C4A58136  17.007  13.254  14.625 -0.0476 -0.1676 -0.0605
 3023DPPE   C1B58137  17.754  14.214  13.385  0.1707 -0.1657  0.0878
 3023DPPE   C2B58138  18.054  14.443  13.583 -0.6150 -0.1144  0.0410
 3023DPPE   C3B58139  18.337  14.226  13.831 -0.0114  0.0165  0.0644
 3023DPPE   C4B58140  18.177  13.967  14.202  0.0632  0.0562  0.4280
 3024DPPE   NH358141  13.363  18.168  12.530  0.3685 -0.4571 -0.1507
 3024DPPE   PO458142  13.565  18.577  12.387 -0.0667 -0.0772  0.0120
 3024DPPE   GL158143  13.603  18.690  12.911  0.2255 -0.0259 -0.1598
 3024DPPE   GL258144  13.620  19.057  13.040  0.1022  0.2511  0.1244
 3024DPPE   C1A58145  13.506  18.561  13.287  0.2096  0.0962 -0.1765
 3024DPPE   C2A58146  13.841  18.503  13.535  0.0956  0.1225 -0.0330
 3024DPPE   C3A58147  14.012  18.574  13.865  0.0239 -0.1053 -0.2668
 3024DPPE   C4A58148  14.254  18.229  14.102  0.0957 -0.1147 -0.0168
 3024DPPE   C1B58149  13.365  18.998  13.383  0.0203 -0.2144  0.2157
 3024DPPE   C2B58150  13.547  18.818  13.843 -0.1559 -0.0568  0.1458
 3024DPPE   C3B58151  13.526  18.463  13.999 -0.0512  0.0742 -0.2797
 3024DPPE   C4B58152  13.325  17.985  14.119 -0.4957  0.1250  0.1999
 3025DPPE   NH358153  22.131  17.868  14.512  0.1093 -0.2581  0.1946
 3025DPPE   PO458154  21.947  17.747  14.105 -0.0670 -0.0474  0.0919
 3025DPPE   GL158155  21.665  17.949  14.369  0.3395 -0.0618  0.0195
 3025DPPE   GL258156  21.789  18.216  14.524  0.0282 -0.3557 -0.0646
 3025DPPE   C1A58157  21.583  17.830  14.821  0.0061 -0.1675  0.0568
 3025DPPE   C2A58158  21.595  17.484  15.059  0.3279 -0.4216  0.0150
 3025DPPE   C3A58159  21.088  17.254  15.156  0.2393 -0.0884 -0.0172
 3025DPPE   C4A58160  20.639  17.303  15.113 -0.1156  0.1996  0.1599
 3025DPPE   C1B58161  21.687  18.331  14.884  0.5847 -0.1654 -0.1037
 3025DPPE   C2B58162  21.734  18.155  15.320 -0.2714  0.2787  0.1286
 3025DPPE   C3B58163  21.512  18.155  15.750  0.3627 -0.0438  0.0756
 3025DPPE   C4B58164  21.398  18.290  16.176  0.1493 -0.1570  0.0265
 3026DPPE   NH358165   6.770  25.202  15.459  0.0075  0.1479 -0.0945
 3026DPPE   PO458166   6.516  24.930  15.746 -0.1638 -0.0695 -0.1644
 3026DPPE   GL158167   6.710  24.636  15.793  0.2142 -0.1463 -0.0107
 3026DPPE   GL258168   6.999  24.705  15.817  0.0489 -0.0324  0.0273
 3026DPPE   C1A58169   6.949  24.316  16.121 -0.0617  0.0841 -0.3465
 3026DPPE   C2A58170   6.914  23.895  16.369  0.4308 -0.0865  0.1147
 3026DPPE   C3A58171   6.628  23.545  16.172  0.1816 -0.2734  0.1830
 3026DPPE   C4A58172   6.560  23.118  16.088  0.0696 -0.0745 -0.0970
 3026DPPE   C1B58173   7.299  24.761  16.203  0.1808  0.1399  0.0157
 3026DPPE   C2B58174   7.623  25.000  16.398  0.0413 -0.2074 -0.1986
 3026DPPE   C3B58175   7.646  25.324  16.166 -0.0309 -0.0624  0.1283
 3026DPPE   C4B58176   7.757  25.465  15.721  0.1312 -0.0277  0.0635
 3027DPPE   NH358177  10.570   7.578  15.428 -0.4810  0.0260 -0.0413
 3027DPPE   PO458178  10.243   7.809  15.220 -0.4793  0.0484 -0.4303
 3027DPPE   GL158179  10.339   8.195  15.474 -0.3207  0.1656  0.1111
 3027DPPE   GL258180  10.258   8.049  15.689 -0.0585  0.0564  0.0096
 3027DPPE   C1A58181  10.267   8.517  15.894 -0.1620  0.2964  0.3478
 3027DPPE   C2A58182  10.597   8.743  16.151  0.0786  0.1563 -0.2618
 3027DPPE   C3A58183  10.844   9.119  16.019  0.2017 -0.0132  0.1385
 3027DPPE   C4A58184  11.216   9.300  16.248 -0.2005  0.0439  0.2726
 3027DPPE   C1B58185  10.470   8.009  16.008  0.2170 -0.0003 -0.3592
 3027DPPE   C2B58186  10.680   7.727  16.255 -0.1210  0.2476  0.1828
 3027DPPE   C3B58187  10.612   7.503  16.622 -0.1495 -0.0544 -0.1359
 3027DPPE   C4B58188  10.874   7.193  16.730 -0.1922 -0.2730  0.0236
 3028DPPE   NH358189  16.393  14.207  12.745  0.1924 -0.1438 -0.2540
 3028DPPE   PO458190  16.571  14.497  12.531  0.0589 -0.2584 -0.1088
 3028DPPE   GL158191  16.829  14.626  12.938 -0.0311  0.1129 -0.0681
 3028DPPE   GL258192  17.295  14.562  12.928 -0.0237 -0.2792  0.1619
 3028DPPE   C1A58193  16.703  14.456  13.440  0.0357 -0.2159  0.2906
 3028DPPE   C2A58194  16.761  14.202  13.859  0.2789 -0.1236 -0.1755
 3028DPPE   C3A58195  16.976  14.198  14.207 -0.2146 -0.1249 -0.1977
 3028DPPE   C4A58196  17.102  14.461  14.506 -0.0081  0.0395  0.1443
 3028DPPE   C1B58197  17.188  14.513  13.382  0.2477  0.0372 -0.0330
 3028DPPE   C2B58198  17.214  14.765  13.813  0.0725 -0.0993 -0.0313
 3028DPPE   C3B58199  17.120  15.011  14.268 -0.0454 -0.0939  0.3705
 3028DPPE   C4B58200  16.966  15.338  14.601  0.2953  0.2837 -0.4545
 3029DPPE   NH358201   5.391  22.997  16.091 -0.0531  0.1787 -0.1382
 3029DPPE   PO458202   5.845  23.279  16.088 -0.1146 -0.0505 -0.0266
 3029DPPE   GL158203   6.185  23.359  16.424 -0.4002  0.1263 -0.0201
 3029DPPE   GL258204   6.123  23.346  16.788  0.0697  0.1935 -0.1577
 3029DPPE   C1A58205   6.586  23.098  16.582 -0.1834 -0.1877 -0.1176
 3029DPPE   C2A58206   7.064  22.938  16.724 -0.0963  0.1065  0.1873
 3029DPPE   C3A58207   7.436  22.906  16.938 -0.2073  0.2137  0.0566
 3029DPPE   C4A58208   7.805  22.905  16.626  0.0106 -0.0156  0.2118
 3029DPPE   C1B58209   6.509  23.593  16.707  0.1042 -0.1245  0.1249
 3029DPPE   C2B58210   6.948  23.424  16.562 -0.1984  0.2301 -0.1614
 3029DPPE   C3B58211   7.397  23.183  16.406 -0.2599 -0.3021 -0.0766
 3029DPPE   C4B58212   7.661  23.019  16.150  0.1297  0.0602  0.1856
 3030DPPE   NH358213   8.998  22.921  14.081 -0.1458 -0.0222  0.1054
 3030DPPE   PO458214   9.131  23.336  14.156  0.0847 -0.1097 -0.0448
 3030DPPE   GL158215   9.444  23.133  14.321  0.2318  0.1550 -0.2074
 3030DPPE   GL258216   9.759  23.136  14.226  0.0663 -0.2313  0.0878
 3030DPPE   C1A58217   9.577  23.201  14.719 -0.1233 -0.0313 -0.1383
 3030DPPE   C2A58218   9.967  23.106  15.040 -0.1017  0.0468  0.1165
 3030DPPE   C3A58219  10.194  22.696  15.003  0.3234  0.0070  0.0838
 3030DPPE   C4A58220  10.293  22.292  14.932 -0.0452  0.1522  0.0702
 3030DPPE   C1B58221  10.015  23.450  14.584 -0.1912  0.0128 -0.3839
 3030DPPE   C2B58222  10.401  23.457  14.727  0.1389  0.1362  0.2697
 3030DPPE   C3B58223  10.796  23.735  14.803 -0.2196  0.3482 -0.2986
 3030DPPE   C4B58224  11.099  24.167  14.808 -0.2828 -0.1363 -0.1506
 3031DPPE   NH358225   9.027  14.833  13.828 -0.2575  0.4887 -0.0132
 3031DPPE   PO458226   8.978  14.385  13.591 -0.2117  0.1180 -0.0159
 3031DPPE   GL158227   9.131  14.340  14.000 -0.2873 -0.1870  0.0578
 3031DPPE   GL258228   8.957  14.472  14.259  0.1999 -0.4123 -0.0878
 3031DPPE   C1A58229   9.154  14.025  14.277 -0.1229 -0.1723  0.1516
 3031DPPE   C2A58230   9.056  13.623  14.396  0.1488  0.0165  0.2187
 3031DPPE   C3A58231   8.809  13.304  14.510 -0.0060 -0.0073  0.2316
 3031DPPE   C4A58232   8.293  13.215  14.436  0.1029 -0.0408 -0.3419
 3031DPPE   C1B58233   8.955  14.116  14.667 -0.1054 -0.0416 -0.5434
 3031DPPE   C2B58234   9.200  13.774  14.883 -0.2111  0.1876 -0.3209
 3031DPPE   C3B58235   9.110  13.348  14.930  0.0430  0.1319  0.3609
 3031DPPE   C4B58236   9.283  13.011  15.245 -0.1673  0.1729 -0.1080
 3032DPPE   NH358237  23.112  12.057  18.366  0.1292 -0.2599  0.1685
 3032DPPE   PO458238  23.158  11.488  18.413 -0.0010  0.2063 -0.1937
 3032DPPE   GL158239  22.682  11.755  18.360 -0.3098 -0.1540 -0.4560
 3032DPPE   GL258240  22.439  11.726  18.657  0.3001  0.0878  0.2077
 3032DPPE   C1A58241  22.427  11.524  18.025  0.0242 -0.3690 -0.3544
 3032DPPE   C2A58242  22.187  11.661  17.683  0.2945  0.3771  0.2592
 3032DPPE   C3A58243  22.046  12.116  17.657  0.1887 -0.3519 -0.0225
 3032DPPE   C4A58244  22.204  12.486  17.552  0.0870 -0.0127  0.0627
 3032DPPE   C1B58245  21.998  11.734  18.675  0.2300 -0.1216  0.0885
 3032DPPE   C2B58246  21.631  11.913  18.996 -0.0345  0.2146  0.2535
 3032DPPE   C3B58247  21.250  11.832  19.201 -0.2381 -0.2479 -0.3621
 3032DPPE   C4B58248  20.823  11.651  19.225 -0.1753  0.1018  0.0638
 3033DPPE   NH358249   4.767  22.893  19.951  0.0072 -0.0443 -0.1988
 3033DPPE   PO458250   4.834  23.085  19.610  0.0592  0.1082 -0.3411
 3033DPPE   GL158251   5.265  22.963  19.913 -0.1044 -0.2101 -0.0576
 3033DPPE   GL258252   5.527  23.155  20.045 -0.2446 -0.0693 -0.1427
 3033DPPE   C1A58253   5.505  22.612  20.025  0.4753 -0.6238 -0.0245
 3033DPPE   C2A58254   5.950  22.523  20.192  0.1515 -0.0223  0.1037
 3033DPPE   C3A58255   6.317  22.687  20.134 -0.1426 -0.0591 -0.1507
 3033DPPE   C4A58256   6.788  22.779  20.080 -0.2418  0.1454  0.0449
 3033DPPE   C1B58257   5.861  23.387  20.248  0.2535  0.0792 -0.0395
 3033DPPE   C2B58258   6.212  23.580  20.344 -0.0809  0.1054  0.0637
 3033DPPE   C3B58259   6.475  23.742  20.734  0.3276 -0.0194 -0.1021
 3033DPPE   C4B58260   6.616  23.820  21.154 -0.0256 -0.2557  0.2615
 3034DPPE   NH358261  21.677  15.465  13.667 -0.2106  0.2817 -0.2000
 3034DPPE   PO458262  21.435  15.493  13.353  0.1376 -0.0354 -0.2130
 3034DPPE   GL158263  21.165  15.486  13.649  0.1582  0.0500  0.1833
 3034DPPE   GL258264  21.279  15.427  13.985  0.1549 -0.0483  0.2197
 3034DPPE   C1A58265  20.767  15.613  13.754  0.2167  0.0694  0.3029
 3034DPPE   C2A58266  20.437  15.672  14.052 -0.1552  0.0114 -0.2252
 3034DPPE   C3A58267  20.608  16.021  14.149 -0.3026  0.0848  0.1364
 3034DPPE   C4A58268  20.650  16.211  14.494 -0.1212 -0.0316  0.0514
 3034DPPE   C1B58269  20.906  15.433  14.214 -0.1578 -0.0231 -0.0890
 3034DPPE   C2B58270  20.716  15.690  14.555 -0.3578  0.1717 -0.2015
 3034DPPE   C3B58271  20.394  15.733  14.736 -0.0484 -0.3798  0.5141
 3034DPPE   C4B58272  20.182  16.039  14.947  0.0493 -0.0725 -0.0481
 3035DPPE   NH358273   8.717  23.786  14.150  0.2245 -0.1514  0.1040
 3035DPPE   PO458274   8.305  23.671  14.345 -0.2498 -0.2499 -0.0330
 3035DPPE   GL158275   8.496  23.301  14.723  0.2181  0.1673 -0.1205
 3035DPPE   GL258276   8.252  23.039  14.646  0.1147  0.1309 -0.0275
 3035DPPE   C1A58277   8.863  23.370  15.024 -0.0987  0.1040  0.2103
 3035DPPE   C2A58278   8.951  23.454  15.353 -0.1184 -0.0685 -0.2034
 3035DPPE   C3A58279   9.283  23.422  15.614  0.0060  0.0659  0.1277
 3035DPPE   C4A58280   9.652  23.174  15.476  0.1838 -0.3507 -0.0967
 3035DPPE   C1B58281   8.568  22.861  14.927 -0.0002  0.1236 -0.1082
 3035DPPE   C2B58282   8.777  22.932  15.324  0.0344  0.1044  0.1406
 3035DPPE   C3B58283   8.823  23.070  15.759 -0.1440  0.3389 -0.0475
 3035DPPE   C4B58284   8.681  23.125  16.114 -0.2252 -0.2730  0.0159
 3036DPPE   NH358285  22.079  21.323  16.949  0.0008 -0.3828 -0.1554
 3036DPPE   PO458286  22.323  21.067  17.236  0.2027  0.2133 -0.0574
 3036DPPE   GL158287  21.809  21.102  17.264  0.0840 -0.0231  0.3827
 3036DPPE   GL258288  21.700  20.822  17.178 -0.2671 -0.0724 -0.0453
 3036DPPE   C1A58289  21.381  21.269  17.393 -0.2363  0.0695 -0.1172
 3036DPPE   C2A58290  21.032  21.440  17.132  0.1309  0.0050 -0.0500
 3036DPPE   C3A58291  20.922  21.320  16.704  0.2242  0.3155 -0.2182
 3036DPPE   C4A58292  20.766  20.978  16.554  0.0663 -0.1764 -0.2800
 3036DPPE   C1B58293  21.524  20.494  17.376 -0.0595 -0.3649 -0.0440
 3036DPPE   C2B58294  21.257  20.226  17.604 -0.3006  0.0935  0.4783
 3036DPPE   C3B58295  21.069  19.803  17.579 -0.0850 -0.3279  0.0115
 3036DPPE   C4B58296  20.673  19.711  17.499 -0.2973  0.2101  0.1567
 3037DPPE   NH358297  22.350  20.732  16.805 -0.1738  0.0197 -0.1964
 3037DPPE   PO458298  22.051  20.858  16.793  0.1551 -0.2476  0.0550
 3037DPPE   GL158299  21.900  20.459  16.928 -0.0465 -0.1070 -0.0728
 3037DPPE   GL258300  21.790  20.326  16.628 -0.1008 -0.2737  0.1482
 3037DPPE   C1A58301  21.576  20.150  17.015  0.4928  0.3084 -0.0611
 3037DPPE   C2A58302  21.270  19.810  17.062  0.0078 -0.3958 -0.1083
 3037DPPE   C3A58303  20.903  19.517  17.135 -0.2581 -0.0980  0.0729
 3037DPPE   C4A58304  20.828  19.226  17.337 -0.0465 -0.0085  0.3949
 3037DPPE   C1B58305  21.371  20.477  16.683  0.1427  0.0188  0.0681
 3037DPPE   C2B58306  21.054  20.251  17.027  0.3991 -0.0847 -0.1235
 3037DPPE   C3B58307  20.751  20.141  17.355 -0.2659  0.0134  0.1976
 3037DPPE   C4B58308  20.479  20.130  17.625  0.0872 -0.1372  0.3579
 3038DPPE   NH358309  14.089  21.332  12.919 -0.1551 -0.4590 -0.0340
 3038DPPE   PO458310  14.116  21.395  13.344 -0.1719 -0.2558  0.2296
 3038DPPE   GL158311  14.352  21.351  13.682  0.0467  0.3602  0.0162
 3038DPPE   GL258312  14.367  21.201  13.902 -0.0457 -0.2298 -0.1210
 3038DPPE   C1A58313  14.729  21.580  13.790  0.1019  0.0610 -0.0274
 3038DPPE   C2A58314  14.980  21.768  14.133 -0.1964 -0.0819  0.2131
 3038DPPE   C3A58315  15.083  22.178  14.236  0.0896  0.1041 -0.2407
 3038DPPE   C4A58316  15.315  22.390  14.515  0.1017 -0.1195 -0.3562
 3038DPPE   C1B58317  14.417  21.593  14.137  0.0183  0.4810  0.1557
 3038DPPE   C2B58318  14.553  21.767  14.500 -0.2049  0.0465  0.0829
 3038DPPE   C3B58319  14.875  21.607  14.825 -0.1160  0.0813 -0.2152
 3038DPPE   C4B58320  15.242  21.445  14.857  0.2642  0.1971  0.1767
 3039DPPE   NH358321  17.698  17.517  12.748  0.0008 -0.2335 -0.2562
 3039DPPE   PO458322  17.607  17.928  12.846  0.0127 -0.2543 -0.0050
 3039DPPE   GL158323  17.416  17.771  13.186 -0.1508 -0.0568 -0.0422
 3039DPPE   GL258324  17.251  17.495  13.199  0.0192 -0.3508 -0.0566
 3039DPPE   C1A58325  17.457  17.729  13.607 -0.0365  0.4072 -0.2556
 3039DPPE   C2A58326  17.429  17.311  13.743 -0.0290  0.0513 -0.2064
 3039DPPE   C3A58327  17.408  16.961  13.405  0.3293  0.2879  0.0122
 3039DPPE   C4A58328  16.991  16.814  13.305  0.2680  0.0255 -0.0275
 3039DPPE   C1B58329  17.026  17.343  13.499 -0.3400 -0.2862 -0.0917
 3039DPPE   C2B58330  17.036  17.000  13.851  0.0284 -0.3032 -0.1627
 3039DPPE   C3B58331  16.970  16.838  14.175 -0.2512  0.1514 -0.1966
 3039DPPE   C4B58332  16.944  16.531  14.338 -0.0966 -0.0290 -0.1376
 3040DPPE   NH358333  12.740   6.663  15.885 -0.2911 -0.1087  0.1903
 3040DPPE   PO458334  12.490   6.551  15.545  0.3916 -0.0352 -0.2664
 3040DPPE   GL158335  12.534   7.041  15.567 -0.0062  0.3590  0.0904
 3040DPPE   GL258336  12.282   7.235  15.627 -0.1716  0.1792 -0.0716
 3040DPPE   C1A58337  12.821   7.337  15.435  0.1287  0.2996  0.1442
 3040DPPE   C2A58338  13.230   7.556  15.379 -0.2353 -0.1862  0.0152
 3040DPPE   C3A58339  13.375   7.990  15.345  0.1501  0.1561  0.3298
 3040DPPE   C4A58340  13.537   8.398  15.125  0.0239 -0.1082  0.1117
 3040DPPE   C1B58341  12.528   7.512  15.810  0.1575  0.0675 -0.0754
 3040DPPE   C2B58342  12.822   7.551  16.186  0.2022  0.2230 -0.2401
 3040DPPE   C3B58343  12.578   7.763  16.461 -0.0251 -0.0885 -0.3953
 3040DPPE   C4B58344  12.104   7.748  16.576 -0.1960  0.0675 -0.0975
 3041DPPE   NH358345  10.494  21.647  13.344  0.2528  0.1446  0.1693
 3041DPPE   PO458346  10.015  21.517  13.408 -0.2654  0.0223  0.0708
 3041DPPE   GL158347  10.274  21.323  13.649 -0.1792  0.0198 -0.0507
 3041DPPE   GL258348  10.463  21.094  13.711  0.2523 -0.0180  0.3329
 3041DPPE   C1A58349  10.219  21.253  14.092  0.0793  0.0021  0.0014
 3041DPPE   C2A58350  10.080  21.322  14.467  0.2964 -0.2098  0.2234
 3041DPPE   C3A58351   9.934  21.502  14.693 -0.0630 -0.0637  0.2660
 3041DPPE   C4A58352   9.775  21.907  14.638  0.1837 -0.2303 -0.4122
 3041DPPE   C1B58353  10.686  20.996  14.022  0.2788 -0.1680  0.1742
 3041DPPE   C2B58354  10.832  20.825  14.412  0.0532 -0.0178  0.0787
 3041DPPE   C3B58355  10.720  20.661  14.707 -0.0715 -0.1641  0.0292
 3041DPPE   C4B58356  10.748  20.720  15.070  0.0676  0.0231 -0.3046
 3042DPPE   NH358357  16.709   6.197  17.120 -0.0405 -0.2293  0.0685
 3042DPPE   PO458358  16.888   6.482  17.446 -0.1324 -0.0601 -0.2147
 3042DPPE   GL158359  16.583   6.751  17.363  0.0397  0.1857 -0.2644
 3042DPPE   GL258360  16.295   6.821  17.447 -0.2364  0.2691 -0.0097
 3042DPPE   C1A58361  16.314   6.968  16.980 -0.2284  0.2061  0.0538
 3042DPPE   C2A58362  15.965   7.245  16.878 -0.2031 -0.1355  0.2484
 3042DPPE   C3A58363  15.975   7.733  16.945  0.1452  0.3024  0.0373
 3042DPPE   C4A58364  16.132   8.194  16.899  0.2398 -0.0934 -0.3529
 3042DPPE   C1B58365  16.011   6.950  17.846 -0.1020 -0.0605 -0.1253
 3042DPPE   C2B58366  16.011   7.296  18.074 -0.0804 -0.0046  0.0062
 3042DPPE   C3B58367  15.925   7.519  18.392 -0.1201 -0.1700 -0.0768
 3042DPPE   C4B58368  15.846   7.996  18.386 -0.0787 -0.2899  0.0891
 3043DPPE   NH358369  12.330  13.641  12.934  0.0797  0.0550  0.4506
 3043DPPE   PO458370  12.686  13.871  12.772 -0.1238  0.5548  0.3271
 3043DPPE   GL158371  12.996  13.858  13.026  0.0282  0.4317 -0.1722
 3043DPPE   GL258372  12.756  13.843  13.240  0.0026 -0.1807  0.0265
 3043DPPE   C1A58373  13.142  13.881  13.584 -0.0943 -0.1253  0.2133
 3043DPPE   C2A58374  13.045  14.013  14.099  0.0782  0.2270 -0.0636
 3043DPPE   C3A58375  12.990  14.111  14.595  0.1069  0.0563  0.0658
 3043DPPE   C4A58376  12.926  14.225  15.044  0.1551 -0.0149  0.2034
 3043DPPE   C1B58377  12.415  13.999  13.467 -0.0830 -0.1204 -0.0080
 3043DPPE   C2B58378  12.399  14.254  13.862  0.0872  0.0510 -0.0844
 3043DPPE   C3B58379  12.578  14.318  14.253  0.0145  0.2201  0.0433
 3043DPPE   C4B58380  12.693  14.533  14.596 -0.2383  0.1686 -0.1110
 3044DPPE   NH358381  11.613  19.976  13.000 -0.3028  0.1520 -0.1524
 3044DPPE   PO458382  11.846  20.277  13.067  0.2393 -0.1598 -0.1480
 3044DPPE   GL158383  11.711  20.400  13.409  0.1293  0.2433 -0.2477
 3044DPPE   GL258384  11.487  20.112  13.489 -0.2784  0.0943  0.0399
 3044DPPE   C1A58385  11.636  20.364  13.842  0.0300 -0.2309 -0.3221
 3044DPPE   C2A58386  11.658  20.228  14.211  0.2016 -0.1632 -0.0343
 3044DPPE   C3A58387  11.993  20.339  14.576  0.1134  0.4651  0.4385
 3044DPPE   C4A58388  12.242  20.220  14.962  0.1938 -0.2355  0.1618
 3044DPPE   C1B58389  11.586  19.888  13.802 -0.1470  0.2880 -0.2646
 3044DPPE   C2B58390  12.011  19.693  13.793 -0.0928  0.0084 -0.0124
 3044DPPE   C3B58391  12.399  19.708  14.085  0.1580 -0.0471  0.0655
 3044DPPE   C4B58392  12.857  19.874  14.073 -0.0986 -0.4137 -0.3008
 3045DPPE   NH358393  16.208  15.032  12.492  0.1193 -0.1005 -0.1061
 3045DPPE   PO458394  15.822  15.319  12.517 -0.1982  0.1252 -0.2551
 3045DPPE   GL158395  15.823  15.247  12.947 -0.0859 -0.2568 -0.1959
 3045DPPE   GL258396  15.631  14.941  12.924  0.1251 -0.0460 -0.0346
 3045DPPE   C1A58397  16.052  15.190  13.329  0.2386 -0.3224  0.1048
 3045DPPE   C2A58398  16.409  14.877  13.574 -0.0090 -0.1211  0.0848
 3045DPPE   C3A58399  16.616  14.639  14.090  0.0237  0.0005  0.0498
 3045DPPE   C4A58400  16.627  14.852  14.560 -0.2450  0.2144 -0.1304
 3045DPPE   C1B58401  15.787  14.709  13.265 -0.1704  0.0639  0.0082
 3045DPPE   C2B58402  15.703  14.418  13.648  0.0981  0.1999  0.0600
 3045DPPE   C3B58403  15.612  14.435  14.053  0.0663  0.1971  0.1327
 3045DPPE   C4B58404  15.257  14.606  14.292 -0.0172  0.0972  0.0703
 3046DPPE   NH358405  13.747  10.930  12.957  0.2387  0.2835 -0.2201
 3046DPPE   PO458406  13.359  10.968  13.089  0.1029 -0.1489  0.0146
 3046DPPE   GL158407  13.396  11.357  13.376  0.1916 -0.2443  0.1444
 3046DPPE   GL258408  13.194  11.667  13.336  0.1368 -0.0540  0.1258
 3046DPPE   C1A58409  13.635  11.268  13.747  0.1394  0.1250 -0.0493
 3046DPPE   C2A58410  13.973  11.257  14.039 -0.0703 -0.0007 -0.0567
 3046DPPE   C3A58411  14.164  11.431  14.458  0.4679 -0.0266 -0.1861
 3046DPPE   C4A58412  14.008  11.816  14.743 -0.3007 -0.0159  0.1172
 3046DPPE   C1B58413  13.206  11.591  13.884  0.1360  0.1734  0.3625
 3046DPPE   C2B58414  13.193  11.713  14.355 -0.0877  0.0293  0.2287
 3046DPPE   C3B58415  12.995  11.505  14.687  0.1177  0.0503 -0.1118
 3046DPPE   C4B58416  12.670  11.326  15.007 -0.1708  0.5664  0.1639
 3047DPPE   NH358417  18.483  19.370  12.168 -0.0258  0.0927  0.0271
 3047DPPE   PO458418  18.680  19.651  12.466  0.4406  0.2091 -0.2600
 3047DPPE   GL158419  18.543  19.628  12.873  0.3120 -0.0909  0.0486
 3047DPPE   GL258420  18.541  20.005  13.050  0.0583 -0.1948  0.2042
 3047DPPE   C1A58421  18.534  19.523  13.267  0.1805  0.0168  0.0020
 3047DPPE   C2A58422  18.217  19.553  13.567 -0.0516 -0.4734 -0.0613
 3047DPPE   C3A58423  18.005  19.590  13.929  0.0440  0.0670 -0.0626
 3047DPPE   C4A58424  17.790  19.478  14.227  0.0657  0.2503  0.0546
 3047DPPE   C1B58425  18.386  20.269  13.354 -0.1417 -0.0242  0.3465
 3047DPPE   C2B58426  18.088  20.247  13.597 -0.0629 -0.1562 -0.2913
 3047DPPE   C3B58427  18.034  20.060  14.037  0.1332 -0.2214  0.0379
 3047DPPE   C4B58428  17.945  19.926  14.540  0.0034  0.2887 -0.2088
 3048DPPE   NH358429  13.831   6.459  15.829 -0.1498  0.0580  0.0910
 3048DPPE   PO458430  14.280   6.396  15.758  0.2838  0.2098  0.1306
 3048DPPE   GL158431  14.213   6.791  15.937 -0.0876 -0.2275 -0.1809
 3048DPPE   GL258432  14.481   6.904  16.138  0.0852 -0.1252  0.0275
 3048DPPE   C1A58433  14.142   7.242  15.755 -0.0741 -0.0141 -0.0439
 3048DPPE   C2A58434  13.743   7.563  15.819 -0.2230 -0.3265  0.2947
 3048DPPE   C3A58435  13.515   7.671  16.165 -0.1863 -0.1588 -0.1298
 3048DPPE   C4A58436  13.202   7.841  16.332 -0.0805 -0.2971  0.2353
 3048DPPE   C1B58437  14.625   7.122  16.489  0.0370 -0.3660 -0.3003
 3048DPPE   C2B58438  14.419   7.175  16.810 -0.0825  0.0126 -0.1118
 3048DPPE   C3B58439  14.061   7.195  16.958  0.1654 -0.1021 -0.0235
 3048DPPE   C4B58440  13.744   7.459  16.977  0.1202 -0.1764  0.0825
 3049DPPE   NH358441  13.312  11.498  12.856  0.0308  0.2059 -0.0948
 3049DPPE   PO458442  13.747  11.428  12.808 -0.0186  0.1931  0.2024
 3049DPPE   GL158443  13.742  11.798  13.122  0.0686  0.0385  0.2329
 3049DPPE   GL258444  13.817  12.230  13.066  0.1847 -0.2479  0.0559
 3049DPPE   C1A58445  13.627  11.832  13.525 -0.0575  0.1069  0.1274
 3049DPPE   C2A58446  13.711  12.124  13.875 -0.2618 -0.1315 -0.2019
 3049DPPE   C3A58447  13.630  12.044  14.404  0.0493  0.1464 -0.0149
 3049DPPE   C4A58448  13.542  11.818  14.692  0.2317  0.1236  0.1439
 3049DPPE   C1B58449  13.641  12.401  13.375  0.1816  0.1455 -0.1282
 3049DPPE   C2B58450  13.476  12.508  13.723 -0.0541 -0.0439  0.2113
 3049DPPE   C3B58451  13.566  12.536  14.136 -0.2402  0.0596 -0.0008
 3049DPPE   C4B58452  13.648  12.546  14.543  0.2598  0.1492 -0.7043
 3050DPPE   NH358453  17.142  21.459  12.756  0.1374  0.0285  0.2857
 3050DPPE   PO458454  17.551  21.763  12.806 -0.1034 -0.1913  0.0455
 3050DPPE   GL158455  17.696  21.790  13.157 -0.2340  0.0527 -0.2130
 3050DPPE   GL258456  17.519  21.991  13.326 -0.0418  0.0914  0.0638
 3050DPPE   C1A58457  17.967  21.741  13.530 -0.2105  0.0486 -0.1462
 3050DPPE   C2A58458  17.990  21.590  13.945 -0.1653  0.0454  0.2256
 3050DPPE   C3A58459  18.295  21.661  14.250 -0.3457  0.0781  0.0182
 3050DPPE   C4A58460  18.399  21.823  14.672 -0.2110  0.0330  0.1912
 3050DPPE   C1B58461  17.252  22.222  13.777 -0.2310 -0.3990  0.3422
 3050DPPE   C2B58462  17.014  22.269  14.132  0.0022  0.1756  0.0536
 3050DPPE   C3B58463  17.192  22.472  14.495 -0.1076  0.2755 -0.1962
 3050DPPE   C4B58464  17.468  22.639  14.839 -0.1308  0.1183  0.1594
 3051DPPE   NH358465  10.618  10.366  12.775 -0.1630  0.0725  0.0056
 3051DPPE   PO458466  10.691  10.682  13.189  0.1258  0.0553  0.0787
 3051DPPE   GL158467  10.916  10.703  13.556  0.2497 -0.0782  0.0050
 3051DPPE   GL258468  10.643  10.645  13.768  0.0394 -0.0905  0.0108
 3051DPPE   C1A58469  11.327  10.784  13.902 -0.0371  0.1117 -0.1010
 3051DPPE   C2A58470  11.471  10.938  14.298  0.3235  0.2220  0.0930
 3051DPPE   C3A58471  11.545  11.115  14.670  0.0879  0.0733  0.1474
 3051DPPE   C4A58472  11.414  11.441  14.976  0.4347 -0.2587 -0.2018
 3051DPPE   C1B58473  10.706  10.973  14.042 -0.1854 -0.0838 -0.0544
 3051DPPE   C2B58474  10.953  11.035  14.336 -0.0716  0.1474 -0.0263
 3051DPPE   C3B58475  11.063  10.776  14.612  0.0645 -0.2051 -0.0676
 3051DPPE   C4B58476  11.062  10.410  14.789  0.0146  0.1713 -0.1852
 3052DPPE   NH358477  19.126  26.949  15.102  0.0508 -0.1557 -0.1670
 3052DPPE   PO458478  18.776  26.622  15.351 -0.0269 -0.1598 -0.2445
 3052DPPE   GL158479  18.750  26.183  15.469  0.0466  0.1692 -0.0954
 3052DPPE   GL258480  19.056  25.872  15.584  0.4159 -0.0373  0.0920
 3052DPPE   C1A58481  18.515  25.933  15.684  0.2822  0.1412 -0.0768
 3052DPPE   C2A58482  18.488  25.577  16.010 -0.0933  0.1065 -0.0079
 3052DPPE   C3A58483  18.489  25.148  16.288 -0.1995  0.0948 -0.1663
 3052DPPE   C4A58484  18.833  25.163  16.492 -0.1119 -0.4190  0.0331
 3052DPPE   C1B58485  18.825  25.515  15.671  0.0724 -0.1550 -0.1085
 3052DPPE   C2B58486  18.962  25.537  16.016 -0.2945  0.0270  0.1067
 3052DPPE   C3B58487  19.158  25.619  16.417  0.2514 -0.0627  0.2119
 3052DPPE   C4B58488  19.611  25.587  16.473 -0.0951  0.1445  0.2839
 3053DPPE   NH358489   8.407   7.737  16.572  0.1320  0.1221 -0.0053
 3053DPPE   PO458490   8.317   7.849  16.202  0.2343 -0.3615  0.2023
 3053DPPE   GL158491   8.582   8.209  16.312  0.1153  0.1310  0.2824
 3053DPPE   GL258492   8.705   8.115  16.685  0.1386  0.2291 -0.0993
 3053DPPE   C1A58493   8.580   8.674  16.486  0.0718  0.0103 -0.0180
 3053DPPE   C2A58494   8.494   9.075  16.604  0.1511  0.0760  0.0918
 3053DPPE   C3A58495   8.164   9.338  16.835 -0.0107 -0.2316 -0.2842
 3053DPPE   C4A58496   8.259   9.740  16.894 -0.2795 -0.1516  0.2843
 3053DPPE   C1B58497   9.018   8.118  16.892 -0.1863  0.0230  0.3071
 3053DPPE   C2B58498   9.088   8.192  17.377  0.0934  0.2620 -0.0679
 3053DPPE   C3B58499   8.978   8.254  17.743 -0.0486 -0.1262  0.0350
 3053DPPE   C4B58500   8.766   8.611  17.980  0.1702  0.1803  0.0361
 3054DPPE   NH358501  15.670  20.283  12.964 -0.0238 -0.1698  0.0956
 3054DPPE   PO458502  16.042  20.614  12.936 -0.3384  0.1479  0.0042
 3054DPPE   GL158503  15.959  20.492  13.316  0.2160  0.0653  0.2076
 3054DPPE   GL258504  15.567  20.643  13.368  0.1480 -0.2176 -0.3870
 3054DPPE   C1A58505  15.984  20.488  13.752 -0.0880  0.2881 -0.1149
 3054DPPE   C2A58506  15.899  20.235  14.146  0.1430 -0.0444 -0.1705
 3054DPPE   C3A58507  15.865  20.020  14.491  0.1765 -0.0117 -0.2779
 3054DPPE   C4A58508  15.916  19.913  14.890  0.0054 -0.0601  0.0014
 3054DPPE   C1B58509  15.531  20.229  13.604  0.1380 -0.1711 -0.0900
 3054DPPE   C2B58510  15.371  20.072  14.046 -0.0034 -0.0152  0.1349
 3054DPPE   C3B58511  15.152  20.085  14.353  0.0826 -0.0909  0.1816
 3054DPPE   C4B58512  15.026  19.893  14.693  0.1575  0.0057  0.0559
 3055DPPE   NH358513   9.162  27.365  16.050 -0.0666  0.1017 -0.0092
 3055DPPE   PO458514   8.695  27.258  16.207  0.1796 -0.3712  0.2278
 3055DPPE   GL158515   8.972  26.947  16.413  0.0015  0.0308 -0.0861
 3055DPPE   GL258516   9.284  27.066  16.421  0.1273  0.2041 -0.1036
 3055DPPE   C1A58517   9.140  26.705  16.721  0.1864 -0.1607  0.3030
 3055DPPE   C2A58518   9.183  26.339  16.889 -0.0284  0.1516 -0.0766
 3055DPPE   C3A58519   9.233  25.870  16.803  0.1434  0.1316 -0.1816
 3055DPPE   C4A58520   9.125  25.544  16.986 -0.2083 -0.3328 -0.0437
 3055DPPE   C1B58521   9.294  26.638  16.177 -0.1926 -0.1676  0.0384
 3055DPPE   C2B58522   9.036  26.285  16.054 -0.0154 -0.1118 -0.3109
 3055DPPE   C3B58523   8.765  26.144  15.665 -0.1075 -0.0473  0.1926
 3055DPPE   C4B58524   8.366  25.894  15.646 -0.1720 -0.0415 -0.2320
 3056DPPE   NH358525  12.755  17.110  12.502 -0.3831 -0.1220  0.2452
 3056DPPE   PO458526  12.427  16.867  12.483  0.0105  0.0573  0.0987
 3056DPPE   GL158527  12.592  16.823  12.896 -0.0499 -0.4719  0.0277
 3056DPPE   GL258528  12.624  16.560  13.059  0.1723  0.2635 -0.1228
 3056DPPE   C1A58529  12.571  16.905  13.393  0.2030  0.0492  0.0370
 3056DPPE   C2A58530  12.681  17.041  13.771 -0.3538  0.1036 -0.0012
 3056DPPE   C3A58531  13.039  17.296  13.857 -0.2564  0.0268  0.0656
 3056DPPE   C4A58532  13.199  17.355  14.183 -0.2635 -0.0270 -0.1634
 3056DPPE   C1B58533  13.004  16.784  13.170 -0.3157  0.4019 -0.1909
 3056DPPE   C2B58534  13.126  16.898  13.601 -0.0825 -0.1267  0.0960
 3056DPPE   C3B58535  13.348  16.770  13.978  0.0767 -0.1291  0.1615
 3056DPPE   C4B58536  13.578  16.919  14.324  0.3574  0.0418  0.1658
 3057DPPE   NH358537  12.033  10.941  13.065 -0.1096  0.3026 -0.0898
 3057DPPE   PO458538  11.967  11.265  12.814 -0.1959  0.4851 -0.0164
 3057DPPE   GL158539  11.934  11.381  13.256  0.0382 -0.1253 -0.5409
 3057DPPE   GL258540  11.620  11.149  13.327  0.2893 -0.0530 -0.0250
 3057DPPE   C1A58541  12.036  11.325  13.596  0.2428  0.0137 -0.1567
 3057DPPE   C2A58542  12.181  11.550  13.890  0.0341 -0.3590  0.2237
 3057DPPE   C3A58543  12.300  11.416  14.171  0.3196  0.1639 -0.0356
 3057DPPE   C4A58544  12.590  11.343  14.528  0.1531 -0.3538  0.0444
 3057DPPE   C1B58545  11.553  11.196  13.778  0.0330  0.0228 -0.0500
 3057DPPE   C2B58546  11.740  11.472  14.126  0.2899  0.1005  0.2327
 3057DPPE   C3B58547  11.899  11.539  14.460  0.3722  0.0749 -0.1629
 3057DPPE   C4B58548  12.137  11.356  14.734  0.1621 -0.3124  0.1411
 3058DPPE   NH358549  15.390  18.705  12.683 -0.4177  0.0362  0.1007
 3058DPPE   PO458550  15.203  19.125  12.575 -0.0415  0.1053  0.1076
 3058DPPE   GL158551  15.447  19.179  12.988 -0.1253  0.2145 -0.1032
 3058DPPE   GL258552  15.628  18.965  13.059  0.2618 -0.3868 -0.3287
 3058DPPE   C1A58553  15.567  19.547  13.327  0.2156 -0.1151  0.0929
 3058DPPE   C2A58554  15.744  19.810  13.697  0.1679  0.0346 -0.0383
 3058DPPE   C3A58555  15.663  19.669  14.176 -0.0409 -0.1478 -0.1478
 3058DPPE   C4A58556  15.750  19.536  14.570 -0.2007  0.3575  0.1567
 3058DPPE   C1B58557  15.303  18.988  13.442 -0.1787 -0.1437  0.0458
 3058DPPE   C2B58558  15.213  18.675  13.877 -0.2225 -0.0996  0.0852
 3058DPPE   C3B58559  15.236  18.303  14.139 -0.1151 -0.1729 -0.3784
 3058DPPE   C4B58560  15.327  18.276  14.541 -0.1743 -0.0598  0.2583
 3059DPPE   NH358561  10.795  16.056  12.493  0.0181  0.2489 -0.2442
 3059DPPE   PO458562  10.681  15.852  12.902  0.1168  0.3227  0.0330
 3059DPPE   GL158563  10.633  16.028  13.367  0.1200  0.1270  0.3476
 3059DPPE   GL258564  10.461  15.878  13.589 -0.2477 -0.0373 -0.1839
 3059DPPE   C1A58565  10.904  16.202  13.642  0.4446 -0.1091  0.2054
 3059DPPE   C2A58566  10.978  16.208  14.037 -0.1364 -0.2429  0.0443
 3059DPPE   C3A58567  10.998  16.145  14.457  0.2024  0.1643  0.1990
 3059DPPE   C4A58568  10.944  15.856  14.799 -0.1640  0.3350 -0.0777
 3059DPPE   C1B58569  10.531  16.053  14.021 -0.2887  0.2163  0.0535
 3059DPPE   C2B58570  10.614  15.853  14.373  0.1823  0.0283 -0.0531
 3059DPPE   C3B58571  10.423  16.096  14.714 -0.2135 -0.1614  0.0192
 3059DPPE   C4B58572  10.339  16.434  15.003 -0.3310 -0.2808  0.3545
 3060DPPE   NH358573   8.888  21.124  13.490  0.0272 -0.0633 -0.1000
 3060DPPE   PO458574   9.341  21.041  13.390  0.0265 -0.5375  0.2412
 3060DPPE   GL158575   9.421  21.138  13.916  0.2550 -0.0129 -0.4421
 3060DPPE   GL258576   9.741  21.027  14.050  0.2322 -0.1441 -0.0528
 3060DPPE   C1A58577   9.586  21.348  14.348 -0.3592 -0.4656  0.2432
 3060DPPE   C2A58578   9.401  21.604  14.653  0.1377  0.1624 -0.0772
 3060DPPE   C3A58579   9.169  21.578  15.063  0.3947  0.3189 -0.0447
 3060DPPE   C4A58580   9.000  21.335  15.468  0.3488  0.0721  0.0776
 3060DPPE   C1B58581   9.890  20.840  14.399 -0.1242  0.0685 -0.2561
 3060DPPE   C2B58582  10.080  20.435  14.571 -0.2940  0.0115  0.0479
 3060DPPE   C3B58583   9.987  20.154  14.855  0.0217 -0.1974  0.1835
 3060DPPE   C4B58584  10.252  19.969  15.196  0.1293  0.1259  0.1613
 3061DPPE   NH358585  19.643  23.127  13.921  0.0197  0.2459  0.0665
 3061DPPE   PO458586  19.328  23.007  14.022  0.0390 -0.1403 -0.0527
 3061DPPE   GL158587  19.014  22.948  14.320 -0.0845 -0.1022  0.1885
 3061DPPE   GL258588  18.775  22.977  14.168  0.4882 -0.0424 -0.1883
 3061DPPE   C1A58589  18.963  22.885  14.713 -0.1334 -0.0940 -0.2183
 3061DPPE   C2A58590  18.619  22.603  14.689 -0.0432  0.1746  0.2366
 3061DPPE   C3A58591  18.332  22.360  14.932 -0.0367  0.0960  0.0083
 3061DPPE   C4A58592  18.085  22.006  15.149  0.2486  0.0528 -0.0470
 3061DPPE   C1B58593  18.503  23.252  14.052 -0.1796 -0.4774  0.1244
 3061DPPE   C2B58594  18.463  23.693  14.168  0.0527 -0.3251  0.2601
 3061DPPE   C3B58595  18.475  23.881  14.601 -0.1492  0.1416 -0.1978
 3061DPPE   C4B58596  18.422  24.241  14.938  0.1177 -0.1143 -0.0399
 3062DPPE   NH358597  18.106  12.510  13.001  0.0388  0.0855 -0.0212
 3062DPPE   PO458598  18.106  12.227  13.295  0.1568 -0.1090  0.2106
 3062DPPE   GL158599  18.189  12.056  13.608  0.1546 -0.1043 -0.2359
 3062DPPE   GL258600  18.557  12.040  13.725  0.0572 -0.2167  0.0707
 3062DPPE   C1A58601  18.141  11.826  13.915  0.1041  0.0791  0.2080
 3062DPPE   C2A58602  18.056  11.647  14.369 -0.1999 -0.3273  0.4290
 3062DPPE   C3A58603  17.756  11.629  14.718  0.1017  0.1914  0.0495
 3062DPPE   C4A58604  17.609  11.502  15.105  0.0327  0.1102 -0.0365
 3062DPPE   C1B58605  18.501  12.171  14.104  0.0244 -0.0139  0.4877
 3062DPPE   C2B58606  18.318  12.164  14.484  0.2123 -0.2173 -0.2114
 3062DPPE   C3B58607  18.256  11.908  14.778  0.1469  0.0991 -0.1615
 3062DPPE   C4B58608  18.227  11.524  14.917 -0.0866  0.0237 -0.0186
 3063DPPE   NH358609   7.118  24.542  14.901  0.0850  0.0756  0.0654
 3063DPPE   PO458610   7.550  24.601  14.694  0.0757 -0.1590 -0.0115
 3063DPPE   GL158611   7.703  24.691  15.048 -0.0992  0.1997  0.0805
 3063DPPE   GL258612   7.863  25.027  15.286  0.3195  0.3219  0.0991
 3063DPPE   C1A58613   7.877  24.460  15.366  0.3765  0.2816  0.0029
 3063DPPE   C2A58614   7.829  24.422  15.823 -0.0082 -0.0018  0.0868
 3063DPPE   C3A58615   7.945  24.421  16.295 -0.3810 -0.1174  0.3583
 3063DPPE   C4A58616   7.824  24.401  16.777 -0.0818  0.2799 -0.1272
 3063DPPE   C1B58617   8.041  25.060  15.658 -0.0011  0.1344  0.0732
 3063DPPE   C2B58618   8.235  25.358  15.994 -0.2077 -0.0448  0.2329
 3063DPPE   C3B58619   8.629  25.397  16.200 -0.2340  0.1185  0.1065
 3063DPPE   C4B58620   8.954  25.547  16.460  0.0859  0.2167  0.2489
 3064DPPE   NH358621  23.543  14.472  15.631 -0.0314 -0.0007 -0.2509
 3064DPPE   PO458622  23.538  14.832  15.731 -0.1056 -0.1514  0.0477
 3064DPPE   GL158623  23.034  14.840  15.636 -0.0466  0.1984 -0.0906
 3064DPPE   GL258624  22.814  14.956  15.379 -0.2149 -0.0539 -0.0477
 3064DPPE   C1A58625  22.583  14.520  15.526 -0.0185 -0.2163  0.0954
 3064DPPE   C2A58626  22.226  14.290  15.322  0.2085  0.0167 -0.1744
 3064DPPE   C3A58627  21.892  14.105  15.063  0.0837  0.3097  0.2135
 3064DPPE   C4A58628  21.446  13.951  14.758  0.1315 -0.1821 -0.0391
 3064DPPE   C1B58629  22.351  15.001  15.593  0.0869  0.0801 -0.0991
 3064DPPE   C2B58630  22.093  15.269  15.784 -0.2395 -0.0478 -0.0203
 3064DPPE   C3B58631  21.806  15.644  15.920  0.0085 -0.1104 -0.1401
 3064DPPE   C4B58632  21.646  15.999  16.127  0.0893  0.2671 -0.1971
 3065DPPE   NH358633  16.332   8.079  14.040  0.0679  0.1648 -0.0628
 3065DPPE   PO458634  16.168   8.467  14.007 -0.2229 -0.0131 -0.0084
 3065DPPE   GL158635  16.196   8.811  14.284 -0.0095 -0.1298 -0.1278
 3065DPPE   GL258636  16.506   8.962  14.392  0.2850  0.1738  0.3398
 3065DPPE   C1A58637  15.816   8.968  14.562  0.0104 -0.1440  0.3763
 3065DPPE   C2A58638  15.531   9.261  14.557  0.3234 -0.0294 -0.4432
 3065DPPE   C3A58639  15.566   9.615  14.744 -0.0535 -0.0404  0.0117
 3065DPPE   C4A58640  15.522   9.740  15.138  0.3829  0.2542 -0.1372
 3065DPPE   C1B58641  16.320   9.121  14.834 -0.1319 -0.0286  0.2243
 3065DPPE   C2B58642  16.096   8.884  15.033 -0.0878 -0.4204 -0.1571
 3065DPPE   C3B58643  15.622   8.886  15.059 -0.2177  0.3117  0.1611
 3065DPPE   C4B58644  15.319   9.195  15.091  0.1472 -0.0034 -0.2048
 3066DPPE   NH358645   9.628  15.366  13.490  0.0541  0.2794 -0.1420
 3066DPPE   PO458646   9.467  15.772  13.610 -0.4291  0.1486 -0.0994
 3066DPPE   GL158647   9.640  15.657  13.941  0.0997 -0.0416  0.1053
 3066DPPE   GL258648   9.665  15.988  14.012  0.1644  0.0379  0.5776
 3066DPPE   C1A58649   9.697  15.414  14.241  0.3315 -0.2647  0.3201
 3066DPPE   C2A58650   9.997  15.259  14.709  0.0812 -0.0071 -0.1610
 3066DPPE   C3A58651  10.104  15.196  15.154 -0.2091  0.3320  0.2231
 3066DPPE   C4A58652  10.287  15.187  15.494 -0.2827  0.1268  0.2135
 3066DPPE   C1B58653  10.017  16.148  14.251 -0.1932 -0.2209  0.0780
 3066DPPE   C2B58654  10.046  16.477  14.547 -0.1311 -0.0947  0.3653
 3066DPPE   C3B58655   9.902  16.710  14.950  0.1039 -0.0175  0.2024
 3066DPPE   C4B58656   9.800  17.009  15.311  0.0930 -0.1464 -0.0564
 3067DPPE   NH358657  15.279  16.815  12.262  0.1760 -0.0671  0.2678
 3067DPPE   PO458658  15.659  16.796  12.388 -0.0436 -0.2873  0.1505
 3067DPPE   GL158659  15.779  16.739  12.866 -0.1537  0.3270 -0.1897
 3067DPPE   GL258660  15.954  17.076  12.816  0.1939 -0.0522 -0.1612
 3067DPPE   C1A58661  15.830  16.431  13.211 -0.0154 -0.2519 -0.1088
 3067DPPE   C2A58662  15.807  16.187  13.680 -0.1433 -0.1737  0.1439
 3067DPPE   C3A58663  15.782  15.854  13.970  0.0469 -0.0073  0.1117
 3067DPPE   C4A58664  15.809  15.754  14.366  0.0776  0.1172 -0.2324
 3067DPPE   C1B58665  16.102  17.399  13.120 -0.1030 -0.1267 -0.3955
 3067DPPE   C2B58666  16.038  17.860  13.293 -0.1829 -0.1671  0.1146
 3067DPPE   C3B58667  16.009  17.999  13.664  0.0473 -0.1213 -0.1799
 3067DPPE   C4B58668  16.303  18.151  13.882  0.0665 -0.2851  0.0300
 3068DPPE   NH358669  22.506  18.022  15.164 -0.0065  0.0859 -0.1267
 3068DPPE   PO458670  22.553  18.481  15.127 -0.1554  0.2357  0.0582
 3068DPPE   GL158671  22.436  18.517  15.486  0.2852 -0.0223 -0.0131
 3068DPPE   GL258672  22.593  18.793  15.658 -0.0629  0.0221  0.1693
 3068DPPE   C1A58673  21.962  18.369  15.693 -0.0739  0.0175 -0.1824
 3068DPPE   C2A58674  21.900  18.132  16.171 -0.1696 -0.0692  0.1632
 3068DPPE   C3A58675  21.697  18.131  16.567  0.0154  0.1918 -0.4206
 3068DPPE   C4A58676  21.521  17.693  16.571  0.0203  0.2663 -0.1118
 3068DPPE   C1B58677  22.254  18.796  15.858  0.0044  0.0545 -0.0011
 3068DPPE   C2B58678  21.875  18.923  15.775  0.1023 -0.0985  0.1326
 3068DPPE   C3B58679  21.570  18.665  15.762  0.2452  0.0531 -0.1126
 3068DPPE   C4B58680  21.408  18.499  15.291 -0.3186  0.1206  0.3846
 3069DPPE   NH358681  20.979  16.672  13.045 -0.4031 -0.0447  0.0739
 3069DPPE   PO458682  21.340  16.517  13.443  0.1921 -0.1783  0.1699
 3069DPPE   GL158683  21.142  16.603  13.723 -0.0023 -0.3858 -0.2512
 3069DPPE   GL258684  21.330  16.530  14.027 -0.0564 -0.1851 -0.0060
 3069DPPE   C1A58685  20.779  16.598  13.998  0.0258 -0.1105  0.1854
 3069DPPE   C2A58686  20.347  16.463  13.984 -0.1758 -0.2478  0.1589
 3069DPPE   C3A58687  20.159  16.109  14.296  0.2027 -0.1733  0.0187
 3069DPPE   C4A58688  19.939  15.781  14.555 -0.2865 -0.0053 -0.1661
 3069DPPE   C1B58689  21.124  16.318  14.356  0.1151 -0.0319 -0.1169
 3069DPPE   C2B58690  21.013  16.364  14.751 -0.3302 -0.2061  0.1326
 3069DPPE   C3B58691  20.997  16.326  15.178 -0.1339 -0.0547 -0.0098
 3069DPPE   C4B58692  21.382  16.164  15.381 -0.1552  0.1984  0.0616
 3070DPPE   NH358693   9.803   8.062  15.414 -0.0101  0.2093  0.0131
 3070DPPE   PO458694   9.559   8.308  15.092  0.3087 -0.0865 -0.0221
 3070DPPE   GL158695   9.893   8.594  15.298  0.0934  0.3582  0.1815
 3070DPPE   GL258696   9.839   8.493  15.640  0.1274 -0.2046 -0.0896
 3070DPPE   C1A58697  10.219   8.732  15.417 -0.1885  0.1820  0.4390
 3070DPPE   C2A58698  10.675   8.755  15.674 -0.2224  0.3015  0.0221
 3070DPPE   C3A58699  11.044   8.671  15.733 -0.2240  0.3331  0.2532
 3070DPPE   C4A58700  11.292   8.629  16.001  0.1438  0.1309 -0.0217
 3070DPPE   C1B58701   9.644   8.697  16.005  0.1346  0.2020 -0.1821
 3070DPPE   C2B58702   9.517   8.719  16.443  0.1252  0.0689 -0.2068
 3070DPPE   C3B58703   9.405   8.873  16.861 -0.0112  0.1607  0.0196
 3070DPPE   C4B58704   9.475   8.762  17.308  0.1275 -0.0939 -0.2477
 3071DPPE   NH358705   9.298  18.118  13.313  0.0533 -0.0419  0.2937
 3071DPPE   PO458706   9.168  18.446  13.496  0.1480  0.3628  0.2441
 3071DPPE   GL158707   9.495  18.497  13.755  0.1765  0.1536 -0.2728
 3071DPPE   GL258708   9.654  18.226  13.750  0.1031 -0.4458  0.0320
 3071DPPE   C1A58709   9.594  18.776  14.089  0.4131  0.0822 -0.0963
 3071DPPE   C2A58710   9.401  18.816  14.586 -0.1242  0.0109 -0.0136
 3071DPPE   C3A58711   9.220  19.090  14.744  0.1755  0.1313  0.0094
 3071DPPE   C4A58712   9.025  19.156  15.153 -0.3285 -0.2687 -0.0919
 3071DPPE   C1B58713   9.559  18.215  14.144 -0.0958 -0.1473 -0.2071
 3071DPPE   C2B58714   9.649  18.379  14.474  0.2184 -0.0783 -0.1529
 3071DPPE   C3B58715   9.749  18.602  14.938 -0.0412  0.3488 -0.2612
 3071DPPE   C4B58716   9.643  18.471  15.270 -0.1174  0.0082 -0.1227
 3072DPPE   NH358717  19.049  11.138  13.599 -0.5087  0.0003  0.0715
 3072DPPE   PO458718  19.489  11.336  13.766 -0.1005  0.3302  0.0026
 3072DPPE   GL158719  19.501  11.424  14.166  0.0669  0.1647 -0.2115
 3072DPPE   GL258720  19.412  11.786  14.327 -0.2625  0.0752 -0.2912
 3072DPPE   C1A58721  19.149  11.435  14.493  0.1819 -0.0487 -0.1016
 3072DPPE   C2A58722  18.910  11.509  14.889 -0.0575  0.0775  0.0108
 3072DPPE   C3A58723  18.685  11.634  15.216 -0.0591  0.2547  0.0865
 3072DPPE   C4A58724  18.515  11.536  15.639  0.2083  0.0749  0.0065
 3072DPPE   C1B58725  19.371  12.173  14.387  0.1345 -0.1264  0.2720
 3072DPPE   C2B58726  19.371  12.577  14.540 -0.0593  0.1119  0.0199
 3072DPPE   C3B58727  19.363  13.051  14.666  0.1304 -0.0180  0.0685
 3072DPPE   C4B58728  18.998  13.352  14.726 -0.1336 -0.0390 -0.0316
 3073DPPE   NH358729  17.430  24.867  13.743 -0.3153 -0.0868 -0.0865
 3073DPPE   PO458730  17.017  24.829  13.588  0.2052  0.2863 -0.1475
 3073DPPE   GL158731  17.072  24.483  13.898 -0.1228  0.1004  0.0502
 3073DPPE   GL258732  17.182  24.656  14.207 -0.1269  0.1875 -0.1256
 3073DPPE   C1A58733  17.083  24.073  14.103  0.1905  0.1464  0.3047
 3073DPPE   C2A58734  17.228  23.560  14.187 -0.3673 -0.0529  0.0971
 3073DPPE   C3A58735  17.447  23.498  14.432  0.0788  0.1618  0.1678
 3073DPPE   C4A58736  17.383  23.374  14.919 -0.1494 -0.1916 -0.0909
 3073DPPE   C1B58737  17.016  24.407  14.578 -0.1600 -0.0281  0.1647
 3073DPPE   C2B58738  16.948  24.267  15.018  0.1228  0.0724  0.1455
 3073DPPE   C3B58739  16.789  24.258  15.409 -0.1301  0.0220 -0.0251
 3073DPPE   C4B58740  16.885  24.149  15.815  0.1355 -0.1849  0.1087
 3074DPPE   NH358741  14.456   8.888  12.759  0.1912  0.0711 -0.0937
 3074DPPE   PO458742  14.606   9.261  13.040 -0.2722 -0.0638 -0.3875
 3074DPPE   GL158743  14.293   9.385  13.309 -0.0029 -0.3064  0.1852
 3074DPPE   GL258744  14.188   9.204  13.528  0.0376  0.0499 -0.0673
 3074DPPE   C1A58745  14.125   9.774  13.594  0.0355  0.1842 -0.1509
 3074DPPE   C2A58746  14.133  10.141  13.900  0.0750  0.1303 -0.2830
 3074DPPE   C3A58747  13.888  10.375  14.219 -0.1784 -0.1650  0.2561
 3074DPPE   C4A58748  13.847  10.503  14.640 -0.4679 -0.1856  0.2516
 3074DPPE   C1B58749  14.220   9.007  13.995 -0.1939  0.0314  0.1715
 3074DPPE   C2B58750  14.050   8.910  14.460  0.1885 -0.3577 -0.2239
 3074DPPE   C3B58751  13.778   8.833  14.716  0.3212  0.1436  0.1271
 3074DPPE   C4B58752  13.402   8.524  14.608  0.0850  0.0192  0.3579
 3075DPPE   NH358753  15.066   9.383  13.150  0.0230 -0.0418  0.2868
 3075DPPE   PO458754  15.425   9.318  13.433  0.1655 -0.0523  0.2865
 3075DPPE   GL158755  15.187   9.277  13.682 -0.0286 -0.3174 -0.1831
 3075DPPE   GL258756  14.946   9.524  13.594  0.0772 -0.1613  0.0995
 3075DPPE   C1A58757  14.783   9.179  13.937 -0.0969 -0.1422  0.0579
 3075DPPE   C2A58758  14.348   9.496  13.925 -0.2373  0.2436  0.1007
 3075DPPE   C3A58759  14.618   9.985  13.916 -0.0447  0.0239  0.5284
 3075DPPE   C4A58760  14.677  10.395  13.856  0.3100 -0.3737 -0.0549
 3075DPPE   C1B58761  15.196   9.823  13.924  0.3792 -0.0265  0.0889
 3075DPPE   C2B58762  15.234   9.858  14.415 -0.0005 -0.1860 -0.5112
 3075DPPE   C3B58763  15.290  10.048  14.871 -0.0570 -0.2169  0.2138
 3075DPPE   C4B58764  15.535  10.387  14.966  0.0617  0.3214  0.3023
 3076DPPE   NH358765   6.746  24.452  15.227  0.0978 -0.0869 -0.2392
 3076DPPE   PO458766   7.044  24.781  15.355  0.0047 -0.3533 -0.0275
 3076DPPE   GL158767   7.333  24.520  15.396  0.2228  0.3138 -0.6045
 3076DPPE   GL258768   7.506  24.705  15.531 -0.0278  0.1251  0.1401
 3076DPPE   C1A58769   7.408  24.225  15.849 -0.1629 -0.2985  0.0461
 3076DPPE   C2A58770   7.415  24.236  16.323  0.0292 -0.2391  0.1148
 3076DPPE   C3A58771   7.327  24.146  16.759 -0.0560 -0.0180  0.1082
 3076DPPE   C4A58772   6.949  24.104  16.848 -0.0349  0.4136 -0.2844
 3076DPPE   C1B58773   7.623  24.905  15.848  0.2993  0.0878 -0.1950
 3076DPPE   C2B58774   8.053  24.834  16.069  0.0102  0.1452 -0.0553
 3076DPPE   C3B58775   8.337  24.655  15.814  0.1587 -0.0168  0.0752
 3076DPPE   C4B58776   8.289  24.756  15.338 -0.0817 -0.1695  0.1254
 3077DPPE   NH358777  19.025  13.408  13.346  0.1142 -0.0001  0.2069
 3077DPPE   PO458778  18.713  13.216  13.192 -0.2745 -0.1598 -0.2100
 3077DPPE   GL158779  18.525  13.267  13.531 -0.0751 -0.0349 -0.1995
 3077DPPE   GL258780  18.568  13.572  13.617 -0.1937 -0.1304  0.1089
 3077DPPE   C1A58781  18.190  13.311  13.854  0.0851 -0.2652 -0.3028
 3077DPPE   C2A58782  17.798  13.570  14.072 -0.0867  0.0824  0.0329
 3077DPPE   C3A58783  17.689  13.847  14.435  0.0783 -0.1040  0.0082
 3077DPPE   C4A58784  17.463  14.126  14.683  0.2680  0.1109 -0.2345
 3077DPPE   C1B58785  18.734  13.432  13.952 -0.1052  0.2072 -0.0743
 3077DPPE   C2B58786  19.113  13.582  14.246  0.0731 -0.4662  0.0136
 3077DPPE   C3B58787  19.220  13.759  14.561 -0.0078 -0.0664 -0.1104
 3077DPPE   C4B58788  19.534  13.991  14.745 -0.0901  0.0226  0.1775
 3078DPPE   NH358789  13.717   5.993  17.123 -0.2239 -0.0854  0.2238
 3078DPPE   PO458790  13.604   5.933  16.741 -0.1380  0.0596 -0.0938
 3078DPPE   GL158791  13.731   6.380  16.670  0.0985  0.2438 -0.0548
 3078DPPE   GL258792  13.398   6.547  16.893  0.2475 -0.2385  0.0010
 3078DPPE   C1A58793  13.623   6.897  16.546 -0.0158 -0.0706 -0.2408
 3078DPPE   C2A58794  13.804   7.375  16.446 -0.0024  0.1048  0.0679
 3078DPPE   C3A58795  13.962   7.836  16.221  0.5578  0.0834 -0.1688
 3078DPPE   C4A58796  13.962   8.167  16.574 -0.1863  0.1714 -0.0761
 3078DPPE   C1B58797  13.674   6.892  17.105 -0.0628  0.1672  0.1108
 3078DPPE   C2B58798  13.979   7.044  17.431 -0.1397 -0.2673  0.2764
 3078DPPE   C3B58799  14.399   6.913  17.610  0.2334  0.2555  0.0119
 3078DPPE   C4B58800  14.646   6.648  18.011 -0.0393  0.0725 -0.1429
 3079DPPE   NH358801  21.626  22.716  16.126 -0.0484  0.0726 -0.3472
 3079DPPE   PO458802  21.558  22.441  16.449  0.0246 -0.2427 -0.1388
 3079DPPE   GL158803  21.543  22.034  16.673 -0.1587  0.1554 -0.1016
 3079DPPE   GL258804  21.285  22.144  16.863 -0.0510 -0.3275 -0.2887
 3079DPPE   C1A58805  21.251  21.690  16.704  0.0934  0.1693  0.3266
 3079DPPE   C2A58806  20.891  21.810  16.548  0.1800 -0.0057  0.1912
 3079DPPE   C3A58807  20.600  21.895  16.735  0.2379 -0.0961  0.1386
 3079DPPE   C4A58808  20.126  21.752  16.869  0.0647 -0.1658  0.2770
 3079DPPE   C1B58809  20.982  21.919  17.052  0.1436 -0.0447 -0.3425
 3079DPPE   C2B58810  20.777  22.026  17.323  0.0797  0.1303  0.0784
 3079DPPE   C3B58811  20.471  22.083  17.602 -0.0983 -0.0402 -0.0614
 3079DPPE   C4B58812  20.304  21.790  17.870 -0.0296 -0.0437 -0.2614
 3080DPPE   NH358813  11.191  15.919  12.945 -0.1369  0.1920 -0.0386
 3080DPPE   PO458814  11.551  15.628  13.010  0.2175 -0.3787  0.2838
 3080DPPE   GL158815  11.324  15.581  13.335 -0.0759  0.0172  0.2709
 3080DPPE   GL258816  11.083  15.769  13.433 -0.0347 -0.1639 -0.1635
 3080DPPE   C1A58817  11.423  15.662  13.776  0.0621 -0.2987  0.1814
 3080DPPE   C2A58818  11.598  15.931  14.131 -0.0214  0.0226  0.0694
 3080DPPE   C3A58819  11.790  16.104  14.437 -0.0282 -0.0222  0.0424
 3080DPPE   C4A58820  12.086  16.006  14.801  0.0414 -0.2598  0.0265
 3080DPPE   C1B58821  10.939  15.774  13.871  0.0896  0.1072 -0.1297
 3080DPPE   C2B58822  11.014  15.612  14.284 -0.1967  0.2675  0.0841
 3080DPPE   C3B58823  11.311  15.757  14.482  0.0890 -0.1422 -0.1792
 3080DPPE   C4B58824  11.374  16.101  14.807  0.0647  0.2226 -0.0393
 3081DPPE   NH358825  13.091  14.020  12.548 -0.0795  0.0352 -0.2119
 3081DPPE   PO458826  13.511  13.923  12.442 -0.0778  0.0233  0.0561
 3081DPPE   GL158827  13.409  13.625  12.775  0.1075  0.0186  0.3422
 3081DPPE   GL258828  13.542  13.323  12.892  0.0926  0.0322  0.0149
 3081DPPE   C1A58829  13.495  13.689  13.218  0.0316 -0.0344 -0.0661
 3081DPPE   C2A58830  13.471  13.413  13.595  0.1474  0.0504 -0.0643
 3081DPPE   C3A58831  13.599  13.289  14.023  0.0468  0.1923  0.1719
 3081DPPE   C4A58832  13.744  13.501  14.417 -0.0154 -0.0168  0.0159
 3081DPPE   C1B58833  13.665  13.207  13.229 -0.1622 -0.0701  0.1263
 3081DPPE   C2B58834  13.738  12.927  13.689 -0.1521 -0.2204 -0.2027
 3081DPPE   C3B58835  13.847  12.910  14.166  0.0396  0.2277 -0.0990
 3081DPPE   C4B58836  13.901  12.987  14.576 -0.0942 -0.0708 -0.3237
 3082DPPE   NH358837  16.375  23.297  13.062  0.2451  0.1431  0.1290
 3082DPPE   PO458838  16.101  23.006  12.848 -0.1952 -0.1110 -0.0648
 3082DPPE   GL158839  15.984  22.572  13.051  0.1178  0.1369 -0.4112
 3082DPPE   GL258840  15.964  22.237  12.994  0.1563 -0.0962 -0.2263
 3082DPPE   C1A58841  15.795  22.410  13.527  0.3871 -0.0232  0.2741
 3082DPPE   C2A58842  15.692  22.001  13.722 -0.0673  0.1539  0.1917
 3082DPPE   C3A58843  15.914  21.854  14.152  0.0842 -0.0577 -0.1429
 3082DPPE   C4A58844  16.032  21.467  14.479 -0.0041 -0.2306  0.1697
 3082DPPE   C1B58845  16.298  22.439  13.378 -0.0885  0.2257  0.1262
 3082DPPE   C2B58846  16.376  22.627  13.806  0.1003  0.1195 -0.1690
 3082DPPE   C3B58847  16.114  22.807  14.153  0.0623 -0.4086  0.0523
 3082DPPE   C4B58848  16.137  22.593  14.568 -0.2242 -0.2315  0.1113
 3083DPPE   NH358849  10.101  14.786  12.897  0.0961 -0.1949 -0.0040
 3083DPPE   PO458850   9.668  14.988  13.170  0.2851  0.1932 -0.0745
 3083DPPE   GL158851   9.665  14.829  13.501 -0.0967  0.3688 -0.0249
 3083DPPE   GL258852   9.498  14.827  13.749  0.1825 -0.0686 -0.3902
 3083DPPE   C1A58853   9.958  14.670  13.914 -0.2061  0.1972 -0.0374
 3083DPPE   C2A58854  10.248  14.678  14.320 -0.0085 -0.2899  0.1905
 3083DPPE   C3A58855  10.505  14.929  14.517  0.1745 -0.2712 -0.3429
 3083DPPE   C4A58856  10.490  14.971  14.902  0.2584 -0.1827  0.2125
 3083DPPE   C1B58857   9.542  14.603  14.167  0.0367  0.1248  0.0305
 3083DPPE   C2B58858   9.780  14.850  14.478  0.1263  0.0725 -0.1403
 3083DPPE   C3B58859   9.755  14.810  14.932  0.2340 -0.0857 -0.0034
 3083DPPE   C4B58860   9.460  14.829  15.278  0.2091  0.5166  0.0092
 3084DPPE   NH358861   7.987  18.546  13.927  0.1305  0.6142  0.4587
 3084DPPE   PO458862   7.659  18.275  14.097 -0.0481  0.0286  0.0989
 3084DPPE   GL158863   7.515  18.247  14.539  0.0352 -0.2459  0.3883
 3084DPPE   GL258864   7.192  18.256  14.532 -0.1061 -0.1134  0.1391
 3084DPPE   C1A58865   7.540  18.574  14.877  0.0932  0.2020 -0.3782
 3084DPPE   C2A58866   7.706  18.986  14.793 -0.0320  0.1237  0.3533
 3084DPPE   C3A58867   7.850  19.200  14.500  0.1001 -0.0572  0.0002
 3084DPPE   C4A58868   8.202  19.475  14.476  0.0850 -0.1560 -0.2250
 3084DPPE   C1B58869   6.838  18.230  14.715  0.2585  0.0208 -0.1206
 3084DPPE   C2B58870   6.398  18.304  14.694 -0.0684  0.0822 -0.0922
 3084DPPE   C3B58871   6.114  18.574  14.866 -0.0862  0.1769 -0.0715
 3084DPPE   C4B58872   5.881  18.748  15.254 -0.1834 -0.0978 -0.2625
 3085DPPE   NH358873  13.719  23.440  13.568  0.2265  0.2961 -0.0331
 3085DPPE   PO458874  13.492  23.185  13.454  0.0258 -0.0505  0.0221
 3085DPPE   GL158875  13.709  22.939  13.808 -0.0999 -0.0916  0.4885
 3085DPPE   GL258876  13.564  22.691  13.837  0.0177  0.0994  0.1870
 3085DPPE   C1A58877  14.023  22.932  14.232  0.2966  0.2509 -0.0174
 3085DPPE   C2A58878  14.104  23.250  14.460 -0.0197  0.3052 -0.2787
 3085DPPE   C3A58879  14.264  23.611  14.763 -0.2608  0.1674 -0.0915
 3085DPPE   C4A58880  14.572  23.634  15.138  0.1172  0.1334 -0.1224
 3085DPPE   C1B58881  13.267  22.573  14.046 -0.1302  0.0005 -0.1718
 3085DPPE   C2B58882  12.978  22.625  14.363 -0.2212 -0.2910  0.3456
 3085DPPE   C3B58883  12.620  22.704  14.572 -0.1667 -0.0038  0.3073
 3085DPPE   C4B58884  12.452  22.645  14.979 -0.0505 -0.1484 -0.1309
 3086DPPE   NH358885   8.815  24.319  14.103  0.1112  0.0157  0.1849
 3086DPPE   PO458886   9.115  24.013  14.161  0.0522 -0.1421  0.1364
 3086DPPE   GL158887   9.459  23.982  14.329 -0.1144  0.1727  0.2747
 3086DPPE   GL258888   9.580  23.673  14.307 -0.3058  0.2325 -0.2365
 3086DPPE   C1A58889   9.849  24.070  14.552 -0.0808 -0.2772  0.2255
 3086DPPE   C2A58890  10.115  23.856  14.782  0.1226  0.0250  0.0669
 3086DPPE   C3A58891  10.387  23.798  15.023  0.2642 -0.2706 -0.0025
 3086DPPE   C4A58892  10.422  23.399  15.272  0.2103 -0.1476 -0.4935
 3086DPPE   C1B58893   9.578  23.750  14.751  0.1922 -0.2560  0.0364
 3086DPPE   C2B58894   9.871  23.606  15.120  0.1345  0.3292 -0.1414
 3086DPPE   C3B58895   9.985  23.524  15.531  0.1529 -0.2816 -0.0615
 3086DPPE   C4B58896   9.822  23.483  15.925  0.1100 -0.2061  0.1246
 3087DPPE   NH358897   9.564  22.390  13.715 -0.0637 -0.0854  0.0652
 3087DPPE   PO458898   9.492  22.723  13.931 -0.2676  0.0829  0.2925
 3087DPPE   GL158899   9.453  22.330  14.259  0.2775  0.2007  0.0493
 3087DPPE   GL258900   9.702  22.315  14.270 -0.2102  0.1103 -0.0027
 3087DPPE   C1A58901   9.221  21.953  14.320  0.0879 -0.2266 -0.1617
 3087DPPE   C2A58902   8.887  21.742  14.604 -0.3686  0.0421 -0.0167
 3087DPPE   C3A58903   8.742  21.788  15.029  0.1075  0.1939 -0.1956
 3087DPPE   C4A58904   8.938  21.974  15.427 -0.0437  0.1724 -0.1855
 3087DPPE   C1B58905  10.064  22.414  14.479 -0.4477 -0.1397 -0.3696
 3087DPPE   C2B58906  10.515  22.641  14.565  0.4329  0.0345  0.3060
 3087DPPE   C3B58907  10.949  22.618  14.875 -0.3022 -0.2534 -0.1412
 3087DPPE   C4B58908  11.466  22.534  14.930 -0.2652 -0.3785 -0.0170
 3088DPPE   NH358909  12.234  23.013  13.796 -0.0072 -0.1847 -0.1774
 3088DPPE   PO458910  12.472  23.408  13.876  0.0867 -0.3079 -0.0987
 3088DPPE   GL158911  12.375  23.551  14.336  0.1039  0.1162  0.3657
 3088DPPE   GL258912  12.479  23.906  14.591 -0.1285 -0.0690  0.0366
 3088DPPE   C1A58913  12.003  23.706  14.632  0.1425  0.5536  0.1507
 3088DPPE   C2A58914  12.000  24.123  14.727  0.0237 -0.1283  0.2135
 3088DPPE   C3A58915  12.147  24.517  14.559  0.0341  0.1435  0.3391
 3088DPPE   C4A58916  12.299  24.813  14.757 -0.0658 -0.0671  0.1424
 3088DPPE   C1B58917  12.532  24.252  14.732 -0.0208  0.0448 -0.2602
 3088DPPE   C2B58918  12.686  24.498  14.933 -0.0071  0.0637  0.0641
 3088DPPE   C3B58919  12.605  24.842  15.165  0.0615  0.0387  0.0686
 3088DPPE   C4B58920  12.570  25.002  15.627  0.0583 -0.2116  0.1359
 3089DPPE   NH358921   8.044  24.927  14.754 -0.1641 -0.0051 -0.2333
 3089DPPE   PO458922   8.015  25.326  14.887  0.0436  0.2835 -0.1980
 3089DPPE   GL158923   8.357  25.290  15.033  0.4540  0.1558  0.0240
 3089DPPE   GL258924   8.669  25.349  15.054 -0.0458  0.1406  0.0564
 3089DPPE   C1A58925   8.344  25.392  15.446  0.0553 -0.0712 -0.0354
 3089DPPE   C2A58926   8.620  25.081  15.598 -0.1719 -0.0327  0.2813
 3089DPPE   C3A58927   8.829  24.731  15.926 -0.0582  0.2324  0.0786
 3089DPPE   C4A58928   8.806  24.443  16.191 -0.1143 -0.1321  0.0754
 3089DPPE   C1B58929   8.691  24.928  15.063  0.0791  0.1776  0.4754
 3089DPPE   C2B58930   8.880  24.697  15.316  0.2775  0.2886 -0.1429
 3089DPPE   C3B58931   9.133  24.401  15.650 -0.1383 -0.4955  0.0628
 3089DPPE   C4B58932   9.021  24.054  15.877 -0.1199 -0.1364  0.3069
 3090DPPE   NH358933  16.653   6.071  18.199 -0.2560 -0.1322  0.2931
 3090DPPE   PO458934  16.592   6.396  17.985 -0.0155 -0.0696 -0.1306
 3090DPPE   GL158935  16.541   6.849  18.012  0.0409  0.0190 -0.1984
 3090DPPE   GL258936  16.536   7.049  18.270 -0.3206 -0.1734 -0.0357
 3090DPPE   C1A58937  16.479   7.186  17.817  0.1377 -0.1818 -0.3795
 3090DPPE   C2A58938  16.489   7.325  17.325 -0.2167  0.0046  0.0483
 3090DPPE   C3A58939  16.376   7.543  17.033  0.0170  0.3771  0.1754
 3090DPPE   C4A58940  16.423   7.829  16.671  0.0288  0.1372 -0.0494
 3090DPPE   C1B58941  16.399   7.499  18.303 -0.0375  0.0873  0.0232
 3090DPPE   C2B58942  16.212   7.844  18.088 -0.2250  0.0803  0.0232
 3090DPPE   C3B58943  15.892   7.993  17.886 -0.1443  0.1956 -0.0243
 3090DPPE   C4B58944  15.787   8.377  17.729 -0.1188 -0.1211 -0.0242
 3091DPPE   NH358945   4.367  23.450  17.520  0.0352  0.0103  0.3921
 3091DPPE   PO458946   4.506  23.056  17.301 -0.3336  0.1815  0.1867
 3091DPPE   GL158947   4.725  22.870  17.692 -0.0461 -0.1188 -0.0977
 3091DPPE   GL258948   4.980  23.019  17.869  0.0655  0.6892 -0.0592
 3091DPPE   C1A58949   4.881  22.494  17.876 -0.1086 -0.1763 -0.2145
 3091DPPE   C2A58950   5.239  22.334  18.135 -0.1474  0.0695 -0.1344
 3091DPPE   C3A58951   5.493  22.039  18.097  0.1219  0.0982 -0.0245
 3091DPPE   C4A58952   5.491  21.738  17.748  0.3298  0.0243  0.2978
 3091DPPE   C1B58953   5.382  22.836  18.127  0.0404 -0.2188  0.3294
 3091DPPE   C2B58954   5.825  22.922  18.213  0.1389 -0.0922 -0.4643
 3091DPPE   C3B58955   6.157  23.264  18.185 -0.2003  0.1319  0.2017
 3091DPPE   C4B58956   6.212  23.716  17.959  0.0118 -0.0631 -0.1135
 3092DPPE   NH358957  17.462  11.685  13.088  0.3212 -0.1939  0.0346
 3092DPPE   PO458958  17.218  11.311  12.953  0.0634 -0.2064 -0.0019
 3092DPPE   GL158959  17.152  11.427  13.431  0.0672  0.0300  0.4312
 3092DPPE   GL258960  16.844  11.326  13.604  0.1692  0.2464 -0.1636
 3092DPPE   C1A58961  17.099  11.744  13.763  0.0522 -0.0102 -0.0328
 3092DPPE   C2A58962  17.108  11.812  14.144 -0.1722 -0.1138 -0.0124
 3092DPPE   C3A58963  17.249  11.646  14.509  0.4163  0.3152 -0.2549
 3092DPPE   C4A58964  17.320  11.970  14.777  0.5252 -0.0026 -0.0095
 3092DPPE   C1B58965  16.642  11.546  14.011 -0.0489 -0.2517 -0.0714
 3092DPPE   C2B58966  16.595  11.972  14.216  0.1983 -0.2200  0.1902
 3092DPPE   C3B58967  16.325  12.284  14.398  0.0124 -0.0698  0.0462
 3092DPPE   C4B58968  16.544  12.539  14.569 -0.1502  0.3505 -0.0480
 3093DPPE   NH358969  16.408  12.525  12.883  0.0181  0.1293  0.0514
 3093DPPE   PO458970  16.134  12.295  12.944 -0.1696 -0.1774 -0.1293
 3093DPPE   GL158971  16.026  12.149  13.272 -0.2341 -0.1143 -0.2276
 3093DPPE   GL258972  16.027  12.311  13.624 -0.2115  0.0818  0.0622
 3093DPPE   C1A58973  15.883  11.855  13.641 -0.1229 -0.0653 -0.0005
 3093DPPE   C2A58974  15.630  11.882  14.097 -0.2356 -0.3117 -0.1214
 3093DPPE   C3A58975  15.346  11.622  14.317  0.0463  0.0647  0.4272
 3093DPPE   C4A58976  14.994  11.563  14.507  0.1207  0.4471 -0.0517
 3093DPPE   C1B58977  16.116  12.181  13.975 -0.0637 -0.1247 -0.0762
 3093DPPE   C2B58978  15.824  12.315  14.380  0.2382  0.2436 -0.1263
 3093DPPE   C3B58979  15.977  12.449  14.702 -0.2648 -0.1115  0.1500
 3093DPPE   C4B58980  16.364  12.372  15.024 -0.1509  0.0986 -0.4277
 3094DPPE   NH358981  16.154  15.708  12.351 -0.1829  0.0730 -0.0148
 3094DPPE   PO458982  16.519  15.467  12.440 -0.4860  0.1395 -0.2520
 3094DPPE   GL158983  16.364  15.579  12.824 -0.4913  0.1428 -0.0366
 3094DPPE   GL258984  16.412  15.831  12.806 -0.2048 -0.1638 -0.2877
 3094DPPE   C1A58985  16.286  15.561  13.193  0.0922 -0.0212  0.0001
 3094DPPE   C2A58986  16.408  15.427  13.645 -0.2391  0.2232 -0.1002
 3094DPPE   C3A58987  16.261  15.563  14.040 -0.1743 -0.0993 -0.1793
 3094DPPE   C4A58988  16.378  15.735  14.333  0.0785 -0.0412 -0.1158
 3094DPPE   C1B58989  16.168  16.064  13.083 -0.2536  0.1212  0.2737
 3094DPPE   C2B58990  16.138  15.929  13.536 -0.0105 -0.1581 -0.1677
 3094DPPE   C3B58991  16.248  16.132  13.961 -0.0401  0.2085  0.1160
 3094DPPE   C4B58992  16.090  16.212  14.352 -0.0511  0.2769  0.0700
 3095DPPE   NH358993  10.848  22.295  13.335 -0.0021  0.1033 -0.0056
 3095DPPE   PO458994  10.415  22.568  13.574  0.0357  0.1451 -0.0938
 3095DPPE   GL158995  10.622  22.143  13.740  0.0086  0.1134  0.2392
 3095DPPE   GL258996  10.307  21.792  13.831  0.1550  0.4110  0.0919
 3095DPPE   C1A58997  10.862  21.984  13.986  0.3533  0.1950  0.0848
 3095DPPE   C2A58998  10.996  21.829  14.412 -0.4994 -0.0263 -0.3015
 3095DPPE   C3A58999  10.856  21.567  14.730 -0.0804 -0.2997  0.0211
 3095DPPE   C4A59000  10.953  21.189  14.899 -0.1428 -0.2048 -0.2554
 3095DPPE   C1B59001  10.555  21.635  14.149  0.1026 -0.2987 -0.1719
 3095DPPE   C2B59002  10.530  21.243  14.487 -0.0300 -0.2910  0.0261
 3095DPPE   C3B59003  10.438  21.313  14.930  0.0163 -0.0314  0.2954
 3095DPPE   C4B59004  10.634  21.456  15.281 -0.0673  0.1010  0.0527
 3096DPPE   NH359005  15.045  11.792  12.513  0.0900  0.1897  0.3085
 3096DPPE   PO459006  15.406  11.676  12.824  0.1313 -0.1663  0.0568
 3096DPPE   GL159007  15.334  11.521  13.223  0.2021 -0.0703  0.1927
 3096DPPE   GL259008  15.022  11.505  13.192  0.0227  0.2217 -0.0638
 3096DPPE   C1A59009  15.330  11.652  13.736  0.2918  0.0236 -0.0747
 3096DPPE   C2A59010  15.143  11.933  13.902 -0.0817  0.1148 -0.0874
 3096DPPE   C3A59011  14.867  11.966  14.305  0.0101  0.0392 -0.0138
 3096DPPE   C4A59012  14.500  11.939  14.598 -0.2811 -0.0872 -0.0564
 3096DPPE   C1B59013  14.981  11.903  13.427 -0.1679  0.2053  0.1653
 3096DPPE   C2B59014  14.685  12.114  13.763 -0.1850 -0.3798 -0.2491
 3096DPPE   C3B59015  14.409  12.004  13.990  0.1092 -0.2629 -0.0411
 3096DPPE   C4B59016  14.087  11.910  14.277 -0.0132 -0.0375 -0.3245
 3097DPPE   NH359017  16.391  27.768  16.168  0.0262 -0.0242 -0.0022
 3097DPPE   PO459018  16.190  27.610  15.680  0.3267  0.0996 -0.0051
 3097DPPE   GL159019  15.965  27.209  15.840  0.1364  0.0141 -0.0158
 3097DPPE   GL259020  16.248  27.045  15.824 -0.0910 -0.2481  0.0555
 3097DPPE   C1A59021  15.746  26.803  15.935  0.0541  0.2607 -0.1297
 3097DPPE   C2A59022  15.846  26.386  15.955 -0.3090 -0.0673  0.2347
 3097DPPE   C3A59023  15.895  26.033  15.824  0.1854 -0.2865 -0.1038
 3097DPPE   C4A59024  16.132  25.689  15.707 -0.3110  0.1772  0.0914
 3097DPPE   C1B59025  16.546  26.942  16.110  0.0373  0.2797 -0.1618
 3097DPPE   C2B59026  16.803  26.417  16.078  0.3087  0.3977 -0.0045
 3097DPPE   C3B59027  16.825  25.983  16.253 -0.3359  0.2359 -0.0603
 3097DPPE   C4B59028  16.745  25.618  15.968  0.0902  0.0591 -0.0706
 3098DPPE   NH359029  21.966  11.396  15.719 -0.2061 -0.0793  0.1973
 3098DPPE   PO459030  21.797  11.478  15.342  0.0710 -0.2146 -0.1235
 3098DPPE   GL159031  21.722  11.910  15.636 -0.2031  0.1670  0.1201
 3098DPPE   GL259032  21.899  12.220  15.619  0.1165  0.2267  0.1467
 3098DPPE   C1A59033  21.535  12.328  15.961 -0.1016 -0.0042  0.3091
 3098DPPE   C2A59034  21.354  12.412  16.373  0.1465  0.1802  0.1501
 3098DPPE   C3A59035  21.507  12.551  16.743 -0.2070  0.1450 -0.5025
 3098DPPE   C4A59036  21.693  12.826  17.028  0.5287  0.2143  0.1630
 3098DPPE   C1B59037  21.577  12.653  15.608 -0.0614 -0.2228  0.1467
 3098DPPE   C2B59038  21.578  12.892  15.937  0.0836  0.1679 -0.1390
 3098DPPE   C3B59039  21.720  12.736  16.265 -0.1015  0.2029 -0.2451
 3098DPPE   C4B59040  22.012  12.437  16.408  0.0952  0.2737  0.1086
 3099DPPE   NH359041  17.109   7.740  15.437 -0.1831  0.0161  0.1175
 3099DPPE   PO459042  17.530   7.525  15.496  0.0761 -0.0881 -0.1382
 3099DPPE   GL159043  17.545   7.936  15.702 -0.2303  0.0217  0.1466
 3099DPPE   GL259044  17.337   8.029  15.908 -0.0222 -0.1547  0.0770
 3099DPPE   C1A59045  17.884   8.285  15.818 -0.2503  0.0845 -0.5400
 3099DPPE   C2A59046  18.192   8.544  15.942  0.0725 -0.1417  0.1590
 3099DPPE   C3A59047  18.227   8.922  16.040  0.1113  0.1125  0.0604
 3099DPPE   C4A59048  18.416   9.198  16.272 -0.0294  0.1705  0.2441
 3099DPPE   C1B59049  17.535   8.152  16.331 -0.0556  0.1035  0.0695
 3099DPPE   C2B59050  17.880   8.576  16.321  0.1820 -0.1612 -0.2743
 3099DPPE   C3B59051  17.808   9.007  16.304 -0.0920 -0.1630 -0.3207
 3099DPPE   C4B59052  18.013   9.358  16.615  0.1768 -0.1893  0.4312
 3100DPPE   NH359053   5.832  23.490  15.594  0.0322  0.2406 -0.0021
 3100DPPE   PO459054   6.245  23.496  15.308  0.1398 -0.0375 -0.0242
 3100DPPE   GL159055   6.719  23.465  15.403  0.1620 -0.0716  0.0500
 3100DPPE   GL259056   6.695  23.176  15.661 -0.0661 -0.0806  0.0751
 3100DPPE   C1A59057   7.138  23.462  15.528 -0.3149 -0.0491 -0.1816
 3100DPPE   C2A59058   7.531  23.303  15.600  0.0870 -0.1627  0.0449
 3100DPPE   C3A59059   7.931  23.140  15.357 -0.1723 -0.1655  0.2959
 3100DPPE   C4A59060   8.134  23.314  15.053  0.1125  0.2846 -0.3621
 3100DPPE   C1B59061   6.963  23.005  15.419 -0.1216 -0.0069  0.1340
 3100DPPE   C2B59062   7.336  22.877  15.437 -0.1946 -0.0400 -0.1532
 3100DPPE   C3B59063   7.665  22.814  15.670 -0.2140  0.1817 -0.2532
 3100DPPE   C4B59064   8.027  22.594  15.671  0.3227 -0.1453 -0.0740
 3101DPPE   NH359065  14.780  12.532  12.768  0.1640  0.2030  0.0314
 3101DPPE   PO459066  14.524  12.882  12.767  0.0916  0.0728  0.2286
 3101DPPE   GL159067  14.188  13.096  13.041 -0.2923  0.0029  0.2400
 3101DPPE   GL259068  14.157  13.435  13.037  0.4098  0.1637  0.2486
 3101DPPE   C1A59069  14.073  13.301  13.489 -0.0357  0.4863 -0.0672
 3101DPPE   C2A59070  13.981  13.671  13.825 -0.0943  0.0092 -0.0137
 3101DPPE   C3A59071  14.120  13.402  14.105 -0.2947 -0.3054  0.2076
 3101DPPE   C4A59072  14.360  13.344  14.447 -0.0917  0.1448 -0.0730
 3101DPPE   C1B59073  14.006  13.783  13.347 -0.0343  0.1019 -0.2244
 3101DPPE   C2B59074  14.162  14.110  13.591  0.0116  0.1905  0.1405
 3101DPPE   C3B59075  14.384  14.335  13.908 -0.0476  0.0686  0.2336
 3101DPPE   C4B59076  14.171  14.806  14.143  0.1908 -0.1875 -0.0794
 3102DPPE   NH359077   7.198  22.829  13.998  0.3838  0.2172 -0.1876
 3102DPPE   PO459078   7.361  22.785  14.349 -0.1237  0.2200  0.0779
 3102DPPE   GL159079   7.409  22.862  14.742 -0.2802 -0.0308  0.1184
 3102DPPE   GL259080   7.335  23.133  15.009  0.0822  0.2714  0.2690
 3102DPPE   C1A59081   7.744  22.886  14.959 -0.1610  0.3774 -0.2030
 3102DPPE   C2A59082   8.157  22.750  15.161 -0.2669 -0.0280  0.4110
 3102DPPE   C3A59083   8.371  22.504  15.266  0.0929 -0.1096  0.2962
 3102DPPE   C4A59084   8.302  21.980  15.452 -0.0607 -0.3468 -0.2919
 3102DPPE   C1B59085   7.609  23.504  15.154  0.1889 -0.0339  0.3569
 3102DPPE   C2B59086   8.037  23.802  15.159  0.2900  0.2444  0.3134
 3102DPPE   C3B59087   8.239  24.159  15.086 -0.3347 -0.0918  0.2947
 3102DPPE   C4B59088   8.665  24.247  15.149 -0.1599  0.3600  0.3030
 3103DPPE   NH359089   7.765  10.507  14.183 -0.2336  0.1535  0.1818
 3103DPPE   PO459090   8.059  10.698  14.058  0.2384  0.2480  0.0214
 3103DPPE   GL159091   8.240  10.699  14.421 -0.0224 -0.0830 -0.0393
 3103DPPE   GL259092   8.452  10.959  14.429 -0.0156 -0.0648 -0.0839
 3103DPPE   C1A59093   8.166  10.670  14.838  0.1101 -0.3319 -0.4236
 3103DPPE   C2A59094   8.350  10.378  14.987 -0.0178  0.1533  0.0349
 3103DPPE   C3A59095   8.644  10.127  15.278 -0.2053  0.0147 -0.1308
 3103DPPE   C4A59096   9.049   9.733  15.298  0.0586 -0.1050 -0.2602
 3103DPPE   C1B59097   8.456  11.268  14.848 -0.3747 -0.0979 -0.2517
 3103DPPE   C2B59098   8.364  11.730  14.807 -0.4963  0.2406  0.0097
 3103DPPE   C3B59099   8.065  12.021  14.659  0.1669  0.1512 -0.0845
 3103DPPE   C4B59100   7.692  12.218  14.714  0.0044  0.2026  0.1092
 3104DPPE   NH359101   7.121  14.601  14.251  0.1081  0.0543 -0.1406
 3104DPPE   PO459102   7.294  14.982  14.418 -0.0474  0.0435  0.0553
 3104DPPE   GL159103   6.914  15.261  14.298 -0.0650 -0.0719 -0.0416
 3104DPPE   GL259104   6.670  14.980  14.262  0.0502  0.1522 -0.3556
 3104DPPE   C1A59105   6.802  15.700  14.400  0.2276 -0.0329 -0.0192
 3104DPPE   C2A59106   6.766  15.993  14.663  0.1294 -0.2836 -0.0847
 3104DPPE   C3A59107   7.031  16.165  14.930 -0.1477 -0.1463 -0.0255
 3104DPPE   C4A59108   7.344  16.433  15.009 -0.0473  0.2174  0.0467
 3104DPPE   C1B59109   6.447  15.281  14.538  0.4632 -0.2356 -0.0491
 3104DPPE   C2B59110   6.272  15.421  14.965  0.2630 -0.0032 -0.0869
 3104DPPE   C3B59111   6.277  15.320  15.383  0.0862 -0.3810 -0.0756
 3104DPPE   C4B59112   5.932  15.366  15.542  0.2707 -0.3318 -0.1436
 3105DPPE   NH359113  16.967  17.794  12.543 -0.0842  0.1322  0.1144
 3105DPPE   PO459114  17.159  17.502  12.707  0.1523  0.1604  0.6133
 3105DPPE   GL159115  16.770  17.596  13.017  0.0033 -0.4594  0.0339
 3105DPPE   GL259116  16.595  17.758  12.890 -0.2132  0.1969  0.0179
 3105DPPE   C1A59117  16.453  17.558  13.415 -0.0997 -0.1758 -0.0356
 3105DPPE   C2A59118  16.358  17.522  13.883 -0.2677 -0.6880 -0.0358
 3105DPPE   C3A59119  16.223  17.684  14.266  0.0933  0.0623  0.0163
 3105DPPE   C4A59120  15.982  17.536  14.653 -0.0818 -0.0880 -0.0636
 3105DPPE   C1B59121  16.473  18.055  13.377  0.0707 -0.3023 -0.0724
 3105DPPE   C2B59122  16.678  18.364  13.631  0.0533  0.1805  0.0838
 3105DPPE   C3B59123  16.888  18.461  13.929  0.2748  0.0950  0.0772
 3105DPPE   C4B59124  17.002  18.490  14.405 -0.1362  0.0054 -0.1142
 3106DPPE   NH359125  20.619  20.158  13.923  0.0204  0.0911 -0.1823
 3106DPPE   PO459126  20.376  20.424  13.597 -0.1358  0.0508  0.0017
 3106DPPE   GL159127  20.195  20.425  14.040 -0.0244 -0.0862 -0.0646
 3106DPPE   GL259128  20.374  20.294  14.365 -0.3974  0.1735 -0.1248
 3106DPPE   C1A59129  19.877  20.499  14.385 -0.2338 -0.1603 -0.0752
 3106DPPE   C2A59130  19.805  20.715  14.776  0.3057  0.2864  0.5160
 3106DPPE   C3A59131  19.391  20.490  14.894 -0.1742 -0.0005 -0.0507
 3106DPPE   C4A59132  19.028  20.407  14.941  0.0303  0.2532 -0.0917
 3106DPPE   C1B59133  20.311  20.380  14.815 -0.3505 -0.2734  0.1006
 3106DPPE   C2B59134  20.347  20.498  15.184  0.1808  0.0874  0.0356
 3106DPPE   C3B59135  20.619  20.473  15.580 -0.3032 -0.1392  0.1206
 3106DPPE   C4B59136  20.575  20.393  15.974 -0.2057 -0.0275 -0.0487
 3107DPPE   NH359137   7.998   9.128  15.412  0.0461  0.0757 -0.1311
 3107DPPE   PO459138   8.064   9.516  15.155 -0.0677 -0.2667  0.2245
 3107DPPE   GL159139   8.206   9.763  15.449  0.2093 -0.2579  0.2570
 3107DPPE   GL259140   8.284   9.524  15.778  0.1018  0.0753  0.0530
 3107DPPE   C1A59141   8.260  10.049  15.708 -0.2847 -0.2705  0.0944
 3107DPPE   C2A59142   8.346  10.494  15.774 -0.1089  0.0830 -0.1965
 3107DPPE   C3A59143   8.238  10.665  16.174  0.1994 -0.0950 -0.3597
 3107DPPE   C4A59144   8.437  11.016  16.405 -0.2181  0.1516  0.0401
 3107DPPE   C1B59145   8.626   9.738  16.012 -0.2195 -0.1587 -0.0610
 3107DPPE   C2B59146   8.523  10.184  16.091 -0.1713  0.2727  0.1327
 3107DPPE   C3B59147   8.747  10.577  16.274 -0.0517 -0.1326  0.1577
 3107DPPE   C4B59148   8.991  10.926  16.618 -0.2458 -0.0706  0.1945
 3108DPPE   NH359149  23.427  12.072  16.991  0.0016  0.4790 -0.0888
 3108DPPE   PO459150  23.371  12.086  17.383 -0.0145  0.1515  0.1679
 3108DPPE   GL159151  22.955  12.006  17.553 -0.0725  0.0687 -0.0290
 3108DPPE   GL259152  22.693  12.286  17.495  0.0893  0.1890  0.2285
 3108DPPE   C1A59153  22.608  11.949  17.853 -0.1300 -0.2922 -0.1221
 3108DPPE   C2A59154  22.243  11.937  18.230 -0.0741  0.1062 -0.1205
 3108DPPE   C3A59155  22.009  12.203  18.525  0.1898 -0.2742  0.1363
 3108DPPE   C4A59156  22.016  12.255  18.959 -0.1453 -0.0125  0.0373
 3108DPPE   C1B59157  22.595  12.664  17.312  0.2318 -0.0882 -0.2477
 3108DPPE   C2B59158  22.250  12.829  17.076  0.2599  0.0026 -0.0953
 3108DPPE   C3B59159  22.076  12.906  16.631  0.0458 -0.2371 -0.0229
 3108DPPE   C4B59160  22.460  12.943  16.366 -0.0041  0.2821 -0.4962
 3109DPPE   NH359161  18.265  10.508  13.691  0.1599  0.2117 -0.1059
 3109DPPE   PO459162  17.904  10.698  13.696  0.0709  0.0231 -0.2068
 3109DPPE   GL159163  17.715  10.897  13.941  0.2340 -0.1044  0.3332
 3109DPPE   GL259164  17.846  11.222  13.914  0.0915  0.0573 -0.2567
 3109DPPE   C1A59165  17.550  10.860  14.189 -0.1743 -0.0141 -0.1433
 3109DPPE   C2A59166  17.473  10.663  14.657  0.0694  0.2482  0.2923
 3109DPPE   C3A59167  17.653  10.247  14.739 -0.2434 -0.2160  0.1271
 3109DPPE   C4A59168  17.709   9.968  15.022 -0.1479  0.1753  0.0138
 3109DPPE   C1B59169  17.359  11.363  14.085  0.2031 -0.4867 -0.0739
 3109DPPE   C2B59170  16.984  11.254  14.266  0.1664 -0.2116 -0.1470
 3109DPPE   C3B59171  16.819  11.375  14.665  0.3506 -0.2251 -0.1077
 3109DPPE   C4B59172  16.948  11.610  15.001  0.0587  0.1621 -0.1043
 3110DPPE   NH359173  12.099  12.357  12.432  0.1373 -0.0853 -0.0931
 3110DPPE   PO459174  12.371  12.581  12.622 -0.3707  0.0109 -0.2886
 3110DPPE   GL159175  12.304  12.681  13.118 -0.0807  0.0559  0.4317
 3110DPPE   GL259176  12.355  12.385  13.298 -0.1439  0.0899  0.0977
 3110DPPE   C1A59177  12.245  13.062  13.436 -0.0493 -0.4010  0.1705
 3110DPPE   C2A59178  12.212  13.061  13.825 -0.0400  0.1458 -0.2634
 3110DPPE   C3A59179  12.334  13.277  14.201 -0.0907 -0.3558 -0.2089
 3110DPPE   C4A59180  12.419  13.439  14.638  0.0814  0.0799 -0.1797
 3110DPPE   C1B59181  12.651  12.546  13.592 -0.0211 -0.1990  0.1421
 3110DPPE   C2B59182  12.891  12.563  14.016 -0.3737  0.0224  0.2475
 3110DPPE   C3B59183  13.072  12.555  14.318 -0.5546 -0.3543 -0.2412
 3110DPPE   C4B59184  13.131  12.170  14.429  0.0912 -0.0845 -0.0796
 3111DPPE   NH359185   7.715  11.968  13.903  0.0283 -0.0487 -0.3880
 3111DPPE   PO459186   8.076  12.243  13.727  0.2771  0.3981  0.0858
 3111DPPE   GL159187   8.334  12.170  14.137 -0.1749 -0.2470  0.2700
 3111DPPE   GL259188   8.422  12.422  14.155 -0.0676 -0.1294  0.2147
 3111DPPE   C1A59189   8.593  11.997  14.457  0.0972  0.0489 -0.1972
 3111DPPE   C2A59190   8.820  12.002  14.838  0.1524 -0.0399 -0.1447
 3111DPPE   C3A59191   9.166  12.064  15.042  0.2932  0.3363  0.2511
 3111DPPE   C4A59192   9.562  12.110  15.235  0.1561  0.1364 -0.0170
 3111DPPE   C1B59193   8.835  12.415  14.310  0.1152 -0.2411 -0.0219
 3111DPPE   C2B59194   9.092  12.399  14.637  0.1394  0.1800 -0.2614
 3111DPPE   C3B59195   9.523  12.202  14.685 -0.0011  0.3974 -0.2339
 3111DPPE   C4B59196   9.923  12.356  14.700 -0.1434  0.0571  0.0533
 3112DPPE   NH359197  10.270   9.319  13.899 -0.0157 -0.0536 -0.1009
 3112DPPE   PO459198  10.329   9.743  13.686  0.0362  0.3724 -0.1473
 3112DPPE   GL159199  10.520   9.715  14.127  0.0374  0.1073  0.1894
 3112DPPE   GL259200  10.122   9.763  14.178 -0.0954  0.0623 -0.2733
 3112DPPE   C1A59201  10.491   9.528  14.631 -0.0665  0.3123 -0.2389
 3112DPPE   C2A59202  10.429   9.386  14.998  0.1068 -0.0570  0.0404
 3112DPPE   C3A59203  10.114   9.200  15.203 -0.0778 -0.2852 -0.3151
 3112DPPE   C4A59204   9.815   9.051  15.636  0.3968 -0.2678  0.0106
 3112DPPE   C1B59205  10.258  10.103  14.498 -0.1049 -0.3615  0.2754
 3112DPPE   C2B59206  10.163  10.521  14.709 -0.0272 -0.0525 -0.1300
 3112DPPE   C3B59207   9.940  10.819  14.531  0.0773 -0.2902 -0.0124
 3112DPPE   C4B59208   9.962  11.276  14.570 -0.2038  0.0237 -0.2422
 3113DPPE   NH359209  10.209  18.452  13.142  0.0777 -0.0265 -0.2656
 3113DPPE   PO459210  10.408  18.007  13.264  0.0431  0.0799 -0.1490
 3113DPPE   GL159211  10.256  18.156  13.612  0.1629 -0.1483  0.1417
 3113DPPE   GL259212  10.088  17.928  13.737  0.2035  0.0312 -0.0422
 3113DPPE   C1A59213  10.491  18.484  13.935  0.1185 -0.0277 -0.2632
 3113DPPE   C2A59214  10.937  18.699  14.078  0.0289 -0.4392 -0.2218
 3113DPPE   C3A59215  11.110  18.871  14.473  0.0372  0.0603 -0.3364
 3113DPPE   C4A59216  11.229  18.684  14.881  0.2612 -0.3616  0.0817
 3113DPPE   C1B59217  10.380  17.997  14.077  0.0742  0.5073 -0.1794
 3113DPPE   C2B59218  10.462  18.010  14.584 -0.0915 -0.0953  0.0955
 3113DPPE   C3B59219  10.867  17.901  14.704 -0.0383 -0.0069  0.2420
 3113DPPE   C4B59220  11.053  17.614  15.013 -0.1364  0.0017 -0.2097
 3114DPPE   NH359221   9.498  21.492  13.457  0.2784 -0.5375 -0.0033
 3114DPPE   PO459222   9.649  21.975  13.425 -0.0853  0.0201 -0.5392
 3114DPPE   GL159223   9.906  22.023  13.868 -0.1928  0.1138  0.0369
 3114DPPE   GL259224  10.173  22.274  13.923 -0.0521 -0.0949  0.0373
 3114DPPE   C1A59225  10.049  21.809  14.220 -0.1369  0.0480  0.0967
 3114DPPE   C2A59226  10.285  21.798  14.559 -0.0962  0.0070  0.0060
 3114DPPE   C3A59227  10.205  21.812  15.033  0.1956 -0.0639 -0.3800
 3114DPPE   C4A59228  10.040  22.012  15.278  0.0305 -0.0145  0.2006
 3114DPPE   C1B59229  10.488  22.112  14.278 -0.2146  0.0175  0.0527
 3114DPPE   C2B59230  10.700  22.159  14.624  0.2728 -0.2395  0.0730
 3114DPPE   C3B59231  10.691  21.950  15.119 -0.0948  0.3176 -0.0655
 3114DPPE   C4B59232  10.500  21.961  15.474  0.0854  0.2817 -0.1723
 3115DPPE   NH359233  15.727  14.790  12.441 -0.1091 -0.0849  0.2025
 3115DPPE   PO459234  15.288  14.618  12.439 -0.0951  0.3564 -0.0180
 3115DPPE   GL159235  15.209  14.677  12.921 -0.1175  0.0185 -0.3002
 3115DPPE   GL259236  15.102  15.008  12.911  0.0401  0.1381  0.0991
 3115DPPE   C1A59237  15.137  14.730  13.338 -0.1636  0.3808 -0.2046
 3115DPPE   C2A59238  15.301  14.780  13.834  0.0417 -0.0771  0.3163
 3115DPPE   C3A59239  15.100  15.135  14.057  0.5458 -0.1888 -0.2431
 3115DPPE   C4A59240  15.348  15.415  14.155  0.1124 -0.2784 -0.1751
 3115DPPE   C1B59241  15.373  15.247  13.184 -0.1584  0.0358  0.2555
 3115DPPE   C2B59242  15.549  15.072  13.525  0.0796  0.0439 -0.0453
 3115DPPE   C3B59243  15.832  14.875  13.864 -0.1224 -0.1110 -0.2383
 3115DPPE   C4B59244  16.232  15.006  14.116  0.0391 -0.2438  0.3813
 3116DPPE   NH359245  11.313  10.581  13.294 -0.1061 -0.0747 -0.1527
 3116DPPE   PO459246  11.617  10.629  13.088  0.2390  0.0821 -0.3567
 3116DPPE   GL159247  11.714  10.631  13.570  0.0088  0.2280 -0.1566
 3116DPPE   GL259248  12.102  10.818  13.550 -0.0565 -0.2577 -0.3738
 3116DPPE   C1A59249  11.868  10.817  13.975  0.0753  0.2926  0.0601
 3116DPPE   C2A59250  11.963  11.007  14.380 -0.4430  0.3000  0.2930
 3116DPPE   C3A59251  12.315  10.912  14.670 -0.3565 -0.2918  0.2426
 3116DPPE   C4A59252  12.444  10.522  14.760 -0.1747  0.0313 -0.0399
 3116DPPE   C1B59253  12.312  11.000  13.817  0.0032  0.2474 -0.2468
 3116DPPE   C2B59254  12.566  11.119  13.929 -0.2019 -0.0975  0.1159
 3116DPPE   C3B59255  13.022  11.176  14.125  0.2463 -0.0077  0.1637
 3116DPPE   C4B59256  13.249  11.125  14.420  0.2716 -0.1356 -0.2828
 3117DPPE   NH359257  20.125  21.809  13.964  0.1294 -0.0091 -0.0131
 3117DPPE   PO459258  19.978  21.704  13.547 -0.0099 -0.0522  0.1038
 3117DPPE   GL159259  19.586  21.691  13.911  0.2891  0.1547 -0.1644
 3117DPPE   GL259260  19.654  21.680  14.262 -0.0885 -0.0586 -0.4423
 3117DPPE   C1A59261  19.240  22.027  14.049 -0.3301  0.0943 -0.2234
 3117DPPE   C2A59262  18.783  22.002  13.932  0.3216 -0.3757  0.1037
 3117DPPE   C3A59263  18.411  22.408  14.080  0.2606 -0.1943  0.0693
 3117DPPE   C4A59264  18.306  22.226  14.384 -0.2890 -0.1185  0.0696
 3117DPPE   C1B59265  19.730  21.609  14.740  0.2778  0.1248  0.0555
 3117DPPE   C2B59266  19.559  21.624  15.021 -0.1373 -0.0341  0.2121
 3117DPPE   C3B59267  19.262  21.490  15.289 -0.3756  0.1548 -0.1711
 3117DPPE   C4B59268  18.884  21.274  15.266  0.0968  0.0808 -0.2530
 3118DPPE   NH359269  18.177  13.019  13.138  0.1799  0.1628 -0.1625
 3118DPPE   PO459270  17.729  12.804  13.039 -0.1072  0.5350  0.1138
 3118DPPE   GL159271  17.819  12.789  13.521  0.1838  0.3203 -0.0468
 3118DPPE   GL259272  17.706  12.502  13.611  0.0975  0.2018 -0.0942
 3118DPPE   C1A59273  18.165  12.638  13.862  0.3695 -0.1591 -0.1828
 3118DPPE   C2A59274  18.283  12.599  14.311 -0.5928  0.1272 -0.3627
 3118DPPE   C3A59275  18.049  12.583  14.687  0.1494  0.1413  0.1763
 3118DPPE   C4A59276  18.117  12.825  14.954  0.0171  0.0658  0.0598
 3118DPPE   C1B59277  17.351  12.690  13.833 -0.4872  0.0419 -0.0311
 3118DPPE   C2B59278  17.342  12.832  14.330  0.0944 -0.4435  0.0985
 3118DPPE   C3B59279  17.038  12.780  14.603 -0.0719 -0.1532 -0.1637
 3118DPPE   C4B59280  16.933  12.606  14.942 -0.2357 -0.0835 -0.0075
 3119DPPE   NH359281   8.159  15.878  13.847  0.3535  0.1216  0.1901
 3119DPPE   PO459282   8.249  15.450  14.032 -0.1354 -0.3657  0.2878
 3119DPPE   GL159283   8.366  15.249  14.445  0.0635 -0.1835  0.0817
 3119DPPE   GL259284   8.277  15.461  14.595  0.2557  0.0903 -0.0978
 3119DPPE   C1A59285   8.543  15.003  14.782 -0.3533 -0.0496 -0.1761
 3119DPPE   C2A59286   8.562  14.779  15.157  0.1726 -0.0397  0.0263
 3119DPPE   C3A59287   8.984  14.735  15.443  0.1448 -0.0070 -0.2058
 3119DPPE   C4A59288   9.118  14.515  15.807  0.1486 -0.0965  0.0243
 3119DPPE   C1B59289   8.436  15.512  15.044 -0.2686 -0.0014 -0.0785
 3119DPPE   C2B59290   8.282  15.340  15.415  0.2477 -0.2222 -0.3742
 3119DPPE   C3B59291   8.069  15.217  15.746  0.0322 -0.1984  0.0803
 3119DPPE   C4B59292   7.684  15.250  15.980 -0.1408  0.3092 -0.1543
 3120DPPE   NH359293  15.437  20.743  12.905 -0.1694  0.4433  0.1080
 3120DPPE   PO459294  15.204  20.400  12.924 -0.1017 -0.0341  0.1688
 3120DPPE   GL159295  15.235  20.262  13.258  0.1979  0.0643  0.1648
 3120DPPE   GL259296  15.126  20.008  13.244  0.1716  0.3359 -0.1454
 3120DPPE   C1A59297  15.059  20.326  13.686 -0.1339 -0.0187  0.3232
 3120DPPE   C2A59298  14.951  20.421  13.980 -0.0403 -0.0828 -0.2375
 3120DPPE   C3A59299  14.985  20.541  14.491  0.1802 -0.2213 -0.1217
 3120DPPE   C4A59300  14.878  20.467  14.948  0.0154  0.1803  0.0493
 3120DPPE   C1B59301  15.269  19.785  13.625  0.1701  0.0956  0.0428
 3120DPPE   C2B59302  15.175  19.637  13.999  0.1599  0.2033 -0.2618
 3120DPPE   C3B59303  15.185  19.524  14.407 -0.1030 -0.0515  0.2370
 3120DPPE   C4B59304  15.324  19.382  14.776  0.0594  0.0586  0.2635
 3121DPPE   NH359305  23.555  14.049  15.205 -0.1236  0.0578 -0.3137
 3121DPPE   PO459306  23.228  14.192  15.219 -0.2534 -0.2666 -0.1343
 3121DPPE   GL159307  22.970  14.291  15.501  0.0895  0.0696  0.0751
 3121DPPE   GL259308  23.140  14.356  15.892 -0.2419  0.1407  0.2423
 3121DPPE   C1A59309  22.874  13.881  15.645 -0.0583 -0.3290  0.0490
 3121DPPE   C2A59310  22.465  13.909  15.727 -0.0684 -0.0950 -0.1909
 3121DPPE   C3A59311  22.203  14.095  15.911  0.0750 -0.1873  0.0398
 3121DPPE   C4A59312  21.927  14.334  16.295  0.1218  0.2291 -0.0253
 3121DPPE   C1B59313  22.785  14.222  15.984  0.2136 -0.2141 -0.0407
 3121DPPE   C2B59314  22.396  14.504  16.168 -0.0400 -0.0923  0.0247
 3121DPPE   C3B59315  22.009  14.831  16.324 -0.2357 -0.0130 -0.1992
 3121DPPE   C4B59316  21.730  15.184  16.244 -0.1161 -0.0198  0.1185
 3122DPPE   NH359317  14.215  11.768  12.787 -0.0052  0.1565  0.0229
 3122DPPE   PO459318  14.664  11.595  12.831  0.1207 -0.0713  0.0157
 3122DPPE   GL159319  14.578  11.708  13.209 -0.1840 -0.0276  0.1824
 3122DPPE   GL259320  14.493  12.046  13.226 -0.1579 -0.1608  0.0446
 3122DPPE   C1A59321  14.550  11.659  13.650  0.0527  0.2220 -0.0908
 3122DPPE   C2A59322  14.651  11.539  14.077  0.1296 -0.1590  0.3443
 3122DPPE   C3A59323  14.615  11.231  14.475 -0.1491 -0.0395  0.0488
 3122DPPE   C4A59324  14.357  11.349  14.912  0.1126  0.2431  0.3604
 3122DPPE   C1B59325  14.133  11.870  13.463  0.0393  0.1374 -0.0256
 3122DPPE   C2B59326  14.054  11.706  13.820 -0.2947 -0.1754 -0.0845
 3122DPPE   C3B59327  13.686  11.658  14.063 -0.1882  0.2105  0.0162
 3122DPPE   C4B59328  13.660  11.423  14.405 -0.0130  0.0730 -0.2014
 3123DPPE   NH359329   7.296   8.734  16.900 -0.0829  0.0202 -0.0306
 3123DPPE   PO459330   7.050   8.916  17.235  0.0420  0.0286 -0.1338
 3123DPPE   GL159331   7.247   9.200  16.847 -0.1451 -0.1796  0.4260
 3123DPPE   GL259332   7.171   9.136  16.532  0.0009  0.1547  0.0937
 3123DPPE   C1A59333   7.272   9.587  16.547 -0.3881 -0.1090  0.2478
 3123DPPE   C2A59334   7.678   9.890  16.509  0.3543  0.0325 -0.1373
 3123DPPE   C3A59335   7.914  10.100  16.867  0.1541  0.0064 -0.1318
 3123DPPE   C4A59336   7.881  10.360  17.192 -0.0370 -0.1326 -0.0103
 3123DPPE   C1B59337   7.346   9.256  16.150  0.1304  0.3244 -0.0022
 3123DPPE   C2B59338   7.778   9.429  16.037 -0.0195  0.0655 -0.2797
 3123DPPE   C3B59339   7.889   9.820  16.016 -0.0655 -0.1028  0.0471
 3123DPPE   C4B59340   7.806  10.183  15.989  0.1104  0.3221 -0.0760
 3124DPPE   NH359341  19.949   8.807  16.129  0.3547 -0.0098 -0.0698
 3124DPPE   PO459342  19.554   8.961  16.180 -0.0506 -0.2922 -0.1134
 3124DPPE   GL159343  19.490   9.438  16.061  0.1313  0.1264 -0.2609
 3124DPPE   GL259344  19.502   9.672  15.778  0.2297  0.0460 -0.0591
 3124DPPE   C1A59345  19.237   9.796  16.161  0.3322  0.0560 -0.2613
 3124DPPE   C2A59346  19.007  10.186  16.376  0.0009  0.1467 -0.2875
 3124DPPE   C3A59347  19.087  10.531  16.573 -0.1184 -0.0882  0.1943
 3124DPPE   C4A59348  19.092  10.987  16.549 -0.1352 -0.0369  0.2353
 3124DPPE   C1B59349  19.316  10.074  15.768  0.0360  0.0818 -0.5203
 3124DPPE   C2B59350  18.918  10.252  15.814 -0.3074  0.1281 -0.2800
 3124DPPE   C3B59351  18.820  10.632  15.638 -0.1036 -0.1225  0.1804
 3124DPPE   C4B59352  18.735  10.726  15.167  0.0980 -0.2755 -0.1512
 3125DPPE   NH359353  13.239  27.997  16.670 -0.1506  0.1966  0.1544
 3125DPPE   PO459354  13.602  28.030  16.914 -0.0427 -0.0219  0.1382
 3125DPPE   GL159355  13.621  27.640  17.064 -0.2742  0.0707 -0.2071
 3125DPPE   GL259356  13.488  27.371  17.206 -0.0155 -0.0413 -0.0267
 3125DPPE   C1A59357  13.990  27.279  17.092 -0.0730  0.0061 -0.1385
 3125DPPE   C2A59358  14.422  27.149  17.203  0.1993 -0.1345 -0.0543
 3125DPPE   C3A59359  14.810  27.248  17.279  0.2398  0.1889  0.3763
 3125DPPE   C4A59360  14.898  27.539  17.609  0.3750  0.0734  0.1968
 3125DPPE   C1B59361  13.413  27.009  16.914  0.1088  0.0004  0.1586
 3125DPPE   C2B59362  13.522  26.757  16.578  0.0364  0.0314 -0.2730
 3125DPPE   C3B59363  13.665  26.514  16.221 -0.0602  0.0340 -0.1625
 3125DPPE   C4B59364  13.846  26.291  15.899 -0.3504  0.1041 -0.0413
 3126DPPE   NH359365   8.323  17.914  13.991 -0.2490  0.0172  0.3808
 3126DPPE   PO459366   7.930  17.878  14.017 -0.3670  0.0823 -0.3104
 3126DPPE   GL159367   8.013  17.716  14.397 -0.4181  0.3004 -0.2349
 3126DPPE   GL259368   8.422  17.453  14.413  0.4261 -0.1560 -0.0287
 3126DPPE   C1A59369   8.005  17.507  14.773  0.2762  0.1042  0.2520
 3126DPPE   C2A59370   7.765  17.163  14.958 -0.3486 -0.2227 -0.0606
 3126DPPE   C3A59371   7.337  16.919  14.990  0.1867 -0.4513  0.2534
 3126DPPE   C4A59372   6.894  16.796  15.059  0.1565  0.0120  0.1040
 3126DPPE   C1B59373   8.555  17.540  14.787 -0.2051 -0.2087  0.0713
 3126DPPE   C2B59374   8.310  17.744  15.227  0.2886 -0.0682  0.2682
 3126DPPE   C3B59375   7.858  17.621  15.204  0.4745 -0.2135 -0.2289
 3126DPPE   C4B59376   7.373  17.372  15.201 -0.1139 -0.0190  0.2579
 3127DPPE   NH359377  16.103   6.171  18.180 -0.0998  0.3632 -0.4345
 3127DPPE   PO459378  15.846   5.916  17.802 -0.1230 -0.0950 -0.3586
 3127DPPE   GL159379  15.623   6.338  17.928 -0.2722  0.0072  0.0198
 3127DPPE   GL259380  15.690   6.432  18.232 -0.2847  0.1450  0.0070
 3127DPPE   C1A59381  15.664   6.663  17.657 -0.1749 -0.0368  0.1833
 3127DPPE   C2A59382  15.851   6.949  17.351 -0.2128  0.2417 -0.1269
 3127DPPE   C3A59383  15.990   7.427  17.338  0.2737  0.1828 -0.1598
 3127DPPE   C4A59384  16.203   7.563  17.672 -0.0261 -0.2397 -0.2114
 3127DPPE   C1B59385  15.543   6.814  18.182 -0.0997 -0.0525 -0.1200
 3127DPPE   C2B59386  15.501   7.161  17.823  0.3427  0.1040  0.1214
 3127DPPE   C3B59387  15.464   7.388  17.515  0.1963 -0.0640 -0.0046
 3127DPPE   C4B59388  15.533   7.791  17.270  0.1324 -0.2705  0.0668
 3128DPPE   NH359389  15.788  27.261  14.791  0.4423 -0.0713  0.0342
 3128DPPE   PO459390  16.030  26.977  14.984  0.1133  0.0706  0.1783
 3128DPPE   GL159391  15.593  26.767  15.148  0.0300 -0.2313 -0.3952
 3128DPPE   GL259392  15.530  26.458  15.008 -0.1860 -0.0191  0.0936
 3128DPPE   C1A59393  15.365  26.667  15.496  0.0042  0.1994  0.1525
 3128DPPE   C2A59394  15.368  26.360  15.845  0.1023 -0.0255 -0.0591
 3128DPPE   C3A59395  15.021  26.171  16.014 -0.0427  0.1782 -0.1004
 3128DPPE   C4A59396  14.726  25.902  16.201  0.1227  0.2619 -0.2904
 3128DPPE   C1B59397  15.625  26.184  15.414 -0.0293  0.6141  0.1767
 3128DPPE   C2B59398  15.334  25.935  15.626  0.1744 -0.0808  0.0980
 3128DPPE   C3B59399  14.851  25.796  15.727  0.0321  0.0207 -0.0480
 3128DPPE   C4B59400  14.633  25.397  15.486  0.2710 -0.1294  0.3228
 3129DPPE   NH359401  13.835  22.783  13.366 -0.0231 -0.0338  0.1282
 3129DPPE   PO459402  14.098  23.101  13.531 -0.1659 -0.1521 -0.0060
 3129DPPE   GL159403  14.184  22.721  13.730  0.0515 -0.3037 -0.0850
 3129DPPE   GL259404  14.088  22.398  13.595 -0.6303  0.2131  0.1086
 3129DPPE   C1A59405  14.322  22.500  14.143 -0.2031  0.3405  0.0806
 3129DPPE   C2A59406  14.193  22.276  14.463 -0.2429 -0.0850 -0.0438
 3129DPPE   C3A59407  14.163  21.948  14.823 -0.0016  0.1533  0.0633
 3129DPPE   C4A59408  14.130  21.523  14.922  0.1367 -0.0440  0.2396
 3129DPPE   C1B59409  13.802  22.227  13.926  0.0933  0.0601  0.0840
 3129DPPE   C2B59410  13.798  22.477  14.275  0.1747 -0.2184  0.3126
 3129DPPE   C3B59411  13.554  22.774  14.449  0.2331  0.2435  0.2036
 3129DPPE   C4B59412  13.650  23.126  14.625  0.0057  0.0028  0.3416
 3130DPPE   NH359413  18.291  27.886  16.347  0.0089 -0.1307  0.1576
 3130DPPE   PO459414  18.223  27.899  16.857 -0.0180 -0.1508  0.2477
 3130DPPE   GL159415  18.117  27.487  16.874  0.1257  0.0437 -0.0556
 3130DPPE   GL259416  17.951  27.463  16.570 -0.2371 -0.2246  0.1849
 3130DPPE   C1A59417  17.690  27.272  17.073  0.3964 -0.4188  0.2387
 3130DPPE   C2A59418  17.418  27.219  17.259  0.2292  0.0370  0.1293
 3130DPPE   C3A59419  17.006  27.172  17.481 -0.1937 -0.0148 -0.2432
 3130DPPE   C4A59420  16.592  27.342  17.462  0.1771  0.1597 -0.1532
 3130DPPE   C1B59421  17.830  26.969  16.751  0.3032 -0.1492  0.3789
 3130DPPE   C2B59422  17.603  26.502  16.887  0.3020 -0.0126  0.4146
 3130DPPE   C3B59423  17.576  25.964  16.812 -0.3717  0.3977  0.1528
 3130DPPE   C4B59424  17.860  25.676  16.739  0.0334 -0.0265 -0.0873
 3131DPPE   NH359425  15.388  13.736  12.686 -0.0913  0.2089  0.2268
 3131DPPE   PO459426  14.892  13.646  12.661 -0.1253 -0.1503  0.2413
 3131DPPE   GL159427  14.842  13.530  13.096  0.1938  0.0994 -0.0128
 3131DPPE   GL259428  14.753  13.262  13.276  0.0071  0.1591 -0.0302
 3131DPPE   C1A59429  15.052  13.621  13.523 -0.2794 -0.1588  0.1563
 3131DPPE   C2A59430  15.090  13.529  13.919  0.1679 -0.0078  0.0088
 3131DPPE   C3A59431  14.872  13.676  14.316 -0.6530 -0.0860  0.2251
 3131DPPE   C4A59432  14.642  13.879  14.581 -0.1308 -0.0508 -0.1173
 3131DPPE   C1B59433  14.433  12.970  13.429 -0.1923  0.1544  0.2240
 3131DPPE   C2B59434  14.208  12.949  13.851 -0.1293 -0.2587 -0.1187
 3131DPPE   C3B59435  14.332  12.874  14.299 -0.1827  0.0884 -0.0463
 3131DPPE   C4B59436  14.524  12.846  14.619 -0.0214 -0.1061 -0.3699
 3132DPPE   NH359437  21.114  15.022  13.460  0.2898  0.1478 -0.0784
 3132DPPE   PO459438  21.431  15.052  13.696  0.1373  0.1151 -0.3426
 3132DPPE   GL159439  21.563  15.049  14.106  0.0402  0.2901  0.1481
 3132DPPE   GL259440  21.567  14.732  14.081  0.0876  0.1433 -0.2145
 3132DPPE   C1A59441  21.408  15.182  14.422  0.1759  0.1923 -0.2434
 3132DPPE   C2A59442  20.995  15.247  14.708 -0.0457 -0.1392  0.0499
 3132DPPE   C3A59443  20.832  15.479  15.036 -0.1276  0.1499  0.1479
 3132DPPE   C4A59444  20.548  15.570  15.263 -0.0686  0.1331  0.0364
 3132DPPE   C1B59445  21.450  14.674  14.498 -0.1274  0.0192 -0.0875
 3132DPPE   C2B59446  21.522  14.779  14.749  0.0516  0.1912 -0.2006
 3132DPPE   C3B59447  21.724  14.692  14.996 -0.1753 -0.2592  0.0893
 3132DPPE   C4B59448  21.730  14.446  15.451  0.0941  0.0475  0.2054
 3133DPPE   NH359449   9.098  22.113  13.722 -0.0538 -0.0070  0.0614
 3133DPPE   PO459450   9.065  21.595  13.733  0.1222  0.1691 -0.0918
 3133DPPE   GL159451   8.956  21.375  14.088 -0.1762 -0.1331 -0.0762
 3133DPPE   GL259452   8.527  21.352  14.271 -0.3861  0.1409  0.2004
 3133DPPE   C1A59453   9.089  21.277  14.390  0.0887 -0.0876 -0.4046
 3133DPPE   C2A59454   9.121  21.090  14.776  0.4582 -0.1074 -0.0603
 3133DPPE   C3A59455   9.359  21.024  15.181 -0.3123 -0.0985  0.1032
 3133DPPE   C4A59456   9.767  20.830  15.479 -0.0164  0.1300  0.0659
 3133DPPE   C1B59457   8.682  20.960  14.398 -0.2020  0.3170 -0.0757
 3133DPPE   C2B59458   8.912  20.654  14.611 -0.0549  0.2252 -0.3526
 3133DPPE   C3B59459   9.102  20.606  15.026 -0.0049  0.0784 -0.0320
 3133DPPE   C4B59460   9.216  20.532  15.430  0.1113  0.5070  0.0548
 3134DPPE   NH359461  15.142  22.506  12.879 -0.1013 -0.1718  0.0996
 3134DPPE   PO459462  15.260  22.111  12.933 -0.3645  0.0735 -0.0820
 3134DPPE   GL159463  15.130  22.100  13.301 -0.0564  0.1800 -0.2808
 3134DPPE   GL259464  15.191  22.263  13.611  0.1697  0.3190 -0.1359
 3134DPPE   C1A59465  15.208  21.784  13.637  0.0928 -0.3700  0.0122
 3134DPPE   C2A59466  15.431  21.691  14.002 -0.1440  0.0076 -0.2255
 3134DPPE   C3A59467  15.307  21.473  14.404  0.2029 -0.0870  0.0387
 3134DPPE   C4A59468  14.839  21.329  14.419 -0.1804 -0.1314 -0.1095
 3134DPPE   C1B59469  15.378  22.502  13.931  0.0244  0.1547 -0.2800
 3134DPPE   C2B59470  15.420  22.796  14.223  0.2652  0.1799  0.3455
 3134DPPE   C3B59471  15.604  22.885  14.559 -0.1854 -0.3395  0.1943
 3134DPPE   C4B59472  15.502  23.255  14.604 -0.1713 -0.2271 -0.0008
 3135DPPE   NH359473  13.684  15.633  12.399  0.0137  0.0327 -0.1682
 3135DPPE   PO459474  13.451  15.940  12.225  0.0110  0.3233 -0.0065
 3135DPPE   GL159475  13.612  16.057  12.696 -0.0145 -0.0584 -0.5983
 3135DPPE   GL259476  13.745  16.325  12.850 -0.1352 -0.2271 -0.0791
 3135DPPE   C1A59477  13.705  15.821  13.124 -0.1984 -0.2697  0.0503
 3135DPPE   C2A59478  13.748  15.757  13.532 -0.3353  0.0308  0.0036
 3135DPPE   C3A59479  14.063  15.749  13.817 -0.1805 -0.1578 -0.1663
 3135DPPE   C4A59480  14.010  15.645  14.291 -0.3161 -0.0240 -0.3994
 3135DPPE   C1B59481  13.757  16.298  13.321 -0.0361 -0.0230 -0.0879
 3135DPPE   C2B59482  13.899  16.237  13.734 -0.2749 -0.1625 -0.2754
 3135DPPE   C3B59483  14.119  16.157  14.159 -0.1290 -0.1714  0.1009
 3135DPPE   C4B59484  14.452  15.780  14.143  0.2868 -0.3840  0.3170
 3136DPPE   NH359485  21.956  17.275  13.883  0.3010 -0.0023 -0.1894
 3136DPPE   PO459486  21.803  16.874  13.848  0.0102  0.0364 -0.0894
 3136DPPE   GL159487  21.821  16.658  14.189 -0.1308 -0.1842  0.2030
 3136DPPE   GL259488  21.914  16.605  14.440  0.1960  0.0214  0.4034
 3136DPPE   C1A59489  21.452  16.754  14.444  0.1881  0.1336 -0.0353
 3136DPPE   C2A59490  21.164  16.854  14.776  0.0204  0.0677 -0.4589
 3136DPPE   C3A59491  20.803  16.821  15.128 -0.3532 -0.2752  0.0226
 3136DPPE   C4A59492  20.753  17.089  15.603 -0.3341  0.2370  0.2652
 3136DPPE   C1B59493  21.873  16.503  14.855 -0.3938 -0.3675  0.0186
 3136DPPE   C2B59494  21.842  16.166  15.190 -0.0508  0.0092  0.0917
 3136DPPE   C3B59495  21.923  15.992  15.506  0.0446  0.0913 -0.1547
 3136DPPE   C4B59496  22.161  16.045  15.791  0.1794 -0.0480  0.0957
 3137DPPE   NH359497  15.513  23.427  12.715 -0.1492  0.0923 -0.0284
 3137DPPE   PO459498  15.434  23.471  13.214  0.1004 -0.0079 -0.0598
 3137DPPE   GL159499  15.318  23.505  13.567 -0.0322  0.0416 -0.1963
 3137DPPE   GL259500  15.308  23.686  13.769  0.0652 -0.1116  0.2334
 3137DPPE   C1A59501  15.633  23.314  13.832  0.1001  0.2411  0.1096
 3137DPPE   C2A59502  15.774  23.200  14.187 -0.1050 -0.1516 -0.2867
 3137DPPE   C3A59503  16.059  23.110  14.603  0.1210 -0.1498 -0.3163
 3137DPPE   C4A59504  16.167  23.260  15.054 -0.3052  0.1430  0.0405
 3137DPPE   C1B59505  15.506  23.778  14.169  0.0103 -0.0434 -0.1006
 3137DPPE   C2B59506  15.802  24.014  14.360 -0.0047  0.0037 -0.1446
 3137DPPE   C3B59507  16.190  24.077  14.594 -0.4341 -0.0713  0.2434
 3137DPPE   C4B59508  16.563  24.267  14.730 -0.1786 -0.0559  0.3294
 3138DPPE   NH359509  15.229  25.816  13.523  0.1296  0.0414 -0.3971
 3138DPPE   PO459510  14.885  26.011  13.815  0.0236  0.0059  0.2407
 3138DPPE   GL159511  14.552  25.995  14.071  0.0637  0.0756  0.2393
 3138DPPE   GL259512  14.392  25.849  13.966 -0.2009 -0.1382  0.1273
 3138DPPE   C1A59513  14.217  26.022  14.447 -0.3178  0.3824  0.0357
 3138DPPE   C2A59514  14.031  25.660  14.801  0.0868 -0.0041  0.1009
 3138DPPE   C3A59515  13.866  25.271  14.940  0.1630  0.2446 -0.1231
 3138DPPE   C4A59516  13.497  25.094  15.082  0.3177  0.1594 -0.0707
 3138DPPE   C1B59517  14.070  25.569  14.084 -0.1565 -0.3373  0.0008
 3138DPPE   C2B59518  13.756  25.370  14.187  0.0452 -0.1514 -0.1534
 3138DPPE   C3B59519  13.411  25.162  14.055 -0.2866 -0.1491 -0.1677
 3138DPPE   C4B59520  13.288  24.849  13.862  0.0331 -0.0296  0.0170
 3139DPPE   NH359521  10.266  21.097  13.190 -0.2818  0.5809 -0.3085
 3139DPPE   PO459522  10.688  21.228  13.140 -0.2121 -0.2140  0.0152
 3139DPPE   GL159523  10.925  21.103  13.542  0.0273 -0.0082 -0.2637
 3139DPPE   GL259524  10.969  21.279  13.788 -0.1111  0.0691  0.2267
 3139DPPE   C1A59525  11.098  20.832  13.856  0.0055 -0.0852 -0.1406
 3139DPPE   C2A59526  11.437  20.731  14.163  0.0712 -0.2522 -0.1089
 3139DPPE   C3A59527  11.652  20.694  14.518 -0.1287  0.1054  0.0588
 3139DPPE   C4A59528  11.592  20.421  14.861  0.1263  0.0957 -0.2888
 3139DPPE   C1B59529  10.970  21.355  14.250  0.2251 -0.0557  0.4167
 3139DPPE   C2B59530  11.303  21.113  14.544  0.0703  0.2480 -0.1532
 3139DPPE   C3B59531  11.772  21.113  14.723 -0.1755 -0.2186 -0.0354
 3139DPPE   C4B59532  12.088  21.276  14.830  0.1711  0.0699 -0.1967
 3140DPPE   NH359533  15.225  10.800  12.984 -0.1997  0.2299 -0.3210
 3140DPPE   PO459534  15.591  10.772  13.101 -0.1284 -0.0231  0.1618
 3140DPPE   GL159535  15.488  11.078  13.392 -0.1182  0.4704  0.0278
 3140DPPE   GL259536  15.795  11.289  13.450  0.5837 -0.0213  0.2061
 3140DPPE   C1A59537  15.226  11.133  13.728 -0.1112 -0.1197  0.2075
 3140DPPE   C2A59538  14.965  11.176  14.002 -0.1190 -0.2460 -0.1048
 3140DPPE   C3A59539  14.523  11.093  14.016  0.1368 -0.0548  0.0888
 3140DPPE   C4A59540  14.098  11.009  13.641  0.0966  0.0698 -0.1026
 3140DPPE   C1B59541  15.816  11.353  13.854  0.0457  0.3574 -0.0707
 3140DPPE   C2B59542  15.845  11.361  14.279  0.1239 -0.0400 -0.2378
 3140DPPE   C3B59543  15.670  11.321  14.728 -0.3520 -0.1621 -0.1303
 3140DPPE   C4B59544  15.643  11.010  15.161 -0.4973 -0.3533 -0.3015
 3141DPPE   NH359545  20.824  21.410  20.805  0.1626  0.1829  0.0944
 3141DPPE   PO459546  20.968  21.409  20.365  0.1219  0.1830 -0.0796
 3141DPPE   GL159547  20.732  21.239  20.090 -0.3555 -0.1740  0.0130
 3141DPPE   GL259548  20.558  21.390  19.812  0.1252 -0.2319  0.0286
 3141DPPE   C1A59549  20.565  20.923  19.750  0.1258 -0.1159  0.2079
 3141DPPE   C2A59550  20.374  20.578  19.703 -0.1239 -0.0998  0.0242
 3141DPPE   C3A59551  20.133  20.276  19.558  0.1222 -0.1373 -0.1686
 3141DPPE   C4A59552  19.773  20.158  19.531 -0.2501 -0.2780  0.0877
 3141DPPE   C1B59553  20.578  21.653  19.434 -0.1088  0.0872 -0.0415
 3141DPPE   C2B59554  20.773  21.531  18.962 -0.0562 -0.0122 -0.2599
 3141DPPE   C3B59555  20.835  21.255  18.632 -0.0661  0.1159 -0.0189
 3141DPPE   C4B59556  20.515  21.042  18.476 -0.0152  0.0676  0.1516
 3142DPPE   NH359557  16.123  21.046  12.704  0.1830  0.0373 -0.1445
 3142DPPE   PO459558  15.790  21.122  13.053 -0.0049 -0.5585 -0.1967
 3142DPPE   GL159559  16.051  21.046  13.326  0.1610 -0.1646  0.1382
 3142DPPE   GL259560  16.339  21.214  13.243 -0.4229  0.0180 -0.3172
 3142DPPE   C1A59561  16.020  21.018  13.722  0.0566  0.0644  0.1156
 3142DPPE   C2A59562  15.987  20.782  14.154 -0.0177  0.2498  0.2117
 3142DPPE   C3A59563  16.280  20.501  14.351 -0.1319 -0.2870 -0.0616
 3142DPPE   C4A59564  16.412  20.262  14.673  0.1403  0.2477 -0.2058
 3142DPPE   C1B59565  16.586  21.250  13.645  0.1260  0.0971 -0.0705
 3142DPPE   C2B59566  16.859  21.212  13.977  0.0260  0.1479  0.0965
 3142DPPE   C3B59567  17.233  21.170  13.983 -0.1403 -0.0697 -0.1852
 3142DPPE   C4B59568  17.522  21.426  14.227 -0.3037 -0.1441 -0.0841
 3143DPPE   NH359569  19.999  22.598  14.545 -0.5506 -0.0639  0.0815
 3143DPPE   PO459570  19.739  22.924  14.403  0.0146 -0.0476  0.0314
 3143DPPE   GL159571  19.442  22.763  14.732  0.0886 -0.1384  0.0686
 3143DPPE   GL259572  19.479  22.415  14.654 -0.0408 -0.1777 -0.1649
 3143DPPE   C1A59573  19.420  22.880  15.140  0.1462 -0.1790 -0.1285
 3143DPPE   C2A59574  19.410  23.126  15.451  0.0995  0.1337 -0.1140
 3143DPPE   C3A59575  19.403  23.395  15.698  0.2553 -0.0725  0.0495
 3143DPPE   C4A59576  19.596  23.814  15.699 -0.2345  0.0765 -0.0076
 3143DPPE   C1B59577  19.362  21.945  14.542  0.1576 -0.0350 -0.1861
 3143DPPE   C2B59578  19.026  21.730  14.340  0.4481 -0.2931  0.4119
 3143DPPE   C3B59579  18.787  21.400  14.312 -0.2811 -0.2603  0.1714
 3143DPPE   C4B59580  18.777  20.968  14.468 -0.0238  0.2442 -0.2356
 3144DPPE   NH359581  12.304  19.146  12.853 -0.3534  0.2160  0.2121
 3144DPPE   PO459582  12.069  19.522  12.931 -0.1591  0.0949  0.1226
 3144DPPE   GL159583  12.348  19.511  13.287  0.2377 -0.2981 -0.1047
 3144DPPE   GL259584  12.641  19.641  13.209 -0.2836 -0.1024 -0.0078
 3144DPPE   C1A59585  12.469  19.359  13.751 -0.3664  0.0426  0.0898
 3144DPPE   C2A59586  12.503  19.187  14.216 -0.0386 -0.0610  0.3900
 3144DPPE   C3A59587  12.390  19.427  14.571  0.0923 -0.0200  0.1258
 3144DPPE   C4A59588  12.242  19.732  14.825  0.2490 -0.0314 -0.1369
 3144DPPE   C1B59589  12.735  19.217  13.315 -0.1452 -0.1983 -0.0468
 3144DPPE   C2B59590  12.877  19.009  13.675  0.1050  0.0002 -0.0410
 3144DPPE   C3B59591  13.105  18.932  14.102  0.0416  0.0474  0.0297
 3144DPPE   C4B59592  13.475  18.720  14.400 -0.1883  0.3676  0.2108
 3145DPPE   NH359593   9.476  20.593  13.151  0.2676 -0.1022  0.1799
 3145DPPE   PO459594  10.012  20.606  13.137  0.0822 -0.1558  0.2306
 3145DPPE   GL159595  10.186  20.640  13.532 -0.1931 -0.0878  0.1362
 3145DPPE   GL259596  10.169  20.240  13.666 -0.1759  0.0363  0.1575
 3145DPPE   C1A59597  10.119  20.779  13.881 -0.0673 -0.3532 -0.2357
 3145DPPE   C2A59598  10.338  20.762  14.243 -0.0518 -0.0877 -0.4679
 3145DPPE   C3A59599  10.322  20.871  14.736 -0.1300  0.2481  0.1014
 3145DPPE   C4A59600  10.256  20.547  15.004 -0.3401  0.1443  0.1782
 3145DPPE   C1B59601  10.125  20.320  14.080 -0.1284  0.2421  0.0365
 3145DPPE   C2B59602   9.703  20.246  14.299  0.1439  0.1160  0.1975
 3145DPPE   C3B59603   9.637  19.945  14.628 -0.2105  0.0889  0.1022
 3145DPPE   C4B59604   9.710  19.714  15.095  0.1868  0.0212 -0.0149
 3146DPPE   NH359605   7.815   9.617  14.657  0.0082 -0.0218 -0.1596
 3146DPPE   PO459606   7.778  10.077  14.378  0.0472  0.2532 -0.1703
 3146DPPE   GL159607   7.763  10.308  14.737  0.0037  0.3189 -0.0111
 3146DPPE   GL259608   7.660  10.536  14.650  0.2714 -0.0741 -0.1173
 3146DPPE   C1A59609   7.942  10.203  15.146  0.0694 -0.2040 -0.0179
 3146DPPE   C2A59610   7.826  10.015  15.520  0.2752 -0.2531 -0.3725
 3146DPPE   C3A59611   7.450  10.007  15.720 -0.0805  0.0519 -0.0062
 3146DPPE   C4A59612   7.342   9.855  16.125  0.1278 -0.0744 -0.3639
 3146DPPE   C1B59613   7.553  10.840  14.949 -0.0125 -0.2033  0.0647
 3146DPPE   C2B59614   7.572  10.941  15.343 -0.0317 -0.1188  0.0145
 3146DPPE   C3B59615   7.813  10.893  15.748 -0.1317 -0.0853  0.0523
 3146DPPE   C4B59616   7.743  10.632  16.079 -0.0694 -0.1491 -0.1881
 3147DPPE   NH359617  18.131  27.176  15.811 -0.0296 -0.0488 -0.2077
 3147DPPE   PO459618  18.383  27.561  15.983 -0.0611  0.1296  0.1176
 3147DPPE   GL159619  18.333  27.291  16.299  0.0662  0.1422  0.1149
 3147DPPE   GL259620  18.220  26.887  16.218 -0.0828 -0.0730 -0.1145
 3147DPPE   C1A59621  18.424  27.123  16.723  0.3714  0.1300  0.1124
 3147DPPE   C2A59622  18.304  27.131  17.163  0.4472  0.1020 -0.1706
 3147DPPE   C3A59623  18.449  27.160  17.559 -0.2242 -0.1236  0.0501
 3147DPPE   C4A59624  18.761  26.814  17.685  0.4431 -0.0593  0.0932
 3147DPPE   C1B59625  18.265  26.690  16.625 -0.0844 -0.0457 -0.3298
 3147DPPE   C2B59626  18.098  26.565  17.046  0.2359 -0.1103  0.1296
 3147DPPE   C3B59627  17.914  26.193  17.131 -0.1801  0.1474 -0.2526
 3147DPPE   C4B59628  17.742  25.903  17.293  0.0741  0.0763 -0.0485
 3148DPPE   NH359629  18.074  14.687  12.617 -0.2428 -0.1757  0.0374
 3148DPPE   PO459630  18.377  14.496  12.694 -0.0301 -0.0336 -0.2188
 3148DPPE   GL159631  18.490  14.495  13.155  0.0173  0.1539  0.1128
 3148DPPE   GL259632  18.208  14.186  13.228 -0.4844 -0.1276  0.3680
 3148DPPE   C1A59633  18.591  14.619  13.531  0.1189  0.0962 -0.2611
 3148DPPE   C2A59634  18.575  14.818  13.859 -0.1264  0.2174  0.0066
 3148DPPE   C3A59635  18.331  14.942  14.273 -0.0111  0.1360  0.2307
 3148DPPE   C4A59636  18.010  15.021  14.372  0.0472  0.4165 -0.2022
 3148DPPE   C1B59637  18.607  14.132  13.469  0.0570  0.0644 -0.0660
 3148DPPE   C2B59638  18.853  14.333  13.843 -0.1136  0.2148 -0.0566
 3148DPPE   C3B59639  18.683  14.503  14.296 -0.1336 -0.3973  0.1179
 3148DPPE   C4B59640  18.388  14.413  14.456 -0.0816  0.4730 -0.1789
 3149DPPE   NH359641  21.134  18.871  13.679  0.1525  0.0529 -0.3096
 3149DPPE   PO459642  20.841  19.101  13.631 -0.1845  0.5302  0.0933
 3149DPPE   GL159643  20.499  18.965  13.826 -0.1108 -0.1755  0.0633
 3149DPPE   GL259644  20.615  18.702  14.003 -0.2386  0.1488 -0.0156
 3149DPPE   C1A59645  20.162  18.668  13.950 -0.0709  0.1149  0.2065
 3149DPPE   C2A59646  19.993  18.745  14.297  0.3081  0.2061 -0.1521
 3149DPPE   C3A59647  20.141  18.484  14.742 -0.0478  0.1245 -0.1452
 3149DPPE   C4A59648  19.986  18.003  14.870 -0.1137 -0.3419  0.0510
 3149DPPE   C1B59649  20.391  19.034  14.274  0.1299  0.3630 -0.0437
 3149DPPE   C2B59650  20.198  19.077  14.602 -0.1806 -0.1593 -0.2252
 3149DPPE   C3B59651  19.861  18.848  14.758 -0.0091  0.0399 -0.2885
 3149DPPE   C4B59652  19.454  18.804  14.561  0.1858  0.1115  0.2420
 3150DPPE   NH359653  17.000  18.351  12.502  0.0634 -0.1242 -0.1731
 3150DPPE   PO459654  16.626  18.151  12.542 -0.0738 -0.0095 -0.0749
 3150DPPE   GL159655  16.703  18.204  12.922 -0.1530  0.4359  0.2352
 3150DPPE   GL259656  17.026  18.031  12.960 -0.1347 -0.1008  0.1325
 3150DPPE   C1A59657  16.920  18.514  13.208  0.0944  0.1233 -0.0673
 3150DPPE   C2A59658  17.199  18.555  13.498  0.0008  0.2143 -0.4625
 3150DPPE   C3A59659  17.365  18.568  13.883 -0.3974 -0.0840  0.0412
 3150DPPE   C4A59660  17.509  18.480  14.297  0.0995 -0.0785  0.3431
 3150DPPE   C1B59661  16.955  17.949  13.353 -0.0796 -0.0883 -0.0049
 3150DPPE   C2B59662  16.765  17.838  13.678  0.2369 -0.1956 -0.0509
 3150DPPE   C3B59663  16.974  17.522  13.972  0.3889  0.1688  0.1325
 3150DPPE   C4B59664  16.869  17.289  14.281  0.1860  0.0877  0.0751
 3151DPPE   NH359665  10.186  19.197  13.332 -0.0687  0.1114 -0.0739
 3151DPPE   PO459666  10.400  19.526  12.985 -0.1050  0.0942 -0.2364
 3151DPPE   GL159667  10.671  19.783  13.254  0.1872  0.0684 -0.0583
 3151DPPE   GL259668  10.454  19.852  13.496 -0.0457 -0.0356  0.2159
 3151DPPE   C1A59669  10.940  19.878  13.589 -0.3921  0.0931 -0.3438
 3151DPPE   C2A59670  10.981  19.866  14.068 -0.2075  0.0617  0.5031
 3151DPPE   C3A59671  11.115  19.979  14.447 -0.2930 -0.1643  0.1196
 3151DPPE   C4A59672  11.087  20.076  14.910 -0.0373 -0.3527  0.3604
 3151DPPE   C1B59673  10.546  19.992  13.945  0.0836  0.2539  0.2006
 3151DPPE   C2B59674  10.263  19.965  14.431  0.1536  0.0437 -0.3071
 3151DPPE   C3B59675  10.153  19.661  14.821  0.1683 -0.2540 -0.4364
 3151DPPE   C4B59676  10.071  19.322  15.048 -0.0352  0.2602 -0.2469
 3152DPPE   NH359677  20.636  12.975  13.723 -0.1913  0.0993 -0.2295
 3152DPPE   PO459678  20.404  13.217  13.375  0.0202 -0.3273  0.1364
 3152DPPE   GL159679  20.201  13.282  13.784 -0.0420  0.3221  0.1517
 3152DPPE   GL259680  20.446  13.343  14.076  0.0906  0.0267 -0.3475
 3152DPPE   C1A59681  20.010  12.969  14.073 -0.4405  0.1232  0.2006
 3152DPPE   C2A59682  19.736  12.530  14.167 -0.1514 -0.1051  0.0304
 3152DPPE   C3A59683  19.399  12.352  13.930  0.0817  0.0960  0.4361
 3152DPPE   C4A59684  19.059  12.076  13.934  0.0941  0.3228 -0.0352
 3152DPPE   C1B59685  20.506  13.698  13.853  0.0928 -0.0536  0.0816
 3152DPPE   C2B59686  20.861  13.982  13.934 -0.4492 -0.0424  0.2012
 3152DPPE   C3B59687  20.753  14.288  14.328  0.3236 -0.1445  0.0290
 3152DPPE   C4B59688  20.917  14.617  14.533  0.1782  0.0123 -0.0439
 3153DPPE   NH359689  14.902  27.797  16.332 -0.0101  0.0920  0.0502
 3153DPPE   PO459690  14.612  27.728  16.531 -0.0401 -0.5319  0.1309
 3153DPPE   GL159691  14.543  27.318  16.493 -0.0909  0.1670 -0.0026
 3153DPPE   GL259692  14.426  27.147  16.099  0.2966 -0.1684  0.5145
 3153DPPE   C1A59693  14.402  26.973  16.714  0.0378  0.0036 -0.2902
 3153DPPE   C2A59694  14.159  26.820  16.947  0.0492  0.0813  0.1584
 3153DPPE   C3A59695  13.834  26.604  17.018  0.0427 -0.1156 -0.3024
 3153DPPE   C4A59696  13.292  26.513  16.977 -0.0542  0.3508  0.2309
 3153DPPE   C1B59697  14.678  26.911  16.242 -0.0259  0.0803  0.1097
 3153DPPE   C2B59698  14.520  26.438  16.343  0.0478  0.2540 -0.0785
 3153DPPE   C3B59699  14.269  26.197  16.213 -0.0127 -0.2016  0.2181
 3153DPPE   C4B59700  14.416  26.044  15.877  0.3580  0.0070  0.1866
 3154DPPE   NH359701  15.428  10.315  12.926 -0.0607  0.0182  0.1579
 3154DPPE   PO459702  15.339   9.902  13.271  0.3924 -0.1566  0.0078
 3154DPPE   GL159703  15.503  10.056  13.654  0.0566 -0.0489  0.1409
 3154DPPE   GL259704  15.832  10.028  13.666 -0.2772  0.3386 -0.0216
 3154DPPE   C1A59705  15.466  10.242  14.093  0.2242  0.0190  0.0319
 3154DPPE   C2A59706  15.349  10.418  14.496  0.3814  0.0220  0.0921
 3154DPPE   C3A59707  15.033  10.507  14.714 -0.0641 -0.0220 -0.3894
 3154DPPE   C4A59708  14.768  10.902  14.796  0.0185 -0.3017 -0.0730
 3154DPPE   C1B59709  15.856  10.451  13.937 -0.0209  0.0888 -0.0484
 3154DPPE   C2B59710  15.956  10.765  14.245  0.2624 -0.2136  0.1351
 3154DPPE   C3B59711  15.570  10.843  14.698  0.3434 -0.2065 -0.1988
 3154DPPE   C4B59712  15.198  11.147  14.779 -0.2425 -0.1395  0.2028
 3155DPPE   NH359713  17.512  18.387  12.762 -0.1104 -0.2233  0.0613
 3155DPPE   PO459714  17.235  18.801  12.683  0.2271 -0.1884 -0.0943
 3155DPPE   GL159715  17.343  18.867  13.059 -0.3603  0.2767 -0.0271
 3155DPPE   GL259716  17.603  19.121  13.135  0.2275  0.3391 -0.0763
 3155DPPE   C1A59717  17.290  19.008  13.490 -0.3390  0.0070  0.0593
 3155DPPE   C2A59718  16.995  19.222  13.807  0.2652  0.0817  0.2773
 3155DPPE   C3A59719  16.694  19.354  14.131 -0.1994  0.0888  0.0111
 3155DPPE   C4A59720  16.296  19.294  14.386  0.3310  0.1121 -0.1788
 3155DPPE   C1B59721  17.716  19.261  13.459 -0.0113 -0.0641  0.0751
 3155DPPE   C2B59722  17.423  19.465  13.734 -0.3366 -0.2162  0.1639
 3155DPPE   C3B59723  17.222  19.565  14.063  0.4794 -0.0357  0.1048
 3155DPPE   C4B59724  16.955  19.634  14.463  0.0968 -0.0288 -0.0760
 3156DPPE   NH359725   4.186  22.623  17.805  0.1513 -0.1897 -0.1679
 3156DPPE   PO459726   3.924  22.298  17.867 -0.0585  0.2625  0.0193
 3156DPPE   GL159727   4.306  22.016  17.817  0.0425 -0.2378  0.1351
 3156DPPE   GL259728   4.513  22.231  17.865  0.2814 -0.0081 -0.1167
 3156DPPE   C1A59729   4.494  21.733  17.560  0.2096  0.0666 -0.3554
 3156DPPE   C2A59730   4.605  21.475  17.203 -0.0928  0.1130 -0.2641
 3156DPPE   C3A59731   4.884  21.646  16.913  0.0035  0.1887 -0.0613
 3156DPPE   C4A59732   4.849  21.934  16.520 -0.0712  0.0744  0.1471
 3156DPPE   C1B59733   4.706  22.182  17.539 -0.4008  0.0666  0.2980
 3156DPPE   C2B59734   4.887  21.967  17.300 -0.1073 -0.0181  0.2087
 3156DPPE   C3B59735   5.354  21.796  17.255 -0.0037 -0.0003  0.1672
 3156DPPE   C4B59736   5.725  21.584  17.203  0.0749  0.0855  0.0616
 3157DPPE   NH359737  11.857  17.929  12.631 -0.0433  0.2356  0.1671
 3157DPPE   PO459738  11.470  18.199  12.775 -0.0789 -0.1652  0.0168
 3157DPPE   GL159739  11.743  18.258  13.067 -0.0617 -0.3749 -0.0017
 3157DPPE   GL259740  11.571  18.491  13.363  0.2679 -0.4126  0.0143
 3157DPPE   C1A59741  11.924  18.105  13.488 -0.0252 -0.2657 -0.2844
 3157DPPE   C2A59742  12.142  18.189  13.854 -0.0442 -0.0419  0.1178
 3157DPPE   C3A59743  12.363  18.125  14.218 -0.3650  0.1847  0.1014
 3157DPPE   C4A59744  12.598  17.944  14.525  0.1589  0.0041 -0.0199
 3157DPPE   C1B59745  11.810  18.497  13.737  0.4551 -0.1938 -0.1395
 3157DPPE   C2B59746  11.964  18.618  14.111  0.2178  0.0396 -0.4326
 3157DPPE   C3B59747  12.132  18.446  14.519 -0.1739  0.1806  0.1079
 3157DPPE   C4B59748  12.570  18.399  14.657 -0.0407  0.3321 -0.2994
 3158DPPE   NH359749  22.622  17.147  15.035  0.1774 -0.0092  0.1418
 3158DPPE   PO459750  22.785  17.589  15.176 -0.0107  0.1583  0.2261
 3158DPPE   GL159751  22.681  17.406  15.576  0.1402  0.2861 -0.0431
 3158DPPE   GL259752  22.783  17.533  15.934 -0.1484  0.0922 -0.3101
 3158DPPE   C1A59753  22.368  17.060  15.631  0.1624 -0.1329 -0.0540
 3158DPPE   C2A59754  22.174  17.059  16.119  0.4048 -0.1221  0.0365
 3158DPPE   C3A59755  22.312  17.020  16.586 -0.4384 -0.4225  0.2108
 3158DPPE   C4A59756  22.490  16.765  16.878 -0.1936 -0.2497  0.1232
 3158DPPE   C1B59757  22.572  17.652  16.439  0.1656  0.1026  0.0091
 3158DPPE   C2B59758  22.308  17.993  16.596  0.0084 -0.2639 -0.0452
 3158DPPE   C3B59759  22.419  18.353  16.916  0.0995 -0.0181  0.2347
 3158DPPE   C4B59760  22.474  18.566  17.166 -0.0915 -0.1850 -0.2531
 3159DPPE   NH359761  11.256  27.940  17.221 -0.1356 -0.3602 -0.1096
 3159DPPE   PO459762  11.166  27.738  16.823 -0.1155  0.0743  0.0743
 3159DPPE   GL159763  11.319  27.379  16.805 -0.2483 -0.0952  0.2479
 3159DPPE   GL259764  11.020  27.212  16.833 -0.2735 -0.0896 -0.3189
 3159DPPE   C1A59765  11.645  27.091  16.880  0.0759 -0.1084  0.1689
 3159DPPE   C2A59766  11.907  26.785  16.829  0.1856  0.0353  0.0617
 3159DPPE   C3A59767  12.051  26.460  17.253 -0.1064  0.1188 -0.0906
 3159DPPE   C4A59768  11.952  26.018  17.295 -0.4044  0.0413 -0.0034
 3159DPPE   C1B59769  10.933  27.356  17.252  0.1847  0.2651  0.2170
 3159DPPE   C2B59770  10.850  27.333  17.668 -0.3683  0.2261 -0.2089
 3159DPPE   C3B59771  11.078  27.342  18.055 -0.1097 -0.1096  0.0534
 3159DPPE   C4B59772  11.474  27.357  18.322 -0.1161 -0.0183 -0.1839
 3160DPPE   NH359773  16.799  10.251  13.638  0.1671 -0.4401 -0.0760
 3160DPPE   PO459774  16.584  10.434  13.290 -0.0181 -0.2280  0.1764
 3160DPPE   GL159775  16.282  10.463  13.656  0.0631 -0.2147  0.0492
 3160DPPE   GL259776  16.189  10.813  13.685 -0.1814 -0.3526  0.2985
 3160DPPE   C1A59777  16.313  10.396  14.082  0.0833 -0.1676  0.2798
 3160DPPE   C2A59778  16.563  10.409  14.383  0.1448  0.0925  0.1254
 3160DPPE   C3A59779  16.866  10.386  14.597 -0.3306  0.0152  0.0054
 3160DPPE   C4A59780  17.057  10.650  14.975  0.0472 -0.3106  0.1982
 3160DPPE   C1B59781  16.216  11.112  14.009  0.0613  0.2416 -0.0331
 3160DPPE   C2B59782  16.198  11.168  14.497  0.2321 -0.0803  0.0952
 3160DPPE   C3B59783  16.378  11.550  14.399 -0.1396  0.0393 -0.2948
 3160DPPE   C4B59784  16.561  11.857  14.677 -0.0234  0.0160  0.1935
 3161DPPE   NH359785  20.951  18.065  13.450  0.1364 -0.2171  0.2362
 3161DPPE   PO459786  20.938  18.516  13.450  0.4245  0.0762  0.0992
 3161DPPE   GL159787  20.559  18.391  13.545  0.0072 -0.2143  0.2851
 3161DPPE   GL259788  20.577  18.168  13.757  0.0484  0.2539 -0.0341
 3161DPPE   C1A59789  20.097  18.319  13.564  0.1324  0.0446  0.0113
 3161DPPE   C2A59790  19.924  18.222  13.899 -0.1708  0.0459 -0.1378
 3161DPPE   C3A59791  19.436  18.053  14.176 -0.2532 -0.0381  0.0655
 3161DPPE   C4A59792  19.194  17.668  14.369 -0.0520 -0.1097 -0.1503
 3161DPPE   C1B59793  20.361  18.282  14.090 -0.1555 -0.2716 -0.0835
 3161DPPE   C2B59794  20.554  18.533  14.490  0.0544 -0.0947  0.0598
 3161DPPE   C3B59795  20.699  18.885  14.652 -0.1754  0.1081  0.3710
 3161DPPE   C4B59796  20.671  19.249  14.791  0.0893 -0.4751  0.2208
 3162DPPE   NH359797   9.632  14.324  13.441  0.3231  0.3965 -0.1434
 3162DPPE   PO459798   9.494  14.106  13.718 -0.2532 -0.0957  0.0628
 3162DPPE   GL159799   9.818  14.132  13.899  0.0804  0.2366  0.0547
 3162DPPE   GL259800   9.702  14.045  14.242 -0.0831  0.0304 -0.0234
 3162DPPE   C1A59801  10.169  14.219  14.096  0.1238 -0.3739  0.1080
 3162DPPE   C2A59802  10.298  14.231  14.411 -0.0414 -0.0285  0.1593
 3162DPPE   C3A59803  10.453  13.954  14.765  0.0633  0.1692  0.1662
 3162DPPE   C4A59804  10.360  14.013  15.144  0.3452 -0.0959  0.1391
 3162DPPE   C1B59805   9.834  14.385  14.506  0.2657 -0.0573  0.1108
 3162DPPE   C2B59806  10.170  14.538  14.791 -0.0913 -0.1675 -0.0281
 3162DPPE   C3B59807  10.643  14.400  14.735  0.1217 -0.0548  0.0032
 3162DPPE   C4B59808  11.014  14.334  15.012 -0.0397 -0.1664 -0.3257
 3163DPPE   NH359809   9.608   9.190  14.579  0.0892 -0.2757 -0.1368
 3163DPPE   PO459810   9.289   9.389  14.351  0.2042 -0.0959 -0.1830
 3163DPPE   GL159811   9.350   9.554  14.866 -0.2061 -0.1514  0.0921
 3163DPPE   GL259812   9.324   9.345  15.053  0.1463 -0.0703 -0.2123
 3163DPPE   C1A59813   9.579   9.904  15.000 -0.0455 -0.0989  0.0689
 3163DPPE   C2A59814   9.860  10.123  15.200 -0.1665  0.0397  0.3675
 3163DPPE   C3A59815  10.296  10.053  15.384  0.3429 -0.1840 -0.0842
 3163DPPE   C4A59816  10.628  10.052  15.596 -0.4642 -0.1404  0.0716
 3163DPPE   C1B59817   9.331   9.176  15.414  0.2535  0.0027  0.1117
 3163DPPE   C2B59818   9.314   9.117  15.834 -0.1366 -0.0862  0.1795
 3163DPPE   C3B59819   9.116   8.887  16.243 -0.0495  0.2066 -0.0356
 3163DPPE   C4B59820   9.038   8.457  16.550  0.1766 -0.1759  0.2061
 3164DPPE   NH359821  11.220  20.516  12.597  0.3737 -0.0667  0.0793
 3164DPPE   PO459822  11.376  20.507  13.010  0.0199  0.0992 -0.4220
 3164DPPE   GL159823  11.103  20.455  13.388  0.1051  0.1139 -0.1494
 3164DPPE   GL259824  10.857  20.286  13.269  0.1887 -0.1039 -0.1153
 3164DPPE   C1A59825  11.128  20.338  13.818 -0.0586  0.0484  0.1504
 3164DPPE   C2A59826  11.064  20.366  14.147  0.0133 -0.1704  0.0702
 3164DPPE   C3A59827  11.153  20.470  14.614  0.0767  0.0193  0.1135
 3164DPPE   C4A59828  11.200  20.761  14.908 -0.1213  0.2962 -0.1963
 3164DPPE   C1B59829  10.670  20.316  13.586 -0.0179  0.2284 -0.4644
 3164DPPE   C2B59830  10.640  20.483  13.937 -0.3094  0.2940 -0.3145
 3164DPPE   C3B59831  10.591  20.332  14.388  0.2376  0.2679  0.0079
 3164DPPE   C4B59832  10.521  20.161  14.839  0.0912  0.0293 -0.2917
 3165DPPE   NH359833  11.939  15.344  12.710 -0.1892 -0.0525 -0.4071
 3165DPPE   PO459834  11.901  14.873  12.888 -0.1372 -0.0102  0.0437
 3165DPPE   GL159835  12.123  14.691  13.335 -0.0190 -0.0223  0.0840
 3165DPPE   GL259836  11.976  14.443  13.522  0.0115  0.2250 -0.3953
 3165DPPE   C1A59837  12.003  14.976  13.745  0.1891  0.1365  0.1135
 3165DPPE   C2A59838  11.795  15.194  14.047 -0.0825  0.1367  0.2317
 3165DPPE   C3A59839  11.753  15.530  14.352 -0.0128 -0.1138 -0.0522
 3165DPPE   C4A59840  11.744  15.655  14.778  0.0792  0.0855 -0.1166
 3165DPPE   C1B59841  11.595  14.276  13.632  0.2065 -0.1993 -0.0703
 3165DPPE   C2B59842  11.301  14.318  14.046  0.0184  0.1503  0.0864
 3165DPPE   C3B59843  11.633  14.246  14.344  0.0576 -0.3814  0.2177
 3165DPPE   C4B59844  11.495  14.253  14.805  0.1613 -0.1169  0.0367
 3166DPPE   NH359845   7.415  19.460  13.725  0.3198  0.1051  0.1833
 3166DPPE   PO459846   7.599  18.954  13.862 -0.1368 -0.1966 -0.1577
 3166DPPE   GL159847   7.593  18.723  14.326 -0.2325 -0.1676  0.3222
 3166DPPE   GL259848   7.890  18.770  14.326 -0.1054  0.4415 -0.0535
 3166DPPE   C1A59849   7.295  18.881  14.566  0.2339 -0.0976  0.0292
 3166DPPE   C2A59850   6.923  19.170  14.698  0.0486 -0.0474 -0.0700
 3166DPPE   C3A59851   6.660  19.313  14.415  0.0232  0.1470  0.0286
 3166DPPE   C4A59852   6.240  18.991  14.268  0.0262  0.0380 -0.1953
 3166DPPE   C1B59853   8.026  18.554  14.676 -0.0594  0.0316  0.0543
 3166DPPE   C2B59854   8.162  18.702  14.994 -0.1356 -0.0084  0.2670
 3166DPPE   C3B59855   8.490  18.944  15.260  0.1128 -0.3904  0.1284
 3166DPPE   C4B59856   8.629  19.197  15.625  0.0538 -0.0448 -0.0145
 3167DPPE   NH359857  11.258  22.898  13.733  0.1270  0.2264  0.1354
 3167DPPE   PO459858  11.702  23.004  13.703  0.1049  0.3021 -0.1745
 3167DPPE   GL159859  11.707  22.767  14.091 -0.3019  0.1580 -0.0035
 3167DPPE   GL259860  11.970  22.488  14.031 -0.0263  0.3133  0.0184
 3167DPPE   C1A59861  11.503  22.772  14.413  0.1199 -0.1800 -0.0156
 3167DPPE   C2A59862  11.408  23.013  14.748  0.0537  0.1408 -0.3548
 3167DPPE   C3A59863  11.209  23.317  14.873 -0.1673 -0.3237  0.0564
 3167DPPE   C4A59864  11.274  23.681  14.919  0.0921  0.1044 -0.2784
 3167DPPE   C1B59865  12.029  22.642  14.394 -0.3077 -0.0723  0.1219
 3167DPPE   C2B59866  11.933  22.818  14.827  0.0676 -0.1969  0.2036
 3167DPPE   C3B59867  11.880  23.237  15.042  0.0877  0.0883  0.1344
 3167DPPE   C4B59868  11.734  23.557  14.999 -0.2052 -0.2942 -0.1545
 3168DPPE   NH359869   8.159  23.045  14.117  0.0627 -0.1230 -0.0537
 3168DPPE   PO459870   8.469  22.811  14.210 -0.1148  0.1140  0.1574
 3168DPPE   GL159871   8.773  22.696  14.538  0.0073 -0.2433  0.0935
 3168DPPE   GL259872   9.046  22.813  14.529  0.0148 -0.0330 -0.0639
 3168DPPE   C1A59873   9.106  22.417  14.685  0.0485  0.5696 -0.1193
 3168DPPE   C2A59874   9.171  22.076  15.001  0.2045 -0.1498  0.2415
 3168DPPE   C3A59875   9.575  21.823  15.098  0.2344  0.4232 -0.1339
 3168DPPE   C4A59876   9.687  21.478  15.122  0.0971  0.1766 -0.0484
 3168DPPE   C1B59877   9.212  22.949  14.913 -0.0025  0.1383  0.1719
 3168DPPE   C2B59878   9.359  23.361  15.113  0.0018  0.2353 -0.1748
 3168DPPE   C3B59879   9.160  23.760  15.009  0.2014 -0.1323  0.0127
 3168DPPE   C4B59880   9.224  24.104  15.257  0.1881  0.2647 -0.0051
 3169DPPE   NH359881  15.602  14.278  12.716  0.0584  0.0567  0.2717
 3169DPPE   PO459882  15.854  13.945  12.727  0.0114  0.0702 -0.1567
 3169DPPE   GL159883  15.702  13.988  13.159  0.2850  0.2747 -0.2290
 3169DPPE   GL259884  15.472  14.261  13.242 -0.0196 -0.0694 -0.0939
 3169DPPE   C1A59885  15.536  13.862  13.588 -0.0817 -0.2501 -0.1879
 3169DPPE   C2A59886  15.368  14.003  13.941  0.0681 -0.0980  0.2113
 3169DPPE   C3A59887  15.376  13.963  14.293 -0.0048  0.0898  0.0698
 3169DPPE   C4A59888  15.097  14.096  14.475  0.1193  0.1411 -0.0117
 3169DPPE   C1B59889  15.221  14.267  13.588 -0.1485 -0.0681  0.0721
 3169DPPE   C2B59890  14.953  14.195  14.025 -0.2381  0.2786  0.0302
 3169DPPE   C3B59891  14.766  14.409  14.304 -0.3084 -0.0920 -0.1526
 3169DPPE   C4B59892  14.319  14.367  14.378 -0.2546  0.0183 -0.4183
 3170DPPE   NH359893  13.576   6.939  15.587  0.2258  0.0493  0.0922
 3170DPPE   PO459894  13.323   6.641  15.836  0.1686 -0.0495  0.3174
 3170DPPE   GL159895  13.137   7.008  15.986 -0.4311  0.1953  0.0493
 3170DPPE   GL259896  13.296   7.308  15.817  0.3388 -0.1192  0.1273
 3170DPPE   C1A59897  13.293   7.266  16.342  0.3244 -0.1498  0.2548
 3170DPPE   C2A59898  13.318   7.483  16.696 -0.0758 -0.2254 -0.1576
 3170DPPE   C3A59899  13.254   7.557  17.099 -0.1893 -0.1087  0.0822
 3170DPPE   C4A59900  13.494   7.761  17.338  0.1946  0.4988 -0.0232
 3170DPPE   C1B59901  13.164   7.714  15.844  0.1405  0.1806 -0.0633
 3170DPPE   C2B59902  13.246   8.098  15.856 -0.1342 -0.0290  0.0384
 3170DPPE   C3B59903  13.436   8.417  15.601  0.0165  0.2166 -0.0164
 3170DPPE   C4B59904  13.581   8.777  15.427  0.1028  0.0315  0.2156
 3171DPPE   NH359905  11.990  16.978  12.687  0.1521 -0.1298 -0.0122
 3171DPPE   PO459906  11.632  16.689  12.734  0.1993  0.0039  0.0156
 3171DPPE   GL159907  11.857  16.656  13.073  0.1087  0.1407 -0.0229
 3171DPPE   GL259908  12.123  16.737  13.191 -0.0395 -0.0149 -0.2204
 3171DPPE   C1A59909  11.694  16.579  13.445  0.1069  0.1346  0.1331
 3171DPPE   C2A59910  11.745  16.585  13.957 -0.1762  0.2064 -0.1057
 3171DPPE   C3A59911  11.805  16.584  14.444 -0.0304  0.1826 -0.0070
 3171DPPE   C4A59912  11.850  16.521  14.833  0.1411 -0.1001 -0.0404
 3171DPPE   C1B59913  12.159  16.707  13.668  0.4504 -0.1943  0.0591
 3171DPPE   C2B59914  12.375  16.747  13.992 -0.0809 -0.0938 -0.1050
 3171DPPE   C3B59915  12.680  16.534  14.192  0.0197 -0.4254  0.1841
 3171DPPE   C4B59916  12.824  16.658  14.549  0.1108  0.1895  0.0184
 3172DPPE   NH359917   8.480   7.249  17.381  0.1191  0.0694  0.0625
 3172DPPE   PO459918   8.107   7.391  17.751  0.0935 -0.1070  0.0276
 3172DPPE   GL159919   8.392   7.645  18.015 -0.1813  0.3030  0.0447
 3172DPPE   GL259920   8.572   7.474  18.075  0.0701  0.0478 -0.1853
 3172DPPE   C1A59921   8.623   8.083  18.014 -0.0412  0.3412 -0.0166
 3172DPPE   C2A59922   9.067   8.245  18.243  0.0694  0.1878 -0.1615
 3172DPPE   C3A59923   9.367   8.499  18.284 -0.1115  0.1600 -0.0451
 3172DPPE   C4A59924   9.674   8.859  18.308 -0.0116  0.2838  0.0030
 3172DPPE   C1B59925   8.965   7.693  18.200  0.2684  0.0285  0.0525
 3172DPPE   C2B59926   9.200   7.716  18.540  0.1320  0.3745  0.1754
 3172DPPE   C3B59927   9.332   8.155  18.732  0.1159 -0.2898  0.2449
 3172DPPE   C4B59928   9.290   8.627  18.800  0.1057 -0.1284 -0.1584
 3173DPPE   NH359929  14.760  21.981  12.918 -0.4261  0.0516  0.1691
 3173DPPE   PO459930  14.307  21.775  12.985 -0.1904 -0.0386  0.0120
 3173DPPE   GL159931  14.417  21.982  13.340  0.2791 -0.1361 -0.0204
 3173DPPE   GL259932  14.567  22.273  13.358 -0.2442 -0.2724 -0.0701
 3173DPPE   C1A59933  14.240  21.949  13.760 -0.2274  0.2545  0.0020
 3173DPPE   C2A59934  14.016  21.912  14.262  0.0287  0.1564 -0.1719
 3173DPPE   C3A59935  13.690  22.052  14.574 -0.2094  0.3056 -0.0661
 3173DPPE   C4A59936  13.400  22.338  14.572  0.0744 -0.0002  0.0431
 3173DPPE   C1B59937  14.757  22.104  13.666 -0.1091  0.0633 -0.0569
 3173DPPE   C2B59938  14.608  22.104  14.130 -0.2135 -0.1327  0.3119
 3173DPPE   C3B59939  14.665  22.249  14.540  0.5038  0.2103  0.2383
 3173DPPE   C4B59940  14.797  22.605  14.755  0.2461 -0.0981 -0.0720
 3174DPPE   NH359941  20.500  19.691  13.120 -0.1584 -0.2919  0.0932
 3174DPPE   PO459942  19.942  19.681  13.227  0.2395 -0.0561  0.2033
 3174DPPE   GL159943  19.762  19.411  13.645 -0.1316  0.2756  0.2037
 3174DPPE   GL259944  19.718  19.668  13.912  0.0524  0.1296 -0.2107
 3174DPPE   C1A59945  19.382  19.283  13.805  0.0176  0.2887  0.3153
 3174DPPE   C2A59946  18.997  19.422  13.857 -0.4048  0.4226 -0.3129
 3174DPPE   C3A59947  18.731  19.688  13.688 -0.2489  0.1854 -0.0546
 3174DPPE   C4A59948  18.558  20.087  13.753 -0.0811  0.0685 -0.1549
 3174DPPE   C1B59949  19.422  19.598  14.244  0.5577 -0.0283  0.1652
 3174DPPE   C2B59950  19.291  19.634  14.676  0.1402 -0.2502 -0.0612
 3174DPPE   C3B59951  19.589  19.621  15.064 -0.2593  0.1146 -0.1249
 3174DPPE   C4B59952  19.607  19.459  15.458  0.0895 -0.2109 -0.2569
 3175DPPE   NH359953  12.888  13.392  12.690 -0.0694 -0.0411 -0.1778
 3175DPPE   PO459954  12.459  13.231  12.631  0.4458  0.2754  0.1306
 3175DPPE   GL159955  12.645  13.093  13.021 -0.0320  0.1392 -0.0637
 3175DPPE   GL259956  12.627  13.353  13.226  0.2233  0.0745 -0.0872
 3175DPPE   C1A59957  12.768  12.988  13.483 -0.1354  0.0556  0.0937
 3175DPPE   C2A59958  12.693  13.105  13.908 -0.3254 -0.2812 -0.2250
 3175DPPE   C3A59959  12.821  13.133  14.382  0.0023  0.0062  0.0649
 3175DPPE   C4A59960  12.883  12.860  14.684  0.0813 -0.1779  0.1768
 3175DPPE   C1B59961  12.463  13.459  13.600 -0.4161 -0.4639 -0.2831
 3175DPPE   C2B59962  12.600  13.734  13.940 -0.0266 -0.2158  0.2025
 3175DPPE   C3B59963  12.585  13.798  14.373 -0.5146 -0.0959 -0.0809
 3175DPPE   C4B59964  12.449  14.091  14.795 -0.0727  0.3670  0.0067
 3176DPPE   NH359965  19.384  23.281  14.427 -0.0617 -0.0920 -0.2126
 3176DPPE   PO459966  19.642  23.626  14.642  0.2066 -0.1802 -0.0265
 3176DPPE   GL159967  19.217  23.703  14.710  0.1818  0.0932 -0.3153
 3176DPPE   GL259968  19.064  24.029  14.759  0.0337 -0.4215 -0.0450
 3176DPPE   C1A59969  18.826  23.511  14.638 -0.3266  0.4138 -0.0618
 3176DPPE   C2A59970  18.601  23.289  14.926  0.1278 -0.1149  0.2036
 3176DPPE   C3A59971  18.690  22.911  15.136  0.0155 -0.0374  0.1687
 3176DPPE   C4A59972  19.017  22.865  15.529  0.0492 -0.1492 -0.2514
 3176DPPE   C1B59973  19.233  23.989  15.147  0.2297  0.0197  0.0468
 3176DPPE   C2B59974  19.110  23.740  15.523 -0.1519 -0.1445 -0.0399
 3176DPPE   C3B59975  19.010  23.368  15.336  0.0523 -0.0423 -0.2356
 3176DPPE   C4B59976  19.110  23.289  14.996 -0.0582  0.1521 -0.0209
 3177DPPE   NH359977  15.882  16.999  11.920 -0.2222  0.1365 -0.2320
 3177DPPE   PO459978  15.677  17.287  12.141 -0.2855  0.2864  0.1468
 3177DPPE   GL159979  15.600  17.328  12.587  0.1519  0.1437  0.1092
 3177DPPE   GL259980  15.633  17.637  12.603  0.1263 -0.1056  0.0144
 3177DPPE   C1A59981  15.645  17.275  13.106  0.1562  0.1431 -0.4034
 3177DPPE   C2A59982  15.731  17.525  13.470 -0.0040  0.1832 -0.0993
 3177DPPE   C3A59983  15.746  17.530  14.004  0.1112  0.3126  0.1184
 3177DPPE   C4A59984  15.590  17.436  14.410  0.1927 -0.3385 -0.0334
 3177DPPE   C1B59985  15.581  17.736  12.981 -0.3800 -0.1134 -0.3424
 3177DPPE   C2B59986  15.528  17.969  13.353 -0.1709  0.2538 -0.1815
 3177DPPE   C3B59987  15.413  17.838  13.733  0.1297  0.3147  0.1883
 3177DPPE   C4B59988  15.335  17.800  14.205 -0.1374 -0.2173 -0.0544
 3178DPPE   NH359989  10.831  12.817  12.743 -0.0378  0.1653  0.1215
 3178DPPE   PO459990  10.790  12.791  13.167 -0.1143 -0.1883 -0.1701
 3178DPPE   GL159991  10.798  12.477  13.511  0.0130 -0.0237  0.1627
 3178DPPE   GL259992  11.162  12.552  13.384 -0.1063  0.1107  0.4736
 3178DPPE   C1A59993  10.927  12.330  13.798 -0.1876  0.0178 -0.0029
 3178DPPE   C2A59994  10.910  12.427  14.141 -0.0901 -0.1656 -0.1920
 3178DPPE   C3A59995  11.046  12.437  14.523  0.1386 -0.2110  0.2253
 3178DPPE   C4A59996  11.256  12.292  14.916  0.2436 -0.2817  0.0637
 3178DPPE   C1B59997  11.217  12.744  13.754 -0.1206  0.0846  0.1200
 3178DPPE   C2B59998  11.434  12.695  14.173 -0.1339  0.1509  0.0112
 3178DPPE   C3B59999  11.609  12.464  14.605 -0.4250 -0.0856  0.2824
 3178DPPE   C4B60000  11.698  12.652  14.926  0.0174  0.1205 -0.0790
 3179DPPE   NH360001   6.964  21.887  13.924  0.1341  0.2076  0.0561
 3179DPPE   PO460002   6.837  21.934  14.329 -0.2116  0.3065 -0.2383
 3179DPPE   GL160003   6.828  22.193  14.604 -0.0545 -0.1393  0.1084
 3179DPPE   GL260004   7.163  22.364  14.623  0.1528  0.2316 -0.0852
 3179DPPE   C1A60005   6.812  22.219  15.093  0.3545 -0.0306 -0.0267
 3179DPPE   C2A60006   7.185  22.280  15.439  0.0828  0.1934 -0.0540
 3179DPPE   C3A60007   7.488  22.387  15.730 -0.2443 -0.1332 -0.2311
 3179DPPE   C4A60008   7.593  22.526  16.215 -0.0296  0.1504  0.1658
 3179DPPE   C1B60009   7.328  22.103  15.017 -0.1949 -0.1693  0.2641
 3179DPPE   C2B60010   7.449  21.883  15.417  0.0700 -0.1661  0.2963
 3179DPPE   C3B60011   7.529  21.651  15.736 -0.1453  0.2257 -0.0934
 3179DPPE   C4B60012   7.674  21.327  15.965 -0.1117  0.0606 -0.2052
 3180DPPE   NH360013  21.378   9.909  16.637 -0.2228 -0.1063  0.1938
 3180DPPE   PO460014  21.425   9.916  17.083  0.0205 -0.1193 -0.1489
 3180DPPE   GL160015  21.292  10.212  17.036 -0.1507 -0.0124 -0.0101
 3180DPPE   GL260016  21.078  10.375  17.298 -0.3252  0.2308  0.1597
 3180DPPE   C1A60017  21.220  10.662  16.915 -0.0728 -0.0373 -0.1597
 3180DPPE   C2A60018  21.097  10.901  16.614 -0.0663 -0.0485  0.1612
 3180DPPE   C3A60019  20.770  11.117  16.405 -0.3642  0.0784 -0.1026
 3180DPPE   C4A60020  20.490  10.920  16.212 -0.0825  0.2772 -0.0349
 3180DPPE   C1B60021  20.832  10.668  17.622  0.2382  0.0545 -0.0708
 3180DPPE   C2B60022  20.894  10.763  18.037  0.1292  0.3194  0.0332
 3180DPPE   C3B60023  20.718  10.388  18.130  0.1152  0.0174 -0.1058
 3180DPPE   C4B60024  20.429  10.140  18.043 -0.1675  0.0103  0.2308
 3181DPPE   NH360025   8.394  16.466  13.827  0.1678  0.0324 -0.5429
 3181DPPE   PO460026   7.924  16.411  13.917 -0.0584 -0.2481 -0.4463
 3181DPPE   GL160027   8.110  16.549  14.290 -0.0224  0.1111 -0.3653
 3181DPPE   GL260028   8.226  16.180  14.303  0.0336  0.0519 -0.1582
 3181DPPE   C1A60029   8.260  16.580  14.710  0.1312 -0.1231 -0.1728
 3181DPPE   C2A60030   8.098  16.735  15.124  0.0324  0.1659 -0.2270
 3181DPPE   C3A60031   8.184  16.555  15.549 -0.3753 -0.1486 -0.0033
 3181DPPE   C4A60032   8.062  16.598  16.045  0.1586 -0.0042 -0.0855
 3181DPPE   C1B60033   7.919  16.152  14.631  0.0569 -0.2361 -0.2762
 3181DPPE   C2B60034   7.535  16.108  14.701  0.0338 -0.2323  0.0245
 3181DPPE   C3B60035   7.211  15.689  14.714  0.0635 -0.1186  0.0233
 3181DPPE   C4B60036   6.868  15.418  14.794  0.0603  0.2570 -0.3505
 3182DPPE   NH360037  18.270  26.557  14.566 -0.2467 -0.0312  0.3072
 3182DPPE   PO460038  18.008  26.322  14.791 -0.0208  0.0568  0.0108
 3182DPPE   GL160039  18.026  25.991  15.033  0.1158 -0.1974 -0.1669
 3182DPPE   GL260040  18.202  26.194  15.339 -0.0980  0.1252  0.1811
 3182DPPE   C1A60041  17.934  25.685  15.311 -0.2176 -0.0440 -0.4384
 3182DPPE   C2A60042  17.674  25.703  15.682 -0.3406  0.0933 -0.0248
 3182DPPE   C3A60043  17.484  25.357  15.933  0.2840  0.3549 -0.0094
 3182DPPE   C4A60044  17.625  24.904  15.947  0.1752  0.1688 -0.1074
 3182DPPE   C1B60045  17.975  26.104  15.706  0.2246  0.0563  0.1246
 3182DPPE   C2B60046  18.046  25.891  16.053 -0.0500  0.3175 -0.1398
 3182DPPE   C3B60047  18.204  25.706  16.435 -0.1594  0.1363 -0.1019
 3182DPPE   C4B60048  18.288  25.270  16.766 -0.1467 -0.0273 -0.0754
 3183DPPE   NH360049  20.976   9.837  17.260 -0.1287 -0.1369 -0.3020
 3183DPPE   PO460050  21.020   9.652  16.848  0.1108 -0.0856  0.2780
 3183DPPE   GL160051  20.810  10.000  16.836 -0.3662  0.2636 -0.3498
 3183DPPE   GL260052  20.694  10.103  16.547  0.1690 -0.1505  0.0404
 3183DPPE   C1A60053  20.588  10.296  17.059  0.0163 -0.2102  0.0947
 3183DPPE   C2A60054  20.459  10.738  17.259  0.0153 -0.0263  0.3187
 3183DPPE   C3A60055  20.559  11.033  17.545  0.0051  0.0384 -0.2956
 3183DPPE   C4A60056  20.581  11.488  17.493 -0.0191  0.1238 -0.0052
 3183DPPE   C1B60057  20.294  10.227  16.609  0.1857  0.0343  0.0456
 3183DPPE   C2B60058  20.152  10.537  16.866  0.2244  0.0343 -0.1758
 3183DPPE   C3B60059  19.983  10.871  17.076 -0.2300  0.3419  0.0445
 3183DPPE   C4B60060  19.709  10.906  17.379  0.2787  0.2425  0.1498
 3184DPPE   NH360061   9.620  16.595  13.396  0.3716  0.1840 -0.0272
 3184DPPE   PO460062   9.349  16.372  13.650  0.0679  0.3156 -0.2263
 3184DPPE   GL160063   9.455  16.702  13.906  0.0047  0.1241  0.0785
 3184DPPE   GL260064   9.656  16.513  14.211 -0.0318 -0.2708 -0.2243
 3184DPPE   C1A60065   9.527  17.094  14.077  0.0305 -0.1433 -0.2294
 3184DPPE   C2A60066   9.345  17.443  14.312 -0.1371  0.0845 -0.1145
 3184DPPE   C3A60067   9.572  17.686  14.698 -0.0836 -0.1476  0.1525
 3184DPPE   C4A60068   9.416  18.082  14.879 -0.1406  0.4029 -0.0040
 3184DPPE   C1B60069   9.653  16.831  14.510 -0.1043 -0.0026  0.0532
 3184DPPE   C2B60070   9.779  17.083  14.697  0.0233  0.0192 -0.0067
 3184DPPE   C3B60071   9.467  17.226  15.042 -0.0211 -0.0717 -0.1952
 3184DPPE   C4B60072   9.311  17.057  15.422  0.0359  0.1986 -0.0955
 3185DPPE   NH360073  15.284  26.319  13.764  0.0449  0.2198 -0.0309
 3185DPPE   PO460074  15.543  26.427  14.194  0.1466  0.0442 -0.0191
 3185DPPE   GL160075  15.525  26.201  14.508  0.1424 -0.2629 -0.1102
 3185DPPE   GL260076  15.717  26.037  14.780  0.2373 -0.2563 -0.1441
 3185DPPE   C1A60077  15.383  25.781  14.541 -0.2352  0.1334 -0.1117
 3185DPPE   C2A60078  15.126  25.531  14.852 -0.1214 -0.0109 -0.2004
 3185DPPE   C3A60079  15.066  25.197  15.192 -0.1801 -0.1402 -0.0857
 3185DPPE   C4A60080  15.005  25.006  15.525 -0.0413 -0.0276 -0.1408
 3185DPPE   C1B60081  15.256  26.058  14.963  0.1603 -0.0376  0.1644
 3185DPPE   C2B60082  15.108  26.233  15.296  0.0172 -0.2164  0.2096
 3185DPPE   C3B60083  14.900  26.334  15.558 -0.0483  0.1865 -0.1591
 3185DPPE   C4B60084  14.495  26.354  15.502 -0.2094 -0.0427  0.0998
 3186DPPE   NH360085  16.881  26.227  14.295  0.1570  0.2881  0.0169
 3186DPPE   PO460086  16.404  25.989  14.327 -0.0709 -0.1113 -0.2164
 3186DPPE   GL160087  16.158  25.795  14.760 -0.1341 -0.2110 -0.2270
 3186DPPE   GL260088  16.286  25.985  15.025 -0.4381  0.1373  0.2690
 3186DPPE   C1A60089  15.736  25.569  14.928  0.0495 -0.2324 -0.1174
 3186DPPE   C2A60090  15.471  25.602  15.225 -0.1444 -0.2667  0.0902
 3186DPPE   C3A60091  15.011  25.676  15.314  0.1712  0.0317 -0.0466
 3186DPPE   C4A60092  14.638  25.771  15.138 -0.0118  0.3041  0.0300
 3186DPPE   C1B60093  16.009  25.820  15.249  0.2423 -0.1730 -0.4311
 3186DPPE   C2B60094  15.971  25.395  15.314  0.2304  0.1902 -0.0007
 3186DPPE   C3B60095  15.903  25.068  15.731 -0.0703  0.0591 -0.0563
 3186DPPE   C4B60096  15.946  25.189  16.246  0.2984 -0.1516  0.1022
 3187DPPE   NH360097   9.800  11.232  13.443  0.3625 -0.0701  0.1185
 3187DPPE   PO460098  10.235  11.430  13.216  0.0870 -0.2348 -0.0295
 3187DPPE   GL160099  10.202  11.589  13.691  0.3680 -0.1319  0.1036
 3187DPPE   GL260100  10.196  11.213  13.818 -0.1404 -0.3816 -0.0644
 3187DPPE   C1A60101  10.206  11.721  14.019 -0.1130 -0.0717 -0.1914
 3187DPPE   C2A60102  10.331  11.653  14.488 -0.0634  0.0866  0.0939
 3187DPPE   C3A60103  10.306  11.505  14.831 -0.0018 -0.0594 -0.1292
 3187DPPE   C4A60104  10.647  11.656  14.999 -0.0421 -0.1553  0.0589
 3187DPPE   C1B60105  10.294  11.198  14.214  0.1058 -0.0363  0.5291
 3187DPPE   C2B60106  10.495  11.075  14.530  0.1290  0.1632  0.1696
 3187DPPE   C3B60107  10.540  10.904  14.971  0.0634 -0.0976  0.1900
 3187DPPE   C4B60108  10.563  10.450  14.994  0.0036 -0.1679  0.0136
 3188DPPE   NH360109   9.760  15.808  13.140  0.0602  0.0489 -0.2640
 3188DPPE   PO460110  10.051  15.582  13.304  0.0615  0.1515  0.2847
 3188DPPE   GL160111  10.180  15.497  13.656 -0.2064  0.1554  0.0057
 3188DPPE   GL260112   9.987  15.152  13.838  0.1542  0.0003 -0.2830
 3188DPPE   C1A60113  10.112  15.718  14.042 -0.0814 -0.5529 -0.0288
 3188DPPE   C2A60114  10.101  15.693  14.462  0.2136 -0.1575  0.1753
 3188DPPE   C3A60115   9.987  15.760  14.885 -0.2169  0.4884  0.3329
 3188DPPE   C4A60116   9.943  15.609  15.349 -0.2911  0.3252 -0.1508
 3188DPPE   C1B60117  10.187  15.203  14.185 -0.0447  0.3313  0.0256
 3188DPPE   C2B60118  10.486  15.367  14.436  0.2261 -0.2639  0.1040
 3188DPPE   C3B60119  10.451  15.492  14.864 -0.0976  0.1825 -0.4724
 3188DPPE   C4B60120  10.476  15.872  15.092 -0.3166 -0.1483 -0.2536
 3189DPPE   NH360121  11.579  13.291  12.409  0.0318  0.0355  0.1205
 3189DPPE   PO460122  11.665  13.028  12.727 -0.0109  0.0937  0.0679
 3189DPPE   GL160123  11.596  13.028  13.183  0.0735 -0.1481 -0.0748
 3189DPPE   GL260124  11.712  12.690  13.361 -0.2561 -0.4503  0.0150
 3189DPPE   C1A60125  11.584  13.301  13.544  0.2974  0.2686 -0.0692
 3189DPPE   C2A60126  11.397  13.345  13.967 -0.2007  0.2494  0.0598
 3189DPPE   C3A60127  11.494  13.201  14.425 -0.1928  0.1982  0.1162
 3189DPPE   C4A60128  11.594  13.498  14.800 -0.1081  0.1419  0.4809
 3189DPPE   C1B60129  11.759  12.862  13.778 -0.1283 -0.1961  0.1122
 3189DPPE   C2B60130  11.864  12.910  14.125  0.1480 -0.3542 -0.2715
 3189DPPE   C3B60131  11.872  12.886  14.522  0.1179 -0.1770  0.0120
 3189DPPE   C4B60132  11.987  13.254  14.783 -0.1001  0.0323  0.1808
 3190DPPE   NH360133  18.601  14.040  12.814  0.0751 -0.3182 -0.1562
 3190DPPE   PO460134  18.978  14.398  13.041 -0.0458  0.2138  0.0092
 3190DPPE   GL160135  19.129  14.395  13.387  0.5632  0.1205 -0.0844
 3190DPPE   GL260136  19.271  14.090  13.516  0.2879  0.1579  0.1022
 3190DPPE   C1A60137  19.441  14.404  13.816 -0.0322 -0.0969  0.0966
 3190DPPE   C2A60138  19.784  14.750  13.813  0.1379  0.3762  0.1736
 3190DPPE   C3A60139  19.990  15.197  13.932 -0.0510 -0.1355  0.0020
 3190DPPE   C4A60140  20.126  15.339  14.312 -0.1466 -0.3330 -0.0853
 3190DPPE   C1B60141  18.986  13.840  13.831 -0.0157 -0.1552 -0.2544
 3190DPPE   C2B60142  18.739  13.928  14.113  0.2786 -0.0061  0.1664
 3190DPPE   C3B60143  18.593  13.966  14.479 -0.2886  0.4443  0.0045
 3190DPPE   C4B60144  18.586  14.265  14.868 -0.1158  0.3060  0.0668
 3191DPPE   NH360145  16.854  24.165  13.530  0.1286 -0.0972  0.0067
 3191DPPE   PO460146  17.014  23.896  13.354  0.1676 -0.0455  0.1015
 3191DPPE   GL160147  17.335  23.887  13.604 -0.0458 -0.0125 -0.2323
 3191DPPE   GL260148  17.372  23.571  13.632 -0.4664  0.1264  0.0564
 3191DPPE   C1A60149  17.671  23.812  14.020 -0.2620  0.0058 -0.0188
 3191DPPE   C2A60150  17.940  23.628  14.227 -0.0293  0.2197  0.0554
 3191DPPE   C3A60151  18.233  23.466  14.511 -0.0834 -0.0788 -0.1888
 3191DPPE   C4A60152  18.372  23.019  14.483 -0.3149 -0.0418 -0.1809
 3191DPPE   C1B60153  17.081  23.238  13.852  0.1696  0.0599 -0.1634
 3191DPPE   C2B60154  16.603  23.132  13.900 -0.1785  0.1465 -0.0420
 3191DPPE   C3B60155  16.116  23.144  13.806 -0.0515 -0.3411 -0.2923
 3191DPPE   C4B60156  15.713  22.899  13.650 -0.4070 -0.2902  0.5996
 3192DPPE   NH360157  16.321  18.529  12.553  0.2361  0.1719  0.0243
 3192DPPE   PO460158  16.668  18.703  12.389 -0.0729  0.2931  0.0895
 3192DPPE   GL160159  16.724  18.729  12.828 -0.3051  0.1806 -0.0456
 3192DPPE   GL260160  16.432  18.577  13.032  0.0882  0.0136  0.0270
 3192DPPE   C1A60161  16.810  19.007  13.166  0.0274 -0.2933  0.0593
 3192DPPE   C2A60162  16.849  18.893  13.500  0.0235 -0.1818 -0.4462
 3192DPPE   C3A60163  16.631  18.884  13.948  0.3771 -0.1444 -0.2503
 3192DPPE   C4A60164  16.609  18.792  14.439 -0.0014 -0.4471 -0.0275
 3192DPPE   C1B60165  16.327  18.740  13.400 -0.0160  0.2059 -0.1422
 3192DPPE   C2B60166  16.169  18.676  13.815 -0.2952  0.2889  0.0053
 3192DPPE   C3B60167  16.153  18.818  14.244  0.0006  0.2340 -0.0802
 3192DPPE   C4B60168  15.881  19.033  14.481 -0.0377 -0.1340 -0.0204
 3193DPPE   NH360169  12.974  10.690  12.889  0.1945 -0.0301  0.2405
 3193DPPE   PO460170  12.923  10.336  13.043  0.2654  0.2240 -0.2765
 3193DPPE   GL160171  13.013  10.503  13.428 -0.1166 -0.4060 -0.0790
 3193DPPE   GL260172  13.089  10.880  13.497  0.0829  0.1500 -0.1150
 3193DPPE   C1A60173  13.194  10.611  13.898 -0.0718  0.0351 -0.0880
 3193DPPE   C2A60174  13.583  10.791  14.063 -0.0122 -0.0758  0.1363
 3193DPPE   C3A60175  13.757  10.912  14.401 -0.0194  0.0458  0.4038
 3193DPPE   C4A60176  14.194  10.890  14.570 -0.0183 -0.2326  0.1278
 3193DPPE   C1B60177  12.942  11.288  13.556  0.1388 -0.0164 -0.1064
 3193DPPE   C2B60178  12.726  11.595  13.833  0.5887 -0.2334  0.1490
 3193DPPE   C3B60179  12.727  11.721  14.231  0.0677  0.1864 -0.1436
 3193DPPE   C4B60180  12.773  11.931  14.684  0.1365 -0.0360 -0.0116
 3194DPPE   NH360181  18.074   7.158  17.307 -0.5912  0.1445 -0.1560
 3194DPPE   PO460182  17.689   7.077  16.926  0.0489  0.1198 -0.1435
 3194DPPE   GL160183  17.418   7.253  17.089  0.3367 -0.2753 -0.1083
 3194DPPE   GL260184  17.572   7.230  17.411 -0.0948 -0.1287  0.1294
 3194DPPE   C1A60185  17.082   7.494  17.093 -0.0668  0.0554 -0.2255
 3194DPPE   C2A60186  16.818   7.820  17.142 -0.2058  0.1803  0.0057
 3194DPPE   C3A60187  16.625   8.166  16.961  0.2219  0.0450  0.1564
 3194DPPE   C4A60188  16.489   8.509  17.038  0.0137 -0.1438 -0.1087
 3194DPPE   C1B60189  17.583   7.631  17.297 -0.0351 -0.3777  0.0963
 3194DPPE   C2B60190  17.834   7.930  17.097  0.0805  0.1491  0.1312
 3194DPPE   C3B60191  17.896   8.285  17.189  0.0833 -0.2622 -0.3297
 3194DPPE   C4B60192  18.295   8.574  17.093  0.0963 -0.0430  0.0837
 3195DPPE   NH360193  11.178   9.159  13.547  0.1522 -0.1042  0.0709
 3195DPPE   PO460194  11.524   9.392  13.452 -0.0487 -0.2294 -0.4076
 3195DPPE   GL160195  11.501   9.362  13.860 -0.0861  0.0743  0.1217
 3195DPPE   GL260196  11.267   9.494  13.944 -0.0900  0.2551 -0.0052
 3195DPPE   C1A60197  11.576   9.355  14.296  0.1193  0.2216 -0.1970
 3195DPPE   C2A60198  11.468   9.546  14.615  0.1188 -0.4563 -0.0331
 3195DPPE   C3A60199  11.455   9.511  15.016  0.3302  0.5191 -0.0678
 3195DPPE   C4A60200  11.475   9.509  15.416  0.0821  0.2045  0.1391
 3195DPPE   C1B60201  11.375   9.882  14.178  0.1170 -0.0031 -0.0513
 3195DPPE   C2B60202  11.351  10.060  14.640  0.0251 -0.0955  0.1367
 3195DPPE   C3B60203  11.188   9.894  14.971  0.0583  0.0313 -0.0353
 3195DPPE   C4B60204  10.965   9.556  14.860  0.5706  0.3303  0.0821
 3196DPPE   NH360205  13.043  15.565  12.398 -0.0495  0.1574 -0.2414
 3196DPPE   PO460206  13.312  15.471  12.705 -0.2132 -0.0240  0.2925
 3196DPPE   GL160207  13.238  15.307  13.115 -0.1069  0.2409 -0.1732
 3196DPPE   GL260208  13.543  15.390  13.250 -0.0568  0.1596  0.1446
 3196DPPE   C1A60209  13.195  15.322  13.534 -0.0432  0.1375 -0.0797
 3196DPPE   C2A60210  13.319  15.405  13.912 -0.0504 -0.0487  0.3700
 3196DPPE   C3A60211  13.531  15.554  14.152 -0.0498 -0.0636 -0.0777
 3196DPPE   C4A60212  13.600  15.950  14.427  0.1748 -0.0767  0.2907
 3196DPPE   C1B60213  13.784  15.253  13.547 -0.2818 -0.1413 -0.1149
 3196DPPE   C2B60214  13.912  15.280  13.964 -0.1505  0.1443 -0.1543
 3196DPPE   C3B60215  13.832  15.197  14.309 -0.0147 -0.1864 -0.2208
 3196DPPE   C4B60216  13.511  14.993  14.608  0.1709 -0.0654  0.1212
 3197DPPE   NH360217  14.903  19.556  12.537 -0.2191 -0.1911  0.2704
 3197DPPE   PO460218  14.571  19.541  12.655  0.0929  0.0997  0.0967
 3197DPPE   GL160219  14.413  19.720  12.955  0.0617  0.1930 -0.1544
 3197DPPE   GL260220  14.691  19.742  13.165  0.1143  0.0118 -0.2458
 3197DPPE   C1A60221  14.184  19.921  13.269 -0.0670  0.0675  0.1119
 3197DPPE   C2A60222  14.241  19.993  13.768 -0.0147 -0.3123 -0.0139
 3197DPPE   C3A60223  14.340  19.957  14.111 -0.0477 -0.3647 -0.0606
 3197DPPE   C4A60224  14.105  20.050  14.509  0.0987 -0.1203  0.2323
 3197DPPE   C1B60225  14.673  20.042  13.445  0.4982 -0.0363  0.0658
 3197DPPE   C2B60226  14.774  19.978  13.866 -0.2032 -0.1237  0.0073
 3197DPPE   C3B60227  14.728  19.801  14.321 -0.0159  0.2762 -0.0454
 3197DPPE   C4B60228  14.535  19.528  14.465 -0.2063  0.0369  0.0160
 3198DPPE   NH360229   9.795  18.058  13.289  0.1153  0.2890  0.2353
 3198DPPE   PO460230   9.563  17.697  13.219 -0.3294  0.0447 -0.0632
 3198DPPE   GL160231   9.620  17.643  13.658 -0.0782  0.0517  0.0060
 3198DPPE   GL260232   9.260  17.790  13.717  0.1340  0.1627  0.2358
 3198DPPE   C1A60233   9.710  17.729  14.062  0.0614  0.1733 -0.0917
 3198DPPE   C2A60234  10.012  17.917  14.380  0.1470 -0.4065  0.0710
 3198DPPE   C3A60235   9.982  18.036  14.804 -0.1722 -0.1505  0.2362
 3198DPPE   C4A60236  10.284  17.920  15.002 -0.1475 -0.0506 -0.1147
 3198DPPE   C1B60237   9.133  17.944  14.191  0.2599  0.1311 -0.4141
 3198DPPE   C2B60238   9.088  17.760  14.706  0.0790  0.0936 -0.0235
 3198DPPE   C3B60239   9.059  17.488  15.098  0.0479 -0.2206  0.0525
 3198DPPE   C4B60240   8.746  17.384  15.386 -0.0649  0.0675  0.0309
 3199DPPE   NH360241  10.345  22.988  13.307 -0.2630  0.0897  0.0017
 3199DPPE   PO460242  10.771  22.877  13.402 -0.1078 -0.2354 -0.0634
 3199DPPE   GL160243  10.820  22.724  13.855 -0.0698  0.2473  0.1546
 3199DPPE   GL260244  10.573  22.572  14.059 -0.0645  0.2559  0.0247
 3199DPPE   C1A60245  10.994  22.959  14.270  0.4669 -0.2909  0.1163
 3199DPPE   C2A60246  10.934  23.440  14.445  0.0033  0.0311  0.2616
 3199DPPE   C3A60247  11.049  23.930  14.325  0.2194 -0.0078  0.0738
 3199DPPE   C4A60248  11.386  24.201  14.035 -0.1219 -0.0999 -0.2029
 3199DPPE   C1B60249  10.921  22.428  14.293  0.0395  0.0419  0.2772
 3199DPPE   C2B60250  11.143  22.275  14.581 -0.1553  0.2514 -0.0924
 3199DPPE   C3B60251  11.134  21.905  14.891 -0.0289  0.1881 -0.2348
 3199DPPE   C4B60252  11.418  21.830  15.148 -0.1643  0.2142 -0.0258
 3200DPPE   NH360253  14.924   8.171  13.766 -0.0910 -0.2341 -0.2898
 3200DPPE   PO460254  14.810   8.529  13.659  0.0012 -0.0089 -0.2500
 3200DPPE   GL160255  14.656   8.704  14.030 -0.0284  0.1467 -0.0026
 3200DPPE   GL260256  14.733   8.525  14.247 -0.2441  0.0038 -0.3128
 3200DPPE   C1A60257  14.894   8.960  14.369  0.4045  0.2581  0.1181
 3200DPPE   C2A60258  15.039   9.171  14.681  0.0518 -0.1097 -0.0557
 3200DPPE   C3A60259  14.992   9.580  14.900  0.0249 -0.2033 -0.1328
 3200DPPE   C4A60260  15.028   9.989  15.256  0.0588  0.0840 -0.1395
 3200DPPE   C1B60261  15.065   8.573  14.562  0.0217  0.0573  0.0891
 3200DPPE   C2B60262  15.423   8.580  14.732 -0.0833 -0.1962  0.0186
 3200DPPE   C3B60263  15.832   8.506  14.749  0.0814 -0.1755  0.2942
 3200DPPE   C4B60264  16.083   8.335  15.041 -0.4618 -0.0055 -0.3029
 3201DPPE   NH360265  19.126  19.372  12.831  0.4355 -0.0993  0.0509
 3201DPPE   PO460266  18.994  18.889  12.866 -0.0021 -0.3472 -0.0788
 3201DPPE   GL160267  18.656  18.768  13.039  0.0569 -0.1113  0.2477
 3201DPPE   GL260268  18.328  18.615  13.098 -0.1242  0.0907  0.1170
 3201DPPE   C1A60269  18.628  18.670  13.453 -0.1753  0.3523 -0.1619
 3201DPPE   C2A60270  18.508  18.576  13.882  0.0416  0.0668  0.0790
 3201DPPE   C3A60271  18.447  18.367  14.222  0.1012  0.0868  0.0133
 3201DPPE   C4A60272  18.132  18.451  14.530 -0.1503  0.0571 -0.0839
 3201DPPE   C1B60273  18.162  18.475  13.525 -0.0101 -0.2103  0.0529
 3201DPPE   C2B60274  18.010  18.474  13.947 -0.2517 -0.1958  0.0038
 3201DPPE   C3B60275  17.991  18.150  14.218 -0.3375 -0.3036 -0.0964
 3201DPPE   C4B60276  17.653  17.997  14.291 -0.0544 -0.3748  0.1183
 3202DPPE   NH360277  13.405  16.496  12.437 -0.1041 -0.1028  0.0925
 3202DPPE   PO460278  13.310  16.945  12.449  0.1139  0.0355  0.3095
 3202DPPE   GL160279  13.351  17.228  12.800  0.2442  0.1999 -0.0536
 3202DPPE   GL260280  13.054  17.187  12.929  0.2312 -0.1395  0.0435
 3202DPPE   C1A60281  13.482  17.536  13.026  0.3725 -0.0567  0.2959
 3202DPPE   C2A60282  13.400  17.842  13.290  0.0546  0.3012 -0.1700
 3202DPPE   C3A60283  13.193  18.170  13.530 -0.0903 -0.1364 -0.0808
 3202DPPE   C4A60284  13.094  18.534  13.743 -0.5523 -0.1512  0.0852
 3202DPPE   C1B60285  12.937  17.288  13.330  0.0130  0.2416  0.0992
 3202DPPE   C2B60286  12.905  17.763  13.621  0.0361  0.0151  0.3069
 3202DPPE   C3B60287  12.811  18.161  13.967  0.1052  0.0938  0.0700
 3202DPPE   C4B60288  13.023  18.426  14.295  0.0549  0.0268 -0.1330
 3203DPPE   NH360289  20.138  17.134  12.756  0.0519 -0.0700  0.0387
 3203DPPE   PO460290  19.745  17.320  12.786  0.3030 -0.1730  0.1848
 3203DPPE   GL160291  19.967  17.447  13.191  0.1202 -0.1564  0.2601
 3203DPPE   GL260292  20.212  17.568  13.066  0.1267 -0.2954 -0.1509
 3203DPPE   C1A60293  19.696  17.408  13.562 -0.2199 -0.1238  0.2283
 3203DPPE   C2A60294  19.630  17.271  13.917  0.0602  0.2755  0.0936
 3203DPPE   C3A60295  19.495  17.218  14.309  0.2318  0.2833  0.2025
 3203DPPE   C4A60296  19.256  17.257  14.696 -0.0400  0.2587 -0.1635
 3203DPPE   C1B60297  20.083  17.816  13.504  0.0483 -0.1201 -0.2566
 3203DPPE   C2B60298  19.890  17.712  13.887 -0.1780 -0.0225  0.0728
 3203DPPE   C3B60299  19.712  17.680  14.259  0.0138  0.3446 -0.1245
 3203DPPE   C4B60300  19.732  17.518  14.739 -0.0113 -0.0462 -0.1118
 3204DPPE   NH360301  16.079  10.831  13.225  0.2007 -0.1727 -0.1271
 3204DPPE   PO460302  16.501  11.046  13.349 -0.0928  0.2404 -0.1553
 3204DPPE   GL160303  16.372  11.334  13.590  0.1616  0.1896 -0.0921
 3204DPPE   GL260304  16.192  11.594  13.405 -0.0621 -0.1933 -0.1975
 3204DPPE   C1A60305  16.205  11.671  13.960  0.0191  0.0806  0.0926
 3204DPPE   C2A60306  16.009  11.834  14.346 -0.0533  0.1082  0.3475
 3204DPPE   C3A60307  16.036  11.942  14.809  0.0984  0.0458  0.1114
 3204DPPE   C4A60308  16.260  11.583  14.958  0.1199  0.0936  0.0940
 3204DPPE   C1B60309  16.477  11.967  13.661  0.0621  0.3353  0.2547
 3204DPPE   C2B60310  16.802  12.161  13.782 -0.2609 -0.2019 -0.0425
 3204DPPE   C3B60311  16.928  12.346  14.194 -0.4529  0.3357 -0.0374
 3204DPPE   C4B60312  16.961  12.232  14.582  0.5025 -0.3156  0.2436
 3205DPPE   NH360313  11.651  13.975  12.813  0.3431 -0.0368 -0.1648
 3205DPPE   PO460314  11.867  14.320  12.924  0.0227  0.0169  0.0626
 3205DPPE   GL160315  11.962  14.017  13.224 -0.2954  0.2759 -0.0253
 3205DPPE   GL260316  11.881  13.650  13.132  0.0161 -0.1404  0.0897
 3205DPPE   C1A60317  11.996  13.988  13.752  0.0529 -0.1197  0.4298
 3205DPPE   C2A60318  12.063  13.945  14.207  0.2278 -0.1350  0.1999
 3205DPPE   C3A60319  12.140  14.360  14.462  0.1540  0.3487 -0.3901
 3205DPPE   C4A60320  12.119  14.675  14.755  0.0333 -0.1380  0.0071
 3205DPPE   C1B60321  12.005  13.529  13.533 -0.1229 -0.2040 -0.2059
 3205DPPE   C2B60322  11.927  13.485  13.959  0.0444 -0.4490 -0.1876
 3205DPPE   C3B60323  11.892  13.494  14.385 -0.2666 -0.0139 -0.2362
 3205DPPE   C4B60324  11.984  13.863  14.698 -0.0630  0.2034  0.0753
 3206DPPE   NH360325  14.019  18.502  12.126 -0.1020 -0.1471 -0.0831
 3206DPPE   PO460326  13.849  18.161  12.424  0.1754 -0.1264 -0.2218
 3206DPPE   GL160327  13.774  18.211  12.811  0.0185 -0.3847 -0.0871
 3206DPPE   GL260328  14.053  18.495  12.988 -0.0481 -0.0140 -0.0216
 3206DPPE   C1A60329  13.825  18.078  13.311 -0.1242  0.2979  0.1779
 3206DPPE   C2A60330  13.685  18.066  13.697 -0.2923 -0.0522  0.1027
 3206DPPE   C3A60331  13.866  17.904  14.072 -0.1393 -0.0308 -0.3361
 3206DPPE   C4A60332  14.045  17.764  14.403 -0.2049 -0.3267 -0.1783
 3206DPPE   C1B60333  14.265  18.476  13.390 -0.4146 -0.0051  0.3341
 3206DPPE   C2B60334  14.572  18.398  13.657  0.2525  0.0131  0.2805
 3206DPPE   C3B60335  14.737  18.413  14.106 -0.0100  0.3273  0.1849
 3206DPPE   C4B60336  14.936  18.746  14.265  0.1709 -0.0261 -0.0409
 3207DPPE   NH360337  18.198  25.082  14.098  0.1763  0.0473  0.0011
 3207DPPE   PO460338  17.789  25.105  13.970  0.0508  0.0723  0.1661
 3207DPPE   GL160339  17.639  25.022  14.278  0.0084  0.0237 -0.0266
 3207DPPE   GL260340  17.307  25.143  14.246 -0.2575  0.1040 -0.0532
 3207DPPE   C1A60341  17.597  24.978  14.758  0.0131 -0.0126 -0.4269
 3207DPPE   C2A60342  17.238  24.809  15.106 -0.1961  0.0487 -0.1723
 3207DPPE   C3A60343  17.298  24.849  15.584  0.3594 -0.1344  0.0393
 3207DPPE   C4A60344  17.168  24.595  15.864 -0.4017 -0.3100  0.0891
 3207DPPE   C1B60345  17.111  24.995  14.639  0.0677  0.2475  0.3714
 3207DPPE   C2B60346  16.798  24.781  14.808  0.3455 -0.3342  0.1989
 3207DPPE   C3B60347  16.593  24.677  15.221 -0.1752 -0.0124 -0.0923
 3207DPPE   C4B60348  16.760  24.677  15.616  0.2264  0.3092  0.3617
 3208DPPE   NH360349  13.358   9.203  13.447  0.1577 -0.1040  0.1966
 3208DPPE   PO460350  13.651   9.103  13.499 -0.2794  0.0184  0.1215
 3208DPPE   GL160351  13.730   9.480  13.752  0.1911 -0.0157 -0.0310
 3208DPPE   GL260352  13.725   9.213  13.999  0.1526 -0.0036  0.4886
 3208DPPE   C1A60353  13.903   9.712  14.034  0.1241 -0.0207  0.2018
 3208DPPE   C2A60354  14.252   9.916  14.329 -0.1236 -0.1758  0.0408
 3208DPPE   C3A60355  14.183  10.080  14.681 -0.1554  0.0334  0.1388
 3208DPPE   C4A60356  14.053  10.241  15.058 -0.2271 -0.1823 -0.1521
 3208DPPE   C1B60357  13.666   9.342  14.247 -0.0886  0.2017 -0.1669
 3208DPPE   C2B60358  13.703   9.498  14.622  0.2881 -0.2671 -0.0993
 3208DPPE   C3B60359  13.887   9.748  14.918 -0.2734 -0.0867 -0.0307
 3208DPPE   C4B60360  14.175   9.662  15.137  0.1129  0.3296  0.0253
 3209DPPE   NH360361  22.412  10.300  18.030 -0.2250  0.0552 -0.0531
 3209DPPE   PO460362  22.322  10.672  17.708  0.2368  0.1576 -0.2337
 3209DPPE   GL160363  21.867  10.802  17.638  0.1860  0.1122 -0.1764
 3209DPPE   GL260364  21.915  11.153  17.806  0.2663 -0.0191 -0.3140
 3209DPPE   C1A60365  21.449  10.877  17.630  0.0481 -0.1040 -0.0057
 3209DPPE   C2A60366  21.087  11.182  17.733  0.1321  0.1381 -0.1376
 3209DPPE   C3A60367  20.911  11.571  17.822 -0.1734  0.0264 -0.2571
 3209DPPE   C4A60368  20.623  11.867  17.926  0.0226  0.0379  0.1594
 3209DPPE   C1B60369  21.925  11.455  18.091 -0.1243  0.3289 -0.1879
 3209DPPE   C2B60370  21.783  11.876  18.165  0.1803  0.0441  0.1274
 3209DPPE   C3B60371  21.589  12.144  17.954 -0.1644 -0.0245  0.1499
 3209DPPE   C4B60372  21.325  12.379  17.661 -0.3101  0.2159  0.1326
 3210DPPE   NH360373   8.065  22.352  14.179  0.1105 -0.1125  0.0927
 3210DPPE   PO460374   8.425  22.331  14.047 -0.1665 -0.4528  0.1506
 3210DPPE   GL160375   8.573  22.211  14.470 -0.1378 -0.1056  0.0233
 3210DPPE   GL260376   8.348  21.987  14.532  0.4928 -0.1015  0.2467
 3210DPPE   C1A60377   8.599  22.290  14.876 -0.0652 -0.0622  0.0650
 3210DPPE   C2A60378   8.816  22.410  15.185 -0.0191 -0.1574  0.0749
 3210DPPE   C3A60379   9.223  22.573  15.166  0.1570  0.1981 -0.3126
 3210DPPE   C4A60380   9.619  22.787  15.126 -0.1261  0.2650  0.0091
 3210DPPE   C1B60381   8.143  21.501  14.605 -0.1451 -0.0757  0.0670
 3210DPPE   C2B60382   7.950  21.148  14.577 -0.0331  0.0626 -0.0246
 3210DPPE   C3B60383   7.513  20.934  14.541 -0.0017 -0.2475  0.3173
 3210DPPE   C4B60384   7.335  20.424  14.715 -0.3630 -0.2102 -0.0583
 3211DPPE   NH360385  18.169  24.269  13.991 -0.1997 -0.1029  0.5345
 3211DPPE   PO460386  18.353  24.647  14.020  0.0814  0.2355 -0.1921
 3211DPPE   GL160387  18.196  24.686  14.474  0.1564 -0.2045  0.2908
 3211DPPE   GL260388  18.108  24.351  14.485 -0.2434  0.1346  0.3595
 3211DPPE   C1A60389  17.964  24.676  14.854 -0.2704 -0.0619 -0.1015
 3211DPPE   C2A60390  18.005  24.401  15.195  0.0089 -0.1518 -0.2527
 3211DPPE   C3A60391  18.093  24.029  15.334 -0.0981 -0.4059  0.0691
 3211DPPE   C4A60392  17.870  23.903  15.529 -0.1221 -0.2119  0.2348
 3211DPPE   C1B60393  17.932  23.870  14.723 -0.3197  0.2024 -0.0728
 3211DPPE   C2B60394  18.217  23.648  14.984 -0.3181  0.3676 -0.5435
 3211DPPE   C3B60395  18.165  23.360  15.333 -0.0158  0.0337  0.1301
 3211DPPE   C4B60396  18.591  23.131  15.561  0.2182  0.1131 -0.0332
 3212DPPE   NH360397  13.559   8.273  13.879  0.1541  0.1605  0.0668
 3212DPPE   PO460398  13.172   8.429  13.695 -0.0534  0.1749  0.1032
 3212DPPE   GL160399  13.173   8.553  14.176  0.1135 -0.3143  0.0832
 3212DPPE   GL260400  12.947   8.807  14.107 -0.0538 -0.0685  0.1527
 3212DPPE   C1A60401  13.272   9.041  14.380 -0.4300  0.0757  0.2657
 3212DPPE   C2A60402  13.111   9.482  14.334 -0.3101 -0.1496 -0.1634
 3212DPPE   C3A60403  12.644   9.598  14.564 -0.0522 -0.1504 -0.1650
 3212DPPE   C4A60404  12.289   9.545  14.836 -0.3690 -0.1411 -0.1741
 3212DPPE   C1B60405  12.904   8.742  14.648  0.2402  0.4443  0.2378
 3212DPPE   C2B60406  12.644   8.725  15.008 -0.1620 -0.1440  0.2955
 3212DPPE   C3B60407  12.263   8.827  15.012  0.0838  0.2279 -0.0765
 3212DPPE   C4B60408  11.978   8.732  14.963 -0.0137  0.2959 -0.0172
 3213DPPE   NH360409  17.894  20.823  12.434  0.1752 -0.1674 -0.0557
 3213DPPE   PO460410  18.180  21.101  12.654  0.0934 -0.0057  0.2171
 3213DPPE   GL160411  17.997  21.059  13.018  0.0195 -0.0282  0.2515
 3213DPPE   GL260412  17.735  21.305  13.164 -0.1395  0.3718  0.1682
 3213DPPE   C1A60413  17.851  20.773  13.367  0.1053 -0.0971  0.2010
 3213DPPE   C2A60414  17.499  20.951  13.553  0.1994 -0.2425  0.3587
 3213DPPE   C3A60415  17.141  21.160  13.531  0.1481  0.0707  0.4540
 3213DPPE   C4A60416  16.904  21.145  13.219 -0.0898 -0.1821  0.0677
 3213DPPE   C1B60417  17.636  21.376  13.591  0.2005  0.0695 -0.0018
 3213DPPE   C2B60418  17.534  21.788  13.887 -0.1226 -0.0917 -0.0892
 3213DPPE   C3B60419  17.428  21.995  14.204 -0.0739 -0.0459 -0.2704
 3213DPPE   C4B60420  17.369  21.930  14.506 -0.0465  0.1277  0.0431
 3214DPPE   NH360421  20.181   8.298  17.578 -0.0600 -0.1180 -0.2819
 3214DPPE   PO460422  20.042   8.798  17.412 -0.2824  0.0031  0.0426
 3214DPPE   GL160423  19.847   9.172  17.351 -0.1219  0.0455 -0.1479
 3214DPPE   GL260424  19.909   9.328  17.726  0.1181  0.0904 -0.0614
 3214DPPE   C1A60425  19.675   9.366  17.049 -0.2249 -0.0777 -0.2002
 3214DPPE   C2A60426  19.378   9.578  16.697  0.0428 -0.1094 -0.0758
 3214DPPE   C3A60427  18.995   9.675  16.593 -0.1454 -0.0814  0.2568
 3214DPPE   C4A60428  18.628   9.840  16.465  0.3061  0.1502  0.0223
 3214DPPE   C1B60429  19.541   9.481  17.981  0.1335  0.1095 -0.2236
 3214DPPE   C2B60430  19.344   9.785  17.695 -0.1020  0.1202 -0.0374
 3214DPPE   C3B60431  19.134  10.000  17.433  0.1510  0.1001  0.3735
 3214DPPE   C4B60432  18.755  10.171  17.415 -0.1649  0.1610 -0.0242
 3215DPPE   NH360433  17.104  16.561  12.601  0.2500  0.2669 -0.1218
 3215DPPE   PO460434  17.257  16.200  12.515 -0.0198  0.1780 -0.1985
 3215DPPE   GL160435  17.297  16.013  12.875  0.0163  0.2133 -0.0579
 3215DPPE   GL260436  17.639  16.028  13.010 -0.1416  0.1316  0.2110
 3215DPPE   C1A60437  17.047  16.207  13.163 -0.3807  0.3031  0.1502
 3215DPPE   C2A60438  16.618  16.319  13.376  0.0619 -0.3574 -0.0088
 3215DPPE   C3A60439  16.202  16.531  13.610 -0.1318 -0.0564 -0.0061
 3215DPPE   C4A60440  15.865  16.688  13.728  0.1387 -0.1143  0.0053
 3215DPPE   C1B60441  17.511  16.198  13.393 -0.1293  0.0883 -0.3254
 3215DPPE   C2B60442  17.367  16.507  13.610 -0.4312  0.1209  0.1242
 3215DPPE   C3B60443  17.357  16.497  14.044  0.1335 -0.2948 -0.0502
 3215DPPE   C4B60444  17.685  16.367  14.219  0.2208 -0.1406 -0.0418
 3216DPPE   NH360445   8.126   8.263  15.902 -0.0032  0.1667  0.0999
 3216DPPE   PO460446   7.924   8.599  15.699 -0.0318 -0.0706 -0.4113
 3216DPPE   GL160447   8.113   9.050  15.942  0.0588 -0.0272  0.0589
 3216DPPE   GL260448   8.023   9.099  16.255  0.0422 -0.1339 -0.1110
 3216DPPE   C1A60449   8.520   9.128  15.982 -0.2755  0.1146 -0.5019
 3216DPPE   C2A60450   8.897   9.348  15.850 -0.1558  0.1695  0.1981
 3216DPPE   C3A60451   9.308   9.584  15.734 -0.1338 -0.1675 -0.3554
 3216DPPE   C4A60452   9.598   9.650  15.502 -0.2396  0.2451 -0.0142
 3216DPPE   C1B60453   8.236   9.452  16.390  0.1721 -0.1699 -0.0578
 3216DPPE   C2B60454   8.200   9.775  16.378 -0.1721 -0.0089  0.0597
 3216DPPE   C3B60455   8.066  10.162  16.405  0.4521 -0.2126  0.1020
 3216DPPE   C4B60456   8.277  10.452  16.644  0.2392 -0.0330  0.0117
 3217DPPE   NH360457   9.692  20.201  13.354  0.2785 -0.3073 -0.0548
 3217DPPE   PO460458   9.295  20.047  13.286 -0.0592  0.2025 -0.2765
 3217DPPE   GL160459   9.262  19.912  13.670 -0.1583  0.0739 -0.1305
 3217DPPE   GL260460   9.557  20.013  13.876 -0.0655  0.1937  0.0296
 3217DPPE   C1A60461   9.189  19.870  14.214 -0.1961  0.0360 -0.0656
 3217DPPE   C2A60462   8.928  20.099  14.534  0.0826 -0.1015  0.0444
 3217DPPE   C3A60463   9.145  20.089  14.896 -0.1577 -0.1472  0.0896
 3217DPPE   C4A60464   9.422  20.115  15.174 -0.2651  0.0941  0.1639
 3217DPPE   C1B60465   9.733  19.671  14.198 -0.2237 -0.1008 -0.1037
 3217DPPE   C2B60466  10.037  19.395  14.405 -0.0068 -0.6013  0.1181
 3217DPPE   C3B60467  10.389  19.277  14.627  0.0581 -0.2268  0.0614
 3217DPPE   C4B60468  10.848  19.250  14.556 -0.0622 -0.0670  0.1333
 3218DPPE   NH360469  16.833  13.274  12.922  0.0736 -0.2040 -0.1028
 3218DPPE   PO460470  16.613  13.712  12.848  0.2110  0.1264  0.1415
 3218DPPE   GL160471  16.618  13.957  13.110 -0.2013 -0.0711  0.1276
 3218DPPE   GL260472  16.883  14.127  13.139 -0.1732  0.0476 -0.4542
 3218DPPE   C1A60473  16.492  13.958  13.490  0.0928  0.1740  0.3069
 3218DPPE   C2A60474  16.040  13.972  13.584 -0.2705  0.2527 -0.1055
 3218DPPE   C3A60475  15.908  14.098  13.921 -0.0059 -0.0111  0.1179
 3218DPPE   C4A60476  15.819  14.096  14.398  0.2251 -0.1544 -0.1643
 3218DPPE   C1B60477  17.095  14.002  13.533  0.0122  0.1734 -0.1816
 3218DPPE   C2B60478  17.306  14.278  13.822  0.0874 -0.0505 -0.0938
 3218DPPE   C3B60479  17.490  14.249  14.155  0.4246 -0.0728 -0.0239
 3218DPPE   C4B60480  17.811  14.369  14.458  0.1440  0.1211  0.1253
 3219DPPE   NH360481  13.619  20.078  12.556 -0.1097  0.1523  0.1487
 3219DPPE   PO460482  13.302  19.768  12.447  0.1972  0.0109  0.2413
 3219DPPE   GL160483  13.362  19.502  12.753  0.1088 -0.1185 -0.0478
 3219DPPE   GL260484  13.122  19.600  12.996  0.2049 -0.0405 -0.1511
 3219DPPE   C1A60485  13.169  18.988  12.929 -0.0658 -0.3962  0.0850
 3219DPPE   C2A60486  13.005  18.687  13.240  0.0592  0.2155  0.3224
 3219DPPE   C3A60487  12.533  18.683  13.275 -0.0179 -0.1279 -0.2535
 3219DPPE   C4A60488  12.077  18.606  13.301 -0.3174  0.3152  0.1549
 3219DPPE   C1B60489  13.524  19.488  13.293 -0.0449 -0.2949  0.3088
 3219DPPE   C2B60490  13.551  19.288  13.785  0.3905  0.0003 -0.2434
 3219DPPE   C3B60491  13.585  19.183  14.224 -0.0263 -0.0674 -0.1204
 3219DPPE   C4B60492  13.624  19.454  14.647 -0.0801 -0.5132  0.1273
 3220DPPE   NH360493  13.170  20.302  12.773  0.1505 -0.0065  0.1111
 3220DPPE   PO460494  13.536  20.605  12.867  0.5484  0.2376  0.0877
 3220DPPE   GL160495  13.527  20.531  13.252 -0.1558  0.0336 -0.1211
 3220DPPE   GL260496  13.785  20.777  13.413  0.0777 -0.0584 -0.4417
 3220DPPE   C1A60497  13.382  20.282  13.621  0.0325  0.0362 -0.0573
 3220DPPE   C2A60498  13.262  20.134  14.072 -0.1787  0.0064 -0.2769
 3220DPPE   C3A60499  12.947  20.252  14.475  0.0287  0.2560  0.1062
 3220DPPE   C4A60500  12.976  20.449  14.822 -0.1740 -0.0334  0.2059
 3220DPPE   C1B60501  13.887  20.317  13.613 -0.1400 -0.0299 -0.2629
 3220DPPE   C2B60502  13.748  20.092  13.951  0.2558  0.1299 -0.2417
 3220DPPE   C3B60503  13.627  20.144  14.402 -0.3508 -0.0705 -0.2221
 3220DPPE   C4B60504  13.459  19.905  14.594 -0.0083 -0.1997 -0.1046
 3221DPPE   NH360505   5.803  11.018  15.494  0.0015  0.3701  0.1859
 3221DPPE   PO460506   5.491  11.212  15.183 -0.0515  0.2926  0.0657
 3221DPPE   GL160507   5.765  11.521  15.348 -0.1600 -0.1337 -0.1549
 3221DPPE   GL260508   5.885  11.769  15.105 -0.1692  0.1113  0.1543
 3221DPPE   C1A60509   5.519  11.745  15.625 -0.0119 -0.1411 -0.0968
 3221DPPE   C2A60510   5.348  12.168  15.759  0.3343 -0.0885 -0.2011
 3221DPPE   C3A60511   5.388  12.577  15.522  0.0733  0.1071 -0.1076
 3221DPPE   C4A60512   5.668  12.954  15.366  0.2281 -0.0911  0.3270
 3221DPPE   C1B60513   6.225  12.083  15.151 -0.2713 -0.2193 -0.1527
 3221DPPE   C2B60514   6.546  12.295  15.264 -0.1057  0.1640 -0.2101
 3221DPPE   C3B60515   6.922  12.094  15.366  0.1375 -0.0461  0.2635
 3221DPPE   C4B60516   7.288  11.947  15.445  0.1247 -0.1133 -0.0737
 3222DPPE   NH360517  19.897  11.621  13.992 -0.0426  0.0490 -0.0647
 3222DPPE   PO460518  20.031  11.316  14.121  0.0270  0.1099  0.1542
 3222DPPE   GL160519  19.974  11.296  14.612 -0.1466 -0.0234 -0.0124
 3222DPPE   GL260520  19.614  11.342  14.721  0.2948  0.0790  0.1550
 3222DPPE   C1A60521  20.014  11.576  14.923 -0.1652 -0.1155  0.0783
 3222DPPE   C2A60522  19.825  11.689  15.321 -0.1347  0.0093 -0.1391
 3222DPPE   C3A60523  19.756  11.485  15.615 -0.1954 -0.0107 -0.1101
 3222DPPE   C4A60524  20.012  11.548  15.976  0.3202 -0.1504  0.3456
 3222DPPE   C1B60525  19.555  11.861  14.854 -0.0929  0.0582  0.0440
 3222DPPE   C2B60526  19.286  12.217  14.866 -0.1072  0.1755  0.1270
 3222DPPE   C3B60527  19.007  12.656  14.843  0.0946 -0.1657  0.0405
 3222DPPE   C4B60528  19.085  13.007  15.120 -0.1000 -0.1507  0.1491
 3223DPPE   NH360529  18.254  26.716  15.102  0.2496 -0.2699 -0.3606
 3223DPPE   PO460530  18.260  27.110  15.338 -0.2157 -0.1016  0.0117
 3223DPPE   GL160531  18.328  26.784  15.575  0.1032 -0.1037 -0.5118
 3223DPPE   GL260532  18.184  26.543  15.679  0.0537 -0.1586  0.0281
 3223DPPE   C1A60533  18.608  26.747  15.922 -0.2131 -0.0261  0.0476
 3223DPPE   C2A60534  18.858  26.484  16.313  0.1865 -0.1482  0.4290
 3223DPPE   C3A60535  18.957  26.219  16.559 -0.1810  0.1079 -0.0555
 3223DPPE   C4A60536  19.054  25.929  16.838 -0.0170  0.0483 -0.1677
 3223DPPE   C1B60537  18.262  26.393  16.177 -0.1969  0.1527 -0.0021
 3223DPPE   C2B60538  18.095  26.183  16.613  0.4408  0.3712  0.0579
 3223DPPE   C3B60539  18.286  25.844  16.906  0.1894  0.0160 -0.1400
 3223DPPE   C4B60540  18.716  25.893  17.177  0.2321 -0.2138  0.2594
 3224DPPE   NH360541  13.999  20.818  12.983 -0.0796  0.3041 -0.2247
 3224DPPE   PO460542  14.381  20.925  12.795 -0.1662  0.1360  0.0620
 3224DPPE   GL160543  14.440  20.719  13.280 -0.1287  0.2143 -0.0134
 3224DPPE   GL260544  14.280  20.940  13.453 -0.4587 -0.1563  0.0559
 3224DPPE   C1A60545  14.369  20.424  13.431  0.1840 -0.2515 -0.2288
 3224DPPE   C2A60546  14.474  20.463  13.791 -0.1294 -0.2972 -0.0729
 3224DPPE   C3A60547  14.547  20.415  14.228 -0.0297 -0.2741 -0.1723
 3224DPPE   C4A60548  14.455  20.496  14.710 -0.1637 -0.1166  0.2710
 3224DPPE   C1B60549  14.085  20.792  13.767  0.0445  0.1291 -0.1796
 3224DPPE   C2B60550  14.034  20.572  14.130 -0.1636  0.0622  0.0538
 3224DPPE   C3B60551  13.950  20.529  14.590  0.1116  0.0110  0.2039
 3224DPPE   C4B60552  13.743  20.795  14.756 -0.0153 -0.0919 -0.2078
 3225DPPE   NH360553  14.716  18.618  12.552 -0.1710 -0.1220 -0.2985
 3225DPPE   PO460554  14.331  18.550  12.516  0.1430  0.1968 -0.4196
 3225DPPE   GL160555  14.326  18.172  12.747  0.0300 -0.0485 -0.0433
 3225DPPE   GL260556  14.624  18.144  12.765 -0.0908 -0.1057 -0.0621
 3225DPPE   C1A60557  14.422  18.044  13.217  0.3231  0.0227  0.2649
 3225DPPE   C2A60558  14.206  17.958  13.631 -0.3452 -0.1345 -0.0955
 3225DPPE   C3A60559  14.193  17.615  13.828 -0.1665 -0.1657 -0.0481
 3225DPPE   C4A60560  14.289  17.287  14.131  0.0523 -0.4955  0.1079
 3225DPPE   C1B60561  14.768  18.402  13.179  0.0594 -0.2388  0.2255
 3225DPPE   C2B60562  14.892  18.757  13.450  0.0659  0.1868 -0.4345
 3225DPPE   C3B60563  15.000  19.119  13.822  0.0297 -0.3812  0.3057
 3225DPPE   C4B60564  14.845  19.194  14.197  0.2963 -0.2482 -0.0180
 3226DPPE   NH360565  20.387  15.061  13.054  0.1275 -0.0904 -0.2997
 3226DPPE   PO460566  20.721  14.826  13.210  0.2154  0.2849 -0.1072
 3226DPPE   GL160567  20.739  14.699  13.701 -0.2440  0.3215  0.2419
 3226DPPE   GL260568  20.384  14.608  13.858  0.0457  0.0182 -0.0186
 3226DPPE   C1A60569  21.030  14.510  13.960 -0.2259  0.3780 -0.0205
 3226DPPE   C2A60570  21.279  14.220  14.283  0.0274 -0.5699 -0.3763
 3226DPPE   C3A60571  21.728  14.285  14.505  0.0183 -0.2082 -0.1282
 3226DPPE   C4A60572  21.939  14.403  14.661 -0.0910 -0.1527 -0.0908
 3226DPPE   C1B60573  20.089  14.767  14.240 -0.2877  0.1282 -0.0056
 3226DPPE   C2B60574  19.702  14.999  14.266  0.0555  0.2477  0.0604
 3226DPPE   C3B60575  19.272  15.183  14.337  0.4738 -0.1726  0.0917
 3226DPPE   C4B60576  18.899  14.897  14.411  0.0160  0.0172  0.0417
 3227DPPE   NH360577  13.477  14.642  12.198  0.1174  0.2085  0.0396
 3227DPPE   PO460578  13.184  14.532  12.423 -0.3878 -0.1594 -0.0886
 3227DPPE   GL160579  13.046  14.431  12.871 -0.0878  0.0717 -0.0296
 3227DPPE   GL260580  13.340  14.227  13.065 -0.3896 -0.0064 -0.3466
 3227DPPE   C1A60581  12.849  14.322  13.326 -0.0234  0.0521  0.2778
 3227DPPE   C2A60582  12.905  14.359  13.736 -0.0382  0.1326  0.4303
 3227DPPE   C3A60583  12.914  14.605  14.008  0.0032  0.0893  0.0988
 3227DPPE   C4A60584  13.196  14.627  14.333 -0.0963 -0.2454 -0.0229
 3227DPPE   C1B60585  13.394  14.354  13.476  0.0233 -0.1277  0.1420
 3227DPPE   C2B60586  13.400  14.347  13.908 -0.1074  0.3701  0.2908
 3227DPPE   C3B60587  13.476  14.130  14.390 -0.3836 -0.2121  0.1039
 3227DPPE   C4B60588  13.389  14.295  14.839 -0.0074 -0.1090  0.1200
 3228DPPE   NH360589  17.615  19.239  12.362 -0.0103 -0.0838 -0.0182
 3228DPPE   PO460590  17.717  18.775  12.545 -0.0520 -0.3275 -0.0822
 3228DPPE   GL160591  17.886  18.746  12.963  0.3856  0.1861 -0.1134
 3228DPPE   GL260592  17.753  18.478  13.195 -0.3011 -0.0538  0.1835
 3228DPPE   C1A60593  18.137  18.978  13.376 -0.3127 -0.1219 -0.0097
 3228DPPE   C2A60594  18.161  18.960  13.769 -0.0306  0.0100  0.0613
 3228DPPE   C3A60595  18.156  18.868  14.157 -0.1063 -0.1799  0.1532
 3228DPPE   C4A60596  18.282  19.147  14.538 -0.3665 -0.1471 -0.7405
 3228DPPE   C1B60597  17.686  18.712  13.497 -0.0689  0.0479  0.0369
 3228DPPE   C2B60598  17.684  18.934  13.822 -0.0609 -0.0319 -0.2478
 3228DPPE   C3B60599  17.371  19.047  14.041 -0.3473 -0.0620  0.3953
 3228DPPE   C4B60600  17.054  18.901  14.177  0.1866  0.2462  0.1014
 3229DPPE   NH360601  17.785  27.333  15.093  0.0527 -0.0742  0.1926
 3229DPPE   PO460602  17.663  27.511  15.571  0.1043 -0.2117 -0.0919
 3229DPPE   GL160603  17.565  27.124  15.605  0.0192  0.3801 -0.0895
 3229DPPE   GL260604  17.836  26.851  15.522 -0.2407 -0.2680  0.0261
 3229DPPE   C1A60605  17.192  26.867  15.626 -0.1684 -0.2663  0.0667
 3229DPPE   C2A60606  16.719  26.659  15.611 -0.3194  0.0542  0.2534
 3229DPPE   C3A60607  16.355  26.569  15.857  0.2291 -0.1685 -0.0354
 3229DPPE   C4A60608  16.111  26.707  16.242  0.0622 -0.0455 -0.2348
 3229DPPE   C1B60609  17.659  26.628  15.820  0.1931  0.1812  0.0121
 3229DPPE   C2B60610  17.289  26.644  16.030 -0.1234 -0.0740 -0.2621
 3229DPPE   C3B60611  16.962  26.767  16.436 -0.1756  0.0313 -0.1672
 3229DPPE   C4B60612  17.256  26.917  16.832  0.1325  0.4229  0.0411
 3230DPPE   NH360613   4.919  10.091  18.049  0.1552  0.4015 -0.2099
 3230DPPE   PO460614   5.065  10.553  18.065 -0.0338  0.3178  0.1821
 3230DPPE   GL160615   5.435  10.658  18.304  0.1009 -0.0760 -0.1067
 3230DPPE   GL260616   5.624  10.972  18.277  0.2437 -0.0704 -0.0126
 3230DPPE   C1A60617   5.759  10.407  18.564  0.1003 -0.2023  0.3204
 3230DPPE   C2A60618   6.099  10.279  18.903 -0.2359  0.1212  0.1985
 3230DPPE   C3A60619   6.450   9.896  19.018 -0.0322 -0.2076 -0.0399
 3230DPPE   C4A60620   6.847  10.028  18.891  0.1915  0.0413  0.0138
 3230DPPE   C1B60621   5.953  11.307  18.279  0.2602 -0.1076 -0.1765
 3230DPPE   C2B60622   6.332  11.601  18.500  0.0284 -0.0576  0.3064
 3230DPPE   C3B60623   6.260  12.012  18.505 -0.1712 -0.1385 -0.1816
 3230DPPE   C4B60624   6.311  12.256  18.127  0.2971  0.3762  0.2114
 3231DPPE   NH360625  13.512   9.574  12.704 -0.1891  0.0653 -0.2579
 3231DPPE   PO460626  13.740   9.811  12.932  0.0956 -0.3534 -0.0860
 3231DPPE   GL160627  13.615  10.017  13.250 -0.1162 -0.2662 -0.0215
 3231DPPE   GL260628  13.315  10.128  13.360 -0.4589 -0.3226  0.1006
 3231DPPE   C1A60629  13.659   9.970  13.698  0.2134  0.1283  0.0078
 3231DPPE   C2A60630  13.448  10.202  13.997  0.2875  0.0337 -0.2416
 3231DPPE   C3A60631  13.280  10.508  14.393 -0.1922 -0.1747 -0.1599
 3231DPPE   C4A60632  13.383  10.690  14.746 -0.0016  0.1250 -0.2232
 3231DPPE   C1B60633  13.527  10.430  13.585 -0.2709 -0.0650  0.1935
 3231DPPE   C2B60634  13.940  10.562  13.758  0.1616 -0.0589  0.0301
 3231DPPE   C3B60635  14.272  10.688  14.110 -0.1086  0.2158 -0.0603
 3231DPPE   C4B60636  14.388  10.380  14.350  0.0222 -0.2200  0.1803
 3232DPPE   NH360637  18.022  21.587  12.824 -0.1037  0.0252 -0.1291
 3232DPPE   PO460638  18.480  21.434  12.901 -0.4084 -0.0153  0.1573
 3232DPPE   GL160639  18.352  21.336  13.279  0.1916  0.1234  0.2782
 3232DPPE   GL260640  18.377  21.787  13.262  0.0721  0.0162  0.0557
 3232DPPE   C1A60641  18.083  21.179  13.580  0.0640 -0.0894 -0.0436
 3232DPPE   C2A60642  17.851  21.121  14.000 -0.0310  0.0143  0.1921
 3232DPPE   C3A60643  17.544  20.873  14.241 -0.2697 -0.0319  0.0216
 3232DPPE   C4A60644  17.296  20.721  14.541  0.2531 -0.1217  0.1667
 3232DPPE   C1B60645  18.574  21.683  13.613  0.0057 -0.0192  0.0189
 3232DPPE   C2B60646  18.527  21.477  13.882  0.0158  0.0314  0.1301
 3232DPPE   C3B60647  18.386  21.113  14.190  0.1658 -0.0126  0.0705
 3232DPPE   C4B60648  18.167  20.869  14.308 -0.1643  0.4180  0.0165
 3233DPPE   NH360649   8.556  14.889  14.012 -0.1763  0.2194 -0.3283
 3233DPPE   PO460650   8.669  15.195  13.709  0.0904 -0.0299 -0.1577
 3233DPPE   GL160651   8.786  15.467  14.147  0.0697  0.1461  0.0942
 3233DPPE   GL260652   8.582  15.768  14.207 -0.1010 -0.2172  0.2191
 3233DPPE   C1A60653   8.890  15.293  14.528  0.1462  0.0190 -0.3175
 3233DPPE   C2A60654   9.082  15.247  14.981  0.0409 -0.5397 -0.1683
 3233DPPE   C3A60655   8.778  15.229  15.390 -0.1855  0.4094  0.0273
 3233DPPE   C4A60656   8.528  15.006  15.712  0.1157 -0.1136  0.1772
 3233DPPE   C1B60657   8.727  15.745  14.518 -0.0493 -0.0549  0.0975
 3233DPPE   C2B60658   9.024  15.854  14.908  0.3704  0.2060 -0.0119
 3233DPPE   C3B60659   9.463  15.988  15.089  0.4296 -0.1569  0.1096
 3233DPPE   C4B60660   9.849  16.223  14.970 -0.0249  0.2856  0.0599
 3234DPPE   NH360661  10.830  19.293  13.111 -0.0224  0.0545  0.0104
 3234DPPE   PO460662  10.522  18.878  13.175  0.0754  0.1314 -0.0343
 3234DPPE   GL160663  10.652  19.080  13.581  0.3157  0.1635  0.1692
 3234DPPE   GL260664  10.529  19.436  13.667  0.0576  0.1959 -0.0369
 3234DPPE   C1A60665  10.573  19.033  14.072 -0.2786 -0.0786  0.0580
 3234DPPE   C2A60666  10.544  18.842  14.445  0.2236 -0.3397 -0.1136
 3234DPPE   C3A60667  10.725  18.821  14.854  0.1386  0.4983 -0.1963
 3234DPPE   C4A60668  10.607  19.185  15.040 -0.1804  0.1314  0.0751
 3234DPPE   C1B60669  10.951  19.448  13.784 -0.2545  0.0287  0.1611
 3234DPPE   C2B60670  11.147  19.328  14.172 -0.3960  0.4428  0.1758
 3234DPPE   C3B60671  11.402  19.326  14.634 -0.4049 -0.0344  0.0252
 3234DPPE   C4B60672  11.472  19.652  14.906  0.0232  0.0360 -0.1331
 3235DPPE   NH360673  15.875  19.294  12.741  0.0616 -0.2643 -0.1518
 3235DPPE   PO460674  16.189  19.065  12.817 -0.2748  0.0338 -0.2145
 3235DPPE   GL160675  16.004  19.201  13.213 -0.0274 -0.0870  0.0378
 3235DPPE   GL260676  16.124  19.465  13.220 -0.0417 -0.0747  0.0237
 3235DPPE   C1A60677  15.720  19.157  13.525 -0.0367 -0.2109 -0.0088
 3235DPPE   C2A60678  15.477  19.315  13.824 -0.1257  0.3634  0.2400
 3235DPPE   C3A60679  15.331  19.094  14.208  0.0782  0.0751  0.0312
 3235DPPE   C4A60680  15.251  18.891  14.639 -0.1179  0.0933  0.2192
 3235DPPE   C1B60681  16.252  19.213  13.636 -0.0192 -0.2065 -0.1581
 3235DPPE   C2B60682  15.993  19.273  13.993 -0.0992  0.3156  0.1003
 3235DPPE   C3B60683  15.751  18.944  13.997  0.0073  0.3789 -0.0670
 3235DPPE   C4B60684  15.640  18.611  14.330  0.4694  0.1264  0.0015
 3236DPPE   NH360685  14.307  24.171  13.385 -0.0565  0.2478  0.0880
 3236DPPE   PO460686  14.143  24.307  13.665  0.1020  0.0581  0.1456
 3236DPPE   GL160687  14.224  24.605  14.031  0.1736 -0.0671 -0.2745
 3236DPPE   GL260688  14.522  24.564  13.943 -0.2264 -0.3254  0.1888
 3236DPPE   C1A60689  14.448  24.760  14.389 -0.0104  0.3329 -0.0763
 3236DPPE   C2A60690  14.582  24.573  14.713  0.1538  0.0555  0.2140
 3236DPPE   C3A60691  14.650  24.323  15.001  0.1687 -0.2927 -0.0422
 3236DPPE   C4A60692  14.576  24.116  15.282 -0.1942  0.1032 -0.1962
 3236DPPE   C1B60693  14.530  24.299  14.297  0.0486  0.0448  0.2624
 3236DPPE   C2B60694  14.406  24.080  14.660  0.1556 -0.0910  0.2124
 3236DPPE   C3B60695  14.157  23.970  15.057  0.0523 -0.1657 -0.0547
 3236DPPE   C4B60696  14.149  23.887  15.569 -0.0339  0.3390  0.1778
 3237DPPE   NH360697   9.665   6.705  17.888  0.0235 -0.2149 -0.1184
 3237DPPE   PO460698   9.846   6.613  17.461  0.2918  0.2354  0.0784
 3237DPPE   GL160699   9.875   7.051  17.423 -0.0917 -0.1425  0.0744
 3237DPPE   GL260700   9.492   7.029  17.533  0.1014  0.2503  0.0072
 3237DPPE   C1A60701   9.989   7.448  17.538  0.1512  0.1535 -0.2195
 3237DPPE   C2A60702   9.762   7.788  17.528 -0.0203  0.0363  0.1711
 3237DPPE   C3A60703   9.585   8.284  17.460  0.1194  0.4961 -0.2819
 3237DPPE   C4A60704   9.476   8.562  17.766 -0.0091  0.0141  0.3268
 3237DPPE   C1B60705   9.578   7.410  17.228  0.3992  0.2162  0.5700
 3237DPPE   C2B60706   9.840   7.645  17.014 -0.0479 -0.3656 -0.0714
 3237DPPE   C3B60707  10.120   7.558  16.626 -0.0761 -0.1244  0.1073
 3237DPPE   C4B60708  10.116   7.715  16.258  0.1694  0.1314 -0.1006
 3238DPPE   NH360709  12.256   7.532  14.643 -0.3201 -0.3274  0.1108
 3238DPPE   PO460710  12.677   7.801  14.490  0.0547 -0.0295 -0.0961
 3238DPPE   GL160711  12.435   8.135  14.576  0.0118  0.3671  0.1586
 3238DPPE   GL260712  12.141   8.037  14.567 -0.2666  0.4725  0.3149
 3238DPPE   C1A60713  12.311   8.486  14.621  0.1817  0.0399  0.0540
 3238DPPE   C2A60714  12.041   8.762  14.308 -0.4210  0.1178  0.4050
 3238DPPE   C3A60715  12.008   9.153  14.201  0.2083 -0.1311 -0.0223
 3238DPPE   C4A60716  12.236   9.537  14.279 -0.2101 -0.1087 -0.1613
 3238DPPE   C1B60717  12.014   8.210  14.896  0.3089 -0.0004  0.0183
 3238DPPE   C2B60718  11.749   8.391  15.267  0.1629 -0.1276  0.2612
 3238DPPE   C3B60719  11.716   8.495  15.825 -0.2997 -0.0435  0.3042
 3238DPPE   C4B60720  11.832   8.170  16.060  0.0521  0.1922  0.3406
 3239DPPE   NH360721  22.876  17.654  14.592  0.1828 -0.0372 -0.2189
 3239DPPE   PO460722  22.492  17.652  14.774 -0.3818 -0.0008 -0.0480
 3239DPPE   GL160723  22.220  17.541  15.128  0.0409  0.3595 -0.1442
 3239DPPE   GL260724  22.038  17.755  15.221 -0.4406 -0.0455 -0.0923
 3239DPPE   C1A60725  22.001  17.306  15.418 -0.4387  0.2814  0.0400
 3239DPPE   C2A60726  21.899  16.866  15.653 -0.2099  0.0764  0.0635
 3239DPPE   C3A60727  21.674  16.587  15.419  0.0076 -0.0484 -0.0821
 3239DPPE   C4A60728  21.434  16.535  15.071  0.0651 -0.0375 -0.0036
 3239DPPE   C1B60729  21.821  17.678  15.644  0.1782 -0.1057 -0.2957
 3239DPPE   C2B60730  21.823  17.542  16.029 -0.0477  0.2897  0.4195
 3239DPPE   C3B60731  21.699  17.186  16.314 -0.1664  0.2300  0.0483
 3239DPPE   C4B60732  21.424  17.138  16.542  0.0354  0.1883 -0.2495
 3240DPPE   NH360733  17.506  25.528  13.921  0.0505  0.1608 -0.4633
 3240DPPE   PO460734  17.074  25.631  14.188  0.1997  0.1277 -0.0191
 3240DPPE   GL160735  17.198  25.588  14.654 -0.0914  0.0555 -0.2085
 3240DPPE   GL260736  17.527  25.443  14.594 -0.0174 -0.0815 -0.1356
 3240DPPE   C1A60737  17.096  25.376  15.032  0.3632 -0.1986  0.1753
 3240DPPE   C2A60738  16.797  25.112  15.155  0.0192  0.4335 -0.2195
 3240DPPE   C3A60739  16.437  25.087  15.468  0.0371  0.0077 -0.0010
 3240DPPE   C4A60740  16.441  25.340  15.701 -0.1481  0.0944  0.1346
 3240DPPE   C1B60741  17.785  25.386  14.956  0.0369 -0.3279 -0.2012
 3240DPPE   C2B60742  18.011  25.132  15.191 -0.0939 -0.0194 -0.1818
 3240DPPE   C3B60743  18.118  24.763  15.495  0.0104  0.1154 -0.0436
 3240DPPE   C4B60744  18.527  24.667  15.461 -0.1871 -0.0564  0.0465
 3241DPPE   NH360745  12.423   9.534  13.525  0.1311  0.3461  0.0838
 3241DPPE   PO460746  12.888   9.435  13.440  0.1649  0.0469  0.2283
 3241DPPE   GL160747  12.889   9.830  13.571  0.1638 -0.4115 -0.2090
 3241DPPE   GL260748  13.206   9.793  13.711  0.1115  0.2051  0.0273
 3241DPPE   C1A60749  12.876  10.170  13.759 -0.3542  0.1858  0.1096
 3241DPPE   C2A60750  12.850  10.411  14.139 -0.0198  0.0306  0.2286
 3241DPPE   C3A60751  12.778  10.790  14.336 -0.0640 -0.0645  0.3922
 3241DPPE   C4A60752  12.875  10.919  14.693  0.2531  0.2336 -0.1867
 3241DPPE   C1B60753  13.405   9.731  14.060 -0.1981  0.2920 -0.0452
 3241DPPE   C2B60754  13.538   9.938  14.391  0.1058  0.0631  0.4264
 3241DPPE   C3B60755  13.511  10.160  14.797  0.0863 -0.0954  0.0369
 3241DPPE   C4B60756  13.643  10.646  15.165 -0.0876  0.3055 -0.1496
 3242DPPE   NH360757  21.471  19.525  14.802 -0.2179  0.0105 -0.0400
 3242DPPE   PO460758  21.842  19.462  15.107  0.1610 -0.1518 -0.1198
 3242DPPE   GL160759  21.637  19.496  15.486 -0.0316 -0.0206 -0.0809
 3242DPPE   GL260760  21.899  19.484  15.658 -0.2586 -0.2426  0.1428
 3242DPPE   C1A60761  21.419  19.240  15.761  0.5135  0.0548 -0.1490
 3242DPPE   C2A60762  21.091  18.949  15.738  0.0444  0.0501 -0.0397
 3242DPPE   C3A60763  20.759  18.721  15.443  0.2426  0.2277  0.0201
 3242DPPE   C4A60764  20.577  18.413  15.703  0.1869 -0.0268  0.3178
 3242DPPE   C1B60765  21.751  19.797  16.005  0.0814 -0.1580 -0.1612
 3242DPPE   C2B60766  21.576  20.140  16.171  0.1160  0.2150 -0.2803
 3242DPPE   C3B60767  21.391  20.570  16.189  0.3640 -0.0631 -0.0096
 3242DPPE   C4B60768  20.906  20.760  16.131  0.0500  0.0118  0.1419
 3243DPPE   NH360769  14.867  20.017  12.760 -0.0246  0.3592  0.1368
 3243DPPE   PO460770  15.312  19.946  12.753  0.0646 -0.2798  0.0220
 3243DPPE   GL160771  15.164  19.613  12.971  0.0193  0.1696  0.0663
 3243DPPE   GL260772  14.918  19.349  12.953 -0.0702  0.4204 -0.0970
 3243DPPE   C1A60773  15.109  19.422  13.410 -0.0158 -0.0153  0.2333
 3243DPPE   C2A60774  14.758  19.528  13.713 -0.0985 -0.0220 -0.0604
 3243DPPE   C3A60775  14.398  19.456  13.985 -0.3024 -0.0082 -0.2420
 3243DPPE   C4A60776  14.027  19.430  14.284  0.2437  0.0283 -0.3624
 3243DPPE   C1B60777  14.621  19.176  13.285 -0.1046 -0.3705 -0.2554
 3243DPPE   C2B60778  14.481  19.039  13.663 -0.3007 -0.0971 -0.0977
 3243DPPE   C3B60779  14.466  18.930  14.070  0.0112  0.2777  0.0636
 3243DPPE   C4B60780  14.386  19.085  14.529  0.0231  0.0812  0.0635
 3244DPPE   NH360781  17.377  23.538  13.128 -0.0518 -0.0050 -0.2481
 3244DPPE   PO460782  17.573  23.200  13.208 -0.0193 -0.1951  0.1208
 3244DPPE   GL160783  17.609  23.140  13.582 -0.2531 -0.1099  0.1464
 3244DPPE   GL260784  17.373  22.834  13.575 -0.1421  0.3243 -0.2622
 3244DPPE   C1A60785  17.580  23.157  13.970  0.1110  0.2021 -0.1875
 3244DPPE   C2A60786  17.424  22.930  14.435  0.0235  0.0094  0.0344
 3244DPPE   C3A60787  17.092  23.008  14.358  0.1767 -0.2379  0.0987
 3244DPPE   C4A60788  16.960  23.457  14.562  0.0004  0.1444 -0.0937
 3244DPPE   C1B60789  16.945  22.725  13.932 -0.0152  0.2396 -0.1628
 3244DPPE   C2B60790  16.624  22.790  14.215 -0.1047  0.3104 -0.0783
 3244DPPE   C3B60791  16.648  22.531  14.546 -0.1538 -0.1628  0.3102
 3244DPPE   C4B60792  16.729  22.094  14.617  0.1813 -0.3845  0.3628
 3245DPPE   NH360793   5.492  23.976  18.065 -0.1030  0.0886  0.1126
 3245DPPE   PO460794   5.185  23.717  18.273 -0.2726 -0.1021 -0.2030
 3245DPPE   GL160795   5.616  23.508  18.404  0.3312  0.0256 -0.0276
 3245DPPE   GL260796   5.718  23.443  18.063  0.1851  0.0454 -0.1607
 3245DPPE   C1A60797   5.706  23.062  18.674 -0.0060  0.0958  0.1381
 3245DPPE   C2A60798   6.019  22.740  18.900 -0.0452  0.0835  0.1816
 3245DPPE   C3A60799   6.281  22.545  19.272 -0.0324 -0.5547 -0.0800
 3245DPPE   C4A60800   6.435  22.733  19.628 -0.1028 -0.0696  0.1500
 3245DPPE   C1B60801   5.892  23.582  17.652  0.2674  0.2013 -0.1791
 3245DPPE   C2B60802   5.992  23.630  17.220 -0.2236 -0.1265 -0.0035
 3245DPPE   C3B60803   6.300  23.906  17.030 -0.1337 -0.2195  0.0630
 3245DPPE   C4B60804   6.457  24.122  16.699  0.1493 -0.1991  0.0582
 3246DPPE   NH360805  12.467  27.529  16.806 -0.1622 -0.0184 -0.0095
 3246DPPE   PO460806  12.841  27.707  16.771  0.0920 -0.2182 -0.1120
 3246DPPE   GL160807  12.884  27.252  16.620  0.1376  0.0440  0.0900
 3246DPPE   GL260808  12.892  26.950  16.887 -0.1035 -0.0347  0.1185
 3246DPPE   C1A60809  12.679  27.057  16.271  0.0729  0.1542 -0.0558
 3246DPPE   C2A60810  12.333  26.853  16.068  0.2422  0.0637 -0.0389
 3246DPPE   C3A60811  12.080  26.610  16.388  0.4332  0.0755 -0.0887
 3246DPPE   C4A60812  11.825  26.264  16.332  0.2085  0.0005  0.0350
 3246DPPE   C1B60813  12.469  26.743  16.658 -0.0709  0.0126 -0.0102
 3246DPPE   C2B60814  12.288  26.312  16.746  0.2252 -0.1670 -0.1907
 3246DPPE   C3B60815  12.154  25.876  16.754 -0.2093  0.0925 -0.0536
 3246DPPE   C4B60816  12.219  25.618  17.180  0.0658 -0.3344  0.1345
 3247DPPE   NH360817  15.683  12.437  12.934 -0.0177 -0.2006  0.0071
 3247DPPE   PO460818  15.911  12.870  12.901 -0.0554  0.1378 -0.0713
 3247DPPE   GL160819  15.915  13.136  13.268  0.2833  0.0674  0.2313
 3247DPPE   GL260820  16.153  13.114  13.459 -0.0546 -0.1045 -0.1322
 3247DPPE   C1A60821  15.845  13.531  13.388 -0.0397 -0.0454 -0.0179
 3247DPPE   C2A60822  15.859  13.489  13.748 -0.1023  0.0475 -0.1253
 3247DPPE   C3A60823  15.735  13.613  14.114  0.2090 -0.3757  0.1534
 3247DPPE   C4A60824  15.617  13.635  14.576  0.1654 -0.3188 -0.0330
 3247DPPE   C1B60825  15.950  13.044  13.916 -0.2058 -0.2164 -0.2328
 3247DPPE   C2B60826  15.539  13.156  13.976 -0.0204  0.0080 -0.0480
 3247DPPE   C3B60827  15.343  13.209  14.345  0.2266 -0.0300 -0.0226
 3247DPPE   C4B60828  14.906  13.222  14.549  0.2718 -0.0650 -0.1268
 3248DPPE   NH360829  20.343  16.689  13.008 -0.1432  0.0580  0.1979
 3248DPPE   PO460830  20.587  16.995  12.910 -0.3541 -0.0118 -0.5185
 3248DPPE   GL160831  20.395  17.141  13.264 -0.0941 -0.1269  0.3817
 3248DPPE   GL260832  20.138  17.000  13.396 -0.0095 -0.1223 -0.1519
 3248DPPE   C1A60833  20.279  17.386  13.699 -0.0066 -0.2173 -0.2974
 3248DPPE   C2A60834  20.074  17.312  14.148  0.0283 -0.2468  0.0580
 3248DPPE   C3A60835  19.943  17.073  14.544 -0.1611  0.0298 -0.3250
 3248DPPE   C4A60836  19.887  17.017  15.033 -0.2741 -0.1535  0.5762
 3248DPPE   C1B60837  20.389  16.916  13.801  0.0197 -0.0594  0.1221
 3248DPPE   C2B60838  20.460  16.913  14.285  0.0785 -0.4512 -0.3318
 3248DPPE   C3B60839  20.186  16.640  14.447 -0.4285 -0.2403  0.2374
 3248DPPE   C4B60840  19.975  16.527  14.793 -0.2062 -0.0695  0.0856
 3249DPPE   NH360841  21.366  11.841  15.261  0.1785 -0.0333 -0.3183
 3249DPPE   PO460842  21.254  12.002  14.907 -0.1151 -0.0385  0.1088
 3249DPPE   GL160843  21.078  12.264  15.165  0.2283 -0.2479 -0.1138
 3249DPPE   GL260844  21.238  12.232  15.543  0.1748 -0.1721  0.0016
 3249DPPE   C1A60845  20.768  12.092  15.483  0.4808 -0.0961 -0.1956
 3249DPPE   C2A60846  20.701  12.165  15.928  0.1004 -0.0233  0.0877
 3249DPPE   C3A60847  20.667  12.557  16.148 -0.1679  0.0232 -0.1341
 3249DPPE   C4A60848  20.679  12.832  16.583  0.0138  0.1358  0.0143
 3249DPPE   C1B60849  21.038  12.529  15.798 -0.4573  0.0001  0.1116
 3249DPPE   C2B60850  21.067  12.947  15.864  0.2011  0.1639  0.1564
 3249DPPE   C3B60851  20.881  13.190  16.216 -0.0149  0.0951  0.0320
 3249DPPE   C4B60852  20.802  13.409  16.578 -0.3340  0.0997 -0.2174
 3250DPPE   NH360853   5.702  10.493  14.704  0.0244 -0.2139 -0.0472
 3250DPPE   PO460854   5.978  10.717  15.051  0.0811  0.0302  0.1296
 3250DPPE   GL160855   6.275  10.947  15.329  0.1242 -0.0421  0.0686
 3250DPPE   GL260856   6.334  10.706  15.675 -0.0347  0.3538 -0.1234
 3250DPPE   C1A60857   6.637  11.025  15.328 -0.0397 -0.0768 -0.4334
 3250DPPE   C2A60858   7.078  11.016  15.164  0.1168 -0.2800  0.2126
 3250DPPE   C3A60859   7.414  11.362  15.104  0.0375  0.1532 -0.1594
 3250DPPE   C4A60860   7.353  11.764  14.927 -0.0690  0.0942  0.0584
 3250DPPE   C1B60861   6.678  11.096  15.838 -0.2588  0.2122 -0.1780
 3250DPPE   C2B60862   6.677  11.488  16.155 -0.2599 -0.0140  0.1881
 3250DPPE   C3B60863   6.851  11.801  16.345 -0.0435  0.5843  0.3992
 3250DPPE   C4B60864   6.940  12.147  16.681 -0.2758 -0.1031 -0.3710
 3251DPPE   NH360865   8.147  17.349  13.968  0.0555  0.1104  0.1269
 3251DPPE   PO460866   8.315  16.940  14.074  0.2223  0.3272  0.1852
 3251DPPE   GL160867   8.133  17.045  14.436  0.1678  0.1787  0.0391
 3251DPPE   GL260868   7.913  16.999  14.486 -0.0317  0.1777  0.0096
 3251DPPE   C1A60869   8.285  17.104  14.806  0.0757  0.3204 -0.1550
 3251DPPE   C2A60870   8.650  17.037  15.022 -0.1566  0.1243  0.1431
 3251DPPE   C3A60871   8.979  16.760  15.217  0.0067  0.1174 -0.2046
 3251DPPE   C4A60872   9.486  16.621  15.240 -0.1758 -0.0175 -0.0893
 3251DPPE   C1B60873   7.750  16.655  14.796  0.1284  0.0175 -0.1843
 3251DPPE   C2B60874   7.800  16.261  15.160 -0.0184 -0.3779  0.1416
 3251DPPE   C3B60875   7.932  15.858  15.027 -0.2748  0.0461 -0.1091
 3251DPPE   C4B60876   7.833  15.671  14.740 -0.5277 -0.0769 -0.0865
 3252DPPE   NH360877  17.912  10.289  14.029 -0.2046  0.0199  0.1193
 3252DPPE   PO460878  18.444  10.070  13.994 -0.0370 -0.0938 -0.0223
 3252DPPE   GL160879  18.299  10.421  14.279 -0.1301 -0.0603  0.2709
 3252DPPE   GL260880  18.451  10.451  14.586 -0.2487  0.2670  0.2400
 3252DPPE   C1A60881  17.984  10.575  14.619 -0.0907  0.2617 -0.1407
 3252DPPE   C2A60882  18.079  10.491  15.076 -0.2825 -0.0167 -0.3545
 3252DPPE   C3A60883  18.289  10.752  15.410 -0.0927 -0.2233  0.3416
 3252DPPE   C4A60884  18.309  10.726  15.798  0.0125  0.2973  0.1365
 3252DPPE   C1B60885  18.343  10.820  14.824  0.2751  0.1051 -0.0658
 3252DPPE   C2B60886  17.950  11.021  15.048 -0.5368  0.0132  0.1505
 3252DPPE   C3B60887  17.506  11.037  15.040  0.1825 -0.0030 -0.1329
 3252DPPE   C4B60888  17.061  11.135  14.991 -0.1293  0.1717 -0.3674
 3253DPPE   NH360889  21.742  16.423  13.723  0.1049  0.0472  0.2388
 3253DPPE   PO460890  22.212  16.353  13.847  0.1138 -0.0786 -0.1546
 3253DPPE   GL160891  21.799  16.181  14.135 -0.1774 -0.3555 -0.1345
 3253DPPE   GL260892  21.414  16.022  14.004  0.2912  0.1728 -0.2217
 3253DPPE   C1A60893  21.628  16.130  14.491 -0.2409  0.0751 -0.0819
 3253DPPE   C2A60894  21.512  16.071  14.841 -0.2595  0.3021 -0.1922
 3253DPPE   C3A60895  21.465  15.741  15.149  0.1614  0.2793 -0.0211
 3253DPPE   C4A60896  21.605  15.570  15.460  0.0517 -0.1669  0.3758
 3253DPPE   C1B60897  21.017  16.056  13.836 -0.1941 -0.0819 -0.0044
 3253DPPE   C2B60898  20.661  16.212  13.682  0.2273 -0.1903  0.4368
 3253DPPE   C3B60899  20.266  16.041  13.727 -0.0936 -0.0807  0.0094
 3253DPPE   C4B60900  19.890  16.216  13.731  0.0777 -0.1054  0.1712
 3254DPPE   NH360901  14.294   6.039  16.112  0.2264 -0.0086  0.2622
 3254DPPE   PO460902  14.137   6.292  16.348  0.3138  0.0171 -0.0621
 3254DPPE   GL160903  14.365   6.620  16.538  0.0333  0.1350 -0.0513
 3254DPPE   GL260904  14.819   6.680  16.640 -0.3070 -0.0249 -0.0464
 3254DPPE   C1A60905  14.301   6.743  17.042  0.0613  0.0408 -0.1116
 3254DPPE   C2A60906  14.196   6.512  17.408  0.1021  0.0221  0.1347
 3254DPPE   C3A60907  13.793   6.506  17.509  0.3851 -0.5045  0.0257
 3254DPPE   C4A60908  13.333   6.635  17.540 -0.3311 -0.2660  0.0668
 3254DPPE   C1B60909  14.884   6.550  17.072  0.1497 -0.0933  0.0852
 3254DPPE   C2B60910  14.910   6.547  17.580  0.0680 -0.1649  0.1510
 3254DPPE   C3B60911  15.147   6.523  17.903  0.0252 -0.1840  0.0029
 3254DPPE   C4B60912  15.028   6.866  18.214  0.0668 -0.2859 -0.1664
 3255DPPE   NH360913  18.015   9.047  14.577  0.2119 -0.3226 -0.2510
 3255DPPE   PO460914  17.934   9.323  14.146  0.2542 -0.1324 -0.4163
 3255DPPE   GL160915  17.969   9.527  14.601 -0.3786  0.3071 -0.3543
 3255DPPE   GL260916  17.820   9.492  14.860  0.0644 -0.0624 -0.1331
 3255DPPE   C1A60917  18.127   9.856  14.846 -0.2335 -0.2183 -0.1314
 3255DPPE   C2A60918  18.553  10.076  14.992 -0.0010  0.0872 -0.0198
 3255DPPE   C3A60919  18.763  10.162  15.294  0.2438  0.1722 -0.1022
 3255DPPE   C4A60920  19.193   9.904  15.305  0.3285 -0.1347  0.0130
 3255DPPE   C1B60921  17.422   9.373  14.932 -0.1312 -0.1072 -0.3288
 3255DPPE   C2B60922  17.059   9.636  15.024 -0.3208 -0.2431  0.3530
 3255DPPE   C3B60923  16.745   9.943  14.798  0.1207  0.0808 -0.4294
 3255DPPE   C4B60924  16.486  10.433  14.898  0.0516 -0.0002 -0.3258
 3256DPPE   NH360925  16.090   6.609  15.759 -0.2084 -0.0831 -0.3152
 3256DPPE   PO460926  15.721   6.331  15.455 -0.0797  0.2238  0.0087
 3256DPPE   GL160927  15.582   6.741  15.645 -0.1599  0.1011  0.2534
 3256DPPE   GL260928  15.216   6.775  15.731 -0.2339 -0.3342  0.1071
 3256DPPE   C1A60929  15.820   7.150  15.828 -0.1243 -0.1446 -0.0493
 3256DPPE   C2A60930  16.161   7.386  15.993 -0.1346 -0.0567  0.0558
 3256DPPE   C3A60931  16.417   7.418  16.324 -0.1887  0.0185  0.0632
 3256DPPE   C4A60932  16.793   7.536  16.592 -0.3000  0.2584  0.0697
 3256DPPE   C1B60933  15.011   7.054  16.057  0.2359 -0.2293  0.0062
 3256DPPE   C2B60934  14.672   7.323  16.014 -0.0150 -0.3523  0.2815
 3256DPPE   C3B60935  14.311   7.459  16.288 -0.3829  0.3081  0.0245
 3256DPPE   C4B60936  14.166   7.670  16.721 -0.1547 -0.0886 -0.0976
 3257DPPE   NH360937   9.068  12.829  13.372 -0.2730 -0.0915 -0.1137
 3257DPPE   PO460938   9.348  13.213  13.290  0.1923  0.3312  0.0408
 3257DPPE   GL160939   9.578  13.288  13.580 -0.4348  0.2014  0.2297
 3257DPPE   GL260940   9.873  13.120  13.589 -0.1969 -0.2181 -0.1147
 3257DPPE   C1A60941   9.693  13.244  14.095  0.1508  0.1742 -0.1103
 3257DPPE   C2A60942   9.840  13.288  14.462 -0.0606  0.2187 -0.1150
 3257DPPE   C3A60943   9.871  13.257  14.916 -0.1654  0.3474  0.0512
 3257DPPE   C4A60944   9.587  13.478  15.115  0.3479 -0.1791  0.0734
 3257DPPE   C1B60945  10.121  12.950  13.902  0.0665  0.0207  0.0536
 3257DPPE   C2B60946  10.259  13.186  14.181 -0.0713  0.2639  0.1004
 3257DPPE   C3B60947  10.532  13.437  14.407  0.1900  0.2249 -0.3640
 3257DPPE   C4B60948  10.659  13.875  14.227 -0.1165 -0.0254  0.3400
 3258DPPE   NH360949  18.907   8.682  14.834  0.1588 -0.1906  0.0104
 3258DPPE   PO460950  18.776   9.031  15.139  0.4675  0.0065 -0.0286
 3258DPPE   GL160951  18.825   9.303  15.466  0.0591 -0.0759  0.1836
 3258DPPE   GL260952  18.756   9.666  15.359  0.2110  0.1824  0.1149
 3258DPPE   C1A60953  18.424   9.297  15.672 -0.0189 -0.1418  0.0787
 3258DPPE   C2A60954  18.095   9.407  15.829 -0.3089  0.2824 -0.0409
 3258DPPE   C3A60955  17.873   9.794  15.767 -0.1205 -0.1408  0.0340
 3258DPPE   C4A60956  17.708  10.152  15.586  0.1719  0.1281  0.1148
 3258DPPE   C1B60957  18.948   9.653  15.788 -0.0270 -0.1659  0.0107
 3258DPPE   C2B60958  18.824   9.445  16.121  0.0473 -0.1672  0.1289
 3258DPPE   C3B60959  18.951   9.156  16.375 -0.0053 -0.1300 -0.2045
 3258DPPE   C4B60960  18.988   8.646  16.459  0.1035  0.1569 -0.1445
 3259DPPE   NH360961  12.793  12.780  12.645 -0.0523 -0.0087  0.1273
 3259DPPE   PO460962  13.224  12.955  12.760  0.1430 -0.1224 -0.0577
 3259DPPE   GL160963  13.182  13.051  13.222 -0.1450 -0.0895 -0.0214
 3259DPPE   GL260964  13.079  13.387  13.187  0.1385 -0.1907  0.3537
 3259DPPE   C1A60965  13.223  12.985  13.644 -0.2419  0.2700  0.3403
 3259DPPE   C2A60966  13.229  12.982  14.091 -0.2110 -0.0496 -0.2059
 3259DPPE   C3A60967  13.282  12.977  14.430  0.1201  0.0780 -0.1677
 3259DPPE   C4A60968  13.496  13.205  14.815 -0.2158  0.1775 -0.0793
 3259DPPE   C1B60969  12.999  13.438  13.621  0.0825 -0.1410 -0.1548
 3259DPPE   C2B60970  13.021  13.487  14.082 -0.0744 -0.2441  0.2341
 3259DPPE   C3B60971  13.259  13.603  14.445  0.3090 -0.3316  0.0810
 3259DPPE   C4B60972  13.346  13.790  14.769 -0.1136 -0.2426  0.1229
 3260DPPE   NH360973  22.386  10.798  17.214  0.1863  0.0253 -0.1796
 3260DPPE   PO460974  22.217  10.565  16.847  0.0710  0.0094  0.0259
 3260DPPE   GL160975  21.958  10.865  17.035 -0.0236 -0.3411  0.1525
 3260DPPE   GL260976  21.611  10.856  17.196 -0.0363  0.4865 -0.1191
 3260DPPE   C1A60977  21.859  11.274  17.191  0.0952  0.0528 -0.3665
 3260DPPE   C2A60978  21.508  11.450  17.320  0.0380  0.0045 -0.0401
 3260DPPE   C3A60979  21.184  11.545  17.401  0.1445  0.0450 -0.1532
 3260DPPE   C4A60980  20.914  11.930  17.500  0.1012  0.0854 -0.2917
 3260DPPE   C1B60981  21.403  11.126  16.950  0.2673  0.2288 -0.0924
 3260DPPE   C2B60982  21.309  11.547  16.892 -0.2378  0.0151  0.2037
 3260DPPE   C3B60983  20.978  11.939  16.800  0.0589  0.0237  0.2078
 3260DPPE   C4B60984  20.891  12.399  16.568  0.0996 -0.0039 -0.2993
 3261DPPE   NH360985  10.576  15.469  13.256 -0.0231 -0.0712 -0.2309
 3261DPPE   PO460986  10.568  15.020  12.961 -0.1836  0.2676 -0.1455
 3261DPPE   GL160987  10.969  14.737  13.135 -0.1136 -0.0712 -0.1452
 3261DPPE   GL260988  11.147  14.951  13.098  0.1042 -0.0305  0.1562
 3261DPPE   C1A60989  11.286  14.669  13.505  0.2063 -0.3016  0.1269
 3261DPPE   C2A60990  11.524  14.721  13.910 -0.2288  0.2909  0.1391
 3261DPPE   C3A60991  11.896  14.665  14.108 -0.3404  0.0449 -0.1201
 3261DPPE   C4A60992  12.295  14.740  14.153  0.0109  0.4059  0.0874
 3261DPPE   C1B60993  10.916  15.050  13.526 -0.2287  0.1967  0.1528
 3261DPPE   C2B60994  10.989  14.867  13.941 -0.1163  0.1630  0.1446
 3261DPPE   C3B60995  10.864  15.119  14.269 -0.4109 -0.3876  0.2662
 3261DPPE   C4B60996  11.003  15.295  14.626  0.4382  0.3778 -0.1099
 3262DPPE   NH360997  17.448  10.901  13.478  0.0275  0.2843  0.1634
 3262DPPE   PO460998  17.628  11.221  13.487  0.2313 -0.0829 -0.0017
 3262DPPE   GL160999  17.601  11.626  13.733  0.1149 -0.2697 -0.2038
 3262DPPE   GL261000  17.505  11.952  13.549  0.1829  0.0152  0.0356
 3262DPPE   C1A61001  17.611  11.795  14.161 -0.1760  0.1600 -0.0341
 3262DPPE   C2A61002  17.816  12.129  14.506  0.1168  0.4304 -0.0481
 3262DPPE   C3A61003  17.790  12.198  14.911 -0.2186 -0.0225  0.0373
 3262DPPE   C4A61004  17.910  12.535  15.258  0.0369  0.0348  0.2318
 3262DPPE   C1B61005  17.396  12.120  13.899  0.0936  0.1810  0.1251
 3262DPPE   C2B61006  17.410  12.290  14.306  0.2271  0.1521 -0.0129
 3262DPPE   C3B61007  17.495  12.490  14.683  0.4862 -0.2556 -0.1359
 3262DPPE   C4B61008  17.584  12.879  14.783  0.0458  0.5183  0.2826
 3263DPPE   NH361009   9.532   8.301  14.584  0.2894 -0.0017 -0.0257
 3263DPPE   PO461010   9.595   8.679  14.515 -0.1846 -0.1728 -0.0828
 3263DPPE   GL161011  10.011   8.915  14.685 -0.2848 -0.4589  0.1089
 3263DPPE   GL261012  10.247   8.658  14.906  0.1775 -0.2786  0.4325
 3263DPPE   C1A61013  10.416   9.018  14.624 -0.0499  0.2004 -0.1781
 3263DPPE   C2A61014  10.773   9.066  14.628 -0.1059 -0.0983 -0.2163
 3263DPPE   C3A61015  11.034   8.749  14.740 -0.6106  0.1480 -0.1137
 3263DPPE   C4A61016  11.237   8.387  14.773 -0.0475 -0.0173  0.0732
 3263DPPE   C1B61017  10.574   8.812  15.082 -0.0447  0.0244  0.1017
 3263DPPE   C2B61018  10.939   8.618  15.222  0.0580 -0.2126  0.0269
 3263DPPE   C3B61019  11.249   8.376  15.313 -0.0409  0.0807 -0.3722
 3263DPPE   C4B61020  11.489   8.093  15.602  0.1020  0.1695  0.0308
 3264DPPE   NH361021  16.536  20.301  12.700  0.1568  0.0916  0.1121
 3264DPPE   PO461022  16.601  20.757  12.632  0.1013 -0.1877  0.2672
 3264DPPE   GL161023  16.592  20.754  13.032  0.3401  0.0977  0.6131
 3264DPPE   GL261024  16.502  20.458  13.157 -0.0099 -0.1227 -0.1571
 3264DPPE   C1A61025  16.973  20.677  13.270 -0.0357 -0.1719 -0.0998
 3264DPPE   C2A61026  17.109  20.627  13.613 -0.1805 -0.5696 -0.0461
 3264DPPE   C3A61027  16.941  20.732  13.924  0.0315  0.2810  0.1971
 3264DPPE   C4A61028  16.753  20.648  14.256 -0.1819  0.1747 -0.0733
 3264DPPE   C1B61029  16.556  20.781  13.554  0.0134 -0.2481  0.0616
 3264DPPE   C2B61030  16.452  20.920  13.995 -0.1540 -0.3272  0.1380
 3264DPPE   C3B61031  16.529  21.233  14.345 -0.3342  0.0153  0.0493
 3264DPPE   C4B61032  16.461  21.660  14.500  0.0481  0.3123  0.1556
 3265DPPE   NH361033  19.298  14.761  13.021  0.0847  0.2411 -0.2064
 3265DPPE   PO461034  19.249  15.060  12.659  0.1013 -0.0783  0.1547
 3265DPPE   GL161035  19.043  15.352  13.005  0.1438  0.3202  0.1986
 3265DPPE   GL261036  19.297  15.298  13.230  0.0665  0.2477 -0.1579
 3265DPPE   C1A61037  18.764  15.633  13.245 -0.0963  0.0240  0.0123
 3265DPPE   C2A61038  18.543  16.039  13.445  0.0794 -0.2554  0.0985
 3265DPPE   C3A61039  18.541  16.238  13.851 -0.0120  0.0214  0.1438
 3265DPPE   C4A61040  18.235  16.213  14.228  0.0300 -0.2264 -0.1677
 3265DPPE   C1B61041  19.001  15.305  13.633  0.2569 -0.0727  0.2215
 3265DPPE   C2B61042  18.716  15.327  14.081  0.1409 -0.1240 -0.0298
 3265DPPE   C3B61043  18.802  15.566  14.463 -0.0016  0.0873 -0.0356
 3265DPPE   C4B61044  18.716  15.867  14.652  0.1934 -0.0626  0.0767
 3266DPPE   NH361045  21.298  20.573  14.206  0.1877 -0.1095 -0.0056
 3266DPPE   PO461046  20.925  20.357  14.285 -0.1412 -0.3793 -0.0279
 3266DPPE   GL161047  20.788  20.080  14.729 -0.3674  0.1845 -0.0556
 3266DPPE   GL261048  20.889  20.240  15.078  0.2429 -0.1435  0.4342
 3266DPPE   C1A61049  20.442  19.970  15.048 -0.1649 -0.2846 -0.4698
 3266DPPE   C2A61050  20.066  19.753  15.303  0.1019  0.1605 -0.1315
 3266DPPE   C3A61051  19.701  19.961  15.487 -0.0436  0.3387  0.2220
 3266DPPE   C4A61052  19.455  19.859  15.854 -0.1742 -0.1971  0.0751
 3266DPPE   C1B61053  20.866  20.068  15.496 -0.0457 -0.0807  0.3103
 3266DPPE   C2B61054  20.920  19.570  15.699  0.2979 -0.0075 -0.2654
 3266DPPE   C3B61055  20.683  19.203  15.712 -0.2832 -0.0306  0.0702
 3266DPPE   C4B61056  20.525  18.881  15.974  0.1612 -0.0023  0.0213
 3267DPPE   NH361057   8.477  12.585  13.694 -0.2757 -0.2573  0.0132
 3267DPPE   PO461058   8.593  13.025  13.413 -0.0159 -0.2210 -0.2479
 3267DPPE   GL161059   8.754  12.996  13.861  0.3338  0.1985 -0.0387
 3267DPPE   GL261060   8.716  13.408  14.036  0.1052  0.2182 -0.3585
 3267DPPE   C1A61061   8.692  12.886  14.251  0.0671 -0.0085 -0.1150
 3267DPPE   C2A61062   8.544  12.807  14.577 -0.2489  0.1038  0.1044
 3267DPPE   C3A61063   8.166  12.924  14.826  0.1547  0.4577  0.2815
 3267DPPE   C4A61064   7.837  12.852  15.093  0.2361 -0.0596  0.3648
 3267DPPE   C1B61065   8.531  13.691  14.347 -0.2126  0.1269 -0.1141
 3267DPPE   C2B61066   8.603  13.715  14.746 -0.0949 -0.0673  0.0449
 3267DPPE   C3B61067   8.779  13.899  15.056 -0.3819  0.1940  0.1532
 3267DPPE   C4B61068   8.850  13.812  15.579  0.1272 -0.0442 -0.3091
 3268DPPE   NH361069  18.126  18.071  12.759  0.1773  0.1602  0.1218
 3268DPPE   PO461070  18.180  17.649  12.824  0.0333  0.0318  0.2020
 3268DPPE   GL161071  17.966  17.745  13.168  0.0922  0.2638  0.2978
 3268DPPE   GL261072  17.911  17.985  13.348 -0.3341  0.0868  0.0965
 3268DPPE   C1A61073  17.897  17.518  13.603  0.0172 -0.0325 -0.2657
 3268DPPE   C2A61074  17.730  17.587  14.020  0.0939 -0.1355  0.1633
 3268DPPE   C3A61075  17.833  17.314  14.396  0.1290 -0.0808 -0.2410
 3268DPPE   C4A61076  17.880  16.816  14.366 -0.0178 -0.3375  0.1853
 3268DPPE   C1B61077  17.791  18.067  13.784 -0.1504  0.0205 -0.0456
 3268DPPE   C2B61078  17.276  18.079  13.850 -0.1714  0.1085 -0.2800
 3268DPPE   C3B61079  17.078  17.978  14.225  0.0066  0.2779  0.1621
 3268DPPE   C4B61080  16.726  17.807  14.361 -0.0367 -0.1995  0.0439
 3269DPPE   NH361081  13.978  22.132  13.130  0.1829  0.0971  0.0003
 3269DPPE   PO461082  13.525  22.387  13.176 -0.2211 -0.1762 -0.0770
 3269DPPE   GL161083  13.445  22.289  13.497 -0.4029 -0.2125  0.1337
 3269DPPE   GL261084  13.576  21.992  13.509 -0.1284 -0.3450 -0.1753
 3269DPPE   C1A61085  13.166  22.122  13.785  0.2549 -0.1917 -0.0913
 3269DPPE   C2A61086  13.444  22.056  14.198 -0.2200 -0.2613  0.2675
 3269DPPE   C3A61087  13.426  21.644  14.413 -0.0151  0.1296  0.2023
 3269DPPE   C4A61088  13.007  21.423  14.541  0.4601  0.0619 -0.0506
 3269DPPE   C1B61089  13.786  21.761  13.708 -0.3208 -0.2067  0.0399
 3269DPPE   C2B61090  13.867  21.475  13.977  0.0336  0.3139  0.1029
 3269DPPE   C3B61091  13.870  21.456  14.476 -0.1544 -0.0490  0.0097
 3269DPPE   C4B61092  13.596  21.301  14.781 -0.1552 -0.0818  0.2385
 3270DPPE   NH361093   6.954  20.203  14.057  0.3824 -0.0828  0.1391
 3270DPPE   PO461094   7.225  20.506  13.958  0.1548  0.1285 -0.1320
 3270DPPE   GL161095   7.120  20.801  14.260 -0.1763 -0.1010 -0.0583
 3270DPPE   GL261096   7.072  21.038  14.247 -0.1136  0.1557  0.0430
 3270DPPE   C1A61097   7.027  20.844  14.698  0.1721 -0.2605  0.2097
 3270DPPE   C2A61098   7.268  20.834  15.048  0.2437  0.1066  0.3186
 3270DPPE   C3A61099   7.691  20.578  15.360 -0.0709 -0.2003  0.1256
 3270DPPE   C4A61100   7.991  20.453  15.547  0.0182 -0.0006  0.1327
 3270DPPE   C1B61101   7.129  21.361  14.523  0.1492 -0.0447  0.1353
 3270DPPE   C2B61102   7.323  21.422  14.908  0.0942  0.1551 -0.0909
 3270DPPE   C3B61103   7.090  21.608  15.230  0.2492  0.1334  0.3110
 3270DPPE   C4B61104   7.007  21.647  15.680 -0.1256  0.1633 -0.1696
 3271DPPE   NH361105  23.415  19.080  16.968  0.0027 -0.0518  0.2610
 3271DPPE   PO461106  23.149  19.448  17.032  0.2824 -0.2321 -0.1371
 3271DPPE   GL161107  22.882  19.144  16.959  0.3017 -0.0902  0.0852
 3271DPPE   GL261108  22.636  19.229  17.212 -0.0795 -0.0288 -0.4499
 3271DPPE   C1A61109  22.508  18.931  16.679 -0.0466 -0.0906 -0.1618
 3271DPPE   C2A61110  22.222  18.966  16.369  0.1330 -0.0367 -0.1149
 3271DPPE   C3A61111  21.795  19.021  16.620 -0.3276 -0.0342  0.0588
 3271DPPE   C4A61112  21.628  19.418  16.879 -0.3321  0.0524  0.0658
 3271DPPE   C1B61113  22.210  19.337  17.311 -0.0142  0.0286  0.2311
 3271DPPE   C2B61114  21.802  19.198  17.383 -0.0814  0.2171  0.0961
 3271DPPE   C3B61115  21.506  18.964  16.994 -0.0908  0.0354  0.1570
 3271DPPE   C4B61116  21.470  18.657  16.605  0.1154 -0.0639  0.0697
 3272DPPE   NH361117   5.937   9.195  17.451 -0.2217  0.0381  0.3521
 3272DPPE   PO461118   5.654   9.542  17.268  0.3126  0.2028  0.2213
 3272DPPE   GL161119   6.125   9.679  17.244  0.1270  0.0314  0.3377
 3272DPPE   GL261120   6.312   9.584  16.948  0.1684  0.0169  0.2270
 3272DPPE   C1A61121   6.506   9.724  17.395 -0.0351 -0.1510  0.0523
 3272DPPE   C2A61122   6.363   9.875  17.790  0.0031 -0.0220 -0.2228
 3272DPPE   C3A61123   6.228  10.139  18.098 -0.2465  0.1756  0.1329
 3272DPPE   C4A61124   6.290  10.359  18.416 -0.3491 -0.1405 -0.0311
 3272DPPE   C1B61125   6.797   9.832  16.910 -0.2165  0.1399 -0.0089
 3272DPPE   C2B61126   6.843  10.239  16.981  0.1864 -0.1402  0.0002
 3272DPPE   C3B61127   6.945  10.700  17.092  0.0225  0.1059  0.0423
 3272DPPE   C4B61128   7.197  11.090  17.039  0.3034 -0.2266  0.2359
 3273DPPE   NH361129   8.643  19.298  13.553  0.0574  0.2978  0.0477
 3273DPPE   PO461130   8.956  19.081  13.669  0.1171  0.0973  0.2184
 3273DPPE   GL161131   8.850  18.883  14.004 -0.1416  0.1010  0.2795
 3273DPPE   GL261132   8.951  18.513  13.945 -0.0588 -0.3280  0.2819
 3273DPPE   C1A61133   8.857  18.763  14.450 -0.0266 -0.1735  0.2492
 3273DPPE   C2A61134   8.771  18.873  14.851 -0.2791  0.3205  0.1077
 3273DPPE   C3A61135   9.041  18.583  15.007  0.0303  0.1684 -0.0235
 3273DPPE   C4A61136   9.219  18.283  15.273 -0.3483 -0.4762 -0.2454
 3273DPPE   C1B61137   9.153  18.483  14.193 -0.4783 -0.0180  0.1199
 3273DPPE   C2B61138   9.058  18.290  14.612  0.1953  0.0956  0.1972
 3273DPPE   C3B61139   8.818  18.115  14.944 -0.0779 -0.0929  0.2074
 3273DPPE   C4B61140   8.808  17.900  15.317 -0.1761  0.1945 -0.1632
 3274DPPE   NH361141  19.088  18.396  12.797 -0.0320  0.0206  0.1028
 3274DPPE   PO461142  19.282  17.967  12.735 -0.1524  0.4743  0.0152
 3274DPPE   GL161143  18.972  17.998  13.123  0.0705  0.0186 -0.0701
 3274DPPE   GL261144  19.095  18.298  13.301 -0.1449 -0.1656 -0.0777
 3274DPPE   C1A61145  18.930  17.781  13.562  0.0255  0.2528  0.2776
 3274DPPE   C2A61146  18.685  17.469  13.805 -0.1242  0.2509 -0.1886
 3274DPPE   C3A61147  18.598  17.018  13.876 -0.2158  0.2317  0.0860
 3274DPPE   C4A61148  18.751  16.709  13.948  0.0392 -0.0702 -0.2591
 3274DPPE   C1B61149  19.145  18.184  13.726 -0.1095 -0.0350 -0.4540
 3274DPPE   C2B61150  18.861  17.973  14.092  0.1850  0.4015  0.0595
 3274DPPE   C3B61151  18.482  17.891  14.337  0.1762  0.2301  0.1988
 3274DPPE   C4B61152  18.100  17.708  14.425  0.1732 -0.2723  0.0257
 3275DPPE   NH361153   8.932   9.127  14.197 -0.3442 -0.1585  0.0861
 3275DPPE   PO461154   8.633   9.459  14.173 -0.2748 -0.0760 -0.5408
 3275DPPE   GL161155   9.009   9.763  14.387  0.2988 -0.2722  0.3262
 3275DPPE   GL261156   9.109  10.182  14.170  0.1649 -0.0096 -0.2325
 3275DPPE   C1A61157   9.089   9.949  14.881 -0.2226  0.1693 -0.2576
 3275DPPE   C2A61158   9.309  10.254  15.289 -0.2352 -0.1459  0.0484
 3275DPPE   C3A61159   9.488  10.455  15.647 -0.1543  0.0759  0.1109
 3275DPPE   C4A61160   9.431  10.046  15.873 -0.0938  0.2768  0.1961
 3275DPPE   C1B61161   9.017  10.345  14.557 -0.0122 -0.2831  0.0329
 3275DPPE   C2B61162   9.251  10.512  14.853 -0.1096  0.0531  0.0246
 3275DPPE   C3B61163   9.332  10.768  15.243  0.0305 -0.0083 -0.0297
 3275DPPE   C4B61164   9.164  10.980  15.613  0.1405  0.0194  0.0051
 3276DPPE   NH361165  11.428  17.132  12.714 -0.2104  0.1333  0.2892
 3276DPPE   PO461166  11.101  17.330  12.805  0.3774  0.0794 -0.4413
 3276DPPE   GL161167  11.305  17.548  13.153 -0.0797 -0.3789  0.1155
 3276DPPE   GL261168  11.642  17.805  13.087  0.2707 -0.3996 -0.0834
 3276DPPE   C1A61169  11.428  18.013  13.418  0.0055 -0.0656  0.1603
 3276DPPE   C2A61170  11.594  18.024  13.864  0.3631  0.0674  0.1171
 3276DPPE   C3A61171  11.756  18.111  14.277 -0.1804  0.2972  0.0749
 3276DPPE   C4A61172  11.770  18.111  14.639  0.0750 -0.0248  0.1176
 3276DPPE   C1B61173  11.747  17.593  13.428  0.2201 -0.0029 -0.0136
 3276DPPE   C2B61174  11.960  17.678  13.825 -0.2352 -0.3696 -0.1259
 3276DPPE   C3B61175  12.094  17.636  14.311 -0.1753 -0.0320  0.0862
 3276DPPE   C4B61176  12.032  17.440  14.708  0.1357  0.3226 -0.1138
 3277DPPE   NH361177  18.040  13.430  12.844 -0.1167  0.1896  0.0096
 3277DPPE   PO461178  18.435  13.598  13.049  0.2329  0.0002 -0.4155
 3277DPPE   GL161179  18.096  13.530  13.364 -0.1675 -0.1260 -0.1558
 3277DPPE   GL261180  17.762  13.381  13.312 -0.0855  0.0311  0.0176
 3277DPPE   C1A61181  18.059  13.841  13.708 -0.0912 -0.0775 -0.0181
 3277DPPE   C2A61182  17.853  14.099  13.892 -0.2936 -0.1227  0.0246
 3277DPPE   C3A61183  18.051  14.519  14.063  0.0873  0.1770 -0.0896
 3277DPPE   C4A61184  18.070  14.937  13.850  0.1338 -0.1692 -0.0487
 3277DPPE   C1B61185  17.678  13.216  13.736  0.2577  0.0857  0.1841
 3277DPPE   C2B61186  17.798  12.996  14.047 -0.0008  0.2903 -0.3946
 3277DPPE   C3B61187  17.821  12.647  14.279  0.0027 -0.2296  0.2741
 3277DPPE   C4B61188  17.886  12.273  14.050  0.1898 -0.2240 -0.2756
 3278DPPE   NH361189  11.740  11.761  12.814  0.2139  0.2426  0.2121
 3278DPPE   PO461190  11.473  11.546  13.061  0.0610  0.0520  0.0350
 3278DPPE   GL161191  11.537  11.697  13.411 -0.1711  0.1130  0.0724
 3278DPPE   GL261192  11.914  11.772  13.522  0.1768 -0.0984 -0.2951
 3278DPPE   C1A61193  11.508  11.742  13.832  0.0584 -0.0913  0.1602
 3278DPPE   C2A61194  11.836  11.962  13.935 -0.0291 -0.0549 -0.3004
 3278DPPE   C3A61195  12.136  11.929  14.186 -0.1644 -0.3587  0.1499
 3278DPPE   C4A61196  12.300  11.825  14.518  0.2294 -0.1671  0.0897
 3278DPPE   C1B61197  12.298  11.979  13.567  0.2068 -0.1560  0.0714
 3278DPPE   C2B61198  12.513  12.022  13.894 -0.5869  0.1388  0.0388
 3278DPPE   C3B61199  12.614  12.244  14.286  0.0333  0.0295 -0.0107
 3278DPPE   C4B61200  12.618  12.367  14.621 -0.2671 -0.0337  0.0389
 3279DPPE   NH361201  16.882   6.725  16.393  0.1195  0.0136 -0.0836
 3279DPPE   PO461202  17.248   6.969  16.573 -0.3044  0.2237  0.3431
 3279DPPE   GL161203  17.244   7.343  16.586  0.1580 -0.1123 -0.0879
 3279DPPE   GL261204  17.318   7.678  16.332 -0.0651 -0.0228 -0.0796
 3279DPPE   C1A61205  17.437   7.688  16.832 -0.2355 -0.0954 -0.0760
 3279DPPE   C2A61206  17.308   7.995  17.121 -0.4850  0.1581 -0.0109
 3279DPPE   C3A61207  17.206   7.895  17.537  0.3565  0.1662 -0.2046
 3279DPPE   C4A61208  17.333   7.465  17.786  0.1063  0.0898  0.0305
 3279DPPE   C1B61209  17.148   7.974  16.622 -0.0694  0.0009 -0.2161
 3279DPPE   C2B61210  16.765   8.156  16.460 -0.3984 -0.1352 -0.0098
 3279DPPE   C3B61211  16.436   8.109  16.159  0.2423 -0.0055 -0.0980
 3279DPPE   C4B61212  16.006   7.880  16.129  0.2474  0.0324 -0.6383
 3280DPPE   NH361213  15.530  12.714  17.130  0.2103  0.0924 -0.3744
 3280DPPE   PO461214  15.831  12.333  17.330 -0.3740  0.0991 -0.0927
 3280DPPE   GL161215  15.854  12.412  16.889  0.0181  0.0134  0.1851
 3280DPPE   GL261216  16.042  12.534  16.779  0.0609 -0.1386 -0.2933
 3280DPPE   C1A61217  15.879  12.332  16.343  0.0075  0.0849 -0.0831
 3280DPPE   C2A61218  15.870  12.316  15.886 -0.2129  0.2314 -0.2830
 3280DPPE   C3A61219  16.066  12.226  15.620 -0.0013  0.3005  0.2444
 3280DPPE   C4A61220  15.939  11.991  15.304  0.0409 -0.1190  0.2439
 3280DPPE   C1B61221  16.307  12.715  16.467 -0.1830 -0.0026 -0.2961
 3280DPPE   C2B61222  16.282  12.629  16.094 -0.3129 -0.0823 -0.0866
 3280DPPE   C3B61223  16.545  12.430  15.864 -0.0216 -0.1719 -0.4074
 3280DPPE   C4B61224  16.535  12.352  15.581 -0.0879  0.0023 -0.2252
 3281DPPE   NH361225   9.947  12.507  17.522 -0.0267 -0.2312  0.0863
 3281DPPE   PO461226  10.336  12.639  17.731  0.0378  0.1360 -0.1448
 3281DPPE   GL161227  10.363  12.785  17.330 -0.1065 -0.1401  0.2605
 3281DPPE   GL261228  10.529  13.016  17.309  0.1257  0.0405 -0.0166
 3281DPPE   C1A61229  10.189  12.944  16.950  0.0549 -0.0835  0.0301
 3281DPPE   C2A61230  10.087  12.894  16.572 -0.0016  0.0459 -0.0889
 3281DPPE   C3A61231   9.945  12.788  16.091 -0.0303 -0.0049 -0.1061
 3281DPPE   C4A61232  10.083  12.894  15.890  0.1992 -0.0916 -0.0014
 3281DPPE   C1B61233  10.592  13.235  16.906 -0.2300 -0.1116  0.0927
 3281DPPE   C2B61234  10.527  13.223  16.472 -0.0568 -0.0808 -0.2572
 3281DPPE   C3B61235  10.510  13.104  16.079 -0.0059 -0.1185  0.4073
 3281DPPE   C4B61236  10.456  13.092  15.650 -0.4035  0.1810 -0.1066
 3282DPPE   NH361237   9.026  17.790  17.950  0.1498  0.6735 -0.0501
 3282DPPE   PO461238   9.243  17.409  17.962  0.0500  0.0586  0.1796
 3282DPPE   GL161239   9.115  17.374  17.503 -0.1346 -0.0489 -0.3455
 3282DPPE   GL261240   8.984  17.621  17.488  0.0108 -0.0738  0.4264
 3282DPPE   C1A61241   9.320  17.217  17.158 -0.1386  0.2171 -0.2207
 3282DPPE   C2A61242   9.409  17.200  16.777  0.1072 -0.2936  0.1381
 3282DPPE   C3A61243   9.478  17.212  16.304  0.1358  0.0566  0.0965
 3282DPPE   C4A61244   9.424  17.157  15.906  0.0202  0.1616 -0.0289
 3282DPPE   C1B61245   9.003  17.536  16.980 -0.0703 -0.1810  0.0352
 3282DPPE   C2B61246   9.065  17.554  16.531  0.0339  0.0768  0.2023
 3282DPPE   C3B61247   9.102  17.538  16.079 -0.2883 -0.0040  0.0792
 3282DPPE   C4B61248   9.074  17.599  15.695 -0.0582 -0.0121  0.0807
 3283DPPE   NH361249   8.526  11.637  17.556  0.0712  0.0095 -0.2408
 3283DPPE   PO461250   8.629  11.166  17.699  0.0720 -0.2110 -0.0777
 3283DPPE   GL161251   8.276  11.148  17.403 -0.0149 -0.0957 -0.1615
 3283DPPE   GL261252   8.005  10.949  17.394  0.0527  0.1045  0.2405
 3283DPPE   C1A61253   8.125  11.193  16.956 -0.0190  0.1938  0.0330
 3283DPPE   C2A61254   8.075  10.905  16.734 -0.0323  0.5059  0.2311
 3283DPPE   C3A61255   7.808  10.685  16.568 -0.2146 -0.1435 -0.0953
 3283DPPE   C4A61256   7.649  10.348  16.476 -0.0179 -0.0533  0.1735
 3283DPPE   C1B61257   7.760  10.673  17.598  0.4241  0.2830 -0.0171
 3283DPPE   C2B61258   7.502  10.469  17.457  0.1236 -0.0196 -0.1786
 3283DPPE   C3B61259   7.290  10.103  17.436 -0.3346  0.2058 -0.2505
 3283DPPE   C4B61260   6.956   9.905  17.506 -0.0075 -0.0763  0.0114
 3284DPPE   NH361261  17.764  20.282  17.339 -0.3670 -0.0897 -0.1189
 3284DPPE   PO461262  17.938  20.073  17.008 -0.0129  0.1783  0.4298
 3284DPPE   GL161263  17.792  20.156  16.677  0.2098  0.2499  0.0156
 3284DPPE   GL261264  18.017  20.301  16.499 -0.1736  0.0606 -0.1616
 3284DPPE   C1A61265  17.565  20.211  16.249  0.1643 -0.1599 -0.2127
 3284DPPE   C2A61266  17.591  20.226  15.793 -0.0074  0.1739  0.0810
 3284DPPE   C3A61267  17.735  20.259  15.365 -0.0283 -0.0763  0.0571
 3284DPPE   C4A61268  17.777  20.087  14.991  0.0066  0.1574  0.1516
 3284DPPE   C1B61269  18.113  20.361  16.119 -0.1674  0.2732  0.1176
 3284DPPE   C2B61270  18.180  20.407  15.635  0.0622  0.2163  0.0229
 3284DPPE   C3B61271  18.218  20.476  15.245 -0.2648  0.1563 -0.1093
 3284DPPE   C4B61272  17.969  20.513  14.856  0.2457 -0.0683 -0.0227
 3285DPPE   NH361273  12.718  22.769  16.978  0.2462  0.0743 -0.0626
 3285DPPE   PO461274  12.232  23.015  17.115 -0.0014 -0.1927  0.1827
 3285DPPE   GL161275  12.349  23.066  16.718  0.0820 -0.2739  0.0416
 3285DPPE   GL261276  12.530  22.773  16.504  0.2309 -0.0309 -0.0207
 3285DPPE   C1A61277  12.135  23.019  16.401 -0.2379 -0.1123  0.0917
 3285DPPE   C2A61278  12.074  23.027  16.013 -0.0013 -0.2849 -0.2647
 3285DPPE   C3A61279  11.776  23.053  15.670  0.1840  0.1032 -0.2291
 3285DPPE   C4A61280  11.558  23.312  15.427 -0.1625 -0.1049 -0.1099
 3285DPPE   C1B61281  12.473  22.777  16.074  0.0318 -0.1018  0.1265
 3285DPPE   C2B61282  12.513  22.873  15.679 -0.0833 -0.1362 -0.0895
 3285DPPE   C3B61283  12.701  23.153  15.329 -0.0201  0.0737 -0.0772
 3285DPPE   C4B61284  12.682  23.075  14.924  0.1212  0.3167 -0.3668
 3286DPPE   NH361285  16.453  24.681  16.651 -0.1680  0.1709  0.5467
 3286DPPE   PO461286  16.116  24.898  16.722 -0.1481 -0.0280  0.0869
 3286DPPE   GL161287  16.358  25.177  16.742 -0.0336 -0.2694  0.1481
 3286DPPE   GL261288  16.080  25.429  16.614 -0.0903 -0.0989 -0.0189
 3286DPPE   C1A61289  16.421  25.585  16.946  0.0428 -0.2205  0.0950
 3286DPPE   C2A61290  16.751  25.680  16.743 -0.4217 -0.1788  0.2897
 3286DPPE   C3A61291  17.039  25.950  16.700  0.1661 -0.1129 -0.0284
 3286DPPE   C4A61292  17.212  26.309  16.461 -0.4105 -0.1388 -0.2539
 3286DPPE   C1B61293  16.157  25.811  16.605  0.2380 -0.1017 -0.3092
 3286DPPE   C2B61294  16.316  26.156  16.313  0.2098  0.1518 -0.0447
 3286DPPE   C3B61295  16.408  26.073  15.907 -0.1349 -0.0729 -0.1230
 3286DPPE   C4B61296  16.245  26.267  15.501  0.0921 -0.1402  0.0060
 3287DPPE   NH361297   7.199  20.611  17.889 -0.0147 -0.0603  0.1112
 3287DPPE   PO461298   6.925  20.798  17.926 -0.2654 -0.1013 -0.0565
 3287DPPE   GL161299   7.013  20.955  17.495 -0.3360 -0.0521 -0.0368
 3287DPPE   GL261300   7.040  21.260  17.518 -0.1480 -0.1533 -0.2874
 3287DPPE   C1A61301   7.095  20.703  17.115 -0.0077 -0.2078  0.4369
 3287DPPE   C2A61302   6.780  20.804  16.728 -0.0676 -0.3714 -0.1356
 3287DPPE   C3A61303   6.823  20.657  16.255  0.1443  0.0684  0.0049
 3287DPPE   C4A61304   6.873  20.512  15.848 -0.4741 -0.3244  0.1529
 3287DPPE   C1B61305   6.895  21.524  17.138  0.0402 -0.3129 -0.0186
 3287DPPE   C2B61306   6.890  21.642  16.676 -0.2200 -0.1063  0.3687
 3287DPPE   C3B61307   7.141  21.991  16.377  0.2099 -0.2404 -0.3099
 3287DPPE   C4B61308   7.170  22.066  15.977  0.1090  0.4187 -0.0722
 3288DPPE   NH361309  15.097  21.859  17.426  0.2313  0.2356  0.0831
 3288DPPE   PO461310  15.425  21.565  17.555  0.3753 -0.2250  0.0968
 3288DPPE   GL161311  15.318  21.540  17.069 -0.0782  0.3042 -0.1089
 3288DPPE   GL261312  15.430  21.854  16.944 -0.1837  0.3199  0.1200
 3288DPPE   C1A61313  15.102  21.468  16.676  0.0943 -0.1573 -0.0791
 3288DPPE   C2A61314  15.172  21.473  16.167 -0.2032  0.0565  0.3723
 3288DPPE   C3A61315  15.149  21.520  15.784  0.0605 -0.0717 -0.0307
 3288DPPE   C4A61316  15.053  21.599  15.352 -0.0233 -0.2693 -0.0192
 3288DPPE   C1B61317  15.501  21.819  16.477  0.1946  0.3063 -0.1060
 3288DPPE   C2B61318  15.607  21.798  15.995 -0.0773  0.0430 -0.0472
 3288DPPE   C3B61319  15.540  21.712  15.540  0.1992 -0.1222 -0.0660
 3288DPPE   C4B61320  15.562  21.717  15.063  0.2794  0.3435  0.0589
 3289DPPE   NH361321  14.701  14.158  16.980 -0.2740 -0.0510 -0.0958
 3289DPPE   PO461322  15.112  14.156  17.012 -0.3665 -0.0416  0.1051
 3289DPPE   GL161323  15.255  14.020  16.624 -0.1146 -0.2481  0.2769
 3289DPPE   GL261324  15.498  14.149  16.334 -0.0522 -0.1370 -0.0116
 3289DPPE   C1A61325  15.076  13.895  16.246 -0.0312  0.0171  0.1893
 3289DPPE   C2A61326  15.043  13.907  15.807  0.1811  0.1665 -0.3909
 3289DPPE   C3A61327  15.053  13.897  15.407 -0.0558  0.2141 -0.2285
 3289DPPE   C4A61328  15.131  14.073  15.082  0.2734 -0.2161 -0.2362
 3289DPPE   C1B61329  15.513  14.100  15.990  0.1796 -0.4104 -0.1005
 3289DPPE   C2B61330  15.539  14.204  15.501  0.2325 -0.0361  0.0242
 3289DPPE   C3B61331  15.592  14.181  15.185  0.0883 -0.1914 -0.0093
 3289DPPE   C4B61332  15.653  14.347  14.801  0.1604 -0.1864 -0.0298
 3290DPPE   NH361333  12.441  17.319  17.043  0.1293 -0.0233  0.1588
 3290DPPE   PO461334  12.670  16.923  17.136 -0.1824  0.2624 -0.1440
 3290DPPE   GL161335  12.496  16.835  16.801  0.1251  0.0048  0.2747
 3290DPPE   GL261336  12.753  16.585  16.695 -0.1205  0.0868 -0.1168
 3290DPPE   C1A61337  12.165  16.611  16.592 -0.3065 -0.1734  0.1657
 3290DPPE   C2A61338  12.043  16.498  16.103 -0.0715  0.1173 -0.0162
 3290DPPE   C3A61339  11.971  16.329  15.731 -0.0745  0.2500  0.2045
 3290DPPE   C4A61340  12.075  16.401  15.258 -0.2304  0.1749  0.1798
 3290DPPE   C1B61341  12.631  16.732  16.257  0.0290  0.1825  0.0241
 3290DPPE   C2B61342  12.459  16.626  15.806  0.2275  0.2832 -0.0143
 3290DPPE   C3B61343  12.490  16.657  15.383  0.1471 -0.1221 -0.0259
 3290DPPE   C4B61344  12.528  16.646  14.959  0.3704  0.0400  0.1550
 3291DPPE   NH361345   7.618  22.908  18.356  0.0576  0.0824 -0.0249
 3291DPPE   PO461346   7.889  22.866  18.751 -0.2664 -0.1451  0.0039
 3291DPPE   GL161347   7.488  23.073  18.829 -0.0806  0.2232 -0.2328
 3291DPPE   GL261348   7.333  22.967  19.049 -0.0366  0.4234  0.0748
 3291DPPE   C1A61349   7.254  23.392  18.681  0.3787 -0.0588  0.2754
 3291DPPE   C2A61350   7.137  23.863  18.521 -0.0241  0.3130 -0.1548
 3291DPPE   C3A61351   7.049  24.095  18.188  0.0533 -0.3212 -0.2755
 3291DPPE   C4A61352   6.554  24.186  17.987 -0.2923 -0.1138 -0.0295
 3291DPPE   C1B61353   6.909  22.909  18.855 -0.1448  0.3469 -0.2246
 3291DPPE   C2B61354   6.873  23.092  18.467 -0.2159 -0.2506 -0.0867
 3291DPPE   C3B61355   7.072  23.020  17.965  0.1468 -0.1372 -0.0191
 3291DPPE   C4B61356   6.861  23.238  17.609  0.1735 -0.1542 -0.2882
 3292DPPE   NH361357  18.947  12.771  18.020  0.1308  0.0214  0.2473
 3292DPPE   PO461358  18.887  12.938  17.556 -0.1702 -0.6924 -0.0013
 3292DPPE   GL161359  19.003  12.917  17.233 -0.0064 -0.2102  0.2015
 3292DPPE   GL261360  19.343  12.849  17.278 -0.0439 -0.0561  0.3673
 3292DPPE   C1A61361  19.102  13.024  16.685  0.2628  0.0397 -0.1757
 3292DPPE   C2A61362  19.037  13.049  16.200 -0.1639 -0.0708 -0.0061
 3292DPPE   C3A61363  19.141  13.183  15.810  0.2111  0.0861  0.1125
 3292DPPE   C4A61364  18.995  13.368  15.392 -0.3025 -0.0761  0.1166
 3292DPPE   C1B61365  19.604  12.850  16.796  0.1732 -0.0100  0.1349
 3292DPPE   C2B61366  19.616  12.693  16.429 -0.0693  0.2742 -0.1596
 3292DPPE   C3B61367  19.645  12.343  16.273  0.3086  0.2484  0.1536
 3292DPPE   C4B61368  19.728  11.981  16.065 -0.1847  0.2108  0.0965
 3293DPPE   NH361369  15.622  16.405  17.276 -0.1440  0.0968  0.1546
 3293DPPE   PO461370  15.517  16.776  17.165  0.1119  0.1726  0.3567
 3293DPPE   GL161371  15.449  16.867  16.664  0.1913  0.0840  0.2742
 3293DPPE   GL261372  15.678  17.062  16.567 -0.1426  0.1471  0.2933
 3293DPPE   C1A61373  15.283  16.897  16.257  0.0519 -0.0904 -0.0830
 3293DPPE   C2A61374  15.300  17.042  15.879 -0.0135 -0.0355  0.0354
 3293DPPE   C3A61375  15.148  17.044  15.456 -0.2162  0.0741 -0.0480
 3293DPPE   C4A61376  15.182  17.172  15.088 -0.0036 -0.4523 -0.1883
 3293DPPE   C1B61377  15.705  17.226  16.223  0.0827 -0.2177  0.3585
 3293DPPE   C2B61378  15.681  17.313  15.822 -0.0463 -0.0131 -0.1299
 3293DPPE   C3B61379  15.655  17.286  15.413 -0.0989 -0.0647 -0.0676
 3293DPPE   C4B61380  15.679  17.294  14.968 -0.0994  0.1098  0.0095
 3294DPPE   NH361381  12.471  20.508  17.627  0.1341  0.1950 -0.2548
 3294DPPE   PO461382  12.874  20.663  17.365 -0.0683 -0.1393 -0.1394
 3294DPPE   GL161383  12.966  20.580  16.943  0.0534 -0.3430  0.0551
 3294DPPE   GL261384  13.335  20.603  16.880 -0.3367  0.4004  0.0169
 3294DPPE   C1A61385  12.919  20.347  16.454  0.3381 -0.0601 -0.0095
 3294DPPE   C2A61386  12.827  20.397  16.028 -0.2570  0.2627 -0.0715
 3294DPPE   C3A61387  12.826  20.408  15.648 -0.1724  0.2162 -0.0443
 3294DPPE   C4A61388  12.743  20.281  15.243  0.0766 -0.1323 -0.1459
 3294DPPE   C1B61389  13.394  20.608  16.430 -0.0100  0.3485 -0.1327
 3294DPPE   C2B61390  13.337  20.606  15.981 -0.1414 -0.2103 -0.2466
 3294DPPE   C3B61391  13.296  20.546  15.619 -0.1234  0.2059  0.1464
 3294DPPE   C4B61392  13.220  20.591  15.217 -0.1180  0.1083 -0.1093
 3295DPPE   NH361393  19.818  14.905  17.001  0.0247 -0.0651 -0.3045
 3295DPPE   PO461394  19.595  14.741  16.737  0.2423  0.2028 -0.2588
 3295DPPE   GL161395  19.458  14.805  16.338 -0.0155 -0.1445 -0.2482
 3295DPPE   GL261396  19.593  14.485  16.266 -0.1468 -0.1238  0.0777
 3295DPPE   C1A61397  19.443  14.744  15.818  0.0252 -0.0583  0.1742
 3295DPPE   C2A61398  19.432  14.681  15.399 -0.2074 -0.0483 -0.0905
 3295DPPE   C3A61399  19.670  14.985  15.068 -0.2253 -0.1619 -0.1430
 3295DPPE   C4A61400  19.992  14.952  14.819 -0.2178 -0.0289  0.3907
 3295DPPE   C1B61401  19.879  14.380  16.017  0.3090  0.2006  0.1817
 3295DPPE   C2B61402  20.009  14.554  15.626  0.2513  0.0722  0.0709
 3295DPPE   C3B61403  20.020  14.515  15.149  0.0730  0.1681 -0.0665
 3295DPPE   C4B61404  19.901  14.355  14.796 -0.0799 -0.0569  0.0629
 3296DPPE   NH361405  12.731  12.290  17.465 -0.1038 -0.0459 -0.0964
 3296DPPE   PO461406  12.888  12.355  17.053 -0.0708 -0.3745 -0.3375
 3296DPPE   GL161407  12.813  12.542  16.727  0.1639  0.0811 -0.0962
 3296DPPE   GL261408  13.136  12.555  16.594 -0.3314  0.1220 -0.1914
 3296DPPE   C1A61409  12.744  12.795  16.507  0.1120 -0.1384  0.3782
 3296DPPE   C2A61410  12.725  12.860  15.980 -0.2085 -0.1172 -0.1640
 3296DPPE   C3A61411  12.765  12.891  15.575 -0.0179 -0.0192 -0.1057
 3296DPPE   C4A61412  12.782  12.843  15.148 -0.3556  0.0059  0.5563
 3296DPPE   C1B61413  13.162  12.472  16.130 -0.2363 -0.0700 -0.2689
 3296DPPE   C2B61414  13.252  12.426  15.715  0.0731 -0.1139  0.2255
 3296DPPE   C3B61415  13.271  12.499  15.371 -0.0908  0.1079  0.1286
 3296DPPE   C4B61416  13.213  12.595  14.950 -0.0528 -0.0195  0.1168
 3297DPPE   NH361417  15.981  12.696  17.670 -0.5481 -0.0320 -0.1313
 3297DPPE   PO461418  15.994  12.877  17.223 -0.0760  0.2164  0.0935
 3297DPPE   GL161419  16.192  13.091  17.034 -0.0185 -0.0492  0.2131
 3297DPPE   GL261420  16.489  12.918  17.028  0.1246 -0.1145  0.1681
 3297DPPE   C1A61421  16.330  13.212  16.576 -0.3538 -0.1543  0.2303
 3297DPPE   C2A61422  16.324  13.158  16.166 -0.0177 -0.0595 -0.2117
 3297DPPE   C3A61423  16.313  13.064  15.703 -0.2045  0.1485  0.0306
 3297DPPE   C4A61424  16.296  13.122  15.225 -0.1941  0.1999  0.0829
 3297DPPE   C1B61425  16.806  12.929  16.720  0.0493  0.1155 -0.0936
 3297DPPE   C2B61426  16.769  12.833  16.260  0.1051 -0.3587  0.0078
 3297DPPE   C3B61427  16.744  12.849  15.819  0.1635  0.3007  0.2839
 3297DPPE   C4B61428  16.737  12.772  15.391 -0.2044 -0.3256 -0.2328
 3298DPPE   NH361429  17.859  14.042  17.260  0.0689 -0.3695  0.2281
 3298DPPE   PO461430  17.594  14.489  17.217  0.0754  0.0315  0.0160
 3298DPPE   GL161431  17.370  14.578  16.661 -0.0230  0.2957  0.1521
 3298DPPE   GL261432  17.649  14.754  16.496 -0.1517  0.1844 -0.1726
 3298DPPE   C1A61433  17.325  14.523  16.212  0.1649 -0.0355  0.0934
 3298DPPE   C2A61434  17.329  14.698  15.826 -0.0660 -0.0788  0.0353
 3298DPPE   C3A61435  17.354  14.530  15.440 -0.0366 -0.0609  0.0450
 3298DPPE   C4A61436  17.255  14.456  15.053  0.1602 -0.1966  0.1780
 3298DPPE   C1B61437  17.845  14.896  16.168  0.0341  0.0612 -0.1406
 3298DPPE   C2B61438  17.902  14.852  15.718  0.0973 -0.0190  0.1787
 3298DPPE   C3B61439  17.739  14.843  15.273  0.0612  0.0939  0.1504
 3298DPPE   C4B61440  17.717  14.712  14.839  0.2240  0.2974 -0.0008
 3299DPPE   NH361441  15.477  17.240  17.017 -0.1133 -0.2188 -0.0236
 3299DPPE   PO461442  15.081  17.536  17.012  0.0985 -0.1199 -0.1670
 3299DPPE   GL161443  15.357  17.675  16.708  0.0780 -0.1672 -0.3793
 3299DPPE   GL261444  15.327  17.458  16.447 -0.2569 -0.0547 -0.0887
 3299DPPE   C1A61445  15.337  18.008  16.395 -0.0987 -0.1100 -0.1520
 3299DPPE   C2A61446  15.277  18.159  15.978  0.1051  0.4747 -0.3114
 3299DPPE   C3A61447  15.196  18.063  15.552  0.3293 -0.1000  0.2963
 3299DPPE   C4A61448  15.302  18.115  15.103 -0.3392  0.0398  0.0147
 3299DPPE   C1B61449  15.195  17.521  16.070  0.0329 -0.0202  0.2366
 3299DPPE   C2B61450  15.210  17.541  15.605  0.0180  0.0646 -0.0575
 3299DPPE   C3B61451  15.246  17.641  15.133  0.3989  0.1005  0.1535
 3299DPPE   C4B61452  15.140  17.574  14.625  0.1686 -0.0255  0.0328
 3300DPPE   NH361453   9.253  18.937  18.620 -0.1310  0.1164  0.0258
 3300DPPE   PO461454   9.295  19.054  18.205  0.0736  0.0210  0.0460
 3300DPPE   GL161455   9.152  18.853  17.710 -0.1575 -0.1744 -0.1924
 3300DPPE   GL261456   8.973  18.552  17.572 -0.0624  0.2546 -0.0533
 3300DPPE   C1A61457   8.794  18.963  17.287  0.1297  0.3560 -0.0838
 3300DPPE   C2A61458   8.803  18.910  16.980 -0.1725  0.0279  0.1429
 3300DPPE   C3A61459   8.819  18.880  16.488  0.2440 -0.0021 -0.1517
 3300DPPE   C4A61460   8.806  18.973  16.046 -0.2323 -0.0125  0.1546
 3300DPPE   C1B61461   9.256  18.563  17.219 -0.1476 -0.4745 -0.1196
 3300DPPE   C2B61462   9.228  18.605  16.818  0.2169  0.0730 -0.0704
 3300DPPE   C3B61463   9.169  18.535  16.365 -0.1259 -0.1142 -0.1886
 3300DPPE   C4B61464   9.176  18.570  15.994 -0.0824 -0.0401  0.1067
 3301DPPE   NH361465   9.386  20.522  17.716  0.4059  0.0177 -0.0079
 3301DPPE   PO461466   8.987  20.704  17.739 -0.2828  0.0121 -0.1847
 3301DPPE   GL161467   8.997  20.546  17.396  0.3009 -0.0077  0.0877
 3301DPPE   GL261468   8.938  20.935  17.291  0.2008  0.1074 -0.2164
 3301DPPE   C1A61469   8.927  20.492  16.992 -0.1039 -0.2422  0.2129
 3301DPPE   C2A61470   8.909  20.434  16.574  0.1367 -0.1996  0.0676
 3301DPPE   C3A61471   8.731  20.509  16.103 -0.2179 -0.1755  0.0603
 3301DPPE   C4A61472   8.726  20.432  15.674 -0.1286  0.0315 -0.2759
 3301DPPE   C1B61473   8.887  21.022  16.835 -0.0487  0.1585 -0.0368
 3301DPPE   C2B61474   8.896  20.938  16.436 -0.0085 -0.1279  0.1032
 3301DPPE   C3B61475   8.770  20.997  15.933 -0.0325 -0.1713  0.1013
 3301DPPE   C4B61476   8.905  20.886  15.450 -0.1392  0.0874 -0.0532
 3302DPPE   NH361477  16.662  23.445  17.283 -0.1425  0.2061  0.4147
 3302DPPE   PO461478  16.214  23.401  17.017 -0.1592 -0.0046  0.4079
 3302DPPE   GL161479  16.329  23.437  16.652  0.4050  0.0347 -0.2063
 3302DPPE   GL261480  16.689  23.340  16.660 -0.1013 -0.1932  0.2435
 3302DPPE   C1A61481  16.233  23.535  16.225  0.1276 -0.2971 -0.1605
 3302DPPE   C2A61482  16.265  23.402  15.726 -0.1374  0.2325  0.0349
 3302DPPE   C3A61483  16.566  23.389  15.381 -0.0668  0.1301 -0.0155
 3302DPPE   C4A61484  16.765  23.293  15.035  0.0421  0.0544  0.1601
 3302DPPE   C1B61485  16.673  23.246  16.225  0.0884  0.2095  0.1631
 3302DPPE   C2B61486  16.855  23.370  15.741 -0.0316  0.1905 -0.2437
 3302DPPE   C3B61487  17.197  23.367  15.380 -0.2552  0.1234  0.2353
 3302DPPE   C4B61488  17.697  23.280  15.378  0.1259 -0.2323  0.3192
 3303DPPE   NH361489  13.208  16.750  16.816 -0.2862  0.1453 -0.0400
 3303DPPE   PO461490  13.050  17.118  16.850 -0.1211  0.1214  0.1730
 3303DPPE   GL161491  13.053  16.938  16.395  0.1709 -0.0990  0.0808
 3303DPPE   GL261492  13.276  16.690  16.311 -0.0279 -0.1306 -0.2082
 3303DPPE   C1A61493  12.966  16.990  15.982 -0.0184  0.2050 -0.0957
 3303DPPE   C2A61494  12.911  16.823  15.475  0.0871 -0.2807  0.3869
 3303DPPE   C3A61495  12.984  16.909  15.020  0.2317 -0.1456 -0.0191
 3303DPPE   C4A61496  13.113  17.104  14.662 -0.1854 -0.3440 -0.1064
 3303DPPE   C1B61497  13.378  16.622  15.872  0.2548 -0.1160  0.1287
 3303DPPE   C2B61498  13.405  16.579  15.432 -0.1315 -0.1968  0.0832
 3303DPPE   C3B61499  13.421  16.751  15.013 -0.1113 -0.1364 -0.2999
 3303DPPE   C4B61500  13.406  16.586  14.650  0.2530  0.0679 -0.0620
 3304DPPE   NH361501  10.473  21.373  18.132 -0.0752 -0.4429 -0.0311
 3304DPPE   PO461502  10.429  21.522  17.731  0.2736  0.4120  0.0232
 3304DPPE   GL161503  10.514  21.427  17.313 -0.1949 -0.0869 -0.1017
 3304DPPE   GL261504  10.458  21.119  17.132  0.3267 -0.1434 -0.0637
 3304DPPE   C1A61505  10.405  21.700  16.954  0.1583 -0.1361  0.0089
 3304DPPE   C2A61506  10.251  21.597  16.488 -0.0875 -0.0913  0.0556
 3304DPPE   C3A61507  10.214  21.488  15.959 -0.1570 -0.1256  0.0397
 3304DPPE   C4A61508  10.194  21.532  15.489 -0.0231  0.1905 -0.2696
 3304DPPE   C1B61509  10.340  21.049  16.592  0.0270 -0.1403  0.1666
 3304DPPE   C2B61510  10.232  21.077  16.144  0.1237  0.1991  0.0594
 3304DPPE   C3B61511  10.214  21.003  15.693 -0.1240  0.3811 -0.2772
 3304DPPE   C4B61512  10.418  20.963  15.293  0.0799  0.0293  0.1367
 3305DPPE   NH361513  18.207  11.347  17.804  0.0580  0.0469  0.0694
 3305DPPE   PO461514  18.255  11.784  17.532 -0.2277  0.1618 -0.3537
 3305DPPE   GL161515  18.645  11.575  17.704 -0.0567 -0.0750 -0.2064
 3305DPPE   GL261516  18.759  11.475  18.000 -0.3375  0.0235  0.2317
 3305DPPE   C1A61517  19.150  11.422  17.722 -0.2297  0.0772  0.0752
 3305DPPE   C2A61518  19.533  11.241  17.677  0.3316 -0.0882  0.1936
 3305DPPE   C3A61519  19.787  11.368  17.335  0.1750  0.0940  0.4051
 3305DPPE   C4A61520  19.850  11.357  16.815  0.2566  0.0570  0.0957
 3305DPPE   C1B61521  18.845  11.268  18.418 -0.0523  0.0904 -0.2636
 3305DPPE   C2B61522  19.062  10.956  18.579 -0.0451 -0.0428  0.0383
 3305DPPE   C3B61523  19.114  10.626  18.763 -0.0662 -0.0434 -0.0196
 3305DPPE   C4B61524  19.296  10.395  19.108 -0.1405  0.2991  0.0340
 3306DPPE   NH361525  16.368  18.137  17.075  0.0649  0.1832 -0.0978
 3306DPPE   PO461526  16.626  17.868  16.861  0.1644 -0.1086  0.0752
 3306DPPE   GL161527  16.675  17.881  16.420 -0.1217  0.4006 -0.1912
 3306DPPE   GL261528  16.581  18.188  16.182 -0.2818 -0.0609 -0.4866
 3306DPPE   C1A61529  16.602  17.732  15.980 -0.3455  0.1609 -0.0943
 3306DPPE   C2A61530  16.615  17.732  15.621 -0.0092 -0.1382 -0.1120
 3306DPPE   C3A61531  16.648  17.745  15.249  0.0309  0.0745 -0.0514
 3306DPPE   C4A61532  16.488  17.671  14.790  0.2804 -0.0089  0.0151
 3306DPPE   C1B61533  16.570  18.239  15.762  0.1488 -0.1399  0.1198
 3306DPPE   C2B61534  16.618  18.288  15.254  0.1217  0.0290 -0.0553
 3306DPPE   C3B61535  16.460  18.343  14.748  0.0759 -0.0575  0.0366
 3306DPPE   C4B61536  16.551  18.298  14.297  0.1334 -0.0171  0.1202
 3307DPPE   NH361537  18.426  19.751  17.079  0.0843 -0.1215 -0.1909
 3307DPPE   PO461538  18.659  19.255  17.112 -0.1283 -0.2562  0.1403
 3307DPPE   GL161539  18.742  19.403  16.750  0.0096 -0.2192 -0.0921
 3307DPPE   GL261540  18.578  19.562  16.632 -0.1717  0.0920  0.0224
 3307DPPE   C1A61541  19.053  19.501  16.424  0.2007  0.1169  0.0255
 3307DPPE   C2A61542  19.493  19.733  16.414  0.1009  0.0396 -0.0423
 3307DPPE   C3A61543  19.777  19.842  16.708  0.1529  0.0677 -0.2620
 3307DPPE   C4A61544  20.056  19.926  16.737 -0.1283 -0.0157  0.0544
 3307DPPE   C1B61545  18.541  19.638  16.163 -0.0313  0.0995 -0.0229
 3307DPPE   C2B61546  18.616  19.742  15.639 -0.0109 -0.3009 -0.0025
 3307DPPE   C3B61547  18.960  19.785  15.437 -0.1908 -0.2935 -0.2507
 3307DPPE   C4B61548  19.275  19.979  15.036  0.0461  0.0028 -0.0551
 3308DPPE   NH361549  12.400  21.434  17.575 -0.0658  0.1479 -0.0237
 3308DPPE   PO461550  12.623  21.885  17.671 -0.0354  0.1614  0.1149
 3308DPPE   GL161551  12.350  21.836  17.291  0.2040 -0.1006  0.2708
 3308DPPE   GL261552  12.290  22.010  17.014 -0.1041 -0.0633  0.0239
 3308DPPE   C1A61553  12.200  21.505  16.913  0.0860  0.3387  0.0582
 3308DPPE   C2A61554  12.066  21.477  16.540  0.2396 -0.0338 -0.0045
 3308DPPE   C3A61555  12.090  21.427  16.143 -0.2377 -0.0253 -0.0253
 3308DPPE   C4A61556  11.969  21.386  15.627 -0.2435 -0.0451  0.1764
 3308DPPE   C1B61557  12.194  21.941  16.581 -0.2500  0.0926 -0.0334
 3308DPPE   C2B61558  12.050  21.950  16.191 -0.1627 -0.1029 -0.2883
 3308DPPE   C3B61559  11.996  21.890  15.771 -0.0456  0.1371  0.0277
 3308DPPE   C4B61560  11.935  21.930  15.248  0.1054 -0.0976  0.0631
 3309DPPE   NH361561   9.430  13.877  17.528  0.0612 -0.0790  0.0322
 3309DPPE   PO461562   9.804  13.964  17.559 -0.3243 -0.2532 -0.0548
 3309DPPE   GL161563   9.964  14.116  17.219  0.0209  0.0688 -0.1383
 3309DPPE   GL261564  10.264  14.056  17.149 -0.0762 -0.0073 -0.2389
 3309DPPE   C1A61565   9.856  14.321  16.953  0.0017  0.2748  0.3201
 3309DPPE   C2A61566   9.713  14.316  16.627 -0.0795 -0.0626 -0.1692
 3309DPPE   C3A61567   9.587  14.167  16.186  0.1593  0.1806 -0.0007
 3309DPPE   C4A61568   9.238  14.030  15.894  0.1189 -0.0579 -0.0076
 3309DPPE   C1B61569  10.175  14.022  16.708  0.1551  0.1375  0.0024
 3309DPPE   C2B61570  10.147  14.003  16.310  0.0126  0.1184  0.0651
 3309DPPE   C3B61571   9.990  13.947  15.971  0.1592  0.0487  0.2896
 3309DPPE   C4B61572   9.941  14.030  15.424  0.1072  0.0641 -0.1283
 3310DPPE   NH361573  19.029  15.659  16.530  0.2624 -0.2121  0.1925
 3310DPPE   PO461574  18.619  15.953  16.698 -0.1583 -0.2708  0.2438
 3310DPPE   GL161575  18.549  15.793  16.260 -0.0656  0.0863  0.2236
 3310DPPE   GL261576  18.213  15.581  16.323  0.4175  0.2412 -0.1642
 3310DPPE   C1A61577  18.711  15.753  15.801  0.2854 -0.0404  0.0348
 3310DPPE   C2A61578  18.969  15.747  15.448 -0.1040 -0.0139 -0.1921
 3310DPPE   C3A61579  19.138  15.969  15.072 -0.3767  0.2943 -0.2198
 3310DPPE   C4A61580  18.998  16.464  15.067  0.1232  0.0691 -0.1042
 3310DPPE   C1B61581  18.248  15.648  15.851 -0.0501 -0.0784  0.1010
 3310DPPE   C2B61582  18.411  15.567  15.457 -0.0355 -0.1890 -0.1256
 3310DPPE   C3B61583  18.391  15.566  15.062 -0.4003 -0.0627  0.2775
 3310DPPE   C4B61584  18.518  15.267  14.710  0.2384 -0.2075 -0.0578
 3311DPPE   NH361585  17.613  16.148  16.905 -0.0091  0.1219  0.2787
 3311DPPE   PO461586  17.845  16.506  16.759 -0.2042 -0.1718 -0.0831
 3311DPPE   GL161587  17.753  16.577  16.407 -0.0164  0.1483  0.0241
 3311DPPE   GL261588  17.533  16.738  16.289  0.2581  0.3036  0.0826
 3311DPPE   C1A61589  17.810  16.372  16.000 -0.3186  0.0877 -0.2250
 3311DPPE   C2A61590  18.016  16.412  15.640  0.1768  0.6394  0.0690
 3311DPPE   C3A61591  17.948  16.532  15.181 -0.0992  0.2324 -0.1635
 3311DPPE   C4A61592  17.908  16.284  14.702  0.0996  0.5382 -0.1063
 3311DPPE   C1B61593  17.429  16.691  15.857 -0.0996 -0.1649  0.3869
 3311DPPE   C2B61594  17.478  16.588  15.408 -0.0448 -0.1645  0.0339
 3311DPPE   C3B61595  17.509  16.675  14.997 -0.3185 -0.1906 -0.1108
 3311DPPE   C4B61596  17.379  16.707  14.614  0.1592 -0.2780  0.3069
 3312DPPE   NH361597  13.014  24.119  17.126 -0.0318  0.2646 -0.2830
 3312DPPE   PO461598  13.305  24.406  17.278 -0.3671  0.0993  0.0811
 3312DPPE   GL161599  13.245  24.483  16.867 -0.1640  0.2454 -0.0782
 3312DPPE   GL261600  12.953  24.634  16.979 -0.3816  0.2591 -0.1314
 3312DPPE   C1A61601  13.021  24.346  16.462 -0.1124  0.0719 -0.2398
 3312DPPE   C2A61602  12.940  24.645  16.131 -0.1248  0.5727 -0.0995
 3312DPPE   C3A61603  13.154  24.758  15.743 -0.1628  0.0260 -0.1291
 3312DPPE   C4A61604  13.028  24.970  15.391 -0.2362  0.0087  0.3934
 3312DPPE   C1B61605  12.880  24.831  16.664  0.5317  0.0891 -0.3721
 3312DPPE   C2B61606  13.115  25.005  16.359 -0.1045 -0.0982 -0.0056
 3312DPPE   C3B61607  13.467  24.969  16.060  0.0803 -0.1830  0.4215
 3312DPPE   C4B61608  13.532  25.024  15.602 -0.1542 -0.2957 -0.0033
 3313DPPE   NH361609  19.393  12.541  18.134  0.1455  0.0946  0.1398
 3313DPPE   PO461610  19.375  12.608  17.706 -0.1281 -0.2325 -0.0703
 3313DPPE   GL161611  19.625  12.472  17.363 -0.2391  0.0728 -0.0114
 3313DPPE   GL261612  19.433  12.246  17.237 -0.0941 -0.1970 -0.0482
 3313DPPE   C1A61613  20.008  12.323  17.283 -0.0558  0.0872 -0.3285
 3313DPPE   C2A61614  20.243  12.348  17.000 -0.0356  0.2220 -0.2615
 3313DPPE   C3A61615  20.432  12.079  16.716 -0.0430  0.1796 -0.0345
 3313DPPE   C4A61616  20.287  11.721  16.660  0.2590  0.0393  0.3080
 3313DPPE   C1B61617  19.833  11.907  17.464  0.1236  0.0278  0.4539
 3313DPPE   C2B61618  20.132  11.577  17.673 -0.0277  0.0129 -0.2878
 3313DPPE   C3B61619  20.012  11.090  17.765  0.1462 -0.2172 -0.2357
 3313DPPE   C4B61620  19.785  10.957  18.020 -0.0059 -0.1100 -0.1093
 3314DPPE   NH361621  18.683  16.366  16.387 -0.1154 -0.3139 -0.0017
 3314DPPE   PO461622  19.155  16.528  16.235  0.0628 -0.0057 -0.0479
 3314DPPE   GL161623  19.275  16.792  15.962 -0.2564 -0.0568 -0.1972
 3314DPPE   GL261624  19.659  16.978  16.063  0.2547 -0.1676 -0.4288
 3314DPPE   C1A61625  19.281  17.140  15.747  0.0768  0.2191 -0.1888
 3314DPPE   C2A61626  19.156  17.596  15.731  0.1135 -0.3167  0.0035
 3314DPPE   C3A61627  19.258  17.864  15.548  0.2210  0.2509  0.2139
 3314DPPE   C4A61628  19.654  18.081  15.380  0.1393  0.0069 -0.0674
 3314DPPE   C1B61629  19.757  16.933  15.628 -0.2218 -0.2196  0.3180
 3314DPPE   C2B61630  19.766  16.623  15.326 -0.2053 -0.0435 -0.2197
 3314DPPE   C3B61631  19.907  16.192  15.357 -0.0540 -0.3231  0.1762
 3314DPPE   C4B61632  20.065  15.798  15.415  0.0270  0.0127  0.3396
 3315DPPE   NH361633  16.546  19.508  17.254  0.1372  0.1894 -0.0457
 3315DPPE   PO461634  16.251  19.897  17.320  0.0126 -0.0296 -0.0063
 3315DPPE   GL161635  16.172  20.020  16.937 -0.3716  0.0006 -0.0057
 3315DPPE   GL261636  16.397  19.792  16.758  0.1290  0.0361  0.2219
 3315DPPE   C1A61637  16.344  20.215  16.497 -0.0708 -0.0310 -0.2622
 3315DPPE   C2A61638  16.328  20.164  16.050 -0.0397  0.0571  0.0622
 3315DPPE   C3A61639  16.351  20.175  15.602 -0.1326 -0.0222 -0.1213
 3315DPPE   C4A61640  16.425  20.201  15.195 -0.1218 -0.1364  0.0181
 3315DPPE   C1B61641  16.347  19.557  16.402 -0.5557  0.1337  0.1622
 3315DPPE   C2B61642  16.305  19.623  15.975  0.1331 -0.0189  0.1412
 3315DPPE   C3B61643  16.301  19.652  15.548 -0.5370 -0.2492  0.2205
 3315DPPE   C4B61644  16.252  19.713  15.187  0.3740 -0.0437  0.0455
 3316DPPE   NH361645   9.021  23.049  17.684 -0.2513 -0.2148  0.3006
 3316DPPE   PO461646   8.626  23.242  17.627  0.0586 -0.0926  0.0135
 3316DPPE   GL161647   8.629  23.291  17.112  0.3080  0.1322 -0.2441
 3316DPPE   GL261648   8.719  23.652  17.172 -0.1303  0.0207  0.0054
 3316DPPE   C1A61649   8.425  23.343  16.668 -0.2257 -0.2071 -0.1571
 3316DPPE   C2A61650   8.476  23.557  16.338 -0.1766  0.3799  0.0050
 3316DPPE   C3A61651   8.260  23.794  16.001  0.0896 -0.2434 -0.2881
 3316DPPE   C4A61652   7.980  23.560  15.659  0.5188 -0.0014 -0.0056
 3316DPPE   C1B61653   8.488  24.066  17.199  0.0144 -0.1207 -0.0269
 3316DPPE   C2B61654   8.398  24.439  16.957  0.1218 -0.1984 -0.0997
 3316DPPE   C3B61655   8.141  24.775  16.631  0.3974  0.2204  0.0425
 3316DPPE   C4B61656   8.221  25.162  16.502 -0.1797  0.0438  0.2388
 3317DPPE   NH361657  19.950  17.633  16.786  0.1682 -0.2548  0.2733
 3317DPPE   PO461658  19.631  17.520  16.606  0.1080  0.1471 -0.0706
 3317DPPE   GL161659  19.904  17.343  16.388  0.1473  0.2173 -0.1692
 3317DPPE   GL261660  20.235  17.389  16.443  0.0126  0.0280 -0.3119
 3317DPPE   C1A61661  20.101  17.161  16.021 -0.1979 -0.0324 -0.0221
 3317DPPE   C2A61662  20.582  17.395  16.008  0.1786 -0.4148  0.0915
 3317DPPE   C3A61663  20.756  17.618  16.170  0.2066 -0.1031 -0.0205
 3317DPPE   C4A61664  20.564  17.890  16.449 -0.1507  0.0375 -0.3102
 3317DPPE   C1B61665  20.640  17.102  16.408 -0.0692 -0.0942  0.0556
 3317DPPE   C2B61666  21.005  17.100  16.129  0.1022  0.1367  0.1958
 3317DPPE   C3B61667  21.301  17.395  16.068 -0.0251 -0.0484 -0.0026
 3317DPPE   C4B61668  21.358  17.839  16.128 -0.0739 -0.1182 -0.1102
 3318DPPE   NH361669   6.693  13.644  17.399  0.0277  0.1543  0.1055
 3318DPPE   PO461670   6.973  13.339  17.413  0.2843  0.1219 -0.0849
 3318DPPE   GL161671   6.982  13.305  16.987  0.0107 -0.0854  0.2501
 3318DPPE   GL261672   6.762  12.952  17.128  0.0736 -0.2365 -0.2012
 3318DPPE   C1A61673   6.663  13.290  16.656  0.2644  0.0406 -0.0592
 3318DPPE   C2A61674   6.404  13.228  16.236 -0.1955 -0.1255  0.2192
 3318DPPE   C3A61675   6.500  13.273  15.825  0.1123  0.2340  0.2847
 3318DPPE   C4A61676   6.385  13.398  15.427  0.2817  0.0969 -0.1237
 3318DPPE   C1B61677   6.762  12.768  16.661 -0.0888 -0.0951 -0.1148
 3318DPPE   C2B61678   6.469  12.656  16.397 -0.0912  0.2230 -0.2246
 3318DPPE   C3B61679   6.321  12.829  15.995  0.0802  0.4276  0.2823
 3318DPPE   C4B61680   6.197  12.953  15.474 -0.0302  0.0616 -0.1607
 3319DPPE   NH361681  10.700  22.198  17.923  0.3177 -0.1152  0.1152
 3319DPPE   PO461682  10.465  22.411  17.669  0.1371  0.1214  0.2725
 3319DPPE   GL161683  10.467  22.394  17.346  0.2356 -0.0427  0.0421
 3319DPPE   GL261684  10.371  22.665  17.134  0.1056 -0.0584  0.0571
 3319DPPE   C1A61685  10.560  22.196  16.961  0.2651 -0.0678  0.0910
 3319DPPE   C2A61686  10.803  22.233  16.609 -0.1748 -0.2878  0.0263
 3319DPPE   C3A61687  10.780  22.290  16.184  0.0963 -0.1403  0.2390
 3319DPPE   C4A61688  10.658  22.318  15.834 -0.1773 -0.1591 -0.1625
 3319DPPE   C1B61689  10.465  22.637  16.764 -0.1408 -0.2037  0.2513
 3319DPPE   C2B61690  10.294  22.620  16.317 -0.0101  0.1314  0.2122
 3319DPPE   C3B61691  10.175  22.587  15.855  0.4322  0.1326  0.3109
 3319DPPE   C4B61692  10.120  22.368  15.579  0.0838  0.1398 -0.3399
 3320DPPE   NH361693  12.018  22.631  17.832 -0.1424  0.2008 -0.1350
 3320DPPE   PO461694  12.179  22.654  17.485  0.0934  0.1239  0.3408
 3320DPPE   GL161695  12.086  22.420  17.187  0.0747 -0.0101  0.1373
 3320DPPE   GL261696  12.286  22.580  16.888  0.1099  0.1826 -0.1670
 3320DPPE   C1A61697  11.858  22.361  16.807  0.2583 -0.0594  0.3411
 3320DPPE   C2A61698  11.671  22.271  16.434 -0.0752 -0.1249 -0.2006
 3320DPPE   C3A61699  11.535  22.195  15.941 -0.0122  0.0165 -0.0695
 3320DPPE   C4A61700  11.521  22.183  15.481  0.0695 -0.0254 -0.1530
 3320DPPE   C1B61701  12.147  22.477  16.406  0.0977 -0.1503 -0.0887
 3320DPPE   C2B61702  12.024  22.393  15.889 -0.2734 -0.2327 -0.3931
 3320DPPE   C3B61703  12.053  22.548  15.554 -0.0126 -0.1773 -0.2377
 3320DPPE   C4B61704  11.989  22.485  15.260 -0.0022  0.1892 -0.2806
 3321DPPE   NH361705   7.922  12.237  17.495 -0.0172  0.0373  0.1250
 3321DPPE   PO461706   7.690  12.077  17.773 -0.1276 -0.1472 -0.1475
 3321DPPE   GL161707   7.395  12.145  17.410  0.1385 -0.3579 -0.0293
 3321DPPE   GL261708   7.115  12.121  17.432  0.2632  0.1936  0.0048
 3321DPPE   C1A61709   7.306  12.170  16.988 -0.1078  0.1659  0.0163
 3321DPPE   C2A61710   7.441  11.967  16.549  0.0688  0.3104  0.1941
 3321DPPE   C3A61711   7.266  11.932  16.207 -0.0553  0.0888 -0.0979
 3321DPPE   C4A61712   7.371  11.634  15.907 -0.0947 -0.1591 -0.0779
 3321DPPE   C1B61713   6.906  11.826  17.174 -0.0689 -0.0054  0.0191
 3321DPPE   C2B61714   6.675  11.703  16.765  0.0729 -0.0842 -0.0989
 3321DPPE   C3B61715   6.395  11.763  16.565  0.1293  0.1567  0.0811
 3321DPPE   C4B61716   5.967  11.561  16.402 -0.2407  0.0531 -0.0288
 3322DPPE   NH361717  18.401  17.289  16.557  0.1873  0.2578 -0.1045
 3322DPPE   PO461718  18.792  17.444  16.353 -0.0248  0.3026  0.0794
 3322DPPE   GL161719  18.775  17.257  15.929 -0.2323 -0.0686 -0.0606
 3322DPPE   GL261720  18.424  17.221  16.053  0.0050 -0.0915  0.0937
 3322DPPE   C1A61721  18.790  17.049  15.507  0.2610 -0.0584  0.1967
 3322DPPE   C2A61722  18.843  17.087  15.059 -0.1083  0.0746 -0.2978
 3322DPPE   C3A61723  18.757  17.426  14.769 -0.1974 -0.0970 -0.0830
 3322DPPE   C4A61724  18.931  17.832  14.768 -0.2314  0.0977 -0.1981
 3322DPPE   C1B61725  18.271  17.133  15.584 -0.2766 -0.0904 -0.0689
 3322DPPE   C2B61726  18.396  17.137  15.129 -0.1106 -0.0099 -0.1256
 3322DPPE   C3B61727  18.371  17.153  14.674 -0.2049 -0.0371  0.1524
 3322DPPE   C4B61728  18.486  17.357  14.354  0.1848 -0.0063 -0.1216
 3323DPPE   NH361729  19.342  13.109  17.810  0.0677 -0.0547 -0.3329
 3323DPPE   PO461730  19.503  13.328  17.345  0.0792  0.3690  0.2740
 3323DPPE   GL161731  19.767  13.185  17.102 -0.0094 -0.0751  0.0781
 3323DPPE   GL261732  19.993  13.315  16.955 -0.0623  0.0545 -0.0447
 3323DPPE   C1A61733  20.045  12.824  16.976  0.0169  0.1027  0.0634
 3323DPPE   C2A61734  20.136  12.682  16.696 -0.0950  0.1128  0.1342
 3323DPPE   C3A61735  20.246  12.543  16.375  0.4334 -0.1712  0.3050
 3323DPPE   C4A61736  20.096  12.396  16.052  0.1067  0.1308  0.2498
 3323DPPE   C1B61737  20.236  13.168  16.580 -0.1649 -0.1170  0.2669
 3323DPPE   C2B61738  20.446  13.076  16.206  0.0108  0.0006 -0.1990
 3323DPPE   C3B61739  20.577  13.201  15.837  0.1524  0.1672 -0.0083
 3323DPPE   C4B61740  20.886  13.420  15.655 -0.2805 -0.1448  0.2128
 3324DPPE   NH361741   8.445  16.139  17.614  0.2149 -0.3046 -0.0008
 3324DPPE   PO461742   8.754  15.807  17.710 -0.1975  0.2221  0.2851
 3324DPPE   GL161743   8.966  15.855  17.390  0.3590 -0.0683  0.1182
 3324DPPE   GL261744   9.211  16.168  17.220  0.5255  0.1602  0.3204
 3324DPPE   C1A61745   8.945  15.737  17.051 -0.1588 -0.0577 -0.1091
 3324DPPE   C2A61746   8.896  15.452  16.754  0.4643 -0.4551  0.2518
 3324DPPE   C3A61747   8.838  15.412  16.403 -0.1144  0.3550 -0.1030
 3324DPPE   C4A61748   8.596  15.295  16.071  0.1166 -0.3846  0.1695
 3324DPPE   C1B61749   9.268  16.279  16.835 -0.0377 -0.1918  0.0736
 3324DPPE   C2B61750   9.364  16.205  16.383  0.2156 -0.0870 -0.0556
 3324DPPE   C3B61751   9.228  16.234  15.948 -0.0062  0.2685 -0.2154
 3324DPPE   C4B61752   9.249  16.182  15.535 -0.4624  0.1791 -0.0194
 3325DPPE   NH361753  12.685  10.521  17.061  0.0922 -0.2329 -0.1398
 3325DPPE   PO461754  12.895  10.170  16.885 -0.2671 -0.1695  0.1463
 3325DPPE   GL161755  12.873  10.358  16.477  0.4054  0.0922  0.1055
 3325DPPE   GL261756  13.155  10.490  16.428 -0.0961  0.2110  0.2401
 3325DPPE   C1A61757  12.878  10.378  16.032 -0.0224 -0.1169 -0.3001
 3325DPPE   C2A61758  12.993  10.260  15.617  0.0876  0.2702 -0.1151
 3325DPPE   C3A61759  13.288  10.190  15.318 -0.0635 -0.1157  0.1587
 3325DPPE   C4A61760  13.729   9.977  15.319 -0.3200 -0.1384 -0.0508
 3325DPPE   C1B61761  13.341  10.646  15.958 -0.1351 -0.1281  0.2330
 3325DPPE   C2B61762  13.252  10.681  15.477  0.0835 -0.0067  0.6610
 3325DPPE   C3B61763  13.123  11.021  15.166 -0.2820 -0.0124  0.0656
 3325DPPE   C4B61764  13.380  11.352  14.893 -0.2068 -0.1740 -0.1820
 3326DPPE   NH361765  11.947  14.716  17.266 -0.0123 -0.2732 -0.0464
 3326DPPE   PO461766  11.711  14.381  17.276 -0.0323  0.0765  0.2038
 3326DPPE   GL161767  11.531  14.442  16.912 -0.0961  0.0593 -0.1817
 3326DPPE   GL261768  11.459  14.727  17.013  0.0806  0.1769 -0.1313
 3326DPPE   C1A61769  11.153  14.432  16.555 -0.2881 -0.0683 -0.1973
 3326DPPE   C2A61770  10.984  14.536  16.229 -0.1570 -0.2564  0.2639
 3326DPPE   C3A61771  10.930  14.466  15.834 -0.0042 -0.1236  0.2521
 3326DPPE   C4A61772  11.050  14.377  15.507 -0.1303  0.2048  0.0154
 3326DPPE   C1B61773  11.616  14.700  16.489  0.0979  0.1116  0.1352
 3326DPPE   C2B61774  11.439  14.717  16.144  0.0102 -0.0452 -0.4165
 3326DPPE   C3B61775  11.415  14.617  15.714 -0.1964 -0.0452  0.1425
 3326DPPE   C4B61776  11.377  14.588  15.238 -0.0237 -0.0774  0.1682
 3327DPPE   NH361777  16.299  20.715  17.539  0.1656 -0.0813 -0.1808
 3327DPPE   PO461778  16.477  20.546  17.133 -0.0024  0.1357  0.0109
 3327DPPE   GL161779  16.392  20.738  16.671 -0.0944 -0.0210  0.3507
 3327DPPE   GL261780  16.009  21.011  16.458  0.1562  0.0981 -0.4770
 3327DPPE   C1A61781  16.377  20.753  16.259  0.0677 -0.2512  0.2602
 3327DPPE   C2A61782  16.394  20.748  15.851  0.1267  0.0171 -0.3713
 3327DPPE   C3A61783  16.341  20.667  15.410  0.1495 -0.0291  0.0071
 3327DPPE   C4A61784  16.432  20.653  14.931 -0.0614  0.1380 -0.1991
 3327DPPE   C1B61785  16.045  21.027  16.035 -0.1353  0.3375  0.0764
 3327DPPE   C2B61786  15.925  20.971  15.577 -0.0371 -0.1572  0.2912
 3327DPPE   C3B61787  15.908  20.918  15.125  0.5388 -0.1551 -0.0873
 3327DPPE   C4B61788  16.175  20.964  14.698 -0.0140 -0.0042 -0.3829
 3328DPPE   NH361789  17.825  11.968  17.705  0.1240 -0.1444 -0.3868
 3328DPPE   PO461790  17.522  11.535  17.571  0.4015  0.0067 -0.0777
 3328DPPE   GL161791  17.523  11.455  17.076 -0.4252  0.3082  0.3890
 3328DPPE   GL261792  17.762  11.160  16.803  0.0562 -0.1058  0.1366
 3328DPPE   C1A61793  17.582  11.684  16.664  0.2035  0.0186  0.1043
 3328DPPE   C2A61794  17.667  11.860  16.290  0.1975  0.3089  0.0381
 3328DPPE   C3A61795  17.798  11.876  15.804 -0.0817  0.2050  0.2354
 3328DPPE   C4A61796  17.855  11.797  15.411 -0.1728  0.2390  0.0416
 3328DPPE   C1B61797  18.077  11.027  16.476  0.2094 -0.0104  0.0573
 3328DPPE   C2B61798  18.072  10.634  16.225 -0.0603  0.4009 -0.0202
 3328DPPE   C3B61799  18.000  10.399  16.008 -0.2060  0.0196  0.3049
 3328DPPE   C4B61800  18.139  10.269  15.595 -0.0310  0.1183  0.0873
 3329DPPE   NH361801   7.952  19.170  17.910  0.1769 -0.1689  0.2509
 3329DPPE   PO461802   8.417  19.153  18.137 -0.0529 -0.2685 -0.0069
 3329DPPE   GL161803   8.422  19.098  17.717  0.1566  0.0607 -0.1327
 3329DPPE   GL261804   8.440  18.825  17.576  0.2869  0.0636 -0.0127
 3329DPPE   C1A61805   8.299  19.210  17.257 -0.3067 -0.1960 -0.0761
 3329DPPE   C2A61806   8.409  19.253  16.787 -0.0948  0.0779  0.0939
 3329DPPE   C3A61807   8.261  19.332  16.300 -0.1701  0.1045 -0.2649
 3329DPPE   C4A61808   8.251  19.291  15.920 -0.0370 -0.0739 -0.3211
 3329DPPE   C1B61809   8.320  18.696  17.181 -0.0780 -0.1758 -0.1706
 3329DPPE   C2B61810   8.348  18.704  16.694  0.1095  0.0002  0.1979
 3329DPPE   C3B61811   8.281  18.816  16.170  0.0385 -0.0393 -0.0707
 3329DPPE   C4B61812   8.196  18.804  15.734 -0.0819 -0.0992 -0.0288
 3330DPPE   NH361813   8.480  23.945  18.217 -0.0531  0.0201 -0.2496
 3330DPPE   PO461814   8.679  24.245  17.973  0.1637  0.2734  0.0090
 3330DPPE   GL161815   8.386  24.655  17.871  0.0367  0.2338  0.1114
 3330DPPE   GL261816   8.070  24.578  17.656  0.0006 -0.2811 -0.0174
 3330DPPE   C1A61817   8.470  25.038  17.879  0.1491 -0.2851  0.1004
 3330DPPE   C2A61818   8.535  25.444  17.888 -0.1381  0.2214  0.3084
 3330DPPE   C3A61819   8.631  25.794  18.107  0.1943 -0.1931 -0.2141
 3330DPPE   C4A61820   8.656  26.143  18.410  0.0396  0.0296  0.0007
 3330DPPE   C1B61821   7.978  24.925  17.837  0.0455 -0.2705  0.1911
 3330DPPE   C2B61822   8.139  25.033  18.206 -0.3403  0.2862  0.2531
 3330DPPE   C3B61823   8.544  25.242  18.338  0.2130 -0.2262  0.1298
 3330DPPE   C4B61824   8.796  25.410  18.676  0.0729 -0.2186  0.3287
 3331DPPE   NH361825  14.769  24.435  16.930 -0.1634 -0.1099  0.0462
 3331DPPE   PO461826  15.193  24.516  17.119 -0.1896 -0.5329  0.0010
 3331DPPE   GL161827  15.063  24.854  17.002 -0.0361  0.2683 -0.3562
 3331DPPE   GL261828  15.041  24.805  16.702 -0.4166  0.0152  0.1500
 3331DPPE   C1A61829  14.886  25.202  16.894  0.2750 -0.1666  0.0009
 3331DPPE   C2A61830  15.078  25.485  16.697 -0.3382 -0.0082  0.3155
 3331DPPE   C3A61831  15.127  25.798  16.576  0.0370 -0.1852  0.2160
 3331DPPE   C4A61832  14.963  26.135  16.516 -0.0772 -0.2706  0.2888
 3331DPPE   C1B61833  14.860  25.016  16.352  0.2325 -0.0511 -0.1053
 3331DPPE   C2B61834  14.944  25.342  15.984  0.0801  0.1474  0.0922
 3331DPPE   C3B61835  15.235  25.396  15.683  0.2195  0.0756 -0.0281
 3331DPPE   C4B61836  15.669  25.508  15.735 -0.1330  0.0875 -0.1791
 3332DPPE   NH361837  12.211  13.513  17.234  0.1198 -0.1936 -0.0220
 3332DPPE   PO461838  12.548  13.738  17.469 -0.2552  0.0505  0.0439
 3332DPPE   GL161839  12.546  13.917  17.082 -0.0598  0.1439 -0.1639
 3332DPPE   GL261840  12.844  13.724  16.915 -0.1794  0.2147  0.0914
 3332DPPE   C1A61841  12.493  14.010  16.661  0.0654  0.1830 -0.0161
 3332DPPE   C2A61842  12.350  14.107  16.243 -0.1202 -0.3027 -0.0986
 3332DPPE   C3A61843  12.317  14.155  15.816 -0.4057 -0.2108 -0.0406
 3332DPPE   C4A61844  12.355  14.157  15.366 -0.2743 -0.1370  0.0144
 3332DPPE   C1B61845  12.873  13.719  16.513 -0.1904  0.5153  0.0690
 3332DPPE   C2B61846  12.774  13.873  16.105 -0.3779 -0.1797 -0.4197
 3332DPPE   C3B61847  12.782  13.851  15.625  0.4211  0.0841  0.0014
 3332DPPE   C4B61848  12.740  13.854  15.190  0.1201  0.1663 -0.3960
 3333DPPE   NH361849  14.425  16.118  17.012  0.2944 -0.0117 -0.1016
 3333DPPE   PO461850  14.770  16.207  16.818 -0.2335 -0.1953  0.2792
 3333DPPE   GL161851  14.423  16.362  16.537 -0.0557  0.2483 -0.0228
 3333DPPE   GL261852  14.347  16.095  16.280  0.2506  0.1574  0.3558
 3333DPPE   C1A61853  14.365  16.628  16.173 -0.0143  0.0569 -0.0638
 3333DPPE   C2A61854  14.336  16.566  15.729  0.0146  0.0139  0.1169
 3333DPPE   C3A61855  14.212  16.600  15.273 -0.0965  0.1495 -0.0857
 3333DPPE   C4A61856  14.205  16.705  14.939 -0.1447  0.0389  0.0986
 3333DPPE   C1B61857  14.351  16.096  15.854  0.1649  0.3970 -0.1138
 3333DPPE   C2B61858  14.309  16.075  15.469  0.1882 -0.2476  0.2325
 3333DPPE   C3B61859  14.297  16.186  15.037 -0.2289  0.2449 -0.0881
 3333DPPE   C4B61860  14.316  16.217  14.574  0.0333  0.1792 -0.0721
 3334DPPE   NH361861  18.495  12.900  17.237 -0.2357  0.1727  0.0725
 3334DPPE   PO461862  18.527  12.467  17.184  0.4452 -0.1949  0.2567
 3334DPPE   GL161863  18.828  12.289  16.895 -0.0035  0.3341 -0.2111
 3334DPPE   GL261864  18.905  12.043  16.997  0.1078  0.2294  0.0638
 3334DPPE   C1A61865  19.300  12.388  16.755 -0.0689  0.1974 -0.0612
 3334DPPE   C2A61866  19.717  12.345  16.858 -0.0759 -0.1877 -0.1488
 3334DPPE   C3A61867  19.961  12.126  16.574  0.0672  0.0081  0.3282
 3334DPPE   C4A61868  20.320  12.013  16.232  0.0702 -0.0936 -0.0192
 3334DPPE   C1B61869  19.297  11.894  16.894 -0.0569  0.0673  0.2956
 3334DPPE   C2B61870  19.696  11.860  16.879  0.1141  0.2793  0.2023
 3334DPPE   C3B61871  20.030  11.754  17.022  0.1104 -0.1953  0.0491
 3334DPPE   C4B61872  20.254  11.314  17.126  0.1633 -0.0528 -0.0184
 3335DPPE   NH361873  11.818  19.156  17.355  0.2170 -0.0079  0.2817
 3335DPPE   PO461874  12.107  18.848  17.448  0.1354  0.2246  0.2310
 3335DPPE   GL161875  11.904  18.735  17.117 -0.0356 -0.0070 -0.1339
 3335DPPE   GL261876  12.131  18.694  16.850  0.1586  0.0904  0.3228
 3335DPPE   C1A61877  11.692  18.875  16.634 -0.1966 -0.0136 -0.2738
 3335DPPE   C2A61878  11.805  18.892  16.109 -0.2707  0.1348 -0.0376
 3335DPPE   C3A61879  11.872  18.787  15.762 -0.0363 -0.0505  0.4757
 3335DPPE   C4A61880  11.774  18.763  15.321 -0.1502 -0.3353  0.0849
 3335DPPE   C1B61881  12.074  18.596  16.510  0.0433  0.2183  0.0918
 3335DPPE   C2B61882  12.217  18.607  16.012  0.0111  0.2161 -0.0014
 3335DPPE   C3B61883  12.144  18.425  15.514 -0.3677  0.0549 -0.3239
 3335DPPE   C4B61884  12.277  18.482  15.118 -0.0921  0.1754 -0.1762
 3336DPPE   NH361885  16.560  12.051  17.296 -0.1012  0.0674 -0.0491
 3336DPPE   PO461886  16.843  11.975  17.105  0.3055  0.2886  0.2269
 3336DPPE   GL161887  16.712  11.951  16.729 -0.2891  0.0345 -0.0082
 3336DPPE   GL261888  16.425  11.784  16.739  0.1363 -0.5457  0.1585
 3336DPPE   C1A61889  16.762  11.829  16.268  0.1821 -0.0091  0.2475
 3336DPPE   C2A61890  16.727  11.548  16.003  0.2903  0.1721 -0.1647
 3336DPPE   C3A61891  16.614  11.324  15.711 -0.1293  0.0301 -0.0136
 3336DPPE   C4A61892  16.422  10.868  15.663  0.1144  0.2495  0.0705
 3336DPPE   C1B61893  16.299  11.565  16.280  0.1340 -0.0696 -0.1544
 3336DPPE   C2B61894  16.328  11.151  16.244 -0.3275  0.1090 -0.0087
 3336DPPE   C3B61895  16.271  10.634  16.103 -0.3608  0.1157  0.0410
 3336DPPE   C4B61896  16.220  10.363  15.892  0.1481 -0.0043 -0.3428
 3337DPPE   NH361897  11.787  22.930  17.401 -0.0021  0.0866 -0.1253
 3337DPPE   PO461898  11.369  22.982  17.246  0.0486  0.3441 -0.0487
 3337DPPE   GL161899  11.487  22.848  16.952 -0.1866 -0.1758  0.2755
 3337DPPE   GL261900  11.778  22.853  16.920 -0.3626  0.0098 -0.0251
 3337DPPE   C1A61901  11.242  22.620  16.680  0.2001  0.0745 -0.0517
 3337DPPE   C2A61902  11.184  22.583  16.154  0.1599  0.1930 -0.2267
 3337DPPE   C3A61903  11.094  22.430  15.670 -0.1512 -0.0431 -0.0539
 3337DPPE   C4A61904  11.130  22.294  15.241 -0.2054 -0.2367  0.1262
 3337DPPE   C1B61905  11.693  22.786  16.443  0.2255  0.1269  0.0446
 3337DPPE   C2B61906  11.711  22.635  16.108  0.1174  0.1641 -0.0807
 3337DPPE   C3B61907  11.559  22.640  15.652 -0.1156 -0.1539 -0.2947
 3337DPPE   C4B61908  11.612  22.824  15.269  0.1777  0.0986 -0.1844
 3338DPPE   NH361909   6.924  12.037  17.894  0.2649 -0.2883  0.1204
 3338DPPE   PO461910   7.198  11.755  17.864 -0.1129  0.2904 -0.0784
 3338DPPE   GL161911   7.349  11.423  17.576 -0.1888 -0.3480 -0.5067
 3338DPPE   GL261912   7.043  11.456  17.417 -0.2249  0.0070  0.2008
 3338DPPE   C1A61913   7.246  10.926  17.560  0.0757  0.0079 -0.0274
 3338DPPE   C2A61914   7.058  10.488  17.626 -0.2731  0.0718 -0.1338
 3338DPPE   C3A61915   6.624  10.340  17.450 -0.1247 -0.1507 -0.1885
 3338DPPE   C4A61916   6.230  10.147  17.232 -0.0086 -0.0015 -0.2021
 3338DPPE   C1B61917   6.724  11.300  17.144  0.2620 -0.0984  0.0435
 3338DPPE   C2B61918   6.346  11.133  16.994  0.0915  0.3280  0.3727
 3338DPPE   C3B61919   6.181  10.801  16.888  0.0823  0.0812  0.1363
 3338DPPE   C4B61920   6.480  10.625  16.989  0.1484  0.0134 -0.0929
 3339DPPE   NH361921  12.555  16.460  17.177  0.1063 -0.1534 -0.4190
 3339DPPE   PO461922  13.057  16.393  17.111 -0.1065 -0.1461  0.0181
 3339DPPE   GL161923  13.042  16.131  16.776 -0.0415  0.1330  0.3356
 3339DPPE   GL261924  13.176  15.860  16.819  0.0062  0.0823  0.1020
 3339DPPE   C1A61925  13.039  16.233  16.349 -0.0752 -0.2825 -0.0668
 3339DPPE   C2A61926  12.873  16.416  15.939  0.0386  0.0548 -0.1800
 3339DPPE   C3A61927  12.795  16.287  15.537  0.1736  0.0631 -0.0549
 3339DPPE   C4A61928  12.967  16.378  15.199 -0.1968 -0.0121  0.0799
 3339DPPE   C1B61929  13.348  15.860  16.457 -0.0232  0.0608  0.1273
 3339DPPE   C2B61930  13.317  15.745  16.065  0.1379 -0.1969  0.2308
 3339DPPE   C3B61931  13.409  15.633  15.689 -0.1851 -0.1792  0.1556
 3339DPPE   C4B61932  13.305  15.476  15.176  0.0456 -0.1087 -0.3136
 3340DPPE   NH361933  11.825  20.865  17.408  0.0060 -0.0875  0.0836
 3340DPPE   PO461934  12.195  20.939  17.665  0.0481 -0.0671 -0.0258
 3340DPPE   GL161935  12.230  21.130  17.235  0.0683  0.4238 -0.3722
 3340DPPE   GL261936  12.533  21.167  17.147 -0.0681  0.5711  0.3044
 3340DPPE   C1A61937  12.160  20.931  16.887  0.2850 -0.1391 -0.1462
 3340DPPE   C2A61938  12.095  20.924  16.460  0.5040  0.0514 -0.1156
 3340DPPE   C3A61939  12.054  20.966  16.030 -0.2879 -0.1163 -0.1439
 3340DPPE   C4A61940  12.020  20.867  15.614  0.0072 -0.2062 -0.1333
 3340DPPE   C1B61941  12.500  21.197  16.664  0.1624 -0.0981  0.0664
 3340DPPE   C2B61942  12.538  21.128  16.260  0.6034  0.1195 -0.0170
 3340DPPE   C3B61943  12.447  21.185  15.736 -0.2884 -0.1657  0.0260
 3340DPPE   C4B61944  12.324  21.133  15.322  0.4969 -0.1508  0.0998
 3341DPPE   NH361945  13.279  19.284  17.445 -0.0085  0.2288 -0.0129
 3341DPPE   PO461946  12.822  19.210  17.328  0.0835 -0.0517 -0.1625
 3341DPPE   GL161947  12.760  19.250  16.888 -0.5108 -0.0294  0.2719
 3341DPPE   GL261948  12.756  18.978  16.746 -0.0785 -0.0459  0.0459
 3341DPPE   C1A61949  12.715  19.357  16.425 -0.2109 -0.0851 -0.3413
 3341DPPE   C2A61950  12.730  19.321  15.967 -0.2246 -0.1098 -0.0629
 3341DPPE   C3A61951  12.621  19.252  15.560 -0.1867  0.1951  0.0665
 3341DPPE   C4A61952  12.603  19.345  15.135 -0.1735  0.1944  0.2031
 3341DPPE   C1B61953  12.742  18.875  16.295  0.1037  0.0965  0.0155
 3341DPPE   C2B61954  12.677  18.768  15.984  0.2010  0.0346 -0.1276
 3341DPPE   C3B61955  12.592  18.729  15.613 -0.0557 -0.2438  0.4100
 3341DPPE   C4B61956  12.584  18.853  15.177 -0.0079  0.4300  0.1037
 3342DPPE   NH361957   9.075  15.926  18.048  0.0280  0.2174 -0.1167
 3342DPPE   PO461958   9.235  15.507  17.913  0.0681  0.1320 -0.1131
 3342DPPE   GL161959   9.195  15.338  17.544 -0.1957 -0.2159  0.2246
 3342DPPE   GL261960   8.877  15.219  17.479 -0.1635 -0.1093 -0.0099
 3342DPPE   C1A61961   9.243  15.229  17.139 -0.2444 -0.1694 -0.0410
 3342DPPE   C2A61962   9.333  15.220  16.761 -0.2423  0.1077  0.2010
 3342DPPE   C3A61963   9.166  15.020  16.401  0.0234  0.4811  0.0329
 3342DPPE   C4A61964   9.079  14.961  15.958  0.2492  0.1164  0.1917
 3342DPPE   C1B61965   8.574  15.448  17.201  0.0600  0.1497  0.1938
 3342DPPE   C2B61966   8.449  15.779  16.991 -0.0895  0.1337 -0.0951
 3342DPPE   C3B61967   8.287  15.676  16.731  0.1072  0.0201  0.0252
 3342DPPE   C4B61968   8.443  15.677  16.301 -0.1332 -0.0007  0.1701
 3343DPPE   NH361969  16.297  12.495  17.215 -0.0787 -0.2413  0.1159
 3343DPPE   PO461970  16.738  12.547  17.326 -0.2561  0.1170 -0.2135
 3343DPPE   GL161971  16.632  12.449  16.808  0.0374  0.2380 -0.0173
 3343DPPE   GL261972  16.889  12.469  16.590 -0.0915 -0.1564  0.1553
 3343DPPE   C1A61973  16.381  12.234  16.425 -0.1131  0.2345 -0.2520
 3343DPPE   C2A61974  16.264  12.012  16.080 -0.2963 -0.1906 -0.0257
 3343DPPE   C3A61975  16.467  11.884  15.758  0.2628  0.1723  0.2792
 3343DPPE   C4A61976  16.449  11.933  15.311 -0.3552 -0.0065 -0.0299
 3343DPPE   C1B61977  16.900  12.293  16.176  0.0435  0.1051  0.0327
 3343DPPE   C2B61978  16.916  12.107  15.789  0.2177 -0.0055 -0.2029
 3343DPPE   C3B61979  16.899  11.747  15.571  0.1423 -0.2214 -0.1502
 3343DPPE   C4B61980  17.131  11.467  15.484 -0.2067  0.2039 -0.1650
 3344DPPE   NH361981   9.769  22.371  17.905  0.0205 -0.2519 -0.0481
 3344DPPE   PO461982   9.565  22.847  17.885  0.0411  0.0024 -0.1574
 3344DPPE   GL161983   9.472  22.736  17.424  0.1831 -0.0115  0.2101
 3344DPPE   GL261984   9.527  22.371  17.431  0.1012 -0.0909 -0.1288
 3344DPPE   C1A61985   9.307  22.855  17.000 -0.1794  0.0838 -0.0555
 3344DPPE   C2A61986   9.339  22.772  16.553 -0.2089 -0.0888  0.0535
 3344DPPE   C3A61987   9.245  22.926  16.043  0.2064 -0.2037  0.0783
 3344DPPE   C4A61988   9.269  22.869  15.532  0.2218  0.1307 -0.0009
 3344DPPE   C1B61989   9.574  22.246  16.987 -0.0139 -0.0839 -0.1909
 3344DPPE   C2B61990   9.593  22.241  16.554 -0.1197  0.1008  0.1249
 3344DPPE   C3B61991   9.292  22.408  16.218  0.1936 -0.0674  0.1515
 3344DPPE   C4B61992   9.259  22.375  15.818  0.3379 -0.0827  0.1191
 3345DPPE   NH361993   9.916  21.326  17.974 -0.1281  0.1222 -0.0036
 3345DPPE   PO461994   9.551  21.503  17.775  0.0933  0.1543  0.1302
 3345DPPE   GL161995   9.354  21.607  17.498  0.0854 -0.2994  0.3134
 3345DPPE   GL261996   9.601  21.852  17.303 -0.1796  0.1874 -0.1617
 3345DPPE   C1A61997   9.159  21.429  17.170  0.0020  0.0966 -0.1290
 3345DPPE   C2A61998   9.038  21.515  16.738  0.0513  0.2610  0.1846
 3345DPPE   C3A61999   8.953  21.494  16.395  0.1895 -0.0860  0.1716
 3345DPPE   C4A62000   9.121  21.506  15.970 -0.2746 -0.0601 -0.0070
 3345DPPE   C1B62001   9.515  21.732  16.855 -0.0573  0.0548 -0.2170
 3345DPPE   C2B62002   9.368  21.806  16.441  0.0469 -0.0279 -0.0417
 3345DPPE   C3B62003   9.397  21.887  16.054  0.0818 -0.1086 -0.2178
 3345DPPE   C4B62004   9.395  21.861  15.652 -0.2755 -0.1393 -0.3357
 3346DPPE   NH362005  17.759  17.947  16.669 -0.1744 -0.0771 -0.2539
 3346DPPE   PO462006  18.251  17.761  16.784  0.1294 -0.1929 -0.1273
 3346DPPE   GL162007  18.250  17.716  16.294 -0.1305 -0.0785  0.0278
 3346DPPE   GL262008  18.524  17.798  16.128  0.0418 -0.3694  0.0156
 3346DPPE   C1A62009  18.030  17.892  15.908  0.0635 -0.0669  0.0556
 3346DPPE   C2A62010  18.053  18.039  15.556  0.2774 -0.5053  0.1599
 3346DPPE   C3A62011  17.884  18.006  15.160  0.3341 -0.1517 -0.0809
 3346DPPE   C4A62012  17.888  18.084  14.769  0.0884  0.1949  0.2286
 3346DPPE   C1B62013  18.647  17.928  15.616  0.3738 -0.4298 -0.1342
 3346DPPE   C2B62014  18.824  18.022  15.227  0.0965  0.2738  0.3710
 3346DPPE   C3B62015  19.255  18.026  15.081 -0.1093  0.2972 -0.1880
 3346DPPE   C4B62016  19.508  17.941  14.701 -0.2345  0.3745 -0.2261
 3347DPPE   NH362017  10.854  12.870  18.146 -0.2925  0.0004  0.1993
 3347DPPE   PO462018  10.818  12.931  17.716  0.2222  0.3381  0.1705
 3347DPPE   GL162019  10.982  12.954  17.211 -0.1162  0.0507  0.0567
 3347DPPE   GL262020  10.820  12.618  17.048 -0.1159 -0.0935 -0.1259
 3347DPPE   C1A62021  11.062  12.968  16.757 -0.0771  0.1344  0.0079
 3347DPPE   C2A62022  10.857  12.850  16.385 -0.1806  0.1431 -0.2713
 3347DPPE   C3A62023  10.964  12.808  15.995 -0.1143  0.1223  0.0281
 3347DPPE   C4A62024  10.920  12.709  15.586  0.3060  0.0314  0.5208
 3347DPPE   C1B62025  10.544  12.659  16.693 -0.0770 -0.1394 -0.1442
 3347DPPE   C2B62026  10.385  12.633  16.319 -0.3392  0.0012  0.0628
 3347DPPE   C3B62027  10.504  12.549  15.896  0.0085 -0.3715 -0.2748
 3347DPPE   C4B62028  10.305  12.594  15.544  0.6109 -0.0135 -0.0744
 3348DPPE   NH362029  14.550   9.481  17.233 -0.0320  0.2258 -0.2205
 3348DPPE   PO462030  14.103   9.265  16.978  0.1940 -0.1023 -0.0368
 3348DPPE   GL162031  14.226   9.082  16.677 -0.0253  0.0658  0.0769
 3348DPPE   GL262032  14.570   9.007  16.764  0.0297 -0.3802 -0.3093
 3348DPPE   C1A62033  14.328   8.824  16.285 -0.2038 -0.0757 -0.0748
 3348DPPE   C2A62034  14.428   8.666  15.805  0.0853 -0.0119 -0.3413
 3348DPPE   C3A62035  14.428   8.467  15.404 -0.0496 -0.0987 -0.0204
 3348DPPE   C4A62036  14.507   8.342  15.032  0.0771  0.3321  0.0158
 3348DPPE   C1B62037  14.551   8.538  16.635 -0.1221 -0.3818  0.3502
 3348DPPE   C2B62038  14.799   8.320  16.285  0.1442 -0.4881  0.3136
 3348DPPE   C3B62039  14.774   8.285  15.907  0.2104  0.1868 -0.0054
 3348DPPE   C4B62040  14.926   8.491  15.496  0.0032 -0.1108  0.1439
 3349DPPE   NH362041  14.822  15.380  16.559 -0.0631 -0.1127  0.1117
 3349DPPE   PO462042  14.602  15.717  16.724 -0.1893 -0.1252  0.2907
 3349DPPE   GL162043  14.393  15.573  16.363  0.0490  0.0129 -0.1023
 3349DPPE   GL262044  14.694  15.777  16.198 -0.1250 -0.0096  0.0481
 3349DPPE   C1A62045  14.303  15.573  16.009  0.0883 -0.3954 -0.0892
 3349DPPE   C2A62046  14.196  15.542  15.537 -0.1107  0.1770  0.1141
 3349DPPE   C3A62047  14.255  15.613  15.097  0.1740 -0.3089  0.1833
 3349DPPE   C4A62048  14.301  15.731  14.696  0.3689  0.0769  0.2057
 3349DPPE   C1B62049  14.746  15.774  15.827  0.0497  0.3899  0.0513
 3349DPPE   C2B62050  14.727  15.771  15.348  0.0101 -0.0902 -0.0719
 3349DPPE   C3B62051  14.753  15.908  14.936  0.1950  0.0340 -0.0185
 3349DPPE   C4B62052  14.763  15.917  14.509 -0.2365 -0.1998  0.1231
 3350DPPE   NH362053   7.256  15.308  17.666 -0.0706 -0.0210  0.1346
 3350DPPE   PO462054   7.395  14.982  17.442 -0.2588  0.0239 -0.3137
 3350DPPE   GL162055   7.284  15.071  17.079  0.1063 -0.0428 -0.0082
 3350DPPE   GL262056   7.295  15.403  16.943  0.2554  0.4655 -0.1246
 3350DPPE   C1A62057   7.193  14.984  16.723  0.0851 -0.3048  0.0092
 3350DPPE   C2A62058   6.893  15.092  16.498 -0.0450 -0.0873 -0.0933
 3350DPPE   C3A62059   6.698  14.917  16.173  0.1419 -0.2628  0.0034
 3350DPPE   C4A62060   6.588  14.882  15.739  0.3090  0.1987  0.1414
 3350DPPE   C1B62061   7.698  15.074  16.817 -0.0415 -0.0028 -0.1141
 3350DPPE   C2B62062   7.887  14.908  16.455 -0.0213  0.0790 -0.2136
 3350DPPE   C3B62063   7.849  14.792  15.970  0.2080  0.0785  0.0458
 3350DPPE   C4B62064   8.126  14.701  15.635 -0.1073  0.1787 -0.4072
 3351DPPE   NH362065  12.558  18.806  17.188  0.1411  0.1200  0.2495
 3351DPPE   PO462066  12.360  18.361  17.140  0.3089 -0.1561  0.0513
 3351DPPE   GL162067  12.596  18.520  16.773  0.2102 -0.1593 -0.1447
 3351DPPE   GL262068  12.951  18.419  16.692 -0.2409 -0.3147  0.2965
 3351DPPE   C1A62069  12.552  18.345  16.390 -0.0881 -0.2911 -0.0077
 3351DPPE   C2A62070  12.595  18.236  15.912  0.2692 -0.2359  0.1672
 3351DPPE   C3A62071  12.607  18.184  15.485  0.0170 -0.3346  0.1032
 3351DPPE   C4A62072  12.617  18.067  15.068  0.0654  0.1868  0.3892
 3351DPPE   C1B62073  13.018  18.399  16.300  0.2913 -0.1407 -0.0016
 3351DPPE   C2B62074  13.079  18.549  15.908 -0.0809 -0.0969 -0.0314
 3351DPPE   C3B62075  13.012  18.457  15.501 -0.1662 -0.2779 -0.0011
 3351DPPE   C4B62076  12.985  18.509  15.112 -0.1316  0.2469  0.2456
 3352DPPE   NH362077   7.281  17.801  17.434  0.1422 -0.0842  0.1273
 3352DPPE   PO462078   7.137  17.355  17.365 -0.0477 -0.1035 -0.0992
 3352DPPE   GL162079   7.221  17.359  16.962  0.0323 -0.2360 -0.1879
 3352DPPE   GL262080   7.217  17.656  16.945  0.2336  0.0826 -0.0453
 3352DPPE   C1A62081   7.322  17.131  16.654  0.0309 -0.1473 -0.3056
 3352DPPE   C2A62082   7.286  17.295  16.232 -0.0156 -0.0714  0.0767
 3352DPPE   C3A62083   7.267  17.293  15.797 -0.2377  0.1422  0.1748
 3352DPPE   C4A62084   6.922  17.197  15.466  0.2568  0.0793  0.1927
 3352DPPE   C1B62085   7.308  17.732  16.460 -0.2239  0.0318 -0.3414
 3352DPPE   C2B62086   7.295  17.749  16.052 -0.1943  0.0094 -0.1348
 3352DPPE   C3B62087   7.424  17.749  15.628 -0.1139  0.0256  0.0410
 3352DPPE   C4B62088   7.426  17.908  15.164 -0.3244 -0.1434  0.0626
 3353DPPE   NH362089  18.607  11.622  17.182 -0.2072 -0.2830  0.1760
 3353DPPE   PO462090  18.451  11.270  17.389 -0.0414  0.0544 -0.2076
 3353DPPE   GL162091  18.606  10.951  17.203  0.2152  0.0770 -0.2728
 3353DPPE   GL262092  18.936  11.113  17.357  0.1593 -0.0198  0.0877
 3353DPPE   C1A62093  18.840  10.636  17.116 -0.0034  0.0812 -0.0789
 3353DPPE   C2A62094  19.083  10.310  17.090 -0.0583  0.0486 -0.2371
 3353DPPE   C3A62095  19.374  10.014  16.891  0.2106  0.0238 -0.0519
 3353DPPE   C4A62096  19.721   9.962  16.758  0.1707 -0.1487  0.1513
 3353DPPE   C1B62097  19.233  10.865  17.535 -0.0995  0.0395  0.2344
 3353DPPE   C2B62098  19.506  10.435  17.357 -0.0091 -0.0736 -0.3251
 3353DPPE   C3B62099  19.625  10.099  17.355  0.3169 -0.1741  0.0551
 3353DPPE   C4B62100  19.856   9.748  17.324  0.1975  0.1913 -0.0615
 3354DPPE   NH362101   8.205  11.293  17.942 -0.0463 -0.0750  0.1024
 3354DPPE   PO462102   8.234  10.890  17.891 -0.1024 -0.0431 -0.2642
 3354DPPE   GL162103   8.220  10.422  17.738  0.1072  0.2735 -0.0173
 3354DPPE   GL262104   8.412  10.155  17.903  0.1279  0.0010 -0.2141
 3354DPPE   C1A62105   7.938  10.219  17.684  0.3553  0.3001 -0.0082
 3354DPPE   C2A62106   7.596  10.123  17.885  0.2495 -0.0283  0.1055
 3354DPPE   C3A62107   7.211  10.135  17.958 -0.5704  0.0812  0.1328
 3354DPPE   C4A62108   6.719  10.205  17.964  0.3938 -0.0791  0.2040
 3354DPPE   C1B62109   8.384   9.984  17.493 -0.0456  0.2206 -0.0186
 3354DPPE   C2B62110   8.093   9.933  17.319  0.3801  0.0837  0.2890
 3354DPPE   C3B62111   7.714   9.907  17.242 -0.1336 -0.3860  0.2617
 3354DPPE   C4B62112   7.350   9.582  17.270 -0.0044 -0.1689 -0.1611
 3355DPPE   NH362113   5.942  17.092  17.839  0.0771 -0.0338 -0.1553
 3355DPPE   PO462114   6.215  16.948  17.441  0.3872 -0.2609  0.1021
 3355DPPE   GL162115   5.996  16.795  17.111  0.1504  0.1135  0.1221
 3355DPPE   GL262116   5.925  17.068  16.941 -0.2119 -0.2132 -0.0187
 3355DPPE   C1A62117   5.704  16.688  16.695  0.1881  0.0828 -0.2238
 3355DPPE   C2A62118   5.637  16.746  16.279 -0.2876  0.2048  0.1455
 3355DPPE   C3A62119   5.304  17.001  16.090  0.0445  0.0091 -0.1712
 3355DPPE   C4A62120   5.355  17.145  15.717  0.3443  0.1834 -0.1057
 3355DPPE   C1B62121   5.486  17.133  16.651 -0.0694 -0.1774  0.0454
 3355DPPE   C2B62122   5.513  17.473  16.288  0.0054 -0.4633  0.0510
 3355DPPE   C3B62123   5.530  17.544  15.834  0.0963 -0.2932 -0.3825
 3355DPPE   C4B62124   5.663  17.567  15.498  0.0259  0.1685  0.0929
 3356DPPE   NH362125  17.134  14.672  17.104  0.0385  0.0133 -0.0918
 3356DPPE   PO462126  16.788  14.996  17.048 -0.0444 -0.0359 -0.3409
 3356DPPE   GL162127  16.875  14.932  16.641  0.3520 -0.1047 -0.4605
 3356DPPE   GL262128  17.071  14.968  16.651  0.2958 -0.1814  0.1779
 3356DPPE   C1A62129  16.904  14.870  16.090 -0.1941  0.0533 -0.1485
 3356DPPE   C2A62130  16.919  14.849  15.634  0.3236  0.3438 -0.3894
 3356DPPE   C3A62131  16.947  14.838  15.244 -0.1209 -0.0528  0.0957
 3356DPPE   C4A62132  17.112  14.904  14.794  0.1311  0.1669 -0.3422
 3356DPPE   C1B62133  16.918  15.356  16.349  0.0970  0.1416  0.0541
 3356DPPE   C2B62134  16.919  15.380  15.953 -0.0554  0.0742 -0.2092
 3356DPPE   C3B62135  16.976  15.437  15.519  0.1797 -0.2727  0.0899
 3356DPPE   C4B62136  16.938  15.326  15.088  0.2314  0.1921  0.1236
 3357DPPE   NH362137  16.313  15.059  17.177  0.1886 -0.0523 -0.0778
 3357DPPE   PO462138  16.122  15.288  16.880 -0.1538 -0.0645  0.1920
 3357DPPE   GL162139  16.274  15.501  16.530 -0.0251 -0.2131 -0.2541
 3357DPPE   GL262140  16.003  15.519  16.296  0.1222 -0.1393 -0.0562
 3357DPPE   C1A62141  16.444  15.643  16.100  0.1116  0.1550 -0.1413
 3357DPPE   C2A62142  16.520  15.706  15.655 -0.0887 -0.1082  0.0216
 3357DPPE   C3A62143  16.498  15.795  15.210  0.2282 -0.0017 -0.0199
 3357DPPE   C4A62144  16.590  15.627  14.767  0.3015 -0.4831 -0.0931
 3357DPPE   C1B62145  16.086  15.426  15.817  0.2732 -0.0639 -0.1460
 3357DPPE   C2B62146  16.142  15.459  15.328  0.0129 -0.2238  0.1797
 3357DPPE   C3B62147  15.960  15.400  15.005  0.4159  0.1048 -0.1959
 3357DPPE   C4B62148  16.169  15.201  14.607  0.0895 -0.2696  0.2215
 3358DPPE   NH362149  13.409  21.568  17.187 -0.1680 -0.1897 -0.0550
 3358DPPE   PO462150  13.342  21.215  17.418  0.1518  0.0914 -0.2008
 3358DPPE   GL162151  13.057  21.089  17.042 -0.0336  0.2353 -0.0173
 3358DPPE   GL262152  13.063  21.296  16.842 -0.2046 -0.2579 -0.0986
 3358DPPE   C1A62153  12.880  20.908  16.587 -0.2813  0.3298  0.1142
 3358DPPE   C2A62154  12.963  20.885  16.144 -0.1149  0.0890  0.0529
 3358DPPE   C3A62155  12.885  20.879  15.792  0.3110 -0.0001 -0.3392
 3358DPPE   C4A62156  12.791  20.900  15.317  0.1442  0.0840 -0.1691
 3358DPPE   C1B62157  12.974  21.352  16.423  0.0951  0.0417 -0.0538
 3358DPPE   C2B62158  12.876  21.390  15.888  0.0829  0.4323 -0.2802
 3358DPPE   C3B62159  12.794  21.416  15.462  0.1857  0.0028 -0.0803
 3358DPPE   C4B62160  12.690  21.302  15.040 -0.0685 -0.1914 -0.1845
 3359DPPE   NH362161   8.044  11.660  18.247  0.0952  0.3090  0.2128
 3359DPPE   PO462162   8.154  11.768  17.887  0.3927  0.0338 -0.1165
 3359DPPE   GL162163   7.931  11.543  17.536  0.0932  0.1047 -0.0057
 3359DPPE   GL262164   7.695  11.694  17.437  0.0105 -0.1285  0.0253
 3359DPPE   C1A62165   7.627  11.242  17.224  0.1117  0.3511  0.0644
 3359DPPE   C2A62166   7.624  10.844  17.080 -0.0117 -0.3711 -0.1046
 3359DPPE   C3A62167   7.355  10.531  16.861  0.0247  0.1102 -0.2828
 3359DPPE   C4A62168   7.340  10.134  16.877  0.2478  0.0482  0.0526
 3359DPPE   C1B62169   7.380  11.625  17.037  0.0422 -0.0035 -0.1628
 3359DPPE   C2B62170   7.109  11.524  16.810  0.2145 -0.0633 -0.0144
 3359DPPE   C3B62171   6.874  11.248  16.673 -0.2304 -0.0484 -0.2088
 3359DPPE   C4B62172   6.612  10.880  16.576 -0.2452  0.1915 -0.1236
 3360DPPE   NH362173   7.984  13.791  17.510 -0.1063 -0.3376  0.1663
 3360DPPE   PO462174   7.999  14.270  17.514 -0.1535  0.1162 -0.0174
 3360DPPE   GL162175   7.949  14.156  17.102 -0.1963 -0.1783 -0.3277
 3360DPPE   GL262176   7.714  14.107  16.996  0.2347  0.0466 -0.1011
 3360DPPE   C1A62177   8.133  14.113  16.688 -0.3747 -0.4493  0.2354
 3360DPPE   C2A62178   8.413  14.176  16.328 -0.0677 -0.2847  0.3211
 3360DPPE   C3A62179   8.897  14.368  16.267  0.2515 -0.2167  0.0311
 3360DPPE   C4A62180   9.236  14.505  16.379 -0.3315  0.0029  0.3890
 3360DPPE   C1B62181   7.505  14.075  16.620 -0.2058  0.0434  0.1149
 3360DPPE   C2B62182   7.729  14.023  16.175 -0.0406 -0.0178 -0.2920
 3360DPPE   C3B62183   7.652  13.905  15.816  0.2807 -0.0245  0.1625
 3360DPPE   C4B62184   7.866  13.850  15.456 -0.0678  0.1308  0.2971
 3361DPPE   NH362185   8.234  17.777  17.907  0.1995 -0.1651 -0.1843
 3361DPPE   PO462186   8.129  18.224  17.804 -0.1906 -0.2573  0.1302
 3361DPPE   GL162187   8.206  17.875  17.421 -0.2192  0.0068  0.0807
 3361DPPE   GL262188   8.357  17.523  17.432  0.0315  0.1750 -0.2697
 3361DPPE   C1A62189   8.119  17.787  16.985  0.0731 -0.1183 -0.0987
 3361DPPE   C2A62190   8.157  17.617  16.551  0.1478  0.0159  0.0424
 3361DPPE   C3A62191   8.144  17.573  16.155  0.1773  0.1375  0.2032
 3361DPPE   C4A62192   8.070  17.702  15.693 -0.2242  0.0309 -0.0335
 3361DPPE   C1B62193   8.491  17.384  16.979 -0.0040  0.1329 -0.1185
 3361DPPE   C2B62194   8.595  17.329  16.611  0.3299 -0.3846 -0.0606
 3361DPPE   C3B62195   8.659  17.381  16.227  0.2977 -0.2203  0.0184
 3361DPPE   C4B62196   8.528  17.323  15.834 -0.2001 -0.2445 -0.0258
 3362DPPE   NH362197  17.931  23.993  16.850  0.1431  0.0081 -0.2215
 3362DPPE   PO462198  17.726  23.663  16.762 -0.2541 -0.0698  0.2336
 3362DPPE   GL162199  18.057  23.802  16.400  0.1912  0.0228 -0.3172
 3362DPPE   GL262200  18.326  23.606  16.321 -0.1449  0.1974 -0.1760
 3362DPPE   C1A62201  18.310  24.114  16.186  0.1135 -0.1179  0.0497
 3362DPPE   C2A62202  18.645  24.338  16.083  0.0972 -0.0202 -0.2317
 3362DPPE   C3A62203  18.748  24.720  15.957 -0.0791  0.1553  0.1117
 3362DPPE   C4A62204  19.033  25.038  15.713 -0.0016 -0.1470  0.2915
 3362DPPE   C1B62205  18.812  23.514  16.389 -0.2446  0.1996 -0.3854
 3362DPPE   C2B62206  19.180  23.395  16.674  0.1151  0.1899 -0.2205
 3362DPPE   C3B62207  19.606  23.429  16.695 -0.3177  0.1544  0.2831
 3362DPPE   C4B62208  19.873  23.630  16.850 -0.2024 -0.2482 -0.0721
 3363DPPE   NH362209  18.491  13.669  17.163 -0.1240 -0.1619 -0.0126
 3363DPPE   PO462210  18.347  14.103  17.078 -0.1113  0.0894 -0.3206
 3363DPPE   GL162211  18.142  14.260  16.787 -0.5992  0.1437 -0.1324
 3363DPPE   GL262212  17.831  14.366  16.753 -0.3959 -0.1228 -0.1804
 3363DPPE   C1A62213  18.110  14.021  16.396 -0.1847  0.1585 -0.0315
 3363DPPE   C2A62214  18.213  13.779  15.993 -0.0159 -0.0940 -0.2328
 3363DPPE   C3A62215  18.206  13.521  15.528 -0.0513  0.0247 -0.3052
 3363DPPE   C4A62216  18.008  13.301  15.190  0.1547  0.1145  0.2726
 3363DPPE   C1B62217  17.733  14.271  16.323  0.1767 -0.0798 -0.3193
 3363DPPE   C2B62218  17.682  14.277  15.818  0.2450 -0.0480 -0.1445
 3363DPPE   C3B62219  17.788  14.365  15.407 -0.2214  0.3123 -0.1961
 3363DPPE   C4B62220  17.970  14.270  14.973 -0.2120 -0.0025 -0.1106
 3364DPPE   NH362221   7.754  19.648  18.014 -0.1315  0.2362 -0.2527
 3364DPPE   PO462222   7.491  19.422  17.927  0.1300  0.3190  0.1333
 3364DPPE   GL162223   7.552  19.552  17.522  0.1823 -0.3509 -0.0890
 3364DPPE   GL262224   7.917  19.499  17.531 -0.2027  0.1865 -0.0839
 3364DPPE   C1A62225   7.427  19.620  17.182  0.1629  0.2752 -0.1039
 3364DPPE   C2A62226   7.524  19.666  16.848  0.3522 -0.4514  0.3165
 3364DPPE   C3A62227   7.448  19.906  16.590 -0.1452 -0.0530  0.0872
 3364DPPE   C4A62228   7.349  20.001  16.266  0.3526 -0.1229  0.0068
 3364DPPE   C1B62229   7.997  19.521  17.067 -0.0614 -0.2834  0.2570
 3364DPPE   C2B62230   7.977  19.494  16.710  0.0804  0.0606  0.0281
 3364DPPE   C3B62231   7.723  19.440  16.456  0.0150  0.1562 -0.0313
 3364DPPE   C4B62232   7.377  19.303  16.109  0.0944 -0.0595 -0.0129
 3365DPPE   NH362233  14.985  10.692  17.177  0.4961 -0.0209  0.1561
 3365DPPE   PO462234  15.351  10.829  17.115 -0.0682 -0.0714  0.0496
 3365DPPE   GL162235  15.470  10.647  16.804  0.1627 -0.1453  0.2745
 3365DPPE   GL262236  15.059  10.564  16.631 -0.0001  0.1926  0.1354
 3365DPPE   C1A62237  15.522  10.540  16.341  0.0252 -0.1255  0.3935
 3365DPPE   C2A62238  15.793  10.203  16.057 -0.1951 -0.2066  0.0750
 3365DPPE   C3A62239  15.869   9.921  15.881  0.1719  0.1007  0.2067
 3365DPPE   C4A62240  15.806   9.681  15.512 -0.0678 -0.0397 -0.0769
 3365DPPE   C1B62241  14.958  10.686  16.173  0.0592  0.0319 -0.2939
 3365DPPE   C2B62242  14.975  10.948  15.855 -0.3615 -0.0732  0.2642
 3365DPPE   C3B62243  15.198  11.031  15.577  0.2493  0.0251  0.0263
 3365DPPE   C4B62244  15.556  10.953  15.655  0.1815 -0.1880 -0.0749
 3366DPPE   NH362245  12.001  25.006  17.422 -0.0806 -0.1498 -0.2983
 3366DPPE   PO462246  12.048  24.669  17.336  0.0568 -0.0016  0.0339
 3366DPPE   GL162247  12.081  24.785  16.968 -0.0869 -0.0778  0.1024
 3366DPPE   GL262248  12.242  25.065  16.995  0.1882  0.1336  0.0413
 3366DPPE   C1A62249  11.995  25.093  16.549 -0.1073  0.1895 -0.3117
 3366DPPE   C2A62250  11.881  25.460  16.403 -0.0652  0.1099 -0.2309
 3366DPPE   C3A62251  11.848  25.802  16.193  0.1229  0.0286 -0.1209
 3366DPPE   C4A62252  11.845  26.000  15.779  0.2123 -0.0646 -0.1062
 3366DPPE   C1B62253  12.363  25.384  16.754  0.1389  0.1484 -0.1001
 3366DPPE   C2B62254  12.338  25.542  16.347 -0.0608 -0.0069  0.2383
 3366DPPE   C3B62255  12.455  25.966  16.332 -0.2555  0.0241  0.3102
 3366DPPE   C4B62256  12.567  26.395  16.280  0.1277 -0.4212 -0.4270
 3367DPPE   NH362257  15.275  22.664  17.086  0.2298 -0.3303 -0.0922
 3367DPPE   PO462258  15.202  22.253  17.102 -0.0934  0.0092 -0.0171
 3367DPPE   GL162259  15.236  22.230  16.620 -0.1278  0.0693 -0.0922
 3367DPPE   GL262260  14.928  22.396  16.512  0.0030 -0.2914 -0.2537
 3367DPPE   C1A62261  15.247  22.107  16.174 -0.2078  0.3348 -0.3256
 3367DPPE   C2A62262  15.158  22.036  15.721 -0.3293 -0.1775  0.0520
 3367DPPE   C3A62263  15.043  22.102  15.309  0.0349 -0.0640  0.3916
 3367DPPE   C4A62264  15.151  22.039  14.856  0.1720 -0.4830  0.0364
 3367DPPE   C1B62265  14.826  22.359  16.161  0.3092 -0.4168 -0.0267
 3367DPPE   C2B62266  14.759  22.381  15.782 -0.0750 -0.2055 -0.1211
 3367DPPE   C3B62267  14.585  22.385  15.342 -0.0403 -0.1295 -0.1017
 3367DPPE   C4B62268  14.344  22.363  14.950  0.0833 -0.0986  0.2504
 3368DPPE   NH362269  11.432  18.773  17.358 -0.3201 -0.0459  0.0817
 3368DPPE   PO462270  11.305  19.275  17.624  0.1327 -0.3443  0.2629
 3368DPPE   GL162271  11.358  19.304  17.106  0.0240  0.3481  0.2842
 3368DPPE   GL262272  11.372  19.116  16.842 -0.0214 -0.2567 -0.0832
 3368DPPE   C1A62273  11.419  19.574  16.700 -0.0945 -0.1251 -0.3098
 3368DPPE   C2A62274  11.473  19.729  16.392  0.2095  0.2736  0.0613
 3368DPPE   C3A62275  11.518  19.739  15.949  0.1417 -0.5808  0.1456
 3368DPPE   C4A62276  11.449  19.619  15.517 -0.4148  0.2600  0.0704
 3368DPPE   C1B62277  11.425  19.184  16.325  0.0985  0.0124 -0.2886
 3368DPPE   C2B62278  11.457  19.213  16.005 -0.1213  0.0180 -0.1074
 3368DPPE   C3B62279  11.453  19.077  15.581 -0.3612  0.2640  0.0071
 3368DPPE   C4B62280  11.399  19.185  15.107  0.0316  0.0137 -0.3536
 3369DPPE   NH362281  13.133  23.283  17.535 -0.0466  0.2174 -0.1420
 3369DPPE   PO462282  12.895  23.152  17.170  0.1817 -0.0416  0.3356
 3369DPPE   GL162283  12.892  23.301  16.797  0.0214  0.0041  0.1747
 3369DPPE   GL262284  13.049  23.383  16.616 -0.1717 -0.1337 -0.0643
 3369DPPE   C1A62285  12.666  23.223  16.298  0.0050  0.3753  0.1237
 3369DPPE   C2A62286  12.493  23.267  15.945  0.0385  0.4382  0.3193
 3369DPPE   C3A62287  12.232  23.299  15.574  0.0144  0.0434  0.1319
 3369DPPE   C4A62288  12.193  22.948  15.312  0.0865 -0.2488  0.1119
 3369DPPE   C1B62289  13.090  23.402  16.142  0.2239 -0.2211 -0.2230
 3369DPPE   C2B62290  12.961  23.256  15.748  0.0894 -0.1306 -0.1754
 3369DPPE   C3B62291  12.953  22.946  15.980  0.1932 -0.1415 -0.4564
 3369DPPE   C4B62292  13.005  22.830  16.370  0.0282  0.1600  0.2083
 3370DPPE   NH362293  12.121  10.265  16.963  0.0446  0.2875 -0.0663
 3370DPPE   PO462294  11.728  10.030  17.022  0.2325  0.1953  0.2071
 3370DPPE   GL162295  11.676  10.153  16.637 -0.0313  0.1640  0.0539
 3370DPPE   GL262296  11.992   9.995  16.533 -0.0692 -0.2234  0.1799
 3370DPPE   C1A62297  11.483  10.231  16.153 -0.1516 -0.0478 -0.2422
 3370DPPE   C2A62298  11.715  10.088  15.853 -0.1115  0.0007  0.0488
 3370DPPE   C3A62299  12.035   9.911  15.621 -0.1241 -0.2358  0.3818
 3370DPPE   C4A62300  12.323   9.689  15.401 -0.0109  0.1880 -0.1067
 3370DPPE   C1B62301  12.251  10.039  16.144 -0.0228 -0.1399  0.3133
 3370DPPE   C2B62302  12.626   9.873  15.787  0.4302 -0.2305 -0.2579
 3370DPPE   C3B62303  12.846   9.789  15.427  0.0564 -0.2640 -0.2996
 3370DPPE   C4B62304  12.728   9.680  15.047  0.2014 -0.0167  0.1171
 3371DPPE   NH362305   9.493  17.681  17.646  0.3311  0.0488  0.1448
 3371DPPE   PO462306   9.892  18.098  17.693 -0.1053  0.0154 -0.3137
 3371DPPE   GL162307  10.096  17.842  17.320 -0.0104 -0.0942  0.0475
 3371DPPE   GL262308  10.010  18.032  17.110  0.3115 -0.0034 -0.1761
 3371DPPE   C1A62309  10.341  17.704  16.849  0.3744 -0.0250 -0.1468
 3371DPPE   C2A62310  10.396  17.617  16.406 -0.0399 -0.2907 -0.2676
 3371DPPE   C3A62311  10.371  17.591  15.902  0.0652  0.0174  0.0359
 3371DPPE   C4A62312  10.231  17.623  15.473  0.0526  0.4286  0.1429
 3371DPPE   C1B62313   9.967  17.956  16.639  0.1435 -0.1589 -0.0574
 3371DPPE   C2B62314   9.995  17.968  16.188  0.3012 -0.0542 -0.0661
 3371DPPE   C3B62315  10.014  17.996  15.723 -0.2102  0.1596  0.3850
 3371DPPE   C4B62316   9.793  17.958  15.297  0.4000  0.0499 -0.1902
 3372DPPE   NH362317  16.989  20.718  16.989 -0.1098  0.3407 -0.0193
 3372DPPE   PO462318  17.139  21.199  17.074 -0.2241 -0.0457 -0.1439
 3372DPPE   GL162319  17.281  21.126  16.685 -0.2181 -0.3033 -0.0103
 3372DPPE   GL262320  17.050  21.454  16.495 -0.1731 -0.1024  0.2046
 3372DPPE   C1A62321  17.340  21.227  16.251 -0.1685  0.1735  0.0793
 3372DPPE   C2A62322  17.284  21.088  15.817  0.1009  0.1963  0.1169
 3372DPPE   C3A62323  17.310  21.028  15.395  0.0333 -0.1924  0.0791
 3372DPPE   C4A62324  17.153  21.092  14.991  0.2083 -0.2097 -0.0102
 3372DPPE   C1B62325  16.917  21.426  16.005 -0.2262  0.0554  0.0732
 3372DPPE   C2B62326  16.884  21.446  15.593 -0.1744 -0.0296  0.2282
 3372DPPE   C3B62327  16.848  21.439  15.192 -0.0142 -0.1429 -0.3933
 3372DPPE   C4B62328  16.971  21.589  14.799  0.2642  0.1028 -0.2562
 3373DPPE   NH362329   8.582  13.932  17.661  0.1075  0.0719  0.1510
 3373DPPE   PO462330   8.491  13.549  17.485 -0.0068  0.1444  0.0300
 3373DPPE   GL162331   8.532  13.515  17.060 -0.3530 -0.2447  0.0286
 3373DPPE   GL262332   8.759  13.288  16.950 -0.0563 -0.0197 -0.0338
 3373DPPE   C1A62333   8.468  13.726  16.639  0.2290  0.1312  0.0472
 3373DPPE   C2A62334   8.383  13.678  16.233  0.0152 -0.0914 -0.1043
 3373DPPE   C3A62335   8.171  13.675  15.879 -0.2253 -0.0593  0.1546
 3373DPPE   C4A62336   8.177  13.430  15.466 -0.4210  0.3681 -0.0582
 3373DPPE   C1B62337   8.786  13.239  16.539  0.1022  0.1012 -0.3121
 3373DPPE   C2B62338   8.698  13.260  16.122 -0.1677  0.3774  0.0275
 3373DPPE   C3B62339   8.653  13.375  15.743  0.1692 -0.0206 -0.3785
 3373DPPE   C4B62340   8.738  13.404  15.292  0.1262  0.1377  0.0451
 3374DPPE   NH362341  15.972  10.118  17.698  0.2138  0.1826  0.1665
 3374DPPE   PO462342  16.305  10.304  17.508 -0.3297 -0.1167 -0.0826
 3374DPPE   GL162343  16.421  10.067  17.161 -0.4744 -0.0917  0.0596
 3374DPPE   GL262344  16.348   9.723  17.293  0.0703  0.1842  0.2893
 3374DPPE   C1A62345  16.531   9.855  16.750  0.2436  0.2094  0.1129
 3374DPPE   C2A62346  16.378   9.547  16.450  0.2664 -0.0760 -0.1005
 3374DPPE   C3A62347  16.569   9.290  16.078 -0.2654 -0.0801 -0.1895
 3374DPPE   C4A62348  16.713   9.297  15.602 -0.1273 -0.1121  0.0174
 3374DPPE   C1B62349  16.610   9.499  17.236 -0.1543  0.0599 -0.3735
 3374DPPE   C2B62350  16.988   9.223  17.123  0.2891 -0.0934  0.1262
 3374DPPE   C3B62351  17.274   8.864  17.065  0.1640  0.2482  0.0061
 3374DPPE   C4B62352  17.341   8.518  17.043  0.1420 -0.0792 -0.1020
 3375DPPE   NH362353  10.813  10.883  17.364  0.2208  0.2555 -0.1452
 3375DPPE   PO462354  10.866  10.442  17.244  0.0453 -0.3698 -0.1158
 3375DPPE   GL162355  10.765  10.302  16.850  0.0243  0.1241 -0.0178
 3375DPPE   GL262356  10.434  10.260  16.717 -0.1303  0.0850  0.0481
 3375DPPE   C1A62357  10.900  10.156  16.453 -0.1719  0.3139 -0.0639
 3375DPPE   C2A62358  10.711  10.218  16.177 -0.1837  0.0748  0.1374
 3375DPPE   C3A62359  10.807  10.569  15.816 -0.0253  0.1975  0.0167
 3375DPPE   C4A62360  10.538  10.551  15.481 -0.1753 -0.1637 -0.2204
 3375DPPE   C1B62361  10.302  10.038  16.378 -0.0307 -0.1172  0.1230
 3375DPPE   C2B62362  10.322   9.937  15.975  0.0488 -0.1404  0.0013
 3375DPPE   C3B62363  10.480   9.609  15.637  0.0156  0.0803 -0.1041
 3375DPPE   C4B62364  10.654   9.258  15.462 -0.0575  0.3353 -0.1282
 3376DPPE   NH362365  14.969  23.107  17.432  0.0791 -0.1683 -0.0864
 3376DPPE   PO462366  15.353  23.166  17.202 -0.2739 -0.1981 -0.1493
 3376DPPE   GL162367  15.227  23.098  16.859 -0.2545  0.4103 -0.0403
 3376DPPE   GL262368  14.924  22.915  16.786  0.2068 -0.2960  0.1822
 3376DPPE   C1A62369  15.344  23.190  16.464  0.1530 -0.2394  0.0694
 3376DPPE   C2A62370  15.318  23.304  16.117 -0.0995  0.3189  0.2768
 3376DPPE   C3A62371  15.302  23.030  15.763  0.0097  0.0815 -0.1621
 3376DPPE   C4A62372  15.164  23.035  15.387  0.0810 -0.2202 -0.1990
 3376DPPE   C1B62373  14.909  22.996  16.395 -0.1107  0.2782 -0.4290
 3376DPPE   C2B62374  14.825  22.878  16.032 -0.3872  0.3226 -0.0590
 3376DPPE   C3B62375  14.624  22.876  15.589 -0.1454 -0.0756 -0.0496
 3376DPPE   C4B62376  14.745  22.928  15.195 -0.1779  0.1361  0.1627
 3377DPPE   NH362377  18.077  20.623  16.937  0.0529  0.0728  0.2986
 3377DPPE   PO462378  18.155  21.065  17.044 -0.3987  0.0747  0.1325
 3377DPPE   GL162379  18.409  20.927  16.625 -0.2652 -0.0651  0.2676
 3377DPPE   GL262380  18.486  20.553  16.613  0.0315  0.1094  0.0226
 3377DPPE   C1A62381  18.819  21.121  16.555 -0.0636  0.1766 -0.0760
 3377DPPE   C2A62382  19.269  20.850  16.590 -0.1384 -0.1759  0.1768
 3377DPPE   C3A62383  19.683  20.671  16.272 -0.1970  0.0682  0.4560
 3377DPPE   C4A62384  19.648  20.388  15.868 -0.0851  0.0092  0.0600
 3377DPPE   C1B62385  18.732  20.521  16.206  0.0105 -0.2292 -0.2303
 3377DPPE   C2B62386  19.172  20.698  16.140 -0.1750 -0.2057  0.0740
 3377DPPE   C3B62387  19.335  20.738  15.715  0.2281 -0.1230 -0.1475
 3377DPPE   C4B62388  19.150  20.833  15.309 -0.1447  0.0309  0.2148
 3378DPPE   NH362389   6.593  14.404  18.090 -0.1370 -0.3337 -0.3851
 3378DPPE   PO462390   6.043  14.384  18.116  0.0910  0.5608  0.3304
 3378DPPE   GL162391   5.726  14.278  17.753 -0.1567  0.1305 -0.1404
 3378DPPE   GL262392   5.770  13.939  17.759  0.2393 -0.0012  0.2417
 3378DPPE   C1A62393   5.631  14.227  17.343  0.0183 -0.0607 -0.1571
 3378DPPE   C2A62394   5.683  14.235  16.851  0.0347 -0.1959 -0.1003
 3378DPPE   C3A62395   5.754  14.362  16.451  0.1680  0.1501  0.4189
 3378DPPE   C4A62396   5.569  14.571  16.078  0.3665 -0.2701  0.0808
 3378DPPE   C1B62397   5.601  13.513  17.917 -0.0436 -0.2757 -0.0255
 3378DPPE   C2B62398   5.545  13.073  17.827 -0.0008  0.0080  0.0092
 3378DPPE   C3B62399   5.517  12.743  17.650  0.3050  0.0038 -0.1909
 3378DPPE   C4B62400   5.421  12.305  17.646 -0.0646 -0.0681 -0.0908
 3379DPPE   NH362401  17.880  14.900  16.893 -0.1130 -0.0687  0.2151
 3379DPPE   PO462402  17.458  15.040  17.047  0.0052 -0.0696  0.1400
 3379DPPE   GL162403  17.518  15.247  16.627 -0.5130 -0.0087  0.0418
 3379DPPE   GL262404  17.854  15.251  16.514 -0.1626 -0.3350 -0.2727
 3379DPPE   C1A62405  17.317  15.127  16.099 -0.0077  0.2520  0.2282
 3379DPPE   C2A62406  17.348  15.163  15.518  0.0952  0.0949  0.1253
 3379DPPE   C3A62407  17.386  15.189  15.076 -0.0191 -0.4175 -0.2114
 3379DPPE   C4A62408  17.267  15.646  14.868  0.0390  0.1312  0.1141
 3379DPPE   C1B62409  17.744  15.365  16.106 -0.1628 -0.0494  0.0685
 3379DPPE   C2B62410  17.840  15.374  15.730  0.2050 -0.0423 -0.2842
 3379DPPE   C3B62411  17.878  15.322  15.361  0.4066 -0.3308 -0.3212
 3379DPPE   C4B62412  17.835  15.248  14.866 -0.1747  0.0734  0.2322
 3380DPPE   NH362413  11.337  23.913  17.076  0.1680  0.1952  0.1088
 3380DPPE   PO462414  11.722  23.837  16.968 -0.1458 -0.1190 -0.0639
 3380DPPE   GL162415  11.840  23.857  16.563 -0.2669  0.0979  0.1163
 3380DPPE   GL262416  12.152  24.009  16.385  0.0769 -0.0443 -0.4684
 3380DPPE   C1A62417  11.734  23.942  16.167 -0.0857 -0.0913 -0.1395
 3380DPPE   C2A62418  11.736  24.035  15.763 -0.0995  0.1927  0.0548
 3380DPPE   C3A62419  11.899  24.265  15.499 -0.2343 -0.0942 -0.1592
 3380DPPE   C4A62420  12.225  24.487  15.177  0.0212  0.0486  0.2512
 3380DPPE   C1B62421  12.143  24.142  15.939  0.0668 -0.0960 -0.0803
 3380DPPE   C2B62422  12.332  24.067  15.532 -0.1427  0.2717  0.2438
 3380DPPE   C3B62423  12.488  23.631  15.335 -0.1049  0.0789 -0.0814
 3380DPPE   C4B62424  12.321  23.396  15.018 -0.0582  0.2407 -0.0884
 3381DPPE   NH362425  10.380  18.315  17.517  0.2065  0.0205 -0.1084
 3381DPPE   PO462426  10.730  17.982  17.521 -0.3604 -0.2085 -0.0387
 3381DPPE   GL162427  10.622  18.011  17.088  0.1018  0.0621  0.0798
 3381DPPE   GL262428  10.910  17.868  16.872  0.2273 -0.1802 -0.2863
 3381DPPE   C1A62429  10.386  18.227  16.738 -0.1692  0.0446 -0.1831
 3381DPPE   C2A62430  10.412  18.130  16.356 -0.1482 -0.1488  0.0027
 3381DPPE   C3A62431  10.452  18.107  15.940  0.0847  0.1495  0.1142
 3381DPPE   C4A62432  10.476  18.114  15.503  0.0069  0.2217  0.2049
 3381DPPE   C1B62433  10.850  17.856  16.520  0.2156  0.1931 -0.0550
 3381DPPE   C2B62434  10.784  17.789  16.161 -0.3092 -0.1321  0.0623
 3381DPPE   C3B62435  10.821  17.758  15.649  0.1990  0.1525 -0.0386
 3381DPPE   C4B62436  10.665  17.708  15.246 -0.2733 -0.0120  0.2340
 3382DPPE   NH362437  13.430  17.647  16.873  0.1213  0.0867  0.0804
 3382DPPE   PO462438  13.778  17.559  16.754 -0.1741 -0.0633 -0.1215
 3382DPPE   GL162439  13.535  17.546  16.361  0.0225  0.1040 -0.2405
 3382DPPE   GL262440  13.367  17.357  16.487  0.1008 -0.0268  0.0188
 3382DPPE   C1A62441  13.408  17.758  15.958 -0.2665 -0.2629 -0.0649
 3382DPPE   C2A62442  13.496  17.754  15.550 -0.1952 -0.2199  0.0007
 3382DPPE   C3A62443  13.557  17.775  15.052  0.1475  0.0536  0.0429
 3382DPPE   C4A62444  13.517  17.830  14.645  0.1207 -0.4351 -0.2577
 3382DPPE   C1B62445  13.479  17.205  16.027 -0.4871 -0.0488 -0.1711
 3382DPPE   C2B62446  13.408  17.121  15.555  0.1387  0.0800  0.0497
 3382DPPE   C3B62447  13.446  17.265  15.021  0.0921 -0.2384  0.0009
 3382DPPE   C4B62448  13.542  17.343  14.579  0.1165 -0.3710 -0.0511
 3383DPPE   NH362449  16.659  20.056  17.085  0.3249 -0.0233 -0.2029
 3383DPPE   PO462450  16.925  19.727  16.892  0.1188  0.2067 -0.1546
 3383DPPE   GL162451  16.807  19.636  16.525  0.0698  0.1337  0.3707
 3383DPPE   GL262452  16.794  19.313  16.423 -0.1069  0.1435 -0.1411
 3383DPPE   C1A62453  16.737  19.791  16.146 -0.0077  0.1223  0.3054
 3383DPPE   C2A62454  16.766  19.821  15.743 -0.0162  0.1804  0.2942
 3383DPPE   C3A62455  16.763  19.818  15.308  0.0314 -0.0454  0.0711
 3383DPPE   C4A62456  16.758  19.889  14.891  0.0206 -0.0684  0.0925
 3383DPPE   C1B62457  16.733  19.350  15.965 -0.0096 -0.0624 -0.2095
 3383DPPE   C2B62458  16.760  19.346  15.540  0.0039 -0.0800  0.0479
 3383DPPE   C3B62459  16.606  19.378  15.126 -0.1614 -0.0555  0.1404
 3383DPPE   C4B62460  16.703  19.275  14.642  0.0969  0.3044  0.1819
 3384DPPE   NH362461   6.730  18.395  17.832  0.3313 -0.0203  0.1323
 3384DPPE   PO462462   6.879  18.084  17.559 -0.0633 -0.1965 -0.0487
 3384DPPE   GL162463   6.927  17.987  17.130  0.0150  0.0009 -0.0157
 3384DPPE   GL262464   7.208  18.128  17.039 -0.0374 -0.2369  0.1544
 3384DPPE   C1A62465   6.887  17.992  16.706  0.0811  0.0956 -0.4563
 3384DPPE   C2A62466   6.861  17.970  16.233  0.1704 -0.0369 -0.0776
 3384DPPE   C3A62467   6.913  17.912  15.792  0.0861 -0.0683 -0.0575
 3384DPPE   C4A62468   6.980  17.716  15.327  0.0770 -0.0329  0.0511
 3384DPPE   C1B62469   7.392  18.212  16.594 -0.1403  0.0639  0.1445
 3384DPPE   C2B62470   7.322  18.211  16.198  0.1430  0.0177 -0.3066
 3384DPPE   C3B62471   7.251  18.217  15.714 -0.2225  0.0963 -0.1968
 3384DPPE   C4B62472   7.010  18.268  15.347 -0.5190 -0.0385 -0.0198
 3385DPPE   NH362473  10.081  16.363  17.691 -0.1682 -0.3129  0.1396
 3385DPPE   PO462474  10.457  16.351  17.622 -0.0580  0.4233 -0.2284
 3385DPPE   GL162475  10.616  16.327  17.139  0.3086 -0.2639  0.1696
 3385DPPE   GL262476  10.308  16.145  17.029 -0.0384  0.0994 -0.1592
 3385DPPE   C1A62477  10.705  16.301  16.748 -0.0791  0.4301 -0.0311
 3385DPPE   C2A62478  10.748  16.335  16.305 -0.4612 -0.1541  0.1674
 3385DPPE   C3A62479  10.770  16.325  15.910 -0.2393  0.1543 -0.4084
 3385DPPE   C4A62480  10.550  16.257  15.476  0.1789  0.1135 -0.2982
 3385DPPE   C1B62481  10.164  16.116  16.554  0.1521 -0.0226 -0.0724
 3385DPPE   C2B62482  10.316  16.108  16.241  0.1356  0.0863  0.1414
 3385DPPE   C3B62483  10.193  16.039  15.794  0.0224  0.0772 -0.2674
 3385DPPE   C4B62484  10.087  16.062  15.402 -0.1307  0.0654 -0.1282
 3386DPPE   NH362485  13.616  11.866  17.579 -0.2422 -0.1218  0.0622
 3386DPPE   PO462486  13.352  11.633  17.237 -0.0065  0.1297  0.0517
 3386DPPE   GL162487  13.261  11.727  16.842  0.1551 -0.4173 -0.1699
 3386DPPE   GL262488  13.189  12.058  16.825 -0.1144  0.0177 -0.2506
 3386DPPE   C1A62489  13.094  11.548  16.395 -0.1659  0.1957 -0.2003
 3386DPPE   C2A62490  13.135  11.417  15.997  0.0730  0.1795 -0.3631
 3386DPPE   C3A62491  13.105  11.368  15.637 -0.1743  0.1747  0.1471
 3386DPPE   C4A62492  13.036  11.499  15.303 -0.1615  0.1085 -0.1044
 3386DPPE   C1B62493  13.175  12.046  16.380 -0.0575 -0.0434 -0.0485
 3386DPPE   C2B62494  13.117  11.922  16.008 -0.4300 -0.2271  0.1494
 3386DPPE   C3B62495  13.089  11.978  15.559 -0.7510  0.2932 -0.1929
 3386DPPE   C4B62496  13.091  11.950  15.040 -0.1222  0.1615 -0.0621
 3387DPPE   NH362497  16.135  11.517  17.092  0.0081  0.2372 -0.1013
 3387DPPE   PO462498  16.432  11.547  17.223 -0.0705 -0.2312  0.5789
 3387DPPE   GL162499  16.903  11.495  16.982 -0.1612  0.1011  0.1676
 3387DPPE   GL262500  17.086  11.130  17.030  0.1781  0.2978 -0.1970
 3387DPPE   C1A62501  17.025  11.611  16.629 -0.0086 -0.3598 -0.0413
 3387DPPE   C2A62502  17.199  11.753  16.072 -0.1576  0.1002  0.0212
 3387DPPE   C3A62503  17.359  11.876  15.690 -0.0951  0.3169  0.0579
 3387DPPE   C4A62504  17.343  11.920  15.267 -0.2462 -0.1798 -0.0330
 3387DPPE   C1B62505  17.319  11.198  16.657 -0.3065  0.1055 -0.1988
 3387DPPE   C2B62506  17.446  11.388  16.318 -0.0354 -0.1300  0.2962
 3387DPPE   C3B62507  17.600  11.454  15.885 -0.0997 -0.0900  0.3727
 3387DPPE   C4B62508  17.554  11.236  15.551 -0.2446 -0.0290  0.0447
 3388DPPE   NH362509   7.091  19.811  17.747  0.1376  0.2185 -0.1434
 3388DPPE   PO462510   6.719  19.674  17.715  0.0637 -0.2116 -0.0498
 3388DPPE   GL162511   6.617  19.948  17.423  0.0526 -0.0333 -0.2960
 3388DPPE   GL262512   6.303  20.131  17.392  0.3077  0.2226  0.1025
 3388DPPE   C1A62513   6.519  19.871  16.991 -0.2447  0.0208  0.1119
 3388DPPE   C2A62514   6.438  19.872  16.609  0.0384  0.1596 -0.2894
 3388DPPE   C3A62515   6.236  20.009  16.166 -0.2901  0.3060  0.4674
 3388DPPE   C4A62516   5.984  20.144  15.746 -0.0243  0.1438  0.1284
 3388DPPE   C1B62517   6.241  20.322  16.974 -0.3507 -0.1277  0.0990
 3388DPPE   C2B62518   6.435  20.412  16.531  0.2272 -0.0909 -0.3843
 3388DPPE   C3B62519   6.226  20.537  16.226  0.2807  0.1786  0.1625
 3388DPPE   C4B62520   5.875  20.688  15.837  0.2937  0.2025 -0.3491
 3389DPPE   NH362521  18.986  12.392  17.380 -0.0665  0.0383 -0.2365
 3389DPPE   PO462522  18.672  12.066  17.429  0.1843  0.1378 -0.0633
 3389DPPE   GL162523  18.998  11.814  17.417 -0.1428 -0.1469 -0.0885
 3389DPPE   GL262524  19.272  12.015  17.636 -0.1234 -0.2828 -0.0640
 3389DPPE   C1A62525  19.242  11.578  17.259 -0.1306  0.1115  0.2234
 3389DPPE   C2A62526  19.365  11.153  17.044 -0.1534 -0.3096  0.1229
 3389DPPE   C3A62527  19.472  10.774  16.908 -0.0957  0.3315 -0.2346
 3389DPPE   C4A62528  19.684  10.488  16.857 -0.2169 -0.1548 -0.0394
 3389DPPE   C1B62529  19.559  11.727  17.828 -0.1939  0.2343 -0.0462
 3389DPPE   C2B62530  19.786  11.528  18.112  0.3399  0.0205 -0.0884
 3389DPPE   C3B62531  20.029  11.299  18.268  0.0713  0.0380  0.1508
 3389DPPE   C4B62532  20.511  11.318  18.047 -0.0537  0.1919  0.0257
 3390DPPE   NH362533   9.323  13.053  17.488 -0.1369 -0.0803 -0.2937
 3390DPPE   PO462534   9.479  12.605  17.576 -0.1104 -0.0046 -0.2201
 3390DPPE   GL162535   9.263  12.571  17.183  0.0412 -0.0421  0.2506
 3390DPPE   GL262536   9.210  12.993  16.997 -0.1098 -0.2803  0.0001
 3390DPPE   C1A62537   9.203  12.438  16.839  0.0722 -0.1457  0.2442
 3390DPPE   C2A62538   9.144  12.368  16.461 -0.2343 -0.1703  0.0599
 3390DPPE   C3A62539   9.065  12.469  16.059 -0.3886 -0.2399 -0.0846
 3390DPPE   C4A62540   9.005  12.422  15.594 -0.0729 -0.5720 -0.0698
 3390DPPE   C1B62541   9.100  12.890  16.662 -0.0784 -0.2473 -0.1149
 3390DPPE   C2B62542   9.201  13.013  16.263  0.2042 -0.0419 -0.0705
 3390DPPE   C3B62543   9.187  12.867  15.782  0.0921 -0.1026 -0.0168
 3390DPPE   C4B62544   8.858  12.952  15.499  0.0826  0.1023 -0.2502
 3391DPPE   NH362545  10.656  16.767  17.461 -0.1837  0.0445  0.2770
 3391DPPE   PO462546  10.938  16.503  17.537  0.3683 -0.1370 -0.0737
 3391DPPE   GL162547  11.009  16.816  17.148 -0.3118 -0.1786 -0.1067
 3391DPPE   GL262548  10.780  16.768  16.951 -0.0135  0.0859 -0.4100
 3391DPPE   C1A62549  11.200  16.998  16.686  0.2537 -0.1900  0.3090
 3391DPPE   C2A62550  11.251  16.969  16.246  0.0848 -0.2179  0.0045
 3391DPPE   C3A62551  11.208  17.088  15.794  0.0007  0.1458 -0.3014
 3391DPPE   C4A62552  11.131  16.990  15.432  0.1193  0.1131 -0.1612
 3391DPPE   C1B62553  10.725  16.762  16.575 -0.0664 -0.0123  0.2366
 3391DPPE   C2B62554  10.755  16.811  16.114 -0.2018 -0.0837 -0.1866
 3391DPPE   C3B62555  10.720  16.791  15.666  0.2452 -0.3616 -0.0721
 3391DPPE   C4B62556  10.576  16.743  15.347  0.1073  0.0327  0.5194
 3392DPPE   NH362557  12.217  11.212  17.028  0.2003  0.3431  0.0397
 3392DPPE   PO462558  12.214  10.771  16.979 -0.0302  0.1771 -0.0027
 3392DPPE   GL162559  12.007  11.091  16.593  0.4345  0.0302  0.3815
 3392DPPE   GL262560  11.738  11.270  16.301  0.1816  0.2785  0.0976
 3392DPPE   C1A62561  12.136  11.089  16.101  0.2211 -0.0481  0.2594
 3392DPPE   C2A62562  12.208  11.005  15.632 -0.1600  0.0164 -0.1424
 3392DPPE   C3A62563  12.236  10.617  15.307 -0.2559 -0.3967 -0.0936
 3392DPPE   C4A62564  12.010  10.379  15.074 -0.2845 -0.1045  0.1258
 3392DPPE   C1B62565  11.696  11.356  15.871  0.1602 -0.2565 -0.1855
 3392DPPE   C2B62566  11.774  11.343  15.326 -0.0234  0.0513 -0.0722
 3392DPPE   C3B62567  11.926  10.964  15.016 -0.3028  0.1369 -0.0774
 3392DPPE   C4B62568  11.804  10.739  14.787 -0.0671 -0.0062 -0.2239
 3393DPPE   NH362569  11.451  20.652  17.683 -0.2600 -0.0853 -0.0563
 3393DPPE   PO462570  11.579  20.396  17.318 -0.1829  0.1282  0.0315
 3393DPPE   GL162571  11.276  20.316  17.064  0.0783 -0.2361 -0.0553
 3393DPPE   GL262572  11.213  20.511  16.900  0.0804 -0.1028  0.1081
 3393DPPE   C1A62573  11.077  20.032  16.795 -0.0834 -0.0642  0.1226
 3393DPPE   C2A62574  11.040  19.970  16.388 -0.0836 -0.1008  0.5625
 3393DPPE   C3A62575  10.990  19.926  15.949  0.0115 -0.1670 -0.1399
 3393DPPE   C4A62576  10.931  19.928  15.521 -0.0267  0.1719  0.1194
 3393DPPE   C1B62577  11.103  20.500  16.465  0.4856  0.1972 -0.2135
 3393DPPE   C2B62578  11.067  20.452  15.981 -0.0869  0.3568  0.1296
 3393DPPE   C3B62579  11.072  20.441  15.629 -0.2372  0.1067  0.2742
 3393DPPE   C4B62580  11.214  20.444  15.252  0.1644  0.1735 -0.0412
 3394DPPE   NH362581  14.619  22.127  17.251  0.1984  0.0518 -0.3141
 3394DPPE   PO462582  14.659  22.425  16.997  0.0772  0.0368  0.1369
 3394DPPE   GL162583  14.440  22.151  16.692 -0.3555  0.0902  0.3901
 3394DPPE   GL262584  14.109  22.274  16.583  0.2145 -0.5959  0.1304
 3394DPPE   C1A62585  14.409  22.069  16.228 -0.2099  0.0350 -0.0360
 3394DPPE   C2A62586  14.238  22.146  15.834 -0.2994  0.2236 -0.1577
 3394DPPE   C3A62587  14.052  22.130  15.352 -0.1940  0.0169 -0.0960
 3394DPPE   C4A62588  13.834  22.221  15.047  0.0820  0.0858 -0.0999
 3394DPPE   C1B62589  13.834  22.367  16.189  0.1643  0.0242 -0.2757
 3394DPPE   C2B62590  13.769  22.472  15.791 -0.0676  0.1214 -0.0967
 3394DPPE   C3B62591  13.724  22.498  15.387 -0.2508  0.1184 -0.0844
 3394DPPE   C4B62592  13.517  22.626  15.011  0.0571  0.1162 -0.0886
 3395DPPE   NH362593  14.112  10.467  16.879  0.2379 -0.0502  0.1779
 3395DPPE   PO462594  14.455  10.619  17.169  0.4309 -0.1158  0.0434
 3395DPPE   GL162595  14.591  10.487  16.729 -0.0362 -0.2745 -0.0796
 3395DPPE   GL262596  14.719  10.189  16.516 -0.3468  0.1561  0.1499
 3395DPPE   C1A62597  14.430  10.514  16.299 -0.0425 -0.4364 -0.0360
 3395DPPE   C2A62598  14.527  10.615  15.864  0.1013 -0.1593 -0.1100
 3395DPPE   C3A62599  14.415  10.498  15.384  0.0283  0.0850  0.0068
 3395DPPE   C4A62600  14.456  10.541  14.886  0.0559 -0.1777  0.0554
 3395DPPE   C1B62601  14.797  10.110  16.088 -0.0506 -0.0756 -0.2431
 3395DPPE   C2B62602  14.924  10.275  15.774  0.2094 -0.3871  0.4975
 3395DPPE   C3B62603  14.888  10.461  15.332  0.0590 -0.1748 -0.0829
 3395DPPE   C4B62604  15.157  10.802  15.120 -0.0150  0.1134 -0.0770
 3396DPPE   NH362605  17.493  23.455  17.186  0.3592  0.2048  0.2747
 3396DPPE   PO462606  17.094  23.722  17.247  0.1460  0.3271 -0.0161
 3396DPPE   GL162607  17.158  23.678  16.849 -0.5460  0.0945  0.0329
 3396DPPE   GL262608  17.222  23.510  16.620  0.1352  0.2347  0.0572
 3396DPPE   C1A62609  16.862  23.873  16.424 -0.2658  0.2025  0.1197
 3396DPPE   C2A62610  16.631  23.794  16.082  0.2641 -0.1957  0.5512
 3396DPPE   C3A62611  16.427  23.892  15.598 -0.3432 -0.0291 -0.0681
 3396DPPE   C4A62612  16.097  23.731  15.259  0.2244  0.2346 -0.4294
 3396DPPE   C1B62613  17.206  23.482  16.128  0.1093 -0.1708 -0.0718
 3396DPPE   C2B62614  17.380  23.618  15.759  0.1464  0.1295 -0.0293
 3396DPPE   C3B62615  17.319  23.940  15.490 -0.0642 -0.2587 -0.0156
 3396DPPE   C4B62616  17.281  24.393  15.347  0.0152  0.0483 -0.2161
 3397DPPE   NH362617  16.155  22.968  16.864 -0.1255  0.1997  0.1079
 3397DPPE   PO462618  16.618  22.969  17.106  0.0860 -0.0651 -0.0733
 3397DPPE   GL162619  16.727  22.772  16.728 -0.2184  0.3602  0.1692
 3397DPPE   GL262620  16.620  22.488  16.720  0.1436 -0.2091 -0.0713
 3397DPPE   C1A62621  16.651  22.763  16.278  0.0907 -0.2651  0.2936
 3397DPPE   C2A62622  16.567  22.720  15.818  0.0472  0.2188  0.4175
 3397DPPE   C3A62623  16.436  22.854  15.406  0.0616  0.0111  0.0199
 3397DPPE   C4A62624  16.055  22.819  15.071 -0.1479 -0.0590  0.4207
 3397DPPE   C1B62625  16.589  22.278  16.359 -0.1721  0.0250 -0.0382
 3397DPPE   C2B62626  16.532  22.198  15.898  0.0318 -0.5170 -0.1629
 3397DPPE   C3B62627  16.762  22.240  15.505 -0.2528  0.0744 -0.2312
 3397DPPE   C4B62628  16.836  22.441  15.011 -0.1264  0.1043  0.0376
 3398DPPE   NH362629  10.357  11.167  17.339 -0.0148 -0.0623 -0.6120
 3398DPPE   PO462630  10.739  11.323  17.186 -0.0060 -0.1962 -0.1513
 3398DPPE   GL162631  10.579  10.947  16.908  0.0952 -0.1967 -0.1462
 3398DPPE   GL262632  10.460  10.730  16.998  0.0413  0.2109  0.0882
 3398DPPE   C1A62633  10.425  11.077  16.516 -0.0553  0.2146 -0.1964
 3398DPPE   C2A62634  10.237  11.017  16.111 -0.2464  0.0949  0.0012
 3398DPPE   C3A62635   9.925  10.884  15.832 -0.2033 -0.2298 -0.0978
 3398DPPE   C4A62636   9.761  10.984  15.458  0.0296 -0.0040 -0.1068
 3398DPPE   C1B62637  10.088  10.712  16.664 -0.0142 -0.0124 -0.0342
 3398DPPE   C2B62638   9.859  10.565  16.290  0.2770  0.0557  0.0115
 3398DPPE   C3B62639   9.902  10.174  16.131 -0.0834  0.1051  0.0304
 3398DPPE   C4B62640   9.874  10.061  15.726  0.1208  0.2498  0.0434
 3399DPPE   NH362641  20.370  14.310  16.999  0.0002  0.1065  0.0754
 3399DPPE   PO462642  19.954  14.266  17.078  0.0028 -0.2346  0.0785
 3399DPPE   GL162643  20.087  13.941  16.819  0.2697  0.0692 -0.2068
 3399DPPE   GL262644  20.237  13.743  17.024 -0.1173 -0.0315  0.0741
 3399DPPE   C1A62645  20.384  13.741  16.498 -0.0703  0.2622  0.0971
 3399DPPE   C2A62646  20.635  13.640  16.095  0.1363  0.0399 -0.1828
 3399DPPE   C3A62647  20.513  13.825  15.788 -0.0993  0.1060  0.0098
 3399DPPE   C4A62648  20.319  14.235  15.696 -0.2693 -0.1801 -0.1703
 3399DPPE   C1B62649  20.511  13.438  17.038  0.0948  0.1880  0.1093
 3399DPPE   C2B62650  20.595  12.967  17.026 -0.0138  0.2122 -0.2196
 3399DPPE   C3B62651  20.822  12.592  17.029 -0.1937  0.1470 -0.0465
 3399DPPE   C4B62652  20.721  12.262  17.142 -0.0573  0.3854 -0.0025
 3400DPPE   NH362653  16.643  13.841  17.250 -0.0429 -0.0317 -0.4237
 3400DPPE   PO462654  16.929  14.082  17.436  0.2451  0.1509  0.1112
 3400DPPE   GL162655  16.760  14.334  17.111  0.1727 -0.0300  0.3600
 3400DPPE   GL262656  16.568  14.150  16.907 -0.1010 -0.0134 -0.0062
 3400DPPE   C1A62657  16.867  14.443  16.651 -0.0474 -0.0762  0.2620
 3400DPPE   C2A62658  16.874  14.368  16.183 -0.0840  0.0581 -0.1988
 3400DPPE   C3A62659  16.922  14.363  15.744 -0.3952  0.0916 -0.1467
 3400DPPE   C4A62660  16.946  14.264  15.341 -0.1936 -0.0380  0.1840
 3400DPPE   C1B62661  16.407  14.176  16.574 -0.0971 -0.0125  0.0713
 3400DPPE   C2B62662  16.393  14.154  16.120  0.0665 -0.1028  0.0923
 3400DPPE   C3B62663  16.429  14.086  15.650 -0.1987 -0.0251 -0.0096
 3400DPPE   C4B62664  16.503  14.106  15.185  0.1112 -0.0640  0.0081
 3401DPPE   NH362665  10.586  21.045  17.663  0.5196 -0.3394 -0.0879
 3401DPPE   PO462666  10.208  20.964  17.779  0.1404  0.0863 -0.0159
 3401DPPE   GL162667  10.051  21.203  17.454 -0.0860  0.2140  0.0309
 3401DPPE   GL262668   9.753  21.294  17.366 -0.3416  0.0044  0.3064
 3401DPPE   C1A62669  10.009  21.266  16.936  0.2302  0.0847  0.0102
 3401DPPE   C2A62670   9.796  21.408  16.553  0.0054 -0.3953 -0.1105
 3401DPPE   C3A62671   9.722  21.472  16.135  0.0197 -0.1885 -0.1701
 3401DPPE   C4A62672   9.827  21.287  15.737 -0.0428 -0.0627 -0.2352
 3401DPPE   C1B62673   9.549  21.205  16.962  0.1774  0.2519  0.0178
 3401DPPE   C2B62674   9.323  21.130  16.591 -0.0621  0.1144 -0.0271
 3401DPPE   C3B62675   9.293  21.051  16.085 -0.2143  0.0123  0.3652
 3401DPPE   C4B62676   9.364  21.006  15.652 -0.0455 -0.1497 -0.2282
 3402DPPE   NH362677  17.715  10.563  18.290 -0.0355  0.2780  0.0642
 3402DPPE   PO462678  18.100  10.554  18.133  0.0812  0.0878  0.0133
 3402DPPE   GL162679  18.312  10.456  17.948 -0.1389 -0.0357 -0.3204
 3402DPPE   GL262680  18.582  10.465  17.735  0.7019 -0.1083 -0.3700
 3402DPPE   C1A62681  18.285   9.972  17.902 -0.1822  0.4883  0.1036
 3402DPPE   C2A62682  18.101   9.716  17.701  0.2581  0.0277 -0.4670
 3402DPPE   C3A62683  18.107   9.492  17.278 -0.0181 -0.0354  0.2911
 3402DPPE   C4A62684  18.238   9.138  17.064  0.5755  0.0294 -0.5530
 3402DPPE   C1B62685  19.040  10.439  17.760  0.1156  0.0455 -0.0932
 3402DPPE   C2B62686  19.431  10.240  17.836  0.1175  0.0499 -0.2564
 3402DPPE   C3B62687  19.789   9.982  17.852 -0.0279 -0.0448 -0.0488
 3402DPPE   C4B62688  20.133  10.026  17.642  0.1860 -0.2235  0.1312
 3403DPPE   NH362689  17.967  11.462  17.346 -0.0329  0.2351  0.2296
 3403DPPE   PO462690  18.157  11.434  16.985 -0.0974  0.0537  0.2703
 3403DPPE   GL162691  18.476  11.189  16.819  0.4770 -0.1371 -0.1540
 3403DPPE   GL262692  18.781  11.274  16.879 -0.1686 -0.0412 -0.2474
 3403DPPE   C1A62693  18.561  10.816  16.685 -0.1873 -0.2681  0.0668
 3403DPPE   C2A62694  18.581  10.478  16.348  0.0063  0.2177  0.0237
 3403DPPE   C3A62695  18.448  10.238  16.003  0.1030 -0.0835 -0.2379
 3403DPPE   C4A62696  18.492   9.816  15.834  0.3447  0.0697  0.1617
 3403DPPE   C1B62697  18.794  11.606  16.538 -0.1719  0.3186  0.1439
 3403DPPE   C2B62698  18.704  11.854  16.120  0.1286 -0.1066  0.0646
 3403DPPE   C3B62699  18.798  12.199  15.941 -0.0987 -0.1978  0.1648
 3403DPPE   C4B62700  19.228  12.023  16.025 -0.0829 -0.0431  0.1659
 3404DPPE   NH362701  18.209  19.356  17.316 -0.2122 -0.1646 -0.2241
 3404DPPE   PO462702  18.260  19.270  16.851  0.1908  0.1117 -0.0302
 3404DPPE   GL162703  18.210  19.304  16.436  0.1227  0.3018  0.1423
 3404DPPE   GL262704  18.140  19.025  16.280 -0.0923  0.0224  0.7984
 3404DPPE   C1A62705  18.123  19.441  16.014  0.0170  0.1254 -0.1318
 3404DPPE   C2A62706  18.064  19.494  15.527  0.0037 -0.5625  0.1886
 3404DPPE   C3A62707  18.099  19.706  15.072 -0.0738  0.0570  0.0553
 3404DPPE   C4A62708  18.271  20.093  14.905 -0.0587 -0.2314  0.1729
 3404DPPE   C1B62709  18.057  18.992  15.857 -0.2736 -0.0180 -0.1666
 3404DPPE   C2B62710  18.279  18.925  15.355  0.0433  0.2094  0.0055
 3404DPPE   C3B62711  18.061  19.213  15.068 -0.1457  0.0517  0.0965
 3404DPPE   C4B62712  17.927  19.413  14.723 -0.3783 -0.1032  0.0628
 3405DPPE   NH362713  11.110  20.280  17.493  0.3172  0.0649  0.1713
 3405DPPE   PO462714  10.749  20.152  17.561 -0.0665  0.5468 -0.0757
 3405DPPE   GL162715  10.773  20.004  17.145 -0.1431  0.1479  0.1809
 3405DPPE   GL262716  10.771  20.308  17.094  0.1194 -0.1500 -0.1597
 3405DPPE   C1A62717  10.603  19.722  16.744 -0.3024 -0.1647 -0.0313
 3405DPPE   C2A62718  10.559  19.713  16.285  0.1311 -0.2202  0.0332
 3405DPPE   C3A62719  10.557  19.695  15.859 -0.2543 -0.2823 -0.2191
 3405DPPE   C4A62720  10.521  19.624  15.391 -0.3226 -0.3118  0.7191
 3405DPPE   C1B62721  10.606  20.253  16.702 -0.2944 -0.1264  0.0165
 3405DPPE   C2B62722  10.605  20.244  16.229  0.1448 -0.1789  0.2599
 3405DPPE   C3B62723  10.664  20.214  15.806  0.0987  0.0292 -0.2149
 3405DPPE   C4B62724  10.668  20.257  15.315  0.0256 -0.0983 -0.0245
 3406DPPE   NH362725  18.593  21.268  17.128  0.1412  0.0932  0.2537
 3406DPPE   PO462726  18.587  20.763  17.137  0.3735  0.0144 -0.1438
 3406DPPE   GL162727  18.979  20.892  16.971  0.0247  0.3378  0.0201
 3406DPPE   GL262728  19.111  20.467  16.956 -0.1946 -0.0303 -0.1829
 3406DPPE   C1A62729  19.357  21.071  17.021  0.0412  0.0901  0.1079
 3406DPPE   C2A62730  19.707  21.055  16.799  0.0055  0.0725  0.2388
 3406DPPE   C3A62731  20.067  21.311  16.668  0.0497 -0.0087 -0.0630
 3406DPPE   C4A62732  20.472  21.398  16.528 -0.1100 -0.1744  0.1979
 3406DPPE   C1B62733  19.560  20.610  16.949 -0.1596  0.1574  0.0645
 3406DPPE   C2B62734  19.993  20.716  17.080  0.0744  0.0216  0.1572
 3406DPPE   C3B62735  20.376  20.791  16.962  0.3244 -0.2985  0.1450
 3406DPPE   C4B62736  20.653  21.120  17.062 -0.0553 -0.3320  0.4193
 3407DPPE   NH362737  15.458  20.643  17.153 -0.4035 -0.1134 -0.0416
 3407DPPE   PO462738  15.888  20.747  17.264  0.2321  0.1595 -0.3979
 3407DPPE   GL162739  15.850  20.661  16.853 -0.1838 -0.0687  0.1874
 3407DPPE   GL262740  15.519  20.672  16.675 -0.0420  0.1368 -0.1423
 3407DPPE   C1A62741  15.919  20.487  16.471  0.3506 -0.1747 -0.0822
 3407DPPE   C2A62742  15.959  20.513  15.967 -0.3443 -0.3352 -0.1511
 3407DPPE   C3A62743  15.925  20.460  15.556  0.0993  0.1908  0.1535
 3407DPPE   C4A62744  16.011  20.381  15.100 -0.1418 -0.0641 -0.3105
 3407DPPE   C1B62745  15.620  20.826  16.279  0.3073  0.3524  0.0493
 3407DPPE   C2B62746  15.516  20.731  15.839  0.0980 -0.6029  0.4802
 3407DPPE   C3B62747  15.547  20.706  15.385  0.2548 -0.0245  0.0526
 3407DPPE   C4B62748  15.309  20.790  14.954  0.1216  0.3114 -0.1126
 3408DPPE   NH362749   7.833  23.366  18.605 -0.1656  0.0324 -0.2684
 3408DPPE   PO462750   8.023  23.148  18.294  0.0405 -0.0954 -0.0740
 3408DPPE   GL162751   7.924  23.381  17.874  0.1480 -0.1287  0.2138
 3408DPPE   GL262752   7.877  23.707  17.706  0.1540  0.1180  0.0512
 3408DPPE   C1A62753   7.798  23.283  17.477 -0.1067 -0.0316  0.3725
 3408DPPE   C2A62754   7.641  23.388  17.123 -0.0227  0.0340 -0.2039
 3408DPPE   C3A62755   7.483  23.504  16.752 -0.2387  0.0430 -0.1750
 3408DPPE   C4A62756   7.392  23.727  16.490  0.0678 -0.4680  0.0857
 3408DPPE   C1B62757   7.747  24.147  17.824 -0.0987 -0.0563 -0.3500
 3408DPPE   C2B62758   7.578  24.490  17.685  0.3290  0.2201 -0.1951
 3408DPPE   C3B62759   7.577  24.776  17.406  0.2372  0.3079  0.2159
 3408DPPE   C4B62760   7.653  25.139  17.348 -0.4258  0.0955  0.2379
 3409DPPE   NH362761  12.146  13.996  17.351 -0.1437 -0.2346  0.1617
 3409DPPE   PO462762  12.382  14.314  17.382 -0.1072  0.3211 -0.1473
 3409DPPE   GL162763  12.304  14.340  16.978 -0.3497 -0.0515  0.1555
 3409DPPE   GL262764  12.002  14.427  16.783 -0.4804  0.3655  0.2991
 3409DPPE   C1A62765  12.504  14.540  16.588 -0.0910  0.1173  0.1385
 3409DPPE   C2A62766  12.356  14.572  16.157 -0.0622 -0.0204  0.0230
 3409DPPE   C3A62767  12.454  14.611  15.550 -0.2360  0.1438 -0.1071
 3409DPPE   C4A62768  12.526  14.523  15.086 -0.2149 -0.0114 -0.3208
 3409DPPE   C1B62769  11.975  14.370  16.387 -0.3397  0.2735  0.0317
 3409DPPE   C2B62770  11.861  14.398  15.933  0.0093  0.0690  0.0625
 3409DPPE   C3B62771  11.833  14.360  15.481  0.2634 -0.1265 -0.0352
 3409DPPE   C4B62772  11.993  14.268  15.034 -0.0286  0.2810 -0.1658
 3410DPPE   NH362773   8.543  21.783  17.956 -0.0273  0.0320 -0.2903
 3410DPPE   PO462774   8.079  21.616  18.005  0.2968  0.1271  0.2574
 3410DPPE   GL162775   7.980  21.524  17.647  0.0670  0.2953  0.1747
 3410DPPE   GL262776   8.289  21.419  17.608  0.0528 -0.1861  0.3702
 3410DPPE   C1A62777   7.789  21.614  17.252  0.4720  0.0736 -0.0425
 3410DPPE   C2A62778   7.637  21.679  16.904 -0.0348  0.1806  0.0689
 3410DPPE   C3A62779   7.413  21.556  16.459 -0.0108 -0.0958  0.2101
 3410DPPE   C4A62780   7.143  21.548  16.108 -0.1103  0.1282 -0.0350
 3410DPPE   C1B62781   8.644  21.647  17.344 -0.0935  0.0872  0.0792
 3410DPPE   C2B62782   8.678  21.741  16.975  0.1558  0.1694 -0.1874
 3410DPPE   C3B62783   8.601  21.815  16.630  0.1637  0.2392 -0.1914
 3410DPPE   C4B62784   8.600  22.274  16.571  0.1349 -0.1548 -0.0775
 3411DPPE   NH362785  15.906  20.244  17.494 -0.1067 -0.1033 -0.0950
 3411DPPE   PO462786  15.561  20.099  17.645 -0.3311  0.1971 -0.2732
 3411DPPE   GL162787  15.651  19.921  17.142 -0.1457 -0.0137 -0.0474
 3411DPPE   GL262788  15.612  20.190  16.939 -0.2125 -0.0611 -0.0693
 3411DPPE   C1A62789  15.809  19.768  16.730 -0.0105  0.3180  0.0035
 3411DPPE   C2A62790  15.953  19.905  16.245  0.1659  0.0395 -0.1489
 3411DPPE   C3A62791  15.921  20.003  15.810 -0.1976  0.0914 -0.0707
 3411DPPE   C4A62792  15.866  19.924  15.391 -0.2414 -0.0279 -0.1697
 3411DPPE   C1B62793  15.586  20.149  16.496 -0.1296 -0.0640 -0.1030
 3411DPPE   C2B62794  15.518  20.233  16.109  0.0223  0.1059  0.1415
 3411DPPE   C3B62795  15.486  20.233  15.680  0.0553  0.0714  0.0549
 3411DPPE   C4B62796  15.410  20.285  15.207 -0.3338 -0.3129 -0.1009
 3412DPPE   NH362797  12.497  24.582  17.168  0.0425  0.0627 -0.0904
 3412DPPE   PO462798  12.772  24.531  17.406  0.0999 -0.1917 -0.5340
 3412DPPE   GL162799  13.004  24.917  17.365 -0.1840 -0.0096  0.2793
 3412DPPE   GL262800  13.337  24.880  17.292  0.1285  0.1245  0.1125
 3412DPPE   C1A62801  13.156  25.341  17.230  0.1750  0.0679 -0.3734
 3412DPPE   C2A62802  13.221  25.725  17.085  0.1570 -0.0499 -0.0339
 3412DPPE   C3A62803  13.195  25.785  16.662 -0.0603 -0.0654 -0.1632
 3412DPPE   C4A62804  13.324  26.215  16.580 -0.1100  0.3481 -0.0142
 3412DPPE   C1B62805  13.349  24.959  16.842  0.4821 -0.0849 -0.1730
 3412DPPE   C2B62806  13.600  25.188  16.611 -0.1406  0.2119  0.1305
 3412DPPE   C3B62807  13.488  25.507  16.311 -0.1375  0.0722  0.1094
 3412DPPE   C4B62808  13.262  25.754  15.961  0.1528  0.2644 -0.1141
 3413DPPE   NH362809  14.346  23.112  17.262  0.1498 -0.1967 -0.1321
 3413DPPE   PO462810  14.610  22.922  17.140  0.3737 -0.2895  0.4470
 3413DPPE   GL162811  14.474  23.119  16.747 -0.0956 -0.0553 -0.1506
 3413DPPE   GL262812  14.471  22.803  16.654 -0.0284 -0.0418 -0.1324
 3413DPPE   C1A62813  14.361  23.085  16.272  0.1337 -0.0495 -0.1552
 3413DPPE   C2A62814  14.265  23.201  15.858  0.2652  0.0389  0.4433
 3413DPPE   C3A62815  14.238  23.248  15.377  0.0886 -0.0065 -0.2920
 3413DPPE   C4A62816  14.251  23.145  14.943  0.0979  0.3666 -0.2608
 3413DPPE   C1B62817  14.424  22.562  16.346 -0.1292 -0.2895 -0.1477
 3413DPPE   C2B62818  14.355  22.616  15.967 -0.2318 -0.1848 -0.0940
 3413DPPE   C3B62819  14.184  22.570  15.633  0.1426  0.1537 -0.2122
 3413DPPE   C4B62820  14.180  22.727  15.336 -0.0255  0.1244  0.1488
 3414DPPE   NH362821   8.876  14.704  17.566  0.1904 -0.0792  0.2029
 3414DPPE   PO462822   9.205  14.786  17.638  0.0929 -0.2658 -0.0513
 3414DPPE   GL162823   9.283  14.625  17.235 -0.1092 -0.2605 -0.0001
 3414DPPE   GL262824   9.392  14.247  17.240 -0.1027  0.1032  0.1351
 3414DPPE   C1A62825   9.424  14.717  16.874  0.3463 -0.2130 -0.0229
 3414DPPE   C2A62826   9.665  14.848  16.501 -0.0495  0.0672  0.0615
 3414DPPE   C3A62827   9.547  14.694  16.047 -0.0709 -0.0612  0.2530
 3414DPPE   C4A62828   9.602  14.319  15.710  0.0452  0.2171 -0.2821
 3414DPPE   C1B62829   9.333  14.197  16.873 -0.3259 -0.2991  0.0708
 3414DPPE   C2B62830   9.191  14.008  16.489 -0.1776  0.0221  0.2214
 3414DPPE   C3B62831   8.811  13.886  16.145  0.2988 -0.0093  0.1042
 3414DPPE   C4B62832   8.561  14.062  15.880 -0.0609  0.2688 -0.1977
 3415DPPE   NH362833  18.417  22.580  17.091  0.2033  0.0518  0.1284
 3415DPPE   PO462834  18.223  22.945  17.290  0.0144  0.0741 -0.4059
 3415DPPE   GL162835  18.623  23.078  17.077 -0.1924  0.1788  0.0989
 3415DPPE   GL262836  18.708  23.198  16.735  0.1149 -0.0488  0.0406
 3415DPPE   C1A62837  19.012  23.378  17.144  0.3262 -0.1863 -0.1119
 3415DPPE   C2A62838  19.389  23.568  17.240 -0.1398  0.1809  0.1620
 3415DPPE   C3A62839  19.793  23.690  17.408 -0.0145 -0.1013  0.0912
 3415DPPE   C4A62840  20.225  23.451  17.498  0.2618 -0.1247  0.0980
 3415DPPE   C1B62841  18.915  22.972  16.340 -0.0033 -0.1445  0.3492
 3415DPPE   C2B62842  18.644  22.753  15.981  0.1602 -0.2820 -0.0033
 3415DPPE   C3B62843  18.468  22.408  16.160 -0.1569  0.2610  0.0144
 3415DPPE   C4B62844  18.359  21.908  16.250 -0.2940 -0.3420 -0.1643
 3416DPPE   NH362845   9.216  24.022  17.858 -0.0208 -0.1175 -0.2258
 3416DPPE   PO462846   9.177  24.449  17.992 -0.1311 -0.2376 -0.2332
 3416DPPE   GL162847   8.997  24.574  17.662 -0.0855  0.1185 -0.1027
 3416DPPE   GL262848   8.844  24.738  17.664 -0.0258 -0.1311 -0.2301
 3416DPPE   C1A62849   8.985  24.550  17.220 -0.0758  0.2565  0.1335
 3416DPPE   C2A62850   9.154  24.620  16.875  0.1123 -0.0073  0.2679
 3416DPPE   C3A62851   9.204  24.613  16.520  0.3182  0.0940  0.0281
 3416DPPE   C4A62852   9.275  24.394  16.218 -0.1202 -0.5140  0.0909
 3416DPPE   C1B62853   8.596  24.850  17.270 -0.4499  0.2961 -0.2941
 3416DPPE   C2B62854   8.341  25.042  17.037  0.1976  0.1827  0.0248
 3416DPPE   C3B62855   8.315  25.396  16.971  0.2224 -0.3837 -0.0070
 3416DPPE   C4B62856   8.089  25.789  16.932 -0.2129  0.0627 -0.2571
 3417DPPE   NH362857  12.112  22.161  17.595 -0.1022  0.2062 -0.3870
 3417DPPE   PO462858  11.806  21.847  17.610 -0.1053 -0.0463  0.1241
 3417DPPE   GL162859  11.735  21.939  17.229 -0.1587  0.1432  0.0468
 3417DPPE   GL262860  11.433  21.970  17.234 -0.2033 -0.0665 -0.0324
 3417DPPE   C1A62861  11.723  21.792  16.811  0.1506  0.1695  0.2487
 3417DPPE   C2A62862  11.612  21.694  16.344  0.2304 -0.0580 -0.0351
 3417DPPE   C3A62863  11.564  21.762  16.066  0.0311 -0.1463 -0.1963
 3417DPPE   C4A62864  11.563  21.718  15.614  0.1053  0.0729  0.1591
 3417DPPE   C1B62865  11.353  22.075  16.807  0.0319  0.0992 -0.1138
 3417DPPE   C2B62866  11.215  22.085  16.382  0.0807  0.4174 -0.5551
 3417DPPE   C3B62867  11.104  21.926  15.956  0.0454  0.0767 -0.0379
 3417DPPE   C4B62868  10.982  21.912  15.531 -0.3286 -0.2854  0.3353
 3418DPPE   NH362869  11.453  19.848  17.704 -0.0231  0.0054 -0.2984
 3418DPPE   PO462870  11.746  19.645  17.332  0.2079  0.0875  0.0785
 3418DPPE   GL162871  11.673  19.876  16.974 -0.1949  0.2177 -0.0719
 3418DPPE   GL262872  11.949  19.764  16.899  0.0332 -0.1155  0.0352
 3418DPPE   C1A62873  11.581  20.162  16.666 -0.2350 -0.0856 -0.2915
 3418DPPE   C2A62874  11.503  20.228  16.190  0.1353  0.1479  0.0738
 3418DPPE   C3A62875  11.518  20.203  15.764  0.2512 -0.0610 -0.3507
 3418DPPE   C4A62876  11.449  20.067  15.377  0.2448  0.1428 -0.3011
 3418DPPE   C1B62877  11.983  19.916  16.418  0.0349 -0.2421 -0.2626
 3418DPPE   C2B62878  11.992  19.928  16.014 -0.1739  0.0393 -0.3080
 3418DPPE   C3B62879  11.895  19.902  15.610 -0.0568 -0.1304  0.0710
 3418DPPE   C4B62880  11.825  19.952  15.100  0.0991 -0.2053  0.3137
 3419DPPE   NH362881  12.891  20.159  17.215  0.2329 -0.2261 -0.0121
 3419DPPE   PO462882  13.324  20.140  17.080 -0.1292  0.3209  0.0438
 3419DPPE   GL162883  13.273  20.035  16.693  0.3238  0.2712 -0.0916
 3419DPPE   GL262884  13.361  19.664  16.712  0.0648 -0.3182 -0.3036
 3419DPPE   C1A62885  13.360  20.121  16.262 -0.1355 -0.0884  0.0086
 3419DPPE   C2A62886  13.275  20.130  15.874  0.3109  0.0747  0.0673
 3419DPPE   C3A62887  13.154  20.041  15.519  0.0486  0.1991  0.0801
 3419DPPE   C4A62888  13.180  20.071  15.007  0.0141  0.0070 -0.5059
 3419DPPE   C1B62889  13.267  19.574  16.231  0.0572 -0.0246  0.0055
 3419DPPE   C2B62890  13.186  19.536  15.749  0.0604  0.3806  0.2851
 3419DPPE   C3B62891  13.104  19.483  15.312  0.2443 -0.0542  0.1213
 3419DPPE   C4B62892  13.036  19.597  14.944 -0.1992  0.1487  0.0007
 3420DPPE   NH362893   7.215  21.245  17.980  0.0310  0.3134  0.2541
 3420DPPE   PO462894   7.538  21.435  17.848 -0.2496 -0.1502  0.1799
 3420DPPE   GL162895   7.339  21.731  17.613 -0.1686  0.0586  0.1113
 3420DPPE   GL262896   6.961  21.779  17.553  0.2016 -0.2057  0.1787
 3420DPPE   C1A62897   7.306  21.898  17.269  0.0522  0.0882 -0.0985
 3420DPPE   C2A62898   7.220  21.989  16.877 -0.1647 -0.0695  0.2742
 3420DPPE   C3A62899   7.575  22.062  16.587 -0.2822 -0.1856  0.1155
 3420DPPE   C4A62900   7.697  21.902  16.184  0.5671  0.0412  0.1952
 3420DPPE   C1B62901   6.580  21.866  17.350 -0.0957 -0.1824 -0.3239
 3420DPPE   C2B62902   6.598  21.970  16.952  0.1208  0.2118  0.0417
 3420DPPE   C3B62903   6.673  22.088  16.557  0.0560  0.3712 -0.1722
 3420DPPE   C4B62904   6.745  21.920  16.147  0.3544  0.0746 -0.1607
 3421DPPE   NH362905  15.272  23.566  16.914  0.5470 -0.1715  0.1580
 3421DPPE   PO462906  14.819  23.364  17.053 -0.1712  0.3931  0.1734
 3421DPPE   GL162907  14.877  23.497  16.597  0.0635  0.1096 -0.3605
 3421DPPE   GL262908  14.787  23.882  16.458 -0.2291  0.2006 -0.2279
 3421DPPE   C1A62909  14.884  23.512  16.217 -0.0913 -0.3571 -0.3260
 3421DPPE   C2A62910  14.785  23.410  15.828  0.1426  0.1102  0.0026
 3421DPPE   C3A62911  14.929  23.519  15.420 -0.0171 -0.2839 -0.0288
 3421DPPE   C4A62912  15.017  23.408  15.035 -0.0446 -0.1380  0.2366
 3421DPPE   C1B62913  14.672  23.984  16.088  0.1124  0.0203  0.2272
 3421DPPE   C2B62914  14.584  24.281  15.733 -0.5742 -0.1757 -0.0200
 3421DPPE   C3B62915  14.491  24.607  15.362 -0.1618  0.0517  0.2791
 3421DPPE   C4B62916  14.593  24.823  15.142 -0.1364 -0.0532 -0.1435
 3422DPPE   NH362917  15.669  22.302  17.009 -0.4047 -0.0903 -0.0603
 3422DPPE   PO462918  15.749  22.778  17.087  0.1614 -0.1319 -0.3178
 3422DPPE   GL162919  15.609  22.713  16.670  0.1516 -0.0042 -0.1645
 3422DPPE   GL262920  15.789  22.898  16.446 -0.1751  0.0742 -0.1567
 3422DPPE   C1A62921  15.351  22.646  16.408  0.0138 -0.2237  0.1988
 3422DPPE   C2A62922  15.243  22.555  16.014 -0.0237 -0.2913  0.1464
 3422DPPE   C3A62923  15.175  22.582  15.581 -0.0367  0.3383  0.0446
 3422DPPE   C4A62924  15.063  22.567  15.187  0.0367 -0.0780 -0.0894
 3422DPPE   C1B62925  16.194  23.019  16.206 -0.0560  0.0553  0.2454
 3422DPPE   C2B62926  16.113  22.942  15.746  0.0101  0.0761 -0.2212
 3422DPPE   C3B62927  15.797  22.788  15.474  0.0765  0.0208  0.0782
 3422DPPE   C4B62928  15.556  22.770  15.081  0.0266  0.1609 -0.0614
 3423DPPE   NH362929   9.025  11.503  17.647  0.1347 -0.0593  0.0916
 3423DPPE   PO462930   8.891  11.989  17.571  0.0016 -0.0660  0.1174
 3423DPPE   GL162931   8.780  11.865  17.174 -0.2012  0.3595 -0.0558
 3423DPPE   GL262932   8.925  11.489  17.171 -0.1012 -0.0468 -0.0615
 3423DPPE   C1A62933   8.731  11.703  16.731  0.1106 -0.1349  0.1861
 3423DPPE   C2A62934   8.791  11.357  16.413 -0.0468  0.0562 -0.0162
 3423DPPE   C3A62935   8.692  11.404  15.952  0.0655  0.2439 -0.0135
 3423DPPE   C4A62936   8.498  11.524  15.623 -0.1201  0.0426  0.4191
 3423DPPE   C1B62937   8.782  11.217  16.984 -0.2248 -0.1293  0.2327
 3423DPPE   C2B62938   8.559  10.894  17.077 -0.0796  0.3445 -0.0569
 3423DPPE   C3B62939   8.361  10.562  17.141  0.2165 -0.0538 -0.2122
 3423DPPE   C4B62940   8.387  10.204  17.050  0.1007 -0.1267  0.3609
 3424DPPE   NH362941  12.374  15.396  17.772 -0.0399  0.1246  0.3953
 3424DPPE   PO462942  12.655  15.317  17.326  0.1992  0.2135  0.2142
 3424DPPE   GL162943  12.384  15.514  16.874  0.0177 -0.2071  0.0271
 3424DPPE   GL262944  12.094  15.618  16.818 -0.0777 -0.0982 -0.1990
 3424DPPE   C1A62945  12.378  15.676  16.452  0.0122  0.0627  0.2035
 3424DPPE   C2A62946  12.475  15.602  16.011 -0.1944  0.3947 -0.2975
 3424DPPE   C3A62947  12.414  15.573  15.576  0.1529 -0.3338 -0.1565
 3424DPPE   C4A62948  12.347  15.495  15.106  0.0490  0.1559  0.0484
 3424DPPE   C1B62949  11.921  15.524  16.393  0.0695  0.0731  0.0495
 3424DPPE   C2B62950  12.030  15.426  15.992  0.3517 -0.2543  0.5334
 3424DPPE   C3B62951  11.966  15.358  15.601 -0.2067  0.0830  0.0416
 3424DPPE   C4B62952  11.884  15.383  15.232  0.0500  0.3606  0.2506
 3425DPPE   NH362953  10.766  12.499  17.510  0.1050  0.0358  0.2116
 3425DPPE   PO462954  10.979  12.207  17.460  0.0487 -0.0991  0.0186
 3425DPPE   GL162955  10.872  12.103  17.041  0.3547  0.0830 -0.0280
 3425DPPE   GL262956  10.622  12.185  16.916 -0.0098  0.2345  0.3297
 3425DPPE   C1A62957  10.975  12.320  16.621 -0.0972  0.0371  0.0280
 3425DPPE   C2A62958  10.845  12.372  16.263  0.0332  0.1831  0.0050
 3425DPPE   C3A62959  10.952  12.332  15.962 -0.0489  0.0436 -0.2589
 3425DPPE   C4A62960  10.788  12.233  15.673  0.3178  0.2174  0.0683
 3425DPPE   C1B62961  10.451  12.187  16.525  0.3829 -0.0112 -0.5459
 3425DPPE   C2B62962  10.470  12.068  16.115  0.0356 -0.0628  0.0058
 3425DPPE   C3B62963  10.315  11.999  15.710 -0.0872  0.0331  0.0798
 3425DPPE   C4B62964  10.383  11.586  15.581  0.0846 -0.1411 -0.0458
 3426DPPE   NH362965  14.661  20.393  17.143  0.0936 -0.0545 -0.0446
 3426DPPE   PO462966  15.092  20.325  17.385  0.0094 -0.0982 -0.0155
 3426DPPE   GL162967  15.086  20.164  16.986 -0.4126  0.2784  0.0419
 3426DPPE   GL262968  15.047  20.486  16.832 -0.0848 -0.2074  0.1425
 3426DPPE   C1A62969  15.098  20.021  16.469  0.0782  0.3525  0.1883
 3426DPPE   C2A62970  15.066  19.958  15.974 -0.0514 -0.2381 -0.0445
 3426DPPE   C3A62971  14.995  20.000  15.595 -0.3624 -0.1286  0.0286
 3426DPPE   C4A62972  14.906  20.022  15.182  0.0695  0.1039 -0.1364
 3426DPPE   C1B62973  15.133  20.484  16.439 -0.1035 -0.0269 -0.0189
 3426DPPE   C2B62974  15.033  20.456  16.187  0.0714 -0.0797  0.1321
 3426DPPE   C3B62975  15.028  20.445  15.862  0.0262  0.5198  0.0453
 3426DPPE   C4B62976  15.063  20.509  15.534 -0.0747 -0.1231 -0.0746
 3427DPPE   NH362977  14.784  18.467  17.066  0.2812 -0.2719 -0.0716
 3427DPPE   PO462978  14.541  18.833  17.089 -0.0033 -0.2599  0.0635
 3427DPPE   GL162979  14.783  18.926  16.801  0.0785 -0.0448 -0.1626
 3427DPPE   GL262980  15.041  18.856  16.868 -0.0463 -0.0320 -0.0680
 3427DPPE   C1A62981  14.940  18.900  16.330 -0.0857 -0.4140 -0.1334
 3427DPPE   C2A62982  14.965  19.052  15.988 -0.1628 -0.0027 -0.2182
 3427DPPE   C3A62983  14.888  18.981  15.594  0.0017 -0.0402 -0.2178
 3427DPPE   C4A62984  14.895  18.887  15.191 -0.0718  0.0570  0.0351
 3427DPPE   C1B62985  15.364  19.026  16.585 -0.0643 -0.2662 -0.2208
 3427DPPE   C2B62986  15.409  19.204  16.173  0.1388  0.0720  0.1060
 3427DPPE   C3B62987  15.444  19.154  15.686 -0.0576  0.0317  0.1335
 3427DPPE   C4B62988  15.368  19.209  15.344  0.1752  0.1878  0.2099
 3428DPPE   NH362989  10.069   9.755  17.581  0.1674  0.0299 -0.0590
 3428DPPE   PO462990   9.666   9.973  17.589 -0.3213  0.0499 -0.0972
 3428DPPE   GL162991   9.550   9.631  17.490  0.0574  0.2308  0.1299
 3428DPPE   GL262992   9.750   9.426  17.303  0.0347 -0.3947 -0.1239
 3428DPPE   C1A62993   9.384   9.183  17.629 -0.0867 -0.0138 -0.0206
 3428DPPE   C2A62994   9.078   8.742  17.587 -0.0618  0.0400 -0.2187
 3428DPPE   C3A62995   8.688   8.633  17.465  0.0795  0.0726 -0.0685
 3428DPPE   C4A62996   8.520   8.214  17.428 -0.0731 -0.1275 -0.0105
 3428DPPE   C1B62997   9.810   9.292  16.907  0.0580  0.0451 -0.0480
 3428DPPE   C2B62998   9.851   9.052  16.618  0.2263  0.2181  0.0745
 3428DPPE   C3B62999  10.159   8.927  16.250  0.2217 -0.3837 -0.2217
 3428DPPE   C4B63000  10.277   9.054  15.860  0.4122 -0.0777  0.1242
 3429DPPE   NH363001   9.566  10.735  17.602  0.1334 -0.1061  0.0578
 3429DPPE   PO463002   9.608  11.126  17.809  0.1512  0.2920 -0.0953
 3429DPPE   GL163003   9.362  11.174  17.465 -0.2987 -0.4528  0.0006
 3429DPPE   GL263004   9.027  11.015  17.433  0.1457 -0.1699  0.1324
 3429DPPE   C1A63005   9.324  11.239  17.045 -0.1992  0.1046 -0.1432
 3429DPPE   C2A63006   9.200  11.348  16.664  0.0691 -0.1350 -0.0617
 3429DPPE   C3A63007   9.242  11.203  16.216 -0.1244  0.0168 -0.0154
 3429DPPE   C4A63008   9.413  10.854  16.073  0.2558  0.2312 -0.1689
 3429DPPE   C1B63009   9.134  10.702  17.042  0.2035  0.2910 -0.0946
 3429DPPE   C2B63010   8.791  10.444  16.823 -0.1379 -0.1352  0.0143
 3429DPPE   C3B63011   8.705   9.992  16.591  0.0675 -0.1475  0.0903
 3429DPPE   C4B63012   8.705   9.587  16.466 -0.5586  0.1238  0.1234
 3430DPPE   NH363013  17.948  23.288  17.060  0.1620 -0.2427  0.1850
 3430DPPE   PO463014  17.606  23.127  16.768  0.2095  0.0804  0.1030
 3430DPPE   GL163015  17.551  23.007  16.376  0.2986  0.1595 -0.0055
 3430DPPE   GL263016  17.613  23.218  16.102  0.0106  0.0121  0.2414
 3430DPPE   C1A63017  17.608  22.674  15.982  0.5523 -0.2584  0.0173
 3430DPPE   C2A63018  17.846  22.344  15.708  0.1038  0.2070 -0.0670
 3430DPPE   C3A63019  18.303  22.147  15.733 -0.1642  0.1682 -0.2688
 3430DPPE   C4A63020  18.683  22.165  15.738 -0.4595  0.1305  0.2189
 3430DPPE   C1B63021  17.444  23.051  15.747 -0.2269 -0.0731 -0.2316
 3430DPPE   C2B63022  17.531  22.763  15.512  0.4208 -0.3094  0.0860
 3430DPPE   C3B63023  17.816  22.448  15.248 -0.3965  0.1725 -0.0853
 3430DPPE   C4B63024  17.642  22.174  14.916 -0.0867  0.2769 -0.1868
 3431DPPE   NH363025  13.555  14.270  17.381 -0.0391 -0.2829 -0.0388
 3431DPPE   PO463026  13.865  13.879  17.345  0.1431  0.1109  0.2172
 3431DPPE   GL163027  13.610  13.859  16.956 -0.0632 -0.1181 -0.2131
 3431DPPE   GL263028  13.359  13.897  17.072 -0.0790 -0.1785 -0.1049
 3431DPPE   C1A63029  13.713  13.780  16.447 -0.1563 -0.2729 -0.0877
 3431DPPE   C2A63030  13.631  13.679  15.953  0.2823  0.3144  0.1491
 3431DPPE   C3A63031  13.820  13.792  15.493 -0.0588  0.1492 -0.1232
 3431DPPE   C4A63032  13.733  13.689  15.133 -0.1072 -0.1388  0.1869
 3431DPPE   C1B63033  13.043  14.144  16.796  0.2185  0.2617 -0.2225
 3431DPPE   C2B63034  12.898  14.300  16.371  0.1638  0.0383 -0.1714
 3431DPPE   C3B63035  12.912  14.329  16.012 -0.2541 -0.0207  0.0515
 3431DPPE   C4B63036  12.861  14.351  15.556 -0.0747  0.3324 -0.1866
 3432DPPE   NH363037  18.032  10.887  17.113 -0.2566 -0.0865  0.1000
 3432DPPE   PO463038  17.876  10.531  17.203 -0.2251 -0.1026 -0.2618
 3432DPPE   GL163039  17.876  10.162  17.091  0.0998 -0.0498 -0.0011
 3432DPPE   GL263040  17.772  10.009  17.411 -0.0949  0.0729  0.2312
 3432DPPE   C1A63041  18.168   9.908  16.897  0.0673  0.2094  0.1743
 3432DPPE   C2A63042  18.453   9.573  16.887 -0.0949 -0.3804 -0.3523
 3432DPPE   C3A63043  18.597   9.283  16.699  0.0871  0.2440 -0.0460
 3432DPPE   C4A63044  18.681   8.877  16.827  0.0018 -0.1871 -0.1382
 3432DPPE   C1B63045  17.757   9.689  16.998 -0.0188 -0.1658  0.1151
 3432DPPE   C2B63046  17.591   9.845  16.541  0.1161  0.1809 -0.0973
 3432DPPE   C3B63047  17.153   9.888  16.519 -0.1354 -0.1322  0.0431
 3432DPPE   C4B63048  16.825   9.844  16.321  0.2582  0.3879 -0.2828
 3433DPPE   NH363049  17.064  11.164  18.398  0.0035  0.1930  0.3787
 3433DPPE   PO463050  17.446  10.883  18.603 -0.2370 -0.0847 -0.2076
 3433DPPE   GL163051  17.724  10.768  18.857  0.0263  0.0831 -0.3683
 3433DPPE   GL263052  18.079  10.843  18.648  0.1228  0.2432 -0.0150
 3433DPPE   C1A63053  17.993  10.412  18.941 -0.0025 -0.1717 -0.0260
 3433DPPE   C2A63054  18.361   9.990  18.918 -0.4897  0.1785  0.1450
 3433DPPE   C3A63055  18.589   9.694  18.613  0.1593 -0.3322 -0.1726
 3433DPPE   C4A63056  18.927   9.399  18.643  0.1947  0.3188  0.2716
 3433DPPE   C1B63057  18.489  10.985  18.758 -0.0393 -0.0231  0.0597
 3433DPPE   C2B63058  18.771  10.864  19.011 -0.0068  0.2195  0.3126
 3433DPPE   C3B63059  18.793  10.656  19.326  0.2142 -0.2657 -0.3882
 3433DPPE   C4B63060  18.635  10.424  19.756 -0.2715  0.0660  0.3845
 3434DPPE   NH363061  11.482  15.167  17.772 -0.4004 -0.0784  0.0535
 3434DPPE   PO463062  11.663  15.074  17.365 -0.2178 -0.1868  0.2203
 3434DPPE   GL163063  11.791  15.249  17.015 -0.2599  0.0286  0.0367
 3434DPPE   GL263064  11.960  15.132  16.878  0.2426  0.0158  0.0920
 3434DPPE   C1A63065  11.573  15.187  16.605  0.0405 -0.0441  0.1465
 3434DPPE   C2A63066  11.598  15.214  16.229  0.0099 -0.1558  0.0980
 3434DPPE   C3A63067  11.579  15.080  15.785  0.2921  0.0640  0.0058
 3434DPPE   C4A63068  11.394  15.112  15.397  0.1801  0.2010  0.0415
 3434DPPE   C1B63069  12.067  14.917  16.478 -0.0249  0.0120  0.0049
 3434DPPE   C2B63070  11.948  14.833  16.119 -0.2499 -0.1238 -0.1458
 3434DPPE   C3B63071  11.996  14.835  15.713 -0.1190  0.2661  0.0738
 3434DPPE   C4B63072  11.832  14.864  15.305 -0.0231 -0.2524  0.1131
 3435DPPE   NH363073  17.710  24.243  17.474  0.0170 -0.0132 -0.0824
 3435DPPE   PO463074  17.518  24.008  17.124  0.2940 -0.3177  0.1707
 3435DPPE   GL163075  17.339  24.033  16.640 -0.0155 -0.0955 -0.0097
 3435DPPE   GL263076  17.598  23.968  16.399 -0.0481 -0.4809  0.0343
 3435DPPE   C1A63077  17.232  24.084  16.146  0.3478  0.1056  0.0956
 3435DPPE   C2A63078  17.552  24.210  15.808  0.0592 -0.0806  0.1568
 3435DPPE   C3A63079  17.704  24.533  15.609 -0.0795  0.2384 -0.0405
 3435DPPE   C4A63080  17.653  24.781  15.284  0.0223 -0.0795  0.0075
 3435DPPE   C1B63081  17.859  23.857  15.984 -0.0637  0.0872  0.2064
 3435DPPE   C2B63082  18.254  23.747  15.804 -0.0452 -0.0850  0.2708
 3435DPPE   C3B63083  18.540  23.658  15.386 -0.1630  0.2174  0.0769
 3435DPPE   C4B63084  18.782  23.793  15.085 -0.5648  0.1311  0.1382
 3436DPPE   NH363085  14.913  12.011  17.025 -0.0667 -0.2240 -0.0030
 3436DPPE   PO463086  15.315  12.253  17.299  0.0193 -0.0895  0.3645
 3436DPPE   GL163087  15.249  12.324  16.836 -0.0415 -0.0496 -0.1358
 3436DPPE   GL263088  15.457  12.180  16.645  0.1742 -0.2366  0.0406
 3436DPPE   C1A63089  15.343  12.621  16.463 -0.0974 -0.0877  0.1175
 3436DPPE   C2A63090  15.452  12.600  16.088  0.0894 -0.0342 -0.0855
 3436DPPE   C3A63091  15.474  12.515  15.701 -0.0163  0.0138 -0.1926
 3436DPPE   C4A63092  15.643  12.412  15.357  0.0334  0.3247  0.0486
 3436DPPE   C1B63093  15.417  12.138  16.201 -0.2616 -0.1582 -0.1133
 3436DPPE   C2B63094  15.505  12.011  15.654 -0.1321  0.2324  0.0659
 3436DPPE   C3B63095  15.372  11.940  15.247  0.1138  0.1326 -0.0190
 3436DPPE   C4B63096  15.334  11.619  14.915  0.0332 -0.0218  0.2185
 3437DPPE   NH363097  14.143   9.742  16.954 -0.0488 -0.0909  0.2142
 3437DPPE   PO463098  14.452  10.039  16.970 -0.2736  0.2661 -0.1794
 3437DPPE   GL163099  14.680   9.706  16.722  0.2475  0.0771 -0.2424
 3437DPPE   GL263100  14.671   9.450  16.654 -0.0624  0.1680  0.1621
 3437DPPE   C1A63101  14.936   9.668  16.302  0.1541  0.3306 -0.0504
 3437DPPE   C2A63102  14.675   9.620  15.892 -0.2034  0.2243 -0.0778
 3437DPPE   C3A63103  15.035   9.710  15.811  0.0556 -0.2094  0.2126
 3437DPPE   C4A63104  15.214   9.556  15.464  0.0013  0.1353  0.0064
 3437DPPE   C1B63105  14.497   9.274  16.277  0.0481 -0.2568 -0.0032
 3437DPPE   C2B63106  14.439   9.119  15.866  0.0710 -0.0834  0.1837
 3437DPPE   C3B63107  14.305   9.186  15.324 -0.2110 -0.0535  0.0783
 3437DPPE   C4B63108  14.169   9.145  14.883 -0.0716 -0.3912  0.4109
 3438DPPE   NH363109  14.207  21.780  17.228  0.0525 -0.0482 -0.1391
 3438DPPE   PO463110  14.013  22.180  17.074 -0.1302 -0.1422  0.0193
 3438DPPE   GL163111  13.998  21.814  16.735 -0.1493  0.3684  0.0727
 3438DPPE   GL263112  13.739  21.762  16.824  0.0289 -0.2572  0.5023
 3438DPPE   C1A63113  13.929  21.879  16.309  0.0591 -0.0376  0.1203
 3438DPPE   C2A63114  13.832  21.880  15.754  0.1723 -0.2454  0.4321
 3438DPPE   C3A63115  13.635  21.949  15.382  0.0638 -0.0550 -0.0976
 3438DPPE   C4A63116  13.633  21.731  14.973 -0.0095  0.1887 -0.0548
 3438DPPE   C1B63117  13.479  21.634  16.503 -0.0192 -0.0548  0.1717
 3438DPPE   C2B63118  13.340  21.576  16.055 -0.2688  0.1262 -0.5558
 3438DPPE   C3B63119  13.338  21.543  15.605 -0.0666  0.3913 -0.0363
 3438DPPE   C4B63120  13.228  21.591  15.175  0.1245  0.1950  0.3824
 3439DPPE   NH363121  11.745  21.434  18.027 -0.1137  0.1746  0.1860
 3439DPPE   PO463122  11.850  21.356  17.593 -0.0821 -0.1134  0.2544
 3439DPPE   GL163123  11.788  21.385  17.232 -0.3041 -0.0421  0.0805
 3439DPPE   GL263124  11.434  21.452  17.177  0.0556 -0.2735 -0.2742
 3439DPPE   C1A63125  11.773  21.224  16.812  0.1842  0.0911  0.0305
 3439DPPE   C2A63126  11.613  21.208  16.320  0.1380 -0.0368 -0.0103
 3439DPPE   C3A63127  11.622  21.194  15.972  0.2792  0.2254 -0.2427
 3439DPPE   C4A63128  11.507  21.225  15.600 -0.0462 -0.2654  0.2033
 3439DPPE   C1B63129  11.312  21.420  16.694  0.2962 -0.4197 -0.1321
 3439DPPE   C2B63130  11.150  21.488  16.269  0.2723 -0.0595  0.4521
 3439DPPE   C3B63131  11.098  21.446  15.770  0.2770 -0.3446  0.0798
 3439DPPE   C4B63132  11.157  21.449  15.293 -0.0969 -0.0693  0.2884
 3440DPPE   NH363133  10.723   9.856  17.005 -0.1632 -0.3114 -0.0861
 3440DPPE   PO463134  10.360  10.034  17.183  0.4974 -0.3558 -0.2883
 3440DPPE   GL163135  10.078  10.367  17.090  0.5433 -0.2619  0.1055
 3440DPPE   GL263136   9.743  10.314  17.223  0.1241 -0.2876  0.0193
 3440DPPE   C1A63137   9.899  10.217  16.697  0.0087 -0.7411  0.2844
 3440DPPE   C2A63138   9.596   9.922  16.422 -0.0562  0.4121 -0.2821
 3440DPPE   C3A63139   9.603   9.634  16.162  0.0267 -0.1964 -0.0756
 3440DPPE   C4A63140   9.676   9.220  16.176  0.1033 -0.1225  0.1108
 3440DPPE   C1B63141   9.436  10.372  16.829 -0.0046 -0.1866 -0.2955
 3440DPPE   C2B63142   9.290  10.362  16.333  0.0136 -0.2862 -0.0956
 3440DPPE   C3B63143   9.079  10.398  15.976 -0.0082  0.1401  0.1398
 3440DPPE   C4B63144   8.975  10.514  15.569  0.1641 -0.2017 -0.0227
 3441DPPE   NH363145  10.179  17.204  18.008 -0.0843  0.1145 -0.3467
 3441DPPE   PO463146  10.371  17.110  17.651 -0.2264 -0.3666  0.3390
 3441DPPE   GL163147  10.093  16.834  17.481 -0.1258  0.4723  0.1829
 3441DPPE   GL263148  10.189  16.613  17.272 -0.0609 -0.3099  0.1139
 3441DPPE   C1A63149   9.806  16.979  17.107  0.0153  0.0252 -0.1382
 3441DPPE   C2A63150   9.829  16.980  16.662 -0.0579  0.0286 -0.0462
 3441DPPE   C3A63151   9.873  17.022  16.190  0.2447 -0.0625 -0.1984
 3441DPPE   C4A63152   9.789  16.777  15.812 -0.2268  0.2608  0.1345
 3441DPPE   C1B63153  10.228  16.590  16.772 -0.1330 -0.0897 -0.2804
 3441DPPE   C2B63154  10.259  16.651  16.334  0.1261 -0.0826  0.0790
 3441DPPE   C3B63155  10.339  16.547  15.953 -0.1360  0.3013  0.0415
 3441DPPE   C4B63156  10.102  16.653  15.446  0.1799  0.0409 -0.0490
 3442DPPE   NH363157  12.116   9.610  17.053  0.0416 -0.3956 -0.0603
 3442DPPE   PO463158  12.453   9.920  16.734 -0.0804  0.0745  0.3342
 3442DPPE   GL163159  12.648   9.867  16.453 -0.0677  0.2599  0.1902
 3442DPPE   GL263160  12.586   9.618  16.241  0.0934 -0.0136 -0.1920
 3442DPPE   C1A63161  12.962   9.892  16.165 -0.3421 -0.1478 -0.1110
 3442DPPE   C2A63162  13.278   9.749  15.755 -0.0287  0.0738  0.0140
 3442DPPE   C3A63163  13.364   9.662  15.226  0.0835 -0.3291  0.1808
 3442DPPE   C4A63164  13.171   9.781  14.825  0.0483 -0.2068 -0.2172
 3442DPPE   C1B63165  12.183   9.479  15.942 -0.0445  0.2556 -0.0705
 3442DPPE   C2B63166  12.081   9.289  15.504 -0.0992 -0.2153 -0.0977
 3442DPPE   C3B63167  11.898   9.324  15.134 -0.2652 -0.0658 -0.2456
 3442DPPE   C4B63168  11.870   9.154  14.665  0.0246  0.1005  0.2002
 3443DPPE   NH363169  17.464  18.325  17.053  0.2267 -0.0141  0.3042
 3443DPPE   PO463170  17.523  18.777  16.860 -0.0884 -0.0143  0.1115
 3443DPPE   GL163171  17.691  18.883  16.338  0.0196  0.0919  0.1372
 3443DPPE   GL263172  17.684  19.254  16.245 -0.2282 -0.0635 -0.0762
 3443DPPE   C1A63173  17.557  18.784  16.003 -0.0294  0.0614  0.3147
 3443DPPE   C2A63174  17.509  18.791  15.529  0.1706 -0.3682 -0.3791
 3443DPPE   C3A63175  17.528  18.732  15.108  0.2397  0.0288 -0.2367
 3443DPPE   C4A63176  17.431  18.737  14.718 -0.0280 -0.1559  0.0039
 3443DPPE   C1B63177  17.568  19.261  15.790 -0.2459  0.0851  0.0583
 3443DPPE   C2B63178  17.612  19.233  15.318  0.1146 -0.0317 -0.1527
 3443DPPE   C3B63179  17.513  19.197  14.922 -0.0915 -0.2307 -0.3083
 3443DPPE   C4B63180  17.247  19.198  14.471 -0.1398 -0.1121 -0.1706
 3444DPPE   NH363181   6.553  18.771  17.495 -0.0569  0.1789  0.2455
 3444DPPE   PO463182   6.647  19.175  17.830  0.1902  0.0629  0.0977
 3444DPPE   GL163183   6.537  19.341  17.405 -0.0523  0.2567  0.1140
 3444DPPE   GL263184   6.843  19.462  17.242  0.0848 -0.0782  0.0943
 3444DPPE   C1A63185   6.310  19.437  17.080 -0.0995  0.0145 -0.1893
 3444DPPE   C2A63186   6.533  19.331  16.704 -0.1259  0.0312 -0.2004
 3444DPPE   C3A63187   6.613  19.542  16.305  0.0500  0.1757  0.2154
 3444DPPE   C4A63188   6.599  19.685  15.863  0.1156 -0.0864  0.1464
 3444DPPE   C1B63189   6.946  19.489  16.886  0.0430  0.1344  0.0743
 3444DPPE   C2B63190   7.128  19.488  16.512  0.0632  0.2247 -0.0426
 3444DPPE   C3B63191   7.060  19.644  16.096 -0.3972  0.1689 -0.0096
 3444DPPE   C4B63192   7.347  19.731  15.754 -0.2861  0.0157 -0.3959
 3445DPPE   NH363193   8.379  22.401  17.882  0.2968  0.0243 -0.3408
 3445DPPE   PO463194   8.105  22.182  18.128 -0.0167 -0.1086  0.1430
 3445DPPE   GL163195   8.140  22.070  17.651 -0.2366  0.0991 -0.0355
 3445DPPE   GL263196   8.004  22.254  17.472 -0.1449 -0.2414  0.0388
 3445DPPE   C1A63197   8.223  21.897  17.244 -0.1037  0.0478 -0.0608
 3445DPPE   C2A63198   8.123  21.714  16.907 -0.0246 -0.2658  0.1143
 3445DPPE   C3A63199   8.155  21.896  16.535 -0.1526 -0.1479 -0.0252
 3445DPPE   C4A63200   8.278  21.963  16.233 -0.1151  0.0332  0.3722
 3445DPPE   C1B63201   7.720  22.127  17.119 -0.1673 -0.0480  0.0388
 3445DPPE   C2B63202   7.650  22.458  16.849 -0.0598 -0.0395 -0.1860
 3445DPPE   C3B63203   7.189  22.487  16.719  0.1505 -0.1286 -0.1477
 3445DPPE   C4B63204   7.104  22.669  16.302  0.1238 -0.1395  0.2163
 3446DPPE   NH363205  16.750  11.193  17.398 -0.1082  0.2328 -0.1080
 3446DPPE   PO463206  16.960  10.750  17.300  0.0914 -0.0616  0.0948
 3446DPPE   GL163207  16.973  10.678  16.834 -0.0598  0.2591 -0.0726
 3446DPPE   GL263208  16.964  10.311  16.711 -0.2577 -0.0155 -0.1605
 3446DPPE   C1A63209  17.286  10.739  16.429 -0.0996 -0.0060  0.3284
 3446DPPE   C2A63210  17.631  10.918  16.324 -0.3675  0.1402  0.3783
 3446DPPE   C3A63211  17.879  10.994  15.937  0.1529 -0.0958  0.2579
 3446DPPE   C4A63212  17.791  10.792  15.542 -0.0962  0.0245  0.0817
 3446DPPE   C1B63213  17.114  10.289  16.246  0.0891 -0.3246  0.0776
 3446DPPE   C2B63214  17.178  10.221  15.804 -0.2895 -0.0501  0.1471
 3446DPPE   C3B63215  17.248   9.943  15.462 -0.0487 -0.1024  0.3323
 3446DPPE   C4B63216  17.405   9.613  15.347  0.0697 -0.0278 -0.4842
 3447DPPE   NH363217  17.985  18.821  16.732 -0.0869  0.2711 -0.2872
 3447DPPE   PO463218  17.796  18.412  16.617 -0.0145  0.1736 -0.1669
 3447DPPE   GL163219  17.887  18.330  16.174 -0.0223  0.3984  0.1988
 3447DPPE   GL263220  18.207  18.364  16.008  0.0840  0.1258  0.2024
 3447DPPE   C1A63221  17.584  18.247  15.811  0.0172 -0.1059 -0.0563
 3447DPPE   C2A63222  17.465  18.256  15.466 -0.2194  0.0124 -0.1858
 3447DPPE   C3A63223  17.485  18.279  15.034 -0.0789  0.4761  0.0629
 3447DPPE   C4A63224  17.332  18.156  14.631 -0.3559  0.0430  0.0552
 3447DPPE   C1B63225  17.960  18.594  15.667  0.0785  0.2020  0.1371
 3447DPPE   C2B63226  17.950  18.493  15.210 -0.2125 -0.1383  0.3355
 3447DPPE   C3B63227  17.955  18.761  14.862  0.1544  0.0412 -0.0772
 3447DPPE   C4B63228  17.820  18.955  14.559  0.0388  0.0453  0.0059
 3448DPPE   NH363229  14.586  14.850  16.754  0.1335 -0.2983 -0.0010
 3448DPPE   PO463230  14.885  14.606  17.001 -0.0830 -0.4056 -0.0164
 3448DPPE   GL163231  15.115  14.485  16.614 -0.0003  0.3292 -0.0332
 3448DPPE   GL263232  15.445  14.630  16.465  0.1606 -0.0143 -0.0920
 3448DPPE   C1A63233  15.115  14.367  16.205 -0.0952  0.0400  0.1902
 3448DPPE   C2A63234  15.141  14.485  15.761 -0.3217 -0.3839  0.2765
 3448DPPE   C3A63235  15.156  14.610  15.364  0.1018 -0.1065  0.0184
 3448DPPE   C4A63236  15.195  14.526  14.831 -0.0626 -0.1150  0.2104
 3448DPPE   C1B63237  15.542  14.651  16.087 -0.0201  0.0680  0.4285
 3448DPPE   C2B63238  15.569  14.727  15.688  0.1335 -0.2074 -0.1641
 3448DPPE   C3B63239  15.658  14.675  15.317  0.1543 -0.2779 -0.2092
 3448DPPE   C4B63240  15.675  14.829  14.861  0.0364 -0.2286  0.0232
 3449DPPE   NH363241   6.360  15.055  17.550 -0.4305 -0.3180  0.1652
 3449DPPE   PO463242   6.089  14.720  17.673 -0.0145 -0.0045  0.0189
 3449DPPE   GL163243   5.835  14.722  17.343  0.0702 -0.1102 -0.5111
 3449DPPE   GL263244   5.591  14.748  17.501 -0.0339  0.0185 -0.0137
 3449DPPE   C1A63245   5.531  14.744  16.982  0.0448  0.2111  0.0918
 3449DPPE   C2A63246   5.265  14.643  16.614  0.2625 -0.2937 -0.0676
 3449DPPE   C3A63247   5.218  14.256  16.352  0.6231  0.3811 -0.1538
 3449DPPE   C4A63248   5.311  13.832  16.185  0.1419  0.2526  0.0529
 3449DPPE   C1B63249   5.273  14.409  17.654  0.0243 -0.1001 -0.1740
 3449DPPE   C2B63250   4.894  14.114  17.460  0.1445  0.1940  0.0243
 3449DPPE   C3B63251   4.561  13.824  17.259 -0.1205  0.0750 -0.1846
 3449DPPE   C4B63252   4.150  13.608  17.245 -0.2916  0.1380 -0.4310
 3450DPPE   NH363253  13.421  22.876  17.236 -0.1621 -0.4674 -0.1349
 3450DPPE   PO463254  13.842  23.060  17.394 -0.2174 -0.0189 -0.0922
 3450DPPE   GL163255  13.964  23.087  16.917  0.0581  0.1962  0.1640
 3450DPPE   GL263256  14.010  23.300  16.571  0.0666 -0.0971 -0.2290
 3450DPPE   C1A63257  14.007  22.780  16.465  0.1268  0.0914 -0.2708
 3450DPPE   C2A63258  13.915  22.860  16.100 -0.1553  0.0906  0.1454
 3450DPPE   C3A63259  13.863  22.928  15.662  0.1098 -0.1062  0.0783
 3450DPPE   C4A63260  13.751  23.012  15.275  0.2507 -0.1069  0.2318
 3450DPPE   C1B63261  13.886  23.330  16.193 -0.0071 -0.1788 -0.0122
 3450DPPE   C2B63262  13.796  23.584  15.814 -0.1059 -0.1375  0.0417
 3450DPPE   C3B63263  13.765  23.601  15.387 -0.2029 -0.4981 -0.1283
 3450DPPE   C4B63264  13.856  23.536  15.007 -0.0769  0.4005 -0.1647
 3451DPPE   NH363265   9.430  22.030  17.848  0.1863  0.1553  0.1272
 3451DPPE   PO463266   9.273  22.454  17.817  0.3255 -0.0756  0.4283
 3451DPPE   GL163267   9.047  22.559  17.289  0.2371 -0.1485 -0.0858
 3451DPPE   GL263268   8.913  22.913  17.223  0.1047 -0.0064  0.2001
 3451DPPE   C1A63269   8.921  22.485  16.871 -0.1431 -0.0466  0.0403
 3451DPPE   C2A63270   8.864  22.625  16.397 -0.0254  0.2112  0.1808
 3451DPPE   C3A63271   8.782  22.482  15.988  0.1136  0.1132  0.0278
 3451DPPE   C4A63272   8.716  22.467  15.667  0.1282 -0.0859 -0.3469
 3451DPPE   C1B63273   8.836  22.980  16.775 -0.0893  0.0858 -0.0461
 3451DPPE   C2B63274   9.122  23.193  16.451 -0.0749 -0.2424  0.1711
 3451DPPE   C3B63275   9.074  23.493  16.151  0.1120 -0.2432  0.0745
 3451DPPE   C4B63276   8.652  23.575  15.855 -0.0431 -0.1385  0.1478
 3452DPPE   NH363277  13.226  23.684  16.981  0.0580 -0.1139  0.1332
 3452DPPE   PO463278  13.474  23.366  17.168  0.3804 -0.0962  0.0977
 3452DPPE   GL163279  13.543  23.340  16.770  0.0607  0.1661  0.0923
 3452DPPE   GL263280  13.531  23.700  16.564 -0.1629 -0.3878 -0.1643
 3452DPPE   C1A63281  13.456  23.172  16.371  0.3777  0.0151 -0.4258
 3452DPPE   C2A63282  13.523  23.118  15.949  0.4033  0.2072  0.1028
 3452DPPE   C3A63283  13.419  23.308  15.509 -0.2698  0.1975  0.0845
 3452DPPE   C4A63284  13.413  23.299  15.021  0.2507  0.1471  0.0893
 3452DPPE   C1B63285  13.453  23.761  16.191  0.2745 -0.3513  0.1046
 3452DPPE   C2B63286  13.189  23.738  15.780  0.2860 -0.3592 -0.1339
 3452DPPE   C3B63287  13.018  23.538  15.320 -0.1129  0.1344  0.0767
 3452DPPE   C4B63288  12.944  23.572  14.852 -0.3408 -0.0919  0.0844
 3453DPPE   NH363289  17.288  25.025  17.190 -0.1432 -0.1648 -0.0677
 3453DPPE   PO463290  17.241  25.338  17.532  0.2242 -0.1673  0.1387
 3453DPPE   GL163291  16.893  25.512  17.808  0.0929 -0.1287 -0.2245
 3453DPPE   GL263292  16.949  25.264  18.054 -0.1187 -0.2528  0.1827
 3453DPPE   C1A63293  16.524  25.737  17.979 -0.2596  0.0273 -0.0044
 3453DPPE   C2A63294  16.149  25.932  18.123  0.0392  0.0255 -0.0572
 3453DPPE   C3A63295  16.089  26.109  18.550 -0.0616 -0.0597 -0.0816
 3453DPPE   C4A63296  16.278  26.400  18.902 -0.1618 -0.0515  0.2066
 3453DPPE   C1B63297  16.764  25.542  18.387 -0.2786  0.0994 -0.1515
 3453DPPE   C2B63298  16.751  25.948  18.410  0.0208 -0.0554 -0.1297
 3453DPPE   C3B63299  16.481  26.212  18.263  0.1948 -0.4142  0.0351
 3453DPPE   C4B63300  16.321  26.490  17.929 -0.2809  0.1292  0.0645
 3454DPPE   NH363301  16.999  17.520  16.672 -0.1635  0.0707  0.0533
 3454DPPE   PO463302  17.401  17.587  16.743  0.0571  0.2008 -0.2161
 3454DPPE   GL163303  17.287  17.486  16.278  0.3091 -0.4397  0.0318
 3454DPPE   GL263304  17.519  17.225  16.197  0.1787  0.0678  0.0980
 3454DPPE   C1A63305  17.040  17.471  15.941 -0.1492 -0.2779 -0.2261
 3454DPPE   C2A63306  17.061  17.471  15.517 -0.3858  0.1464  0.1867
 3454DPPE   C3A63307  17.094  17.414  15.114 -0.0999 -0.0359  0.2354
 3454DPPE   C4A63308  17.382  17.186  14.830  0.1645 -0.0011  0.1364
 3454DPPE   C1B63309  17.438  17.201  15.784 -0.0945  0.1053  0.3021
 3454DPPE   C2B63310  17.454  17.235  15.362 -0.0550 -0.0751 -0.0533
 3454DPPE   C3B63311  17.701  17.439  15.126 -0.1349 -0.0974 -0.1023
 3454DPPE   C4B63312  18.045  17.569  14.924 -0.2475  0.2645  0.1113
 3455DPPE   NH363313  16.672  16.462  17.225 -0.1568 -0.2474 -0.2319
 3455DPPE   PO463314  16.592  16.947  17.084 -0.0078  0.4157 -0.1366
 3455DPPE   GL163315  16.475  16.990  16.626 -0.1722  0.3090  0.3352
 3455DPPE   GL263316  16.621  16.706  16.311  0.0949 -0.1991 -0.0080
 3455DPPE   C1A63317  16.122  16.996  16.309 -0.1485 -0.2232 -0.0678
 3455DPPE   C2A63318  16.047  17.007  15.799 -0.5852 -0.0001 -0.2922
 3455DPPE   C3A63319  16.121  16.997  15.382 -0.1883  0.0189 -0.1297
 3455DPPE   C4A63320  16.144  17.001  15.031 -0.1373 -0.1303 -0.5876
 3455DPPE   C1B63321  16.589  16.749  15.932  0.0434 -0.2629  0.0309
 3455DPPE   C2B63322  16.520  16.707  15.496  0.2763  0.1358 -0.3361
 3455DPPE   C3B63323  16.494  16.708  15.106 -0.0957 -0.1956 -0.3561
 3455DPPE   C4B63324  16.570  16.697  14.680  0.0491 -0.1027  0.0182
 3456DPPE   NH363325   8.685  20.529  18.117 -0.0826  0.0420  0.0962
 3456DPPE   PO463326   8.925  20.142  18.059  0.0370  0.1152  0.0001
 3456DPPE   GL163327   8.896  20.094  17.595  0.1030  0.2088  0.0461
 3456DPPE   GL263328   9.220  20.092  17.381 -0.2857  0.0652 -0.2125
 3456DPPE   C1A63329   8.803  19.938  17.204 -0.0857  0.0937  0.1076
 3456DPPE   C2A63330   8.844  19.960  16.827  0.2585  0.2205 -0.2120
 3456DPPE   C3A63331   8.848  19.936  16.447  0.0217  0.0144 -0.1172
 3456DPPE   C4A63332   8.858  19.968  15.988 -0.1340  0.1285 -0.3462
 3456DPPE   C1B63333   9.347  20.186  16.999 -0.0340  0.1223 -0.0570
 3456DPPE   C2B63334   9.274  20.129  16.616 -0.0197  0.0329  0.1276
 3456DPPE   C3B63335   9.335  20.105  16.224 -0.3284 -0.1346 -0.0570
 3456DPPE   C4B63336   9.256  20.047  15.730  0.1326 -0.0319  0.0542
 3457DPPE   NH363337  14.946  11.881  17.612  0.1078  0.1352 -0.0372
 3457DPPE   PO463338  15.259  11.782  17.288 -0.1629  0.1087 -0.0678
 3457DPPE   GL163339  15.302  11.731  16.835 -0.3540 -0.3165  0.0083
 3457DPPE   GL263340  14.959  11.866  16.596 -0.3119  0.1113 -0.1189
 3457DPPE   C1A63341  15.459  11.660  16.479 -0.2605 -0.2894 -0.1759
 3457DPPE   C2A63342  15.385  11.597  16.010 -0.3517 -0.0287 -0.1750
 3457DPPE   C3A63343  15.536  11.446  15.629  0.1860 -0.2674 -0.0320
 3457DPPE   C4A63344  15.740  11.539  15.176  0.0371  0.0201 -0.0304
 3457DPPE   C1B63345  15.024  11.892  16.127  0.3445 -0.0228 -0.1997
 3457DPPE   C2B63346  14.914  11.883  15.675  0.0839  0.2127  0.0738
 3457DPPE   C3B63347  14.879  11.999  15.225  0.0177 -0.0796 -0.1828
 3457DPPE   C4B63348  15.015  12.148  14.815 -0.1105  0.0167 -0.2056
 3458DPPE   NH363349   9.448  24.376  17.550  0.1781 -0.4297 -0.0495
 3458DPPE   PO463350   9.543  23.852  17.602  0.0038  0.0747 -0.1303
 3458DPPE   GL163351   9.298  23.854  17.313 -0.0829  0.2439 -0.0565
 3458DPPE   GL263352   9.443  23.690  16.968 -0.0124  0.2382  0.1783
 3458DPPE   C1A63353   9.025  24.006  16.966 -0.0256 -0.3236 -0.2664
 3458DPPE   C2A63354   8.818  24.295  16.703  0.1898  0.2626 -0.3617
 3458DPPE   C3A63355   8.730  24.717  16.630  0.0712 -0.0452 -0.0266
 3458DPPE   C4A63356   8.487  24.826  16.334  0.0214 -0.0972  0.2883
 3458DPPE   C1B63357   9.460  23.622  16.553  0.2194  0.0948  0.1994
 3458DPPE   C2B63358   9.434  23.826  16.158 -0.1119  0.0193 -0.2134
 3458DPPE   C3B63359   9.586  24.117  15.881  0.3770  0.2784  0.1088
 3458DPPE   C4B63360   9.555  23.865  15.477  0.1284 -0.0633  0.1193
 3459DPPE   NH363361  17.140  24.902  17.716  0.0751 -0.2233  0.3120
 3459DPPE   PO463362  16.839  24.916  17.447 -0.1702 -0.1148 -0.0067
 3459DPPE   GL163363  16.765  25.294  17.308 -0.1094 -0.2650  0.2346
 3459DPPE   GL263364  16.573  25.421  17.324  0.0137 -0.1774 -0.0641
 3459DPPE   C1A63365  16.874  25.802  17.234 -0.0100  0.0636 -0.0708
 3459DPPE   C2A63366  16.854  26.106  17.165  0.5107  0.1028 -0.3534
 3459DPPE   C3A63367  16.986  26.459  16.926 -0.1249 -0.1148  0.0534
 3459DPPE   C4A63368  16.819  26.863  17.121 -0.1176  0.3320 -0.0679
 3459DPPE   C1B63369  16.382  25.751  17.400  0.0369  0.0045 -0.0308
 3459DPPE   C2B63370  16.557  26.033  17.559 -0.1034 -0.2400 -0.1582
 3459DPPE   C3B63371  16.819  26.446  17.521  0.1367  0.1091  0.2247
 3459DPPE   C4B63372  16.997  26.700  17.780 -0.1847  0.0589 -0.0498
 3460DPPE   NH363373  11.304  13.977  17.193  0.0400  0.1716  0.0919
 3460DPPE   PO463374  11.674  13.880  17.389  0.0133 -0.0244 -0.2075
 3460DPPE   GL163375  11.800  13.964  16.950 -0.0882  0.1036 -0.0762
 3460DPPE   GL263376  12.048  13.878  16.903  0.0715 -0.1544 -0.1007
 3460DPPE   C1A63377  11.555  14.096  16.612  0.0096 -0.1087 -0.1508
 3460DPPE   C2A63378  11.494  14.203  16.189  0.0336 -0.0558 -0.0079
 3460DPPE   C3A63379  11.433  14.127  15.677 -0.0458 -0.0952 -0.3726
 3460DPPE   C4A63380  11.392  14.041  15.295 -0.0535 -0.0375 -0.0348
 3460DPPE   C1B63381  12.034  13.840  16.479 -0.2016  0.2213 -0.0411
 3460DPPE   C2B63382  11.953  13.927  16.073  0.2376  0.0943 -0.1832
 3460DPPE   C3B63383  11.866  13.857  15.582  0.3787 -0.0522  0.2010
 3460DPPE   C4B63384  11.778  13.804  15.115  0.1000 -0.1550 -0.0785
 3461DPPE   NH363385  13.706  14.577  17.718  0.0736 -0.1381 -0.0592
 3461DPPE   PO463386  13.365  14.723  17.462  0.2294  0.1863 -0.2216
 3461DPPE   GL163387  13.222  14.578  17.068 -0.2436 -0.0641 -0.3086
 3461DPPE   GL263388  13.520  14.422  16.929 -0.0882 -0.3320  0.4616
 3461DPPE   C1A63389  13.065  14.684  16.662  0.1311  0.3228  0.3655
 3461DPPE   C2A63390  12.850  14.836  16.223  0.4339 -0.1614 -0.0593
 3461DPPE   C3A63391  12.810  14.827  15.825 -0.0405  0.2674 -0.1966
 3461DPPE   C4A63392  12.880  14.824  15.353 -0.0960 -0.1014 -0.2127
 3461DPPE   C1B63393  13.420  14.363  16.516  0.2162 -0.0718  0.0737
 3461DPPE   C2B63394  13.293  14.032  16.258  0.0254 -0.0124  0.1044
 3461DPPE   C3B63395  13.270  13.964  15.791  0.0155 -0.0073 -0.2641
 3461DPPE   C4B63396  13.385  13.993  15.282  0.3126 -0.3551 -0.1221
 3462DPPE   NH363397  15.194  11.310  17.022  0.1203  0.2042 -0.0283
 3462DPPE   PO463398  15.650  11.412  17.273 -0.2101  0.1337 -0.1021
 3462DPPE   GL163399  15.657  11.300  16.814 -0.0600 -0.3128 -0.2810
 3462DPPE   GL263400  15.979  11.200  16.706 -0.3283 -0.2836 -0.0379
 3462DPPE   C1A63401  15.437  11.088  16.451 -0.0296  0.0650  0.1895
 3462DPPE   C2A63402  15.419  10.962  16.105  0.1530  0.0241  0.0018
 3462DPPE   C3A63403  15.344  10.561  15.857 -0.2113 -0.1578 -0.1076
 3462DPPE   C4A63404  15.368  10.479  15.440 -0.2281  0.1282  0.1074
 3462DPPE   C1B63405  15.866  10.908  16.393 -0.0104  0.3298 -0.4187
 3462DPPE   C2B63406  15.810  10.662  15.948 -0.3692 -0.2418  0.3284
 3462DPPE   C3B63407  15.837  10.539  15.592 -0.1678  0.2983  0.0049
 3462DPPE   C4B63408  15.941  10.631  15.126 -0.2159 -0.0372  0.0438
 3463DPPE   NH363409  17.532  17.005  16.725 -0.0854 -0.0483  0.1048
 3463DPPE   PO463410  17.102  17.069  16.904 -0.0331 -0.1420 -0.2574
 3463DPPE   GL163411  16.952  17.030  16.423 -0.2744 -0.1175  0.1154
 3463DPPE   GL263412  16.739  17.286  16.318 -0.1548  0.0637 -0.4113
 3463DPPE   C1A63413  17.026  16.923  16.025  0.3588 -0.0509  0.4500
 3463DPPE   C2A63414  17.033  16.942  15.557 -0.1644  0.0692  0.1090
 3463DPPE   C3A63415  17.060  16.932  15.150 -0.2786 -0.1129  0.0698
 3463DPPE   C4A63416  16.964  16.955  14.658  0.0738 -0.3822 -0.1029
 3463DPPE   C1B63417  16.664  17.244  15.818 -0.1038  0.1824  0.0068
 3463DPPE   C2B63418  16.632  17.195  15.376  0.2766 -0.3435  0.1543
 3463DPPE   C3B63419  16.588  17.251  14.973 -0.1039 -0.0081  0.0219
 3463DPPE   C4B63420  16.445  17.282  14.499  0.0568  0.2602 -0.0748
 3464DPPE   NH363421   7.000  14.328  17.777  0.0788 -0.0484  0.3239
 3464DPPE   PO463422   6.756  14.186  17.428  0.1296  0.2520  0.0561
 3464DPPE   GL163423   6.405  14.045  17.173  0.0222  0.1643  0.0254
 3464DPPE   GL263424   6.079  14.209  17.145  0.0433 -0.1180  0.0853
 3464DPPE   C1A63425   6.108  13.739  16.904  0.0451 -0.2200  0.0727
 3464DPPE   C2A63426   5.801  13.603  16.587  0.0261 -0.0843 -0.1277
 3464DPPE   C3A63427   5.604  13.342  16.371  0.1724  0.0608 -0.1238
 3464DPPE   C4A63428   5.184  13.185  16.324 -0.4022  0.2138  0.1895
 3464DPPE   C1B63429   6.126  14.179  16.640 -0.2456  0.1894 -0.0068
 3464DPPE   C2B63430   5.848  13.959  16.207 -0.0654  0.0011  0.1962
 3464DPPE   C3B63431   5.639  14.050  15.822 -0.2442 -0.3608 -0.0536
 3464DPPE   C4B63432   5.597  14.415  15.540 -0.1420  0.0924 -0.0256
 3465DPPE   NH363433   7.874  15.491  18.200  0.1020 -0.0631 -0.0503
 3465DPPE   PO463434   8.077  15.886  17.937 -0.0538 -0.2476  0.1703
 3465DPPE   GL163435   8.044  15.896  17.466 -0.0178 -0.1291  0.0659
 3465DPPE   GL263436   8.080  15.599  17.365 -0.3771  0.0730  0.0885
 3465DPPE   C1A63437   8.017  16.032  17.011 -0.1296  0.0954  0.0376
 3465DPPE   C2A63438   7.993  16.130  16.641 -0.3897 -0.2790  0.2399
 3465DPPE   C3A63439   7.938  15.822  16.317  0.2253 -0.1664 -0.3669
 3465DPPE   C4A63440   7.959  15.628  15.970 -0.3148  0.0805 -0.0387
 3465DPPE   C1B63441   7.716  15.505  17.185  0.3594  0.1322  0.1883
 3465DPPE   C2B63442   7.726  15.544  16.771 -0.2157 -0.1172  0.2395
 3465DPPE   C3B63443   7.494  15.331  16.450 -0.1571  0.1612  0.3985
 3465DPPE   C4B63444   7.392  14.888  16.249  0.1407 -0.2879  0.0790
 3466DPPE   NH363445  13.468  19.683  17.200  0.0870 -0.2009 -0.0097
 3466DPPE   PO463446  13.049  19.673  17.158  0.1128 -0.0655  0.1711
 3466DPPE   GL163447  12.873  19.771  16.842 -0.0722 -0.2106  0.1207
 3466DPPE   GL263448  12.501  19.703  16.982 -0.0887 -0.0328  0.0870
 3466DPPE   C1A63449  12.902  19.852  16.407 -0.0209 -0.1573 -0.1309
 3466DPPE   C2A63450  12.791  19.894  15.941 -0.1220 -0.1618  0.1582
 3466DPPE   C3A63451  12.732  19.823  15.488 -0.2172  0.0421  0.1199
 3466DPPE   C4A63452  12.618  19.839  15.088 -0.1741  0.0794 -0.0005
 3466DPPE   C1B63453  12.340  19.650  16.590 -0.4434  0.0673 -0.3818
 3466DPPE   C2B63454  12.328  19.579  16.204 -0.1040 -0.0579  0.5239
 3466DPPE   C3B63455  12.341  19.576  15.749 -0.2670 -0.0874 -0.3541
 3466DPPE   C4B63456  12.213  19.669  15.324  0.2105  0.0724  0.1834
 3467DPPE   NH363457  10.529  15.267  17.900  0.1397 -0.0406 -0.0733
 3467DPPE   PO463458  10.149  15.415  17.824 -0.0305 -0.1772 -0.5876
 3467DPPE   GL163459   9.963  15.477  17.465  0.1729  0.2030  0.0717
 3467DPPE   GL263460   9.691  15.316  17.384  0.2199 -0.0981  0.2029
 3467DPPE   C1A63461  10.049  15.561  17.110 -0.2377 -0.0007 -0.1022
 3467DPPE   C2A63462  10.245  15.602  16.707 -0.0855  0.1337  0.0298
 3467DPPE   C3A63463  10.179  15.586  16.290 -0.0473 -0.1684 -0.1593
 3467DPPE   C4A63464  10.078  15.501  15.940  0.1349  0.2455  0.1007
 3467DPPE   C1B63465   9.746  15.106  16.974 -0.1797  0.0206  0.2535
 3467DPPE   C2B63466   9.848  15.332  16.540 -0.1366 -0.0758  0.0321
 3467DPPE   C3B63467   9.744  15.256  16.153 -0.0039  0.1853  0.1045
 3467DPPE   C4B63468   9.513  15.229  15.763  0.1921  0.0108  0.0084
 3468DPPE   NH363469  10.727  18.403  17.922 -0.3042  0.0570  0.0194
 3468DPPE   PO463470  10.863  18.457  17.446  0.0665  0.1380  0.0099
 3468DPPE   GL163471  10.999  18.347  16.996 -0.0879 -0.3456 -0.1792
 3468DPPE   GL263472  10.981  18.738  16.917 -0.0937  0.1354  0.0221
 3468DPPE   C1A63473  10.876  18.320  16.655 -0.3033 -0.3641  0.2550
 3468DPPE   C2A63474  10.899  18.328  16.300 -0.1135  0.2253 -0.0979
 3468DPPE   C3A63475  10.871  18.403  15.988  0.0926 -0.0560 -0.2375
 3468DPPE   C4A63476  10.896  18.352  15.593 -0.0630  0.2098 -0.1615
 3468DPPE   C1B63477  10.918  18.885  16.574 -0.0862  0.5063 -0.2421
 3468DPPE   C2B63478  10.970  19.011  16.145 -0.0627 -0.0993  0.4369
 3468DPPE   C3B63479  10.980  18.885  15.670  0.3939  0.4449 -0.0462
 3468DPPE   C4B63480  11.027  18.854  15.312  0.1574  0.0946  0.4884
 3469DPPE   NH363481  11.419  16.274  17.319 -0.0347  0.0663 -0.0434
 3469DPPE   PO463482  11.449  16.704  17.327 -0.0936  0.1184 -0.0927
 3469DPPE   GL163483  11.442  16.676  16.984 -0.1154 -0.2867 -0.0459
 3469DPPE   GL263484  11.168  16.429  16.861 -0.0985 -0.2384 -0.1582
 3469DPPE   C1A63485  11.677  16.736  16.540 -0.3045  0.2634 -0.0204
 3469DPPE   C2A63486  11.643  16.732  16.160  0.0922  0.0629  0.1005
 3469DPPE   C3A63487  11.627  16.804  15.823 -0.1921  0.0268 -0.2256
 3469DPPE   C4A63488  11.469  16.571  15.502 -0.0359 -0.1045 -0.0559
 3469DPPE   C1B63489  11.171  16.515  16.368 -0.2024 -0.0326  0.1344
 3469DPPE   C2B63490  11.192  16.612  15.894  0.3571 -0.2815 -0.2303
 3469DPPE   C3B63491  10.995  16.460  15.451  0.2928  0.1980  0.0926
 3469DPPE   C4B63492  10.981  16.306  15.025  0.1366 -0.3494  0.0649
 3470DPPE   NH363493   8.845  13.286  17.667  0.0178  0.1852 -0.0597
 3470DPPE   PO463494   9.021  13.761  17.734 -0.2124  0.2254  0.1911
 3470DPPE   GL163495   9.043  13.582  17.265  0.1398 -0.0707 -0.3755
 3470DPPE   GL263496   9.303  13.451  17.123  0.2129 -0.1768 -0.1395
 3470DPPE   C1A63497   8.893  13.869  16.969 -0.0109  0.2571  0.1045
 3470DPPE   C2A63498   8.679  14.188  16.781  0.3332  0.1535  0.0465
 3470DPPE   C3A63499   8.856  14.616  16.732  0.0141 -0.4001  0.1781
 3470DPPE   C4A63500   8.927  14.938  16.951 -0.0875  0.3799  0.1414
 3470DPPE   C1B63501   9.178  13.553  16.767  0.0395 -0.4354 -0.2164
 3470DPPE   C2B63502   9.091  13.510  16.334 -0.0203 -0.1433 -0.0035
 3470DPPE   C3B63503   9.120  13.486  15.891 -0.2154  0.1957  0.0616
 3470DPPE   C4B63504   9.169  13.407  15.501  0.2234  0.1134  0.0433
 3471DPPE   NH363505  12.695  19.646  17.512  0.3386 -0.0289 -0.2664
 3471DPPE   PO463506  12.516  20.042  17.522 -0.3235  0.1937 -0.3551
 3471DPPE   GL163507  12.432  20.208  17.092  0.3744 -0.2385 -0.2350
 3471DPPE   GL263508  12.475  20.549  17.074  0.3826 -0.0338 -0.4427
 3471DPPE   C1A63509  12.339  20.111  16.751 -0.3113 -0.2732 -0.1902
 3471DPPE   C2A63510  12.424  20.078  16.317 -0.0459 -0.0417  0.1995
 3471DPPE   C3A63511  12.399  20.084  15.856  0.1607  0.0089 -0.1621
 3471DPPE   C4A63512  12.318  20.112  15.457 -0.0919 -0.0457 -0.0267
 3471DPPE   C1B63513  12.509  20.613  16.651  0.1184  0.0092  0.3082
 3471DPPE   C2B63514  12.430  20.593  16.270 -0.1234  0.1570  0.0400
 3471DPPE   C3B63515  12.436  20.669  15.833  0.0820  0.3519 -0.4115
 3471DPPE   C4B63516  12.343  20.572  15.359 -0.1209  0.1549 -0.1540
 3472DPPE   NH363517  10.404  17.620  17.641  0.3195  0.3277 -0.0389
 3472DPPE   PO463518   9.984  17.464  17.659 -0.2462  0.1912  0.0471
 3472DPPE   GL163519   9.824  17.461  17.228  0.1186  0.3502  0.0335
 3472DPPE   GL263520   9.506  17.662  17.145  0.1436 -0.1101  0.3226
 3472DPPE   C1A63521   9.916  17.448  16.801  0.0753 -0.0072 -0.0355
 3472DPPE   C2A63522   9.909  17.484  16.370  0.0356  0.0924 -0.2693
 3472DPPE   C3A63523   9.934  17.459  15.982 -0.0620  0.3041  0.2279
 3472DPPE   C4A63524   9.617  17.403  15.539  0.1329 -0.0226  0.0714
 3472DPPE   C1B63525   9.506  17.808  16.806  0.0172  0.0625  0.1948
 3472DPPE   C2B63526   9.493  17.780  16.369  0.4499  0.2256  0.0898
 3472DPPE   C3B63527   9.491  17.685  15.904  0.1555 -0.0342  0.0376
 3472DPPE   C4B63528   9.310  17.800  15.368  0.0016  0.1103  0.1236
 3473DPPE   NH363529  13.014  11.305  17.136 -0.3755  0.0849  0.1048
 3473DPPE   PO463530  12.659  11.032  17.123 -0.1507 -0.0435  0.4252
 3473DPPE   GL163531  12.673  11.116  16.670 -0.4195  0.0634  0.2462
 3473DPPE   GL263532  12.687  10.814  16.646  0.0563 -0.0299  0.2340
 3473DPPE   C1A63533  12.604  11.222  16.347  0.1716  0.1746  0.0966
 3473DPPE   C2A63534  12.581  11.297  15.956  0.0164  0.2306  0.3435
 3473DPPE   C3A63535  12.639  11.227  15.488 -0.1560  0.2039 -0.1268
 3473DPPE   C4A63536  12.661  10.808  15.150 -0.0717  0.0158  0.0691
 3473DPPE   C1B63537  12.607  10.762  16.214  0.1541  0.1504  0.1834
 3473DPPE   C2B63538  12.341  10.644  15.956  0.1748 -0.1840  0.0752
 3473DPPE   C3B63539  12.280  10.340  15.708 -0.0821  0.0682 -0.2818
 3473DPPE   C4B63540  11.880  10.414  15.533  0.0521 -0.1705 -0.1190
 3474DPPE   NH363541  13.494  12.861  17.743  0.1334 -0.2930  0.0442
 3474DPPE   PO463542  13.493  13.019  17.301  0.1827 -0.0282  0.2612
 3474DPPE   GL163543  13.638  12.995  16.882 -0.1322  0.3247  0.1422
 3474DPPE   GL263544  13.799  12.691  16.787  0.0312  0.1439 -0.0537
 3474DPPE   C1A63545  13.627  13.261  16.550  0.2017  0.1332 -0.0862
 3474DPPE   C2A63546  13.682  13.220  16.159  0.1287 -0.1826 -0.1922
 3474DPPE   C3A63547  13.690  13.226  15.653  0.3942  0.1812 -0.2767
 3474DPPE   C4A63548  13.740  13.202  15.263  0.2122 -0.1713 -0.1636
 3474DPPE   C1B63549  13.628  12.660  16.437  0.3309 -0.1742 -0.1484
 3474DPPE   C2B63550  13.640  12.702  15.942  0.1590 -0.0892 -0.0293
 3474DPPE   C3B63551  13.624  12.736  15.474  0.0630 -0.2902 -0.0291
 3474DPPE   C4B63552  13.708  12.740  14.993 -0.1035 -0.0609  0.1367
 3475DPPE   NH363553   7.056  21.364  18.424  0.0778 -0.3130  0.1191
 3475DPPE   PO463554   6.783  21.108  18.327  0.1160 -0.1882  0.3375
 3475DPPE   GL163555   6.728  21.314  17.970 -0.0506 -0.3209  0.2670
 3475DPPE   GL263556   6.802  21.625  17.997 -0.2633  0.2859  0.0658
 3475DPPE   C1A63557   6.509  21.419  17.572  0.0477  0.1387 -0.0444
 3475DPPE   C2A63558   6.280  21.209  17.310 -0.1964  0.0323  0.0510
 3475DPPE   C3A63559   6.187  20.881  17.006  0.1973 -0.1628 -0.2265
 3475DPPE   C4A63560   6.009  20.755  16.694 -0.0027  0.1544 -0.1543
 3475DPPE   C1B63561   6.409  21.779  17.777  0.0573  0.0888 -0.2464
 3475DPPE   C2B63562   6.066  21.949  17.458  0.1059  0.1346 -0.0759
 3475DPPE   C3B63563   5.750  22.168  17.215 -0.3331 -0.0125 -0.1239
 3475DPPE   C4B63564   5.758  22.496  16.837  0.1157 -0.0142 -0.0484
 3476DPPE   NH363565  15.794  10.193  16.884 -0.2980 -0.0921 -0.0587
 3476DPPE   PO463566  15.949   9.992  17.215 -0.1550  0.2364 -0.0179
 3476DPPE   GL163567  16.070   9.770  16.820  0.2295 -0.3270 -0.1568
 3476DPPE   GL263568  16.017   9.347  16.985 -0.1342 -0.0787 -0.0353
 3476DPPE   C1A63569  15.878   9.591  16.489  0.1789 -0.0469  0.1239
 3476DPPE   C2A63570  15.979   9.465  16.136 -0.3280 -0.1648 -0.1394
 3476DPPE   C3A63571  16.064   9.107  15.937 -0.3000  0.4421  0.0390
 3476DPPE   C4A63572  16.010   9.077  15.526 -0.4800  0.2499  0.1467
 3476DPPE   C1B63573  16.429   9.154  16.960 -0.1109 -0.0616  0.2573
 3476DPPE   C2B63574  16.571   9.020  16.513 -0.1467 -0.2882  0.1619
 3476DPPE   C3B63575  16.699   8.631  16.202 -0.2245 -0.1571  0.3856
 3476DPPE   C4B63576  16.849   8.248  15.959  0.2442  0.1716 -0.1464
 3477DPPE   NH363577  18.271  15.439  16.812 -0.1174 -0.1002 -0.3988
 3477DPPE   PO463578  18.120  15.866  16.890 -0.0219 -0.1989 -0.1457
 3477DPPE   GL163579  18.046  16.065  16.525  0.0338  0.2079  0.0511
 3477DPPE   GL263580  18.222  16.144  16.362 -0.2262 -0.0595  0.3299
 3477DPPE   C1A63581  17.808  15.874  16.187 -0.1292 -0.0675 -0.1174
 3477DPPE   C2A63582  17.805  15.872  15.820 -0.0236 -0.2496  0.1037
 3477DPPE   C3A63583  18.004  15.873  15.408  0.0532 -0.1557 -0.0274
 3477DPPE   C4A63584  18.232  16.151  15.043 -0.0330 -0.4467 -0.2724
 3477DPPE   C1B63585  18.301  16.167  15.928 -0.1781  0.0411  0.1902
 3477DPPE   C2B63586  18.473  16.084  15.586  0.1837 -0.6001  0.0090
 3477DPPE   C3B63587  18.670  16.090  15.200 -0.3728  0.4645 -0.0208
 3477DPPE   C4B63588  18.664  16.322  14.724 -0.3311 -0.1420 -0.1233
 3478DPPE   NH363589  14.038  18.770  17.233  0.0624  0.1273 -0.0346
 3478DPPE   PO463590  13.635  18.926  16.898  0.0705  0.0235  0.1751
 3478DPPE   GL163591  13.856  18.864  16.548 -0.2666  0.1544  0.3540
 3478DPPE   GL263592  13.914  18.522  16.421  0.1362 -0.0500  0.0713
 3478DPPE   C1A63593  14.023  18.987  16.095 -0.1004 -0.1113 -0.0056
 3478DPPE   C2A63594  14.015  19.033  15.585  0.0365  0.2008  0.0751
 3478DPPE   C3A63595  14.021  19.052  15.208 -0.1822  0.0577  0.1751
 3478DPPE   C4A63596  13.950  19.030  14.767 -0.1985 -0.0149 -0.0784
 3478DPPE   C1B63597  13.936  18.528  15.969  0.3650  0.1055 -0.0301
 3478DPPE   C2B63598  13.924  18.480  15.620 -0.2295 -0.1670  0.1433
 3478DPPE   C3B63599  13.921  18.544  15.208  0.2665 -0.2476 -0.0433
 3478DPPE   C4B63600  13.923  18.519  14.754 -0.2507  0.0822 -0.2841
 3479DPPE   NH363601  18.859  18.421  16.727  0.0820  0.1841  0.0308
 3479DPPE   PO463602  19.167  18.528  16.972 -0.1056 -0.1512 -0.0722
 3479DPPE   GL163603  19.178  18.776  16.539 -0.0419  0.1177 -0.1738
 3479DPPE   GL263604  19.413  18.672  16.432  0.0949  0.2328 -0.1775
 3479DPPE   C1A63605  19.222  19.051  16.209  0.2361 -0.1649 -0.0417
 3479DPPE   C2A63606  19.658  19.087  15.875 -0.2500  0.0795  0.0874
 3479DPPE   C3A63607  20.083  19.380  15.736  0.0603  0.5120  0.1431
 3479DPPE   C4A63608  20.321  19.364  15.408  0.0487 -0.2114  0.0327
 3479DPPE   C1B63609  19.330  18.633  15.935 -0.2195  0.1247 -0.0959
 3479DPPE   C2B63610  19.215  18.811  15.469  0.0115 -0.1067  0.1619
 3479DPPE   C3B63611  19.084  19.259  15.417 -0.0552  0.0149  0.0000
 3479DPPE   C4B63612  19.063  19.458  15.052  0.1607  0.0406 -0.1566
 3480DPPE   NH363613   8.763  12.372  17.310 -0.2642  0.2944  0.3514
 3480DPPE   PO463614   8.343  12.571  17.279 -0.3267  0.1347  0.3732
 3480DPPE   GL163615   8.175  12.337  17.010 -0.4016 -0.3660  0.0688
 3480DPPE   GL263616   7.890  12.339  17.005  0.0535 -0.1375 -0.2489
 3480DPPE   C1A63617   8.189  12.067  16.600 -0.1880  0.1019 -0.1513
 3480DPPE   C2A63618   8.032  11.900  16.305 -0.3386  0.1388  0.3354
 3480DPPE   C3A63619   7.717  11.619  16.206  0.0604  0.2680 -0.1458
 3480DPPE   C4A63620   7.222  11.416  16.336  0.0963 -0.0868  0.1455
 3480DPPE   C1B63621   7.674  12.486  16.710 -0.0173 -0.0399 -0.2465
 3480DPPE   C2B63622   7.443  12.678  16.380 -0.1703  0.2029 -0.2902
 3480DPPE   C3B63623   7.360  12.646  16.018  0.0007  0.0092  0.2869
 3480DPPE   C4B63624   7.232  12.243  15.806  0.5773  0.0997 -0.0480
 3481DPPE   NH363625   9.992  21.656  18.501 -0.3246 -0.2217  0.0846
 3481DPPE   PO463626   9.844  21.861  18.082 -0.0655  0.1158  0.0258
 3481DPPE   GL163627   9.905  21.772  17.684 -0.1230 -0.0043  0.1392
 3481DPPE   GL263628  10.051  22.041  17.601  0.3143 -0.2452 -0.2857
 3481DPPE   C1A63629  10.052  21.673  17.302 -0.1406 -0.1737  0.2249
 3481DPPE   C2A63630   9.971  21.865  16.825  0.2488  0.2167 -0.2019
 3481DPPE   C3A63631   9.918  21.967  16.353  0.2016  0.0555 -0.1522
 3481DPPE   C4A63632   9.940  21.874  15.854  0.0108  0.0457  0.3154
 3481DPPE   C1B63633  10.017  22.205  17.245 -0.1321  0.1512 -0.2393
 3481DPPE   C2B63634  10.076  22.344  16.847 -0.1878 -0.2230  0.0914
 3481DPPE   C3B63635  10.331  22.099  16.532  0.1821 -0.2711 -0.2621
 3481DPPE   C4B63636  10.306  22.189  16.151  0.1740  0.0481 -0.1304
 3482DPPE   NH363637  18.316  16.407  16.788 -0.1459  0.1642 -0.0162
 3482DPPE   PO463638  18.470  16.754  16.569 -0.1826 -0.1225 -0.0228
 3482DPPE   GL163639  18.240  16.712  16.211  0.0513 -0.0274 -0.2200
 3482DPPE   GL263640  17.958  16.966  16.198  0.5348  0.0213  0.1207
 3482DPPE   C1A63641  18.318  16.711  15.864  0.1573 -0.2039 -0.1623
 3482DPPE   C2A63642  18.443  16.630  15.507 -0.1284  0.3381 -0.0735
 3482DPPE   C3A63643  18.505  16.670  15.032  0.1720 -0.0555 -0.2705
 3482DPPE   C4A63644  18.214  16.640  14.714 -0.0821  0.1054 -0.3139
 3482DPPE   C1B63645  17.870  16.920  15.960 -0.1603 -0.1573 -0.1374
 3482DPPE   C2B63646  17.846  16.910  15.626  0.2418  0.1599  0.0747
 3482DPPE   C3B63647  17.868  16.997  15.249 -0.1840  0.2706  0.2240
 3482DPPE   C4B63648  17.843  17.004  14.830 -0.0794 -0.1843  0.7045
 3483DPPE   NH363649  16.042  18.605  16.979 -0.4844 -0.3032 -0.3244
 3483DPPE   PO463650  15.736  18.231  16.845 -0.1165 -0.2508 -0.1893
 3483DPPE   GL163651  15.806  18.392  16.481 -0.0983  0.0203 -0.2343
 3483DPPE   GL263652  15.792  18.258  16.162  0.2348 -0.4952 -0.2352
 3483DPPE   C1A63653  15.779  18.838  16.338 -0.2565 -0.1949  0.0970
 3483DPPE   C2A63654  15.829  18.850  15.845 -0.1718 -0.0945 -0.0511
 3483DPPE   C3A63655  15.813  18.857  15.432 -0.0328 -0.0838  0.0501
 3483DPPE   C4A63656  15.669  18.972  14.946  0.0067  0.0166  0.1127
 3483DPPE   C1B63657  15.720  18.313  15.690 -0.2810 -0.1583  0.2581
 3483DPPE   C2B63658  15.783  18.286  15.275 -0.1238 -0.1390  0.3148
 3483DPPE   C3B63659  15.765  18.363  14.760  0.1632 -0.0243  0.2284
 3483DPPE   C4B63660  16.065  18.310  14.408 -0.1312  0.1039 -0.0864
 3484DPPE   NH363661  11.224  11.159  17.122  0.0287 -0.0694  0.2393
 3484DPPE   PO463662  11.369  10.801  17.264 -0.0716 -0.1138 -0.1491
 3484DPPE   GL163663  11.081  10.768  16.774  0.0254 -0.0122 -0.3208
 3484DPPE   GL263664  11.195  10.532  16.527 -0.1572  0.0298  0.2921
 3484DPPE   C1A63665  10.681  10.666  16.544 -0.0800  0.4224  0.1186
 3484DPPE   C2A63666  10.367  10.535  16.303 -0.1004 -0.2187  0.3515
 3484DPPE   C3A63667  10.237  10.415  15.831  0.1771 -0.1559 -0.0539
 3484DPPE   C4A63668   9.994  10.493  15.424  0.0819  0.2164  0.2757
 3484DPPE   C1B63669  11.121  10.551  16.143 -0.2339  0.0516  0.1289
 3484DPPE   C2B63670  11.298  10.483  15.748 -0.1766 -0.3939  0.2335
 3484DPPE   C3B63671  11.425  10.513  15.353  0.2920 -0.3537  0.2494
 3484DPPE   C4B63672  11.551  10.351  15.017 -0.0745  0.1014  0.3131
 3485DPPE   NH363673   9.414  10.232  18.011 -0.2504  0.0790 -0.4983
 3485DPPE   PO463674   9.287  10.634  17.946  0.2538 -0.0801 -0.3406
 3485DPPE   GL163675   9.343  10.333  17.480 -0.0218  0.0467  0.2048
 3485DPPE   GL263676   9.139   9.999  17.634 -0.2014  0.2051 -0.0529
 3485DPPE   C1A63677   9.078  10.089  17.110 -0.0046 -0.1817  0.0196
 3485DPPE   C2A63678   8.712   9.858  17.096 -0.0518 -0.1191  0.1233
 3485DPPE   C3A63679   8.748   9.496  16.947  0.1080 -0.4659  0.0070
 3485DPPE   C4A63680   8.925   9.064  16.727 -0.4139  0.2878  0.0259
 3485DPPE   C1B63681   9.061   9.622  17.323  0.0668  0.0640  0.2598
 3485DPPE   C2B63682   9.280   9.274  17.092 -0.3695 -0.1947  0.1605
 3485DPPE   C3B63683   9.332   9.334  16.667  0.0339  0.2499  0.1170
 3485DPPE   C4B63684   9.154   9.348  16.278  0.1517  0.1641  0.1118
 3486DPPE   NH363685   8.565  18.396  18.006  0.2110 -0.0392 -0.0453
 3486DPPE   PO463686   8.925  18.259  17.952 -0.1893 -0.2010 -0.1873
 3486DPPE   GL163687   8.644  18.052  17.660 -0.1687 -0.0271 -0.1604
 3486DPPE   GL263688   8.512  18.330  17.465  0.1822  0.0488 -0.1967
 3486DPPE   C1A63689   8.612  17.923  17.201 -0.0240  0.4395  0.0181
 3486DPPE   C2A63690   8.560  17.837  16.768  0.1885  0.0050  0.1329
 3486DPPE   C3A63691   8.613  17.847  16.353 -0.1085 -0.1089  0.2165
 3486DPPE   C4A63692   8.606  17.813  15.929  0.2512 -0.1500 -0.0804
 3486DPPE   C1B63693   8.721  18.446  17.149  0.0457  0.0388  0.0230
 3486DPPE   C2B63694   8.678  18.340  16.667 -0.0184 -0.0443  0.0354
 3486DPPE   C3B63695   8.667  18.297  16.218  0.0411 -0.1757  0.1935
 3486DPPE   C4B63696   8.631  18.566  15.853  0.3825  0.5594 -0.0410
 3487DPPE   NH363697  17.969  22.322  17.216  0.1614 -0.1169 -0.3202
 3487DPPE   PO463698  18.165  22.014  16.983  0.2995 -0.0977 -0.0074
 3487DPPE   GL163699  18.429  21.765  16.762  0.0168  0.0607 -0.1018
 3487DPPE   GL263700  18.164  21.527  16.747  0.1150  0.0752 -0.0579
 3487DPPE   C1A63701  18.728  21.627  16.555 -0.2426  0.1344 -0.2939
 3487DPPE   C2A63702  18.778  21.559  16.217 -0.1991  0.3071  0.1154
 3487DPPE   C3A63703  18.794  21.172  16.053 -0.0152  0.4108  0.2028
 3487DPPE   C4A63704  18.919  20.987  15.762  0.2530 -0.0053 -0.1921
 3487DPPE   C1B63705  18.353  21.325  16.393  0.2558  0.1648  0.3830
 3487DPPE   C2B63706  18.351  21.319  15.896 -0.0475  0.2322 -0.2759
 3487DPPE   C3B63707  18.384  21.120  15.505 -0.0309 -0.0863  0.0950
 3487DPPE   C4B63708  18.232  20.931  15.151 -0.0879  0.1250 -0.2362
 3488DPPE   NH363709  14.206  22.639  17.009  0.1573 -0.2074  0.2164
 3488DPPE   PO463710  13.798  22.555  17.325 -0.1437  0.0227 -0.1764
 3488DPPE   GL163711  13.556  22.460  16.948  0.0833  0.1060 -0.2277
 3488DPPE   GL263712  13.682  22.710  16.831  0.5248  0.2306  0.1546
 3488DPPE   C1A63713  13.538  22.179  16.573 -0.2077  0.1750  0.0813
 3488DPPE   C2A63714  13.440  22.036  16.166  0.0568  0.2224 -0.0324
 3488DPPE   C3A63715  13.285  22.201  15.738 -0.0698  0.0067  0.0983
 3488DPPE   C4A63716  13.176  22.320  15.438 -0.0796  0.0548 -0.2102
 3488DPPE   C1B63717  13.475  22.675  16.413  0.3465 -0.1243 -0.1005
 3488DPPE   C2B63718  13.387  22.634  15.951 -0.2673  0.0849 -0.0662
 3488DPPE   C3B63719  13.400  22.778  15.566  0.0811 -0.1931  0.0569
 3488DPPE   C4B63720  13.126  22.919  15.289  0.2716  0.0773 -0.0886
 3489DPPE   NH363721  11.904  12.001  17.271  0.0964  0.0346 -0.0327
 3489DPPE   PO463722  11.965  11.509  17.339 -0.0211 -0.0327  0.2639
 3489DPPE   GL163723  12.048  11.622  16.838 -0.0034  0.0076 -0.0323
 3489DPPE   GL263724  11.864  11.566  16.710 -0.3084  0.0732 -0.3979
 3489DPPE   C1A63725  12.234  11.528  16.443 -0.0436  0.1885  0.0137
 3489DPPE   C2A63726  12.153  11.596  16.020  0.3694  0.1823 -0.0074
 3489DPPE   C3A63727  12.280  11.548  15.584 -0.1912 -0.0303 -0.1165
 3489DPPE   C4A63728  12.245  11.327  15.234 -0.1820 -0.0055 -0.1066
 3489DPPE   C1B63729  11.749  11.846  16.292 -0.0837  0.0567 -0.3538
 3489DPPE   C2B63730  11.789  11.899  15.835 -0.1167 -0.0284 -0.1976
 3489DPPE   C3B63731  11.973  11.848  15.339 -0.0468  0.2460 -0.3975
 3489DPPE   C4B63732  11.932  11.771  14.962 -0.1586 -0.4556 -0.0249
 3490DPPE   NH363733  12.269  15.738  17.346 -0.3765  0.0789 -0.2486
 3490DPPE   PO463734  12.181  16.204  17.420 -0.2890  0.0994 -0.1192
 3490DPPE   GL163735  12.278  16.118  16.946 -0.0382  0.1532 -0.1960
 3490DPPE   GL263736  12.535  16.151  16.784 -0.2476 -0.0314 -0.0313
 3490DPPE   C1A63737  12.061  16.107  16.536  0.0828  0.2572  0.0854
 3490DPPE   C2A63738  12.018  15.931  16.141 -0.3999 -0.1810  0.4600
 3490DPPE   C3A63739  12.080  15.845  15.783  0.1717 -0.3066  0.2021
 3490DPPE   C4A63740  11.996  15.859  15.301  0.0381  0.1034 -0.1301
 3490DPPE   C1B63741  12.524  16.213  16.358 -0.0268  0.1674 -0.2270
 3490DPPE   C2B63742  12.431  16.143  15.925 -0.0377 -0.1546  0.3163
 3490DPPE   C3B63743  12.386  16.098  15.447  0.2727 -0.0476 -0.0151
 3490DPPE   C4B63744  12.546  16.006  15.071  0.1330 -0.0871  0.0193
 3491DPPE   NH363745   9.033  16.317  17.659 -0.3081 -0.0203 -0.4307
 3491DPPE   PO463746   8.771  16.637  17.773  0.1811 -0.0935 -0.0627
 3491DPPE   GL163747   8.699  16.579  17.339  0.1586 -0.1401  0.1334
 3491DPPE   GL263748   8.396  16.549  17.258  0.3513  0.3218  0.1075
 3491DPPE   C1A63749   8.851  16.581  16.976  0.2306 -0.0144  0.1660
 3491DPPE   C2A63750   8.931  16.529  16.475 -0.1930  0.0764 -0.1501
 3491DPPE   C3A63751   8.924  16.555  16.080  0.2845  0.3465  0.1890
 3491DPPE   C4A63752   8.746  16.516  15.624 -0.1929  0.1027  0.0025
 3491DPPE   C1B63753   8.453  16.294  16.939  0.1604  0.3578  0.1777
 3491DPPE   C2B63754   8.704  16.012  16.588  0.1606  0.1857  0.1851
 3491DPPE   C3B63755   8.896  15.943  16.219  0.0863 -0.3522  0.2356
 3491DPPE   C4B63756   8.826  16.034  15.822  0.0061 -0.3807 -0.0806
 3492DPPE   NH363757   6.633  17.203  17.488 -0.1334  0.0319 -0.1330
 3492DPPE   PO463758   6.734  17.627  17.410 -0.1491  0.1330  0.1127
 3492DPPE   GL163759   6.659  17.477  17.020 -0.0934 -0.1891  0.3137
 3492DPPE   GL263760   6.529  17.718  16.903 -0.0022  0.0798 -0.0683
 3492DPPE   C1A63761   6.895  17.431  16.601 -0.0026  0.2360 -0.2497
 3492DPPE   C2A63762   6.814  17.501  16.207  0.1917  0.3503  0.2973
 3492DPPE   C3A63763   6.533  17.625  15.842  0.0353  0.1412 -0.3356
 3492DPPE   C4A63764   6.501  17.440  15.498 -0.0283  0.0193 -0.0209
 3492DPPE   C1B63765   6.385  17.741  16.432  0.0421 -0.1510  0.2516
 3492DPPE   C2B63766   6.395  18.027  16.073  0.2232 -0.0207  0.0782
 3492DPPE   C3B63767   6.127  18.266  15.854  0.3622  0.3673  0.0512
 3492DPPE   C4B63768   5.887  18.703  15.750  0.1451 -0.0747  0.4944
 3493DPPE   NH363769  11.922  10.992  17.386  0.0694 -0.0952 -0.2733
 3493DPPE   PO463770  11.709  11.170  17.034 -0.0011 -0.0183 -0.1316
 3493DPPE   GL163771  11.589  10.868  16.781  0.1910  0.3330 -0.0019
 3493DPPE   GL263772  11.787  10.654  16.777  0.1516  0.2704  0.0135
 3493DPPE   C1A63773  11.383  10.936  16.437  0.1211  0.0686 -0.0244
 3493DPPE   C2A63774  11.320  10.944  15.898 -0.2701  0.0219  0.0608
 3493DPPE   C3A63775  11.109  10.932  15.548  0.1522 -0.0517 -0.2387
 3493DPPE   C4A63776  10.998  10.758  15.101  0.3331 -0.0884  0.0955
 3493DPPE   C1B63777  11.860  10.639  16.355  0.5281  0.0690  0.0022
 3493DPPE   C2B63778  11.771  10.726  16.007 -0.1777 -0.2883  0.0716
 3493DPPE   C3B63779  11.717  10.885  15.564 -0.2757 -0.3012  0.1126
 3493DPPE   C4B63780  11.454  10.969  15.175  0.0548 -0.0975 -0.0552
 3494DPPE   NH363781   8.621  19.709  17.982 -0.0058 -0.1398 -0.0571
 3494DPPE   PO463782   8.232  19.587  17.893  0.1240  0.1006 -0.1007
 3494DPPE   GL163783   8.350  19.738  17.517 -0.4230 -0.0592 -0.0191
 3494DPPE   GL263784   8.683  19.547  17.540  0.2626  0.1187 -0.0712
 3494DPPE   C1A63785   8.392  19.709  16.965  0.3210 -0.1061 -0.2615
 3494DPPE   C2A63786   8.422  19.725  16.599  0.2408 -0.1415 -0.1338
 3494DPPE   C3A63787   8.415  19.767  16.176 -0.0391  0.1284  0.0905
 3494DPPE   C4A63788   8.447  19.714  15.730 -0.2205  0.1473 -0.1715
 3494DPPE   C1B63789   8.777  19.455  17.146  0.1683 -0.1365 -0.1626
 3494DPPE   C2B63790   8.855  19.504  16.738  0.1986 -0.0241  0.0723
 3494DPPE   C3B63791   8.701  19.396  16.372 -0.0833 -0.0358  0.0299
 3494DPPE   C4B63792   8.753  19.459  16.002 -0.1052  0.1827 -0.2457
 3495DPPE   NH363793  16.138  14.083  17.223  0.0176  0.1349 -0.0115
 3495DPPE   PO463794  16.330  14.511  17.209  0.1079  0.1733  0.1201
 3495DPPE   GL163795  16.449  14.627  16.822  0.2633 -0.0838 -0.2249
 3495DPPE   GL263796  16.373  14.935  16.685 -0.0703 -0.0271 -0.1254
 3495DPPE   C1A63797  16.400  14.622  16.283  0.5005 -0.1671  0.3897
 3495DPPE   C2A63798  16.429  14.698  15.883  0.0670  0.0960  0.0837
 3495DPPE   C3A63799  16.493  14.595  15.378 -0.1375 -0.5635 -0.1210
 3495DPPE   C4A63800  16.736  14.501  14.958 -0.0849  0.2472 -0.1620
 3495DPPE   C1B63801  16.398  15.127  16.267 -0.4310  0.1092  0.0194
 3495DPPE   C2B63802  16.481  15.150  15.842 -0.1919 -0.2292  0.0059
 3495DPPE   C3B63803  16.511  15.158  15.468 -0.1754  0.1567 -0.0814
 3495DPPE   C4B63804  16.537  15.083  14.975  0.0995  0.2934 -0.3190
 3496DPPE   NH363805  11.143  14.981  17.403  0.1556  0.3052  0.0374
 3496DPPE   PO463806  11.022  15.412  17.597  0.2722  0.1772  0.2100
 3496DPPE   GL163807  11.019  15.391  17.147  0.1329  0.0150  0.1153
 3496DPPE   GL263808  11.292  15.363  17.002  0.2855 -0.2938  0.4347
 3496DPPE   C1A63809  10.674  15.346  16.842  0.0175 -0.2884  0.0811
 3496DPPE   C2A63810  10.600  15.292  16.459 -0.1350  0.0830 -0.3524
 3496DPPE   C3A63811  10.540  15.339  16.073  0.2273 -0.1513  0.2108
 3496DPPE   C4A63812  10.627  15.241  15.831  0.1355  0.0644  0.3451
 3496DPPE   C1B63813  11.173  15.462  16.528  0.1754  0.0213  0.3633
 3496DPPE   C2B63814  11.069  15.452  16.097  0.1250 -0.1355  0.2184
 3496DPPE   C3B63815  11.027  15.469  15.581  0.1764  0.2009  0.1189
 3496DPPE   C4B63816  10.743  15.318  15.262  0.2595 -0.2391  0.4443
 3497DPPE   NH363817  11.223  22.508  17.342  0.0639 -0.1578 -0.3735
 3497DPPE   PO463818  10.894  22.697  17.355 -0.1574 -0.0611  0.0303
 3497DPPE   GL163819  10.904  22.897  16.956 -0.2985 -0.1798  0.0378
 3497DPPE   GL263820  10.590  23.086  17.046 -0.2251  0.0656 -0.1575
 3497DPPE   C1A63821  10.768  22.855  16.460 -0.1619 -0.4181 -0.2777
 3497DPPE   C2A63822  10.694  22.790  16.065  0.0234  0.3521  0.0707
 3497DPPE   C3A63823  10.692  22.765  15.616 -0.4648  0.0326  0.1347
 3497DPPE   C4A63824  10.641  22.464  15.310  0.0182 -0.0581  0.0088
 3497DPPE   C1B63825  10.607  23.358  16.656  0.1146 -0.0452  0.0787
 3497DPPE   C2B63826  10.703  23.292  16.160 -0.2168 -0.3266  0.0672
 3497DPPE   C3B63827  10.478  23.522  15.780 -0.1357  0.3547 -0.0829
 3497DPPE   C4B63828  10.526  23.768  15.527 -0.1345  0.0513 -0.2223
 3498DPPE   NH363829  10.810  10.027  17.486 -0.1422  0.2174  0.0921
 3498DPPE   PO463830  10.508   9.606  17.451 -0.1313 -0.0983  0.1906
 3498DPPE   GL163831  10.188   9.563  17.081  0.0259 -0.1455  0.2209
 3498DPPE   GL263832   9.919   9.843  17.103  0.0364  0.0259  0.1098
 3498DPPE   C1A63833  10.045   9.713  16.674 -0.1034  0.0932  0.0558
 3498DPPE   C2A63834  10.045   9.613  16.321 -0.1170 -0.0807 -0.2911
 3498DPPE   C3A63835   9.986   9.571  15.837  0.1896  0.1983 -0.1910
 3498DPPE   C4A63836  10.074   9.647  15.329 -0.0752  0.2870 -0.0105
 3498DPPE   C1B63837   9.498   9.828  17.000  0.0768  0.0090  0.0719
 3498DPPE   C2B63838   9.149   9.778  16.706 -0.0356 -0.2029 -0.2596
 3498DPPE   C3B63839   9.062   9.817  16.171  0.1846 -0.0551  0.0949
 3498DPPE   C4B63840   8.935   9.960  15.726 -0.1189 -0.2336 -0.0874
 3499DPPE   NH363841  14.058  14.188  16.995  0.0370  0.1807 -0.3136
 3499DPPE   PO463842  14.322  14.523  16.967 -0.1330 -0.3026  0.2389
 3499DPPE   GL163843  14.361  14.442  16.627  0.4540 -0.4824  0.2786
 3499DPPE   GL263844  14.621  14.232  16.532 -0.0754  0.1027 -0.0761
 3499DPPE   C1A63845  14.261  14.572  16.095  0.1270 -0.0387  0.0284
 3499DPPE   C2A63846  14.176  14.497  15.672 -0.3449 -0.1002  0.2082
 3499DPPE   C3A63847  14.260  14.518  15.206  0.6520 -0.0482 -0.1328
 3499DPPE   C4A63848  14.035  14.386  14.782  0.0433 -0.0247 -0.0743
 3499DPPE   C1B63849  14.657  14.169  16.099 -0.2136  0.1483 -0.1213
 3499DPPE   C2B63850  14.641  14.182  15.700 -0.4136  0.0750 -0.1609
 3499DPPE   C3B63851  14.694  14.197  15.228  0.1980  0.0420 -0.0543
 3499DPPE   C4B63852  14.617  14.373  14.836  0.0508 -0.0482  0.0986
 3500DPPE   NH363853  17.850  13.295  17.457  0.0333 -0.0225  0.3499
 3500DPPE   PO463854  18.037  13.556  17.206 -0.0518  0.0446 -0.4161
 3500DPPE   GL163855  18.019  13.786  16.863  0.1781  0.0398  0.0007
 3500DPPE   GL263856  17.766  13.820  16.713  0.1540  0.2239  0.0800
 3500DPPE   C1A63857  18.166  13.503  16.418  0.2546 -0.0286 -0.0235
 3500DPPE   C2A63858  18.217  13.203  16.112  0.0556  0.2720  0.0145
 3500DPPE   C3A63859  18.120  12.980  15.826 -0.1668 -0.1661  0.1209
 3500DPPE   C4A63860  18.160  12.856  15.465 -0.3345 -0.0228 -0.0618
 3500DPPE   C1B63861  17.715  13.769  16.311 -0.3732 -0.0776 -0.2561
 3500DPPE   C2B63862  17.738  13.798  15.860  0.1721 -0.2492 -0.1948
 3500DPPE   C3B63863  17.803  13.801  15.385 -0.1583 -0.0729  0.0519
 3500DPPE   C4B63864  17.745  13.689  14.958 -0.2270  0.1271 -0.0913
 3501DPPE   NH363865   8.918  19.252  17.870 -0.0733  0.0618  0.2520
 3501DPPE   PO463866   9.133  19.666  17.996 -0.0484 -0.2304 -0.3198
 3501DPPE   GL163867   9.227  19.610  17.575 -0.1068  0.0524 -0.0944
 3501DPPE   GL263868   9.284  19.289  17.522  0.2981  0.3216 -0.2023
 3501DPPE   C1A63869   9.251  19.675  17.160 -0.0857  0.2184  0.0473
 3501DPPE   C2A63870   9.308  19.686  16.842  0.1514  0.2542 -0.3074
 3501DPPE   C3A63871   9.179  19.552  16.403  0.0595 -0.0290 -0.0787
 3501DPPE   C4A63872   9.276  19.619  15.978  0.1651 -0.0641  0.2688
 3501DPPE   C1B63873   9.238  19.190  17.115 -0.2109  0.0269 -0.0879
 3501DPPE   C2B63874   9.239  19.166  16.692  0.3521  0.0945 -0.0397
 3501DPPE   C3B63875   9.246  18.976  16.311 -0.0776  0.0959  0.1317
 3501DPPE   C4B63876   9.183  19.116  15.808  0.1247 -0.3250 -0.0471
 3502DPPE   NH363877  14.671  19.498  17.453 -0.0216 -0.2660  0.1742
 3502DPPE   PO463878  15.108  19.361  17.454 -0.1006  0.3387  0.2552
 3502DPPE   GL163879  15.049  19.383  17.024 -0.2999  0.0809 -0.3025
 3502DPPE   GL263880  15.219  19.688  16.844  0.0922  0.0199 -0.1061
 3502DPPE   C1A63881  14.889  19.480  16.538  0.3062  0.2446 -0.2882
 3502DPPE   C2A63882  14.956  19.488  16.172  0.1881 -0.0439  0.4050
 3502DPPE   C3A63883  15.006  19.466  15.740  0.0960 -0.0631  0.0023
 3502DPPE   C4A63884  14.913  19.526  15.258  0.0649  0.0203  0.1449
 3502DPPE   C1B63885  15.416  19.678  16.423  0.3027  0.0719  0.1120
 3502DPPE   C2B63886  15.470  19.683  15.969 -0.2214 -0.1970  0.0497
 3502DPPE   C3B63887  15.436  19.724  15.496 -0.0181 -0.0931 -0.0773
 3502DPPE   C4B63888  15.392  19.742  15.092  0.0824  0.3315 -0.3681
 3503DPPE   NH363889   7.074  14.603  17.358 -0.0800 -0.0348  0.4480
 3503DPPE   PO463890   6.896  15.011  17.396 -0.1478  0.4857  0.1338
 3503DPPE   GL163891   6.763  15.021  16.937 -0.2516 -0.2516 -0.0618
 3503DPPE   GL263892   6.936  14.631  16.844  0.2757  0.2125  0.0188
 3503DPPE   C1A63893   6.495  14.766  16.629  0.0130 -0.1898  0.1067
 3503DPPE   C2A63894   6.234  14.653  16.365  0.1010  0.0729  0.0484
 3503DPPE   C3A63895   6.118  14.634  15.984  0.1279 -0.3339  0.2181
 3503DPPE   C4A63896   5.912  14.832  15.698 -0.0227  0.2110 -0.1825
 3503DPPE   C1B63897   7.026  14.625  16.441 -0.1067  0.2818  0.2916
 3503DPPE   C2B63898   6.891  14.482  16.011 -0.2093  0.0468 -0.1363
 3503DPPE   C3B63899   6.631  14.434  15.646 -0.2433  0.0492 -0.2047
 3503DPPE   C4B63900   6.331  14.636  15.374  0.1251 -0.0934  0.2601
 3504DPPE   NH363901  15.815  21.503  17.117  0.1558 -0.1760 -0.0859
 3504DPPE   PO463902  15.888  21.902  17.176 -0.0873 -0.0006  0.1034
 3504DPPE   GL163903  15.979  21.821  16.705  0.0092  0.1847 -0.3392
 3504DPPE   GL263904  16.162  22.066  16.505  0.2334  0.0396 -0.1413
 3504DPPE   C1A63905  16.002  21.498  16.311  0.1045  0.0672  0.1969
 3504DPPE   C2A63906  15.969  21.490  15.847 -0.1477  0.0363 -0.0141
 3504DPPE   C3A63907  15.982  21.419  15.418 -0.1609 -0.1610 -0.3440
 3504DPPE   C4A63908  15.822  21.342  14.912 -0.1347  0.0904 -0.1840
 3504DPPE   C1B63909  16.021  22.010  16.138  0.2027 -0.0351 -0.0960
 3504DPPE   C2B63910  16.099  21.955  15.660 -0.1908 -0.1659  0.0773
 3504DPPE   C3B63911  15.982  21.923  15.286 -0.0905 -0.0563 -0.1754
 3504DPPE   C4B63912  16.253  21.710  14.997 -0.0631 -0.0601  0.0108
 3505DPPE   NH363913  11.395  15.646  17.385  0.1983  0.1948  0.0409
 3505DPPE   PO463914  11.811  15.924  17.232  0.0504 -0.0196 -0.0327
 3505DPPE   GL163915  11.594  15.960  16.851  0.2927  0.2771  0.3979
 3505DPPE   GL263916  11.585  15.686  16.744 -0.0372  0.2611  0.1499
 3505DPPE   C1A63917  11.532  16.263  16.573 -0.0354 -0.1786  0.0078
 3505DPPE   C2A63918  11.610  16.239  16.138  0.2867  0.0230  0.0036
 3505DPPE   C3A63919  11.558  16.063  15.752 -0.1730 -0.0902  0.0207
 3505DPPE   C4A63920  11.508  16.101  15.282 -0.0620  0.0545 -0.1110
 3505DPPE   C1B63921  11.557  15.726  16.270 -0.0190 -0.2307  0.0218
 3505DPPE   C2B63922  11.524  15.579  15.797  0.3341  0.0549 -0.4652
 3505DPPE   C3B63923  11.462  15.637  15.347 -0.0365 -0.1374 -0.0671
 3505DPPE   C4B63924  11.308  15.538  15.022  0.0685 -0.1368  0.1330
 3506DPPE   NH363925  10.311  10.033  18.259  0.1378 -0.0823 -0.0451
 3506DPPE   PO463926  10.280   9.688  17.979  0.1462 -0.2305 -0.0652
 3506DPPE   GL163927  10.328   9.360  18.041 -0.0418  0.1465  0.0245
 3506DPPE   GL263928  10.239   9.248  17.754  0.1362 -0.0851  0.0318
 3506DPPE   C1A63929  10.571   8.938  18.055 -0.0440  0.0027  0.0217
 3506DPPE   C2A63930  10.886   8.746  17.895 -0.0932  0.0527  0.3150
 3506DPPE   C3A63931  10.851   8.299  17.756 -0.2548 -0.3422  0.2004
 3506DPPE   C4A63932  10.495   8.421  17.620 -0.0934 -0.2388  0.2781
 3506DPPE   C1B63933  10.124   8.774  17.949 -0.0521 -0.6048  0.3235
 3506DPPE   C2B63934   9.947   8.333  17.884  0.0380  0.3885  0.1326
 3506DPPE   C3B63935   9.491   8.054  17.926  0.2325 -0.0091 -0.0592
 3506DPPE   C4B63936   9.142   7.708  17.703 -0.0117  0.0693 -0.1316
 3507DPPE   NH363937  13.600  17.135  16.950  0.0580 -0.0047 -0.1143
 3507DPPE   PO463938  13.643  16.875  16.625  0.3526  0.0026  0.0127
 3507DPPE   GL163939  13.797  16.703  16.286  0.2435  0.2501 -0.2654
 3507DPPE   GL263940  13.910  16.431  16.273  0.0420 -0.5049 -0.0329
 3507DPPE   C1A63941  13.881  16.836  15.796  0.0809 -0.2187 -0.2136
 3507DPPE   C2A63942  13.783  16.925  15.306  0.1020 -0.1063  0.2805
 3507DPPE   C3A63943  13.784  16.932  14.805  0.0733 -0.3651  0.0649
 3507DPPE   C4A63944  14.074  16.893  14.426 -0.1520  0.1929 -0.2069
 3507DPPE   C1B63945  13.867  16.358  15.847 -0.4468 -0.1910  0.0125
 3507DPPE   C2B63946  13.820  16.312  15.463 -0.0534 -0.2421 -0.0134
 3507DPPE   C3B63947  13.786  16.354  15.011 -0.0668  0.2988 -0.0445
 3507DPPE   C4B63948  13.885  16.459  14.592  0.1250  0.0294  0.0289
 3508DPPE   NH363949   6.782  16.008  17.427  0.1077  0.1004 -0.1418
 3508DPPE   PO463950   6.462  15.950  17.167  0.1937 -0.1957 -0.2092
 3508DPPE   GL163951   6.729  15.858  16.926  0.1216 -0.1330 -0.0891
 3508DPPE   GL263952   6.648  15.987  16.581  0.0440  0.2632 -0.1139
 3508DPPE   C1A63953   7.015  15.629  16.585  0.0140 -0.1026 -0.2392
 3508DPPE   C2A63954   6.995  15.565  16.215 -0.4035  0.2268 -0.0322
 3508DPPE   C3A63955   7.059  15.227  15.956 -0.0400  0.0487 -0.0133
 3508DPPE   C4A63956   7.108  14.881  15.715  0.0757 -0.1301  0.0790
 3508DPPE   C1B63957   6.598  15.896  16.084 -0.1215 -0.0214 -0.1928
 3508DPPE   C2B63958   6.821  15.818  15.792  0.1357 -0.2737 -0.0016
 3508DPPE   C3B63959   7.069  16.004  15.440  0.1142  0.1220  0.0501
 3508DPPE   C4B63960   7.489  15.845  15.185  0.0589  0.1121 -0.1280
 3509DPPE   NH363961  13.134  17.910  17.276  0.2424  0.0192  0.2601
 3509DPPE   PO463962  13.167  18.057  16.928  0.1635  0.0013  0.2815
 3509DPPE   GL163963  13.290  18.029  16.555 -0.1939  0.1805 -0.3456
 3509DPPE   GL263964  13.094  17.819  16.457  0.1691 -0.0932  0.2194
 3509DPPE   C1A63965  13.475  18.183  16.282 -0.0264 -0.0851 -0.1974
 3509DPPE   C2A63966  13.484  18.309  15.874 -0.2354  0.1058 -0.1002
 3509DPPE   C3A63967  13.452  18.255  15.402  0.0386 -0.2896  0.2361
 3509DPPE   C4A63968  13.522  18.237  15.022 -0.2059 -0.2578  0.4414
 3509DPPE   C1B63969  13.011  17.959  16.105 -0.0020  0.1143 -0.0214
 3509DPPE   C2B63970  13.079  18.016  15.649  0.0869 -0.0879 -0.1246
 3509DPPE   C3B63971  13.141  17.878  15.239  0.2359 -0.0666 -0.4682
 3509DPPE   C4B63972  13.078  17.997  14.859  0.2054 -0.0182  0.0362
 3510DPPE   NH363973   8.096  12.698  17.674 -0.0695  0.0658  0.0695
 3510DPPE   PO463974   7.866  12.730  17.386  0.0494 -0.3469  0.0141
 3510DPPE   GL163975   8.006  12.835  16.971  0.2424  0.0046 -0.1685
 3510DPPE   GL263976   7.727  12.968  16.804 -0.0870 -0.0542 -0.0165
 3510DPPE   C1A63977   8.153  12.676  16.632  0.2267  0.1654  0.4322
 3510DPPE   C2A63978   8.024  12.597  16.321  0.1869  0.0850 -0.0364
 3510DPPE   C3A63979   7.881  12.812  16.005  0.2598  0.1805 -0.0201
 3510DPPE   C4A63980   7.913  12.916  15.532 -0.1210 -0.1260  0.0891
 3510DPPE   C1B63981   7.799  13.019  16.424 -0.2496 -0.1581 -0.0800
 3510DPPE   C2B63982   7.526  13.127  16.086  0.0604  0.3347  0.2768
 3510DPPE   C3B63983   7.719  13.377  15.784  0.1323  0.0717 -0.1073
 3510DPPE   C4B63984   7.761  13.319  15.277  0.1265 -0.1693 -0.3466
 3511DPPE   NH363985   9.471  21.627  18.243  0.0248  0.1824 -0.1858
 3511DPPE   PO463986   9.012  21.565  18.045 -0.0635  0.2176  0.3407
 3511DPPE   GL163987   8.950  21.854  17.643  0.0818  0.0579 -0.1869
 3511DPPE   GL263988   8.814  22.233  17.629  0.1928 -0.0142  0.1556
 3511DPPE   C1A63989   9.104  22.028  17.173  0.1556 -0.0687 -0.1612
 3511DPPE   C2A63990   9.026  22.004  16.762 -0.2475 -0.0045  0.0862
 3511DPPE   C3A63991   8.916  21.985  16.227  0.0620  0.2322  0.1312
 3511DPPE   C4A63992   8.620  22.007  15.884  0.4076 -0.1237  0.1619
 3511DPPE   C1B63993   8.665  22.207  17.222  0.0949  0.0920 -0.0820
 3511DPPE   C2B63994   8.278  22.294  16.969 -0.0711 -0.4865 -0.3682
 3511DPPE   C3B63995   8.049  22.383  16.489 -0.3300 -0.0453 -0.1612
 3511DPPE   C4B63996   8.287  22.442  16.146  0.0666  0.0598 -0.3507
 3512DPPE   NH363997  13.437  15.149  17.277 -0.0987 -0.1168 -0.0961
 3512DPPE   PO463998  13.784  14.728  17.213 -0.1941  0.3342 -0.1435
 3512DPPE   GL163999  13.871  14.673  16.773 -0.0692 -0.0415  0.0273
 3512DPPE   GL264000  14.080  14.865  16.601 -0.2317 -0.0705 -0.1261
 3512DPPE   C1A64001  13.924  14.346  16.413 -0.1448 -0.0194  0.0772
 3512DPPE   C2A64002  13.708  14.321  15.982 -0.1030 -0.1148  0.0833
 3512DPPE   C3A64003  13.709  14.347  15.553 -0.0332  0.1685  0.1720
 3512DPPE   C4A64004  13.796  14.234  15.160  0.1755 -0.1021  0.0683
 3512DPPE   C1B64005  13.870  14.904  16.167 -0.1222 -0.0020  0.1991
 3512DPPE   C2B64006  13.819  14.867  15.805  0.1475  0.3316 -0.0483
 3512DPPE   C3B64007  13.786  14.804  15.306 -0.4143  0.1495  0.0242
 3512DPPE   C4B64008  13.683  14.686  14.950  0.1040 -0.1219  0.3232
 3513DPPE   NH364009  10.510  22.889  17.550 -0.1604  0.1643  0.4636
 3513DPPE   PO464010  10.379  23.296  17.511  0.2246 -0.0146 -0.2855
 3513DPPE   GL164011  10.310  23.473  17.071  0.2387  0.0188 -0.2886
 3513DPPE   GL264012  10.224  23.695  17.014  0.0311  0.2212 -0.1800
 3513DPPE   C1A64013  10.043  23.500  16.607 -0.1520  0.0550 -0.1065
 3513DPPE   C2A64014  10.308  23.587  16.225 -0.1230 -0.1774 -0.0495
 3513DPPE   C3A64015  10.078  23.989  15.911  0.0040  0.1098  0.3222
 3513DPPE   C4A64016  10.050  24.079  15.472 -0.3495  0.0819 -0.2466
 3513DPPE   C1B64017  10.384  23.875  16.654 -0.2688  0.0722 -0.3010
 3513DPPE   C2B64018  10.372  24.210  16.337 -0.1545 -0.1137  0.0243
 3513DPPE   C3B64019  10.267  24.447  15.886  0.0050  0.1517  0.3061
 3513DPPE   C4B64020  10.202  24.772  15.626 -0.2524 -0.5152  0.1567
 3514DPPE   NH364021  19.178  13.772  17.289  0.2991  0.3611  0.1884
 3514DPPE   PO464022  18.994  13.492  17.430 -0.2096  0.0521  0.2100
 3514DPPE   GL164023  18.875  13.432  16.971  0.1055  0.0721 -0.0258
 3514DPPE   GL264024  18.527  13.305  16.801  0.0130  0.1706 -0.0443
 3514DPPE   C1A64025  19.013  13.488  16.488 -0.0176  0.1464  0.1110
 3514DPPE   C2A64026  19.177  13.582  16.194  0.3290  0.1348 -0.2312
 3514DPPE   C3A64027  19.194  13.715  15.818  0.2620  0.3686 -0.0681
 3514DPPE   C4A64028  19.262  13.884  15.377 -0.1779  0.2535 -0.1163
 3514DPPE   C1B64029  18.611  13.120  16.386  0.4727  0.0556  0.2851
 3514DPPE   C2B64030  18.675  13.318  15.917  0.4104  0.1165  0.1518
 3514DPPE   C3B64031  18.521  13.159  15.541 -0.2077 -0.0823 -0.0796
 3514DPPE   C4B64032  18.658  12.796  15.227 -0.2092 -0.0074  0.1163
 3515DPPE   NH364033  11.862  17.092  17.380  0.3552  0.5779  0.0499
 3515DPPE   PO464034  12.149  16.950  17.123 -0.0247 -0.0725  0.2297
 3515DPPE   GL164035  11.978  17.104  16.757 -0.1556 -0.0825 -0.0827
 3515DPPE   GL264036  12.047  17.441  16.664 -0.0723  0.1415  0.0062
 3515DPPE   C1A64037  12.023  17.013  16.294 -0.5932  0.0150  0.0902
 3515DPPE   C2A64038  12.133  16.974  15.915 -0.0833 -0.0128  0.0113
 3515DPPE   C3A64039  12.081  16.808  15.532 -0.2206 -0.2245  0.2165
 3515DPPE   C4A64040  11.758  16.921  15.226  0.1051  0.2502  0.3363
 3515DPPE   C1B64041  12.084  17.571  16.154  0.1977  0.0853  0.4477
 3515DPPE   C2B64042  12.099  17.446  15.695 -0.1486 -0.2906  0.1900
 3515DPPE   C3B64043  12.058  17.319  15.289 -0.3982 -0.1183 -0.1407
 3515DPPE   C4B64044  12.133  16.969  14.929  0.2105  0.1761  0.0739
 3516DPPE   NH364045  14.790  17.391  17.354  0.1027  0.0652  0.0590
 3516DPPE   PO464046  14.896  17.049  17.075 -0.3715  0.0553 -0.1080
 3516DPPE   GL164047  15.009  17.094  16.652 -0.4939  0.1890  0.1757
 3516DPPE   GL264048  14.867  17.289  16.379  0.0326  0.0242  0.1037
 3516DPPE   C1A64049  14.789  16.772  16.319  0.0094  0.1393  0.0551
 3516DPPE   C2A64050  14.769  16.752  15.870  0.2829 -0.0285 -0.1065
 3516DPPE   C3A64051  14.722  16.767  15.498 -0.3286  0.0095 -0.1415
 3516DPPE   C4A64052  14.711  16.944  15.143  0.3774 -0.3489  0.2780
 3516DPPE   C1B64053  14.822  17.288  15.862  0.3554  0.4271 -0.1053
 3516DPPE   C2B64054  14.732  17.342  15.444  0.0500 -0.0481  0.0330
 3516DPPE   C3B64055  14.770  17.492  14.967  0.1265  0.2188 -0.2916
 3516DPPE   C4B64056  14.509  17.585  14.561  0.3589 -0.0984 -0.1738
 3517DPPE   NH364057  17.418  19.897  16.958  0.0885  0.0237 -0.0709
 3517DPPE   PO464058  17.159  20.201  17.204 -0.3242  0.1091 -0.0283
 3517DPPE   GL164059  17.040  20.250  16.739  0.1681 -0.4563  0.1888
 3517DPPE   GL264060  17.183  19.992  16.513 -0.1382 -0.2309 -0.1668
 3517DPPE   C1A64061  16.787  20.431  16.410 -0.0731  0.1077 -0.0416
 3517DPPE   C2A64062  16.746  20.447  15.991 -0.3281  0.1532  0.1285
 3517DPPE   C3A64063  16.787  20.501  15.529 -0.2035  0.1416  0.0887
 3517DPPE   C4A64064  16.850  20.335  15.074  0.0120 -0.1674 -0.0066
 3517DPPE   C1B64065  17.159  19.985  16.042  0.0168 -0.5403 -0.1685
 3517DPPE   C2B64066  17.158  20.074  15.546 -0.1639 -0.2956  0.0012
 3517DPPE   C3B64067  17.291  20.091  15.082  0.5450  0.1887 -0.0040
 3517DPPE   C4B64068  17.222  20.077  14.643  0.1048  0.0732 -0.1935
 3518DPPE   NH364069  15.936  14.762  16.913  0.1562 -0.0713  0.1913
 3518DPPE   PO464070  15.785  14.393  17.223  0.3440 -0.1657  0.0385
 3518DPPE   GL164071  15.783  14.309  16.716 -0.1486  0.2451 -0.3443
 3518DPPE   GL264072  15.881  13.963  16.668 -0.0385  0.4003  0.0416
 3518DPPE   C1A64073  15.961  14.388  16.316  0.0306  0.1956 -0.0453
 3518DPPE   C2A64074  15.944  14.412  15.890 -0.0953 -0.0353  0.0519
 3518DPPE   C3A64075  16.095  14.436  15.544  0.0999  0.3085 -0.1992
 3518DPPE   C4A64076  16.056  14.370  15.142  0.3385  0.0543 -0.0252
 3518DPPE   C1B64077  15.890  13.853  16.217  0.0850  0.1572  0.0919
 3518DPPE   C2B64078  15.965  13.846  15.726 -0.3045  0.3943  0.0238
 3518DPPE   C3B64079  15.909  13.801  15.313  0.1304  0.1685 -0.3026
 3518DPPE   C4B64080  15.954  13.920  14.916 -0.0371  0.3403 -0.1645
 3519DPPE   NH364081  17.241  22.020  17.289 -0.1352  0.1555  0.0842
 3519DPPE   PO464082  17.509  22.268  17.051 -0.1813  0.4008 -0.2369
 3519DPPE   GL164083  17.889  22.298  16.710 -0.3299 -0.1147 -0.0878
 3519DPPE   GL264084  18.204  22.310  16.610 -0.2335  0.1454 -0.0906
 3519DPPE   C1A64085  17.912  22.100  16.261  0.1688  0.1259 -0.4770
 3519DPPE   C2A64086  17.930  21.849  15.881 -0.0354 -0.0298  0.2784
 3519DPPE   C3A64087  18.115  21.675  15.561  0.1018 -0.1871  0.0590
 3519DPPE   C4A64088  18.330  21.484  15.165 -0.3014  0.0309 -0.0287
 3519DPPE   C1B64089  17.983  22.616  16.333  0.0384  0.2044  0.0221
 3519DPPE   C2B64090  18.122  22.766  15.899 -0.0394 -0.0466 -0.1862
 3519DPPE   C3B64091  17.982  22.898  15.543  0.1145 -0.0781 -0.2637
 3519DPPE   C4B64092  17.935  22.907  15.102  0.0365  0.2288 -0.2761
 3520DPPE   NH364093  15.594  24.248  16.756  0.0678 -0.2800  0.0641
 3520DPPE   PO464094  16.047  24.424  16.603 -0.4400  0.1850  0.1504
 3520DPPE   GL164095  15.784  24.323  16.295 -0.2941  0.0053  0.2617
 3520DPPE   GL264096  15.926  24.642  16.167 -0.0491 -0.2392 -0.1243
 3520DPPE   C1A64097  15.561  24.258  15.953  0.2158  0.1990 -0.3475
 3520DPPE   C2A64098  15.519  24.362  15.503  0.0580 -0.0075  0.1168
 3520DPPE   C3A64099  15.547  24.668  15.139  0.2988 -0.1057  0.0114
 3520DPPE   C4A64100  15.823  24.885  14.746  0.0021 -0.0147 -0.0022
 3520DPPE   C1B64101  15.941  24.536  15.873 -0.1738  0.0621 -0.0123
 3520DPPE   C2B64102  15.999  24.603  15.397 -0.1182 -0.0078  0.4647
 3520DPPE   C3B64103  16.064  24.901  15.220  0.0736  0.3075  0.0497
 3520DPPE   C4B64104  16.287  25.096  14.905 -0.1592 -0.0701  0.0252
 3521DPPE   NH364105  17.554  13.601  17.120  0.4383 -0.0088  0.1464
 3521DPPE   PO464106  17.391  13.904  17.313  0.0299 -0.0443 -0.0495
 3521DPPE   GL164107  17.205  14.108  16.945  0.0137  0.0051  0.0924
 3521DPPE   GL264108  17.046  13.837  16.954  0.2208 -0.4117 -0.0409
 3521DPPE   C1A64109  17.297  14.115  16.506 -0.1470  0.2910 -0.2622
 3521DPPE   C2A64110  17.240  14.054  16.003 -0.0343 -0.1376 -0.0500
 3521DPPE   C3A64111  17.275  14.044  15.602 -0.0657  0.2590 -0.1448
 3521DPPE   C4A64112  17.382  13.982  15.173 -0.1188 -0.0728 -0.2349
 3521DPPE   C1B64113  16.856  13.893  16.590 -0.4481 -0.0259 -0.1399
 3521DPPE   C2B64114  16.753  13.840  16.170  0.2827  0.1466  0.3922
 3521DPPE   C3B64115  16.863  13.788  15.732 -0.0071  0.0638  0.2163
 3521DPPE   C4B64116  16.892  13.726  15.366 -0.2540  0.1811  0.2262
 3522DPPE   NH364117   7.646  21.969  17.910 -0.0338  0.1773  0.0718
 3522DPPE   PO464118   7.299  21.714  18.155 -0.3016 -0.0246 -0.1360
 3522DPPE   GL164119   7.146  21.984  17.940 -0.2605  0.1983  0.2965
 3522DPPE   GL264120   6.898  22.146  18.138  0.1326 -0.3786  0.3298
 3522DPPE   C1A64121   6.711  22.196  17.666 -0.0876 -0.2447 -0.0685
 3522DPPE   C2A64122   6.335  22.404  17.705  0.3241  0.0051  0.1019
 3522DPPE   C3A64123   6.130  22.774  17.772  0.2775 -0.0835 -0.0758
 3522DPPE   C4A64124   5.834  23.019  17.684 -0.0985 -0.1929 -0.2450
 3522DPPE   C1B64125   6.492  22.118  18.198 -0.0247 -0.0559 -0.2635
 3522DPPE   C2B64126   6.136  22.417  18.143 -0.0032 -0.2973  0.0349
 3522DPPE   C3B64127   5.733  22.426  18.231 -0.2769 -0.1549 -0.1547
 3522DPPE   C4B64128   5.588  22.594  18.604 -0.1765  0.0001  0.1630
 3523DPPE   NH364129  15.724  11.923  17.097  0.3743  0.0249  0.2145
 3523DPPE   PO464130  16.137  11.992  17.070  0.3844  0.0517 -0.1923
 3523DPPE   GL164131  15.947  11.925  16.674 -0.3792 -0.0709  0.4057
 3523DPPE   GL264132  15.943  11.689  16.687 -0.1278  0.3271 -0.2093
 3523DPPE   C1A64133  15.826  11.891  16.231  0.4267 -0.1053  0.0734
 3523DPPE   C2A64134  15.975  11.732  15.770  0.1391  0.1050  0.1801
 3523DPPE   C3A64135  16.199  11.565  15.449  0.1560 -0.1446 -0.2410
 3523DPPE   C4A64136  16.584  11.321  15.259 -0.0246 -0.2031  0.4016
 3523DPPE   C1B64137  15.850  11.388  16.280  0.1483 -0.2345  0.0521
 3523DPPE   C2B64138  15.927  11.133  15.975 -0.0186  0.1387  0.1679
 3523DPPE   C3B64139  15.979  11.094  15.497 -0.0465 -0.1491  0.0068
 3523DPPE   C4B64140  16.158  11.095  15.100  0.0961  0.1472 -0.0902
 3524DPPE   NH364141  17.718  21.816  16.863 -0.0632 -0.0139 -0.0027
 3524DPPE   PO464142  17.695  21.376  16.893  0.1837  0.2545 -0.0307
 3524DPPE   GL164143  17.741  21.426  16.515  0.0896  0.1350  0.0962
 3524DPPE   GL264144  17.744  21.671  16.382 -0.1710 -0.0626  0.2770
 3524DPPE   C1A64145  17.831  21.271  16.036  0.3515 -0.0068  0.0696
 3524DPPE   C2A64146  17.940  21.193  15.633  0.1700 -0.0650 -0.1085
 3524DPPE   C3A64147  17.849  21.364  15.227 -0.1931 -0.5046  0.0635
 3524DPPE   C4A64148  17.908  21.656  14.882 -0.0114 -0.2308 -0.3835
 3524DPPE   C1B64149  17.412  21.679  16.024  0.0023  0.3743 -0.2138
 3524DPPE   C2B64150  17.461  21.476  15.572  0.0740 -0.1992 -0.0757
 3524DPPE   C3B64151  17.381  21.602  15.103  0.5055 -0.0757 -0.0418
 3524DPPE   C4B64152  17.537  21.300  14.777  0.2467 -0.1558 -0.2223
 3525DPPE   NH364153  16.082  10.791  17.602 -0.2245 -0.2513  0.2949
 3525DPPE   PO464154  16.324  11.033  17.206  0.5288 -0.3770  0.1354
 3525DPPE   GL164155  16.578  11.073  16.887  0.2834  0.1593  0.0077
 3525DPPE   GL264156  16.510  11.265  16.691 -0.0873 -0.1235 -0.0747
 3525DPPE   C1A64157  16.611  10.791  16.514 -0.3673  0.0961  0.0841
 3525DPPE   C2A64158  16.813  10.859  16.013 -0.0119  0.0456 -0.2094
 3525DPPE   C3A64159  16.959  10.677  15.644  0.0722 -0.2904  0.3079
 3525DPPE   C4A64160  17.198  10.927  15.417 -0.1618 -0.0154 -0.1252
 3525DPPE   C1B64161  16.848  11.197  16.357 -0.2289  0.0146 -0.1397
 3525DPPE   C2B64162  17.108  11.261  15.995 -0.2293 -0.2886  0.3108
 3525DPPE   C3B64163  17.353  10.956  15.902 -0.0340 -0.0497  0.1192
 3525DPPE   C4B64164  17.588  10.601  15.920 -0.2013 -0.1772  0.1495
 3526DPPE   NH364165  17.965  21.580  17.249  0.2665  0.4277  0.4288
 3526DPPE   PO464166  18.420  21.681  17.287 -0.0763  0.0754  0.1812
 3526DPPE   GL164167  18.835  21.858  17.119  0.1696  0.4576 -0.1290
 3526DPPE   GL264168  18.685  22.148  16.950  0.1025  0.0694 -0.1966
 3526DPPE   C1A64169  19.202  21.537  16.956 -0.2135  0.2654 -0.1920
 3526DPPE   C2A64170  19.330  21.422  16.547 -0.0128  0.1821  0.0609
 3526DPPE   C3A64171  19.687  21.277  16.272  0.2221  0.3911  0.2973
 3526DPPE   C4A64172  19.899  21.016  15.898  0.0779  0.1441 -0.0872
 3526DPPE   C1B64173  18.704  22.118  16.510  0.1729  0.1834 -0.1658
 3526DPPE   C2B64174  19.015  21.972  16.239 -0.1118  0.0709  0.1265
 3526DPPE   C3B64175  19.307  21.711  16.023 -0.0585  0.2272 -0.2394
 3526DPPE   C4B64176  19.795  21.732  16.020 -0.1075  0.0002 -0.2277
 3527DPPE   NH364177  10.511  20.515  17.824 -0.3010  0.1847 -0.0416
 3527DPPE   PO464178  10.923  20.690  17.687 -0.0663 -0.0933  0.0361
 3527DPPE   GL164179  10.980  20.758  17.339 -0.2039  0.2886  0.2638
 3527DPPE   GL264180  11.326  20.928  17.174 -0.0234  0.1339  0.0609
 3527DPPE   C1A64181  10.790  20.837  16.966  0.2542 -0.0324 -0.4586
 3527DPPE   C2A64182  10.668  20.737  16.561 -0.2657  0.1030 -0.2314
 3527DPPE   C3A64183  10.661  20.732  16.040 -0.2097 -0.0527 -0.0287
 3527DPPE   C4A64184  10.661  20.669  15.623  0.0069  0.1544  0.2128
 3527DPPE   C1B64185  11.248  20.932  16.709 -0.0992 -0.0316 -0.3068
 3527DPPE   C2B64186  11.158  20.939  16.286  0.2723 -0.0888 -0.3267
 3527DPPE   C3B64187  11.103  20.960  15.826 -0.0377  0.1459 -0.1903
 3527DPPE   C4B64188  11.075  20.962  15.362  0.0869 -0.1835 -0.1826
 3528DPPE   NH364189  14.181  19.676  17.177 -0.1944 -0.0422 -0.0146
 3528DPPE   PO464190  13.890  19.828  17.380  0.1791 -0.1275  0.0493
 3528DPPE   GL164191  13.803  19.916  16.909 -0.0147  0.0721  0.1514
 3528DPPE   GL264192  13.722  20.296  16.767 -0.0849 -0.0248  0.2164
 3528DPPE   C1A64193  13.754  19.843  16.467 -0.0652  0.1764  0.4382
 3528DPPE   C2A64194  13.638  19.749  16.022 -0.2411  0.1937 -0.0443
 3528DPPE   C3A64195  13.583  19.753  15.522 -0.0964 -0.0726 -0.4074
 3528DPPE   C4A64196  13.557  19.708  15.040 -0.4931  0.1418 -0.1089
 3528DPPE   C1B64197  13.762  20.346  16.236 -0.4683  0.2828  0.0237
 3528DPPE   C2B64198  13.728  20.265  15.822 -0.0651  0.0048 -0.1473
 3528DPPE   C3B64199  13.576  20.244  15.313 -0.0851  0.0091 -0.0838
 3528DPPE   C4B64200  13.557  20.389  14.892  0.2478 -0.3317 -0.4817
 3529DPPE   NH364201  10.746  23.686  17.242 -0.2530 -0.2632 -0.1948
 3529DPPE   PO464202  10.916  24.086  17.361  0.0988  0.1374  0.0156
 3529DPPE   GL164203  10.895  24.104  16.929  0.0560  0.0594 -0.0110
 3529DPPE   GL264204  10.912  23.800  16.782  0.1101  0.0699  0.2658
 3529DPPE   C1A64205  10.968  24.256  16.479  0.0368  0.1054 -0.0296
 3529DPPE   C2A64206  10.915  24.378  16.122  0.1997 -0.0789 -0.0883
 3529DPPE   C3A64207  10.963  24.597  15.772  0.3495  0.0925 -0.5655
 3529DPPE   C4A64208  10.743  24.653  15.322 -0.0233 -0.1191 -0.0889
 3529DPPE   C1B64209  10.776  23.791  16.375 -0.0379  0.0141  0.1335
 3529DPPE   C2B64210  10.647  23.970  15.970 -0.0204  0.2898 -0.2120
 3529DPPE   C3B64211  10.592  24.238  15.557  0.0496 -0.2207 -0.0484
 3529DPPE   C4B64212  10.625  24.237  15.107 -0.0223  0.2572 -0.1691
 3530DPPE   NH364213  15.202  19.849  17.334  0.1987  0.1701  0.4599
 3530DPPE   PO464214  14.703  19.882  17.191  0.0273 -0.1742  0.1376
 3530DPPE   GL164215  14.643  19.954  16.817 -0.0502 -0.0328  0.0112
 3530DPPE   GL264216  14.680  20.210  16.563  0.2738 -0.2006  0.3184
 3530DPPE   C1A64217  14.544  19.759  16.373  0.2685  0.2015 -0.2505
 3530DPPE   C2A64218  14.563  19.739  15.976  0.1374  0.3136  0.0076
 3530DPPE   C3A64219  14.538  19.837  15.584 -0.2907  0.3507  0.2689
 3530DPPE   C4A64220  14.460  19.725  15.143  0.2138 -0.0979  0.0367
 3530DPPE   C1B64221  14.667  20.228  16.002  0.3452  0.0362  0.0220
 3530DPPE   C2B64222  14.565  20.330  15.606 -0.0720 -0.1108 -0.1093
 3530DPPE   C3B64223  14.429  20.200  15.089 -0.0605  0.1962  0.0733
 3530DPPE   C4B64224  14.524  19.992  14.716  0.1598 -0.0970 -0.3363
 3531DPPE   NH364225  13.013  13.548  17.440 -0.1308 -0.0034 -0.0305
 3531DPPE   PO464226  12.638  13.309  17.247 -0.2554  0.3063  0.1382
 3531DPPE   GL164227  12.623  13.313  16.717  0.1544 -0.2722  0.0279
 3531DPPE   GL264228  12.371  13.543  16.686  0.0642 -0.0770 -0.2475
 3531DPPE   C1A64229  12.733  13.267  16.263  0.0355 -0.2649  0.1679
 3531DPPE   C2A64230  12.749  13.388  15.779  0.2162  0.2627 -0.1087
 3531DPPE   C3A64231  12.809  13.386  15.334  0.7225  0.4813  0.0862
 3531DPPE   C4A64232  12.996  13.399  14.848  0.0945 -0.2317 -0.0974
 3531DPPE   C1B64233  12.380  13.592  16.277 -0.0208  0.3518  0.1266
 3531DPPE   C2B64234  12.300  13.626  15.839 -0.2214 -0.1486 -0.4519
 3531DPPE   C3B64235  12.325  13.660  15.498 -0.0699  0.0020 -0.0304
 3531DPPE   C4B64236  12.248  13.630  15.051  0.1252  0.1188 -0.1334
 3532DPPE   NH364237  18.237  18.177  16.492 -0.0339  0.1232 -0.0774
 3532DPPE   PO464238  18.693  17.898  16.603  0.1411 -0.1633  0.1027
 3532DPPE   GL164239  18.915  18.055  16.253 -0.0872  0.0991  0.0362
 3532DPPE   GL264240  18.976  18.411  16.254  0.0728  0.1507 -0.2184
 3532DPPE   C1A64241  19.120  18.196  15.873 -0.2299  0.1903  0.3953
 3532DPPE   C2A64242  19.048  18.333  15.484  0.0897  0.1021 -0.0207
 3532DPPE   C3A64243  18.996  18.486  15.077  0.1274  0.1180 -0.0039
 3532DPPE   C4A64244  19.227  18.368  14.748 -0.5318  0.1175 -0.1120
 3532DPPE   C1B64245  18.663  18.370  15.856  0.2082  0.0243 -0.0513
 3532DPPE   C2B64246  18.513  18.490  15.434 -0.3009  0.1607  0.0659
 3532DPPE   C3B64247  18.392  18.305  15.032  0.0499 -0.0359  0.2796
 3532DPPE   C4B64248  18.451  17.934  14.885 -0.0007  0.2963  0.2891
 3533DPPE   NH364249  10.233  15.038  17.527  0.0382  0.1527 -0.3451
 3533DPPE   PO464250  10.663  14.960  17.448  0.2312  0.2058  0.2956
 3533DPPE   GL164251  10.772  14.851  17.022 -0.1065 -0.0842  0.1486
 3533DPPE   GL264252  11.087  14.923  16.825  0.0508  0.0097 -0.0607
 3533DPPE   C1A64253  10.685  14.812  16.599  0.0733  0.2829 -0.1836
 3533DPPE   C2A64254  10.636  14.846  16.157 -0.0496  0.1122 -0.1380
 3533DPPE   C3A64255  10.515  14.715  15.688 -0.0263  0.0917  0.0135
 3533DPPE   C4A64256  10.547  14.675  15.213  0.0703  0.1141 -0.1419
 3533DPPE   C1B64257  11.094  15.030  16.334  0.1696 -0.0295 -0.1671
 3533DPPE   C2B64258  11.061  14.962  15.920 -0.2653  0.0177  0.0958
 3533DPPE   C3B64259  10.955  14.858  15.480 -0.0567 -0.1619  0.0486
 3533DPPE   C4B64260  11.043  14.889  15.061  0.3413  0.1694  0.0320
 3534DPPE   NH364261  14.785  23.856  17.018  0.1372 -0.2017 -0.1089
 3534DPPE   PO464262  15.074  24.036  16.830  0.0552  0.0473  0.0528
 3534DPPE   GL164263  15.107  24.281  16.547 -0.0001 -0.1364  0.1420
 3534DPPE   GL264264  15.328  24.485  16.407  0.0706 -0.0933 -0.2300
 3534DPPE   C1A64265  14.837  24.470  16.315 -0.0254 -0.2568 -0.0294
 3534DPPE   C2A64266  14.719  24.744  15.881  0.0665 -0.2164  0.0156
 3534DPPE   C3A64267  14.321  25.001  15.602  0.3769 -0.0998 -0.2295
 3534DPPE   C4A64268  14.091  25.117  15.324 -0.1798  0.3085 -0.1047
 3534DPPE   C1B64269  15.199  24.659  16.066  0.0547  0.1297 -0.1134
 3534DPPE   C2B64270  15.414  24.784  15.736  0.0677 -0.5224  0.3604
 3534DPPE   C3B64271  15.487  25.109  15.421  0.1122 -0.2706  0.1336
 3534DPPE   C4B64272  15.503  25.162  14.985 -0.2307  0.4275  0.0320
 3535DPPE   NH364273  15.095  20.905  17.397 -0.1831  0.3339 -0.3381
 3535DPPE   PO464274  14.675  20.880  17.408  0.0239 -0.1828  0.2669
 3535DPPE   GL164275  14.589  20.801  16.920  0.0225  0.0895  0.0448
 3535DPPE   GL264276  14.716  21.169  16.799  0.2692 -0.1470  0.2508
 3535DPPE   C1A64277  14.666  20.788  16.509  0.3858  0.0734 -0.1792
 3535DPPE   C2A64278  14.595  20.759  16.080  0.0214  0.1513  0.1301
 3535DPPE   C3A64279  14.613  20.830  15.704 -0.0323 -0.0364 -0.2064
 3535DPPE   C4A64280  14.526  20.702  15.187  0.2554  0.0060  0.0880
 3535DPPE   C1B64281  14.753  21.241  16.397 -0.1849 -0.2191  0.2481
 3535DPPE   C2B64282  14.773  21.252  15.936  0.0714 -0.0075  0.1392
 3535DPPE   C3B64283  14.664  21.335  15.518 -0.0888 -0.0946 -0.0059
 3535DPPE   C4B64284  14.560  21.293  15.074  0.1320 -0.0559 -0.4116
 3536DPPE   NH364285  19.683  16.096  16.576  0.0164  0.3510 -0.2530
 3536DPPE   PO464286  19.494  15.751  16.783  0.0465  0.2159  0.1816
 3536DPPE   GL164287  19.505  15.710  16.284  0.1703 -0.0937 -0.0674
 3536DPPE   GL264288  19.353  15.436  16.191 -0.3922 -0.0541  0.1322
 3536DPPE   C1A64289  19.811  15.905  15.940 -0.2809 -0.1205  0.0970
 3536DPPE   C2A64290  20.127  15.938  15.872  0.1277 -0.1478 -0.0876
 3536DPPE   C3A64291  20.432  16.216  15.837  0.0967 -0.0634  0.0298
 3536DPPE   C4A64292  20.707  16.574  16.052 -0.2840  0.1829 -0.0922
 3536DPPE   C1B64293  19.570  15.319  15.896  0.2421 -0.0162 -0.0786
 3536DPPE   C2B64294  19.888  15.005  15.760  0.1140  0.0120 -0.2553
 3536DPPE   C3B64295  20.400  14.808  15.707 -0.1472 -0.0283 -0.2191
 3536DPPE   C4B64296  20.764  14.509  15.684  0.1643  0.0018  0.2327
 3537DPPE   NH364297   6.667  20.412  18.168  0.1977 -0.0013  0.3985
 3537DPPE   PO464298   6.814  20.262  17.831  0.1484 -0.0882  0.0208
 3537DPPE   GL164299   6.659  20.543  17.462 -0.1716 -0.1755  0.3488
 3537DPPE   GL264300   6.532  20.861  17.582  0.0540 -0.0889 -0.2074
 3537DPPE   C1A64301   6.753  20.366  17.001 -0.1332 -0.0603 -0.2118
 3537DPPE   C2A64302   7.093  20.418  16.574 -0.0089 -0.0378 -0.0418
 3537DPPE   C3A64303   7.253  20.487  16.191 -0.1073 -0.1985 -0.0800
 3537DPPE   C4A64304   7.359  20.452  15.752 -0.0638 -0.1510 -0.0083
 3537DPPE   C1B64305   6.712  21.041  17.162  0.2255  0.0676 -0.0308
 3537DPPE   C2B64306   6.549  21.287  16.824  0.3797  0.1338 -0.2975
 3537DPPE   C3B64307   6.359  21.676  16.604  0.0088  0.0912 -0.0985
 3537DPPE   C4B64308   6.279  21.952  16.282  0.0844 -0.2314  0.0885
 3538DPPE   NH364309  13.421   9.917  17.103 -0.0085  0.1781  0.1049
 3538DPPE   PO464310  13.748  10.126  16.842  0.0897  0.0139  0.5042
 3538DPPE   GL164311  13.390  10.067  16.494 -0.0641  0.2461 -0.3300
 3538DPPE   GL264312  13.216   9.847  16.631  0.1028  0.0765  0.0662
 3538DPPE   C1A64313  13.395  10.155  16.017 -0.1167  0.2597  0.2514
 3538DPPE   C2A64314  13.674  10.360  15.679 -0.1134 -0.0119 -0.0093
 3538DPPE   C3A64315  14.061  10.214  15.580  0.0894 -0.0088 -0.2280
 3538DPPE   C4A64316  14.495  10.047  15.559  0.0246  0.3124 -0.1581
 3538DPPE   C1B64317  13.406   9.589  16.284 -0.1640  0.0846  0.1284
 3538DPPE   C2B64318  13.619   9.381  16.159  0.0727 -0.2145  0.2987
 3538DPPE   C3B64319  13.937   9.091  16.157  0.1351 -0.0644 -0.1552
 3538DPPE   C4B64320  13.971   9.084  15.741 -0.0518 -0.0116  0.0970
 3539DPPE   NH364321  10.722  14.458  17.410 -0.1061  0.0706  0.4373
 3539DPPE   PO464322  11.121  14.467  17.258  0.0771 -0.1036 -0.3865
 3539DPPE   GL164323  10.871  14.275  16.952 -0.1919 -0.0303 -0.0097
 3539DPPE   GL264324  11.080  13.996  16.776  0.1034  0.1036 -0.0054
 3539DPPE   C1A64325  10.713  14.288  16.567 -0.0107  0.0554 -0.2142
 3539DPPE   C2A64326  10.550  14.258  16.164 -0.1083 -0.0217  0.1916
 3539DPPE   C3A64327  10.466  14.086  15.904 -0.1656 -0.2721 -0.0518
 3539DPPE   C4A64328  10.583  14.234  15.492 -0.1941 -0.0076 -0.5406
 3539DPPE   C1B64329  10.961  13.899  16.354  0.0495  0.0807 -0.4949
 3539DPPE   C2B64330  11.048  14.040  16.045  0.0796  0.2293 -0.2605
 3539DPPE   C3B64331  10.995  13.878  15.583  0.3583 -0.1843 -0.0888
 3539DPPE   C4B64332  10.859  13.829  15.243 -0.0975 -0.2240  0.0329
 3540DPPE   NH364333   9.693  20.698  18.442  0.1333  0.1094 -0.0049
 3540DPPE   PO464334   9.715  20.772  18.093 -0.0866 -0.1953 -0.1824
 3540DPPE   GL164335   9.653  20.902  17.654  0.0259  0.0213  0.7217
 3540DPPE   GL264336   9.404  20.973  17.455  0.0057 -0.3041 -0.1863
 3540DPPE   C1A64337   9.840  20.809  17.149  0.0531  0.1015  0.3688
 3540DPPE   C2A64338   9.829  20.871  16.690  0.0491 -0.0257  0.2426
 3540DPPE   C3A64339   9.783  20.949  16.384 -0.2550  0.0540  0.1948
 3540DPPE   C4A64340   9.777  20.836  15.980  0.2792  0.2019  0.2833
 3540DPPE   C1B64341   9.353  20.749  17.069 -0.0377 -0.0162 -0.2500
 3540DPPE   C2B64342   9.376  20.662  16.747 -0.0174 -0.1768 -0.0440
 3540DPPE   C3B64343   9.389  20.648  16.347  0.5086  0.2657 -0.1949
 3540DPPE   C4B64344   9.191  20.508  15.915 -0.1315  0.0089 -0.0438
 3541DPPE   NH364345  17.143  15.421  16.984 -0.0017 -0.0111  0.1702
 3541DPPE   PO464346  16.978  15.721  17.133 -0.0016 -0.1943  0.1218
 3541DPPE   GL164347  17.190  15.819  16.709 -0.1085  0.0245 -0.1584
 3541DPPE   GL264348  17.610  15.733  16.612 -0.0100 -0.0455 -0.1107
 3541DPPE   C1A64349  16.932  15.886  16.242  0.3903  0.1058  0.4657
 3541DPPE   C2A64350  16.921  15.950  15.881 -0.0396  0.1829 -0.2077
 3541DPPE   C3A64351  16.918  15.935  15.422  0.1590  0.2166 -0.0341
 3541DPPE   C4A64352  16.892  16.020  15.044  0.0928 -0.1495 -0.0827
 3541DPPE   C1B64353  17.347  15.592  16.269  0.2495 -0.3173 -0.1151
 3541DPPE   C2B64354  17.334  15.615  15.840 -0.3911 -0.0857  0.1131
 3541DPPE   C3B64355  17.525  15.637  15.407  0.2467  0.0149 -0.3192
 3541DPPE   C4B64356  17.758  15.791  14.923  0.2370  0.0921 -0.0690
 3542DPPE   NH364357  12.620  22.302  17.388 -0.2606  0.0600 -0.0766
 3542DPPE   PO464358  13.024  22.574  17.445  0.2289 -0.1463 -0.0650
 3542DPPE   GL164359  13.066  22.368  17.117 -0.1370 -0.1641  0.1610
 3542DPPE   GL264360  12.716  22.277  16.903  0.0559 -0.1105 -0.0814
 3542DPPE   C1A64361  13.116  22.392  16.664 -0.3082  0.0235 -0.1983
 3542DPPE   C2A64362  12.993  22.343  16.188  0.0489  0.0868 -0.0652
 3542DPPE   C3A64363  12.811  22.489  15.753 -0.2772  0.1795  0.1055
 3542DPPE   C4A64364  12.760  22.595  15.366 -0.2437  0.0713 -0.3400
 3542DPPE   C1B64365  12.605  22.268  16.479  0.5755  0.1726  0.1134
 3542DPPE   C2B64366  12.478  22.218  16.089  0.2829 -0.0970  0.1358
 3542DPPE   C3B64367  12.440  22.211  15.550 -0.0694  0.3802  0.0203
 3542DPPE   C4B64368  12.432  22.124  15.217  0.0277  0.0404  0.0981
 3543DPPE   NH364369  14.036  11.739  17.310  0.1950  0.1902  0.1155
 3543DPPE   PO464370  13.903  11.330  17.457 -0.0053  0.0368  0.1682
 3543DPPE   GL164371  13.912  11.333  16.999  0.1105  0.0782 -0.1106
 3543DPPE   GL264372  13.746  11.597  16.925 -0.4505 -0.2104 -0.0694
 3543DPPE   C1A64373  14.016  11.331  16.616  0.3056 -0.2564 -0.0461
 3543DPPE   C2A64374  13.946  11.445  16.159 -0.2945 -0.1304 -0.0827
 3543DPPE   C3A64375  14.047  11.356  15.772 -0.0207  0.1311 -0.1156
 3543DPPE   C4A64376  14.117  11.352  15.401 -0.0605  0.1142 -0.2949
 3543DPPE   C1B64377  13.606  11.580  16.479 -0.0849 -0.2398  0.0148
 3543DPPE   C2B64378  13.537  11.686  16.142  0.2395  0.1928  0.3333
 3543DPPE   C3B64379  13.537  11.594  15.729  0.0658 -0.0057  0.2237
 3543DPPE   C4B64380  13.520  11.697  15.308  0.3425 -0.2670  0.3097
 3544DPPE   NH364381  11.206  18.095  17.391  0.1163  0.2445  0.1177
 3544DPPE   PO464382  11.411  18.285  17.429 -0.1184 -0.1524 -0.0721
 3544DPPE   GL164383  11.475  18.455  16.977 -0.0670 -0.1747 -0.2325
 3544DPPE   GL264384  11.734  18.370  16.748  0.0197 -0.0872  0.3083
 3544DPPE   C1A64385  11.303  18.587  16.575 -0.0483 -0.0766  0.0675
 3544DPPE   C2A64386  11.301  18.645  16.173 -0.3660 -0.1651  0.2795
 3544DPPE   C3A64387  11.344  18.562  15.776  0.2598 -0.2531  0.0176
 3544DPPE   C4A64388  11.354  18.532  15.360  0.3549 -0.1084 -0.1364
 3544DPPE   C1B64389  11.730  18.336  16.219  0.1285  0.1657  0.1473
 3544DPPE   C2B64390  11.738  18.276  15.719  0.0298  0.3242 -0.0528
 3544DPPE   C3B64391  11.731  18.249  15.253  0.2561  0.0902  0.2315
 3544DPPE   C4B64392  11.693  18.507  14.916  0.0019 -0.0048  0.0859
 3545DPPE   NH364393  17.657  20.907  17.006 -0.2995  0.0285  0.1478
 3545DPPE   PO464394  17.511  20.514  16.896  0.1157 -0.0253  0.0790
 3545DPPE   GL164395  17.667  20.750  16.517 -0.3456 -0.0210  0.0716
 3545DPPE   GL264396  17.873  20.980  16.496 -0.3304 -0.0289  0.3563
 3545DPPE   C1A64397  17.680  20.740  16.073 -0.0353 -0.1607 -0.1121
 3545DPPE   C2A64398  17.722  20.698  15.702  0.0497  0.0563  0.0921
 3545DPPE   C3A64399  17.794  20.773  15.312 -0.1589  0.2129 -0.0437
 3545DPPE   C4A64400  17.686  20.944  14.989  0.3051 -0.3704  0.0343
 3545DPPE   C1B64401  18.148  20.902  16.152 -0.2086 -0.0500 -0.3312
 3545DPPE   C2B64402  18.441  20.777  15.878  0.0997  0.1354 -0.1150
 3545DPPE   C3B64403  18.649  20.688  15.406 -0.0239 -0.2504 -0.2214
 3545DPPE   C4B64404  18.675  20.778  14.971  0.1476  0.4749 -0.0196
 3546DPPE   NH364405  10.975  13.810  17.923  0.0808  0.1739  0.1837
 3546DPPE   PO464406  10.737  13.954  17.437  0.0495 -0.0080 -0.2345
 3546DPPE   GL164407  10.708  13.728  17.038  0.0661 -0.0110  0.0018
 3546DPPE   GL264408  10.987  13.445  17.042 -0.4113 -0.2570  0.3638
 3546DPPE   C1A64409  10.587  13.796  16.693  0.0500  0.2140  0.2007
 3546DPPE   C2A64410  10.553  13.700  16.239  0.2603 -0.1122  0.2938
 3546DPPE   C3A64411  10.527  13.585  15.786 -0.1594 -0.2676  0.0656
 3546DPPE   C4A64412  10.524  13.482  15.368  0.0896 -0.1570 -0.1149
 3546DPPE   C1B64413  10.988  13.480  16.646  0.2946 -0.0726 -0.1811
 3546DPPE   C2B64414  10.913  13.353  16.189 -0.0937  0.1574  0.0460
 3546DPPE   C3B64415  10.927  13.293  15.721  0.3295 -0.1403  0.0447
 3546DPPE   C4B64416  10.806  13.078  15.234 -0.0177  0.1857  0.2433
 3547DPPE   NH364417  17.760  19.234  16.741 -0.0204 -0.0106  0.0166
 3547DPPE   PO464418  17.820  19.590  17.009  0.2610 -0.0141 -0.0889
 3547DPPE   GL164419  18.131  19.716  16.657  0.2082 -0.0369  0.2604
 3547DPPE   GL264420  18.386  20.081  16.710 -0.1323 -0.0548  0.0253
 3547DPPE   C1A64421  18.078  19.833  16.307  0.0109 -0.0084  0.3310
 3547DPPE   C2A64422  18.134  19.939  15.843  0.1799 -0.4548  0.0130
 3547DPPE   C3A64423  18.255  19.989  15.416  0.2236 -0.1393 -0.0571
 3547DPPE   C4A64424  18.679  20.194  15.361 -0.3457  0.0738 -0.4666
 3547DPPE   C1B64425  18.602  20.087  16.348  0.0058 -0.1182  0.0998
 3547DPPE   C2B64426  18.569  20.177  15.916  0.0405 -0.2262  0.0290
 3547DPPE   C3B64427  19.009  20.283  15.768  0.0586 -0.0572  0.1102
 3547DPPE   C4B64428  19.281  20.212  15.520  0.0186  0.1634 -0.3180
 3548DPPE   NH364429   9.466  20.063  17.796 -0.0572  0.0557 -0.0668
 3548DPPE   PO464430   9.702  19.841  17.567  0.0535  0.1067  0.0524
 3548DPPE   GL164431   9.826  19.934  17.217  0.0185 -0.0200  0.1020
 3548DPPE   GL264432   9.722  20.262  17.300  0.0255  0.0328  0.0869
 3548DPPE   C1A64433   9.753  19.868  16.837  0.1153  0.1124 -0.1470
 3548DPPE   C2A64434   9.722  19.813  16.412 -0.0329  0.2921  0.1654
 3548DPPE   C3A64435   9.765  19.770  15.945 -0.2071 -0.0717 -0.0360
 3548DPPE   C4A64436   9.700  19.704  15.589 -0.0747 -0.2145 -0.0732
 3548DPPE   C1B64437   9.768  20.393  16.887 -0.2559  0.2195  0.1922
 3548DPPE   C2B64438   9.765  20.354  16.387 -0.0310 -0.1517 -0.3162
 3548DPPE   C3B64439   9.752  20.321  15.975  0.1824  0.0585  0.3422
 3548DPPE   C4B64440   9.603  20.390  15.684  0.2900 -0.0042 -0.2168
 3549DPPE   NH364441  14.157  20.996  17.591 -0.0687 -0.0860  0.0698
 3549DPPE   PO464442  13.941  21.356  17.395 -0.1413  0.0884 -0.0879
 3549DPPE   GL164443  14.049  21.356  16.937 -0.0786 -0.2114 -0.0161
 3549DPPE   GL264444  14.211  21.093  16.791  0.1110 -0.3535 -0.1977
 3549DPPE   C1A64445  13.891  21.357  16.453  0.0672 -0.1193 -0.1395
 3549DPPE   C2A64446  13.825  21.467  16.092  0.1364  0.3476 -0.2687
 3549DPPE   C3A64447  13.809  21.297  15.599 -0.1034 -0.2770 -0.0196
 3549DPPE   C4A64448  13.669  21.278  15.273 -0.2380 -0.0997 -0.1370
 3549DPPE   C1B64449  14.279  21.030  16.287 -0.1432 -0.1107 -0.2591
 3549DPPE   C2B64450  14.232  21.071  15.854  0.1802 -0.2324  0.2454
 3549DPPE   C3B64451  14.127  20.968  15.417  0.2717  0.3725  0.0128
 3549DPPE   C4B64452  14.061  21.005  15.050 -0.0140  0.0117  0.0132
 3550DPPE   NH364453  15.275  18.857  17.381 -0.2571 -0.3615 -0.1755
 3550DPPE   PO464454  15.275  18.429  17.253 -0.0824 -0.0472  0.4240
 3550DPPE   GL164455  15.260  18.368  16.777  0.3679 -0.0699  0.1485
 3550DPPE   GL264456  14.874  18.445  16.517  0.0076 -0.0602 -0.1652
 3550DPPE   C1A64457  15.314  18.544  16.313  0.3907  0.4767  0.1442
 3550DPPE   C2A64458  15.221  18.656  15.876 -0.0829 -0.0479 -0.2003
 3550DPPE   C3A64459  15.343  18.644  15.406  0.2185  0.1512 -0.3945
 3550DPPE   C4A64460  15.377  18.562  14.964  0.0228 -0.0202 -0.4446
 3550DPPE   C1B64461  14.842  18.433  16.106  0.2265  0.0639  0.1299
 3550DPPE   C2B64462  14.797  18.462  15.626 -0.2568 -0.0175 -0.0203
 3550DPPE   C3B64463  14.820  18.386  15.136 -0.0386  0.0356  0.1528
 3550DPPE   C4B64464  14.934  18.486  14.734 -0.1180  0.2317  0.3877
 3551DPPE   NH364465  13.938  13.339  17.125 -0.2015  0.0939 -0.1450
 3551DPPE   PO464466  14.314  13.407  16.960 -0.2454 -0.0188  0.2834
 3551DPPE   GL164467  14.172  13.482  16.686 -0.3592 -0.3969  0.0142
 3551DPPE   GL264468  14.166  13.825  16.667  0.0808 -0.0036 -0.0805
 3551DPPE   C1A64469  14.093  13.498  16.177  0.4533  0.0483 -0.0840
 3551DPPE   C2A64470  14.111  13.497  15.789  0.1726 -0.1052 -0.0376
 3551DPPE   C3A64471  14.177  13.469  15.321  0.0201 -0.0949  0.0868
 3551DPPE   C4A64472  13.988  13.395  14.798 -0.1984  0.2824 -0.2527
 3551DPPE   C1B64473  14.244  13.965  16.225 -0.2209 -0.1428 -0.0203
 3551DPPE   C2B64474  14.177  14.007  15.820 -0.0425 -0.3643 -0.0473
 3551DPPE   C3B64475  14.230  14.036  15.367 -0.1696  0.2193 -0.0242
 3551DPPE   C4B64476  14.288  13.921  14.941 -0.1379 -0.2777 -0.1607
 3552DPPE   NH364477  15.209  15.037  17.201 -0.5120 -0.1728 -0.0592
 3552DPPE   PO464478  15.614  15.147  16.883  0.1188  0.0292  0.0047
 3552DPPE   GL164479  15.760  15.091  16.487 -0.1847  0.2407 -0.1798
 3552DPPE   GL264480  15.602  15.154  16.254  0.0855 -0.0513  0.1341
 3552DPPE   C1A64481  16.022  14.879  16.091  0.0555  0.0453  0.0047
 3552DPPE   C2A64482  16.041  14.973  15.612  0.1710 -0.1298 -0.1360
 3552DPPE   C3A64483  16.069  14.912  15.222  0.0847  0.2490 -0.0159
 3552DPPE   C4A64484  16.230  14.694  14.789 -0.1705  0.3360  0.0486
 3552DPPE   C1B64485  15.578  15.213  15.856  0.0637  0.3397  0.0479
 3552DPPE   C2B64486  15.692  15.203  15.377 -0.1343  0.2368 -0.1998
 3552DPPE   C3B64487  15.484  15.319  14.972  0.1165 -0.0886 -0.1736
 3552DPPE   C4B64488  15.644  15.273  14.609 -0.0883 -0.0561 -0.0595
 3553DPPE   NH364489  14.944  10.146  16.944  0.0877  0.2015 -0.3805
 3553DPPE   PO464490  15.335  10.234  17.092 -0.0978 -0.2000  0.0279
 3553DPPE   GL164491  15.346  10.097  16.612 -0.0948 -0.1000 -0.1534
 3553DPPE   GL264492  15.568   9.933  16.504  0.1925 -0.0114 -0.3668
 3553DPPE   C1A64493  15.287  10.155  16.170  0.0403 -0.1626 -0.2467
 3553DPPE   C2A64494  15.386   9.983  15.692 -0.2247  0.3162 -0.2690
 3553DPPE   C3A64495  15.777  10.140  15.316  0.2062 -0.0785 -0.1728
 3553DPPE   C4A64496  16.073  10.199  14.961 -0.2781  0.1187  0.0174
 3553DPPE   C1B64497  15.400   9.632  16.188 -0.0826 -0.0098 -0.1621
 3553DPPE   C2B64498  15.484   9.462  15.839 -0.1634  0.3044 -0.0895
 3553DPPE   C3B64499  15.599   9.222  15.525 -0.1320  0.3746 -0.2447
 3553DPPE   C4B64500  15.843   9.325  15.117 -0.4148  0.2234 -0.1119
 3554DPPE   NH364501  17.384  10.642  17.400  0.0331 -0.0363  0.2658
 3554DPPE   PO464502  17.448  10.774  17.053 -0.0394  0.0127  0.0291
 3554DPPE   GL164503  17.766  10.643  16.734  0.0285  0.2418 -0.1401
 3554DPPE   GL264504  18.056  10.557  16.727  0.2524  0.1787 -0.2147
 3554DPPE   C1A64505  17.743  10.355  16.446 -0.1349  0.0077 -0.2968
 3554DPPE   C2A64506  17.634  10.126  16.100 -0.1537 -0.2498 -0.1827
 3554DPPE   C3A64507  17.380   9.817  16.027  0.5483 -0.1475 -0.3097
 3554DPPE   C4A64508  17.270   9.459  15.829 -0.0270 -0.0834 -0.0534
 3554DPPE   C1B64509  18.253  10.182  16.440 -0.0393  0.1042  0.2831
 3554DPPE   C2B64510  18.102   9.759  16.256  0.2925  0.1559 -0.2167
 3554DPPE   C3B64511  17.750   9.507  16.200 -0.0560  0.2045 -0.0920
 3554DPPE   C4B64512  17.303   9.423  16.347  0.0193  0.1453 -0.1678
 3555DPPE   NH364513   7.813  20.487  17.902 -0.3435  0.3376 -0.3682
 3555DPPE   PO464514   8.229  20.658  17.960  0.0622  0.1015  0.1919
 3555DPPE   GL164515   8.083  20.852  17.585  0.4429 -0.0633  0.0235
 3555DPPE   GL264516   7.991  20.518  17.378 -0.0417  0.0362 -0.1059
 3555DPPE   C1A64517   7.982  21.170  17.262 -0.1233  0.1330 -0.3242
 3555DPPE   C2A64518   7.921  21.155  16.893 -0.2831  0.0189  0.1092
 3555DPPE   C3A64519   7.896  21.305  16.540  0.1056  0.1331 -0.0043
 3555DPPE   C4A64520   8.064  21.467  16.246 -0.0212  0.0504  0.2488
 3555DPPE   C1B64521   8.026  20.504  16.964 -0.0409  0.1671  0.1302
 3555DPPE   C2B64522   8.010  20.725  16.645 -0.1438  0.1050  0.1307
 3555DPPE   C3B64523   7.936  20.946  16.254  0.0432 -0.2339  0.0324
 3555DPPE   C4B64524   7.757  20.819  15.834  0.3104 -0.0213 -0.1157
 3556DPPE   NH364525  10.842  19.204  17.908  0.2896  0.0991 -0.0701
 3556DPPE   PO464526  10.532  19.331  17.631 -0.0261 -0.0298  0.2643
 3556DPPE   GL164527  10.520  19.301  17.283  0.1703 -0.2012  0.0617
 3556DPPE   GL264528  10.752  19.499  17.209  0.3179 -0.0603  0.3286
 3556DPPE   C1A64529  10.516  19.210  16.819 -0.0326  0.0394 -0.2429
 3556DPPE   C2A64530  10.522  19.137  16.415  0.2578  0.1720 -0.0182
 3556DPPE   C3A64531  10.520  19.221  16.004  0.0158 -0.0460 -0.0241
 3556DPPE   C4A64532  10.548  19.174  15.585 -0.1029 -0.2381 -0.0676
 3556DPPE   C1B64533  10.968  19.402  16.727  0.2932 -0.2568  0.2413
 3556DPPE   C2B64534  11.026  19.477  16.227 -0.2727 -0.0003 -0.2650
 3556DPPE   C3B64535  11.016  19.388  15.763 -0.2065  0.0570 -0.2228
 3556DPPE   C4B64536  11.046  19.376  15.387 -0.0114  0.1627 -0.1179
 3557DPPE   NH364537  14.814  13.568  17.014  0.1719  0.0447 -0.2031
 3557DPPE   PO464538  14.725  13.753  16.745 -0.1533 -0.0312 -0.1925
 3557DPPE   GL164539  14.586  13.567  16.433  0.0415 -0.0530  0.0817
 3557DPPE   GL264540  14.541  13.246  16.545 -0.2423  0.2082 -0.0592
 3557DPPE   C1A64541  14.611  13.691  15.952 -0.2731  0.0337 -0.0681
 3557DPPE   C2A64542  14.623  13.683  15.526  0.3271 -0.0662  0.2877
 3557DPPE   C3A64543  14.703  13.694  15.155  0.1890  0.0397 -0.0225
 3557DPPE   C4A64544  15.064  13.643  14.774  0.0786  0.2764  0.3227
 3557DPPE   C1B64545  14.502  13.245  16.080  0.0600 -0.0315 -0.0438
 3557DPPE   C2B64546  14.566  13.110  15.704  0.0109 -0.0574 -0.2574
 3557DPPE   C3B64547  14.628  13.196  15.345 -0.0515  0.1244  0.1655
 3557DPPE   C4B64548  14.515  13.261  14.906  0.1264  0.0701  0.0099
 3558DPPE   NH364549   8.567  20.478  17.630 -0.0869 -0.5175  0.0093
 3558DPPE   PO464550   8.334  20.115  17.920  0.0342 -0.0162 -0.1393
 3558DPPE   GL164551   8.147  20.165  17.649 -0.0739 -0.0213 -0.0466
 3558DPPE   GL264552   7.831  19.966  17.629 -0.1056  0.1978 -0.0325
 3558DPPE   C1A64553   8.322  20.153  17.159  0.0421  0.1252  0.0693
 3558DPPE   C2A64554   8.452  20.289  16.789  0.3459 -0.0747 -0.1628
 3558DPPE   C3A64555   8.316  20.294  16.412 -0.0451 -0.5411  0.1707
 3558DPPE   C4A64556   8.194  20.128  15.912 -0.1051  0.0821 -0.0376
 3558DPPE   C1B64557   7.843  19.991  17.169  0.0753  0.1449  0.0500
 3558DPPE   C2B64558   7.948  20.042  16.749  0.1230 -0.1640  0.0686
 3558DPPE   C3B64559   7.958  19.892  16.365 -0.0971  0.3275  0.4079
 3558DPPE   C4B64560   7.818  19.569  16.005  0.2199 -0.2063  0.4975
 3559DPPE   NH364561   9.642  19.412  17.894  0.0343  0.0691  0.1694
 3559DPPE   PO464562   9.668  18.960  17.752 -0.0762  0.2784 -0.1567
 3559DPPE   GL164563   9.779  19.240  17.427 -0.0733 -0.0562 -0.1733
 3559DPPE   GL264564  10.062  19.382  17.368  0.0831 -0.4045 -0.3845
 3559DPPE   C1A64565   9.668  19.373  17.009 -0.0402 -0.1714 -0.1350
 3559DPPE   C2A64566   9.664  19.354  16.589  0.0179 -0.1375  0.1340
 3559DPPE   C3A64567   9.704  19.296  16.216  0.5695 -0.3532  0.3201
 3559DPPE   C4A64568   9.691  19.187  15.890 -0.1656 -0.1415  0.2603
 3559DPPE   C1B64569  10.148  19.608  16.931 -0.0048  0.3125 -0.1750
 3559DPPE   C2B64570  10.119  19.520  16.557 -0.3363  0.3250  0.1575
 3559DPPE   C3B64571  10.131  19.505  16.143  0.2966 -0.2793  0.2486
 3559DPPE   C4B64572  10.139  19.494  15.685 -0.0969 -0.1601  0.1103
 3560DPPE   NH364573   9.035  21.219  17.699  0.1923  0.0116  0.1107
 3560DPPE   PO464574   8.582  21.000  17.708  0.0624 -0.3829  0.0558
 3560DPPE   GL164575   8.453  21.047  17.311  0.1069 -0.0086 -0.0907
 3560DPPE   GL264576   8.440  20.706  17.190 -0.0728  0.0884  0.0116
 3560DPPE   C1A64577   8.388  21.313  16.897 -0.0728  0.2208 -0.3256
 3560DPPE   C2A64578   8.539  21.348  16.583 -0.0911  0.0090 -0.0806
 3560DPPE   C3A64579   8.569  21.470  16.130 -0.1550  0.0167  0.1009
 3560DPPE   C4A64580   8.569  21.475  15.684  0.1819 -0.0803 -0.1162
 3560DPPE   C1B64581   8.445  20.865  16.829 -0.1192  0.2482 -0.2417
 3560DPPE   C2B64582   8.379  20.876  16.394 -0.1752  0.1010 -0.2638
 3560DPPE   C3B64583   8.280  21.112  15.933  0.0355  0.3006  0.3435
 3560DPPE   C4B64584   8.077  21.182  15.538  0.2332 -0.2699 -0.0589
 3561DPPE   NH364585  15.519   9.701  17.026 -0.0786 -0.2187 -0.0148
 3561DPPE   PO464586  15.502   9.418  17.224 -0.1125  0.2134 -0.2514
 3561DPPE   GL164587  15.593   9.070  16.978  0.2930  0.0071 -0.0494
 3561DPPE   GL264588  15.568   9.109  16.683  0.2839 -0.0749  0.3200
 3561DPPE   C1A64589  15.610   8.607  16.934  0.0681  0.6078  0.1543
 3561DPPE   C2A64590  15.413   8.271  16.777 -0.2440  0.0661 -0.0676
 3561DPPE   C3A64591  14.917   8.166  16.734  0.0729 -0.0810 -0.0022
 3561DPPE   C4A64592  14.496   8.046  16.889 -0.0396  0.2869 -0.1817
 3561DPPE   C1B64593  15.570   9.188  16.330  0.2380 -0.1690 -0.0127
 3561DPPE   C2B64594  15.361   9.011  16.038 -0.0584 -0.2277 -0.1402
 3561DPPE   C3B64595  15.693   8.790  15.815 -0.1606 -0.0039  0.2685
 3561DPPE   C4B64596  15.945   8.577  15.451 -0.1214  0.4029 -0.0301
 3562DPPE   NH364597   9.913  20.503  17.724  0.1425 -0.1560 -0.2084
 3562DPPE   PO464598  10.083  20.133  17.877  0.1281 -0.2186  0.1654
 3562DPPE   GL164599  10.252  20.295  17.407 -0.2802 -0.3344 -0.2140
 3562DPPE   GL264600  10.254  20.542  17.368  0.1710  0.0246  0.0212
 3562DPPE   C1A64601  10.232  20.217  16.996  0.3367  0.2399 -0.2668
 3562DPPE   C2A64602  10.155  20.051  16.553 -0.1474 -0.1215  0.1681
 3562DPPE   C3A64603  10.168  20.070  16.134  0.1344  0.1220  0.2788
 3562DPPE   C4A64604  10.195  20.041  15.713  0.1427  0.1187  0.3102
 3562DPPE   C1B64605  10.306  20.704  16.936  0.0672 -0.1347 -0.0044
 3562DPPE   C2B64606  10.203  20.571  16.531  0.1978  0.2784  0.1942
 3562DPPE   C3B64607  10.223  20.555  16.197  0.0710 -0.4379 -0.0387
 3562DPPE   C4B64608  10.154  20.550  15.792  0.1763  0.0359 -0.2250
 3563DPPE   NH364609  14.438  17.282  17.022 -0.0735  0.0935 -0.1620
 3563DPPE   PO464610  14.062  16.923  17.114 -0.0194 -0.1507 -0.1179
 3563DPPE   GL164611  14.079  17.118  16.684  0.0234  0.3534 -0.1349
 3563DPPE   GL264612  14.356  17.071  16.555 -0.1889 -0.0528 -0.4258
 3563DPPE   C1A64613  13.991  17.274  16.256 -0.2377 -0.2654 -0.1743
 3563DPPE   C2A64614  13.836  17.489  15.824  0.1866  0.2144 -0.0695
 3563DPPE   C3A64615  13.779  17.431  15.353 -0.2745  0.2599  0.2630
 3563DPPE   C4A64616  13.924  17.391  14.884  0.2721  0.0037  0.1705
 3563DPPE   C1B64617  14.439  17.099  16.090  0.2000  0.0621 -0.1042
 3563DPPE   C2B64618  14.373  17.053  15.737  0.3709  0.2604 -0.4133
 3563DPPE   C3B64619  14.257  17.079  15.324  0.0137 -0.4094 -0.3279
 3563DPPE   C4B64620  14.320  17.156  14.839 -0.1990 -0.1394  0.1996
 3564DPPE   NH364621   7.220  16.838  17.332  0.1542  0.1100  0.3769
 3564DPPE   PO464622   6.749  16.708  17.507 -0.3137  0.0489 -0.0555
 3564DPPE   GL164623   6.723  16.856  17.181  0.0555 -0.0297 -0.1966
 3564DPPE   GL264624   6.465  16.913  17.010  0.1196 -0.2170 -0.1243
 3564DPPE   C1A64625   6.837  16.995  16.745 -0.3078 -0.1837 -0.0532
 3564DPPE   C2A64626   6.727  17.007  16.367 -0.3189 -0.0534 -0.1493
 3564DPPE   C3A64627   6.412  16.725  16.146  0.0113  0.0380  0.1205
 3564DPPE   C4A64628   6.118  16.693  15.692  0.0967 -0.2912  0.0902
 3564DPPE   C1B64629   6.327  17.311  16.650  0.2068 -0.1455  0.1812
 3564DPPE   C2B64630   6.355  17.259  16.186 -0.4219 -0.3742 -0.0286
 3564DPPE   C3B64631   6.647  17.079  15.852 -0.1146  0.0114 -0.3158
 3564DPPE   C4B64632   6.583  16.825  15.468 -0.1817 -0.3934 -0.0661
 3565DPPE   NH364633   8.680  23.038  18.117  0.0264 -0.1464 -0.1145
 3565DPPE   PO464634   8.309  22.960  17.948 -0.1335 -0.1280 -0.1295
 3565DPPE   GL164635   7.972  22.737  17.730  0.0967  0.0133 -0.1261
 3565DPPE   GL264636   7.694  22.918  17.851 -0.1316  0.0900  0.0966
 3565DPPE   C1A64637   7.733  22.677  17.338 -0.0605 -0.1861  0.0535
 3565DPPE   C2A64638   7.294  22.460  17.210  0.0577 -0.2904  0.0067
 3565DPPE   C3A64639   6.874  22.336  17.113 -0.2185 -0.0755  0.0064
 3565DPPE   C4A64640   6.415  22.372  17.247  0.0137 -0.0670  0.2279
 3565DPPE   C1B64641   7.404  23.328  17.757  0.0833 -0.0586 -0.1724
 3565DPPE   C2B64642   7.110  23.780  17.735 -0.0073 -0.4359  0.3090
 3565DPPE   C3B64643   6.956  24.058  17.370 -0.2130 -0.1615  0.0858
 3565DPPE   C4B64644   6.583  24.097  17.386 -0.0407  0.1303  0.1704
 3566DPPE   NH364645  15.766  21.088  17.792  0.1567  0.2017 -0.1377
 3566DPPE   PO464646  15.535  21.122  17.421 -0.0288  0.0603 -0.4584
 3566DPPE   GL164647  15.562  21.109  16.945  0.1882  0.0518  0.0345
 3566DPPE   GL264648  15.211  21.083  16.938 -0.0077  0.2365 -0.3581
 3566DPPE   C1A64649  15.598  21.301  16.554  0.0981  0.0978 -0.0130
 3566DPPE   C2A64650  15.626  21.305  16.121  0.1249  0.4080  0.4478
 3566DPPE   C3A64651  15.546  21.259  15.730  0.3866  0.0667 -0.0458
 3566DPPE   C4A64652  15.464  21.304  15.288 -0.1340 -0.1827  0.2661
 3566DPPE   C1B64653  15.177  20.999  16.537 -0.0011  0.3526 -0.1438
 3566DPPE   C2B64654  15.064  20.933  16.130 -0.0111 -0.1785  0.0032
 3566DPPE   C3B64655  15.125  20.983  15.686  0.0511  0.1134  0.3405
 3566DPPE   C4B64656  14.962  20.983  15.315  0.0600  0.0695 -0.0042
 3567DPPE   NH364657  13.984  12.730  17.229  0.0383  0.5508  0.4095
 3567DPPE   PO464658  14.265  12.935  17.280 -0.1754 -0.1257  0.4569
 3567DPPE   GL164659  14.250  12.941  16.842  0.1687  0.0095  0.2242
 3567DPPE   GL264660  14.515  12.756  16.650 -0.0343 -0.3093  0.0315
 3567DPPE   C1A64661  14.145  13.004  16.371 -0.1497 -0.0200  0.0227
 3567DPPE   C2A64662  14.066  12.989  15.966 -0.1620 -0.1146  0.0575
 3567DPPE   C3A64663  14.084  12.957  15.492  0.2779 -0.0589 -0.1628
 3567DPPE   C4A64664  14.173  12.940  14.976  0.2142  0.2704 -0.1134
 3567DPPE   C1B64665  14.517  12.741  16.197 -0.2574 -0.0435 -0.0958
 3567DPPE   C2B64666  14.481  12.622  15.744  0.1126  0.0840 -0.0208
 3567DPPE   C3B64667  14.656  12.582  15.286 -0.2436 -0.2365 -0.0291
 3567DPPE   C4B64668  14.596  12.406  14.912 -0.2097  0.1480 -0.1724
 3568DPPE   NH364669  19.576  14.492  17.283  0.0077  0.1901  0.0398
 3568DPPE   PO464670  19.298  14.843  17.130  0.3944  0.2938 -0.3580
 3568DPPE   GL164671  19.046  14.535  16.875 -0.1603 -0.0104 -0.1981
 3568DPPE   GL264672  19.175  14.414  16.501 -0.1877  0.1503 -0.1139
 3568DPPE   C1A64673  18.747  14.636  16.543  0.2450  0.3327  0.1996
 3568DPPE   C2A64674  18.579  14.750  16.148 -0.0408  0.0896 -0.1909
 3568DPPE   C3A64675  18.337  14.680  15.722 -0.2424  0.1573 -0.0973
 3568DPPE   C4A64676  18.459  14.488  15.331 -0.0072 -0.2713  0.0922
 3568DPPE   C1B64677  19.063  14.582  16.044  0.3869 -0.2056  0.0652
 3568DPPE   C2B64678  19.007  14.693  15.575 -0.1967 -0.0576 -0.1599
 3568DPPE   C3B64679  18.892  14.711  15.189 -0.1627 -0.3378 -0.0281
 3568DPPE   C4B64680  18.648  14.770  14.798  0.5794  0.0134  0.2608
 3569DPPE   NH364681  12.898  21.096  17.614 -0.0591  0.0048  0.1068
 3569DPPE   PO464682  12.896  21.500  17.381  0.0161 -0.0685  0.2037
 3569DPPE   GL164683  12.843  21.824  17.062  0.1050 -0.1169 -0.1766
 3569DPPE   GL264684  13.136  21.798  16.840  0.2602 -0.1958  0.1237
 3569DPPE   C1A64685  12.639  21.769  16.742  0.1891  0.3061 -0.2728
 3569DPPE   C2A64686  12.544  21.716  16.314 -0.3937 -0.0795 -0.3043
 3569DPPE   C3A64687  12.469  21.743  15.802  0.0887  0.1637  0.2376
 3569DPPE   C4A64688  12.354  21.657  15.298 -0.0239 -0.1973 -0.1857
 3569DPPE   C1B64689  12.997  21.861  16.387 -0.1957  0.1826  0.2940
 3569DPPE   C2B64690  12.937  21.885  15.969 -0.3538  0.3040  0.3401
 3569DPPE   C3B64691  12.929  21.907  15.553  0.1521  0.1946  0.0064
 3569DPPE   C4B64692  12.818  21.853  15.109  0.2599 -0.1555  0.2756
 3570DPPE   NH364693   7.239  18.647  17.133  0.0085 -0.2764 -0.1156
 3570DPPE   PO464694   6.823  18.461  17.264  0.2046  0.0924 -0.2095
 3570DPPE   GL164695   6.701  18.402  16.894  0.0356  0.0162 -0.4739
 3570DPPE   GL264696   6.937  18.453  16.765 -0.1686 -0.0412 -0.0202
 3570DPPE   C1A64697   6.525  18.252  16.499 -0.2542 -0.0415 -0.0212
 3570DPPE   C2A64698   6.360  18.505  16.241  0.0609 -0.1247  0.1353
 3570DPPE   C3A64699   6.454  18.766  15.938  0.1754  0.1846 -0.0974
 3570DPPE   C4A64700   6.334  18.756  15.597  0.2400 -0.5788 -0.6454
 3570DPPE   C1B64701   6.960  18.599  16.361  0.0408  0.0621  0.7395
 3570DPPE   C2B64702   6.829  18.408  16.056 -0.2352  0.0660 -0.1030
 3570DPPE   C3B64703   6.619  18.322  15.685  0.2923  0.1561 -0.0367
 3570DPPE   C4B64704   6.472  17.926  15.432 -0.3497 -0.3496  0.1600
 3571DPPE   NH364705  19.096  14.347  17.349  0.0065 -0.0208 -0.0438
 3571DPPE   PO464706  18.842  14.096  17.058 -0.1384 -0.0599  0.1114
 3571DPPE   GL164707  18.679  14.191  16.716  0.0429 -0.1017  0.2512
 3571DPPE   GL264708  18.562  13.866  16.690 -0.2005 -0.2964 -0.1293
 3571DPPE   C1A64709  18.580  14.229  16.311 -0.1565 -0.0260  0.1659
 3571DPPE   C2A64710  18.672  14.339  15.850 -0.2308  0.2388 -0.1107
 3571DPPE   C3A64711  18.973  14.236  15.599  0.4202  0.2102 -0.1227
 3571DPPE   C4A64712  18.982  14.182  15.141 -0.0444  0.2944  0.1443
 3571DPPE   C1B64713  18.648  13.689  16.267  0.1860  0.0648  0.0126
 3571DPPE   C2B64714  18.663  13.799  15.769 -0.2169  0.0609  0.3914
 3571DPPE   C3B64715  18.746  13.785  15.326  0.1820 -0.1690 -0.2018
 3571DPPE   C4B64716  18.765  13.769  14.939 -0.1058 -0.3564  0.0687
 3572DPPE   NH364717  13.608   9.156  16.826 -0.0837 -0.3184 -0.1257
 3572DPPE   PO464718  13.359   9.439  16.918 -0.1206 -0.2956 -0.2231
 3572DPPE   GL164719  13.065   9.256  16.655  0.1639  0.1783  0.1225
 3572DPPE   GL264720  12.960   8.992  16.704 -0.1015 -0.0656  0.1152
 3572DPPE   C1A64721  12.980   9.294  16.277  0.0128 -0.0825  0.1543
 3572DPPE   C2A64722  12.896   9.462  15.847  0.3091 -0.2731  0.1921
 3572DPPE   C3A64723  12.654   9.248  15.540  0.0356  0.1531  0.0561
 3572DPPE   C4A64724  12.518   9.239  15.185 -0.0364  0.1624 -0.3180
 3572DPPE   C1B64725  12.979   8.704  16.330  0.3262 -0.0505  0.2449
 3572DPPE   C2B64726  12.942   8.517  16.010  0.1162  0.1688  0.0957
 3572DPPE   C3B64727  13.137   8.917  15.735  0.3498  0.0134 -0.2813
 3572DPPE   C4B64728  13.349   9.219  15.720 -0.0487 -0.0584  0.1049
 3573DPPE   NH364729  10.535  23.904  17.640  0.0378  0.1011  0.0895
 3573DPPE   PO464730  10.436  24.103  17.238  0.3890 -0.1587 -0.3115
 3573DPPE   GL164731  10.428  24.350  16.866  0.1590  0.1721 -0.6243
 3573DPPE   GL264732  10.145  24.390  16.726 -0.0710 -0.4134 -0.1401
 3573DPPE   C1A64733  10.663  24.680  16.545 -0.1095  0.1506  0.1818
 3573DPPE   C2A64734  10.556  24.968  16.142  0.3606 -0.3816 -0.0754
 3573DPPE   C3A64735  10.567  25.280  15.780  0.1509  0.0859 -0.2531
 3573DPPE   C4A64736  10.573  25.186  15.420  0.1433 -0.1582  0.0243
 3573DPPE   C1B64737  10.174  24.690  16.358  0.0628  0.1272 -0.0718
 3573DPPE   C2B64738  10.055  24.967  16.075  0.2500 -0.1274 -0.0415
 3573DPPE   C3B64739  10.040  25.340  15.672 -0.1324  0.1043 -0.3398
 3573DPPE   C4B64740   9.744  25.508  15.373 -0.0572 -0.1751 -0.3857
 3574DPPE   NH364741  16.525  10.565  17.085  0.1393 -0.0416 -0.0661
 3574DPPE   PO464742  16.877  10.291  17.189  0.1116 -0.1567  0.2084
 3574DPPE   GL164743  16.998   9.900  16.988  0.0496  0.0634  0.3497
 3574DPPE   GL264744  17.241   9.745  17.092  0.0373 -0.0166  0.2263
 3574DPPE   C1A64745  16.964   9.540  16.774 -0.2008 -0.1158 -0.0238
 3574DPPE   C2A64746  17.081   9.083  16.639  0.1369 -0.0316  0.2431
 3574DPPE   C3A64747  17.441   8.855  16.559  0.1195 -0.1955  0.1023
 3574DPPE   C4A64748  17.707   8.453  16.757 -0.0314 -0.1544 -0.1214
 3574DPPE   C1B64749  17.404   9.344  16.965  0.2418 -0.4124  0.1470
 3574DPPE   C2B64750  17.726   9.093  16.891 -0.0825 -0.0599  0.0424
 3574DPPE   C3B64751  18.125   8.872  16.638  0.1661 -0.0228  0.0448
 3574DPPE   C4B64752  18.500   8.653  16.428 -0.1965  0.3841 -0.3648
 3575DPPE   NH364753  15.766  18.594  17.422  0.3309 -0.0309 -0.1638
 3575DPPE   PO464754  15.943  19.005  17.320  0.3089  0.1643 -0.0281
 3575DPPE   GL164755  15.927  19.086  16.815  0.1034 -0.1960  0.0577
 3575DPPE   GL264756  16.130  19.029  16.588  0.0045 -0.0784 -0.0492
 3575DPPE   C1A64757  15.825  19.356  16.449  0.2571 -0.0829  0.4642
 3575DPPE   C2A64758  15.904  19.398  15.988 -0.0940 -0.1672 -0.0353
 3575DPPE   C3A64759  15.831  19.410  15.550 -0.0406  0.1341  0.0512
 3575DPPE   C4A64760  15.807  19.451  15.077  0.0158 -0.0570 -0.0839
 3575DPPE   C1B64761  16.311  19.087  16.184  0.0951 -0.3015 -0.0307
 3575DPPE   C2B64762  16.217  19.136  15.695 -0.0078 -0.1982  0.0188
 3575DPPE   C3B64763  16.224  19.097  15.288  0.1619  0.0005  0.2831
 3575DPPE   C4B64764  16.165  19.167  14.859 -0.2083  0.1495 -0.2917
 3576DPPE   NH364765  12.849  11.830  17.162  0.1392 -0.2222  0.0947
 3576DPPE   PO464766  12.663  11.548  16.904  0.2478  0.1818 -0.1469
 3576DPPE   GL164767  12.670  11.715  16.611  0.1523  0.0298  0.0849
 3576DPPE   GL264768  12.726  12.020  16.586  0.1520 -0.0323 -0.1015
 3576DPPE   C1A64769  12.620  11.758  16.167 -0.1010 -0.0108 -0.0083
 3576DPPE   C2A64770  12.727  11.734  15.777  0.0404 -0.2481  0.0969
 3576DPPE   C3A64771  12.674  11.786  15.316  0.2376  0.2019 -0.1448
 3576DPPE   C4A64772  12.442  11.793  15.016 -0.0583 -0.1369 -0.1755
 3576DPPE   C1B64773  12.688  12.314  16.258 -0.0695 -0.2068 -0.0796
 3576DPPE   C2B64774  12.744  12.283  15.899  0.0115 -0.0345  0.0989
 3576DPPE   C3B64775  12.697  12.390  15.506 -0.1207 -0.0028 -0.1184
 3576DPPE   C4B64776  12.733  12.344  15.060  0.0925  0.0622  0.1152
 3577DPPE   NH364777   7.092  19.290  17.609 -0.1235 -0.1248 -0.4911
 3577DPPE   PO464778   6.971  18.995  17.433 -0.0859 -0.0668 -0.0330
 3577DPPE   GL164779   6.838  18.961  17.051 -0.0037 -0.1920 -0.0961
 3577DPPE   GL264780   6.552  19.024  17.037  0.1688  0.0636  0.1946
 3577DPPE   C1A64781   6.944  19.047  16.660 -0.1244  0.0904  0.5871
 3577DPPE   C2A64782   6.856  19.066  16.234 -0.0348  0.1530  0.0089
 3577DPPE   C3A64783   6.922  19.268  15.831 -0.2686 -0.2927 -0.3455
 3577DPPE   C4A64784   6.728  19.193  15.427 -0.0146  0.0899 -0.1302
 3577DPPE   C1B64785   6.521  18.828  16.632 -0.1265 -0.2158 -0.0460
 3577DPPE   C2B64786   6.371  19.066  16.317  0.4195 -0.1970 -0.1142
 3577DPPE   C3B64787   6.381  19.240  15.911  0.0049  0.0975  0.2839
 3577DPPE   C4B64788   6.225  19.280  15.538  0.0849  0.2197 -0.1172
 3578DPPE   NH364789  20.258  14.044  17.455 -0.2115  0.0811  0.0968
 3578DPPE   PO464790  20.663  14.179  17.402  0.0852  0.0779 -0.2132
 3578DPPE   GL164791  20.728  13.885  17.200  0.0478  0.2629  0.2988
 3578DPPE   GL264792  20.743  13.956  16.854  0.3860 -0.0630 -0.0521
 3578DPPE   C1A64793  21.051  13.530  17.024  0.1518  0.1136 -0.3171
 3578DPPE   C2A64794  21.311  13.395  16.642 -0.0155  0.1403  0.0299
 3578DPPE   C3A64795  21.716  13.232  16.711 -0.0632  0.0765 -0.1103
 3578DPPE   C4A64796  21.969  13.233  17.129  0.0211  0.1370 -0.0587
 3578DPPE   C1B64797  21.039  13.854  16.468 -0.3075  0.0459 -0.0651
 3578DPPE   C2B64798  21.319  13.793  16.160 -0.0491  0.2500  0.1786
 3578DPPE   C3B64799  21.104  13.847  15.836 -0.0218 -0.0530  0.0653
 3578DPPE   C4B64800  20.833  14.039  15.467 -0.2987 -0.2673 -0.4439
 3579DPPE   NH364801   7.573  12.576  17.730 -0.2214  0.0242 -0.0434
 3579DPPE   PO464802   7.142  12.485  17.726  0.0396  0.4977  0.2424
 3579DPPE   GL164803   6.767  12.465  17.580  0.3025  0.0052 -0.0058
 3579DPPE   GL264804   6.612  12.538  17.820 -0.2384  0.3345 -0.0697
 3579DPPE   C1A64805   6.455  12.615  17.297 -0.0690 -0.1570  0.1232
 3579DPPE   C2A64806   6.389  12.695  16.972  0.2985 -0.0261  0.3563
 3579DPPE   C3A64807   6.119  12.566  16.706  0.1026 -0.2144  0.0092
 3579DPPE   C4A64808   5.728  12.361  16.779  0.1154 -0.0242 -0.0923
 3579DPPE   C1B64809   6.281  12.215  17.580 -0.1583  0.0198 -0.2402
 3579DPPE   C2B64810   6.143  11.832  17.333 -0.0029  0.0149  0.1423
 3579DPPE   C3B64811   6.080  11.588  16.888  0.1413  0.0213  0.0446
 3579DPPE   C4B64812   6.371  11.284  16.565  0.0412 -0.3537  0.0555
 3580DPPE   NH364813  10.239  13.141  17.655  0.0906  0.3168 -0.0555
 3580DPPE   PO464814  10.283  13.655  17.693 -0.0273 -0.0231 -0.0079
 3580DPPE   GL164815  10.207  13.474  17.298  0.0532 -0.0516 -0.0191
 3580DPPE   GL264816   9.815  13.592  17.201  0.0475 -0.2769  0.1239
 3580DPPE   C1A64817  10.202  13.555  16.886  0.3604  0.1842 -0.2160
 3580DPPE   C2A64818  10.018  13.350  16.438  0.3897  0.1466 -0.2832
 3580DPPE   C3A64819  10.107  13.511  16.048  0.1139 -0.3611 -0.0209
 3580DPPE   C4A64820  10.067  13.527  15.597  0.1267 -0.1087  0.0276
 3580DPPE   C1B64821   9.740  13.823  16.864  0.0501 -0.2063  0.0935
 3580DPPE   C2B64822   9.718  13.795  16.497  0.3737 -0.0712 -0.1025
 3580DPPE   C3B64823   9.519  13.654  16.085 -0.1232 -0.0398 -0.0212
 3580DPPE   C4B64824   9.629  13.706  15.713 -0.2384 -0.0015 -0.1714
 3581DPPE   NH364825  13.340  10.381  16.890 -0.1068 -0.2122  0.1499
 3581DPPE   PO464826  13.204  10.719  17.054 -0.0873 -0.3367 -0.3897
 3581DPPE   GL164827  13.139  10.967  16.727 -0.4478 -0.0841  0.2544
 3581DPPE   GL264828  13.391  11.254  16.752 -0.0596 -0.3138  0.0520
 3581DPPE   C1A64829  13.034  11.018  16.256  0.0727 -0.0882 -0.2585
 3581DPPE   C2A64830  12.916  10.891  15.825 -0.1730 -0.3317  0.1174
 3581DPPE   C3A64831  12.663  10.643  15.594 -0.3120  0.4864  0.0537
 3581DPPE   C4A64832  12.612  10.318  15.234  0.0356  0.0238 -0.1391
 3581DPPE   C1B64833  13.509  11.118  16.268 -0.0103 -0.4265  0.1702
 3581DPPE   C2B64834  13.638  11.095  15.892 -0.1367 -0.2502 -0.2500
 3581DPPE   C3B64835  13.584  11.113  15.365  0.0948  0.1453 -0.0047
 3581DPPE   C4B64836  13.854  11.067  14.945 -0.0619  0.0760 -0.0431
 3582DPPE   NH364837   7.197  18.527  17.622  0.1714  0.4541 -0.0186
 3582DPPE   PO464838   7.342  18.263  17.516  0.1106 -0.0367 -0.0147
 3582DPPE   GL164839   7.666  18.411  17.258 -0.1473  0.1304 -0.1293
 3582DPPE   GL264840   7.952  18.348  17.352 -0.2393 -0.2001 -0.0643
 3582DPPE   C1A64841   7.845  18.584  16.876  0.0849  0.0376  0.4489
 3582DPPE   C2A64842   7.845  18.425  16.432  0.0581  0.0612  0.0827
 3582DPPE   C3A64843   7.881  18.517  16.072 -0.0912  0.1241 -0.1559
 3582DPPE   C4A64844   7.643  18.576  15.695  0.0439  0.0551  0.0933
 3582DPPE   C1B64845   8.170  18.273  17.050 -0.0224  0.2749 -0.2148
 3582DPPE   C2B64846   8.213  18.144  16.556 -0.0338  0.2463 -0.0031
 3582DPPE   C3B64847   8.215  18.135  16.100  0.0166 -0.2062  0.1849
 3582DPPE   C4B64848   8.370  18.185  15.718  0.2702 -0.1612  0.2539
 3583DPPE   NH364849   6.442  17.946  17.768 -0.0496 -0.1124 -0.1835
 3583DPPE   PO464850   6.247  18.430  17.654 -0.1278  0.3425 -0.1543
 3583DPPE   GL164851   6.302  18.574  17.141 -0.1489  0.3910 -0.1126
 3583DPPE   GL264852   6.133  18.846  17.142  0.3619  0.1305 -0.2744
 3583DPPE   C1A64853   6.125  18.517  16.680 -0.2216 -0.0777  0.5234
 3583DPPE   C2A64854   5.960  18.735  16.267 -0.1568 -0.1111 -0.3173
 3583DPPE   C3A64855   5.945  19.102  16.083 -0.2027 -0.3375 -0.2151
 3583DPPE   C4A64856   5.715  19.343  15.730 -0.0921 -0.0162  0.0772
 3583DPPE   C1B64857   6.101  19.087  16.779  0.1153 -0.2719 -0.1148
 3583DPPE   C2B64858   6.044  19.383  16.501  0.5766  0.2042  0.2097
 3583DPPE   C3B64859   6.052  19.588  15.981  0.1895  0.1376 -0.1389
 3583DPPE   C4B64860   5.923  19.723  15.515 -0.1196  0.0545 -0.0503
 3584DPPE   NH364861   8.814  22.530  18.036 -0.3092 -0.2172  0.0898
 3584DPPE   PO464862   8.640  22.728  17.666 -0.0308 -0.0191 -0.2880
 3584DPPE   GL164863   8.432  22.758  17.355 -0.1818  0.0314  0.2629
 3584DPPE   GL264864   8.251  22.999  17.375 -0.2519 -0.1193  0.3954
 3584DPPE   C1A64865   8.463  22.750  17.015  0.3744 -0.3161  0.0358
 3584DPPE   C2A64866   8.372  22.821  16.565 -0.0016  0.1835 -0.0799
 3584DPPE   C3A64867   8.128  22.985  16.172 -0.0338  0.0728  0.1828
 3584DPPE   C4A64868   8.217  23.298  15.985 -0.1910  0.4469  0.2481
 3584DPPE   C1B64869   8.146  23.141  17.059  0.2559 -0.5728 -0.0351
 3584DPPE   C2B64870   7.968  23.477  16.688 -0.0729 -0.0307  0.1638
 3584DPPE   C3B64871   7.862  23.499  16.296 -0.1384 -0.2229 -0.1126
 3584DPPE   C4B64872   7.509  23.490  16.036 -0.0275 -0.0141 -0.1765
 3585DPPE   NH364873  15.646  23.628  17.404  0.1677 -0.0037  0.1871
 3585DPPE   PO464874  15.696  23.805  16.961 -0.2594 -0.3006 -0.0935
 3585DPPE   GL164875  15.691  23.741  16.575 -0.1512 -0.1968 -0.2407
 3585DPPE   GL264876  15.342  23.823  16.468  0.0492  0.1060 -0.1831
 3585DPPE   C1A64877  15.744  23.795  16.200  0.1581  0.0765  0.2134
 3585DPPE   C2A64878  15.865  23.635  15.879 -0.2534 -0.1383 -0.0204
 3585DPPE   C3A64879  15.815  23.236  15.965  0.0320  0.0553 -0.0519
 3585DPPE   C4A64880  15.665  22.780  16.028 -0.0878  0.1727 -0.1738
 3585DPPE   C1B64881  15.136  23.947  16.100  0.0501 -0.1437  0.1172
 3585DPPE   C2B64882  15.317  23.648  15.793 -0.1282 -0.1311 -0.2065
 3585DPPE   C3B64883  15.529  23.417  15.547 -0.0156  0.2507  0.0830
 3585DPPE   C4B64884  15.858  23.304  15.430  0.3226 -0.3066  0.1621
 3586DPPE   NH364885   7.549  14.013  17.534  0.3427 -0.4132  0.0107
 3586DPPE   PO464886   7.238  14.134  17.314 -0.2514 -0.1466 -0.0291
 3586DPPE   GL164887   7.049  14.067  16.932 -0.2118 -0.0524  0.1741
 3586DPPE   GL264888   6.797  13.850  16.936 -0.0901 -0.3421 -0.2414
 3586DPPE   C1A64889   7.059  14.069  16.455  0.1597 -0.0803  0.0161
 3586DPPE   C2A64890   7.268  13.926  16.132  0.3150  0.2239 -0.3003
 3586DPPE   C3A64891   7.111  13.898  15.716 -0.0945  0.1076 -0.1233
 3586DPPE   C4A64892   6.815  13.897  15.338 -0.0971  0.1920 -0.0417
 3586DPPE   C1B64893   6.548  13.764  16.648 -0.3917 -0.0912 -0.0469
 3586DPPE   C2B64894   6.231  13.699  16.416  0.1520 -0.1512 -0.2404
 3586DPPE   C3B64895   6.148  13.713  15.951  0.4251 -0.0906 -0.0637
 3586DPPE   C4B64896   5.970  13.700  15.583  0.1505 -0.1147  0.1761
 3587DPPE   NH364897   9.718  15.755  17.825 -0.1752  0.1537 -0.1313
 3587DPPE   PO464898   9.353  15.885  17.649  0.0540  0.1234 -0.0267
 3587DPPE   GL164899   9.460  15.757  17.283 -0.2607 -0.2562 -0.0685
 3587DPPE   GL264900   9.817  15.976  17.363  0.0565 -0.0526  0.1626
 3587DPPE   C1A64901   9.493  15.630  16.973  0.0598  0.1999  0.1413
 3587DPPE   C2A64902   9.290  15.731  16.617 -0.1648  0.3363 -0.0802
 3587DPPE   C3A64903   9.361  15.582  16.192 -0.1200 -0.0534 -0.1177
 3587DPPE   C4A64904   8.962  15.580  15.897 -0.5807  0.0047  0.1497
 3587DPPE   C1B64905   9.855  15.956  16.909  0.0326 -0.1242 -0.1865
 3587DPPE   C2B64906   9.739  15.824  16.498  0.0944 -0.1473  0.1309
 3587DPPE   C3B64907   9.835  15.907  16.060  0.2878  0.0468  0.2725
 3587DPPE   C4B64908   9.618  15.794  15.712 -0.3902 -0.1076  0.1781
 3588DPPE   NH364909  11.814  12.405  17.514 -0.0254 -0.2201 -0.1749
 3588DPPE   PO464910  11.665  12.831  17.288 -0.2024 -0.0672 -0.1473
 3588DPPE   GL164911  11.918  13.109  16.947 -0.3220  0.0477 -0.1017
 3588DPPE   GL264912  12.221  13.025  16.896 -0.1223  0.0195  0.2163
 3588DPPE   C1A64913  11.910  13.288  16.594  0.0594 -0.0065 -0.0998
 3588DPPE   C2A64914  11.868  13.408  16.162 -0.4806  0.1814 -0.1083
 3588DPPE   C3A64915  11.812  13.404  15.772 -0.0793  0.4959  0.0944
 3588DPPE   C4A64916  11.815  13.361  15.401 -0.0005  0.0925  0.1480
 3588DPPE   C1B64917  12.299  13.072  16.413 -0.1642  0.2632  0.0546
 3588DPPE   C2B64918  12.276  13.148  16.012 -0.1236  0.1069  0.1149
 3588DPPE   C3B64919  12.194  13.150  15.610  0.2393 -0.0188  0.1298
 3588DPPE   C4B64920  12.380  13.120  15.212 -0.2500  0.4592  0.0773
 3589DPPE   NH364921   7.272  13.683  17.162  0.1367 -0.0069  0.1544
 3589DPPE   PO464922   7.616  13.593  17.228  0.2686 -0.0199 -0.1639
 3589DPPE   GL164923   7.520  13.440  16.787  0.1264  0.1531  0.3385
 3589DPPE   GL264924   7.254  13.682  16.652  0.0021 -0.1667  0.5309
 3589DPPE   C1A64925   7.267  13.220  16.550 -0.2100 -0.0547  0.4580
 3589DPPE   C2A64926   7.048  13.007  16.323 -0.1036  0.1490 -0.3969
 3589DPPE   C3A64927   6.906  12.902  15.905 -0.1482  0.0737 -0.0142
 3589DPPE   C4A64928   6.692  12.858  15.524  0.1050  0.0677 -0.0334
 3589DPPE   C1B64929   6.957  13.579  16.429 -0.1492  0.1159  0.1161
 3589DPPE   C2B64930   6.662  13.756  16.089 -0.0243  0.0929 -0.0194
 3589DPPE   C3B64931   6.599  13.919  15.734  0.0904 -0.3933  0.0430
 3589DPPE   C4B64932   6.335  14.000  15.319 -0.0434 -0.3735 -0.3643
 3590DPPE   NH364933   8.443  13.035  17.262  0.0790 -0.0898  0.0978
 3590DPPE   PO464934   8.858  12.865  17.353 -0.0069  0.1175  0.0282
 3590DPPE   GL164935   8.741  12.720  16.935 -0.1318 -0.2997 -0.0722
 3590DPPE   GL264936   8.579  12.841  16.689 -0.1198  0.2173  0.1321
 3590DPPE   C1A64937   8.657  12.311  16.693  0.0128 -0.3088  0.2552
 3590DPPE   C2A64938   8.570  12.261  16.343  0.1902 -0.0044  0.1555
 3590DPPE   C3A64939   8.497  11.862  16.144  0.2484 -0.1439 -0.2139
 3590DPPE   C4A64940   8.170  11.872  15.793 -0.3241 -0.2430 -0.0893
 3590DPPE   C1B64941   8.562  12.760  16.276 -0.2534  0.0767  0.0035
 3590DPPE   C2B64942   8.652  12.624  15.850  0.0444  0.5044  0.1372
 3590DPPE   C3B64943   8.473  12.415  15.438 -0.0327  0.1281 -0.0240
 3590DPPE   C4B64944   8.056  12.290  15.251  0.3327 -0.2901  0.0880
 3591DPPE   NH364945  13.035  13.059  17.553 -0.0415 -0.0061 -0.1536
 3591DPPE   PO464946  13.078  12.647  17.445 -0.1565 -0.0215 -0.1980
 3591DPPE   GL164947  13.012  12.931  17.033  0.0062  0.3565 -0.1603
 3591DPPE   GL264948  13.117  13.247  17.061  0.2291 -0.0904 -0.3178
 3591DPPE   C1A64949  13.137  13.070  16.576  0.1393  0.2738  0.1252
 3591DPPE   C2A64950  13.238  12.972  16.226  0.0227 -0.1306  0.0715
 3591DPPE   C3A64951  13.243  12.930  15.793  0.3886  0.3384 -0.0888
 3591DPPE   C4A64952  13.268  13.017  15.321  0.0767 -0.0033 -0.0545
 3591DPPE   C1B64953  13.273  13.538  16.708  0.1166  0.2745 -0.3539
 3591DPPE   C2B64954  13.141  13.445  16.195 -0.1493 -0.0223  0.0420
 3591DPPE   C3B64955  13.285  13.462  15.699 -0.0261  0.3304 -0.1106
 3591DPPE   C4B64956  13.263  13.528  15.249  0.2193  0.0175  0.0010
 3592DPPE   NH364957  19.715  14.262  16.676 -0.2749 -0.0846  0.1169
 3592DPPE   PO464958  19.331  14.113  16.976  0.2222 -0.3843 -0.0162
 3592DPPE   GL164959  19.107  13.950  16.623 -0.0675 -0.2318 -0.4409
 3592DPPE   GL264960  19.427  13.969  16.351  0.1683 -0.2203 -0.3189
 3592DPPE   C1A64961  18.989  14.047  16.193 -0.0020 -0.0215 -0.0338
 3592DPPE   C2A64962  19.337  14.156  15.865  0.0252 -0.1158 -0.0456
 3592DPPE   C3A64963  19.576  14.223  15.636 -0.5669 -0.2011  0.0015
 3592DPPE   C4A64964  19.632  14.166  15.177 -0.0552  0.0807 -0.1523
 3592DPPE   C1B64965  19.611  13.743  16.093  0.2728 -0.1316 -0.2372
 3592DPPE   C2B64966  19.617  13.393  15.841 -0.0654  0.1288  0.1201
 3592DPPE   C3B64967  19.464  13.113  15.424  0.0063  0.2119 -0.3095
 3592DPPE   C4B64968  19.597  12.815  15.182  0.1994  0.1034  0.0390
 3593DPPE   NH364969   7.038  16.689  17.885 -0.3485  0.0430  0.3776
 3593DPPE   PO464970   7.129  16.384  17.434  0.0246  0.0786 -0.0687
 3593DPPE   GL164971   7.161  16.503  16.987 -0.1778  0.0296 -0.1530
 3593DPPE   GL264972   6.858  16.409  16.990  0.1119 -0.2586  0.2525
 3593DPPE   C1A64973   7.175  16.633  16.604 -0.2144  0.1679  0.2088
 3593DPPE   C2A64974   7.255  16.643  16.153 -0.1277  0.0115  0.2056
 3593DPPE   C3A64975   7.062  16.825  15.869  0.0613  0.0710 -0.2240
 3593DPPE   C4A64976   7.191  16.721  15.445 -0.4829 -0.0632 -0.1188
 3593DPPE   C1B64977   6.678  16.455  16.613  0.4024 -0.1286 -0.1635
 3593DPPE   C2B64978   6.727  16.368  16.236  0.1291  0.0220  0.0798
 3593DPPE   C3B64979   6.758  16.372  15.830  0.1657  0.2833  0.0838
 3593DPPE   C4B64980   6.752  16.369  15.360 -0.0864 -0.0275 -0.1693
 3594DPPE   NH364981  11.705  23.325  17.095 -0.2667 -0.5056  0.2199
 3594DPPE   PO464982  11.999  23.429  17.181 -0.1045  0.2227 -0.0348
 3594DPPE   GL164983  12.030  23.433  16.742 -0.3866  0.2879  0.1599
 3594DPPE   GL264984  11.745  23.242  16.595  0.3077  0.2615  0.0957
 3594DPPE   C1A64985  12.116  23.485  16.337 -0.0109  0.1307  0.1277
 3594DPPE   C2A64986  12.017  23.596  15.906 -0.2400  0.1119  0.3634
 3594DPPE   C3A64987  11.951  23.731  15.466 -0.0963 -0.0939  0.0614
 3594DPPE   C4A64988  12.110  23.858  15.131  0.1995 -0.0177  0.1478
 3594DPPE   C1B64989  11.647  23.278  16.218  0.0699 -0.1131 -0.2832
 3594DPPE   C2B64990  11.498  23.556  15.896 -0.2442  0.0341 -0.2763
 3594DPPE   C3B64991  11.370  23.800  15.459  0.0039 -0.3719  0.4516
 3594DPPE   C4B64992  11.563  24.018  15.232  0.0105 -0.0693 -0.0080
 3595DPPE   NH364993  13.999  24.111  17.280  0.1054 -0.0650  0.4776
 3595DPPE   PO464994  14.378  24.133  17.012  0.1003 -0.1024 -0.1989
 3595DPPE   GL164995  14.416  24.162  16.611  0.2718  0.0589 -0.0962
 3595DPPE   GL264996  14.069  24.413  16.637  0.1729 -0.1968  0.5265
 3595DPPE   C1A64997  14.289  24.272  16.207  0.0957  0.0428 -0.1350
 3595DPPE   C2A64998  14.221  24.546  15.845 -0.0179 -0.0526 -0.1083
 3595DPPE   C3A64999  14.055  24.382  15.434 -0.2112  0.5129  0.2072
 3595DPPE   C4A65000  13.738  24.255  15.103 -0.0035 -0.1630 -0.0841
 3595DPPE   C1B65001  13.999  24.863  16.554  0.1095 -0.0471 -0.1290
 3595DPPE   C2B65002  14.018  25.400  16.460  0.0519 -0.0001  0.3910
 3595DPPE   C3B65003  13.968  25.794  16.256 -0.1812  0.2725 -0.1907
 3595DPPE   C4B65004  13.611  25.976  16.262  0.0357 -0.0156  0.0895
 3596DPPE   NH365005  16.808  21.541  17.036  0.2644 -0.0088  0.1419
 3596DPPE   PO465006  16.714  21.080  16.854 -0.1495 -0.0043  0.2955
 3596DPPE   GL165007  16.892  20.886  16.471  0.0139 -0.0604  0.2285
 3596DPPE   GL265008  17.183  20.624  16.513 -0.2060 -0.0617  0.1379
 3596DPPE   C1A65009  16.839  20.911  16.051  0.2728 -0.2046  0.1533
 3596DPPE   C2A65010  16.841  20.981  15.623 -0.0330  0.1309 -0.1677
 3596DPPE   C3A65011  16.807  20.857  15.205 -0.0027 -0.1284 -0.0842
 3596DPPE   C4A65012  16.858  20.780  14.774 -0.1305 -0.1606  0.0463
 3596DPPE   C1B65013  17.234  20.641  16.203 -0.2823  0.0830 -0.1552
 3596DPPE   C2B65014  17.187  20.580  15.830  0.1561  0.0355 -0.1381
 3596DPPE   C3B65015  17.280  20.557  15.413 -0.3981  0.1534 -0.4860
 3596DPPE   C4B65016  17.334  20.615  15.007  0.3025 -0.2412 -0.2661
 3597DPPE   NH365017  11.521  11.767  17.652 -0.0383  0.0236 -0.2486
 3597DPPE   PO465018  11.427  12.218  17.730  0.2072  0.0902 -0.1614
 3597DPPE   GL165019  11.425  12.223  17.255 -0.0050 -0.2001 -0.1523
 3597DPPE   GL265020  11.326  12.535  17.030  0.0102  0.1177 -0.2664
 3597DPPE   C1A65021  11.356  12.066  16.833  0.1803  0.3069 -0.2173
 3597DPPE   C2A65022  11.312  12.082  16.335  0.1831 -0.2624  0.0827
 3597DPPE   C3A65023  11.415  12.095  15.944  0.3324  0.0808  0.1491
 3597DPPE   C4A65024  11.235  12.197  15.511  0.1562  0.3014 -0.1084
 3597DPPE   C1B65025  11.408  12.577  16.711 -0.0952  0.0856 -0.1462
 3597DPPE   C2B65026  11.342  12.604  16.221  0.0451 -0.0072 -0.0274
 3597DPPE   C3B65027  11.413  12.588  15.724  0.1129 -0.1727  0.0025
 3597DPPE   C4B65028  11.408  12.626  15.285  0.2832 -0.0100 -0.2362
 3598DPPE   NH365029  12.419  11.439  17.444 -0.3663 -0.4156 -0.0502
 3598DPPE   PO465030  12.393  11.829  17.403 -0.0590  0.1080  0.4355
 3598DPPE   GL165031  12.377  11.956  17.025  0.0094  0.1621  0.1118
 3598DPPE   GL265032  12.449  12.317  16.920  0.0961  0.2166  0.2000
 3598DPPE   C1A65033  12.247  12.045  16.580  0.1153 -0.0602 -0.3172
 3598DPPE   C2A65034  12.203  12.044  16.213  0.1169 -0.1398  0.1507
 3598DPPE   C3A65035  12.251  12.091  15.756 -0.2045  0.2843  0.0889
 3598DPPE   C4A65036  12.295  12.156  15.314  0.0033  0.2227 -0.1973
 3598DPPE   C1B65037  12.319  12.551  16.554 -0.3658  0.0170  0.1609
 3598DPPE   C2B65038  12.179  12.581  16.090 -0.1175  0.2179  0.2686
 3598DPPE   C3B65039  12.288  12.670  15.671  0.0234  0.2963 -0.0754
 3598DPPE   C4B65040  12.229  12.626  15.186  0.0806 -0.0315  0.4930
 3599DPPE   NH365041   9.584  12.963  18.184 -0.0349  0.1419  0.0798
 3599DPPE   PO465042   9.739  13.028  17.794 -0.1041 -0.1008  0.2950
 3599DPPE   GL165043   9.857  13.036  17.374 -0.2575 -0.2067 -0.0070
 3599DPPE   GL265044   9.762  12.806  17.189 -0.4661 -0.0328  0.0186
 3599DPPE   C1A65045   9.754  13.202  16.895  0.2497 -0.0001  0.0974
 3599DPPE   C2A65046   9.548  13.325  16.422 -0.1114 -0.1983 -0.2509
 3599DPPE   C3A65047   9.634  13.151  16.036  0.2508 -0.0848 -0.1212
 3599DPPE   C4A65048   9.648  13.252  15.657  0.0936  0.3086 -0.0819
 3599DPPE   C1B65049   9.674  12.688  16.774  0.0285 -0.1570 -0.3132
 3599DPPE   C2B65050   9.551  12.696  16.365 -0.0728  0.1896 -0.1174
 3599DPPE   C3B65051   9.511  12.601  15.976  0.0575  0.0455  0.3109
 3599DPPE   C4B65052   9.553  12.575  15.467 -0.1104 -0.1963 -0.2479
 3600DPPE   NH365053   8.219  17.211  17.878 -0.2492 -0.0305  0.2189
 3600DPPE   PO465054   8.605  17.467  17.925  0.1280 -0.0645 -0.0355
 3600DPPE   GL165055   8.677  17.210  17.597 -0.0919 -0.0736 -0.1919
 3600DPPE   GL265056   8.397  17.021  17.325 -0.1106  0.0788  0.1024
 3600DPPE   C1A65057   8.831  17.103  17.200 -0.1931  0.1428 -0.0120
 3600DPPE   C2A65058   8.951  17.014  16.786 -0.0876  0.2775 -0.2099
 3600DPPE   C3A65059   9.042  17.058  16.257  0.2094 -0.1837 -0.0468
 3600DPPE   C4A65060   8.925  17.082  15.786  0.1723 -0.3771  0.0044
 3600DPPE   C1B65061   8.464  16.916  16.852  0.1127 -0.1061  0.1218
 3600DPPE   C2B65062   8.626  16.890  16.356 -0.1848 -0.1309 -0.2194
 3600DPPE   C3B65063   8.486  16.819  15.911  0.3370  0.0437  0.0890
 3600DPPE   C4B65064   8.513  16.962  15.514 -0.0706 -0.2445  0.4971
 3601DPPE   NH365065  15.773  15.661  16.822 -0.0005  0.2489 -0.2498
 3601DPPE   PO465066  15.469  15.924  16.994  0.0296  0.0238  0.2737
 3601DPPE   GL165067  15.582  16.006  16.483  0.0092  0.0688  0.1826
 3601DPPE   GL265068  15.599  16.129  16.201  0.0340 -0.3385 -0.0302
 3601DPPE   C1A65069  15.181  15.933  16.052  0.3515  0.0768 -0.1337
 3601DPPE   C2A65070  15.213  15.986  15.553 -0.3808  0.0214 -0.0976
 3601DPPE   C3A65071  15.201  16.104  15.076 -0.0855  0.3332 -0.0253
 3601DPPE   C4A65072  15.131  16.254  14.672 -0.1414 -0.1744  0.0770
 3601DPPE   C1B65073  15.637  16.245  15.812  0.0536 -0.1738  0.1314
 3601DPPE   C2B65074  15.627  16.208  15.327 -0.0573 -0.1555  0.0002
 3601DPPE   C3B65075  15.605  16.375  14.903 -0.0206 -0.0789  0.1945
 3601DPPE   C4B65076  15.686  16.201  14.580  0.1228 -0.2679  0.2133
 3602DPPE   NH365077  12.867  18.381  17.154  0.1276  0.2061  0.0377
 3602DPPE   PO465078  13.121  18.769  17.003 -0.1898  0.2265  0.4048
 3602DPPE   GL165079  13.210  18.812  16.546  0.0819 -0.2329 -0.0639
 3602DPPE   GL265080  13.265  19.100  16.540  0.0534 -0.3754  0.0572
 3602DPPE   C1A65081  13.492  18.708  16.204  0.0899 -0.0378  0.0724
 3602DPPE   C2A65082  13.491  18.814  15.817  0.0799 -0.3084 -0.0039
 3602DPPE   C3A65083  13.462  18.741  15.354  0.0317 -0.2241 -0.0599
 3602DPPE   C4A65084  13.516  18.731  14.873  0.0276  0.2491 -0.1122
 3602DPPE   C1B65085  13.173  19.089  16.137 -0.1336 -0.1026  0.2747
 3602DPPE   C2B65086  13.074  19.031  15.690 -0.0247 -0.1470 -0.0373
 3602DPPE   C3B65087  13.026  18.941  15.367  0.1124 -0.0292  0.2349
 3602DPPE   C4B65088  13.038  18.977  14.960 -0.3417  0.4967  0.3714
 3603DPPE   NH365089  16.838  16.622  16.774 -0.0352  0.3153 -0.1490
 3603DPPE   PO465090  17.286  16.584  16.789  0.1005  0.0362  0.1534
 3603DPPE   GL165091  17.138  16.279  16.493  0.0140  0.0645 -0.2718
 3603DPPE   GL265092  17.413  16.170  16.358  0.1517  0.0359  0.0556
 3603DPPE   C1A65093  16.948  16.424  16.128  0.0814  0.0616  0.2469
 3603DPPE   C2A65094  16.983  16.473  15.733  0.0510  0.0765  0.0662
 3603DPPE   C3A65095  16.979  16.476  15.290  0.1831 -0.1842  0.4019
 3603DPPE   C4A65096  16.972  16.463  14.827  0.0361 -0.2059  0.0264
 3603DPPE   C1B65097  17.355  16.205  15.949 -0.1370 -0.0210  0.1329
 3603DPPE   C2B65098  17.329  16.093  15.600 -0.0724  0.1418  0.0512
 3603DPPE   C3B65099  17.388  16.118  15.147  0.0500  0.0033  0.1367
 3603DPPE   C4B65100  17.383  16.166  14.601  0.2827  0.0022  0.1512
 3604DPPE   NH365101   9.871  23.286  17.729 -0.1982  0.0797  0.1433
 3604DPPE   PO465102   9.435  23.297  17.746 -0.2837  0.1008  0.2308
 3604DPPE   GL165103   9.366  23.221  17.355  0.3202  0.1116 -0.3374
 3604DPPE   GL265104   9.575  23.238  17.212 -0.0554  0.0220  0.0321
 3604DPPE   C1A65105   9.135  23.306  16.985 -0.2568  0.2201 -0.1312
 3604DPPE   C2A65106   8.854  23.573  16.756  0.0706  0.0751 -0.1903
 3604DPPE   C3A65107   8.550  23.868  16.748 -0.0022  0.1676  0.0582
 3604DPPE   C4A65108   8.346  24.169  16.564 -0.1281  0.0756  0.1965
 3604DPPE   C1B65109   9.631  23.158  16.753  0.1668  0.0062 -0.2184
 3604DPPE   C2B65110   9.602  23.113  16.287 -0.1071  0.0482 -0.0253
 3604DPPE   C3B65111   9.776  22.980  15.899  0.0370  0.0625 -0.0113
 3604DPPE   C4B65112   9.747  22.670  15.589  0.1061 -0.0445  0.1476
 3605DPPE   NH365113  11.485   9.597  17.217 -0.2908  0.0425 -0.2821
 3605DPPE   PO465114  11.668   9.585  16.782 -0.1067  0.2957 -0.1431
 3605DPPE   GL165115  11.671   9.397  16.399 -0.2805  0.1731  0.1382
 3605DPPE   GL265116  11.813   9.672  16.192  0.4536 -0.2986  0.2415
 3605DPPE   C1A65117  11.628   9.006  16.415 -0.0440  0.0400  0.2310
 3605DPPE   C2A65118  11.562   8.691  16.822 -0.1560  0.0739 -0.1122
 3605DPPE   C3A65119  11.213   8.501  17.010 -0.0560  0.0263  0.0464
 3605DPPE   C4A65120  10.863   8.446  17.271 -0.0638  0.0965  0.0357
 3605DPPE   C1B65121  11.526   9.609  15.903 -0.0786  0.2453 -0.0335
 3605DPPE   C2B65122  11.104   9.550  15.800 -0.3307 -0.3589 -0.2688
 3605DPPE   C3B65123  10.802   9.630  16.040 -0.1751 -0.1947  0.2895
 3605DPPE   C4B65124  10.485   9.432  16.129 -0.0146  0.3082 -0.0474
 3606DPPE   NH365125  13.652   9.100  17.292 -0.1941  0.0897 -0.1092
 3606DPPE   PO465126  13.774   9.588  17.194  0.2009  0.1393  0.1348
 3606DPPE   GL165127  13.715   9.676  16.716 -0.1575  0.0183  0.3369
 3606DPPE   GL265128  14.017   9.536  16.490  0.0297  0.3537  0.1221
 3606DPPE   C1A65129  13.810   9.938  16.228 -0.0391 -0.0681  0.1020
 3606DPPE   C2A65130  13.782   9.893  15.815  0.0450 -0.2959 -0.0809
 3606DPPE   C3A65131  13.764   9.547  15.515  0.1947 -0.1776 -0.0291
 3606DPPE   C4A65132  13.760   9.297  15.153 -0.0923  0.2206  0.3903
 3606DPPE   C1B65133  14.122   9.532  15.984  0.1707  0.0561 -0.0220
 3606DPPE   C2B65134  14.273   9.594  15.601  0.2728 -0.1992 -0.4957
 3606DPPE   C3B65135  14.684   9.500  15.323 -0.0889 -0.0625  0.1247
 3606DPPE   C4B65136  14.501   9.538  14.799 -0.2264 -0.1295  0.0759
 3607DPPE   NH365137  16.791  18.340  16.755 -0.0224  0.1096  0.0185
 3607DPPE   PO465138  16.477  18.736  16.821 -0.2745 -0.2123  0.2472
 3607DPPE   GL165139  16.355  18.534  16.486  0.1225 -0.0109  0.6218
 3607DPPE   GL265140  16.290  18.239  16.577 -0.0832 -0.0396  0.0924
 3607DPPE   C1A65141  16.219  18.512  16.100  0.1019 -0.2432 -0.2697
 3607DPPE   C2A65142  16.200  18.603  15.581 -0.1849  0.0730 -0.2102
 3607DPPE   C3A65143  16.175  18.549  15.096 -0.1905  0.1590 -0.2229
 3607DPPE   C4A65144  16.036  18.701  14.734 -0.1676 -0.0774  0.1128
 3607DPPE   C1B65145  16.149  17.966  16.212  0.3610 -0.3124 -0.2497
 3607DPPE   C2B65146  16.161  17.964  15.859 -0.1171  0.0571 -0.1943
 3607DPPE   C3B65147  16.231  17.982  15.419  0.0064  0.0482 -0.2390
 3607DPPE   C4B65148  16.085  17.977  14.944  0.1723  0.2789  0.0498
 3608DPPE   NH365149  17.339  18.878  17.352  0.4029  0.2014 -0.1723
 3608DPPE   PO465150  17.057  18.672  17.035 -0.1642  0.0418 -0.3793
 3608DPPE   GL165151  16.910  18.851  16.605 -0.1575 -0.0319  0.2498
 3608DPPE   GL265152  17.251  18.984  16.548 -0.3342  0.1164  0.0449
 3608DPPE   C1A65153  16.716  18.786  16.294  0.0860 -0.0982  0.2568
 3608DPPE   C2A65154  16.656  18.870  15.854 -0.1680 -0.3359 -0.4657
 3608DPPE   C3A65155  16.692  18.819  15.426  0.2339 -0.0817 -0.1412
 3608DPPE   C4A65156  16.578  18.757  14.995 -0.0969 -0.1109 -0.1054
 3608DPPE   C1B65157  17.122  19.033  16.115  0.3125 -0.0857  0.1086
 3608DPPE   C2B65158  17.097  19.038  15.742 -0.1141  0.0814 -0.1490
 3608DPPE   C3B65159  17.105  19.038  15.341 -0.1018 -0.2088 -0.1653
 3608DPPE   C4B65160  17.021  18.953  14.898 -0.0923  0.4766  0.1568
 3609DPPE   NH365161  10.933  18.982  17.337  0.3198  0.2955 -0.1129
 3609DPPE   PO465162  10.649  18.806  17.666 -0.0356  0.1765 -0.0547
 3609DPPE   GL165163  10.347  18.856  17.341  0.2734  0.1938  0.1407
 3609DPPE   GL265164  10.517  18.662  17.098  0.0690  0.0221  0.0738
 3609DPPE   C1A65165  10.115  18.973  17.056  0.0470  0.0954  0.0249
 3609DPPE   C2A65166  10.097  19.065  16.661 -0.1080 -0.0616  0.1199
 3609DPPE   C3A65167  10.045  19.002  16.285 -0.1601 -0.0007 -0.0197
 3609DPPE   C4A65168  10.130  18.933  15.890  0.1963 -0.4050  0.0754
 3609DPPE   C1B65169  10.441  18.652  16.630 -0.1302 -0.2923  0.0958
 3609DPPE   C2B65170  10.466  18.655  16.191  0.2654  0.5766  0.0777
 3609DPPE   C3B65171  10.480  18.621  15.724  0.1411 -0.3264  0.0251
 3609DPPE   C4B65172  10.521  18.724  15.364  0.0666  0.0393 -0.1533
 3610DPPE   NH365173  10.010  10.362  17.629 -0.1896 -0.0023  0.0161
 3610DPPE   PO465174   9.924  10.045  18.000 -0.1960 -0.0952 -0.0951
 3610DPPE   GL165175   9.812   9.601  18.049 -0.0161 -0.2093  0.0298
 3610DPPE   GL265176   9.912   9.622  18.314 -0.2193  0.1672 -0.1787
 3610DPPE   C1A65177   9.757   9.157  17.966  0.1709 -0.3160  0.1678
 3610DPPE   C2A65178   9.873   8.967  17.560 -0.2369  0.0603 -0.2491
 3610DPPE   C3A65179  10.006   8.597  17.476  0.1371 -0.4177  0.0958
 3610DPPE   C4A65180  10.002   8.149  17.251  0.1246 -0.0973 -0.0212
 3610DPPE   C1B65181   9.508   9.348  18.386  0.4861 -0.0717  0.0747
 3610DPPE   C2B65182   9.047   9.332  18.347  0.1470 -0.0064  0.2583
 3610DPPE   C3B65183   8.651   9.129  18.242  0.1160  0.0922  0.0493
 3610DPPE   C4B65184   8.359   8.936  18.410 -0.7877  0.0231  0.4542
 3611DPPE   NH365185   9.828  11.963  17.526  0.0749 -0.4555 -0.2790
 3611DPPE   PO465186  10.151  11.778  17.655 -0.0912 -0.0657  0.1555
 3611DPPE   GL165187  10.062  11.726  17.169  0.1672 -0.0557 -0.0774
 3611DPPE   GL265188  10.189  11.545  17.036 -0.0710 -0.0411  0.2014
 3611DPPE   C1A65189   9.995  11.938  16.763  0.0361 -0.0842 -0.1436
 3611DPPE   C2A65190   9.996  11.900  16.389 -0.1152 -0.3272 -0.2902
 3611DPPE   C3A65191   9.785  11.808  15.973 -0.1912  0.1625 -0.1607
 3611DPPE   C4A65192   9.749  11.795  15.537 -0.1065  0.1635 -0.1717
 3611DPPE   C1B65193  10.465  11.689  16.646 -0.0492  0.0984 -0.0627
 3611DPPE   C2B65194  10.862  11.799  16.441 -0.0699 -0.2825  0.0907
 3611DPPE   C3B65195  10.944  11.865  15.999 -0.3076 -0.0132  0.1537
 3611DPPE   C4B65196  10.900  11.765  15.552  0.1220 -0.0783  0.3569
 3612DPPE   NH365197  10.721  24.542  17.192  0.1476 -0.0830 -0.2130
 3612DPPE   PO465198  11.105  24.603  17.197 -0.0888  0.0211 -0.0984
 3612DPPE   GL165199  11.120  24.784  16.916  0.0103  0.0104  0.3374
 3612DPPE   GL265200  10.832  24.986  16.855 -0.2244 -0.0210 -0.0134
 3612DPPE   C1A65201  11.183  24.698  16.503 -0.0032 -0.3071 -0.1288
 3612DPPE   C2A65202  11.145  24.944  16.126  0.3940 -0.1349  0.0297
 3612DPPE   C3A65203  11.079  25.061  15.687  0.0725 -0.1339 -0.2327
 3612DPPE   C4A65204  11.134  24.968  15.236  0.0763 -0.1158  0.2585
 3612DPPE   C1B65205  10.934  25.202  16.513 -0.0402  0.1463 -0.2544
 3612DPPE   C2B65206  10.884  25.428  16.109 -0.1605 -0.0002  0.0279
 3612DPPE   C3B65207  10.992  25.568  15.733 -0.2725 -0.1725 -0.3499
 3612DPPE   C4B65208  11.273  25.482  15.469  0.2434 -0.0430  0.2545
 3613DPPE   NH365209  11.056  11.786  17.764  0.0204  0.0189  0.0035
 3613DPPE   PO465210  11.091  11.670  17.316  0.1340 -0.0871 -0.0509
 3613DPPE   GL165211  11.046  11.659  16.883 -0.3828  0.2644 -0.1677
 3613DPPE   GL265212  11.323  11.447  16.710 -0.1301 -0.2351 -0.0315
 3613DPPE   C1A65213  10.860  11.316  16.547 -0.2227 -0.0885 -0.1868
 3613DPPE   C2A65214  10.859  10.967  16.198 -0.2474 -0.0769 -0.1615
 3613DPPE   C3A65215  10.664  11.060  15.800  0.1342  0.2270  0.4921
 3613DPPE   C4A65216  10.272  10.952  15.474 -0.1422 -0.0440  0.0382
 3613DPPE   C1B65217  11.308  11.531  16.254 -0.2065 -0.2028  0.1249
 3613DPPE   C2B65218  11.118  11.343  15.982  0.1358 -0.1403  0.0745
 3613DPPE   C3B65219  11.265  11.409  15.598  0.2555  0.0138  0.1822
 3613DPPE   C4B65220  11.473  11.768  15.467 -0.0911 -0.3652  0.0213
 3614DPPE   NH365221  12.994   9.163  17.232  0.2104 -0.2053  0.0492
 3614DPPE   PO465222  13.290   8.876  17.040  0.3684  0.0690 -0.1164
 3614DPPE   GL165223  13.411   8.755  16.619  0.1534  0.1002 -0.0475
 3614DPPE   GL265224  13.433   8.423  16.625  0.5756 -0.1109  0.0805
 3614DPPE   C1A65225  13.456   8.664  16.110  0.1325  0.0805  0.0072
 3614DPPE   C2A65226  13.794   8.667  15.844  0.0376  0.0904 -0.1302
 3614DPPE   C3A65227  13.952   8.398  15.482  0.2014 -0.1336  0.2764
 3614DPPE   C4A65228  14.024   8.649  15.086 -0.0545 -0.0132  0.1372
 3614DPPE   C1B65229  13.643   8.260  16.264 -0.1770  0.1077 -0.0051
 3614DPPE   C2B65230  13.713   8.052  15.836  0.2061 -0.0241 -0.1336
 3614DPPE   C3B65231  13.980   7.843  15.495  0.2534  0.2024 -0.0981
 3614DPPE   C4B65232  14.119   7.545  15.170  0.1780  0.2716 -0.1357
 3615DPPE   NH365233  16.883  13.042  17.420 -0.5300  0.0569  0.1065
 3615DPPE   PO465234  16.980  13.448  17.211  0.1991  0.2665 -0.3056
 3615DPPE   GL165235  16.631  13.430  16.915 -0.1904  0.0444 -0.3047
 3615DPPE   GL265236  16.417  13.708  16.797  0.0413  0.0659 -0.1528
 3615DPPE   C1A65237  16.763  13.427  16.417  0.0976  0.1173 -0.3096
 3615DPPE   C2A65238  16.714  13.384  15.907  0.1905  0.2069  0.1644
 3615DPPE   C3A65239  16.734  13.280  15.495  0.0842 -0.3691 -0.1617
 3615DPPE   C4A65240  16.725  13.261  15.083  0.0860  0.1562  0.2636
 3615DPPE   C1B65241  16.292  13.702  16.390 -0.2657  0.2745 -0.2690
 3615DPPE   C2B65242  16.339  13.656  15.946  0.0788  0.3055 -0.1600
 3615DPPE   C3B65243  16.302  13.546  15.587  0.0045 -0.0358  0.1627
 3615DPPE   C4B65244  16.355  13.604  15.124 -0.2113  0.0158  0.1942
 3616DPPE   NH365245  15.406  14.625  16.998  0.1140  0.2504 -0.0515
 3616DPPE   PO465246  15.108  15.002  16.731  0.1808 -0.0862  0.1084
 3616DPPE   GL165247  15.058  14.958  16.275 -0.2731  0.0073 -0.0611
 3616DPPE   GL265248  14.770  14.696  16.297 -0.2440 -0.3310  0.0566
 3616DPPE   C1A65249  15.111  14.938  15.874  0.0318  0.2545  0.0640
 3616DPPE   C2A65250  15.194  15.076  15.375  0.4203  0.1754 -0.0255
 3616DPPE   C3A65251  15.113  15.021  14.956  0.0158  0.0964  0.0654
 3616DPPE   C4A65252  15.158  15.058  14.607  0.1393  0.2144 -0.3757
 3616DPPE   C1B65253  14.739  14.624  16.035 -0.0531  0.2459  0.2410
 3616DPPE   C2B65254  14.701  14.759  15.585 -0.0809  0.0108 -0.1761
 3616DPPE   C3B65255  14.757  14.787  15.157  0.2068  0.1434 -0.3883
 3616DPPE   C4B65256  14.687  14.874  14.777 -0.1876  0.2210 -0.0186
 3617DPPE   NH365257  17.854  10.589  17.730  0.0495  0.0738  0.0951
 3617DPPE   PO465258  18.204  10.862  17.631  0.0021 -0.1865  0.0754
 3617DPPE   GL165259  18.344  10.492  17.258 -0.1803 -0.0607 -0.4157
 3617DPPE   GL265260  18.217  10.237  17.422  0.0360 -0.2433 -0.1143
 3617DPPE   C1A65261  18.449  10.402  16.946  0.1739  0.0336  0.0273
 3617DPPE   C2A65262  18.731  10.143  16.815  0.4821 -0.2143 -0.0104
 3617DPPE   C3A65263  18.845   9.823  17.061  0.0868 -0.0768  0.1449
 3617DPPE   C4A65264  19.235   9.544  17.217  0.0944 -0.2172  0.0497
 3617DPPE   C1B65265  18.363   9.919  17.347 -0.1652  0.0866 -0.1275
 3617DPPE   C2B65266  18.540   9.625  17.423 -0.1388 -0.2185  0.0626
 3617DPPE   C3B65267  18.731   9.223  17.165 -0.0266 -0.0443  0.2224
 3617DPPE   C4B65268  19.100   9.148  16.921 -0.1426 -0.1556  0.0032
 3618DPPE   NH365269   9.865  25.232  17.800 -0.0216 -0.2559 -0.2465
 3618DPPE   PO465270  10.252  25.406  17.705 -0.0628 -0.2146 -0.1130
 3618DPPE   GL165271  10.230  25.730  17.497 -0.0354 -0.3491 -0.1145
 3618DPPE   GL265272  10.056  25.621  17.254  0.0881 -0.1347 -0.5776
 3618DPPE   C1A65273  10.099  26.082  17.540 -0.0074 -0.0814  0.3231
 3618DPPE   C2A65274   9.874  26.378  17.887  0.1681 -0.0474 -0.0335
 3618DPPE   C3A65275   9.567  26.626  17.833 -0.1047  0.2352 -0.0433
 3618DPPE   C4A65276   9.323  26.945  17.683  0.0192 -0.1789  0.4733
 3618DPPE   C1B65277   9.771  25.644  16.920 -0.0246  0.0754  0.2625
 3618DPPE   C2B65278   9.521  25.543  16.545 -0.2178  0.0133  0.0402
 3618DPPE   C3B65279   9.352  25.409  16.087  0.1108 -0.1006 -0.1297
 3618DPPE   C4B65280   9.488  25.263  15.794 -0.0139 -0.1490  0.0759
 3619DPPE   NH365281  14.031  16.569  16.761  0.2114 -0.0564  0.1644
 3619DPPE   PO465282  13.981  16.202  16.768  0.1543  0.2551  0.0606
 3619DPPE   GL165283  13.858  15.983  16.388  0.0288 -0.0989  0.0330
 3619DPPE   GL265284  13.881  15.733  16.233 -0.2589  0.0676 -0.2441
 3619DPPE   C1A65285  13.501  16.213  16.116  0.0559 -0.1722  0.2900
 3619DPPE   C2A65286  13.266  16.153  15.722  0.1787  0.1288 -0.1107
 3619DPPE   C3A65287  13.348  15.981  15.309 -0.0568 -0.3854 -0.0058
 3619DPPE   C4A65288  13.228  15.965  14.874 -0.2069 -0.1942 -0.5289
 3619DPPE   C1B65289  13.834  15.859  15.823  0.0571  0.2573  0.0001
 3619DPPE   C2B65290  13.855  15.858  15.358 -0.1059 -0.0153 -0.1520
 3619DPPE   C3B65291  13.764  15.744  14.988  0.0745 -0.3285  0.1502
 3619DPPE   C4B65292  13.536  15.482  14.654  0.0628 -0.0549 -0.0933
 3620DPPE   NH365293   9.921  23.667  17.372  0.1260 -0.0912  0.1926
 3620DPPE   PO465294   9.977  24.131  17.548 -0.0562 -0.0654  0.0551
 3620DPPE   GL165295   9.794  24.061  17.083  0.0489  0.2003  0.0141
 3620DPPE   GL265296   9.484  24.247  17.049  0.0142  0.0183  0.1648
 3620DPPE   C1A65297   9.870  23.949  16.641 -0.2077 -0.2981  0.1728
 3620DPPE   C2A65298   9.851  24.166  16.302  0.0514 -0.2868  0.0014
 3620DPPE   C3A65299   9.791  24.556  15.999  0.0617 -0.0193 -0.1238
 3620DPPE   C4A65300   9.682  24.442  15.500  0.3790  0.0076 -0.0320
 3620DPPE   C1B65301   9.413  24.078  16.659 -0.0303  0.3020 -0.0186
 3620DPPE   C2B65302   9.041  23.986  16.367 -0.1755  0.3621 -0.0144
 3620DPPE   C3B65303   8.655  23.980  16.220 -0.2516  0.0149 -0.1649
 3620DPPE   C4B65304   8.378  24.258  16.052  0.0982  0.1682 -0.1582
 3621DPPE   NH365305  14.167  19.064  16.871  0.1147  0.2615 -0.2884
 3621DPPE   PO465306  13.809  19.320  17.184 -0.2672 -0.2626  0.4176
 3621DPPE   GL165307  13.749  19.422  16.788  0.1855 -0.2386  0.0143
 3621DPPE   GL265308  14.082  19.511  16.707  0.0614 -0.0803  0.0721
 3621DPPE   C1A65309  13.656  19.315  16.350 -0.0403  0.2474 -0.3018
 3621DPPE   C2A65310  13.621  19.260  15.926  0.0821  0.0951 -0.0516
 3621DPPE   C3A65311  13.562  19.249  15.533  0.1653  0.0863 -0.0476
 3621DPPE   C4A65312  13.560  19.158  15.097  0.1034  0.1043  0.4856
 3621DPPE   C1B65313  14.100  19.526  16.230  0.0481 -0.1559  0.0545
 3621DPPE   C2B65314  14.009  19.512  15.720 -0.3562 -0.1797 -0.1813
 3621DPPE   C3B65315  13.989  19.535  15.229 -0.2302 -0.1101  0.2605
 3621DPPE   C4B65316  14.124  19.566  14.813  0.2601  0.0111 -0.1197
 3622DPPE   NH365317  13.806  20.319  17.296  0.3445 -0.0185  0.0487
 3622DPPE   PO465318  14.184  20.202  17.174  0.0648  0.3463 -0.0442
 3622DPPE   GL165319  14.267  20.365  16.823  0.0876 -0.0652  0.1189
 3622DPPE   GL265320  14.200  20.060  16.624  0.1163  0.2478 -0.2829
 3622DPPE   C1A65321  14.310  20.523  16.352 -0.0709  0.0123 -0.4527
 3622DPPE   C2A65322  14.199  20.472  15.952 -0.4435 -0.2538 -0.1222
 3622DPPE   C3A65323  14.084  20.458  15.504 -0.2031 -0.2037 -0.0762
 3622DPPE   C4A65324  14.035  20.517  15.056 -0.0991 -0.1786  0.2086
 3622DPPE   C1B65325  14.142  20.017  16.169 -0.0133  0.0350 -0.0197
 3622DPPE   C2B65326  14.110  19.927  15.839 -0.1224 -0.1756 -0.3053
 3622DPPE   C3B65327  14.066  19.969  15.401  0.3299  0.2873 -0.0059
 3622DPPE   C4B65328  13.954  20.030  15.008 -0.2350  0.0018 -0.1327
 3623DPPE   NH365329  19.896  13.629  17.360 -0.0165 -0.1777 -0.0937
 3623DPPE   PO465330  19.658  13.932  17.371  0.3042  0.3198  0.1982
 3623DPPE   GL165331  19.618  13.716  16.918  0.1380 -0.0442 -0.0060
 3623DPPE   GL265332  19.434  13.432  16.794 -0.1026  0.1129  0.1955
 3623DPPE   C1A65333  19.847  13.596  16.533 -0.1554 -0.1310  0.2254
 3623DPPE   C2A65334  20.049  13.416  16.194 -0.1868 -0.0726  0.0601
 3623DPPE   C3A65335  20.141  13.394  15.713  0.0882  0.1393  0.1862
 3623DPPE   C4A65336  20.369  13.473  15.370  0.1876 -0.0015  0.0947
 3623DPPE   C1B65337  19.585  13.203  16.376 -0.2057  0.1722  0.0214
 3623DPPE   C2B65338  19.540  12.894  15.983  0.2434  0.0895  0.2130
 3623DPPE   C3B65339  19.744  12.718  15.633 -0.0929 -0.2734 -0.0327
 3623DPPE   C4B65340  20.101  12.642  15.366 -0.2794  0.0410 -0.0082
 3624DPPE   NH365341  13.745   8.700  16.969 -0.2597 -0.2445  0.1022
 3624DPPE   PO465342  14.106   8.754  17.071 -0.1751 -0.1022  0.1636
 3624DPPE   GL165343  14.416   8.402  17.284  0.0851 -0.0287  0.2519
 3624DPPE   GL265344  14.630   8.429  17.159 -0.0708 -0.0807 -0.0202
 3624DPPE   C1A65345  14.417   7.888  17.353  0.2775  0.1680 -0.0839
 3624DPPE   C2A65346  14.509   7.625  17.116  0.0054  0.2927  0.2886
 3624DPPE   C3A65347  14.761   7.547  16.674 -0.2178 -0.1477 -0.0592
 3624DPPE   C4A65348  15.073   7.597  16.321  0.0390 -0.1205  0.0543
 3624DPPE   C1B65349  15.075   8.277  17.192  0.0127  0.1371 -0.2837
 3624DPPE   C2B65350  15.348   8.265  17.543  0.2284  0.0287  0.1954
 3624DPPE   C3B65351  15.454   7.933  17.737  0.0088  0.0717  0.0533
 3624DPPE   C4B65352  15.592   7.655  18.131  0.0194 -0.0194  0.2148
 3625DPPE   NH365353   8.647  12.073  17.970  0.0713  0.0187 -0.1480
 3625DPPE   PO465354   8.389  12.103  17.564 -0.4838  0.0745  0.2191
 3625DPPE   GL165355   8.137  11.886  17.230 -0.0486 -0.2190  0.0204
 3625DPPE   GL265356   8.324  11.641  17.078 -0.0083  0.0448 -0.0066
 3625DPPE   C1A65357   7.892  11.817  16.899  0.2281  0.0459  0.0833
 3625DPPE   C2A65358   7.767  11.474  16.706  0.2149  0.1778  0.0424
 3625DPPE   C3A65359   7.480  11.069  16.645  0.2699 -0.3538 -0.0806
 3625DPPE   C4A65360   7.175  10.819  16.443 -0.0673 -0.0322 -0.0452
 3625DPPE   C1B65361   8.253  11.524  16.583 -0.2279  0.0154  0.0796
 3625DPPE   C2B65362   8.263  11.402  16.213 -0.1233 -0.0307  0.0124
 3625DPPE   C3B65363   7.984  11.405  15.847 -0.4773  0.2292  0.2110
 3625DPPE   C4B65364   7.624  11.335  15.652 -0.0080  0.1530 -0.2948
 3626DPPE   NH365365  17.344  11.908  17.344 -0.4159 -0.2509  0.0368
 3626DPPE   PO465366  17.790  11.945  17.220 -0.1569 -0.1403 -0.0892
 3626DPPE   GL165367  18.014  11.879  16.683 -0.2012  0.0898  0.1260
 3626DPPE   GL265368  18.307  11.752  16.619  0.2416  0.0497 -0.0162
 3626DPPE   C1A65369  17.944  11.463  16.317  0.2062 -0.0908 -0.2834
 3626DPPE   C2A65370  18.102  11.483  15.977  0.0388 -0.0683 -0.0564
 3626DPPE   C3A65371  18.066  11.291  15.457 -0.1527 -0.0518  0.0329
 3626DPPE   C4A65372  18.473  11.149  15.196 -0.1051  0.3847  0.1301
 3626DPPE   C1B65373  18.413  11.351  16.340  0.0887 -0.1733 -0.0796
 3626DPPE   C2B65374  18.560  10.949  16.176 -0.0632  0.3286 -0.1178
 3626DPPE   C3B65375  19.008  10.794  16.063  0.2204 -0.1482 -0.2054
 3626DPPE   C4B65376  19.526  10.702  16.241  0.0797 -0.0813 -0.4600
 3627DPPE   NH365377   6.402  16.485  17.276 -0.3616  0.2737  0.0570
 3627DPPE   PO465378   6.052  16.239  17.250  0.1172 -0.0710 -0.1208
 3627DPPE   GL165379   6.054  16.261  16.849 -0.0234 -0.0406 -0.1764
 3627DPPE   GL265380   6.307  16.365  16.844  0.3664  0.0132  0.3133
 3627DPPE   C1A65381   6.034  16.247  16.373  0.0367 -0.1418 -0.0731
 3627DPPE   C2A65382   6.256  16.237  15.999 -0.1256 -0.0593 -0.0674
 3627DPPE   C3A65383   6.367  16.096  15.622  0.0030 -0.0672  0.0113
 3627DPPE   C4A65384   6.519  15.757  15.343  0.0602 -0.1453 -0.0697
 3627DPPE   C1B65385   6.211  16.806  16.592  0.0485 -0.1837 -0.2848
 3627DPPE   C2B65386   5.938  17.109  16.416  0.1115 -0.1092  0.0921
 3627DPPE   C3B65387   5.914  17.164  15.903 -0.4371  0.2943  0.1200
 3627DPPE   C4B65388   6.094  17.201  15.568  0.0435  0.0770  0.1681
 3628DPPE   NH365389  18.877  16.905  16.330  0.1685 -0.0544 -0.0869
 3628DPPE   PO465390  19.244  17.260  16.397  0.1408  0.4846 -0.2794
 3628DPPE   GL165391  19.469  17.446  16.112  0.0633  0.1948 -0.2802
 3628DPPE   GL265392  19.422  17.809  16.109  0.2148  0.1586 -0.2511
 3628DPPE   C1A65393  19.667  17.483  15.663  0.1208 -0.0279  0.0444
 3628DPPE   C2A65394  19.877  17.459  15.260 -0.2593 -0.1167  0.2068
 3628DPPE   C3A65395  20.217  17.464  15.057  0.0515  0.2217  0.4639
 3628DPPE   C4A65396  20.318  17.541  14.626  0.2666  0.0581 -0.1290
 3628DPPE   C1B65397  19.702  18.073  15.870 -0.0642 -0.0385 -0.0236
 3628DPPE   C2B65398  20.185  18.181  15.916  0.2057  0.0460 -0.1123
 3628DPPE   C3B65399  20.498  17.932  15.830  0.0390  0.1594 -0.0394
 3628DPPE   C4B65400  20.752  17.616  15.539 -0.1652 -0.1783 -0.3943
 3629DPPE   NH365401  15.339  17.933  17.162 -0.0341  0.0789  0.1208
 3629DPPE   PO465402  15.700  17.638  17.403 -0.1700  0.0323 -0.1408
 3629DPPE   GL165403  15.781  17.714  16.977 -0.0434  0.0347 -0.3486
 3629DPPE   GL265404  16.066  17.786  16.738  0.2074 -0.2833  0.0369
 3629DPPE   C1A65405  15.741  17.648  16.421  0.1383  0.1591 -0.3079
 3629DPPE   C2A65406  15.644  17.791  16.005  0.2318  0.0229 -0.1221
 3629DPPE   C3A65407  15.637  17.789  15.564  0.1291 -0.1005 -0.2037
 3629DPPE   C4A65408  15.738  17.749  15.206  0.1250  0.0635  0.0757
 3629DPPE   C1B65409  16.169  17.424  16.459  0.1346 -0.0875 -0.1806
 3629DPPE   C2B65410  16.192  17.456  16.006  0.0257 -0.0031  0.0581
 3629DPPE   C3B65411  16.173  17.499  15.569 -0.0455 -0.1631 -0.0153
 3629DPPE   C4B65412  16.180  17.472  15.071  0.0271 -0.2498  0.0680
 3630DPPE   NH365413  16.982  19.224  16.908  0.0870  0.0209  0.1090
 3630DPPE   PO465414  17.339  19.346  17.097  0.1950  0.0024 -0.2226
 3630DPPE   GL165415  17.335  19.496  16.628  0.0546 -0.1907  0.0683
 3630DPPE   GL265416  17.650  19.721  16.480  0.1063  0.1014  0.0163
 3630DPPE   C1A65417  17.226  19.521  16.226  0.0290  0.3343 -0.0754
 3630DPPE   C2A65418  17.176  19.556  15.783  0.0342 -0.1113 -0.0308
 3630DPPE   C3A65419  17.189  19.563  15.321  0.0089 -0.4656 -0.2380
 3630DPPE   C4A65420  17.079  19.521  14.960 -0.3841 -0.0686  0.1295
 3630DPPE   C1B65421  17.603  19.739  15.941 -0.1502  0.4621  0.1591
 3630DPPE   C2B65422  17.587  19.835  15.510 -0.1649  0.6614  0.2789
 3630DPPE   C3B65423  17.579  19.644  15.033 -0.0885  0.0364 -0.0066
 3630DPPE   C4B65424  17.497  19.684  14.639  0.5705 -0.3290  0.2026
 3631DPPE   NH365425  14.439  18.185  16.794 -0.1541  0.2978 -0.0406
 3631DPPE   PO465426  14.289  18.528  16.780  0.5556 -0.3935  0.3053
 3631DPPE   GL165427  14.478  18.775  16.422  0.0401  0.0624  0.1728
 3631DPPE   GL265428  14.458  19.107  16.417 -0.2869 -0.1442  0.2348
 3631DPPE   C1A65429  14.444  18.737  15.929 -0.0193  0.0636  0.1298
 3631DPPE   C2A65430  14.446  18.734  15.384  0.1240 -0.2309  0.0679
 3631DPPE   C3A65431  14.360  18.712  14.940 -0.3503  0.1159 -0.1104
 3631DPPE   C4A65432  14.453  18.561  14.487 -0.0298  0.1264 -0.4256
 3631DPPE   C1B65433  14.444  19.224  15.992 -0.1824  0.2282  0.1631
 3631DPPE   C2B65434  14.478  19.294  15.535 -0.1312  0.0867  0.1958
 3631DPPE   C3B65435  14.492  19.221  15.067 -0.2048 -0.2930 -0.0021
 3631DPPE   C4B65436  14.827  19.176  14.751 -0.0843 -0.1451  0.0239
 3632DPPE   NH365437  11.910  24.681  17.862 -0.1477 -0.0187 -0.2656
 3632DPPE   PO465438  11.539  24.606  17.528  0.0933 -0.0743  0.2261
 3632DPPE   GL165439  11.596  24.709  17.108  0.0876 -0.4112 -0.2300
 3632DPPE   GL265440  11.616  25.050  16.998 -0.3712  0.1632  0.1476
 3632DPPE   C1A65441  11.659  24.740  16.635 -0.1573 -0.1431  0.0243
 3632DPPE   C2A65442  11.602  24.975  16.235  0.0307  0.1992  0.1163
 3632DPPE   C3A65443  11.620  24.987  15.879 -0.0478  0.0431  0.0020
 3632DPPE   C4A65444  11.622  25.094  15.434  0.1076  0.3859  0.2932
 3632DPPE   C1B65445  11.406  25.228  16.669  0.0264  0.2788 -0.1794
 3632DPPE   C2B65446  11.399  25.397  16.220 -0.0969  0.0299 -0.0889
 3632DPPE   C3B65447  11.461  25.524  15.884 -0.4559  0.1182 -0.4213
 3632DPPE   C4B65448  11.316  25.939  15.559  0.1989 -0.2154 -0.0625
 3633DPPE   NH365449   7.273  19.849  18.391 -0.1700 -0.1094  0.1125
 3633DPPE   PO465450   7.442  20.144  17.983 -0.0121  0.1287  0.3119
 3633DPPE   GL165451   7.370  20.196  17.471  0.0680 -0.1131 -0.3030
 3633DPPE   GL265452   7.085  20.241  17.384  0.0801 -0.2108  0.0361
 3633DPPE   C1A65453   7.360  20.314  16.971 -0.1468 -0.2272  0.0891
 3633DPPE   C2A65454   7.606  20.432  16.546 -0.0094  0.2461  0.0665
 3633DPPE   C3A65455   7.778  20.337  16.159  0.0689 -0.1579  0.0758
 3633DPPE   C4A65456   7.690  20.112  15.822 -0.2954  0.3180 -0.0781
 3633DPPE   C1B65457   7.024  19.975  17.076  0.0331 -0.0542 -0.1665
 3633DPPE   C2B65458   6.926  19.925  16.580 -0.1655  0.0019 -0.1631
 3633DPPE   C3B65459   6.838  20.064  16.209 -0.0805  0.0704 -0.2683
 3633DPPE   C4B65460   6.994  20.049  15.793  0.2362 -0.0713 -0.1357
 3634DPPE   NH365461   8.825  10.710  17.861  0.0184 -0.0939 -0.1136
 3634DPPE   PO465462   8.908  10.323  18.042 -0.1300  0.1019  0.1252
 3634DPPE   GL165463   8.779   9.849  17.973 -0.1457 -0.1373 -0.0840
 3634DPPE   GL265464   8.748   9.683  18.224 -0.1705  0.0489  0.3091
 3634DPPE   C1A65465   9.041   9.399  17.896  0.1117 -0.3216 -0.1773
 3634DPPE   C2A65466   9.187   8.916  18.100  0.2331  0.1186 -0.2252
 3634DPPE   C3A65467   8.943   8.734  18.417  0.2711 -0.0309  0.0980
 3634DPPE   C4A65468   8.798   8.455  18.694  0.1701 -0.0347  0.0088
 3634DPPE   C1B65469   8.623   9.434  18.615 -0.1937 -0.0036  0.1837
 3634DPPE   C2B65470   8.983   9.343  18.912 -0.1434 -0.0150 -0.2690
 3634DPPE   C3B65471   9.463   9.170  18.890  0.0908 -0.0951  0.1673
 3634DPPE   C4B65472   9.696   9.364  19.282 -0.0921  0.0253 -0.1612
 3635DPPE   NH365473  15.124  15.906  16.662 -0.0160  0.1355  0.3705
 3635DPPE   PO465474  15.214  15.500  16.876  0.0206 -0.1536  0.3644
 3635DPPE   GL165475  15.378  15.513  16.471 -0.0666 -0.0563  0.0928
 3635DPPE   GL265476  15.202  15.446  16.176  0.0672 -0.0982 -0.1615
 3635DPPE   C1A65477  15.619  15.645  16.030  0.0411  0.3423 -0.2161
 3635DPPE   C2A65478  15.602  15.712  15.635  0.0527  0.1026 -0.2265
 3635DPPE   C3A65479  15.682  15.679  15.277  0.0355 -0.0180 -0.0303
 3635DPPE   C4A65480  15.600  15.801  14.862  0.1032  0.0237 -0.2356
 3635DPPE   C1B65481  15.128  15.501  15.719 -0.1156  0.0774 -0.0360
 3635DPPE   C2B65482  15.188  15.599  15.263 -0.1459 -0.4395 -0.0743
 3635DPPE   C3B65483  15.005  15.580  14.798 -0.0083  0.0757  0.0904
 3635DPPE   C4B65484  15.277  15.748  14.533  0.0755 -0.1259 -0.0594
 3636DPPE   NH365485  10.031  11.364  17.898 -0.1461 -0.3198 -0.0291
 3636DPPE   PO465486  10.033  10.912  17.720 -0.1840  0.0607  0.0317
 3636DPPE   GL165487   9.970  10.813  17.234  0.4292 -0.2659 -0.1653
 3636DPPE   GL265488   9.627  10.806  17.105  0.1399  0.3072  0.2173
 3636DPPE   C1A65489   9.969  11.136  16.841  0.1891  0.1512  0.0237
 3636DPPE   C2A65490  10.043  11.449  16.572 -0.3917  0.0796 -0.4206
 3636DPPE   C3A65491  10.227  11.519  16.230 -0.1698 -0.0215  0.1235
 3636DPPE   C4A65492  10.614  11.468  16.129 -0.0692 -0.2987  0.1314
 3636DPPE   C1B65493   9.518  10.872  16.664  0.1243  0.1665 -0.2426
 3636DPPE   C2B65494   9.813  11.044  16.352 -0.1117 -0.0082 -0.0297
 3636DPPE   C3B65495   9.725  11.287  16.086  0.0817 -0.2047 -0.2839
 3636DPPE   C4B65496   9.979  11.369  15.735 -0.1869 -0.2142  0.4775
 3637DPPE   NH365497  15.038  16.614  16.916 -0.0655 -0.4306  0.0536
 3637DPPE   PO465498  15.406  16.385  16.801  0.1584 -0.0947  0.2487
 3637DPPE   GL165499  15.272  16.415  16.349 -0.1808 -0.1803  0.2025
 3637DPPE   GL265500  15.059  16.345  16.427 -0.2012 -0.1744  0.0816
 3637DPPE   C1A65501  15.223  16.498  15.889  0.2493  0.0869 -0.2566
 3637DPPE   C2A65502  15.218  16.521  15.512 -0.0778 -0.1648  0.0434
 3637DPPE   C3A65503  15.110  16.648  15.081 -0.0295 -0.1390 -0.0735
 3637DPPE   C4A65504  14.941  16.898  14.668  0.1461  0.3774 -0.1308
 3637DPPE   C1B65505  14.788  16.278  16.019  0.1257  0.1278 -0.0251
 3637DPPE   C2B65506  14.796  16.235  15.645  0.2667  0.2822  0.3389
 3637DPPE   C3B65507  14.782  16.340  15.207 -0.2286  0.1926 -0.0706
 3637DPPE   C4B65508  14.645  16.456  14.792  0.0430 -0.0816 -0.1332
 3638DPPE   NH365509  13.165  15.913  17.275  0.2189 -0.2869  0.0675
 3638DPPE   PO465510  13.119  15.446  17.450  0.0823 -0.3572 -0.5004
 3638DPPE   GL165511  12.953  15.461  16.961 -0.1578  0.1311 -0.1157
 3638DPPE   GL265512  12.909  15.124  16.832  0.0838 -0.0617 -0.1464
 3638DPPE   C1A65513  12.851  15.577  16.626 -0.1786  0.2660 -0.1567
 3638DPPE   C2A65514  12.866  15.817  16.274  0.3871 -0.1339 -0.2542
 3638DPPE   C3A65515  12.902  15.882  15.821 -0.2772 -0.3519 -0.2692
 3638DPPE   C4A65516  12.894  15.788  15.357  0.1201  0.1495  0.0396
 3638DPPE   C1B65517  12.552  15.165  16.545  0.0701  0.1532  0.1303
 3638DPPE   C2B65518  12.441  15.116  16.076 -0.0073 -0.0988 -0.1383
 3638DPPE   C3B65519  12.449  15.105  15.596  0.4489 -0.1826 -0.2793
 3638DPPE   C4B65520  12.322  14.999  15.202 -0.0096  0.0812  0.1295
 3639DPPE   NH365521   8.278  16.701  17.692 -0.1240  0.0416 -0.3256
 3639DPPE   PO465522   7.964  16.366  17.705 -0.0256 -0.0460 -0.2620
 3639DPPE   GL165523   7.885  16.589  17.348 -0.0193 -0.0331 -0.2079
 3639DPPE   GL265524   7.625  16.419  17.158  0.1338 -0.1571  0.1349
 3639DPPE   C1A65525   8.058  16.587  16.897  0.2054 -0.0344 -0.0678
 3639DPPE   C2A65526   8.235  16.606  16.555 -0.1732  0.0088 -0.4392
 3639DPPE   C3A65527   8.438  16.356  16.319  0.3620 -0.0159  0.1943
 3639DPPE   C4A65528   8.319  16.108  15.961 -0.1562 -0.0347  0.1998
 3639DPPE   C1B65529   7.547  16.327  16.781 -0.0037  0.0725 -0.0697
 3639DPPE   C2B65530   7.600  16.224  16.291  0.2430  0.2152 -0.1187
 3639DPPE   C3B65531   7.820  16.121  15.906  0.0721 -0.0576  0.4281
 3639DPPE   C4B65532   8.027  15.941  15.567  0.1171 -0.2329  0.2298
 3640DPPE   NH365533  13.929  15.837  17.293  0.3674 -0.1007  0.0280
 3640DPPE   PO465534  13.544  15.631  17.151 -0.1860 -0.0054  0.2156
 3640DPPE   GL165535  13.402  15.283  16.807 -0.0394  0.1184  0.1007
 3640DPPE   GL265536  13.467  14.922  16.832 -0.0948 -0.3890 -0.0263
 3640DPPE   C1A65537  13.178  15.243  16.444 -0.1196  0.0366  0.0746
 3640DPPE   C2A65538  12.965  15.331  16.097 -0.0990  0.2756 -0.1405
 3640DPPE   C3A65539  12.855  15.372  15.682 -0.1252  0.2887 -0.0677
 3640DPPE   C4A65540  12.810  15.322  15.253  0.1790 -0.0920  0.0129
 3640DPPE   C1B65541  13.502  14.868  16.434  0.1572  0.1490 -0.0229
 3640DPPE   C2B65542  13.341  14.636  16.072 -0.1430  0.2277  0.1871
 3640DPPE   C3B65543  13.240  14.638  15.656 -0.4194  0.1876  0.0340
 3640DPPE   C4B65544  13.366  14.547  15.298 -0.3195  0.5785  0.3834
 3641DPPE   NH365545  12.577  12.782  17.201  0.0203 -0.1372  0.2905
 3641DPPE   PO465546  12.307  12.568  17.307  0.2845 -0.0353 -0.4411
 3641DPPE   GL165547  11.949  12.611  16.998 -0.0164 -0.2594 -0.2798
 3641DPPE   GL265548  11.769  12.287  16.806 -0.1514 -0.0399  0.1295
 3641DPPE   C1A65549  11.846  12.754  16.594  0.1860 -0.0445 -0.2479
 3641DPPE   C2A65550  11.845  12.908  16.259  0.0137  0.0023  0.2224
 3641DPPE   C3A65551  11.847  12.837  15.893 -0.3265  0.3578 -0.3065
 3641DPPE   C4A65552  11.837  12.832  15.443  0.2781 -0.1054 -0.0136
 3641DPPE   C1B65553  11.807  12.320  16.335  0.2119 -0.3534  0.2742
 3641DPPE   C2B65554  11.806  12.371  15.896 -0.5251  0.0095 -0.1757
 3641DPPE   C3B65555  11.810  12.296  15.484 -0.1351 -0.0313  0.1043
 3641DPPE   C4B65556  11.657  12.175  15.147  0.2863  0.0284  0.1052
 3642DPPE   NH365557  11.112  16.960  17.609  0.1401  0.1352  0.2378
 3642DPPE   PO465558  11.294  17.196  17.477  0.0284 -0.3248 -0.1619
 3642DPPE   GL165559  11.268  17.337  17.059 -0.1707 -0.0212  0.0837
 3642DPPE   GL265560  11.572  17.165  16.983 -0.1436  0.2642 -0.1862
 3642DPPE   C1A65561  11.244  17.544  16.693  0.3144 -0.0455 -0.0747
 3642DPPE   C2A65562  11.186  17.571  16.348 -0.1725  0.1361 -0.3792
 3642DPPE   C3A65563  11.182  17.562  15.955 -0.0064 -0.1569  0.1352
 3642DPPE   C4A65564  11.204  17.550  15.489  0.1941 -0.2682 -0.1120
 3642DPPE   C1B65565  11.577  17.309  16.449  0.0653  0.2610  0.1346
 3642DPPE   C2B65566  11.676  17.285  15.998  0.1222 -0.1731 -0.0862
 3642DPPE   C3B65567  11.606  17.229  15.582 -0.2271  0.1538 -0.0038
 3642DPPE   C4B65568  11.525  17.329  15.115  0.0931 -0.1829 -0.0443
 3643DPPE   NH365569  14.188  12.242  17.404 -0.0251  0.0839  0.0679
 3643DPPE   PO465570  14.464  11.991  17.357  0.1792 -0.0382  0.4016
 3643DPPE   GL165571  14.314  11.848  16.893 -0.2370 -0.1510  0.1242
 3643DPPE   GL265572  14.360  11.561  16.951  0.0566 -0.0785  0.2999
 3643DPPE   C1A65573  14.078  11.854  16.537 -0.1354  0.2188 -0.3358
 3643DPPE   C2A65574  14.045  11.977  16.081 -0.0130 -0.0992  0.0977
 3643DPPE   C3A65575  13.931  11.876  15.637 -0.2367 -0.1006 -0.0457
 3643DPPE   C4A65576  13.992  11.874  15.272 -0.1218 -0.2249  0.4814
 3643DPPE   C1B65577  14.582  11.530  16.582  0.2364  0.1890  0.1481
 3643DPPE   C2B65578  14.470  11.619  16.091  0.2484 -0.0780  0.1370
 3643DPPE   C3B65579  14.432  11.727  15.734  0.1430 -0.0662 -0.0156
 3643DPPE   C4B65580  14.543  11.599  15.356 -0.1157 -0.2185 -0.1992
 3644DPPE   NH365581  13.390  12.543  17.070 -0.0766 -0.3005 -0.0901
 3644DPPE   PO465582  13.691  12.417  17.474 -0.0246  0.1688 -0.0049
 3644DPPE   GL165583  13.786  12.129  17.116 -0.3638  0.0006 -0.1393
 3644DPPE   GL265584  14.017  12.262  16.942 -0.1963 -0.0200 -0.1468
 3644DPPE   C1A65585  13.647  12.024  16.656 -0.1702  0.0867 -0.0688
 3644DPPE   C2A65586  13.628  12.145  16.363 -0.5319 -0.1268 -0.0274
 3644DPPE   C3A65587  13.615  12.221  16.013 -0.2081 -0.5599  0.1863
 3644DPPE   C4A65588  13.577  12.167  15.462 -0.1681  0.3892 -0.2541
 3644DPPE   C1B65589  14.168  12.444  16.510 -0.1712  0.0452 -0.3649
 3644DPPE   C2B65590  14.024  12.495  16.106 -0.2974  0.1458  0.2289
 3644DPPE   C3B65591  13.983  12.420  15.674  0.1617  0.0050  0.2040
 3644DPPE   C4B65592  14.088  12.423  15.173  0.2421  0.0747 -0.0527
 3645DPPE   NH365593  14.071  15.715  16.796 -0.2136  0.0843  0.4094
 3645DPPE   PO465594  13.827  15.287  16.963 -0.1275  0.0914 -0.0568
 3645DPPE   GL165595  13.824  15.278  16.520 -0.1539  0.0978 -0.3221
 3645DPPE   GL265596  13.652  15.325  16.355 -0.3329 -0.1436  0.1981
 3645DPPE   C1A65597  13.888  15.338  15.927  0.0697 -0.2052 -0.0913
 3645DPPE   C2A65598  13.789  15.251  15.542 -0.0028 -0.0939 -0.1913
 3645DPPE   C3A65599  13.837  15.269  15.115  0.1988 -0.1239  0.1989
 3645DPPE   C4A65600  14.014  15.325  14.755  0.0160 -0.1934 -0.4081
 3645DPPE   C1B65601  13.424  15.144  15.972  0.0394  0.1124 -0.0898
 3645DPPE   C2B65602  13.250  15.110  15.554 -0.2146 -0.0907 -0.0464
 3645DPPE   C3B65603  13.298  14.993  15.112  0.1177 -0.0986 -0.2203
 3645DPPE   C4B65604  13.085  14.755  14.823 -0.0347 -0.1003 -0.2562
 3646DPPE   NH365605   7.269  12.841  18.063  0.0911  0.2687  0.1290
 3646DPPE   PO465606   7.353  13.005  17.666  0.2884  0.3017 -0.1189
 3646DPPE   GL165607   7.152  12.734  17.297 -0.1492 -0.0341  0.1579
 3646DPPE   GL265608   7.451  12.605  17.224 -0.0999 -0.1012 -0.3463
 3646DPPE   C1A65609   6.869  12.430  17.107 -0.1219  0.0696 -0.0914
 3646DPPE   C2A65610   6.513  12.153  16.985 -0.0931  0.1236  0.1174
 3646DPPE   C3A65611   6.093  12.107  16.914  0.0655  0.2709 -0.0560
 3646DPPE   C4A65612   5.676  12.125  17.216 -0.4797 -0.0617  0.1124
 3646DPPE   C1B65613   7.219  12.743  16.831 -0.0225  0.0104 -0.1727
 3646DPPE   C2B65614   7.011  12.505  16.327 -0.0183  0.0964 -0.0363
 3646DPPE   C3B65615   6.765  12.445  16.075  0.1835  0.0334 -0.1549
 3646DPPE   C4B65616   6.763  12.353  15.738 -0.0115  0.1019 -0.0053
 3647DPPE   NH365617  17.082  24.161  17.076  0.1407 -0.1024 -0.2867
 3647DPPE   PO465618  17.320  24.512  16.806  0.0106  0.2115  0.1117
 3647DPPE   GL165619  17.529  24.500  16.398 -0.1390  0.0226  0.1418
 3647DPPE   GL265620  17.661  24.823  16.434 -0.0167 -0.1363 -0.0443
 3647DPPE   C1A65621  17.904  24.380  16.148  0.2094  0.0967 -0.0911
 3647DPPE   C2A65622  18.151  24.356  15.790  0.0768  0.0740  0.2899
 3647DPPE   C3A65623  18.503  24.156  15.665 -0.1840  0.0077 -0.1332
 3647DPPE   C4A65624  18.840  24.224  15.401 -0.1900  0.0048 -0.1707
 3647DPPE   C1B65625  17.888  25.178  16.383  0.1013 -0.0473  0.6008
 3647DPPE   C2B65626  18.062  25.329  16.017 -0.0755  0.1353 -0.1391
 3647DPPE   C3B65627  17.875  25.248  15.644  0.3960 -0.3329  0.1421
 3647DPPE   C4B65628  17.542  25.256  15.403  0.0651  0.1987  0.2862
 3648DPPE   NH365629  16.345  15.837  16.914  0.2096  0.1391  0.0234
 3648DPPE   PO465630  16.614  16.124  16.896  0.0680  0.2191  0.4453
 3648DPPE   GL165631  16.462  16.134  16.474  0.2099 -0.0788 -0.1760
 3648DPPE   GL265632  16.174  16.000  16.426 -0.0838 -0.1372  0.2891
 3648DPPE   C1A65633  16.517  16.127  16.106  0.1137 -0.2757  0.2347
 3648DPPE   C2A65634  16.487  16.184  15.699 -0.2897 -0.1591  0.0616
 3648DPPE   C3A65635  16.485  16.254  15.270 -0.3171 -0.3671 -0.1387
 3648DPPE   C4A65636  16.432  16.156  14.862 -0.1019  0.0550 -0.0972
 3648DPPE   C1B65637  16.045  15.936  15.979  0.1348  0.0855 -0.1854
 3648DPPE   C2B65638  16.080  15.902  15.526  0.0171  0.0042 -0.0362
 3648DPPE   C3B65639  16.024  16.024  15.071 -0.1070 -0.0281  0.0612
 3648DPPE   C4B65640  16.137  15.837  14.702  0.3182 -0.1048  0.2591
 3649DPPE   NH365641  10.078  24.553  17.234 -0.2605 -0.1461  0.0200
 3649DPPE   PO465642   9.844  24.795  17.531 -0.4396 -0.0541  0.2757
 3649DPPE   GL165643   9.815  25.159  17.309  0.3276  0.2000  0.2416
 3649DPPE   GL265644   9.912  25.146  17.016 -0.0471 -0.0474  0.1593
 3649DPPE   C1A65645   9.463  25.408  17.343  0.0848  0.0140  0.0524
 3649DPPE   C2A65646   9.102  25.379  17.601  0.0375 -0.0887 -0.2218
 3649DPPE   C3A65647   8.998  25.564  17.948 -0.3916  0.0129  0.3831
 3649DPPE   C4A65648   9.173  25.766  18.252 -0.2080 -0.2261  0.3435
 3649DPPE   C1B65649   9.462  25.187  16.914  0.0108  0.2121 -0.1290
 3649DPPE   C2B65650   9.176  25.098  16.560 -0.4206 -0.1348  0.2290
 3649DPPE   C3B65651   9.001  25.056  16.254 -0.0587 -0.2218 -0.1011
 3649DPPE   C4B65652   8.978  25.195  15.852 -0.1886 -0.0605  0.2236
 3650DPPE   NH365653  11.973  20.044  17.428 -0.0953  0.1728 -0.0429
 3650DPPE   PO465654  11.966  20.413  17.612  0.2427  0.2213  0.3846
 3650DPPE   GL165655  11.990  20.498  17.135 -0.1076 -0.0249  0.2537
 3650DPPE   GL265656  11.710  20.664  16.906 -0.0438 -0.2911 -0.2393
 3650DPPE   C1A65657  11.971  20.427  16.639 -0.1003 -0.0733  0.3528
 3650DPPE   C2A65658  11.964  20.438  16.193  0.0386  0.4215  0.2166
 3650DPPE   C3A65659  11.982  20.412  15.749  0.1271 -0.2264  0.1713
 3650DPPE   C4A65660  11.870  20.353  15.324  0.2142 -0.0493 -0.1520
 3650DPPE   C1B65661  11.597  20.681  16.446  0.2405 -0.0812 -0.1509
 3650DPPE   C2B65662  11.547  20.701  16.048 -0.2858 -0.2016 -0.1073
 3650DPPE   C3B65663  11.536  20.666  15.602 -0.0234 -0.1286 -0.0207
 3650DPPE   C4B65664  11.613  20.823  15.302  0.1226 -0.1418  0.2362
 3651DPPE   NH365665   7.567  18.959  18.112  0.1868  0.0564  0.0052
 3651DPPE   PO465666   7.446  18.959  17.712  0.1079  0.0023  0.2161
 3651DPPE   GL165667   7.524  19.019  17.315 -0.0984  0.1226  0.4793
 3651DPPE   GL265668   7.294  19.147  17.100 -0.0653 -0.0194 -0.1218
 3651DPPE   C1A65669   7.805  19.073  16.965 -0.3083 -0.3238  0.0530
 3651DPPE   C2A65670   7.951  18.984  16.556 -0.2134  0.1950  0.1377
 3651DPPE   C3A65671   7.828  19.018  16.071  0.1508  0.0484  0.2587
 3651DPPE   C4A65672   7.602  19.191  15.656  0.3982 -0.0567 -0.4045
 3651DPPE   C1B65673   7.474  18.995  16.624 -0.1668  0.0603  0.1631
 3651DPPE   C2B65674   7.427  18.750  16.321  0.2095  0.0396 -0.2336
 3651DPPE   C3B65675   7.192  18.767  15.930  0.0713  0.1051  0.0727
 3651DPPE   C4B65676   6.902  18.742  15.606  0.0831 -0.2145 -0.1131
 3652DPPE   NH365677  15.037  10.047  17.504 -0.2663 -0.2571  0.1917
 3652DPPE   PO465678  15.034   9.671  17.080  0.1798 -0.0998  0.1933
 3652DPPE   GL165679  15.011   9.315  17.017 -0.2486  0.1293  0.1229
 3652DPPE   GL265680  15.108   9.060  17.157  0.1079 -0.0360 -0.1914
 3652DPPE   C1A65681  15.047   9.123  16.564  0.3979  0.0896  0.2265
 3652DPPE   C2A65682  14.820   8.866  16.350 -0.0469 -0.3478  0.1543
 3652DPPE   C3A65683  14.973   8.791  15.893  0.1221  0.3002 -0.3071
 3652DPPE   C4A65684  14.955   9.219  15.748 -0.1169  0.1453 -0.0363
 3652DPPE   C1B65685  15.115   8.773  16.993 -0.1068 -0.0151  0.1419
 3652DPPE   C2B65686  15.260   8.703  16.494 -0.3988  0.0761 -0.2067
 3652DPPE   C3B65687  15.699   8.643  16.400 -0.1559  0.0060  0.2378
 3652DPPE   C4B65688  15.849   8.280  16.449 -0.0249 -0.3915 -0.0186
 3653DPPE   NH365689   9.019  23.561  17.593  0.0257  0.2763  0.0863
 3653DPPE   PO465690   8.769  23.741  17.881  0.4065  0.0057  0.0075
 3653DPPE   GL165691   8.401  23.720  17.637 -0.0725  0.1119 -0.1997
 3653DPPE   GL265692   8.260  24.004  17.777  0.0133  0.1811 -0.0129
 3653DPPE   C1A65693   8.181  23.678  17.123  0.2652 -0.2479  0.0367
 3653DPPE   C2A65694   8.015  23.922  16.878 -0.0262  0.2068 -0.0219
 3653DPPE   C3A65695   7.807  23.962  16.486 -0.1824 -0.5194  0.1226
 3653DPPE   C4A65696   7.735  23.909  16.009 -0.0658 -0.2061  0.0102
 3653DPPE   C1B65697   7.999  24.139  17.339 -0.0091  0.1578 -0.2647
 3653DPPE   C2B65698   7.558  24.328  17.230 -0.0531  0.3142  0.1341
 3653DPPE   C3B65699   7.240  24.481  17.135 -0.0023  0.0434  0.0069
 3653DPPE   C4B65700   7.135  24.846  17.074  0.3990 -0.1697 -0.0719
 3654DPPE   NH365701  19.042  15.968  16.944 -0.0724  0.3140  0.0954
 3654DPPE   PO465702  19.135  16.172  16.574  0.0069 -0.1005 -0.1162
 3654DPPE   GL165703  19.071  16.012  16.158  0.0573 -0.0102  0.1120
 3654DPPE   GL265704  18.870  16.186  15.921 -0.0700  0.0684  0.0021
 3654DPPE   C1A65705  19.232  15.789  15.824 -0.3106 -0.0776 -0.4898
 3654DPPE   C2A65706  19.534  15.691  15.541  0.3233  0.0313 -0.0267
 3654DPPE   C3A65707  19.805  15.361  15.434 -0.1998  0.0983  0.0819
 3654DPPE   C4A65708  20.200  15.068  15.286 -0.2999  0.3104  0.2274
 3654DPPE   C1B65709  18.973  16.535  15.655 -0.0780  0.0505 -0.3066
 3654DPPE   C2B65710  19.297  16.758  15.448  0.0826  0.2231 -0.0979
 3654DPPE   C3B65711  19.362  17.188  15.249 -0.3861 -0.3517 -0.1634
 3654DPPE   C4B65712  19.328  17.519  15.156 -0.2673 -0.0365  0.0093
 3655DPPE   NH365713   7.538  16.106  17.625 -0.0310  0.1167 -0.1866
 3655DPPE   PO465714   7.238  15.812  17.483  0.0049 -0.2200 -0.1237
 3655DPPE   GL165715   7.171  16.011  17.092  0.0502 -0.1064 -0.1227
 3655DPPE   GL265716   7.434  15.879  16.977  0.0121  0.0317 -0.3558
 3655DPPE   C1A65717   7.111  16.134  16.598 -0.0826  0.0248 -0.1216
 3655DPPE   C2A65718   7.124  16.022  16.196 -0.1713 -0.1281 -0.1439
 3655DPPE   C3A65719   7.270  16.079  15.886 -0.0162  0.1099 -0.2656
 3655DPPE   C4A65720   7.494  16.340  15.520  0.4035  0.2893 -0.1715
 3655DPPE   C1B65721   7.469  15.833  16.532 -0.1241  0.0780 -0.1139
 3655DPPE   C2B65722   7.473  15.687  16.075  0.0031 -0.0417 -0.1628
 3655DPPE   C3B65723   7.580  15.653  15.684  0.6120  0.1008  0.2026
 3655DPPE   C4B65724   7.821  15.459  15.376  0.0921  0.0651 -0.1462
 3656DPPE   NH365725  10.152  19.091  17.764 -0.0436  0.1622 -0.1582
 3656DPPE   PO465726  10.007  18.587  17.706 -0.3056 -0.0376  0.2170
 3656DPPE   GL165727   9.969  18.507  17.348  0.0880  0.2553 -0.1387
 3656DPPE   GL265728   9.733  18.667  17.316  0.0853 -0.1505  0.2012
 3656DPPE   C1A65729  10.013  18.501  16.914 -0.2111  0.2415 -0.0337
 3656DPPE   C2A65730  10.022  18.455  16.448  0.1309  0.0760 -0.3585
 3656DPPE   C3A65731  10.063  18.450  16.050 -0.0228 -0.0543  0.2764
 3656DPPE   C4A65732   9.970  18.482  15.655 -0.3676  0.1925 -0.0581
 3656DPPE   C1B65733   9.617  18.853  16.999 -0.4128 -0.0550  0.1577
 3656DPPE   C2B65734   9.634  18.770  16.565 -0.2764  0.0351 -0.1496
 3656DPPE   C3B65735   9.622  18.725  16.165 -0.2155 -0.1121 -0.2567
 3656DPPE   C4B65736   9.556  18.719  15.732  0.2034  0.0162 -0.0859
 3657DPPE   NH365737  15.599  13.943  17.036  0.2522 -0.0001 -0.2405
 3657DPPE   PO465738  15.294  13.589  17.038  0.0880 -0.0677 -0.0817
 3657DPPE   GL165739  15.152  13.525  16.666  0.1206  0.0287 -0.0417
 3657DPPE   GL265740  15.029  13.303  16.589 -0.0305 -0.0053  0.4351
 3657DPPE   C1A65741  14.983  13.467  16.141 -0.0139  0.1474  0.1713
 3657DPPE   C2A65742  14.995  13.400  15.685 -0.3814  0.2715 -0.1134
 3657DPPE   C3A65743  15.073  13.364  15.231  0.1042  0.0195 -0.3481
 3657DPPE   C4A65744  15.344  13.244  14.881  0.0996  0.2136  0.5519
 3657DPPE   C1B65745  14.924  12.970  16.419 -0.1569 -0.2719 -0.1349
 3657DPPE   C2B65746  14.962  12.995  15.973 -0.0848 -0.1580 -0.1019
 3657DPPE   C3B65747  15.017  12.898  15.533 -0.1647 -0.0498  0.1784
 3657DPPE   C4B65748  15.006  12.902  15.100  0.3192  0.0106  0.0456
 3658DPPE   NH365749  19.946  14.850  16.400  0.0242  0.2740 -0.0124
 3658DPPE   PO465750  20.063  14.617  16.725 -0.1471  0.2779 -0.0158
 3658DPPE   GL165751  20.150  14.314  16.466 -0.1658  0.2802 -0.1449
 3658DPPE   GL265752  20.441  14.238  16.485 -0.2229 -0.0268 -0.2769
 3658DPPE   C1A65753  20.087  13.935  16.158 -0.0434 -0.1327 -0.0681
 3658DPPE   C2A65754  19.931  13.899  15.747  0.1044  0.0372  0.1763
 3658DPPE   C3A65755  19.699  13.677  15.388 -0.1095  0.3697  0.0508
 3658DPPE   C4A65756  19.327  13.539  14.995  0.0253 -0.1223 -0.1441
 3658DPPE   C1B65757  20.767  14.172  16.054 -0.0931  0.2007  0.1247
 3658DPPE   C2B65758  21.186  14.310  15.714 -0.1457 -0.1434 -0.3668
 3658DPPE   C3B65759  21.293  14.366  15.271 -0.1311 -0.3167  0.0089
 3658DPPE   C4B65760  21.294  14.385  14.918 -0.0767  0.0786 -0.1260
 3659DPPE   NH365761  12.482  23.466  17.064  0.1104  0.0640 -0.3622
 3659DPPE   PO465762  12.794  23.662  17.189 -0.0939  0.1489  0.0807
 3659DPPE   GL165763  12.747  23.798  16.788 -0.3977 -0.1289 -0.1794
 3659DPPE   GL265764  12.543  23.633  16.593  0.2533  0.0620 -0.2770
 3659DPPE   C1A65765  12.945  23.822  16.371 -0.2314 -0.2017 -0.0408
 3659DPPE   C2A65766  12.892  24.076  16.032  0.0738  0.2060 -0.1733
 3659DPPE   C3A65767  12.671  24.302  15.786 -0.2832 -0.3267 -0.4232
 3659DPPE   C4A65768  12.622  24.463  15.469 -0.0515  0.0786  0.0448
 3659DPPE   C1B65769  12.479  23.787  16.151 -0.1950  0.2531 -0.0592
 3659DPPE   C2B65770  12.688  23.716  15.826  0.1126 -0.1122 -0.0026
 3659DPPE   C3B65771  12.826  23.919  15.570 -0.0810 -0.0057  0.4020
 3659DPPE   C4B65772  12.990  24.234  15.192  0.0776 -0.0672 -0.2160
 3660DPPE   NH365773  10.620  17.399  18.087  0.3547 -0.2695 -0.0524
 3660DPPE   PO465774  10.831  17.348  17.704 -0.0754  0.3359 -0.1939
 3660DPPE   GL165775  10.778  17.263  17.327  0.2295  0.2015 -0.1420
 3660DPPE   GL265776  10.412  17.362  17.204 -0.0985 -0.2194  0.1121
 3660DPPE   C1A65777  10.756  17.367  16.920 -0.2999  0.1455 -0.0407
 3660DPPE   C2A65778  10.741  17.296  16.449  0.0524  0.2608  0.0496
 3660DPPE   C3A65779  10.778  17.294  15.953 -0.5058 -0.2840 -0.0335
 3660DPPE   C4A65780  10.644  17.273  15.614  0.0833 -0.2880 -0.2653
 3660DPPE   C1B65781  10.338  17.093  16.852  0.0376 -0.0969 -0.0612
 3660DPPE   C2B65782  10.226  17.135  16.460  0.0406  0.0105 -0.0742
 3660DPPE   C3B65783  10.332  17.103  16.009 -0.2124  0.0056 -0.1111
 3660DPPE   C4B65784  10.168  17.163  15.641  0.0438  0.0710  0.0838
 3661DPPE   NH365785  14.379  11.262  17.470 -0.3406  0.0803  0.2248
 3661DPPE   PO465786  14.743  11.057  17.501 -0.1616 -0.1677  0.1548
 3661DPPE   GL165787  14.620  11.163  16.960 -0.1159  0.0328 -0.2587
 3661DPPE   GL265788  14.893  11.068  16.715  0.0926  0.2033  0.3275
 3661DPPE   C1A65789  14.432  10.970  16.594 -0.3062 -0.0064 -0.3336
 3661DPPE   C2A65790  14.564  11.014  16.192 -0.2088  0.0191  0.4844
 3661DPPE   C3A65791  14.508  11.102  15.707  0.3107  0.0639 -0.2978
 3661DPPE   C4A65792  14.727  11.173  15.285 -0.1093 -0.2706 -0.1547
 3661DPPE   C1B65793  14.997  11.292  16.305  0.0273 -0.1635  0.3131
 3661DPPE   C2B65794  14.988  11.436  15.819  0.2938 -0.1334  0.1903
 3661DPPE   C3B65795  15.121  11.470  15.359  0.4932 -0.1172 -0.3195
 3661DPPE   C4B65796  14.838  11.565  14.991  0.0343  0.1147  0.1636
 3662DPPE   NH365797  11.913  18.152  17.160 -0.1362  0.0024 -0.0067
 3662DPPE   PO465798  12.249  17.887  17.063 -0.0443 -0.0499 -0.1304
 3662DPPE   GL165799  12.310  17.862  16.637 -0.0808 -0.1739 -0.0615
 3662DPPE   GL265800  12.096  18.089  16.665 -0.1363  0.0532  0.1285
 3662DPPE   C1A65801  12.521  17.817  16.240  0.2277 -0.1824  0.0421
 3662DPPE   C2A65802  12.559  17.622  15.836 -0.2712  0.0012  0.3897
 3662DPPE   C3A65803  12.539  17.630  15.379 -0.1319 -0.0469  0.0627
 3662DPPE   C4A65804  12.480  17.617  14.991 -0.0368 -0.0872  0.3175
 3662DPPE   C1B65805  12.157  18.102  16.177  0.0844 -0.0882 -0.0631
 3662DPPE   C2B65806  12.132  17.951  15.677  0.1461  0.0254  0.1804
 3662DPPE   C3B65807  12.104  17.952  15.295  0.0578 -0.0603  0.1704
 3662DPPE   C4B65808  12.205  18.046  14.858  0.1993 -0.0324 -0.1519
 3663DPPE   NH365809  11.665  24.204  17.275 -0.1838 -0.3059  0.3156
 3663DPPE   PO465810  12.044  24.206  17.185 -0.2895 -0.0814 -0.1681
 3663DPPE   GL165811  11.874  24.333  16.804  0.1896 -0.0544  0.0362
 3663DPPE   GL265812  11.481  24.321  16.794  0.0617 -0.0238 -0.0277
 3663DPPE   C1A65813  12.024  24.541  16.351  0.2235  0.0363 -0.2416
 3663DPPE   C2A65814  11.930  24.596  15.931  0.0043 -0.3944  0.0845
 3663DPPE   C3A65815  12.005  24.787  15.528 -0.1266  0.0296  0.3256
 3663DPPE   C4A65816  11.989  24.964  15.165  0.1329 -0.1625 -0.1413
 3663DPPE   C1B65817  11.512  24.243  16.476  0.1585  0.3162  0.2492
 3663DPPE   C2B65818  11.467  24.538  16.054  0.0945 -0.0228 -0.0674
 3663DPPE   C3B65819  11.430  24.659  15.547  0.3427 -0.0352  0.0058
 3663DPPE   C4B65820  11.255  24.439  15.269 -0.3846  0.4006  0.0795
 3664DPPE   NH365821  14.073  10.916  17.233 -0.0339  0.2537 -0.4912
 3664DPPE   PO465822  13.701  10.682  17.093 -0.0154 -0.1344 -0.0249
 3664DPPE   GL165823  13.832  10.881  16.781 -0.1436  0.1464 -0.1050
 3664DPPE   GL265824  13.544  10.734  16.601 -0.1378  0.1619  0.0122
 3664DPPE   C1A65825  13.945  10.861  16.377 -0.2620  0.3382 -0.3994
 3664DPPE   C2A65826  14.126  10.931  15.969 -0.1458  0.0497  0.0004
 3664DPPE   C3A65827  13.953  10.868  15.533  0.1210 -0.1445  0.1368
 3664DPPE   C4A65828  14.319  10.921  15.181  0.1495 -0.0475  0.0517
 3664DPPE   C1B65829  13.703  10.418  16.231 -0.1780 -0.2764  0.3743
 3664DPPE   C2B65830  14.073  10.321  16.046 -0.3119 -0.4359  0.0201
 3664DPPE   C3B65831  14.306   9.970  16.032 -0.0817  0.0173  0.0276
 3664DPPE   C4B65832  14.405   9.757  16.339  0.1219  0.0328  0.0392
 3665DPPE   NH365833  18.844  15.066  17.028 -0.0033  0.0277  0.0025
 3665DPPE   PO465834  18.738  15.321  16.721  0.1532  0.2306  0.1659
 3665DPPE   GL165835  18.917  15.138  16.392  0.0110 -0.1206 -0.0063
 3665DPPE   GL265836  18.794  15.361  16.235 -0.0242  0.5217  0.2089
 3665DPPE   C1A65837  19.152  15.103  15.979  0.1011  0.2086  0.2141
 3665DPPE   C2A65838  19.125  15.212  15.546 -0.1506  0.2427  0.2482
 3665DPPE   C3A65839  19.375  15.464  15.079  0.1310 -0.0348 -0.1008
 3665DPPE   C4A65840  19.638  15.820  15.010 -0.0717 -0.1013  0.0430
 3665DPPE   C1B65841  18.718  15.260  15.819  0.0658  0.0918 -0.3366
 3665DPPE   C2B65842  18.728  15.264  15.264 -0.3172  0.1421  0.0746
 3665DPPE   C3B65843  18.937  15.520  14.934  0.1093 -0.0067 -0.1561
 3665DPPE   C4B65844  19.303  15.697  14.580  0.2732 -0.0775 -0.1150
 3666DPPE   NH365845  18.280  12.025  17.101  0.1017 -0.3185  0.0233
 3666DPPE   PO465846  18.001  12.437  17.041 -0.0701 -0.0607  0.0794
 3666DPPE   GL165847  18.264  12.505  16.742  0.2342  0.0606 -0.1127
 3666DPPE   GL265848  18.620  12.724  16.712  0.1157  0.2174  0.3878
 3666DPPE   C1A65849  18.515  12.191  16.451 -0.2549 -0.2085 -0.0866
 3666DPPE   C2A65850  19.009  12.054  16.487 -0.1529 -0.2268  0.0125
 3666DPPE   C3A65851  19.421  11.840  16.418  0.0950  0.2240  0.1310
 3666DPPE   C4A65852  19.775  11.688  16.432 -0.1738 -0.4659  0.2123
 3666DPPE   C1B65853  18.879  12.573  16.414  0.1829  0.1112 -0.0142
 3666DPPE   C2B65854  19.189  12.466  16.187 -0.0871  0.0317 -0.2620
 3666DPPE   C3B65855  19.383  12.404  15.814  0.2751 -0.2927 -0.3377
 3666DPPE   C4B65856  19.330  11.984  15.567 -0.1233  0.0327  0.2008
 3667DPPE   NH365857   9.519  18.414  17.790 -0.3497 -0.2155 -0.1759
 3667DPPE   PO465858   9.397  18.053  17.908  0.0454  0.1281 -0.1068
 3667DPPE   GL165859   9.162  18.089  17.500 -0.5251  0.2289 -0.0583
 3667DPPE   GL265860   9.511  18.148  17.384 -0.0681 -0.1184 -0.0131
 3667DPPE   C1A65861   9.062  18.079  17.035 -0.1413  0.1191  0.0180
 3667DPPE   C2A65862   9.079  18.063  16.602 -0.2290  0.2799  0.2611
 3667DPPE   C3A65863   9.146  18.032  16.150  0.0832 -0.3697 -0.1164
 3667DPPE   C4A65864   8.969  18.082  15.721 -0.2585 -0.0152 -0.1386
 3667DPPE   C1B65865   9.617  18.266  16.958  0.2597 -0.0385 -0.0088
 3667DPPE   C2B65866   9.599  18.285  16.502  0.2411  0.0833 -0.2228
 3667DPPE   C3B65867   9.583  18.236  16.127 -0.0796 -0.1441 -0.0335
 3667DPPE   C4B65868   9.464  18.120  15.698 -0.1050  0.0205  0.0905
 3668DPPE   NH365869  18.381  22.140  17.452 -0.0029  0.0770  0.1728
 3668DPPE   PO465870  18.317  22.485  17.566  0.0360  0.0086 -0.1088
 3668DPPE   GL165871  18.751  22.458  17.565  0.3765  0.1883  0.1311
 3668DPPE   GL265872  18.956  22.187  17.502  0.0536 -0.0859  0.0791
 3668DPPE   C1A65873  19.150  22.683  17.795 -0.0099  0.3923 -0.0013
 3668DPPE   C2A65874  19.522  22.891  17.821  0.0099 -0.0874  0.0047
 3668DPPE   C3A65875  19.724  23.207  17.677  0.1349  0.0204  0.1755
 3668DPPE   C4A65876  19.997  23.516  17.950  0.0959 -0.2293 -0.2623
 3668DPPE   C1B65877  19.087  22.309  17.138 -0.0795 -0.0339 -0.0982
 3668DPPE   C2B65878  19.158  22.336  16.690 -0.1598  0.5098 -0.1665
 3668DPPE   C3B65879  19.496  21.969  16.528  0.1893 -0.0711 -0.0377
 3668DPPE   C4B65880  19.713  21.686  16.565 -0.0878 -0.0331  0.0369
 3669DPPE   NH365881  12.163   9.521  16.548  0.1893  0.3339  0.1738
 3669DPPE   PO465882  12.512   9.296  16.710  0.0443  0.0205  0.0018
 3669DPPE   GL165883  12.246   8.976  16.485 -0.1899  0.3046 -0.2659
 3669DPPE   GL265884  12.086   9.124  16.220 -0.0503 -0.1481 -0.1689
 3669DPPE   C1A65885  12.357   8.530  16.684 -0.1434  0.1144 -0.0475
 3669DPPE   C2A65886  12.507   8.144  16.910  0.0708  0.0013 -0.1359
 3669DPPE   C3A65887  12.753   7.993  17.220  0.1453  0.5501  0.0207
 3669DPPE   C4A65888  12.813   7.560  17.325 -0.2038  0.1019  0.2280
 3669DPPE   C1B65889  12.083   8.859  15.907  0.0754  0.0649  0.0704
 3669DPPE   C2B65890  12.122   8.665  15.525 -0.1240  0.1696  0.1566
 3669DPPE   C3B65891  12.336   8.383  15.189 -0.0430  0.0621  0.2393
 3669DPPE   C4B65892  12.660   8.227  14.978  0.4908 -0.0110 -0.2255
 3670DPPE   NH365893   6.303  14.893  18.051  0.2219 -0.0057  0.0305
 3670DPPE   PO465894   6.608  14.654  17.662 -0.3960  0.2961  0.0045
 3670DPPE   GL165895   6.560  14.605  17.211 -0.1551 -0.3311 -0.1184
 3670DPPE   GL265896   6.298  14.656  17.174 -0.0984 -0.1177  0.1018
 3670DPPE   C1A65897   6.607  14.290  16.793 -0.0711 -0.0860 -0.0922
 3670DPPE   C2A65898   6.600  14.176  16.372  0.1449 -0.1141 -0.1315
 3670DPPE   C3A65899   6.304  14.191  16.111  0.2414  0.2583  0.4607
 3670DPPE   C4A65900   6.126  14.242  15.669  0.1545  0.0367  0.1033
 3670DPPE   C1B65901   5.982  14.650  16.814 -0.0129 -0.0133  0.0791
 3670DPPE   C2B65902   5.762  14.866  16.505 -0.1261 -0.0932 -0.5909
 3670DPPE   C3B65903   5.820  15.005  16.115 -0.0619  0.0058  0.0448
 3670DPPE   C4B65904   6.145  15.181  15.980 -0.1267 -0.0923  0.1324
 3671DPPE   NH365905  10.964  23.222  17.431  0.0188 -0.1081  0.2098
 3671DPPE   PO465906  11.229  23.458  17.325 -0.3585  0.0315  0.1875
 3671DPPE   GL165907  11.166  23.386  16.968 -0.1749  0.1044 -0.2206
 3671DPPE   GL265908  11.373  23.585  16.677 -0.1434 -0.2159 -0.1594
 3671DPPE   C1A65909  11.102  23.237  16.506 -0.1089  0.1147 -0.2392
 3671DPPE   C2A65910  11.132  23.081  16.141  0.0045  0.1884 -0.0153
 3671DPPE   C3A65911  11.125  22.933  15.724  0.2131 -0.0454  0.1485
 3671DPPE   C4A65912  11.119  22.788  15.318  0.0937 -0.2468  0.0461
 3671DPPE   C1B65913  11.299  23.750  16.381 -0.0192 -0.4348  0.1305
 3671DPPE   C2B65914  11.262  24.040  16.101 -0.2835 -0.2787 -0.0170
 3671DPPE   C3B65915  11.049  24.087  15.700 -0.0857  0.3571 -0.0970
 3671DPPE   C4B65916  10.951  23.845  15.260  0.0451  0.2123  0.4130
 3672DPPE   NH365917  16.198  21.050  16.985  0.1176  0.0453 -0.0763
 3672DPPE   PO465918  16.284  21.534  16.956 -0.3705 -0.0856 -0.2281
 3672DPPE   GL165919  16.407  21.619  16.648 -0.2101  0.1021 -0.1572
 3672DPPE   GL265920  16.383  21.297  16.531 -0.1858  0.1494  0.2055
 3672DPPE   C1A65921  16.518  21.752  16.268 -0.0593  0.1268  0.2762
 3672DPPE   C2A65922  16.481  21.673  15.904 -0.0989  0.0901  0.0640
 3672DPPE   C3A65923  16.491  21.773  15.508 -0.1438  0.2299 -0.0130
 3672DPPE   C4A65924  16.652  21.935  15.094  0.0792 -0.0298 -0.0007
 3672DPPE   C1B65925  16.437  21.264  16.095  0.0629  0.1942  0.0386
 3672DPPE   C2B65926  16.384  21.227  15.608  0.0644 -0.2435 -0.0654
 3672DPPE   C3B65927  16.319  21.159  15.199  0.0160 -0.2242  0.4376
 3672DPPE   C4B65928  16.545  21.277  14.845  0.0404 -0.0508  0.0069
 3673DPPE   NH365929   6.941  15.498  17.288 -0.3908  0.4309 -0.1153
 3673DPPE   PO465930   6.518  15.507  17.483  0.0344  0.1191 -0.0224
 3673DPPE   GL165931   6.371  15.400  17.086  0.1674 -0.0115 -0.0093
 3673DPPE   GL265932   6.261  15.114  16.934  0.2380  0.1173 -0.0797
 3673DPPE   C1A65933   6.574  15.459  16.733 -0.1580  0.2136 -0.1112
 3673DPPE   C2A65934   6.503  15.426  16.261 -0.3515  0.1868 -0.1005
 3673DPPE   C3A65935   6.593  15.417  15.792 -0.0378  0.0985  0.0342
 3673DPPE   C4A65936   6.725  15.348  15.578 -0.1771 -0.3373 -0.0094
 3673DPPE   C1B65937   6.195  15.184  16.510 -0.0231  0.0923 -0.0720
 3673DPPE   C2B65938   5.822  15.460  16.264 -0.1172 -0.2857 -0.0955
 3673DPPE   C3B65939   5.576  15.626  15.906  0.0177  0.1911  0.0347
 3673DPPE   C4B65940   5.484  15.630  15.442 -0.0968 -0.2322  0.0126
 3674DPPE   NH365941  10.260  14.175  17.658  0.1053  0.2185  0.2831
 3674DPPE   PO465942  10.191  14.499  17.498 -0.1395 -0.0274  0.3433
 3674DPPE   GL165943  10.316  14.709  17.101 -0.1294  0.0963  0.0639
 3674DPPE   GL265944  10.409  14.498  16.892 -0.4182  0.0258  0.1627
 3674DPPE   C1A65945  10.268  15.005  16.790  0.0204 -0.0836  0.0911
 3674DPPE   C2A65946  10.179  15.031  16.340  0.2122 -0.4078 -0.1813
 3674DPPE   C3A65947  10.149  15.018  15.926  0.2905  0.1953 -0.3246
 3674DPPE   C4A65948   9.889  14.853  15.601  0.6859  0.0741  0.2072
 3674DPPE   C1B65949  10.198  14.519  16.600 -0.2825 -0.0136  0.1168
 3674DPPE   C2B65950  10.070  14.526  16.181  0.0850 -0.2601 -0.0649
 3674DPPE   C3B65951  10.128  14.417  15.704  0.3126 -0.0195  0.3104
 3674DPPE   C4B65952  10.058  14.481  15.297  0.1712 -0.2391 -0.0196
 3675DPPE   NH365953  14.665  13.084  17.034  0.0385 -0.0583  0.3556
 3675DPPE   PO465954  15.195  13.090  17.102 -0.0439  0.0524  0.1151
 3675DPPE   GL165955  15.475  13.114  16.717  0.2635  0.0267  0.3316
 3675DPPE   GL265956  15.707  13.024  16.752 -0.3287  0.0131 -0.2084
 3675DPPE   C1A65957  15.421  13.072  16.250 -0.2557 -0.4039  0.1010
 3675DPPE   C2A65958  15.419  13.047  15.785  0.0310 -0.1346  0.1591
 3675DPPE   C3A65959  15.475  13.021  15.317  0.0644 -0.0189 -0.4347
 3675DPPE   C4A65960  15.881  12.858  15.079  0.2198  0.0506  0.4378
 3675DPPE   C1B65961  15.811  12.829  16.411 -0.3582 -0.0455 -0.4143
 3675DPPE   C2B65962  15.889  12.940  16.041  0.1828  0.1824  0.1815
 3675DPPE   C3B65963  15.888  12.829  15.634 -0.2921  0.1603 -0.2578
 3675DPPE   C4B65964  16.238  12.679  15.437  0.2803  0.0445  0.0060
 3676DPPE   NH365965  11.344  21.575  17.726 -0.2394 -0.2246 -0.0848
 3676DPPE   PO465966  11.355  21.154  17.712  0.0115  0.2334  0.0222
 3676DPPE   GL165967  11.027  21.225  17.418 -0.0070 -0.1932 -0.3242
 3676DPPE   GL265968  10.964  21.501  17.433 -0.0126 -0.0931 -0.1343
 3676DPPE   C1A65969  10.863  21.312  17.002 -0.1899 -0.0698  0.2973
 3676DPPE   C2A65970  10.801  21.276  16.559  0.1682 -0.3286  0.0983
 3676DPPE   C3A65971  10.712  21.226  16.120 -0.3644 -0.1830  0.0841
 3676DPPE   C4A65972  10.688  21.159  15.691 -0.3128 -0.2273 -0.0229
 3676DPPE   C1B65973  10.956  21.744  17.123 -0.0718  0.0411  0.0887
 3676DPPE   C2B65974  10.817  21.735  16.689 -0.0098 -0.0378  0.1951
 3676DPPE   C3B65975  10.667  21.795  16.237 -0.2432 -0.0864 -0.1744
 3676DPPE   C4B65976  10.673  21.647  15.823 -0.2151  0.1232  0.1287
 3677DPPE   NH365977  13.894  23.605  17.298 -0.1922  0.1436 -0.0007
 3677DPPE   PO465978  14.365  23.638  17.215  0.1285 -0.0137 -0.0512
 3677DPPE   GL165979  14.304  23.596  16.831  0.2082 -0.0453  0.0004
 3677DPPE   GL265980  14.042  23.779  16.817 -0.1579  0.4179  0.0416
 3677DPPE   C1A65981  14.353  23.596  16.423  0.3269 -0.1176  0.0636
 3677DPPE   C2A65982  14.298  23.641  16.047  0.0998 -0.0986 -0.1939
 3677DPPE   C3A65983  14.607  23.800  15.622 -0.4639  0.1182  0.1661
 3677DPPE   C4A65984  14.980  24.011  15.546  0.0459  0.3728  0.4217
 3677DPPE   C1B65985  13.967  23.873  16.353  0.2088 -0.2126  0.3130
 3677DPPE   C2B65986  13.886  24.099  15.939  0.2356  0.0143  0.1276
 3677DPPE   C3B65987  13.651  24.110  15.566 -0.2699 -0.0540 -0.1557
 3677DPPE   C4B65988  13.367  23.907  15.309  0.3199 -0.3216 -0.0814
 3678DPPE   NH365989  18.025  12.681  17.995  0.0828 -0.2192  0.5381
 3678DPPE   PO465990  18.113  12.876  17.572 -0.3287  0.1213  0.2885
 3678DPPE   GL165991  18.018  12.951  17.007  0.0131 -0.0797 -0.0877
 3678DPPE   GL265992  17.797  13.180  16.959  0.0051  0.1994  0.3420
 3678DPPE   C1A65993  18.120  12.987  16.650 -0.2055 -0.1875 -0.1655
 3678DPPE   C2A65994  18.200  12.737  16.340  0.0148 -0.0294  0.1830
 3678DPPE   C3A65995  18.591  12.781  15.985  0.1220  0.0874 -0.3067
 3678DPPE   C4A65996  18.966  12.709  15.718 -0.0424 -0.1355  0.0991
 3678DPPE   C1B65997  17.727  13.295  16.521 -0.1579  0.0606 -0.0243
 3678DPPE   C2B65998  17.709  13.254  16.002 -0.0410 -0.0855  0.1845
 3678DPPE   C3B65999  17.706  13.299  15.643 -0.3385 -0.1551 -0.0049
 3678DPPE   C4B66000  17.651  12.942  15.418 -0.2229 -0.0650 -0.3950
 3679DPPE   NH366001  10.577  11.809  17.302 -0.2423  0.2765  0.3796
 3679DPPE   PO466002  10.321  12.219  17.341  0.0650  0.0013  0.1468
 3679DPPE   GL166003  10.113  12.406  16.998 -0.0214 -0.0012 -0.1173
 3679DPPE   GL266004   9.825  12.304  17.087  0.0463 -0.0930 -0.2213
 3679DPPE   C1A66005   9.962  12.416  16.470  0.0828 -0.0933  0.1869
 3679DPPE   C2A66006  10.047  12.286  16.069  0.1412  0.2115  0.2791
 3679DPPE   C3A66007   9.839  12.260  15.703 -0.1204 -0.0076 -0.0427
 3679DPPE   C4A66008   9.959  12.379  15.222 -0.1270 -0.0539  0.1645
 3679DPPE   C1B66009   9.548  12.079  16.687  0.0306  0.2869 -0.1678
 3679DPPE   C2B66010   9.546  12.171  16.222  0.1863  0.1606 -0.0912
 3679DPPE   C3B66011   9.441  12.132  15.903  0.0130 -0.0075 -0.1003
 3679DPPE   C4B66012   9.234  11.956  15.552  0.0224 -0.1256 -0.5155
 3680DPPE   NH366013   7.810  14.702  17.733 -0.0414 -0.1941  0.1788
 3680DPPE   PO466014   7.458  14.503  17.689  0.0949 -0.1883 -0.0335
 3680DPPE   GL166015   7.619  14.506  17.271 -0.0475  0.3156 -0.1603
 3680DPPE   GL266016   7.430  14.607  17.033 -0.0519 -0.0224  0.3004
 3680DPPE   C1A66017   7.918  14.598  16.853  0.0852 -0.0460 -0.1406
 3680DPPE   C2A66018   8.008  14.401  16.311 -0.1685 -0.0585  0.3845
 3680DPPE   C3A66019   8.054  14.239  15.888 -0.0032 -0.4246  0.0539
 3680DPPE   C4A66020   7.855  14.306  15.490  0.2837  0.1179 -0.1720
 3680DPPE   C1B66021   7.538  14.546  16.600 -0.0071 -0.1279 -0.2710
 3680DPPE   C2B66022   7.405  14.394  16.235  0.1048  0.2390  0.1359
 3680DPPE   C3B66023   7.458  14.439  15.717  0.1743 -0.0611 -0.1947
 3680DPPE   C4B66024   7.459  14.606  15.258  0.3630  0.2055 -0.0792
 3681DPPE   NH366025  17.987  23.291  16.524 -0.1820 -0.4604  0.1438
 3681DPPE   PO466026  18.275  23.579  16.804  0.1209  0.0442 -0.0350
 3681DPPE   GL166027  18.670  23.763  16.813 -0.0032 -0.0793 -0.1068
 3681DPPE   GL266028  18.473  24.027  16.629 -0.3949  0.2808 -0.5093
 3681DPPE   C1A66029  18.955  24.013  16.524 -0.1582  0.0353  0.1563
 3681DPPE   C2A66030  19.266  24.368  16.577  0.0940  0.2388  0.0342
 3681DPPE   C3A66031  19.352  24.860  16.615  0.2770  0.1612  0.2994
 3681DPPE   C4A66032  19.391  25.205  16.739  0.1194 -0.1235 -0.1201
 3681DPPE   C1B66033  18.607  24.366  16.602  0.1179  0.2044 -0.1052
 3681DPPE   C2B66034  18.814  24.653  16.418 -0.4487  0.1275 -0.1024
 3681DPPE   C3B66035  19.184  24.650  16.165  0.2348 -0.1411 -0.1345
 3681DPPE   C4B66036  19.369  24.560  15.675 -0.3341 -0.3361 -0.1354
 3682DPPE   NH366037  17.723  24.599  17.041  0.1403 -0.0226 -0.1676
 3682DPPE   PO466038  17.769  24.963  16.909  0.1725 -0.0783 -0.1413
 3682DPPE   GL166039  18.168  24.827  17.001  0.0665 -0.2405 -0.0026
 3682DPPE   GL266040  18.170  24.507  16.761 -0.1680  0.2430  0.6289
 3682DPPE   C1A66041  18.571  24.878  16.827 -0.3501  0.0177 -0.0668
 3682DPPE   C2A66042  18.965  24.796  16.915  0.0310  0.0451 -0.2052
 3682DPPE   C3A66043  19.256  24.619  17.159  0.2054 -0.1961  0.0502
 3682DPPE   C4A66044  19.691  24.438  17.237 -0.1943  0.1507  0.2299
 3682DPPE   C1B66045  18.203  24.767  16.436 -0.2080 -0.1490  0.1144
 3682DPPE   C2B66046  18.285  24.823  15.944 -0.3897  0.2918 -0.0218
 3682DPPE   C3B66047  18.534  25.096  15.709 -0.0716 -0.2981  0.3784
 3682DPPE   C4B66048  18.314  25.437  15.514 -0.1085 -0.0282 -0.1167
 3683DPPE   NH366049  17.715  23.647  18.189  0.1079  0.0205 -0.5059
 3683DPPE   PO466050  17.732  23.292  17.988  0.2069  0.2897 -0.0667
 3683DPPE   GL166051  18.084  23.287  18.231 -0.0808 -0.2682 -0.3321
 3683DPPE   GL266052  18.372  23.565  18.166 -0.0881 -0.0789  0.0428
 3683DPPE   C1A66053  18.429  23.086  18.508  0.2014 -0.0439 -0.0126
 3683DPPE   C2A66054  18.647  23.082  18.900 -0.0829 -0.2888  0.2720
 3683DPPE   C3A66055  18.712  22.751  19.217 -0.1551  0.0480  0.4911
 3683DPPE   C4A66056  18.437  22.540  19.573 -0.0310  0.3101  0.1493
 3683DPPE   C1B66057  18.712  23.514  18.359  0.1056  0.2564  0.1443
 3683DPPE   C2B66058  19.124  23.221  18.523 -0.2402  0.0102 -0.0868
 3683DPPE   C3B66059  19.568  23.131  18.749  0.3189  0.0781 -0.1855
 3683DPPE   C4B66060  20.018  23.001  18.782  0.0059  0.0984  0.0674
 3684DPPE   NH366061  16.123  24.008  16.892 -0.0117 -0.0270 -0.0784
 3684DPPE   PO466062  16.441  24.311  17.010 -0.1819 -0.0403 -0.0509
 3684DPPE   GL166063  16.409  24.108  16.519  0.1540  0.0494 -0.2757
 3684DPPE   GL266064  16.189  24.021  16.370  0.0036  0.0593 -0.4083
 3684DPPE   C1A66065  16.492  24.393  16.052  0.1228 -0.3326 -0.0548
 3684DPPE   C2A66066  16.369  24.376  15.683 -0.2162 -0.0724 -0.3151
 3684DPPE   C3A66067  16.342  24.216  15.244 -0.1287  0.1224  0.0966
 3684DPPE   C4A66068  16.555  23.931  15.054  0.0995  0.0873  0.0388
 3684DPPE   C1B66069  16.131  24.077  16.009 -0.0877  0.1211 -0.0983
 3684DPPE   C2B66070  15.918  24.078  15.613  0.0919 -0.2100  0.1510
 3684DPPE   C3B66071  15.554  23.886  15.341 -0.2542  0.0533  0.0466
 3684DPPE   C4B66072  15.494  23.516  15.106  0.2528 -0.3402  0.2781
 3685DPPE   NH366073  11.349  10.359  17.002 -0.0332  0.0982  0.2980
 3685DPPE   PO466074  11.183   9.966  17.156  0.0136 -0.0955 -0.2565
 3685DPPE   GL166075  11.213   9.873  16.703  0.1261  0.1969 -0.3756
 3685DPPE   GL266076  11.154   9.624  16.734 -0.0363 -0.0171 -0.2029
 3685DPPE   C1A66077  11.263   9.837  16.316 -0.0754 -0.0540 -0.0919
 3685DPPE   C2A66078  11.111  10.035  15.954  0.1179  0.1916 -0.0632
 3685DPPE   C3A66079  11.213   9.949  15.552 -0.1316  0.2650  0.2523
 3685DPPE   C4A66080  11.014   9.579  15.306 -0.3247 -0.1769  0.0521
 3685DPPE   C1B66081  10.831   9.498  16.535 -0.1311  0.0667  0.0987
 3685DPPE   C2B66082  10.485   9.171  16.596  0.4711 -0.2138  0.3809
 3685DPPE   C3B66083  10.324   8.748  16.665  0.2214  0.1173  0.3065
 3685DPPE   C4B66084   9.881   8.607  16.883 -0.0060 -0.0692  0.0803
 3686DPPE   NH366085  16.770  22.473  17.206  0.0592 -0.0504 -0.0511
 3686DPPE   PO466086  16.250  22.519  17.067 -0.1579 -0.1627  0.0532
 3686DPPE   GL166087  16.053  22.459  16.738  0.0041  0.1166  0.0680
 3686DPPE   GL266088  16.199  22.625  16.474  0.0391 -0.0564 -0.0565
 3686DPPE   C1A66089  15.754  22.371  16.376  0.6877  0.0501 -0.1938
 3686DPPE   C2A66090  15.638  22.312  15.918 -0.2513  0.4406 -0.2105
 3686DPPE   C3A66091  15.621  22.290  15.474 -0.0009 -0.1113 -0.1855
 3686DPPE   C4A66092  15.636  22.245  15.012  0.3420  0.0352 -0.2436
 3686DPPE   C1B66093  16.164  22.536  16.128  0.2468  0.1090 -0.3872
 3686DPPE   C2B66094  16.095  22.465  15.683  0.2025 -0.1189  0.1204
 3686DPPE   C3B66095  16.129  22.422  15.336 -0.3010  0.3844  0.0613
 3686DPPE   C4B66096  16.310  22.281  14.901 -0.3253 -0.0416  0.1938
 3687DPPE   NH366097  17.906  22.781  17.644  0.2027  0.0695  0.1677
 3687DPPE   PO466098  17.914  23.268  17.560 -0.1533 -0.0031  0.1542
 3687DPPE   GL166099  18.224  23.171  17.761 -0.1808 -0.0435 -0.1519
 3687DPPE   GL266100  18.504  23.145  17.656 -0.3579  0.0026  0.0475
 3687DPPE   C1A66101  18.693  23.044  18.071  0.0709  0.0246 -0.0298
 3687DPPE   C2A66102  19.067  23.081  18.081 -0.2986  0.1254  0.0800
 3687DPPE   C3A66103  19.462  23.298  18.205  0.1049  0.2943 -0.0313
 3687DPPE   C4A66104  19.607  23.760  18.241  0.3791 -0.0160  0.0139
 3687DPPE   C1B66105  18.869  22.957  17.561  0.0509 -0.1717  0.1058
 3687DPPE   C2B66106  19.071  22.768  17.318 -0.1405  0.2637 -0.0257
 3687DPPE   C3B66107  19.535  22.875  17.328 -0.1969 -0.1097  0.2861
 3687DPPE   C4B66108  20.015  22.970  17.324  0.1735 -0.0109  0.1016
 3688DPPE   NH366109  10.238  22.849  18.219  0.1617 -0.1133 -0.2076
 3688DPPE   PO466110  10.115  22.824  17.861  0.0880  0.0439 -0.2189
 3688DPPE   GL166111   9.977  22.709  17.441 -0.0180  0.0300 -0.0020
 3688DPPE   GL266112  10.033  23.025  17.255 -0.0399 -0.2523  0.1716
 3688DPPE   C1A66113   9.811  22.748  16.973  0.1516 -0.0087  0.0719
 3688DPPE   C2A66114   9.805  22.738  16.553 -0.2149  0.0579 -0.3293
 3688DPPE   C3A66115   9.792  22.559  16.173  0.0211 -0.0133  0.0114
 3688DPPE   C4A66116   9.751  22.277  15.924 -0.0937 -0.3565 -0.3948
 3688DPPE   C1B66117  10.199  23.038  16.789 -0.3040 -0.0089 -0.0267
 3688DPPE   C2B66118  10.181  23.136  16.320  0.0599 -0.0007  0.1417
 3688DPPE   C3B66119  10.303  23.085  15.931  0.0022 -0.1627  0.1356
 3688DPPE   C4B66120  10.161  22.919  15.482 -0.1368 -0.0166  0.0222
 3689DPPE   NH366121  14.446  21.322  17.249 -0.0724  0.0871  0.2355
 3689DPPE   PO466122  14.571  21.639  17.464  0.0173 -0.2686  0.1656
 3689DPPE   GL166123  14.642  21.676  16.951  0.4597 -0.3505 -0.3449
 3689DPPE   GL266124  14.879  21.865  16.908  0.1908 -0.0344  0.2688
 3689DPPE   C1A66125  14.463  21.629  16.614  0.0344 -0.1630 -0.1536
 3689DPPE   C2A66126  14.327  21.588  16.239  0.0309 -0.2733 -0.3192
 3689DPPE   C3A66127  14.266  21.636  15.740 -0.2964 -0.3781 -0.2224
 3689DPPE   C4A66128  14.235  21.447  15.417 -0.0313 -0.0892 -0.4007
 3689DPPE   C1B66129  14.864  21.872  16.429  0.1731 -0.1534 -0.1288
 3689DPPE   C2B66130  14.704  21.804  15.925 -0.3169  0.1391 -0.0070
 3689DPPE   C3B66131  14.576  21.905  15.524 -0.2256  0.0571 -0.3256
 3689DPPE   C4B66132  14.575  21.814  15.117 -0.0077  0.2185  0.1636
 3690DPPE   NH366133  11.692  17.464  17.648 -0.1853  0.4595 -0.0778
 3690DPPE   PO466134  11.639  17.822  17.394 -0.1477  0.1135  0.1967
 3690DPPE   GL166135  11.435  17.986  16.978 -0.3003 -0.0559  0.0396
 3690DPPE   GL266136  11.643  17.736  16.819  0.0069 -0.3670 -0.0361
 3690DPPE   C1A66137  11.322  18.047  16.528 -0.4166 -0.0360  0.0504
 3690DPPE   C2A66138  11.267  18.082  16.077 -0.1163  0.1361  0.2058
 3690DPPE   C3A66139  11.272  18.024  15.641  0.0151  0.1684  0.2036
 3690DPPE   C4A66140  11.077  18.004  15.318 -0.4364  0.1354 -0.0546
 3690DPPE   C1B66141  11.686  17.775  16.348 -0.1562 -0.0846 -0.2183
 3690DPPE   C2B66142  11.616  17.813  15.884 -0.1759 -0.1625 -0.0925
 3690DPPE   C3B66143  11.752  17.690  15.508  0.2549  0.0555  0.1140
 3690DPPE   C4B66144  11.549  17.816  15.112  0.0877  0.1891  0.2652
 3691DPPE   NH366145  10.338  25.251  17.283  0.0398 -0.0752 -0.1350
 3691DPPE   PO466146  10.390  24.936  17.133 -0.0727  0.1981 -0.1460
 3691DPPE   GL166147  10.342  25.033  16.690  0.1636 -0.2949 -0.0919
 3691DPPE   GL266148  10.499  25.310  16.790  0.1472 -0.1202  0.0802
 3691DPPE   C1A66149   9.998  25.211  16.505 -0.0491  0.1522  0.0422
 3691DPPE   C2A66150   9.848  25.470  16.126 -0.2656 -0.4414  0.1437
 3691DPPE   C3A66151   9.801  25.807  15.788  0.0546  0.0992 -0.2552
 3691DPPE   C4A66152  10.103  26.163  15.704 -0.2897  0.1172 -0.3025
 3691DPPE   C1B66153  10.383  25.416  16.286 -0.1135 -0.1751  0.2492
 3691DPPE   C2B66154  10.318  25.696  15.908  0.3207  0.0030 -0.3189
 3691DPPE   C3B66155  10.426  25.811  15.555 -0.1015  0.0157  0.0767
 3691DPPE   C4B66156  10.412  26.208  15.336 -0.1235 -0.2215 -0.2285
 3692DPPE   NH366157  13.389  20.749  17.347 -0.2215  0.2378 -0.3822
 3692DPPE   PO466158  13.704  20.841  17.551  0.0006 -0.3623 -0.3775
 3692DPPE   GL166159  13.686  21.025  17.099  0.3146 -0.3773  0.0485
 3692DPPE   GL266160  13.796  20.761  16.865  0.1035  0.0370  0.0138
 3692DPPE   C1A66161  13.463  21.040  16.652  0.1611  0.2772  0.0159
 3692DPPE   C2A66162  13.415  21.101  16.266  0.2355 -0.1644 -0.0070
 3692DPPE   C3A66163  13.408  21.082  15.855  0.0181 -0.1658 -0.1590
 3692DPPE   C4A66164  13.267  21.014  15.490  0.2454  0.0701  0.2845
 3692DPPE   C1B66165  13.894  20.712  16.515 -0.1560  0.0376 -0.1828
 3692DPPE   C2B66166  13.861  20.824  16.062 -0.2278 -0.2535 -0.0789
 3692DPPE   C3B66167  13.731  20.796  15.678 -0.0695  0.1071 -0.1210
 3692DPPE   C4B66168  13.675  20.752  15.266 -0.0924  0.1864 -0.3542
 3693DPPE   NH366169  17.674  12.746  17.291 -0.1245  0.1173 -0.0442
 3693DPPE   PO466170  17.510  12.363  17.210 -0.0769 -0.2326 -0.1846
 3693DPPE   GL166171  17.540  12.184  16.872  0.1268 -0.0208  0.0970
 3693DPPE   GL266172  17.251  12.010  16.817 -0.0734  0.0418  0.0368
 3693DPPE   C1A66173  17.731  12.221  16.539 -0.0450  0.0225 -0.4185
 3693DPPE   C2A66174  18.020  12.216  16.295  0.0983  0.2934 -0.0193
 3693DPPE   C3A66175  18.240  11.926  16.121 -0.0520 -0.4095  0.3651
 3693DPPE   C4A66176  18.326  11.975  15.657 -0.0376 -0.2927 -0.2356
 3693DPPE   C1B66177  17.284  12.175  16.435 -0.2456 -0.4783 -0.0642
 3693DPPE   C2B66178  17.486  12.243  15.950  0.2482 -0.4526 -0.3075
 3693DPPE   C3B66179  17.569  12.274  15.497 -0.2093 -0.0383  0.1591
 3693DPPE   C4B66180  17.367  12.576  15.218 -0.2536  0.0209 -0.1396
 3694DPPE   NH366181   8.255  15.431  17.867  0.0930  0.2476  0.0301
 3694DPPE   PO466182   8.442  14.954  17.805  0.0566 -0.5291 -0.1938
 3694DPPE   GL166183   8.329  15.100  17.416  0.0738  0.0210  0.0548
 3694DPPE   GL266184   8.537  14.851  17.250  0.0307  0.4051 -0.1178
 3694DPPE   C1A66185   8.146  15.146  17.049 -0.3364  0.0273 -0.2925
 3694DPPE   C2A66186   8.507  15.097  16.676  0.1219 -0.2806 -0.0758
 3694DPPE   C3A66187   8.697  14.865  16.289 -0.0348  0.0103 -0.1883
 3694DPPE   C4A66188   8.438  14.588  16.013 -0.2104  0.1799  0.0375
 3694DPPE   C1B66189   8.401  14.623  16.949  0.2627 -0.1610  0.0187
 3694DPPE   C2B66190   8.340  14.613  16.601 -0.0270 -0.0175  0.1313
 3694DPPE   C3B66191   8.265  14.991  16.222 -0.3382 -0.0600  0.2960
 3694DPPE   C4B66192   8.056  15.318  16.308  0.1288 -0.1731  0.2565
 3695DPPE   NH366193  17.108  17.622  17.188  0.3147  0.2304  0.1206
 3695DPPE   PO466194  17.166  18.002  16.867 -0.1655 -0.0838 -0.2081
 3695DPPE   GL166195  17.286  18.107  16.450  0.1214 -0.2369  0.3347
 3695DPPE   GL266196  17.295  18.457  16.591 -0.0841 -0.0258 -0.0346
 3695DPPE   C1A66197  17.115  17.962  16.069  0.3712 -0.1580  0.1474
 3695DPPE   C2A66198  17.051  18.015  15.640  0.1020  0.0650  0.0644
 3695DPPE   C3A66199  17.070  18.062  15.260  0.3949 -0.0365 -0.1510
 3695DPPE   C4A66200  16.888  18.005  14.861 -0.0824  0.1331 -0.0311
 3695DPPE   C1B66201  17.116  18.522  16.191 -0.0426 -0.2468 -0.2401
 3695DPPE   C2B66202  17.126  18.503  15.790  0.0563  0.2458  0.1102
 3695DPPE   C3B66203  17.082  18.561  15.382  0.3033  0.0192  0.0854
 3695DPPE   C4B66204  17.033  18.492  14.975  0.0327  0.1546 -0.1042
 3696DPPE   NH366205  14.203  15.013  17.116 -0.1638 -0.0268 -0.1784
 3696DPPE   PO466206  14.284  15.239  16.768  0.0624  0.1483 -0.0144
 3696DPPE   GL166207  14.399  15.065  16.286  0.0094 -0.1975 -0.2773
 3696DPPE   GL266208  14.694  15.239  16.087  0.2896  0.0232 -0.0477
 3696DPPE   C1A66209  14.326  15.027  15.795  0.0308  0.2282  0.0077
 3696DPPE   C2A66210  14.275  15.073  15.372  0.3311  0.0986  0.0138
 3696DPPE   C3A66211  14.207  14.989  15.013  0.1710  0.2401 -0.0111
 3696DPPE   C4A66212  14.088  14.835  14.660  0.0582 -0.0768  0.2609
 3696DPPE   C1B66213  14.748  15.266  15.633  0.2342 -0.5252 -0.3897
 3696DPPE   C2B66214  14.728  15.306  15.162 -0.0260 -0.2585 -0.3471
 3696DPPE   C3B66215  14.514  15.319  14.807  0.1361 -0.0220 -0.0349
 3696DPPE   C4B66216  14.770  15.395  14.388 -0.0614 -0.0257  0.1908
 3697DPPE   NH366217   7.534  13.127  17.260 -0.3366  0.1167  0.2037
 3697DPPE   PO466218   7.951  13.288  17.517 -0.2190  0.3254 -0.0013
 3697DPPE   GL166219   8.063  13.298  17.104 -0.1170 -0.3277 -0.0248
 3697DPPE   GL266220   8.020  13.633  16.915 -0.1105 -0.4450  0.1903
 3697DPPE   C1A66221   8.244  13.294  16.656  0.2022 -0.0192 -0.1442
 3697DPPE   C2A66222   8.200  13.232  16.180  0.2866 -0.1668  0.1410
 3697DPPE   C3A66223   8.348  12.979  15.832 -0.0888 -0.2419  0.2917
 3697DPPE   C4A66224   8.408  12.948  15.330 -0.4007  0.2300  0.1645
 3697DPPE   C1B66225   7.947  13.637  16.462  0.1578  0.1605  0.2009
 3697DPPE   C2B66226   7.568  13.561  16.279 -0.1934  0.0676  0.1087
 3697DPPE   C3B66227   7.120  13.438  15.983 -0.0957 -0.2861  0.0963
 3697DPPE   C4B66228   6.986  13.351  15.636  0.3052  0.5398 -0.0175
 3698DPPE   NH366229  15.876  16.665  16.873 -0.2559  0.0499 -0.0502
 3698DPPE   PO466230  16.345  16.536  16.843  0.0511  0.2679 -0.3116
 3698DPPE   GL166231  16.036  16.491  16.422  0.2183  0.2764  0.0457
 3698DPPE   GL266232  15.733  16.586  16.398 -0.3541 -0.0809 -0.0476
 3698DPPE   C1A66233  16.154  16.508  16.068  0.0952  0.1138  0.1014
 3698DPPE   C2A66234  16.071  16.434  15.569  0.1489  0.0928  0.1032
 3698DPPE   C3A66235  16.021  16.527  15.099 -0.2348 -0.1654 -0.1914
 3698DPPE   C4A66236  16.074  16.542  14.692 -0.2714  0.0933  0.0676
 3698DPPE   C1B66237  15.714  16.767  15.995  0.1861 -0.0878 -0.0436
 3698DPPE   C2B66238  15.670  16.775  15.617  0.1261  0.0477  0.1537
 3698DPPE   C3B66239  15.636  16.816  15.212 -0.5268  0.0166  0.1540
 3698DPPE   C4B66240  15.545  16.901  14.784  0.1348  0.1966  0.1068
 3699DPPE   NH366241  14.880  12.653  17.018 -0.1245  0.1484  0.1496
 3699DPPE   PO466242  14.442  12.510  17.099 -0.2683  0.1731 -0.2114
 3699DPPE   GL166243  14.577  12.266  16.748 -0.0671  0.3538 -0.0554
 3699DPPE   GL266244  14.880  12.474  16.556 -0.1233  0.0326  0.4631
 3699DPPE   C1A66245  14.477  12.075  16.399 -0.1323  0.0876 -0.0633
 3699DPPE   C2A66246  14.522  12.155  15.984  0.3567 -0.3138 -0.1165
 3699DPPE   C3A66247  14.447  12.182  15.461 -0.1938 -0.1292 -0.0362
 3699DPPE   C4A66248  14.377  11.992  15.073 -0.3318 -0.5633  0.2030
 3699DPPE   C1B66249  14.946  12.517  16.124  0.3472 -0.0292  0.4149
 3699DPPE   C2B66250  14.975  12.435  15.666  0.2208  0.2143 -0.2997
 3699DPPE   C3B66251  15.139  12.407  15.374  0.2201  0.0999 -0.1655
 3699DPPE   C4B66252  15.459  12.325  14.876  0.3848 -0.1912 -0.5411
 3700DPPE   NH366253  10.704  15.832  17.775  0.0956  0.0571  0.2414
 3700DPPE   PO466254  11.049  15.982  17.556 -0.0607  0.4753 -0.1024
 3700DPPE   GL166255  10.839  15.866  17.212  0.1816 -0.3641  0.2666
 3700DPPE   GL266256  11.116  15.880  17.011 -0.0829  0.1360  0.4248
 3700DPPE   C1A66257  10.703  15.801  16.755 -0.0612 -0.0205  0.0305
 3700DPPE   C2A66258  10.690  15.804  16.307  0.2034 -0.1402 -0.1988
 3700DPPE   C3A66259  10.642  15.779  15.884  0.1222  0.0562 -0.1168
 3700DPPE   C4A66260  10.449  15.705  15.557  0.2301  0.0665  0.1968
 3700DPPE   C1B66261  11.058  16.040  16.544 -0.4041  0.0847  0.0398
 3700DPPE   C2B66262  11.189  16.032  16.053 -0.0382 -0.1032 -0.2151
 3700DPPE   C3B66263  11.082  16.052  15.680  0.3561 -0.0032 -0.1093
 3700DPPE   C4B66264  10.895  15.906  15.282  0.0527 -0.0967  0.0182
 3701DPPE   NH366265   9.096  12.382  17.803 -0.1230 -0.3141  0.1261
 3701DPPE   PO466266   9.403  12.092  17.431  0.0028 -0.2521  0.2831
 3701DPPE   GL166267   9.264  11.842  17.265  0.3367 -0.3441 -0.3674
 3701DPPE   GL266268   9.509  11.638  17.249  0.2027  0.1614 -0.1065
 3701DPPE   C1A66269   9.167  11.827  16.870  0.0190  0.0898 -0.1250
 3701DPPE   C2A66270   9.135  11.862  16.481  0.2538  0.0590  0.3202
 3701DPPE   C3A66271   8.963  12.017  15.990  0.0370 -0.0188  0.0927
 3701DPPE   C4A66272   8.685  11.981  15.611  0.0340 -0.2207  0.3515
 3701DPPE   C1B66273   9.690  11.589  16.892  0.1274  0.1640 -0.4368
 3701DPPE   C2B66274   9.581  11.614  16.441  0.1619  0.3438  0.1904
 3701DPPE   C3B66275   9.307  11.648  16.033 -0.0344 -0.2148 -0.0655
 3701DPPE   C4B66276   9.010  11.547  15.604  0.0521 -0.0795 -0.1016
 3702DPPE   NH366277  14.326  24.470  17.546 -0.0778 -0.1247 -0.1560
 3702DPPE   PO466278  14.291  24.654  17.138  0.1122 -0.0659  0.0643
 3702DPPE   GL166279  14.464  24.878  16.843 -0.1630  0.1963  0.1627
 3702DPPE   GL266280  14.518  24.680  16.601 -0.0440  0.1959  0.0222
 3702DPPE   C1A66281  14.506  25.291  16.573 -0.1291 -0.1684  0.0093
 3702DPPE   C2A66282  14.434  25.502  16.147  0.0086  0.2362  0.3823
 3702DPPE   C3A66283  14.213  25.599  15.812  0.2119  0.3283 -0.3203
 3702DPPE   C4A66284  13.812  25.830  15.735 -0.1729 -0.2922  0.0837
 3702DPPE   C1B66285  14.390  24.836  16.252  0.1460  0.0038 -0.0624
 3702DPPE   C2B66286  14.058  25.084  16.081 -0.0037 -0.0831 -0.2556
 3702DPPE   C3B66287  13.831  25.308  15.768 -0.0015 -0.2093 -0.2557
 3702DPPE   C4B66288  13.697  25.471  15.383  0.1543 -0.0763  0.0615
 3703DPPE   NH366289   8.003  21.122  18.018  0.3307 -0.0275 -0.0453
 3703DPPE   PO466290   7.639  20.947  17.984 -0.1303  0.1944 -0.1354
 3703DPPE   GL166291   7.495  20.916  17.628  0.0409 -0.3521  0.0168
 3703DPPE   GL266292   7.524  20.710  17.340 -0.0468 -0.0053 -0.1355
 3703DPPE   C1A66293   7.403  21.198  17.200 -0.1788  0.1703 -0.1982
 3703DPPE   C2A66294   7.159  21.265  16.852  0.0768  0.1588  0.2156
 3703DPPE   C3A66295   6.901  21.200  16.439  0.1691 -0.3425 -0.4016
 3703DPPE   C4A66296   6.637  21.421  16.104 -0.2040  0.1403  0.1166
 3703DPPE   C1B66297   7.608  20.824  16.980  0.3479  0.2701 -0.0698
 3703DPPE   C2B66298   7.560  20.920  16.565  0.0759  0.2565 -0.2357
 3703DPPE   C3B66299   7.305  21.005  16.172 -0.0466 -0.1689  0.0289
 3703DPPE   C4B66300   6.890  21.012  15.899  0.1026  0.0884  0.0039
 3704DPPE   NH366301  12.828  17.409  17.324 -0.0442 -0.3247 -0.3535
 3704DPPE   PO466302  12.931  17.586  16.964 -0.1096 -0.2648  0.0672
 3704DPPE   GL166303  12.697  17.491  16.581 -0.0478  0.0169 -0.0039
 3704DPPE   GL266304  12.505  17.265  16.525 -0.2179 -0.3018  0.0022
 3704DPPE   C1A66305  12.973  17.467  16.123 -0.0370  0.0694 -0.3298
 3704DPPE   C2A66306  13.021  17.469  15.695 -0.0650  0.1352  0.1301
 3704DPPE   C3A66307  12.986  17.347  15.251 -0.0083 -0.0021  0.5852
 3704DPPE   C4A66308  12.961  17.518  14.866  0.1797 -0.0733 -0.1565
 3704DPPE   C1B66309  12.521  17.180  16.128  0.0691 -0.0854  0.0769
 3704DPPE   C2B66310  12.576  17.103  15.700  0.1521  0.0757  0.1774
 3704DPPE   C3B66311  12.504  17.147  15.227  0.0566 -0.1031 -0.0642
 3704DPPE   C4B66312  12.593  17.196  14.749  0.3315  0.0145 -0.1160
 3705DPPE   NH366313  18.582  15.312  17.529  0.0166 -0.0889 -0.1267
 3705DPPE   PO466314  18.321  15.028  17.223  0.4857 -0.2676  0.0768
 3705DPPE   GL166315  18.358  14.913  16.733  0.1028  0.0533  0.2997
 3705DPPE   GL266316  18.402  15.073  16.475 -0.0355  0.1243  0.1999
 3705DPPE   C1A66317  18.222  14.572  16.436 -0.0737 -0.0554 -0.2411
 3705DPPE   C2A66318  18.109  14.406  16.061  0.0200  0.0123 -0.0506
 3705DPPE   C3A66319  18.174  14.117  15.650  0.0981 -0.1084 -0.2520
 3705DPPE   C4A66320  18.248  13.927  15.213 -0.1341 -0.2583 -0.0062
 3705DPPE   C1B66321  18.227  15.156  16.067 -0.0081 -0.5600 -0.3890
 3705DPPE   C2B66322  18.282  15.129  15.611 -0.1845  0.0540 -0.0732
 3705DPPE   C3B66323  18.300  14.942  15.216 -0.3578  0.1236  0.3249
 3705DPPE   C4B66324  18.162  14.831  14.770 -0.1244  0.1411  0.1660
 3706DPPE   NH366325  15.841  10.982  17.162 -0.3391  0.1419 -0.1784
 3706DPPE   PO466326  16.038  10.612  17.000 -0.1956 -0.0598  0.0292
 3706DPPE   GL166327  16.191  10.566  16.671 -0.1915  0.0765  0.0176
 3706DPPE   GL266328  15.985  10.400  16.453  0.2657 -0.3298 -0.1662
 3706DPPE   C1A66329  16.531  10.355  16.457 -0.1843  0.2762 -0.1274
 3706DPPE   C2A66330  16.651  10.333  16.088 -0.1738 -0.2285  0.1807
 3706DPPE   C3A66331  16.690  10.259  15.685  0.1378  0.0433 -0.2920
 3706DPPE   C4A66332  16.815  10.277  15.253 -0.2411  0.2729 -0.1126
 3706DPPE   C1B66333  16.064   9.999  16.351  0.0588 -0.0365  0.1596
 3706DPPE   C2B66334  16.362   9.883  16.082 -0.2026 -0.3447  0.4867
 3706DPPE   C3B66335  16.239   9.990  15.583 -0.0515 -0.3159 -0.2659
 3706DPPE   C4B66336  16.331  10.425  15.374 -0.4891 -0.1489 -0.2018
 3707DPPE   NH366337  17.363  13.443  17.621 -0.1356  0.0888 -0.1158
 3707DPPE   PO466338  17.373  13.148  17.305  0.1922  0.2003  0.2484
 3707DPPE   GL166339  17.314  13.137  16.818  0.0293 -0.2113 -0.0340
 3707DPPE   GL266340  17.268  13.513  16.686  0.1211  0.0718 -0.2711
 3707DPPE   C1A66341  17.197  13.093  16.426 -0.0542  0.0827 -0.0750
 3707DPPE   C2A66342  17.227  13.105  15.923  0.6073 -0.0928 -0.3660
 3707DPPE   C3A66343  17.178  13.049  15.461  0.0904  0.0438  0.4632
 3707DPPE   C4A66344  17.269  13.090  15.069 -0.1935  0.2268 -0.0588
 3707DPPE   C1B66345  17.287  13.594  16.243  0.0517  0.1515  0.0543
 3707DPPE   C2B66346  17.273  13.571  15.752 -0.1233  0.4250 -0.2360
 3707DPPE   C3B66347  17.372  13.527  15.337  0.2442 -0.2302 -0.1104
 3707DPPE   C4B66348  17.177  13.605  14.988  0.1616 -0.4403  0.3068
 3708DPPE   NH366349  13.491  18.462  16.834 -0.0917 -0.2335  0.2627
 3708DPPE   PO466350  13.817  18.376  16.940  0.0397 -0.0307  0.0344
 3708DPPE   GL166351  13.962  18.083  16.603  0.0919 -0.0283 -0.2006
 3708DPPE   GL266352  14.284  18.141  16.274 -0.2101  0.2322 -0.0486
 3708DPPE   C1A66353  13.847  17.901  16.195  0.0109 -0.2753  0.2260
 3708DPPE   C2A66354  13.943  17.932  15.731  0.0675  0.0665 -0.2954
 3708DPPE   C3A66355  13.886  18.020  15.299 -0.3595  0.1694 -0.0767
 3708DPPE   C4A66356  13.993  18.018  14.885 -0.1638 -0.1263  0.1387
 3708DPPE   C1B66357  14.373  18.230  15.852  0.1168 -0.1015 -0.0256
 3708DPPE   C2B66358  14.352  18.209  15.322  0.1526  0.1234  0.5428
 3708DPPE   C3B66359  14.426  18.225  14.856 -0.0664  0.0095 -0.2432
 3708DPPE   C4B66360  14.420  18.050  14.556  0.0555 -0.0976 -0.0828
 3709DPPE   NH366361   7.707  18.001  17.672  0.1970  0.0571  0.0666
 3709DPPE   PO466362   7.834  17.553  17.698 -0.1322 -0.1615  0.4174
 3709DPPE   GL166363   7.737  17.494  17.282  0.1440  0.1708  0.0983
 3709DPPE   GL266364   7.700  17.822  17.181  0.2565  0.0738  0.1735
 3709DPPE   C1A66365   7.687  17.428  16.796 -0.0701 -0.0207  0.2222
 3709DPPE   C2A66366   7.753  17.415  16.397 -0.0530  0.3259 -0.0131
 3709DPPE   C3A66367   7.684  17.522  15.961 -0.2445  0.0692  0.2234
 3709DPPE   C4A66368   7.696  17.331  15.568 -0.1188 -0.0960  0.1630
 3709DPPE   C1B66369   7.751  17.970  16.758 -0.2770 -0.4211  0.0179
 3709DPPE   C2B66370   7.797  17.896  16.303 -0.1575  0.0706 -0.2063
 3709DPPE   C3B66371   7.688  18.035  15.961  0.0332 -0.1837  0.2824
 3709DPPE   C4B66372   7.777  18.090  15.615 -0.1574 -0.0722  0.0274
 3710DPPE   NH366373   7.331  22.145  18.363 -0.1219 -0.1235  0.3532
 3710DPPE   PO466374   7.618  22.415  18.108  0.1383 -0.0048 -0.4389
 3710DPPE   GL166375   7.329  22.546  17.765 -0.0704  0.1945  0.3025
 3710DPPE   GL266376   7.170  22.533  18.000  0.0268  0.0111 -0.0454
 3710DPPE   C1A66377   7.301  22.942  17.423  0.0042  0.1337  0.1913
 3710DPPE   C2A66378   7.146  23.264  17.123  0.3474  0.1106  0.1674
 3710DPPE   C3A66379   7.170  23.645  17.177  0.1683  0.0795 -0.2378
 3710DPPE   C4A66380   7.511  23.887  17.116  0.4302  0.1474 -0.1519
 3710DPPE   C1B66381   6.872  22.715  17.588  0.1827  0.0539  0.0038
 3710DPPE   C2B66382   6.816  22.817  17.173 -0.2559  0.0984 -0.1951
 3710DPPE   C3B66383   6.634  23.215  17.096 -0.1078  0.1694  0.2381
 3710DPPE   C4B66384   6.581  23.587  17.347 -0.2002 -0.0872 -0.0644
 3711DPPE   NH366385  14.138  17.794  17.090  0.1729  0.1226 -0.1738
 3711DPPE   PO466386  14.569  17.769  17.136  0.1003  0.1337 -0.0564
 3711DPPE   GL166387  14.604  17.627  16.731  0.1125 -0.0503 -0.1006
 3711DPPE   GL266388  14.302  17.621  16.632  0.1904 -0.0269 -0.5634
 3711DPPE   C1A66389  14.838  17.860  16.349  0.2662 -0.0474  0.0663
 3711DPPE   C2A66390  14.812  17.872  15.897 -0.1289 -0.0059 -0.0078
 3711DPPE   C3A66391  14.779  17.866  15.382 -0.4570  0.2677  0.1107
 3711DPPE   C4A66392  14.848  17.982  14.871 -0.0463  0.0056 -0.0545
 3711DPPE   C1B66393  14.352  17.618  16.217 -0.2194 -0.2138  0.0372
 3711DPPE   C2B66394  14.350  17.701  15.853  0.3267  0.1113  0.2012
 3711DPPE   C3B66395  14.296  17.587  15.444 -0.1286  0.3205 -0.0957
 3711DPPE   C4B66396  14.311  17.694  15.040 -0.2537 -0.0751 -0.0146
 3712DPPE   NH366397  13.724  24.460  17.025 -0.1273  0.0817  0.0558
 3712DPPE   PO466398  13.583  24.071  16.866  0.2408  0.2227 -0.3458
 3712DPPE   GL166399  13.583  24.249  16.500 -0.0977 -0.1365 -0.2695
 3712DPPE   GL266400  13.560  24.667  16.484 -0.0110 -0.2077 -0.1378
 3712DPPE   C1A66401  13.351  24.279  16.092  0.0119  0.0606 -0.1486
 3712DPPE   C2A66402  13.204  24.293  15.664  0.0846 -0.1054 -0.1385
 3712DPPE   C3A66403  13.291  24.584  15.305  0.0786 -0.1149  0.0723
 3712DPPE   C4A66404  13.091  24.818  14.892 -0.2437  0.1209  0.2205
 3712DPPE   C1B66405  13.791  24.566  16.136  0.0405 -0.0010 -0.0357
 3712DPPE   C2B66406  13.632  24.583  15.677  0.0737 -0.1408  0.1777
 3712DPPE   C3B66407  13.782  24.742  15.289 -0.0674  0.1960  0.2804
 3712DPPE   C4B66408  14.122  24.676  14.943  0.0816  0.0640  0.0809
 3713DPPE   NH366409   7.557  17.117  17.581  0.0036 -0.0122  0.1492
 3713DPPE   PO466410   7.950  17.019  17.518 -0.2081  0.0885 -0.2008
 3713DPPE   GL166411   7.994  17.051  17.071 -0.1569  0.0307  0.0984
 3713DPPE   GL266412   7.629  16.961  17.020  0.2977  0.0136  0.2676
 3713DPPE   C1A66413   8.079  17.112  16.645 -0.2873  0.1002 -0.0829
 3713DPPE   C2A66414   8.149  17.061  16.241  0.1853  0.1947  0.0636
 3713DPPE   C3A66415   8.003  17.094  15.836 -0.0581 -0.1365  0.1426
 3713DPPE   C4A66416   8.179  17.236  15.320 -0.1718 -0.0902  0.1063
 3713DPPE   C1B66417   7.725  16.754  16.603  0.1042  0.0378  0.3279
 3713DPPE   C2B66418   7.613  16.956  16.148  0.1498  0.2040 -0.1694
 3713DPPE   C3B66419   7.608  16.811  15.745 -0.0205 -0.2172  0.1647
 3713DPPE   C4B66420   7.681  16.771  15.324 -0.2766  0.0551  0.1223
 3714DPPE   NH366421  16.392  22.005  16.947 -0.1099  0.3747  0.0225
 3714DPPE   PO466422  16.733  21.965  17.217 -0.1565 -0.0636 -0.0822
 3714DPPE   GL166423  16.855  22.007  16.726 -0.2917  0.1054  0.3383
 3714DPPE   GL266424  17.068  22.236  16.854  0.0433  0.1514  0.1293
 3714DPPE   C1A66425  16.967  21.965  16.250 -0.3082 -0.0292  0.2059
 3714DPPE   C2A66426  16.959  21.928  15.839 -0.0079  0.0692 -0.1608
 3714DPPE   C3A66427  17.108  21.850  15.388 -0.4143 -0.1644  0.1543
 3714DPPE   C4A66428  17.128  22.040  14.903  0.2032  0.2285  0.2885
 3714DPPE   C1B66429  17.067  22.388  16.530  0.1034 -0.2780 -0.0598
 3714DPPE   C2B66430  17.017  22.425  16.054  0.1362  0.0411  0.0704
 3714DPPE   C3B66431  17.141  22.388  15.699  0.1864  0.2155 -0.4481
 3714DPPE   C4B66432  17.325  22.366  15.315  0.1193 -0.0023 -0.2019
 3715DPPE   NH366433  20.679  15.066  17.114 -0.2707  0.1962  0.1242
 3715DPPE   PO466434  20.460  14.833  16.953 -0.1697  0.1680 -0.0547
 3715DPPE   GL166435  20.785  14.546  16.928 -0.0842  0.2692 -0.2189
 3715DPPE   GL266436  20.973  14.627  17.166  0.0173  0.0759  0.3237
 3715DPPE   C1A66437  20.897  14.438  16.563  0.2288 -0.0393 -0.0854
 3715DPPE   C2A66438  20.893  14.657  16.170 -0.0745 -0.0795 -0.0410
 3715DPPE   C3A66439  21.069  14.892  15.806 -0.0779  0.0046  0.1834
 3715DPPE   C4A66440  21.408  15.171  15.806  0.1586  0.4007 -0.4417
 3715DPPE   C1B66441  21.269  14.720  16.902 -0.1087  0.4088 -0.2673
 3715DPPE   C2B66442  21.634  14.618  16.658 -0.2900 -0.0812 -0.3513
 3715DPPE   C3B66443  22.164  14.509  16.730  0.2449 -0.1688  0.0717
 3715DPPE   C4B66444  22.448  14.288  16.627  0.3875  0.0478 -0.1858
 3716DPPE   NH366445   9.396  10.548  18.470 -0.2541 -0.3276  0.0815
 3716DPPE   PO466446   9.104  10.030  18.401 -0.3860 -0.3767 -0.0332
 3716DPPE   GL166447   8.673  10.062  18.548 -0.1574  0.0038  0.1981
 3716DPPE   GL266448   8.690   9.901  18.889 -0.1048  0.3305 -0.2533
 3716DPPE   C1A66449   8.277   9.932  18.365 -0.2256 -0.0129 -0.1440
 3716DPPE   C2A66450   7.981   9.822  18.025  0.2267 -0.1242 -0.1399
 3716DPPE   C3A66451   7.844   9.595  17.692 -0.2527 -0.2246  0.4456
 3716DPPE   C4A66452   7.569   9.254  17.651 -0.2284 -0.4232  0.0436
 3716DPPE   C1B66453   8.350   9.771  18.866  0.0815 -0.2715  0.0228
 3716DPPE   C2B66454   7.984   9.574  18.637  0.2355  0.3452  0.0966
 3716DPPE   C3B66455   7.530   9.446  18.633  0.2005 -0.0280  0.0633
 3716DPPE   C4B66456   7.449   9.280  18.939  0.0114  0.0918  0.2944
 3717DPPE   NH366457  12.252  23.916  16.887  0.2174  0.1997 -0.2317
 3717DPPE   PO466458  12.526  24.081  17.155 -0.2926  0.3940 -0.2126
 3717DPPE   GL166459  12.567  24.320  16.769  0.1989  0.0254 -0.0828
 3717DPPE   GL266460  12.323  24.446  16.720 -0.2334 -0.0335 -0.0280
 3717DPPE   C1A66461  12.503  24.367  16.267  0.0794 -0.1128  0.2698
 3717DPPE   C2A66462  12.406  24.743  15.969 -0.1915 -0.0754 -0.1872
 3717DPPE   C3A66463  12.079  25.017  16.104  0.1272 -0.1499  0.0130
 3717DPPE   C4A66464  11.965  25.373  15.838  0.0375 -0.2616  0.0797
 3717DPPE   C1B66465  12.410  24.807  16.559 -0.0888  0.1118 -0.0563
 3717DPPE   C2B66466  12.613  25.124  16.249 -0.2450 -0.0200  0.2434
 3717DPPE   C3B66467  12.935  25.240  15.930 -0.0116 -0.0350 -0.1163
 3717DPPE   C4B66468  13.095  25.424  15.566 -0.2037 -0.2476 -0.0323
 3718DPPE   NH366469  17.079  12.389  17.036 -0.0735 -0.1268  0.2163
 3718DPPE   PO466470  17.197  12.726  17.108 -0.0239 -0.2929 -0.1497
 3718DPPE   GL166471  17.319  12.683  16.683 -0.1983 -0.3330  0.3925
 3718DPPE   GL266472  17.693  12.671  16.759  0.0259  0.1336  0.1676
 3718DPPE   C1A66473  17.221  12.654  16.172  0.1024 -0.0866  0.2151
 3718DPPE   C2A66474  17.149  12.623  15.726  0.2482  0.4339  0.2076
 3718DPPE   C3A66475  17.056  12.307  15.390 -0.1726 -0.1274  0.2224
 3718DPPE   C4A66476  16.891  12.056  15.080 -0.2835 -0.1653 -0.1818
 3718DPPE   C1B66477  17.671  12.828  16.265  0.0382  0.1065 -0.0855
 3718DPPE   C2B66478  17.827  12.569  16.021  0.0251 -0.0387  0.1280
 3718DPPE   C3B66479  18.160  12.438  15.753 -0.1348  0.3073 -0.0992
 3718DPPE   C4B66480  18.528  12.501  15.561 -0.1189 -0.1656 -0.1581
 3719DPPE   NH366481  17.117  23.175  17.058 -0.1440  0.0550  0.2590
 3719DPPE   PO466482  17.180  22.760  17.238  0.0187  0.2255  0.1252
 3719DPPE   GL166483  17.325  22.759  16.843 -0.2240 -0.2307  0.1589
 3719DPPE   GL266484  17.146  22.994  16.619 -0.1157 -0.1524 -0.0488
 3719DPPE   C1A66485  17.474  22.548  16.426  0.0386 -0.0317  0.1196
 3719DPPE   C2A66486  17.500  22.214  16.013 -0.0751 -0.1411  0.2380
 3719DPPE   C3A66487  17.464  22.000  15.675 -0.0850 -0.1632  0.1676
 3719DPPE   C4A66488  17.676  21.870  15.354 -0.3795 -0.3180 -0.1554
 3719DPPE   C1B66489  17.091  22.892  16.187 -0.2409  0.1873  0.1463
 3719DPPE   C2B66490  16.982  22.923  15.764  0.0669 -0.1603  0.0355
 3719DPPE   C3B66491  17.020  22.876  15.301 -0.1545 -0.1411  0.2508
 3719DPPE   C4B66492  17.051  22.959  14.849 -0.2550  0.1743  0.2264
 3720DPPE   NH366493  18.071  17.745  17.237 -0.0446  0.2584  0.3250
 3720DPPE   PO466494  17.858  17.465  16.928  0.0040  0.0409  0.0748
 3720DPPE   GL166495  17.922  17.390  16.453  0.1209 -0.2079  0.0909
 3720DPPE   GL266496  17.747  17.660  16.293  0.3852 -0.0592  0.0923
 3720DPPE   C1A66497  17.927  17.402  15.972 -0.0361  0.1604  0.0149
 3720DPPE   C2A66498  17.934  17.565  15.532  0.0777 -0.2326 -0.1676
 3720DPPE   C3A66499  18.378  17.619  15.295  0.2427  0.0391  0.1776
 3720DPPE   C4A66500  18.856  17.565  15.321 -0.0075 -0.0481  0.4392
 3720DPPE   C1B66501  17.503  17.743  15.886  0.1575 -0.1985  0.1241
 3720DPPE   C2B66502  17.467  17.780  15.420 -0.0663 -0.0719 -0.1422
 3720DPPE   C3B66503  17.379  17.797  14.989 -0.1346  0.0522 -0.2358
 3720DPPE   C4B66504  17.580  17.695  14.677 -0.1144  0.0957 -0.0306
 3721DPPE   NH366505  11.324  13.136  17.579 -0.2606  0.0958 -0.0685
 3721DPPE   PO466506  11.342  13.544  17.503  0.1720 -0.3403  0.1135
 3721DPPE   GL166507  11.503  13.520  17.098  0.3221  0.1052  0.4229
 3721DPPE   GL266508  11.416  13.234  16.976 -0.1262  0.1605 -0.4500
 3721DPPE   C1A66509  11.438  13.652  16.693  0.3659  0.2347  0.3307
 3721DPPE   C2A66510  11.471  13.716  16.255  0.2927  0.1152 -0.1447
 3721DPPE   C3A66511  11.359  13.592  15.890  0.2124  0.1311 -0.0629
 3721DPPE   C4A66512  11.299  13.547  15.427  0.2312  0.0604  0.2642
 3721DPPE   C1B66513  11.442  13.133  16.485  0.1699 -0.3022 -0.2743
 3721DPPE   C2B66514  11.426  13.090  15.973 -0.0478  0.0328  0.0178
 3721DPPE   C3B66515  11.358  13.026  15.562  0.0046 -0.1950 -0.3558
 3721DPPE   C4B66516  11.503  13.096  15.072 -0.0485  0.0061 -0.0689
 3722DPPE   NH366517  18.927  19.639  17.174 -0.0547  0.2744 -0.0973
 3722DPPE   PO466518  18.868  19.992  16.891  0.1806 -0.1107 -0.2048
 3722DPPE   GL166519  19.245  19.977  16.775  0.4423  0.0372  0.1077
 3722DPPE   GL266520  19.326  19.686  16.915 -0.0227 -0.1235  0.1832
 3722DPPE   C1A66521  19.606  20.287  16.550  0.1567  0.0025 -0.1697
 3722DPPE   C2A66522  19.765  20.092  16.245 -0.2414 -0.0138 -0.0759
 3722DPPE   C3A66523  20.017  20.003  15.869  0.0838  0.2039  0.1419
 3722DPPE   C4A66524  20.443  19.953  15.643 -0.0270  0.0206 -0.1612
 3722DPPE   C1B66525  19.605  19.905  17.154 -0.3405  0.1268 -0.1074
 3722DPPE   C2B66526  19.889  20.214  17.156  0.2167  0.3255  0.1292
 3722DPPE   C3B66527  20.251  20.295  17.156 -0.3016  0.0526  0.0070
 3722DPPE   C4B66528  20.523  20.353  16.839 -0.0666 -0.5045  0.0355
 3723DPPE   NH366529  12.532  19.039  17.693 -0.2414  0.0065  0.3454
 3723DPPE   PO466530  12.311  19.297  17.307 -0.3904  0.0605  0.0465
 3723DPPE   GL166531  12.196  19.275  17.017  0.0336 -0.1431 -0.0056
 3723DPPE   GL266532  11.848  19.271  16.896 -0.0274 -0.0048  0.0927
 3723DPPE   C1A66533  12.269  19.122  16.635 -0.7347  0.1768 -0.4323
 3723DPPE   C2A66534  12.236  19.023  16.265  0.0837 -0.4352 -0.0569
 3723DPPE   C3A66535  12.228  19.113  15.854 -0.0018 -0.2080  0.0211
 3723DPPE   C4A66536  12.187  19.056  15.363 -0.4416  0.3978  0.0639
 3723DPPE   C1B66537  11.896  19.405  16.479 -0.1630 -0.0166  0.0285
 3723DPPE   C2B66538  11.903  19.431  16.039  0.4445  0.1727 -0.2436
 3723DPPE   C3B66539  11.865  19.386  15.666  0.1026  0.0111  0.3004
 3723DPPE   C4B66540  11.816  19.373  15.286 -0.0121  0.1910 -0.0105
 3724DPPE   NH366541  17.841  22.726  16.968  0.0725 -0.1058  0.2929
 3724DPPE   PO466542  18.232  23.003  16.808 -0.0454 -0.0049  0.2555
 3724DPPE   GL166543  18.417  22.924  16.424  0.3748 -0.2492  0.0601
 3724DPPE   GL266544  18.628  22.626  16.562 -0.2532  0.4961  0.2066
 3724DPPE   C1A66545  18.511  23.200  16.072 -0.2177  0.2617  0.1962
 3724DPPE   C2A66546  18.688  23.550  15.914  0.2575  0.1081  0.0959
 3724DPPE   C3A66547  18.834  23.889  16.043  0.0067  0.2267  0.1410
 3724DPPE   C4A66548  19.310  24.086  15.971 -0.2073  0.0231 -0.0315
 3724DPPE   C1B66549  18.939  22.754  16.816 -0.3050 -0.1759  0.0693
 3724DPPE   C2B66550  19.311  22.962  16.895 -0.1229 -0.0257 -0.3450
 3724DPPE   C3B66551  19.743  22.956  16.900  0.1207  0.1084 -0.0475
 3724DPPE   C4B66552  20.016  23.110  16.587  0.1588 -0.0419 -0.1539
 3725DPPE   NH366553  15.687  13.268  17.156 -0.2197 -0.2211 -0.0887
 3725DPPE   PO466554  16.048  13.622  17.164  0.0609  0.1370  0.2720
 3725DPPE   GL166555  15.947  13.475  16.742 -0.1565  0.0915 -0.1235
 3725DPPE   GL266556  15.639  13.572  16.707  0.3150  0.1298 -0.2780
 3725DPPE   C1A66557  15.917  13.354  16.305  0.2878  0.2236  0.0650
 3725DPPE   C2A66558  15.905  13.389  15.873 -0.0307  0.1171  0.2003
 3725DPPE   C3A66559  15.900  13.266  15.433 -0.0169  0.5453 -0.1270
 3725DPPE   C4A66560  15.794  13.322  15.019 -0.1424 -0.1198 -0.0177
 3725DPPE   C1B66561  15.466  13.586  16.295 -0.0797  0.1162 -0.1475
 3725DPPE   C2B66562  15.448  13.606  15.837 -0.0161  0.2121  0.2310
 3725DPPE   C3B66563  15.466  13.631  15.388 -0.1333 -0.1288  0.1499
 3725DPPE   C4B66564  15.525  13.735  15.020  0.0877 -0.1320  0.3773
 3726DPPE   NH366565  18.693  18.932  16.738 -0.1058 -0.0893 -0.0471
 3726DPPE   PO466566  18.463  18.633  16.473  0.3759 -0.0416  0.1874
 3726DPPE   GL166567  18.688  18.861  16.199 -0.3315  0.2169 -0.0675
 3726DPPE   GL266568  18.686  19.157  16.247  0.0029 -0.1728  0.0621
 3726DPPE   C1A66569  18.904  18.927  15.792 -0.1200  0.1314  0.0018
 3726DPPE   C2A66570  18.965  19.386  15.888  0.1324 -0.2181  0.2221
 3726DPPE   C3A66571  18.955  19.851  16.038  0.3304  0.3001 -0.0075
 3726DPPE   C4A66572  19.227  20.234  16.247 -0.1948  0.0253  0.1363
 3726DPPE   C1B66573  18.492  19.167  15.828 -0.2803 -0.1385 -0.0449
 3726DPPE   C2B66574  18.577  19.296  15.377 -0.0828 -0.5021  0.0900
 3726DPPE   C3B66575  18.571  19.264  14.884  0.1745 -0.0590 -0.1895
 3726DPPE   C4B66576  18.350  19.611  14.636 -0.1438 -0.1461  0.0606
 3727DPPE   NH366577  12.331  24.348  17.592 -0.0373  0.1161  0.1265
 3727DPPE   PO466578  12.380  24.693  17.722 -0.1103  0.2401 -0.1784
 3727DPPE   GL166579  12.514  25.065  17.446 -0.0174  0.0201 -0.1787
 3727DPPE   GL266580  12.530  25.478  17.515 -0.2118  0.1789 -0.0641
 3727DPPE   C1A66581  12.749  25.165  17.018  0.1923  0.5486 -0.0499
 3727DPPE   C2A66582  12.907  25.347  16.694  0.0750 -0.2818  0.1794
 3727DPPE   C3A66583  12.832  25.561  16.370 -0.0342 -0.1560  0.1634
 3727DPPE   C4A66584  12.718  25.704  15.934 -0.1404  0.0170 -0.3277
 3727DPPE   C1B66585  12.725  25.660  17.142 -0.0959  0.1292  0.0410
 3727DPPE   C2B66586  12.709  25.930  16.763 -0.0014  0.1295 -0.4412
 3727DPPE   C3B66587  12.870  26.375  16.725 -0.1241 -0.0373  0.0096
 3727DPPE   C4B66588  13.056  26.705  16.379  0.2184  0.0898 -0.3796
 3728DPPE   NH366589  16.790  24.421  17.490 -0.4462  0.1576 -0.1446
 3728DPPE   PO466590  16.856  24.595  17.046  0.0211 -0.0642  0.3354
 3728DPPE   GL166591  16.797  24.994  16.859 -0.2526  0.0633 -0.1867
 3728DPPE   GL266592  16.986  25.235  16.830  0.3372  0.0412 -0.2886
 3728DPPE   C1A66593  16.698  25.260  16.411  0.0192 -0.0099  0.0782
 3728DPPE   C2A66594  16.355  25.569  16.220  0.0686 -0.0468 -0.0111
 3728DPPE   C3A66595  15.870  25.654  16.233  0.3442  0.0248 -0.2368
 3728DPPE   C4A66596  15.557  25.544  16.542  0.1771  0.2191 -0.0797
 3728DPPE   C1B66597  17.382  25.372  16.604 -0.0229 -0.0482 -0.1258
 3728DPPE   C2B66598  17.597  25.694  16.281  0.1691  0.0727 -0.3236
 3728DPPE   C3B66599  17.644  26.103  16.258  0.2473  0.1296  0.1804
 3728DPPE   C4B66600  17.790  26.498  16.315 -0.0281 -0.4548  0.1853
 3729DPPE   NH366601   9.699  17.187  18.104  0.1695 -0.1870 -0.0004
 3729DPPE   PO466602   9.802  16.767  17.867 -0.0808  0.1087  0.2505
 3729DPPE   GL166603   9.569  16.702  17.498  0.1474  0.0978  0.0539
 3729DPPE   GL266604   9.745  16.501  17.388 -0.1766  0.1843 -0.0004
 3729DPPE   C1A66605   9.318  16.709  17.086 -0.1352  0.1289  0.0139
 3729DPPE   C2A66606   9.424  16.699  16.592 -0.1407 -0.3636  0.0062
 3729DPPE   C3A66607   9.410  16.677  16.143  0.2139 -0.0581  0.1372
 3729DPPE   C4A66608   9.337  16.639  15.702 -0.1701 -0.1064  0.3165
 3729DPPE   C1B66609   9.746  16.497  16.986  0.1403 -0.0099  0.0328
 3729DPPE   C2B66610   9.830  16.467  16.557 -0.2867  0.0776 -0.1559
 3729DPPE   C3B66611   9.810  16.403  16.125  0.2615  0.1217 -0.0768
 3729DPPE   C4B66612   9.731  16.275  15.745 -0.0234 -0.3597  0.2087
 3730DPPE   NH366613   7.654  11.544  17.952  0.2302 -0.2273 -0.0745
 3730DPPE   PO466614   7.827  11.199  18.251  0.0786  0.1216  0.0681
 3730DPPE   GL166615   7.643  10.995  18.413  0.3335  0.1160  0.2227
 3730DPPE   GL266616   7.728  11.038  18.827  0.6063 -0.0045 -0.4406
 3730DPPE   C1A66617   7.649  10.561  18.584 -0.1277  0.1365 -0.1765
 3730DPPE   C2A66618   7.291  10.327  18.568  0.3455 -0.1136 -0.2894
 3730DPPE   C3A66619   6.826  10.240  18.464  0.1403 -0.0082 -0.0283
 3730DPPE   C4A66620   6.640   9.788  18.191 -0.1772  0.5632  0.0600
 3730DPPE   C1B66621   7.736  10.877  19.205 -0.1462  0.1934 -0.2573
 3730DPPE   C2B66622   7.877  10.766  19.611  0.0374  0.1800  0.0230
 3730DPPE   C3B66623   7.858  10.814  20.036  0.3187  0.4179  0.3734
 3730DPPE   C4B66624   7.741  10.996  20.431  0.0672  0.1178  0.0765
 3731DPPE   NH366625  12.853   9.656  16.906 -0.0442  0.0500 -0.0855
 3731DPPE   PO466626  12.587   9.444  17.193 -0.1743 -0.1013  0.0855
 3731DPPE   GL166627  12.459   9.055  17.178  0.0784 -0.0286 -0.2294
 3731DPPE   GL266628  12.223   9.036  17.409 -0.3411 -0.1969 -0.1268
 3731DPPE   C1A66629  12.580   8.613  17.103  0.1405 -0.2481 -0.0261
 3731DPPE   C2A66630  12.922   8.477  16.755  0.1716 -0.2358  0.0991
 3731DPPE   C3A66631  12.797   8.217  16.469  0.3497  0.1327 -0.0924
 3731DPPE   C4A66632  12.773   8.020  16.067  0.1018 -0.1341 -0.2147
 3731DPPE   C1B66633  12.274   8.532  17.509 -0.2260  0.0409 -0.0717
 3731DPPE   C2B66634  12.378   8.088  17.593  0.0613  0.0245  0.2013
 3731DPPE   C3B66635  12.532   7.636  17.761 -0.2304  0.0687 -0.0560
 3731DPPE   C4B66636  12.383   7.585  18.067  0.1378  0.0065  0.1222
 3732DPPE   NH366637  23.342  17.610  15.233  0.1560 -0.1441 -0.0421
 3732DPPE   PO466638  23.137  17.832  15.599 -0.2222 -0.1820  0.1233
 3732DPPE   GL166639  22.627  18.019  15.685 -0.0496 -0.3519  0.0859
 3732DPPE   GL266640  22.385  17.789  15.610 -0.4180 -0.2946 -0.0736
 3732DPPE   C1A66641  22.435  18.192  15.995  0.1392  0.2878 -0.1130
 3732DPPE   C2A66642  22.248  18.503  16.292  0.2323  0.0977 -0.2279
 3732DPPE   C3A66643  21.787  18.629  16.246 -0.2059  0.0575 -0.1300
 3732DPPE   C4A66644  21.433  18.925  16.206  0.1590 -0.1455 -0.0998
 3732DPPE   C1B66645  22.314  17.651  16.036  0.1101 -0.2493  0.0315
 3732DPPE   C2B66646  22.068  17.588  16.416  0.3065 -0.2150  0.1364
 3732DPPE   C3B66647  21.913  17.787  16.895  0.1828  0.0945  0.0856
 3732DPPE   C4B66648  21.640  17.929  17.241 -0.2043 -0.0648  0.1274
 3733DPPE   NH366649  24.236  14.060  15.604  0.2320 -0.0196 -0.2023
 3733DPPE   PO466650  23.811  14.037  15.615 -0.1876  0.3267  0.1739
 3733DPPE   GL166651  23.594  14.073  16.004 -0.1776 -0.0545  0.2419
 3733DPPE   GL266652  23.547  13.787  16.252  0.0369  0.3267 -0.1298
 3733DPPE   C1A66653  23.225  14.151  16.294  0.1297 -0.1206 -0.1003
 3733DPPE   C2A66654  23.003  14.334  16.512 -0.0887  0.3475 -0.0269
 3733DPPE   C3A66655  22.760  14.660  16.720 -0.0201  0.0957 -0.3200
 3733DPPE   C4A66656  22.962  14.926  16.962  0.1973 -0.0152 -0.0216
 3733DPPE   C1B66657  23.139  13.673  16.190  0.4853 -0.2541  0.0266
 3733DPPE   C2B66658  22.659  13.630  16.110 -0.3882 -0.1723 -0.0275
 3733DPPE   C3B66659  22.246  13.575  15.983  0.0149  0.3042 -0.1702
 3733DPPE   C4B66660  21.885  13.571  15.815  0.3409 -0.3716 -0.0587
 3734DPPE   NH366661  23.310  18.905  18.370  0.0859 -0.3575 -0.0384
 3734DPPE   PO466662  23.244  18.452  18.150 -0.1609 -0.0880  0.1308
 3734DPPE   GL166663  22.884  18.361  18.109  0.0512  0.0046 -0.1223
 3734DPPE   GL266664  22.914  18.008  18.117  0.2202  0.1567  0.3555
 3734DPPE   C1A66665  22.473  18.225  18.075 -0.0223 -0.1373  0.2124
 3734DPPE   C2A66666  22.161  17.869  18.125  0.2962  0.2447 -0.0537
 3734DPPE   C3A66667  22.028  17.521  18.374  0.0595  0.1204  0.1368
 3734DPPE   C4A66668  21.939  17.119  18.590 -0.0158 -0.1476 -0.1177
 3734DPPE   C1B66669  22.639  17.785  18.147  0.0066  0.2408  0.1422
 3734DPPE   C2B66670  22.414  17.416  18.035  0.2164 -0.2985 -0.1273
 3734DPPE   C3B66671  22.092  17.384  17.797  0.2518 -0.1605  0.0310
 3734DPPE   C4B66672  21.741  17.334  18.038  0.2398 -0.0626 -0.2878
 3735DPPE   NH366673  24.187  14.664  17.673  0.0385 -0.3729  0.0691
 3735DPPE   PO466674  23.975  14.526  17.361 -0.1948 -0.0416 -0.3317
 3735DPPE   GL166675  23.702  14.587  17.738  0.0665  0.0055  0.0344
 3735DPPE   GL266676  23.490  14.712  17.974 -0.1432 -0.1575 -0.3269
 3735DPPE   C1A66677  23.381  14.253  17.668 -0.0265 -0.3212  0.0157
 3735DPPE   C2A66678  23.075  14.334  17.478  0.0890 -0.0724 -0.2620
 3735DPPE   C3A66679  22.715  14.488  17.362 -0.2565 -0.0738  0.0289
 3735DPPE   C4A66680  22.287  14.522  17.252 -0.1366  0.2221 -0.0262
 3735DPPE   C1B66681  23.029  14.450  17.987 -0.3256  0.0707  0.0231
 3735DPPE   C2B66682  23.008  14.075  18.135  0.0552 -0.0705  0.0281
 3735DPPE   C3B66683  22.948  13.653  17.969  0.2181 -0.3922  0.0578
 3735DPPE   C4B66684  22.910  13.265  18.232  0.1362  0.4437  0.0182
 3736DPPE   NH366685  22.593  20.026  16.178 -0.1512 -0.1606 -0.0395
 3736DPPE   PO466686  22.553  20.429  16.419  0.0640 -0.3219  0.2566
 3736DPPE   GL166687  22.331  20.130  16.580 -0.0057  0.0669 -0.4840
 3736DPPE   GL266688  22.148  20.089  16.308 -0.0257  0.4682 -0.0067
 3736DPPE   C1A66689  22.119  19.810  16.916 -0.1422  0.0765  0.0404
 3736DPPE   C2A66690  21.843  19.728  17.241 -0.4546 -0.2185  0.0471
 3736DPPE   C3A66691  21.508  19.686  17.451  0.1510 -0.1869  0.3637
 3736DPPE   C4A66692  21.305  19.376  17.383  0.0813  0.0171 -0.0991
 3736DPPE   C1B66693  21.845  19.851  16.520  0.1706  0.1246 -0.0098
 3736DPPE   C2B66694  21.424  19.808  16.558  0.0616 -0.0027  0.1492
 3736DPPE   C3B66695  21.005  20.064  16.584  0.2311  0.1871  0.1774
 3736DPPE   C4B66696  20.923  20.433  16.515 -0.1756  0.2027 -0.0709
 3737DPPE   NH366697  23.164  19.319  17.949  0.2324  0.1976 -0.2889
 3737DPPE   PO466698  22.903  19.687  17.984  0.3181 -0.1150  0.4443
 3737DPPE   GL166699  22.694  19.351  17.980 -0.2109  0.2308 -0.0164
 3737DPPE   GL266700  22.571  19.124  17.694 -0.1465 -0.0991 -0.1235
 3737DPPE   C1A66701  22.504  18.922  18.180  0.0540  0.0975 -0.1814
 3737DPPE   C2A66702  22.395  18.658  17.964 -0.2793  0.1733 -0.2952
 3737DPPE   C3A66703  22.212  18.339  17.574  0.2553  0.3279 -0.2870
 3737DPPE   C4A66704  22.068  18.104  17.217  0.2266 -0.3622  0.4534
 3737DPPE   C1B66705  22.226  18.880  17.571 -0.2626 -0.1034  0.4044
 3737DPPE   C2B66706  21.903  18.866  17.913 -0.1170 -0.2181  0.3978
 3737DPPE   C3B66707  21.797  18.675  18.410 -0.1435 -0.2991 -0.2544
 3737DPPE   C4B66708  21.896  18.192  18.559  0.1198 -0.2076  0.0687
 3738DPPE   NH366709  23.148  11.115  17.624  0.2145  0.0976 -0.4357
 3738DPPE   PO466710  22.844  10.919  17.417  0.0274 -0.0690 -0.1157
 3738DPPE   GL166711  22.666  11.141  17.642  0.0218 -0.0458  0.2286
 3738DPPE   GL266712  22.420  11.203  17.554  0.2502 -0.1855 -0.0231
 3738DPPE   C1A66713  22.684  11.585  17.516  0.3343  0.0231 -0.3871
 3738DPPE   C2A66714  22.479  11.914  17.231 -0.2912  0.0986  0.0486
 3738DPPE   C3A66715  22.033  12.321  17.123  0.1698 -0.0649 -0.2936
 3738DPPE   C4A66716  21.713  12.318  17.308 -0.0186 -0.2309  0.0793
 3738DPPE   C1B66717  22.264  11.493  17.208  0.2724 -0.2023  0.1512
 3738DPPE   C2B66718  21.893  11.778  17.168 -0.2780 -0.2315 -0.0644
 3738DPPE   C3B66719  21.643  11.801  17.642 -0.1004 -0.2955 -0.0359
 3738DPPE   C4B66720  21.384  11.560  17.942 -0.3213  0.0060  0.1581
 3739DPPE   NH366721  23.498  16.718  16.129 -0.3828 -0.2021  0.0847
 3739DPPE   PO466722  23.479  16.975  16.502  0.0721  0.0744 -0.0943
 3739DPPE   GL166723  23.119  16.866  16.626 -0.1474  0.0009  0.0678
 3739DPPE   GL266724  23.152  17.048  16.936  0.0827 -0.0984 -0.2825
 3739DPPE   C1A66725  22.756  16.590  16.478 -0.3345 -0.1584  0.5199
 3739DPPE   C2A66726  22.368  16.606  16.357 -0.2537  0.0474 -0.0788
 3739DPPE   C3A66727  22.236  16.492  15.973 -0.0172 -0.1418 -0.1391
 3739DPPE   C4A66728  21.806  16.418  15.852 -0.2296  0.2326  0.0499
 3739DPPE   C1B66729  22.757  17.245  16.835 -0.3530  0.0590  0.0338
 3739DPPE   C2B66730  22.353  17.476  16.932 -0.1919  0.3691  0.0220
 3739DPPE   C3B66731  22.077  17.585  17.290  0.1297  0.2435 -0.0317
 3739DPPE   C4B66732  21.960  17.918  17.643 -0.2151 -0.0727  0.2237
 3740DPPE   NH366733  23.909  14.799  16.949 -0.1033 -0.3047  0.2143
 3740DPPE   PO466734  23.875  15.027  16.699  0.1511  0.0023 -0.0700
 3740DPPE   GL166735  23.506  15.150  16.454 -0.0068  0.0151 -0.3457
 3740DPPE   GL266736  23.412  15.345  16.200  0.1890  0.1256  0.1818
 3740DPPE   C1A66737  23.207  14.795  16.504  0.1028  0.1044  0.0636
 3740DPPE   C2A66738  22.948  14.696  16.191 -0.0186  0.1783 -0.1850
 3740DPPE   C3A66739  22.660  14.887  16.026  0.0678  0.1915 -0.1118
 3740DPPE   C4A66740  22.412  15.121  16.150 -0.0392 -0.1905 -0.2268
 3740DPPE   C1B66741  23.263  15.670  16.292 -0.1417  0.0508 -0.0387
 3740DPPE   C2B66742  23.094  16.025  16.287  0.1552 -0.1687 -0.1910
 3740DPPE   C3B66743  23.093  16.234  16.656  0.0604 -0.4323 -0.2085
 3740DPPE   C4B66744  22.867  16.441  16.923 -0.1707 -0.0875 -0.4416
 3741DPPE   NH366745  23.844  12.897  16.780 -0.1987 -0.2002  0.0222
 3741DPPE   PO466746  23.543  13.238  16.721  0.0745 -0.0610  0.2197
 3741DPPE   GL166747  23.299  13.361  16.924 -0.1671 -0.2206  0.2718
 3741DPPE   GL266748  23.455  13.694  17.122  0.1114  0.1430 -0.0764
 3741DPPE   C1A66749  22.829  13.589  17.065  0.3632  0.0351 -0.0854
 3741DPPE   C2A66750  22.336  13.503  17.139 -0.2258 -0.1616 -0.2973
 3741DPPE   C3A66751  22.016  13.757  16.933 -0.2999 -0.0211  0.2781
 3741DPPE   C4A66752  21.518  13.735  16.913 -0.0018 -0.1485 -0.2506
 3741DPPE   C1B66753  23.274  13.888  17.319 -0.2763 -0.3081  0.0995
 3741DPPE   C2B66754  22.793  13.916  17.472 -0.1314 -0.1999  0.2686
 3741DPPE   C3B66755  22.637  14.142  17.772  0.0443 -0.0080  0.1508
 3741DPPE   C4B66756  22.632  14.445  18.310  0.1394  0.1808  0.0563
 3742DPPE   NH366757  23.269  17.439  18.514 -0.3514 -0.1491  0.2313
 3742DPPE   PO466758  23.034  17.695  18.819 -0.0325  0.0807  0.2703
 3742DPPE   GL166759  22.654  17.492  18.980 -0.3309 -0.0578  0.2149
 3742DPPE   GL266760  22.672  17.269  18.838  0.3678 -0.1191  0.0595
 3742DPPE   C1A66761  22.213  17.276  19.040 -0.1885 -0.1030 -0.2041
 3742DPPE   C2A66762  22.126  16.982  19.358  0.1405 -0.0215 -0.0318
 3742DPPE   C3A66763  22.086  16.585  19.639  0.2305  0.1178 -0.1032
 3742DPPE   C4A66764  21.867  16.134  19.683 -0.0506 -0.1056  0.1289
 3742DPPE   C1B66765  22.404  16.821  18.869 -0.0726 -0.2119 -0.1098
 3742DPPE   C2B66766  21.971  16.635  18.787  0.1268  0.0139  0.0721
 3742DPPE   C3B66767  21.567  16.814  18.931 -0.0555 -0.1260  0.0425
 3742DPPE   C4B66768  21.172  16.971  19.041 -0.1880 -0.4318  0.4511
 3743DPPE   NH366769  22.046  21.816  17.066  0.1910  0.0120  0.3192
 3743DPPE   PO466770  21.868  21.646  16.599  0.4371 -0.2483 -0.0414
 3743DPPE   GL166771  21.657  21.228  16.690  0.0438 -0.1578  0.2314
 3743DPPE   GL266772  21.647  20.864  16.538  0.1236 -0.0234 -0.2736
 3743DPPE   C1A66773  21.271  20.951  16.990 -0.0095  0.2071 -0.0074
 3743DPPE   C2A66774  21.024  20.740  17.285  0.0019 -0.0596 -0.2134
 3743DPPE   C3A66775  20.667  20.750  17.488  0.3639  0.0651 -0.2224
 3743DPPE   C4A66776  20.294  20.633  17.474  0.4001 -0.1964  0.1480
 3743DPPE   C1B66777  21.284  20.986  16.387  0.6451  0.0829 -0.1229
 3743DPPE   C2B66778  20.917  21.339  16.175 -0.0001  0.1947  0.0297
 3743DPPE   C3B66779  20.571  21.433  16.045  0.0119 -0.2015 -0.1739
 3743DPPE   C4B66780  20.154  21.419  16.171  0.0356 -0.0409 -0.0955
 3744DPPE   NH366781  23.662  17.397  16.234 -0.4467 -0.1323  0.0501
 3744DPPE   PO466782  23.564  17.395  15.755 -0.0788 -0.0835  0.1886
 3744DPPE   GL166783  23.286  17.682  16.054  0.0127  0.2487 -0.3180
 3744DPPE   GL266784  23.232  17.847  16.375  0.2649 -0.2833 -0.1161
 3744DPPE   C1A66785  22.987  17.429  16.389  0.0519 -0.1304  0.2171
 3744DPPE   C2A66786  22.685  17.120  16.243 -0.0481 -0.0988 -0.1661
 3744DPPE   C3A66787  22.843  16.820  16.025 -0.2925 -0.0015 -0.0415
 3744DPPE   C4A66788  22.896  16.373  15.989 -0.1008 -0.0988  0.0964
 3744DPPE   C1B66789  23.031  17.839  16.716  0.0252  0.2422  0.2015
 3744DPPE   C2B66790  22.669  17.851  16.939 -0.0096  0.1096 -0.0529
 3744DPPE   C3B66791  22.528  17.930  17.249  0.2026  0.1077  0.2969
 3744DPPE   C4B66792  22.463  17.748  17.631 -0.0741 -0.1895 -0.3297
 3745DPPE   NH366793  23.880  14.952  16.121  0.2832 -0.0790 -0.0098
 3745DPPE   PO466794  23.825  14.600  16.396 -0.3039  0.0927 -0.4570
 3745DPPE   GL166795  23.570  14.499  16.720 -0.1002 -0.0608  0.2534
 3745DPPE   GL266796  23.545  14.477  17.157  0.2418 -0.2223  0.0926
 3745DPPE   C1A66797  23.440  14.089  16.838 -0.2447 -0.0903 -0.0965
 3745DPPE   C2A66798  23.165  13.835  16.659  0.0649  0.0262  0.4042
 3745DPPE   C3A66799  22.795  13.926  16.596  0.0982  0.0255  0.2785
 3745DPPE   C4A66800  22.387  13.859  16.498 -0.0383 -0.0150  0.1773
 3745DPPE   C1B66801  23.158  14.406  17.028 -0.1776 -0.0510  0.2751
 3745DPPE   C2B66802  22.926  14.181  16.985 -0.0611 -0.2426 -0.0278
 3745DPPE   C3B66803  22.524  13.993  17.082  0.0874 -0.0343  0.1219
 3745DPPE   C4B66804  22.247  13.959  17.461  0.1007  0.3797 -0.0689
 3746DPPE   NH366805  23.714  13.465  15.882 -0.0720 -0.0038 -0.0045
 3746DPPE   PO466806  23.598  12.956  15.814  0.0349  0.1729  0.1507
 3746DPPE   GL166807  23.274  13.016  16.007  0.2352 -0.1916  0.0257
 3746DPPE   GL266808  23.313  13.025  16.362  0.0630 -0.0608  0.0421
 3746DPPE   C1A66809  22.888  13.180  16.059  0.1364  0.0644 -0.3116
 3746DPPE   C2A66810  22.582  13.174  15.811 -0.0089  0.1774  0.1198
 3746DPPE   C3A66811  22.144  13.056  15.725 -0.4270 -0.0476  0.2231
 3746DPPE   C4A66812  21.793  13.187  15.516  0.2728  0.1243  0.0617
 3746DPPE   C1B66813  22.891  13.199  16.559  0.0210 -0.3375  0.3023
 3746DPPE   C2B66814  22.645  13.411  16.620  0.1406  0.0123 -0.1542
 3746DPPE   C3B66815  22.267  13.358  16.489 -0.5237  0.2262 -0.3163
 3746DPPE   C4B66816  21.979  13.185  16.253  0.0030 -0.1078 -0.0322
 3747DPPE   NH366817  23.157  15.200  15.042 -0.1444  0.1382  0.0180
 3747DPPE   PO466818  23.248  15.639  15.123 -0.2044  0.2185 -0.1271
 3747DPPE   GL166819  23.188  15.726  15.546  0.1278  0.1751 -0.1942
 3747DPPE   GL266820  23.275  15.340  15.579 -0.0166  0.2931 -0.3230
 3747DPPE   C1A66821  22.944  15.810  15.861 -0.2158  0.2906 -0.2746
 3747DPPE   C2A66822  22.508  15.784  16.093  0.1772  0.1318  0.0077
 3747DPPE   C3A66823  22.160  15.504  16.363 -0.2055 -0.1976  0.0835
 3747DPPE   C4A66824  22.088  15.416  16.706 -0.4215 -0.0950 -0.1158
 3747DPPE   C1B66825  22.988  15.231  15.967 -0.1802  0.2304 -0.0687
 3747DPPE   C2B66826  22.976  15.213  16.350  0.0277  0.0131 -0.1578
 3747DPPE   C3B66827  22.677  15.213  16.618 -0.1052 -0.3940  0.2519
 3747DPPE   C4B66828  22.394  14.979  16.637 -0.0345 -0.0446 -0.0159
 3748DPPE   NH366829  22.202  21.019  17.681  0.3515  0.2941 -0.1970
 3748DPPE   PO466830  22.272  20.631  17.895  0.1170  0.1954  0.0264
 3748DPPE   GL166831  21.813  20.689  17.704  0.3284 -0.0548 -0.2454
 3748DPPE   GL266832  21.673  20.525  17.864 -0.0297  0.1417 -0.0397
 3748DPPE   C1A66833  21.327  20.897  17.731  0.0396  0.1868  0.3603
 3748DPPE   C2A66834  20.910  21.155  17.579 -0.2955 -0.1003 -0.0064
 3748DPPE   C3A66835  20.437  21.277  17.448 -0.1250 -0.2776 -0.3529
 3748DPPE   C4A66836  19.984  21.269  17.137  0.0092 -0.3517  0.2041
 3748DPPE   C1B66837  21.841  20.215  17.526 -0.1524 -0.1160 -0.1023
 3748DPPE   C2B66838  22.061  19.812  17.671 -0.0881 -0.2339 -0.0053
 3748DPPE   C3B66839  22.249  19.453  17.805 -0.0570  0.2063  0.0010
 3748DPPE   C4B66840  22.213  19.311  18.246 -0.0230 -0.1853 -0.0572
 3749DPPE   NH366841  19.769  12.983  17.551  0.0810  0.0729  0.0247
 3749DPPE   PO466842  19.897  13.296  17.755  0.1535 -0.2078 -0.1279
 3749DPPE   GL166843  20.302  13.150  17.880  0.2488  0.2601 -0.1687
 3749DPPE   GL266844  20.266  13.038  18.219  0.3140  0.1267  0.0671
 3749DPPE   C1A66845  20.664  12.871  17.786 -0.3388 -0.2518 -0.1010
 3749DPPE   C2A66846  21.168  12.793  17.817  0.3212 -0.1483  0.0211
 3749DPPE   C3A66847  21.407  13.028  17.839 -0.2858 -0.0765 -0.1687
 3749DPPE   C4A66848  21.745  13.225  17.564  0.1167 -0.4889 -0.0873
 3749DPPE   C1B66849  20.638  13.184  18.263 -0.2932  0.0808  0.0251
 3749DPPE   C2B66850  21.057  13.307  17.943  0.2491 -0.1428  0.0736
 3749DPPE   C3B66851  21.133  13.764  18.094  0.0625 -0.0478  0.2444
 3749DPPE   C4B66852  21.159  14.252  18.082 -0.0777  0.0015 -0.2556
 3750DPPE   NH366853  20.214  15.132  17.332 -0.0137 -0.2082  0.1253
 3750DPPE   PO466854  20.544  15.150  17.641  0.0879 -0.2548  0.2368
 3750DPPE   GL166855  20.936  15.168  17.532 -0.0752 -0.1297 -0.2627
 3750DPPE   GL266856  21.120  15.055  17.322  0.0532 -0.0291  0.0463
 3750DPPE   C1A66857  21.205  15.578  17.572  0.2508 -0.0494 -0.0024
 3750DPPE   C2A66858  21.585  15.759  17.770  0.0441  0.0340  0.1321
 3750DPPE   C3A66859  22.008  15.680  17.810 -0.4533  0.0053  0.3921
 3750DPPE   C4A66860  22.407  15.613  17.948  0.1965 -0.4844 -0.1496
 3750DPPE   C1B66861  21.578  14.981  17.286 -0.0347  0.0263 -0.1456
 3750DPPE   C2B66862  21.748  14.606  17.166 -0.1637 -0.1351 -0.0424
 3750DPPE   C3B66863  21.815  14.219  17.001 -0.0150 -0.2109  0.3274
 3750DPPE   C4B66864  21.716  14.088  16.616 -0.0898  0.2114 -0.2724
 3751DPPE   NH366865  19.317  15.170  16.670  0.1058 -0.2551 -0.1178
 3751DPPE   PO466866  19.666  15.295  16.597  0.1331  0.0697 -0.1624
 3751DPPE   GL166867  19.855  15.358  16.276 -0.1851  0.1202  0.1564
 3751DPPE   GL266868  19.979  15.641  16.370 -0.2514 -0.1070  0.1947
 3751DPPE   C1A66869  20.046  15.468  15.894  0.2884  0.2776 -0.2590
 3751DPPE   C2A66870  20.415  15.471  15.662 -0.1872 -0.1484 -0.1687
 3751DPPE   C3A66871  20.678  15.160  15.421  0.2492  0.0388 -0.2060
 3751DPPE   C4A66872  20.682  14.944  14.958 -0.1358  0.0304 -0.1984
 3751DPPE   C1B66873  20.431  15.648  16.209  0.1826  0.0650 -0.2293
 3751DPPE   C2B66874  20.702  15.791  15.989 -0.1482 -0.3363 -0.2407
 3751DPPE   C3B66875  20.945  16.135  15.795  0.2370  0.0144  0.0382
 3751DPPE   C4B66876  21.322  16.385  15.855 -0.1144 -0.1641  0.1200
 3752DPPE   NH366877  20.044  17.148  16.871 -0.0799 -0.2633  0.1705
 3752DPPE   PO466878  20.140  16.849  17.129  0.0500  0.3740  0.0127
 3752DPPE   GL166879  20.513  16.976  17.029 -0.1279  0.2355 -0.1321
 3752DPPE   GL266880  20.633  16.925  17.370  0.1289 -0.1283 -0.1148
 3752DPPE   C1A66881  20.856  17.181  16.826  0.0292 -0.1773 -0.1942
 3752DPPE   C2A66882  20.991  17.444  16.550  0.2470 -0.0780 -0.0781
 3752DPPE   C3A66883  21.091  17.936  16.564  0.2686 -0.1656  0.0902
 3752DPPE   C4A66884  20.947  18.339  16.566 -0.0397 -0.2531  0.0517
 3752DPPE   C1B66885  21.058  17.108  17.250 -0.0206 -0.0161  0.0943
 3752DPPE   C2B66886  21.396  16.975  17.034 -0.2043 -0.2077 -0.0130
 3752DPPE   C3B66887  21.525  16.696  16.708 -0.1521 -0.1498  0.0442
 3752DPPE   C4B66888  21.887  16.680  16.361 -0.3682 -0.0347  0.0499
 3753DPPE   NH366889  19.154  18.691  17.536  0.2943  0.2789 -0.2651
 3753DPPE   PO466890  19.466  18.752  17.272 -0.1208  0.0914 -0.1466
 3753DPPE   GL166891  19.904  18.905  17.201  0.1099 -0.1553 -0.1750
 3753DPPE   GL266892  20.016  18.900  16.932 -0.0514  0.1792  0.1974
 3753DPPE   C1A66893  20.188  19.280  17.364  0.0512 -0.1281  0.2704
 3753DPPE   C2A66894  20.445  19.362  17.820 -0.0056 -0.1888 -0.0420
 3753DPPE   C3A66895  20.607  19.502  18.134 -0.2529 -0.0172 -0.3691
 3753DPPE   C4A66896  20.935  19.455  18.248  0.1528  0.0242  0.0282
 3753DPPE   C1B66897  20.282  18.877  16.549  0.2420  0.1404 -0.1884
 3753DPPE   C2B66898  20.783  18.849  16.406 -0.2603 -0.1033  0.4783
 3753DPPE   C3B66899  20.981  18.620  16.086 -0.1683  0.0532 -0.3471
 3753DPPE   C4B66900  21.069  18.390  15.634  0.0619 -0.1627 -0.0985
 3754DPPE   NH366901  19.109  19.161  17.320  0.2789 -0.1885  0.0179
 3754DPPE   PO466902  19.120  19.073  16.948 -0.0491 -0.0005  0.0859
 3754DPPE   GL166903  19.543  19.056  16.858  0.4617 -0.1036 -0.1008
 3754DPPE   GL266904  19.558  19.264  17.057  0.1360 -0.1116 -0.0286
 3754DPPE   C1A66905  19.809  19.036  16.354 -0.1153  0.0592 -0.1410
 3754DPPE   C2A66906  20.120  19.159  16.152 -0.1511 -0.0725 -0.1329
 3754DPPE   C3A66907  20.628  19.282  16.263  0.0882 -0.1696  0.2490
 3754DPPE   C4A66908  21.018  19.246  16.125 -0.0578 -0.0785 -0.3019
 3754DPPE   C1B66909  19.909  19.493  16.980  0.1499  0.0250  0.2180
 3754DPPE   C2B66910  20.165  19.454  16.637 -0.3904 -0.1962  0.0962
 3754DPPE   C3B66911  20.073  19.634  16.316  0.0848  0.2222 -0.1491
 3754DPPE   C4B66912  19.774  19.559  16.076 -0.2524 -0.4384  0.1279
 3755DPPE   NH366913  20.443  14.482  17.709  0.0145  0.1158  0.1599
 3755DPPE   PO466914  20.577  14.694  17.448  0.1725 -0.1010  0.0143
 3755DPPE   GL166915  20.904  14.679  17.634 -0.3410 -0.0134  0.1177
 3755DPPE   GL266916  21.008  14.438  17.686 -0.1291  0.1519 -0.0672
 3755DPPE   C1A66917  21.276  14.838  17.894  0.0942 -0.0189 -0.1470
 3755DPPE   C2A66918  21.577  15.090  18.073  0.0514 -0.1800  0.0846
 3755DPPE   C3A66919  21.743  15.478  18.182 -0.1164  0.0328 -0.0618
 3755DPPE   C4A66920  21.488  15.746  18.265  0.1523 -0.0451  0.0688
 3755DPPE   C1B66921  21.440  14.393  17.714 -0.1140 -0.0016 -0.2801
 3755DPPE   C2B66922  21.765  14.818  17.688  0.0071  0.1453 -0.0377
 3755DPPE   C3B66923  22.058  14.889  17.450 -0.2004  0.0135  0.1669
 3755DPPE   C4B66924  22.110  15.323  17.260 -0.1489  0.0698 -0.2697
 3756DPPE   NH366925  20.143  14.366  18.146  0.1042 -0.0956 -0.1197
 3756DPPE   PO466926  20.271  14.071  17.932 -0.2322 -0.2532  0.3224
 3756DPPE   GL166927  20.704  14.055  17.861  0.1136  0.1639 -0.0233
 3756DPPE   GL266928  20.789  13.752  17.747  0.1962 -0.1445  0.0012
 3756DPPE   C1A66929  21.176  13.952  17.638 -0.0916 -0.3081 -0.2714
 3756DPPE   C2A66930  21.316  14.028  17.260  0.1012 -0.2133  0.0385
 3756DPPE   C3A66931  21.252  14.213  16.862 -0.3172  0.2275 -0.0104
 3756DPPE   C4A66932  21.321  14.251  16.360 -0.0689  0.1848  0.0340
 3756DPPE   C1B66933  21.266  13.530  17.492 -0.1186 -0.3042  0.2180
 3756DPPE   C2B66934  21.398  13.229  17.149 -0.2143 -0.3321  0.4276
 3756DPPE   C3B66935  21.180  12.999  16.902  0.1954  0.0701 -0.3916
 3756DPPE   C4B66936  21.185  12.835  16.437 -0.1662  0.1951  0.0914
 3757DPPE   NH366937  18.442  20.998  17.573  0.2430  0.0263  0.1596
 3757DPPE   PO466938  18.283  21.337  17.600 -0.1763 -0.2525  0.0137
 3757DPPE   GL166939  18.781  21.396  17.589 -0.0629 -0.0022  0.2039
 3757DPPE   GL266940  18.732  21.771  17.656 -0.0081  0.1162 -0.0849
 3757DPPE   C1A66941  19.169  21.656  17.457 -0.1045 -0.0658  0.0477
 3757DPPE   C2A66942  19.429  21.914  17.444  0.0695  0.0716  0.1125
 3757DPPE   C3A66943  19.462  22.381  17.456 -0.0374 -0.0469  0.1692
 3757DPPE   C4A66944  19.719  22.438  17.765  0.1666  0.1394  0.2782
 3757DPPE   C1B66945  18.850  22.071  18.004 -0.0658 -0.0347  0.1039
 3757DPPE   C2B66946  18.742  22.531  18.111 -0.4453 -0.4403  0.1371
 3757DPPE   C3B66947  18.940  22.754  18.457 -0.3283  0.2492 -0.2221
 3757DPPE   C4B66948  18.959  22.557  18.791 -0.2617 -0.3976 -0.3139
 3758DPPE   NH366949  19.196  17.761  16.583 -0.2990 -0.0307 -0.1867
 3758DPPE   PO466950  19.266  18.172  16.549 -0.3267  0.2588 -0.1565
 3758DPPE   GL166951  19.632  18.168  16.439  0.1134  0.1048  0.0703
 3758DPPE   GL266952  19.904  17.842  16.313  0.0287  0.0830 -0.2285
 3758DPPE   C1A66953  19.793  18.536  16.219 -0.4565  0.3943 -0.1292
 3758DPPE   C2A66954  20.048  18.724  15.920  0.2886 -0.2070 -0.0221
 3758DPPE   C3A66955  20.283  18.883  15.518 -0.1815  0.2720  0.0956
 3758DPPE   C4A66956  20.498  19.011  15.152 -0.0218  0.0176  0.2294
 3758DPPE   C1B66957  20.079  17.689  15.998  0.0409 -0.4017  0.0402
 3758DPPE   C2B66958  20.274  17.452  15.620 -0.0689  0.1100 -0.3108
 3758DPPE   C3B66959  20.265  17.125  15.419 -0.4079 -0.1604 -0.0721
 3758DPPE   C4B66960  20.253  16.744  15.657 -0.2330  0.3985 -0.1951
 3759DPPE   NH366961  20.316  15.606  17.690 -0.1439  0.0552 -0.0243
 3759DPPE   PO466962  20.664  15.564  17.332  0.3708  0.0187 -0.1498
 3759DPPE   GL166963  21.009  15.544  16.980 -0.0835 -0.3272 -0.3617
 3759DPPE   GL266964  20.874  15.773  16.840 -0.2790 -0.0083  0.0639
 3759DPPE   C1A66965  21.247  15.285  16.914  0.0658  0.3057  0.0384
 3759DPPE   C2A66966  21.591  15.194  16.745 -0.0431  0.0287  0.1132
 3759DPPE   C3A66967  21.968  14.976  16.897 -0.2103  0.2407 -0.1622
 3759DPPE   C4A66968  22.467  14.955  17.121  0.1588  0.0223  0.0474
 3759DPPE   C1B66969  21.019  15.626  16.442 -0.1090  0.1151 -0.1981
 3759DPPE   C2B66970  21.328  15.508  16.171 -0.2856  0.1113 -0.2683
 3759DPPE   C3B66971  21.313  15.816  15.780  0.2320  0.0190  0.0430
 3759DPPE   C4B66972  20.993  15.847  15.427  0.0618 -0.0933  0.2251
 3760DPPE   NH366973  18.871  19.739  18.007  0.0099 -0.0854 -0.3089
 3760DPPE   PO466974  18.813  19.491  17.652 -0.1193  0.3839 -0.1531
 3760DPPE   GL166975  19.217  19.654  17.541 -0.0862  0.0860  0.3014
 3760DPPE   GL266976  19.161  20.025  17.304  0.0319 -0.0305 -0.3489
 3760DPPE   C1A66977  19.684  19.559  17.498 -0.0262  0.0243 -0.1408
 3760DPPE   C2A66978  19.971  19.441  17.799  0.2083 -0.0600 -0.2092
 3760DPPE   C3A66979  20.207  18.934  17.927 -0.1335  0.1168  0.0029
 3760DPPE   C4A66980  20.531  19.025  18.204 -0.0969  0.2434 -0.0064
 3760DPPE   C1B66981  19.457  20.409  17.365 -0.0966 -0.1836  0.2483
 3760DPPE   C2B66982  19.758  20.647  17.656  0.0549  0.0542 -0.0489
 3760DPPE   C3B66983  20.019  20.804  17.991  0.0548  0.1336 -0.3609
 3760DPPE   C4B66984  20.106  20.690  18.354 -0.0374 -0.0537  0.3680
 3761DPPE   NH366985  20.123  16.316  17.210  0.2629  0.0227  0.0834
 3761DPPE   PO466986  19.788  16.072  17.130 -0.1012 -0.0156  0.1667
 3761DPPE   GL166987  20.093  16.050  16.796 -0.1354  0.1988  0.2448
 3761DPPE   GL266988  20.412  16.014  16.858  0.3305 -0.1044 -0.0185
 3761DPPE   C1A66989  20.329  16.104  16.373 -0.2095 -0.0911 -0.2343
 3761DPPE   C2A66990  20.688  16.201  16.338 -0.2910 -0.3143  0.3905
 3761DPPE   C3A66991  21.143  16.086  16.273  0.0464 -0.0088  0.3226
 3761DPPE   C4A66992  21.481  16.365  16.383  0.0455  0.0398  0.2127
 3761DPPE   C1B66993  20.737  16.206  16.820  0.2993 -0.1428  0.0906
 3761DPPE   C2B66994  21.070  16.228  16.790 -0.0760 -0.0957  0.0214
 3761DPPE   C3B66995  21.410  15.936  16.670  0.0657  0.3592  0.0216
 3761DPPE   C4B66996  21.710  15.695  16.537 -0.1597 -0.1295 -0.0712
 3762DPPE   NH366997  19.978  17.632  17.686 -0.0826 -0.0197 -0.2180
 3762DPPE   PO466998  19.993  17.846  17.242  0.2818 -0.0318 -0.1047
 3762DPPE   GL166999  20.362  17.877  17.374  0.0695 -0.0887 -0.1636
 3762DPPE   GL267000  20.438  17.831  17.723 -0.1652 -0.1396 -0.0504
 3762DPPE   C1A67001  20.836  17.955  17.455  0.0347 -0.4482 -0.2389
 3762DPPE   C2A67002  21.146  18.217  17.114 -0.0796 -0.1330 -0.2683
 3762DPPE   C3A67003  21.616  18.398  17.034 -0.1830  0.0371 -0.0011
 3762DPPE   C4A67004  21.932  18.536  16.797 -0.0327  0.4015 -0.2651
 3762DPPE   C1B67005  20.838  17.955  18.070  0.1669 -0.1561 -0.2417
 3762DPPE   C2B67006  21.094  18.256  18.178  0.0218  0.2076 -0.1873
 3762DPPE   C3B67007  21.446  18.236  18.397  0.1577 -0.2717  0.0241
 3762DPPE   C4B67008  21.410  18.271  18.729  0.4742  0.1452 -0.0064
 3763DPPE   NH367009  19.665  18.525  16.819 -0.0253  0.2834 -0.2214
 3763DPPE   PO467010  19.774  18.341  17.197  0.0966  0.1265 -0.0861
 3763DPPE   GL167011  20.098  18.462  17.266  0.0301  0.1025 -0.0997
 3763DPPE   GL267012  20.319  18.358  17.335 -0.0961  0.0174  0.0081
 3763DPPE   C1A67013  20.396  18.868  17.432  0.1513  0.0463 -0.1372
 3763DPPE   C2A67014  20.779  18.983  17.804 -0.0419 -0.0878  0.1860
 3763DPPE   C3A67015  21.031  18.797  18.090  0.0808 -0.0175  0.0550
 3763DPPE   C4A67016  21.445  18.614  17.957  0.0511  0.1703  0.2484
 3763DPPE   C1B67017  20.738  18.523  17.261 -0.0402  0.4204 -0.0210
 3763DPPE   C2B67018  21.069  18.724  16.956  0.0030 -0.3515  0.3339
 3763DPPE   C3B67019  21.171  19.117  16.636 -0.0160 -0.1976  0.1388
 3763DPPE   C4B67020  21.018  19.527  16.560  0.0772  0.0245  0.1318
 3764DPPE   NH367021  19.396  17.678  17.079 -0.1523  0.1778 -0.0487
 3764DPPE   PO467022  19.628  18.003  16.885  0.3907  0.2141 -0.0938
 3764DPPE   GL167023  20.058  18.131  16.807 -0.1785  0.0395  0.3032
 3764DPPE   GL267024  20.319  18.070  16.911  0.1018 -0.0461  0.0623
 3764DPPE   C1A67025  20.133  18.258  16.440  0.0835 -0.2957  0.1091
 3764DPPE   C2A67026  20.506  18.377  16.255  0.1333  0.0353  0.0192
 3764DPPE   C3A67027  20.855  18.151  16.118 -0.0450  0.2488 -0.0066
 3764DPPE   C4A67028  21.005  17.949  15.834  0.2085  0.1027  0.1981
 3764DPPE   C1B67029  20.454  18.460  16.831 -0.2927 -0.4671  0.3549
 3764DPPE   C2B67030  20.608  18.941  16.934 -0.1319  0.2201  0.0506
 3764DPPE   C3B67031  20.596  19.313  16.823 -0.1636  0.3794  0.2625
 3764DPPE   C4B67032  20.560  19.769  16.635  0.3454  0.1122 -0.2710
 3765DPPE   NH367033  19.402  16.360  16.958  0.1020 -0.1482 -0.1959
 3765DPPE   PO467034  19.795  16.490  16.871  0.4537 -0.0731  0.2401
 3765DPPE   GL167035  20.170  16.511  16.727 -0.0151  0.2342 -0.1037
 3765DPPE   GL267036  20.114  16.824  16.500  0.1340  0.2222 -0.0480
 3765DPPE   C1A67037  20.619  16.603  16.569 -0.4208 -0.2569  0.1632
 3765DPPE   C2A67038  20.993  16.633  16.580 -0.0345  0.0836 -0.1990
 3765DPPE   C3A67039  21.157  16.689  16.214  0.0084  0.2427 -0.0884
 3765DPPE   C4A67040  21.486  16.881  15.971  0.0356 -0.0722 -0.0328
 3765DPPE   C1B67041  20.132  16.511  16.176 -0.1904  0.3373 -0.0335
 3765DPPE   C2B67042  19.917  16.433  15.915  0.2911  0.3036 -0.1848
 3765DPPE   C3B67043  19.567  16.342  15.773 -0.2013 -0.1960  0.0105
 3765DPPE   C4B67044  19.373  16.210  15.496  0.1602 -0.1526  0.2580
 3766DPPE   NH367045  20.469  15.472  16.912  0.0630  0.2825  0.2994
 3766DPPE   PO467046  20.213  15.155  16.703 -0.3370  0.1725 -0.0658
 3766DPPE   GL167047  20.639  15.164  16.594  0.0707  0.0704  0.1744
 3766DPPE   GL267048  20.915  14.951  16.655 -0.2655  0.0384  0.0478
 3766DPPE   C1A67049  20.837  15.263  16.163  0.1796 -0.1947  0.1486
 3766DPPE   C2A67050  21.008  15.428  15.728  0.0585 -0.1630  0.0567
 3766DPPE   C3A67051  21.217  15.326  15.338  0.1182  0.2248 -0.3115
 3766DPPE   C4A67052  21.406  15.253  15.031  0.4030 -0.0477  0.1147
 3766DPPE   C1B67053  21.215  15.067  16.389 -0.3787 -0.1340 -0.3187
 3766DPPE   C2B67054  21.417  14.748  16.244  0.1382  0.1055  0.0402
 3766DPPE   C3B67055  21.724  14.676  15.948 -0.1241 -0.1348  0.2638
 3766DPPE   C4B67056  22.087  14.531  15.765 -0.0190 -0.2741  0.0097
  33.21535  33.21535  35.33280
